/*--------------------------------*- C++ -*----------------------------------*\
| =========                 |                                                 |
| \\      /  F ield         | OpenFOAM: The Open Source CFD Toolbox           |
|  \\    /   O peration     | Version:  v2006                                 |
|   \\  /    A nd           | Website:  www.openfoam.com                      |
|    \\/     M anipulation  |                                                 |
\*---------------------------------------------------------------------------*/
FoamFile
{
    version     2.0;
    format      ascii;
    class       volScalarField;
    location    "0.06";
    object      isentropic(p);
}
// * * * * * * * * * * * * * * * * * * * * * * * * * * * * * * * * * * * * * //

dimensions      [1 -1 -2 0 0 0 0];


internalField   nonuniform List<scalar> 
9148
(
150025
150028
150025
150029
150027
150030
150032
150034
150033
150031
150030
150029
150028
150027
150027
150026
150026
150025
150025
150024
150024
150023
150023
150022
150022
150021
150021
150020
150020
150019
150019
150018
150018
150017
150017
150016
150016
150016
150015
150015
150014
150014
150013
150013
150012
150012
150012
150011
150011
150010
150010
150010
150009
150009
150008
150008
150007
150006
150004
150002
150003
150005
150009
150012
150010
150011
150013
150015
150023
150033
150029
149961
149893
150019
150039
150036
150005
149834
149774
149988
150029
150019
149970
149723
149675
149951
150009
149999
149933
149634
149596
149914
149989
149980
149898
149562
149532
149882
149970
149961
149867
149504
149479
149851
149952
149942
149837
149456
149435
149823
149934
149924
149810
149415
149397
149797
149916
149908
149785
149380
149365
149773
149900
149892
149762
149350
149337
149752
149885
149877
149742
149325
149314
149732
149871
149863
149723
149303
149294
149714
149857
149850
149705
149284
149276
149697
149844
149837
149688
149268
149261
149680
149832
149825
149672
149253
149247
149665
149819
149812
149657
149241
149235
149650
149807
149800
149643
149230
149226
149637
149795
149789
149630
149221
149218
149624
149784
149779
149618
149215
149213
149613
149775
149770
149608
149211
149210
149604
149766
149762
149600
149210
149210
149596
149759
149755
149593
149210
149211
149590
149752
149748
149586
149212
149214
149583
149745
149741
149580
149215
149217
149577
149737
149733
149573
149219
149221
149570
149729
149724
149566
149223
149226
149563
149720
149715
149559
149228
149232
149556
149711
149706
149552
149235
149239
149549
149702
149697
149546
149243
149248
149544
149694
149690
149542
149254
149261
149540
149687
149684
149540
149268
149277
149539
149682
149679
149539
149286
149296
149540
149678
149676
149540
149306
149318
149541
149674
149671
149542
149329
149341
149542
149669
149665
149542
149353
149365
149541
149661
149655
149539
149377
149389
149536
149648
149638
149531
149401
149413
149525
149626
149609
149515
149424
149448
149509
149591
149550
149473
149450
149463
149446
149502
149455
149453
149473
149482
149463
149440
149450
149482
149498
149517
149506
149476
149511
149530
149534
149536
149545
149542
149540
149532
149520
149527
149541
149552
149544
149532
149517
149526
149544
149556
149554
149543
149523
149532
149555
149567
149569
149558
149534
149543
149569
149579
149584
149574
149548
149554
149579
149590
149592
149581
149556
149558
149583
149596
149598
149585
149558
149560
149587
149601
149603
149589
149561
149562
149592
149606
149608
149595
149564
149565
149598
149611
149613
149601
149566
149568
149604
149615
149618
149607
149570
149573
149610
149620
149622
149614
149576
149579
149617
149624
149627
149620
149583
149587
149624
149629
149632
149627
149592
149597
149631
149634
149637
149634
149603
149608
149638
149640
149643
149642
149615
149621
149645
149646
149649
149649
149627
149633
149652
149652
149656
149655
149639
149645
149658
149658
149661
149662
149650
149655
149664
149664
149666
149666
149660
149662
149667
149666
149667
149667
149665
149665
149666
149666
149665
149665
149665
149664
149664
149663
149661
149656
149649
149640
149630
149620
149611
149603
149597
149594
149593
149595
149599
149605
149613
149622
149629
149636
149639
149641
149639
149640
149642
149639
149641
149641
149641
149644
149638
149640
149624
149657
149636
149640
149635
149640
149638
149638
149634
149635
149639
149639
149638
149633
149633
149634
149637
149638
149634
149637
149631
149641
149630
149639
149628
149633
149629
149627
149630
149625
149624
149620
149623
149620
149623
149619
149625
149614
149618
149617
149617
149629
149630
149620
149609
149600
149626
149636
149641
149631
149596
149590
149634
149651
149656
149641
149588
149585
149644
149664
149683
149629
149591
149584
149655
149679
149682
149664
149586
149596
149654
149698
149705
149657
149597
149594
149681
149703
149706
149691
149599
149605
149696
149714
149717
149707
149612
149629
149699
149731
149739
149703
149638
149649
149725
149742
149751
149738
149665
149684
149750
149760
149768
149760
149701
149719
149770
149775
149783
149780
149737
149754
149788
149789
149796
149797
149769
149782
149804
149802
149808
149811
149794
149810
149812
149807
149794
149859
149789
149838
149822
149823
149833
149838
149837
149847
149845
149835
149836
149847
149852
149854
149846
149834
149851
149861
149863
149866
149856
149840
149861
149881
149906
149870
149867
149863
149899
149933
149941
150031
149953
149870
149976
150009
150050
149624
149913
149924
149450
149448
150050
149336
149641
149575
148482
148866
147468
145610
147182
147636
147473
147045
145716
146187
147299
147749
147469
146995
146090
145926
146652
147059
147533
147171
146451
146378
146931
147269
147708
147388
146796
146695
147179
147465
147859
147575
147051
147042
147484
147755
147567
147302
146953
147262
147684
147894
147742
147525
147178
147450
147835
148023
147953
147762
147428
147335
147635
147809
148073
147913
147549
147450
147823
147920
148170
148028
147689
147611
147908
148041
148260
148123
147820
147789
148060
148204
148091
147940
147707
147871
148163
148290
148178
148075
147790
147946
148255
148355
148243
148145
147860
148037
148315
148414
148308
148195
147947
148108
148373
148475
148384
148270
148038
148176
148436
148539
148500
148387
148153
148055
148278
148396
148563
148467
148178
148066
148396
148455
148602
148585
148225
148104
148471
148499
148654
148607
148259
148201
148479
148567
148706
148621
148345
148239
148499
148602
148746
148667
148396
148310
148553
148659
148779
148692
148420
148328
148576
148685
148821
148743
148477
148383
148626
148732
148849
148765
148492
148395
148647
148756
148887
148809
148538
148441
148690
148798
148912
148829
148547
148447
148706
148816
148945
148869
148589
148487
148747
148856
148966
148884
148594
148481
148753
148866
149000
148898
148639
148532
148769
148904
149019
148892
148640
148512
148747
148905
149011
148826
148619
148676
149030
149097
148990
148855
148590
148694
149008
149095
148994
148874
148592
148732
149040
149122
149029
148912
148631
148747
149061
149143
149038
148917
148622
148736
149068
149155
149059
148938
148636
148765
149101
149183
149074
148946
148629
148734
149095
149183
149058
148923
148581
148674
149059
149166
149272
149194
148800
148668
149011
149140
149260
149170
148807
148683
149014
149148
149281
149190
148831
148709
149040
149173
149294
149208
148848
148695
149036
149173
149291
149202
148817
148668
149026
149168
149260
149165
148729
148869
149285
149368
149225
149091
148714
148850
149246
149336
149220
149079
148714
148856
149250
149342
149231
149092
148719
148848
149254
149348
149218
149073
148681
148818
149257
149345
149204
149051
148629
148719
149164
149304
149418
149345
148847
148680
149106
149264
149395
149301
148848
148679
149102
149263
149397
149299
148839
148665
149095
149259
149392
149295
148827
148622
149064
149236
149353
149155
148751
148833
149383
149452
149305
149124
148687
148825
149329
149413
149274
149094
148645
148819
149312
149404
149262
149084
148615
148794
149298
149395
149249
149072
148584
148771
149294
149389
149209
149021
148503
148606
149182
149319
149462
149371
148770
148566
149096
149278
149409
149308
148753
148540
149065
149255
149389
149285
148723
148470
149016
149214
149369
149260
148674
148446
149009
149210
149357
149253
148626
148365
148944
149167
149280
149126
148465
148633
149329
149424
149199
148988
148357
148578
149230
149349
149182
148964
148345
148574
149229
149344
149175
148954
148324
148474
149165
149291
149069
148827
148147
148423
149145
149274
149076
148828
148119
148241
149026
149204
149396
149309
148536
148156
148879
149127
149269
149138
148392
148100
148814
149063
149257
149126
148376
148108
148825
149075
149238
149129
148402
148030
148758
149018
149154
149010
148210
147862
148649
148921
149140
149005
148178
147854
148671
148946
149138
149024
148204
147800
148627
148913
149026
148873
147965
147541
148448
148755
149004
148855
147909
147543
148484
148796
148998
148890
147954
147441
148399
148727
148838
148659
147576
147074
148142
148509
148701
148588
147244
147813
148852
149036
148736
148484
147367
147658
148680
148809
148449
148081
147004
147508
148523
148687
148717
148392
147326
146714
147801
148223
148520
148461
147438
146397
147601
148062
148317
148128
146855
146377
147627
148055
148362
148287
146955
146604
147787
148225
148113
147864
146446
145704
147144
147640
147999
147802
146413
146008
147416
147864
147983
148008
146933
145386
146859
147413
147515
147342
145949
145700
147246
147690
147230
146483
145479
145267
146919
146996
146484
145854
143930
144980
146616
146835
146880
146523
144868
144650
146418
146665
146500
145863
143783
143067
145068
145764
145661
145761
144485
142584
144945
145631
144756
144006
141643
143188
144597
144514
144602
143872
140931
141377
144023
144427
141917
140528
136557
139498
141617
142076
141500
140328
136230
133923
139114
140372
138833
137307
130649
127925
135207
136791
136956
135382
128124
128532
135688
137701
137960
135605
128493
128269
135178
137835
137711
134832
128085
127954
134440
137501
137379
134175
127901
127855
133843
137137
136981
133618
127857
127854
133330
136717
136563
133157
127895
127925
132927
136302
136161
132809
127996
128052
132631
135922
135807
132561
128146
128220
132427
135590
135498
132394
128330
128417
132298
135311
135245
132294
128537
128633
132224
135080
135034
132242
128760
128862
132195
134896
134874
132232
128994
129098
132205
134758
134752
132249
129238
129342
132239
134659
134672
132300
129488
129588
132302
134597
134636
132374
129732
129828
132387
134580
134645
132474
129970
130062
132497
134603
134686
132590
130199
130285
132619
134656
134756
132722
130418
130501
132759
134736
134844
132864
130628
130705
132904
134832
134952
133016
130829
130903
133061
134945
135069
133173
131021
131091
133219
135067
135196
133335
131207
131274
133384
135198
135327
133498
131385
131448
133545
135331
135463
133662
131556
131618
133711
135469
135597
133823
131721
131778
133871
135604
135733
133984
131880
131935
134032
135741
135865
134140
132031
132083
134185
135874
135997
134294
132177
132226
134338
136006
136124
134441
132315
132361
134483
136132
136249
134585
132448
132491
134626
136257
136368
134723
132574
132613
134760
136376
136486
134857
132693
132731
134893
136492
136597
134984
132807
132841
135018
136603
136706
135107
132914
132947
135139
136711
136809
135223
133016
133046
135252
136813
136909
135336
133112
133140
135362
136912
137003
135440
133202
133227
135464
137005
137096
135541
133287
133310
135563
137096
137181
135636
133367
133387
135654
137181
137264
135726
133442
133460
135743
137262
137342
135809
133512
133528
135824
137339
137417
135889
133577
133591
135902
137413
137487
135964
133637
133650
135974
137482
137555
136035
133694
133705
136045
137549
137619
136102
133747
133756
136109
137613
137681
136166
133796
133804
136172
137673
137740
136225
133842
133848
136229
137731
137796
136282
133884
133890
136286
137786
137849
136335
133924
133928
136337
137839
137900
136387
133961
133965
136387
137889
137948
136434
133996
133998
136434
137936
137995
136481
134029
134030
136479
137982
138039
136523
134060
134060
136520
138025
138082
136565
134088
134088
136561
138067
138122
136603
134115
134114
136599
138106
138161
136641
134141
134139
136636
138144
138197
136676
134165
134162
136669
138180
138233
136710
134188
134184
136703
138215
138266
136741
134209
134205
136733
138248
138298
136772
134229
134225
136764
138280
138329
136801
134248
134243
136791
138310
138359
136829
134266
134261
136819
138339
138386
136855
134283
134277
136844
138367
138414
136880
134299
134293
136869
138393
138439
136903
134314
134308
136891
138419
138465
136927
134329
134322
136915
138443
138488
136948
134342
134335
136935
138466
138511
136969
134355
134348
136956
138489
138533
136989
134368
134359
136975
138510
138554
137008
134379
134371
136994
138531
138574
137026
134390
134381
137011
138551
138593
137044
134401
134392
137029
138569
138612
137060
134410
134401
137044
138588
138630
137076
134420
134410
137060
138605
138646
137091
134429
134419
137074
138622
138663
137106
134437
134427
137089
138638
138679
137119
134445
134435
137102
138654
138694
137133
134452
134442
137116
138669
138709
137145
134460
134449
137127
138683
138723
137158
134466
134456
137140
138697
138736
137169
134473
134462
137151
138710
138750
137181
134479
134468
137163
138723
138762
137191
134485
134473
137172
138735
138774
137202
134490
134478
137183
138747
138785
137211
134495
134483
137192
138759
138797
137221
134500
134488
137202
138769
138807
137229
134504
134492
137210
138780
138818
137239
134508
134496
137219
138790
138828
137247
134512
134500
137227
138801
138838
137255
134516
134504
137236
138810
138847
137262
134519
134506
137242
138819
138857
137270
134522
134509
137250
138828
138865
137276
134525
134512
137256
138836
138873
137283
134527
134514
137263
138844
138880
137290
134529
134515
137269
138852
138889
137295
134533
134519
137274
138861
138899
137301
134533
134519
137281
138871
138916
137312
134538
134524
137296
138891
138951
137338
134552
134539
137331
138936
139013
137384
134578
134586
137400
139037
139236
137529
134689
134874
137759
139529
139709
137936
135022
141747
143153
143614
143808
144759
145396
145692
145945
146836
147431
148044
148529
148903
149194
149406
149555
149657
149728
149779
149815
149842
149863
149878
149890
149899
149906
149910
149913
149915
149916
149916
149917
149927
149932
149936
149943
149950
149959
149971
149984
149999
150016
150034
150052
150067
150076
150078
150075
150070
150065
150061
150058
150054
150051
150047
150044
150040
150036
150032
150028
150025
150022
150019
150016
150014
150013
150012
150012
150013
150014
150016
150018
150022
150026
150031
150036
150041
150047
150053
150059
150065
150070
150074
150078
150081
150083
150084
150084
150083
150082
150079
150076
150072
150067
150062
150057
150052
150046
150040
150034
150029
150023
150018
150013
150008
150003
149999
149994
149990
149987
149983
149980
149977
149975
149973
149971
149969
149968
149966
149966
149965
149965
149965
149965
149965
149965
149965
149966
149966
149966
149967
149967
149968
149968
149969
149970
149971
149972
149973
149974
149976
149978
149979
149981
149983
149984
149986
149988
149990
149992
149994
149996
149999
150006
150017
150024
150027
150026
150032
150053
150063
150065
150063
150058
150054
150050
150047
150044
150042
150040
150038
150037
150035
150034
150032
150031
150030
150029
150028
150027
150026
150025
150024
150023
150022
150021
150020
150020
150019
150018
150017
150017
150016
150015
150014
150013
150012
150012
150011
150010
150009
150008
150007
150006
150005
150004
150003
150002
150001
149999
149997
149994
149992
149992
149997
150003
150010
150021
150032
150035
150033
150029
150024
150020
150016
150011
150007
150002
149998
149993
149989
149985
149981
149977
149973
149970
149966
149963
149959
149956
149952
149949
149945
149941
149937
149934
149930
149926
149922
149919
149915
149912
149909
149906
149904
149901
149899
149897
149895
149892
149890
149887
149884
149881
149878
149874
149871
149867
149862
149858
149854
149850
149847
149843
149840
149837
149835
149833
149831
149829
149826
149824
149821
149817
149812
149806
149799
149790
149779
149765
149748
149716
149673
149618
149561
149520
149509
149520
149535
149531
149553
149547
149564
149557
149571
149568
149581
149584
149593
149595
149600
149602
149605
149607
149609
149611
149612
149614
149615
149616
149618
149619
149621
149622
149624
149626
149629
149631
149634
149637
149640
149644
149647
149650
149654
149657
149660
149662
149663
149664
149664
149663
149658
149651
149650
149659
149658
149647
149646
149656
149655
149641
149621
149636
149639
149642
149631
149628
149621
149607
149615
149620
149610
149604
149594
149587
149568
149609
149638
149651
149647
149630
149627
149643
149638
149619
149595
149583
149616
149634
149630
149608
149607
149626
149622
149599
149573
149566
149599
149619
149615
149593
149593
149613
149610
149588
149563
149561
149589
149609
149606
149586
149588
149606
149604
149585
149561
149563
149588
149604
149603
149585
149589
149603
149602
149586
149566
149569
149589
149602
149601
149587
149590
149600
149598
149587
149572
149564
149590
149597
149593
149582
149587
149592
149586
149566
149565
149564
149574
149585
149574
149527
149543
149570
149553
149493
149568
149628
149543
149557
149538
149497
149568
149544
149535
149535
149724
149816
149620
149548
149532
149619
149697
149574
149594
149709
149887
149940
149768
149634
149672
149793
149843
149722
149766
149871
149979
150003
149909
149808
149837
149923
149949
149860
149872
149947
150013
150015
149966
149883
149890
149959
149974
149897
149901
149966
150016
150015
149978
149906
149908
149969
149979
149911
149912
149970
150013
150011
149979
149914
149914
149970
149978
149916
149916
149970
150009
150008
149978
149918
149919
149971
149979
149921
149923
149973
150009
150011
149981
149926
149928
149976
149985
149931
149934
149980
150014
150017
149989
149938
149940
149984
149992
149944
149946
149988
150020
150022
149995
149949
149951
149991
149997
149954
149955
149992
150022
150022
149998
149957
149958
149993
149999
149959
149960
149994
150022
150021
149999
149961
149962
149994
149999
149964
149964
149995
150020
150020
150000
149967
149967
149996
150001
149970
149971
149998
150021
150022
150003
149974
149976
150001
150005
149979
149980
150003
150023
150024
150008
149983
149985
150006
150010
149987
149989
150008
150025
150025
150012
149991
149993
150010
150013
149995
149996
150011
150025
150025
150014
149998
150000
150013
150015
150002
150003
150014
150024
150025
150017
150006
150008
150017
150019
150010
150012
150019
150025
150026
150022
150015
150017
150022
150024
150020
150022
150025
150027
150027
150027
150025
150028
150029
150030
150030
150032
150031
150026
150017
150024
150027
150029
150030
150031
150032
150034
150036
150037
150039
150039
150040
150039
150039
150039
150040
150041
150043
150044
150045
150046
150045
150044
150042
150040
150039
150040
150041
150043
150046
150049
150051
150052
150051
150048
150040
150025
150000
149960
149901
149822
149733
149650
149588
149563
149542
149533
149525
149517
149511
149508
149509
149513
149521
149534
149549
149512
149535
149561
149582
149594
149602
149595
149587
149575
149569
149583
149591
149590
149582
149569
149550
149521
149523
149552
149569
149584
149592
149596
149589
149576
149583
149597
149603
149611
149607
149596
149571
149545
149519
149495
149494
149472
149493
149478
149469
149444
149455
149454
149473
149498
149481
149469
149442
149437
149439
149465
149466
149441
149448
149471
149481
149465
149481
149453
149440
149470
149464
149527
149529
149536
149548
149564
149584
149602
149609
149619
149621
149629
149629
149623
149639
149641
149636
149638
149644
149646
149638
149632
149663
149663
149659
149653
149648
149639
149639
149637
149640
149637
149640
149638
149635
149631
149636
149636
149634
149640
149650
149637
149630
149633
149635
149632
149634
149644
149660
149669
149676
149681
149665
149661
149624
149619
149616
149614
149661
149666
149659
149663
149659
149663
149688
149684
149685
149681
149678
149671
149667
149657
149653
149644
149630
149635
149633
149635
149645
149652
149662
149668
149675
149681
149688
149691
149694
149691
149686
149695
149696
149690
149695
149702
149700
149699
149703
149708
149705
149706
149697
149703
149706
149712
149671
149666
149612
149614
149534
149555
149489
149530
149597
149533
149494
149495
149518
149544
149619
149555
149617
149706
149797
149701
149608
149687
149785
149878
149948
149864
149768
149672
149599
149670
149630
149697
149692
149678
149680
149725
149717
149729
149728
149722
149722
149716
149716
149712
149711
149715
149710
149718
149723
149725
149730
149733
149737
149742
149750
149738
149739
149748
149763
149755
149768
149749
149731
149739
149760
149759
149776
149781
149787
149768
149770
149747
149752
149710
149728
149730
149763
149758
149783
149778
149779
149777
149799
149793
149799
149798
149815
149815
149816
149801
149802
149783
149793
149788
149807
149806
149820
149818
149813
149834
149821
149825
149830
149829
149817
149780
149762
149844
149937
150008
150067
150036
149932
149702
149854
149895
149785
149844
149850
149845
149867
149909
149865
149864
150006
150015
150009
149928
150026
149879
149964
150027
149932
149879
149914
150067
150098
150041
149964
149882
150151
149953
150018
150149
150114
150039
149892
150127
149951
150213
150079
150116
150049
149985
150016
150062
150154
150196
150171
150084
150173
149943
149895
149675
149390
148421
148471
149323
149458
148831
148162
147730
148202
147870
148231
147984
148275
148132
147982
148214
148095
148315
148235
148126
148317
148223
148391
148311
148464
148414
148333
148468
148402
148516
148449
148577
148512
148628
148577
148699
148667
148599
148707
148653
148756
148696
148792
148741
148832
148777
148863
148817
148900
148850
148929
148885
148964
148916
148991
148947
149022
148974
149047
149003
149075
149023
149094
149047
149114
149045
149128
149193
149270
149187
149263
149163
149237
149145
149223
149115
149190
149094
149175
149061
149141
149038
149124
149003
149086
148978
149067
148941
149029
148915
149009
148874
148964
148842
148933
148785
148851
149027
149179
149136
149255
149054
149110
149207
149305
149164
149254
149359
149172
149218
149301
149394
149264
149338
149439
149267
149309
149377
149464
149345
149404
149498
149342
149372
149286
149194
149135
149201
149153
149227
149184
149244
149192
149268
149219
149281
149226
149294
149215
149298
149369
149433
149372
149446
149350
149414
149343
149420
149312
149381
149302
149384
149281
149362
149507
149440
149533
149464
149545
149480
149568
149460
149370
149305
149373
149321
149382
149337
149388
149332
149390
149320
149391
149439
149377
149430
149380
149444
149394
149447
149385
149450
149368
149444
149510
149563
149526
149594
149511
149564
149515
149589
149501
149558
149519
149449
149514
149456
149519
149445
149504
149448
149514
149444
149502
149569
149641
149570
149670
149549
149582
149592
149668
149562
149583
149587
149691
149602
149680
149590
149711
149601
149513
149443
149500
149446
149500
149441
149489
149408
149486
149547
149594
149521
149459
149513
149453
149502
149442
149507
149442
149491
149395
149491
149523
149462
149507
149449
149494
149422
149485
149420
149470
149371
149458
149533
149578
149492
149406
149476
149411
149458
149387
149457
149339
149421
149320
149430
149440
149353
149409
149330
149388
149333
149379
149283
149337
149223
149315
149245
149292
149189
149259
149105
149211
149127
149199
149051
149125
148894
149062
149216
149257
149111
149020
149084
148856
149007
148999
148728
148873
148557
148769
148575
148744
148589
148669
148230
148533
148381
148472
147982
148304
148241
147791
148123
147387
147870
147536
147941
147374
146650
147366
146689
145840
146962
145983
145278
143718
145046
143298
142167
141153
139580
139464
140104
140476
140500
140537
140476
140526
140441
140469
140351
140380
140246
140280
140136
140179
140029
140082
139927
139992
139836
139910
139754
139840
139685
139780
139626
139730
139578
139681
139532
139639
139495
139601
139461
139571
139439
139545
139417
139529
139408
139516
139399
139511
139402
139510
139403
139516
139416
139524
139426
139539
139447
139555
139465
139577
139492
139599
139515
139627
139548
139654
139576
139685
139611
139716
139643
139750
139680
139783
139715
139819
139754
139854
139790
139892
139830
139928
139867
139966
139908
140003
139944
140041
139985
140077
140021
140114
140060
140150
140095
140186
140133
140220
140167
140255
140203
140288
140235
140321
140270
140352
140301
140384
140333
140413
140362
140443
140393
140471
140421
140499
140450
140525
140476
140552
140503
140577
140527
140602
140553
140625
140576
140649
140600
140671
140622
140693
140645
140713
140665
140734
140686
140754
140705
140773
140726
140792
140743
140810
140763
140827
140779
140845
140797
140861
140813
140878
140830
140893
140844
140908
140860
140922
140874
140937
140889
140950
140902
140964
140916
140977
140928
140990
140942
141002
140953
141014
140966
141025
140976
141037
140989
141047
140998
141058
141010
141068
141019
141079
141030
141088
141039
141098
141050
141107
141058
141116
141068
141125
141076
141136
141088
141147
141098
141166
141122
141204
141166
141266
141224
141413
141603
143105
143015
143581
142728
142790
143268
142566
142651
142990
142497
142585
142914
142445
142539
142797
142438
142533
142824
142418
142513
142767
142417
142512
142794
142402
142498
142752
142402
142498
142778
142388
142484
142739
142388
142484
142766
142374
142471
142727
142374
142471
142754
142360
142457
142715
142359
142457
142742
142345
142443
142703
142345
142443
142730
142330
142429
142690
142329
142428
142718
142315
142414
142678
142314
142413
142705
142299
142399
142665
142298
142398
142692
142283
142383
142651
142281
142382
142679
142266
142367
142638
142264
142366
142666
142248
142351
142624
142247
142350
142653
142231
142334
142611
142229
142333
142640
142213
142317
142597
142211
142316
142627
142194
142300
142583
142193
142299
142614
142176
142283
142570
142174
142283
142601
142158
142267
142557
142156
142266
142589
142139
142250
142544
142138
142250
142578
142121
142234
142532
142120
142235
142567
142104
142219
142522
142103
142220
142557
142087
142204
142512
142087
142206
142549
142071
142191
142503
142071
142193
142542
142056
142179
142496
142057
142182
142537
142042
142169
142491
142045
142173
142533
142030
142160
142488
142034
142166
142532
142021
142154
142487
142026
142162
142533
142014
142151
142488
142020
142161
142537
142010
142151
142493
142018
142162
142544
142008
142155
142500
142019
142169
142554
142012
142163
142510
142025
142178
142566
142020
142174
142524
142035
142192
142581
142032
142191
142541
142049
142211
142599
142047
142211
142560
142069
142235
142620
142068
142237
142583
142093
142263
142644
142094
142267
142609
142121
142296
142671
142125
142303
142639
142154
142333
142701
142161
142344
142673
142192
142376
142735
142203
142389
142711
142235
142424
142772
142249
142440
142752
142283
142476
142812
142300
142496
142798
142333
142531
142858
142356
142555
142850
142386
142587
142908
142412
142612
142907
142440
142641
142963
142464
142664
142970
142482
142681
143022
142493
142687
143035
142485
142674
143079
142463
142646
143077
142404
142581
143125
142310
142481
143188
142160
142320
143219
141930
142052
143031
141650
141602
142546
141125
141039
143358
141244
142741
144955
143802
144811
145747
145914
146612
145934
146353
146796
146942
147686
147205
146842
146968
147566
147719
148664
147497
147923
147747
148068
148157
148127
148229
148315
148534
148489
148550
149344
148676
148610
148830
148687
148870
148800
148960
148835
148988
148939
149097
148961
149085
149085
149141
149246
149147
149188
149233
149352
149525
149277
149337
149250
149338
149310
149409
149318
149390
149365
149449
149376
149446
149418
149497
149423
149486
149462
149540
149472
149541
149496
149565
149503
149518
149595
149517
149564
149551
149634
149532
149575
149570
149645
149711
149613
149607
149536
149593
149555
149616
149554
149609
149573
149627
149583
149568
149628
149562
149599
149582
149643
149567
149605
149589
149648
149689
149603
149697
149599
149684
149591
149668
149766
149630
149724
149634
149669
149596
149756
149616
149674
149610
149791
149829
149709
149643
149799
149717
149722
149747
149793
149717
149698
149631
149623
149567
149614
149666
149704
149626
149682
149743
149793
149690
149677
149739
149794
149688
149683
149722
149791
149677
149635
149704
149611
149667
149607
149687
149588
149653
149577
149663
149548
149624
149529
149624
149489
149578
149460
149563
149406
149508
149361
149479
149299
149110
148852
148691
148812
148612
148715
148569
148655
148832
149017
148972
149215
148966
148792
148593
148736
148534
148676
148455
148574
148746
148486
148674
148387
148555
149032
148942
149090
148823
149043
149150
148883
148934
149104
149314
149641
149301
149602
149450
149072
148863
148602
148977
148666
149170
149570
149834
149698
149708
149704
149781
149813
150026
149748
149939
149977
149958
149917
150005
149905
149869
149609
149143
149377
149310
149617
149751
149758
149899
149854
149978
149814
149641
149359
149526
149414
149249
149429
149674
149566
149607
149713
149652
149746
149679
149767
149693
149781
149696
149789
149692
149820
149867
149817
149868
149813
149871
149807
149880
149799
149890
149785
149910
150024
150060
149979
150022
149954
149987
149929
149966
149918
149954
149912
149946
149908
149864
149820
149861
149817
149856
149814
149851
149834
149765
149732
149717
149818
149676
149665
149830
149833
149880
149846
149885
149916
149942
149914
149874
149834
149874
149831
149828
149779
149740
149560
149565
149680
149504
149639
149791
149605
149610
149591
149438
149613
149502
149555
149406
149579
149513
149340
149586
149401
149478
149308
149537
149416
149217
149360
149575
149549
149652
149707
149603
149579
149633
149669
149538
149815
149657
149566
149895
149496
149840
149429
149844
149657
149607
149462
149851
149325
149555
149513
149456
149036
149450
149071
149177
148953
149378
149039
148799
149293
148857
148915
148666
149013
148751
149953
149230
149183