/*--------------------------------*- C++ -*----------------------------------*\
| =========                 |                                                 |
| \\      /  F ield         | OpenFOAM: The Open Source CFD Toolbox           |
|  \\    /   O peration     | Version:  v2006                                 |
|   \\  /    A nd           | Website:  www.openfoam.com                      |
|    \\/     M anipulation  |                                                 |
\*---------------------------------------------------------------------------*/
FoamFile
{
    version     2.0;
    format      ascii;
    class       volScalarField;
    location    "0.042";
    object      nut;
}
// * * * * * * * * * * * * * * * * * * * * * * * * * * * * * * * * * * * * * //

dimensions      [0 2 -1 0 0 0 0];


internalField   nonuniform List<scalar> 
16277
(
21.4587
14.5113
52.9282
10.4857
15.4991
8.88913
3.68547
1.51739
0.820109
0.553629
0.435165
0.375076
0.339193
0.313182
0.291293
0.271592
0.253659
0.237528
0.223218
0.210632
0.199575
0.189818
0.181138
0.173348
0.166297
0.159873
0.153986
0.14857
0.143572
0.138946
0.134657
0.130673
0.126968
0.123517
0.120302
0.117304
0.114509
0.111903
0.109476
0.107215
0.105112
0.103159
0.101349
0.0996755
0.0981327
0.0967161
0.0954215
0.0942457
0.0931859
0.0922402
0.0914072
0.0906862
0.0900771
0.0895801
0.0891952
0.088926
0.0887748
0.088746
0.088844
0.0890704
0.089433
0.0899395
0.0905988
0.0914218
0.0924211
0.0936113
0.0950103
0.0966397
0.0985267
0.100706
0.103226
0.106145
0.109544
0.113514
0.118147
0.123504
0.129589
0.136358
0.14387
0.152784
0.165405
0.18828
0.238225
0.359045
0.668684
1.40579
2.48211
2.65458
1.57327
1.03936
0.511774
0.233357
0.126885
0.0598626
0.0141831
0.00255174
8.45508e-05
7.33846e-05
0.00119937
0.00552369
0.00304371
0.000777197
6.42784e-05
5.75571e-05
0.000708619
0.00255958
0.00204239
0.000609103
5.31883e-05
4.97621e-05
0.000590314
0.00193691
0.00167596
0.000531739
4.68438e-05
4.48766e-05
0.000522606
0.00163254
0.00148592
0.000487021
4.29371e-05
4.18887e-05
0.000489965
0.00147082
0.00137587
0.000463914
4.06075e-05
3.99187e-05
0.000468084
0.00136746
0.00129538
0.000447106
3.89733e-05
3.84972e-05
0.000451243
0.00129162
0.00123204
0.000433448
3.77584e-05
3.7413e-05
0.000437466
0.00123087
0.00117925
0.000421805
3.6813e-05
3.65533e-05
0.000425807
0.00117976
0.00113381
0.000411582
3.60458e-05
3.5841e-05
0.000415599
0.00113541
0.00109373
0.000402353
3.53952e-05
3.52282e-05
0.000406322
0.00109605
0.00105773
0.00039384
3.48275e-05
3.46871e-05
0.000397759
0.00106057
0.00102504
0.000385918
3.43192e-05
3.41974e-05
0.000389796
0.00102826
0.000995071
0.000378511
3.38544e-05
3.37464e-05
0.000382353
0.000998629
0.000967407
0.000371557
3.34228e-05
3.33252e-05
0.000375362
0.000971266
0.000941781
0.000364997
3.30173e-05
3.29278e-05
0.000368763
0.000945897
0.000917964
0.000358785
3.26326e-05
3.25496e-05
0.000362514
0.000922306
0.000895786
0.00035289
3.22649e-05
3.2187e-05
0.000356589
0.000900328
0.000875094
0.000347299
3.19114e-05
3.18379e-05
0.000350969
0.0008798
0.000855726
0.000341986
3.15701e-05
3.15004e-05
0.000345626
0.000860556
0.000837521
0.000336922
3.12393e-05
3.11729e-05
0.00034053
0.000842439
0.000820335
0.000332078
3.09173e-05
3.08537e-05
0.000335651
0.000825313
0.000804047
0.000327428
3.06026e-05
3.05413e-05
0.000330963
0.000809062
0.00078855
0.000322945
3.02937e-05
3.02342e-05
0.000326438
0.000793578
0.000773746
0.000318602
2.99892e-05
2.99311e-05
0.00032205
0.00077877
0.000759554
0.000314377
2.96878e-05
2.96307e-05
0.000317777
0.000764559
0.000745904
0.00031025
2.93882e-05
2.93317e-05
0.0003136
0.000750875
0.000732732
0.000306203
2.90892e-05
2.90329e-05
0.000309501
0.000737659
0.000719983
0.000302221
2.87898e-05
2.87334e-05
0.000305467
0.000724858
0.000707611
0.000298293
2.84889e-05
2.8432e-05
0.000301486
0.000712433
0.000695587
0.000294408
2.81855e-05
2.81279e-05
0.000297549
0.000700351
0.000683883
0.000290561
2.78787e-05
2.78203e-05
0.000293651
0.000688591
0.000672479
0.000286747
2.75679e-05
2.75085e-05
0.000289799
0.000677136
0.000661365
0.000282969
2.72522e-05
2.7192e-05
0.000286014
0.00066598
0.000650541
0.000279241
2.69315e-05
2.68704e-05
0.00028227
0.000655121
0.000640003
0.000275547
2.66054e-05
2.65433e-05
0.000278572
0.000644556
0.000629754
0.000271902
2.62734e-05
2.62106e-05
0.000274936
0.000634297
0.000619814
0.000268321
2.59358e-05
2.58724e-05
0.00027138
0.000624367
0.000610214
0.000264825
2.55928e-05
2.55294e-05
0.000267928
0.000614808
0.000601003
0.000261443
2.52452e-05
2.51823e-05
0.000264615
0.000605758
0.000592279
0.000258214
2.48941e-05
2.48325e-05
0.000261486
0.000597297
0.00058412
0.00025519
2.45413e-05
2.44821e-05
0.000258593
0.000589436
0.000576595
0.000252421
2.41892e-05
2.41339e-05
0.000255995
0.00058231
0.000569853
0.000249976
2.38409e-05
2.37913e-05
0.000253767
0.00057608
0.000564068
0.000247935
2.35004e-05
2.34594e-05
0.000251995
0.00057093
0.000559432
0.000246404
2.31724e-05
2.31447e-05
0.000250719
0.000567054
0.000556171
0.000245452
2.28672e-05
2.28487e-05
0.00024984
0.0005646
0.000554352
0.000244854
2.25967e-05
2.25811e-05
0.00024938
0.000563848
0.000554251
0.000244746
2.23604e-05
2.2347e-05
0.000249408
0.000564812
0.000555846
0.000245165
2.21776e-05
2.2155e-05
0.000249909
0.000567383
0.000559074
0.000246098
2.20465e-05
2.20171e-05
0.000250814
0.000571344
0.000563626
0.000247308
2.19208e-05
2.19341e-05
0.000251948
0.000576584
0.000569437
0.00024859
2.18393e-05
2.1889e-05
0.000253069
0.000582904
0.000576227
0.000249896
2.18051e-05
2.18988e-05
0.000254012
0.00058957
0.000583145
0.000251028
2.18294e-05
2.19536e-05
0.000254791
0.000595961
0.000589664
0.00025185
2.18987e-05
2.20466e-05
0.000255536
0.000601788
0.000595611
0.000252507
2.20065e-05
2.21755e-05
0.000256131
0.00060692
0.000600886
0.000253112
2.21495e-05
2.23352e-05
0.000256671
0.000611307
0.000605386
0.000253447
2.23211e-05
2.25169e-05
0.000257072
0.000615022
0.000608975
0.000253665
2.25138e-05
2.27145e-05
0.000257344
0.000617914
0.000611492
0.000253779
2.27208e-05
2.2921e-05
0.000257484
0.000620352
0.00061324
0.000253823
2.29349e-05
2.31298e-05
0.000257542
0.000621835
0.000614028
0.000253668
2.31498e-05
2.33353e-05
0.000257519
0.000622311
0.000613362
0.000253249
2.33596e-05
2.35319e-05
0.000257117
0.000621532
0.000611922
0.000252697
2.35575e-05
2.37128e-05
0.000256573
0.000619926
0.00060987
0.000252079
2.37378e-05
2.38742e-05
0.000255947
0.000617614
0.000607231
0.000251441
2.38972e-05
2.40136e-05
0.000255261
0.00061464
0.000604069
0.0002508
2.40334e-05
2.41301e-05
0.00025455
0.000611105
0.000600489
0.000250185
2.41465e-05
2.42245e-05
0.000253839
0.000607122
0.000596549
0.000249596
2.42371e-05
2.42971e-05
0.000253126
0.00060276
0.000592323
0.000248997
2.43048e-05
2.43474e-05
0.000252399
0.000598169
0.000587868
0.000248383
2.43532e-05
2.43827e-05
0.000251657
0.000593453
0.000583339
0.000247782
2.43883e-05
2.44064e-05
0.000250915
0.000588694
0.000578747
0.000247158
2.44093e-05
2.44193e-05
0.000250155
0.000583958
0.000574111
0.000246463
2.44172e-05
2.44237e-05
0.000249372
0.000579233
0.00056948
0.000245699
2.44116e-05
2.44162e-05
0.000248577
0.000574512
0.000564838
0.000244915
2.43975e-05
2.44014e-05
0.000247753
0.000569778
0.000560172
0.000244133
2.43771e-05
2.43784e-05
0.000246913
0.000565005
0.000555437
0.000243238
2.43438e-05
2.43435e-05
0.000245952
0.000560192
0.00055073
0.000242293
2.43106e-05
2.43128e-05
0.000245015
0.000555436
0.000546041
0.000241402
2.4278e-05
2.42784e-05
0.000244099
0.000550781
0.000541481
0.000240504
2.42426e-05
2.4241e-05
0.000243145
0.000546188
0.000536874
0.000239519
2.4201e-05
2.41991e-05
0.000242135
0.000541502
0.000532258
0.000238508
2.41496e-05
2.41682e-05
0.000241155
0.000536926
0.000527382
0.000237517
2.40924e-05
2.41227e-05
0.000239933
0.000532639
0.000523241
0.000235783
2.3997e-05
2.41399e-05
0.000239964
0.000530991
0.000524591
0.000239653
2.4084e-05
2.44828e-05
0.000240128
0.000530399
0.000555609
0.000252477
2.4666e-05
2.62715e-05
0.000236757
0.00054009
0.000824719
0.000344124
2.96248e-05
3.19806e-05
0.000178457
0.000409646
0.00101054
0.00231559
0.00432869
0.00617125
0.00743211
0.00976921
0.0112613
0.0126002
0.013354
0.0137146
0.0136134
0.0130078
0.0121456
0.0107626
0.0094067
0.00735088
0.00642288
0.00467364
0.00349676
0.00237511
0.00135013
0.000619913
0.000225992
9.40909e-05
1.81526e-05
1.17924e-05
8.73549e-05
0.000204815
0.000193296
8.26283e-05
1.13144e-05
1.08884e-05
7.94882e-05
0.000183536
0.000184075
7.84259e-05
1.08019e-05
1.07449e-05
7.81129e-05
0.000181107
0.000181158
7.7389e-05
1.06345e-05
1.06209e-05
7.73398e-05
0.000181047
0.000181493
7.73635e-05
1.06371e-05
1.06383e-05
7.74699e-05
0.000181907
0.000182171
7.76003e-05
1.06564e-05
1.06644e-05
7.77252e-05
0.000182722
0.000182978
7.78503e-05
1.06719e-05
1.06888e-05
7.79966e-05
0.00018356
0.000183874
7.81319e-05
1.06832e-05
1.07016e-05
7.83019e-05
0.000184482
0.000184814
7.84089e-05
1.0711e-05
1.0732e-05
7.8598e-05
0.000185467
0.000185773
7.86922e-05
1.07353e-05
1.07398e-05
7.8942e-05
0.00018642
0.000186715
7.9003e-05
1.07629e-05
1.07672e-05
7.92279e-05
0.000187374
0.000187686
7.93172e-05
1.07761e-05
1.07805e-05
7.95476e-05
0.00018839
0.000188716
7.96314e-05
1.08051e-05
1.08103e-05
7.98782e-05
0.000189417
0.000189743
7.99966e-05
1.08207e-05
1.08224e-05
8.02373e-05
0.000190478
0.000190826
8.03353e-05
1.08482e-05
1.08534e-05
8.05718e-05
0.000191587
0.000191948
8.07063e-05
1.08677e-05
1.08734e-05
8.09578e-05
0.000192703
0.00019305
8.10641e-05
1.09001e-05
1.09046e-05
8.13122e-05
0.000193805
0.000194161
8.14401e-05
1.09161e-05
1.09208e-05
8.16952e-05
0.000194936
0.00019529
8.18433e-05
1.09401e-05
1.09595e-05
8.20528e-05
0.000196062
0.000196424
8.21836e-05
1.09604e-05
1.09654e-05
8.24782e-05
0.000197244
0.000197626
8.26272e-05
1.09854e-05
1.10076e-05
8.2853e-05
0.000198448
0.000198832
8.29996e-05
1.10114e-05
1.10183e-05
8.33142e-05
0.000199673
0.000200064
8.34647e-05
1.10375e-05
1.10597e-05
8.37072e-05
0.000200904
0.000201297
8.38564e-05
1.10637e-05
1.10709e-05
8.41855e-05
0.000202149
0.000202539
8.43375e-05
1.10904e-05
1.11125e-05
8.4583e-05
0.00020337
0.000203754
8.4725e-05
1.11162e-05
1.11237e-05
8.50565e-05
0.000204591
0.000204974
8.51972e-05
1.11427e-05
1.11649e-05
8.54445e-05
0.000205804
0.000206182
8.55749e-05
1.11677e-05
1.11753e-05
8.59093e-05
0.000207017
0.000207389
8.60375e-05
1.11936e-05
1.12152e-05
8.62701e-05
0.000208183
0.000208543
8.63714e-05
1.12177e-05
1.12263e-05
8.66774e-05
0.000209303
0.00020961
8.67733e-05
1.12454e-05
1.12645e-05
8.69492e-05
0.000210305
0.000210552
8.69979e-05
1.12624e-05
1.12651e-05
8.72291e-05
0.000211197
0.000211404
8.72005e-05
1.12865e-05
1.12874e-05
8.73669e-05
0.000211965
0.000212088
8.73357e-05
1.12903e-05
1.12841e-05
8.74257e-05
0.00021255
0.000212658
8.73093e-05
1.12992e-05
1.12915e-05
8.7303e-05
0.000212941
0.000213013
8.71356e-05
1.12916e-05
1.1283e-05
8.70341e-05
0.00021315
0.000213126
8.67793e-05
1.12897e-05
1.1293e-05
8.65105e-05
0.000213159
0.000212941
8.61559e-05
1.12763e-05
1.126e-05
8.58594e-05
0.000212877
0.000212447
8.5399e-05
1.12571e-05
1.12476e-05
8.48753e-05
0.000212269
0.000211567
8.42126e-05
1.12225e-05
1.12088e-05
8.36615e-05
0.000211445
0.000210505
8.28345e-05
1.12171e-05
1.12005e-05
8.21394e-05
0.000210152
0.0002091
8.12116e-05
1.11862e-05
1.11715e-05
8.04908e-05
0.000208777
0.000207653
7.95677e-05
1.11696e-05
1.11702e-05
7.8724e-05
0.000207312
0.000206219
7.7779e-05
1.11658e-05
1.11929e-05
7.70249e-05
0.000206391
0.000205638
7.61188e-05
1.12275e-05
1.12905e-05
7.54972e-05
0.000206211
0.000206192
7.48591e-05
1.1379e-05
1.148e-05
7.44884e-05
0.000207153
0.000207955
7.35583e-05
1.15668e-05
1.16618e-05
7.30185e-05
0.000210314
0.000213688
7.4031e-05
1.17923e-05
1.1915e-05
7.4389e-05
0.000216449
0.00021803
7.39611e-05
1.19459e-05
1.20299e-05
7.2602e-05
0.000221345
0.000224972
7.6504e-05
1.22005e-05
1.23183e-05
7.42636e-05
0.000228121
0.000231121
7.61423e-05
1.25221e-05
1.26722e-05
7.71754e-05
0.000236872
0.000238603
7.88961e-05
1.2885e-05
1.3184e-05
8.30771e-05
0.000246332
0.00024775
8.52863e-05
1.34812e-05
1.37382e-05
8.87987e-05
0.000254053
0.000255726
9.1732e-05
1.42405e-05
1.52538e-05
0.000105656
0.000265829
0.000264349
0.000110997
1.1411e-05
8.70468e-06
2.69058e-05
7.4514e-05
0.000207698
6.45748e-05
1.04118e-05
1.09231e-05
5.78208e-05
0.000190993
0.000200915
6.01152e-05
1.11694e-05
1.14004e-05
5.68817e-05
0.000192324
0.000206289
6.09438e-05
1.16798e-05
1.20142e-05
6.0056e-05
0.000203569
0.000224425
6.85516e-05
1.24352e-05
1.28382e-05
6.80823e-05
0.000220411
0.000241753
7.97937e-05
1.34101e-05
1.41325e-05
8.18076e-05
0.000243396
0.000269332
9.73453e-05
1.54316e-05
1.17761e-05
0.000107334
0.000277591
7.45997e-05
2.51419e-05
9.30595e-06
1.13322e-05
6.96099e-05
0.000232728
0.000227672
6.50183e-05
1.23195e-05
1.31112e-05
8.5112e-05
0.000280953
0.00028642
8.57502e-05
1.3603e-05
1.43888e-05
9.99241e-05
0.000318527
0.000327805
0.00010713
1.54092e-05
1.72342e-05
0.000128229
0.000358395
0.000349664
0.00013974
1.3559e-05
1.03021e-05
3.21619e-05
9.24463e-05
0.000284906
8.48734e-05
1.21168e-05
1.30853e-05
7.84444e-05
0.000279487
0.000320734
9.67413e-05
1.39801e-05
1.49361e-05
9.65936e-05
0.000316194
0.000356111
0.000121793
1.708e-05
1.35406e-05
0.000138288
0.000358889
9.71571e-05
3.04297e-05
9.98408e-06
1.26727e-05
8.84028e-05
0.000322178
0.000332371
9.31879e-05
1.4325e-05
1.6593e-05
0.000131648
0.00042716
0.000446325
0.000152685
1.92215e-05
1.57124e-05
0.00017526
0.000452716
0.000124896
3.54333e-05
1.05011e-05
1.38414e-05
0.000117834
0.000400185
0.000397726
0.000114157
1.60911e-05
2.00796e-05
0.000168561
0.000501884
0.000510595
0.000194856
1.66429e-05
1.11368e-05
4.03838e-05
0.000154524
0.000518465
0.00015367
1.62032e-05
2.03228e-05
0.000161386
0.000557367
0.000772373
0.000271245
2.76799e-05
2.31448e-05
0.000289907
0.000742901
0.0002618
6.89761e-05
1.51022e-05
2.69593e-05
0.000282963
0.000808961
0.00081103
0.000303498
2.52081e-05
1.72051e-05
7.89086e-05
0.000322048
0.00111919
0.000371543
3.72861e-05
3.67902e-05
0.000429297
0.00121571
0.000553337
0.000152844
2.33856e-05
3.72153e-05
0.000497443
0.00144992
0.000957661
0.00031751
2.47802e-05
4.5998e-05
0.000559852
0.00112925
0.000968789
0.000468367
3.78203e-05
3.83146e-05
0.000446488
0.00106263
0.00136312
0.000492842
4.39677e-05
6.07735e-05
0.00092046
0.00227282
0.000506516
0.000157503
3.45637e-05
3.53833e-05
0.000441719
0.00101213
0.000313096
0.000111886
2.46832e-05
2.67375e-05
0.000273736
0.000656338
0.000560112
0.000199425
2.69046e-05
1.4398e-05
5.04097e-05
0.00015927
0.000381212
0.000195213
1.73478e-05
1.66956e-05
6.52572e-05
0.00017017
0.00041623
0.000183234
1.91683e-05
2.04087e-05
0.000149077
0.000378586
0.000123137
4.61004e-05
1.34981e-05
1.60855e-05
0.00014509
0.000327218
0.000300832
0.000122804
1.83436e-05
1.26903e-05
4.00995e-05
0.000101008
0.000278904
0.000124292
1.46872e-05
1.70852e-05
0.000108881
0.000256488
8.92065e-05
3.74574e-05
1.23306e-05
1.38184e-05
0.000110679
0.000246203
0.000222607
9.65117e-05
1.59472e-05
1.18705e-05
3.38343e-05
7.88676e-05
0.000215993
9.8492e-05
1.30085e-05
1.58352e-05
8.79053e-05
0.000197486
7.20514e-05
3.25894e-05
1.19653e-05
1.27178e-05
9.25908e-05
0.000195904
0.000176201
8.05002e-05
1.49182e-05
1.14782e-05
3.00575e-05
6.56756e-05
0.000177647
8.48332e-05
1.21079e-05
1.49792e-05
7.58936e-05
0.000162855
6.42254e-05
3.0326e-05
1.17283e-05
1.21877e-05
8.67216e-05
0.000173534
0.000147694
6.98614e-05
1.53793e-05
1.29863e-05
5.56365e-05
0.000120429
4.72475e-05
2.12446e-05
1.02053e-05
9.95267e-06
5.69259e-05
0.000115474
0.000111219
5.34058e-05
1.29833e-05
1.07083e-05
2.25901e-05
4.57262e-05
0.000110588
5.64976e-05
1.02494e-05
1.29428e-05
5.14235e-05
0.000101226
4.24128e-05
2.07741e-05
1.01195e-05
9.49491e-06
5.10631e-05
9.61896e-05
9.26756e-05
4.89678e-05
1.2421e-05
1.04521e-05
2.09961e-05
4.06373e-05
9.35352e-05
5.04459e-05
9.88593e-06
1.2548e-05
4.75214e-05
8.73495e-05
3.87894e-05
2.01137e-05
1.02259e-05
9.57665e-06
4.68611e-05
8.5615e-05
8.08614e-05
4.44969e-05
1.23858e-05
1.00473e-05
1.95218e-05
3.64506e-05
7.87691e-05
4.44202e-05
9.08558e-06
1.20532e-05
4.11003e-05
7.50528e-05
3.47366e-05
1.94307e-05
9.81743e-06
8.76101e-06
4.11313e-05
7.15228e-05
6.88346e-05
3.77951e-05
1.19255e-05
9.53009e-06
1.79923e-05
3.10683e-05
6.24828e-05
4.3089e-05
8.28176e-06
1.0958e-05
2.21872e-05
3.67654e-05
8.29885e-05
4.83893e-05
9.98595e-06
1.26833e-05
4.461e-05
7.69325e-05
3.72545e-05
2.1409e-05
1.03754e-05
9.45097e-06
4.59061e-05
7.68574e-05
7.27167e-05
4.2604e-05
1.24299e-05
1.03296e-05
2.13378e-05
3.61265e-05
7.53415e-05
4.53553e-05
9.39792e-06
1.21082e-05
4.18036e-05
7.15064e-05
3.47582e-05
2.09623e-05
1.00421e-05
9.19478e-06
4.25541e-05
6.8245e-05
6.43774e-05
3.89305e-05
1.24627e-05
1.04479e-05
2.11688e-05
3.33422e-05
6.33927e-05
4.01076e-05
9.16094e-06
1.20235e-05
3.62015e-05
5.94864e-05
2.89424e-05
1.89625e-05
9.5702e-06
8.09978e-06
3.85e-05
5.236e-05
3.18959e-05
2.14188e-05
1.0878e-05
9.73813e-06
4.00431e-05
6.30081e-05
5.7851e-05
3.61211e-05
1.24148e-05
1.01292e-05
2.11514e-05
3.08436e-05
5.75325e-05
3.74929e-05
9.01255e-06
1.20193e-05
3.45654e-05
5.20661e-05
2.76928e-05
1.99112e-05
9.84469e-06
8.29893e-06
3.62892e-05
4.74494e-05
3.00099e-05
2.14109e-05
1.10493e-05
9.66402e-06
3.81232e-05
5.7805e-05
5.24049e-05
3.4415e-05
1.22967e-05
1.00994e-05
2.14273e-05
2.9324e-05
5.4285e-05
3.61667e-05
8.97752e-06
1.19659e-05
3.28494e-05
4.92656e-05
2.66445e-05
1.99724e-05
9.75243e-06
8.26218e-06
3.40873e-05
4.38036e-05
2.82174e-05
2.09943e-05
1.10675e-05
9.53944e-06
3.54445e-05
5.33848e-05
4.82751e-05
3.23285e-05
1.2154e-05
9.99914e-06
2.12894e-05
2.73253e-05
4.8726e-05
3.31691e-05
8.95738e-06
1.18833e-05
3.07013e-05
4.45423e-05
2.54084e-05
2.00151e-05
9.99552e-06
8.55023e-06
3.25433e-05
3.89547e-05
2.60686e-05
2.13623e-05
1.11251e-05
9.32697e-06
3.13437e-05
4.77104e-05
4.2417e-05
2.88061e-05
1.20941e-05
9.75176e-06
2.01604e-05
2.43397e-05
3.8223e-05
3.15226e-05
8.12904e-06
1.09501e-05
2.11111e-05
2.58143e-05
4.69351e-05
3.13806e-05
9.2677e-06
1.2101e-05
2.8954e-05
4.21459e-05
2.47102e-05
2.07693e-05
1.00092e-05
8.43476e-06
3.12346e-05
3.78328e-05
2.59684e-05
2.19868e-05
1.10193e-05
9.18179e-06
3.11417e-05
4.64513e-05
4.15417e-05
2.8748e-05
1.19899e-05
9.95833e-06
2.08805e-05
2.45176e-05
3.73759e-05
3.18884e-05
8.29631e-06
1.10461e-05
2.2201e-05
2.57379e-05
4.56104e-05
3.0402e-05
9.31772e-06
1.22324e-05
2.83231e-05
4.08718e-05
2.42476e-05
2.11672e-05
9.97273e-06
8.29351e-06
3.11909e-05
3.67539e-05
2.55833e-05
2.21486e-05
1.10712e-05
9.31864e-06
3.06477e-05
4.47921e-05
4.01876e-05
2.8306e-05
1.20182e-05
1.00527e-05
2.11946e-05
2.42137e-05
3.48791e-05
3.1374e-05
8.42911e-06
1.08304e-05
2.29232e-05
2.5313e-05
3.87026e-05
2.98197e-05
8.72923e-06
1.13424e-05
2.31861e-05
2.67901e-05
4.56732e-05
3.04305e-05
9.5139e-06
1.21291e-05
2.83434e-05
4.06519e-05
2.46962e-05
2.18442e-05
9.93813e-06
8.27115e-06
3.14772e-05
3.64585e-05
2.57793e-05
2.33842e-05
1.11564e-05
9.35775e-06
3.00671e-05
4.40292e-05
3.95946e-05
2.81709e-05
1.21533e-05
1.01253e-05
2.19204e-05
2.43685e-05
3.45971e-05
3.11879e-05
8.59202e-06
1.10133e-05
2.35089e-05
2.55196e-05
3.80826e-05
2.98478e-05
8.93864e-06
1.13286e-05
2.36824e-05
2.67373e-05
4.48719e-05
3.01228e-05
9.38063e-06
1.21545e-05
2.81608e-05
4.00543e-05
2.45512e-05
2.2417e-05
9.89072e-06
8.19091e-06
3.12103e-05
3.58136e-05
2.65388e-05
2.4475e-05
1.11638e-05
8.96242e-06
3.06674e-05
3.90289e-05
2.76594e-05
2.49027e-05
1.15054e-05
9.59163e-06
3.05986e-05
4.57987e-05
4.09717e-05
2.88974e-05
1.23793e-05
1.01562e-05
2.31756e-05
2.54391e-05
3.58836e-05
3.26884e-05
8.43868e-06
1.11281e-05
2.49801e-05
2.68497e-05
3.91918e-05
3.09511e-05
8.95827e-06
1.14805e-05
2.53888e-05
2.79946e-05
4.59527e-05
3.11209e-05
9.5696e-06
1.23239e-05
2.92926e-05
4.11062e-05
2.57117e-05
2.38263e-05
1.00588e-05
8.40737e-06
3.24854e-05
3.68609e-05
2.7644e-05
2.57369e-05
1.13446e-05
9.18772e-06
3.15712e-05
3.99172e-05
2.8674e-05
2.60745e-05
1.15495e-05
9.54898e-06
3.13759e-05
4.62916e-05
4.13732e-05
2.94969e-05
1.22533e-05
9.9514e-06
2.35142e-05
2.55159e-05
3.64969e-05
3.21298e-05
8.35661e-06
1.13512e-05
2.52826e-05
2.72637e-05
3.88378e-05
3.08499e-05
9.13467e-06
1.16125e-05
2.58132e-05
2.80689e-05
4.47523e-05
3.07153e-05
9.62018e-06
1.2423e-05
2.90931e-05
4.01216e-05
2.53862e-05
2.38725e-05
1.01288e-05
8.37701e-06
3.21594e-05
3.61866e-05
2.73233e-05
2.55149e-05
1.12732e-05
8.92619e-06
3.07666e-05
3.85051e-05
2.86363e-05
2.60633e-05
1.13989e-05
9.07163e-06
3.1043e-05
4.00956e-05
2.94854e-05
2.77203e-05
1.15721e-05
9.64497e-06
3.20153e-05
4.61774e-05
4.122e-05
3.04165e-05
1.23792e-05
1.0296e-05
2.52679e-05
2.67431e-05
3.64255e-05
3.39634e-05
8.71931e-06
1.13141e-05
2.64741e-05
2.78819e-05
3.88168e-05
3.1029e-05
9.13428e-06
1.15339e-05
2.67437e-05
2.92015e-05
4.02885e-05
3.1824e-05
9.14486e-06
1.16143e-05
2.8199e-05
2.98995e-05
4.6039e-05
3.21901e-05
9.6391e-06
1.23933e-05
3.05864e-05
4.12539e-05
2.67728e-05
2.54825e-05
1.01684e-05
8.41208e-06
3.37884e-05
3.74079e-05
2.87061e-05
2.70628e-05
1.14762e-05
9.20206e-06
3.18181e-05
3.97863e-05
2.9989e-05
2.76088e-05
1.16495e-05
9.30232e-06
3.24136e-05
4.11443e-05
3.0796e-05
2.92691e-05
1.17772e-05
9.7998e-06
3.3254e-05
4.69384e-05
4.21937e-05
3.15196e-05
1.25136e-05
1.01634e-05
2.60736e-05
2.76382e-05
3.77504e-05
3.43503e-05
8.46684e-06
1.15674e-05
2.75662e-05
2.92462e-05
3.98174e-05
3.22091e-05
9.1741e-06
1.16498e-05
2.77189e-05
3.01754e-05
4.08555e-05
3.21995e-05
9.25975e-06
1.18383e-05
2.9361e-05
3.08449e-05
4.62612e-05
3.28799e-05
9.78984e-06
1.26066e-05
3.16277e-05
4.1925e-05
2.83831e-05
2.72005e-05
1.05415e-05
9.03001e-06
3.50149e-05
3.74401e-05
2.9557e-05
2.83998e-05
1.15839e-05
9.18973e-06
3.24104e-05
3.99382e-05
3.06143e-05
2.85218e-05
1.16152e-05
9.15738e-06
3.27596e-05
4.10025e-05
3.14868e-05
2.91744e-05
1.16542e-05
9.34452e-06
3.39361e-05
4.21206e-05
3.20349e-05
3.09121e-05
1.17967e-05
9.79545e-06
3.4351e-05
4.73596e-05
4.29028e-05
3.26499e-05
1.25306e-05
1.02369e-05
2.68721e-05
2.8662e-05
3.77212e-05
3.457e-05
8.47585e-06
1.17517e-05
2.84311e-05
3.01919e-05
4.01104e-05
3.29223e-05
9.3742e-06
1.18298e-05
2.89518e-05
3.11828e-05
4.0981e-05
3.24399e-05
9.29432e-06
1.17538e-05
2.98724e-05
3.18431e-05
4.24178e-05
3.45554e-05
9.40357e-06
1.18809e-05
3.16488e-05
3.25424e-05
4.82391e-05
3.50021e-05
9.86308e-06
1.27096e-05
3.36203e-05
4.3796e-05
2.9971e-05
2.87259e-05
1.04531e-05
8.62245e-06
3.69679e-05
3.95475e-05
3.14863e-05
3.01047e-05
1.16598e-05
9.22678e-06
3.44368e-05
4.20212e-05
3.26291e-05
3.02393e-05
1.18054e-05
9.39033e-06
3.43204e-05
4.29482e-05
3.33785e-05
3.1262e-05
1.18128e-05
9.4103e-06
3.62091e-05
4.41556e-05
3.39998e-05
3.29201e-05
1.19394e-05
9.98945e-06
3.62218e-05
4.94771e-05
4.50658e-05
3.46692e-05
1.27281e-05
1.04654e-05
2.92304e-05
3.09337e-05
3.96777e-05
3.69025e-05
8.72769e-06
1.18788e-05
3.06248e-05
3.23958e-05
4.19939e-05
3.49476e-05
9.47412e-06
1.20131e-05
3.07708e-05
3.33098e-05
4.27656e-05
3.40541e-05
9.50078e-06
1.19981e-05
3.17052e-05
3.38179e-05
4.40428e-05
3.61679e-05
9.61855e-06
1.20859e-05
3.37422e-05
3.43436e-05
4.94734e-05
3.6854e-05
1.00077e-05
1.29078e-05
3.55305e-05
4.54645e-05
3.18328e-05
3.04976e-05
1.06107e-05
8.7988e-06
3.85299e-05
4.0838e-05
3.33275e-05
3.18158e-05
1.18702e-05
9.46166e-06
3.59145e-05
4.31398e-05
3.44206e-05
3.19903e-05
1.20493e-05
9.54986e-06
3.5534e-05
4.4253e-05
3.5189e-05
3.28414e-05
1.19934e-05
9.61109e-06
3.74951e-05
4.5359e-05
3.55557e-05
3.46111e-05
1.20825e-05
1.00295e-05
3.76007e-05
5.04281e-05
4.62076e-05
3.6197e-05
1.29517e-05
1.06559e-05
3.07289e-05
3.24251e-05
4.04263e-05
3.82992e-05
8.77536e-06
1.20558e-05
3.20706e-05
3.37957e-05
4.2408e-05
3.57707e-05
9.5622e-06
1.21544e-05
3.24258e-05
3.45661e-05
4.32994e-05
3.51753e-05
9.61993e-06
1.20779e-05
3.30862e-05
3.5144e-05
4.45128e-05
3.69644e-05
9.61648e-06
1.20195e-05
3.44153e-05
3.60633e-05
4.61609e-05
3.87266e-05
9.59797e-06
1.21473e-05
3.60396e-05
3.66632e-05
5.20231e-05
3.9065e-05
1.01178e-05
1.31634e-05
3.79464e-05
4.79233e-05
3.44928e-05
3.34264e-05
1.09203e-05
9.10579e-06
4.1333e-05
4.3299e-05
3.58593e-05
3.46365e-05
1.20745e-05
9.62429e-06
3.82118e-05
4.55047e-05
3.69548e-05
3.4717e-05
1.2186e-05
9.66121e-06
3.87109e-05
4.68365e-05
3.79013e-05
3.57636e-05
1.21065e-05
9.67797e-06
4.04437e-05
4.85163e-05
3.87252e-05
3.75572e-05
1.22571e-05
1.02515e-05
4.069e-05
5.37904e-05
4.93155e-05
3.93199e-05
1.32841e-05
1.0938e-05
3.42646e-05
3.55391e-05
4.41746e-05
4.2344e-05
9.0743e-06
1.22027e-05
3.55618e-05
3.71348e-05
4.58278e-05
3.92845e-05
9.76135e-06
1.231e-05
3.54101e-05
3.78185e-05
4.64799e-05
3.86487e-05
9.82614e-06
1.22506e-05
3.62311e-05
3.83526e-05
4.76984e-05
4.02575e-05
9.7894e-06
1.24016e-05
3.81586e-05
3.87625e-05
5.30164e-05
4.06065e-05
1.03155e-05
1.35355e-05
3.96697e-05
4.90116e-05
3.64091e-05
3.56268e-05
1.11852e-05
9.28349e-06
4.32033e-05
4.4664e-05
3.78751e-05
3.68973e-05
1.23375e-05
9.83686e-06
4.01947e-05
4.67348e-05
3.8918e-05
3.68577e-05
1.23847e-05
9.8063e-06
4.03377e-05
4.78197e-05
3.96155e-05
3.78764e-05
1.23269e-05
9.8971e-06
4.1704e-05
4.94605e-05
4.04827e-05
3.98463e-05
1.25987e-05
1.04812e-05
4.23897e-05
5.487e-05
5.05259e-05
4.13592e-05
1.36412e-05
1.12234e-05
3.68364e-05
3.76988e-05
4.59409e-05
4.48399e-05
9.27036e-06
1.23731e-05
3.7835e-05
3.92114e-05
4.74882e-05
4.11872e-05
9.89056e-06
1.25688e-05
3.78883e-05
3.99891e-05
4.82264e-05
4.09841e-05
9.94274e-06
1.25914e-05
3.89211e-05
4.06382e-05
4.95529e-05
4.23763e-05
1.00266e-05
1.28721e-05
4.11448e-05
4.11849e-05
5.50053e-05
4.31123e-05
1.07701e-05
1.40644e-05
4.23698e-05
5.10672e-05
3.9085e-05
3.88071e-05
1.15539e-05
9.60544e-06
4.61686e-05
4.73206e-05
4.07555e-05
4.00263e-05
1.26155e-05
1.0059e-05
4.38478e-05
4.96463e-05
4.19519e-05
4.02841e-05
1.28033e-05
1.00624e-05
4.37484e-05
5.10871e-05
4.24792e-05
4.18305e-05
1.30071e-05
1.09173e-05
4.37488e-05
5.59579e-05
5.17263e-05
4.30072e-05
1.43321e-05
1.17285e-05
3.896e-05
3.96059e-05
4.6674e-05
4.59158e-05
9.61721e-06
1.28043e-05
4.00661e-05
4.09706e-05
4.87888e-05
4.33236e-05
1.02549e-05
1.30853e-05
4.05988e-05
4.20599e-05
5.00139e-05
4.32346e-05
1.03075e-05
1.3344e-05
4.2593e-05
4.24984e-05
5.49384e-05
4.3771e-05
1.10461e-05
1.45787e-05
4.34231e-05
5.11638e-05
4.04401e-05
4.06104e-05
1.18944e-05
9.89631e-06
4.72963e-05
4.76377e-05
4.18703e-05
4.17151e-05
1.3051e-05
1.02525e-05
4.3955e-05
4.98595e-05
4.31136e-05
4.19276e-05
1.32387e-05
1.05222e-05
4.45866e-05
5.13437e-05
4.38716e-05
4.40215e-05
1.35165e-05
1.1177e-05
4.5101e-05
5.59201e-05
5.21871e-05
4.46779e-05
1.48525e-05
1.21061e-05
4.1007e-05
4.15537e-05
4.75244e-05
4.75509e-05
9.77859e-06
1.32072e-05
4.22552e-05
4.25934e-05
4.98316e-05
4.47355e-05
1.05314e-05
1.35211e-05
4.30524e-05
4.38777e-05
5.1352e-05
4.49745e-05
1.0652e-05
1.38807e-05
4.53287e-05
4.44924e-05
5.65431e-05
4.59072e-05
1.15547e-05
1.52475e-05
4.57371e-05
5.29271e-05
4.27895e-05
4.33428e-05
1.23315e-05
1.00793e-05
4.96623e-05
4.95254e-05
4.43464e-05
4.47567e-05
1.35515e-05
1.07949e-05
4.71445e-05
5.23264e-05
4.60542e-05
4.55349e-05
1.39847e-05
1.11264e-05
4.73266e-05
5.42609e-05
4.71507e-05
4.79735e-05
1.44433e-05
1.19909e-05
4.85547e-05
5.93974e-05
5.56865e-05
4.85017e-05
1.58804e-05
1.28517e-05
4.56776e-05
4.55222e-05
5.17949e-05
5.22258e-05
1.04784e-05
1.39729e-05
4.7001e-05
4.67291e-05
5.4361e-05
4.90273e-05
1.11571e-05
1.47414e-05
4.87899e-05
4.79487e-05
5.92293e-05
4.88411e-05
1.22366e-05
1.61571e-05
4.8472e-05
5.58336e-05
4.59576e-05
4.66491e-05
1.32243e-05
1.06499e-05
5.25981e-05
5.22782e-05
4.75133e-05
4.82493e-05
1.43005e-05
1.14288e-05
5.0172e-05
5.52856e-05
4.94148e-05
4.94572e-05
1.48963e-05
1.18471e-05
5.06978e-05
5.76895e-05
5.08909e-05
5.24494e-05
1.5441e-05
1.28424e-05
5.26044e-05
6.34174e-05
5.95741e-05
5.28109e-05
1.70149e-05
1.38987e-05
5.10287e-05
4.99748e-05
5.64824e-05
5.74437e-05
1.1275e-05
1.50673e-05
5.24587e-05
5.17179e-05
5.94822e-05
5.40032e-05
1.20533e-05
1.58453e-05
5.42685e-05
5.28296e-05
6.50846e-05
5.39351e-05
1.29594e-05
1.73394e-05
5.41764e-05
6.1524e-05
5.20038e-05
5.34047e-05
1.46132e-05
1.19963e-05
5.8786e-05
5.84381e-05
5.37622e-05
5.52823e-05
1.59558e-05
1.27849e-05
5.63862e-05
6.20539e-05
5.55223e-05
5.75454e-05
1.68003e-05
1.40083e-05
5.68428e-05
6.79932e-05
6.42539e-05
5.71892e-05
1.85291e-05
1.51507e-05
5.60494e-05
5.46841e-05
6.14065e-05
6.17918e-05
1.22733e-05
1.67182e-05
5.88604e-05
5.63417e-05
6.77618e-05
5.77153e-05
1.39395e-05
1.86272e-05
5.77225e-05
6.45292e-05
5.49585e-05
5.57605e-05
1.51676e-05
1.21121e-05
6.2424e-05
6.12125e-05
5.66087e-05
5.76408e-05
1.65183e-05
1.3236e-05
5.82285e-05
6.39639e-05
5.78804e-05
5.99499e-05
1.75808e-05
1.46368e-05
5.85888e-05
6.94188e-05
6.60939e-05
5.94275e-05
1.94855e-05
1.59401e-05
5.88561e-05
5.73732e-05
6.32279e-05
6.3654e-05
1.30517e-05
1.77262e-05
6.21285e-05
5.8869e-05
6.94596e-05
6.02427e-05
1.48633e-05
1.98752e-05
6.05284e-05
6.64705e-05
5.83703e-05
6.01459e-05
1.63977e-05
1.32439e-05
6.48766e-05
6.39791e-05
5.95003e-05
6.29396e-05
1.78817e-05
1.46083e-05
6.05329e-05
6.99795e-05
6.70938e-05
6.11761e-05
1.99675e-05
1.66896e-05
6.06356e-05
5.89878e-05
6.44454e-05
6.48311e-05
1.36762e-05
1.86427e-05
6.43436e-05
6.06205e-05
7.02006e-05
6.15467e-05
1.54527e-05
2.08449e-05
6.21056e-05
6.73901e-05
6.01386e-05
6.23829e-05
1.71287e-05
1.38455e-05
6.62315e-05
6.51852e-05
6.15247e-05
6.55596e-05
1.87766e-05
1.55072e-05
6.26145e-05
7.13629e-05
6.86039e-05
6.31359e-05
2.09304e-05
1.72162e-05
6.32964e-05
6.12141e-05
6.63793e-05
6.85003e-05
1.34727e-05
1.88557e-05
6.67141e-05
6.2709e-05
7.21889e-05
6.30245e-05
1.5886e-05
2.17286e-05
6.38808e-05
6.94774e-05
6.29514e-05
6.62911e-05
1.80658e-05
1.48245e-05
6.88535e-05
6.80416e-05
6.50628e-05
7.05771e-05
2.01678e-05
1.6765e-05
6.66773e-05
7.50299e-05
7.22251e-05
6.74199e-05
2.24827e-05
1.85522e-05
6.90113e-05
6.57405e-05
7.0832e-05
7.196e-05
1.49936e-05
2.04404e-05
7.32878e-05
6.76618e-05
7.85279e-05
6.98942e-05
1.68316e-05
2.24481e-05
6.98659e-05
7.57381e-05
6.8825e-05
7.4804e-05
1.96256e-05
1.69217e-05
7.43429e-05
7.76835e-05
7.52439e-05
7.41006e-05
2.35197e-05
1.98795e-05
7.40517e-05
7.00843e-05
7.58728e-05
7.63453e-05
1.63938e-05
2.22669e-05