/*--------------------------------*- C++ -*----------------------------------*\
| =========                 |                                                 |
| \\      /  F ield         | OpenFOAM: The Open Source CFD Toolbox           |
|  \\    /   O peration     | Version:  v2006                                 |
|   \\  /    A nd           | Website:  www.openfoam.com                      |
|    \\/     M anipulation  |                                                 |
\*---------------------------------------------------------------------------*/
FoamFile
{
    version     2.0;
    format      ascii;
    class       volScalarField;
    location    "0.042";
    object      turbulenceProperties:I;
}
// * * * * * * * * * * * * * * * * * * * * * * * * * * * * * * * * * * * * * //

dimensions      [0 0 0 0 0 0 0];


internalField   nonuniform List<scalar> 
16277
(
0.149974
0.149973
0.149981
0.149985
0.149991
0.149989
0.149991
0.149995
0.150002
0.15001
0.150015
0.150018
0.150018
0.150017
0.150015
0.150013
0.150011
0.150009
0.150008
0.150007
0.150006
0.150005
0.150005
0.150004
0.150004
0.150003
0.150003
0.150003
0.150002
0.150002
0.150002
0.150002
0.150002
0.150002
0.150002
0.150002
0.150002
0.150002
0.150001
0.150001
0.150001
0.150001
0.150001
0.150001
0.150001
0.150001
0.150001
0.150001
0.150001
0.150001
0.150001
0.150001
0.150001
0.150001
0.150001
0.150001
0.150001
0.150001
0.150001
0.150001
0.150001
0.150001
0.150001
0.150001
0.150001
0.150001
0.150001
0.150001
0.150001
0.15
0.15
0.15
0.15
0.15
0.149999
0.149999
0.149998
0.149997
0.149996
0.149995
0.149998
0.150005
0.150018
0.150032
0.150035
0.150024
0.150006
0.149987
0.149966
0.149968
0.149981
0.149977
0.149989
0.150008
0.149873
0.149304
0.14506
0.13908
0.145978
0.148746
0.14598
0.139197
0.133277
0.129405
0.135533
0.143822
0.139875
0.129548
0.125376
0.123121
0.127253
0.138209
0.13454
0.122608
0.120472
0.119191
0.121243
0.133289
0.130277
0.117866
0.11744
0.116713
0.117168
0.12941
0.126996
0.114913
0.11555
0.115164
0.114557
0.126377
0.124399
0.112922
0.114351
0.114173
0.11277
0.123969
0.122298
0.11152
0.113572
0.113516
0.111488
0.121995
0.120554
0.110495
0.113058
0.113089
0.110552
0.120352
0.119087
0.109737
0.112728
0.112809
0.109851
0.118958
0.117821
0.109152
0.112503
0.112617
0.1093
0.117746
0.116714
0.108686
0.112352
0.112489
0.108861
0.116684
0.115737
0.108311
0.112254
0.112407
0.108506
0.115743
0.114869
0.108007
0.112194
0.112359
0.10822
0.114906
0.114095
0.107763
0.112163
0.112337
0.107991
0.114158
0.113402
0.107572
0.112155
0.112337
0.107814
0.113491
0.112786
0.107427
0.112168
0.112356
0.107685
0.1129
0.112243
0.107328
0.112198
0.112394
0.1076
0.112382
0.111772
0.107272
0.112246
0.112448
0.10756
0.111935
0.11137
0.107261
0.112309
0.112519
0.107565
0.111556
0.111033
0.107292
0.11239
0.112607
0.107613
0.111243
0.110758
0.107364
0.112486
0.112712
0.107702
0.11099
0.110542
0.107476
0.112598
0.112833
0.10783
0.110797
0.110384
0.107626
0.112727
0.11297
0.107998
0.110661
0.11028
0.107814
0.11287
0.113123
0.108203
0.110579
0.11023
0.108038
0.11303
0.113292
0.108446
0.110552
0.110233
0.108298
0.113205
0.113478
0.108725
0.110578
0.110289
0.108595
0.113395
0.113679
0.109042
0.110657
0.110396
0.108928
0.113602
0.113897
0.109396
0.110789
0.110555
0.109298
0.113825
0.114131
0.109789
0.110973
0.110766
0.109706
0.114063
0.114382
0.11022
0.111211
0.111031
0.110153
0.114318
0.11465
0.110692
0.111503
0.11135
0.11064
0.114588
0.114934
0.111204
0.111849
0.111722
0.111166
0.114874
0.115233
0.111758
0.11225
0.112148
0.111735
0.115174
0.115545
0.112354
0.112705
0.112627
0.112343
0.115486
0.11587
0.112989
0.113212
0.113157
0.112988
0.115807
0.116202
0.11366
0.113769
0.113733
0.113667
0.116133
0.116537
0.114363
0.11437
0.114351
0.114375
0.116459
0.116871
0.115092
0.115009
0.115002
0.115104
0.116779
0.117192
0.115837
0.115678
0.115677
0.115844
0.117081
0.117492
0.116585
0.116363
0.116361
0.11658
0.117355
0.117755
0.117318
0.117046
0.117031
0.117291
0.117583
0.117964
0.118013
0.117704
0.117663
0.117952
0.117747
0.118097
0.118639
0.118306
0.118224
0.118528
0.117824
0.118132
0.11916
0.118816
0.118675
0.118984
0.117788
0.118038
0.119532
0.119194
0.118975
0.119277
0.117619
0.117758
0.119688
0.119395
0.11907
0.119302
0.117292
0.11729
0.119542
0.119352
0.118905
0.119017
0.116785
0.116626
0.119065
0.119025
0.118445
0.118399
0.11613
0.115786
0.118245
0.11839
0.117677
0.117449
0.115302
0.114827
0.117111
0.117457
0.116631
0.1162
0.114282
0.113753
0.115655
0.116223
0.11527
0.114596
0.113078
0.112522
0.113852
0.114678
0.113626
0.11269
0.111786
0.111303
0.111847
0.112932
0.111841
0.110671
0.110576
0.110162
0.10978
0.111083
0.109994
0.10864
0.109474
0.109135
0.107753
0.109214
0.10816
0.10669
0.108507
0.108248
0.105843
0.107387
0.106397
0.104876
0.107692
0.107513
0.10411
0.105658
0.104751
0.103218
0.107035
0.106929
0.102577
0.104079
0.103251
0.101772
0.106533
0.106493
0.101259
0.102662
0.101905
0.100548
0.106179
0.106195
0.100161
0.101422
0.100744
0.0995482
0.10596
0.106021
0.0992804
0.100364
0.0997681
0.0987661
0.105858
0.105955
0.0986089
0.0994852
0.09897
0.0981822
0.10585
0.105976
0.0981066
0.0987701
0.0983282
0.0977588
0.105922
0.106064
0.0977563
0.0981983
0.0978229
0.0974807
0.106052
0.106202
0.0975405
0.09775
0.0974338
0.0973281
0.106224
0.106372
0.0974345
0.0974036
0.0971378
0.0972766
0.106419
0.10656
0.0974155
0.0971354
0.0969099
0.0973022
0.106626
0.106753
0.0974603
0.0969232
0.0967299
0.0973812
0.106829
0.106935
0.0975456
0.096749
0.096583
0.0974919
0.107013
0.107096
0.0976528
0.0966015
0.0964456
0.0976167
0.107181
0.10725
0.0977681
0.096461
0.0963092
0.0977446
0.10734
0.10739
0.0978804
0.0963229
0.0961733
0.0978637
0.107477
0.107512
0.0979818
0.0961883
0.0960306
0.097965
0.10759
0.107622
0.09807
0.0960465
0.0958759
0.0980441
0.107678
0.107706
0.098139
0.0958904
0.0957076
0.0981045
0.107749
0.107777
0.0981873
0.0957151
0.0955203
0.0981457
0.107809
0.107825
0.098217
0.0955318
0.0953318
0.09816
0.107832
0.107841
0.0982174
0.0953362
0.0951214
0.0981522
0.107851
0.107868
0.098207
0.0951217
0.0948928
0.0981347
0.10787
0.107885
0.0981779
0.0948839
0.0946444
0.0980999
0.107885
0.107886
0.0981296
0.0946305
0.0943829
0.0980395
0.107876
0.107882
0.0980685
0.0943654
0.0941086
0.097968
0.107872
0.107872
0.0979859
0.0940757
0.0938012
0.0978689
0.107844
0.107841
0.0978766
0.0937651
0.0934725
0.0977192
0.10778
0.107681
0.0976805
0.0934153
0.0931295
0.0976255
0.107664
0.107452
0.0972621
0.0928754
0.0926409
0.0971423
0.107005
0.106281
0.0955892
0.0918987
0.0928191
0.0958624
0.104148
0.10511
0.0933881
0.0905816
0.0953215
0.100916
0.107133
0.112676
0.116336
0.120699
0.123508
0.12576
0.127325
0.128381
0.128908
0.128939
0.128426
0.127308
0.125545
0.122559
0.120255
0.1151
0.110265
0.105079
0.100387
0.099114
0.10216
0.116034
0.131443
0.133405
0.117538
0.103115
0.104191
0.119176
0.135079
0.136166
0.120342
0.104796
0.105228
0.120954
0.137126
0.137447
0.12128
0.105421
0.105777
0.121502
0.137721
0.137759
0.121709
0.105918
0.105979
0.121773
0.137796
0.137799
0.121777
0.106074
0.106102
0.121796
0.137795
0.137767
0.121801
0.106209
0.106239
0.121794
0.137727
0.137693
0.121811
0.106334
0.106349
0.121786
0.137655
0.137628
0.121815
0.106438
0.106452
0.121785
0.137594
0.137579
0.121817
0.106534
0.106549
0.121788
0.137552
0.137514
0.121796
0.106643
0.106656
0.121777
0.137462
0.137428
0.121773
0.106754
0.106767
0.12176
0.137378
0.137347
0.121759
0.106874
0.106892
0.121753
0.137301
0.137264
0.12175
0.107004
0.107027
0.121749
0.137215
0.13715
0.121738
0.107142
0.107162
0.121746
0.137109
0.13707
0.121734
0.107255
0.107262
0.121743
0.137048
0.137012
0.121735
0.10737
0.10739
0.121738
0.136972
0.136926
0.121728
0.107507
0.107527
0.121731
0.13688
0.136837
0.121728
0.107645
0.107668
0.121724
0.136793
0.136743
0.12174
0.107802
0.107832
0.121712
0.136674
0.136628
0.121734
0.107959
0.107981
0.121734
0.136587
0.136555
0.121762
0.108102
0.108123
0.121738
0.136504
0.136467
0.121766
0.108253
0.108275
0.12176
0.136418
0.136381
0.121797
0.108402
0.108422
0.121778
0.136332
0.136297
0.121813
0.108551
0.108572
0.121813
0.136253
0.13622
0.121856
0.108697
0.108711
0.121836
0.136175
0.136146
0.121878
0.108835
0.108848
0.121874
0.136102
0.136074
0.121923
0.108968
0.108973
0.1219
0.136027
0.136004
0.121948
0.109087
0.109086
0.12194
0.135959
0.135932
0.121986
0.109181
0.109162
0.12196
0.135894
0.135888
0.121999
0.109227
0.109198
0.121983
0.135863
0.135836
0.122003
0.109262
0.109225
0.121954
0.135783
0.135761
0.121968
0.109268
0.10921
0.121926
0.135721
0.135694
0.121899
0.109224
0.109149
0.121844
0.135642
0.135582
0.121776
0.109137
0.109035
0.121698
0.135521
0.135463
0.121579
0.108939
0.108779
0.12146
0.135417
0.135368
0.121286
0.10861
0.108402
0.121089
0.135323
0.135249
0.120849
0.108195
0.107935
0.120557
0.135149
0.135041
0.120223
0.107688
0.107354
0.119841
0.134912
0.134727
0.119381
0.107056
0.106596
0.118832
0.134535
0.134395
0.11826
0.106172
0.105567
0.117554
0.134217
0.133973
0.116756
0.105107
0.104487
0.115855
0.133661
0.133312
0.114908
0.103997
0.103339
0.113825
0.132882
0.132384
0.112694
0.102809
0.102018
0.111391
0.131866
0.131384
0.110095
0.101374
0.100503
0.108563
0.130831
0.130317
0.107097
0.0997875
0.0988493
0.105419
0.129796
0.129128
0.103673
0.0981185
0.0973363
0.101577
0.128091
0.126741
0.0997113
0.0965856
0.0957842
0.0981271
0.125353
0.124063
0.096125
0.0951193
0.0945591
0.0943247
0.122886
0.121678
0.0932478
0.0945684
0.0942895
0.0923372
0.120583
0.119601
0.0909517
0.0946016
0.0946108
0.0902253
0.11851
0.117275
0.0896434
0.0953012
0.0956731
0.0894085
0.116054
0.115156
0.089876
0.0970212
0.097618
0.0899539
0.114354
0.113516
0.0911643
0.0993521
0.100507
0.0925775
0.112448
0.112385
0.0959928
0.103275
0.104812
0.0989528
0.113431
0.132153
0.0912721
0.0858842
0.0975091
0.0949326
0.12648
0.125885
0.0916938
0.0965919
0.0973409
0.0906751
0.125372
0.124361
0.0892877
0.0968035
0.0982846
0.0889987
0.122645
0.120806
0.0883046
0.0982504
0.100764
0.0893314
0.119079
0.117307
0.089523
0.101216
0.104638
0.0921943
0.1161
0.114826
0.0933738
0.106048
0.111257
0.0982148
0.11396
0.114802
0.101766
0.11384
0.0886777
0.0893368
0.127471
0.12141
0.0944492
0.106543
0.107087
0.0937331
0.119264
0.117392
0.0964625
0.112661
0.114368
0.0970848
0.115691
0.114919
0.100619
0.118835
0.120999
0.102449
0.114506
0.115955
0.108204
0.12657
0.128394
0.112402
0.119094
0.128581
0.0936794
0.0967295
0.120207
0.101379
0.121627
0.119761
0.101067
0.122082
0.128441
0.105971
0.119556
0.11898
0.107637
0.130169
0.138196
0.115959
0.119922
0.12298
0.122689
0.141597
0.108197
0.0998547
0.127756
0.122885
0.111698
0.137838
0.141379
0.114551
0.121591
0.122904
0.125344
0.152911
0.157988
0.131591
0.124997
0.131393
0.142676
0.164116
0.126713
0.110485
0.129362
0.127976
0.129606
0.162581
0.166867
0.133426
0.128515
0.133861
0.152187
0.182411
0.189212
0.163317
0.140424
0.134902
0.125667
0.151744
0.195745
0.158059
0.138123
0.141213
0.166845
0.206006
0.229969
0.195382
0.153452
0.161962
0.208542
0.240894
0.209368
0.166763
0.151631
0.170888
0.228306
0.267122
0.28788
0.24926
0.185117
0.173989
0.206029
0.266501
0.345737
0.302788
0.21278
0.245439
0.354204
0.399103
0.438181
0.347715
0.237638
0.414191
0.610449
0.64838
0.917958
0.847242
0.510691
1
1
1
0.825202
0.797186
0.509003
0.275498
0.424594
0.471755
0.342323
0.30889
0.213218
0.211387
0.276979
0.28923
0.239448
0.199205
0.171733
0.177716
0.216408
0.23303
0.192655
0.164801
0.149179
0.149641
0.178167
0.198141
0.187799
0.162008
0.14137
0.131078
0.122643
0.14776
0.1665
0.148935
0.135311
0.12908
0.123337
0.138574
0.155622
0.136551
0.127666
0.122568
0.127735
0.149017
0.116876
0.105452
0.1221
0.120784
0.120044
0.139644
0.133249
0.114366
0.118583
0.120671
0.0983798
0.104642
0.127917
0.110019
0.116875
0.115724
0.106104
0.121985
0.0972991
0.0943378
0.119727
0.114122
0.103295
0.119301
0.113982
0.0997002
0.11236
0.118011
0.0904186
0.0921035
0.111772
0.0974558
0.110666
0.111364
0.0942679
0.105506
0.0861775
0.0874284
0.117944
0.109098
0.0933457
0.105231
0.100415
0.0901129
0.108246
0.115395
0.0840017
0.0830631
0.100011
0.0889269
0.106134
0.107881
0.0863276
0.0949704
0.0795426
0.0819939
0.115409
0.104483
0.0867971
0.0964877
0.089464
0.0831887
0.105334
0.109583
0.0804058
0.0836934
0.0744737
0.0792118
0.118104
0.103652
0.0792783
0.0838584
0.0809697
0.0773454
0.107687
0.119482
0.0756504
0.0709866
0.0811416
0.0744846
0.103723
0.106911
0.0745745
0.0779377
0.0697546
0.075033
0.11592
0.100151
0.0727393
0.0762192
0.0739783
0.0725701
0.104695
0.117288
0.0724125
0.0666198
0.0743853
0.0700697
0.101655
0.105424
0.0709861
0.071963
0.0651615
0.0712137
0.116502
0.100036
0.067762
0.0711097
0.0690484
0.0679398
0.104094
0.114829
0.0728476
0.0640298
0.0680509
0.0672453
0.0976278
0.102743
0.0668724
0.0665337
0.0628102
0.0727456
0.113787
0.0965498
0.0652885
0.0652387
0.0638759
0.0645951
0.103168
0.114636
0.0729916
0.0612772
0.0637575
0.0649365
0.0978048
0.108467
0.0673972
0.0596865
0.0655163
0.0633873
0.0935302
0.0979124
0.0638079
0.0633978
0.0602133
0.068702
0.108886
0.0938533
0.0632532
0.0638429
0.062349
0.0634323
0.0987738
0.109627
0.0687856
0.0595325
0.063088
0.0627633
0.0936453
0.0973863
0.062332
0.0618613
0.0593435
0.0691574
0.108222
0.0934968
0.0614527
0.0605945
0.0585685
0.0609334
0.0999005
0.112148
0.070232
0.0575693
0.0582983
0.0603578
0.0946404
0.0994849
0.0597095
0.0568417
0.0571596
0.0714259
0.110245
0.0938241
0.0586251
0.0567649
0.0549472
0.0652199
0.105475
0.0919095
0.0578608
0.0567027
0.05494
0.0575882
0.0969265
0.107448
0.0680575
0.054966
0.0552372
0.0572862
0.0918381
0.0974249
0.0567863
0.0525619
0.0541381
0.0704867
0.108865
0.0927915
0.0551427
0.0526978
0.0519243
0.0634309
0.104074
0.0893756
0.0548447
0.0530363
0.0510232
0.0547842
0.0940317
0.104764
0.0667032
0.0521734
0.0525408
0.0549836
0.0898454
0.0956316
0.0550272
0.0503167
0.0524941
0.0694616
0.107211
0.0917344
0.0530433
0.0502891
0.0501051
0.0624841
0.103488
0.0886809
0.0530424
0.0509663
0.0489388
0.053185
0.093301
0.104113
0.0661619
0.0504893
0.0499019
0.0527413
0.0894304
0.0954681
0.0531487
0.0477842
0.0504997
0.0677893
0.108626
0.0930092
0.0487605
0.0475145
0.0482269
0.0618245
0.103629
0.0873352
0.0504069
0.048118
0.045842
0.0512609
0.0931641
0.104852
0.0675997
0.0489581
0.0461893
0.0492902
0.0894642
0.101075
0.0605489
0.0468837
0.046906
0.0491698
0.0858887
0.0916735
0.0499489
0.0451561
0.0484767
0.0664019
0.104105
0.0897625
0.0481419
0.04564
0.0464583
0.0605056
0.100346
0.084452
0.0484534
0.0461636
0.0443787
0.0495203
0.0903527
0.103145
0.0659817
0.0477086
0.0448555
0.0469248
0.0884181
0.0994506
0.0600161
0.0458462
0.045482
0.0478338
0.0844071
0.090767
0.0492287
0.0437191
0.0476034
0.0667118
0.102803
0.0878652
0.0478823
0.0445059
0.045418
0.0595312
0.0988374
0.084382
0.0472702
0.0448692
0.0432571
0.0483404
0.0902432
0.103145
0.0657997
0.0470346
0.0435665
0.0450787
0.0891072
0.0998577
0.0614643
0.0458271
0.0433825
0.0450463
0.0850956
0.0954948
0.0585479
0.0446829
0.0443461
0.0465372
0.0821208
0.0877262
0.0478804
0.0425658
0.0462399
0.0646911
0.0994943
0.0854865
0.0456927
0.0429941
0.0442971
0.0588251
0.0967228
0.082679
0.0460215
0.0436134
0.0420824
0.0476116
0.0889843
0.101847
0.0653069
0.0461473
0.0424861
0.0443004
0.0885882
0.099233
0.0607798
0.045063
0.0423524
0.0441803
0.085125
0.0945232
0.057481
0.0435531
0.0428222
0.0451566
0.0804382
0.0861819
0.0464192
0.0412636
0.0453909
0.0640444
0.0974479
0.0843178
0.0452098
0.0419565
0.0444573
0.0597747
0.0965639
0.0828405
0.042751
0.0415349
0.0429978
0.0568526
0.0926553
0.0801074
0.0447015
0.0423952
0.0412294
0.0467479
0.0861964
0.0979849
0.063901
0.045332
0.0417272
0.0439833
0.0846512
0.0957025
0.059023
0.0441145
0.0411838
0.0425124
0.0818878
0.0914159
0.0566165
0.0426852
0.0418069
0.0441447
0.0784415
0.0840675
0.0457881
0.040474
0.04467
0.0630967
0.09519
0.0826884
0.0444748
0.0412788
0.0439528
0.0590915
0.0945425
0.0818966
0.0425135
0.0409721
0.0425552
0.0565048
0.091148
0.0782308
0.043912
0.0414565
0.0402283
0.0457019
0.0839507
0.0951409
0.0626332
0.0445746
0.0411514
0.0443051
0.0830891
0.0952708
0.0588693
0.0438455
0.0404311
0.041536
0.0816472
0.0912014
0.0561502
0.0422061
0.0408321
0.0433718
0.0780724
0.0837871
0.0451673
0.0396417
0.0442568
0.0627673
0.0949677
0.082342
0.0443601
0.0408068
0.0435571
0.058991
0.0942213
0.080244
0.0411978
0.0399563
0.0423536
0.0559393
0.0901573
0.0780305
0.0406124
0.0394524
0.04148
0.055273
0.0873627
0.0754392
0.0425261
0.0401579
0.039029
0.0446076
0.0813609
0.0935065
0.0623662
0.0436216
0.0398687
0.0422166
0.0824288
0.0931076
0.0574737
0.0426965
0.0395198
0.0411907
0.0804737
0.0902527
0.0562139
0.0421424
0.0391541
0.0406287
0.0775073
0.0865551
0.0550851
0.04121
0.0395695
0.0421579
0.0746723
0.0802261
0.043812
0.0384061
0.0429831
0.0607244
0.0911804
0.0795233
0.0427804
0.0395071
0.042473
0.0573414
0.0914703
0.0786652
0.0403828
0.0390014
0.0415545
0.0549378
0.0881848
0.0763228
0.0398503
0.0385762
0.0407873
0.0546557
0.0853032
0.074104
0.0419081
0.0391469
0.0382063
0.0437232
0.0794315
0.0900816
0.0603722
0.0429337
0.0391644
0.0426371
0.0788431
0.0908102
0.0568912
0.0422431
0.0386068
0.0398559
0.0781432
0.087889
0.0547968
0.0412886
0.0381792
0.0396037
0.0760825
0.0850977
0.0542876
0.0404166
0.0385624
0.0412866
0.0734086
0.079183
0.0432959
0.0375753
0.0426669
0.0608882
0.0908365
0.0802554
0.0408408
0.0385694
0.0416175
0.0557545
0.0900362
0.0771051
0.0393924
0.0380095
0.0409203
0.0546268
0.0866038
0.075203
0.0393013
0.0377156
0.0404558
0.0535046
0.0847614
0.0738292
0.0391349
0.0374974
0.0398454
0.0531948
0.0824954
0.0718902
0.0409035
0.0378247
0.0370861
0.0428353
0.0773107
0.0882365
0.0589883
0.0421771
0.03795
0.0415664
0.0770144
0.0891469
0.0560057
0.0417075
0.0377797
0.0392316
0.076803
0.0861141
0.0539236
0.0406742
0.0372025
0.0385519
0.0744427
0.0835394
0.0530346
0.0399231
0.0369256
0.0387755
0.0728835
0.0813607
0.0525379
0.0391889
0.0372725
0.040144
0.0704944
0.0757398
0.0418778
0.03644
0.0415317
0.058172
0.0861784
0.0748716
0.0407006
0.0374388
0.0410033
0.0549952
0.0859642
0.074148
0.0387531
0.0371964
0.0401132
0.0528684
0.0835674
0.0726631
0.0381618
0.036795
0.0396423
0.0523918
0.0816404
0.0713305
0.0385543
0.0366681
0.0389578
0.0517283
0.0796003
0.069479
0.0398033
0.0369003
0.0362314
0.041788
0.0746239
0.0850436
0.0573582
0.0413007
0.0369299
0.0405308
0.0745545
0.0858658
0.0544264
0.0407412
0.0366522
0.0382666
0.0744443
0.0836176
0.0523405
0.0398234
0.0361995
0.0374226
0.0725318
0.0812893
0.0516861
0.0391549
0.0359707
0.0377678
0.0708391
0.0787808
0.0513681
0.038466
0.0363067
0.0392004
0.0683256
0.0735642
0.0411486
0.0356373
0.0407821
0.0568865
0.0837763
0.0732379
0.0398979
0.036396
0.040191
0.0536122
0.0838909
0.0725276
0.0376916
0.0360631
0.0392054
0.0514331
0.0814827
0.0708379
0.0369987
0.0356936
0.0387391
0.0508078
0.0793977
0.0694927
0.0373376
0.0355031
0.0380782
0.0506071
0.0774724
0.0674992
0.0387496
0.0357189
0.0351779
0.0408838
0.0728672
0.0833893
0.0560692
0.040562
0.0357972
0.039459
0.0725232
0.083709
0.0534358
0.0400921
0.0355065
0.0373872
0.0722479
0.0809765
0.0511213
0.0389131
0.0350078
0.036402
0.0704825
0.0790728
0.0503451
0.0382887
0.0348486
0.0366292
0.0690724
0.0773007
0.0500165
0.0379744
0.034764
0.036717
0.0675573
0.0753334
0.0495172
0.0372883
0.0350268
0.0379099
0.0654119
0.0707779
0.0398381
0.0344091
0.0397294
0.0555169
0.080788
0.0707049
0.0383377
0.0352437
0.0388103
0.0513865
0.0801299
0.0692109
0.0362132
0.0347372
0.0380451
0.0498084
0.0775297
0.0675161
0.0361601
0.0345395
0.0376642
0.0493018
0.0755063
0.066169
0.0364487
0.0344852
0.0371161
0.0487033
0.0737072
0.0644144
0.0374899
0.0345809
0.0340488
0.0394896
0.0697809
0.0794779
0.0545635
0.0394053
0.0348422
0.0382552
0.0694713
0.0792914
0.0513056
0.0387863
0.0343752
0.0362967
0.0689707
0.0772244
0.0494653
0.0378323
0.0339596
0.0355862
0.0673097
0.0750993
0.0487007
0.0372776
0.0337079
0.0356999
0.065679
0.0732301
0.0482133
0.0365066
0.0337824
0.0367401
0.0635746
0.0690869
0.038691
0.0332515
0.0388948
0.0544705
0.0787322
0.0688455
0.0375438
0.0341872
0.0379496
0.0502319
0.0778648
0.0673145
0.0353488
0.033618
0.0371273
0.0486079
0.0751643
0.0655116
0.0351627
0.033287
0.0365744
0.0478544
0.0733026
0.0641534
0.0351434
0.0331512
0.0359948
0.0474071
0.0717776
0.0625392
0.0362441
0.033218
0.0327289
0.0383129
0.0678468
0.077126
0.0533035
0.0383043
0.0336207
0.0371391
0.067375
0.0766392
0.049817
0.0376642
0.0331608
0.0351947
0.0664824
0.0745616
0.0483075
0.0368294
0.0328304
0.0348194
0.0649462
0.0728402
0.0475653
0.0363529
0.0326132
0.0347818
0.0635815
0.0712965
0.0471076
0.0356163
0.0326511
0.0357288
0.0620531
0.0672955
0.0376401
0.0321426
0.0377781
0.0526624
0.0761094
0.0665109
0.036698
0.0331256
0.0370816
0.0490744
0.0750736
0.0649136
0.0347112
0.0326598
0.036196
0.0473049
0.072768
0.0630311
0.0342126
0.0322756
0.0354939
0.0467307
0.070891
0.0621521
0.0355859
0.0322297
0.031876
0.037744
0.0676586
0.0767519
0.0526349
0.0379962
0.032797
0.036634
0.0667145
0.0755774
0.0491974
0.0371532
0.0323719
0.0346506
0.0654531
0.0735183
0.0475933
0.0362068
0.0318881
0.0340471
0.0634392
0.071222
0.0467763
0.0353102
0.0317161
0.0351143
0.0617713
0.0672149
0.0370943
0.0312387
0.0374316
0.0529026
0.0757732
0.0662453
0.0359503
0.0323004
0.0362636
0.0480855
0.0747304
0.0638164
0.0332954
0.0315818
0.0354782
0.0465567
0.071952
0.0627799
0.0336505
0.0313766
0.0350255
0.046547
0.0706926
0.061474
0.0349364
0.0312788
0.0310166
0.0371983
0.0670307
0.0759031
0.0519216
0.0375116
0.0318877
0.03594
0.0653795
0.0743995
0.0484866
0.0364762
0.0315104
0.0338956
0.0640919
0.0721284
0.046797
0.0354715
0.0309619
0.033317
0.0623126
0.0702155
0.0459353
0.0345163
0.0307407
0.0342715
0.0609881
0.0663235
0.036182
0.030294
0.0365844
0.0509944
0.0743007
0.0641383
0.0350316
0.0312713
0.0357699
0.0477443
0.0730952
0.0631779
0.0334704
0.0310495
0.0350881
0.0462504
0.0713803
0.0619689
0.0330835
0.0308082
0.0345409
0.0458906
0.0699243
0.0609228
0.0344024
0.0306861
0.0304022
0.0365866
0.0664358
0.0746141
0.0516683
0.0370427
0.0314605
0.0355761
0.0643655
0.0729042
0.0477064
0.0358969
0.0308556
0.0334177
0.0626526
0.0706491
0.0460792
0.0346481
0.0303274
0.0339524
0.0609611
0.0660078
0.0354573
0.0299109
0.0366477
0.0512212
0.0744348
0.0638957
0.0351269
0.0310029
0.0356801
0.0476213
0.0725206
0.0627098
0.0333237
0.030691
0.0348575
0.0461383
0.0709955
0.0614642
0.0327938
0.0303729
0.0341598
0.0455478
0.0693189
0.0602176
0.0338839
0.0301604
0.0299242
0.0360951
0.0655487
0.0737973
0.0516348
0.036773
0.0311164
0.0354063
0.063735
0.0720674
0.047399
0.0356134
0.0304791
0.033053
0.0619682
0.0697379
0.045648
0.0342774
0.0299386
0.0335436
0.0596901
0.0648539
0.0354509
0.0296146
0.0365673
0.0512151
0.0738297
0.0641396
0.0351023
0.0309364
0.0356453
0.0475939
0.072639
0.0625546
0.0332825
0.0304913
0.0344938
0.0460523
0.0703678
0.0609042
0.0338948
0.03007
0.0298604
0.0360199
0.0660926
0.0742499
0.0518176
0.0368716
0.0309703
0.035505
0.0637733
0.0720558
0.0477798
0.035495
0.0302166
0.0341139
0.0617449
0.0668226
0.0358327
0.0298115
0.0367717
0.0514931
0.0748934
0.0635447
0.0346869
0.0307057
0.0357092
0.047691
0.0724029
0.0626368
0.0332937
0.0302092
0.0345945
0.046351
0.0707652
0.0613172
0.0339092
0.0297851
0.0296311
0.0361802
0.0666722
0.0749112
0.0518395
0.036947
0.0307039
0.0353169
0.0643309
0.0726221
0.0476768
0.0353972
0.0297757
0.0338048
0.0621356
0.0672459
0.03553
0.029447
0.0367668
0.0517624
0.0755026
0.0643699
0.0348275
0.0304125
0.0351181
0.0473625
0.0724359
0.061356
0.0335723
0.0293787
0.0291776
0.0356958
0.0669496
0.0761953
0.0524787
0.0370843
0.0305398
0.0351318
0.0652276
0.0736762
0.04826
0.0355913
0.0294931
0.0337956
0.0627531
0.0679733
0.0356646
0.0292393
0.036908
0.0521233
0.0762501
0.0649102
0.0348915
0.0302473
0.0352829
0.0477456
0.073147
0.0622773
0.0335985
0.0292456
0.0289352
0.0353824
0.0674531
0.075759
0.0518089
0.0365566
0.0297787
0.0337974
0.0629705
0.0716944
0.0472144
0.0349197
0.0287876
0.0332571
0.0617008
0.0673708
0.0352105
0.0286975
0.0366325
0.0521434
0.0758812
0.0649142
0.0346508
0.029947
0.0350271
0.0476602
0.0732028
0.0623593
0.0332879
0.0289183
0.0286656
0.0351064
0.0673647
0.0755024
0.0517002
0.036395
0.0296394
0.0344142
0.0639726
0.0718435
0.0469916
0.0345518
0.0283813
0.0326838
0.0602387
0.0642382
0.033435
0.0278833
0.0352396
0.0505052
0.0729828
0.0628933
0.0342662
0.0287976
0.0286604
0.0357407
0.068407
0.0769619
0.0528454
0.0369551
0.0299105
0.0347161
0.0655152
0.0735744
0.047768
0.0350822
0.0285445
0.0329241
0.0623133
0.0668705
0.0346035
0.0282547
0.0356791
0.0512694
0.0745874
0.0631367
0.0345845
0.0288321
0.0282338
0.0346423
0.0673025
0.0752238
0.0515388
0.0358585
0.0285896
0.0343916
0.0637994
0.0694702
0.0353844
0.0283626
0.0369499
0.0531333
0.0783656
0.0660588
0.0344342
0.0295935
0.0349472
0.0478307
0.0739244
0.0621925
0.0326855
0.0281914
0.0279186
0.034286
0.0665271
0.0739042
0.0508986
0.0353103
0.0283332
0.0340797
0.0621037
0.0658028
0.0338181
0.0276905
0.0350548
0.0502389
0.0735168
0.0622886
0.0335576
0.0279564
0.0277865
0.0346985
0.0676868
0.076418
0.0519027
0.0358066
0.0284634
0.0344538
0.0642292
0.0687331
0.0351077
0.0281327
0.0359393
0.0518619
0.0764058
0.0637699
0.0341802
0.0283221
0.0277863
0.034575
0.0677476
0.0747275
0.050527
0.0351629
0.0275309
0.03301
0.0617912
0.0660914
0.035964
0.0276601
0.0278511
0.0378952
0.0723248
0.0814872
0.0545013
0.0372823
0.0285355
0.0352
0.0673016
0.0715244
0.0353302
0.0280403
0.0359218
0.0524667
0.078724
0.0642531
0.033485
0.0275133
0.0268629
0.0343481
0.0664029
0.0708419
0.0358979
0.0266701
0.0361486
0.0538041
0.080384
0.0669542
0.0341046
0.0274167
0.0276
0.0366905
0.0710798
0.0762342
0.0383698
0.0276812
0.037237
0.0546587
0.0839748
0.0660468
0.0339509
0.0274173
0.0267352
0.03491
0.0682896
0.0728961
0.0363927
0.0264667
0.0358584
0.0536341
0.0826551
0.067732
0.033806
0.0267727
0.0262511
0.0332719
0.0712813
0.0763339
0.0395511
0.0269346
0.0260263
0.0350444
0.0775932
0.0841037
0.0568446
0.036387
0.0264899
0.0339978
0.0693679
0.074964
0.0346236
0.026171
0.0262508
0.0383501
0.0803001
0.0826439
0.0358318
0.0253047
0.0258709
0.0404442
0.0856475
0.0899374
0.0398237
0.0251794
0.0363727
0.0596447
0.0973517
0.0725635
0.0341042
0.0257299
0.0251916
0.0337405
0.0753657
0.0808294
0.0377257
0.0252506
0.025203
0.038157
0.0863588
0.0916967
0.0396118
0.0254801
0.0260125
0.0423919
0.0961939
0.101093
0.0447894
0.0265991
0.0271928
0.0470652
0.104878
0.106808
0.0494308
0.0277853
0.0283036
0.0514368
0.107965
0.108685
0.0536729
0.0289062
0.0294843
0.0558935
0.109095
0.109264
0.0584279
0.0302677
0.030964
0.0608957
0.109323
0.109322
0.0633247
0.031958
0.0328
0.0657122
0.109297
0.109275
0.0680662
0.0339557
0.0349447
0.070375
0.109244
0.109217
0.0726273
0.0362443
0.0374867
0.074686
0.109195
0.109203
0.0766693
0.0390078
0.0404072
0.0784808
0.109229
0.109274
0.0802474
0.0420267
0.0434207
0.0819278
0.109325
0.10939
0.0835581
0.0450315
0.0464182
0.0851009
0.109462
0.109561
0.086595
0.0480191
0.0494022
0.0879982
0.109673
0.109802
0.0893493
0.051002
0.0523962
0.0906058
0.10993
0.110069
0.0918079
0.0539988
0.0554012
0.0929095
0.110199
0.110331
0.0939533
0.0570048
0.0583986
0.094892
0.110453
0.110577
0.0957696
0.0599855
0.0613246
0.0965599
0.110689
0.110802
0.0973007
0.0628253
0.0640778
0.0979608
0.110905
0.111005
0.0985792
0.0654809
0.0666446
0.0991229
0.111089
0.111167
0.0996313
0.0679542
0.0690256
0.100071
0.111228
0.111282
0.100469
0.0702305
0.071194
0.100824
0.111321
0.111358
0.101148
0.072285
0.0731361
0.101405
0.111378
0.111395
0.101664
0.0741109
0.0748555
0.101848
0.1114
0.111401
0.102043
0.0757201
0.0763628
0.102168
0.111393
0.111379
0.102304
0.0771196
0.077665
0.102377
0.11136
0.111335
0.102463
0.078321
0.0787809
0.102497
0.111308
0.111271
0.102542
0.0793443
0.0797266
0.102543
0.111237
0.111192
0.102553
0.080206
0.0805213
0.102529
0.111153
0.111102
0.10251
0.0809213
0.0811797
0.102467
0.11106
0.111005
0.102425
0.0815092
0.0817223
0.102369
0.11096
0.110901
0.102307
0.0819859
0.0821606
0.102237
0.110853
0.110793
0.102162
0.0823683
0.0825112
0.102085
0.110746
0.110686
0.102001
0.0826654
0.0827831
0.101917
0.110638
0.11058
0.101829
0.0829026
0.0829923
0.10174
0.110533
0.110476
0.101651
0.0830903
0.0831528
0.101558
0.110428
0.110374
0.101471
0.0832289
0.0832602
0.101377
0.110328
0.110275
0.10129
0.0833182
0.0833259
0.101196
0.11023
0.110179
0.101108
0.0833711
0.0833626
0.101016
0.110138
0.110087
0.100928
0.0833971
0.0833773
0.100838
0.110046
0.109999
0.10075
0.0834044
0.0833793
0.100665
0.109961
0.109915
0.100577
0.083398
0.0833708
0.100496
0.109878
0.109835
0.10041
0.0833841
0.0833604
0.100336
0.109802
0.109759
0.100252
0.083369
0.0833463
0.100183
0.109729
0.109689
0.100103
0.0833545
0.0833348
0.100041
0.109662
0.109624
0.099966
0.0833427
0.0833257
0.099909
0.109597
0.109561
0.0998388
0.0833346
0.0833227
0.099788
0.109537
0.109504
0.099724
0.0833338
0.0833258
0.099679
0.109484
0.109452
0.0996204
0.0833386
0.0833358
0.0995809
0.109434
0.109405
0.0995283
0.0833512
0.0833528
0.0994942
0.109389
0.109361
0.0994466
0.0833706
0.0833774
0.0994177
0.109347
0.109323
0.0993754
0.0833978
0.0834089
0.0993515
0.10931
0.109288
0.0993138
0.0834316
0.0834472
0.0992942
0.109276
0.109257
0.0992608
0.0834727
0.0834908
0.0992446
0.109245
0.109228
0.0992145
0.0835175
0.0835399
0.0992012
0.109217
0.109202
0.0991748
0.0835675
0.0835927
0.0991632
0.109191
0.109179
0.0991406
0.0836207
0.083649
0.0991303
0.109167
0.109157
0.0991116
0.0836775
0.0837078
0.0991021
0.109146
0.109135
0.0990868
0.0837366
0.0837692
0.0990781
0.109127
0.109116
0.099066
0.0837982
0.083832
0.0990578
0.10911
0.109099
0.0990488
0.0838607
0.083896
0.0990416
0.109093
0.109083
0.0990343
0.0839244
0.08396
0.0990276
0.109078
0.109068
0.0990204
0.0839876
0.0840238
0.0990157
0.109064
0.109054
0.0990088
0.0840509
0.0840868
0.0990057
0.109051
0.109041
0.0989988
0.0841129
0.0841489
0.0989972
0.109039
0.10903
0.0989905
0.0841743
0.0842096
0.09899
0.109027
0.109018
0.0989831
0.0842339
0.0842688
0.0989838
0.109017
0.109008
0.0989768
0.0842922
0.0843262
0.0989783
0.109006
0.108998
0.0989712
0.0843485
0.0843814
0.0989734
0.108997
0.108988
0.0989659
0.0844026
0.0844341
0.0989682
0.108987
0.108978
0.0989603
0.0844539
0.0844839
0.0989629
0.108977