/*--------------------------------*- C++ -*----------------------------------*\
| =========                 |                                                 |
| \\      /  F ield         | OpenFOAM: The Open Source CFD Toolbox           |
|  \\    /   O peration     | Version:  v2006                                 |
|   \\  /    A nd           | Website:  www.openfoam.com                      |
|    \\/     M anipulation  |                                                 |
\*---------------------------------------------------------------------------*/
FoamFile
{
    version     2.0;
    format      ascii;
    class       volScalarField;
    location    "0.056";
    object      Co;
}
// * * * * * * * * * * * * * * * * * * * * * * * * * * * * * * * * * * * * * //

dimensions      [0 0 0 0 0 0 0];


internalField   nonuniform List<scalar> 
16277
(
0.00667794
0.00636549
0.00690875
0.00717317
0.00721137
0.00706017
0.00705646
0.00693749
0.00688573
0.00687175
0.00683377
0.00681938
0.00680543
0.00679551
0.00678453
0.00677342
0.00676175
0.00674942
0.00673671
0.00672342
0.00670957
0.00669514
0.00668017
0.00666465
0.00664859
0.00663201
0.0066149
0.00659729
0.00657916
0.00656055
0.00654145
0.00652189
0.00650188
0.00648143
0.00646056
0.00643928
0.00641762
0.0063956
0.00637323
0.00635054
0.00632754
0.00630426
0.00628073
0.00625696
0.00623299
0.00620883
0.00618451
0.00616005
0.00613549
0.00611086
0.00608616
0.00606145
0.00603674
0.00601206
0.00598745
0.00596292
0.00593851
0.00591425
0.00589018
0.00586631
0.00584269
0.00581934
0.00579629
0.00577356
0.0057512
0.00572923
0.00570767
0.00568656
0.00566591
0.00564577
0.00562614
0.00560705
0.00558853
0.00557061
0.00555332
0.00553667
0.00552064
0.00550514
0.00548865
0.00547374
0.00546048
0.00545104
0.00544889
0.0054819
0.00554581
0.00571957
0.00603364
0.00675179
0.00842424
0.0120121
0.0180127
0.0141712
0.0127313
0.0121958
0.0119274
0.0116628
0.0111382
0.0101005
0.0110824
0.0117221
0.0109207
0.0108043
0.0101644
0.00839196
0.00903501
0.00924155
0.00919092
0.00918849
0.00862
0.00784217
0.00855001
0.00872303
0.00899227
0.00883477
0.00804833
0.00782897
0.008634
0.00881981
0.00902369
0.0088018
0.00789427
0.00779494
0.00867381
0.00886711
0.00903661
0.00877378
0.00779788
0.00769712
0.00864467
0.00886785
0.00899467
0.00871592
0.00767876
0.00758285
0.00858334
0.00883632
0.00895488
0.00865056
0.00756654
0.00747629
0.00851851
0.00879665
0.00891186
0.0085854
0.00746436
0.00737868
0.00845451
0.00875489
0.00886722
0.00852135
0.00737005
0.00728796
0.00839238
0.00871209
0.00882158
0.00845848
0.00728189
0.00720243
0.00833206
0.00866872
0.00877506
0.00839632
0.00719839
0.00712111
0.00827187
0.0086236
0.00872769
0.00833462
0.00711851
0.00704299
0.00821163
0.00857699
0.00867936
0.00827316
0.00704141
0.00696734
0.00815121
0.00852886
0.0086301
0.00821175
0.00696647
0.00689355
0.00809042
0.00847919
0.00857981
0.00815017
0.00689315
0.00682114
0.00802905
0.00842795
0.00852837
0.00808818
0.00682098
0.00674976
0.00796703
0.00837512
0.00847569
0.00802562
0.00674961
0.0066789
0.00790408
0.00832066
0.00842167
0.00796232
0.00667875
0.00660844
0.00784015
0.0082645
0.00836622
0.00789813
0.00660813
0.00653813
0.00777512
0.00820653
0.00830926
0.00783292
0.00653754
0.00646775
0.00770885
0.00814671
0.00825063
0.00776652
0.00646679
0.00639712
0.00764243
0.00808763
0.00819022
0.00769882
0.00639563
0.00632602
0.00757481
0.00802735
0.00812799
0.00762971
0.00632392
0.00625428
0.00750573
0.00796521
0.00806382
0.00755904
0.00625148
0.00618173
0.00743503
0.00790111
0.00799761
0.00748668
0.00617812
0.00610818
0.00736259
0.00783493
0.00792921
0.00741247
0.00610368
0.00603347
0.00728826
0.00776656
0.00785853
0.00733629
0.00602798
0.00595744
0.00721191
0.00769587
0.00778543
0.007258
0.00595089
0.00587995
0.00713342
0.00762276
0.00770981
0.00717748
0.00587226
0.00580088
0.00705267
0.00754712
0.00763156
0.00709462
0.00579199
0.00572012
0.00696957
0.00746885
0.00755059
0.00700934
0.00570998
0.00563761
0.00688403
0.00738787
0.00746683
0.00692155
0.00562618
0.00555331
0.006796
0.0073041
0.00738022
0.00683125
0.0055406
0.00546727
0.0067055
0.00721753
0.00729077
0.00673847
0.00545331
0.00537961
0.00661258
0.00712817
0.00719854
0.00664332
0.00536448
0.00529051
0.00651741
0.00703614
0.00710368
0.00654601
0.00527433
0.00520026
0.00642023
0.0069416
0.0070064
0.00644682
0.00518322
0.00510928
0.00632137
0.00684481
0.00690702
0.00634616
0.00509163
0.00501812
0.00622131
0.00674614
0.006806
0.00624461
0.00500022
0.00492753
0.00612071
0.00664609
0.00670394
0.00614293
0.00490983
0.00483846
0.00602041
0.00654537
0.00660167
0.0060421
0.00482155
0.00475214
0.00592151
0.00644488
0.00650024
0.00594336
0.00473674
0.00467004
0.00582536
0.00634576
0.00640096
0.00584825
0.00465705
0.00459398
0.00573366
0.00624947
0.00630553
0.00575867
0.00458448
0.0045261
0.00564846
0.00615784
0.00621595
0.00567677
0.00452131
0.00447052
0.00557326
0.00607288
0.00613431
0.00560474
0.00447035
0.00443525
0.00552431
0.00600967
0.00606342
0.00554602
0.0044351
0.00441757
0.00549727
0.00598097
0.00600681
0.00550368
0.00441746
0.00441928
0.00549035
0.00597198
0.00596761
0.00548042
0.0044192
0.00444099
0.00550421
0.00598312
0.00594475
0.005475
0.00444095
0.00448198
0.00553773
0.00601294
0.00594787
0.00549805
0.00448521
0.00454335
0.00559298
0.00606471
0.00599689
0.00556086
0.00455635
0.00462482
0.00566904
0.0061368
0.00607227
0.00564138
0.00464367
0.00471789
0.00575703
0.00621952
0.00615766
0.00573291
0.00474016
0.0048174
0.00585324
0.00630979
0.00624903
0.00583066
0.00484072
0.00491925
0.00595438
0.00640522
0.00634427
0.00593184
0.00494208
0.0050204
0.00605736
0.00650306
0.00644052
0.00603338
0.00504136
0.00511806
0.00615915
0.00660041
0.00653513
0.00613248
0.00513591
0.0052098
0.00625719
0.0066948
0.00662584
0.00622683
0.00522357
0.00529375
0.00634937
0.0067842
0.00671085
0.00631455
0.00530274
0.00536851
0.00643405
0.00686697
0.00678874
0.00639423
0.00537229
0.00543332
0.00651
0.00694189
0.00685849
0.00646627
0.0054335
0.00548807
0.00657646
0.00700819
0.00692303
0.00653582
0.00548824
0.00553267
0.00663294
0.00706542
0.0069925
0.00660056
0.00553283
0.00556749
0.00667988
0.00711383
0.0070553
0.00665525
0.0055676
0.00559326
0.00671782
0.00715388
0.00710869
0.00670027
0.00559337
0.00561092
0.0067474
0.00718617
0.00715292
0.00673637
0.00561128
0.00562182
0.00676971
0.00721182
0.00718852
0.00676418
0.00562246
0.00562769
0.00678662
0.00723205
0.00721649
0.00678389
0.00562765
0.00562959
0.00679901
0.00724751
0.00723859
0.00679828
0.00562903
0.00562806
0.0068069
0.00725868
0.0072553
0.00680776
0.00562732
0.00562439
0.00681167
0.00726665
0.00726763
0.00681342
0.00562321
0.00561904
0.00681384
0.0072724
0.00727649
0.00681655
0.00561772
0.00561257
0.00681392
0.00727602
0.00728237
0.00681735
0.00561123
0.00560519
0.00681238
0.00727886
0.00728697
0.00681818
0.00560487
0.00559738
0.00680921
0.0072803
0.00728802
0.00681576
0.00559723
0.0055896
0.00680596
0.00728134
0.00728841
0.00681347
0.00559007
0.00558108
0.0068012
0.0072813
0.00728878
0.00681013
0.00558248
0.00557364
0.00679768
0.00728053
0.00728866
0.00680604
0.00557495
0.00556644
0.00679369
0.00727967
0.00728774
0.00680217
0.0055676
0.00555934
0.00678973
0.007278
0.00728473
0.00679552
0.00555897
0.0055516
0.00678487
0.00727429
0.00728355
0.00679073
0.00555187
0.00554503
0.00678108
0.00727377
0.00728243
0.00678601
0.00554174
0.00553039
0.00676376
0.00725659
0.00723387
0.00673033
0.00548814
0.00547567
0.00670091
0.00720161
0.00706144
0.00653047
0.00531471
0.00541751
0.00662738
0.00711615
0.0068128
0.0062645
0.00506881
0.00560006
0.0068486
0.00731213
0.00731306
0.00661554
0.00526425
0.00651442
0.00811406
0.00881437
0.00957253
0.00848878
0.00656235
0.00821654
0.0119294
0.014953
0.0140269
0.018226
0.0155705
0.0146142
0.0139378
0.0137507
0.0136354
0.013663
0.0136703
0.0136938
0.0137059
0.0137617
0.0138655
0.0140319
0.0143987
0.0152851
0.0195593
0.0279125
0.0299398
0.0272958
0.0258392
0.0235992
0.0210856
0.0180541
0.0124468
0.0110073
0.0164813
0.0198892
0.0177868
0.0154406
0.0105509
0.00884039
0.0130529
0.0151422
0.0141314
0.0124136
0.00852611
0.00786258
0.0115851
0.0133683
0.013129
0.01145
0.00774979
0.00762159
0.0112396
0.0129558
0.012972
0.0112387
0.00761559
0.00761345
0.011234
0.0129513
0.012959
0.0112423
0.00762896
0.00763605
0.0112491
0.0129645
0.0129733
0.0112562
0.00764343
0.0076421
0.0112383
0.0129656
0.0129989
0.0112932
0.00766722
0.00767176
0.0112835
0.0129926
0.013001
0.0112911
0.00767991
0.00767782
0.0112713
0.0129801
0.0130411
0.0113149
0.00769552
0.0077135
0.0113243
0.0130216
0.0130305
0.0113118
0.00770834
0.00772588
0.0113206
0.013011
0.0130722
0.0113532
0.00773635
0.00775426
0.0113618
0.0130521
0.0130609
0.0113491
0.00774925
0.00776785
0.0113593
0.0130429
0.0131051
0.0113925
0.0077789
0.00779875
0.0114039
0.0130859
0.0130965
0.0113978
0.00779809
0.00781742
0.0114089
0.0130786
0.0131403
0.0114417
0.007828
0.0078439
0.0114463
0.0131201
0.0131291
0.011432
0.00783846
0.0078596
0.0114455
0.0131111
0.0131745
0.0114825
0.00787312
0.0078905
0.0114895
0.0131553
0.0131629
0.011484
0.00789121
0.0078953
0.0114717
0.0131449
0.0132085
0.0115189
0.00791605
0.00793741
0.011532
0.0131904
0.0132013
0.0115332
0.00794214
0.00794437
0.0115186
0.0131835
0.0132454
0.0115622
0.00796294
0.00798388
0.0115739
0.0132276
0.0132388
0.0115764
0.00798961
0.00799512
0.0115673
0.0132219
0.0132863
0.011613
0.00801472
0.00803247
0.0116203
0.013268
0.0132786
0.0116199
0.00803613
0.00804083
0.0116094
0.0132627
0.0133284
0.0116599
0.00806332
0.00808738
0.0116785
0.0133137
0.0133257
0.0116797
0.00809115
0.00809533
0.0116692
0.0133106
0.0133779
0.011718
0.00811566
0.00813447
0.0117293
0.0133616
0.0133749
0.0117312
0.00813792
0.00813965
0.0117188
0.0133606
0.0134268
0.0117609
0.00815492
0.00817397
0.0117739
0.0134123
0.0134275
0.0117809
0.00817936
0.00818558
0.011779
0.0134181
0.0134884
0.0118272
0.00820215
0.0082154
0.0118344
0.013475
0.0134925
0.0118268
0.00820874
0.00822771
0.0118452
0.0134837
0.0135593
0.0118907
0.0082393
0.00825756
0.0119108
0.0135524
0.0135738
0.0119038
0.00824806
0.00826485
0.0119233
0.0135682
0.0136486
0.0119735
0.00827676
0.00829873
0.0120046
0.0136482
0.013677
0.0120191
0.00830037
0.00830211
0.0120219
0.0136787
0.0137663
0.0120885
0.00832194
0.00834167
0.0121184
0.01377
0.0138052
0.0121392
0.00834611
0.0083489
0.0121442
0.0138132
0.0139078
0.0122082
0.00836824
0.00839649
0.0122487
0.0139213
0.0139689
0.012273
0.00840583
0.00844696
0.0123299
0.0139921
0.0141015
0.0124071
0.00847919
0.00852304
0.0124584
0.0141264
0.0141867
0.0125092
0.00856129
0.00862455
0.0125776
0.0142351
0.0143322
0.0126532
0.00868064
0.00875744
0.0127359
0.0143907
0.0144742
0.0128385
0.00885536
0.00898026
0.0129708
0.0145715
0.0146807
0.0131139
0.00912088
0.00926441
0.0132361
0.0147885
0.0149337
0.0134294
0.00946732
0.00969962
0.0136297
0.0150681
0.0152142
0.0138174
0.00994771
0.0101156
0.0139245
0.0152704
0.0154198
0.0139781
0.010267
0.0105935
0.0142487
0.0155017
0.0155931
0.0143005
0.0106644
0.0109019
0.0144056
0.0156471
0.0157799
0.014579
0.0111264
0.0113694
0.0146782
0.0158849
0.0161407
0.0150502
0.0117633
0.011969
0.0151543
0.0162441
0.0166134
0.0155989
0.0125073
0.012672
0.0156734
0.0166786
0.0167794
0.0162401
0.0135459
0.0131637
0.0150261
0.0146488
0.0436248
0.0321495
0.0187822
0.0122368
0.0204965
0.0288636
0.0191677
0.0170044
0.0119487
0.011083
0.0151012
0.0163902
0.0157816
0.0147301
0.0110928
0.0111879
0.0149648
0.0162989
0.0160342
0.014812
0.0113336
0.0117775
0.0152224
0.0164999
0.0162394
0.0151166
0.0120095
0.0128507
0.0160956
0.0170176
0.0169163
0.0160226
0.0130428
0.0137551
0.016501
0.0172153
0.0149973
0.0153023
0.0136186
0.0191411
0.0315431
0.0422999
0.0297707
0.0214787
0.0135987
0.0136175
0.0180665
0.0200343
0.0179114
0.0165225
0.0131005
0.013134
0.0162281
0.0174111
0.0172391
0.0161967
0.0133918
0.0135898
0.0162862
0.0171701
0.017138
0.0166139
0.0141895
0.0137552
0.0150205
0.0144276
0.0421007
0.0314486
0.0194121
0.0155159
0.022781
0.0296612
0.019935
0.0179572
0.0139154
0.0135874
0.0164678
0.0174134
0.0167702
0.0160871
0.0136986
0.0141763
0.0164748
0.0170728
0.0147672
0.0155115
0.0142046
0.0193548
0.0309874
0.0410069
0.0303441
0.0221949
0.0145869
0.0149564
0.0187144
0.0205268
0.01828
0.0169541
0.0142642
0.0148916
0.0170822
0.0175036
0.0142683
0.0151594
0.014269
0.0197973
0.0309714
0.0408241
0.02989
0.0224242
0.015208
0.0149342
0.018231
0.0196608
0.0172361
0.0167286
0.0145709
0.0144664
0.0153201
0.0144795
0.0390656
0.0298844
0.0193711
0.0153503
0.0223623
0.0298556
0.0200427
0.0185307
0.015362
0.0149865
0.0169764
0.0174635
0.0135445
0.014677
0.0144768
0.0193952
0.028922
0.0366428
0.0275362
0.0221532
0.0164335
0.0147235
0.015712
0.0150099
0.0341537
0.0271003
0.0184128
0.0162542
0.0214682
0.0257763
0.0131715
0.0139875
0.0132828
0.0156173
0.021805
0.0260665
0.0138658
0.0128697
0.0109776
0.0110511
0.0161027
0.0195685
0.00483475
0.00459413
0.00428192
0.00562496
0.00911059
0.011172
0.0138958
0.0120668
0.00869689
0.0142806
0.0170933
0.0186041
0.02242
0.0213188
0.0188512
0.0206949
0.0219324
0.021584
0.0370859
0.0322039
0.0244833
0.0252203
0.0331085
0.0383225
0.0373997
0.0329503
0.0256077
0.0269901
0.0365671
0.0428794
0.0266253
0.0267081
0.0236043
0.0238062
0.0348858
0.0459234
0.0489246
0.0387324
0.0261881
0.0240292
0.031566
0.0367633
0.0453032
0.0371503
0.0263083
0.0220725
0.0253097
0.0257403
0.0429255
0.0337237
0.0240547
0.0262592
0.0388141
0.0489915
0.0248865
0.023995
0.0209266
0.0230288
0.0326717
0.0419548
0.0488311
0.0385438
0.0257152
0.0202968
0.0232352
0.0242909
0.0414611
0.0319175
0.022389
0.0247986
0.0374539
0.048456
0.0248319
0.0249518
0.0211299
0.0229722
0.0325715
0.041298
0.0483874
0.0373554
0.024894
0.0211579
0.0248324
0.0245501
0.0410245
0.0324631
0.0226876
0.0245203
0.0371692
0.0480718
0.0246046
0.0246555
0.0209097
0.0225583
0.0321031
0.0407784
0.0480761
0.0373121
0.0246696
0.0199895
0.0232365
0.0238173
0.0395801
0.030807
0.0216982
0.0242957
0.0368509
0.0474571
0.0211805
0.0213997
0.0191132
0.0201342
0.0253205
0.02799
0.0409432
0.0299234
0.0196195
0.0235045
0.0367954
0.0478456
0.0228411
0.0225172
0.0191762
0.0221631
0.0316077
0.0400552
0.0471912
0.0363586
0.0236758
0.0196119
0.0231988
0.0237455
0.0408335
0.0306256
0.0202492
0.0237349
0.0369558
0.0476379
0.0235682
0.0231376
0.0195156
0.0221614
0.0317339
0.0405156
0.047846
0.0367437
0.0238404
0.019455
0.0232728
0.0239794
0.0405119
0.0319774
0.0224634
0.0239853
0.0368012
0.0478065
0.0236736
0.0230433
0.0194393
0.0208051
0.0311061
0.0409264
0.0478583
0.0371212
0.0240631
0.0197711
0.0235063
0.0242226
0.0415776
0.0310952
0.0206905
0.0243474
0.0373997
0.0481724
0.0243795
0.0236616
0.0200117
0.0205865
0.0317247
0.0431007
0.0477464
0.0370503
0.0238748
0.0215815
0.0294462
0.0350474
0.0444619
0.0361379
0.0245955
0.0206098
0.0242998
0.0252678
0.0417436
0.0324064
0.0225501
0.0248372
0.03763
0.0482871
0.0250374
0.0243286
0.0204426
0.0224021
0.0323529
0.0414185
0.0484998
0.0374886
0.0245847
0.0211543
0.0252066
0.025163
0.0424156
0.0333383
0.0231101
0.0253526
0.0384162
0.0489144
0.0249652
0.0235425
0.0200891
0.022446
0.0323748
0.0423802
0.0492813
0.0385676
0.0255284
0.0210114
0.0245767
0.0255742
0.0450128
0.0333308
0.0219205
0.0249496
0.0381939
0.0491488
0.0372069
0.0314237
0.0229537
0.0251446
0.036741
0.0451482
0.0263165
0.0251228
0.0211561
0.0235463
0.0340279
0.0438172
0.0499855
0.0393394
0.0259892
0.0215907
0.0254086
0.0262519
0.0459946
0.0345784
0.0228927
0.0254836
0.0387327
0.0499726
0.0377023
0.03181
0.0234756
0.02594
0.037603
0.0461977
0.027348
0.0262771
0.0221658
0.0243703
0.0348653
0.0449189
0.0509965
0.0399629
0.026674
0.0225113
0.0264828
0.0270876
0.0470923
0.0353769
0.0235775
0.0260703
0.0393615
0.0505898
0.0387146
0.032687
0.0240517
0.02652
0.038354
0.0468804
0.0276844
0.0266591
0.0226997
0.024892
0.0358042
0.0462184
0.0520854
0.0411958
0.027415
0.0229088
0.0270464
0.0276966
0.0478641
0.0383448
0.0272157
0.0270994
0.0404029
0.0518472
0.0397164
0.0337019
0.0247328
0.0268598
0.0388157
0.0477737
0.0290707
0.028616
0.0240498
0.0253575
0.0375434
0.0493837
0.0524896
0.0410369
0.0273407
0.0255069
0.0344133
0.0406866
0.048887
0.0403584
0.0281781
0.0235199
0.027726
0.0291064
0.0493552
0.038384
0.0268605
0.0279968
0.0414799
0.0528653
0.0412427
0.0348836
0.0258813
0.0286783
0.040826
0.0494852
0.0299461
0.02859
0.0241802
0.0278163
0.0393204
0.0504336
0.0540224
0.0425249
0.0289115
0.0265577
0.035768
0.0422081
0.0501203
0.0409221
0.0286592
0.0254106
0.0300758
0.0305292
0.0516237
0.0397707
0.0267805
0.0287407
0.0429675
0.0546414
0.0430209
0.0362942
0.0268921
0.0295082
0.0420788
0.0510465
0.0310119
0.0296427
0.0250691
0.0295857
0.0417679
0.0524538
0.0550991
0.0438251
0.0301292
0.0279035
0.0381966
0.0452234
0.0507972
0.0416006
0.0293624
0.0274749
0.0371788
0.0436094
0.0508922
0.0420646
0.029648
0.0262967
0.0313103
0.0322492
0.0537442
0.0419595
0.0294063
0.0305171
0.0447807
0.0565511
0.0450455
0.0381301
0.0283288
0.0306821
0.0437424
0.0526223
0.0321827
0.0311108
0.0264069
0.0309998
0.0435325
0.05457
0.0570012
0.0452374
0.031233
0.0287609
0.039401
0.0469686
0.0526374
0.0428998
0.0301838
0.0287215
0.0386148
0.045538
0.053034
0.0439278
0.0313125
0.0274352
0.032494
0.0335326
0.0567524
0.0435568
0.0296528
0.0313904
0.0463738
0.0587669
0.0485354
0.0405365
0.0296471
0.0313261
0.0443302
0.0538844
0.0471078
0.0399598
0.0297663
0.0318356
0.0448327
0.0537909
0.0342088
0.0329022
0.0277893
0.0315228
0.0447435
0.0572328
0.0593378
0.0471562
0.0324087
0.030577
0.0417057
0.0495809
0.0551224
0.045451
0.0321857
0.0306066
0.0409165
0.0479458
0.0552695
0.0461056
0.0328739
0.0290422
0.03427
0.0352504
0.0589609
0.0455043
0.031322
0.0330214
0.0483217
0.0608769
0.0506008
0.04225
0.0308789
0.0327581
0.0461245
0.0559097
0.0491801
0.0415772
0.0309929
0.0337887
0.0470204
0.0563221
0.0358555
0.0346941
0.0296262
0.0313511
0.046461
0.0609587
0.0623658
0.0489561
0.0328747
0.0318054
0.0436019
0.0520781
0.0575518
0.0475623
0.0335524
0.0321075
0.043011
0.0503932
0.0577441
0.0481414
0.034544
0.0302514
0.0354986
0.0366045
0.0621745
0.0471186
0.0319344
0.0337482
0.05004
0.0635567
0.0533825
0.044623
0.0328901
0.0347547
0.0486357
0.0585884
0.0537916
0.0453591
0.0332553
0.0350079
0.0486091
0.058582
0.0523683
0.0445016
0.0331
0.0358052
0.0497739
0.0591841
0.0385951
0.0373706
0.0314483
0.0364933
0.0509111
0.0636251
0.0648523
0.0517251
0.0363878
0.0340619
0.0463452
0.0549233
0.059503
0.0493444
0.0353891
0.0340437
0.0461014
0.0550018
0.0599081
0.0498335
0.0361063
0.0341474
0.0457476
0.0535689
0.0608724
0.0510523
0.0368782
0.0323626
0.0379956
0.0392451
0.0662286
0.0509416
0.0347727
0.0363815
0.0533831
0.06699
0.056723
0.0475744
0.0350984
0.0367965
0.0511873
0.0617638
0.0568557
0.048135
0.0353183
0.0370559
0.0513399
0.0614688
0.0552614
0.0470716
0.0352397
0.0378372
0.0521406
0.0624298
0.0405922
0.0391975
0.0332979
0.0357675
0.0523308
0.0681298
0.0689996
0.0544184
0.0370106
0.0360815
0.0488248
0.0584927
0.063163
0.0524255
0.0378286
0.0366371
0.0496039
0.0588667
0.0633839
0.0528806
0.0383424
0.0362569
0.0481584
0.0567919
0.064289
0.0538578
0.0392131
0.0343155
0.0403376
0.0413859
0.0693631
0.0558121
0.0399634
0.0399199
0.0565997
0.0705247
0.060099
0.0505594
0.0371951
0.038972
0.0542911
0.0652118
0.0608514
0.0512981
0.0379251
0.0395006
0.0541865
0.0647069
0.0612924
0.051337
0.0378429
0.0400315
0.0547754
0.0655404
0.0598097
0.0507709
0.03797
0.0405631
0.0557229
0.0664199
0.0430992
0.0417295
0.0358522
0.0380143
0.0554036
0.0731054
0.0734771
0.0579076
0.0393511
0.0385632
0.0522164
0.0623293
0.0671392
0.0561471
0.040362
0.0391511
0.052732
0.0624618
0.0667202
0.0560033
0.0409191
0.0392916
0.0530068
0.0627868
0.0677524
0.0565626
0.0414075
0.0393037
0.0519776
0.0613595
0.0689989
0.0578616
0.0424299
0.0370562
0.0431692
0.0447459
0.075431
0.0583506
0.0404179
0.0421466
0.0608452
0.0760216
0.064846
0.0549395
0.0408108
0.0423861
0.0584224
0.0699245
0.0649919
0.0551522
0.040949
0.0426231
0.0580821
0.0692609
0.065662
0.0554469
0.041154
0.0431317
0.0587922
0.070035
0.0641066
0.0541869
0.0407672
0.0438179
0.0597227
0.0710293
0.0463597
0.0451119
0.0387137
0.0411071
0.0598317
0.0779857
0.078855
0.0622952
0.0425191
0.0418139
0.0562346
0.0670412
0.0723439
0.0598606
0.0435205
0.0421862
0.0568075
0.0673211
0.0714745
0.0602618
0.0441243
0.0423762
0.0570233
0.0679895
0.0728596
0.061139
0.0446461
0.0423954
0.0561976
0.0657584
0.0739168
0.06252
0.0456043
0.0401102
0.0464953
0.0478381
0.0812626
0.0623833
0.0434155
0.0450049
0.0647923
0.0819207
0.0696256
0.0588176
0.0437503
0.0455199
0.062723
0.0751039
0.0699874
0.0588625
0.0438973
0.0458861
0.062193
0.074329
0.0706528
0.0594983
0.0442057
0.0464188
0.0630231
0.0750316
0.0688446
0.0585303
0.0442057
0.0473378
0.0645251
0.0763979
0.049614
0.0482943
0.0417754
0.0441725
0.0642526
0.0843858
0.0851461
0.0671305
0.0457491
0.0453849
0.0607552
0.0722279
0.0775975
0.0650427
0.0472871
0.0456206
0.0613672
0.0725598
0.0772243
0.0648785
0.0475573
0.0459274
0.061801
0.0733023
0.0778186
0.0655286
0.0482639
0.0463106
0.0620374
0.0734265
0.0787295
0.0662608
0.0489045
0.046161
0.06064
0.0712238
0.080059
0.067468
0.0498693
0.0436507
0.0505405
0.0520475
0.0872582
0.0687291
0.0491175
0.0503423
0.0711522
0.0882919
0.0753605
0.0638128
0.0477717
0.0497186
0.0681338
0.0814801
0.0758294
0.0643301
0.0481407
0.0502868
0.068206
0.0808268
0.076392
0.0646276
0.0485422
0.0508305
0.0685621
0.0819605
0.0741762
0.0632662
0.0481132
0.0514478
0.0697985
0.0828148
0.054414
0.0528014
0.0455768
0.0498774
0.0709581
0.0912335
0.0918917
0.0737279
0.0513782
0.0495075
0.0660311
0.0781751
0.0840009
0.0700313
0.0514241
0.0497607
0.0665398
0.0786239
0.0836877
0.0705515
0.0519818
0.0502503
0.0670056
0.0790236
0.0846951
0.0713357
0.0526493
0.0500396
0.0656408
0.0768073
0.0862433
0.0730567
0.0537476
0.0470373
0.054356
0.0558756
0.0940852
0.074486
0.053672
0.054605
0.0767448
0.0951392
0.0811068
0.0686439
0.0515134
0.0536947
0.0733045
0.0877228
0.0815795
0.0691675
0.0519558
0.054356
0.0733542
0.0873296
0.0821866
0.0695126
0.0521982
0.0548871
0.0740922
0.088289
0.0798986
0.0682268
0.0520844
0.0558903
0.0755755
0.0892714
0.058661
0.057037
0.0493631
0.0545037
0.076834
0.0984885
0.0993544
0.0793695
0.0560805
0.0541072
0.0717108
0.0846421
0.0907706
0.0762021
0.0560923
0.0542012
0.0719364
0.084833
0.0907328
0.0762955
0.0566585
0.0543974
0.0722729
0.0851715
0.0917272
0.0773334
0.0572431
0.0539385
0.0705948
0.0825778
0.0932786
0.0790429
0.0582245
0.0511702
0.0588368
0.0603887
0.101704
0.0796468
0.0566712
0.0583416
0.0825847
0.103138
0.0875128
0.0741001
0.05601
0.0584737
0.0794011
0.0951359
0.0881498
0.0748679
0.0565791
0.0592664
0.0796469
0.0948315
0.0862976
0.0738353
0.056413
0.0598863
0.0813149
0.09641
0.0621853
0.0608003
0.0530724
0.0574513
0.0817528
0.105733
0.1066
0.085547
0.0597102
0.0576978
0.0763211
0.0902783
0.0981354
0.0816916
0.059958
0.0579827
0.0767051
0.0902551
0.0981329
0.0824561
0.0609885
0.0577516
0.0754206
0.0880388
0.099662
0.0843143
0.0622664
0.0544165
0.062472
0.0639458
0.108529
0.0862314
0.0623716
0.06342
0.0889814
0.110433
0.0936324
0.0794328
0.0598813
0.0628278
0.0854461
0.101893
0.0940856
0.0801871
0.0605218
0.0629221
0.0850652
0.101464
0.0919249
0.0785772
0.0601349
0.064389
0.0870897
0.103289
0.0659453
0.06466
0.0564913
0.0611401
0.0869925
0.113124
0.11458
0.0914841
0.0640374
0.0615928
0.0814536
0.0963294
0.104972
0.088141
0.0645692
0.0622693
0.0822044
0.0965486
0.105131
0.0882184
0.0652609
0.061869
0.0806721
0.0941014
0.107069
0.0905891
0.0667924
0.0586655
0.0669722
0.0684083
0.117567
0.0916684
0.0649374
0.0673471
0.0958828
0.119593
0.100181
0.084987
0.064321
0.0672451
0.0913798
0.109654
0.100384
0.0853716
0.064528
0.0675407
0.0914723
0.108924
0.097901
0.0838277
0.0642159
0.0688967
0.0931886
0.110508
0.0705483
0.069004
0.0603769
0.0668247
0.0938655
0.119987
0.123164
0.0982998
0.0692391
0.0663154
0.0870982
0.102528
0.113602
0.0946464
0.06952
0.066053
0.085623
0.0994004
0.114665
0.096791
0.0711073
0.0628774
0.0713954
0.0725518
0.125138
0.0976674
0.0692493
0.0722802
0.102886
0.128028
0.106313
0.0902392
0.0685406
0.0717054
0.097213
0.116778
0.106307
0.0905217
0.0686719
0.0724346
0.0980271
0.116664
0.103452
0.0887702
0.0684037
0.0739352
0.0998574
0.118642
0.0760405
0.0741447
0.0645073
0.072911
0.100859
0.127497
0.130785
0.105236
0.0751617
0.0711028
0.0932253
0.109273
0.121647
0.101591
0.0746002
0.0710899
0.0915506
0.105993
0.122794
0.103595
0.0771571
0.0674874
0.0765215
0.0775223
0.131153
0.10348
0.074434
0.0773455
0.10907
0.135639
0.111931
0.0951936
0.0726266
0.077201
0.104704
0.125565
0.108297
0.0931455
0.0720422
0.0781183
0.105937
0.12581
0.0797391
0.0778821
0.0679522
0.0765877
0.105716
0.133721
0.140204
0.112223
0.0798082
0.073864
0.0951147
0.110515
0.130453
0.109311
0.0801544
0.0698113
0.0789999
0.0799719
0.139004
0.109527
0.0790206
0.082496
0.116008
0.143948
0.119035
0.101865
0.0779525
0.081196
0.11068
0.132746
0.114895
0.0989924
0.0766059
0.0818428
0.111321
0.132594
0.0826847
0.0813444
0.0717032
0.0794152
0.110297
0.140289
0.147657
0.117854
0.0832013
0.0770479
0.0993689
0.115559
0.1375
0.115118
0.0837746
0.072538
0.0820384
0.0831338
0.144151
0.113604
0.0817899
0.0856438
0.121756
0.15226
0.120653
0.103719
0.0804425
0.0871222
0.118831
0.142232
0.0851885
0.0848271
0.0756345
0.0835771
0.116174
0.147551
0.156815
0.125245
0.0881066
0.0811089
0.104506
0.121155
0.144872
0.121063
0.0880557
0.0760759
0.0856995
0.0865389
0.150954
0.118287
0.0848058
0.0893928
0.127465
0.160382
0.125179
0.107623
0.0833025
0.0900489
0.124271
0.148659
0.0885707
0.0880165
0.0781909
0.0881807
0.122229
0.155315
0.167229
0.13406
0.0941804
0.0875282
0.11186
0.128723
0.153981
0.128423
0.0933205
0.0802566
0.090075
0.0907963
0.157746
0.124824
0.0903485
0.0945951
0.133916
0.168286
0.13043
0.112342
0.0871313
0.0944606
0.130006
0.156684
0.0925881
0.0920599
0.0818948
0.0914749
0.126519
0.160601
0.173234
0.138675
0.0973843
0.0896071
0.114348
0.13231
0.163315
0.136216
0.0993689
0.0857456
0.0950538
0.0951634
0.161136
0.128989
0.0947754
0.100879
0.144209
0.180083
0.0949889
0.0943416
0.0845256
0.0954209
0.131665
0.166042
0.180146
0.143447
0.100707
0.0917612
0.117729
0.136065
0.167124
0.139013
0.100844
0.0865368
0.0970738
0.0978057
0.164178
0.130783
0.0961673
0.104908
0.150298
0.187691
0.0965218
0.0969983
0.088095
0.100451
0.13601
0.16976
0.194346
0.15422
0.108054
0.0888076
0.0983251
0.0983462
0.175789
0.139255
0.100813
0.107538
0.15385
0.19421
0.143728
0.124461
0.0974033
0.107738
0.149222
0.179382
0.103213
0.102557
0.0917032
0.102017
0.137582
0.171877
0.20043
0.160245
0.112288
0.0935941
0.102622
0.102312
0.17754
0.142713
0.106058
0.114403
0.163536
0.205575
0.103246
0.103121
0.0933642
0.103677
0.14035
0.175682
0.207711
0.164787
0.114598
0.0938247
0.103479
0.103525
0.177497
0.141677
0.104735
0.116116
0.167423
0.210469
0.105962
0.106035
0.0960844
0.107851
0.144828
0.181079
0.218131
0.173929
0.121275
0.0939678
0.0975532
0.0927156
0.123333
0.115196
0.0980894
0.104679
0.144334
0.185299
0.225029
0.175303
0.118998
0.0958046
0.104663
0.10367
0.182445
0.145724
0.107993
0.123496
0.179767
0.228082
0.0927545
0.097754
0.0957224
0.105727
0.122911
0.130216
0.191703
0.150429
0.109565
0.12362
0.183399
0.236875
0.0934129
0.0978386
0.093989
0.10103
0.118823
0.127647
0.191808
0.147487
0.107079
0.129143
0.191318
0.243389
0.0922508
0.0985846
0.0973789
0.10644
0.123818
0.130095
0.19052
0.148243
0.107562
0.127776
0.190947
0.246741
0.0912139
0.0966039
0.0942264
0.0992142
0.110875
0.114165
0.130646
0.119536
0.101838
0.116833
0.159473
0.197222
0.248856
0.190002
0.125251
0.0909475
0.0941142
0.0891795
0.103979
0.102334
0.0926379
0.0916823
0.100353
0.102643
0.10786
0.105719
0.0937762
0.092653
0.111926
0.120334
0.177208
0.13782
0.0989557
0.123984
0.189628
0.250438
0.0842066
0.089611
0.0875814
0.0868117
0.0961424
0.0967287
0.0918491
0.0882071
0.0776882
0.0764981
0.0876059
0.0900369
0.0868199
0.0834043
0.0707957
0.0662749
0.0796382
0.0837089
0.0806792
0.07609
0.0619377
0.059057
0.0737868
0.0788334
0.0768934
0.0716172
0.0564068
0.0542193
0.0698311
0.0755693
0.074189
0.0681736
0.0522649
0.0506057
0.0667736
0.0731537
0.0721109
0.0654694
0.049102
0.0477294
0.0642472
0.071217
0.0703532
0.0632211
0.0465712
0.0453422
0.0620155
0.0695504
0.0686294
0.0609853
0.0443019
0.0433535
0.0600132
0.0678942
0.0671025
0.059092
0.0424891
0.0417065
0.0582281
0.0664256
0.0656904
0.0574123
0.040997
0.0403559
0.056649
0.0650669
0.0643823
0.0559255
0.0397735
0.039248
0.0552483
0.063805
0.0631643
0.0546065
0.038772
0.0383464
0.0540087
0.0626274
0.0620256
0.0534427
0.0379639
0.0376255
0.0529183
0.0615269
0.0609639
0.0524219
0.0373223
0.0370553
0.0519631
0.060502
0.0599745
0.0515279
0.0368166
0.0366094
0.0511281
0.0595472
0.0590549
0.0507485
0.0364254
0.0362673
0.0504008
0.0586624
0.0582051
0.05007
0.0361279
0.0360103
0.0497675
0.0578463
0.0574213
0.0494763
0.0359056
0.0358183
0.0492105
0.0570931
0.0566977
0.0489529
0.0357403
0.0356771
0.0487191
0.0563981
0.0560316
0.0484919
0.0356212
0.0355778
0.048287
0.0557606
0.0554228
0.0480863
0.0355388
0.035511
0.0479072
0.0551801
0.05487
0.0477309
0.0354862
0.0354708
0.0475746
0.0546545
0.0543712
0.0474232
0.0354626
0.0354553
0.0472847
0.0541812
0.0539213
0.0471506
0.0354552
0.0354538
0.0470279
0.0537545
0.0535172
0.0469087
0.0354581
0.0354596
0.0467996
0.0533709
0.0531522
0.0466931
0.0354664
0.0354697
0.0465964
0.0530245
0.0528252
0.0465018
0.0354771
0.0354797
0.0464161
0.0527152
0.0525317
0.0463317
0.035487
0.0354894
0.0462562
0.0524374
0.0522706
0.0461818
0.0354959
0.035497
0.0461151
0.0521906
0.0520355
0.0460485
0.0355032
0.0355046
0.0459902
0.0519678
0.0518272
0.0459321
0.03551
0.0355096
0.0458811
0.0517717
0.0516407
0.0458291
0.0355138
0.0355133
0.0457842
0.0515939
0.0514744
0.0457387
0.0355165
0.0355146
0.0456992
0.0514367
0.0513243
0.0456584
0.0355171
0.0355154
0.0456237
0.0512935
0.0511904
0.0455879
0.0355173
0.0355145
0.0455571
0.0511668
0.0510689
0.0455242
0.035516
0.0355133
0.0454966
0.0510505
0.0509603
0.0454674
0.0355142
0.0355104
0.0454426
0.0509475
0.0508607
0.0454156
0.0355108
0.0355072
0.0453934
0.0508517
0.0507713
0.0453695
0.0355072
0.0355028
0.0453496
0.0507667
0.0506888
0.0453271
0.0355021
0.0354981
0.0453092
0.050687
0.0506148
0.0452896