/*--------------------------------*- C++ -*----------------------------------*\
| =========                 |                                                 |
| \\      /  F ield         | OpenFOAM: The Open Source CFD Toolbox           |
|  \\    /   O peration     | Version:  v2006                                 |
|   \\  /    A nd           | Website:  www.openfoam.com                      |
|    \\/     M anipulation  |                                                 |
\*---------------------------------------------------------------------------*/
FoamFile
{
    version     2.0;
    format      ascii;
    class       volScalarField;
    location    "0.056";
    object      turbulenceProperties:I;
}
// * * * * * * * * * * * * * * * * * * * * * * * * * * * * * * * * * * * * * //

dimensions      [0 0 0 0 0 0 0];


internalField   nonuniform List<scalar> 
16277
(
0.149978
0.149978
0.149985
0.149988
0.149993
0.149991
0.149992
0.149996
0.150002
0.15001
0.150016
0.150018
0.150018
0.150017
0.150015
0.150013
0.150011
0.150009
0.150008
0.150007
0.150006
0.150005
0.150005
0.150004
0.150004
0.150003
0.150003
0.150003
0.150002
0.150002
0.150002
0.150002
0.150002
0.150002
0.150002
0.150002
0.150002
0.150002
0.150002
0.150001
0.150001
0.150001
0.150001
0.150001
0.150001
0.150001
0.150001
0.150001
0.150001
0.150001
0.150001
0.150001
0.150001
0.150001
0.150001
0.150001
0.150001
0.150001
0.150001
0.150001
0.150001
0.150001
0.150001
0.150001
0.150001
0.150001
0.150001
0.150001
0.15
0.15
0.15
0.15
0.15
0.15
0.149999
0.149999
0.149998
0.149997
0.149996
0.149995
0.149998
0.150005
0.150018
0.150031
0.150035
0.150024
0.150006
0.149987
0.149966
0.149968
0.149981
0.149977
0.149989
0.150008
0.149873
0.149304
0.14506
0.13908
0.145978
0.148746
0.14598
0.139197
0.133277
0.129405
0.135533
0.143821
0.139875
0.129548
0.125376
0.123121
0.127253
0.138208
0.13454
0.122608
0.120471
0.119191
0.121243
0.133289
0.130277
0.117866
0.11744
0.116713
0.117168
0.12941
0.126996
0.114913
0.115549
0.115164
0.114556
0.126377
0.124398
0.112922
0.11435
0.114173
0.11277
0.123969
0.122298
0.111519
0.113571
0.113516
0.111488
0.121994
0.120553
0.110494
0.113058
0.113088
0.110551
0.120351
0.119086
0.109736
0.112727
0.112809
0.10985
0.118957
0.11782
0.109151
0.112502
0.112616
0.109299
0.117745
0.116713
0.108685
0.112351
0.112488
0.10886
0.116682
0.115735
0.108309
0.112253
0.112406
0.108505
0.115741
0.114867
0.108005
0.112193
0.112358
0.108218
0.114904
0.114093
0.107762
0.112162
0.112336
0.10799
0.114157
0.113401
0.10757
0.112155
0.112336
0.107813
0.11349
0.112784
0.107426
0.112167
0.112356
0.107683
0.112898
0.112242
0.107327
0.112198
0.112393
0.107599
0.112381
0.111771
0.107271
0.112246
0.112448
0.10756
0.111934
0.111369
0.10726
0.11231
0.11252
0.107565
0.111555
0.111032
0.107292
0.11239
0.112608
0.107613
0.111242
0.110757
0.107364
0.112487
0.112713
0.107702
0.11099
0.110542
0.107476
0.112599
0.112834
0.107831
0.110797
0.110384
0.107627
0.112728
0.112971
0.107998
0.110661
0.11028
0.107814
0.112871
0.113124
0.108203
0.110579
0.11023
0.108038
0.113031
0.113293
0.108446
0.110552
0.110233
0.108299
0.113206
0.113479
0.108726
0.110578
0.110288
0.108596
0.113397
0.11368
0.109042
0.110657
0.110395
0.108929
0.113603
0.113898
0.109397
0.110788
0.110554
0.109299
0.113826
0.114132
0.109789
0.110973
0.110766
0.109707
0.114064
0.114383
0.110221
0.11121
0.111031
0.110154
0.114319
0.114651
0.110692
0.111502
0.111349
0.11064
0.114589
0.114934
0.111204
0.111848
0.111721
0.111167
0.114875
0.115233
0.111759
0.112249
0.112147
0.111735
0.115175
0.115546
0.112355
0.112704
0.112627
0.112344
0.115487
0.115871
0.11299
0.113212
0.113156
0.112989
0.115808
0.116204
0.113661
0.113768
0.113733
0.113669
0.116135
0.11654
0.114365
0.11437
0.114351
0.114377
0.116462
0.116873
0.115094
0.11501
0.115002
0.115106
0.116781
0.117195
0.115838
0.115678
0.115677
0.115846
0.117083
0.117493
0.116586
0.116362
0.116359
0.116581
0.117356
0.117756
0.117319
0.117045
0.11703
0.117292
0.117584
0.117964
0.118014
0.117702
0.117662
0.117952
0.117748
0.118098
0.11864
0.118304
0.118222
0.118529
0.117825
0.118132
0.11916
0.118814
0.118673
0.118985
0.117788
0.118038
0.119532
0.119192
0.118973
0.119277
0.117619
0.117758
0.119688
0.119393
0.119068
0.119302
0.117292
0.117289
0.119542
0.11935
0.118903
0.119016
0.116784
0.116626
0.119064
0.119023
0.118442
0.118398
0.116129
0.115786
0.118245
0.118388
0.117675
0.117449
0.115301
0.114827
0.11711
0.117456
0.116629
0.1162
0.114282
0.113753
0.115655
0.116222
0.115269
0.114596
0.113077
0.112522
0.113851
0.114677
0.113624
0.11269
0.111785
0.111303
0.111846
0.11293
0.111839
0.11067
0.110575
0.110161
0.109779
0.111082
0.109992
0.108639
0.109473
0.109134
0.107752
0.109212
0.108158
0.106689
0.108506
0.108247
0.105842
0.107385
0.106395
0.104875
0.10769
0.107512
0.104109
0.105656
0.104749
0.103217
0.107034
0.106928
0.102576
0.104078
0.10325
0.101771
0.106532
0.106492
0.101258
0.10266
0.101904
0.100547
0.106178
0.106193
0.10016
0.10142
0.100743
0.0995472
0.105959
0.10602
0.0992794
0.100363
0.0997672
0.0987653
0.105857
0.105953
0.0986082
0.0994844
0.0989694
0.0981815
0.105849
0.105974
0.0981061
0.0987697
0.098328
0.0977583
0.105921
0.106063
0.0977559
0.0981982
0.097823
0.0974804
0.106051
0.106201
0.0975404
0.0977502
0.097434
0.097328
0.106223
0.106372
0.0974347
0.097404
0.0971385
0.0972769
0.106419
0.106558
0.097416
0.0971374
0.0969137
0.0973027
0.106623
0.106749
0.0974606
0.0969288
0.0967356
0.0973822
0.106825
0.106936
0.0975469
0.0967537
0.096585
0.0974939
0.107016
0.107104
0.097656
0.0965996
0.0964416
0.0976212
0.10719
0.107256
0.0977712
0.0964573
0.0963054
0.0977476
0.107344
0.107392
0.0978824
0.0963208
0.0961712
0.0978662
0.107479
0.107514
0.0979838
0.0961869
0.0960289
0.0979667
0.10759
0.107622
0.0980717
0.0960468
0.0958775
0.0980436
0.107673
0.1077
0.0981368
0.0958942
0.0957155
0.0981029
0.107741
0.107762
0.0981838
0.0957275
0.095538
0.0981415
0.107792
0.107811
0.0982133
0.0955465
0.0953413
0.09816
0.107832
0.107854
0.0982255
0.0953467
0.0951306
0.0981649
0.107866
0.107883
0.0982198
0.0951317
0.0949035
0.0981459
0.107881
0.107885
0.09818
0.0948902
0.0946509
0.0981009
0.107882
0.107895
0.0981364
0.09464
0.0943876
0.0980448
0.107883
0.107894
0.0980779
0.0943746
0.0941196
0.0979781
0.107878
0.107873
0.0979952
0.0940911
0.0938145
0.0978756
0.107841
0.107824
0.0978712
0.0937706
0.0934718
0.0977208
0.107782
0.10769
0.0976867
0.0934118
0.0931327
0.0976282
0.10765
0.107446
0.0972686
0.0928931
0.0926487
0.0971465
0.107003
0.106268
0.0955875
0.0919044
0.0928248
0.0958661
0.104147
0.10512
0.093397
0.0905825
0.0953213
0.100924
0.107133
0.112692
0.11635
0.120709
0.123518
0.12577
0.127335
0.12839
0.128918
0.128949
0.128437
0.127319
0.125555
0.122569
0.120265
0.115111
0.110274
0.105088
0.100381
0.0990739
0.102298
0.115995
0.131204
0.133487
0.11754
0.103124
0.103839
0.119184
0.135542
0.136417
0.120307
0.104536
0.105217
0.120919
0.137086
0.13741
0.121282
0.105477
0.105803
0.121506
0.137698
0.137755
0.121704
0.10591
0.105982
0.121777
0.137794
0.137804
0.121789
0.106097
0.106125
0.121807
0.137781
0.137759
0.121805
0.106214
0.106228
0.121801
0.137735
0.137719
0.121823
0.106324
0.106351
0.1218
0.137686
0.137637
0.121817
0.106444
0.10645
0.121783
0.137601
0.137587
0.121813
0.106538
0.106555
0.121776
0.137538
0.137502
0.12179
0.106652
0.106668
0.121772
0.137459
0.137427
0.121774
0.106769
0.106783
0.121767
0.137384
0.13734
0.12176
0.10688
0.106895
0.121755
0.137299
0.137255
0.121742
0.106998
0.107016
0.121752
0.137217
0.137166
0.121745
0.107133
0.10716
0.121741
0.137113
0.13707
0.121726
0.107266
0.107282
0.121731
0.137035
0.137
0.121733
0.107383
0.107399
0.121729
0.136954
0.136909
0.121725
0.107529
0.107548
0.121728
0.136862
0.136821
0.121722
0.107653
0.107672
0.121736
0.136797
0.136746
0.121745
0.107791
0.107813
0.121723
0.136693
0.136649
0.121741
0.107943
0.107963
0.121735
0.1366
0.136571
0.121763
0.10808
0.108103
0.121748
0.136532
0.136484
0.121772
0.108233
0.108259
0.121765
0.136431
0.136397
0.1218
0.10839
0.108401
0.121777
0.136347
0.136319
0.121813
0.108521
0.108541
0.121816
0.136279
0.136242
0.121859
0.108673
0.108696
0.121843
0.136187
0.136144
0.12188
0.108832
0.108846
0.121879
0.136108
0.136072
0.121915
0.108961
0.108967
0.121896
0.136022
0.136006
0.121949
0.109085
0.109083
0.121938
0.135965
0.135942
0.121979
0.109168
0.109149
0.121964
0.135914
0.135891
0.122012
0.10925
0.109237
0.121987
0.135841
0.1358
0.122
0.109299
0.109249
0.12196
0.135769
0.135764
0.121987
0.109279
0.109223
0.121945
0.135721
0.135686
0.121914
0.109236
0.109156
0.121858
0.135636
0.135596
0.121795
0.109118
0.109002
0.121725
0.135567
0.135515
0.121606
0.108916
0.108773
0.121475
0.135451
0.13537
0.121294
0.108631
0.108436
0.12109
0.135306
0.135224
0.120849
0.108233
0.107968
0.120553
0.135126
0.135013
0.120206
0.107715
0.107343
0.119814
0.13489
0.134755
0.119353
0.107003
0.106527
0.118802
0.134597
0.1344
0.118214
0.106154
0.105616
0.117505
0.134159
0.133882
0.116717
0.105176
0.104521
0.115836
0.133594
0.133288
0.114897
0.103999
0.103252
0.113808
0.132902
0.132497
0.112694
0.102665
0.101858
0.1114
0.132043
0.131557
0.110109
0.101232
0.100423
0.108582
0.130967
0.13033
0.107075
0.0997829
0.0989268
0.105347
0.129657
0.12902
0.10367
0.0981942
0.0973565
0.101653
0.128087
0.126805
0.0997537
0.0965738
0.0957986
0.0981846
0.125396
0.124074
0.0961891
0.0951456
0.094583
0.0943725
0.122908
0.121709
0.0932714
0.0945549
0.094266
0.0923376
0.120612
0.119612
0.0909034
0.0945416
0.0945596
0.0901589
0.118507
0.117265
0.0895771
0.0952442
0.0956028
0.0893375
0.116081
0.115207
0.0897479
0.0968884
0.0974997
0.0897961
0.114326
0.113505
0.0910414
0.0992101
0.100346
0.0925186
0.112456
0.112522
0.0959355
0.103288
0.104964
0.0986803
0.113686
0.133851
0.0902255
0.0856896
0.0974926
0.094932
0.12619
0.125692
0.0915455
0.0965704
0.0973477
0.0905351
0.125378
0.124214
0.0892791
0.0968119
0.0981848
0.0890637
0.122854
0.120975
0.0883883
0.0981915
0.100839
0.0891238
0.118897
0.116978
0.0891717
0.101312
0.104602
0.0919023
0.115561
0.114707
0.0931818
0.10569
0.111104
0.0983408
0.114665
0.115264
0.101442
0.114
0.0883859
0.0878651
0.129875
0.121334
0.0946238
0.106522
0.107011
0.0938218
0.119455
0.117583
0.0966599
0.112505
0.114111
0.0972525
0.116029
0.114934
0.100604
0.118896
0.121118
0.102359
0.114308
0.1161
0.108247
0.126406
0.12838
0.112537
0.118502
0.127034
0.0943813
0.096882
0.119953
0.10106
0.121662
0.119896
0.100748
0.121367
0.127871
0.105635
0.119573
0.11883
0.107307
0.129728
0.138077
0.11575
0.120018
0.123647
0.122346
0.141651
0.107549
0.0982508
0.130196
0.122917
0.111561
0.137161
0.140693
0.114246
0.121753
0.122812
0.125005
0.152609
0.157707
0.131332
0.125143
0.131829
0.142265
0.163945
0.126032
0.109347
0.131877
0.127941
0.129446
0.161709
0.165826
0.133229
0.128741
0.134448
0.152274
0.182296
0.189796
0.163159
0.141132
0.137199
0.124259
0.152324
0.196197
0.158083
0.137459
0.141308
0.166939
0.206097
0.230006
0.195695
0.153806
0.161908
0.208583
0.240954
0.209798
0.166617
0.151507
0.170742
0.228582
0.267405
0.287949
0.249936
0.18491
0.171873
0.207666
0.266169
0.345833
0.302381
0.212859
0.245358
0.354007
0.398752
0.438172
0.347689
0.23762
0.414279
0.610613
0.648602
0.918172
0.847439
0.510801
1
1
1
0.825113
0.797063
0.508919
0.275504
0.424599
0.47176
0.342333
0.308901
0.213228
0.211392
0.276985
0.289234
0.239445
0.199204
0.171729
0.177704
0.216378
0.232986
0.192673
0.164799
0.149154
0.149742
0.177832
0.198225
0.187006
0.162774
0.141434
0.135368
0.121819
0.146897
0.165878
0.148785
0.136616
0.129182
0.123585
0.138445
0.155722
0.136568
0.127407
0.122756
0.127842
0.148812
0.11659
0.105459
0.122132
0.120608
0.119937
0.139501
0.132949
0.114447
0.11893
0.120829
0.0982226
0.104305
0.127662
0.109739
0.11668
0.116258
0.106159
0.12136
0.0967703
0.0945162
0.120414
0.114278
0.10336
0.11894
0.113998
0.0994131
0.111609
0.117492
0.090148
0.0922056
0.111859
0.0975199
0.110486
0.109247
0.0938
0.106908
0.087154
0.0866379
0.116288
0.108564
0.0931927
0.105576
0.100644
0.0898541
0.108006
0.115224
0.0840049
0.083205
0.100161
0.0890423
0.106175
0.107609
0.0863618
0.0952546
0.0797335
0.0819743
0.11519
0.104645
0.0869851
0.0965959
0.0895963
0.0832274
0.105218
0.10847
0.0804407
0.084071
0.0742586
0.0767346
0.121251
0.10481
0.0785503
0.0847625
0.0816182
0.0770776
0.10788
0.11719
0.0769694
0.0714066
0.0809124
0.0750477
0.102498
0.106174
0.0746574
0.0777806
0.0691571
0.0734054
0.118148
0.10093
0.0720631
0.0762422
0.0741254
0.0721725
0.104841
0.115564
0.0734901
0.0668308
0.0739749
0.0704851
0.100746
0.10521
0.0709235
0.0717318
0.0653272
0.0728645
0.114825
0.0992316
0.0679636
0.070615
0.0688282
0.0686258
0.103693
0.116539
0.0706258
0.0638407
0.0684457
0.0667511
0.0984129
0.103006
0.0674273
0.0667819
0.0626727
0.070148
0.116271
0.0979477
0.064788
0.0655128
0.0641811
0.0653774
0.102955
0.118184
0.0692
0.0608315
0.0633657
0.0644093
0.0995993
0.108801
0.0670136
0.0592527
0.0653689
0.0630445
0.0932236
0.0977357
0.0635003
0.0630654
0.0599457
0.0686633
0.108749
0.0937953
0.0631377
0.0636676
0.0623765
0.0632934
0.0985294
0.109502
0.0685847
0.0595465
0.0630636
0.0627668
0.0935477
0.0970493
0.062193
0.0617739
0.059377
0.0690705
0.108009
0.0934662
0.0611934
0.060443
0.0583983
0.0608622
0.100305
0.112371
0.0702997
0.0574669
0.0585925
0.0605242
0.0946752
0.0995753
0.0599464
0.0565154
0.0566536
0.0690813
0.113461
0.0955886
0.0575178
0.0566308
0.05498
0.0652416
0.105735
0.0917199
0.0577452
0.0567809
0.0544483
0.0574896
0.0971559
0.107789
0.0680768
0.0546345
0.0550747
0.0571343
0.0919696
0.0972004
0.0567279
0.052421
0.0539933
0.0685132
0.110592
0.0934742
0.0542173
0.0525943
0.0519429
0.0635831
0.104251
0.0893841
0.0548357
0.0530984
0.0508243
0.0547777
0.0941812
0.104972
0.0667523
0.0519894
0.0524335
0.0548971
0.0900161
0.0954223
0.0550048
0.0502062
0.0523561
0.0676372
0.108992
0.0924522
0.0520805
0.0501215
0.0500929
0.0626059
0.103626
0.0886719
0.0529895
0.0509978
0.0485197
0.0531185
0.0937352
0.104659
0.066234
0.0501353
0.0497076
0.0527251
0.0896546
0.095693
0.0528856
0.0476001
0.0504046
0.0698666
0.105837
0.0922786
0.0496546
0.0473998
0.0480241
0.0616472
0.103522
0.0875959
0.0503989
0.0480486
0.0464706
0.0513616
0.0922963
0.104939
0.0662077
0.0494939
0.046384
0.0487707
0.0893249
0.100971
0.0605661
0.0469902
0.0469597
0.0491825
0.0857706
0.0924671
0.0498907
0.0447707
0.0481469
0.0673658
0.104258
0.0898516
0.0485341
0.0455331
0.0463732
0.0603975
0.100323
0.0844208
0.0483858
0.0460925
0.0440532
0.0494121
0.0909761
0.10266
0.0671301
0.0474015
0.0447967
0.0474494
0.0882675
0.0995853
0.0599414
0.0457696
0.0455126
0.047878
0.0846009
0.0900351
0.0493645
0.0441866
0.0479946
0.0655379
0.102863
0.0878302
0.0473782
0.0446077
0.0454537
0.0595322
0.0986664
0.0842626
0.0472327
0.0448579
0.0428037
0.0481753
0.0910364
0.101613
0.0678545
0.0467063
0.0437129
0.0458611
0.0888796
0.10018
0.0615513
0.0458884
0.0433328
0.0447337
0.0853187
0.0955412
0.0582822
0.0445784
0.0442993
0.0465149
0.0821233
0.0874745
0.0478702
0.0426984
0.0463665
0.064864
0.0988376
0.0852066
0.0457915
0.0430565
0.0442774
0.0586904
0.0965541
0.0826443
0.0459873
0.043564
0.0418806
0.0475003
0.0894401
0.0997607
0.0672253
0.0460144
0.0427395
0.0451654
0.0880836
0.0995168
0.0608363
0.045162
0.0423345
0.0438427
0.0853139
0.094519
0.0572368
0.0434914
0.0427973
0.0450974
0.0804112
0.0859578
0.0464638
0.041276
0.0455337
0.0633674
0.0986161
0.0846228
0.0447844
0.0419537
0.0443888
0.0594211
0.0965468
0.0828119
0.042681
0.0416053
0.0431196
0.0569828
0.0924702
0.0799882
0.0447693
0.0424734
0.0411231
0.0467091
0.0863379
0.097141
0.064785
0.0451853
0.0417944
0.0444727
0.084392
0.095751
0.0591009
0.0441818
0.0411992
0.042421
0.0819217
0.0914171
0.0564916
0.0426547
0.0417963
0.0440989
0.0784532
0.0839496
0.0457983
0.0404697
0.0447824
0.0627441
0.0959301
0.0829185
0.0441824
0.0412619
0.0438839
0.0588433
0.0945343
0.0818663
0.0424358
0.0409731
0.0426038
0.0565708
0.0910528
0.0781826
0.0439131
0.041516
0.0401548
0.0457441
0.08387
0.0971627
0.0617797
0.044702
0.0409084
0.0438599
0.0834217
0.0952327
0.0585026
0.0436173
0.0403841
0.0414048
0.0816219
0.0911046
0.0562697
0.042242
0.0408882
0.0433793
0.0780346
0.0836991
0.0452247
0.0395983
0.0443901
0.0617938
0.0969455
0.0828127
0.0438649
0.0405793
0.0433387
0.0586356
0.0942097
0.0802552
0.0410772
0.0399106
0.0423933
0.0560329
0.0901347
0.0780197
0.0407133
0.0394797
0.0414983
0.0552967
0.0873586
0.0754422
0.0425355
0.0400839
0.0390545
0.0445392
0.0813424
0.0914925
0.0633285
0.043565
0.0401705
0.0430111
0.0817884
0.0931517
0.0575791
0.0429054
0.039592
0.0410175
0.080596
0.0903366
0.0561077
0.0421592
0.0391183
0.0406158
0.077526
0.0864844
0.0550719
0.0411468
0.0395906
0.0420811
0.0746378
0.0801657
0.0438312
0.038379
0.0431799
0.0600851
0.0927636
0.079852
0.0423984
0.0393627
0.0422842
0.0570367
0.0914233
0.0786537
0.0402197
0.0389274
0.0415248
0.0549408
0.0881288
0.076262
0.0398688
0.0385796
0.0407935
0.0546296
0.0852635
0.0741259
0.0419075
0.0391602
0.0381175
0.0437772
0.0794269
0.0918096
0.0596581
0.0430769
0.0389781
0.0423086
0.0790618
0.0906934
0.05661
0.0420489
0.0385313
0.03975
0.0781158
0.0878353
0.0548546
0.0412743
0.0381916
0.0396642
0.0760223
0.0850671
0.0542471
0.0404337
0.0384906
0.0412829
0.0734129
0.0791957
0.0432324
0.0375814
0.0425888
0.0618845
0.0885131
0.0795099
0.0416768
0.0387816
0.0417617
0.0558856
0.0900402
0.0771989
0.0391951
0.0381066
0.04099
0.0544857
0.0867232
0.0752856
0.0393093
0.0377104
0.0404151
0.0535753
0.0847338
0.0737634
0.0391212
0.0374692
0.0398137
0.0530918
0.0824432
0.0719089
0.0408714
0.0379027
0.037035
0.042934
0.0773739
0.0906505
0.0581875
0.0423875
0.0378219
0.0414484
0.0773352
0.0890109
0.0557376
0.0414492
0.0376151
0.0389846
0.0767369
0.0860265
0.0539298
0.0405733
0.0372055
0.0386245
0.0743609
0.083515
0.0530001
0.0399459
0.0369322
0.0387466
0.0728907
0.081353
0.0525687
0.0391871
0.0372536
0.0401223
0.0704833
0.0756806
0.0418627
0.0363698
0.0416481
0.0576924
0.0872251
0.0750932
0.0403761
0.0373772
0.0409112
0.0548075
0.0859731
0.0741777
0.038642
0.0371316
0.0400657
0.0528985
0.0835499
0.072621
0.0381894
0.0367775
0.0396376
0.0523488
0.0816134
0.0713221
0.0385202
0.0366676
0.038957
0.0517439
0.0795913
0.0694979
0.0397965
0.0369139
0.0361425
0.0418104
0.0745939
0.0869408
0.0565783
0.0414453
0.0368227
0.040292
0.0748439
0.0857489
0.0541856
0.0405101
0.0365529
0.0380784
0.074422
0.0835672
0.0523538
0.0397574
0.0361757
0.0374816
0.0724525
0.0812428
0.0516266
0.0391542
0.0359793
0.0377135
0.0708259
0.0787829
0.0513921
0.0384803
0.0363015
0.0392146
0.0683489
0.0735033
0.041155
0.0355582
0.0408867
0.0563362
0.0849433
0.073476
0.0395462
0.0363427
0.0400659
0.0534083
0.0838912
0.072555
0.0375458
0.0360036
0.0391637
0.0514462
0.0814737
0.0707981
0.037041
0.0356752
0.0387264
0.0507565
0.0793546
0.0694654
0.0372846
0.0355024
0.0380892
0.0506179
0.0774695
0.0675323
0.0387691
0.0357458
0.035107
0.040928
0.0728487
0.0855354
0.0551994
0.0406835
0.0356599
0.0393061
0.0728268
0.0835345
0.0532465
0.0398406
0.0353558
0.0371392
0.0721911
0.0809308
0.0511215
0.0388151
0.0349839
0.0365028
0.0703993
0.0789956
0.0502808
0.0382702
0.0348573
0.0365407
0.0690363
0.0773376
0.0500307
0.0380122
0.0347547
0.0367702
0.0675879
0.0753042
0.0495421
0.0372523
0.0349779
0.0378731
0.0653868
0.0707387
0.0397371
0.034371
0.0396463
0.0555992
0.0803885
0.0706023
0.0384193
0.0352669
0.0388529
0.0514567
0.0801469
0.0692511
0.0362641
0.0347563
0.0380542
0.0498108
0.0775301
0.0675225
0.0361329
0.0345469
0.0376693
0.0493036
0.075513
0.0661664
0.0364599
0.0344766
0.0370942
0.0486957
0.0736799
0.0644105
0.0374574
0.0345918
0.0340421
0.0394979
0.0697382
0.0802008
0.054228
0.03954
0.0348239
0.0380983
0.0695981
0.0792766
0.0512224
0.0387305
0.0343324
0.036196
0.0689773
0.0772258
0.0494694
0.0377919
0.0339414
0.0356196
0.067297
0.0750621
0.0486708
0.0372547
0.0337083
0.0356535
0.0656434
0.0732347
0.0481982
0.0365172
0.0337821
0.0367927
0.0636017
0.0691107
0.0386861
0.0332531
0.0388031
0.0546733
0.0781496
0.0686694
0.0376864
0.0341997
0.0379772
0.0502929
0.0778222
0.0673247
0.0354218
0.0336328
0.0371392
0.0486181
0.0751632
0.0655119
0.0351303
0.033302
0.0365921
0.0478606
0.0733215
0.0641703
0.0351751
0.0331525
0.0359826
0.0474167
0.0717586
0.0625271
0.0362117
0.0332242
0.0327165
0.0383135
0.0678035
0.0775325
0.0531025
0.0383923
0.0336111
0.0370803
0.0674277
0.0766263
0.0498058
0.0376393
0.033128
0.0351642
0.0664639
0.0745697
0.0482969
0.0368061
0.03282
0.0348315
0.0649407
0.0728162
0.0475455
0.0363341
0.0326105
0.0347478
0.0635491
0.0712915
0.0470859
0.0356139
0.0326691
0.0357534
0.0620926
0.0673086
0.0376839
0.0321465
0.0378327
0.0525478
0.0763364
0.0665641
0.0366416
0.0331079
0.0370512
0.0490341
0.0750904
0.0648866
0.0346649
0.0326341
0.0361791
0.0472755
0.0727738
0.0630206
0.0342084
0.0322627
0.0354759
0.0467241
0.0708806
0.0621642
0.0355524
0.0322487
0.0318584
0.0377812
0.067607
0.0779715
0.0521693
0.038137
0.0328091
0.0363803
0.0670063
0.0755867
0.0491436
0.0371046
0.0323071
0.0345166
0.0654744
0.0735927
0.0475586
0.0361599
0.031851
0.034067
0.0634675
0.0711631
0.0467588
0.0352589
0.0317007
0.0350797
0.0617193
0.0672459
0.0370216
0.0312478
0.0373488
0.0532838
0.0749451
0.066051
0.036272
0.0323633
0.0363512
0.0482378
0.0746516
0.0638036
0.0334681
0.0315959
0.0354854
0.0465922
0.0719032
0.0627198
0.0335739
0.0313756
0.0350246
0.046494
0.0707237
0.061548
0.0349508
0.0312967
0.0309964
0.0372695
0.0669811
0.0773186
0.0513276
0.0375872
0.0318595
0.0355683
0.0657417
0.0744275
0.0484199
0.0363999
0.0314379
0.0337412
0.0641332
0.0722519
0.0467698
0.0354429
0.0309334
0.0333576
0.0623945
0.0701654
0.0459658
0.0344704
0.0307352
0.0341995
0.0609038
0.0662377
0.036174
0.0302751
0.0367048
0.0507448
0.0749756
0.0643697
0.0349386
0.0313444
0.0357945
0.0477827
0.0732073
0.0632308
0.0334238
0.0310284
0.0350534
0.0462131
0.0713786
0.0619631
0.0330622
0.0307731
0.0344914
0.0458638
0.0698629
0.0608765
0.0343538
0.030667
0.0303697
0.0365762
0.066365
0.0750993
0.0514689
0.0371333
0.0314796
0.0354899
0.0645243
0.0729998
0.0477428
0.0359111
0.0308257
0.0333977
0.0626727
0.0706342
0.0460534
0.0346213
0.0303197
0.0339507
0.0609643
0.0659678
0.0355174
0.0298624
0.0367147
0.0508529
0.0752366
0.0642039
0.0348152
0.0310452
0.03569
0.0476116
0.0726502
0.0627934
0.03327
0.0306684
0.0348526
0.0461328
0.0710974
0.0615665
0.032798
0.0303635
0.0341415
0.0455933
0.0693349
0.0601804
0.0338685
0.0301318
0.0299014
0.0360224
0.065476
0.0735814
0.0516061
0.0367268
0.031115
0.0353837
0.0637005
0.0720725
0.0474308
0.0356372
0.0305005
0.0330972
0.0620143
0.0697223
0.0456933
0.0342983
0.0299393
0.0335524
0.0596734
0.06483
0.0354448
0.0296114
0.0365568
0.0512022
0.0738154
0.0641259
0.035091
0.0309262
0.0356346
0.0475812
0.072619
0.0625364
0.0332719
0.0304809
0.034481
0.0460394
0.070349
0.0608871
0.0338816
0.0300596
0.0298501
0.0360073
0.0660769
0.0742445
0.0518073
0.0368635
0.0309632
0.0355
0.0637655
0.0720572
0.0477773
0.0354932
0.0302165
0.0341144
0.0617464
0.066826
0.0358343
0.0298124
0.0367747
0.0514966
0.0748996
0.0635502
0.0346901
0.0307082
0.0357112
0.0476928
0.0724045
0.0626328
0.0332918
0.0302072
0.0345921
0.0463503
0.0707648
0.0613185
0.033906
0.0297912
0.0296265
0.0361961
0.0666692
0.0751122
0.0517598
0.0369771
0.0307154
0.0352742
0.0643793
0.0727083
0.047691
0.0353937
0.029763
0.0337831
0.0621693
0.0672753
0.0355074
0.0294399
0.0367786
0.0517583
0.0755708
0.0643662
0.0348518
0.0304021
0.0351083
0.0473873
0.072451
0.0613602
0.0335505
0.029367
0.0291652
0.0356742
0.0669331
0.0760805
0.0525119
0.0370658
0.030526
0.0351592
0.0651914
0.0736891
0.0482729
0.0355942
0.0294998
0.0338025
0.0627614
0.0679378
0.0357167
0.0292329
0.0369536
0.052008
0.0765094
0.0649836
0.0347927
0.0302621
0.0352789
0.0477694
0.0732049
0.0623449
0.033602
0.029229
0.0289205
0.0353704
0.0674648
0.0757966
0.0518435
0.0365832
0.0297419
0.0338858
0.062877
0.0717431
0.0472348
0.0348935
0.0287723
0.0332073
0.0617305
0.0673497
0.0351933
0.0286852
0.0365737
0.0522885
0.0754958
0.0647962
0.0347739
0.0298937
0.0350326
0.0476849
0.0732118
0.0623804
0.033293
0.0289307
0.0286697
0.0351806
0.0673398
0.0755677
0.0516586
0.0364196
0.0296524
0.0343532
0.0639669
0.0719146
0.0470094
0.034536
0.0283762
0.0326945
0.0603518
0.0643124
0.0334444
0.0278831
0.0352587
0.0505334
0.0730167
0.0629344
0.0343012
0.0288087
0.0286745
0.0357389
0.0684851
0.0765792
0.0529783
0.0369275
0.0298489
0.0348618
0.0653737
0.0735254
0.0477549
0.0350926
0.0285503
0.0329039
0.0622814
0.0668199
0.0346208
0.0282571
0.0356722
0.0512357
0.0745367
0.0630841
0.0345605
0.0288237
0.0282309
0.0345736
0.0673102
0.0750171
0.0516187
0.0358318
0.0285847
0.0345294
0.0637126
0.0694761
0.0354485
0.0283629
0.0369656
0.0532897
0.0780558
0.0659593
0.034648
0.0295703
0.0349672
0.0478734
0.073876
0.0621357
0.0326643
0.0281941
0.0279136
0.0342775
0.0664713
0.0738692
0.0508834
0.0352956
0.0283241
0.0340762
0.0620758
0.0658054
0.0337901
0.0276906
0.0350511
0.0502783
0.0733985
0.0622604
0.0336358
0.0279582
0.0277908
0.0347412
0.0676906
0.0764147
0.0519411
0.0358228
0.02847
0.0344875
0.0642323
0.0687174
0.0351227
0.0281368
0.0359267
0.0518037
0.0763908
0.0637314
0.0341562
0.0283081
0.0277782
0.0345631
0.067737
0.074669
0.0505483
0.035161
0.0275323
0.0330409
0.0617401
0.0661195
0.0359684
0.0276664
0.0278499
0.0379115
0.0723592
0.0818131
0.0542927
0.0373124
0.028527
0.0351242
0.0674619
0.0717115
0.0352742
0.0280267
0.0359218
0.0526695
0.0785327
0.0642003
0.0335513
0.0274995
0.0268786
0.0343283
0.0664546
0.0708335
0.03593
0.0266669
0.036167
0.0538501
0.0803958
0.0669627
0.0341166
0.0274227
0.0276119
0.0366399
0.0710753
0.07614
0.0384306
0.0276365
0.0372151
0.053896
0.0848723
0.0663915
0.0336525
0.0273592
0.0267167
0.034744
0.0682744
0.0729692
0.0363005
0.0264618
0.0359442
0.0535769
0.0831535
0.0681232
0.0337872
0.0267921
0.0262601
0.0332937
0.0715297
0.0761327
0.0396411
0.0269378
0.0260883
0.0346689
0.0789824
0.0825136
0.0573537
0.036415
0.026531
0.0344617
0.0683045
0.0743948
0.0348916
0.0262572
0.0263415
0.0385035
0.079907
0.0824252
0.0360742
0.0254165
0.0259678
0.0405502
0.0853104
0.0895108
0.0398641
0.0252488
0.0364554
0.0607328
0.0956049
0.0716401
0.0344454
0.0258301
0.0252684
0.0339012
0.0749857
0.0805911
0.0378403
0.0253004
0.0252582
0.0383028
0.086234
0.0914607
0.0396792
0.0255194
0.0260369
0.0423868
0.0960353
0.100971
0.0447518
0.0266114
0.0271958
0.0470241
0.104862
0.106874
0.0493916
0.0277716
0.02829
0.0514115
0.108023
0.108705
0.05366
0.0289001
0.0294892
0.0558992
0.109089
0.109253
0.0584589
0.0302925
0.0309961
0.0609451
0.109327
0.109346
0.063379
0.0319874
0.0328201
0.0657623
0.109327
0.109297
0.06811
0.0339666
0.0349462
0.0704095
0.109257
0.109231
0.0726474
0.0362351
0.037468
0.0746914
0.109212
0.109212
0.0766634
0.0389821
0.0403741
0.0784638
0.109222
0.109253
0.0802224
0.0419885
0.043377
0.0819019
0.109299
0.109371
0.0835381
0.0449875
0.0463785
0.0850911
0.109458
0.109565
0.0865958
0.0479912
0.0493906
0.0880076
0.109677
0.109802
0.0893625
0.0510052
0.0524065
0.0906176
0.109926
0.110062
0.0918143
0.0540081
0.0553996
0.0929094
0.110193
0.11033
0.0939464
0.0569867
0.058363
0.0948836
0.110457
0.110584
0.0957606
0.0599389
0.061275
0.0965534
0.110699
0.110811
0.0972963
0.0627804
0.0640429
0.0979574
0.110909
0.111004
0.0985749
0.0654573
0.0666288
0.0991158
0.111085
0.111161
0.0996202
0.0679409
0.0690111
0.100058
0.111223
0.111278
0.100456
0.0702144
0.0711766
0.100812
0.111318
0.111356
0.101137
0.0722678
0.0731198
0.101397
0.111377
0.111394
0.101658
0.0740944
0.074838
0.101842
0.111399
0.111399
0.102039
0.0757018
0.0763454
0.102164
0.111391
0.111376
0.102301
0.0771054
0.0776555
0.102376
0.111356
0.11133
0.102464
0.0783162
0.0787795
0.102498
0.111304
0.111268
0.102543
0.0793449
0.0797271
0.102544
0.111235
0.111192
0.102554
0.0802065
0.080521
0.10253
0.111154
0.111103
0.102511
0.080921
0.081179
0.102468
0.11106
0.111006
0.102426
0.0815081
0.0817212
0.102369
0.110961
0.110902
0.102308
0.081985
0.0821602
0.10224
0.110854
0.110795
0.102166
0.082369
0.0825126
0.10209
0.110747
0.110688
0.102006
0.0826683
0.0827865
0.101923
0.11064
0.110582
0.101835
0.0829065
0.0829966
0.101746
0.110534
0.110478
0.101656
0.0830945
0.0831568
0.101563
0.11043
0.110376
0.101476
0.0832329
0.0832641
0.101383
0.11033
0.110277
0.101295
0.0833223
0.0833301
0.101201
0.110233
0.110182
0.101113
0.0833755
0.0833672
0.101021
0.11014
0.11009
0.100932
0.0834019
0.0833822
0.100842
0.110049
0.110001
0.100755
0.0834098
0.0833849
0.10067
0.109964
0.109918
0.100582
0.0834045
0.0833773
0.100502
0.109881
0.109837
0.100416
0.083392
0.0833683
0.100342
0.109804
0.109762
0.100258
0.0833777
0.0833556
0.100189
0.10973
0.10969
0.100109
0.0833648
0.0833454
0.100047
0.109662
0.109624
0.0999719
0.0833539
0.0833371
0.0999148
0.109598
0.109562
0.0998452
0.0833464
0.0833345
0.0997942
0.109539
0.109506
0.0997308
0.0833457
0.0833375
0.0996854
0.109486
0.109454
0.099627
0.0833502
0.0833469
0.0995871
0.109436
0.109406
0.0995342
0.083362
0.0833628
0.0994994
0.109391
0.109363
0.0994515
0.0833798
0.0833858
0.0994221
0.109349
0.109324
0.0993793
0.0834054
0.0834158
0.0993548
0.109311
0.109289
0.0993165
0.0834377
0.0834527
0.0992964
0.109277
0.109258
0.0992627
0.0834777
0.0834951
0.099246
0.109246
0.109229
0.0992156
0.0835215
0.0835436
0.0992021
0.109217
0.109203
0.0991757
0.0835711
0.0835963
0.099164
0.109191
0.109179
0.0991415
0.0836244
0.0836528
0.0991311
0.109168
0.109157
0.0991126
0.0836814
0.0837118
0.099103
0.109147
0.109136
0.0990878
0.0837407
0.0837733
0.099079
0.109127
0.109117
0.099067
0.0838024
0.0838361
0.0990588
0.10911
0.109099
0.0990501
0.0838649
0.0839001
0.0990428
0.109094
0.109083
0.0990355
0.0839285
0.0839642
0.099029
0.109078
0.109068
0.0990217
0.0839917
0.0840279
0.0990172
0.109064
0.109054
0.0990102
0.0840547
0.0840904
0.099007
0.109051
0.109041
0.0989999
0.0841162
0.0841517
0.0989981
0.109039
0.109029
0.0989911
0.0841766
0.0842112
0.0989902
0.109027
0.109018
0.0989829
0.0842351
0.0842691
0.0989831
0.109016
0.109007
0.0989759
0.0842921
0.0843252
0.0989769
0.109006
0.108997
0.0989696
0.0843471
0.0843795
0.0989715
0.108996
0.108988
0.098964
0.0844004
0.0844315
0.0989663
0.108986
0.108978
0.0989582
0.0844512
0.0844811
0.0989608
0.108977