/*--------------------------------*- C++ -*----------------------------------*\
| =========                 |                                                 |
| \\      /  F ield         | OpenFOAM: The Open Source CFD Toolbox           |
|  \\    /   O peration     | Version:  v2006                                 |
|   \\  /    A nd           | Website:  www.openfoam.com                      |
|    \\/     M anipulation  |                                                 |
\*---------------------------------------------------------------------------*/
FoamFile
{
    version     2.0;
    format      ascii;
    class       volScalarField;
    location    "0.012";
    object      alphat;
}
// * * * * * * * * * * * * * * * * * * * * * * * * * * * * * * * * * * * * * //

dimensions      [1 -1 -1 0 0 0 0];


internalField   nonuniform List<scalar> 
9148
(
381.972
1063.94
986.254
275.967
24.3627
4.22006
1.53658
0.866216
0.620239
0.503745
0.437232
0.390851
0.353954
0.322983
0.296686
0.274325
0.255257
0.238913
0.2248
0.21251
0.201714
0.192157
0.183643
0.176022
0.169174
0.163009
0.15745
0.152436
0.147917
0.143851
0.140201
0.136941
0.134046
0.131497
0.129279
0.127381
0.125794
0.124517
0.123547
0.122889
0.12255
0.12254
0.122877
0.123582
0.124685
0.126222
0.12824
0.130802
0.133989
0.137908
0.142701
0.148548
0.155635
0.164174
0.174343
0.186509
0.201513
0.222572
0.259924
0.342765
0.539534
0.981534
1.64481
4.2058
1.64064
0.951734
0.550098
0.300905
0.133225
0.0259809
0.00480435
0.000162735
0.000141606
0.00233374
0.0102034
0.00660964
0.00173419
0.000127871
0.000115028
0.00148254
0.00524828
0.00446974
0.00135345
0.00010822
0.000101028
0.00123859
0.00399047
0.00359145
0.00116757
9.63265e-05
9.23064e-05
0.00110697
0.00338464
0.00316093
0.00105845
8.88878e-05
8.66251e-05
0.0010374
0.0030529
0.00288746
0.000997261
8.42203e-05
8.26928e-05
0.00098613
0.00282761
0.00270311
0.000953113
8.08191e-05
7.96945e-05
0.000945654
0.00265841
0.0025559
0.000917276
7.81912e-05
7.73075e-05
0.00091129
0.00251992
0.0024313
0.000886675
7.60711e-05
7.53513e-05
0.000881226
0.00240165
0.0023233
0.000859748
7.43109e-05
7.37155e-05
0.000854957
0.00229889
0.00222892
0.000836145
7.28268e-05
7.2328e-05
0.000831974
0.00220894
0.00214631
0.00081541
7.15549e-05
7.11293e-05
0.000811779
0.0021298
0.00207368
0.000796984
7.04383e-05
7.00632e-05
0.000793778
0.0020596
0.00200905
0.000780257
6.94249e-05
6.90809e-05
0.000777363
0.0019967
0.00195041
0.00076467
6.84716e-05
6.81437e-05
0.000761963
0.00193922
0.001896
0.00074971
6.75453e-05
6.72221e-05
0.000747081
0.00188544
0.00184421
0.00073496
6.66225e-05
6.62968e-05
0.000732337
0.00183389
0.00179386
0.000720158
6.569e-05
6.53589e-05
0.000717506
0.00178354
0.00174409
0.000705196
6.47442e-05
6.44086e-05
0.000702534
0.00173391
0.00169515
0.000690149
6.37887e-05
6.34513e-05
0.000687514
0.0016852
0.00164722
0.000675124
6.28289e-05
6.24913e-05
0.000672513
0.0016374
0.00160018
0.000660146
6.18669e-05
6.15297e-05
0.000657538
0.00159039
0.00155395
0.000645201
6.09019e-05
6.05645e-05
0.00064258
0.00154417
0.00150855
0.000630266
5.99303e-05
5.95909e-05
0.000627626
0.00149877
0.00146399
0.000615312
5.89457e-05
5.86013e-05
0.000612635
0.00145422
0.00142018
0.000600282
5.79388e-05
5.75859e-05
0.000597543
0.00141043
0.00137698
0.000585064
5.68994e-05
5.65345e-05
0.000582206
0.00136714
0.0013339
0.00056945
5.58171e-05
5.54375e-05
0.000566367
0.00132374
0.00129026
0.000553174
5.46821e-05
5.42839e-05
0.000549805
0.00127963
0.00124553
0.000536027
5.34832e-05
5.30646e-05
0.000532232
0.0012342
0.00119896
0.000517662
5.22117e-05
5.17698e-05
0.000513262
0.00118669
0.00114968
0.000497656
5.08565e-05
5.03847e-05
0.000492373
0.00113615
0.00109709
0.000475444
4.94016e-05
4.88805e-05
0.000468803
0.00108138
0.00103903
0.00045024
4.78279e-05
4.7204e-05
0.00044064
0.00101975
0.000972151
0.000420073
4.60747e-05
4.52805e-05
0.000405944
0.000946333
0.000891954
0.000381779
4.4036e-05
4.299e-05
0.000360338
0.000851735
0.00078769
0.000329097
4.13543e-05
4.01899e-05
0.000292823
0.000720454
0.000636572
0.000247189
3.98662e-05
2.66938e-05
0.000153578
0.000501005
0.000290183
5.94784e-05
1.8317e-05
2.9821e-05
9.2846e-05
0.000173713
0.000202607
0.000205168
3.89094e-05
4.18273e-05
0.000312357
0.000424754
0.000508608
0.000384956
3.91643e-05
2.73343e-05
0.000370926
0.000583339
0.000425635
0.00015102
1.0794e-05
4.51024e-06
3.67323e-05
0.000117711
6.74342e-05
2.01473e-05
2.60631e-06
1.92839e-06
1.65397e-05
5.67946e-05
5.6645e-05
1.48171e-05
3.17929e-06
6.23757e-06
2.30105e-05
7.92837e-05
9.04086e-05
2.6744e-05
9.08655e-06
1.14977e-05
3.64035e-05
0.00012951
0.000146591
4.07437e-05
1.22866e-05
1.24354e-05
4.45506e-05
0.000158324
0.000145827
4.22391e-05
1.10645e-05
9.67084e-06
4.00967e-05
0.000134385
0.000108386
3.51934e-05
8.07896e-06
7.12765e-06
3.24259e-05
9.82901e-05
8.64971e-05
2.87231e-05
6.5324e-06
6.38068e-06
2.67589e-05
8.16089e-05
8.00727e-05
2.55786e-05
6.76065e-06
7.37039e-06
2.5128e-05
7.95686e-05
8.32793e-05
2.5394e-05
8.16507e-06
9.06132e-06
2.60835e-05
8.62254e-05
9.32227e-05
2.72394e-05
9.99996e-06
1.09125e-05
2.82846e-05
9.79665e-05
0.000107467
2.96416e-05
1.17497e-05
1.24626e-05
3.0564e-05
0.000112242
0.000123503
3.1839e-05
1.30334e-05
1.33741e-05
3.19376e-05
0.000126566
0.000137439
3.25604e-05
1.33472e-05
1.32931e-05
3.16647e-05
0.0001389
0.000147782
3.25977e-05
1.3081e-05
1.27483e-05
3.12021e-05
0.000147809
0.000155496
3.22127e-05
1.22771e-05
1.14725e-05
3.07395e-05
0.000153273
0.000159442
3.204e-05
1.05545e-05
9.49739e-06
3.01719e-05
0.00015548
0.000159739
3.07552e-05
8.39053e-06
7.19005e-06
2.70744e-05
0.000149799
0.000149961
2.62528e-05
6.00635e-06
4.7904e-06
2.1408e-05
0.000132407
0.000115445
1.97125e-05
3.6759e-06
2.61163e-06
1.39603e-05
9.42657e-05
7.93165e-05
1.16751e-05
1.80576e-06
1.08264e-06
6.86812e-06
5.62537e-05
4.25639e-05
5.35541e-06
6.79687e-07
2.57403e-07
2.09297e-06
1.68049e-05
9.03242e-06
1.52804e-06
7.94023e-08
4.8424e-08
3.03623e-06
5.7621e-06
1.04222e-05
1.75505e-05
2.19931e-05
2.33111e-05
2.34428e-05
2.41865e-05
2.44234e-05
2.5186e-05
2.62882e-05
2.82173e-05
3.06405e-05
3.33573e-05
3.627e-05
4.05997e-05
4.46207e-05
4.86884e-05
5.33372e-05
5.62888e-05
6.09362e-05
6.09255e-05
1.06586e-05
9.6251e-07
6.41031e-07
2.44619e-07
8.78738e-08
3.16315e-08
4.02737e-09
2.68485e-09
3.61549e-09
3.78338e-08
3.88343e-08
2.91439e-09
1.77684e-09
8.18841e-09
1.01324e-08
1.11438e-07
4.57146e-07
2.26447e-08
1.13209e-08
2.48841e-08
5.57516e-08
1.33574e-06
2.98873e-06
1.07554e-07
2.6025e-08
4.17302e-08
4.05421e-07
1.13162e-05
2.23631e-05
1.00432e-06
6.10264e-08
9.42542e-08
2.73497e-06
3.99428e-05
4.17542e-05
3.3446e-06
1.21835e-07
1.53568e-07
4.93549e-06
4.99386e-05
4.1163e-05
4.54144e-06
1.65555e-07
1.40637e-07
3.86467e-06
3.46611e-05
2.86533e-05
2.88545e-06
1.04038e-07
7.72213e-08
3.41033e-06
3.32105e-05
3.56482e-05
3.83183e-06
6.56469e-08
5.52548e-08
5.21195e-06
4.58016e-05
4.83618e-05
5.66426e-06
6.65566e-08
1.73207e-07
8.20589e-06
6.26516e-05
6.62889e-05
9.3028e-06
3.31797e-07
6.60022e-07
1.37759e-05
8.47429e-05
8.87281e-05
1.52168e-05
1.02718e-06
1.58417e-06
2.06629e-05
0.000110814
0.000114382
2.18329e-05
2.13379e-06
2.89525e-06
2.81384e-05
0.000139744
0.000142917
2.91155e-05
3.58901e-06
4.50153e-06
3.61264e-05
0.00017144
0.00017397
3.66688e-05
5.33181e-06
6.43662e-06
4.5114e-05
0.00020801
0.000211703
4.56997e-05
7.44902e-06
8.85344e-06
5.68883e-05
0.000254182
0.000260716
5.86329e-05
1.01671e-05
1.17484e-05
7.65689e-05
0.000320743
0.000327852
7.91407e-05
1.26876e-05
1.41367e-05
0.000103413
0.000406646
0.000413517
0.000105955
1.51047e-05
1.69992e-05
0.000136148
0.000510632
0.000527444
0.000145137
1.84587e-05
2.12359e-05
0.000188398
0.00064525
0.000673248
0.00020319
2.34672e-05
2.81397e-05
0.000260225
0.00080509
0.000861048
0.000281864
3.41812e-05
2.79404e-05
0.000360299
0.000934876
0.000320841
7.76972e-05
9.81253e-06
2.09013e-05
0.000304586
0.000925199
0.00105748
0.000349758
2.77306e-05
3.91885e-05
0.000471357
0.00134386
0.00155771
0.000562333
4.95989e-05
3.64902e-05
0.000546561
0.00147626
0.000932799
0.000291937
1.36205e-05
3.9983e-05
0.00056326
0.00151856
0.00167476
0.000921164
7.54468e-05
4.01359e-05
0.000329384
0.000931683
0.00102066
0.00053674
4.38065e-05
9.83784e-05
0.000779896
0.000988742
0.000894542
0.00083846
6.92227e-05
2.9392e-05
0.000231349
0.000551991
0.000519562
0.000335726
4.18703e-05
5.32439e-05
0.000399544
0.000777896
0.000876364
0.000706926
5.44169e-05
4.37299e-05
0.00019436
0.00047796
0.000566142
0.00023533
3.83942e-05
6.52716e-05
0.000482739
0.000913691
0.000661068
0.00033786
6.72262e-05
3.83428e-05
0.000126293
0.000238301
0.000411891
0.000287651
3.87449e-05
3.6213e-05
0.000130685
0.00023324
0.00039058
0.000282085
3.69304e-05
3.57831e-05
0.000131641
0.000229928
0.000384086
0.000245471
3.66114e-05
4.10949e-05
0.00020269
0.000335668
0.000151752
7.95773e-05
2.60406e-05
2.59323e-05
0.000200387
0.000260251
0.000158826
9.30499e-05
2.76505e-05
2.78161e-05
0.000181484
0.000276539
0.000243704
0.000153061
3.09292e-05
2.21319e-05
6.1576e-05
0.00011589
0.000195726
0.000155459
2.08949e-05
2.36532e-05
7.22032e-05
0.00012014
0.000203926
0.000157896
2.18011e-05
2.44437e-05
7.48179e-05
0.000125325
0.000209586
0.000135826
2.25403e-05
2.61771e-05
0.000112644
0.000183464
8.80752e-05
4.96133e-05
1.94554e-05
1.77728e-05
0.000121369
0.000147521
9.19833e-05
5.94828e-05
2.11303e-05
1.84014e-05
0.000122707
0.000148461
9.30933e-05
6.14376e-05
2.14703e-05
1.85657e-05
0.000115966
0.000151532
9.40892e-05
6.07399e-05
2.14283e-05
1.86538e-05
0.000113325
0.000154012
9.63918e-05
6.17499e-05
2.16745e-05
1.94297e-05
0.000102932
0.000163625
0.000142496
8.75478e-05
2.35777e-05
1.80157e-05
4.71709e-05
7.32748e-05
0.000114257
9.50998e-05
1.58993e-05
1.99645e-05
5.46504e-05
7.51058e-05
0.00011722
9.7629e-05
1.66951e-05
2.02071e-05
5.62439e-05
7.66622e-05
0.0001203
9.23977e-05
1.6874e-05
2.01715e-05
5.62571e-05
7.83833e-05
0.00012193
9.25446e-05
1.65858e-05
2.01011e-05
5.61973e-05
7.87723e-05
0.000120849
9.19675e-05
1.66868e-05
1.99315e-05
5.68768e-05
7.87069e-05
0.000120308
9.05278e-05
1.64047e-05
2.00726e-05
5.74036e-05
7.90427e-05
0.000119266
9.15543e-05
1.654e-05
1.98997e-05
5.75711e-05
7.87088e-05
0.000117307
8.99135e-05
1.6316e-05
1.99785e-05
5.8011e-05
7.83705e-05
0.000115878
8.99587e-05
1.64335e-05
1.98731e-05
5.78677e-05
7.74842e-05
0.000113944
8.85332e-05
1.62358e-05
1.99201e-05
5.82397e-05
7.66632e-05
0.000111852
8.80052e-05
1.62318e-05
1.97912e-05
5.77363e-05
7.5491e-05
0.000109573
8.61637e-05
1.60355e-05
1.98591e-05
5.78243e-05
7.43782e-05
0.000106241
8.54118e-05
1.60871e-05
1.96844e-05
5.59681e-05
7.21701e-05
9.9201e-05
8.35047e-05
1.56991e-05
1.91791e-05
5.29381e-05
6.64552e-05
8.65801e-05
5.6341e-05
1.72423e-05
2.18419e-05
7.67288e-05
0.000137198
9.17323e-05
6.77787e-05
2.23712e-05
1.71905e-05
0.000105445
0.000128144
8.86593e-05
6.88862e-05
2.01175e-05
1.65352e-05
0.000104799
0.000125966
8.67646e-05
6.74431e-05
1.99301e-05
1.62505e-05
0.000100879
0.000121407
8.3838e-05
6.60983e-05
1.99801e-05
1.64657e-05
9.54305e-05
0.000117031
8.14737e-05
6.50608e-05
2.01395e-05
1.62113e-05
9.41914e-05
0.000112119
7.73382e-05
6.17488e-05
1.98475e-05
1.58099e-05
8.93465e-05
0.000103853
7.10329e-05
5.82079e-05
1.95063e-05
1.76119e-05
6.09047e-05
8.94105e-05
0.000137969
7.84182e-05
2.24236e-05
2.34244e-05
7.3747e-05
9.48493e-05
0.000130432
0.000109109
1.79013e-05
2.07964e-05
7.48843e-05
9.19275e-05
0.000128117
0.000109628
1.68547e-05
2.02992e-05
7.27492e-05
8.95726e-05
0.000123235
0.000106026
1.63624e-05
2.00456e-05
6.91875e-05
8.58625e-05
0.000114396
9.96476e-05
1.60813e-05
1.96068e-05
6.46438e-05
7.85559e-05
9.8283e-05
6.82789e-05
1.77826e-05
2.28589e-05
8.69162e-05
0.00014665
0.000102798
8.12225e-05
2.40546e-05
1.83424e-05
0.000117098
0.000136388
9.79433e-05
8.09619e-05
2.16525e-05
1.74953e-05
0.000114383
0.000132182
9.45139e-05
7.8145e-05
2.11468e-05
1.70827e-05
0.000109336
0.000126152
8.98918e-05
7.3974e-05
2.08313e-05
1.6642e-05
0.000103832
0.000116207
8.1391e-05
6.82526e-05
2.00064e-05
1.81899e-05
7.13634e-05
9.95221e-05
0.000146372
8.75715e-05
2.35214e-05
2.50435e-05
8.55887e-05
0.000104448
0.000138318
0.000118941
1.91911e-05
2.28502e-05
8.65207e-05
0.000100657
0.000136449
0.000119843
1.82693e-05
2.21086e-05
8.27617e-05
9.80776e-05
0.000127784
0.000115453
1.74331e-05
2.09529e-05
7.67543e-05
9.02417e-05
0.000111508
8.01699e-05
1.88706e-05
2.43912e-05
9.90548e-05
0.000161572
0.000116188
9.53667e-05
2.62371e-05
2.00789e-05
0.00013193
0.00015041
0.000110305
9.50234e-05
2.4056e-05
1.92367e-05
0.000129597
0.000146144
0.000107176
9.22396e-05
2.36636e-05
1.89745e-05
0.000123679
0.000140921
0.000102904
8.79183e-05
2.3363e-05
1.83288e-05
0.000118971
0.000131108
9.45762e-05
8.17825e-05
2.21844e-05
1.99937e-05
8.44858e-05
0.000113302
0.000163045
0.00010079
2.58327e-05
2.79138e-05
0.000102141
0.000119497
0.000153967
0.000135959
2.12373e-05
2.56925e-05
0.000103088
0.000115154
0.000153447
0.000136283
2.04939e-05
2.5408e-05
0.000100971
0.000114108
0.000150057
0.000131968
2.03772e-05
2.51842e-05
9.67412e-05
0.000110944
0.000140982
0.000127149
1.98064e-05
2.40355e-05
9.08977e-05
0.000102877
0.000124304
9.39739e-05
2.16359e-05
2.78212e-05
0.000109335
0.000171253
0.000127985
0.000111795
3.00199e-05
2.28936e-05
0.000144203
0.000162263
0.000123695
0.000112147
2.77445e-05
2.20321e-05
0.000143267
0.000159839
0.000121263
0.000109164
2.72243e-05
2.16054e-05
0.000138961
0.000156014
0.000118498
0.000105846
2.71472e-05
2.15033e-05
0.000134759
0.000149385
0.0001123
0.000100649
2.6128e-05
2.36403e-05
0.000103313
0.000134392
0.000182869
0.000117694
3.00586e-05
3.24568e-05
0.000125185
0.000138242
0.000178403
0.000157514
2.49196e-05
3.02629e-05
0.000127622
0.000137153
0.000180481
0.000160067
2.42528e-05
2.99696e-05
0.000126759
0.000137943
0.000180334
0.000159577
2.36625e-05
2.96587e-05
0.000124364
0.000137232
0.000178605
0.000155243
2.37497e-05
3.01127e-05
0.00012525
0.000137255
0.000177654
0.000154507
2.42757e-05
3.03875e-05
0.000125199
0.000137665
0.000176071
0.000154605
2.40582e-05
3.01987e-05
0.000123487
0.000136543
0.00017331
0.00015182
2.40038e-05
3.06436e-05
0.000124859
0.000136569
0.000172375
0.000151319
2.46249e-05
3.09408e-05
0.000124712
0.000136897
0.00017038
0.00015234
2.42708e-05
3.04382e-05
0.000120475
0.000134957
0.000162616
0.00014754
2.38257e-05
2.98134e-05
0.000118963
0.000130356
0.000147838
0.000121814
2.731e-05
3.48251e-05
0.000129148
0.000194452
0.000153754
0.000148701
3.74893e-05
2.82394e-05
0.0001757
0.00019699
0.000157122
0.000159482
3.5302e-05
2.99337e-05
0.000175583
0.0002218
0.000202951
0.000167983
3.85524e-05
3.06632e-05
0.000141645
0.000148778
0.000179183
0.000180591
2.43479e-05
3.28381e-05
0.000142096
0.000148151
0.000185272
0.000162884
2.66513e-05
3.46076e-05
0.000141138
0.000151215
0.000186797
0.000161174
2.74199e-05
3.44332e-05
0.00014156
0.000151854
0.000186575
0.000162977
2.66943e-05
3.50076e-05
0.00014876
0.000154829
0.000191589
0.000168335
2.79653e-05
3.56091e-05
0.000153768
0.000159089
0.000196743
0.000174161
2.69961e-05
3.53992e-05
0.000160931
0.000161332
0.000216448
0.000172037
3.04163e-05
4.00891e-05
0.000168531
0.000200378
0.000154375
0.000154166
3.2565e-05
2.57164e-05
0.000179922
0.000183297
0.000158374
0.000158729
3.59323e-05
2.90526e-05
0.000170301
0.000194339
0.000163269
0.000167342
3.80847e-05
3.10389e-05
0.000174303
0.000219546
0.000204265
0.000172726
4.16487e-05
3.60318e-05
0.000171865
0.000160243
0.000208
0.000182639
2.99264e-05
4.1279e-05
0.000178686
0.000199923
0.0001638
0.000175893
3.7772e-05
3.05281e-05
0.000184799
0.00020906
0.000199864
0.000189377
4.61061e-05
4.06052e-05
0.000177824
0.000187469
0.000158033
0.000169744
3.92133e-05
3.42833e-05
0.000173474
0.000199635
0.000193407
0.000176627
5.04019e-05
5.62045e-05
0.000195375
0.000187418
0.000183998
0.000192028
6.42932e-05
8.01002e-05
0.000203068
0.000190134
0.000197164
0.000211307
9.29803e-05
0.000100924
0.000235156
0.000206252
0.000211083
0.000243837
9.97605e-05
9.58814e-05
0.000255996
0.000215626
0.000222848
0.000268401
9.0866e-05
8.59947e-05
0.000276745
0.000229064
0.000237673
0.00029208
8.11933e-05
7.66898e-05
0.000299851
0.000247492
0.000257652
0.000311802
7.26149e-05
6.91942e-05
0.000314211
0.000276167
0.000288981
0.000314935
6.61351e-05
6.35462e-05
0.000316984
0.000314403
0.00032744
0.000318618
6.1223e-05
5.92498e-05
0.000321832
0.00035351
0.000366656
0.000325325
5.75162e-05
5.60492e-05
0.000329964
0.000393274
0.000404689
0.000335042
5.48234e-05
5.37936e-05
0.000340929
0.000430408
0.000432461
0.000347672
5.30233e-05
5.23563e-05
0.0003548
0.000457791
0.00046061
0.000362685
5.19838e-05
5.15734e-05
0.000370578
0.000485292
0.000488197
0.000379366
5.15685e-05
5.12339e-05
0.000387851
0.000512477
0.000515062
0.000397355
5.16637e-05
5.14749e-05
0.000405737
0.000538599
0.000541483
0.00041545
5.19772e-05
5.19667e-05
0.000423518
0.000564139
0.000566387
0.000432382
5.24472e-05
5.24939e-05
0.000439607
0.000587411
0.000589449
0.000447637
5.2931e-05
5.29728e-05
0.00045404
0.000608751
0.000610485
0.000460939
5.3366e-05
5.33709e-05
0.000466371
0.000628503
0.000630355
0.000472231
5.37499e-05
5.36959e-05
0.000477061
0.000647088
0.000648901
0.000481799
5.40402e-05
5.39528e-05
0.000485899
0.000664923
0.000667582
0.000489786
5.42743e-05
5.41471e-05
0.000493556
0.000682222
0.000685265
0.000496622
5.44479e-05
5.43054e-05
0.000499925
0.000699298
0.000702416
0.000502424
5.45987e-05
5.443e-05
0.000505527
0.000716196
0.000718331
0.000507452
5.47101e-05
5.45372e-05
0.000510109
0.000732418
0.000733964
0.000511684
5.48106e-05
5.46201e-05
0.000514093
0.000747674
0.000748738
0.000515261
5.48791e-05
5.46915e-05
0.0005172
0.000762325
0.000763277
0.000518146
5.49434e-05
5.47436e-05
0.000519826
0.000776202
0.000776619
0.000520448
5.49794e-05
5.47865e-05
0.000521664
0.000789502
0.000789744
0.000522114
5.50127e-05
5.4812e-05
0.000523101
0.000801935
0.000801592
0.000523275
5.5021e-05
5.48303e-05
0.000523852
0.000813787
0.000813233
0.000523898
5.50295e-05
5.4835e-05
0.000524302
0.000824721
0.000823546
0.000524103
5.50181e-05
5.48343e-05
0.000524166
0.000835029
0.000833593
0.000523901
5.50076e-05
5.48238e-05
0.000523858
0.000844515
0.000842314
0.000523371
5.49828e-05
5.48096e-05
0.000523063
0.000853285
0.000850932
0.000522546
5.49592e-05
5.479e-05
0.000522171
0.000860713
0.000858301
0.000521449
5.49285e-05
5.47715e-05
0.000520857
0.000863046
0.000864882
0.000520114
5.48999e-05
5.47471e-05
0.000519475
0.000864598
0.000869882
0.000518484
5.48633e-05
5.47219e-05
0.000517626
0.000865507
0.000874303
0.000516498
5.4828e-05
5.46915e-05
0.000515674
0.000866056
0.000875344
0.000514471
5.47867e-05
5.46594e-05
0.000513478
0.000865866
0.000874926
0.000512329
5.47471e-05
5.46243e-05
0.000511309
0.000865019
0.000873661
0.000509937
5.47016e-05
5.45869e-05
0.000508776
0.000863833
0.000872275
0.000507451
5.46568e-05
5.45466e-05
0.000506321
0.000862162
0.000870259
0.000504803
5.46074e-05
5.45048e-05
0.000503593
0.000860314
0.000868279
0.000502152
5.456e-05
5.44616e-05
0.000501023
0.000858131
0.000865818
0.000499422
5.45101e-05
5.44187e-05
0.000498258
0.000855928
0.00086353
0.000496764
5.44638e-05
5.43766e-05
0.000495732
0.000853501
0.000860872
0.000494095
5.44173e-05
5.43366e-05
0.000493059
0.000851194
0.000858397
0.00049154
5.43756e-05
5.42989e-05
0.000490661
0.000848756
0.00085558
0.000489017
5.43348e-05
5.42639e-05
0.000488142
0.000846432
0.000853307
0.000486632
5.42989e-05
5.42315e-05
0.000485923
0.000844113
0.000850506
0.000484302
5.42645e-05
5.42024e-05
0.000483598
0.000841791
0.000848329
0.000482119
5.4235e-05
5.41759e-05
0.000481583
0.000839536
0.000845605
0.000480005
5.42073e-05
5.41528e-05
0.000479469
0.000837274
0.000843521
0.000478042
5.41844e-05
5.41323e-05
0.000477667
0.000835089
0.000840913
0.000476144
5.41631e-05
5.41152e-05
0.000475758
0.000832906
0.000838977
0.000474379
5.41459e-05
5.40999e-05
0.000474154
0.000830797
0.00083654
0.000472681
5.41298e-05
5.40876e-05
0.000472433
0.00082868
0.000834798
0.000471116
5.41176e-05
5.40769e-05
0.00047101
0.000826661
0.00083257
0.000469617
5.41066e-05
5.40691e-05
0.000469466
0.00082466
0.00083101
0.000468254
5.40992e-05
5.4063e-05
0.00046821
0.000822774
0.000828914
0.000466916
5.40926e-05
5.40592e-05
0.000466825
0.000820918
0.000827488
0.000465706
5.40893e-05
5.40569e-05
0.000465719
0.000819179
0.000825517
0.000464513
5.40864e-05
5.40565e-05
0.000464476
0.000817457
0.000824216
0.000463439
5.40863e-05
5.40573e-05
0.000463503
0.000815852
0.000822366
0.000462375
5.40865e-05
5.40597e-05
0.000462387
0.000814259
0.000821183
0.000461422
5.40891e-05
5.40631e-05
0.000461532
0.000812778
0.000819449
0.000460472
5.40917e-05
5.40678e-05
0.000460527
0.000811305
0.000818378
0.000459625
5.40964e-05
5.40731e-05
0.000459776
0.000809943
0.000816754
0.000458777
5.41009e-05
5.40794e-05
0.000458871
0.000808586
0.000815792
0.000458026
5.41072e-05
5.40861e-05
0.000458214
0.000807338
0.000814275
0.000457271
5.41131e-05
5.40938e-05
0.000457402
0.000806122
0.000813377
0.000456607
5.41208e-05
5.41017e-05
0.000456833
0.000804997
0.000811952
0.000455938
5.4128e-05
5.41105e-05
0.000456106
0.000803896
0.000811154
0.000455356
5.4137e-05
5.41195e-05
0.000455617
0.000802879
0.000809839
0.000454766
5.41456e-05
5.41295e-05
0.000454968
0.000801884
0.000809147
0.00045426
5.41559e-05
5.41398e-05
0.000454554
0.000800972
0.000807939
0.000453743
5.4166e-05
5.41512e-05
0.000453977
0.000800077
0.000807345
0.000453306
5.41781e-05
5.41632e-05
0.000453628
0.000799259
0.000806229
0.000452852
5.419e-05
5.41764e-05
0.000453111
0.000798432
0.00080571
0.000452469
5.42038e-05
5.419e-05
0.000452814
0.000797681
0.000804663
0.000452064
5.42172e-05
5.42048e-05
0.000452341
0.000796908
0.0008042
0.000451721
5.42323e-05
5.42198e-05
0.000452082
0.000796212
0.000803204
0.000451351
5.42466e-05
5.42354e-05
0.000451642
0.000795484
0.000802781
0.000451039
5.42621e-05
5.42507e-05
0.000451412
0.000794827
0.000801823
0.000450699
5.42765e-05
5.42662e-05
0.000451003
0.000794137
0.000801441
0.000450417
5.42919e-05
5.42812e-05
0.000450805
0.000793524
0.00080053
0.00045011
5.43061e-05
5.42964e-05
0.000450429
0.000792882
0.000800195
0.000449862
5.43215e-05
5.43115e-05
0.000450264
0.000792316
0.000799329
0.000449587
5.43362e-05
5.43272e-05
0.000449919
0.000791718
0.000799034
0.000449368
5.43521e-05
5.4343e-05
0.000449782
0.000791188
0.000798203
0.000449119
5.43674e-05
5.43595e-05
0.000449463
0.000790621
0.000797935
0.000448923
5.4384e-05
5.43761e-05
0.000449348
0.000790116
0.000797125
0.000448694
5.43999e-05
5.43933e-05
0.000449047
0.000789567
0.00079687
0.000448514
5.44166e-05
5.44101e-05
0.000448932
0.000788997
0.000796147
0.000448316
5.44306e-05
5.44255e-05
0.000448761
0.000788607
0.000795669
0.000448439
5.44842e-05
5.45058e-05
0.000448782
0.000788399
0.000795495
0.000448084
5.45246e-05
5.45492e-05
0.000448667
0.000788057
0.000795878
0.000448429
5.47022e-05
5.47063e-05
0.000449505
0.00078816
0.000801591
0.000450651
5.50918e-05
5.52998e-05
0.000452281
0.000794005
0.00081292
0.000456164
5.60599e-05
5.63155e-05
0.000458858
0.000807657
0.000832465
0.000467313
5.83144e-05
6.03816e-05
0.000482108
0.000883531
0.000925411
0.000504422
6.31616e-05
0.00150035
0.00240958
0.00349079
0.00385172
0.0047919
0.00919221
0.0119053
0.0130534
0.0141761
0.0248938
0.0303593
0.0365358
0.0440388
0.0546476
0.0713218
0.0976032
0.137423
0.193768
0.268873
0.363816
0.478609
0.612068
0.76203
0.92491
1.09671
1.26998
1.43857
1.58914
1.71488
1.80653
1.86425
1.8916
1.91626
1.96062
2.02293
2.1011
2.19243
2.29707
2.41383
2.54567
2.69503
2.86746
3.07007
3.00781
2.72098
2.18689
1.66373
1.31187
1.10466
0.978208
0.887577
0.809929
0.73728
0.668621
0.604561
0.54529
0.490546
0.440047
0.393674
0.351419
0.313253
0.279048
0.248581
0.221551
0.197627
0.176482
0.157809
0.141332
0.126802
0.114001
0.102733
0.092825
0.0841232
0.0764916
0.0698099
0.0639712
0.0588811
0.0544558
0.0506206
0.0473092
0.0444629
0.0420296
0.0399631
0.0382228
0.0367729
0.035582
0.0346228
0.0338719
0.0333089
0.0329162
0.0326792
0.0325852
0.0326236
0.0327853
0.0330633
0.0334517
0.0339455
0.034541
0.035236
0.0360293
0.0369196
0.0379074
0.0389929
0.0401767
0.0414604
0.0428461
0.0443371
0.0459371
0.0476508
0.0494831
0.0514397
0.0535268
0.0557502
0.0581171
0.0606345
0.0633098
0.0661506
0.0691649
0.0723607
0.0757466
0.0793312
0.0831237
0.0871341
0.0913734
0.0958536
0.10059
0.105601
0.110913
0.116558
0.122581
0.129045
0.136026
0.143622
0.151947
0.161126
0.171292
0.182575
0.195077
0.208907
0.224198
0.241054
0.25966
0.28036
0.303755
0.330835
0.363126
0.402912
0.453598
0.520718
0.614695
0.759159
1.01455
1.55155
3.05433
9.08981
46.1617
375.094
66.3628
11.9448
3.66066
1.61905
0.940074
0.679789
0.568272
0.509756
0.468173
0.431498
0.397381
0.366273
0.338669
0.314569
0.293662
0.275535
0.259758
0.245952
0.233805
0.223062
0.21352
0.205019
0.197426
0.190631
0.184545
0.179092
0.174212
0.169857
0.165983
0.162559
0.159559
0.156963
0.154755
0.152927
0.151473
0.150394
0.149693
0.149381
0.149473
0.14999
0.150961
0.15242
0.154413
0.156995
0.160234
0.164219
0.16906
0.174895
0.181863
0.190046
0.199356
0.209402
0.219497
0.229685
0.244409
0.277735
0.362803
0.573727
0.998696
0.965353
0.444848
0.120755
0.0535027
0.0182501
0.0155627
0.0143061
0.0128225
0.0121494
0.0111907
0.0107743
0.0100781
0.00979131
0.00925115
0.00903125
0.00859609
0.00842057
0.00805694
0.00791315
0.00760113
0.00748226
0.00721053
0.00711178
0.00687298
0.00678984
0.00657825
0.00650651
0.00631764
0.0062545
0.00608294
0.00602592
0.00586704
0.00581422
0.00566444
0.00561437
0.00547107
0.00542289
0.00528455
0.00523775
0.00510343
0.00505764
0.00492662
0.00488157
0.00475345
0.00470906
0.00458373
0.00454005
0.00441766
0.00437479
0.00425546
0.00421328
0.00409669
0.00405481
0.00394006
0.00389779
0.00378354
0.00374031
0.00362539
0.00358035
0.00346321
0.00341543
0.00329446
0.0032429
0.00311646
0.00305969
0.00292539
0.0028609
0.0027145
0.00263786
0.00247394
0.00237381
0.00218256
0.0020397
0.0017437
0.00149141
0.00120082
0.000906955
0.000653523
0.000590551
0.000650052
0.000818761
0.000824935
0.000209207
0.000129921
0.000135761
0.000208644
0.000377271
0.000420606
0.000572008
0.000623877
0.000679836
0.000619488
0.000592603
0.000524603
0.000492774
0.000457257
0.000441277
0.000430862
0.000435082
0.000448337
0.000465044
0.000488666
0.000508065
0.000534007
0.00054594
0.000566131
0.000565002
0.000571696
0.000557818
0.000555721
0.000532422
0.000523434
0.00049158
0.000422913
0.00036261
0.000314418
0.00027384
0.00023821
0.000205662
0.000177975
0.0001494
0.000129008
9.4891e-05
7.04358e-05
3.20855e-05
1.76009e-05
2.76018e-05
3.67646e-05
6.52804e-05
5.29859e-05
8.56061e-05
9.68836e-05
0.000135689
0.000120417
0.00015205
0.000191477
0.00024026
0.000119878
7.49928e-05
4.89711e-05
6.51931e-05
0.000104024
0.000193276
0.000315367
0.000158845
9.23778e-05
0.000134508
0.000257837
0.000534496
0.000625665
0.00135561
0.000448779
0.000188378
0.000180001
0.000201096
0.000269805
0.000273421
0.000250312
0.000278638
0.000404893
0.000809869
0.00142629
0.000421975
0.00034355
0.000385386
0.000624558
0.000701267
0.000474878
0.00056729
0.00100754
0.0021507
0.00250977
0.00115408
0.000722098
0.000882114
0.00148015
0.00139684
0.000904886
0.00100803
0.00168977
0.00275392
0.00290651
0.0015865
0.00102175
0.00110574
0.00184447
0.00171262
0.00110664
0.00117345
0.00194165
0.00298669
0.00303925
0.00178425
0.00116016
0.00120547
0.00199169
0.00182168
0.00118114
0.00120909
0.00199846
0.00288589
0.0022058
0.00182355
0.00117434
0.00119363
0.00196704
0.00175899
0.00116089
0.00112252
0.00192016
0.00143205
0.000787326
0.00131496
0.00114291
0.000888428
0.00135297
0.000704936
0.000990507
0.000707178
0.000755332
0.000594985
0.00110977
0.000429603
0.000816657
0.000745081
0.000846525
0.000523069
0.00106177
0.000548939
0.000596611
0.00148129
0.00160124
0.000410402
0.000431118
0.000257988
0.000374395
0.000493913
0.000213723
0.000161959
0.000766134
0.00245308
0.00325395
0.0011362
0.000326957
0.000721217
0.00156461
0.00187024
0.000965718
0.00115714
0.00195319
0.00470869
0.00657951
0.00257674
0.00121887
0.00125529
0.00271383
0.00402143
0.00160213
0.00189295
0.00391239
0.00860009
0.0107662
0.00547021
0.00255383
0.00288775
0.0053143
0.0068061
0.00360404
0.00388105
0.006648
0.0127855
0.0146113
0.00785232
0.00445128
0.00461887
0.00773777
0.0091633
0.00511302
0.00520692
0.00865033
0.0162715
0.0178661
0.0100484
0.00565912
0.00570968
0.00945254
0.0108559
0.00613665
0.00615713
0.010184
0.0194034
0.0208685
0.0116092
0.00657081
0.00657089
0.0108697
0.0123217
0.00697772
0.00696488
0.0115247
0.022307
0.0237431
0.013003
0.00736445
0.0073411
0.0121579
0.0136707
0.0077377
0.00770565
0.0127791
0.0251956
0.0266843
0.014334
0.00810354
0.00806454
0.0133972
0.0150012
0.00846793
0.00842354
0.0140205
0.0282219
0.0298122
0.0156801
0.00883547
0.00878582
0.0146575
0.0163776
0.00920877
0.00915471
0.0153034
0.0314463
0.0331159
0.0170963
0.00959064
0.00953262
0.0159669
0.0178333
0.00998242
0.00992083
0.0166513
0.0348139
0.0365621
0.0185937
0.0103847
0.0103195
0.0173627
0.0193846
0.0107975
0.0107285
0.018102
0.038386
0.0403086
0.0202079
0.0112218
0.0111492
0.0188737
0.0210693
0.0116606
0.011585
0.0196872
0.042363
0.0445864
0.0219816
0.0121184
0.0120406
0.0205552
0.0229609
0.0126013
0.0125227
0.0214935
0.0470268
0.0497419
0.0240271
0.0131177
0.01304
0.0225214
0.0252045
0.0136782
0.0136042
0.0236621
0.0528001
0.0562792
0.0265222
0.0142963
0.0142291
0.0249424
0.0280127
0.0149881
0.0149317
0.0263844
0.060264
0.0648437
0.0297131
0.0157744
0.0157343
0.0280404
0.0316875
0.0166799
0.016662
0.0299714
0.0702599
0.0767264
0.0339972
0.0177339
0.0177457
0.0322496
0.0367409
0.0189755
0.0190281
0.0349873
0.0846306
0.0945203
0.040065
0.0204592
0.0205677
0.0383485
0.0442143
0.0222841
0.0225046
0.0426143
0.107307
0.124636
0.0495821
0.0246149
0.0250208
0.0482559
0.0569307
0.0277682
0.0284984
0.0562512
0.149715
0.190031
0.0677165
0.032328
0.033834
0.0688024
0.0853625
0.0395503
0.0432811
0.0922251
0.26567
0.583309
0.410328
0.317961
0.261161
0.222352
0.193886
0.171925
0.154437
0.140196
0.128247
0.118012
0.109195
0.101552
0.0948631
0.0889413
0.0836326
0.0788138
0.0743883
0.0702841
0.0664469
0.0628268
0.0587336
0.0537045
0.0490311