/*--------------------------------*- C++ -*----------------------------------*\
| =========                 |                                                 |
| \\      /  F ield         | OpenFOAM: The Open Source CFD Toolbox           |
|  \\    /   O peration     | Version:  v2006                                 |
|   \\  /    A nd           | Website:  www.openfoam.com                      |
|    \\/     M anipulation  |                                                 |
\*---------------------------------------------------------------------------*/
FoamFile
{
    version     2.0;
    format      ascii;
    class       volScalarField;
    location    "0.012";
    object      turbulenceProperties:L;
}
// * * * * * * * * * * * * * * * * * * * * * * * * * * * * * * * * * * * * * //

dimensions      [0 1 0 0 0 0 0];


internalField   nonuniform List<scalar> 
9148
(
1999.95
1999.97
1999.98
1999.98
1999.96
1999.77
1998.94
1997.49
1995.79
1994.28
1993
1991.93
1990.96
1990.05
1989.16
1988.3
1987.45
1986.63
1985.83
1985.06
1984.31
1983.59
1982.9
1982.23
1981.59
1980.97
1980.39
1979.84
1979.33
1978.85
1978.41
1978.01
1977.66
1977.35
1977.1
1976.89
1976.73
1976.63
1976.59
1976.61
1976.68
1976.82
1977.03
1977.3
1977.63
1978.04
1978.49
1978.65
1976.03
1954.56
1887.24
1701.17
1281.3
650.203
270.138
117.367
57.6745
31.2425
15.21
6.80378
3.66274
2.44507
1.98853
2.13083
3.00125
0.909288
0.333367
0.0963411
0.0251632
0.00316148
0.00059017
4.25187e-05
4.15645e-05
0.000294467
0.00125004
0.000821709
0.000226977
4.07331e-05
4.00059e-05
0.000201148
0.000663726
0.000576599
0.000189997
3.99471e-05
3.95901e-05
0.000179117
0.000523844
0.000481384
0.000173912
3.94595e-05
3.92303e-05
0.000168492
0.000460372
0.00043804
0.000165075
3.90738e-05
3.90065e-05
0.000164058
0.000428228
0.000412106
0.000161005
3.89468e-05
3.88975e-05
0.000160747
0.000407593
0.00039594
0.000158136
3.88393e-05
3.87981e-05
0.000158055
0.000392778
0.000383337
0.000155713
3.87458e-05
3.87088e-05
0.00015564
0.000380869
0.00037268
0.000153522
3.8661e-05
3.86269e-05
0.000153386
0.000370681
0.000363337
0.000151477
3.85825e-05
3.85506e-05
0.000151326
0.000361712
0.000355015
0.000149602
3.8509e-05
3.84789e-05
0.000149452
0.000353706
0.000347568
0.000147894
3.84393e-05
3.84104e-05
0.000147757
0.000346511
0.000340887
0.000146334
3.83719e-05
3.83436e-05
0.000146216
0.000340012
0.000334853
0.000144894
3.83054e-05
3.82769e-05
0.000144795
0.000334115
0.000329337
0.000143539
3.8238e-05
3.82087e-05
0.000143457
0.000328697
0.000324212
0.000142234
3.81685e-05
3.81378e-05
0.000142165
0.00032363
0.000319353
0.000140948
3.80954e-05
3.80628e-05
0.000140887
0.000318795
0.00031465
0.000139658
3.80179e-05
3.7983e-05
0.000139605
0.000314091
0.000309999
0.000138357
3.79351e-05
3.78978e-05
0.000138313
0.000309459
0.000305426
0.00013705
3.78467e-05
3.78067e-05
0.000137019
0.000304912
0.000300931
0.000135746
3.77522e-05
3.77092e-05
0.000135726
0.000300416
0.000296468
0.000134446
3.76509e-05
3.76045e-05
0.000134431
0.000295926
0.000291999
0.000133141
3.75417e-05
3.74913e-05
0.000133129
0.000291417
0.000287511
0.00013183
3.74232e-05
3.7368e-05
0.000131819
0.000286886
0.000283006
0.000130508
3.72935e-05
3.72326e-05
0.000130498
0.000282342
0.000278481
0.000129173
3.71503e-05
3.70824e-05
0.000129163
0.000277785
0.000273936
0.000127815
3.69905e-05
3.6914e-05
0.0001278
0.000273201
0.000269317
0.00012641
3.68104e-05
3.67231e-05
0.000126374
0.000268512
0.000264531
0.000124921
3.66047e-05
3.65038e-05
0.000124859
0.000263633
0.000259493
0.00012332
3.63666e-05
3.62484e-05
0.000123208
0.000258463
0.000254069
0.00012155
3.60869e-05
3.59458e-05
0.000121355
0.000252859
0.000248085
0.000119535
3.57519e-05
3.5579e-05
0.000119203
0.000246625
0.0002414
0.000117165
3.53404e-05
3.51202e-05
0.000116599
0.000239495
0.000233549
0.000114273
3.48174e-05
3.45194e-05
0.00011319
0.000230912
0.000223814
0.000110464
3.41152e-05
3.36806e-05
0.000108586
0.000219883
0.000211146
0.000105076
3.30936e-05
3.23912e-05
0.000101852
0.000204402
0.000193136
9.67589e-05
3.13824e-05
3.00713e-05
9.05566e-05
0.000180917
0.000164412
8.17465e-05
2.82659e-05
2.24566e-05
6.29601e-05
0.000137993
9.98953e-05
4.11257e-05
1.9101e-05
2.34616e-05
5.28342e-05
7.98105e-05
9.17713e-05
8.69062e-05
2.60164e-05
2.67207e-05
0.000118458
0.000147207
0.000185521
0.000145102
2.64913e-05
2.30295e-05
0.000162659
0.000228164
0.000252623
0.000123295
1.50313e-05
9.9224e-06
6.33383e-05
0.000137186
0.000104955
3.89979e-05
7.5909e-06
6.54427e-06
3.24317e-05
8.90506e-05
8.56474e-05
2.87962e-05
8.36737e-06
1.16006e-05
3.63343e-05
0.000109189
0.000121077
3.93483e-05
1.38684e-05
1.54751e-05
5.07439e-05
0.00016811
0.000190435
5.64687e-05
1.5955e-05
1.60459e-05
6.38369e-05
0.000209081
0.000202797
6.28821e-05
1.52023e-05
1.42788e-05
6.1644e-05
0.000191841
0.00016304
5.4799e-05
1.31202e-05
1.23627e-05
5.14776e-05
0.00015083
0.000135646
4.65452e-05
1.18586e-05
1.17259e-05
4.38792e-05
0.000129006
0.000126999
4.22774e-05
1.20545e-05
1.25606e-05
4.16078e-05
0.000126304
0.000131647
4.1803e-05
1.31853e-05
1.38485e-05
4.25956e-05
0.000135984
0.000146373
4.40467e-05
1.45025e-05
1.51036e-05
4.55335e-05
0.000153668
0.000168411
4.7625e-05
1.56286e-05
1.60575e-05
4.94135e-05
0.000176683
0.000194746
5.18674e-05
1.63898e-05
1.65914e-05
5.31754e-05
0.000201395
0.000219461
5.51528e-05
1.66813e-05
1.66973e-05
5.54642e-05
0.000224523
0.000240092
5.80754e-05
1.65712e-05
1.63136e-05
5.77497e-05
0.000244086
0.000258614
6.07405e-05
1.5947e-05
1.5457e-05
6.06332e-05
0.000260451
0.000273478
6.45741e-05
1.48711e-05
1.41565e-05
6.43852e-05
0.000273562
0.000284485
6.75931e-05
1.33552e-05
1.24126e-05
6.44028e-05
0.000278007
0.000284037
6.51291e-05
1.13879e-05
1.02148e-05
5.95473e-05
0.000270812
0.000270519
5.84827e-05
8.97271e-06
7.61755e-06
4.96255e-05
0.000241778
0.00022748
4.62773e-05
6.37112e-06
5.01525e-06
3.56832e-05
0.000182298
0.000156961
3.23282e-05
4.0019e-06
2.49027e-06
2.04491e-05
9.57575e-05
6.58072e-05
1.78292e-05
1.39604e-06
1.52211e-06
3.5285e-05
4.81771e-05
6.28053e-05
8.03917e-05
8.99743e-05
0.000102345
0.000108882
0.000116559
0.000121547
0.000126716
0.000131107
0.000135475
0.000139196
0.000142207
0.00014451
0.000146701
0.000147921
0.000147845
0.000147843
0.000145038
0.000143699
0.00013335
3.96354e-05
6.75288e-06
6.91162e-06
5.34522e-06
3.25996e-06
1.7272e-06
2.52223e-07
1.13528e-07
3.327e-07
1.95497e-06
1.65061e-06
2.25704e-07
6.60474e-08
1.66339e-07
4.82804e-07
3.07689e-06
6.61856e-06
7.5949e-07
2.08845e-07
3.10701e-07
1.20226e-06
1.14659e-05
1.63193e-05
1.64735e-06
3.15845e-07
3.97243e-07
3.20636e-06
3.06577e-05
4.01378e-05
4.97341e-06
4.77429e-07
5.89306e-07
8.18469e-06
4.97215e-05
4.69836e-05
8.92258e-06
6.6627e-07
7.47804e-07
1.07071e-05
4.79334e-05
4.07171e-05
1.00152e-05
7.76461e-07
7.15788e-07
8.91962e-06
3.49229e-05
2.96488e-05
7.41231e-06
6.15763e-07
5.30634e-07
7.84607e-06
3.13497e-05
3.19367e-05
7.93424e-06
4.89385e-07
4.49106e-07
8.87505e-06
3.61645e-05
3.68649e-05
8.89996e-06
4.92952e-07
7.94989e-07
1.0544e-05
4.24273e-05
4.35004e-05
1.0973e-05
1.09969e-06
1.5492e-06
1.33623e-05
5.01786e-05
5.11861e-05
1.38865e-05
1.93022e-06
2.39258e-06
1.63531e-05
5.84979e-05
5.90746e-05
1.66434e-05
2.77165e-06
3.22027e-06
1.91941e-05
6.65965e-05
6.677e-05
1.93472e-05
3.57706e-06
3.99383e-06
2.19323e-05
7.42787e-05
7.39439e-05
2.1839e-05
4.33451e-06
4.74488e-06
2.46496e-05
8.19912e-05
8.17499e-05
2.44857e-05
5.08716e-06
5.52005e-06
2.78078e-05
9.09614e-05
9.13313e-05
2.79465e-05
5.8895e-06
6.29701e-06
3.29895e-05
0.000103839
0.000104387
3.3501e-05
6.52341e-06
6.93084e-06
3.96889e-05
0.000119709
0.000120108
4.02737e-05
7.27161e-06
7.85032e-06
4.7045e-05
0.000137561
0.000139676
4.9238e-05
8.42794e-06
9.33333e-06
5.8389e-05
0.000159293
0.000162412
6.15325e-05
1.02065e-05
1.16219e-05
7.21317e-05
0.0001815
0.000186291
7.46209e-05
1.35767e-05
1.00559e-05
8.52034e-05
0.000191863
7.93776e-05
2.55979e-05
4.838e-06
8.48819e-06
7.27895e-05
0.000184119
0.00020152
8.0484e-05
1.08709e-05
1.38107e-05
9.8367e-05
0.000238261
0.000259357
0.000109318
1.63693e-05
1.16612e-05
0.000100773
0.00023876
0.000157472
6.00051e-05
5.93642e-06
1.20007e-05
9.60714e-05
0.000227476
0.000335201
0.000137728
1.73289e-05
1.16554e-05
5.94915e-05
0.000141429
0.000192612
8.07132e-05
9.94775e-06
1.84024e-05
0.00014226
0.000332237
0.000254614
0.000163173
1.71746e-05
8.67343e-06
3.3865e-05
8.96195e-05
0.000180534
9.18664e-05
1.18497e-05
1.60719e-05
9.23183e-05
0.00019473
0.000275255
7.95678e-05
1.70163e-05
1.33027e-05
2.38971e-05
5.47446e-05
6.71239e-05
3.08399e-05
1.10641e-05
1.91723e-05
6.05971e-05
0.000106739
8.25193e-05
4.53798e-05
1.94296e-05
1.09919e-05
1.98722e-05
3.5859e-05
5.85558e-05
4.30319e-05
1.18835e-05
1.20558e-05
2.24217e-05
3.8112e-05
6.08852e-05
4.60543e-05
1.31077e-05
1.35298e-05
2.45047e-05
4.08811e-05
6.50318e-05
4.42573e-05
1.53284e-05
1.70412e-05
3.88403e-05
6.03747e-05
3.27269e-05
1.78384e-05
9.88056e-06
1.11572e-05
4.28808e-05
5.25825e-05
3.62076e-05
2.19308e-05
1.20227e-05
1.41007e-05
4.16385e-05
5.90682e-05
5.52496e-05
3.6766e-05
1.5966e-05
9.33465e-06
1.6434e-05
3.04899e-05
4.85617e-05
4.07059e-05
1.02343e-05
1.10255e-05
1.99234e-05
3.29752e-05
5.25977e-05
4.30291e-05
1.18869e-05
1.26716e-05
2.13653e-05
3.5589e-05
5.6439e-05
3.8746e-05
1.3994e-05
1.57871e-05
3.31948e-05
5.19844e-05
2.77316e-05
1.50812e-05
9.02661e-06
9.70432e-06
3.74806e-05
4.4503e-05
2.97983e-05
1.83184e-05
1.05379e-05
1.08292e-05
3.95928e-05
4.62401e-05
3.09075e-05
1.92495e-05
1.15338e-05
1.15935e-05
3.8573e-05
4.80425e-05
3.17484e-05
1.94288e-05
1.21465e-05
1.22772e-05
3.82545e-05
4.93746e-05
3.29345e-05
2.01656e-05
1.30338e-05
1.40394e-05
3.50147e-05
5.29724e-05
4.83754e-05
3.01524e-05
1.59143e-05
9.11903e-06
1.49794e-05
2.59267e-05
4.01302e-05
3.42028e-05
9.58649e-06
1.05386e-05
1.75903e-05
2.71567e-05
4.16458e-05
3.59327e-05
1.06299e-05
1.13391e-05
1.82007e-05
2.78839e-05
4.30362e-05
3.42165e-05
1.11393e-05
1.17183e-05
1.82879e-05
2.86013e-05
4.36178e-05
3.45226e-05
1.12372e-05
1.18619e-05
1.8272e-05
2.87204e-05
4.33785e-05
3.44106e-05
1.14513e-05
1.1916e-05
1.84341e-05
2.86848e-05
4.32616e-05
3.389e-05
1.14668e-05
1.21683e-05
1.84915e-05
2.87532e-05
4.29585e-05
3.42806e-05
1.1694e-05
1.21777e-05
1.84502e-05
2.85798e-05
4.24317e-05
3.35918e-05
1.15445e-05
1.21827e-05
1.84268e-05
2.84184e-05
4.19595e-05
3.35948e-05
1.16891e-05
1.21784e-05
1.82603e-05
2.80197e-05
4.12891e-05
3.29428e-05
1.1521e-05
1.21013e-05
1.8145e-05
2.76128e-05
4.05183e-05
3.26307e-05
1.14924e-05
1.19892e-05
1.7836e-05
2.71019e-05
3.97077e-05
3.18618e-05
1.13089e-05
1.18916e-05
1.76331e-05
2.65632e-05
3.85456e-05
3.14564e-05
1.1176e-05
1.15998e-05
1.69516e-05
2.56726e-05
3.62352e-05
3.08725e-05
1.04638e-05
1.0598e-05
1.54782e-05
2.34989e-05
3.09833e-05
1.88041e-05
9.6795e-06
1.64887e-05
2.99041e-05
4.71516e-05
3.17457e-05
2.1211e-05
1.52641e-05
1.33007e-05
3.78573e-05
4.41625e-05
3.02466e-05
2.0483e-05
1.35025e-05
1.26645e-05
3.63451e-05
4.32725e-05
2.92736e-05
1.95417e-05
1.30318e-05
1.21435e-05
3.47074e-05
4.16856e-05
2.8149e-05
1.88521e-05
1.26369e-05
1.20413e-05
3.26949e-05
4.01123e-05
2.71941e-05
1.83422e-05
1.2497e-05
1.15128e-05
3.22893e-05
3.84615e-05
2.56705e-05
1.7159e-05
1.17982e-05
1.06469e-05
3.06244e-05
3.56727e-05
2.33202e-05
1.56365e-05
1.08319e-05
9.87882e-06
1.8746e-05
3.0156e-05
4.52527e-05
2.88983e-05
1.66324e-05
1.55122e-05
2.11566e-05
3.08221e-05
4.26862e-05
3.67893e-05
1.36543e-05
1.3744e-05
2.04148e-05
2.93623e-05
4.17286e-05
3.55592e-05
1.28352e-05
1.31588e-05
1.93671e-05
2.82834e-05
3.99415e-05
3.41108e-05
1.22194e-05
1.25469e-05
1.81559e-05
2.68567e-05
3.70699e-05
3.20172e-05
1.13821e-05
1.14766e-05
1.64539e-05
2.42911e-05
3.12212e-05
1.97374e-05
1.03825e-05
1.72381e-05
3.01445e-05
4.5687e-05
3.14967e-05
2.18611e-05
1.59894e-05
1.39164e-05
3.71319e-05
4.24488e-05
2.94989e-05
2.05956e-05
1.40056e-05
1.299e-05
3.48809e-05
4.08924e-05
2.81343e-05
1.94368e-05
1.32777e-05
1.23683e-05
3.31629e-05
3.88688e-05
2.65409e-05
1.81894e-05
1.26424e-05
1.13414e-05
3.15687e-05
3.58008e-05
2.3763e-05
1.62921e-05
1.12983e-05
1.03591e-05
1.94424e-05
3.01585e-05
4.38812e-05
2.90462e-05
1.7122e-05
1.59731e-05
2.16474e-05
3.05376e-05
4.1372e-05
3.61046e-05
1.41709e-05
1.42524e-05
2.06535e-05
2.88854e-05
4.03146e-05
3.48045e-05
1.32548e-05
1.3413e-05
1.92437e-05
2.7604e-05
3.74082e-05
3.30878e-05
1.21301e-05
1.21202e-05
1.73533e-05
2.49945e-05
3.1869e-05
2.0557e-05
1.10198e-05
1.79771e-05
3.07285e-05
4.58015e-05
3.20275e-05
2.27694e-05
1.6786e-05
1.46791e-05
3.76068e-05
4.24903e-05
2.97587e-05
2.13058e-05
1.46859e-05
1.36975e-05
3.54216e-05
4.08044e-05
2.84506e-05
2.01029e-05
1.39767e-05
1.30978e-05
3.33023e-05
3.89256e-05
2.69426e-05
1.89288e-05
1.33484e-05
1.2157e-05
3.20327e-05
3.60504e-05
2.44419e-05
1.71617e-05
1.21419e-05
1.11197e-05
2.02449e-05
3.05498e-05
4.40168e-05
2.96789e-05
1.81359e-05
1.69843e-05
2.2707e-05
3.1094e-05
4.14622e-05
3.66135e-05
1.50268e-05
1.50978e-05
2.1562e-05
2.93959e-05
4.06251e-05
3.51167e-05
1.4147e-05
1.44145e-05
2.0498e-05
2.8524e-05
3.91095e-05
3.33712e-05
1.35713e-05
1.37853e-05
1.93574e-05
2.72354e-05
3.64135e-05
3.19783e-05
1.26728e-05
1.26115e-05
1.76614e-05
2.48496e-05
3.12324e-05
2.07847e-05
1.14769e-05
1.83249e-05
3.00989e-05
4.36435e-05
3.11627e-05
2.29359e-05
1.70705e-05
1.52409e-05
3.62355e-05
4.11076e-05
2.94643e-05
2.16437e-05
1.52798e-05
1.43606e-05
3.44083e-05
3.9788e-05
2.83385e-05
2.05758e-05
1.45751e-05
1.37732e-05
3.29594e-05
3.82877e-05
2.71944e-05
1.96263e-05
1.40734e-05
1.30783e-05
3.16616e-05
3.61805e-05
2.52283e-05
1.81252e-05
1.30044e-05
1.20843e-05
2.12197e-05
3.14779e-05
4.40044e-05
3.04106e-05
1.92015e-05
1.79828e-05
2.38928e-05
3.16254e-05
4.2475e-05
3.69694e-05
1.62683e-05
1.62892e-05
2.29215e-05
3.06059e-05
4.19566e-05
3.58148e-05
1.56113e-05
1.58261e-05
2.21609e-05
3.00132e-05
4.10734e-05
3.50314e-05
1.51371e-05
1.54605e-05
2.14541e-05
2.92972e-05
4.00638e-05
3.36304e-05
1.48626e-05
1.5272e-05
2.12685e-05
2.88382e-05
3.9265e-05
3.30777e-05
1.47924e-05
1.50946e-05
2.09721e-05
2.8448e-05
3.85009e-05
3.28156e-05
1.45917e-05
1.4888e-05
2.0458e-05
2.78446e-05
3.75759e-05
3.19058e-05
1.43299e-05
1.47265e-05
2.03395e-05
2.74695e-05
3.69507e-05
3.14169e-05
1.42896e-05
1.45701e-05
2.0052e-05
2.71291e-05
3.61809e-05
3.1446e-05
1.39822e-05
1.41506e-05
1.91719e-05
2.63538e-05
3.43611e-05
3.0208e-05
1.33182e-05
1.33053e-05
1.81935e-05
2.49101e-05
3.02861e-05
2.12879e-05
1.25235e-05
1.9762e-05
2.91531e-05
4.18024e-05
3.08836e-05
2.42598e-05
1.86023e-05
1.71982e-05
3.62097e-05
4.15201e-05
3.07303e-05
2.45218e-05
1.75633e-05
1.83545e-05
3.3342e-05
4.52842e-05
4.16326e-05
3.00458e-05
1.98934e-05
1.27101e-05
1.90451e-05
2.62026e-05
3.50755e-05
3.30339e-05
1.30699e-05
1.38858e-05
2.00322e-05
2.62051e-05
3.62929e-05
3.046e-05
1.42289e-05
1.48241e-05
2.00911e-05
2.68735e-05
3.64537e-05
3.02038e-05
1.48133e-05
1.51014e-05
2.01983e-05
2.69726e-05
3.64083e-05
3.05757e-05
1.49351e-05
1.54747e-05
2.0841e-05
2.73344e-05
3.69141e-05
3.08579e-05
1.54907e-05
1.59214e-05
2.1397e-05
2.77771e-05
3.75859e-05
3.20497e-05
1.57839e-05
1.6501e-05
2.21888e-05
2.81059e-05
4.1044e-05
2.99585e-05
1.77665e-05
1.94823e-05
2.7873e-05
3.8229e-05
2.49671e-05
1.88463e-05
1.2721e-05
1.3461e-05
3.08806e-05
3.38408e-05
2.5995e-05
2.03696e-05
1.44979e-05
1.54821e-05
2.97904e-05
3.60068e-05
2.74137e-05
2.20517e-05
1.64543e-05
1.8128e-05
2.98554e-05
4.10591e-05
3.8741e-05
2.83569e-05
2.04303e-05
1.41667e-05
2.00668e-05
2.56273e-05
3.82373e-05
2.99638e-05
1.63069e-05
1.90904e-05
2.88964e-05
3.75594e-05
2.5642e-05
1.98609e-05
1.39139e-05
1.67204e-05
3.09194e-05
3.85704e-05
3.7149e-05
2.83113e-05
2.06076e-05
1.67211e-05
2.83689e-05
3.55832e-05
2.35622e-05
1.75949e-05
1.25818e-05
1.61415e-05
2.77455e-05
3.62887e-05
3.60658e-05
2.68959e-05
2.00972e-05
1.8954e-05
2.64548e-05
3.39934e-05
3.34655e-05
2.55946e-05
1.84114e-05
1.86045e-05
2.53759e-05
3.35174e-05
3.37388e-05
2.52623e-05
1.88354e-05
1.89e-05
2.61928e-05
3.38979e-05
3.43809e-05
2.68092e-05
1.88828e-05
1.8843e-05
2.7442e-05
3.45842e-05
3.56695e-05
2.86317e-05
1.8766e-05
1.86842e-05
2.90713e-05
3.60638e-05
3.73182e-05
3.03802e-05
1.86134e-05
1.85209e-05
3.07588e-05
3.79727e-05
3.92473e-05
3.20824e-05
1.84314e-05
1.83438e-05
3.22655e-05
4.04907e-05
4.18309e-05
3.32555e-05
1.82551e-05
1.81687e-05
3.32972e-05
4.34457e-05
4.46733e-05
3.42005e-05
1.80832e-05
1.80008e-05
3.4247e-05
4.62094e-05
4.73574e-05
3.52205e-05
1.79225e-05
1.7848e-05
3.53052e-05
4.88188e-05
4.9932e-05
3.6363e-05
1.77808e-05
1.77176e-05
3.64952e-05
5.1322e-05
5.23754e-05
3.76721e-05
1.76646e-05
1.76142e-05
3.78378e-05
5.35775e-05
5.46167e-05
3.91017e-05
1.7577e-05
1.75381e-05
3.92856e-05
5.56866e-05
5.67496e-05
4.06487e-05
1.75172e-05
1.74852e-05
4.08361e-05
5.76956e-05
5.87903e-05
4.22225e-05
1.74842e-05
1.7461e-05
4.23905e-05
5.96413e-05
6.07882e-05
4.38013e-05
1.74677e-05
1.74543e-05
4.39301e-05
6.15308e-05
6.27041e-05
4.5305e-05
1.74642e-05
1.74555e-05
4.53557e-05
6.33279e-05
6.4534e-05
4.66879e-05
1.74675e-05
1.74615e-05
4.66612e-05
6.50196e-05
6.62324e-05
4.79032e-05
1.74747e-05
1.74696e-05
4.77862e-05
6.66176e-05
6.78621e-05
4.89566e-05
1.74846e-05
1.74799e-05
4.87831e-05
6.81396e-05
6.94038e-05
4.98457e-05
1.74955e-05
1.74912e-05
4.96074e-05
6.96057e-05
7.09363e-05
5.06087e-05
1.75075e-05
1.75036e-05
5.03488e-05
7.10303e-05
7.23956e-05
5.12642e-05
1.75205e-05
1.7517e-05
5.09596e-05
7.24179e-05
7.38088e-05
5.1841e-05
1.75344e-05
1.75314e-05
5.15254e-05
7.37838e-05
7.51406e-05
5.23365e-05
1.75492e-05
1.75465e-05
5.19781e-05
7.50921e-05
7.64419e-05
5.27761e-05
1.75644e-05
1.7562e-05
5.24077e-05
7.63448e-05
7.76832e-05
5.31503e-05
1.75798e-05
1.75776e-05
5.27387e-05
7.75423e-05
7.88951e-05
5.34833e-05
1.75952e-05
1.75932e-05
5.3064e-05
7.86952e-05
8.00297e-05
5.37608e-05
1.76103e-05
1.76085e-05
5.33e-05
7.97919e-05
8.11341e-05
5.40071e-05
1.7625e-05
1.76233e-05
5.35423e-05
8.08407e-05
8.21571e-05
5.4205e-05
1.76392e-05
1.76375e-05
5.37018e-05
8.18304e-05
8.31477e-05
5.43799e-05
1.76528e-05
1.76511e-05
5.38761e-05
8.2768e-05
8.40541e-05
5.45147e-05
1.76657e-05
1.76641e-05
5.39754e-05
8.36475e-05
8.49257e-05
5.46348e-05
1.76779e-05
1.76763e-05
5.40952e-05
8.44728e-05
8.57131e-05
5.47265e-05
1.76895e-05
1.76879e-05
5.41484e-05
8.52421e-05
8.64734e-05
5.47984e-05
1.77004e-05
1.76989e-05
5.42204e-05
8.5951e-05
8.71591e-05
5.48422e-05
1.77107e-05
1.77092e-05
5.42265e-05
8.65963e-05
8.78004e-05
5.48679e-05
1.77203e-05
1.77189e-05
5.42535e-05
8.71793e-05
8.83503e-05
5.48657e-05
1.77293e-05
1.77278e-05
5.42138e-05
8.77e-05
8.88774e-05
5.48466e-05
1.77376e-05
1.77361e-05
5.42022e-05
8.81849e-05
8.93026e-05
5.48053e-05
1.77453e-05
1.77438e-05
5.41302e-05
8.85959e-05
8.97014e-05
5.47542e-05
1.77524e-05
1.77508e-05
5.40877e-05
8.89481e-05
9.00155e-05
5.46828e-05
1.77589e-05
1.77573e-05
5.39892e-05
8.92569e-05
9.03109e-05
5.46058e-05
1.77648e-05
1.77632e-05
5.39242e-05
8.95132e-05
9.05327e-05
5.45122e-05
1.77702e-05
1.77686e-05
5.38076e-05
8.97361e-05
9.07465e-05
5.44178e-05
1.77752e-05
1.77736e-05
5.37282e-05
8.99161e-05
9.08961e-05
5.43106e-05
1.77798e-05
1.77781e-05
5.36017e-05
9.00734e-05
9.10478e-05
5.4207e-05
1.7784e-05
1.77824e-05
5.35162e-05
9.01957e-05
9.11431e-05
5.40939e-05
1.7788e-05
1.77863e-05
5.33862e-05
9.03055e-05
9.12439e-05
5.3987e-05
1.77917e-05
1.77901e-05
5.32988e-05
9.03873e-05
9.12917e-05
5.38722e-05
1.77952e-05
1.77936e-05
5.31687e-05
9.04592e-05
9.1379e-05
5.37665e-05
1.77985e-05
1.77969e-05
5.30838e-05
9.05163e-05
9.13907e-05
5.36546e-05
1.78017e-05
1.78001e-05
5.29576e-05
9.0554e-05
9.1453e-05
5.3553e-05
1.78047e-05
1.78032e-05
5.28769e-05
9.05845e-05
9.14378e-05
5.34458e-05
1.78077e-05
1.78061e-05
5.27558e-05
9.05968e-05
9.14773e-05
5.33497e-05
1.78105e-05
1.7809e-05
5.26809e-05
9.06048e-05
9.14424e-05
5.32486e-05
1.78133e-05
1.78118e-05
5.25665e-05
9.05976e-05
9.14667e-05
5.31591e-05
1.78159e-05
1.78144e-05
5.24973e-05
9.05878e-05
9.14192e-05
5.3064e-05
1.78185e-05
1.7817e-05
5.23891e-05
9.05642e-05
9.14349e-05
5.29814e-05
1.7821e-05
1.78196e-05
5.2326e-05
9.05412e-05
9.13807e-05
5.28936e-05
1.78235e-05
1.7822e-05
5.22242e-05
9.05074e-05
9.13903e-05
5.2819e-05
1.78259e-05
1.78245e-05
5.21672e-05
9.04764e-05
9.13281e-05
5.27372e-05
1.78283e-05
1.78268e-05
5.20716e-05
9.04366e-05
9.13315e-05
5.26686e-05
1.78306e-05
1.78292e-05
5.20203e-05
9.04008e-05
9.12632e-05
5.25925e-05
1.78329e-05
1.78315e-05
5.19306e-05
9.03565e-05
9.1262e-05
5.25295e-05
1.78351e-05
1.78337e-05
5.18847e-05
9.03172e-05
9.11893e-05
5.24587e-05
1.78373e-05
1.78359e-05
5.18004e-05
9.02698e-05
9.11848e-05
5.2401e-05
1.78394e-05
1.7838e-05
5.17594e-05
9.02279e-05
9.11088e-05
5.23349e-05
1.78415e-05
1.78401e-05
5.16799e-05
9.01783e-05
9.11019e-05
5.22819e-05
1.78435e-05
1.78421e-05
5.16434e-05
9.01347e-05
9.10236e-05
5.22204e-05
1.78455e-05
1.78441e-05
5.15687e-05
9.00839e-05
9.10154e-05
5.2172e-05
1.78474e-05
1.7846e-05
5.15367e-05
9.00399e-05
9.09362e-05
5.2115e-05
1.78493e-05
1.78479e-05
5.14667e-05
8.99907e-05
9.09256e-05
5.20711e-05
1.78511e-05
1.78498e-05
5.14392e-05
8.9948e-05
9.0846e-05
5.20187e-05
1.78529e-05
1.78516e-05
5.13739e-05
8.99004e-05
9.08364e-05
5.19795e-05
1.78547e-05
1.78534e-05
5.13509e-05
8.98596e-05
9.07589e-05
5.19316e-05
1.78565e-05
1.78551e-05
5.12903e-05
8.98145e-05
9.07522e-05
5.18971e-05
1.78582e-05
1.78569e-05
5.12719e-05
8.97767e-05
9.06777e-05
5.18537e-05
1.786e-05
1.78587e-05
5.12157e-05
8.97349e-05
9.06742e-05
5.18234e-05
1.78618e-05
1.78605e-05
5.1201e-05
8.97002e-05
9.06025e-05
5.17837e-05
1.78635e-05
1.78623e-05
5.11481e-05
8.966e-05
9.0601e-05
5.17563e-05
1.78653e-05
1.7864e-05
5.1136e-05
8.96269e-05
9.05307e-05
5.17189e-05
1.78671e-05
1.78658e-05
5.1085e-05
8.95871e-05
9.05296e-05
5.16932e-05
1.78689e-05
1.78676e-05
5.10741e-05
8.95542e-05
9.04588e-05
5.16569e-05
1.78706e-05
1.78693e-05
5.10243e-05
8.95138e-05
9.04568e-05
5.16323e-05
1.78723e-05
1.7871e-05
5.10145e-05
8.948e-05
9.03851e-05
5.15973e-05
1.7874e-05
1.78727e-05
5.09663e-05
8.94391e-05
9.03829e-05
5.15746e-05
1.78756e-05
1.78743e-05
5.09586e-05
8.94057e-05
9.0312e-05
5.15419e-05
1.78772e-05
1.78759e-05
5.09128e-05
8.9366e-05
9.03109e-05
5.15214e-05
1.78788e-05
1.78775e-05
5.09072e-05
8.93336e-05
9.02408e-05
5.14907e-05
1.78804e-05
1.78791e-05
5.08632e-05
8.92947e-05
9.02402e-05
5.14718e-05
1.7882e-05
1.78807e-05
5.08588e-05
8.92625e-05
9.01697e-05
5.14421e-05
1.78835e-05
1.78823e-05
5.08156e-05
8.9223e-05
9.0168e-05
5.14239e-05
1.78851e-05
1.78838e-05
5.08115e-05
8.91893e-05
9.00955e-05
5.13943e-05
1.78865e-05
1.78853e-05
5.07682e-05
8.91474e-05
9.00908e-05
5.1376e-05
1.7888e-05
1.78867e-05
5.07533e-05
8.91015e-05
9.00267e-05
5.13476e-05
1.78893e-05
1.78879e-05
5.07347e-05
8.90796e-05
8.99912e-05
5.13524e-05
1.79019e-05
1.79114e-05
5.07337e-05
8.90698e-05
8.99826e-05
5.13023e-05
1.79138e-05
1.79232e-05
5.07186e-05
8.9044e-05
9.00487e-05
5.1361e-05
1.79658e-05
1.79981e-05
5.08209e-05
8.91199e-05
9.07765e-05
5.17936e-05
1.81098e-05
1.82142e-05
5.13491e-05
8.99004e-05
9.22269e-05
5.26318e-05
1.84228e-05
1.86146e-05
5.24193e-05
9.16169e-05
9.47945e-05
5.39503e-05
1.92493e-05
2.02135e-05
5.6825e-05
0.000101271
0.000106754
5.97654e-05
2.1178e-05
0.000205666
0.00036245
0.000528979
0.000571642
0.000830344
0.00117782
0.00145145
0.00154944
0.00203076
0.00264727
0.00320143
0.00385395
0.00470143
0.00592517
0.00784125
0.0108258
0.015301
0.0215864
0.0299203
0.0404154
0.0530694
0.0677499
0.0842191
0.102084
0.120909
0.139879
0.158325
0.174794
0.18854
0.198558
0.204865
0.207854
0.210529
0.215316
0.222029
0.230445
0.240266
0.251508
0.264041
0.278185
0.294198
0.312679
0.334397
0.36183
0.400035
0.459388
0.561476
0.745709
1.07956
1.68516
2.80546
4.96146
9.30953
18.2464
34.6847
58.8219
83.071
98.9915
106.675
110.042
111.676
112.835
113.972
115.095
116.235
117.409
118.64
119.947
121.354
122.881
124.548
126.377
128.391
130.615
133.084
135.832
138.896
142.309
146.101
150.305
154.961
160.118
165.827
172.133
179.067
186.662
194.96
204.019
213.893
224.624
236.234
248.752
262.222
276.703
292.24
308.852
326.552
345.368
365.342
386.506
408.869
432.437
457.211
483.182
510.35
538.702
568.207
598.808
630.48
663.186
696.845
731.388
766.741
802.829
839.547
876.804
914.508
952.545
990.821
1029.23
1067.66
1106.01
1144.2
1182.11
1219.69
1256.86
1293.59
1329.87
1365.72
1401.19
1436.36
1471.29
1506.04
1540.6
1574.9
1608.77
1641.99
1674.21
1705.18
1734.81
1762.92
1789.48
1814.57
1838.28
1860.73
1881.96
1901.92
1920.51
1937.56
1952.98
1966.64
1978.51
1988.19
1995.15
1998.65
1999.78
1999.92
1999.89
1999.54
1998.13
1994.79
1989.39
1982.89
1976.64
1971.25
1966.6
1962.41
1958.46
1954.63
1950.88
1947.2
1943.61
1940.12
1936.76
1933.52
1930.4
1927.42
1924.56
1921.85
1919.27
1916.83
1914.54
1912.4
1910.42
1908.61
1906.97
1905.51
1904.24
1903.16
1902.29
1901.63
1901.19
1900.97
1901
1901.26
1901.77
1902.49
1903.28
1903.56
1900.92
1887.29
1835.94
1680.92
1340.78
841.946
409.115
169.453
66.8847
26.8113
10.9939
4.60571
1.96604
0.874629
0.432339
0.253374
0.172577
0.116073
0.0535446
0.0145782
0.00649338
0.00225079
0.00193466
0.00178947
0.00161801
0.00154273
0.00143432
0.00138965
0.00131272
0.00128333
0.001225
0.00120315
0.00115715
0.00114007
0.00110213
0.00108828
0.00105587
0.00104441
0.00101615
0.00100659
0.000981665
0.000973597
0.000951462
0.000944555
0.000924798
0.000918816
0.000900966
0.000895691
0.000879327
0.000874574
0.00085933
0.000854935
0.00084049
0.000836326
0.000822444
0.000818412
0.000804896
0.000800902
0.000787576
0.000783546
0.000770285
0.00076618
0.000752925
0.00074874
0.000735501
0.000731252
0.000718065
0.000713756
0.000700614
0.000696205
0.000683014
0.000678418
0.000665008
0.000660136
0.000646315
0.000641019
0.000626513
0.000620617
0.00060511
0.000598402
0.000581542
0.000573718
0.000554994
0.000545548
0.000524083
0.000512117
0.000486724
0.000469941
0.000438417
0.000413046
0.000371875
0.000329228
0.00026733
0.000222726
0.000179371
0.000173717
0.000184887
0.000213067
0.00024357
0.000180441
0.000223112
0.000280849
0.000312759
0.000400971
0.000441948
0.000577016
0.000624901
0.000678926
0.000655938
0.000645384
0.000602637
0.00058026
0.000552154
0.000539511
0.000532094
0.00054044
0.000557282
0.000579872
0.000608827
0.00063494
0.000667066
0.000686094
0.000712156
0.000718009
0.000728612
0.000721816
0.000723063
0.000708429
0.000702856
0.000680829
0.000671443
0.000646933
0.000634153
0.000604063
0.000585934
0.00054619
0.000520148
0.000463759
0.000416819
0.000323935
0.000251457
0.000150192
9.44727e-05
0.000117141
0.000133769
0.000214015
0.00018809
0.000296306
0.000338353
0.000452915
0.000390687
0.000504371
0.000586895
0.000674909
0.000432629
0.000256235
0.000154603
0.000178709
0.000330927
0.000574178
0.000743883
0.000450067
0.000218038
0.000271302
0.000573403
0.00091308
0.000971008
0.00117664
0.000858197
0.000589919
0.000550836
0.000616906
0.000707851
0.000698744
0.000648959
0.000708155
0.000839844
0.00107244
0.00124737
0.000815743
0.000729871
0.000786301
0.000975606
0.000949272
0.000804927
0.000868984
0.00111266
0.001406
0.00152796
0.00108989
0.000891839
0.000961289
0.0012285
0.00121124
0.000981724
0.00104004
0.00132783
0.00162006
0.00169499
0.00130658
0.00105541
0.00110236
0.00140715
0.00137272
0.00110781
0.00114481
0.00146467
0.00175278
0.0017996
0.00141517
0.00113826
0.00115911
0.00149938
0.00143887
0.0011425
0.00114897
0.00150681
0.00181044
0.00176853
0.00143876
0.001122
0.00112043
0.00148765
0.00141862
0.00109381
0.00109572
0.00144779
0.00166152
0.00127138
0.00139398
0.00107979
0.00108291
0.00133033
0.00129763
0.00107576
0.00107394
0.00111237
0.000784381
0.000526961
0.0008734
0.00104549
0.000892272
0.000600416
0.000506207
0.000787159
0.000690399
0.000475965
0.00049047
0.000469932
0.000401807
0.00060088
0.000497172
0.000342635
0.000272211
0.000372113
0.000282904
0.000308839
0.000518717
0.00060855
0.000364849
0.000213285
0.000282937
0.000363832
0.000394169
0.000283223
0.000276833
0.000406087
0.000812309
0.00107276
0.000531103
0.000273878
0.000285331
0.000525154
0.000715052
0.000344563
0.000390921
0.000701911
0.00134403
0.00162417
0.000921464
0.00049269
0.000544485
0.000902472
0.0011247
0.000654198
0.000698365
0.00109227
0.00188261
0.00211759
0.00129734
0.000785372
0.000813093
0.00124769
0.00143952
0.000885853
0.000901548
0.00137554
0.00233132
0.00253492
0.00156058
0.000965507
0.00097373
0.0014845
0.00166757
0.00103206
0.00103514
0.00158065
0.00272915
0.00291129
0.00176442
0.00109004
0.00108966
0.00166805
0.00185331
0.00114231
0.00113976
0.00174912
0.00308733
0.00326033
0.00193583
0.00119022
0.00118594
0.00182534
0.00201478
0.00123499
0.00122932
0.00189834
0.00343288
0.00360764
0.00209161
0.00127769
0.00127093
0.00196949
0.0021676
0.00131928
0.00131166
0.00204007
0.00378635
0.00396949
0.00224384
0.00136044
0.00135201
0.00211125
0.00232133
0.00140154
0.00139239
0.00218231
0.00415587
0.00434456
0.00240032
0.0014429
0.00143308
0.00225445
0.00248036
0.0014846
0.00147413
0.00232799
0.00453496
0.00472943
0.00256194
0.00152665
0.00151553
0.00240362
0.00264606
0.00156909
0.00155733
0.00248161
0.00493095
0.00514316
0.0027332
0.00161221
0.00159991
0.00256277
0.00282445
0.00165661
0.00164392
0.00264866
0.00537077
0.00561901
0.0029218
0.00170312
0.00169024
0.00274122
0.00302759
0.00175275
0.00173988
0.00284266
0.00589428
0.00620382
0.00314445
0.00180665
0.00179403
0.00295541
0.00327524
0.00186614
0.00185404
0.0030821
0.00655576
0.00695897
0.00342304
0.00193265
0.00192136
0.00322555
0.00359114
0.0020078
0.00199767
0.00338791
0.00742263
0.00795603
0.00378358
0.00209365
0.00208517
0.00357485
0.00400737
0.00219269
0.00218636
0.00379311
0.00858756
0.00934216
0.0042693
0.00230795
0.00230456
0.00405089
0.00458103
0.00244388
0.00244468
0.00436136
0.0102664
0.0114271
0.00496053
0.0026071
0.00261397
0.00474487
0.00543819
0.00281028
0.00283004
0.00523656
0.0129361
0.0149937
0.00606268
0.00307391
0.0031156
0.00589469
0.00692776
0.00343693
0.0035176
0.00683846
0.0179913
0.0228319
0.00820969
0.00397041
0.00414468
0.00833464
0.0103217
0.00482559
0.00526858
0.0111448
0.0319381
0.0699841
0.0491384
0.0380274
0.031216
0.0265797
0.0231926
0.0205911
0.0185253
0.016846
0.0154381
0.014233
0.0131959
0.0122987
0.0115163
0.0108273