/*--------------------------------*- C++ -*----------------------------------*\
| =========                 |                                                 |
| \\      /  F ield         | OpenFOAM: The Open Source CFD Toolbox           |
|  \\    /   O peration     | Version:  v2006                                 |
|   \\  /    A nd           | Website:  www.openfoam.com                      |
|    \\/     M anipulation  |                                                 |
\*---------------------------------------------------------------------------*/
FoamFile
{
    version     2.0;
    format      ascii;
    class       volScalarField;
    location    "0.072";
    object      turbulenceProperties:L;
}
// * * * * * * * * * * * * * * * * * * * * * * * * * * * * * * * * * * * * * //

dimensions      [0 1 0 0 0 0 0];


internalField   nonuniform List<scalar> 
24416
(
2000
1999.99
2000
2000
2000
2000
2000
2000
2000
2000
1999.99
1999.93
1999.77
1999.51
1999.2
1998.87
1998.58
1998.32
1998.09
1997.9
1997.74
1997.59
1997.46
1997.34
1997.23
1997.12
1997.02
1996.92
1996.83
1996.74
1996.66
1996.58
1996.5
1996.42
1996.35
1996.27
1996.19
1996.11
1996.03
1995.94
1995.84
1995.74
1995.61
1995.46
1995.29
1995.07
1994.81
1994.46
1994.02
1993.45
1992.7
1991.7
1990.37
1988.59
1986.2
1982.98
1978.63
1972.76
1964.83
1954.13
1939.74
1920.44
1894.72
1860.7
1816.2
1758.81
1686.2
1596.44
1488.69
1363.72
1224.45
1075.95
924.816
778.106
642.032
521.01
417.281
331.094
261.24
205.675
162.045
128.049
101.666
81.2927
65.9448
56.0709
60.3048
53.6859
49.351
52.3228
68.2482
107.828
186.153
337.758
817.169
142.751
37.7181
13.6231
5.60096
2.4013
1.00453
0.713072
0.831672
0.317826
0.118014
0.0472643
0.0143705
0.00170422
0.000315543
2.14311e-05
2.07729e-05
0.000147947
0.000657014
0.000424937
0.000114767
2.02491e-05
1.99855e-05
0.000103551
0.000347538
0.000301991
9.59086e-05
1.996e-05
1.99434e-05
9.4124e-05
0.00027694
0.000255207
8.98383e-05
1.99956e-05
1.99264e-05
8.815e-05
0.000244226
0.000230953
8.43358e-05
1.97636e-05
1.96063e-05
8.34351e-05
0.000225036
0.000216155
8.23707e-05
1.95576e-05
1.95198e-05
8.20307e-05
0.000213326
0.000207374
8.11391e-05
1.94795e-05
1.94495e-05
8.08875e-05
0.000205587
0.000201035
8.01056e-05
1.94157e-05
1.93913e-05
7.99115e-05
0.000199807
0.000196027
7.92065e-05
1.93625e-05
1.93418e-05
7.90353e-05
0.000195104
0.00019181
7.8398e-05
1.93168e-05
1.92987e-05
7.82251e-05
0.000191063
0.000188141
7.76471e-05
1.92765e-05
1.92603e-05
7.74725e-05
0.000187517
0.000184873
7.69465e-05
1.92401e-05
1.92253e-05
7.67694e-05
0.000184344
0.000181923
7.6286e-05
1.92067e-05
1.91929e-05
7.61105e-05
0.000181469
0.00017923
7.56627e-05
1.91755e-05
1.91625e-05
7.54913e-05
0.000178838
0.000176752
7.50745e-05
1.9146e-05
1.91338e-05
7.49115e-05
0.000176414
0.000174458
7.45174e-05
1.9118e-05
1.91062e-05
7.43613e-05
0.000174165
0.000172321
7.39877e-05
1.9091e-05
1.90797e-05
7.38392e-05
0.000172067
0.000170324
7.34852e-05
1.9065e-05
1.9054e-05
7.33455e-05
0.000170105
0.000168453
7.30086e-05
1.90397e-05
1.9029e-05
7.28769e-05
0.000168266
0.000166695
7.25556e-05
1.90151e-05
1.90046e-05
7.24316e-05
0.000166535
0.000165039
7.21246e-05
1.8991e-05
1.89808e-05
7.20079e-05
0.000164904
0.000163475
7.17142e-05
1.89674e-05
1.89574e-05
7.16046e-05
0.000163363
0.000161995
7.13229e-05
1.89443e-05
1.89344e-05
7.12199e-05
0.000161903
0.000160592
7.09494e-05
1.89215e-05
1.89117e-05
7.08527e-05
0.00016052
0.000159262
7.05929e-05
1.88989e-05
1.88893e-05
7.05024e-05
0.000159207
0.000158
7.02528e-05
1.88767e-05
1.88671e-05
7.01685e-05
0.000157962
0.000156796
6.99285e-05
1.88547e-05
1.88452e-05
6.98501e-05
0.000156777
0.00015565
6.9619e-05
1.88329e-05
1.88235e-05
6.95461e-05
0.000155647
0.000154556
6.93232e-05
1.88113e-05
1.88019e-05
6.92554e-05
0.00015457
0.000153512
6.90402e-05
1.87898e-05
1.87804e-05
6.89774e-05
0.000153539
0.000152513
6.87691e-05
1.87683e-05
1.8759e-05
6.8711e-05
0.000152553
0.000151554
6.8509e-05
1.8747e-05
1.87377e-05
6.84554e-05
0.000151606
0.000150634
6.82592e-05
1.87257e-05
1.87164e-05
6.82097e-05
0.000150696
0.00014975
6.80189e-05
1.87043e-05
1.8695e-05
6.79736e-05
0.000149822
0.0001489
6.7788e-05
1.8683e-05
1.86736e-05
6.77467e-05
0.000148981
0.000148081
6.75656e-05
1.86615e-05
1.86521e-05
6.75281e-05
0.000148171
0.000147291
6.73513e-05
1.86399e-05
1.86304e-05
6.73175e-05
0.00014739
0.000146529
6.71443e-05
1.86182e-05
1.86086e-05
6.71138e-05
0.000146634
0.000145791
6.6944e-05
1.85963e-05
1.85866e-05
6.69169e-05
0.000145903
0.000145078
6.67502e-05
1.85742e-05
1.85644e-05
6.67263e-05
0.000145196
0.000144386
6.65623e-05
1.85518e-05
1.85419e-05
6.65415e-05
0.000144509
0.000143713
6.63798e-05
1.85291e-05
1.8519e-05
6.63619e-05
0.000143841
0.000143059
6.62022e-05
1.85061e-05
1.84958e-05
6.61871e-05
0.00014319
0.000142421
6.60289e-05
1.84827e-05
1.84722e-05
6.60165e-05
0.000142556
0.000141798
6.58596e-05
1.84588e-05
1.84481e-05
6.58499e-05
0.000141937
0.00014119
6.56942e-05
1.84344e-05
1.84235e-05
6.56871e-05
0.000141333
0.000140596
6.55322e-05
1.84095e-05
1.83983e-05
6.55277e-05
0.000140742
0.000140015
6.53735e-05
1.8384e-05
1.83726e-05
6.53714e-05
0.000140163
0.000139446
6.52178e-05
1.83579e-05
1.83461e-05
6.52185e-05
0.000139599
0.00013889
6.50653e-05
1.83311e-05
1.8319e-05
6.50687e-05
0.000139046
0.000138343
6.49156e-05
1.83035e-05
1.82911e-05
6.49213e-05
0.000138503
0.000137806
6.47681e-05
1.82752e-05
1.82624e-05
6.47766e-05
0.000137974
0.000137283
6.46232e-05
1.8246e-05
1.82328e-05
6.46343e-05
0.000137456
0.000136769
6.44806e-05
1.82159e-05
1.82022e-05
6.44941e-05
0.000136946
0.000136262
6.43397e-05
1.81848e-05
1.81706e-05
6.43557e-05
0.000136444
0.000135763
6.42002e-05
1.81526e-05
1.8138e-05
6.42187e-05
0.000135949
0.000135269
6.40619e-05
1.81193e-05
1.81041e-05
6.40828e-05
0.000135459
0.000134781
6.39245e-05
1.80848e-05
1.8069e-05
6.39479e-05
0.000134975
0.000134298
6.37879e-05
1.80489e-05
1.80325e-05
6.38139e-05
0.000134497
0.000133819
6.36519e-05
1.80116e-05
1.79945e-05
6.36806e-05
0.000134022
0.000133345
6.35165e-05
1.79727e-05
1.7955e-05
6.35479e-05
0.000133553
0.000132875
6.33813e-05
1.79322e-05
1.79137e-05
6.34155e-05
0.000133087
0.000132408
6.32462e-05
1.789e-05
1.78707e-05
6.3283e-05
0.000132624
0.000131944
6.31111e-05
1.78459e-05
1.78256e-05
6.315e-05
0.000132164
0.000131484
6.29768e-05
1.77997e-05
1.77785e-05
6.30171e-05
0.000131708
0.000131026
6.28425e-05
1.77514e-05
1.77292e-05
6.28843e-05
0.000131255
0.000130571
6.27081e-05
1.77008e-05
1.76774e-05
6.27515e-05
0.000130804
0.000130117
6.25736e-05
1.76476e-05
1.76232e-05
6.26185e-05
0.000130356
0.000129665
6.24387e-05
1.75918e-05
1.75661e-05
6.24851e-05
0.000129908
0.000129214
6.23032e-05
1.75332e-05
1.75061e-05
6.23511e-05
0.000129462
0.000128764
6.2167e-05
1.74715e-05
1.7443e-05
6.22164e-05
0.000129018
0.000128314
6.203e-05
1.74064e-05
1.73764e-05
6.2081e-05
0.000128574
0.000127865
6.18917e-05
1.73379e-05
1.73062e-05
6.19447e-05
0.00012813
0.000127414
6.17519e-05
1.72655e-05
1.72321e-05
6.18065e-05
0.000127686
0.000126964
6.16105e-05
1.7189e-05
1.71537e-05
6.16669e-05
0.000127243
0.000126514
6.14676e-05
1.71081e-05
1.70708e-05
6.15263e-05
0.000126801
0.000126066
6.13239e-05
1.70225e-05
1.6983e-05
6.13851e-05
0.000126362
0.00012562
6.11797e-05
1.69319e-05
1.689e-05
6.12437e-05
0.000125926
0.000125177
6.10352e-05
1.68359e-05
1.67916e-05
6.11024e-05
0.000125495
0.000124739
6.08911e-05
1.67342e-05
1.66873e-05
6.09619e-05
0.000125069
0.000124305
6.07468e-05
1.66265e-05
1.65768e-05
6.08218e-05
0.000124648
0.000123877
6.06032e-05
1.65124e-05
1.64597e-05
6.06824e-05
0.00012423
0.000123455
6.04591e-05
1.63916e-05
1.63353e-05
6.05445e-05
0.000123822
0.000123044
6.03152e-05
1.62639e-05
1.62029e-05
6.04085e-05
0.000123426
0.000122643
6.01721e-05
1.61297e-05
1.60608e-05
6.02694e-05
0.000123037
0.000122243
6.00172e-05
1.5991e-05
1.59387e-05
6.00842e-05
0.000122631
0.000121813
5.98017e-05
1.58753e-05
1.58249e-05
5.98464e-05
0.000122176
0.000121336
5.95482e-05
1.57605e-05
1.5708e-05
5.95824e-05
0.000121674
0.000120822
5.92795e-05
1.56408e-05
1.55856e-05
5.93114e-05
0.000121143
0.000120285
5.90095e-05
1.55151e-05
1.5457e-05
5.90466e-05
0.000120601
0.000119744
5.87501e-05
1.53831e-05
1.53223e-05
5.87969e-05
0.000120068
0.000119221
5.85097e-05
1.52452e-05
1.51818e-05
5.8569e-05
0.000119562
0.000118732
5.8294e-05
1.51017e-05
1.50361e-05
5.837e-05
0.000119103
0.000118296
5.81101e-05
1.49533e-05
1.48858e-05
5.82058e-05
0.000118708
0.000117932
5.79634e-05
1.48008e-05
1.47319e-05
5.80816e-05
0.000118396
0.000117654
5.78589e-05
1.46452e-05
1.45756e-05
5.80017e-05
0.00011818
0.000117478
5.78003e-05
1.44877e-05
1.4418e-05
5.79695e-05
0.000118074
0.000117415
5.77904e-05
1.43298e-05
1.42608e-05
5.79871e-05
0.000118089
0.000117475
5.78308e-05
1.41729e-05
1.41054e-05
5.80552e-05
0.000118233
0.000117668
5.79226e-05
1.40188e-05
1.39536e-05
5.81739e-05
0.000118514
0.000117997
5.80626e-05
1.3869e-05
1.38068e-05
5.83409e-05
0.000118933
0.000118459
5.82467e-05
1.37251e-05
1.36667e-05
5.85493e-05
0.000119493
0.000119033
5.84696e-05
1.35885e-05
1.35342e-05
5.87912e-05
0.000120171
0.000119748
5.87237e-05
1.34601e-05
1.34104e-05
5.90594e-05
0.000120961
0.00012057
5.90003e-05
1.33407e-05
1.32958e-05
5.9346e-05
0.000121849
0.000121483
5.92897e-05
1.32307e-05
1.31907e-05
5.96391e-05
0.000122814
0.000122462
5.95787e-05
1.31303e-05
1.30949e-05
5.99263e-05
0.000123832
0.000123487
5.98589e-05
1.30391e-05
1.30081e-05
6.01982e-05
0.000124881
0.000124536
6.0121e-05
1.29567e-05
1.29297e-05
6.04458e-05
0.000125928
0.000125606
6.0356e-05
1.28824e-05
1.2859e-05
6.06626e-05
0.000126961
0.000126626
6.05578e-05
1.28156e-05
1.27953e-05
6.08417e-05
0.000127957
0.000127596
6.07166e-05
1.27551e-05
1.2737e-05
6.09735e-05
0.000128892
0.0001285
6.08229e-05
1.26998e-05
1.26832e-05
6.10555e-05
0.000129761
0.000129328
6.08809e-05
1.26486e-05
1.26331e-05
6.10847e-05
0.000130534
0.000130051
6.08846e-05
1.26003e-05
1.25852e-05
6.10556e-05
0.000131184
0.000130646
6.08264e-05
1.25532e-05
1.25379e-05
6.09589e-05
0.000131687
0.000131078
6.06818e-05
1.25042e-05
1.249e-05
6.08711e-05
0.000132146
0.000130939
6.02715e-05
1.24455e-05
1.2436e-05
6.05201e-05
0.000132063
0.000131021
6.00543e-05
1.24065e-05
1.23748e-05
5.99597e-05
0.000131639
0.000130413
5.94151e-05
1.23799e-05
1.22795e-05
5.89695e-05
0.000130166
0.000130779
5.91944e-05
1.239e-05
1.27429e-05
6.14971e-05
0.000135296
0.000140021
6.31102e-05
1.33051e-05
0.000322738
0.000547751
0.000786534
0.00104555
0.0012428
0.00151491
0.00174923
0.00199954
0.00222953
0.00246974
0.00269926
0.0029353
0.00316428
0.00339679
0.00362349
0.00385113
0.00407279
0.00429262
0.00450508
0.00471233
0.00490946
0.00509704
0.00527033
0.00542871
0.00556737
0.00568451
0.00577564
0.00583777
0.0058675
0.00586124
0.00581517
0.005727
0.00559413
0.00541507
0.00519031
0.00491939
0.00460707
0.00425346
0.00387022
0.00345618
0.00303375
0.00259755
0.00217901
0.00175929
0.00146494
0.00107595
0.000781115
0.00050871
0.000267648
0.000102732
3.99343e-05
7.7819e-06
6.92028e-06
3.47035e-05
8.97431e-05
8.19437e-05
3.11481e-05
6.07547e-06
5.38171e-06
2.76147e-05
7.26837e-05
6.93031e-05
2.62775e-05
5.0454e-06
4.87373e-06
2.58615e-05
6.88275e-05
6.61093e-05
2.50553e-05
4.79134e-06
4.76237e-06
2.53493e-05
6.76099e-05
6.65505e-05
2.49586e-05
4.76504e-06
4.77498e-06
2.56087e-05
6.82875e-05
6.69464e-05
2.50072e-05
4.76107e-06
4.78424e-06
2.57337e-05
6.8621e-05
6.77561e-05
2.53212e-05
4.79211e-06
4.81667e-06
2.61276e-05
6.95384e-05
6.825e-05
2.55256e-05
4.80406e-06
4.83062e-06
2.62873e-05
7.0021e-05
6.92053e-05
2.58689e-05
4.8398e-06
4.87305e-06
2.67207e-05
7.10462e-05
6.97448e-05
2.61047e-05
4.8494e-06
4.88484e-06
2.69166e-05
7.16002e-05
7.07874e-05
2.64897e-05
4.8948e-06
4.93026e-06
2.73864e-05
7.26918e-05
7.13651e-05
2.67544e-05
4.90689e-06
4.94472e-06
2.7611e-05
7.32988e-05
7.24771e-05
2.7173e-05
4.95537e-06
4.9929e-06
2.81142e-05
7.44439e-05
7.30858e-05
2.74632e-05
4.96962e-06
5.00979e-06
2.83631e-05
7.50884e-05
7.42472e-05
2.7911e-05
5.02099e-06
5.06074e-06
2.88956e-05
7.62654e-05
7.4861e-05
2.82224e-05
5.0375e-06
5.08039e-06
2.91669e-05
7.69297e-05
7.60637e-05
2.86983e-05
5.09226e-06
5.13471e-06
2.97275e-05
7.81401e-05
7.66697e-05
2.90289e-05
5.11162e-06
5.15793e-06
3.00205e-05
7.88231e-05
7.7912e-05
2.95317e-05
5.17072e-06
5.21638e-06
3.06026e-05
8.00623e-05
7.84799e-05
2.98688e-05
5.19365e-06
5.24413e-06
3.08962e-05
8.07309e-05
7.96946e-05
3.03653e-05
5.25838e-06
5.30254e-06
3.14477e-05
8.19049e-05
8.01257e-05
3.06334e-05
5.2942e-06
5.34791e-06
3.16609e-05
8.24724e-05
8.13602e-05
3.1051e-05
5.36872e-06
5.43284e-06
3.2209e-05
8.38183e-05
8.25595e-05
3.13811e-05
5.43607e-06
5.49236e-06
3.28428e-05
8.58085e-05
8.50269e-05
3.24189e-05
5.51285e-06
5.59656e-06
3.43965e-05
8.8949e-05
8.73985e-05
3.37098e-05
5.66805e-06
5.82461e-06
3.54379e-05
9.0393e-05
8.91318e-05
3.48738e-05
5.97388e-06
6.25901e-06
3.57919e-05
9.06464e-05
8.82246e-05
3.51648e-05
6.65198e-06
7.61124e-06
3.69863e-05
8.94006e-05
8.61672e-05
4.09838e-05
5.48305e-06
2.68161e-06
1.09677e-05
3.39559e-05
7.46818e-05
2.88792e-05
4.09622e-06
4.79772e-06
2.69085e-05
7.27271e-05
8.47376e-05
3.02801e-05
5.57461e-06
6.46652e-06
3.42681e-05
9.715e-05
0.000158741
4.29101e-05
1.36594e-05
2.20578e-05
0.00010324
0.000226517
0.000254527
0.000109182
2.67743e-05
3.06207e-05
0.000147832
0.000318005
0.000313977
0.000150937
3.10125e-05
3.24428e-05
0.000139549
0.000271558
0.000323053
0.000162077
3.66228e-05
4.30891e-05
0.000188845
0.000368033
0.00041729
0.000218371
4.91184e-05
5.73826e-05
0.000255875
0.000503182
0.000634489
0.000304228
6.44263e-05
7.28268e-05
0.000388902
0.000776926
0.000868525
0.00047446
7.87551e-05
9.36499e-05
0.000633364
0.00111258
0.00135221
0.000796797
0.00010773
0.000124217
0.000943568
0.00143645
0.00151903
0.0010951
0.000137887
0.000163326
0.00123803
0.00173927
0.00192574
0.00142945
0.00018239
0.000206805
0.00156461
0.00204379
0.00225982
0.00166462
0.000222793
0.00022643
0.00155344
0.00216693
0.00209064
0.00154416
0.000213085
0.00019037
0.000851778
0.00202802
0.00071263
0.000290566
0.000163336
0.000130223
0.000167802
0.000246819
0.000214511
0.000140389
0.000113133
9.14965e-05
0.000110826
0.000166255
0.000112661
9.05928e-05
7.71672e-05
6.31253e-05
7.57329e-05
0.000107104
9.53901e-05
6.61477e-05
5.47422e-05
4.39147e-05
5.23089e-05
6.97919e-05
7.03439e-05
4.8076e-05
3.85101e-05
3.28971e-05
4.37503e-05
6.61007e-05
5.04236e-05
3.62072e-05
2.73371e-05
2.34163e-05
3.43998e-05
5.4609e-05
5.07387e-05
3.30604e-05
1.95079e-05
1.07264e-05
1.74915e-05
3.25072e-05
3.70035e-05
1.90986e-05
5.9433e-06
7.00909e-06
1.74265e-05
3.32097e-05
1.74888e-05
8.47559e-06
3.93955e-06
5.21878e-06
1.93066e-05
2.83016e-05
2.76263e-05
1.78102e-05
6.33828e-06
3.50384e-06
7.7186e-06
1.61209e-05
2.63392e-05
1.79041e-05
4.85056e-06
6.0673e-06
1.67654e-05
2.59647e-05
1.4694e-05
7.63404e-06
3.54463e-06
4.7125e-06
1.71242e-05
2.55775e-05
2.49219e-05
1.58399e-05
5.93121e-06
3.41953e-06
6.69875e-06
1.38862e-05
2.36127e-05
1.57232e-05
4.42558e-06
5.58495e-06
1.47004e-05
2.33148e-05
1.22527e-05
5.77592e-06
3.14574e-06
3.84472e-06
1.76008e-05
2.1855e-05
1.40894e-05
7.91101e-06
4.53789e-06
5.51937e-06
1.76775e-05
2.68893e-05
2.5707e-05
1.58684e-05
6.79493e-06
3.99101e-06
6.93634e-06
1.36752e-05
2.66674e-05
1.69042e-05
4.97505e-06
6.37512e-06
1.53962e-05
2.58103e-05
1.34451e-05
6.74178e-06
3.84544e-06
4.80156e-06
1.64379e-05
2.61302e-05
2.52569e-05
1.51628e-05
6.0502e-06
3.53388e-06
5.94861e-06
1.23635e-05
2.17651e-05
1.79389e-05
4.06895e-06
4.7414e-06
7.9463e-06
1.3675e-05
2.63205e-05
1.70075e-05
5.49918e-06
6.64329e-06
1.49377e-05
2.48508e-05
1.22187e-05
6.20108e-06
3.75845e-06
4.22329e-06
1.72631e-05
2.13502e-05
1.36687e-05
8.13651e-06
5.0164e-06
5.89056e-06
1.68863e-05
2.53074e-05
2.41447e-05
1.50589e-05
7.12263e-06
4.28379e-06
7.17219e-06
1.27676e-05
2.30363e-05
1.56534e-05
5.00067e-06
6.17872e-06
1.37041e-05
2.2218e-05
1.10839e-05
6.2115e-06
3.63908e-06
3.93492e-06
1.65457e-05
1.89789e-05
1.21227e-05
7.4107e-06
4.4352e-06
4.70433e-06
1.60855e-05
2.1654e-05
1.36787e-05
8.08966e-06
5.37311e-06
5.98483e-06
1.54847e-05
2.45962e-05
2.27654e-05
1.36233e-05
7.06904e-06
4.07236e-06
6.59007e-06
1.16981e-05
1.98712e-05
1.55135e-05
4.47711e-06
5.17678e-06
8.08468e-06
1.28836e-05
2.34453e-05
1.57041e-05
5.73055e-06
6.8169e-06
1.37302e-05
2.16567e-05
1.11965e-05
6.35072e-06
3.88166e-06
4.25781e-06
1.46683e-05
1.82909e-05
1.19356e-05
7.79934e-06
4.89391e-06
4.95236e-06
1.59094e-05
2.01973e-05
1.31685e-05
8.34753e-06
5.59008e-06
6.15723e-06
1.51343e-05
2.33433e-05
2.13621e-05
1.30841e-05
7.27621e-06
4.23968e-06
6.83604e-06
1.11685e-05
1.78951e-05
1.52661e-05
4.39332e-06
4.98428e-06
7.98209e-06
1.19639e-05
2.00689e-05
1.54851e-05
5.10648e-06
5.72742e-06
8.35756e-06
1.30951e-05
2.29716e-05
1.46114e-05
6.23752e-06
7.22178e-06
1.28652e-05
2.08903e-05
1.09565e-05
6.58699e-06
4.07575e-06
4.36622e-06
1.45302e-05
1.71753e-05
1.14835e-05
7.85715e-06
5.01301e-06
5.08762e-06
1.48044e-05
1.89757e-05
1.25371e-05
8.22712e-06
5.74444e-06
6.23765e-06
1.42809e-05
2.16717e-05
1.98659e-05
1.26182e-05
7.27689e-06
4.12867e-06
6.59152e-06
1.06443e-05
1.66087e-05
1.40881e-05
4.41039e-06
5.07541e-06
7.84964e-06
1.12255e-05
1.83107e-05
1.42947e-05
5.10159e-06
5.61107e-06
8.34046e-06
1.2243e-05
1.94308e-05
1.4865e-05
5.48628e-06
6.04479e-06
8.65849e-06
1.29702e-05
2.19666e-05
1.43343e-05
6.51156e-06
7.52965e-06
1.2483e-05
1.98444e-05
1.0657e-05
6.70483e-06
4.24489e-06
4.45364e-06
1.37751e-05
1.67422e-05
1.13565e-05
7.79324e-06
5.06237e-06
5.09779e-06
1.39743e-05
1.77991e-05
1.19865e-05
8.08923e-06
5.48797e-06
5.30806e-06
1.40808e-05
1.8409e-05
1.2399e-05
8.38734e-06
5.74762e-06
5.69156e-06
1.46375e-05
1.906e-05
1.29508e-05
8.86988e-06
6.23917e-06
6.72069e-06
1.42585e-05
2.15179e-05
1.96635e-05
1.27036e-05
7.78454e-06
4.50379e-06
7.16004e-06
1.07695e-05
1.66212e-05
1.44018e-05
4.62014e-06
5.27289e-06
8.09022e-06
1.14703e-05
1.78779e-05
1.41019e-05
5.37215e-06
5.8074e-06
8.42837e-06
1.22291e-05
1.8596e-05
1.4385e-05
5.63627e-06
6.06344e-06
8.78059e-06
1.27353e-05
1.93042e-05
1.49772e-05
6.01423e-06
6.50223e-06
9.23659e-06
1.3193e-05
2.15215e-05
1.43767e-05
6.87881e-06
7.91469e-06
1.27453e-05
1.95311e-05
1.09169e-05
7.27398e-06
4.6007e-06
4.84109e-06
1.41086e-05
1.66445e-05
1.1606e-05
8.15085e-06
5.42525e-06
5.36025e-06
1.39798e-05
1.7495e-05
1.20099e-05
8.31087e-06
5.75039e-06
5.63282e-06
1.3775e-05
1.77913e-05
1.24079e-05
8.70954e-06
6.12193e-06
6.07047e-06
1.43653e-05
1.83743e-05
1.27735e-05
9.22753e-06
6.54766e-06
6.95359e-06
1.40089e-05
2.06569e-05
1.89382e-05
1.26352e-05
8.00886e-06
4.7506e-06
7.34008e-06
1.08337e-05
1.63163e-05
1.40043e-05
4.88276e-06
5.46863e-06
8.32702e-06
1.14597e-05
1.72999e-05
1.38144e-05
5.51064e-06
5.93814e-06
8.58495e-06
1.20409e-05
1.7755e-05
1.39433e-05
5.85458e-06
6.24992e-06
8.91138e-06
1.24123e-05
1.83533e-05
1.45262e-05
6.20702e-06
6.68336e-06
9.42679e-06
1.28406e-05
2.04516e-05
1.40149e-05
7.06152e-06
8.04072e-06
1.24856e-05
1.86729e-05
1.07503e-05
7.49002e-06
4.73852e-06
4.97266e-06
1.42469e-05
1.56989e-05
1.12626e-05
8.43234e-06
5.55676e-06
5.57109e-06
1.3671e-05
1.67853e-05
1.19178e-05
8.66357e-06
6.06985e-06
5.87567e-06
1.37717e-05
1.72153e-05
1.21765e-05
8.82185e-06
6.23881e-06
6.17978e-06
1.40706e-05
1.76767e-05
1.25355e-05
9.33039e-06
6.73656e-06
7.10435e-06
1.36763e-05
1.98601e-05
1.82652e-05
1.24722e-05
8.16251e-06
4.86177e-06
7.45805e-06
1.06974e-05
1.5714e-05
1.39152e-05
5.02836e-06
5.65309e-06
8.34087e-06
1.12939e-05
1.68025e-05
1.35914e-05
5.65555e-06
6.12384e-06
8.61616e-06
1.18787e-05
1.7286e-05
1.37545e-05
6.07407e-06
6.50253e-06
9.02387e-06
1.22948e-05
1.7883e-05
1.43933e-05
6.36216e-06
6.91476e-06
9.55501e-06
1.27931e-05
2.00204e-05
1.38649e-05
7.3246e-06
8.33534e-06
1.25445e-05
1.8367e-05
1.08285e-05
7.66401e-06
4.96835e-06
5.17263e-06
1.39263e-05
1.60069e-05
1.15336e-05
8.45905e-06
5.70387e-06
5.84937e-06
1.38544e-05
1.68883e-05
1.20872e-05
8.81978e-06
6.31506e-06
6.21911e-06
1.39668e-05
1.7406e-05
1.24763e-05
9.37496e-06
6.83402e-06
7.24961e-06
1.3547e-05
1.94425e-05
1.79305e-05
1.24304e-05
8.28973e-06
5.10608e-06
7.7672e-06
1.08349e-05
1.59229e-05
1.39018e-05
5.30409e-06
5.89417e-06
8.69932e-06
1.16173e-05
1.70366e-05
1.40653e-05
6.0929e-06
6.5312e-06
9.13598e-06
1.22891e-05
1.77094e-05
1.43194e-05
6.45124e-06
7.00722e-06
9.60765e-06
1.27493e-05
1.97816e-05
1.38183e-05
7.56737e-06
8.61132e-06
1.25848e-05
1.82722e-05
1.10119e-05
7.99703e-06
5.21319e-06
5.47144e-06
1.43226e-05
1.60347e-05
1.17853e-05
8.90786e-06
6.06551e-06
6.18885e-06
1.44023e-05
1.72362e-05
1.23784e-05
9.4181e-06
6.77583e-06
7.42012e-06
1.34703e-05
1.92025e-05
1.78798e-05
1.24502e-05
8.52617e-06
5.18381e-06
7.79831e-06
1.08907e-05
1.58155e-05
1.38187e-05
5.43764e-06
6.04716e-06
8.86124e-06
1.16606e-05
1.71411e-05
1.4191e-05
6.2497e-06
6.90283e-06
9.50134e-06
1.24237e-05
1.92516e-05
1.35243e-05
7.4357e-06
8.4894e-06
1.24331e-05
1.78601e-05
1.09342e-05
7.89484e-06
5.2089e-06
5.53469e-06
1.39152e-05
1.58156e-05
1.17302e-05
8.92248e-06
6.12792e-06
6.29246e-06
1.42089e-05
1.70987e-05
1.23966e-05
9.52228e-06
6.88812e-06
7.54546e-06
1.3565e-05
1.92358e-05
1.79669e-05
1.26024e-05
8.77806e-06
5.49315e-06
8.16717e-06
1.11977e-05
1.61908e-05
1.39497e-05
5.83376e-06
6.61541e-06
9.38826e-06
1.20221e-05
1.8797e-05
1.36766e-05
7.34971e-06
8.45814e-06
1.2788e-05
1.76882e-05
1.09762e-05
7.89901e-06
5.26232e-06
5.7116e-06
1.36258e-05
1.58445e-05
1.17621e-05
9.20194e-06
6.53471e-06
7.39437e-06
1.35299e-05
1.8412e-05
1.73908e-05
1.27094e-05
8.6166e-06
5.38598e-06
8.14112e-06
1.10708e-05
1.59555e-05
1.40447e-05
5.76958e-06
6.58936e-06
9.35531e-06
1.18717e-05
1.85082e-05
1.33546e-05
7.44786e-06
8.67342e-06
1.25529e-05
1.75415e-05
1.11089e-05
8.20095e-06
5.46e-06
5.97664e-06
1.40627e-05
1.59948e-05
1.20492e-05
9.65453e-06
6.79511e-06
7.75181e-06
1.38646e-05
1.90091e-05
1.80933e-05
1.32073e-05
9.23373e-06
6.23464e-06
8.99247e-06
1.18523e-05
1.82336e-05
1.41343e-05
7.21926e-06
8.67761e-06
1.35182e-05
1.76742e-05
1.15961e-05
8.75821e-06
5.83841e-06
6.97395e-06
1.37646e-05
1.7954e-05
1.74885e-05
1.3233e-05
8.57115e-06
5.87309e-06
8.74273e-06
1.15295e-05
1.77227e-05
1.35454e-05
6.98717e-06
8.37123e-06
1.32403e-05
1.72639e-05
1.12153e-05
8.37428e-06
5.73863e-06
6.906e-06
1.3275e-05
1.74112e-05
1.70249e-05
1.28263e-05
8.49492e-06
5.89703e-06
8.6203e-06
1.1324e-05
1.74776e-05
1.35145e-05
6.98851e-06
8.49054e-06
1.30185e-05
1.70808e-05
1.13271e-05
8.67194e-06
5.99842e-06
7.3643e-06
1.35405e-05
1.77443e-05
1.74577e-05
1.3301e-05
8.95945e-06
6.33136e-06
9.1389e-06
1.18304e-05
1.85462e-05
1.41999e-05
7.95114e-06
1.02858e-05
1.43486e-05
1.80771e-05
1.71718e-05
1.35629e-05
8.24507e-06
5.97776e-06
8.72741e-06
1.16604e-05
1.84523e-05
1.38677e-05
7.77734e-06
1.03263e-05
1.39737e-05
1.81275e-05
1.79082e-05
1.36481e-05
9.17183e-06
8.50685e-06
1.23785e-05
1.68926e-05
1.74392e-05
1.24292e-05
8.0425e-06
7.80083e-06
1.1151e-05
1.62954e-05
1.69538e-05
1.1139e-05
7.12465e-06
5.73531e-06
7.84518e-06
1.07891e-05
1.75938e-05
1.29473e-05
8.1622e-06
1.1171e-05
1.31863e-05
1.75745e-05
1.75281e-05
1.36679e-05
1.10955e-05
1.10423e-05
1.4047e-05
1.77651e-05
1.80399e-05
1.44336e-05
1.10722e-05
1.10633e-05
1.4913e-05
1.83947e-05
1.8749e-05
1.53545e-05
1.10166e-05
1.09935e-05
1.58538e-05
1.91646e-05
1.96029e-05
1.62909e-05
1.0936e-05
1.08694e-05
1.67535e-05
2.00403e-05
2.05293e-05
1.71661e-05
1.07975e-05
1.07218e-05
1.76134e-05
2.09898e-05
2.15485e-05
1.80058e-05
1.06437e-05
1.05643e-05
1.83885e-05
2.20346e-05
2.26296e-05
1.87044e-05
1.04846e-05
1.04053e-05
1.89759e-05
2.32609e-05
2.39991e-05
1.91882e-05
1.03267e-05
1.02493e-05
1.93982e-05
2.47075e-05
2.5411e-05
1.96109e-05
1.01739e-05
1.01011e-05
1.98296e-05
2.60811e-05
2.67526e-05
2.00553e-05
1.00315e-05
9.96529e-06
2.02913e-05
2.7397e-05
2.80469e-05
2.05354e-05
9.90309e-06
9.84487e-06
2.07928e-05
2.86733e-05
2.93065e-05
2.10571e-05
9.79116e-06
9.74181e-06
2.13376e-05
2.99189e-05
3.05173e-05
2.16235e-05
9.69716e-06
9.65682e-06
2.19232e-05
3.10959e-05
3.16628e-05
2.22256e-05
9.62094e-06
9.58907e-06
2.25423e-05
3.22175e-05
3.27641e-05
2.28593e-05
9.5612e-06
9.53681e-06
2.31869e-05
3.32975e-05
3.38239e-05
2.35112e-05
9.51577e-06
9.49768e-06
2.38457e-05
3.43419e-05
3.48549e-05
2.41712e-05
9.48219e-06
9.46903e-06
2.45064e-05
3.53565e-05
3.58532e-05
2.48288e-05
9.45795e-06
9.44863e-06
2.51576e-05
3.63412e-05
3.68243e-05
2.54701e-05
9.44073e-06
9.43406e-06
2.57864e-05
3.72956e-05
3.77607e-05
2.60827e-05
9.42829e-06
9.42344e-06
2.63839e-05
3.82162e-05
3.86645e-05
2.66617e-05
9.41907e-06
9.41531e-06
2.69425e-05
3.91012e-05
3.95287e-05
2.71973e-05
9.41173e-06
9.40862e-06
2.74571e-05
3.99476e-05
4.03552e-05
2.76891e-05
9.40545e-06
9.4026e-06
2.79251e-05
4.07528e-05
4.11357e-05
2.81321e-05
9.39953e-06
9.39677e-06
2.83452e-05
4.15147e-05
4.18755e-05
2.85301e-05
9.39366e-06
9.39088e-06
2.87185e-05
4.22378e-05
4.25751e-05
2.88826e-05
9.38748e-06
9.38488e-06
2.90478e-05
4.29219e-05
4.32431e-05
2.91941e-05
9.3813e-06
9.37878e-06
2.93379e-05
4.35752e-05
4.38844e-05
2.9466e-05
9.37527e-06
9.37281e-06
2.95924e-05
4.41987e-05
4.44986e-05
2.9705e-05
9.36936e-06
9.36701e-06
2.98171e-05
4.47993e-05
4.50895e-05
2.99159e-05
9.36357e-06
9.36139e-06
3.00166e-05
4.53809e-05
4.56611e-05
3.0104e-05
9.35813e-06
9.35621e-06
3.01955e-05
4.59466e-05
4.62174e-05
3.02725e-05
9.35308e-06
9.35145e-06
3.03568e-05
4.64981e-05
4.6763e-05
3.04261e-05
9.34866e-06
9.34741e-06
3.05052e-05
4.70401e-05
4.72985e-05
3.05672e-05
9.34492e-06
9.34406e-06
3.06429e-05
4.75733e-05
4.78264e-05
3.07007e-05
9.34204e-06
9.3417e-06
3.07743e-05
4.81003e-05
4.83465e-05
3.08269e-05
9.34008e-06
9.34019e-06
3.08991e-05
4.86213e-05
4.88617e-05
3.09481e-05
9.33918e-06
9.33958e-06
3.10194e-05
4.91364e-05
4.93683e-05
3.10638e-05
9.33909e-06
9.33982e-06
3.11336e-05
4.96441e-05
4.98685e-05
3.11754e-05
9.34e-06
9.34102e-06
3.12412e-05
5.01337e-05
5.03438e-05
3.12776e-05
9.34181e-06
9.34309e-06
3.13389e-05
5.05994e-05
5.0799e-05
3.1372e-05
9.34432e-06
9.34583e-06
3.14293e-05
5.10462e-05
5.12356e-05
3.14588e-05
9.34723e-06
9.34913e-06
3.15123e-05
5.14744e-05
5.16581e-05
3.15396e-05
9.35073e-06
9.35296e-06
3.15902e-05
5.18878e-05
5.20651e-05
3.16148e-05
9.3547e-06
9.3572e-06
3.16622e-05
5.22861e-05
5.24595e-05
3.16861e-05
9.35912e-06
9.36195e-06
3.1731e-05
5.26731e-05
5.28422e-05
3.17531e-05
9.364e-06
9.36707e-06
3.17953e-05
5.30482e-05
5.32147e-05
3.18174e-05
9.36931e-06
9.37268e-06
3.1858e-05
5.34139e-05
5.35764e-05
3.18788e-05
9.3751e-06
9.37866e-06
3.19174e-05
5.37684e-05
5.39282e-05
3.19388e-05
9.38139e-06
9.38516e-06
3.19764e-05
5.41136e-05
5.42691e-05
3.19965e-05
9.38812e-06
9.39204e-06
3.20324e-05
5.44476e-05
5.46001e-05
3.20531e-05
9.3953e-06
9.39941e-06
3.20881e-05
5.47723e-05
5.49199e-05
3.21075e-05
9.40289e-06
9.4071e-06
3.21406e-05
5.50855e-05
5.52296e-05
3.21607e-05
9.41084e-06
9.41521e-06
3.21925e-05
5.53891e-05
5.55279e-05
3.22113e-05
9.41911e-06
9.42355e-06
3.22414e-05
5.56812e-05
5.58158e-05
3.22605e-05
9.42765e-06
9.43222e-06
3.22893e-05
5.5964e-05
5.60911e-05
3.23076e-05
9.4364e-06
9.44107e-06
3.23341e-05
5.62337e-05
5.63587e-05
3.23519e-05
9.44536e-06
9.45011e-06
3.23778e-05
5.64938e-05
5.66118e-05
3.23936e-05
9.45443e-06
9.45924e-06
3.2418e-05
5.67428e-05
5.68591e-05
3.2433e-05
9.46361e-06
9.46846e-06
3.24566e-05
5.69827e-05
5.70935e-05
3.24696e-05
9.47284e-06
9.47768e-06
3.24918e-05
5.72118e-05
5.7318e-05
3.25039e-05
9.48208e-06
9.48693e-06
3.25251e-05
5.74314e-05
5.75317e-05
3.25353e-05
9.49131e-06
9.49611e-06
3.25548e-05
5.76398e-05
5.77353e-05
3.25644e-05
9.50049e-06
9.50526e-06
3.25822e-05
5.78393e-05
5.79275e-05
3.25911e-05
9.50958e-06
9.51431e-06
3.26067e-05
5.80274e-05
5.81127e-05
3.26143e-05
9.51859e-06
9.52326e-06
3.26286e-05
5.82063e-05
5.82852e-05
3.26356e-05
9.52746e-06
9.53207e-06
3.26478e-05
5.83745e-05
5.84511e-05
3.26533e-05
9.53622e-06
9.54075e-06
3.26646e-05
5.85332e-05
5.8605e-05
3.26689e-05
9.54482e-06
9.54924e-06
3.26783e-05
5.86826e-05
5.87498e-05
3.26819e-05
9.55325e-06
9.5576e-06
3.26895e-05
5.88237e-05
5.88849e-05
3.26919e-05
9.56152e-06
9.56575e-06
3.26983e-05
5.89552e-05
5.90109e-05
3.26999e-05
9.56959e-06
9.57374e-06
3.27051e-05
5.90794e-05
5.91275e-05
3.27054e-05
9.57747e-06
9.58151e-06
3.27096e-05
5.91933e-05
5.92388e-05
3.27083e-05
9.58517e-06
9.5891e-06
3.27118e-05
5.93e-05
5.93393e-05
3.27093e-05
9.59265e-06
9.59648e-06
3.27118e-05
5.93979e-05
5.9435e-05
3.2708e-05
9.59995e-06
9.60368e-06
3.271e-05
5.9489e-05
5.95212e-05
3.27048e-05
9.60703e-06
9.61064e-06
3.27063e-05
5.9571e-05
5.96006e-05
3.27002e-05
9.61393e-06
9.61745e-06
3.27007e-05
5.96488e-05
5.96725e-05
3.26933e-05
9.62062e-06
9.62403e-06
3.26931e-05
5.97198e-05
5.97363e-05
3.2685e-05
9.62712e-06
9.63044e-06
3.26839e-05
5.97873e-05
5.97997e-05
3.26751e-05
9.63341e-06
9.63663e-06
3.26736e-05
5.98394e-05
5.9856e-05
3.2664e-05
9.63954e-06
9.64265e-06
3.2662e-05
5.98905e-05
5.99042e-05
3.26513e-05
9.64547e-06
9.64848e-06
3.26488e-05
5.99364e-05
5.99467e-05
3.26377e-05
9.65121e-06
9.65415e-06
3.26346e-05
5.99782e-05
5.99836e-05
3.2623e-05
9.65678e-06
9.65962e-06
3.26191e-05
6.0013e-05
6.0019e-05
3.26072e-05
9.6622e-06
9.66494e-06
3.26031e-05
6.00433e-05
6.00474e-05
3.25904e-05
9.66743e-06
9.67009e-06
3.25857e-05
6.00694e-05
6.00714e-05
3.25728e-05
9.67251e-06
9.67508e-06
3.2568e-05
6.00917e-05
6.00912e-05
3.25542e-05
9.67743e-06
9.67991e-06
3.25492e-05
6.01093e-05
6.0107e-05
3.25329e-05
9.6822e-06
9.68458e-06
3.25338e-05
6.01227e-05
6.01193e-05
3.25116e-05
9.68682e-06
9.68915e-06
3.2508e-05
6.01344e-05
6.01253e-05
3.24931e-05
9.69131e-06
9.69356e-06
3.24908e-05
6.01426e-05
6.01284e-05
3.24752e-05
9.69556e-06
9.69776e-06
3.24682e-05
6.01461e-05
6.0132e-05
3.24533e-05
9.69973e-06
9.70186e-06
3.24466e-05
6.01477e-05
6.01302e-05
3.24317e-05
9.70377e-06
9.70585e-06
3.24247e-05
6.01456e-05
6.01285e-05
3.24097e-05
9.70771e-06
9.70973e-06
3.24027e-05
6.0142e-05
6.01206e-05
3.23877e-05
9.71153e-06
9.71348e-06
3.23803e-05
6.01344e-05
6.01152e-05
3.23653e-05
9.71524e-06
9.71713e-06
3.2358e-05
6.01263e-05
6.01013e-05
3.23429e-05
9.71882e-06
9.72065e-06
3.23352e-05
6.01136e-05
6.00928e-05
3.23202e-05
9.7223e-06
9.72407e-06
3.23126e-05