/*--------------------------------*- C++ -*----------------------------------*\
| =========                 |                                                 |
| \\      /  F ield         | OpenFOAM: The Open Source CFD Toolbox           |
|  \\    /   O peration     | Version:  v2006                                 |
|   \\  /    A nd           | Website:  www.openfoam.com                      |
|    \\/     M anipulation  |                                                 |
\*---------------------------------------------------------------------------*/
FoamFile
{
    version     2.0;
    format      ascii;
    class       volScalarField;
    location    "0.136";
    object      p;
}
// * * * * * * * * * * * * * * * * * * * * * * * * * * * * * * * * * * * * * //

dimensions      [1 -1 -2 0 0 0 0];


internalField   nonuniform List<scalar> 
16277
(
147985
147991
147994
147980
147990
147987
147988
147991
147995
148000
148005
148011
148017
148023
148030
148036
148043
148051
148058
148066
148074
148082
148091
148100
148109
148119
148128
148138
148149
148159
148170
148181
148192
148204
148215
148227
148239
148251
148263
148276
148288
148301
148313
148326
148339
148352
148364
148377
148390
148403
148416
148428
148441
148454
148466
148479
148491
148503
148515
148527
148539
148550
148561
148572
148583
148594
148604
148614
148624
148634
148643
148652
148660
148669
148677
148684
148691
148698
148705
148711
148717
148723
148728
148732
148734
148736
148736
148736
148735
148737
148736
148740
148745
148755
148771
148783
148790
148779
148778
148774
148771
148772
148773
148767
148767
148767
148762
148762
148762
148758
148758
148758
148754
148754
148754
148752
148752
148752
148750
148749
148749
148748
148748
148748
148747
148746
148746
148746
148746
148746
148745
148745
148745
148745
148745
148745
148745
148745
148745
148745
148745
148745
148746
148745
148745
148746
148747
148747
148748
148747
148747
148749
148749
148749
148750
148750
148750
148752
148752
148752
148754
148753
148753
148756
148756
148756
148758
148758
148758
148760
148760
148761
148763
148763
148762
148766
148766
148766
148768
148768
148768
148771
148772
148772
148774
148774
148774
148778
148778
148778
148781
148781
148781
148785
148785
148785
148789
148789
148788
148793
148793
148793
148797
148797
148797
148801
148801
148802
148805
148805
148805
148810
148810
148811
148815
148815
148815
148820
148820
148820
148825
148825
148824
148830
148830
148830
148835
148835
148835
148841
148841
148841
148846
148846
148846
148852
148853
148853
148858
148858
148858
148864
148865
148865
148871
148870
148870
148877
148877
148878
148884
148883
148883
148890
148891
148891
148897
148897
148897
148904
148905
148905
148912
148911
148911
148919
148919
148919
148926
148926
148926
148934
148934
148935
148942
148942
148942
148950
148950
148951
148958
148958
148958
148967
148967
148967
148975
148975
148975
148984
148984
148984
148992
148992
148992
149001
149001
149002
149010
149010
149010
149019
149020
149020
149029
149028
149028
149038
149038
149039
149047
149047
149047
149057
149057
149058
149067
149066
149066
149076
149077
149077
149086
149086
149086
149096
149096
149096
149106
149105
149105
149115
149116
149116
149125
149125
149125
149135
149135
149135
149145
149144
149144
149154
149154
149155
149163
149163
149163
149173
149173
149173
149182
149181
149181
149190
149190
149191
149199
149198
149198
149207
149207
149207
149214
149214
149214
149222
149222
149222
149228
149228
149228
149235
149235
149235
149240
149240
149240
149245
149246
149246
149250
149249
149249
149253
149254
149254
149256
149256
149256
149259
149259
149259
149260
149259
149259
149260
149260
149260
149260
149260
149260
149259
149259
149259
149256
149256
149257
149254
149254
149254
149249
149249
149250
149245
149245
149245
149239
149239
149240
149234
149234
149234
149227
149227
149227
149221
149221
149220
149212
149213
149213
149206
149206
149205
149197
149197
149197
149190
149189
149189
149180
149181
149181
149173
149173
149172
149163
149164
149164
149156
149156
149155
149146
149147
149147
149139
149139
149139
149130
149130
149130
149123
149123
149123
149114
149115
149115
149108
149108
149108
149100
149100
149100
149094
149094
149094
149087
149087
149087
149082
149082
149082
149075
149076
149076
149071
149071
149071
149065
149066
149066
149062
149062
149062
149057
149057
149057
149054
149054
149054
149049
149050
149050
149047
149047
149047
149043
149043
149043
149041
149041
149041
149038
149038
149038
149036
149036
149036
149034
149034
149034
149032
149032
149032
149030
149030
149030
149029
149029
149029
149027
149027
149027
149026
149026
149026
149024
149024
149024
149023
149023
149023
149021
149021
149021
149021
149021
149021
149019
149019
149019
149019
149019
149019
149017
149017
149017
149017
149017
149016
149015
149015
149015
149015
149015
149015
149013
149013
149013
149013
149013
149013
149012
149012
149012
149011
149011
149011
149010
149010
149010
149010
149010
149010
149008
149008
149008
149008
149008
149008
149007
149007
149007
149007
149007
149007
149005
149005
149006
149005
149005
149005
149004
149004
149004
149002
149002
149003
149002
149002
149002
149000
149001
149001
148999
148999
148999
148999
149000
149000
149008
149008
149006
148980
148977
148979
148986
148995
149000
149001
149000
149001
149000
149000
149000
149000
149000
149000
149000
149000
149001
149000
149002
149001
149001
149002
149003
149007
148975
149009
149032
149034
149008
148967
148979
149002
149017
149010
148999
148984
148994
148997
148999
148996
148998
149001
149000
148998
148997
149000
148999
148999
149000
149000
149000
149001
149001
149001
149001
149001
149001
149002
149002
149002
149002
149002
149002
149002
149003
149003
149003
149003
149003
149004
149003
149003
149004
149004
149004
149003
149004
149004
149005
149004
149004
149005
149005
149004
149005
149005
149005
149005
149006
149006
149006
149005
149005
149006
149006
149006
149007
149006
149006
149006
149006
149007
149007
149007
149007
149007
149007
149007
149008
149007
149007
149008
149008
149008
149008
149008
149009
149009
149009
149008
149008
149009
149009
149010
149009
149008
149009
149009
149010
149010
149010
149009
149009
149010
149010
149011
149010
149010
149010
149010
149010
149011
149011
149011
149011
149011
149011
149011
149011
149012
149012
149011
149011
149012
149012
149012
149012
149012
149012
149012
149012
149012
149012
149012
149013
149013
149013
149012
149013
149013
149013
149013
149013
149013
149013
149013
149013
149013
149013
149014
149014
149013
149013
149013
149014
149014
149014
149014
149014
149014
149014
149014
149014
149014
149014
149014
149014
149014
149013
149014
149015
149015
149014
149013
149013
149014
149015
149015
149014
149013
149013
149014
149015
149015
149014
149013
149013
149014
149014
149014
149014
149013
149013
149014
149014
149014
149013
149012
149012
149013
149014
149013
149013
149013
149012
149012
149012
149013
149012
149011
149011
149011
149012
149010
149010
149011
149010
149010
149010
149010
149009
149008
149008
149008
149009
149007
149008
149008
149007
149007
149007
149004
149005
149007
149006
149004
149003
149003
149003
149003
149000
149001
149002
148999
148999
149000
148995
148998
148999
148998
148996
148992
148989
148993
148996
148993
148991
148986
148983
148988
148991
148987
148984
148979
148977
148980
148981
148975
148975
148975
148965
148968
148970
148958
148960
148961
148957
148954
148952
148946
148949
148952
148950
148948
148945
148947
148949
148950
148951
148951
148951
148956
148955
148952
148950
148958
148962
148967
148962
148952
148959
148968
148973
148970
148973
148977
148988
148976
148967
148975
148980
148988
148982
148987
148989
149007
149002
148997
149013
149027
149024
148992
148933
148979
148979
149001
149011
148998
149006
149019
149020
149016
149013
149010
149021
149037
149051
149027
149012
149013
149031
149059
149058
149043
149034
149047
149051
149055
149078
149058
149045
149035
149059
149095
149070
149079
149081
149104
149105
149088
149086
149004
149078
149082
149086
149089
149102
149097
149095
149107
149106
149104
149103
149118
149126
149124
149122
149119
149146
149127
149116
149153
149151
149143
149166
149164
149159
149107
149165
149123
149146
149164
149178
149192
149180
149158
149182
149192
149198
149202
149200
149196
149196
149219
149230
149246
149248
149234
149254
149165
149240
149218
149241
149269
149295
149258
149236
149278
149278
149278
149303
149299
149297
149319
149326
149321
149336
149254
149334
149337
149345
149349
149374
149362
149354
149394
149393
149382
149419
149425
149419
149433
149354
149456
149470
149462
149454
149480
149486
149485
149528
149527
149523
149555
149561
149562
149600
149585
149573
149629
149647
149666
149689
149694
149700
149705
149787
149734
149811
149825
149831
149902
149904
149889
149996
150003
149998
150148
150125
150087
150120
150170
150189
150274
150219
150164
150123
150178
150227
149991
149988
149957
149683
149688
149634
149308
149380
149394
149220
149168
149080
149060
149086
149096
149013
148975
148915
148935
148956
148968
148946
148915
148860
148924
148757
148925
148857
148888
148812
148843
148845
148863
148856
148855
148845
148830
148835
148835
148813
148813
148814
148844
148836
148810
148781
148834
148867
148802
148805
148812
148857
148821
148788
148775
148806
148859
148802
148801
148803
148802
148828
148860
148897
148801
148742
148788
148795
148811
148854
148834
148816
148754
148803
148885
148799
148797
148798
148847
148845
148834
148844
148827
148819
148794
148799
148813
148846
148843
148835
148802
148824
148862
148832
148797
148782
148889
148860
148807
148712
148863
148960
148849
148835
148819
148874
148711
148848
148881
148878
148816
148746
148853
148932
148788
148887
148775
148853
148850
148857
148822
148837
148848
148843
148748
148879
148862
148873
148849
148811
148841
148868
148774
148868
148786
148841
148856
148872
148854
148840
148835
148792
148881
148765
148831
148843
148883
148885
148828
148785
148856
148739
148844
148833
148868
148868
148861
148850
148821
148830
148739
148886
148797
148849
148890
148927
148815
148733
148820
148677
148877
148837
148879
148827
148827
148817
148818
148815
148850
148866
148871
148830
148766
148771
148801
148821
148839
148840
148833
148862
148813
148785
148779
148790
148823
148820
148838
148841
148845
148818
148776
148785
148774
148776
148853
148830
148780
148677
148830
148928
148823
148795
148759
148799
148828
148843
148824
148809
148763
148783
148656
148844
148772
148822
148797
148795
148757
148741
148795
148800
148796
148774
148787
148801
148760
148753
148751
148761
148787
148798
148798
148775
148719
148742
148642
148815
148767
148789
148748
148726
148732
148740
148798
148780
148745
148711
148762
148797
148734
148718
148700
148706
148756
148785
148785
148746
148662
148701
148607
148788
148724
148754
148713
148695
148695
148700
148755
148745
148724
148694
148716
148733
148683
148675
148668
148698
148711
148712
148714
148682
148652
148607
148753
148587
148719
148667
148687
148641
148657
148660
148680
148693
148708
148708
148662
148630
148664
148559
148657
148645
148676
148651
148628
148618
148612
148631
148638
148635
148640
148620
148600
148565
148636
148575
148648
148632
148629
148599
148607
148614
148614
148618
148615
148571
148589
148610
148521
148616
148525
148580
148575
148605
148550
148551
148543
148582
148571
148558
148529
148549
148572
148547
148464
148568
148573
148597
148562
148522
148523
148532
148553
148544
148521
148468
148514
148556
148403
148579
148433
148517
148462
148569
148471
148473
148450
148488
148493
148492
148462
148460
148460
148493
148505
148508
148472
148470
148473
148428
148420
148426
148452
148455
148451
148417
148414
148415
148431
148434
148428
148387
148405
148431
148296
148482
148332
148419
148352
148468
148371
148376
148351
148401
148411
148416
148372
148367
148367
148371
148376
148374
148334
148346
148353
148330
148229
148368
148320
148360
148322
148294
148296
148306
148324
148324
148314
148281
148278
148277
148309
148309
148299
148276
148288
148305
148223
148312
148236
148286
148263
148309
148228
148237
148234
148247
148251
148248
148207
148208
148212
148222
148229
148227
148200
148202
148198
148178
148110
148202
148188
148217
148185
148155
148156
148164
148200
148196
148182
148150
148150
148155
148169
148167
148157
148140
148133
148118
148174
147980
148119
148099
148183
148074
148074
148061
148082
148088
148096
148093
148048
148048
148052
148066
148075
148076
148032
148049
148057
148048
147896
148098
148021
148128
148035
148012
148003
148017
148019
148021
148012
147969
147967
147971
147980
147983
147979
147942
147938
147938
147959
147962
147954
147919
147930
147950
147812
147982
147856
147936
147873
147977
147873
147884
147873
147902
147905
147903
147877
147869
147866
147875
147883
147882
147834
147832
147834
147841
147848
147847
147793
147811
147822
147799
147663
147843
147761
147851
147780
147754
147741
147751
147768
147770
147762
147724
147723
147726
147745
147747
147740
147704
147699
147698
147738
147736
147726
147709
147702
147690
147739
147543
147685
147660
147754
147629
147628
147616
147637
147635
147646
147643
147586
147585
147591
147604
147610
147607
147562
147562
147566
147576
147589
147590
147578
147549
147524
147464
147628
147418
147612
147475
147565
147491
147502
147496
147520
147519
147510
147458
147460
147464
147469
147471
147465
147420
147417
147418
147436
147438
147431
147392
147390
147393
147404
147405
147398
147383
147374
147356
147426
147179
147363
147325
147462
147267
147302
147282
147313
147318
147329
147325
147283
147277
147277
147290
147300
147300
147235
147236
147240
147248
147255
147253
147200
147199
147202
147207
147216
147215
147165
147176
147176
147146
147046
147194
147132
147205
147141
147108
147095
147105
147113
147118
147110
147061
147058
147062
147076
147081
147074
147032
147030
147032
147056
147057
147047
147001
146999
147000
147016
147014
147003
146980
146979
146965
147017
146782
146952
146920
147047
146885
146895
146879
146901
146897
146908
146901
146842
146839
146847
146860
146867
146865
146797
146801
146810
146822
146830
146827
146778
146775
146777
146779
146792
146793
146754
146756
146744
146711
146596
146771
146700
146785
146703
146665
146654
146665
146667
146675
146663
146610
146606
146613
146633
146634
146623
146569
146562
146559
146585
146587
146579
146530
146527
146528
146538
146542
146537
146515
146500
146475
146548
146278
146485
146436
146596
146377
146405
146388
146420
146410
146423
146413
146361
146352
146359
146365
146371
146366
146303
146304
146310
146314
146321
146316
146263
146260
146262
146266
146274
146271
146209
146209
146213
146217
146225
146221
146182
146176
146174
146099
146135
146075
146167
146127
146140
146070
146079
146072
146078
146078
146074
146016
146014
146011
146024
146028
146021
145966
145963
145964
145973
145977
145970
145919
145916
145919
145929
145930
145918
145875
145888
145891
145874
145748
145828
145826
145889
145814
145774
145765
145783
145783
145796
145794
145714
145713
145718
145721
145731
145729
145661
145659
145661
145657
145664
145659
145591
145591
145595
145590
145595
145588
145561
145550
145540
145466
145521
145453
145525
145485
145509
145439
145446
145437
145448
145450
145444
145382
145380
145379
145393
145394
145384
145318
145312
145309
145324
145326
145316
145255
145253
145256
145258
145260
145249
145196
145200
145199
145147
145061
145121
145120
145176
145111
145036
145033
145062
145056
145064
145048
144990
144983
144991
144998
145006
145001
144939
144935
144937
144934
144943
144939
144862
144862
144866
144865
144879
144879
144820
144817
144810
144725
144689
144739
144749
144774
144739
144677
144666
144677
144668
144675
144660
144582
144577
144586
144568
144574
144564
144479
144460
144447
144484
144489
144478
144437
144452
144450
144459
144246
144388
144369
144466
144361
144317
144303
144318
144309
144329
144321
144236
144224
144228
144231
144245
144239
144155
144153
144161
144148
144164
144166
144113
144089
144070
143940
144049
143900
144043
143962
144009
143899
143905
143888
143860
143862
143864
143762
143749
143725
143785
143792
143786
143722
143715
143713
143735
143735
143717
143657
143677
143676
143702
143433
143600
143558
143671
143542
143489
143481
143501
143487
143507
143505
143408
143398
143397
143378
143393
143385
143283
143280
143287
143265
143284
143287
143190
143190
143177
143047
142951
143081
142987
143050
143020
142945
142919
142923
142981
142984
142968
142892
142887
142887
142898
142901
142888
142805
142803
142805
142814
142815
142799
142724
142732
142731
142646
142549
142613
142618
142679
142632
142524
142509
142533
142490
142508
142491
142382
142369
142376
142342
142363
142362
142235
142232
142227
142074
141910
142072
142064
142122
142084
142023
142001
142005
142039
142044
142030
141941
141936
141938
141937
141940
141924
141821
141819
141822
141816
141820
141803
141710
141722
141735
141552
141574
141556
141580
141574
141601
141464
141472
141469
141412
141421
141425
141259
141265
141268
141200
141208
141207
140955
141012
141048
140918
140893
140873
140999
141007
140990
140915
140913
140914
140905
140914
140901
140794
140790
140793
140778
140785
140770
140669
140679
140684
140511
140494
140495
140511
140531
140526
140389
140390
140399
140342
140360
140356
140214
140201
140190
139941
139932
139947
139837
139868
139881
139731
139686
139650
139740
139763
139763
139691
139688
139689
139710
139716
139697
139608
139619
139619
139462
139407
139438
139437
139481
139455
139316
139302
139317
139259
139282
139275
139123
139117
139112
138869
138859
138883
138861
138891
138861
138701
138677
138685
138446
138496
138519
138344
138292
138231
138132
138185
138197
138300
138321
138316
138198
138202
138207
138188
138211
138212
138073
138073
138056
137826
137780
137863
137825
137871
137816
137663
137644
137674
137596
137604
137569
137359
137373
137393
137055
137035
137038
136937
136991
136902
136469
136545
136666
136677
136653
136597
136573
136577
136591
136455
136529
136454
136519
136499
136493
136363
136372
136366
136339
136328
136305
136126
136150
136150
135836
135788
135822
135798
135838
135786
135564
135542
135577
135347
135382
135373
134913
134957
135020
134583
134452
134320
134651
134688
134694
134660
134656
134664
134473
134560
134492
134515
134519
134561
134311
134336
134327
134247
134269
134282
134025
134025
134004
133614
133598
133610
133562
133571
133544
133269
133260
133305
132495
132669
132681
132529
132426
132302
132343
132380
132442
132270
132314
132218
132400
132402
132381
132223
132212
132203
132168
132171
132144
131888
131905
131912
131429
131410
131425
131299
131326
131321
130951
130925
130957
130241
130155
129972
129726
129888
130029
129950
129871
129796
129780
129798
129818
129917
129952
129943
129799
129796
129787
129409
129399
129401
129296
129283
129255
128877
128892
128894
128115
128101
128167
127648
127464
127270
126863
127128
127327
127197
127116
126981
127048
127012
127102
127203
127277
127239
127088
127054
127045
126500
126543
126474
126209
126169
126145
125577
125480
125430
123735
124145
124483
124040
123842
123617
124335
124384
124376
124462
124456
124455
124255
124297
124285
123866
123641
123893
123342
123426
123339
122598
122356
122162
120554
121086
121472
121234
120993
120855
121788
121834
121710
121773
121757
121778
121415
121469
121453
120665
120522
120776
117929
118774
118944
119226
118963
118819
119430
119405
119458
119467
119430
119447
119167
119180
119263
118496
118144
117616
117363
117691
117927
117855
117940
117569
118887
118868
118837
119003
118756
118317
118083
118649
118955
119155
119001
118748
119646
119791
119795
120658
120550
120260
121398
121522
121549
122418
122444
122408
123125
123143
123122
123669
123680
123666
124119
124129
124124
124523
124525
124518
124873
124878
124877
125196
125196
125192
125480
125484
125485
125749
125748
125744
125986
125990
125992
126216
126213
126210
126417
126419
126422
126614
126610
126608
126784
126787
126790
126955
126951
126949
127102
127104
127107
127250
127247
127245
127379
127381
127384
127509
127506
127504
127622
127623
127626
127737
127735
127733
127837
127839
127841
127940
127937
127936
128029
128030
128033
128121
128118
128117
128200
128202
128204
128284
128281
128280
128355
128356
128358
128430
128428
128427
128494
128495
128497
128562
128560
128559
128621
128622
128623
128683
128681
128680
128736
128737
128738
128792
128790
128789
128840
128841
128842
128891
128890
128889
128936
128936
128937
128982
128981
128980
129023
129023
129024
129065
129064
129064
129102
129103
129103
129141
129141
129140
129175
129176
129176
129211
129210
129210
129242
129243
129243
129275
129274
129274
129304
129304
129304
129333
129333
129333
129360
129360
129360
129388
129387
129387
129412
129412
129412
129437
129437
129437
129460
129460
129460
129483
129483
129482
129504
129504
129504
129525
129525
129524
129544
129544
129544
129563
129563
129563
129581
129581
129581
129599
129599
129599
129615
129615
129615
129632
129632
129632
129647
129647
129647
129662
129662
129662
129676
129676
129676
129690
129691
129690
129703
129703
129703
129716
129716
129716
129728
129728
129728
129740
129740
129740
129751
129751
129751
129762
129762
129762
129772
129773
129772
129783
129783
129783
129792
129792
129792
129801
129802
129802
129810
129810
129810
129819
129819
129819
129827
129827
129827
129835
129835
129835
129842
129842
129842
129850
129850
129850
129857
129857
129857
129864
129864
129864
129870
129870
129870
129876
129876
129876
129882
129882
129882
129888
129888
129888
129893
129893
129893
129899
129899
129899
129904
129904
129904
129909
129909
129909
129914
129914
129913
129918
129918
129918
129923
129922
129922
129927
129927
129927
129931
129931
129931
129935
129935
129935
129939
129939
129938
129943
129943
129943
129946
129946
129946
129950
129949
129949
129952
129952
129952
129956
129956
129956
129959
129959
129958
129962
129962
129962
129964
129964
129964
129967
129967
129967
129970
129969
129969
129972
129972
129972
129974
129974
129974
129977
129977
129977
129979
129979
129979
129981
129981
129981
129983
129983
129983
129985
129985
129985
129987
129986
129986
129989
129988
129988
129990
129990
129990
129992
129992
129992
129993
129993
129993
129995
129995
129995
129996
129996
129996
129997
129997
129997
129998
129998
129998
130000
130000
130000
130001
130001
130001
130002
130002
130002
130003
130003
130003
130004
130004
130004
130005
130005
130005
130006
130006
130006
130007
130007
130007
130008
130008
130008
130008
130008
130008
130009
130009
130009
130010
130010
130009
130010
130010
130010
130011
130011
130011
130011
130011
130011
130012
130012
130012
130012
130012
130012
130012
130012
130012
130013
130013
130013
130013
130013
130013
130013
130013
130013
130013
130013
130013
130014
130014
130014
130014
130014
130014
130014
130014
130014
130014
130014
130014
130014
130014
130014
130014
130014
130014
130014
130014
130014
130014
130014
130014
130014
130014
130014
130014
130014
130013
130014
130013
130014
130013
130013
130013
130013
130013
130013
130013
130013
130013
130013
130013
130013
130012
130012
130012
130012
130012
130012
130011
130011
130011
130011
130011
130011
130010
130010
130010
130010
130010
130010
130009
130009
130009
130009
130009
130009
130008
130008
130008
130007
130007
130007
130006
130006
130006
130005
130005
130005
130004
130004
130004
130003
130003
130003
130002
130002
130002
130001
130001
130001
130000
129999
129999
129998
129998
129998
129997
129997
129997
129996
129996
129996
129994
129994
129994
129993
129993
129993
129992
129992
129991
129990
129990
129990
129989
129989
129989
129988
129988
129988
129986
129986
129986
129985
129985
129985
129983
129983
129983
129982
129982
129982
129980
129980
129980
129980
129980
129980
129979
129979
129979
129977
129977
129977
129973
129973
129973
129967
129967
129968
129965
129964
129963
129972
129973
129973
130004
130006
130007
130031
130027
130024
130040
130067
130036
130014
129986
130035
130070
130028
130003
130029
130055
130044
130028
130019
130014
130012
130011
130012
130012
130012
130012
130013
130013
130013
130013
130012
130012
130012
130011
130011
130010
130011
130010
130008
130010
130016
130021
130029
130037
130047
130058
130071
130083
130094
130102
130106
130109
130113
130118
130125
130132
130141
130151
130161
130173
130186
130201
130218
130236
130257
130281
130307
130338
130373
130412
130457
130508
130565
130629
130702
130783
130874
130976
131090
131216
131355
131509
131678
131863
132064
132282
132516
132767
133033
133315
133612
133922
134244
134577
134918
135267
135622
135981
136342
136704
137065
137424
137780
138132
138478
138818
139151
139477
139794
140104
140404
140696
140979
141253
141517
141773
142020
142258
142487
142708
142921
143126
143323
143512
143694
143869
144037
144198
144354
144503
144646
144783
144915
145042
145164
145281
145393
145501
145605
145705
145800
145892
145981
146066
146148
146226
146301
146374
146444
146511
146575
146637
146697
146754
146810
146863
146914
146963
147010
147056
147099
147142
147182
147221
147259
147295
147329
147363
147395
147426
147455
147484
147511
147538
147563
147587
147611
147633
147654
147675
147695
147714
147732
147749
147766
147782
147797
147811
147825
147838
147851
147862
147874
147884
147894
147904
147912
147921
147928
147935
147942
147948
147953
147958
147963
147967
147970
147976
147983
147989
147992
147992
147994
147982
147989
147989
147997
148005
148009
148014
148018
148023
148028
148033
148038
148044
148050
148057
148064
148071
148078
148086
148095
148103
148112
148121
148131
148141
148151
148161
148172
148183
148194
148205
148217
148228
148240
148252
148264
148276
148289
148301
148314
148327
148339
148352
148365
148378
148391
148403
148416
148429
148441
148454
148466
148479
148491
148503
148515
148527
148539
148550
148561
148572
148583
148593
148604
148614
148623
148633
148642
148650
148659
148667
148675
148682
148689
148695
148701
148707
148713
148718
148723
148727
148731
148732
148733
148735
148740
148749
148755
148758
148754
148752
148750
148748
148747
148746
148746
148746
148745
148746
148746
148747
148748
148750
148751
148753
148754
148757
148758
148761
148763
148766
148769
148772
148775
148779
148782
148786
148789
148794
148797
148802
148806
148811
148815
148821
148825
148831
148836
148842
148847
148853
148859
148865
148871
148878
148884
148891
148898
148905
148912
148920
148927
148935
148942
148951
148958
148967
148975
148985
148993
149002
149011
149020
149029
149039
149048
149058
149067
149077
149086
149097
149106
149116
149126
149136
149145
149155
149164
149174
149182
149191
149199
149208
149215
149223
149229
149236
149241
149246
149250
149254
149256
149259
149260
149261
149260
149259
149257
149254
149249
149245
149239
149234
149226
149220
149212
149205
149196
149189
149179
149172
149162
149155
149145
149138
149129
149122
149114
149107
149099
149093
149086
149081
149075
149070
149065
149061
149056
149053
149049
149047
149043
149041
149038
149036
149033
149032
149030
149029
149026
149026
149024
149023
149021
149021
149019
149018
149017
149016
149015
149015
149013
149013
149012
149011
149010
149010
149008
149008
149007
149007
149005
149005
149003
149003
149002
149002
149001
149002
149005
149003
149003
149004
149003
149001
149001
149002
149002
149002
149003
149003
149003
149005
149005
149005
149006
149006
149007
149008
149008
149008
149010
149009
149010
149012
149011
149012
149013
149013
149013
149015
149014
149015
149017
149016
149017
149019
149018
149019
149021
149020
149021
149023
149022
149024
149026
149024
149026
149028
149027
149029
149032
149030
149033
149036
149034
149037
149040
149039
149042
149046
149044
149048
149052
149050
149055
149060
149057
149063
149069
149066
149072
149079
149077
149084
149091
149089
149096
149105
149103
149111
149120
149118
149126
149136
149134
149142
149152
149151
149160
149170
149169
149177
149187
149187
149194
149203
149204
149210
149219
149220
149225
149233
149234
149238
149245
149248
149249
149255
149258
149257
149260
149263
149261
149262
149265
149261
149261
149264
149258
149257
149259
149252
149249
149250
149243
149239
149239
149231
149226
149226
149217
149211
149210
149201
149195
149193
149184
149177
149175
149166
149159
149157
149147
149140
149137
149127
149120
149118
149108
149101
149098
149088
149081
149078
149069
149062
149059
149050
149042
149040
149031
149024
149021
149012
149006
149003
148994
148988
148985
148977
148971
148968
148960
148954
148952
148944
148938
148936
148928
148923
148921
148913
148908
148906
148899
148894
148892
148885
148881
148879
148872
148868
148866
148860
148856
148854
148848
148844
148843
148837
148833
148832
148826
148823
148822
148816
148813
148812
148807
148804
148803
148798
148796
148795
148790
148788
148787
148783
148781
148780
148776
148774
148774
148770
148768
148768
148764
148763
148763
148759
148758
148758
148755
148754
148754
148752
148751
148751
148749
148748
148749
148747
148747
148747
148746
148746
148747
148746
148747
148747
148747
148748
148748
148749
148751
148749
148753
148743
148745
148746
148747
148748
148750
148753
148756
148760
148764
148770
148776
148782
148789
148797
148805
148814
148823
148834
148844
148856
148868
148880
148893
148907
148922
148937
148952
148969
148986
149003
149022
149040
149059
149079
149099
149119
149139
149159
149178
149197
149215
149231
149246
149258
149267
149272
149274
149272
149266
149254
149239
149222
149205
149186
149167
149148
149131
149114
149098
149085
149073
149062
149054
149047
149041
149037
149033
149029
149027
149024
149022
149020
149018
149016
149014
149013
149011
149010
149008
149007
149005
149004
149003
149002
149002
149001
149002
149002
149000
149002
149000
149001
149001
149001
149000
149001
149002
149003
149004
149005
149006
149008
149009
149011
149012
149014
149015
149017
149018
149020
149022
149020
149019
149017
149016
149015
149013
149012
149010
149009
149008
149006
149005
149004
149003
149002
149001
149001
149000
149001
149001
149000
149001
149001
149002
149003
149004
149004
149003
149002
149001
149000
149001
149002
149000
149000
149001
149001
149001
149002
149003
149005
149005
149005