/*--------------------------------*- C++ -*----------------------------------*\
| =========                 |                                                 |
| \\      /  F ield         | OpenFOAM: The Open Source CFD Toolbox           |
|  \\    /   O peration     | Version:  v2006                                 |
|   \\  /    A nd           | Website:  www.openfoam.com                      |
|    \\/     M anipulation  |                                                 |
\*---------------------------------------------------------------------------*/
FoamFile
{
    version     2.0;
    format      ascii;
    class       volScalarField;
    location    "0.136";
    object      T;
}
// * * * * * * * * * * * * * * * * * * * * * * * * * * * * * * * * * * * * * //

dimensions      [0 0 0 1 0 0 0];


internalField   nonuniform List<scalar> 
16277
(
298.839
298.839
298.839
298.839
298.839
298.839
298.839
298.84
298.841
298.844
298.847
298.851
298.854
298.858
298.862
298.866
298.87
298.874
298.879
298.883
298.888
298.893
298.898
298.903
298.909
298.914
298.92
298.926
298.932
298.938
298.945
298.951
298.957
298.964
298.971
298.978
298.985
298.992
298.999
299.006
299.013
299.021
299.028
299.035
299.043
299.05
299.058
299.065
299.073
299.08
299.088
299.095
299.102
299.11
299.117
299.124
299.131
299.139
299.145
299.152
299.159
299.166
299.172
299.179
299.185
299.191
299.197
299.203
299.209
299.214
299.22
299.225
299.23
299.235
299.24
299.244
299.248
299.252
299.256
299.26
299.264
299.268
299.271
299.273
299.273
299.274
299.273
299.273
299.273
299.273
299.273
299.274
299.276
299.279
299.285
299.291
299.316
299.322
299.29
299.281
299.281
299.292
299.331
299.341
299.295
299.282
299.282
299.298
299.346
299.353
299.301
299.284
299.286
299.304
299.355
299.359
299.308
299.289
299.291
299.311
299.361
299.363
299.314
299.293
299.296
299.316
299.364
299.365
299.319
299.298
299.3
299.321
299.365
299.366
299.324
299.303
299.305
299.326
299.366
299.367
299.328
299.307
299.309
299.33
299.367
299.368
299.332
299.312
299.314
299.334
299.368
299.369
299.336
299.316
299.318
299.337
299.369
299.369
299.34
299.321
299.322
299.341
299.37
299.371
299.343
299.325
299.327
299.344
299.371
299.372
299.347
299.329
299.331
299.348
299.372
299.374
299.35
299.334
299.335
299.351
299.374
299.376
299.354
299.338
299.34
299.355
299.376
299.378
299.358
299.343
299.345
299.359
299.378
299.38
299.362
299.348
299.35
299.363
299.381
299.383
299.366
299.353
299.355
299.368
299.384
299.386
299.371
299.358
299.36
299.372
299.387
299.39
299.376
299.363
299.365
299.377
299.391
299.393
299.38
299.369
299.371
299.382
299.394
299.397
299.386
299.375
299.377
299.387
299.398
299.402
299.391
299.381
299.383
299.393
299.403
299.406
299.397
299.387
299.389
299.398
299.407
299.411
299.403
299.394
299.396
299.404
299.412
299.416
299.409
299.401
299.403
299.411
299.418
299.422
299.415
299.408
299.41
299.417
299.423
299.427
299.422
299.415
299.418
299.424
299.429
299.433
299.429
299.423
299.425
299.431
299.435
299.44
299.436
299.431
299.433
299.438
299.442
299.446
299.444
299.439
299.442
299.446
299.448
299.453
299.452
299.447
299.45
299.454
299.455
299.46
299.46
299.456
299.459
299.462
299.463
299.468
299.468
299.465
299.468
299.47
299.47
299.476
299.476
299.474
299.477
299.479
299.478
299.484
299.485
299.484
299.487
299.488
299.486
299.492
299.494
299.493
299.496
299.497
299.494
299.5
299.503
299.503
299.506
299.506
299.502
299.508
299.512
299.513
299.516
299.515
299.511
299.517
299.521
299.522
299.525
299.524
299.519
299.525
299.53
299.532
299.534
299.533
299.527
299.533
299.539
299.541
299.544
299.541
299.535
299.541
299.547
299.55
299.552
299.549
299.543
299.548
299.555
299.558
299.56
299.557
299.55
299.555
299.562
299.565
299.567
299.563
299.556
299.561
299.568
299.572
299.574
299.569
299.562
299.566
299.573
299.578
299.579
299.574
299.567
299.569
299.577
299.582
299.582
299.578
299.57
299.572
299.58
299.585
299.585
299.58
299.572
299.573
299.581
299.585
299.585
299.58
299.573
299.573
299.58
299.585
299.583
299.578
299.572
299.571
299.578
299.583
299.58
299.575
299.569
299.568
299.574
299.579
299.574
299.57
299.564
299.563
299.568
299.573
299.568
299.563
299.559
299.557
299.561
299.565
299.56
299.556
299.553
299.551
299.554
299.557
299.551
299.548
299.546
299.544
299.545
299.548
299.541
299.539
299.538
299.536
299.536
299.538
299.531
299.53
299.531
299.528
299.527
299.528
299.521
299.521
299.523
299.521
299.518
299.518
299.511
299.511
299.515
299.513
299.509
299.508
299.501
299.503
299.508
299.506
299.5
299.498
299.492
299.495
299.501
299.5
299.492
299.489
299.483
299.487
299.495
299.493
299.485
299.481
299.476
299.481
299.489
299.488
299.479
299.474
299.469
299.475
299.484
299.483
299.473
299.468
299.464
299.47
299.48
299.479
299.468
299.462
299.459
299.465
299.476
299.475
299.464
299.458
299.455
299.462
299.472
299.471
299.461
299.454
299.452
299.459
299.469
299.468
299.458
299.451
299.449
299.456
299.466
299.465
299.456
299.449
299.447
299.454
299.464
299.464
299.454
299.447
299.444
299.452
299.464
299.463
299.452
299.443
299.443
299.45
299.462
299.461
299.45
299.443
299.442
299.449
299.459
299.458
299.449
299.442
299.441
299.448
299.457
299.457
299.448
299.441
299.44
299.447
299.455
299.455
299.447
299.44
299.44
299.446
299.454
299.453
299.446
299.439
299.439
299.445
299.453
299.453
299.446
299.44
299.438
299.445
299.453
299.453
299.445
299.438
299.438
299.444
299.454
299.452
299.444
299.438
299.437
299.443
299.449
299.45
299.444
299.438
299.437
299.442
299.447
299.449
299.442
299.437
299.436
299.442
299.449
299.448
299.442
299.436
299.435
299.441
299.447
299.447
299.441
299.436
299.435
299.44
299.448
299.447
299.439
299.434
299.435
299.44
299.447
299.446
299.438
299.434
299.434
299.438
299.444
299.435
299.43
299.43
299.437
299.441
299.433
299.413
299.428
299.433
299.437
299.43
299.424
299.422
299.422
299.422
299.423
299.423
299.424
299.425
299.425
299.427
299.428
299.43
299.432
299.434
299.437
299.44
299.445
299.452
299.458
299.465
299.459
299.483
299.489
299.416
299.474
299.487
299.492
299.474
299.421
299.435
299.476
299.45
299.424
299.477
299.534
299.489
299.474
299.465
299.473
299.468
299.468
299.47
299.469
299.469
299.469
299.471
299.472
299.476
299.474
299.471
299.471
299.473
299.476
299.473
299.473
299.473
299.474
299.473
299.47
299.465
299.471
299.473
299.471
299.473
299.469
299.473
299.474
299.47
299.47
299.473
299.472
299.475
299.476
299.473
299.471
299.477
299.48
299.484
299.477
299.467
299.467
299.478
299.489
299.49
299.477
299.467
299.468
299.477
299.487
299.486
299.476
299.468
299.468
299.475
299.485
299.481
299.473
299.468
299.468
299.472
299.475
299.473
299.472
299.47
299.474
299.471
299.467
299.466
299.472
299.475
299.476
299.474
299.469
299.471
299.474
299.476
299.477
299.475
299.471
299.471
299.475
299.477
299.477
299.474
299.469
299.47
299.475
299.477
299.477
299.474
299.469
299.466
299.473
299.477
299.477
299.475
299.467
299.472
299.476
299.474
299.472
299.479
299.482
299.487
299.48
299.473
299.472
299.48
299.487
299.482
299.479
299.474
299.479
299.48
299.478
299.478
299.48
299.479
299.479
299.482
299.48
299.484
299.483
299.48
299.478
299.484
299.488
299.493
299.485
299.473
299.473
299.485
299.497
299.497
299.484
299.474
299.474
299.482
299.493
299.488
299.481
299.474
299.474
299.48
299.485
299.48
299.48
299.477
299.482
299.479
299.472
299.471
299.479
299.483
299.482
299.481
299.471
299.476
299.482
299.481
299.481
299.483
299.482
299.483
299.484
299.482
299.483
299.485
299.483
299.482
299.485
299.484
299.485
299.485
299.481
299.478
299.486
299.487
299.487
299.487
299.477
299.479
299.488
299.487
299.488
299.489
299.481
299.482
299.49
299.489
299.486
299.493
299.491
299.5
299.494
299.48
299.48
299.493
299.5
299.492
299.489
299.483
299.483
299.483
299.477
299.47
299.479
299.477
299.473
299.478
299.47
299.48
299.48
299.468
299.464
299.487
299.503
299.519
299.497
299.467
299.473
299.503
299.531
299.532
299.504
299.478
299.488
299.502
299.517
299.486
299.493
299.499
299.496
299.482
299.465
299.441
299.471
299.489
299.481
299.462
299.433
299.423
299.456
299.479
299.476
299.449
299.408
299.401
299.442
299.468
299.459
299.44
299.399
299.427
299.445
299.444
299.418
299.461
299.483
299.504
299.469
299.421
299.436
299.472
299.512
299.51
299.47
299.44
299.423
299.461
299.513
299.511
299.442
299.401
299.376
299.426
299.52
299.534
299.423
299.373
299.385
299.429
299.538
299.536
299.435
299.396
299.404
299.437
299.518
299.515
299.438
299.399
299.391
299.447
299.559
299.612
299.47
299.391
299.405
299.492
299.633
299.6
299.482
299.426
299.431
299.38
299.609
299.699
299.564
299.287
299.344
299.5
299.619
299.624
299.464
299.388
299.373
299.513
299.737
299.752
299.541
299.453
299.539
299.53
299.602
299.419
299.467
299.558
299.489
299.427
299.408
299.554
299.428
299.351
299.324
299.47
299.73
299.745
299.505
299.368
299.415
299.475
299.653
299.635
299.332
299.44
299.297
299.596
299.719
299.516
299.548
299.485
299.449
299.502
299.619
299.515
299.467
299.445
299.449
299.456
299.425
299.468
299.461
299.428
299.443
299.471
299.519
299.566
299.505
299.417
299.42
299.577
299.556
299.676
299.561
299.568
299.368
299.494
299.791
299.729
299.489
299.328
299.315
299.508
299.839
299.845
299.522
299.36
299.441
299.456
299.742
299.798
299.346
299.426
299.238
299.681
300.009
299.687
299.567
299.484
299.489
299.507
299.701
299.706
299.523
299.447
299.478
299.482
299.702
299.712
299.374
299.496
299.305
299.663
299.858
299.641
299.584
299.537
299.531
299.555
299.707
299.705
299.536
299.516
299.522
299.421
299.751
299.826
299.697
299.324
299.588
299.609
299.537
299.646
299.579
299.541
299.603
299.583
299.58
299.599
299.606
299.615
299.641
299.593
299.573
299.557
299.638
299.692
299.655
299.745
299.618
299.638
299.577
299.841
299.693
299.715
299.763
299.708
299.739
299.754
299.766
299.767
299.761
299.77
299.782
299.8
299.848
299.85
299.859
299.86
299.868
299.873
299.816
299.795
299.77
299.739
299.734
299.744
299.618
299.603
299.626
299.499
299.521
299.532
299.476
299.473
299.485
299.423
299.422
299.42
299.404
299.416
299.447
299.413
299.362
299.36
299.401
299.431
299.464
299.647
299.939
298.898
299.255
298.939
299.942
299.655
299.311
299.325
299.318
299.364
299.484
299.493
299.383
299.339
299.348
299.415
299.496
299.462
299.331
299.292
299.021
299.476
299.84
299.669
299.489
299.203
299.292
299.369
299.365
299.027
299.263
299.556
299.456
299.332
299.285
299.371
299.421
299.452
299.724
299.243
299
299.253
299.294
299.507
299.43
299.385
299.359
298.853
299.151
299.781
299.551
299.185
299.075
299.399
299.336
299.414
299.412
299.355
299.416
299.353
299.328
299.367
299.361
299.32
299.331
299.537
299.418
299.241
299.318
299.53
299.556
299.53
299.406
299.22
299.233
299.402
299.558
299.263
299.41
299.485
299.073
299.69
299.486
299.804
298.999
299.221
299.143
299.308
299.805
299.292
299.225
299.658
299.392
299.62
299.201
299.312
299.53
299.441
299.127
299.726
299.688
299.7
299.187
299.32
299.324
299.335
299.679
299.297
299.203
299.571
299.278
299.497
299.221
299.279
299.329
299.404
299.701
298.995
298.941
298.911
299.574
299.53
299.489
299.485
299.09
299.654
299.685
299.044
299.206
299.062
299.785
299.393
299.295
299.259
298.945
299.574
299.448
299.323
299.11
299.471
299.528
299.331
299.098
299.871
300.052
299.008
299.126
298.785
300.227
300.093
299.486
299.151
299.15
299.339
299.739
299.663
299.347
299.204
299.258
299.425
299.647
299.444
299.242
299.271
298.969
299.373
299.708
299.64
299.493
299.034
299.084
299.166
299.435
299.848
299.439
298.849
299.115
299.632
299.728
299.535
299.258
299.105
298.62
299.556
300.154
299.854
299.576
298.934
299.049
299.22
299.464
299.307
299.362
299.137
298.846
299.82
299.525
299.771
298.891
299.282
299.461
299.354
299.56
299.51
299.337
299.286
299.187
299.346
299.6
299.639
299.475
299.254
299.186
299.266
299.495
299.584
299.41
299.068
298.748
299.786
299.765
299.779
298.893
299.101
299.17
299.137
299.475
299.314
299.241
299.166
299.21
299.243
299.285
299.282
299.241
299.236
299.158
299.182
299.344
299.589
299.383
298.96
298.649
299.76
299.731
299.728
298.862
299.065
299.164
299.127
299.41
299.268
299.2
299.17
299.18
299.205
299.249
299.288
299.226
299.205
299.156
299.166
299.229
299.426
299.168
299.151
299.504
298.676
299.229
298.739
299.56
299.233
299.214
299.31
299.135
299.139
299.209
299.224
299.477
299.055
298.756
298.865
299.221
299.11
299.213
298.895
299.335
299.291
299.065
299.119
299.109
299.157
299.149
298.997
299.05
299.293
299.358
298.868
298.781
298.885
299.254
299.171
299.138
299.18
299.094
299.088
299.174
299.101
299.278
299.038
298.982
298.747
298.738
299.392
299.145
299.294
298.769
299.004
299.16
299.105
299.105
299.126
299.058
298.742
299.006
299.344
299.054
299.17
298.8
299.189
298.844
299.171
299.071
299.02
299.165
299.092
299.026
299.038
298.918
299.109
299.404
299.238
298.587
299.314
299.003
299.518
298.705
299.147
299.016
299.057
299.029
298.99
299.12
299.084
298.976
298.996
299.024
299.01
299.028
299.035
299.061
299.037
299.027
299.045
299.043
299.046
299.005
298.999
298.994
299.017
299.059
298.993
298.988
298.984
298.978
299.004
299.201
299.146
298.435
299.301
298.998
299.489
298.565
299.083
298.956
299.021
298.975
298.928
299.055
299.014
298.909
298.924
298.947
298.911
298.976
298.976
299.012
298.979
298.714
299.335
298.987
299.307
298.714
298.911
298.888
298.902
299.148
299.024
298.913
298.909
298.927
298.953
299.014
298.967
298.939
298.906
298.916
298.943
299.069
298.9
298.697
299.075
298.886
299.132
298.724
298.915
298.928
298.919
298.887
298.895
298.921
298.947
298.897
298.871
298.848
298.85
298.923
298.915
298.914
298.874
298.728
299.096
298.879
299.098
298.706
298.837
298.814
298.835
299.034
298.951
298.837
298.824
298.835
298.862
298.921
298.909
298.81
298.812
298.831
298.896
298.921
298.937
299.491
298.458
298.756
298.323
299.415
298.981
298.855
298.719
298.758
298.823
298.894
298.882
298.861
298.799
298.768
298.781
298.89
298.898
298.86
298.793
298.411
299.511
298.903
299.419
298.264
298.73
298.656
298.781
298.962
298.84
298.763
298.687
298.743
298.811
298.821
298.804
298.756
298.728
298.736
298.779
298.846
298.79
298.729
298.708
298.68
298.765
298.969
298.956
298.246
298.932
298.65
299.149
298.383
298.786
298.7
298.758
298.714
298.684
298.778
298.79
298.673
298.657
298.647
298.659
298.749
298.742
298.682
298.651
298.636
298.629
298.723
298.729
298.697
298.675
298.365
299.261
298.644
299.169
298.237
298.609
298.543
298.631
298.826
298.727
298.618
298.576
298.623
298.672
298.723
298.707
298.629
298.604
298.616
298.663
298.733
298.712
298.583
298.576
298.615
298.644
298.695
298.598
299.284
298.292
298.565
298.049
299.187
298.707
298.603
298.46
298.48
298.569
298.656
298.62
298.611
298.536
298.523
298.555
298.606
298.641
298.575
298.531
298.507
298.523
298.568
298.822
298.589
298.448
298.753
297.86
298.922
298.018
299.077
298.446
298.56
298.498
298.547
298.579
298.46
298.518
298.442
298.446
298.59
298.559
298.438
298.43
298.424
298.469
298.554
298.523
298.439
298.419
298.427
298.463
298.521
298.525
298.404
298.399
298.471
298.474
298.485
298.297
299.339
298.058
298.452
297.606
299.229
298.464
298.44
298.275
298.296
298.412
298.447
298.411
298.454
298.37
298.347
298.386
298.439
298.453
298.398
298.353
298.321
298.341
298.436
298.453
298.374
298.327
298.288
298.306
298.417
298.419
298.353
298.335
298.122
298.762
298.257
298.738
297.972
298.295
298.199
298.277
298.468
298.382
298.247
298.215
298.247
298.306
298.358
298.361
298.263
298.235
298.244
298.302
298.377
298.345
298.244
298.218
298.225
298.276
298.358
298.337
298.2
298.18
298.246
298.243
298.304
298.063
299.073
297.881
298.218
297.501
298.954
298.341
298.177
298.043
298.063
298.149
298.288
298.213
298.218
298.137
298.12
298.154
298.233
298.248
298.18
298.133
298.1
298.125
298.231
298.248
298.16
298.109
298.061
298.086
298.223
298.22
298.126
298.111
297.865
298.668
298.003
298.619
297.691
298.066
297.943
298.052
298.299
298.189
297.996
297.965
298.003
298.076
298.149
298.143
298.02
297.993
298.003
298.064
298.151
298.114
298.006
297.977
297.989
298.043
298.133
298.099
297.963
297.949
298.045
298.003
298.065
297.642
298.985
297.664
298.053
297.045
298.826
298.044
297.914
297.793
297.795
297.911
298.019
297.938
297.971
297.871
297.861
297.899
297.976
297.967
297.911
297.864
297.833
297.856
297.969
297.987
297.894
297.84
297.806
297.833
297.956
297.967
297.871
297.813
297.776
297.798
297.899
297.964
297.849
297.753
297.841
297.646
297.998
297.744
297.92
297.691
297.76
297.789
297.875
297.829
297.762
297.717
297.72
297.765
297.868
297.846
297.707
297.684
297.693
297.753
297.871
297.832
297.689
297.657
297.673
297.732
297.841
297.788
297.645
297.614
297.652
297.692
297.822
297.571
298.098
297.526
297.635
297.347
298.062
297.831
297.642
297.537
297.526
297.565
297.776
297.732
297.622
297.557
297.53
297.565
297.714
297.707
297.602
297.541
297.495
297.526
297.672
297.681
297.564
297.51
297.458
297.488
297.614
297.719
297.555
297.445
297.541
297.293
297.749
297.433
297.644
297.38
297.481
297.508
297.57
297.532
297.466
297.407
297.412
297.475
297.57
297.544
297.383
297.352
297.363
297.429
297.567
297.508
297.348
297.315
297.33
297.394
297.518
297.445
297.302
297.274
297.292
297.336
297.489
297.267
297.616
297.237
297.283
297.028
297.676
297.44
297.289
297.205
297.186
297.212
297.405
297.377
297.278
297.196
297.157
297.2
297.355
297.377
297.251
297.176
297.116
297.157
297.324
297.335
297.2
297.138
297.069
297.1
297.258
297.304
297.135
297.062
297.054
297.33
297.216
297.296
296.981
297.04
296.994
297.134
297.253
297.206
296.996
296.956
296.967
297.049
297.191
297.152
296.944
296.913
296.939
297.005
297.148
297.118
296.913
296.862
296.941
296.914
297.147
296.646
297.697
296.713
296.911
296.478
297.533
297.28
296.87
296.741
296.727
296.777
297.126
297.054
296.877
296.752
296.75
296.782
296.98
296.971
296.842
296.775
296.701
296.738
296.87
296.997
296.817
296.662
296.797
296.28
297.234
296.534
296.957
296.569
296.688
296.695
296.698
296.762
296.693
296.601
296.624
296.648
296.799
296.753
296.58
296.536
296.548
296.633
296.784
296.754
296.509
296.457
296.537
296.5
296.802
296.104
297.495
296.269
296.509
295.985
297.168
296.935
296.431
296.319
296.276
296.309
296.71
296.64
296.423
296.293
296.277
296.317
296.572
296.554
296.398
296.312
296.218
296.256
296.451
296.494
296.261
296.226
296.125
296.705
296.068
296.58
296.047
296.167
296.103
296.227
296.59
296.447
296.098
296.062
296.081
296.186
296.48
296.327
296.065
296.027
296.043
296.138
296.334
296.221
296.023
295.982
295.988
296.039
296.291
295.991
296.413
295.953
295.955
295.844
296.34
296.221
295.998
295.882
295.806
295.843
296.207
296.177
295.933
295.821
295.725
295.771
296.041
296.061
295.727
295.711
295.645
296.465
295.469
296.156
295.583
295.681
295.638
295.707
296.219
295.974
295.595
295.567
295.577
295.705
296.021
295.862
295.551
295.514
295.527
295.632
295.858
295.739
295.508
295.463
295.421
295.591
295.77
295.815
295.442
295.485
295.324
295.522
295.505
295.622
295.417
295.365
295.257
295.353
295.577
295.57
295.35
295.259
295.139
295.204
295.405
295.459
295.213
295.078
295.183
295.302
295.483
295.392
295.139
295.056
295.091
295.223
295.441
295.366
295.046
294.977
295.008
295.139
295.39
295.261
294.968
294.907
294.866
295.037
295.315
295.26
295.086
294.93
294.787
294.853
295.146
295.15
294.916
294.8
294.683
294.739
295.037
295.055
294.775
294.609
294.623
294.742
294.954
294.848
294.552
294.461
294.514
294.65
294.912
294.824
294.484
294.404
294.444
294.607
294.881
294.736
294.418
294.344
294.315
294.475
294.841
294.646
294.677
294.371
294.273
294.265
294.682
294.653
294.387
294.23
294.1
294.17
294.491
294.559
294.233
294.053
294.102
294.281
294.467
294.364
293.896
293.933
293.877
293.981
294.261
294.092
293.803
293.706
293.652
293.861
294.218
294.343
293.866
293.796
293.645
293.764
294.123
294.142
293.88
293.679
293.541
293.625
293.964
294.103
293.67
293.507
293.506
293.965
293.778
293.966
293.411
293.411
293.35
293.532
293.873
293.793
293.259
293.171
293.099
293.332
293.78
293.532
293.252
293.105
292.978
292.725
293.605
293.366
293.037
292.868
292.764
292.894
293.275
293.312
293.058
292.726
292.92
292.805
293.652
293.128
292.867
292.642
292.703
292.879
293.188
293.028
292.63
292.537
292.464
292.696
293.127
292.793
292.809
292.516
292.336
292.273
292.831
292.692
292.383
292.215
291.962
292.099
292.522
292.422
291.907
291.748
291.878
292.125
292.468
292.316
291.863
291.707
291.688
291.996
292.439
292.735
291.735
291.806
291.565
291.782
292.191
292.245
291.833
291.624
291.409
291.538
292.039
292.073
291.577
291.286
291.308
291.593
291.865
291.639
291.147
291.084
290.785
291.134
291.495
291.637
290.695
290.761
290.567
290.626
291.248
291.374
290.952
290.551
290.722
290.73
291.663
291.286
290.606
290.485
290.525
290.821
291.255
290.972
290.42
290.257
290.113
290.44
290.991
290.771
290.401
290.113
289.82
289.99
290.492
290.289
289.817
289.491
289.447
289.466
290.345
289.957
289.309
289.192
289.188
289.466
290.256
290.259
289.824
289.36
289.131
289.356
289.951
290.064
289.401
289
289.128
289.44
289.969
289.551
288.945
288.702
288.454
288.803
289.556
289.066
288.637
288.267
287.816
287.961
288.58
288.801
287.983
287.71
287.808
288.245
289.123
288.858
288.71
287.983
287.726
288.033
288.775
288.881
288.068
287.483
287.513
287.626
288.834
288.163
287.102
286.989
286.564
286.721
287.408
287.445
286.491
286.143
286.513
287.061
287.703
287.419
286.62
286.256
286.237
286.645
287.764
287.974
286.523
286.166
286.169
287.24
286.577
286.669
285.975
285.409
284.996
285.01
286.236
286.558
285.015
284.659
284.996
285.96
286.422
286.473
285.363
284.826
284.821
285.144
286.518
286.909
284.996
284.517
283.819
284.834
285.092
286.859
283.671
283.756
283.694
283.974
285.73
286.201
284.503
283.599
283.663
284.6
286.169
285.507
284.182
283.263
283.2
284.096
285.606
286.38
284.918
283.378
284.119
283.943
287.168
285.683
284.234
283.849
283.751
284.45
285.61
286.575
284.88
283.899
284.456
285.404
286.976
287.779
286.028
284.851
285.497
286.756
288.731
289.759
287.519
286.137
286.759
288.24
290.562
291.099
288.831
287.293
287.717
289.315
291.466
291.741
289.738
288.078
288.417
290.145
292.004
292.24
290.522
288.746
289.051
290.855
292.429
292.568
291.135
289.332
289.601
291.391
292.7
292.829
291.627
289.865
290.119
291.853
292.952
293.055
292.054
290.355
290.567
292.236
293.149
293.219
292.39
290.76
290.941
292.525
293.271
293.301
292.635
291.115
291.286
292.735
293.327
293.345
292.82
291.45
291.609
292.901
293.367
293.387
292.971
291.762
291.911
293.039
293.411
293.427
293.094
292.051
292.181
293.146
293.44
293.443
293.186
292.296
292.401
293.223
293.449
293.452
293.251
292.493
292.577
293.28
293.458
293.461
293.303
292.651
292.722
293.327
293.466
293.468
293.344
292.782
292.839
293.362
293.47
293.471
293.374
292.883
292.926
293.388
293.476
293.482
293.399
292.959
292.995
293.414
293.491
293.498
293.425
293.023
293.053
293.437
293.503
293.505
293.445
293.074
293.096
293.452
293.505
293.504
293.456
293.111
293.125
293.457
293.501
293.492
293.455
293.132
293.139
293.453
293.485
293.476
293.446
293.143
293.144
293.442
293.471
293.464
293.432
293.144
293.142
293.426
293.46
293.454
293.415
293.137
293.134
293.408
293.451
293.444
293.395
293.127
293.122
293.388
293.44
293.432
293.374
293.114
293.109
293.366
293.426
293.415
293.352
293.1
293.096
293.343
293.409
293.397
293.329
293.086
293.082
293.319
293.391
293.38
293.305
293.073
293.069
293.296
293.373
293.363
293.282
293.06
293.056
293.274
293.357
293.346
293.261
293.048
293.045
293.253
293.34
293.329
293.24
293.037
293.034
293.232
293.323
293.312
293.22
293.027
293.024
293.212
293.305
293.293
293.2
293.017
293.013
293.193
293.286
293.274
293.181
293.006
293.003
293.174
293.267
293.254
293.162
292.996
292.993
293.155
293.246
293.233
293.143
292.986
292.983
293.137
293.225
293.213
293.125
292.976
292.973
293.119
293.205
293.193
293.108
292.966
292.963
293.102
293.186
293.174
293.091
292.956
292.953
293.085
293.168
293.157
293.075
292.946
292.942
293.07
293.152
293.141
293.06
292.935
292.932
293.055
293.136
293.125
293.045
292.924
292.921
293.04
293.12
293.11
293.031
292.913
292.909
293.026
293.105
293.095
293.016
292.901
292.897
293.012
293.09
293.081
293.003
292.889
292.885
292.998
293.075
293.066
292.989
292.877
292.873
292.984
293.061
293.051
292.975
292.865
292.861
292.97
293.046
293.036
292.961
292.852
292.848
292.956
293.031
293.021
292.946
292.838
292.834
292.941
293.015
293.005
292.931
292.824
292.819
292.926
292.999
292.989
292.916
292.81
292.805
292.91
292.983
292.973
292.9
292.794
292.789
292.894
292.967
292.957
292.884
292.779
292.773
292.878
292.95
292.94
292.868
292.762
292.756
292.861
292.933
292.922
292.851
292.746
292.739
292.843
292.916
292.905
292.833
292.729
292.72
292.825
292.898
292.887
292.815
292.711
292.701
292.807
292.88
292.868
292.796
292.692
292.683
292.789
292.862
292.85
292.777
292.673
292.664
292.77
292.844
292.831
292.758
292.654
292.646
292.751
292.825
292.813
292.739
292.634
292.627
292.732
292.806
292.794
292.719
292.614
292.607
292.713
292.787
292.775
292.7
292.594
292.588
292.693
292.768
292.756
292.68
292.574
292.568
292.673
292.749
292.737
292.66
292.554
292.548
292.653
292.73
292.718
292.641
292.534
292.528
292.634
292.711
292.699
292.621
292.514
292.508
292.614
292.692
292.68
292.601
292.495
292.488
292.594
292.673
292.661
292.582
292.475
292.468
292.574
292.654
292.641
292.562
292.455
292.449
292.555
292.634
292.622
292.542
292.436
292.429
292.535
292.615
292.602
292.523
292.417
292.41
292.515
292.595
292.583
292.503
292.397
292.391
292.495
292.575
292.563
292.483
292.378
292.371
292.475
292.555
292.543
292.463
292.359
292.352
292.455
292.535
292.522
292.443
292.339
292.333
292.436
292.515
292.502
292.423
292.32
292.314
292.416
292.495
292.482
292.403
292.301
292.295
292.396
292.475
292.461
292.383
292.282
292.276
292.376
292.454
292.441
292.363
292.263
292.257
292.356
292.434
292.421
292.343
292.244
292.238
292.336
292.414
292.401
292.324
292.225
292.219
292.317
292.394
292.381
292.304
292.207
292.201
292.297
292.374
292.36
292.284
292.188
292.182
292.278
292.354
292.34
292.265
292.17
292.163
292.258
292.334
292.32
292.245
292.151
292.145
292.238
292.314
292.3
292.226
292.132
292.126
292.219
292.294
292.281
292.206
292.114
292.108
292.2
292.274
292.261
292.187
292.096
292.09
292.18
292.254
292.241
292.168
292.078
292.072
292.161
292.235
292.222
292.149
292.06
292.054
292.143
292.215
292.202
292.13
292.042
292.036
292.124
292.196
292.184
292.112
292.024
292.019
292.106
292.177
292.165
292.094
292.007
292.001
292.087
292.158
292.146
292.075
291.99
291.984
292.069
292.14
292.128
292.058
291.973
291.967
292.052
292.12
292.11
292.041
291.957
291.951
292.033
292.101
292.093
292.026
291.943
291.935
292.015
292.076
292.071
292.009
291.926
291.897
291.992
292.059
292.051
291.984
291.871
291.853
291.966
292.035
291.647
291.333
290.351
289.891
289.794
289.379
289.124
288.963
288.878
288.74
288.677
288.521
288.398
288.301
288.226
288.171
288.133
288.107
288.089
288.077
288.068
288.062
288.058
288.055
288.053
288.051
288.05
288.049
288.048
288.048
288.047
288.047
288.047
288.047
288.047
288.047
288.047
288.047
288.046
288.046
288.046
288.046
288.046
288.045
288.045
288.045
288.044
288.042
288.041
288.041
288.042
288.044
288.048
288.054
288.06
288.069
288.078
288.089
288.102
288.117
288.133
288.152
288.172
288.196
288.222
288.252
288.285
288.322
288.363
288.41
288.461
288.519
288.583
288.654
288.732
288.819
288.914
289.018
289.132
289.256
289.39
289.533
289.687
289.851
290.024
290.206
290.396
290.593
290.797
291.007
291.221
291.439
291.659
291.88
292.102
292.323
292.543
292.761
292.976
293.188
293.396
293.599
293.798
293.992
294.18
294.363
294.54
294.712
294.878
295.038
295.193
295.342
295.486
295.624
295.757
295.885
296.008
296.127
296.24
296.349
296.454
296.554
296.651
296.743
296.832
296.918
296.999
297.078
297.153
297.225
297.295
297.361
297.425
297.486
297.545
297.601
297.656
297.708
297.757
297.805
297.851
297.896
297.938
297.979
298.018
298.056
298.092
298.126
298.16
298.192
298.222
298.252
298.28
298.308
298.334
298.359
298.383
298.407
298.429
298.45
298.471
298.491
298.51
298.528
298.545
298.562
298.578
298.594
298.608
298.623
298.636
298.649
298.662
298.674
298.685
298.696
298.706
298.716
298.726
298.735
298.743
298.751
298.759
298.766
298.773
298.78
298.786
298.792
298.797
298.802
298.807
298.811
298.815
298.819
298.822
298.826
298.828
298.831
298.833
298.834
298.836
298.837
298.838
298.838
298.838
298.839
298.839
298.839
298.839
298.839
298.839
298.839
298.839
298.84
298.842
298.845
298.848
298.852
298.856
298.859
298.863
298.867
298.872
298.876
298.881
298.886
298.891
298.896
298.901
298.907
298.912
298.918
298.924
298.93
298.937
298.943
298.949
298.956
298.963
298.97
298.977
298.984
298.991
298.998
299.005
299.012
299.02
299.027
299.035
299.042
299.05
299.057
299.065
299.072
299.08
299.087
299.095
299.102
299.11
299.117
299.124
299.131
299.139
299.146
299.153
299.159
299.166
299.173
299.179
299.186
299.192
299.198
299.204
299.21
299.215
299.221
299.226
299.231
299.236
299.241
299.245
299.25
299.254
299.258
299.262
299.265
299.268
299.271
299.272
299.273
299.273
299.273
299.273
299.273
299.273
299.274
299.275
299.276
299.277
299.278
299.279
299.281
299.282
299.284
299.286
299.288
299.289
299.292
299.294
299.296
299.298
299.3
299.302
299.304
299.306
299.309
299.311
299.313
299.316
299.318
299.321
299.323
299.326
299.328
299.331
299.333
299.337
299.339
299.342
299.344
299.348
299.35
299.354
299.357
299.361
299.363
299.367
299.37
299.374
299.377
299.381
299.384
299.389
299.392
299.397
299.399
299.405
299.408
299.413
299.416
299.422
299.425
299.431
299.434
299.44
299.443
299.449
299.452
299.459
299.462
299.469
299.472
299.479
299.482
299.489
299.493
299.5
299.503
299.51
299.514
299.521
299.524
299.531
299.534
299.541
299.544
299.55
299.553
299.559
299.562
299.568
299.57
299.575
299.577
299.581
299.582
299.586
299.587
299.589
299.589
299.59
299.59
299.59
299.588
299.587
299.585
299.583
299.579
299.577
299.572
299.569
299.563
299.56
299.553
299.55
299.543
299.539
299.532
299.528
299.521