/*--------------------------------*- C++ -*----------------------------------*\
| =========                 |                                                 |
| \\      /  F ield         | OpenFOAM: The Open Source CFD Toolbox           |
|  \\    /   O peration     | Version:  v2006                                 |
|   \\  /    A nd           | Website:  www.openfoam.com                      |
|    \\/     M anipulation  |                                                 |
\*---------------------------------------------------------------------------*/
FoamFile
{
    version     2.0;
    format      ascii;
    class       volScalarField;
    location    "0.035";
    object      Co;
}
// * * * * * * * * * * * * * * * * * * * * * * * * * * * * * * * * * * * * * //

dimensions      [0 0 0 0 0 0 0];


internalField   nonuniform List<scalar> 
23013
(
0.00558727
0.00530314
0.00576078
0.00600243
0.00604847
0.00593539
0.00587469
0.00574962
0.00572108
0.00570832
0.00568835
0.0056793
0.00567078
0.00566317
0.00565537
0.00564754
0.0056396
0.00563145
0.00562299
0.00561418
0.00560499
0.00559541
0.00558546
0.00557514
0.00556445
0.0055534
0.00554199
0.00553022
0.00551809
0.00550547
0.00549248
0.00547929
0.00546587
0.00545212
0.00543789
0.00542332
0.00540842
0.00539319
0.00537765
0.00536179
0.00534563
0.00532918
0.00531243
0.0052954
0.0052781
0.00526053
0.00524271
0.00522464
0.00520633
0.00518779
0.00516904
0.00515008
0.00513092
0.00511157
0.00509204
0.00507235
0.00505251
0.00503252
0.0050124
0.00499217
0.00497182
0.00495139
0.00493086
0.00491027
0.00488963
0.00486894
0.00484822
0.00482749
0.00480676
0.00478603
0.00476534
0.00474469
0.00472409
0.00470357
0.00468314
0.00466281
0.0046426
0.00462252
0.0046026
0.00458285
0.00456329
0.00454392
0.00452478
0.00450587
0.00448722
0.00446884
0.00445075
0.00443296
0.0044155
0.00439837
0.0043816
0.0043652
0.00434919
0.00433358
0.00431837
0.0043036
0.00428926
0.00427537
0.00426195
0.00424901
0.00423657
0.00422462
0.00421309
0.00420189
0.00418981
0.00417885
0.00416924
0.00416307
0.0041634
0.00419147
0.00424243
0.0043848
0.00463309
0.00520741
0.0065228
0.00944508
0.0140991
0.0110646
0.00986019
0.00941919
0.00931726
0.00904114
0.00852142
0.00767436
0.0085606
0.00915939
0.0085545
0.00840386
0.00777109
0.00631823
0.00689547
0.00705968
0.00724125
0.0071563
0.00654878
0.00586608
0.00652038
0.00669195
0.00698666
0.00679773
0.00604633
0.00579287
0.00651703
0.00669983
0.00694537
0.00672373
0.00588245
0.00575254
0.00655385
0.00677501
0.00695089
0.00669457
0.00578207
0.00567496
0.00653629
0.00677773
0.00689446
0.00662145
0.00567847
0.00558654
0.00649047
0.00675244
0.00685703
0.00656211
0.00558664
0.00550521
0.00644111
0.00672182
0.00681824
0.0065052
0.0055053
0.00543174
0.00639272
0.00668947
0.00678001
0.00645131
0.00543183
0.00536388
0.00634473
0.00665564
0.00674195
0.00639927
0.00536397
0.00530052
0.00629779
0.00662154
0.00670373
0.00634887
0.00530061
0.00524077
0.00625147
0.00658648
0.00666583
0.00629997
0.00524085
0.00518376
0.00620561
0.00655078
0.00662789
0.00625208
0.00518384
0.00512889
0.00616004
0.00651439
0.00658982
0.00620493
0.00512898
0.00507572
0.00611463
0.00647729
0.00655146
0.00615825
0.00507579
0.00502386
0.00606923
0.00643946
0.00651272
0.00611186
0.00502393
0.00497303
0.0060237
0.00640083
0.00647351
0.00606558
0.0049731
0.00492297
0.0059779
0.0063613
0.00643376
0.00601925
0.00492302
0.00487317
0.00593146
0.00632064
0.0063936
0.0059731
0.00487322
0.00482237
0.00588388
0.0062785
0.00635316
0.00592678
0.00482242
0.00476987
0.00583529
0.00623527
0.0063118
0.0058794
0.00476991
0.00471601
0.00578576
0.00619108
0.0062693
0.00583084
0.00471605
0.00466105
0.00573517
0.00614576
0.0062256
0.00578108
0.00466108
0.00460514
0.00568348
0.00609926
0.00618063
0.00573009
0.00460515
0.00454839
0.00563065
0.00605151
0.00613435
0.00567789
0.0045484
0.00449088
0.00557667
0.00600249
0.00608674
0.00562447
0.00449088
0.00443269
0.00552155
0.00595218
0.00603777
0.00556986
0.00443267
0.00437386
0.0054653
0.00590058
0.00598747
0.00551409
0.00437383
0.00431445
0.00540799
0.00584774
0.00593583
0.00545719
0.00431441
0.00425453
0.00534967
0.00579372
0.00588289
0.00539923
0.00425449
0.00419421
0.00529047
0.00573863
0.0058287
0.00534027
0.00419415
0.00413363
0.00523054
0.00568263
0.00577335
0.00528045
0.00413356
0.00407299
0.00517009
0.00562593
0.00571696
0.00521992
0.00407291
0.00401255
0.00510941
0.00556881
0.0056597
0.00515891
0.00401246
0.00395266
0.00504889
0.00551165
0.00560181
0.00509773
0.00395257
0.00389378
0.00498899
0.00545493
0.00554361
0.00503676
0.00389367
0.00383647
0.00493036
0.00539927
0.00548549
0.00497651
0.00383636
0.00378147
0.00487376
0.00534545
0.005428
0.00491763
0.00378136
0.00372966
0.00482011
0.00529435
0.00537183
0.00486093
0.00372954
0.00368207
0.00477053
0.00524707
0.00531776
0.00480735
0.00368194
0.00363999
0.0047264
0.00520501
0.00526678
0.00475805
0.00363986
0.00360501
0.00468944
0.00516986
0.00522012
0.00471447
0.00360488
0.00357896
0.00466154
0.00514349
0.0051793
0.00467837
0.00357882
0.00356377
0.00464472
0.00512783
0.00514614
0.00465162
0.00356364
0.00356112
0.00464046
0.00512424
0.00512299
0.00463653
0.00356099
0.00357226
0.00465064
0.00513479
0.00511147
0.00463477
0.00357213
0.0035997
0.00467835
0.00516247
0.00511219
0.0046473
0.00359957
0.00364738
0.00472675
0.00521041
0.00512998
0.00467917
0.00364727
0.00371498
0.00479521
0.00527794
0.00516804
0.00473184
0.00371488
0.00380026
0.00488211
0.00536292
0.00524139
0.00481813
0.00380017
0.00390247
0.00498686
0.0054648
0.00534759
0.0049258
0.00390613
0.00401999
0.00510719
0.00558219
0.005467
0.00504928
0.00402845
0.00414913
0.00523943
0.00571131
0.00559612
0.00518275
0.00416018
0.00428568
0.00538009
0.00584869
0.00573184
0.00532287
0.00429735
0.00442587
0.00552577
0.00599121
0.0058712
0.00546642
0.00443646
0.00456636
0.00567325
0.00613582
0.00601133
0.00561034
0.00457441
0.00470425
0.0058196
0.00627973
0.00614973
0.00575203
0.00470861
0.00483731
0.00596253
0.00642076
0.00628455
0.00588954
0.00483729
0.00496446
0.00610036
0.00655731
0.00641436
0.00602504
0.00496443
0.00508467
0.00623137
0.00668814
0.00653818
0.00615385
0.00508464
0.005197
0.00635482
0.00681237
0.00665529
0.00627518
0.00519694
0.00530074
0.00647008
0.00692943
0.00676741
0.00638858
0.00530067
0.00539404
0.00657654
0.00703891
0.00689049
0.00650368
0.00539395
0.00547681
0.00667499
0.00714117
0.00700673
0.00661066
0.00547669
0.00554927
0.00676475
0.0072355
0.00711549
0.00670895
0.00554914
0.0056112
0.00684511
0.00732108
0.00721606
0.00679792
0.00561105
0.00566268
0.00691559
0.00739728
0.00730762
0.0068769
0.00566249
0.00570386
0.00697577
0.00746363
0.00738948
0.00694541
0.00570364
0.00573497
0.00702538
0.00751976
0.00746111
0.00700314
0.00573472
0.00575632
0.00706438
0.00756555
0.00752212
0.00704992
0.00575604
0.0057684
0.00709299
0.00760122
0.00757234
0.00708582
0.00576808
0.00577194
0.00711182
0.00762735
0.00761186
0.00711121
0.00577158
0.00576801
0.00712185
0.0076449
0.00764113
0.0071268
0.00576762
0.00575791
0.00712437
0.00765512
0.00766106
0.00713376
0.00575749
0.00574304
0.0071208
0.00765933
0.00767283
0.0071335
0.00574259
0.0057246
0.00711275
0.00765894
0.00767786
0.00712762
0.00572413
0.00570411
0.00710123
0.00765514
0.00767773
0.00711734
0.00570362
0.00568262
0.00708738
0.00764862
0.00767354
0.00710405
0.00568213
0.00566076
0.00707198
0.00764025
0.00766635
0.00708867
0.00566025
0.0056391
0.0070557
0.00763058
0.00765703
0.00707204
0.00563859
0.00561803
0.00703904
0.0076201
0.00764628
0.00705479
0.00561752
0.00559779
0.00702238
0.00760918
0.00763469
0.00703738
0.00559728
0.00557852
0.00700596
0.00759804
0.00762265
0.00702014
0.00557801
0.00556026
0.00698988
0.00758685
0.00761049
0.00700325
0.00555976
0.005543
0.00697419
0.00757572
0.00759829
0.00698682
0.00554252
0.00552664
0.0069591
0.00756474
0.00758627
0.00697104
0.00552617
0.0055111
0.00694461
0.00755402
0.00757454
0.00695591
0.00551064
0.00549633
0.00693069
0.00754359
0.00756315
0.00694141
0.00549588
0.00548227
0.00691734
0.00753347
0.00755214
0.00692753
0.00548184
0.00546885
0.0069045
0.00752365
0.00754152
0.00691424
0.00546843
0.00545599
0.00689217
0.00751414
0.00753129
0.00690151
0.00545559
0.00544363
0.0068803
0.00750493
0.00752144
0.0068893
0.00544324
0.0054317
0.00686886
0.00749602
0.00751196
0.00687758
0.00543134
0.00542017
0.00685783
0.00748739
0.00750283
0.00686629
0.00541982
0.00540899
0.00684717
0.00747903
0.00749402
0.00685542
0.00540867
0.00539813
0.00683686
0.00747094
0.00748553
0.00684493
0.00539784
0.00538757
0.00682689
0.00746311
0.00747735
0.0068348
0.0053873
0.00537726
0.00681721
0.00745551
0.00746945
0.00682499
0.00537702
0.00536718
0.00680781
0.00744814
0.0074618
0.00681547
0.00536697
0.00535733
0.00679867
0.007441
0.00745437
0.00680621
0.00535713
0.0053477
0.00678982
0.0074341
0.00744713
0.00679719
0.00534752
0.00533837
0.00678132
0.00742753
0.00743264
0.00678166
0.00533288
0.00532421
0.0067667
0.00741058
0.00738126
0.00672356
0.00527926
0.0052703
0.0067191
0.00737084
0.00716363
0.00650712
0.00509377
0.00521296
0.00666202
0.00731631
0.0069309
0.00624966
0.00486649
0.00547505
0.00704904
0.00776159
0.00738532
0.00658725
0.00504634
0.00598576
0.00748497
0.00801481
0.00843859
0.00749537
0.00573814
0.0063107
0.00801835
0.00878559
0.00959465
0.00988186
0.00981161
0.00982997
0.00970071
0.00966662
0.00967787
0.00966189
0.00971419
0.00982106
0.0101057
0.0106335
0.0117869
0.0145981
0.0207521
0.030375
0.0236741
0.0205283
0.0184133
0.0160952
0.0137539
0.0094107
0.00853701
0.0130159
0.0157548
0.0148773
0.0128608
0.0087166
0.00711293
0.0106404
0.0125909
0.012993
0.0113158
0.00763258
0.00690334
0.0104045
0.0122564
0.0128883
0.0110101
0.00733295
0.00710336
0.0107929
0.0126981
0.0130606
0.0111601
0.00736463
0.00728175
0.0110684
0.0129212
0.0130805
0.0111607
0.00734214
0.00734898
0.0111647
0.013109
0.013133
0.0112277
0.00735639
0.00736559
0.0111889
0.0131244
0.0131107
0.0111808
0.00736566
0.00737464
0.0112507
0.0131673
0.0131591
0.0112467
0.00737472
0.0073815
0.0112058
0.0131394
0.0131258
0.0111979
0.00738159
0.00739074
0.0112681
0.0131827
0.0131742
0.011264
0.00739084
0.00739781
0.0112234
0.0131547
0.013141
0.0112154
0.00739793
0.00740726
0.011286
0.0131984
0.0131896
0.0112817
0.00740739
0.00741468
0.0112415
0.0131706
0.0131565
0.0112333
0.00741483
0.00742444
0.0113044
0.0132145
0.0132054
0.0112999
0.0074246
0.00743226
0.0112602
0.0131869
0.0131726
0.0112519
0.00743244
0.00744236
0.0113235
0.0132312
0.0132217
0.0113188
0.00744255
0.00745054
0.0112795
0.0132037
0.0131891
0.011271
0.00745074
0.00746093
0.0113431
0.0132482
0.0132384
0.0113382
0.00746114
0.00746939
0.0112992
0.0132208
0.0132059
0.0112906
0.00746961
0.00747999
0.011363
0.0132653
0.0132555
0.011358
0.00748022
0.00748867
0.0113192
0.013238
0.013223
0.0113105
0.00748891
0.00749942
0.0113832
0.0132826
0.0132727
0.0113781
0.00749968
0.00750827
0.0113393
0.0132553
0.0132403
0.0113306
0.00750854
0.00751916
0.0114034
0.0133
0.01329
0.0113983
0.00751944
0.00752814
0.0113595
0.0132725
0.0132576
0.0113507
0.00752844
0.00753914
0.0114236
0.0133172
0.0133073
0.0114185
0.00753944
0.00754822
0.0113797
0.0132897
0.0132748
0.0113709
0.00754854
0.00755929
0.0114438
0.0133343
0.0133245
0.0114386
0.00755962
0.00756843
0.0113996
0.0133066
0.0132918
0.0113908
0.00756878
0.0075795
0.0114636
0.0133511
0.0133414
0.0114585
0.00757985
0.00758864
0.0114192
0.013323
0.0133086
0.0114105
0.00758901
0.00759962
0.011483
0.0133674
0.013358
0.0114781
0.00759999
0.00760856
0.0114383
0.0133391
0.013325
0.0114299
0.00760895
0.00761927
0.011502
0.0133834
0.0133745
0.0114973
0.00761967
0.00762788
0.0114568
0.0133549
0.0133414
0.0114488
0.00762828
0.00763815
0.0115201
0.013399
0.0133908
0.0115159
0.00763856
0.0076462
0.0114745
0.0133703
0.0133576
0.011467
0.00764663
0.00765579
0.0115373
0.0134142
0.0134069
0.0115337
0.00765623
0.00766303
0.011491
0.0133852
0.0133736
0.0114842
0.00766348
0.00767165
0.0115532
0.013429
0.0134229
0.0115504
0.0076721
0.00767775
0.011506
0.0133997
0.0133894
0.0115002
0.00767821
0.007685
0.0115674
0.0134433
0.0134387
0.0115658
0.00768547
0.00768954
0.0115192
0.0134137
0.0134052
0.0115147
0.00769001
0.0076949
0.0115795
0.013457
0.0134545
0.0115795
0.00769538
0.00769722
0.01153
0.0134272
0.0134211
0.0115275
0.0076977
0.00769981
0.0115889
0.0134705
0.0134708
0.0115913
0.0077003
0.00769882
0.0115378
0.0134406
0.0134378
0.0115382
0.0076993
0.00769736
0.0115952
0.0134841
0.0134881
0.011601
0.00769785
0.00769161
0.0115423
0.0134545
0.0134558
0.0115467
0.0076921
0.00768463
0.0115979
0.0134986
0.0135072
0.0116083
0.00768512
0.00767271
0.0115433
0.0134701
0.0134764
0.0115527
0.0076732
0.0076591
0.0115976
0.0135161
0.0135298
0.0116133
0.0076596
0.00764038
0.0115416
0.0134902
0.0135017
0.0115566
0.0076407
0.00762267
0.0115978
0.0135395
0.0135591
0.0116177
0.00761887
0.00759448
0.0115421
0.0135177
0.0135354
0.0115618
0.00758952
0.00756553
0.0115997
0.0135723
0.0135981
0.0116247
0.00755564
0.00752467
0.0115462
0.0135569
0.0135799
0.011571
0.00751333
0.00748269
0.0116083
0.0136196
0.0136485
0.0116379
0.00746661
0.00742976
0.0115615
0.0136141
0.0136354
0.011589
0.00741361
0.00737951
0.0116344
0.0136894
0.0137087
0.0116626
0.00736209
0.00732682
0.0116012
0.0136986
0.0136984
0.0116201
0.00731608
0.00729303
0.0116909
0.0137928
0.0137735
0.0116993
0.00729336
0.0073032
0.011692
0.0138228
0.0137646
0.0116776
0.00731609
0.00735499
0.011826
0.0139394
0.0138463
0.0117971
0.00738589
0.00745159
0.0118731
0.0139934
0.0138445
0.0118233
0.0075123
0.00760391
0.0120662
0.0141373
0.0139348
0.0119965
0.00769123
0.0078179
0.0121844
0.0142196
0.014018
0.0121665
0.00794376
0.00810841
0.0124531
0.0144018
0.0141618
0.0123776
0.00829121
0.00850287
0.0126968
0.0145164
0.0144123
0.0127198
0.00870476
0.00906552
0.013104
0.0148255
0.0146067
0.0130369
0.00926383
0.00976746
0.0136151
0.0151835
0.0151045
0.0136853
0.0100736
0.0107097
0.0143846
0.0157951
0.0156589
0.0144036
0.0109237
0.0117962
0.0151326
0.0161221
0.0143026
0.01419
0.0116821
0.0166564
0.0299967
0.0415892
0.0263155
0.0180913
0.0100076
0.00944396
0.0149844
0.0177773
0.0159887
0.0137108
0.0088399
0.00888621
0.0135873
0.015541
0.0152463
0.013183
0.0086246
0.00887339
0.0132602
0.0150833
0.0149524
0.0131077
0.00883791
0.00902993
0.0132239
0.0150251
0.0150517
0.0133133
0.00919202
0.00943383
0.0133503
0.0150241
0.0150838
0.0134752
0.00962348
0.00993427
0.0137512
0.0152466
0.0154103
0.0139278
0.0102558
0.0104853
0.014065
0.0155181
0.0158405
0.0145529
0.0111553
0.0113661
0.0146852
0.0159084
0.0159476
0.0151406
0.0120571
0.011819
0.0139835
0.0138167
0.0409522
0.02979
0.0169417
0.0109739
0.0187679
0.026587
0.0179158
0.0153989
0.0101286
0.00937072
0.0136907
0.0154146
0.0148599
0.0135366
0.00954599
0.00968657
0.0137199
0.0153612
0.015243
0.0138325
0.0100478
0.0103424
0.0140978
0.0156275
0.0156389
0.0143578
0.0108561
0.0112677
0.0146608
0.0160077
0.0160418
0.0151578
0.0120037
0.0119129
0.0142126
0.0142017
0.0396282
0.0290899
0.0167014
0.0115055
0.0192656
0.0269488
0.0184211
0.0158728
0.0110417
0.0106344
0.0147138
0.0164168
0.0161217
0.0146582
0.0108979
0.0109869
0.014533
0.0158941
0.0160529
0.0148101
0.0114684
0.0115466
0.0147144
0.0158963
0.0158604
0.0150739
0.0122467
0.0120147
0.0139168
0.0135884
0.0395217
0.0290106
0.0170727
0.0119773
0.0193975
0.0268828
0.0183439
0.0161628
0.011466
0.0108966
0.0145312
0.0159016
0.0155947
0.0146929
0.0114889
0.011517
0.0148202
0.0160047
0.0158889
0.015084
0.0121541
0.0121322
0.0142093
0.0140262
0.038541
0.0284322
0.016805
0.0124447
0.0199256
0.0274725
0.0187636
0.0164758
0.011927
0.012074
0.0157364
0.0171052
0.0166775
0.0154199
0.0120268
0.0124096
0.0153269
0.0160961
0.0134985
0.0138284
0.0120168
0.0166814
0.0283229
0.0384338
0.0272385
0.0199791
0.0125396
0.0118183
0.0160506
0.0180071
0.0161987
0.0150788
0.0118264
0.0121495
0.0153312
0.0164404
0.0163145
0.0156143
0.0127986
0.0126071
0.0144251
0.0141726
0.0378984
0.0282528
0.0171824
0.0137072
0.0209487
0.0280262
0.0195266
0.0174969
0.0133232
0.013097
0.0161882
0.0172297
0.0138598
0.0144371
0.0128589
0.0174303
0.0285884
0.0382607
0.0281001
0.0213588
0.0142491
0.012957
0.0169995
0.0187789
0.016504
0.0156439
0.0127944
0.0130083
0.0145905
0.0139814
0.0371449
0.0279091
0.0172893
0.0143181
0.0213524
0.0282027
0.0194096
0.0175308
0.0134901
0.0135903
0.0164302
0.0172157
0.013658
0.0142452
0.0130136
0.017699
0.0280955
0.0368939
0.0279469
0.0215557
0.0148032
0.0141935
0.0176623
0.0190531
0.0141269
0.0146376
0.0132801
0.0177333
0.027515
0.0355277
0.0282386
0.022132
0.0152918
0.0138971
0.0160237
0.0159772
0.0352431
0.0271318
0.0175472
0.0156411
0.0222726
0.0285361
0.0191008
0.0177822
0.0145236
0.0136516
0.0145134
0.0135936
0.0300257
0.0248628
0.0173675
0.0144874
0.0188288
0.0214434
0.030193
0.0239601
0.0162749
0.014458
0.0200088
0.0253822
0.012988
0.0135524
0.0123943
0.0136199
0.0182564
0.0213111
0.0140706
0.0125777
0.0102331
0.00850225
0.0100136
0.0104184
0.00885878
0.00768276
0.00563476
0.00355568
0.00595577
0.00745098
0.00849826
0.00695131
0.00446804
0.00728383
0.0094034
0.0106289
0.0129291
0.0120224
0.0101968
0.0113115
0.012586
0.0128988
0.0227101
0.019336
0.014491
0.0153003
0.0205494
0.0243976
0.0254028
0.0216682
0.0162618
0.0174667
0.0239125
0.0284868
0.0256094
0.022172
0.0169051
0.0185652
0.0256456
0.0304692
0.0191948
0.0191595
0.0164744
0.0172459
0.0249588
0.0319773
0.0342427
0.0272982
0.0184865
0.0170354
0.0227612
0.0264402
0.0321973
0.0264418
0.0183859
0.0154621
0.0183871
0.018816
0.0313932
0.0245101
0.0169538
0.0181322
0.027659
0.0354231
0.0180566
0.0177089
0.014837
0.0161562
0.023852
0.0308681
0.0359348
0.0278748
0.0181132
0.0149612
0.018006
0.0183795
0.031101
0.023748
0.0158416
0.0176731
0.0276747
0.0359303
0.0182805
0.0178284
0.0146852
0.015753
0.0242356
0.0321712
0.0359211
0.0274782
0.0173564
0.0155814
0.0217811
0.0259873
0.0331802
0.0265606
0.0176535
0.0141683
0.016453
0.0163339
0.0211859
0.0191968
0.0147092
0.0157104
0.0233942
0.0307227
0.0363279
0.0277785
0.0174483
0.0139324
0.0170853
0.0175281
0.0304318
0.0230278
0.0149801
0.0171881
0.0274887
0.0360129
0.0177434
0.0172759
0.0140355
0.0154208
0.0232036
0.0302661
0.0360755
0.0274204
0.0172448
0.0141398
0.0174277
0.0180607
0.0306683
0.0231908
0.0151766
0.0173167
0.0276609
0.0362469
0.017824
0.0173079
0.0141387
0.0154237
0.0233267
0.0304535
0.0360244
0.0275862
0.0174056
0.0141156
0.0174876
0.0181057
0.0304223
0.0234031
0.0154373
0.0173941
0.0276245
0.035979
0.01794
0.0173457
0.0141505
0.015413
0.0232756
0.0302705
0.0361026
0.0276247
0.0174175
0.0142253
0.01757
0.0182192
0.0303445
0.0233335
0.0154275
0.0173262
0.0276715
0.0360355
0.0180003
0.0173706
0.0141328
0.0154197
0.0232373
0.0302272
0.035945
0.0276858
0.0174315
0.014305
0.0176327
0.0183034
0.0303816
0.0233851
0.0156187
0.0174873
0.02758
0.03591
0.0181212
0.0175408
0.0143281
0.0156066
0.023224
0.0301791
0.0359138
0.027645
0.0176184
0.0144784
0.0177032
0.0183807
0.0304677
0.0233862
0.0156197
0.0176544
0.0278035
0.0359618
0.0182593
0.0177089
0.0144526
0.0158078
0.0234839
0.0304446
0.0360267
0.0277623
0.0176569
0.0145599
0.0178309
0.0184837
0.0306689
0.0234531
0.0156836
0.0176543
0.0277376
0.0361068
0.0183948
0.0178098
0.0145724
0.0157491
0.023561
0.0305612
0.0361901
0.0279032
0.0177617
0.0145564
0.017929
0.0186095
0.0307846
0.0237549
0.0158929
0.0176513
0.0278114
0.0361842
0.0184439
0.0177973
0.0145135
0.0159979
0.023813
0.0307801
0.0365239
0.0281772
0.0180169
0.0147778
0.0181171
0.0187489
0.0311743
0.0238586
0.0159641
0.0177949
0.0279736
0.0364491
0.0185919
0.0179878
0.0147144
0.015872
0.0237015
0.0308924
0.036424
0.0279641
0.0178299
0.0147567
0.0181301
0.0187849
0.0312973
0.0239848
0.0159866
0.0178805
0.0281627
0.0366982
0.0186758
0.0180478
0.0146856
0.016008
0.0241637
0.0315318
0.036949
0.0283506
0.0179413
0.0147517
0.01823
0.0189364
0.0316762
0.0242312
0.0160885
0.0178738
0.0282351
0.0368682
0.0188052
0.0181777
0.0147811
0.0161706
0.0245514
0.0321107
0.0374741
0.0288543
0.0182314
0.0150905
0.0186069
0.0192556
0.0336772
0.0252374
0.0162108
0.017943
0.0286149
0.0372433
0.0277629
0.023168
0.0163518
0.0182975
0.0276143
0.0344528
0.0199987
0.0191965
0.0154953
0.016731
0.0249701
0.0324036
0.0376117
0.0291033
0.018732
0.0155554
0.0189589
0.0196416
0.0330552
0.0253131
0.0169581
0.0188944
0.029338
0.0379502
0.0199713
0.0193035
0.015656
0.017339
0.0261582
0.034123
0.0377258
0.0289576
0.018439
0.0167335
0.0235765
0.0282291
0.0349132
0.0280313
0.0185688
0.0159019
0.0196813
0.0205193
0.0332275
0.0254615
0.0170506
0.0189087
0.0295337
0.0381097
0.0199734
0.0193072
0.0158374
0.0171867
0.0256874
0.0335666
0.0386519
0.0298192
0.0191418
0.0158896
0.0194941
0.0201175
0.0349545
0.0267284
0.0176972
0.0187584
0.0294462
0.038253
0.0289916
0.0242405
0.0171974
0.0190869
0.0285905
0.0355127
0.0209913
0.020141
0.0163175
0.0176196
0.0262631
0.034175
0.0391446
0.0303067
0.01956
0.016375
0.0200991
0.0208594
0.0358222
0.0274224
0.0182738
0.0193323
0.0300899
0.0389667
0.0298963
0.0249478
0.0176577
0.0194815
0.0291392
0.0360846
0.0215162
0.0208375
0.0170493
0.0182301
0.0276341
0.036353
0.0393409
0.0303937
0.0196447
0.0176112
0.0248599
0.0297421
0.0365545
0.029768
0.0199214
0.0169955
0.0207847
0.0215952
0.0354265
0.0273645
0.0184427
0.0200536
0.0310334
0.0398284
0.0216205
0.020838
0.0170557
0.0187573
0.0283156
0.0367491
0.0398169
0.0308951
0.0198158
0.0182978
0.0257113
0.0305776
0.0368371
0.0299916
0.0201965
0.0174603
0.0213557
0.0222203
0.0373242
0.0284997
0.0189791
0.0201207
0.0309605
0.0399754
0.0306303
0.0256947
0.0183401
0.0206345
0.0305151
0.0374252
0.022475
0.0215881
0.017681
0.0194418
0.028435
0.0365988
0.041095
0.032115
0.0210671
0.0176464
0.0214868
0.0221718
0.0381096
0.0293438
0.0196419
0.0206409
0.0319255
0.0409431
0.0320225
0.0268225
0.0189767
0.020668
0.0307137
0.0378865
0.0227175
0.0219685
0.0178538
0.0197932
0.0295485
0.0384742
0.0409231
0.0315693
0.0204912
0.0188038
0.0265104
0.0317768
0.038238
0.0312039
0.02099
0.0182526
0.0223145
0.0230469
0.0393884
0.0298813
0.0197137
0.0208913
0.032143
0.04151
0.0326982
0.027339
0.0195042
0.0213867
0.0316196
0.0387826
0.0234012
0.0226563
0.0185507
0.0204398
0.0306094
0.039828
0.041741
0.0326641
0.0212709
0.0199334
0.0283655
0.0340053
0.0385332
0.0314571
0.0212745
0.0199152
0.0278232
0.0328772
0.0386175
0.0316027
0.0215773
0.0188129
0.0230945
0.0241492
0.0400325
0.030769
0.0206332
0.0217877
0.0332294
0.0425574
0.0333916
0.0280208
0.0202294
0.0222305
0.0324977
0.0399076
0.0244748
0.0235128
0.0192828
0.021136
0.031426
0.0408806
0.0431215
0.0335871
0.0220716
0.0205708
0.0284875
0.0339194
0.0402673
0.0328999
0.0224883
0.0195853
0.0237147
0.0245633
0.0414722
0.0318041
0.0213889
0.0223508
0.0340359
0.0434106
0.0340923
0.0286714
0.0206144
0.0224439
0.0329516
0.0403102
0.0249488
0.0240551
0.0197821
0.0213093
0.0320174
0.0422552
0.0439443
0.0343874
0.0225355
0.0213244
0.0300827
0.0361624
0.0404631
0.0330239
0.0227391
0.0213921
0.0296969
0.0351293
0.0407407
0.0335847
0.0231608
0.0203578
0.0246859
0.0256919
0.042944
0.033116
0.0222951
0.0231325
0.034986
0.0446703
0.0369476
0.0307582
0.0218509
0.0231082
0.0336641
0.0412903
0.0356287
0.0299818
0.0217146
0.0232164
0.0336568
0.0410487
0.02621
0.025039
0.0205289
0.0225301
0.0332367
0.043153
0.0454569
0.0355299
0.0237131
0.0220107
0.0302602
0.0357782
0.0422945
0.0348088
0.0240455
0.0209119
0.025272
0.0261539
0.0442076
0.0338334
0.0228495
0.0237638
0.035853
0.0458457
0.0380551
0.0317535
0.0226012
0.0238673
0.0345941
0.042181
0.0371438
0.0312189
0.0226401
0.0243046
0.0348728
0.0423192
0.0268288
0.0258745
0.0212371
0.0235397
0.0345702
0.0446562
0.0461175
0.0361776
0.0241608
0.0228661
0.0320545
0.0383448
0.0428526
0.03513
0.024284
0.0229858
0.0315467
0.0370423
0.0429988
0.0356144
0.0248927
0.0217489
0.0263519
0.0273866
0.0456716
0.0353756
0.0238719
0.024672
0.0370915
0.0471266
0.0393189
0.0328073
0.0235595
0.0248403
0.0357751
0.0434568
0.0384294
0.0324296
0.0235617
0.0252372
0.0360455
0.0436514
0.0278189
0.0267508
0.0220565
0.024575
0.0361698
0.0464466
0.0477442
0.0375064
0.0250781
0.0236702
0.0331638
0.0399713
0.0441198
0.0360636
0.0249926
0.0234991
0.0325046
0.0384665
0.044184
0.0364797
0.0253906
0.0224144
0.0271421
0.0282023
0.0474977
0.0363444
0.0245229
0.0255698
0.0382185
0.0484664
0.0408398
0.034061
0.024288
0.0256022
0.036934
0.0448472
0.0410781
0.0343544
0.0246144
0.0259752
0.0369218
0.0448173
0.0398177
0.0336095
0.0246063
0.0266748
0.0376692
0.0452752
0.0294093
0.0281993
0.0233392
0.025785
0.0375601
0.0486048
0.0495865
0.0389536
0.0263345
0.0249639
0.0345499
0.0414482
0.0456405
0.0373842
0.0261771
0.0249598
0.0340675
0.0403139
0.0458684
0.0379256
0.0265894
0.0233009
0.028153
0.0292532
0.0492111
0.0379457
0.0256381
0.0266681
0.039794
0.0506086
0.0423781
0.0353674
0.0252489
0.026521
0.0381473
0.0464548
0.0427611
0.035779
0.0257373
0.0269698
0.0381451
0.0461948
0.0417383
0.0350484
0.0255556
0.0275431
0.038854
0.0469667
0.0303452
0.0292392
0.0242059
0.0270206
0.0391445
0.0503973
0.0513366
0.0404529
0.0275567
0.0260272
0.036251
0.0433505
0.0473491
0.0391035
0.0273279
0.0261681
0.0362381
0.0433135
0.0470616
0.038976
0.0275593
0.0259354
0.0354934
0.0421381
0.0477234
0.0394624
0.0278609
0.024383
0.0294497
0.0307642
0.0511929
0.0398242
0.0272175
0.0281483
0.0415206
0.0522992
0.0443096
0.0368509
0.0266235
0.0284344
0.0401727
0.048341
0.044407
0.0370752
0.0267518
0.0285756
0.0401777
0.0481238
0.0436729
0.0367639
0.0269247
0.0290373
0.0406646
0.0489982
0.0317676
0.0305063
0.025507
0.028444
0.0411925
0.0529568
0.0536418
0.0424876
0.0290042
0.0273853
0.0379234
0.0452884
0.0492688
0.040668
0.0285127
0.0274027
0.0379475
0.0453341
0.0491371
0.0407747
0.0289464
0.027264
0.0372473
0.0440548
0.0497025
0.0416369
0.0295138
0.0257206
0.0308749
0.0322001
0.053744
0.0417395
0.028695
0.0295006
0.0432925
0.0546239
0.0464035
0.0388186
0.028194
0.029324
0.0415318
0.0502491
0.0465548
0.0390085
0.0282251
0.0295557
0.0414858
0.0500644
0.0456883
0.0384837
0.0282131
0.0301184
0.0422474
0.050718
0.0330468
0.0319235
0.0266054
0.0298921
0.0429866
0.0550002
0.0560493
0.0444344
0.0304864
0.028554
0.0396677
0.0473632
0.0513362
0.0424957
0.0298129
0.0289401
0.0398805
0.0474028
0.0512869
0.0425084
0.0302253
0.0285685
0.0387969
0.046166
0.0518311
0.0430932
0.030798
0.0270085
0.0322939
0.0334999
0.056236
0.0432455
0.0296016
0.0305467
0.0450261
0.0571265
0.0483174
0.0404152
0.0291104
0.0303921
0.0432247
0.0522904
0.04874
0.0408798
0.0296226
0.0308978
0.043241
0.0519396
0.0490004
0.0407671
0.0295124
0.0312308
0.0436969
0.0527659
0.0475388
0.0400295
0.0295525
0.0319234
0.0445083
0.0533038
0.0350656
0.0337924
0.0281875
0.0313916
0.0453489
0.0581199
0.058484
0.0466649
0.0319045
0.0301718
0.0417202
0.0500721
0.0537276
0.0442532
0.0313947
0.0304222
0.0420924
0.0501088
0.0531251
0.0445948
0.0319299
0.0305211
0.0421266
0.0503201
0.0540563
0.0449147
0.0321263
0.0303394
0.0410546
0.0485672
0.0548063
0.0457939
0.0326981
0.0286471
0.0341593
0.035598
0.0593171
0.0462095
0.0319691
0.0326534
0.047575
0.0600038
0.0511705
0.0429823
0.0311531
0.0324231
0.0457272
0.0552552
0.0513984
0.0432319
0.0313655
0.0328803
0.0459626
0.0548258
0.0518203
0.0434693
0.0315583
0.0332045
0.0461811
0.0554937
0.0503373
0.0425177
0.0315754
0.0338701
0.0469503
0.0560183
0.0369138
0.0355458
0.0299123
0.0329348
0.0475249
0.061162
0.0615413
0.049089
0.0337682
0.0324514
0.0443326
0.0527139
0.0566492
0.0469153
0.0335089
0.0324241
0.0442696
0.0528839
0.0560238
0.0468469
0.0338607
0.0324515
0.0443422
0.0528386
0.0567218
0.0473601
0.0341199
0.0322138
0.0434097
0.0512858
0.0577321
0.048322
0.0348353
0.0305398
0.0362013
0.0375972
0.0626143
0.0487337
0.0337431
0.0344436
0.0501038
0.0633003
0.0540055
0.0450724
0.0328879
0.034396
0.0483094
0.0580663
0.0544088
0.0458093
0.0335041
0.0349027
0.048279
0.0578835
0.054635
0.0458774
0.0335216
0.0353103
0.0488392
0.0585666
0.0531893
0.0449606
0.0333983
0.0358689
0.0496524
0.059069
0.0389187
0.0376219
0.0316867
0.0351388
0.0501864
0.0643705
0.0650369
0.051576
0.0358061
0.0341325
0.0467326
0.0557887
0.0596017
0.0497049
0.0356362
0.0344672
0.0471644
0.0557401
0.0591617
0.0494942
0.0357429
0.0343171
0.0467546
0.0556675
0.0599265
0.0498756
0.0361006
0.0340559
0.0458583
0.0542967
0.0608001
0.0511084
0.0367421
0.0324575
0.0382455
0.0395959
0.0666256
0.0516307
0.0359908
0.0368724
0.0533905
0.0672176
0.0571473
0.0481452
0.0351182
0.0364724
0.0513258
0.0615327
0.057456
0.0482302
0.0355117
0.037057
0.0510035
0.0609097
0.0577557
0.0484948
0.035585
0.0373927
0.0515455
0.0617242
0.0559009
0.0474796
0.0354633
0.0379629
0.0524808
0.0624783
0.0410487
0.0395677
0.0335175
0.0374172
0.0535434
0.0683256
0.0684398
0.0548161
0.0381298
0.0362379
0.0495231
0.0585514
0.06273
0.0523289
0.0374266
0.0363401
0.0497665
0.0589276
0.0625699
0.0523343
0.0377535
0.0364947
0.0498936
0.0594478
0.0627326
0.0527457
0.0383093
0.0368212
0.0500246
0.0596692
0.0639274
0.0533349
0.0388719
0.0364095
0.0487066
0.057445
0.0646027
0.0541605
0.0392157
0.0344896
0.0407109
0.0421224
0.0701697
0.0549615
0.0387278
0.0393715
0.0565312
0.071014
0.0603459
0.0507853
0.0373785
0.0390521
0.0540528
0.0649969
0.0607915
0.0514969
0.037841
0.0392855
0.0541075
0.0646838
0.0614054
0.0516946
0.0381386
0.0400704
0.0546726
0.0651609
0.0597452
0.0506123
0.0377756
0.0404521
0.055627
0.0663773
0.0434239
0.042016
0.0355824
0.0398909
0.0568122
0.0721928
0.0728961
0.058263
0.0404005
0.0388269
0.0523719
0.0623657
0.0670761
0.0558193
0.0403975
0.0390105
0.0528582
0.0624123
0.0665291
0.0558557
0.0406318
0.0389222
0.0528441
0.0628564
0.0674277
0.0564703
0.0410231
0.0388495
0.0517813
0.0609747
0.0681943
0.0575023
0.0419726
0.0367582
0.0430874
0.0443589
0.074696
0.0582589
0.0409969
0.0418354
0.0601565
0.0753194
0.0643487
0.0540158
0.0395848
0.0412294
0.0576891
0.0693132
0.0648488
0.0545732
0.0402209
0.041844
0.057468
0.0685624
0.0647949
0.0545224
0.0402431
0.0423811
0.0579259
0.0690655
0.0632831
0.0535389
0.0402129
0.0430778
0.0588816
0.0702503
0.0457898
0.0445068
0.0379421
0.0424513
0.0601486
0.0766826
0.0774038
0.0619338
0.0431971
0.0409542
0.0557141
0.0660587
0.0711529
0.0591971
0.0425314
0.0412314
0.0556735
0.0661567
0.0705726
0.0591513
0.0431555
0.0418175
0.0563522
0.0667984
0.0713256
0.0597526
0.04378
0.0411554
0.0546984
0.0644702