/*--------------------------------*- C++ -*----------------------------------*\
| =========                 |                                                 |
| \\      /  F ield         | OpenFOAM: The Open Source CFD Toolbox           |
|  \\    /   O peration     | Version:  v2006                                 |
|   \\  /    A nd           | Website:  www.openfoam.com                      |
|    \\/     M anipulation  |                                                 |
\*---------------------------------------------------------------------------*/
FoamFile
{
    version     2.0;
    format      ascii;
    class       volScalarField;
    location    "0.035";
    object      nut;
}
// * * * * * * * * * * * * * * * * * * * * * * * * * * * * * * * * * * * * * //

dimensions      [0 2 -1 0 0 0 0];


internalField   nonuniform List<scalar> 
23013
(
20.356
20.4987
39.3934
13.4221
22.957
23.0881
10.384
3.34346
1.3865
0.756464
0.51403
0.406902
0.353596
0.322455
0.299979
0.280673
0.262759
0.246017
0.230672
0.216907
0.204728
0.194002
0.184523
0.17608
0.168488
0.161597
0.155294
0.149494
0.14413
0.13915
0.134512
0.130178
0.126119
0.122306
0.118719
0.115338
0.112146
0.10913
0.106277
0.103577
0.101019
0.0985907
0.0962852
0.0940956
0.0920155
0.0900384
0.0881587
0.0863709
0.0846702
0.083052
0.0815123
0.0800473
0.0786539
0.0773286
0.0760689
0.0748721
0.0737359
0.0726582
0.0716372
0.0706712
0.0697587
0.0688985
0.0680894
0.0673308
0.0666218
0.0659616
0.0653499
0.0647862
0.0642704
0.0638052
0.0633906
0.0630247
0.0627086
0.0624437
0.0622313
0.062073
0.0619704
0.0619256
0.0619406
0.0620182
0.0621612
0.0623732
0.0626579
0.0630196
0.0634633
0.0639947
0.0646201
0.065347
0.0661838
0.0671404
0.0682281
0.06946
0.0708517
0.0724223
0.0741964
0.0762059
0.0784934
0.0811143
0.0841352
0.0876254
0.0916371
0.0961797
0.101212
0.106709
0.11292
0.121015
0.134445
0.162196
0.226953
0.387467
0.776746
1.44941
1.81955
1.46166
0.776974
0.419066
0.238104
0.119876
0.0704463
0.035955
0.00792928
0.00145154
5.34245e-05
4.58687e-05
0.000686298
0.00311113
0.00158549
0.000416401
3.93058e-05
3.46442e-05
0.000385124
0.00139317
0.00104819
0.000312555
3.1225e-05
2.86638e-05
0.000303338
0.00100363
0.000853773
0.000265657
2.64193e-05
2.50994e-05
0.000267275
0.000844447
0.000764557
0.000244454
2.3749e-05
2.31116e-05
0.000252819
0.000770103
0.000714066
0.000235512
2.22398e-05
2.18848e-05
0.000242393
0.000720936
0.000677264
0.000227766
2.12324e-05
2.10286e-05
0.000234563
0.000685438
0.000646925
0.000221298
2.05034e-05
2.03793e-05
0.000227766
0.00065534
0.000620406
0.000215424
1.99388e-05
1.98496e-05
0.000221586
0.000628828
0.000596621
0.000209952
1.94722e-05
1.94026e-05
0.000215873
0.000604996
0.000575074
0.000204846
1.90659e-05
1.9009e-05
0.000210599
0.000583497
0.000555654
0.00020014
1.87004e-05
1.86526e-05
0.000205761
0.000564146
0.000538116
0.000195798
1.83652e-05
1.83244e-05
0.000201299
0.000546654
0.000522199
0.000191776
1.80533e-05
1.8018e-05
0.000197169
0.000530762
0.000507699
0.000188037
1.77597e-05
1.7729e-05
0.000193333
0.000516272
0.000494444
0.000184552
1.7481e-05
1.7454e-05
0.000189758
0.000503002
0.000482289
0.000181292
1.72146e-05
1.7191e-05
0.000186412
0.000490784
0.000471014
0.000178224
1.69587e-05
1.69381e-05
0.00018326
0.000479426
0.000460481
0.000175315
1.67117e-05
1.66936e-05
0.000180267
0.000468788
0.00045056
0.000172526
1.64858e-05
1.64887e-05
0.000177385
0.000458729
0.000441125
0.000169845
1.63385e-05
1.63619e-05
0.000174596
0.000449123
0.000432088
0.000167266
1.62402e-05
1.62685e-05
0.000171911
0.000439899
0.000423398
0.000164781
1.6154e-05
1.61841e-05
0.000169335
0.000431026
0.000415038
0.000162398
1.60723e-05
1.61035e-05
0.000166875
0.000422501
0.000407012
0.000160123
1.59931e-05
1.60254e-05
0.000164531
0.00041433
0.000399322
0.000157952
1.5916e-05
1.59493e-05
0.000162297
0.00040651
0.000391962
0.000155878
1.58404e-05
1.58748e-05
0.000160164
0.000399028
0.000384914
0.000153891
1.5766e-05
1.58018e-05
0.000158119
0.000391862
0.000378151
0.00015198
1.56929e-05
1.57298e-05
0.000156151
0.000384984
0.000371651
0.000150135
1.56203e-05
1.56584e-05
0.000154252
0.000378375
0.000365402
0.00014835
1.55479e-05
1.55871e-05
0.000152417
0.000372022
0.000359392
0.000146621
1.54755e-05
1.55156e-05
0.000150641
0.000365915
0.000353614
0.000144947
1.54028e-05
1.54439e-05
0.000148923
0.000360047
0.000348064
0.000143327
1.53298e-05
1.53717e-05
0.000147263
0.000354419
0.000342748
0.000141763
1.52563e-05
1.5299e-05
0.000145663
0.000349038
0.000337676
0.000140259
1.51824e-05
1.52258e-05
0.000144128
0.000343917
0.000332863
0.000138821
1.51081e-05
1.5152e-05
0.000142664
0.000339074
0.000328327
0.000137457
1.50336e-05
1.50779e-05
0.000141281
0.000334531
0.000324096
0.000136177
1.49592e-05
1.50038e-05
0.000139989
0.000330318
0.000320201
0.000134995
1.48854e-05
1.49301e-05
0.000138802
0.000326472
0.000316682
0.000133927
1.48129e-05
1.48574e-05
0.000137739
0.000323039
0.000313595
0.000132996
1.47434e-05
1.47867e-05
0.000136825
0.000320085
0.000311016
0.000132232
1.46803e-05
1.47189e-05
0.000136091
0.000317694
0.00030903
0.000131667
1.46214e-05
1.46546e-05
0.000135568
0.000315993
0.00030773
0.000131335
1.45692e-05
1.45959e-05
0.000135287
0.000315146
0.000307166
0.000131241
1.45253e-05
1.45453e-05
0.000135245
0.000314994
0.000307315
0.000131395
1.44877e-05
1.4513e-05
0.000135475
0.000315669
0.000308362
0.000131881
1.44527e-05
1.44993e-05
0.00013607
0.000317379
0.000310447
0.000132696
1.44294e-05
1.44948e-05
0.000136975
0.000320074
0.000313501
0.000133776
1.44219e-05
1.45023e-05
0.000138134
0.0003236
0.000317276
0.000135084
1.44304e-05
1.45247e-05
0.000139523
0.000327759
0.000321757
0.00013642
1.44558e-05
1.45612e-05
0.000140951
0.000332587
0.000326774
0.00013774
1.44962e-05
1.46095e-05
0.000142358
0.000337798
0.000331992
0.000139005
1.45489e-05
1.46666e-05
0.000143737
0.000343038
0.000337112
0.000140238
1.46117e-05
1.47315e-05
0.000145083
0.000348123
0.000341961
0.000141439
1.46831e-05
1.48032e-05
0.000146392
0.000352946
0.000346533
0.000142612
1.47617e-05
1.48807e-05
0.000147676
0.000357678
0.000350866
0.000143776
1.48461e-05
1.49624e-05
0.000148925
0.000362154
0.000354799
0.000144934
1.49345e-05
1.50468e-05
0.000150152
0.000366068
0.000358157
0.000145989
1.50253e-05
1.51333e-05
0.000151195
0.000369311
0.000360874
0.000146877
1.51169e-05
1.52185e-05
0.000152052
0.000371849
0.000362949
0.000147616
1.52063e-05
1.5298e-05
0.000152761
0.000373722
0.000364353
0.000148228
1.52998e-05
1.54371e-05
0.000153352
0.000374989
0.000365141
0.000148773
1.54792e-05
1.56651e-05
0.000153945
0.000375738
0.000365522
0.000149328
1.57247e-05
1.59236e-05
0.000154512
0.000376078
0.000365489
0.000149857
1.59901e-05
1.61849e-05
0.000154484
0.000375968
0.00036505
0.000150316
1.62527e-05
1.6435e-05
0.000154395
0.000375383
0.000364203
0.000150773
1.65009e-05
1.66668e-05
0.000154294
0.000374323
0.000362956
0.000151219
1.67289e-05
1.68763e-05
0.000154194
0.0003728
0.000361307
0.000151635
1.69334e-05
1.70615e-05
0.000154096
0.000370814
0.000359269
0.000152005
1.71125e-05
1.72205e-05
0.00015399
0.000368383
0.000356873
0.000152317
1.72648e-05
1.73518e-05
0.000153867
0.0003656
0.000354206
0.000152569
1.73889e-05
1.74552e-05
0.000153722
0.000362529
0.000351334
0.000152767
1.74849e-05
1.7528e-05
0.000153559
0.000359254
0.00034834
0.000152822
1.75531e-05
1.75762e-05
0.000153372
0.000355875
0.000345288
0.000152667
1.75974e-05
1.7607e-05
0.000153125
0.000352445
0.000342224
0.000152451
1.76144e-05
1.76226e-05
0.000152832
0.000349043
0.000339224
0.000152188
1.76141e-05
1.762e-05
0.000152492
0.000345748
0.000336332
0.000151895
1.75993e-05
1.76039e-05
0.000152143
0.000342603
0.000333534
0.000151587
1.75741e-05
1.75776e-05
0.000151791
0.000339638
0.000330877
0.000151269
1.75414e-05
1.75443e-05
0.000151436
0.000336849
0.000328365
0.000150916
1.75034e-05
1.7506e-05
0.000151081
0.000334215
0.000325928
0.00015056
1.7462e-05
1.74646e-05
0.000150721
0.000331698
0.000323563
0.000150197
1.74188e-05
1.74214e-05
0.000150352
0.000329283
0.000321298
0.000149824
1.73747e-05
1.73773e-05
0.000149971
0.000326969
0.000319119
0.000149436
1.73302e-05
1.7333e-05
0.000149572
0.000324737
0.000317008
0.000149029
1.72857e-05
1.72885e-05
0.000149153
0.000322574
0.00031495
0.000148603
1.72411e-05
1.7244e-05
0.000148715
0.000320474
0.000312927
0.000148158
1.71966e-05
1.71996e-05
0.000148258
0.000318407
0.000310932
0.000147694
1.71523e-05
1.71553e-05
0.000147781
0.000316365
0.00030896
0.000147211
1.71081e-05
1.71111e-05
0.000147284
0.000314341
0.000307003
0.000146708
1.7064e-05
1.7067e-05
0.000146769
0.000312332
0.00030506
0.000146188
1.702e-05
1.70229e-05
0.000146236
0.000310335
0.000303136
0.000145652
1.69759e-05
1.69789e-05
0.000145688
0.00030835
0.000301225
0.000145102
1.6932e-05
1.69348e-05
0.000145127
0.000306375
0.00029932
0.00014454
1.68881e-05
1.68909e-05
0.000144555
0.000304407
0.000297426
0.000143967
1.68443e-05
1.68471e-05
0.000143976
0.000302453
0.000295547
0.000143385
1.68006e-05
1.68034e-05
0.000143388
0.000300515
0.000293682
0.000142796
1.6757e-05
1.67597e-05
0.000142793
0.000298589
0.000291826
0.000142201
1.67134e-05
1.67162e-05
0.000142192
0.000296674
0.000289982
0.000141602
1.667e-05
1.66727e-05
0.000141589
0.000294773
0.000288156
0.000141003
1.66268e-05
1.66295e-05
0.000140986
0.000292896
0.000286342
0.000140405
1.65839e-05
1.65866e-05
0.000140392
0.000291092
0.000284102
0.000139757
1.65337e-05
1.65463e-05
0.000139666
0.000289296
0.000281907
0.000139322
1.65049e-05
1.66624e-05
0.000140231
0.000291794
0.000284168
0.0001408
1.67692e-05
1.74192e-05
0.000144949
0.000303237
0.000327732
0.00015106
1.80873e-05
1.88442e-05
0.0001557
0.000326102
0.000341137
0.00015916
1.91326e-05
2.69795e-05
0.000163073
0.000344531
0.000881462
0.00171446
0.00269408
0.003392
0.00496913
0.005925
0.00671236
0.00701742
0.00693955
0.00657191
0.00579582
0.00497505
0.00352849
0.00291042
0.00206686
0.00144539
0.00129163
0.000785853
0.000409222
0.000178396
8.26062e-05
1.90168e-05
1.15554e-05
7.92444e-05
0.000174338
0.000160814
7.55615e-05
1.11603e-05
1.07894e-05
7.38237e-05
0.000158259
0.000158484
7.29736e-05
1.07709e-05
1.05561e-05
7.1774e-05
0.00015282
0.000154618
7.11145e-05
1.04691e-05
1.03536e-05
7.02414e-05
0.000150564
0.000151637
7.00273e-05
1.03471e-05
1.02463e-05
6.95255e-05
0.000148788
0.000150713
6.95036e-05
1.02409e-05
1.02598e-05
6.95906e-05
0.000149647
0.00015156
6.94003e-05
1.02523e-05
1.02616e-05
6.94819e-05
0.000149266
0.000151247
6.94629e-05
1.02603e-05
1.02674e-05
6.97417e-05
0.00014965
0.000152398
6.95901e-05
1.0268e-05
1.02762e-05
6.9663e-05
0.000149932
0.00015191
6.96412e-05
1.02756e-05
1.02828e-05
6.99218e-05
0.000150299
0.000153069
6.97715e-05
1.02835e-05
1.02919e-05
6.98473e-05
0.000150586
0.000152585
6.98255e-05
1.02914e-05
1.02987e-05
7.01091e-05
0.000150964
0.000153761
6.99593e-05
1.02997e-05
1.03081e-05
7.00388e-05
0.000151261
0.000153282
7.00174e-05
1.03078e-05
1.03152e-05
7.03046e-05
0.000151653
0.00015448
7.01553e-05
1.03164e-05
1.0325e-05
7.02387e-05
0.000151964
0.00015401
7.02181e-05
1.03249e-05
1.03324e-05
7.05094e-05
0.000152373
0.00015523
7.03606e-05
1.03339e-05
1.03425e-05
7.04483e-05
0.000152698
0.000154769
7.04286e-05
1.03427e-05
1.03503e-05
7.07241e-05
0.000153125
0.000156014
7.05759e-05
1.03519e-05
1.03607e-05
7.06681e-05
0.000153464
0.000155561
7.06493e-05
1.0361e-05
1.03687e-05
7.09491e-05
0.00015391
0.000156829
7.08014e-05
1.03706e-05
1.03794e-05
7.0898e-05
0.000154261
0.000156384
7.08799e-05
1.03799e-05
1.03877e-05
7.11841e-05
0.000154727
0.000157677
7.10368e-05
1.03897e-05
1.03986e-05
7.11377e-05
0.00015509
0.000157241
7.11206e-05
1.03992e-05
1.0407e-05
7.14292e-05
0.000155575
0.000158558
7.12825e-05
1.04092e-05
1.04183e-05
7.13881e-05
0.00015595
0.000158132
7.13718e-05
1.04189e-05
1.04269e-05
7.16853e-05
0.000156454
0.000159474
7.15391e-05
1.04292e-05
1.04384e-05
7.16493e-05
0.000156844
0.000159058
7.16339e-05
1.04392e-05
1.04472e-05
7.19526e-05
0.000157356
0.000160422
7.18073e-05
1.04497e-05
1.0459e-05
7.19232e-05
0.000157761
0.000160008
7.19093e-05
1.04599e-05
1.04681e-05
7.22334e-05
0.000158293
0.000161391
7.20895e-05
1.04707e-05
1.04801e-05
7.22109e-05
0.000158704
0.000160977
7.21994e-05
1.04811e-05
1.04893e-05
7.25281e-05
0.000159244
0.000162373
7.23865e-05
1.04919e-05
1.05013e-05
7.25086e-05
0.000159662
0.000161958
7.24993e-05
1.05023e-05
1.05105e-05
7.283e-05
0.000160207
0.000163364
7.26899e-05
1.05131e-05
1.05224e-05
7.28114e-05
0.000160628
0.000162943
7.28036e-05
1.05232e-05
1.05314e-05
7.3135e-05
0.000161169
0.000164352
7.29954e-05
1.05338e-05
1.0543e-05
7.31148e-05
0.000161584
0.000163915
7.31072e-05
1.05435e-05
1.05516e-05
7.34374e-05
0.000162109
0.000165312
7.32965e-05
1.05535e-05
1.05626e-05
7.34116e-05
0.000162509
0.000164847
7.34021e-05
1.05626e-05
1.05704e-05
7.37286e-05
0.000163004
0.000166216
7.3584e-05
1.05718e-05
1.05805e-05
7.36916e-05
0.000163368
0.000165702
7.36778e-05
1.05798e-05
1.05872e-05
7.39972e-05
0.000163816
0.000167019
7.38454e-05
1.05876e-05
1.05959e-05
7.39417e-05
0.000164118
0.000166432
7.39201e-05
1.05941e-05
1.06009e-05
7.42276e-05
0.00016449
0.000167665
7.40638e-05
1.05996e-05
1.06069e-05
7.41428e-05
0.000164693
0.000166961
7.41079e-05
1.06039e-05
1.06092e-05
7.43955e-05
0.000164945
0.000168063
7.42118e-05
1.06064e-05
1.06115e-05
7.42625e-05
0.000165015
0.000167209
7.42038e-05
1.06072e-05
1.06095e-05
7.44564e-05
0.000165103
0.000168124
7.42376e-05
1.06047e-05
1.06063e-05
7.42405e-05
0.000164978
0.000167061
7.41396e-05
1.05998e-05
1.05972e-05
7.43327e-05
0.000164844
0.000167726
7.40543e-05
1.059e-05
1.05856e-05
7.39792e-05
0.000164438
0.000166362
7.38083e-05
1.05766e-05
1.05657e-05
7.39069e-05
0.000163987
0.000166671
7.35362e-05
1.05556e-05
1.05431e-05
7.33448e-05
0.000163195
0.000164881
7.30689e-05
1.05314e-05
1.05088e-05
7.30372e-05
0.00016227
0.000164656
7.24955e-05
1.04926e-05
1.04668e-05
7.21409e-05
0.000160802
0.000162259
7.17183e-05
1.04479e-05
1.0407e-05
7.14313e-05
0.000159202
0.00016131
7.06713e-05
1.03811e-05
1.03353e-05
7.00332e-05
0.000156959
0.00015813
6.9412e-05
1.03055e-05
1.02409e-05
6.87444e-05
0.000154497
0.000156284
6.77687e-05
1.02024e-05
1.01317e-05
6.67106e-05
0.000151327
0.00015219
6.58575e-05
1.00881e-05
1.0001e-05
6.47134e-05
0.000147937
0.000149423
6.35326e-05
9.94972e-06
9.86681e-06
6.20039e-05
0.000143917
0.000144555
6.09865e-05
9.81548e-06
9.74403e-06
5.94224e-05
0.000139853
0.000141195
5.8214e-05
9.70139e-06
9.66718e-06
5.65068e-05
0.000135353
0.000135915
5.55343e-05
9.63554e-06
9.61136e-06
5.39714e-05
0.000130916
0.000132468
5.29305e-05
9.61629e-06
9.62085e-06
5.13495e-05
0.000126478
0.000127097
5.06143e-05
9.66014e-06
9.69008e-06
4.93077e-05
0.000122029
0.000123895
4.86456e-05
9.76743e-06
9.84081e-06
4.74279e-05
0.000118124
0.000119178
4.71038e-05
9.95944e-06
1.00818e-05
4.6312e-05
0.000114643
0.000116807
4.62066e-05
1.02504e-05
1.04168e-05
4.56595e-05
0.000111932
0.000113109
4.60707e-05
1.05799e-05
1.07515e-05
4.58678e-05
0.000110451
0.00011242
4.69396e-05
1.09401e-05
1.1113e-05
4.54689e-05
0.00010954
0.000110909
4.74349e-05
1.12686e-05
1.13713e-05
4.69268e-05
0.000108753
0.000111531
4.95329e-05
1.14055e-05
1.14954e-05
5.02029e-05
0.000110122
0.000116701
5.69282e-05
1.16914e-05
8.31612e-06
5.77072e-05
0.000119928
4.59938e-05
1.91458e-05
6.7606e-06
8.14746e-06
3.71066e-05
0.00010096
9.00774e-05
3.72348e-05
8.62575e-06
9.00137e-06
3.8702e-05
9.99905e-05
9.66193e-05
3.84013e-05
9.17789e-06
9.39614e-06
3.92757e-05
0.000101843
0.00010063
3.9673e-05
9.60747e-06
9.85719e-06
3.97322e-05
0.000103998
0.000104904
4.11181e-05
1.01271e-05
1.0403e-05
4.08116e-05
0.000108703
0.000108792
4.2701e-05
1.07135e-05
1.09403e-05
4.22567e-05
0.000111612
0.000114106
4.48151e-05
1.12097e-05
1.14158e-05
4.46186e-05
0.000115737
0.000118227
4.65515e-05
1.15253e-05
1.16474e-05
4.85153e-05
0.000120491
0.000122962
5.16059e-05
1.17662e-05
1.19173e-05
5.66335e-05
0.000128667
0.000128676
5.85819e-05
8.34315e-06
7.31007e-06
1.64745e-05
4.06434e-05
9.82934e-05
3.40374e-05
8.7892e-06
9.26215e-06
3.18089e-05
8.78306e-05
9.1591e-05
3.29683e-05
9.64315e-06
9.9411e-06
3.15604e-05
8.73909e-05
9.26941e-05
3.42535e-05
1.02688e-05
1.05792e-05
3.3767e-05
9.16219e-05
9.85497e-05
3.76256e-05
1.09175e-05
1.10905e-05
3.77634e-05
9.82397e-05
0.000106948
4.39025e-05
1.12725e-05
1.16678e-05
4.77519e-05
0.000110715
0.000119935
5.27221e-05
8.36905e-06
7.78607e-06
1.46477e-05
3.64383e-05
9.62124e-05
3.53985e-05
9.31188e-06
1.01389e-05
3.10317e-05
9.04145e-05
0.000108686
3.86062e-05
1.07743e-05
1.11297e-05
3.78944e-05
0.000109117
0.000121315
4.42686e-05
1.14385e-05
1.17032e-05
4.4726e-05
0.00012326
0.000133119
5.10372e-05
1.20328e-05
1.23937e-05
5.5922e-05
0.00013981
0.000141739
5.91344e-05
8.84014e-06
8.22032e-06
1.55553e-05
3.88362e-05
0.000103753
3.67369e-05
9.90034e-06
1.05208e-05
3.30243e-05
9.7874e-05
0.000108718
3.74711e-05
1.08529e-05
1.12061e-05
3.82596e-05
0.00010538
0.00011706
4.50876e-05
1.15918e-05
1.21218e-05
4.90379e-05
0.00012266
0.000135224
5.54484e-05
8.75351e-06
8.17636e-06
1.46166e-05
3.70176e-05
0.000105146
3.56439e-05
9.87161e-06
1.0834e-05
3.47666e-05
0.000104263
0.000132154
4.71077e-05
1.14016e-05
1.1999e-05
4.85742e-05
0.000137331
0.000155464
6.0555e-05
1.27555e-05
9.29863e-06
6.10817e-05
0.000154019
3.87897e-05
1.51299e-05
8.32616e-06
9.91572e-06
3.82495e-05
0.00011349
0.000106676
3.41822e-05
1.0783e-05
1.13784e-05
4.24202e-05
0.000125562
0.000136144
4.80275e-05
1.20049e-05
1.31315e-05
6.11795e-05
0.000158555
0.000168539
6.65679e-05
9.96121e-06
8.897e-06
1.74562e-05
4.46659e-05
0.000134018
4.50203e-05
1.06732e-05
1.19987e-05
4.80497e-05
0.000143478
0.000186177
6.78356e-05
1.34538e-05
1.0115e-05
6.93547e-05
0.000182464
4.63825e-05
1.70762e-05
8.66079e-06
1.05911e-05
4.73646e-05
0.000143144
0.000145167
4.69869e-05
1.1875e-05
1.3528e-05
6.54424e-05
0.000188305
0.000196497
7.57944e-05
1.03913e-05
8.75123e-06
1.85572e-05
5.27754e-05
0.000173935
5.2504e-05
1.11178e-05
1.28662e-05
6.12398e-05
0.000193156
0.000262792
9.52849e-05
1.49616e-05
1.19263e-05
9.5152e-05
0.000252353
6.979e-05
2.35361e-05
9.52679e-06
1.2424e-05
7.6308e-05
0.000227343
0.000248816
8.36248e-05
1.53807e-05
1.31438e-05
0.000120371
0.000292298
8.98058e-05
2.74938e-05
9.96101e-06
1.43946e-05
0.000106567
0.000307095
0.000307845
0.000111222
1.24242e-05
9.52979e-06
2.56212e-05
9.44389e-05
0.00035178
0.000108702
1.41528e-05
1.95276e-05
0.00012575
0.000410282
0.000501433
0.000210446
1.86494e-05
1.36586e-05
5.26114e-05
0.000182554
0.000483113
0.000198723
1.60602e-05
1.03315e-05
4.02531e-05
0.000176324
0.000706001
0.000214009
2.47584e-05
2.68139e-05
0.000293274
0.00082197
0.000424657
0.000116462
2.28282e-05
4.34501e-05
0.000568499
0.00122471
0.000926816
0.000348478
2.49525e-05
1.78103e-05
0.000298042
0.000781088
0.000783653
0.00028771
1.83493e-05
2.17109e-05
0.00029961
0.000903429
0.00107053
0.000340849
2.78944e-05
4.32632e-05
0.000626314
0.00169271
0.000376708
0.000107578
2.49903e-05
2.47364e-05
0.000299088
0.000759805
0.000222018
7.44096e-05
1.71042e-05
1.94168e-05
0.000231498
0.000506959
0.000179483
5.77471e-05
1.58264e-05
1.76241e-05
0.000166339
0.000411875
0.000348195
0.000119043
1.77722e-05
1.07125e-05
2.70096e-05
9.11788e-05
0.000230762
0.000131085
1.24229e-05
1.21115e-05
3.58876e-05
9.69197e-05
0.000254368
0.000103096
1.38115e-05
1.50198e-05
8.07424e-05
0.000220619
6.54746e-05
2.36649e-05
1.00576e-05
1.11312e-05
7.46822e-05
0.000186052
0.000168726
6.48494e-05
1.33044e-05
9.44308e-06
2.0566e-05
5.31345e-05
0.000155243
6.46798e-05
1.01862e-05
1.22385e-05
5.58366e-05
0.000139318
4.45584e-05
1.79336e-05
9.22531e-06
9.54417e-06
5.40715e-05
0.000127146
0.000114212
4.7268e-05
1.15406e-05
8.58038e-06
1.48077e-05
3.66413e-05
9.7198e-05
6.13046e-05
8.54906e-06
1.01733e-05
2.03947e-05
4.62886e-05
0.000130068
6.09384e-05
1.03446e-05
1.28064e-05
4.56951e-05
0.000104049
8.56787e-05
3.62662e-05
1.05264e-05
8.45507e-06
1.29891e-05
3.08687e-05
8.5347e-05
3.80364e-05
8.15385e-06
1.06974e-05
3.47869e-05
8.0063e-05
2.96257e-05
1.34927e-05
8.60451e-06
8.05179e-06
3.68607e-05
7.92811e-05
7.42179e-05
3.44185e-05
1.04452e-05
8.61176e-06
1.31781e-05
2.86065e-05
7.53714e-05
3.52822e-05
7.97786e-06
1.03637e-05
3.30414e-05
7.00551e-05
2.74013e-05
1.29506e-05
8.51493e-06
7.83444e-06
3.362e-05
6.8687e-05
6.52201e-05
3.19022e-05
1.0278e-05
8.50431e-06
1.2675e-05
2.61683e-05
6.52157e-05
3.23304e-05
7.763e-06
1.0255e-05
3.10871e-05
6.13828e-05
2.5427e-05
1.25047e-05
8.5328e-06
7.67911e-06
3.07243e-05
5.99083e-05
5.7483e-05
2.99293e-05
1.01825e-05
8.53709e-06
1.24435e-05
2.4616e-05
5.78867e-05
3.01316e-05
7.68547e-06
1.01797e-05
2.9522e-05
5.51379e-05
2.43171e-05
1.25532e-05
8.56534e-06
7.67664e-06
2.87993e-05
5.42487e-05
5.25166e-05
2.89253e-05
1.01987e-05
8.63261e-06
1.26118e-05
2.39637e-05
5.29671e-05
2.87468e-05
7.64871e-06
1.01311e-05
2.82249e-05
5.08643e-05
2.33358e-05
1.26117e-05
8.56586e-06
7.5957e-06
2.73459e-05
4.92491e-05
4.80864e-05
2.6779e-05
1.01219e-05
8.65068e-06
1.25826e-05
2.25536e-05
4.79586e-05
2.70443e-05
7.57805e-06
1.0073e-05
2.61157e-05
4.65513e-05
2.19589e-05
1.27155e-05
8.59022e-06
7.58831e-06
2.60589e-05
4.45437e-05
4.36958e-05
2.48585e-05
1.01432e-05
8.67129e-06
1.28046e-05
2.11209e-05
4.30805e-05
2.56878e-05
7.60186e-06
1.01537e-05
2.39982e-05
4.21062e-05
2.05781e-05
1.28124e-05
8.58099e-06
7.51575e-06
2.42385e-05
4.02944e-05
3.96527e-05
2.29001e-05
1.00542e-05
8.59673e-06
1.26509e-05
1.97104e-05
3.93902e-05
2.37196e-05
7.54327e-06
1.01294e-05
2.20569e-05
3.75325e-05
1.91607e-05
1.28361e-05
8.66397e-06
7.50508e-06
2.29149e-05
3.77146e-05
3.58585e-05
2.13726e-05
1.00825e-05
8.56553e-06
1.26711e-05
1.85956e-05
3.69782e-05
2.27057e-05
7.40965e-06
1.00136e-05
2.09325e-05
3.44386e-05
1.81418e-05
1.27655e-05
8.5936e-06
7.50705e-06
2.17603e-05
3.52168e-05
3.27425e-05
2.01928e-05
1.00369e-05
8.63494e-06
1.25431e-05
1.7511e-05
3.43306e-05
2.12992e-05
7.41942e-06
9.93886e-06
1.95129e-05
3.1382e-05
1.68548e-05
1.24646e-05
8.46212e-06
7.38091e-06
2.01234e-05
3.21795e-05
2.96291e-05
1.86231e-05
9.93654e-06
8.51764e-06
1.22739e-05
1.60663e-05
3.10069e-05
1.96126e-05
7.33398e-06
9.90623e-06
1.80616e-05
2.82224e-05
1.53115e-05
1.20444e-05
8.45591e-06
7.16197e-06
1.82916e-05
2.86665e-05
2.63063e-05
1.70382e-05
9.71578e-06
8.29255e-06
1.16443e-05
1.44141e-05
2.71259e-05
1.74959e-05
7.0681e-06
9.61121e-06
1.61443e-05
2.48725e-05
1.35574e-05
1.1002e-05
8.08574e-06
6.64018e-06
1.79328e-05
2.21918e-05
1.45124e-05
1.16485e-05
8.93695e-06
7.53453e-06
1.82313e-05
2.87211e-05
2.61024e-05
1.68929e-05
1.00785e-05
8.5464e-06
1.26746e-05
1.49279e-05
2.82857e-05
1.87807e-05
7.23664e-06
9.85821e-06
1.74096e-05
2.59505e-05
1.46572e-05
1.24184e-05
8.44923e-06
7.26184e-06
1.77591e-05
2.66692e-05
2.44744e-05
1.63531e-05
9.87055e-06
8.25645e-06
1.15841e-05
1.36845e-05
2.20209e-05
1.80979e-05
6.78984e-06
9.11854e-06
1.20357e-05
1.45877e-05
2.75767e-05
1.79568e-05
7.68732e-06
1.01915e-05
1.67819e-05
2.47738e-05
1.46579e-05
1.31446e-05
8.59492e-06
7.35676e-06
1.78278e-05
2.5779e-05
2.38746e-05
1.66204e-05
9.93223e-06
8.54558e-06
1.25415e-05
1.4055e-05
2.46112e-05
1.68189e-05
7.29624e-06
9.88325e-06
1.56389e-05
2.28726e-05
1.31625e-05
1.1639e-05
8.33036e-06
6.7798e-06
1.7247e-05
2.04501e-05
1.37627e-05
1.19591e-05
9.09899e-06
7.58877e-06
1.68419e-05
2.5589e-05
2.31491e-05
1.59747e-05
1.01525e-05
8.50917e-06
1.29753e-05
1.39114e-05
2.42021e-05
1.70231e-05
7.2593e-06
9.82244e-06
1.58159e-05
2.23585e-05
1.31333e-05
1.18219e-05
8.27969e-06
6.77519e-06
1.72798e-05
2.01474e-05
1.37321e-05
1.22913e-05
9.17051e-06
7.63965e-06
1.64148e-05
2.48877e-05
2.24865e-05
1.55369e-05
1.01055e-05
8.32132e-06
1.23805e-05
1.33731e-05
2.03361e-05
1.75462e-05
6.91508e-06
9.3952e-06
1.25831e-05
1.40006e-05
2.53688e-05
1.74447e-05
7.80332e-06
1.02093e-05
1.65874e-05
2.30131e-05
1.44615e-05
1.3917e-05
8.71825e-06
7.55572e-06
1.74286e-05
2.40576e-05
2.23198e-05
1.62814e-05
1.01227e-05
8.51566e-06
1.26586e-05
1.35473e-05
2.05118e-05
1.78535e-05
7.00153e-06
9.37677e-06
1.2903e-05
1.41844e-05
2.50283e-05
1.69133e-05
7.78683e-06
1.03362e-05
1.60501e-05
2.25534e-05
1.39492e-05
1.32355e-05
8.61677e-06
7.11392e-06
1.80002e-05
2.08271e-05
1.45862e-05
1.3381e-05
9.49579e-06
7.79059e-06
1.77386e-05
2.5625e-05
2.31369e-05
1.68545e-05
1.02788e-05
8.668e-06
1.39954e-05
1.44851e-05
2.36836e-05
1.71791e-05
7.47403e-06
1.02008e-05
1.61545e-05
2.2065e-05
1.35799e-05
1.27747e-05
8.55567e-06
7.018e-06
1.75751e-05
2.0031e-05
1.41772e-05
1.32125e-05
9.4221e-06
7.81036e-06
1.62691e-05
2.39376e-05
2.16309e-05
1.54889e-05
1.03217e-05
8.5418e-06
1.28674e-05
1.34848e-05
1.96476e-05
1.7138e-05
7.08224e-06
9.45437e-06
1.28255e-05
1.3978e-05
2.33392e-05
1.65102e-05
7.71822e-06
1.02195e-05
1.58156e-05
2.12448e-05
1.35567e-05
1.31266e-05
8.46042e-06
7.01325e-06
1.76838e-05
1.9613e-05
1.40558e-05
1.32148e-05
9.41108e-06
7.74722e-06
1.60372e-05
2.32485e-05
2.11488e-05
1.54294e-05
1.03375e-05
8.52582e-06
1.30753e-05
1.34476e-05
1.90102e-05
1.74624e-05
7.01572e-06
9.32391e-06
1.384e-05
1.42884e-05
2.08573e-05
1.59955e-05
7.33048e-06
9.75738e-06
1.42193e-05
1.50238e-05
2.47159e-05
1.69571e-05
8.01242e-06
1.0491e-05
1.63521e-05
2.23137e-05
1.45488e-05
1.43438e-05
8.72753e-06
7.16595e-06
1.89866e-05
2.09963e-05
1.53579e-05
1.47114e-05
9.71301e-06
8.01725e-06
1.7736e-05
2.52931e-05
2.2916e-05
1.69956e-05
1.05998e-05
8.80933e-06
1.45307e-05
1.48249e-05
2.13437e-05
1.92209e-05
7.28568e-06
9.80588e-06
1.47123e-05
1.55173e-05
2.52535e-05
1.77348e-05
8.06923e-06
1.06807e-05
1.7053e-05
2.29958e-05
1.49078e-05
1.45018e-05
8.81007e-06
7.3278e-06
1.90844e-05
2.11645e-05
1.54723e-05
1.46572e-05
9.86347e-06
8.09346e-06
1.77115e-05
2.48244e-05
2.25093e-05
1.69603e-05
1.05779e-05
8.70157e-06
1.41521e-05
1.47421e-05
2.01821e-05
1.89418e-05
7.11877e-06
9.54527e-06
1.49043e-05
1.54328e-05
2.18861e-05
1.68707e-05
7.43885e-06
9.90735e-06
1.52263e-05
1.60103e-05
2.51785e-05
1.73836e-05
8.10113e-06
1.06406e-05
1.68286e-05
2.27477e-05
1.5119e-05
1.4831e-05
8.86691e-06
7.29405e-06
1.93247e-05
2.06133e-05
1.59764e-05
1.5704e-05
9.75678e-06
7.71139e-06
1.77558e-05
2.27106e-05
1.68791e-05
1.62193e-05
1.01556e-05
8.38548e-06
1.82869e-05
2.63053e-05
2.37833e-05
1.77493e-05
1.08441e-05
8.86089e-06
1.545e-05
1.58441e-05
2.18866e-05
2.02341e-05
7.26134e-06
9.94332e-06
1.57923e-05
1.637e-05
2.55451e-05
1.82625e-05
8.15545e-06
1.07925e-05
1.76431e-05
2.32959e-05
1.56595e-05
1.516e-05
8.92833e-06
7.32892e-06
1.96914e-05
2.11177e-05
1.64653e-05
1.59131e-05
9.81413e-06
7.6694e-06
1.77568e-05
2.27756e-05
1.69667e-05
1.63287e-05
1.01044e-05
8.24554e-06
1.80045e-05
2.60447e-05
2.34682e-05
1.7409e-05
1.08224e-05
8.99349e-06
1.53124e-05
1.5799e-05
2.08953e-05
1.95108e-05
7.39705e-06
9.86761e-06
1.60096e-05
1.6503e-05
2.26068e-05
1.81995e-05
7.6957e-06
1.00994e-05
1.64866e-05
1.70516e-05
2.58887e-05
1.81821e-05
8.18349e-06
1.0832e-05
1.77293e-05
2.34564e-05
1.60983e-05
1.57791e-05
9.0145e-06
7.34294e-06
2.03048e-05
2.10844e-05
1.68219e-05
1.65429e-05
9.92625e-06
7.74857e-06
1.81372e-05
2.30006e-05
1.7461e-05
1.70936e-05
1.0242e-05
8.36313e-06
1.84929e-05
2.64211e-05
2.38898e-05
1.79834e-05
1.09853e-05
9.09584e-06
1.59519e-05
1.63725e-05
2.12196e-05
2.0093e-05
7.49113e-06
1.00319e-05
1.66537e-05
1.71054e-05
2.2963e-05
1.83703e-05
7.8912e-06
1.03891e-05
1.70241e-05
1.76189e-05
2.59519e-05
1.86434e-05
8.46393e-06
1.09926e-05
1.81321e-05
2.36409e-05
1.65408e-05
1.61765e-05
9.11924e-06
7.42371e-06
2.05566e-05
2.12533e-05
1.72618e-05
1.69327e-05
1.0026e-05
7.84969e-06
1.80839e-05
2.30218e-05
1.80972e-05
1.72234e-05
1.01831e-05
7.95222e-06
1.90004e-05
2.41522e-05
1.8662e-05
1.85291e-05
1.03445e-05
8.41197e-06
1.9723e-05
2.76827e-05
2.51374e-05
1.92575e-05
1.10297e-05
9.14538e-06
1.68994e-05
1.73548e-05
2.22713e-05
2.14899e-05
7.51247e-06
1.01896e-05
1.77133e-05
1.81805e-05
2.39133e-05
1.93271e-05
8.04271e-06
1.05053e-05
1.82174e-05
1.87052e-05
2.70278e-05
1.92905e-05
8.57745e-06
1.12586e-05
1.88985e-05
2.46761e-05
1.73788e-05
1.69947e-05
9.26107e-06
7.55133e-06
2.12909e-05
2.20596e-05
1.82198e-05
1.78713e-05
1.02213e-05
8.02385e-06
1.88568e-05
2.35784e-05
1.89041e-05
1.80347e-05
1.03372e-05
8.07472e-06
1.95617e-05
2.46564e-05
1.94836e-05
1.92196e-05
1.0511e-05
8.58536e-06
2.02195e-05
2.78265e-05
2.53262e-05
1.96548e-05
1.1169e-05
9.30118e-06
1.73659e-05
1.78481e-05
2.23188e-05
2.16746e-05
7.63958e-06
1.02929e-05
1.80371e-05
1.85315e-05
2.34518e-05
1.87858e-05
8.04471e-06
1.04747e-05
1.82737e-05
1.9074e-05
2.45095e-05
1.96045e-05
8.21003e-06
1.06739e-05
1.96937e-05
1.96962e-05
2.78684e-05
2.05013e-05
8.78684e-06
1.1391e-05
2.00216e-05
2.55618e-05
1.84197e-05
1.81714e-05
9.42099e-06
7.62235e-06
2.26201e-05
2.28893e-05
1.9131e-05
1.88614e-05
1.03376e-05
8.04698e-06
1.95319e-05
2.43663e-05
1.98797e-05
1.91261e-05
1.053e-05
8.21819e-06
2.05067e-05
2.55051e-05
2.05167e-05
2.03478e-05
1.06343e-05
8.70305e-06
2.11999e-05
2.87045e-05
2.61885e-05
2.07761e-05
1.13306e-05
9.3891e-06
1.83673e-05
1.88343e-05
2.31135e-05
2.28005e-05
7.69169e-06
1.04762e-05
1.9125e-05
1.95532e-05
2.4196e-05
1.97348e-05
8.27057e-06
1.06661e-05
1.92378e-05
2.00289e-05
2.50081e-05
2.03201e-05
8.35028e-06
1.08109e-05
2.05672e-05
2.04523e-05
2.81791e-05
2.11245e-05
8.83757e-06
1.15403e-05
2.08979e-05
2.59244e-05
1.9213e-05
1.90683e-05
9.52901e-06
7.7221e-06
2.34573e-05
2.34278e-05
1.99414e-05
1.97702e-05
1.04869e-05
8.19329e-06
2.03615e-05
2.48e-05
2.05727e-05
1.98264e-05
1.0685e-05
8.37836e-06
2.08968e-05
2.56406e-05
2.10373e-05
2.09559e-05
1.08101e-05
8.86403e-06
2.15238e-05
2.85818e-05
2.61019e-05
2.11528e-05
1.15125e-05
9.52913e-06
1.89472e-05
1.92632e-05
2.32655e-05
2.30696e-05
7.80958e-06
1.06391e-05
1.97447e-05
2.00487e-05
2.42094e-05
2.01104e-05
8.31417e-06
1.07465e-05
1.98127e-05
2.04866e-05
2.48456e-05
2.06342e-05
8.35068e-06
1.0911e-05
2.10001e-05
2.08343e-05
2.77157e-05
2.11994e-05
8.90621e-06
1.16059e-05
2.1057e-05
2.54873e-05
1.93406e-05
1.93367e-05
9.6439e-06
7.8882e-06
2.31898e-05
2.32017e-05
2.01765e-05
2.01076e-05
1.06909e-05
8.34695e-06
2.03763e-05
2.43534e-05
2.06842e-05
2.00322e-05
1.0732e-05
8.33279e-06
2.03783e-05
2.49008e-05
2.1206e-05
2.07712e-05
1.0791e-05
8.48773e-06
2.16439e-05