/*--------------------------------*- C++ -*----------------------------------*\
| =========                 |                                                 |
| \\      /  F ield         | OpenFOAM: The Open Source CFD Toolbox           |
|  \\    /   O peration     | Version:  v2006                                 |
|   \\  /    A nd           | Website:  www.openfoam.com                      |
|    \\/     M anipulation  |                                                 |
\*---------------------------------------------------------------------------*/
FoamFile
{
    version     2.0;
    format      ascii;
    class       volScalarField;
    location    "0.035";
    object      rho;
}
// * * * * * * * * * * * * * * * * * * * * * * * * * * * * * * * * * * * * * //

dimensions      [1 -3 0 0 0 0 0];


internalField   nonuniform List<scalar> 
23013
(
1.73109
1.73111
1.73114
1.73104
1.73111
1.73109
1.7311
1.73111
1.73112
1.73114
1.73117
1.73119
1.73121
1.73124
1.73127
1.7313
1.73132
1.73135
1.73138
1.73142
1.73145
1.73148
1.73152
1.73156
1.7316
1.73164
1.73168
1.73172
1.73176
1.73181
1.73185
1.7319
1.73195
1.732
1.73205
1.7321
1.73215
1.7322
1.73226
1.73231
1.73237
1.73243
1.73248
1.73254
1.7326
1.73266
1.73272
1.73278
1.73284
1.7329
1.73297
1.73303
1.73309
1.73316
1.73322
1.73329
1.73335
1.73341
1.73348
1.73354
1.73361
1.73367
1.73374
1.7338
1.73387
1.73393
1.734
1.73406
1.73413
1.73419
1.73425
1.73432
1.73438
1.73444
1.7345
1.73456
1.73462
1.73468
1.73474
1.7348
1.73485
1.73491
1.73496
1.73502
1.73507
1.73512
1.73518
1.73522
1.73527
1.73532
1.73537
1.73541
1.73546
1.7355
1.73554
1.73558
1.73562
1.73566
1.73569
1.73572
1.73576
1.73579
1.73582
1.73585
1.73587
1.7359
1.73592
1.73594
1.73596
1.73598
1.73599
1.73599
1.73599
1.73599
1.73599
1.736
1.736
1.73603
1.73606
1.73611
1.7362
1.73624
1.73619
1.7361
1.7362
1.73621
1.73619
1.73615
1.73602
1.73595
1.73611
1.73616
1.73611
1.73605
1.73588
1.73583
1.73601
1.73608
1.73604
1.73597
1.7358
1.73577
1.73595
1.73602
1.73599
1.73592
1.73575
1.73573
1.7359
1.73598
1.73595
1.73588
1.73572
1.73571
1.73586
1.73594
1.73592
1.73585
1.73571
1.73571
1.73584
1.73592
1.7359
1.73583
1.7357
1.73571
1.73583
1.7359
1.73589
1.73582
1.73571
1.73571
1.73582
1.73589
1.73588
1.73581
1.73571
1.73572
1.73582
1.73588
1.73588
1.73582
1.73572
1.73573
1.73582
1.73588
1.73588
1.73582
1.73574
1.73575
1.73583
1.73589
1.73589
1.73583
1.73576
1.73577
1.73584
1.7359
1.7359
1.73585
1.73578
1.73579
1.73586
1.73591
1.73592
1.73586
1.7358
1.73581
1.73588
1.73593
1.73593
1.73589
1.73583
1.73584
1.7359
1.73595
1.73595
1.73591
1.73585
1.73587
1.73593
1.73597
1.73598
1.73594
1.73589
1.73591
1.73595
1.736
1.73601
1.73597
1.73592
1.73594
1.73599
1.73603
1.73604
1.736
1.73596
1.73598
1.73602
1.73606
1.73607
1.73604
1.736
1.73603
1.73606
1.73609
1.73611
1.73608
1.73605
1.73607
1.7361
1.73613
1.73615
1.73612
1.73609
1.73612
1.73615
1.73618
1.7362
1.73617
1.73614
1.73617
1.7362
1.73622
1.73624
1.73622
1.73619
1.73622
1.73625
1.73627
1.73629
1.73627
1.73625
1.73628
1.7363
1.73632
1.73635
1.73633
1.73631
1.73634
1.73636
1.73638
1.7364
1.73638
1.73637
1.7364
1.73641
1.73643
1.73646
1.73644
1.73643
1.73646
1.73648
1.73649
1.73652
1.7365
1.73649
1.73653
1.73654
1.73655
1.73658
1.73657
1.73656
1.73659
1.7366
1.73661
1.73664
1.73663
1.73662
1.73666
1.73667
1.73668
1.73671
1.7367
1.73669
1.73673
1.73673
1.73674
1.73677
1.73676
1.73676
1.7368
1.7368
1.73681
1.73684
1.73683
1.73683
1.73687
1.73687
1.73688
1.73691
1.7369
1.7369
1.73694
1.73694
1.73694
1.73697
1.73697
1.73697
1.73701
1.73701
1.73701
1.73704
1.73704
1.73705
1.73709
1.73708
1.73708
1.73711
1.73711
1.73712
1.73716
1.73715
1.73715
1.73718
1.73718
1.73719
1.73723
1.73722
1.73721
1.73724
1.73725
1.73726
1.7373
1.73728
1.73727
1.7373
1.73731
1.73733
1.73736
1.73734
1.73733
1.73736
1.73737
1.73739
1.73742
1.7374
1.73739
1.73741
1.73742
1.73744
1.73747
1.73744
1.73743
1.73745
1.73746
1.73748
1.7375
1.73748
1.73747
1.73747
1.73749
1.73751
1.73752
1.7375
1.73748
1.73749
1.7375
1.73752
1.73752
1.73751
1.73749
1.73749
1.7375
1.73751
1.7375
1.73749
1.73748
1.73746
1.73747
1.73748
1.73745
1.73745
1.73744
1.73742
1.73742
1.73742
1.73738
1.73739
1.73738
1.73734
1.73734
1.73733
1.73728
1.7373
1.7373
1.73724
1.73724
1.73721
1.73715
1.73718
1.73719
1.73712
1.73711
1.73707
1.737
1.73703
1.73705
1.73697
1.73695
1.73691
1.73682
1.73687
1.73689
1.7368
1.73677
1.73672
1.73662
1.73668
1.73671
1.73661
1.73658
1.73651
1.7364
1.73648
1.73651
1.73641
1.73637
1.73629
1.73617
1.73626
1.7363
1.73619
1.73614
1.73606
1.73594
1.73603
1.73608
1.73597
1.73591
1.73582
1.7357
1.7358
1.73586
1.73574
1.73568
1.73558
1.73545
1.73557
1.73563
1.73551
1.73545
1.73533
1.73521
1.73533
1.7354
1.73528
1.73521
1.73509
1.73497
1.7351
1.73517
1.73506
1.73498
1.73485
1.73474
1.73487
1.73495
1.73484
1.73476
1.73462
1.73451
1.73465
1.73474
1.73463
1.73454
1.7344
1.73429
1.73444
1.73453
1.73442
1.73433
1.73418
1.73408
1.73423
1.73432
1.73422
1.73412
1.73397
1.73387
1.73403
1.73413
1.73403
1.73393
1.73377
1.73368
1.73385
1.73395
1.73386
1.73375
1.73359
1.73351
1.73367
1.73378
1.73369
1.73358
1.73342
1.73335
1.73351
1.73362
1.73354
1.73343
1.73327
1.73321
1.73337
1.73348
1.73341
1.7333
1.73314
1.73308
1.73324
1.73335
1.73329
1.73317
1.73302
1.73297
1.73313
1.73324
1.73318
1.73307
1.73292
1.73288
1.73303
1.73314
1.73309
1.73298
1.73283
1.7328
1.73294
1.73305
1.73301
1.7329
1.73276
1.73273
1.73287
1.73298
1.73294
1.73283
1.7327
1.73267
1.73281
1.73291
1.73287
1.73277
1.73265
1.73263
1.73275
1.73285
1.73282
1.73272
1.7326
1.73259
1.73271
1.7328
1.73277
1.73268
1.73257
1.73255
1.73266
1.73276
1.73273
1.73264
1.73254
1.73253
1.73263
1.73272
1.73269
1.73261
1.73251
1.7325
1.7326
1.73268
1.73266
1.73258
1.73249
1.73248
1.73257
1.73265
1.73263
1.73255
1.73247
1.73246
1.73254
1.73262
1.7326
1.73253
1.73245
1.73245
1.73252
1.73259
1.73257
1.73251
1.73244
1.73244
1.7325
1.73257
1.73255
1.73249
1.73243
1.73243
1.73249
1.73255
1.73253
1.73248
1.73242
1.73242
1.73247
1.73253
1.73252
1.73246
1.73241
1.73241
1.73246
1.73251
1.7325
1.73245
1.73241
1.73241
1.73245
1.7325
1.73249
1.73244
1.7324
1.7324
1.73244
1.73249
1.73248
1.73244
1.7324
1.7324
1.73244
1.73248
1.73247
1.73243
1.7324
1.7324
1.73243
1.73247
1.73246
1.73242
1.73239
1.73239
1.73243
1.73246
1.73245
1.73242
1.73239
1.73239
1.73242
1.73245
1.73245
1.73242
1.73239
1.73239
1.73242
1.73245
1.73244
1.73241
1.73239
1.73239
1.73242
1.73244
1.73243
1.73241
1.73239
1.7324
1.73241
1.73244
1.73243
1.73241
1.73239
1.7324
1.73241
1.73243
1.73243
1.73241
1.7324
1.7324
1.73241
1.73243
1.73243
1.73241
1.7324
1.73241
1.73241
1.73243
1.73243
1.73241
1.73241
1.73241
1.73242
1.73243
1.73243
1.73242
1.73241
1.73242
1.73242
1.73243
1.73243
1.73242
1.73242
1.73243
1.73243
1.73243
1.73243
1.73243
1.73243
1.73244
1.73243
1.73244
1.73244
1.73244
1.73244
1.73247
1.73246
1.73246
1.73246
1.73247
1.73248
1.73249
1.73247
1.73246
1.73245
1.73247
1.73249
1.73249
1.73246
1.73245
1.73248
1.73252
1.73255
1.73257
1.73256
1.73256
1.73257
1.73257
1.73256
1.73256
1.73255
1.73255
1.73255
1.73255
1.73251
1.73247
1.73247
1.73244
1.73237
1.73235
1.73237
1.73241
1.73241
1.73239
1.73237
1.73235
1.73235
1.73236
1.73234
1.73232
1.73232
1.73233
1.73233
1.73235
1.73234
1.73233
1.73233
1.73233
1.73233
1.73234
1.73234
1.73233
1.73233
1.73233
1.73233
1.73234
1.73233
1.73233
1.73233
1.73233
1.73233
1.73234
1.73234
1.73233
1.73233
1.73233
1.73234
1.73234
1.73234
1.73233
1.73233
1.73233
1.73234
1.73234
1.73234
1.73233
1.73233
1.73234
1.73234
1.73235
1.73234
1.73233
1.73233
1.73234
1.73234
1.73235
1.73234
1.73234
1.73233
1.73234
1.73234
1.73235
1.73234
1.73234
1.73234
1.73234
1.73234
1.73235
1.73235
1.73234
1.73234
1.73234
1.73234
1.73235
1.73235
1.73234
1.73234
1.73234
1.73234
1.73235
1.73235
1.73234
1.73234
1.73234
1.73235
1.73235
1.73235
1.73234
1.73234
1.73234
1.73234
1.73235
1.73235
1.73234
1.73234
1.73235
1.73235
1.73235
1.73235
1.73234
1.73234
1.73234
1.73234
1.73235
1.73235
1.73234
1.73234
1.73234
1.73235
1.73235
1.73235
1.73234
1.73234
1.73234
1.73234
1.73235
1.73235
1.73234
1.73234
1.73234
1.73234
1.73235
1.73235
1.73234
1.73234
1.73234
1.73234
1.73235
1.73235
1.73234
1.73234
1.73234
1.73234
1.73235
1.73234
1.73234
1.73234
1.73234
1.73234
1.73235
1.73234
1.73234
1.73234
1.73234
1.73234
1.73235
1.73234
1.73234
1.73234
1.73234
1.73234
1.73234
1.73234
1.73234
1.73234
1.73234
1.73234
1.73234
1.73234
1.73233
1.73234
1.73235
1.73234
1.73234
1.73234
1.73234
1.73234
1.73235
1.73234
1.73234
1.73234
1.73234
1.73235
1.73235
1.73234
1.73234
1.73234
1.73234
1.73235
1.73235
1.73234
1.73234
1.73234
1.73234
1.73235
1.73236
1.73234
1.73234
1.73234
1.73234
1.73236
1.73236
1.73235
1.73234
1.73234
1.73234
1.73236
1.73237
1.73235
1.73234
1.73234
1.73235
1.73236
1.73237
1.73235
1.73234
1.73234
1.73235
1.73237
1.73238
1.73235
1.73234
1.73234
1.73235
1.73237
1.73238
1.73236
1.73234
1.73234
1.73236
1.73238
1.73239
1.73236
1.73234
1.73234
1.73236
1.73239
1.73239
1.73237
1.73235
1.73234
1.73236
1.73239
1.7324
1.73237
1.73235
1.73235
1.73237
1.7324
1.73241
1.73238
1.73235
1.73235
1.73238
1.73241
1.73241
1.73238
1.73236
1.73236
1.73238
1.73241
1.73242
1.73239
1.73237
1.73236
1.73239
1.73242
1.73242
1.73239
1.73237
1.73237
1.73239
1.73242
1.73243
1.7324
1.73238
1.73237
1.7324
1.73243
1.73243
1.7324
1.73238
1.73238
1.7324
1.73242
1.73243
1.7324
1.73238
1.73238
1.7324
1.73242
1.73242
1.7324
1.73238
1.73238
1.73239
1.73242
1.73242
1.73239
1.73238
1.73237
1.73239
1.73242
1.73241
1.73238
1.73237
1.73236
1.73238
1.73241
1.73241
1.73237
1.73236
1.73235
1.73236
1.73241
1.73241
1.73236
1.73235
1.73234
1.73235
1.7324
1.73241
1.73235
1.73233
1.73232
1.73235
1.73241
1.73242
1.73235
1.73232
1.7323
1.73234
1.73242
1.73243
1.73235
1.7323
1.73228
1.73235
1.73244
1.73245
1.73235
1.73228
1.73227
1.73236
1.73246
1.73248
1.73237
1.73228
1.73227
1.73238
1.73248
1.7325
1.73239
1.73228
1.73229
1.7324
1.7325
1.73252
1.73241
1.73231
1.73232
1.73242
1.73252
1.73253
1.73244
1.73234
1.73235
1.73244
1.73253
1.73253
1.73245
1.73237
1.73237
1.73244
1.73252
1.73251
1.73244
1.73238
1.73237
1.73243
1.7325
1.73248
1.7324
1.73237
1.73236
1.73237
1.73245
1.73243
1.73233
1.73235
1.73231
1.73229
1.73241
1.7324
1.73223
1.73226
1.73218
1.73219
1.73238
1.73237
1.73214
1.73208
1.73197
1.73211
1.73237
1.73238
1.7321
1.73188
1.73183
1.73208
1.73238
1.73238
1.73208
1.7318
1.73178
1.73209
1.73238
1.73239
1.73209
1.73176
1.73173
1.73209
1.73237
1.73236
1.73208
1.7317
1.73168
1.73209
1.73237
1.73237
1.73209
1.73165
1.73165
1.73212
1.73238
1.7324
1.73217
1.73168
1.73178
1.73226
1.73244
1.73247
1.73232
1.73183
1.73186
1.73239
1.7325
1.73261
1.73259
1.73205
1.73226
1.73286
1.73273
1.73193
1.73255
1.73058
1.73212
1.73204
1.73228
1.7325
1.7323
1.7321
1.73216
1.73234
1.73254
1.73261
1.73241
1.73221
1.73228
1.73246
1.73267
1.73274
1.73252
1.73234
1.73241
1.73259
1.73281
1.73288
1.73265
1.73245
1.73257
1.73275
1.73297
1.73304
1.73282
1.73262
1.73277
1.73294
1.73313
1.73323
1.73305
1.73289
1.73291
1.73312
1.73329
1.73337
1.73321
1.73298
1.73306
1.7333
1.73344
1.7335
1.73335
1.7331
1.73327
1.73352
1.73363
1.73378
1.73382
1.73359
1.73289
1.73291
1.73316
1.73344
1.73312
1.7329
1.73306
1.73342
1.73364
1.73369
1.73346
1.73305
1.73302
1.73346
1.73371
1.73377
1.73354
1.73305
1.73315
1.73364
1.73385
1.73391
1.73373
1.73322
1.73321
1.73377
1.73394
1.73402
1.73391
1.73332
1.73344
1.73409
1.73412
1.73423
1.73435
1.73358
1.73182
1.73415
1.73361
1.73385
1.73357
1.73358
1.73347
1.73381
1.73408
1.73412
1.73385
1.73352
1.73357
1.7339
1.73418
1.73426
1.73401
1.73371
1.73378
1.73407
1.73431
1.73435
1.73409
1.73377
1.73386
1.73424
1.73447
1.73464
1.73453
1.73416
1.73326
1.7336
1.73389
1.73446
1.73404
1.73335
1.73346
1.73419
1.73455
1.73471
1.73437
1.73364
1.73375
1.73452
1.73478
1.73485
1.73461
1.73377
1.73387
1.73486
1.73497
1.73515
1.73517
1.73416
1.73235
1.73504
1.73464
1.73484
1.73439
1.73415
1.73408
1.7348
1.73508
1.73516
1.7349
1.7342
1.73429
1.7351
1.73527
1.73538
1.73527
1.7344
1.73454
1.73551
1.73548
1.735
1.73543
1.73282
1.73481
1.73485
1.73523
1.73548
1.73525
1.73478
1.73484
1.73525
1.73551
1.73563
1.73544
1.73496
1.73518
1.73566
1.73581
1.73595
1.73592
1.73539
1.73415
1.73555
1.73545
1.73589
1.73545
1.73489
1.73493
1.73598
1.73607
1.73622
1.73615
1.73508
1.73515
1.73654
1.73633
1.73629
1.73629
1.73346
1.73561
1.73591
1.73629
1.73645
1.73636
1.73531
1.73541
1.73651
1.73657
1.73677
1.73704
1.73571
1.73425
1.73698
1.73677
1.73661
1.73632
1.73628
1.73602
1.73663
1.73682
1.73709
1.73699
1.7365
1.73661
1.73721
1.7372
1.73703
1.73676
1.73597
1.73665
1.73695
1.73733
1.73763
1.73751
1.73679
1.73685
1.73763
1.73772
1.73764
1.73774
1.73568
1.73695
1.7381
1.73821
1.73831
1.73874
1.73668
1.73466
1.73908
1.73857
1.7386
1.73838
1.73858
1.73812
1.73876
1.73892
1.7392
1.73914
1.73857
1.73823
1.73936
1.73952
1.73972
1.7402
1.73847
1.73816
1.74087
1.74075
1.74055
1.74048
1.74053
1.74135
1.74135
1.74115
1.74173
1.74171
1.7416
1.74287
1.74264
1.74234
1.74283
1.74314
1.74329
1.74354
1.74333
1.74302
1.74301
1.74333
1.74354
1.74299
1.74292
1.74267
1.74197
1.74218
1.74211
1.74082
1.74098
1.74089
1.74042
1.74037
1.74028
1.73927
1.7395
1.73956
1.73923
1.73916
1.73904
1.73863
1.73885
1.73891
1.73856
1.73839
1.73813
1.73853
1.7386
1.73855
1.73815
1.73791
1.73785
1.73662
1.73833
1.73784
1.73807
1.73818
1.7378
1.73715
1.73768
1.73775
1.73769
1.73762
1.73729
1.73726
1.73752
1.73761
1.73736
1.73719
1.73701
1.73703
1.73731
1.7374
1.73728
1.73705
1.73687
1.73668
1.73705
1.73697
1.73732
1.73736
1.73717
1.7368
1.73663
1.73694
1.73683
1.73767
1.73496
1.73656
1.73756
1.73725
1.73696
1.73661
1.7368
1.73258
1.7385
1.73702
1.73722
1.73771
1.73564
1.73502
1.73694
1.73698
1.73715
1.73719
1.73627
1.73605
1.73699
1.73706
1.73677
1.73631
1.73624
1.73295
1.73726
1.73702
1.7371
1.73773
1.73536
1.73542
1.73666
1.73686
1.73673
1.73731
1.73353
1.73573
1.73724
1.73705
1.73687
1.73654
1.73554
1.73513
1.73621
1.73663
1.73696
1.73708
1.73623
1.73605
1.73639
1.73676
1.7364
1.73669
1.73517
1.73631
1.73684
1.73687
1.73675
1.73652
1.73599
1.73611
1.73591
1.73639
1.73677
1.73674
1.73652
1.73615
1.73633
1.73666
1.73619
1.73628
1.73609
1.73658
1.73666
1.73672
1.73658
1.73642
1.73629
1.7361
1.73614
1.73629
1.73668
1.73666
1.7365
1.73626
1.73643
1.73655
1.73628
1.73614
1.73605
1.73647
1.73665
1.73667
1.73657
1.73647
1.73628
1.73605
1.73614
1.73631
1.73669
1.73667
1.73649
1.73626
1.73645
1.73656
1.73628
1.7361
1.736
1.73646
1.73664
1.73665
1.73653
1.7364
1.73621
1.73595
1.73605
1.73622
1.73662
1.73661
1.73644
1.73618
1.73636
1.73648
1.73616
1.736
1.7359
1.73636
1.73653
1.73654
1.73642
1.7363
1.73613
1.73587
1.73597
1.73613
1.73653
1.73652
1.73634
1.73617
1.73632
1.73642
1.73616
1.736
1.73592
1.73634
1.73651
1.73652
1.73639
1.73629
1.73611
1.73583
1.73593
1.7361
1.73647
1.73646
1.73628
1.73603
1.73623
1.73635
1.73605
1.73588
1.73577
1.73626
1.73644
1.73645
1.73633
1.73621
1.73603
1.73573
1.73582
1.736
1.73635
1.73633
1.73614
1.7359
1.73609
1.73622
1.7359
1.73572
1.73561
1.73609
1.73628
1.73629
1.73617
1.73604
1.73585
1.73556
1.73568
1.73585
1.73631
1.73632
1.73616
1.73587
1.73605
1.73616
1.73586
1.73568
1.73559
1.73601
1.7362
1.73622
1.73608
1.73595
1.73574
1.73549
1.73559
1.73577
1.73616
1.73614
1.73594
1.73568
1.73589
1.73603
1.73572
1.73553
1.73544
1.736
1.73618
1.73616
1.73605
1.73579
1.73565
1.73545
1.73566
1.73555
1.73609
1.73613
1.73591
1.73599
1.73541
1.73574
1.73572
1.73695
1.73272
1.73508
1.73647
1.73609
1.73581
1.7358
1.73449
1.73541
1.7361
1.73604
1.7359
1.73584
1.73516
1.73497
1.73534
1.73564
1.73601
1.73598
1.73556
1.73522
1.73566
1.73584
1.73545
1.73515
1.73493
1.73539
1.73577
1.73584
1.73557
1.73535
1.73529
1.73453
1.73519
1.73561
1.7358
1.73616
1.73513
1.73472
1.73537
1.73554
1.7358
1.73581
1.73535
1.73518
1.73559
1.73568
1.73542
1.73518
1.73498
1.73551
1.73577
1.73579
1.73562
1.73546
1.73521
1.73496
1.73508
1.73529
1.73566
1.73567
1.73541
1.73536
1.73508
1.73533
1.73552
1.73529
1.73377
1.73478
1.73612
1.73563
1.73538
1.73527
1.73435
1.73504
1.73562
1.7356
1.73548
1.73541
1.73491
1.73468
1.73494
1.73521
1.73558
1.73557
1.73517
1.73518
1.73497
1.73525
1.73546
1.73522
1.73358
1.73461
1.73611
1.7355
1.73528
1.73519
1.73416
1.73498
1.73561
1.73544
1.73528
1.73503
1.73471
1.73438
1.73511
1.7349
1.7354
1.73537
1.73514
1.73466
1.73489
1.73508
1.7354
1.73544
1.73524
1.73495
1.73513
1.73524
1.73488
1.7347
1.73459
1.73502
1.73525
1.73524
1.73498
1.73481
1.73478
1.73429
1.73446
1.73489
1.73507
1.73542
1.7346
1.73415
1.73467
1.7348
1.73501
1.73504
1.73465
1.73437
1.73473
1.73486
1.73453
1.73433
1.73413
1.73468
1.73495
1.73499
1.73473
1.73455
1.73439
1.73481
1.73502
1.73501
1.73483
1.7347
1.73451
1.73424
1.73433
1.7345
1.73485
1.73487
1.7346
1.73462
1.73422
1.73452
1.73481
1.73466
1.73257
1.73353
1.73554
1.73476
1.73455
1.73451
1.73315
1.73392
1.7349
1.7347
1.73442
1.73427
1.73401
1.73299
1.73413
1.73455
1.73468
1.73522
1.73361
1.73334
1.73438
1.73447
1.7347
1.7349
1.73408
1.73421
1.73425
1.73443
1.7342
1.73485
1.73237
1.73387
1.73475
1.73462
1.73424
1.73418
1.73319
1.73387
1.73461
1.73445
1.73413
1.7339
1.73398
1.732
1.73418
1.73441
1.73443
1.73541
1.73316
1.73296
1.73407
1.73418
1.73435
1.7345
1.73379
1.7334
1.73394
1.73409
1.73439
1.7344
1.73396
1.73387
1.7342
1.73429
1.73393
1.7337
1.73346
1.734
1.73432
1.73434
1.73399
1.73377
1.73351
1.73389
1.73418
1.7342
1.73403
1.73388
1.7336
1.7333
1.73347
1.73366
1.73408
1.73405
1.73378
1.73333
1.73355
1.73374
1.73398
1.73397
1.73369
1.73336
1.73352
1.73379
1.73351
1.73307
1.73352
1.73362
1.734
1.73391
1.73359
1.73337
1.73321
1.73377
1.73405
1.734
1.73371
1.73356
1.73377
1.73173
1.73417
1.73348
1.73399
1.7338
1.73334
1.73259
1.73352
1.7335
1.73371
1.7338
1.73329
1.73286
1.73327
1.73341
1.73364
1.73368
1.73331
1.73293
1.73313
1.73339
1.73317
1.73268
1.73311
1.7331
1.73372
1.7335
1.73319
1.733
1.73272
1.7331
1.7334
1.73341
1.73314
1.73298
1.73277
1.73311
1.73343
1.73345
1.73335
1.73325
1.73309
1.73264
1.7328
1.73299
1.7334
1.73338
1.73311
1.73263
1.73285
1.73305
1.7333
1.73331
1.73297
1.73282
1.73281
1.73299
1.73275
1.73342
1.73145
1.73281
1.73319
1.73328
1.73285
1.7328
1.73214
1.73265
1.73312
1.73308
1.73276
1.73258
1.73224
1.73264
1.73303
1.73301
1.73271
1.73255
1.73241
1.73218
1.7322
1.73272
1.73293
1.73343
1.7322
1.73193
1.73253
1.73266
1.73294
1.73302
1.73257
1.73215
1.73246
1.73263
1.73283
1.73284
1.73248
1.73214
1.73227
1.73252
1.73224
1.73267
1.73165
1.73241
1.73267
1.73276
1.73235
1.73226
1.73181
1.7323
1.73264
1.73263
1.73232
1.73214
1.73188
1.73226
1.73257
1.73256
1.73225
1.73206
1.73195
1.73186
1.73172
1.7323
1.73244
1.73295
1.73164
1.7314
1.73207
1.73217
1.73238
1.73245
1.73193
1.73151
1.73189
1.73207
1.73242
1.7325
1.73209
1.73191
1.73187
1.73208
1.73179
1.73234
1.73067
1.7319
1.73217
1.73237
1.73183
1.73181
1.73109
1.73162
1.73214
1.73209
1.73175
1.73157
1.7312
1.73159
1.73198
1.73199
1.73168
1.73147
1.73121
1.73154
1.73188
1.7319
1.73172
1.73144
1.73128
1.73126
1.73097
1.73133
1.73173
1.73184
1.73134
1.73094
1.73113
1.73138
1.73165
1.73162
1.7313
1.73089
1.73112
1.73132
1.73164
1.73162
1.73131
1.731
1.73114
1.73136
1.73111
1.73153
1.73054
1.73127
1.73144
1.73162
1.73116
1.73109
1.73061
1.73096
1.73144
1.73142
1.73107
1.73088
1.73055
1.73093
1.73131
1.73134
1.731
1.73079
1.73053
1.73097
1.73129
1.73128
1.73093
1.73066
1.73048
1.73066
1.73022
1.73083
1.73106
1.73159
1.73033
1.73008
1.73064
1.73075
1.73094
1.73102
1.73046
1.73002
1.73042
1.7306
1.73088
1.73088
1.73048
1.73007
1.73035
1.73056
1.73087
1.73086
1.73053
1.73024
1.73046
1.73071
1.73023
1.73023
1.72994
1.7304
1.73064
1.73075
1.73032
1.73011
1.72983
1.73013
1.73052
1.73057
1.73019
1.72997
1.7297
1.73006
1.73048
1.7305
1.73012
1.72988
1.72959
1.73003
1.73037
1.73038
1.73006
1.72977
1.72957
1.72984
1.72926
1.72981
1.73014
1.73051
1.72953
1.7292
1.72965
1.72978
1.73003
1.73006
1.72955
1.72913
1.72949
1.72968
1.72996
1.72994
1.72955
1.72916
1.72943
1.72964
1.72994
1.72992
1.72956
1.72924
1.7295
1.72978
1.72939
1.72913
1.72925
1.72941
1.72995
1.72986
1.72945
1.7292
1.72894
1.7292
1.72968
1.7297
1.72929
1.72905
1.72872
1.72911
1.72958
1.7296
1.7292
1.72894
1.72862
1.72901
1.72945
1.72946
1.7291
1.72887
1.72875
1.72847
1.72842
1.72908
1.7292
1.73007
1.72825
1.72814
1.72887
1.72894
1.72915
1.72926
1.72857
1.72811
1.72858
1.72878
1.72906
1.72906
1.72858
1.72813
1.72847
1.7287
1.72904
1.72906
1.7286
1.72841
1.72838
1.72864
1.72844
1.72918
1.72714
1.72867
1.72886
1.72919
1.72858
1.72862
1.72777
1.72823
1.7289
1.72881
1.72841
1.72822
1.72775
1.7281
1.72866
1.72866
1.72825
1.72801
1.72763
1.72806
1.72854
1.72855
1.72812
1.72783
1.72747
1.72801
1.72842
1.72841
1.728
1.7277
1.72758
1.72754
1.7272
1.72789
1.7281
1.72877
1.72722
1.727
1.72767
1.72778
1.728
1.7281
1.72743
1.7269
1.72737
1.72758
1.72788
1.72789
1.72733
1.72686
1.72723
1.72748
1.72779
1.72777
1.72728
1.72681
1.72715
1.72742
1.72773
1.72771
1.7273
1.72703
1.72723
1.72755
1.72712
1.72659
1.72706
1.72702
1.72781
1.72753
1.72708
1.7268
1.72651
1.72683
1.72737
1.72737
1.72694
1.72669
1.72636
1.72658
1.72716
1.72719
1.72676
1.7265
1.72613
1.72656
1.72705
1.72708
1.72668
1.72639
1.72607
1.72652
1.72693
1.72695
1.7266
1.72616
1.72593
1.7256
1.7263
1.72608
1.72678
1.72652
1.72635
1.72558
1.72607
1.72621
1.72647
1.72647
1.72587
1.72542
1.72582
1.72605
1.72635
1.72631
1.72575
1.7253
1.72567
1.72593
1.72626
1.72621
1.72573
1.72525
1.72558
1.72585
1.7262
1.7262
1.72576
1.72533
1.72547
1.72589
1.72529
1.72556
1.72472
1.72559
1.72586
1.726
1.72542
1.72523
1.7248
1.7251
1.72569
1.72571
1.72526
1.72501
1.72467
1.72489
1.72551
1.72555
1.72509
1.72482
1.72442
1.72484
1.72539
1.72542
1.72495
1.72466
1.72426
1.72487
1.72531
1.72531
1.72493
1.72454
1.72429
1.72446
1.72402
1.72455
1.72496
1.72534
1.72425
1.7239
1.72434
1.72455
1.72479
1.72478
1.72418
1.72372
1.72412
1.72436
1.7247
1.72469
1.72411
1.72347
1.72392
1.72421
1.72459
1.72456
1.72405
1.72353
1.72389
1.72417
1.72449
1.72449
1.72402
1.7234
1.72359
1.72402
1.72358
1.72412
1.72284
1.72382
1.72395
1.72429
1.72369
1.72357
1.72298
1.72329
1.72395
1.72396
1.72349
1.72324
1.72279
1.7231
1.72375
1.72378
1.72328
1.72297
1.72253
1.72296
1.72349
1.72357
1.72313
1.72281
1.72245
1.72295
1.72344
1.72345
1.72297
1.72258
1.72227
1.72265
1.72202
1.72279
1.72299
1.7238
1.72215
1.72194
1.72245
1.72262
1.72287
1.7229
1.72221
1.72177
1.7222
1.72242
1.72272
1.7227
1.72199
1.7215
1.72194
1.72222
1.72255
1.72251
1.72183
1.72134
1.72177
1.72208
1.72235
1.72227
1.72172
1.72113
1.72154
1.72187
1.72224
1.72222
1.72172
1.72116
1.72158
1.72197
1.72132
1.72094
1.72102
1.72114
1.72187
1.72181
1.72138
1.72104
1.72068
1.72092
1.72165
1.72169
1.72113
1.72082
1.72035
1.72072
1.72143
1.72147
1.72094
1.72061
1.72013
1.72063
1.72119
1.72127
1.72077
1.72044
1.72004
1.72052
1.72106
1.72109
1.72059
1.72017
1.71982
1.72004
1.71954
1.72027
1.72071
1.72125
1.71979
1.71934
1.72006
1.72023
1.72042
1.72044
1.71974
1.71912
1.71964
1.71993
1.72019
1.72014
1.71939
1.71883
1.71934
1.71965
1.72003
1.72
1.71933
1.71869
1.71917
1.71951
1.71985
1.71981
1.71924
1.71863
1.71897
1.71941
1.71895
1.71833
1.71874
1.7187
1.71971
1.71944
1.71893
1.71858
1.71811
1.71842
1.71922
1.71923
1.7187
1.71839
1.71793
1.71812
1.71893
1.71898
1.71842
1.71808
1.71758
1.71803
1.71873
1.71876
1.71818
1.71784
1.71731
1.71803
1.71859
1.7186
1.71803
1.71759
1.71725
1.71745
1.71696
1.71781
1.71806
1.71893
1.71693
1.71661
1.71744
1.71763
1.71785
1.71795
1.717
1.71636
1.71701
1.71731
1.71761
1.71763
1.71686
1.71608
1.71665
1.71699
1.71726
1.71721
1.71649
1.7158
1.71634
1.7167
1.71716
1.71717
1.71658
1.71586
1.71624
1.71677
1.71616
1.71554
1.7159
1.71586
1.71694
1.71671
1.71614
1.71573
1.71521
1.71559
1.71634
1.7164
1.71581
1.71548
1.71496
1.71531
1.71612
1.71617
1.71556
1.71518
1.71461
1.71515
1.71585
1.71591
1.71533
1.71498
1.71449
1.71503
1.71564
1.71567
1.71505
1.71455
1.71408
1.71448
1.71388
1.71469
1.71516
1.71584
1.7141
1.71349
1.71433
1.71456
1.71483
1.71492
1.71398
1.71324
1.71391
1.71424
1.71444
1.71439
1.71368
1.71294
1.7135
1.71384
1.71404
1.71391
1.71315
1.71253
1.71308
1.71344
1.71389
1.71385
1.71319
1.71261
1.71306
1.71359
1.71269
1.71208
1.71221
1.71255
1.71363
1.7134
1.71282
1.7124
1.71188
1.71231
1.71314
1.71316
1.71245
1.71207
1.71145
1.712
1.71283
1.71286
1.71222
1.71183
1.71127
1.71174
1.71243
1.71253
1.71192
1.71157
1.71107
1.7116
1.71227
1.71232
1.7118
1.71131
1.71097
1.71003
1.71127
1.711
1.71173
1.71138
1.71106
1.71001
1.71063
1.711
1.71133
1.71128
1.71047
1.70962
1.71025
1.71063
1.71095
1.71088
1.71016
1.70933
1.7099
1.71028
1.71053
1.7105
1.70985
1.70859
1.70929
1.71002
1.70915
1.70874
1.70882
1.70898
1.70996
1.70984
1.70926
1.70875
1.70822
1.70871
1.7095
1.70961
1.70896
1.70856
1.70799
1.70831
1.70926
1.70933
1.70863
1.70822
1.70756
1.70813
1.70889
1.709
1.70833
1.70791
1.70733
1.70797
1.70867
1.70872
1.70829
1.7079
1.70722
1.70633
1.70682
1.70724
1.70804
1.70792
1.70722
1.70629
1.70692
1.70735
1.70763
1.70752
1.70667
1.70579
1.70646
1.70688
1.7072
1.70711
1.70627
1.70546
1.70609
1.7065
1.70683
1.70681
1.70606
1.70517
1.70587
1.70635
1.70519
1.70457
1.70446
1.70496
1.70611
1.70582
1.70501
1.70441
1.70373
1.70427
1.70517
1.70534
1.70468
1.70426
1.7036
1.70417
1.70506
1.70516
1.70453
1.70408
1.70345
1.70412
1.70491
1.70495
1.70452
1.70398
1.70328
1.7026
1.70278
1.70339
1.70422
1.70434
1.70333
1.70244
1.703
1.70356
1.70383
1.70372
1.7028
1.70191
1.70258
1.70307
1.70338
1.70328
1.70236
1.70155
1.70222
1.70266
1.70301
1.70297
1.70216
1.70128
1.70208
1.70251
1.70126
1.70081
1.70023
1.70118
1.70198
1.7021
1.70132
1.70085
1.70016
1.70052
1.70152
1.70161
1.70063
1.70021
1.69936
1.70001
1.70091
1.70097
1.70013
1.6997
1.69896
1.69876
1.69981
1.70009
1.69957
1.69902
1.69804
1.69759
1.69815
1.69867
1.69958
1.69943
1.69849
1.69764
1.69835
1.69887
1.69928
1.69916
1.69822
1.69714
1.69793
1.69846
1.69887
1.69882
1.6979
1.69704
1.69775
1.69842
1.69702
1.69703
1.6958
1.69726
1.6978
1.69811
1.69712
1.69665
1.69584
1.69641
1.69732
1.69748
1.69658
1.69611
1.69529
1.69585
1.69684
1.69696
1.69612
1.69567
1.69494
1.69532
1.6963
1.6964
1.69584
1.69535
1.69443
1.69366
1.69381
1.69449
1.69519
1.6954
1.69408
1.69305
1.6938
1.69437
1.69445
1.69445
1.69333
1.69199
1.69286
1.69339
1.69352
1.69328
1.69211
1.69121
1.69203
1.69297
1.69172
1.6917
1.69037
1.69195
1.69274
1.69298
1.69209
1.6916
1.69059
1.69141
1.69249
1.69259
1.6917
1.69117
1.69032
1.69097
1.69202
1.6921
1.69134
1.69062
1.6899
1.68944
1.68953
1.69032
1.69107
1.69121
1.68992
1.68878
1.68951
1.69023
1.69045
1.69039
1.6893
1.68806
1.6889
1.68945
1.68976
1.68967
1.68856
1.68741
1.68826
1.68877
1.689
1.68895
1.68792
1.68692
1.6878
1.68838
1.68669
1.68622
1.68561
1.68643
1.68742
1.68756
1.6865
1.68599
1.6851
1.68537
1.6864
1.68651
1.68499
1.68414
1.68276
1.68413
1.68529
1.68556
1.68517
1.68467
1.68337
1.68269
1.68328
1.68405
1.68497
1.6848
1.68368
1.68259
1.68348
1.68414
1.68459
1.68448
1.68331
1.68231
1.68325
1.68399
1.6824
1.68148
1.68119
1.68202
1.68344
1.68327
1.68227
1.68152
1.68059
1.68136
1.68262
1.6827
1.68167
1.68108
1.68008
1.68065
1.68185
1.68191
1.6812
1.68054
1.67937
1.67838
1.67859
1.67939
1.68023
1.68036
1.67882
1.67747
1.67841
1.67912
1.67938
1.67936
1.67797
1.6765
1.67755
1.67811
1.67804
1.67793
1.6767
1.67507
1.67633
1.67704
1.67448
1.67329
1.67199
1.67413
1.67535
1.67574
1.67494
1.6743
1.67322
1.67449
1.67578
1.67591
1.67537
1.6745
1.67329
1.67233
1.67273
1.67369
1.67464
1.67471
1.67314
1.67178
1.6728
1.6736
1.67405
1.67393
1.67246
1.67111
1.67223
1.67291
1.67318
1.67311
1.67172
1.67061
1.6717
1.67245
1.6703
1.66974
1.66871
1.67005
1.67129
1.67151
1.67036
1.66969
1.66863
1.66894
1.67037
1.6705
1.66953
1.66879
1.66746
1.66542
1.6663
1.66708
1.6682
1.66801
1.66665
1.66501
1.66624
1.66689
1.66617
1.6659
1.66442
1.66079
1.66318
1.66454
1.66275
1.66173
1.66028
1.66253
1.66417
1.66447
1.66365
1.66282
1.6616
1.66271
1.66427
1.66442
1.66372
1.66244
1.66101
1.65945
1.66136
1.66146
1.66294
1.66253
1.66136
1.65928
1.66076
1.66145
1.66201
1.66177
1.66019
1.65846
1.65987
1.66057
1.66092
1.66083
1.65933
1.65755
1.65906
1.65988
1.65753
1.65671
1.65574
1.65691
1.65834
1.65847
1.65789
1.65661
1.65563
1.65268
1.6551
1.65481
1.6558
1.6554
1.65413
1.65179
1.6534
1.65396
1.65327
1.65295
1.65159
1.64676
1.64974
1.65131
1.64898
1.64744
1.64584
1.64869
1.65063
1.65104
1.65016
1.6492
1.64778
1.64883
1.65073
1.651
1.65025
1.64925
1.64727
1.64515
1.64687
1.64762
1.64933
1.64888
1.64736
1.64507
1.64687
1.64772
1.64813
1.64802
1.64627
1.64426
1.64609
1.64707
1.64404
1.64301
1.64201
1.64347
1.6452
1.64545
1.64385
1.64281
1.64131
1.6419
1.64378
1.64392
1.64249
1.64157
1.63992
1.63689
1.63819
1.63908
1.63962
1.63922
1.63749
1.63641
1.63801
1.63862
1.63315
1.63198
1.62686
1.63075
1.63363
1.63457
1.63349
1.6324
1.62993
1.63243
1.63493
1.63541
1.63476
1.63377
1.6309
1.62921
1.63071
1.63231
1.63378
1.63325
1.63108
1.62914
1.63202
1.63301
1.62972
1.62779
1.62727
1.62839
1.631
1.63129
1.62943
1.62803
1.62617
1.62716
1.62952
1.62968
1.62816
1.62688
1.62471
1.6218
1.62322
1.62449
1.62542
1.62512
1.62303
1.62088
1.62287
1.62415
1.61976
1.61872
1.61711
1.61673
1.61859
1.61932
1.61639
1.6138
1.60913
1.60827
1.61089
1.61305
1.61622
1.61558
1.6128
1.61158
1.61371
1.61512
1.61654
1.61609
1.61345
1.61165
1.61458
1.61579
1.61245
1.61071
1.60893
1.61091
1.61335
1.61389
1.61299
1.61165
1.60899
1.60566
1.60719
1.60904
1.61017
1.60966
1.60723
1.60503
1.60738
1.60896
1.60439
1.6029
1.60126
1.60209
1.60441
1.60511
1.60293
1.60165
1.59863
1.59329
1.59538
1.59751
1.59506
1.59255
1.5883
1.58545
1.59023
1.59334
1.59086
1.58895
1.5856
1.59095
1.59374
1.59472
1.59445
1.59317
1.589
1.58727
1.58884
1.59147
1.59316
1.59254
1.58949
1.58689
1.59025
1.59214
1.58744
1.58578
1.58348
1.5855
1.58814
1.58895
1.5872
1.58536
1.58209
1.57846
1.57986
1.58203
1.58275
1.58212
1.57874
1.57604
1.57875
1.58074
1.57341
1.57159
1.56805
1.55993
1.56585
1.56946
1.56765
1.56382
1.55817
1.55968
1.56323
1.56551
1.57068
1.5697
1.56629
1.56489
1.56912
1.57065
1.56931
1.56671
1.56299
1.55907
1.56302
1.5647
1.56681
1.56561
1.56205
1.55872
1.5628
1.56485
1.55899
1.55616
1.55439
1.55506
1.55877
1.55975
1.55745
1.55474
1.55112
1.54307
1.5466
1.54912
1.54424
1.54001
1.53328
1.53059
1.53756