/*--------------------------------*- C++ -*----------------------------------*\
| =========                 |                                                 |
| \\      /  F ield         | OpenFOAM: The Open Source CFD Toolbox           |
|  \\    /   O peration     | Version:  v2006                                 |
|   \\  /    A nd           | Website:  www.openfoam.com                      |
|    \\/     M anipulation  |                                                 |
\*---------------------------------------------------------------------------*/
FoamFile
{
    version     2.0;
    format      ascii;
    class       volScalarField;
    location    "0.035";
    object      turbulenceProperties:L;
}
// * * * * * * * * * * * * * * * * * * * * * * * * * * * * * * * * * * * * * //

dimensions      [0 1 0 0 0 0 0];


internalField   nonuniform List<scalar> 
23013
(
1999.18
1999.15
1999.45
1999.54
1999.7
1999.64
1999.7
1999.64
1999.46
1999.07
1998.52
1997.92
1997.35
1996.87
1996.46
1996.09
1995.75
1995.43
1995.11
1994.8
1994.49
1994.19
1993.9
1993.62
1993.34
1993.06
1992.8
1992.53
1992.27
1992.01
1991.75
1991.49
1991.24
1990.98
1990.73
1990.48
1990.24
1989.99
1989.75
1989.51
1989.27
1989.04
1988.81
1988.58
1988.36
1988.14
1987.92
1987.71
1987.5
1987.3
1987.1
1986.91
1986.73
1986.55
1986.37
1986.2
1986.04
1985.89
1985.74
1985.6
1985.47
1985.35
1985.23
1985.12
1985.03
1984.94
1984.86
1984.79
1984.73
1984.69
1984.65
1984.63
1984.62
1984.62
1984.63
1984.66
1984.7
1984.76
1984.83
1984.91
1985.01
1985.12
1985.26
1985.4
1985.56
1985.74
1985.92
1986.09
1986.22
1986.22
1985.86
1984.63
1981.24
1972.48
1950.45
1903.44
1809.16
1636.62
1363.4
1015.26
671.511
403.421
226.854
123.241
66.1028
35.3087
19.0904
11.0719
8.36107
5.65352
4.37297
3.45172
2.0674
1.38562
0.801986
0.627131
0.706482
0.284689
0.0948922
0.0240426
0.00287146
0.000531177
3.97216e-05
3.74908e-05
0.000257942
0.00113607
0.000593917
0.000166866
3.51315e-05
3.34367e-05
0.000159058
0.00053009
0.00041468
0.000137709
3.25102e-05
3.15389e-05
0.00013667
0.000402847
0.000355426
0.000126119
3.07979e-05
3.03116e-05
0.000128515
0.000355295
0.000331385
0.000121853
2.99402e-05
2.97784e-05
0.000126692
0.000335939
0.000319118
0.000120954
2.95646e-05
2.94578e-05
0.000124808
0.00032366
0.000310291
0.000119533
2.9276e-05
2.9202e-05
0.000123225
0.000315042
0.000302771
0.000118159
2.90428e-05
2.89882e-05
0.000121635
0.000307428
0.000295901
0.000116728
2.88452e-05
2.87999e-05
0.000120043
0.000300447
0.000289513
0.000115288
2.86694e-05
2.86296e-05
0.000118492
0.00029398
0.000283582
0.000113889
2.85068e-05
2.84707e-05
0.000117022
0.000288036
0.000278164
0.000112579
2.8353e-05
2.83198e-05
0.000115659
0.000282633
0.000273233
0.00011136
2.82058e-05
2.81747e-05
0.000114394
0.000277716
0.000268734
0.000110224
2.80632e-05
2.80339e-05
0.000113218
0.00027323
0.00026462
0.000109165
2.7924e-05
2.7896e-05
0.000112125
0.000269128
0.000260852
0.000108179
2.7787e-05
2.77601e-05
0.000111108
0.000265363
0.00025739
0.000107259
2.76516e-05
2.76256e-05
0.000110158
0.000261891
0.000254174
0.000106395
2.75172e-05
2.74919e-05
0.000109267
0.000258657
0.000251163
0.000105579
2.73831e-05
2.73583e-05
0.000108423
0.000255618
0.000248315
0.000104792
2.72534e-05
2.72351e-05
0.000107597
0.000252725
0.000245574
0.000104008
2.7148e-05
2.71359e-05
0.000106758
0.000249918
0.000242893
0.000103212
2.70571e-05
2.70458e-05
0.000105908
0.000247158
0.00024025
0.000102411
2.6968e-05
2.69565e-05
0.000105065
0.000244437
0.000237645
0.000101624
2.6878e-05
2.68662e-05
0.000104244
0.000241764
0.000235094
0.000100861
2.67866e-05
2.67743e-05
0.000103452
0.000239156
0.000232612
0.000100128
2.66934e-05
2.66807e-05
0.000102693
0.000236624
0.000230205
9.94248e-05
2.65984e-05
2.65853e-05
0.000101966
0.000234173
0.000227877
9.87517e-05
2.65014e-05
2.64879e-05
0.000101271
0.000231804
0.000225624
9.81061e-05
2.64024e-05
2.63885e-05
0.000100605
0.000229511
0.000223444
9.74868e-05
2.63011e-05
2.62868e-05
9.99667e-05
0.000227295
0.000221338
9.68932e-05
2.61974e-05
2.61827e-05
9.93559e-05
0.000225155
0.000219306
9.63252e-05
2.60912e-05
2.60761e-05
9.87725e-05
0.000223093
0.000217351
9.57834e-05
2.59827e-05
2.59673e-05
9.82176e-05
0.000221112
0.000215476
9.52692e-05
2.58719e-05
2.58564e-05
9.76927e-05
0.000219218
0.00021369
9.47851e-05
2.57592e-05
2.57438e-05
9.72006e-05
0.00021742
0.000212002
9.43339e-05
2.5645e-05
2.563e-05
9.67445e-05
0.00021573
0.000210427
9.39198e-05
2.553e-05
2.55158e-05
9.63289e-05
0.000214164
0.00020898
9.3548e-05
2.54153e-05
2.54024e-05
9.59598e-05
0.00021274
0.000207682
9.32253e-05
2.53021e-05
2.52913e-05
9.56441e-05
0.00021148
0.000206557
9.2959e-05
2.51921e-05
2.51843e-05
9.53899e-05
0.000210413
0.000205633
9.27583e-05
2.50876e-05
2.50838e-05
9.52075e-05
0.00020957
0.000204946
9.26356e-05
2.49916e-05
2.49928e-05
9.51108e-05
0.000208995
0.000204547
9.2607e-05
2.49086e-05
2.4915e-05
9.51163e-05
0.000208741
0.000204487
9.26883e-05
2.48411e-05
2.48542e-05
9.52394e-05
0.000208888
0.000204824
9.28964e-05
2.47939e-05
2.48147e-05
9.54937e-05
0.000209538
0.000205584
9.3229e-05
2.47711e-05
2.48002e-05
9.58713e-05
0.000210588
0.000206751
9.36853e-05
2.47714e-05
2.48156e-05
9.63857e-05
0.000212114
0.000208429
9.43108e-05
2.47993e-05
2.48723e-05
9.70915e-05
0.000214237
0.000210688
9.51016e-05
2.48668e-05
2.49631e-05
9.7941e-05
0.000216893
0.000213447
9.59943e-05
2.49697e-05
2.50851e-05
9.88704e-05
0.000219945
0.000216532
9.69579e-05
2.51045e-05
2.52368e-05
9.98591e-05
0.000223257
0.000219911
9.78613e-05
2.52684e-05
2.54137e-05
0.000100791
0.000226809
0.000223448
9.86813e-05
2.54555e-05
2.56088e-05
0.000101622
0.000230376
0.000226912
9.93837e-05
2.56576e-05
2.58139e-05
0.000102335
0.000233743
0.000230115
9.99652e-05
2.58671e-05
2.60226e-05
0.000102917
0.000236777
0.000232937
0.000100419
2.6078e-05
2.62297e-05
0.000103362
0.000239399
0.000235342
0.000100744
2.62853e-05
2.64311e-05
0.000103678
0.000241711
0.000237345
0.000100956
2.64855e-05
2.66235e-05
0.000103869
0.000243631
0.000238874
0.000101066
2.66756e-05
2.68051e-05
0.000103955
0.000245001
0.000239861
0.000101032
2.68545e-05
2.6975e-05
0.000103867
0.000245796
0.000240308
0.00010085
2.7021e-05
2.7132e-05
0.000103633
0.000246043
0.000240262
0.000100554
2.7174e-05
2.72745e-05
0.000103294
0.000245807
0.000239739
0.000100167
2.73164e-05
2.74267e-05
0.000102861
0.000245146
0.000238789
9.97007e-05
2.74778e-05
2.75983e-05
0.000102361
0.000244118
0.000237541
9.91727e-05
2.765e-05
2.77673e-05
0.000101798
0.000242786
0.000235987
9.85715e-05
2.78158e-05
2.7924e-05
0.000101157
0.00024114
0.000234157
9.79099e-05
2.79673e-05
2.8064e-05
0.000100473
0.000239198
0.000232081
9.72456e-05
2.81014e-05
2.8186e-05
9.97796e-05
0.000236992
0.000229794
9.6585e-05
2.82171e-05
2.82897e-05
9.90813e-05
0.000234559
0.000227324
9.59334e-05
2.83144e-05
2.83753e-05
9.83849e-05
0.000231929
0.000224709
9.52963e-05
2.83937e-05
2.84433e-05
9.76973e-05
0.000229143
0.000221993
9.46803e-05
2.84556e-05
2.84944e-05
9.70281e-05
0.000226268
0.00021924
9.40948e-05
2.85009e-05
2.85295e-05
9.63884e-05
0.000223358
0.000216503
9.35501e-05
2.85307e-05
2.85493e-05
9.57915e-05
0.000220475
0.000213838
9.30549e-05
2.85466e-05
2.85569e-05
9.5247e-05
0.000217678
0.000211285
9.25837e-05
2.8551e-05
2.85555e-05
9.47455e-05
0.000215002
0.000208872
9.21603e-05
2.85441e-05
2.85467e-05
9.43048e-05
0.000212485
0.000206631
9.1795e-05
2.85296e-05
2.8531e-05
9.39186e-05
0.000210155
0.00020457
9.14804e-05
2.85096e-05
2.85102e-05
9.35875e-05
0.000208021
0.000202678
9.12119e-05
2.84857e-05
2.84859e-05
9.33034e-05
0.000206081
0.000200955
9.09813e-05
2.84593e-05
2.84595e-05
9.30582e-05
0.000204321
0.000199389
9.07743e-05
2.84314e-05
2.84317e-05
9.28458e-05
0.00020272
0.000197932
9.05935e-05
2.84028e-05
2.84034e-05
9.26576e-05
0.000201249
0.000196573
9.04311e-05
2.83741e-05
2.83751e-05
9.24863e-05
0.000199893
0.000195323
9.02809e-05
2.83457e-05
2.83471e-05
9.23263e-05
0.000198645
0.00019417
9.01383e-05
2.83177e-05
2.83196e-05
9.21736e-05
0.000197487
0.000193095
9.00006e-05
2.82903e-05
2.82926e-05
9.20261e-05
0.000196406
0.000192085
8.98662e-05
2.82634e-05
2.82661e-05
9.18818e-05
0.000195391
0.000191127
8.97331e-05
2.8237e-05
2.824e-05
9.17383e-05
0.000194425
0.000190213
8.95993e-05
2.8211e-05
2.82144e-05
9.15939e-05
0.000193499
0.000189334
8.94633e-05
2.81856e-05
2.81893e-05
9.14472e-05
0.000192606
0.000188484
8.93244e-05
2.81605e-05
2.81645e-05
9.12975e-05
0.000191741
0.000187658
8.9182e-05
2.81358e-05
2.814e-05
9.11444e-05
0.000190899
0.000186856
8.90363e-05
2.81114e-05
2.81158e-05
9.09882e-05
0.000190077
0.000186071
8.88872e-05
2.80873e-05
2.80918e-05
9.08289e-05
0.000189271
0.000185301
8.87352e-05
2.80634e-05
2.80681e-05
9.06669e-05
0.00018848
0.000184544
8.85806e-05
2.80397e-05
2.80447e-05
9.05033e-05
0.000187703
0.0001838
8.84234e-05
2.80163e-05
2.80214e-05
9.03371e-05
0.000186939
0.000183068
8.82637e-05
2.79931e-05
2.79984e-05
9.01682e-05
0.000186184
0.000182344
8.81014e-05
2.79701e-05
2.79754e-05
8.9997e-05
0.000185438
0.000181627
8.79376e-05
2.79472e-05
2.79527e-05
8.98248e-05
0.0001847
0.000180921
8.77737e-05
2.79245e-05
2.79302e-05
8.96533e-05
0.000183976
0.00018022
8.76123e-05
2.79022e-05
2.79082e-05
8.94935e-05
0.000183297
0.000179264
8.73323e-05
2.78735e-05
2.78915e-05
8.91281e-05
0.000182658
0.000178515
8.7496e-05
2.79377e-05
2.82296e-05
9.04224e-05
0.000184809
0.000180543
8.94436e-05
2.85961e-05
2.98276e-05
9.35143e-05
0.000192891
0.000208373
9.96667e-05
3.13176e-05
3.25678e-05
9.96963e-05
0.00020782
0.000217552
0.000104799
3.33849e-05
3.4336e-05
0.000105553
0.000220312
0.000555022
0.00104494
0.00156339
0.0018936
0.00263488
0.00306074
0.00340525
0.00352811
0.00348333
0.0033161
0.00296439
0.00259761
0.00193275
0.00165242
0.00123203
0.000900926
0.000817898
0.000503441
0.000250531
0.00010437
4.84334e-05
1.3257e-05
1.258e-05
4.75383e-05
0.000101674
9.35537e-05
4.39939e-05
1.17886e-05
1.12534e-05
4.31837e-05
9.15783e-05
9.17019e-05
4.30574e-05
1.11207e-05
1.08273e-05
4.16799e-05
8.82532e-05
8.91957e-05
4.18317e-05
1.06448e-05
1.0494e-05
4.09664e-05
8.68645e-05
8.73708e-05
4.11221e-05
1.0431e-05
1.03007e-05
4.04523e-05
8.57067e-05
8.67231e-05
4.07871e-05
1.02998e-05
1.03131e-05
4.06149e-05
8.60981e-05
8.71512e-05
4.07721e-05
1.03127e-05
1.03149e-05
4.04259e-05
8.58372e-05
8.69079e-05
4.07243e-05
1.03196e-05
1.03208e-05
4.06045e-05
8.59911e-05
8.74874e-05
4.08308e-05
1.03255e-05
1.03269e-05
4.04767e-05
8.60852e-05
8.71514e-05
4.07746e-05
1.03319e-05
1.03332e-05
4.06548e-05
8.6229e-05
8.77334e-05
4.0882e-05
1.0338e-05
1.03395e-05
4.05278e-05
8.63242e-05
8.73979e-05
4.08265e-05
1.03445e-05
1.03459e-05
4.07067e-05
8.6471e-05
8.79855e-05
4.09347e-05
1.03508e-05
1.03524e-05
4.05804e-05
8.65695e-05
8.76517e-05
4.08802e-05
1.03576e-05
1.03591e-05
4.07606e-05
8.67211e-05
8.82471e-05
4.09897e-05
1.03641e-05
1.03659e-05
4.06356e-05
8.68244e-05
8.79158e-05
4.09367e-05
1.03711e-05
1.03727e-05
4.08173e-05
8.69815e-05
8.85195e-05
4.10476e-05
1.03779e-05
1.03798e-05
4.06938e-05
8.709e-05
8.81907e-05
4.09963e-05
1.03851e-05
1.03868e-05
4.08773e-05
8.72529e-05
8.88027e-05
4.11087e-05
1.03921e-05
1.03941e-05
4.07552e-05
8.73659e-05
8.8476e-05
4.10592e-05
1.03995e-05
1.04013e-05
4.09405e-05
8.75345e-05
8.90958e-05
4.11731e-05
1.04067e-05
1.04087e-05
4.08198e-05
8.76511e-05
8.87705e-05
4.11252e-05
1.04142e-05
1.0416e-05
4.10068e-05
8.78253e-05
8.93981e-05
4.12405e-05
1.04215e-05
1.04236e-05
4.08873e-05
8.79454e-05
8.90742e-05
4.11941e-05
1.04291e-05
1.0431e-05
4.1076e-05
8.81248e-05
8.97092e-05
4.13109e-05
1.04365e-05
1.04386e-05
4.09579e-05
8.8248e-05
8.93873e-05
4.12662e-05
1.04442e-05
1.04461e-05
4.11485e-05
8.84322e-05
9.00298e-05
4.13846e-05
1.04517e-05
1.04539e-05
4.10319e-05
8.85596e-05
8.97091e-05
4.13416e-05
1.04595e-05
1.04615e-05
4.12243e-05
8.8745e-05
9.03573e-05
4.14618e-05
1.04671e-05
1.04694e-05
4.11094e-05
8.88752e-05
9.0035e-05
4.14209e-05
1.0475e-05
1.0477e-05
4.1304e-05
8.90644e-05
9.06869e-05
4.15428e-05
1.04826e-05
1.04849e-05
4.11906e-05
8.9194e-05
9.03609e-05
4.15037e-05
1.04905e-05
1.04925e-05
4.13872e-05
8.93826e-05
9.10143e-05
4.16272e-05
1.04981e-05
1.05003e-05
4.1274e-05
8.95118e-05
9.06851e-05
4.15883e-05
1.05059e-05
1.05078e-05
4.14721e-05
8.9699e-05
9.13387e-05
4.17129e-05
1.05133e-05
1.05155e-05
4.13583e-05
8.98257e-05
9.10038e-05
4.16735e-05
1.05209e-05
1.05227e-05
4.15574e-05
9.00082e-05
9.16543e-05
4.17985e-05
1.0528e-05
1.05301e-05
4.14418e-05
9.01293e-05
9.13101e-05
4.17574e-05
1.05353e-05
1.05369e-05
4.16411e-05
9.03022e-05
9.19525e-05
4.18818e-05
1.0542e-05
1.05438e-05
4.15222e-05
9.04135e-05
9.15937e-05
4.18372e-05
1.05487e-05
1.05501e-05
4.17206e-05
9.05717e-05
9.22216e-05
4.19596e-05
1.05548e-05
1.05562e-05
4.15961e-05
9.06658e-05
9.18414e-05
4.19095e-05
1.05607e-05
1.05617e-05
4.1792e-05
9.08027e-05
9.24462e-05
4.2028e-05
1.05659e-05
1.05669e-05
4.16589e-05
9.08703e-05
9.20357e-05
4.19692e-05
1.05707e-05
1.05712e-05
4.18506e-05
9.09758e-05
9.26055e-05
4.20813e-05
1.05745e-05
1.05748e-05
4.17042e-05
9.10034e-05
9.21496e-05
4.2009e-05
1.05778e-05
1.05772e-05
4.18884e-05
9.10622e-05
9.26676e-05
4.21104e-05
1.05796e-05
1.05786e-05
4.1721e-05
9.10368e-05
9.21537e-05
4.20159e-05
1.05807e-05
1.05784e-05
4.18914e-05
9.10324e-05
9.26005e-05
4.20984e-05
1.05796e-05
1.05764e-05
4.16898e-05
9.09331e-05
9.20091e-05
4.19678e-05
1.05772e-05
1.05723e-05
4.18353e-05
9.08469e-05
9.23639e-05
4.20182e-05
1.05719e-05
1.05657e-05
4.15799e-05
9.06462e-05
9.16669e-05
4.18304e-05
1.05649e-05
1.0556e-05
4.16826e-05
9.04496e-05
9.18993e-05
4.18285e-05
1.05539e-05
1.05437e-05
4.13412e-05
9.01188e-05
9.10649e-05
4.1547e-05
1.05412e-05
1.0527e-05
4.13704e-05
8.97737e-05
9.11337e-05
4.14635e-05
1.05218e-05
1.05055e-05
4.091e-05
8.92406e-05
9.0121e-05
4.10711e-05
1.04994e-05
1.04772e-05
4.08167e-05
8.87019e-05
8.99887e-05
4.08481e-05
1.04673e-05
1.04425e-05
4.01993e-05
8.79534e-05
8.87643e-05
4.03049e-05
1.04315e-05
1.03993e-05
3.99198e-05
8.71872e-05
8.84079e-05
3.98911e-05
1.0384e-05
1.03491e-05
3.91153e-05
8.62058e-05
8.69601e-05
3.91468e-05
1.03328e-05
1.0292e-05
3.86148e-05
8.52206e-05
8.64054e-05
3.85146e-05
1.02728e-05
1.02344e-05
3.7618e-05
8.40583e-05
8.48037e-05
3.75695e-05
1.0218e-05
1.01868e-05
3.69166e-05
8.2962e-05
8.41899e-05
3.67485e-05
1.01764e-05
1.01648e-05
3.57985e-05
8.17713e-05
8.25815e-05
3.57146e-05
1.01641e-05
1.01627e-05
3.50229e-05
8.0674e-05
8.21492e-05
3.48715e-05
1.01806e-05
1.01976e-05
3.40069e-05
7.97142e-05
8.06535e-05
3.39668e-05
1.02368e-05
1.02723e-05
3.33078e-05
7.87146e-05
8.04758e-05
3.3351e-05
1.03332e-05
1.03955e-05
3.26008e-05
7.80691e-05
7.92985e-05
3.2695e-05
1.04824e-05
1.05719e-05
3.21414e-05
7.75191e-05
7.94822e-05
3.24475e-05
1.06865e-05
1.08069e-05
3.18554e-05
7.72918e-05
7.84908e-05
3.24216e-05
1.08551e-05
1.09743e-05
3.17542e-05
7.73766e-05
7.89403e-05
3.2822e-05
1.11091e-05
1.12382e-05
3.20884e-05
7.72174e-05
7.80627e-05
3.35534e-05
1.14376e-05
1.16258e-05
3.3329e-05
7.64438e-05
7.73227e-05
3.48731e-05
1.18602e-05
1.22554e-05
3.51327e-05
7.59111e-05
7.82841e-05
3.87496e-05
1.31775e-05
8.73829e-06
4.07134e-05
7.93816e-05
3.21808e-05
1.33455e-05
4.76063e-06
6.70914e-06
2.63901e-05
6.74152e-05
6.12525e-05
2.44393e-05
7.59527e-06
8.18999e-06
2.67677e-05
6.80972e-05
6.67317e-05
2.65955e-05
8.42758e-06
8.68351e-06
2.6837e-05
7.05542e-05
7.04851e-05
2.78886e-05
9.01499e-06
9.35775e-06
2.78225e-05
7.31057e-05
7.43517e-05
2.90395e-05
9.72597e-06
1.01698e-05
2.93377e-05
7.72698e-05
7.77245e-05
3.0897e-05
1.06474e-05
1.101e-05
3.10664e-05
7.97643e-05
8.14816e-05
3.30426e-05
1.14693e-05
1.18365e-05
3.32245e-05
8.22797e-05
8.35462e-05
3.46224e-05
1.21947e-05
1.27285e-05
3.59232e-05
8.4204e-05
8.49371e-05
3.78124e-05
1.34487e-05
1.42912e-05
4.08141e-05
8.67853e-05
8.59369e-05
4.17542e-05
9.3122e-06
5.31821e-06
1.27742e-05
3.18491e-05
7.11855e-05
2.66787e-05
7.55627e-06
8.359e-06
2.4151e-05
6.46824e-05
6.75805e-05
2.51039e-05
8.62256e-06
8.94324e-06
2.44546e-05
6.51909e-05
6.87708e-05
2.66174e-05
9.35793e-06
9.82638e-06
2.64377e-05
6.80355e-05
7.20201e-05
2.92965e-05
1.04159e-05
1.09818e-05
2.93239e-05
7.14545e-05
7.54354e-05
3.33863e-05
1.18158e-05
1.31789e-05
3.56867e-05
7.65932e-05
8.03174e-05
3.87563e-05
8.91079e-06
5.40674e-06
1.19066e-05
2.969e-05
7.01381e-05
2.67042e-05
7.69505e-06
9.11695e-06
2.42336e-05
6.61512e-05
7.74035e-05
2.97008e-05
1.01321e-05
1.09036e-05
2.93228e-05
7.72843e-05
8.3844e-05
3.39121e-05
1.16741e-05
1.24372e-05
3.40386e-05
8.4182e-05
8.83717e-05
3.79626e-05
1.34743e-05
1.45999e-05
4.09513e-05
9.03233e-05
8.99018e-05
4.25119e-05
9.7094e-06
5.93477e-06
1.27351e-05
3.18934e-05
7.39987e-05
2.81404e-05
8.43764e-06
9.55215e-06
2.61565e-05
6.99677e-05
7.55472e-05
2.91976e-05
1.01007e-05
1.08302e-05
2.94497e-05
7.32021e-05
7.79658e-05
3.37798e-05
1.17919e-05
1.30607e-05
3.59681e-05
7.95691e-05
8.39525e-05
3.94741e-05
8.86079e-06
5.56309e-06
1.19409e-05
3.00215e-05
7.24491e-05
2.69321e-05
8.13388e-06
9.93606e-06
2.64359e-05
7.09834e-05
8.49279e-05
3.47688e-05
1.12607e-05
1.25872e-05
3.51849e-05
8.62497e-05
9.26992e-05
4.23125e-05
1.39492e-05
9.34586e-06
4.17993e-05
9.05422e-05
3.11105e-05
1.22876e-05
5.72919e-06
8.05271e-06
2.87225e-05
7.52202e-05
7.05692e-05
2.60328e-05
9.42918e-06
1.04819e-05
3.07754e-05
7.8547e-05
8.23809e-05
3.38258e-05
1.17803e-05
1.36281e-05
4.09084e-05
9.03349e-05
9.23668e-05
4.31444e-05
9.59684e-06
6.21277e-06
1.33482e-05
3.31641e-05
8.03271e-05
3.15358e-05
9.09158e-06
1.13837e-05
3.26638e-05
8.26099e-05
9.82706e-05
4.34427e-05
1.35248e-05
9.37468e-06
4.32923e-05
9.48372e-05
3.32774e-05
1.28528e-05
5.82953e-06
8.5858e-06
3.23047e-05
8.14696e-05
8.0498e-05
3.12214e-05
1.04813e-05
1.24771e-05
4.00989e-05
9.48618e-05
9.5882e-05
4.47192e-05
8.92398e-06
5.72411e-06
1.33016e-05
3.48306e-05
8.93376e-05
3.28192e-05
8.90112e-06
1.15346e-05
3.65863e-05
9.45033e-05
0.000116261
5.20853e-05
1.38548e-05
9.99094e-06
5.04197e-05
0.000110078
4.07064e-05
1.54206e-05
6.44914e-06
9.89021e-06
4.21025e-05
0.000101742
0.000106116
4.38536e-05
1.3092e-05
9.9189e-06
5.65885e-05
0.000116397
4.57604e-05
1.66408e-05
6.55442e-06
1.08136e-05
5.14907e-05
0.000119213
0.000116929
5.11744e-05
8.56907e-06
5.66321e-06
1.51562e-05
4.53181e-05
0.000128462
4.99598e-05
9.76884e-06
1.40804e-05
5.37351e-05
0.000142561
0.000162656
7.82606e-05
1.14765e-05
8.20031e-06
2.46172e-05
6.86556e-05
0.000151495
7.15085e-05
7.85952e-06
5.84919e-06
1.98806e-05
6.41606e-05
0.000204416
7.29599e-05
1.25016e-05
1.20397e-05
9.21095e-05
0.00022938
0.00012262
4.34606e-05
1.17027e-05
1.62241e-05
0.000149353
0.000496016
0.000287439
9.80866e-05
1.14015e-05
8.84384e-06
8.41446e-05
0.000248072
0.000240256
8.14229e-05
8.83685e-06
1.0055e-05
8.58701e-05
0.000248087
0.000276113
9.74934e-05
1.21404e-05
1.64741e-05
0.000169559
0.000433926
0.000112241
3.94762e-05
1.24738e-05
1.10706e-05
9.38143e-05
0.000216528
7.63101e-05
3.07386e-05
9.71956e-06
1.02357e-05
8.03746e-05
0.000159021
6.76928e-05
2.632e-05
9.98017e-06
1.157e-05
6.5712e-05
0.000140657
0.00012502
5.16029e-05
1.26238e-05
6.6439e-06
1.55495e-05
4.29639e-05
9.13708e-05
6.01301e-05
8.01599e-06
8.41354e-06
2.00352e-05
4.73102e-05
0.000105268
5.05521e-05
1.06924e-05
1.24004e-05
4.2735e-05
9.66453e-05
3.77606e-05
1.53863e-05
6.86711e-06
8.85723e-06
4.21349e-05
8.60849e-05
8.25217e-05
3.83875e-05
1.09949e-05
6.40101e-06
1.41855e-05
3.3948e-05
7.86548e-05
3.92692e-05
8.27019e-06
1.02994e-05
3.55949e-05
7.47883e-05
3.08465e-05
1.30496e-05
6.16077e-06
7.90104e-06
3.53578e-05
7.04408e-05
6.70799e-05
3.23933e-05
9.78206e-06
5.57203e-06
1.13835e-05
2.71426e-05
5.88047e-05
4.22366e-05
6.79245e-06
7.9096e-06
1.5444e-05
3.33273e-05
7.55645e-05
4.14642e-05
1.01157e-05
1.2974e-05
3.29592e-05
6.64731e-05
5.89015e-05
2.75579e-05
9.1385e-06
5.4729e-06
1.07058e-05
2.53503e-05
5.76666e-05
2.94157e-05
7.30557e-06
9.72662e-06
2.7796e-05
5.65588e-05
2.53226e-05
1.14563e-05
5.93725e-06
7.46175e-06
2.9749e-05
5.61611e-05
5.48064e-05
2.82575e-05
9.6954e-06
5.98494e-06
1.13953e-05
2.51807e-05
5.54269e-05
2.93739e-05
7.58294e-06
9.83082e-06
2.77584e-05
5.36739e-05
2.46864e-05
1.13874e-05
6.00986e-06
7.6349e-06
2.88589e-05
5.29163e-05
5.19862e-05
2.74901e-05
9.94839e-06
6.08036e-06
1.13223e-05
2.42219e-05
5.19251e-05
2.84297e-05
7.68146e-06
1.01095e-05
2.73489e-05
5.05706e-05
2.39754e-05
1.12802e-05
6.2159e-06
7.71031e-06
2.7809e-05
4.98052e-05
4.91173e-05
2.69027e-05
1.01275e-05
6.27076e-06
1.13861e-05
2.37571e-05
4.9391e-05
2.79119e-05
7.87702e-06
1.03091e-05
2.69382e-05
4.83411e-05
2.37302e-05
1.15349e-05
6.40257e-06
7.98136e-06
2.7341e-05
4.79632e-05
4.74648e-05
2.69335e-05
1.04849e-05
6.57372e-06
1.16914e-05
2.38202e-05
4.79196e-05
2.76463e-05
8.1077e-06
1.05556e-05
2.67546e-05
4.70532e-05
2.35297e-05
1.16482e-05
6.53859e-06
8.07427e-06
2.67854e-05
4.61945e-05
4.58891e-05
2.59642e-05
1.05839e-05
6.62519e-06
1.16953e-05
2.32286e-05
4.5894e-05
2.67864e-05
8.17418e-06
1.06564e-05
2.56945e-05
4.53446e-05
2.29192e-05
1.1806e-05
6.64322e-06
8.25366e-06
2.62481e-05
4.41133e-05
4.39381e-05
2.51398e-05
1.08282e-05
6.77523e-06
1.18233e-05
2.25113e-05
4.3595e-05
2.61744e-05
8.33491e-06
1.08351e-05
2.44574e-05
4.31598e-05
2.21813e-05
1.18634e-05
6.66977e-06
8.17164e-06
2.52233e-05
4.19764e-05
4.18179e-05
2.39214e-05
1.06426e-05
6.65328e-06
1.17545e-05
2.1692e-05
4.1583e-05
2.49485e-05
8.27061e-06
1.08465e-05
2.34537e-05
4.0641e-05
2.13008e-05
1.18014e-05
6.77427e-06
8.21241e-06
2.43291e-05
4.04771e-05
3.96204e-05
2.30398e-05
1.07936e-05
6.6896e-06
1.16691e-05
2.09345e-05
4.00928e-05
2.43149e-05
8.20642e-06
1.07673e-05
2.26098e-05
3.87476e-05
2.05983e-05
1.17207e-05
6.70083e-06
8.14125e-06
2.35608e-05
3.88591e-05
3.7598e-05
2.20163e-05
1.05578e-05
6.60354e-06
1.15377e-05
2.01579e-05
3.83449e-05
2.32668e-05
8.09145e-06
1.0525e-05
2.15089e-05
3.66567e-05
1.9613e-05
1.14375e-05
6.50038e-06
7.87508e-06
2.233e-05
3.67204e-05
3.53768e-05
2.09305e-05
1.03213e-05
6.45962e-06
1.12427e-05
1.89908e-05
3.59257e-05
2.19741e-05
7.8338e-06
1.02428e-05
2.03657e-05
3.42673e-05
1.83065e-05
1.0972e-05
6.28626e-06
7.54115e-06
2.08017e-05
3.40167e-05
3.27042e-05
1.95852e-05
9.95606e-06
6.11812e-06
1.06657e-05
1.75562e-05
3.28442e-05
2.02218e-05
7.34846e-06
9.60614e-06
1.87783e-05
3.15086e-05
1.64781e-05
9.9286e-06
5.70369e-06
6.42197e-06
2.22654e-05
2.81457e-05
1.84553e-05
1.16362e-05
7.77229e-06
8.96223e-06
2.18983e-05
3.52995e-05
3.33008e-05
1.99583e-05
1.1323e-05
6.8409e-06
1.1655e-05
1.84789e-05
3.42922e-05
2.17253e-05
8.11446e-06
1.06079e-05
2.01574e-05
3.28342e-05
1.79374e-05
1.12195e-05
6.50126e-06
7.77191e-06
2.06189e-05
3.2735e-05
3.12383e-05
1.89023e-05
1.0093e-05
5.95959e-06
1.02119e-05
1.65477e-05
2.79337e-05
2.22661e-05
6.55031e-06
7.92106e-06
1.18104e-05
1.84517e-05
3.42965e-05
2.16828e-05
9.18582e-06
1.14525e-05
1.97634e-05
3.20931e-05
1.81654e-05
1.18371e-05
6.89464e-06
8.1233e-06
2.09403e-05
3.22924e-05
3.10531e-05
1.94462e-05
1.04874e-05
6.48833e-06
1.11642e-05
1.7393e-05
3.11214e-05
1.97995e-05
7.70808e-06
9.97573e-06
1.83481e-05
3.00051e-05
1.60841e-05
1.01494e-05
5.94231e-06
6.50892e-06
2.15668e-05
2.6625e-05
1.76835e-05
1.16166e-05
7.81128e-06
9.06046e-06
2.0654e-05
3.26024e-05
3.06033e-05
1.89476e-05
1.13635e-05
6.72335e-06
1.15179e-05
1.73635e-05
3.0757e-05
2.01201e-05
7.91445e-06
1.01517e-05
1.85051e-05
2.9404e-05
1.59685e-05
1.01789e-05
5.96632e-06
6.49341e-06
2.15645e-05
2.6166e-05
1.75015e-05
1.17419e-05
7.85106e-06
8.91649e-06
2.00208e-05
3.16623e-05
2.97015e-05
1.82571e-05
1.09052e-05
6.20063e-06
1.05715e-05
1.62384e-05
2.6357e-05
2.166e-05
6.81729e-06
8.29462e-06
1.2052e-05
1.78402e-05
3.2243e-05
2.12109e-05
9.56533e-06
1.17699e-05
1.96563e-05
3.04215e-05
1.7817e-05
1.20975e-05
7.15829e-06
8.35022e-06
2.04357e-05
3.05784e-05
2.92567e-05
1.88351e-05
1.05488e-05
6.27525e-06
1.05974e-05
1.62018e-05
2.6305e-05
2.18262e-05
6.77783e-06
8.07392e-06
1.20313e-05
1.77307e-05
3.15922e-05
2.03087e-05
9.17553e-06
1.13932e-05
1.87512e-05
2.96062e-05
1.66467e-05
1.10585e-05
6.6678e-06
7.15174e-06
2.16512e-05
2.66518e-05
1.82068e-05
1.2473e-05
8.50737e-06
9.54597e-06
2.12589e-05
3.22251e-05
3.01854e-05
1.95399e-05
1.17467e-05
6.94679e-06
1.17535e-05
1.74351e-05
2.97701e-05
1.98162e-05
8.14687e-06
1.04782e-05
1.82565e-05
2.85639e-05
1.59004e-05
1.04199e-05
6.16933e-06
6.72453e-06
2.11849e-05
2.53959e-05
1.73125e-05
1.19186e-05
8.00508e-06
8.84596e-06
1.92771e-05
3.00398e-05
2.81709e-05
1.77167e-05
1.08511e-05
6.22471e-06
1.0461e-05
1.58247e-05
2.49849e-05
2.03116e-05
6.70347e-06
7.99831e-06
1.17088e-05
1.72002e-05
2.96038e-05
1.98128e-05
9.067e-06
1.10974e-05
1.81706e-05
2.78913e-05
1.59335e-05
1.06355e-05
6.30643e-06
6.70361e-06
2.12089e-05
2.49692e-05
1.7157e-05
1.18163e-05
7.90713e-06
8.84264e-06
1.9037e-05
2.93011e-05
2.75532e-05
1.75125e-05
1.0876e-05
6.18685e-06
1.04214e-05
1.55903e-05
2.40197e-05
2.10237e-05
6.57775e-06
7.61887e-06
1.18885e-05
1.68811e-05
2.65291e-05
2.02048e-05
7.92079e-06
9.21929e-06
1.2847e-05
1.83325e-05
3.08295e-05
2.00358e-05
9.99284e-06
1.20558e-05
1.85904e-05
2.87852e-05
1.68079e-05
1.14949e-05
6.9932e-06
7.37682e-06
2.23338e-05
2.61761e-05
1.83525e-05
1.29392e-05
8.71959e-06
9.73556e-06
2.05979e-05
3.11119e-05
2.90724e-05
1.88973e-05
1.1855e-05
6.87195e-06
1.13348e-05
1.67512e-05
2.61138e-05
2.20582e-05
7.2496e-06
8.55357e-06
1.26873e-05
1.8162e-05
3.06522e-05
2.02857e-05
9.58626e-06
1.16823e-05
1.86788e-05
2.88259e-05
1.65937e-05
1.11992e-05
6.72522e-06
7.23983e-06
2.17681e-05
2.56771e-05
1.79557e-05
1.25492e-05
8.60637e-06
9.52159e-06
2.01678e-05
3.00252e-05
2.80682e-05
1.83949e-05
1.14244e-05
6.45892e-06
1.07884e-05
1.6191e-05
2.44125e-05
2.17178e-05
6.81798e-06
7.87237e-06
1.22344e-05
1.73284e-05
2.66823e-05
2.03156e-05
7.98222e-06
9.24531e-06
1.3021e-05
1.85459e-05
3.03298e-05
1.97701e-05
9.9066e-06
1.18812e-05
1.82697e-05
2.82654e-05
1.64863e-05
1.12195e-05
6.84716e-06
7.15951e-06
2.19357e-05
2.47076e-05
1.77831e-05
1.27976e-05
8.25809e-06
8.49949e-06
2.10623e-05
2.73543e-05
1.93285e-05
1.37718e-05
9.80471e-06
1.06088e-05
2.0562e-05
3.13129e-05
2.90909e-05
1.89422e-05
1.25095e-05
7.05164e-06
1.15965e-05
1.70752e-05
2.58729e-05
2.23912e-05
7.4486e-06
8.83187e-06
1.30169e-05
1.83325e-05
3.00659e-05
2.02026e-05
9.80971e-06
1.18658e-05
1.8548e-05
2.8216e-05
1.65457e-05
1.11094e-05
6.75897e-06
7.10779e-06
2.16862e-05
2.47907e-05
1.77896e-05
1.26335e-05
8.19029e-06
8.2365e-06
2.06723e-05
2.687e-05
1.88455e-05
1.33602e-05
9.39395e-06
9.92858e-06
1.97224e-05
3.03744e-05
2.81376e-05
1.81368e-05
1.18722e-05
6.80674e-06
1.11068e-05
1.64892e-05
2.43975e-05
2.13052e-05
7.15731e-06
8.228e-06
1.25168e-05
1.76543e-05
2.65281e-05
2.09504e-05
8.4037e-06
9.61199e-06
1.34772e-05
1.8868e-05
3.01199e-05
1.99158e-05
1.02659e-05
1.23573e-05
1.84508e-05
2.80551e-05
1.66853e-05
1.13875e-05
7.07586e-06
7.23355e-06
2.20486e-05
2.44065e-05
1.78222e-05
1.28143e-05
8.31906e-06
8.43456e-06
2.06912e-05
2.66978e-05
1.89697e-05
1.36307e-05
9.65741e-06
1.01992e-05
1.98446e-05
3.02576e-05
2.80752e-05
1.83215e-05
1.21617e-05
6.96602e-06
1.12785e-05
1.66024e-05
2.42532e-05
2.13974e-05
7.22568e-06
8.32332e-06
1.27587e-05
1.78244e-05
2.64119e-05
2.06857e-05
8.46289e-06
9.7177e-06
1.35454e-05
1.89534e-05
2.9642e-05
1.99376e-05
1.03893e-05
1.22977e-05
1.84603e-05
2.77361e-05
1.67326e-05
1.13775e-05
7.07384e-06
7.28726e-06
2.18454e-05
2.42124e-05
1.78411e-05
1.28314e-05
8.38759e-06
8.39604e-06
2.03874e-05
2.63121e-05
1.89521e-05
1.34127e-05
9.31811e-06
9.11986e-06
2.12546e-05
2.7605e-05
1.9823e-05
1.43938e-05
1.02051e-05
1.07955e-05
2.0661e-05
3.10796e-05
2.87813e-05
1.89888e-05
1.27415e-05
7.21481e-06
1.1648e-05
1.71066e-05
2.47405e-05
2.21787e-05
7.44413e-06
8.60217e-06
1.3148e-05
1.83312e-05
2.67726e-05
2.11042e-05
8.75524e-06
9.91566e-06
1.39187e-05
1.9383e-05
3.00263e-05
1.9994e-05
1.05951e-05
1.26187e-05
1.85766e-05
2.80738e-05
1.69846e-05
1.16163e-05
7.24067e-06
7.49135e-06
2.18625e-05
2.44367e-05
1.82377e-05
1.32234e-05
8.65725e-06
8.62378e-06
2.06994e-05
2.63418e-05
1.92224e-05
1.36553e-05
9.493e-06
9.22395e-06
2.12288e-05
2.75026e-05
1.99823e-05
1.44994e-05
1.03141e-05
1.07176e-05
2.05459e-05
3.06245e-05
2.83988e-05
1.88639e-05
1.25644e-05
7.21334e-06
1.15651e-05
1.70561e-05
2.4321e-05
2.17497e-05
7.42452e-06
8.52306e-06
1.29949e-05
1.81182e-05
2.58451e-05
2.02508e-05
8.54002e-06
9.52107e-06
1.35746e-05
1.90519e-05
2.70789e-05
2.10179e-05
9.40742e-06
1.05905e-05
1.4703e-05
1.99959e-05
3.04162e-05
2.06643e-05
1.11507e-05
1.31043e-05
1.9212e-05
2.84485e-05
1.74922e-05
1.20757e-05
7.60027e-06
7.73567e-06
2.25272e-05
2.47022e-05
1.85064e-05
1.3443e-05
8.83694e-06
8.85892e-06
2.06611e-05
2.65042e-05
1.95883e-05
1.40525e-05
9.92436e-06
9.64642e-06
2.16395e-05
2.77277e-05
2.0368e-05
1.49019e-05
1.0685e-05
1.11022e-05
2.08786e-05
3.07975e-05
2.85949e-05
1.92872e-05
1.29633e-05
7.40128e-06
1.18685e-05
1.73349e-05
2.44248e-05
2.21264e-05
7.62485e-06
8.81091e-06
1.33324e-05
1.84366e-05
2.5938e-05
2.04894e-05
8.79933e-06
9.72131e-06
1.38349e-05
1.93138e-05
2.69641e-05
2.11462e-05
9.59072e-06
1.07195e-05
1.48467e-05
2.00602e-05
3.00376e-05
2.06877e-05
1.13493e-05
1.33733e-05
1.93039e-05
2.81389e-05
1.75939e-05
1.22324e-05
7.73417e-06
7.89387e-06
2.25628e-05
2.45698e-05
1.86058e-05
1.36132e-05
9.01202e-06
8.90345e-06
2.08221e-05
2.62663e-05
1.95642e-05
1.4083e-05
9.9088e-06
9.65435e-06
2.14255e-05
2.72473e-05
2.02297e-05
1.48739e-05
1.06774e-05
1.11129e-05
2.06161e-05
3.00938e-05
2.79263e-05
1.90459e-05
1.2945e-05
7.40794e-06
1.17675e-05
1.71862e-05
2.40175e-05
2.16844e-05
7.66411e-06
8.86331e-06
1.33238e-05
1.83006e-05
2.539e-05
2.03926e-05
8.83159e-06
9.70916e-06
1.37189e-05
1.91006e-05
2.62551e-05
2.08086e-05
9.43529e-06
1.05787e-05
1.46406e-05
1.98e-05
2.91387e-05
2.02066e-05
1.10826e-05
1.29657e-05
1.88274e-05
2.7247e-05
1.71577e-05
1.19294e-05
7.52187e-06
7.7772e-06
2.16381e-05
2.38608e-05
1.8301e-05
1.34397e-05
8.92993e-06
8.84609e-06
2.04906e-05
2.53874e-05
1.90974e-05
1.37186e-05
9.65149e-06
9.25978e-06
2.04068e-05
2.60854e-05
1.97464e-05
1.43464e-05
1.02022e-05
9.89434e-06
2.15658e-05
2.69848e-05
2.04094e-05
1.51858e-05
1.09374e-05
1.15233e-05
2.08951e-05
2.97759e-05
2.76632e-05
1.93411e-05
1.33322e-05
7.66443e-06
1.21589e-05