/*--------------------------------*- C++ -*----------------------------------*\
| =========                 |                                                 |
| \\      /  F ield         | OpenFOAM: The Open Source CFD Toolbox           |
|  \\    /   O peration     | Version:  v2006                                 |
|   \\  /    A nd           | Website:  www.openfoam.com                      |
|    \\/     M anipulation  |                                                 |
\*---------------------------------------------------------------------------*/
FoamFile
{
    version     2.0;
    format      ascii;
    class       volScalarField;
    location    "0.036";
    object      Ma;
}
// * * * * * * * * * * * * * * * * * * * * * * * * * * * * * * * * * * * * * //

dimensions      [0 0 0 0 0 0 0];


internalField   nonuniform List<scalar> 
9148
(
0.179196
0.179197
0.179196
0.179195
0.17919
0.179152
0.179011
0.178732
0.178327
0.177867
0.17739
0.176907
0.17641
0.175891
0.175344
0.174766
0.174156
0.173516
0.172845
0.172145
0.171417
0.170661
0.169878
0.169071
0.168239
0.167385
0.16651
0.165615
0.164703
0.163775
0.162834
0.161882
0.160919
0.15995
0.158975
0.157997
0.157017
0.156039
0.155064
0.154094
0.153132
0.15218
0.151239
0.150314
0.149405
0.148515
0.147646
0.146801
0.145981
0.145189
0.144427
0.143696
0.143
0.142338
0.141711
0.141115
0.140547
0.140006
0.139509
0.139103
0.13885
0.138757
0.138762
0.138795
0.13882
0.138815
0.138759
0.138606
0.138317
0.137761
0.13705
0.13432
0.132604
0.137112
0.137953
0.13807
0.136964
0.130817
0.12901
0.136705
0.138119
0.138068
0.136355
0.127405
0.125825
0.135886
0.137924
0.137708
0.13539
0.124393
0.123035
0.134831
0.137454
0.137167
0.134297
0.121763
0.120591
0.133747
0.136852
0.136508
0.133181
0.119475
0.118423
0.132601
0.136149
0.135748
0.132008
0.117393
0.116423
0.13141
0.135348
0.134912
0.130806
0.115468
0.114557
0.130195
0.134479
0.134008
0.129576
0.113652
0.112783
0.128952
0.133545
0.133043
0.128319
0.111915
0.111074
0.12768
0.132552
0.13202
0.127031
0.11023
0.109408
0.126376
0.131501
0.130939
0.125709
0.108579
0.107766
0.125035
0.130391
0.129797
0.124346
0.106943
0.106132
0.123649
0.129218
0.128591
0.122937
0.105307
0.104492
0.122215
0.127979
0.127317
0.121475
0.10366
0.102835
0.120726
0.12667
0.125972
0.119957
0.101992
0.101153
0.119177
0.125289
0.124553
0.118377
0.100294
0.0994386
0.117565
0.123833
0.123058
0.116732
0.0985612
0.0976847
0.115885
0.122299
0.121484
0.115016
0.0967848
0.0958836
0.114131
0.120683
0.119823
0.113223
0.0949562
0.0940248
0.112296
0.118976
0.118066
0.111341
0.0930636
0.0920947
0.110365
0.117167
0.1162
0.109358
0.0910917
0.090077
0.108324
0.115242
0.11421
0.107255
0.0890232
0.0879535
0.106156
0.113184
0.112079
0.105017
0.0868399
0.0857064
0.103842
0.110977
0.109792
0.102625
0.0845248
0.0833204
0.101368
0.108606
0.107334
0.100065
0.0820641
0.0807822
0.0987198
0.106059
0.104695
0.0973245
0.0794443
0.0780773
0.0958823
0.103323
0.101857
0.0943851
0.0766485
0.0751853
0.0928346
0.100378
0.0987969
0.0912221
0.0736526
0.0720793
0.0895492
0.0971987
0.0954878
0.0878043
0.0704258
0.0687195
0.0859859
0.0937485
0.0918811
0.0840797
0.0669161
0.0650433
0.0820822
0.0899701
0.0879106
0.0799754
0.0630506
0.060965
0.0777528
0.0857864
0.0834854
0.0753905
0.0587272
0.0563616
0.0728766
0.0810896
0.0784757
0.0701773
0.0537973
0.0510464
0.067273
0.0757233
0.0726883
0.0641101
0.0480272
0.0447215
0.0606529
0.0694448
0.065814
0.0568156
0.0410278
0.0368663
0.0525198
0.0618547
0.0573279
0.0476239
0.0320962
0.0264678
0.0419462
0.0522685
0.0462761
0.0351227
0.0193896
0.0125351
0.0273043
0.0396704
0.0320976
0.0164354
0.00710539
0.0141122
0.00512496
0.0236105
0.0114219
0.0110762
0.0180018
0.0210324
0.0160401
0.00374626
0.00955908
0.0194768
0.0230685
0.0222968
0.0197037
0.0121501
0.0122159
0.0175668
0.0183845
0.0118195
0.0147574
0.0138591
0.0153785
0.0130188
0.0072602
0.00556468
0.0126777
0.0158049
0.0163991
0.0128073
0.00446172
0.00688442
0.0146017
0.0180157
0.0197339
0.0165544
0.00905443
0.0116537
0.0189354
0.0216533
0.0227892
0.0203032
0.0132054
0.0143337
0.0213235
0.0236041
0.0233148
0.0210486
0.0141195
0.0133082
0.0203241
0.0227373
0.0220937
0.0194075
0.0118761
0.0107712
0.0188675
0.0218357
0.0218804
0.0187037
0.0100329
0.0102336
0.0189985
0.022242
0.0228598
0.0196569
0.0109884
0.0120762
0.0206379
0.0236827
0.0246553
0.0218043
0.0133823
0.0148037
0.0230738
0.0256768
0.0267242
0.0243623
0.0162745
0.0177326
0.0256249
0.0277278
0.0286781
0.0268109
0.0191409
0.0204618
0.0278977
0.02953
0.0302759
0.0288515
0.0216737
0.0227446
0.0296582
0.0308844
0.0313495
0.0302973
0.0236666
0.0244226
0.0307661
0.0316566
0.031802
0.0310545
0.025015
0.0254266
0.0311538
0.0317702
0.031546
0.0310489
0.0256509
0.0256771
0.0307244
0.0311306
0.0305075
0.0301764
0.0254941
0.0250684
0.0294044
0.0296836
0.0286334
0.0284022
0.0244024
0.0234782
0.0271597
0.0273664
0.02585
0.0256691
0.0223046
0.0208471
0.0239083
0.0240922
0.022051
0.0218742
0.0191294
0.017072
0.0195226
0.0197239
0.0171414
0.0169407
0.0148406
0.0122451
0.0140485
0.0143068
0.0113825
0.0111129
0.00971387
0.00653653
0.00768422
0.00814171
0.00487932
0.00431736
0.00349642
0.000883371
0.00161211
0.00249535
0.00412501
0.00720393
0.0102308
0.013422
0.0162367
0.018776
0.0208272
0.0224408
0.0235913
0.0242706
0.0244634
0.0241743
0.0233859
0.0220582
0.0201716
0.0177218
0.0147378
0.0113016
0.00757187
0.00540042
0.00371533
0.00279647
0.00419432
0.00397438
0.00270624
0.00223892
0.00175966
0.00216955
0.00314866
0.00339036
0.00435121
0.00455468
0.00294731
0.00377544
0.00617724
0.00594765
0.00628673
0.00637942
0.0033604
0.003447
0.00680411
0.00693672
0.00681447
0.00640063
0.00290934
0.00273723
0.00617211
0.00654554
0.00615664
0.00608982
0.00294651
0.00431232
0.00638249
0.0046156
0.00497411
0.00769074
0.00573768
0.00580154
0.00800554
0.00413621
0.00333598
0.00763329
0.0053175
0.00422579
0.00604628
0.00169906
0.00611169
0.00397193
0.00351241
0.00288731
0.00228262
0.0110798
0.0149926
0.00630991
0.00249467
0.0010401
0.0100767
0.0185526
0.0214723
0.0134868
0.00119447
0.00331382
0.016673
0.0241854
0.0264003
0.0193416
0.00537726
0.00750823
0.0219423
0.0285133
0.0302351
0.024063
0.00939639
0.0113162
0.0261618
0.0318881
0.0332611
0.0278872
0.0130698
0.014888
0.0296579
0.0346174
0.0357431
0.0311083
0.0165452
0.0182877
0.0326225
0.0368498
0.0377817
0.0338687
0.0199308
0.0217214
0.035222
0.0387161
0.0395248
0.0363634
0.023459
0.0254611
0.0376718
0.0403601
0.0411861
0.0388963
0.0276257
0.0298976
0.0401833
0.0419101
0.0422738
0.0409096
0.0315604
0.0327257
0.0411006
0.0421419
0.0416991
0.0408665
0.0333645
0.0339001
0.0403352
0.040933
0.0399112
0.0394795
0.0339636
0.0337163
0.0382933
0.0385438
0.0369307
0.0368193
0.0330054
0.031944
0.0349484
0.0348814
0.0325226
0.0328009
0.0305629
0.028656
0.0300357
0.0296983
0.0281586
0.0278506
0.0242555
0.0236888
0.0254612
0.0254484
0.0220229
0.0221663
0.0210305
0.0174629
0.0179452
0.0178009
0.0130192
0.0132403
0.0133066
0.00755057
0.00658546
0.00699655
0.00438318
0.00329578
0.00341039
0.00631846
0.00840229
0.0100994
0.0216987
0.0202313
0.0194293
0.0282302
0.0301268
0.0325826
0.0474706
0.0472812
0.0462467
0.0715386
0.0706601
0.0685059
0.0950039
0.0952767
0.0947794
0.12365
0.121813
0.120996
0.150142
0.158752
0.173738
0.212381
0.196195
0.187562
0.208318
0.219431
0.224211
0.201357
0.205401
0.198662
0.198507
0.195738
0.171407
0.160357
0.185096
0.191008
0.175544
0.16879
0.149005
0.132893
0.152191
0.160517
0.159844
0.150098
0.127608
0.116792
0.136892
0.146716
0.149708
0.139851
0.119037
0.111199
0.129858
0.139405
0.142845
0.13342
0.113721
0.10912
0.126896
0.136061
0.127386
0.118342
0.102153
0.10606
0.123244
0.131505
0.124706
0.116581
0.100634
0.105368
0.121468
0.128922
0.124892
0.117458
0.102663
0.0973383
0.111164
0.118612
0.122958
0.116307
0.101422
0.0973477
0.111332
0.118117
0.122657
0.116426
0.102184
0.0988551
0.112029
0.118407
0.122686
0.116814
0.103583
0.10212
0.114427
0.120456
0.115985
0.109803
0.0980289
0.101696
0.114699
0.12016
0.116856
0.111026
0.098621
0.103602
0.116141
0.121124
0.117966
0.112623
0.100864
0.105092
0.116996
0.121645
0.11883
0.11381
0.10281
0.106544
0.118014
0.122606
0.120239
0.115336
0.104652
0.108837
0.11975
0.124164
0.123382
0.118518
0.108012
0.105098
0.115404
0.120408
0.12446
0.120235
0.108788
0.106384
0.117507
0.122348
0.126488
0.122508
0.111245
0.109435
0.12004
0.124564
0.12834
0.124372
0.11318
0.111467
0.122031
0.12657
0.130465
0.126806
0.116067
0.114159
0.124321
0.128608
0.132172
0.128494
0.117826
0.116811
0.12674
0.130896
0.134687
0.131261
0.120922
0.118942
0.128851
0.132994
0.136519
0.133107
0.122862
0.121938
0.131458
0.13544
0.139118
0.135862
0.125788
0.124019
0.133697
0.137678
0.141156
0.137911
0.127837
0.126907
0.136339
0.140197
0.143811
0.140703
0.130704
0.12898
0.138591
0.142474
0.145942
0.142845
0.132809
0.131939
0.141384
0.145162
0.148798
0.145872
0.135929
0.134182
0.14376
0.147525
0.150889
0.147875
0.137704
0.136635
0.146296
0.150073
0.153722
0.150838
0.140434
0.13875
0.148663
0.152492
0.155158
0.151669
0.140412
0.14516
0.15609
0.158905
0.158114
0.154506
0.144949
0.148571
0.158405
0.161366
0.160265
0.156531
0.147289
0.150916
0.160648
0.163607
0.163081
0.159399
0.15026
0.154602
0.164147
0.166872
0.166148
0.162639
0.153541
0.15666
0.166561
0.169386
0.168563
0.164815
0.155255
0.159498
0.169513
0.172274
0.171747
0.168122
0.158608
0.162201
0.172597
0.175298
0.174137
0.170381
0.160317
0.162332
0.173541
0.176822
0.180788
0.178312
0.167311
0.166975
0.176761
0.180244
0.18364
0.180887
0.170908
0.169948
0.179279
0.182922
0.186499
0.183703
0.173897
0.173145
0.182427
0.186073
0.189854
0.18729
0.177675
0.176767
0.185895
0.189374
0.19274
0.190125
0.180103
0.178722
0.188348
0.191967
0.194808
0.191879
0.181141
0.185802
0.196502
0.198669
0.198247
0.194942
0.18536
0.188967
0.198786
0.201286
0.200702
0.197212
0.187867
0.191617
0.201452
0.204001
0.20375
0.200244
0.190783
0.195125
0.205066
0.207478
0.207076
0.203594
0.193975
0.197693
0.208168
0.210576
0.210062
0.206551
0.196481
0.198848
0.210095
0.212968
0.216951
0.214833
0.203573
0.203122
0.213333
0.216707
0.220248
0.217734
0.207385
0.206619
0.216444
0.22002
0.22381
0.221288
0.211009
0.210047
0.219947
0.223563
0.227352
0.224913
0.214536
0.213422
0.223403
0.226925
0.229827
0.227
0.21598
0.220727
0.231803
0.233864
0.233753
0.230409
0.220316
0.224553
0.23483
0.237094
0.236919
0.233491
0.223628
0.22804
0.238236
0.240521
0.240414
0.236936
0.227009
0.231326
0.241734
0.244061
0.244043
0.240494
0.230278
0.235241
0.245888
0.248096
0.247875
0.244428
0.234107
0.236522
0.248063
0.25081
0.255145
0.253127
0.241511
0.24113
0.251785
0.25526
0.259005
0.25672
0.246019
0.245436
0.255715
0.25924
0.263264
0.261097
0.250539
0.249345
0.259698
0.2632
0.266834
0.26445
0.25348
0.252345
0.263148
0.266877
0.271151
0.268833
0.25745
0.25633
0.267422
0.271146
0.274594
0.271839
0.259801
0.26545
0.277594
0.279332
0.279408
0.275992
0.264802
0.269086
0.280604
0.28301
0.283243
0.279357
0.268158
0.274032
0.285502
0.287853
0.288835
0.285108
0.273941
0.280098
0.291514
0.293588
0.29338
0.289689
0.278242
0.28252
0.294828
0.297394
0.297566
0.293466
0.281433
0.285913
0.298875
0.301831
0.3078
0.306182
0.293756
0.294261
0.305441
0.308786
0.313036
0.310814
0.299136
0.298091
0.309546
0.313387
0.317992
0.315544
0.303714
0.303457
0.315098
0.319129
0.324792
0.322795
0.311599
0.31199
0.32289
0.326331
0.331367
0.329341
0.317797
0.316009
0.327798
0.331576
0.336104
0.333703
0.321317
0.320667
0.333076
0.337211
0.343289
0.341212
0.329099
0.329896
0.341745
0.345403
0.351157
0.349248
0.336896
0.334903
0.347604
0.351478
0.356367
0.353885
0.340464
0.33983
0.353352
0.357798
0.364689
0.362748
0.349664
0.350888
0.363583
0.367308
0.373682
0.371638
0.357853
0.355387
0.369375
0.373693
0.378162
0.374914
0.359753
0.369065
0.383807
0.385419
0.388814
0.385098
0.371643
0.382892
0.39499
0.396119
0.397826
0.394625
0.382517
0.38813
0.400696
0.402979
0.407919
0.403419
0.389791
0.390402
0.404513
0.410083
0.419242
0.417845
0.40581
0.407189
0.419345
0.422543
0.429009
0.426727
0.412606
0.411176
0.426098
0.430771
0.439304
0.437277
0.42271
0.427368
0.441473
0.445459
0.456052
0.455272
0.441487
0.438989
0.453755
0.457643
0.464162
0.461749
0.446595
0.44864
0.464116
0.468853
0.481043
0.481442
0.470495
0.474783
0.485312
0.486996
0.49388
0.492653
0.479898
0.481928
0.49689
0.501381
0.508579
0.503002
0.487684
0.510187
0.523939
0.523367
0.528191
0.525079
0.510091
0.521794
0.536587
0.537674
0.547465
0.544972
0.529143
0.555208
0.565341
0.563132
0.575619
0.57425
0.560605
0.564109
0.579927
0.583809
0.59893
0.602153
0.593696
0.60533
0.615878
0.614824
0.624703
0.622581
0.607205
0.638337
0.644834
0.639418
0.656601
0.65981
0.649175
0.662157
0.676579
0.6742
0.680519
0.680341
0.662348
0.681731
0.690733
0.686441
0.685998
0.6904
0.681108
0.659743
0.680398
0.679845
0.661351
0.65564
0.616625
0.54746
0.608144
0.620856
0.569509
0.550157
0.472353
0.422443
0.507896
0.531277
0.50704
0.479827
0.388981
0.363101
0.456902
0.488152
0.471587
0.436703
0.33994
0.31949
0.417637
0.456011
0.442456
0.401036
0.301479
0.286075
0.385512
0.429581
0.418274
0.371968
0.272406
0.260278
0.358806
0.406973
0.397002
0.347306
0.249155
0.239193
0.335975
0.386768
0.377895
0.326221
0.230088
0.222001
0.316518
0.36876
0.361018
0.308378
0.214717
0.208319
0.300173
0.352865
0.346097
0.29343
0.202624
0.197667
0.286515
0.338928
0.333096
0.280955
0.193325
0.189579
0.275118
0.326733
0.321661
0.270527
0.186337
0.183572
0.265592
0.316083
0.311781
0.261852
0.181241
0.179281
0.257737
0.30688
0.303194
0.254583
0.177891
0.176499
0.251155
0.298956
0.29586
0.248708
0.175831
0.174882
0.24589
0.292212
0.289861
0.244001
0.174672
0.174002
0.241683
0.28674
0.285085
0.240395
0.174139
0.173728
0.238557
0.282425
0.281356
0.237708
0.174112
0.173863
0.236253
0.279106
0.278544
0.235859
0.174427
0.174354
0.234776
0.276647
0.2765
0.234698
0.175071
0.175088
0.233877
0.274887
0.275087
0.234124
0.175905
0.176055
0.233581
0.273734
0.274212
0.23404
0.176985
0.177192
0.233675
0.27306
0.273754
0.234354
0.178187
0.1785
0.23419
0.272796
0.273656
0.234994
0.179578
0.179919
0.234937
0.272834
0.273814
0.235882
0.18103
0.181451
0.235966
0.273135
0.274206
0.236974
0.182616
0.183041
0.237112
0.273616
0.274745
0.238203
0.184209
0.184689
0.238439
0.274262
0.275434
0.23955
0.185886
0.186349
0.239803
0.275008
0.276201
0.240959
0.187523
0.188022
0.241278
0.275854
0.277062
0.242425
0.189205
0.189671
0.242738
0.276751
0.277956
0.243903
0.190814
0.191299
0.244258
0.2777
0.278904
0.245397
0.192438
0.192885
0.245733
0.278671
0.279859
0.246878
0.193977
0.19443
0.247237
0.279664
0.280844
0.248346
0.195509
0.195928
0.248686
0.280669
0.281824
0.249794
0.196958
0.197367
0.250136
0.281665
0.282801
0.251194
0.198371
0.198742
0.251496
0.28265
0.28376
0.252554
0.199699
0.20006
0.252844
0.283617
0.284707
0.253854
0.200988
0.201305
0.254101
0.284566
0.285658
0.255111
0.202182
0.202482
0.255346
0.285513
0.286545
0.256298
0.203328
0.203591
0.256496
0.286403
0.287406
0.257437
0.204393
0.204636
0.25762
0.287262
0.288247
0.258507
0.205409
0.205618
0.258659
0.288106
0.289063
0.259539
0.206346
0.206532
0.259676
0.288912
0.289851
0.260505
0.207231
0.207385
0.260614
0.289703
0.290614
0.26144
0.208044
0.20818
0.261535
0.290456
0.291352
0.262314
0.208814
0.208922
0.262385
0.291196
0.292067
0.263164
0.209522
0.209613
0.263222
0.291899
0.292757
0.263957
0.210194
0.210261
0.263993
0.292591
0.293426
0.264731
0.210812
0.210866
0.264755
0.293246
0.294069
0.265451
0.211401
0.211434
0.265455
0.293891
0.294692
0.266156
0.211943
0.211965
0.26615
0.2945
0.295289
0.266812
0.212463
0.212467
0.266787
0.2951
0.295869
0.267456
0.212943
0.212938
0.267422
0.295664
0.296423
0.268053
0.213404
0.213383
0.268001
0.296221
0.29696
0.26864
0.21383
0.213803
0.268581
0.296744
0.297475
0.269184
0.214243
0.214202
0.269109
0.297262
0.297976
0.269723
0.214627
0.214581
0.269642
0.297748
0.298455
0.270222
0.215001
0.214942
0.270126
0.298231
0.298921
0.270717
0.215347
0.215285
0.270616
0.298682
0.299367
0.271175
0.215686
0.215613
0.27106
0.299133
0.299802
0.271632
0.216001
0.215926
0.271513
0.299553
0.300219
0.272053
0.216312
0.216227
0.271923
0.299975
0.300626
0.272478
0.216602
0.216514
0.272343
0.300368
0.301016
0.272867
0.216888
0.216792
0.272722
0.300763
0.301398
0.273262
0.217155
0.217057
0.273114
0.301131
0.301763
0.273623
0.21742
0.217314
0.273465
0.301502
0.302121
0.27399
0.217667
0.21756
0.27383
0.301846
0.302464
0.274325
0.217913
0.217799
0.274155
0.302195
0.3028
0.274668
0.218141
0.218027
0.274496
0.302517
0.303122
0.27498
0.21837
0.218249
0.274799
0.302847
0.303439
0.275301
0.218584
0.218463
0.275119
0.30315
0.303742
0.275592
0.218799
0.218671
0.275402
0.303461
0.304042
0.275894
0.218999
0.218871
0.275703
0.303746
0.304328
0.276167
0.2192
0.219067
0.275968
0.30404
0.304611
0.276451
0.219389
0.219255
0.276251
0.304309
0.304881
0.276706
0.219578
0.21944
0.2765
0.304588
0.30515
0.276975
0.219756
0.219618
0.276767
0.304843
0.305406
0.277215
0.219936
0.219793
0.277001
0.305108
0.305661
0.27747
0.220104
0.219962
0.277255
0.305349
0.305904
0.277697
0.220275
0.220128
0.277477
0.305602
0.306147
0.277938
0.220436
0.220289
0.277718
0.305831
0.306379
0.278153
0.220599
0.220448
0.277927
0.306072
0.306612
0.278384
0.220752
0.220603
0.278158
0.306292
0.306834
0.278589
0.220909
0.220756
0.278359
0.306524
0.307058
0.278811
0.221058
0.220907
0.278582
0.306736
0.307274
0.27901
0.221213
0.221059
0.278777
0.306962
0.307494
0.279228
0.22136
0.221209
0.278997
0.307171
0.307707
0.279424
0.221516
0.221363
0.279191
0.307396
0.307926
0.279641
0.221666
0.221516
0.279411
0.307604
0.30814
0.279838
0.221826
0.221674
0.279606
0.30783
0.30836
0.280057
0.22198
0.221831
0.279828
0.308039
0.308574
0.280255
0.222141
0.221988
0.280021
0.308264
0.308792
0.280471
0.222293
0.222142
0.280238
0.308468
0.308999
0.280661
0.222447
0.222289
0.280421
0.308683
0.309203
0.280862
0.222585
0.222424
0.280618
0.30887
0.30939
0.281052
0.222717
0.222543
0.280798
0.309064
0.309591
0.281197
0.222882
0.2227
0.280941
0.30927
0.309806
0.281362
0.22295
0.22273
0.281108
0.309464
0.310065
0.281555
0.223048
0.22278
0.28133
0.30974
0.310562
0.281921
0.223254
0.222967
0.281837
0.310373
0.311445
0.282618
0.22368
0.223825
0.282899
0.311859
0.314638
0.28473
0.225598
0.228552
0.287813
0.318399
0.32127
0.2909
0.231783
0.352662
0.372553
0.379429
0.382746
0.394378
0.40133
0.406014
0.410032
0.420089
0.426277
0.433765
0.439794
0.444252
0.44766
0.450081
0.451763
0.452912
0.453704
0.454263
0.454667
0.454968
0.455197
0.455376
0.455517
0.455631
0.455722
0.455797
0.455854
0.455896
0.455925
0.455942
0.45595
0.455961
0.455965
0.45597
0.455975
0.455979
0.455979
0.455974
0.455962
0.455942
0.455913
0.455874
0.455826
0.455773
0.455722
0.455666
0.455583
0.45546
0.455303
0.455118
0.454909
0.454675
0.454412
0.454119
0.453789
0.453419
0.453004
0.452536
0.452009
0.451415
0.450745
0.44999
0.44914
0.448185
0.447113
0.445911
0.444567
0.443066
0.441393
0.439534
0.437472
0.435193
0.432681
0.429924
0.426908
0.423625
0.420067
0.416231
0.412117
0.40773
0.403079
0.398177
0.393041
0.387693
0.382157
0.376458
0.370625
0.364687
0.358671
0.352607
0.346521
0.340438
0.334384
0.328378
0.322441
0.31659
0.310839
0.305202
0.299689
0.294308
0.289067
0.283972
0.279025
0.27423
0.269588
0.2651
0.260765
0.256583
0.252552
0.248669
0.244932
0.241339
0.237886
0.23457
0.231387
0.228335
0.225409
0.222606
0.219922
0.217354
0.214898
0.212551
0.21031
0.208172
0.206132
0.204188
0.202338
0.200577
0.198904
0.197314
0.195806
0.194376
0.193023
0.191743
0.190535
0.189396
0.188325
0.187319
0.186377
0.185498
0.18468
0.183922
0.183223
0.182581
0.181996
0.181467
0.180992
0.180572
0.180206
0.179894
0.179641
0.179453
0.179326
0.179247
0.179209
0.179199
0.179201
0.179201
0.17918
0.179085
0.178855
0.178484
0.17803
0.177549
0.177058
0.176554
0.17603
0.175478
0.174895
0.174281
0.173635
0.172959
0.172254
0.171521
0.170761
0.169974
0.169161
0.168325
0.167466
0.166586
0.165686
0.164769
0.163837
0.16289
0.161932
0.160964
0.159988
0.159007
0.158022
0.157035
0.15605
0.155067
0.154089
0.153119
0.152158
0.15121
0.150276
0.149358
0.14846
0.147582
0.146728
0.145899
0.145098
0.144326
0.143585
0.142878
0.142205
0.141564
0.140949
0.140354
0.13978
0.139261
0.138872
0.138686
0.138683
0.138761
0.138841
0.138878
0.138878
0.138768
0.138732
0.138654
0.138543
0.138404
0.138237
0.138039
0.137815
0.137571
0.137305
0.137019
0.136711
0.136385
0.13604
0.135677
0.135295
0.134896
0.134477
0.134041
0.133585
0.133112
0.132617
0.132105
0.131571
0.131019
0.130445
0.129853
0.129238
0.128604
0.127947
0.127271
0.12657
0.125849
0.125103
0.124333
0.123536
0.122713
0.121858
0.120974
0.120055
0.119103
0.118112
0.117084
0.116014
0.114905
0.113752
0.112556
0.111314
0.110025
0.108688
0.107297
0.105853
0.104352
0.10279
0.101159
0.0994552
0.0976699
0.0957963
0.0938231
0.0917414
0.0895358
0.0871939
0.0846949
0.08202
0.0791412
0.0760296
0.0726514
0.0689731
0.0649884
0.0607085
0.0563387
0.0519901
0.0473457
0.0414274
0.0342919
0.0259181
0.0163763
0.0067495
0.00487048
0.0123314
0.016365
0.0181923
0.0194444
0.0208589
0.0223848
0.0233722
0.0242174
0.0239777
0.0234544
0.022812
0.0226197
0.0227003
0.0231092
0.0236888
0.024429
0.0252428
0.0261052
0.0269664
0.0278144
0.0286045
0.0293333
0.0299577
0.0304783
0.0308591
0.0311082
0.0312012
0.031144
0.0308967
0.0304925
0.0298734
0.0290868
0.0280672
0.0268637
0.0254066
0.0237463
0.021799
0.0196105
0.0171289
0.0144461
0.0117077
0.00883531
0.00597961
0.00844576
0.0111752
0.0123029
0.0103869
0.0124227
0.0134538
0.0150491
0.0145925
0.0168532
0.0166474
0.0165158
0.0147237
0.0144803
0.0140681
0.0167148
0.0166516
0.0164184
0.017553
0.0184616
0.0190231
0.0209249
0.0201226
0.0190083
0.0172903
0.0168092
0.0183206
0.0185252
0.0191167
0.0209404
0.0197898
0.0215413
0.0227517
0.0241302
0.0224007
0.0203682
0.0220733
0.0238506
0.0255202
0.0265122
0.0244079
0.0255334
0.0275137
0.0281348
0.0257946
0.0233867
0.0242363
0.0265794
0.0287704
0.0290447
0.0265643
0.0270383
0.0293137
0.0292882
0.0267623
0.0246045
0.0243694
0.0269547
0.029242
0.0289681
0.0264292
0.0263684
0.0286408
0.0281087
0.0256212
0.0236168
0.0224247
0.0253223
0.0275469
0.0268163
0.0244013
0.0239298
0.0260943
0.0252547
0.0229168
0.0209744
0.0194301
0.0223524
0.0244604
0.023605
0.0213057
0.0207355
0.022838
0.0220954
0.019695
0.0180641
0.0153369
0.0192834
0.0215272
0.0209468
0.0180349
0.0180458
0.0208287
0.0206799
0.0168224
0.0101205
0.00582274
0.0178803
0.0213567
0.0216204
0.0152216
0.014906
0.0221864
0.0214195
0.0108137
0.0221677
0.036011
0.00792683
0.0200056
0.0181421
0.00890806
0.0125223
0.0129604
0.00973511
0.0200054
0.0468736
0.0557955
0.0275284
0.00639525
0.0148073
0.0337212
0.0397133
0.0231206
0.0307715
0.0461116
0.0630992
0.0691334
0.0515862
0.0383303
0.045307
0.0572191
0.0612927
0.0511113
0.0559619
0.0651806
0.0738785
0.0775599
0.0680339
0.0598725
0.0632159
0.0707781
0.073235
0.0663138
0.0695746
0.0758431
0.080951
0.0846156
0.078501
0.0728251
0.0760679
0.0810943
0.0837037
0.0791082
0.0820145
0.086112
0.0885172
0.0924426
0.0885542
0.0847176
0.087281
0.0907389
0.0929803
0.0896736
0.091945
0.0949544
0.096229
0.0997994
0.0970032
0.0940782
0.0961081
0.0987893
0.100665
0.0980268
0.0998572
0.102286
0.103126
0.106213
0.104008
0.101597
0.103262
0.105488
0.107076
0.104853
0.106377
0.108434
0.109075
0.111733
0.109903
0.107842
0.109247
0.111154
0.112515
0.110606
0.111911
0.113669
0.114204
0.116503
0.11494
0.113169
0.114374
0.116012
0.117194
0.115544
0.11666
0.118187
0.118642
0.120628
0.119285
0.117747
0.118779
0.120205
0.121223
0.119788
0.120741
0.122072
0.122467
0.124166
0.123014
0.121674
0.122553
0.123796
0.124668
0.123417
0.124228
0.125388
0.125737
0.12719
0.126196
0.12503
0.125781
0.126862
0.127611
0.126526
0.127225
0.128229
0.128536
0.129785
0.128926
0.127919
0.12857
0.1295
0.130147
0.129218
0.129824
0.130681
0.130942
0.132013
0.131281
0.130428
0.130991
0.131776
0.13233
0.131553
0.132075
0.132788
0.132999
0.133901
0.133297
0.132594
0.133075
0.133717
0.134181
0.133552
0.133994
0.134566
0.134721
0.135461
0.134986
0.134431
0.134834
0.135335
0.135713
0.135231
0.135597
0.136029
0.136125
0.136714
0.136366
0.135955
0.136284
0.136649
0.136945
0.136604
0.136898
0.137196
0.137231
0.137677
0.137453
0.13718
0.137438
0.137672
0.137889
0.137681
0.137902
0.138075
0.138052
0.138355
0.138251
0.138105
0.138286
0.138401
0.138535
0.138446
0.138585
0.138648
0.138584
0.138736
0.138738
0.138695
0.138783
0.138808
0.138853
0.138844
0.138878
0.138878
0.138817
0.138718
0.138626
0.138482
0.138277
0.138006
0.137671
0.137271
0.136805
0.136273
0.135668
0.134987
0.134228
0.133386
0.132461
0.131453
0.13036
0.129178
0.127903
0.126527
0.125041
0.123444
0.121725
0.119869
0.117872
0.115727
0.113429
0.110969
0.108336
0.10552
0.102516
0.0993307
0.0959928
0.0925729
0.0891885
0.0859696
0.082947
0.0799105
0.0765114
0.0725436
0.0677682
0.061716
0.0540996
0.0448139
0.0341076
0.0219737
0.010811
0.00904739
0.0126304
0.0152215
0.0167641
0.0178376
0.018445
0.0186638
0.0185132
0.0181465
0.0176409
0.0171462
0.0145268
0.0160371
0.01832
0.0197663
0.021363
0.0224091
0.0234902
0.0223969
0.0207866
0.0210082
0.0229882
0.0241398
0.0243642
0.0233108
0.0215928
0.0191889
0.0158081
0.0159903
0.0194313
0.0212876
0.0231661
0.0241474
0.0235136
0.0228129
0.0214729
0.0206713
0.0219463
0.0224092
0.0208755
0.0209496
0.0204971
0.0192517
0.0168849
0.0145747
0.0126726
0.0128565
0.0102325
0.0134998
0.0129051
0.0126053
0.00653072
0.00805358
0.00630654
0.00946531
0.0126319
0.0110192
0.00991026
0.00322732
0.0015677
0.00594505
0.0124947
0.0123606
0.0063165
0.00742044
0.0121095
0.0114866
0.00932574
0.0158183
0.0091841
0.00460362
0.0116356
0.00987636
0.0186021
0.018638
0.0186319
0.0185073
0.0184761
0.0188448
0.0192139
0.0194925
0.0194984
0.0188665
0.0164611
0.0179766
0.0189302
0.0182679
0.0162491
0.0137205
0.0105832
0.0141482
0.0171191
0.0199952
0.0220638
0.0236149
0.0219138
0.0193611
0.0163959
0.0125722
0.00814972
0.00357718
0.00268625
0.00248799
0.00352882
0.00352786
0.00475542
0.00257239
0.00168264
0.00465589
0.00538515
0.00113589
0.0089298
0.0139502
0.00382361
0.00157061
0.00488606
0.00384923
0.00212509
0.00672377
0.00974583
0.0180638
0.021751
0.0245191
0.0267979
0.025389
0.0266409
0.0237141
0.0255587
0.0270697
0.0278227
0.0326456
0.0325835
0.0313328
0.0307531
0.0292377
0.0282542
0.0308288
0.0288181
0.027864
0.0263757
0.0247682
0.0230178
0.0210912
0.0187149
0.016039
0.0130217
0.00496671
0.00189822
0.00896102
0.0122368
0.0157039
0.0185005
0.02117
0.0236163
0.0258495
0.0278037
0.0293411
0.0305134
0.031783
0.0310862
0.029525
0.0324814
0.0327502
0.0325872
0.0342464
0.0346912
0.033936
0.033767
0.034879
0.0359311
0.0356938
0.0362902
0.0355576
0.0367365
0.0375299
0.0381299
0.0334634
0.0328074
0.0274342
0.0258626
0.0192031
0.0219271
0.0159564
0.023526
0.0337836
0.0249585
0.014734
0.010407
0.011218
0.0235845
0.0340025
0.0193064
0.0296457
0.0442842
0.0559317
0.0461791
0.0354955
0.0452229
0.0561055
0.0654212
0.0738373
0.0645217
0.0528019
0.0397566
0.0288517
0.0300146
0.0250554
0.0274433
0.0299961
0.0310521
0.032819
0.0375209
0.0381377
0.0400343
0.0400837
0.0395401
0.0393868
0.038699
0.0384101
0.0376509
0.0372217
0.0377316
0.0368491
0.0384506
0.0391689
0.0397491
0.0403623
0.0408336
0.0413854
0.0417053
0.0418763
0.0402648
0.0397291
0.039388
0.0410677
0.0415536
0.0401822
0.0383483
0.0358677
0.0336042
0.0360534
0.0375336
0.0391589
0.0377319
0.0361478
0.0346872
0.0326987
0.0302967
0.0265489
0.0262627
0.026192
0.028955
0.0245126
0.0232158
0.022801
0.0254637
0.0281128
0.0306694
0.0316375
0.0340783
0.028763
0.0254795
0.0253173
0.028262
0.0218473
0.0222994
0.0190931
0.0205513
0.0200392
0.0219957
0.0175328
0.0168887
0.0139686
0.0179592
0.0121712
0.00726283
0.0130128
0.0187427
0.023937
0.0283802
0.0342594
0.0368761
0.0432467
0.0587661
0.0724923
0.0822508
0.0922473
0.0830842
0.0656416
0.0419577
0.0453827
0.0452436
0.0322111
0.0300661
0.0278163
0.0242251
0.0410952
0.0425185
0.0512849
0.0559615
0.0762375
0.0698043
0.0687853
0.0772523
0.0929286
0.0758807
0.0859288
0.0984732
0.0853589
0.0639168
0.045444
0.105896
0.119192
0.117457
0.101842
0.102528
0.11729
0.117173
0.131265
0.13876
0.147518
0.134498
0.174246
0.161187
0.148044
0.138689
0.13138
0.116994
0.104898
0.0923644
0.088246
0.100161
0.107222
0.125474
0.14262
0.144557
0.157519
0.161914
0.177468
0.1916
0.200495
0.199677
0.195799
0.19706
0.191283
0.190126
0.18052
0.167767
0.168373
0.157634
0.160026
0.150614
0.153577
0.146577
0.138132
0.141945
0.134957
0.139709
0.134539
0.128232
0.132967
0.127544
0.132309
0.127442
0.132236
0.128693
0.12424
0.128776
0.124833
0.128868
0.125107
0.129678
0.126167
0.130535
0.127492
0.132435
0.130463
0.127483
0.131826
0.129257
0.133681
0.131141
0.135204
0.132951
0.13708
0.134783
0.138773
0.136911
0.140843
0.138864
0.142747
0.141143
0.14499
0.143285
0.147076
0.145683
0.149439
0.147923
0.151672
0.150479
0.15417
0.152757
0.156415
0.155281
0.158871
0.157228
0.160502
0.162493
0.164494
0.160554
0.162454
0.158218
0.160235
0.156019
0.158134
0.153648
0.155912
0.151548
0.153934
0.14934
0.151945
0.147406
0.150128
0.145332
0.148255
0.143583
0.146642
0.141753
0.145053
0.140233
0.143657
0.138558
0.142144
0.137153
0.140697
0.135265
0.138404
0.144874
0.151391
0.149177
0.153665
0.145279
0.147678
0.151771
0.156093
0.150321
0.154363
0.158974
0.150917
0.153469
0.157502
0.162045
0.156929
0.160793
0.165563
0.157947
0.160804
0.164587
0.169227
0.164848
0.168412
0.173128
0.166098
0.168853
0.166488
0.164336
0.163122
0.166538
0.16536
0.169105
0.168329
0.171836
0.170934
0.174535
0.173722
0.177303
0.176569
0.180004
0.178673
0.181957
0.183431
0.184398
0.181163
0.182693
0.178411
0.179406
0.17588
0.177666
0.173099
0.174341
0.170649
0.172813
0.168359
0.170092
0.177032
0.176434
0.181369
0.18112
0.185967
0.185883
0.19078
0.187525
0.185906
0.185132
0.188668
0.188005
0.191535
0.191084
0.194417
0.193938
0.197164
0.19632
0.199505
0.202885
0.202456
0.205524
0.205156
0.208597
0.208458
0.211787
0.211547
0.21495
0.21436
0.21761
0.218067
0.218043
0.215268
0.21574
0.211965
0.212034
0.209046
0.209791
0.206037
0.206345
0.203581
0.200261
0.200917
0.197766
0.198337
0.194901
0.195518
0.192293
0.19311
0.18968
0.190821
0.194
0.195922
0.196522
0.201373
0.195838
0.199152
0.201909
0.206472