/*--------------------------------*- C++ -*----------------------------------*\
| =========                 |                                                 |
| \\      /  F ield         | OpenFOAM: The Open Source CFD Toolbox           |
|  \\    /   O peration     | Version:  v2006                                 |
|   \\  /    A nd           | Website:  www.openfoam.com                      |
|    \\/     M anipulation  |                                                 |
\*---------------------------------------------------------------------------*/
FoamFile
{
    version     2.0;
    format      ascii;
    class       volScalarField;
    location    "0.036";
    object      T;
}
// * * * * * * * * * * * * * * * * * * * * * * * * * * * * * * * * * * * * * //

dimensions      [0 0 0 1 0 0 0];


internalField   nonuniform List<scalar> 
9148
(
298.085
298.085
298.085
298.085
298.086
298.086
298.089
298.094
298.102
298.112
298.122
298.132
298.143
298.154
298.165
298.177
298.19
298.203
298.217
298.231
298.246
298.262
298.278
298.294
298.311
298.328
298.345
298.363
298.381
298.399
298.417
298.435
298.454
298.472
298.491
298.509
298.528
298.546
298.564
298.582
298.599
298.617
298.634
298.65
298.667
298.682
298.698
298.713
298.727
298.741
298.754
298.766
298.778
298.79
298.8
298.81
298.82
298.829
298.837
298.843
298.847
298.849
298.849
298.848
298.848
298.848
298.849
298.851
298.855
298.863
298.873
298.913
298.921
298.872
298.858
298.859
298.875
298.935
298.947
298.879
298.86
298.862
298.885
298.957
298.964
298.891
298.866
298.871
298.897
298.971
298.976
298.904
298.875
298.88
298.909
298.981
298.985
298.915
298.885
298.89
298.921
298.989
298.992
298.927
298.895
298.9
298.932
298.995
298.999
298.938
298.906
298.911
298.942
299.001
299.004
298.948
298.917
298.922
298.952
299.007
299.01
298.958
298.928
298.933
298.962
299.012
299.016
298.968
298.939
298.944
298.972
299.018
299.022
298.979
298.95
298.955
298.983
299.024
299.029
298.989
298.962
298.967
298.993
299.031
299.037
299.001
298.975
298.981
299.005
299.04
299.046
299.013
298.989
298.995
299.018
299.049
299.056
299.027
299.003
299.01
299.032
299.06
299.067
299.041
299.019
299.026
299.046
299.071
299.079
299.056
299.035
299.042
299.061
299.083
299.091
299.07
299.051
299.058
299.076
299.096
299.103
299.085
299.068
299.075
299.091
299.108
299.116
299.101
299.085
299.092
299.107
299.122
299.13
299.118
299.103
299.111
299.125
299.137
299.146
299.136
299.123
299.133
299.144
299.154
299.165
299.157
299.145
299.156
299.166
299.173
299.185
299.18
299.17
299.182
299.19
299.195
299.207
299.205
299.196
299.209
299.216
299.217
299.23
299.23
299.224
299.236
299.241
299.241
299.253
299.256
299.251
299.264
299.267
299.264
299.276
299.282
299.279
299.292
299.293
299.288
299.3
299.308
299.307
299.32
299.32
299.313
299.326
299.335
299.335
299.35
299.349
299.34
299.354
299.365
299.366
299.383
299.38
299.369
299.383
299.397
299.401
299.419
299.415
299.4
299.415
299.432
299.439
299.459
299.451
299.433
299.448
299.469
299.479
299.5
299.49
299.469
299.485
299.508
299.52
299.543
299.531
299.51
299.53
299.55
299.563
299.589
299.577
299.559
299.581
299.595
299.606
299.636
299.625
299.606
299.584
299.601
299.63
299.655
299.798
300.248
300.456
300.301
299.812
300.195
300.395
300.435
300.431
300.371
300.286
300.257
300.355
300.43
300.462
300.379
300.266
300.365
300.441
300.484
300.49
300.462
300.439
300.436
300.465
300.503
300.489
300.444
300.408
300.405
300.441
300.487
300.444
300.409
300.384
300.382
300.402
300.429
300.411
300.387
300.371
300.372
300.386
300.408
300.402
300.382
300.368
300.372
300.388
300.406
300.41
300.391
300.374
300.378
300.397
300.417
300.422
300.399
300.379
300.378
300.4
300.427
300.425
300.395
300.373
300.368
300.387
300.418
300.403
300.376
300.36
300.352
300.365
300.39
300.374
300.352
300.343
300.335
300.341
300.36
300.344
300.33
300.328
300.325
300.324
300.333
300.324
300.318
300.322
300.321
300.315
300.316
300.312
300.312
300.319
300.318
300.31
300.308
300.303
300.308
300.318
300.318
300.307
300.302
300.302
300.308
300.32
300.324
300.311
300.302
300.305
300.314
300.328
300.335
300.321
300.31
300.316
300.328
300.343
300.354
300.338
300.325
300.335
300.349
300.365
300.378
300.362
300.346
300.356
300.373
300.39
300.404
300.386
300.367
300.376
300.396
300.415
300.428
300.408
300.386
300.393
300.416
300.437
300.446
300.425
300.399
300.403
300.428
300.452
300.454
300.428
300.404
300.407
300.428
300.456
300.468
300.445
300.39
300.335
300.283
300.237
300.199
300.168
300.148
300.138
300.134
300.138
300.15
300.167
300.186
300.207
300.228
300.248
300.265
300.279
300.303
300.338
300.348
300.365
300.367
300.371
300.385
300.347
300.427
300.375
300.514
300.211
300.469
300.212
300.389
300.381
300.402
300.378
300.277
300.341
300.379
300.398
300.414
300.366
300.421
300.407
300.395
300.407
300.416
300.384
300.426
300.33
300.416
300.403
300.376
300.392
300.378
300.389
300.38
300.358
300.334
300.414
300.385
300.396
300.402
300.362
300.329
300.33
300.468
300.403
300.338
300.25
300.225
300.312
300.4
300.473
300.235
300.243
300.202
300.298
300.357
300.379
300.203
300.229
300.207
300.267
300.266
300.318
300.206
300.225
300.201
300.236
300.245
300.288
300.168
300.21
300.202
300.178
300.241
300.197
300.195
300.183
300.185
300.163
300.215
300.18
300.184
300.169
300.171
300.159
300.193
300.146
300.179
300.146
300.139
300.16
300.15
300.164
300.13
300.139
300.122
300.142
300.127
300.125
300.115
300.119
300.107
300.107
300.114
300.107
300.099
300.102
300.094
300.092
300.099
300.092
300.086
300.09
300.085
300.082
300.09
300.094
300.08
300.082
300.077
300.078
300.111
300.144
300.076
300.072
300.058
300.065
300.202
300.234
300.039
300.05
300.076
299.929
300.578
300.018
300.111
300.087
300.092
300.087
300.087
300.09
300.092
300.094
300.09
300.091
300.091
300.091
300.1
300.085
300.078
300.029
300.226
300.078
300.078
300.061
300.013
300.005
299.987
300.021
299.99
299.975
299.883
299.87
299.803
299.721
299.726
299.758
299.44
299.367
299.45
299.375
299.011
299.056
298.642
298.652
298.565
297.7
297.707
298.012
297.359
297.107
297.397
298.299
297.648
297.691
297.793
297.968
298.421
298.619
298.059
297.879
298.222
298.456
298.796
298.903
298.718
298.529
298.518
298.723
299.031
299.099
298.942
298.761
298.696
298.871
299.11
299.171
299.052
298.877
298.787
298.936
299.141
299.175
299.044
298.936
299.023
299.168
299.233
299.201
299.07
298.969
299.061
299.157
299.239
299.187
299.091
298.995
299.07
299.136
299.207
299.234
299.204
299.116
299.074
299.133
299.206
299.227
299.169
299.116
299.067
299.144
299.181
299.2
299.185
299.126
299.068
299.13
299.177
299.198
299.161
299.107
299.118
299.171
299.21
299.193
299.124
299.081
299.097
299.15
299.197
299.156
299.115
299.064
299.112
299.149
299.155
299.14
299.111
299.054
299.085
299.133
299.141
299.119
299.081
299.032
299.047
299.101
299.126
299.116
299.048
299.014
299.039
299.077
299.118
299.124
299.072
299.038
298.995
299.043
299.092
299.101
299.077
298.996
298.987
299.015
299.061
299.139
298.98
298.955
298.964
298.95
299.066
299.126
298.928
298.934
298.918
298.907
299.037
299.053
298.962
298.932
298.885
298.908
298.997
298.999
298.934
298.894
298.844
298.877
298.956
298.97
298.911
298.864
298.801
298.836
298.923
298.919
298.859
298.811
298.759
298.793
298.876
298.885
298.821
298.777
298.714
298.747
298.837
298.837
298.771
298.725
298.668
298.702
298.794
298.801
298.732
298.687
298.62
298.654
298.745
298.744
298.675
298.629
298.57
298.602
298.704
298.709
298.633
298.592
298.524
298.565
298.646
298.674
298.586
298.527
298.484
298.521
298.604
298.616
298.544
298.508
298.408
298.502
298.586
298.554
298.378
298.397
298.371
298.373
298.593
298.486
298.346
298.35
298.353
298.354
298.457
298.385
298.305
298.293
298.298
298.319
298.395
298.353
298.248
298.216
298.232
298.275
298.352
298.304
298.203
298.167
298.184
298.232
298.327
298.257
298.134
298.095
298.118
298.166
298.27
298.21
298.082
298.043
298.075
298.125
298.228
298.16
298.063
298.008
297.93
297.97
298.117
298.123
297.995
297.948
297.862
297.901
298.024
298.02
297.923
297.882
297.788
297.827
297.943
297.955
297.851
297.807
297.722
297.758
297.88
297.892
297.786
297.74
297.649
297.69
297.821
297.836
297.728
297.676
297.604
297.661
297.76
297.74
297.559
297.527
297.524
297.586
297.781
297.642
297.478
297.444
297.46
297.489
297.638
297.516
297.403
297.376
297.389
297.421
297.529
297.473
297.341
297.304
297.321
297.365
297.488
297.399
297.248
297.202
297.219
297.286
297.422
297.37
297.198
297.168
297.047
297.12
297.287
297.304
297.148
297.08
296.957
297.026
297.162
297.181
297.058
296.987
296.865
296.929
297.085
297.104
296.959
296.879
296.778
296.831
296.989
297.014
296.845
296.797
296.73
296.751
296.908
296.857
296.695
296.602
296.644
296.703
296.873
296.729
296.584
296.507
296.521
296.615
296.739
296.622
296.474
296.411
296.426
296.498
296.642
296.54
296.362
296.312
296.318
296.395
296.562
296.431
296.252
296.208
296.224
296.289
296.446
296.353
296.163
296.13
296.004
296.069
296.284
296.314
296.085
296.005
295.891
295.954
296.138
296.151
295.973
295.881
295.776
295.835
296.011
296.018
295.854
295.779
295.64
295.694
295.885
295.918
295.731
295.647
295.519
295.579
295.796
295.817
295.615
295.522
295.406
295.494
295.68
295.602
295.31
295.26
295.267
295.36
295.609
295.424
295.177
295.113
295.113
295.231
295.451
295.269
295.035
294.979
294.941
295.056
295.268
295.121
294.862
294.781
294.793
294.909
295.139
294.923
294.678
294.624
294.634
294.742
294.968
294.836
294.605
294.505
294.29
294.329
294.651
294.642
294.38
294.253
294.104
294.18
294.45
294.471
294.228
294.093
293.912
293.978
294.255
294.269
294.01
293.888
293.67
293.743
294.009
293.99
293.733
293.618
293.413
293.509
293.789
293.812
293.549
293.418
293.212
293.27
293.592
293.602
293.314
293.184
292.951
293.019
293.341
293.319
293.012
292.873
292.629
292.73
293.078
293.085
292.775
292.635
292.405
292.463
292.826
292.852
292.519
292.341
292.09
292.154
292.541
292.462
292.13
291.977
291.713
291.819
292.24
292.265
291.89
291.688
291.528
291.651
292.032
291.75
291.242
291.19
291.078
291.224
291.724
291.165
290.794
290.707
290.685
290.81
291.131
290.839
290.518
290.411
290.167
290.415
290.83
290.573
290.331
290.061
289.629
289.67
290.072
289.916
289.57
289.515
289.122
289.205
289.73
289.694
289.244
289.064
288.573
288.611
289.17
289.087
288.606
288.299
287.765
287.82
288.368
288.393
287.871
287.775
287.298
287.41
287.951
287.937
287.321
287.137
286.382
286.402
287.09
286.658
286.195
286.029
285.783
285.843
286.377
286.177
285.669
285.109
284.962
285.49
285.878
284.906
283.97
284.071
283.823
284.06
284.676
283.651
283.39
283.406
282.662
282.489
284.021
281.959
282.01
281.74
281.13
281.308
281.988
281.136
280.796
280.566
279.573
279.373
280.21
279.268
278.516
278.746
277.702
278.009
278.877
276.946
276.561
277.071
275.976
275.793
276.657
274.466
274.31
274.74
274.139
274.129
275.251
273.762
273.563
273.901
273.858
273.508
274.352
275.853
274.326
274.363
276.004
276.764
279.528
282.521
279.058
278.561
281.576
282.806
286.662
288.72
285.221
283.799
285.273
286.93
290.153
290.807
288.029
286.257
287.233
289.152
291.613
291.991
289.897
287.97
288.754
290.752
292.58
292.822
291.268
289.333
290.006
291.936
293.213
293.344
292.283
290.495
291.073
292.779
293.603
293.689
292.984
291.452
291.91
293.339
293.89
293.965
293.479
292.187
292.557
293.745
294.133
294.181
293.846
292.778
293.088
294.046
294.294
294.323
294.112
293.254
293.489
294.253
294.407
294.428
294.293
293.602
293.768
294.392
294.491
294.501
294.417
293.845
293.955
294.489
294.546
294.55
294.502
294.008
294.083
294.556
294.585
294.585
294.554
294.115
294.166
294.586
294.608
294.603
294.572
294.166
294.196
294.59
294.619
294.611
294.567
294.18
294.201
294.574
294.617
294.607
294.544
294.175
294.187
294.541
294.604
294.587
294.507
294.154
294.161
294.498
294.58
294.552
294.456
294.123
294.126
294.444
294.544
294.51
294.402
294.092
294.085
294.384
294.498
294.459
294.335
294.056
294.041
294.318
294.444
294.401
294.268
294.014
293.996
294.251
294.384
294.337
294.201
293.966
293.946
294.183
294.32
294.271
294.133
293.918
293.899
294.116
294.253
294.203
294.066
293.871
293.853
294.05
294.185
294.135
294.001
293.825
293.811
293.986
294.116
294.066
293.938
293.78
293.768
293.925
294.048
293.999
293.879
293.739
293.728
293.866
293.982
293.934
293.821
293.696
293.687
293.81
293.917
293.871
293.766
293.656
293.647
293.756
293.855
293.811
293.714
293.615
293.607
293.704
293.796
293.754
293.664
293.576
293.568
293.655
293.74
293.7
293.616
293.537
293.53
293.608
293.687
293.648
293.57
293.499
293.493
293.563
293.637
293.6
293.527
293.463
293.456
293.52
293.589
293.554
293.486
293.427
293.421
293.479
293.544
293.51
293.446
293.393
293.387
293.44
293.501
293.47
293.41
293.36
293.354
293.404
293.461
293.43
293.373
293.327
293.322
293.368
293.422
293.394
293.34
293.297
293.291
293.335
293.386
293.359
293.307
293.267
293.261
293.303
293.351
293.326
293.277
293.238
293.232
293.272
293.319
293.295
293.247
293.209
293.204
293.243
293.288
293.265
293.219
293.182
293.177
293.215
293.259
293.237
293.191
293.156
293.151
293.188
293.231
293.211
293.165
293.13
293.126
293.162
293.205
293.185
293.14
293.106
293.101
293.137
293.179
293.161
293.116
293.082
293.077
293.113
293.155
293.137
293.092
293.059
293.054
293.09
293.132
293.114
293.07
293.036
293.032
293.067
293.11
293.092
293.048
293.015
293.01
293.045
293.088
293.072
293.028
292.994
292.99
293.025
293.067
293.051
293.007
292.974
292.97
293.004
293.046
293.031
292.988
292.954
292.951
292.985
293.027
293.012
292.969
292.935
292.932
292.966
293.007
292.994
292.95
292.917
292.914
292.948
292.989
292.975
292.932
292.899
292.896
292.93
292.971
292.958
292.915
292.882
292.879
292.913
292.954
292.941
292.898
292.866
292.863
292.897
292.937
292.924
292.882
292.849
292.846
292.881
292.92
292.908
292.866
292.833
292.83
292.865
292.904
292.893
292.85
292.818
292.815
292.85
292.889
292.877
292.835
292.803
292.8
292.835
292.874
292.862
292.821
292.787
292.786
292.821
292.859
292.848
292.806
292.773
292.771
292.807
292.844
292.834
292.792
292.759
292.757
292.793
292.83
292.819
292.778
292.745
292.743
292.779
292.816
292.806
292.764
292.731
292.73
292.765
292.803
292.792
292.751
292.717
292.716
292.752
292.789
292.779
292.738
292.704
292.703
292.739
292.776
292.765
292.725
292.691
292.689
292.726
292.763
292.752
292.712
292.677
292.678
292.713
292.75
292.739
292.699
292.665
292.664
292.701
292.737
292.727
292.686
292.652
292.652
292.688
292.725
292.714
292.674
292.639
292.639
292.676
292.712
292.702
292.662
292.627
292.628
292.664
292.7
292.689
292.65
292.614
292.615
292.652
292.688
292.677
292.638
292.602
292.604
292.64
292.676
292.665
292.626
292.59
292.591
292.628
292.664
292.653
292.614
292.578
292.58
292.616
292.652
292.642
292.602
292.567
292.567
292.605
292.64
292.63
292.591
292.555
292.557
292.593
292.629
292.619
292.58
292.543
292.545
292.582
292.618
292.608
292.568
292.532
292.534
292.571
292.607
292.596
292.557
292.52
292.522
292.56
292.595
292.585
292.546
292.509
292.512
292.549
292.584
292.574
292.535
292.498
292.499
292.537
292.573
292.563
292.524
292.486
292.489
292.526
292.562
292.552
292.512
292.475
292.477
292.515
292.551
292.54
292.501
292.464
292.466
292.504
292.54
292.529
292.49
292.452
292.454
292.492
292.528
292.518
292.478
292.441
292.444
292.481
292.517
292.507
292.467
292.429
292.431
292.47
292.506
292.496
292.456
292.418
292.422
292.46
292.495
292.485
292.446
292.407
292.41
292.449
292.485
292.475
292.436
292.397
292.399
292.44
292.474
292.466
292.426
292.387
292.388
292.429
292.465
292.459
292.417
292.378
292.378
292.421
292.457
292.452
292.41
292.369
292.372
292.412
292.451
292.446
292.402
292.361
292.358
292.403
292.444
292.438
292.396
292.343
292.29
292.372
292.418
292.379
292.343
292.26
292.261
292.328
292.349
292.166
291.603
291.324
291.235
290.797
290.417
290.146
290.025
289.737
289.554
289.223
288.95
288.727
288.541
288.393
288.285
288.21
288.161
288.128
288.106
288.091
288.081
288.074
288.069
288.065
288.062
288.06
288.059
288.058
288.057
288.057
288.056
288.056
288.056
288.055
288.054
288.054
288.053
288.052
288.051
288.05
288.05
288.049
288.048
288.048
288.048
288.047
288.045
288.044
288.043
288.044
288.048
288.055
288.064
288.076
288.091
288.109
288.13
288.154
288.181
288.211
288.245
288.284
288.327
288.376
288.431
288.492
288.559
288.635
288.719
288.811
288.914
289.026
289.149
289.284
289.429
289.587
289.757
289.938
290.131
290.335
290.548
290.771
291.002
291.239
291.481
291.728
291.976
292.226
292.475
292.722
292.966
293.206
293.442
293.671
293.894
294.11
294.319
294.52
294.714
294.899
295.077
295.247
295.409
295.564
295.711
295.851
295.984
296.111
296.231
296.345
296.453
296.556
296.653
296.745
296.832
296.915
296.993
297.067
297.137
297.204
297.266
297.326
297.382
297.434
297.484
297.531
297.575
297.616
297.655
297.692
297.726
297.759
297.789
297.818
297.844
297.87
297.893
297.915
297.936
297.955
297.973
297.989
298.003
298.017
298.029
298.04
298.05
298.058
298.065
298.071
298.077
298.081
298.083
298.085
298.085
298.085
298.085
298.085
298.086
298.087
298.091
298.098
298.106
298.116
298.125
298.136
298.147
298.158
298.171
298.184
298.197
298.211
298.226
298.241
298.257
298.273
298.29
298.307
298.324
298.342
298.36
298.378
298.396
298.415
298.433
298.452
298.47
298.489
298.508
298.526
298.545
298.563
298.581
298.599
298.617
298.634
298.651
298.668
298.684
298.699
298.715
298.729
298.743
298.757
298.77
298.782
298.793
298.804
298.815
298.824
298.833
298.84
298.845
298.847
298.848
298.849
298.849
298.849
298.849
298.852
298.854
298.857
298.86
298.863
298.867
298.87
298.875
298.879
298.884
298.888
298.893
298.898
298.903
298.909
298.914
298.92
298.926
298.932
298.938
298.945
298.952
298.959
298.967
298.975
298.983
298.991
298.999
299.008
299.017
299.025
299.034
299.043
299.052
299.061
299.07
299.081
299.091
299.102
299.113
299.126
299.138
299.152
299.165
299.18
299.194
299.209
299.223
299.239
299.253
299.268
299.282
299.298
299.312
299.328
299.344
299.361
299.379
299.398
299.417
299.438
299.459
299.482
299.504
299.527
299.55
299.572
299.595
299.615
299.637
299.649
299.652
299.668
299.727
299.836
299.925
299.983
300.113
300.385
300.421
300.386
300.382
300.366
300.37
300.359
300.362
300.355
300.359
300.359
300.363
300.362
300.362
300.359
300.357
300.351
300.347
300.341
300.337
300.334
300.333
300.333
300.333
300.333
300.334
300.335
300.337
300.34
300.344
300.348
300.356
300.363
300.374
300.383
300.396
300.406
300.418
300.428
300.438
300.447
300.454
300.46
300.463
300.44
300.385
300.385
300.438
300.433
300.386
300.401
300.434
300.427
300.395
300.33
300.338
300.33
300.33
300.275
300.276
300.276
300.238
300.229
300.227
300.187
300.189
300.194
300.234
300.265
300.351
300.402
300.422
300.414
300.396
300.396
300.407
300.399
300.39
300.361
300.365
300.388
300.391
300.384
300.384
300.379
300.376
300.372
300.377
300.367
300.367
300.372
300.365
300.362
300.371
300.365
300.357
300.355
300.365
300.364
300.362
300.36
300.351
300.35
300.359
300.355
300.347
300.346
300.355
300.358
300.352
300.351
300.345
300.344
300.35
300.347
300.343
300.344
300.347
300.346
300.344
300.347
300.346
300.349
300.348
300.35
300.352
300.355
300.352
300.344
300.357
300.352
300.356
300.359
300.358
300.354
300.358
300.361
300.362
300.358
300.342
300.35
300.354
300.356
300.369
300.351
300.352
300.361
300.379
300.254
300.018
300.354
300.359
300.375
300.378
300.314
300.378
300.391
300.198
299.805
299.7
299.925
300.322
300.208
299.864
299.746
299.941
299.829
299.742
299.668
299.652
299.706
299.777
299.741
299.691
299.671
299.694
299.669
299.656
299.626
299.602
299.648
299.658
299.648
299.635
299.625
299.643
299.624
299.606
299.574
299.542
299.592
299.607
299.585
299.567
299.55
299.564
299.54
299.524
299.505
299.463
299.504
299.518
299.494
299.479
299.458
299.472
299.448
299.434
299.421
299.38
299.414
299.427
299.405
299.392
299.374
299.386
299.366
299.354
299.342
299.307
299.337
299.349
299.331
299.319
299.303
299.315
299.299
299.287
299.275
299.244
299.272
299.284
299.268
299.256
299.241
299.254
299.238
299.225
299.214
299.184
299.21
299.223
299.208
299.195
299.18
299.193
299.178
299.165
299.154
299.125
299.151
299.163
299.149
299.136
299.122
299.135
299.121
299.109
299.098
299.073
299.096
299.108
299.096
299.084
299.072
299.084
299.073
299.061
299.05
299.03
299.05
299.063
299.053
299.041
299.031
299.043
299.034
299.022
299.011
298.994
299.013
299.025
299.016
299.004
298.995
299.007
298.999
298.987
298.977
298.961
298.978
298.99
298.982
298.97
298.962
298.973
298.965
298.954
298.945
298.93
298.946
298.957
298.949
298.939
298.932
298.942
298.935
298.925
298.917
298.905
298.918
298.928
298.922
298.913
298.907
298.915
298.91
298.902
298.895
298.886
298.896
298.904
298.899
298.892
298.887
298.894
298.89
298.883
298.878
298.871
298.879
298.885
298.881
298.875
298.871
298.876
298.873
298.868
298.865
298.859
298.864
298.869
298.865
298.861
298.859
298.862
298.859
298.856
298.855
298.852
298.854
298.856
298.854
298.852
298.851
298.852
298.85
298.85
298.849
298.849
298.851
298.854
298.858
298.862
298.868
298.874
298.881
298.889
298.899
298.91
298.922
298.936
298.951
298.967
298.983
299
299.018
299.037
299.059
299.082
299.108
299.136
299.165
299.194
299.223
299.253
299.284
299.317
299.352
299.389
299.428
299.466
299.501
299.531
299.559
299.585
299.61
299.628
299.64
299.667
299.732
299.857
300.065
300.253
300.334
300.34
300.335
300.335
300.342
300.345
300.344
300.338
300.328
300.317
300.305
300.288
300.24
300.213
300.179
300.17
300.158
300.155
300.134
300.138
300.147
300.142
300.129
300.124
300.12
300.126
300.139
300.165
300.201
300.217
300.18
300.149
300.133
300.125
300.137
300.144
300.16
300.181
300.162
300.153
300.172
300.18
300.196
300.221
300.255
300.283
300.247
300.23
300.256
300.263
300.284
300.303
300.302
300.28
300.3
300.275
300.306
300.326
300.342
300.321
300.333
300.319
300.322
300.332
300.329
300.332
300.334
300.332
300.33
300.314
300.331
300.337
300.34
300.347
300.327
300.331
300.327
300.318
300.304
300.284
300.258
300.219
300.2
300.192
300.21
300.217
300.233
300.249
300.234
300.229
300.246
300.246
300.257
300.276
300.288
300.278
300.276
300.274
300.266
300.261
300.269
300.314
300.342
300.343
300.369
300.335
300.375
300.365
300.359
300.385
300.386
300.365
300.29
300.277
300.34
300.369
300.393
300.394
300.396
300.314
300.285
300.275
300.272
300.263
300.259
300.272
300.273
300.292
300.291
300.284
300.273
300.227
300.229
300.249
300.25
300.264
300.264
300.247
300.254
300.25
300.249
300.256
300.258
300.262
300.272
300.277
300.286
300.312
300.328
300.298
300.293
300.27
300.256
300.247
300.243
300.237
300.234
300.241
300.242
300.233
300.229
300.231
300.225
300.233
300.241
300.229
300.221
300.222
300.218
300.21
300.201
300.21
300.207
300.219
300.201
300.19
300.17
300.204
300.203
300.262
300.25
300.315
300.283
300.321
300.279
300.181
300.268
300.314
300.331
300.328
300.276
300.171
300.295
300.198
299.979
299.8
299.983
300.162
300.017
299.822
299.686
299.607
299.706
299.877
300.076
300.207
300.155
300.231
300.173
300.173
300.186
300.185
300.147
300.16
300.141
300.143
300.156
300.159
300.174
300.177
300.191
300.194
300.185
300.197
300.179
300.166
300.161
300.149
300.143
300.132
300.126
300.115
300.127
300.126
300.116
300.103
300.11
300.1
300.116
300.141
300.134
300.109
300.108
300.094
300.092
300.088
300.104
300.105
300.132
300.128
300.158
300.131
300.09
300.094
300.118
300.107
300.109
300.107
300.103
300.084
300.087
300.089
300.101
300.09
300.056
300.099
300.103
300.102
300.108
300.1
300.09
300.091
300.099
300.094
300.098
300.091
300.076
300.067
300.069
300.064
300.061
300.029
300.031
300
299.817
299.635
299.532
299.437
299.497
299.681
300.04
299.943
299.864
300.041
300.01
300.011
300.02
299.921
299.892
299.843
299.819
299.554
299.585
299.585
299.64
299.496
299.62
299.547
299.382
299.511
299.762
299.897
299.181
299.13
299.182
299.393
299.338
299.132
299.19
298.888
298.834
298.495
298.531
298.249
298.404
298.754
298.781
298.98
299.118
299.328
299.432
299.468
299.348
299.269
298.991
298.675
298.702
298.414
298.461
298.15
297.573
297.564
297.603
297.721
297.727
297.823
297.855
298.065
298.409
298.302
298.617
298.472
298.748
298.636
298.723
298.954
298.797
298.958
298.87
298.924
299.066
298.953
299.073
298.95
299.069
298.956
299.014
299.087
299.012
299.073
298.994
299.062
298.966
299.039
298.947
299.015
298.924
298.95
299.001
298.917
298.966
298.891
298.947
298.875
298.919
298.843
298.896
298.812
298.845
298.766
298.818
298.732
298.766
298.682
298.73
298.643
298.678
298.591
298.636
298.549
298.583
298.496
298.535
298.459
298.486
298.398
298.443
298.382
298.322
298.272
298.352
298.31
298.401
298.369
298.447
298.407
298.497
298.462
298.544
298.5
298.586
298.549
298.633
298.584
298.665
298.625
298.709
298.654
298.734
298.693
298.77
298.718
298.793
298.749
298.828
298.782
298.856
298.825
298.725
298.59
298.633
298.54
298.702
298.662
298.583
298.49
298.609
298.527
298.43
298.582
298.54
298.46
298.368
298.462
298.39
298.293
298.431
298.374
298.308
298.214
298.279
298.224
298.131
298.249
298.184
298.221
298.275
298.33
298.249
298.307
298.2
298.23
298.137
298.179
298.074
298.115
298.018
298.05
297.967
298.004
297.948
297.863
297.828
297.915
297.877
297.976
297.947
298.027
297.99
298.095
298.057
298.133
298.087
298.184
298.155
298.039
298.038
297.95
297.934
297.84
297.814
297.733
297.761
297.823
297.877
297.758
297.802
297.698
297.731
297.628
297.661
297.561
297.609
297.5
297.415
297.449
297.355
297.38
297.29
297.306
297.201
297.208
297.135
297.141
297.054
297.037
297.024
297.129
297.106
297.196
297.183
297.264
297.249
297.326
297.319
297.408
297.475
297.46
297.535
297.522
297.596
297.584
297.661
297.647
297.714
297.696
297.639
297.632
297.587
297.508
297.58
297.513
297.463
297.367
297.455
297.385
297.318
297.235
297.19
297.078
297.028
296.924
296.939
296.964
296.974
296.872
296.868
296.786
296.79
296.69
296.696
296.606
296.617
296.529
296.526
296.508
296.438
296.425
296.326
296.315
296.227
296.218
296.103
296.102
296.014
295.906
295.885
295.777
295.772
295.65
295.643
295.544
295.518
295.401
295.386
295.27
295.294
295.166
295.146
295.115
295.019
294.975
294.841
294.787
294.655
294.647
294.493
294.49
294.284
294.155
294.104
293.956
293.921
293.754
293.671
293.515
293.42
293.298
293.217
293.079
292.957
292.797
292.665
292.522
292.394
292.256
292.121
291.878
291.733
291.559
291.502
291.25
291.375
291.244
291.028
290.818
290.615
290.39
290.204
290.013
289.767
289.502
289.134
289.063
288.71
288.519
287.922
287.893
287.309
287.299
286.601
286.61
285.792
285.798
285.212
284.283
284.355
283.271
283.395
282.03
281.99
281.081
280.263
279.88
278.981
277.755
277.63
276.246
275.339
274.468
275.412
274.814
275.431
276.471
278.415
280.76
282.562
283.922
284.71
285.551
286.122
286.752
287.186
287.677
288.06
288.474
288.818
289.157
289.45
289.717
289.973
290.198
290.438
290.635
290.858
291.025
291.222
291.357
291.529
291.643
291.799
291.898
292.043
292.129
292.262
292.329
292.452
292.501
292.616
292.651
292.758
292.784
292.885
292.904
292.991
293.003
293.082
293.089
293.152
293.16
293.211
293.221
293.256
293.267
293.293
293.306
293.317
293.333
293.334
293.348
293.34
293.354
293.343
293.355
293.337
293.35
293.33
293.341
293.317
293.329
293.302
293.313
293.284
293.296
293.265
293.277
293.244
293.256
293.222
293.234
293.199
293.212
293.177
293.189
293.152
293.166
293.129
293.143
293.105
293.12
293.083
293.097
293.059
293.075
293.038
293.053
293.015
293.031
292.995
293.01
292.972
292.989
292.952
292.968
292.931
292.948
292.912
292.928
292.892
292.908
292.873
292.889
292.854
292.87
292.837
292.852
292.818
292.834
292.801
292.816
292.783
292.799
292.767
292.782
292.75
292.765
292.734
292.749
292.717
292.733
292.702
292.717
292.686
292.701
292.671
292.686
292.656
292.671
292.642
292.656
292.627
292.642
292.613
292.627
292.598
292.613
292.585
292.599
292.571
292.585
292.558
292.572
292.544
292.558
292.531
292.545
292.518
292.532
292.506
292.519
292.492
292.506
292.48
292.494
292.467
292.481
292.456
292.469
292.443
292.457
292.431
292.445
292.419
292.432
292.407
292.42
292.395
292.408
292.384
292.396
292.371
292.384
292.36
292.372
292.347
292.36
292.336
292.348
292.323
292.336
292.312
292.325
292.3
292.313
292.289
292.302
292.277
292.291
292.267
292.28
292.255
292.268
292.249
292.242
292.246
292.22
292.191
291.641
291.662
291.343
291.789
291.742
291.484
291.85
291.818
291.563
291.894
291.854
291.62
291.921
291.88
291.652
291.938
291.893
291.669
291.953
291.908
291.687
291.964
291.918
291.691
291.978
291.933
291.715
291.988
291.942
291.71
292.003
291.956
291.74
292.011
291.965
291.731
292.026
291.979
291.761
292.034
291.988
291.75
292.05
292.002
291.781
292.057
292.01
291.77
292.072
292.024
291.8
292.08
292.032
291.788
292.095
292.046
291.819
292.103
292.054
291.806
292.118
292.068
291.837
292.125
292.076
291.825
292.141
292.09
291.855
292.148
292.098
291.843
292.164
292.112
291.873
292.171
292.12
291.86
292.187
292.134
291.89
292.195
292.143
291.877
292.21
292.156
291.907
292.218
292.165
291.894
292.234
292.179
291.923
292.242
292.187
291.91
292.257
292.201
291.939
292.265
292.209
291.926
292.28
292.222
291.953
292.288
292.23
291.94
292.304
292.244
291.966
292.312
292.252
291.954
292.327
292.265
291.978
292.335
292.272
291.966
292.35
292.285
291.989
292.357
292.292
291.977
292.372
292.304
291.997
292.379
292.31
291.985
292.392
292.321
292.003
292.398
292.327
291.992
292.41
292.336
292.005
292.416
292.34
291.995
292.427
292.349
292.005
292.431
292.352
291.994
292.441
292.359
292.003
292.444
292.36
291.99
292.452
292.365
291.996
292.452
292.363
291.982
292.457
292.365
291.985
292.455
292.359
291.967
292.456
292.358
291.968
292.451
292.348
291.946
292.448
292.343
291.945
292.439
292.329
291.919
292.433
292.319
291.914
292.419
292.301
291.883
292.408
292.285
291.874
292.388
292.26
291.838
292.371
292.238
291.825
292.343
292.205
291.785
292.319
292.175
291.765
292.283
292.134
291.719
292.25
292.095
291.698
292.203
292.044
291.638
292.16
291.995
291.611
292.103
291.934
291.54
292.05
291.874
291.506
291.982
291.803
291.426
291.919
291.734
291.383
291.841
291.654