/*--------------------------------*- C++ -*----------------------------------*\
| =========                 |                                                 |
| \\      /  F ield         | OpenFOAM: The Open Source CFD Toolbox           |
|  \\    /   O peration     | Version:  v2006                                 |
|   \\  /    A nd           | Website:  www.openfoam.com                      |
|    \\/     M anipulation  |                                                 |
\*---------------------------------------------------------------------------*/
FoamFile
{
    version     2.0;
    format      ascii;
    class       volScalarField;
    location    "0.036";
    object      turbulenceProperties:I;
}
// * * * * * * * * * * * * * * * * * * * * * * * * * * * * * * * * * * * * * //

dimensions      [0 0 0 0 0 0 0];


internalField   nonuniform List<scalar> 
9148
(
0.149989
0.14999
0.149993
0.149995
0.149995
0.149995
0.15
0.150013
0.150023
0.150026
0.150024
0.15002
0.150016
0.150013
0.15001
0.150008
0.150007
0.150006
0.150005
0.150004
0.150003
0.150003
0.150002
0.150002
0.150002
0.150002
0.150002
0.150003
0.150003
0.150003
0.150003
0.150003
0.150002
0.150002
0.150001
0.150001
0.15
0.15
0.149999
0.149999
0.149999
0.149999
0.15
0.15
0.15
0.150001
0.150001
0.150001
0.150001
0.150001
0.150001
0.150001
0.15
0.149999
0.149998
0.149996
0.149994
0.149997
0.150008
0.150029
0.150044
0.150041
0.150019
0.149994
0.149986
0.149973
0.149965
0.149972
0.149987
0.149835
0.149176
0.144445
0.137328
0.144942
0.148428
0.145862
0.139628
0.131937
0.127603
0.134717
0.1431
0.140082
0.130302
0.12419
0.121658
0.126715
0.137558
0.134706
0.123282
0.119481
0.118058
0.120986
0.132794
0.130439
0.118409
0.116615
0.11583
0.117154
0.129029
0.127017
0.115162
0.114844
0.114421
0.114504
0.126015
0.124327
0.112978
0.11374
0.113525
0.112651
0.123599
0.122157
0.111451
0.11304
0.112952
0.111313
0.121629
0.120385
0.110371
0.112608
0.112603
0.110346
0.120012
0.118927
0.109602
0.112355
0.112408
0.10966
0.118678
0.117725
0.109062
0.112231
0.112326
0.109186
0.117574
0.116739
0.108701
0.112202
0.112332
0.108877
0.11666
0.115939
0.108483
0.11225
0.112409
0.108708
0.115923
0.1153
0.108389
0.112361
0.112547
0.10866
0.115343
0.114806
0.108407
0.11253
0.112741
0.10872
0.114906
0.114448
0.108525
0.112751
0.112985
0.108881
0.114601
0.114215
0.108738
0.113019
0.113276
0.109136
0.114421
0.114103
0.10904
0.113332
0.113611
0.10948
0.114362
0.114107
0.109429
0.113687
0.11399
0.109915
0.114421
0.11423
0.109906
0.114087
0.114417
0.110442
0.114602
0.114476
0.11048
0.114537
0.114902
0.111073
0.114913
0.114857
0.111161
0.11505
0.115456
0.111821
0.115367
0.115386
0.111965
0.115639
0.116095
0.112703
0.11598
0.116082
0.112911
0.11632
0.116834
0.11374
0.116771
0.116964
0.114019
0.117106
0.117688
0.114953
0.117761
0.118053
0.11531
0.118011
0.118668
0.116364
0.118971
0.119372
0.11681
0.11905
0.119793
0.118002
0.120429
0.120954
0.118552
0.120242
0.12109
0.119909
0.122174
0.122844
0.120581
0.121621
0.122599
0.12214
0.12426
0.125105
0.122966
0.123238
0.12439
0.124783
0.12677
0.127844
0.125815
0.125182
0.126576
0.127977
0.129835
0.131215
0.129293
0.127599
0.129337
0.131931
0.133651
0.135464
0.133661
0.130726
0.132963
0.136982
0.13853
0.140993
0.139406
0.134993
0.137991
0.143609
0.144992
0.148515
0.147308
0.141165
0.145552
0.152921
0.153895
0.159406
0.158956
0.150993
0.158442
0.167169
0.167085
0.176712
0.178269
0.169302
0.186782
0.191969
0.188901
0.208307
0.218041
0.228362
0.277882
0.240214
0.230847
0.250656
0.277892
0.302781
0.202444
0.80862
0.267814
0.591219
0.534738
0.198029
0.182039
0.395028
1
0.972906
0.33477
0.168683
0.156054
0.31046
0.729053
0.599268
0.229462
0.119654
0.115435
0.12075
0.208304
0.12416
0.113794
0.143175
0.16378
0.114768
0.11894
0.116896
0.112786
0.195419
0.184583
0.115315
0.119957
0.115067
0.114146
0.175054
0.158965
0.111167
0.111929
0.108393
0.107448
0.148355
0.139135
0.10406
0.105793
0.105679
0.103824
0.136212
0.136274
0.105746
0.106515
0.106788
0.107744
0.140142
0.147213
0.109494
0.107157
0.106696
0.108983
0.154741
0.157746
0.107015
0.107581
0.107393
0.106408
0.158491
0.156806
0.104892
0.107413
0.107089
0.10391
0.15406
0.150566
0.102462
0.106403
0.106151
0.101366
0.14687
0.143127
0.0996882
0.105348
0.105558
0.098513
0.139612
0.136304
0.096955
0.104851
0.105383
0.0962471
0.133353
0.130663
0.0949956
0.104874
0.105726
0.0946385
0.128372
0.126333
0.093865
0.105759
0.106883
0.0935658
0.124388
0.122752
0.0933309
0.107634
0.109092
0.0935422
0.121637
0.120356
0.0934938
0.110682
0.113039
0.0945188
0.119486
0.118733
0.094964
0.115401
0.118838
0.0968269
0.118437
0.118249
0.0977294
0.121927
0.127093
0.100837
0.118658
0.11907
0.10241
0.131128
0.139473
0.108249
0.120551
0.121931
0.112483
0.145564
0.16151
0.124682
0.125621
0.129412
0.138407
0.175969
0.211823
0.169079
0.139816
0.154129
0.216226
0.25393
0.391862
0.362973
0.2237
0.775152
0.853401
0.66083
0.495118
0.33981
0.268536
0.223288
0.195981
0.177764
0.165612
0.157919
0.152975
0.150978
0.151249
0.154088
0.159604
0.168562
0.181582
0.20225
0.232844
0.28832
0.410654
0.567569
0.630606
0.460745
0.323073
0.300064
0.385734
0.41276
0.284078
0.162159
0.141575
0.206042
0.219473
0.108816
0.149383
0.147726
0.0803021
0.170708
0.173059
0.0739689
0.151482
0.14944
0.0706825
0.167187
0.158621
0.0692534
0.153038
0.150978
0.0722246
0.172674
0.201679
0.0826505
0.149777
0.152258
0.166034
0.51246
0.579392
0.186931
0.1569
0.158364
0.180709
0.741817
0.831443
0.166787
0.160763
0.157907
0.13621
1
0.310965
0.177822
0.155844
0.169187
0.443453
0.227519
0.191468
0.20065
0.18975
0.356547
0.153847
0.17847
0.164941
0.135553
0.378264
0.234997
0.139676
0.164194
0.155101
0.132763
0.200124
0.189113
0.137422
0.157099
0.151447
0.131124
0.179408
0.175877
0.134496
0.15481
0.15105
0.129429
0.170568
0.168543
0.132519
0.155421
0.15298
0.1285
0.164916
0.163642
0.131734
0.158504
0.157092
0.128476
0.160928
0.160235
0.132876
0.164019
0.163543
0.130547
0.1582
0.157961
0.13668
0.171862
0.17172
0.135177
0.155359
0.154093
0.143891
0.18181
0.183045
0.143443
0.151259
0.152316
0.156803
0.198046
0.202721
0.158927
0.151482
0.155036
0.176721
0.222426
0.232058
0.183678
0.156109
0.16325
0.207291
0.257638
0.275416
0.220623
0.168294
0.183143
0.253856
0.312035
0.349078
0.282915
0.198652
0.234047
0.345359
0.402669
0.353928
0.267836
0.197058
0.250302
0.40441
0.485237
0.586697
0.483271
0.293798
0.395955
0.65731
0.779446
1
0.954738
0.550785
0.966885
1
1
1
1
1
1
1
1
0.831651
0.819359
0.562769
0.311027
0.449538
0.516328
0.386508
0.341946
0.234747
0.20386
0.275009
0.292755
0.223122
0.207407
0.152551
0.116115
0.13963
0.163806
0.148213
0.137163
0.107719
0.0939259
0.116603
0.119903
0.115022
0.110575
0.0923141
0.102787
0.10241
0.112911
0.109901
0.100987
0.115621
0.122755
0.111392
0.116158
0.117933
0.113935
0.127818
0.130918
0.107673
0.106629
0.113298
0.114689
0.130923
0.12831
0.109494
0.107304
0.11021
0.11264
0.125213
0.123821
0.10623
0.103687
0.106344
0.106894
0.118782
0.120414
0.105558
0.105068
0.0933511
0.0964483
0.121567
0.11421
0.0972953
0.0967763
0.0902562
0.0932002
0.115888
0.107578
0.0919674
0.0932702
0.090671
0.0908138
0.10709
0.114168
0.0861691
0.0820281
0.0840116
0.0840886
0.104784
0.110341
0.083138
0.0789742
0.0810371
0.0806929
0.100314
0.105447
0.0798146
0.0761529
0.0777175
0.0768762
0.095076
0.096968
0.0758419
0.0751183
0.069973
0.0761637
0.105742
0.0961635
0.0721235
0.0707176
0.0675128
0.0743093
0.103749
0.0927396
0.0683422
0.0678598
0.0651901
0.0720208
0.0999675
0.08992
0.0657382
0.0662965
0.0636085
0.0697757
0.0968183
0.0875894
0.0640782
0.0649499
0.0620111
0.0674093
0.09386
0.0842421
0.0624333
0.0634943
0.0608113
0.0622594
0.0879767
0.0969382
0.0690662
0.0595956
0.058154
0.0586985
0.0869599
0.0964878
0.0668857
0.057339
0.0564926
0.0562481
0.0848199
0.093207
0.0650639
0.0559109
0.0552187
0.0549633
0.0831917
0.0912755
0.0636319
0.0547797
0.0542592
0.0534612
0.0809713
0.089586
0.062446
0.0539321
0.0533344
0.0525902
0.0801619
0.08806
0.0614524
0.0529908
0.0522494
0.0514542
0.078466
0.087063
0.0607918
0.0522466
0.0514481
0.0507024
0.0776715
0.0855915
0.0598721
0.0513842
0.0502814
0.0497848
0.0766266
0.0852136
0.0593884
0.0506212
0.0494572
0.0490372
0.0760823
0.0840883
0.0586122
0.0498303
0.0485344
0.0482546
0.0752555
0.0839033
0.0584077
0.0492478
0.047863
0.0477134
0.0748667
0.083073
0.0577533
0.0485144
0.0469634
0.0468819
0.0740679
0.0829905
0.0575599
0.0480152
0.0462876
0.0464521
0.0741925
0.0828737
0.0569611
0.0474124
0.0451592
0.0453862
0.0743635
0.0845688
0.0580675
0.0469586
0.0456587
0.0499287
0.0821482
0.0728897
0.0417538
0.0465848
0.0464194
0.0523311
0.0779724
0.0697936
0.0446419
0.045731
0.0464437
0.0543588
0.0764794
0.0691637
0.0455598
0.0452783
0.0461657
0.054764
0.0764503
0.0688365
0.0449786
0.0444451
0.0455701
0.0545702
0.0767925
0.0693735
0.0445501
0.043876
0.0451953
0.0544996
0.0772812
0.0693461
0.043765
0.0431129
0.0446222
0.0542224
0.0777764
0.0700804
0.0429997
0.0423094
0.0444849
0.0553602
0.0799053
0.0778447
0.0475095
0.0427161
0.0430711
0.038843
0.0693756
0.0749341
0.0500706
0.0435329
0.0425433
0.0418142
0.0667888
0.0729941
0.051955
0.0436789
0.0420713
0.0427969
0.0657115
0.0726673
0.0523151
0.0434251
0.0415287
0.0423436
0.0652306
0.0729709
0.0521136
0.0430787
0.0409097
0.0417701
0.0661074
0.0748864
0.0530285
0.0429685
0.0413166
0.0459172
0.0733849
0.0660637
0.0375684
0.0413872
0.0421078
0.0485631
0.0718789
0.0645284
0.040577
0.0409417
0.0423499
0.0507886
0.0711708
0.0642465
0.0416281
0.0406154
0.0421954
0.0511801
0.0712863
0.0641246
0.0411353
0.0400878
0.0418615
0.0509629
0.0717192
0.0650277
0.0404487
0.039516
0.0417396
0.0517592
0.0734437
0.0718034
0.0446412
0.0397306
0.0394806
0.0360293
0.0647457
0.0708392
0.0473898
0.0404873
0.0390092
0.0388076
0.0632679
0.0700876
0.0495053
0.0406526
0.0388567
0.039918
0.0628255
0.0701513
0.0500639
0.0407999
0.0386095
0.0398212
0.0629985
0.0708997
0.0507255
0.0408483
0.0391639
0.0440523
0.0691442
0.0626124
0.0358119
0.0388568
0.0399508
0.0466661
0.0687679
0.0619148
0.0384597
0.0384997
0.0403056
0.0490636
0.0689313
0.0619009
0.0395485
0.0383984
0.0403813
0.0497945
0.0693347
0.0622336
0.0395866
0.0382625
0.0403531
0.0497002
0.0698785
0.0624721
0.0389465
0.037833
0.0402851
0.0502253
0.0705789
0.0688142
0.0433581
0.0381799
0.0375701
0.0346796
0.0620582
0.0682302
0.0461024
0.0389444
0.0371544
0.0374161
0.0610573
0.0680554
0.0483071
0.0391389
0.0372002
0.0384917
0.0609708
0.0685579
0.0490824
0.0394016
0.0373021
0.0387562
0.061601
0.069325
0.0491891
0.0395939
0.037074
0.0383743
0.0620384
0.0701791
0.0499181
0.0396558
0.0376644
0.0431649
0.0684971
0.0618363
0.0340558
0.0366093
0.0383065
0.0459205
0.0681686
0.0611205
0.0369448
0.0363808
0.0386581
0.0482916
0.0682101
0.0609675
0.0380428
0.0364399
0.0386939
0.0485472
0.0682982
0.060845
0.0378109
0.0363036
0.0388618
0.0486796
0.0689047
0.0618699
0.0377698
0.0363439
0.0391621
0.0495324
0.0699575
0.0679793
0.0426644
0.037068
0.035489
0.0331815
0.0606003
0.0664812
0.0450625
0.0372444
0.0353422
0.0360719
0.0596325
0.0665999
0.0473474
0.0376849
0.0356852
0.0373331
0.0595878
0.0666156
0.0478822
0.0380147
0.0357411
0.037292
0.0589569
0.06613
0.0475116
0.0379963
0.0356684
0.0371539
0.0591181
0.0668042
0.047664
0.0380898
0.0357495
0.0371562
0.0597387
0.0671524
0.0476434
0.0381289
0.0354926
0.0367674
0.0592331
0.0665554
0.0471293
0.0378631
0.0351223
0.0364313
0.0591084
0.0671169
0.047289
0.037846
0.035079
0.0364578
0.0598292
0.0674772
0.0472261
0.0378148
0.0347218
0.0358977
0.0592553
0.0668999
0.0466012
0.0375427
0.0342771
0.0355495
0.0595209
0.0681774
0.0479276
0.0379206
0.0350193
0.0413354
0.0666187
0.0592461
0.0313529
0.0328207
0.0348891
0.0433213
0.0645447
0.056609
0.03357
0.0327488
0.035211
0.0451485
0.0633569
0.0565408
0.0360309
0.0333448
0.032847
0.03806
0.0609998
0.0683924
0.050676
0.0381649
0.033718
0.03617
0.0582794
0.066457
0.0470145
0.0371545
0.0331354
0.0348708
0.0585102
0.0662873
0.0459595
0.0364188
0.0326398
0.0341041
0.0577716
0.0645374
0.0445526
0.0354631
0.0317758
0.0331252
0.0559046
0.0639079
0.0446126
0.0350904
0.0317814
0.0335409
0.0562401
0.0631759
0.0440779
0.034786
0.0312151
0.0323489
0.0534415
0.0604432
0.0431963
0.0339931
0.0309609
0.0337654
0.053828
0.0583538
0.0353367
0.0303826
0.035549
0.047545
0.0654462
0.0552099
0.0329701
0.030594
0.0342783
0.0441627
0.0636651
0.0548189
0.0318101
0.0299847
0.0326263
0.0417856
0.0609686
0.0516243
0.0313842
0.0288608
0.0280918
0.032621
0.0555441
0.0630767
0.0457276
0.0331425
0.0284383
0.0316906
0.0525151
0.0558062
0.0319034
0.0274108
0.0327024
0.0456562
0.0640718
0.0516913
0.0301409
0.0275158
0.0268988
0.033482
0.0560612
0.0584584
0.0309265
0.0260112
0.0334593
0.0486015
0.0681356
0.0558521
0.0310743
0.0273706
0.0267949
0.0329272
0.0595842
0.06691
0.0376064
0.0278719
0.0285131
0.0394925
0.0758284
0.0895581
0.0445329
0.0308858
0.0334672
0.049503
0.102506
0.112059
0.0559819
0.0362682
0.0377362
0.0591429
0.115951
0.117607
0.0631081
0.0394077
0.040548
0.0658511
0.118545
0.119114
0.0694498
0.042332
0.0434908
0.0726279
0.119244
0.119112
0.0762285
0.0456163
0.0469943
0.0798241
0.118934
0.118833
0.083113
0.0500035
0.0517461
0.0861337
0.118882
0.118978
0.089075
0.0554739
0.0573473
0.0919178
0.119197
0.11939
0.0947163
0.0611859
0.0631045
0.0974597
0.119687
0.119916
0.100094
0.0670394
0.068998
0.102702
0.120285
0.120545
0.10516
0.0729216
0.0747634
0.107622
0.120985
0.121254
0.109874
0.0784927
0.080249
0.112141
0.121785
0.12201
0.11415
0.083745
0.0853463
0.116177
0.122649
0.122676
0.117902
0.0885966
0.0900672
0.119634
0.12344
0.12344
0.121054
0.0930325
0.094314
0.122368
0.124002
0.124063
0.123475
0.0969697
0.0979688
0.124483
0.12443
0.124476
0.12529
0.100257
0.100956
0.125988
0.124677
0.124645
0.126497
0.10287
0.103314
0.126966
0.12472
0.124611
0.127236
0.104896
0.105104
0.127465
0.12463
0.124411
0.127535
0.106376
0.106404
0.127597
0.124359
0.124092
0.127518
0.107426
0.107341
0.127416
0.124005
0.123664
0.127216
0.108081
0.107907
0.127007
0.123532
0.123172
0.126724
0.108453
0.10815
0.126405
0.123029
0.122618
0.126043
0.108564
0.10812
0.125659
0.122443
0.122033
0.125242
0.108441
0.107887
0.124789
0.121855
0.12141
0.124312
0.1081
0.107494
0.123826
0.121209
0.120779
0.123311
0.107617
0.106973
0.122786
0.120582
0.12013
0.12223
0.107005
0.106337
0.121693
0.119915
0.119488
0.121118
0.106312
0.10563
0.120564
0.119282
0.118843
0.119966
0.105541
0.104854
0.119416
0.118625
0.118217
0.118816
0.104731
0.104044
0.118263
0.118011
0.117601
0.117658
0.10388
0.103199
0.117119
0.117387
0.117009
0.116523
0.103015
0.102343
0.115988
0.116809
0.116435
0.115399
0.102137
0.101473
0.114887
0.11623
0.115885
0.114314
0.101261
0.100609
0.11381
0.115694
0.115361
0.113256
0.100387
0.0997557
0.112779
0.115172
0.114867
0.112247
0.0995114
0.0988974
0.111775
0.114689
0.114395
0.111263
0.0986388
0.0980455
0.110816
0.114219
0.113953
0.110325
0.0977861
0.0971999
0.109885
0.113787
0.113535
0.109421
0.0969466
0.0963902
0.109009
0.113371
0.113142
0.108566
0.0961393
0.0955926
0.108161
0.112989
0.112772
0.107739
0.0953449
0.0948117
0.10736
0.11262
0.112425
0.106958
0.0945753
0.0940548
0.106586
0.112281
0.112099
0.106208
0.0938305
0.093326
0.105862
0.111959
0.111796
0.105507
0.0931158
0.0926246
0.105167
0.111664
0.111513
0.104836
0.0924285
0.0919531
0.104523
0.111383
0.111249
0.104214
0.0917737
0.091311
0.103905
0.111128
0.111004
0.103622
0.0911478
0.0907004
0.103336
0.110886
0.110777
0.103075
0.0905542
0.0901181
0.102792
0.110667
0.110566
0.102555
0.0899923
0.0895615
0.102294
0.11046
0.110372
0.102077
0.0894607
0.0890327
0.101816
0.110273
0.110192
0.101621
0.0889587
0.0885343
0.101381
0.110095
0.110025
0.101203
0.0884821
0.0880599
0.100961
0.109935
0.10987
0.100805
0.0880329
0.0876139
0.100582
0.109783
0.109728
0.100441
0.087606
0.0871888
0.100216
0.109646
0.109596
0.100093
0.0872035
0.0867897
0.0998854
0.109516
0.109473
0.0997742
0.0868199
0.086409
0.0995631
0.109398
0.109358
0.0994676
0.0864576
0.0860526
0.0992733
0.109284
0.109252
0.0991882
0.0861112
0.0857134
0.0989895
0.109182
0.109153
0.0989181
0.0857831
0.0853982
0.0987368
0.109084
0.109061
0.0986725
0.0854695
0.0850965
0.0984895
0.108996
0.108975
0.0984332
0.0851746
0.0848135
0.0982667
0.10891
0.108894
0.0982161
0.0848922
0.0845415
0.0980468
0.108833
0.108819
0.0980034
0.084627
0.0842867
0.0978497
0.108757
0.108748
0.0978111
0.0843722
0.084041
0.0976536
0.10869
0.108682
0.0976215
0.0841334
0.0838111
0.0974788
0.108623
0.108619
0.0974507
0.0839031
0.0835887
0.0973035
0.108564
0.108561
0.0972812
0.0836874
0.083381
0.0971482
0.108505
0.108506
0.0971294
0.083479
0.0831797
0.0969911
0.108452
0.108454
0.0969776
0.0832843
0.0829922
0.096853
0.1084
0.108405
0.0968423
0.0830957
0.0828096
0.0967118
0.108354
0.108359
0.0967059
0.0829196
0.0826398
0.0965886
0.108307
0.108316
0.096585
0.0827491
0.0824728
0.0964612
0.108265
0.108275
0.0964621
0.0825901
0.0823181
0.096351
0.108223
0.108236
0.096354
0.0824362
0.0821647
0.0962358
0.108187
0.108199
0.0962429
0.0822919
0.0820245
0.0961371
0.108149
0.108164
0.0961458
0.0821517
0.0818843
0.0960326
0.108116
0.108131
0.096045
0.0820202
0.0817567
0.0959439
0.108082
0.108099
0.0959576
0.0818921
0.0816283
0.0958486
0.108052
0.108069
0.0958657
0.081772
0.0815119
0.0957685
0.108021
0.108041
0.0957866
0.0816545
0.0813937
0.0956814
0.107994
0.108014
0.0957026
0.081544
0.0812869
0.0956089
0.107966
0.107988
0.0956307
0.0814345
0.0811775
0.0955285
0.107941
0.107962
0.0955531
0.0813329
0.0810796
0.0954623
0.107915
0.107938
0.0954871
0.0812318
0.0809778
0.0953873
0.107892
0.107914
0.0954147
0.0811372
0.0808863
0.0953259
0.107866
0.107891
0.0953532
0.0810422
0.0807906
0.095255
0.107844
0.107867
0.0952844
0.0809538
0.0807054
0.0951969
0.107819
0.107844
0.0952257
0.0808645
0.0806142
0.0951283
0.107797
0.10782
0.0951588
0.0807794
0.0805312
0.0950718
0.107772
0.107797
0.0951018
0.0806919
0.0804421
0.0950051
0.10775
0.107774
0.0950369
0.0806102
0.0803642
0.094951
0.107726
0.107751
0.0949826
0.0805288
0.0802818
0.0948873
0.107706
0.107731
0.0949211
0.0804532
0.0802091
0.0948373
0.107685
0.107713
0.0948716
0.0803762
0.080131
0.0947797
0.107669
0.107698
0.0948163
0.0803067
0.0800633
0.0947273
0.107654
0.107687
0.0947684
0.0802342
0.079993
0.0946922
0.107635
0.107672
0.0947327
0.0801672
0.0799269
0.0946486
0.107637
0.107689
0.0946974
0.0801043
0.0798365
0.0946037
0.107638
0.107708
0.0946568
0.0799684
0.0796284
0.094513
0.107612
0.107692
0.0945591
0.0796919
0.0792512
0.0943424
0.107528
0.107491
0.0943107
0.0791518
0.0781395
0.0935956
0.107116
0.106361
0.0924806
0.0766683
0.0755089
0.0915483
0.105589
0.0597911
0.0497184
0.0484097
0.0489991
0.051166
0.053857
0.0559346
0.056916
0.0599119
0.0610683
0.0605103
0.0596849
0.0584791
0.0573142
0.0564297
0.0558966
0.0556355
0.0555388
0.0555261
0.0555509
0.0555899
0.0556317
0.0556715
0.0557071
0.0557381
0.0557642
0.0557857
0.0558023
0.0558148
0.055823
0.055828
0.0558303
0.0558324
0.0558388
0.0558481
0.0558603
0.0558747
0.0558915
0.0559103
0.0559316
0.0559555
0.0559826
0.0560133
0.0560477
0.0560859
0.0561278
0.0561835
0.0562739
0.0564072
0.0565669
0.0567316
0.0568898
0.0570384
0.0571778
0.0573098
0.057436
0.0575581
0.0576777
0.0577963
0.0579157
0.0580378
0.0581645
0.058298
0.0584404
0.0585939
0.0587608
0.0589434
0.0591443
0.0593659
0.0596111
0.0598828
0.060184
0.0605179
0.0608878
0.0612971
0.061749
0.0622469
0.0627939
0.0633929
0.0640466
0.0647572
0.0655265
0.0663558
0.067246
0.0681973
0.0692093
0.0702814
0.0714122
0.0726
0.0738427
0.0751377
0.0764825
0.0778739
0.0793088
0.0807839
0.0822958
0.083841
0.085416
0.0870173
0.0886413
0.0902847
0.0919441
0.0936162
0.0952976
0.0969854
0.0986765
0.100368
0.102057
0.10374
0.105416
0.107082
0.108735
0.110373
0.111995
0.113597
0.115179
0.116738
0.118273
0.119781
0.121263
0.122715
0.124137
0.125527
0.126885
0.128209
0.129498
0.130751
0.131967
0.133147
0.134289
0.135392
0.136457
0.137484
0.138471
0.139419
0.140328
0.141198
0.142028
0.142818
0.143569
0.144279
0.14495
0.145581
0.146171
0.146722
0.147233
0.147704
0.148134
0.148525
0.148876
0.149184
0.149446
0.149648
0.149796
0.1499
0.149961
0.149984
0.149976
0.149961
0.14993
0.149906
0.149904
0.149917
0.149931
0.149938
0.149938
0.149935
0.149931
0.149928
0.149926
0.149925
0.149924
0.149924
0.149924
0.149925
0.149925
0.149926
0.149928
0.14993
0.149933
0.149937
0.14994
0.149944
0.149949
0.149953
0.149957
0.149962
0.149967
0.149972
0.149977
0.149982
0.149988
0.149995
0.150002
0.150009
0.150017
0.150026
0.150035
0.150044
0.150053
0.150063
0.150073
0.150084
0.150094
0.150106
0.150117
0.15013
0.150143
0.15016
0.150184
0.150223
0.150282
0.150347
0.150374
0.150306
0.150158
0.149966
0.149706
0.14897
0.148063
0.145658
0.144286
0.143252
0.141907
0.140993
0.139707
0.138928
0.137714
0.137064
0.135917
0.135386
0.134311
0.133888
0.132888
0.132559
0.13163
0.13139
0.130531
0.13037
0.12958
0.12949
0.128773
0.128743
0.1281
0.128129
0.127554
0.127642
0.127133
0.127279
0.126834
0.127038
0.126657
0.126921
0.126603
0.126932
0.126681
0.127079
0.126899
0.127376
0.127275
0.127841
0.127826
0.128492
0.128572
0.129348
0.12953
0.130429
0.130723
0.131758
0.132176
0.13337
0.133927
0.135306
0.136032
0.137641
0.138583
0.140487
0.14171
0.144004
0.145609
0.148434
0.150582
0.154164
0.157118
0.161834
0.166058
0.172574
0.178981
0.188138
0.198053
0.209631
0.217512
0.22771
0.237171
0.28623
0.386327
0.64635
1
1
0.284397
0.177457
0.147831
0.147138
0.14047
0.141187
0.138592
0.136443
0.136901
0.139278
0.140759
0.141321
0.140977
0.141302
0.141177
0.140461
0.140273
0.1388
0.13845
0.136705
0.136398
0.134831
0.134895
0.133886
0.134539
0.134452
0.135792
0.13674
0.138984
0.141182
0.144499
0.148163
0.153205
0.157932
0.165471
0.17143
0.182863
0.189999
0.209674
0.221661
0.259105
0.281731
0.374835
0.314304
0.27116
0.302129
0.296726
0.309766
0.333364
0.308452
0.276145
0.269493
0.307407
0.332939
0.327642
0.292302
0.241064
0.221725
0.271715
0.309783
0.301397
0.260272
0.21049
0.202095
0.246385
0.28582
0.340173
0.371606
0.31861
0.276245
0.242222
0.233432
0.272944
0.248875
0.215992
0.208816
0.247138
0.295325
0.273657
0.229405
0.197195
0.191617
0.228428
0.214848
0.183772
0.180142
0.215159
0.256887
0.245339
0.204061
0.174384
0.172741
0.206134
0.197417
0.168841
0.168674
0.200951
0.237741
0.235537
0.194428
0.166254
0.167314
0.199509
0.194979
0.166243
0.168753
0.20176
0.238721
0.247736
0.199231
0.168911
0.172751
0.207974
0.206754
0.173781
0.178595
0.217268
0.261398
0.276732
0.216616
0.179952
0.185341
0.228671
0.227877
0.186522
0.191982
0.241856
0.296211
0.353119
0.240633
0.192565
0.198702
0.263369
0.257553
0.198732
0.203775
0.29563
0.582931
1
0.275632
0.19825
0.204441
0.388061
0.399987
0.203209
0.208648
0.564353
0.440538
0.28481
0.767888
0.222243
0.233129
0.692426
0.642624
0.341845
0.44718
0.443404
0.255712
0.237618
0.401811
1
0.641118
0.328023
0.304189
0.46037
0.356987
0.258229
0.2269
0.219281
0.250641
0.28375
0.239557
0.224474
0.227521
0.228851
0.215459
0.212274
0.214112
0.211628
0.216295
0.215618
0.208527
0.206306
0.208103
0.205966
0.197936
0.198934
0.207844
0.202416
0.19841
0.192989
0.185296
0.189847
0.188996
0.181264
0.175087
0.181647
0.196105
0.189963
0.181045
0.1722
0.167315
0.174832
0.174572
0.165264
0.161313
0.169259
0.184328
0.179377
0.169286
0.15985
0.156576
0.164677
0.164924
0.155532
0.152762
0.160876
0.175075
0.171354
0.161289
0.152023
0.149637
0.157692
0.158225
0.149127
0.147042
0.154997
0.168124
0.165305
0.155617
0.146707
0.144864
0.152699
0.153386
0.144663
0.143018
0.150738
0.162836
0.160662
0.151467
0.142938
0.141471
0.149045
0.149812
0.141488
0.140175
0.147596
0.15875
0.157067
0.148394
0.140281
0.139108
0.146367
0.14719
0.139296
0.138251
0.145342
0.155586
0.15429
0.146187
0.138517
0.137589
0.144507
0.145371
0.137924
0.137101
0.143844
0.153182
0.152233
0.144718
0.137496
0.136766
0.143332
0.144208
0.137213
0.136566
0.14295
0.151423
0.150734
0.143823
0.137059
0.136489
0.142685
0.14355
0.137024
0.136526
0.142526
0.150151
0.149664
0.143381
0.1371
0.136671
0.142468
0.143311
0.137285
0.136925
0.142509
0.149266
0.14895
0.14334
0.137576
0.137284
0.142647
0.14347
0.13797
0.137742
0.142869
0.148708
0.148542
0.143679
0.138462
0.138297
0.143169
0.143962
0.139051
0.13895
0.143543
0.148443
0.148405
0.144316
0.139735
0.139699
0.143987
0.144735
0.140513
0.140544
0.144502
0.148426
0.148498
0.145212
0.141386
0.141488
0.145084
0.145742
0.142333
0.142525
0.145717
0.148616
0.148776
0.14632
0.143356
0.143646
0.146394
0.146942
0.144455
0.144835
0.147108
0.148977
0.149214
0.147601
0.145617
0.146085
0.147847
0.148286
0.146832
0.147367
0.148591
0.149469
0.149928
0.149896
0.149886
0.149915
0.14999
0.150112
0.150282
0.150505
0.150786
0.151126
0.151536
0.152026
0.152603
0.153271
0.154036
0.154905
0.155887
0.156996
0.158249
0.159664
0.161258
0.163052
0.165076
0.167352
0.169905
0.172763
0.175967
0.179562
0.183602
0.188137
0.193189
0.198733
0.204584
0.210385
0.215524
0.219503
0.222614
0.225225
0.228923
0.230933
0.235914
0.238662
0.252868
0.31379
0.442805
0.675875
0.699249
0.488489
0.402904
0.36636
0.348228
0.33995
0.340119
0.347084
0.356263
0.367174
0.374568
0.462562
0.409046
0.337345
0.284423
0.241945
0.198367
0.196758
0.23672
0.276849
0.284424
0.239079
0.198882
0.203054
0.240894
0.281225
0.341716
0.43853
0.458275
0.357649
0.297116
0.250432
0.210863
0.22114
0.2576
0.295285
0.317911
0.273103
0.23606
0.254925
0.286715
0.317565
0.375312
0.458928
0.537257
0.585606
0.549301
0.692399
0.501138
0.523207
0.53221
1
0.875113
1
0.782599
0.615924
0.686955
0.743396
1
1
1
0.531082
0.531884
1
0.920234
0.539746
0.569244
0.744156
0.489301
0.788601
1
0.623862
0.735196
0.415405
0.419679
0.431282
0.44886
0.448992
0.426277
0.382084
0.339228
0.309153
0.282344
0.312175
0.322907
0.337144
0.350052
0.347227
0.357915
0.400572
0.336783
0.328348
0.360783
0.366449
0.30721
0.303121
0.305049
0.311199
0.343646
0.47622
0.880049
0.755284
0.896278
0.525808
0.404483
0.34409
0.856065
1
0.41392
0.399814
1
0.38676
0.291901
0.966159
1
0.461084
0.628835
1
0.572282
0.436634
0.259096
0.247988
0.252473
0.253762
0.304183
0.307841
0.36344
0.35055
0.337421
0.329209
0.307425
0.300999
0.30201
0.299068
0.303797
0.302636
0.25609
0.258113
0.23134
0.219419
0.236212
0.223249
0.24636
0.241847
0.284701
0.322389
0.797104
1
0.436383
0.313143
0.248271
0.222528
0.216305
0.197534
0.199098
0.187573
0.216679
0.228391
0.216986
0.184849
0.192416
0.190768
0.228421
0.25804
0.257345
0.229439
0.218045
0.185191
0.192027
0.188181
0.22144
0.233107
0.260857
0.263559
0.269825
0.277996
0.312738
0.323245
0.335923
0.362156
0.405724
0.384055
0.480519
0.36441
0.292583
0.349667
0.503948
0.634144
0.625719
0.367346
0.298144
0.432123
0.338208
0.262763
0.241333
0.255164
0.284959
0.257195
0.24051
0.233585
0.228178
0.233861
0.25024
0.283931
0.332806
0.3709
0.397686
0.431589
0.390504
0.361237
0.338388
0.309235
0.290027
0.265486
0.251778
0.254331
0.241227
0.245663
0.2333
0.238135
0.226144
0.192952
0.195766
0.201522
0.199908
0.209265
0.208331
0.218619
0.218347
0.229647
0.231189
0.26504
0.282213
0.286642
0.25262
0.246775
0.273215
0.307952
0.337906
0.378016
0.345954
0.319189
0.284858
0.311718
0.333326
0.367284
0.403909
0.436336
0.513134
0.467857
0.474169
0.449859
0.567407
0.589598
0.647603
0.572975
0.502434
0.444782
0.41665
0.372276
0.483705
0.575772
0.555479
0.462581
0.673038
0.678569
0.816714
0.73276
0.752849
0.68868
0.916552
0.943105
1
0.857781
1
1
1
0.913111
0.659358
0.527307
0.415049
0.366342
0.299408
0.248546
0.228052
0.223938
0.214414
0.22043
0.24535
0.329402
0.325386
0.352027
0.465898
0.523009
0.610352
0.766933
0.450904
0.400632
0.336113
0.32522
0.239526
0.252835
0.249809
0.23106
0.203664
0.233116
0.212138
0.195381
0.228888
0.314344
0.422792
0.197753
0.168067
0.171622
0.191346
0.188955
0.173822
0.171182
0.157254
0.151436
0.145583
0.164704
0.128397
0.136089
0.144245
0.155401
0.166411
0.178011
0.192789
0.206852
0.213722
0.196711
0.197974
0.180257
0.167308
0.15704
0.141999
0.135948
0.12553
0.123124
0.117347
0.114366
0.11602
0.119079
0.122902
0.121431
0.122827
0.11428
0.125978
0.111043
0.127479
0.111661
0.123103
0.119213
0.0982675
0.119128
0.0991391
0.117192
0.109447
0.0855214
0.110678
0.0836469
0.110194
0.0829477
0.109016
0.0958438
0.0739875
0.0951417
0.0717624
0.0957558
0.0704422
0.0942273
0.0688327
0.0947104
0.0684772
0.0965436
0.0761737
0.0608048
0.0805696
0.0609029
0.0804692
0.0597156
0.0801143
0.0590033
0.0778446
0.0577269
0.0769456
0.0569199
0.0751161
0.055898
0.0737945
0.0549668
0.072205
0.0540071
0.0708688
0.0531243
0.0691586
0.0522545
0.0678095
0.0514126
0.065905
0.0505565
0.0640495
0.0494097
0.0607052
0.0507589
0.0543369
0.0798895
0.104005
0.0858368
0.105404
0.0906772
0.108838
0.0927458
0.109608
0.0959689
0.112635
0.0974653
0.113269
0.100296
0.11598
0.101671
0.116509
0.104205
0.118928
0.105261
0.11924
0.107563
0.121214
0.108294
0.121083
0.109955
0.122478
0.109279
0.121409
0.109528
0.120432
0.128632
0.141162
0.134643
0.139
0.130393
0.128087
0.132866
0.13673
0.126291
0.130784
0.133928
0.126608
0.123821
0.128088
0.131401
0.120971
0.125433
0.128222
0.120783
0.117591
0.122135
0.125337
0.11384
0.118922
0.121456
0.113218
0.10965
0.0977784
0.0690436
0.0502086
0.0656022
0.0496636
0.0631567
0.0486868
0.0619109
0.0480647
0.0596685
0.0470468
0.0585686
0.0462749
0.0547605
0.0465693
0.0498384
0.0715333
0.0919934
0.0743758
0.0927723
0.0811508
0.0976036
0.0820673
0.0979605
0.087192
0.102624
0.0879084
0.103525
0.0940546
0.108402
0.118362
0.110362
0.114505
0.10582
0.110881
0.101499
0.105788
0.0852936
0.0610884
0.0460601
0.0587626
0.0459145
0.0569199
0.0452073
0.0549407
0.0443401
0.0520492
0.0449888
0.0471339
0.0574901
0.0443599
0.0545117
0.043952
0.0522131
0.0431578
0.0506768
0.0424603
0.0478574
0.0426313
0.0439385
0.0601983
0.0805621
0.0628105
0.081792
0.0688835
0.085988
0.0704643
0.0870507
0.0768134
0.0919917
0.0805681
0.0662937
0.0876271
0.0712598
0.0897647
0.0763111
0.0935932
0.0790248
0.0947973
0.0835167
0.0961293
0.101876
0.113749
0.10731
0.108885
0.101541
0.0982487
0.103036
0.105703
0.0972935
0.0935911
0.0990158
0.101259
0.0937251
0.0980287
0.0895984
0.0928622
0.0742569
0.0526713
0.0418447
0.0510879
0.0418455
0.049269
0.041355
0.0471416
0.0421058
0.0431206
0.0570667
0.0723652
0.0516904
0.0414547
0.0484186
0.0409713
0.0470568
0.0406784
0.0452587
0.0400638
0.0438509
0.0404646