/*--------------------------------*- C++ -*----------------------------------*\
| =========                 |                                                 |
| \\      /  F ield         | OpenFOAM: The Open Source CFD Toolbox           |
|  \\    /   O peration     | Version:  v2006                                 |
|   \\  /    A nd           | Website:  www.openfoam.com                      |
|    \\/     M anipulation  |                                                 |
\*---------------------------------------------------------------------------*/
FoamFile
{
    version     2.0;
    format      ascii;
    class       volScalarField;
    location    "0.03";
    object      k;
}
// * * * * * * * * * * * * * * * * * * * * * * * * * * * * * * * * * * * * * //

dimensions      [0 2 -2 0 0 0 0];


internalField   nonuniform List<scalar> 
24416
(
220.503
220.501
220.532
220.532
220.532
220.534
220.538
220.542
220.547
220.552
220.559
220.566
220.574
220.583
220.593
220.604
220.616
220.629
220.643
220.659
220.661
220.627
220.514
220.292
219.969
219.569
219.122
218.65
218.168
217.683
217.197
216.71
216.22
215.724
215.222
214.712
214.195
213.67
213.138
212.599
212.053
211.502
210.945
210.384
209.818
209.248
208.675
208.099
207.52
206.938
206.355
205.77
205.184
204.598
204.011
203.425
202.84
202.256
201.674
201.094
200.517
199.943
199.372
198.805
198.243
197.685
197.133
196.586
196.045
195.51
194.982
194.46
193.947
193.441
192.943
192.455
191.976
191.507
191.048
190.598
190.156
189.719
189.283
188.845
188.403
187.958
187.519
187.109
186.761
186.516
186.389
186.364
186.399
186.46
186.53
186.604
186.675
186.729
186.773
186.798
186.777
186.694
186.538
186.189
185.582
184.779
183.727
181.745
178.634
162.758
145.408
169.966
179.403
174.292
157.997
131.168
120.07
147.996
168.688
162.194
137.493
110.563
103.648
130.412
156.629
150.319
122.49
97.5232
93.15
117.594
145.838
140.409
111.439
88.9481
85.7893
107.827
136.94
132.15
103.597
82.7601
80.5703
101.301
129.557
125.537
98.1303
78.3285
76.7352
96.5826
123.568
120.11
94.0745
75.0004
73.7826
92.9757
118.589
115.563
90.9261
72.3919
71.4145
90.0798
114.346
111.677
88.3768
70.2651
69.4485
87.6665
110.637
108.278
86.2192
68.4689
67.7662
85.6042
107.368
105.249
84.34
66.9098
66.2905
83.7945
104.44
102.515
82.6666
65.5263
64.97
82.1741
101.788
100.02
81.1514
64.2769
63.7695
80.7006
99.3597
97.7232
79.7617
63.1328
62.6653
79.3451
97.1188
95.5954
78.4759
62.0751
61.6401
78.0883
95.0386
93.6114
77.2762
61.0876
60.6785
76.9125
93.0954
91.7519
76.1493
60.1577
59.7712
75.8066
91.2716
90.0028
75.086
59.278
58.9107
74.7618
89.5546
88.3533
74.0792
58.4414
58.091
73.7715
87.9338
86.7935
73.123
57.6428
57.3071
72.8302
86.4001
85.3163
72.2125
56.8776
56.555
71.9334
84.9468
83.9148
71.3439
56.1423
55.8313
71.0773
83.5673
82.583
70.5135
55.4337
55.1331
70.2583
82.2559
81.3166
69.7182
54.7491
54.4578
69.4736
81.0087
80.1117
68.9556
54.0861
53.8032
68.721
79.8216
78.9639
68.2236
53.4428
53.1676
67.998
78.6897
77.8676
67.5194
52.8174
52.5493
67.302
77.6079
76.8183
66.8401
52.2082
51.9464
66.63
76.572
75.8131
66.1833
51.6136
51.3575
65.9798
75.579
74.8481
65.5469
51.0321
50.7809
65.3493
74.6252
73.9199
64.9286
50.4621
50.2154
64.7364
73.7074
73.0263
64.3268
49.9024
49.6596
64.1393
72.8235
72.165
63.7397
49.3518
49.1124
63.5566
71.971
71.3337
63.1663
48.8091
48.5727
62.9871
71.1475
70.5288
62.6049
48.2734
48.0396
62.429
70.3499
69.749
62.0539
47.7437
47.5121
61.8809
69.5764
68.9913
61.512
47.219
46.9892
61.3413
68.8247
68.2545
60.9776
46.6984
46.4699
60.809
68.0932
67.537
60.4499
46.1808
45.9533
60.283
67.3804
66.8365
59.9276
45.6656
45.4387
59.762
66.6839
66.151
59.4096
45.1518
44.9251
59.2448
66.002
65.4791
58.8946
44.6386
44.4119
58.7304
65.3333
64.8196
58.3817
44.1252
43.898
58.2177
64.6765
64.1713
57.8699
43.6108
43.3828
57.7059
64.0307
63.5331
57.3587
43.0947
42.8656
57.1944
63.3948
62.9042
56.8473
42.5762
42.3458
56.6826
62.7677
62.2834
56.3352
42.0548
41.8228
56.1698
62.1487
61.6705
55.8216
41.5298
41.296
55.6557
61.5372
61.0644
55.3065
41.0007
40.7648
55.14
60.9324
60.4641
54.7898
40.4672
40.229
54.6224
60.3331
59.8691
54.2707
39.9286
39.688
54.1022
59.7387
59.2779
53.7484
39.3845
39.1413
53.5785
59.1477
58.6894
53.2219
38.8344
38.5884
53.0502
58.559
58.1023
52.6901
38.2777
38.0284
52.5163
57.9715
57.516
52.1522
37.7136
37.4609
51.976
57.3845
56.9297
51.6075
37.1416
36.8852
51.4288
56.7974
56.3428
51.0554
36.5612
36.3009
50.874
56.2096
55.7548
50.4954
35.9719
35.7075
50.3112
55.6204
55.1651
49.9271
35.3732
35.1046
49.7399
55.0293
54.573
49.3501
34.7648
34.4917
49.1597
54.4357
53.9781
48.7638
34.1462
33.8684
48.5701
53.8392
53.3797
48.1678
33.5171
33.2344
47.9706
53.239
52.7776
47.5617
32.877
32.5892
47.3608
52.6352
52.1718
46.9452
32.2257
31.9327
46.7407
52.0274
51.5617
46.3182
31.5629
31.2648
46.1099
51.4151
50.9464
45.6803
30.8887
30.5854
45.4679
50.7974
50.3252
45.0308
30.2028
29.8942
44.8142
50.1735
49.6975
44.3691
29.505
29.1912
44.1481
49.5429
49.0624
43.6947
28.7952
28.476
43.469
48.9047
48.4194
43.0069
28.0732
27.7486
42.7764
48.2585
47.7681
42.3054
27.3389
27.009
42.0699
47.6037
47.1074
41.5896
26.5924
26.2572
41.3491
46.9391
46.4363
40.859
25.8337
25.4933
40.6133
46.2642
45.7552
40.1134
25.0631
24.7176
39.8625
45.5794
45.0642
39.3529
24.2808
23.9306
39.097
44.8848
44.3634
38.5781
23.4876
23.1331
38.3172
44.1803
43.6526
37.789
22.6843
22.3258
37.5233
43.4656
42.9313
36.9859
21.8717
21.5097
36.7154
42.7403
42.1993
36.1689
21.051
20.6855
35.8935
42.0042
41.4557
35.3377
20.224
19.8524
35.0574
41.2563
40.7005
34.4922
19.3939
19.0061
34.2063
40.4968
39.9337
33.6336
18.6146
18.3222
33.353
39.7268
39.1599
32.7915
17.9733
17.6963
32.5172
38.9517
38.3846
31.9673
17.3521
17.073
31.6982
38.1761
37.611
31.1582
16.7254
16.4412
30.8933
37.4028
36.8399
30.3612
16.0892
15.8003
30.0998
36.6323
36.072
29.574
15.4446
15.152
29.3155
35.8655
35.3092
28.7953
14.7938
14.499
28.5387
35.104
34.5512
28.0221
14.1392
13.8435
27.7677
34.3475
33.799
27.2551
13.4838
13.189
27.0029
33.5973
33.0539
26.4941
12.8309
12.5386
26.2439
32.8542
32.316
25.7388
12.1837
11.8957
25.4915
32.1191
31.5873
24.9917
11.5463
11.2648
24.7478
31.3934
30.8685
24.2541
10.9229
10.6499
24.0143
30.6778
30.16
23.5279
10.3177
10.0554
23.2929
29.9728
29.4626
22.8151
9.73502
9.48552
22.5858
29.279
28.7764
22.1177
9.17913
8.9443
21.8948
28.5972
28.1032
21.438
8.65385
8.43537
21.2223
27.9283
27.4431
20.7781
8.16256
7.9618
20.5701
27.2726
26.7958
20.139
7.70767
7.52529
19.9387
26.6291
26.1598
19.5209
7.29067
7.1267
19.3279
25.9969
25.5339
18.9236
6.91135
6.76529
18.7364
25.3733
24.9149
18.343
6.56813
6.439
18.1624
24.7566
24.3049
17.7808
6.25925
6.1459
17.6064
24.1484
23.7017
17.2352
5.98175
5.88279
17.0677
23.5473
23.1068
16.7082
5.73319
5.64675
16.5469
22.9551
22.5221
16.1987
5.50989
5.43399
16.0435
22.3732
21.9481
15.7063
5.30778
5.2403
15.5569
21.8013
21.3853
15.2306
5.12355
5.0633
15.0909
21.2407
20.8353
14.7844
4.95619
4.90292
14.6527
20.6941
20.2969
14.3583
4.80315
4.75441
14.2298
20.1587
19.7685
13.9416
4.65918
4.61305
13.8154
19.6315
19.2461
13.5318
4.52066
4.47542
13.4071
19.11
18.7291
13.1271
4.38441
4.33874
13.0033
18.5937
18.2167
12.7256
4.24709
4.19962
12.6014
18.0813
17.7031
12.317
4.10299
4.05625
12.2114
17.5788
17.1763
11.8763
3.94909
3.89649
11.7859
17.0467
16.6708
11.4786
3.79053
3.71659
11.338
16.5222
16.153
11.0414
3.61867
3.49486
10.7672
15.8803
15.6673
10.6057
3.35954
3.3657
10.6967
15.7253
15.7647
10.8651
3.35867
23.0344
28.0622
32.0511
36.5021
41.9051
49.1428
54.8734
60.8044
66.1582
71.5788
76.7096
81.8396
86.7886
91.7009
96.4857
101.218
105.853
110.427
114.92
119.345
123.694
127.964
132.153
136.249
140.249
144.135
147.903
151.526
154.998
158.281
161.363
164.216
166.799
169.076
170.976
172.455
173.405
173.742
173.32
171.99
169.553
165.753
160.311
152.773
144.392
131.493
116.447
98.0453
75.8159
52.0069
37.4861
20.4793
19.6424
35.6114
49.718
48.4618
34.6402
18.8239
18.0306
33.1704
46.7463
46.7874
33.2168
17.5369
17.3411
33.2001
47.0505
46.865
32.9249
17.1473
17.2022
33.3154
47.8319
47.8101
33.2226
17.1576
17.3261
33.8588
48.9577
48.8109
33.6579
17.2618
17.4846
34.3759
50.0453
50.024
34.2681
17.4651
17.7055
35.0655
51.3126
51.1816
34.8779
17.6571
17.9259
35.7067
52.5896
52.619
35.6154
17.9211
18.2033
36.522
54.0621
53.9483
36.3434
18.1593
18.4722
37.294
55.5441
55.6203
37.2182
18.4743
18.7918
38.2406
57.228
57.1299
38.0712
18.7518
19.1022
39.152
58.9326
59.0556
39.093
19.1111
19.463
40.2451
60.8542
60.7771
40.0857
19.4241
19.814
41.3119
62.8125
62.9895
41.2719
19.8279
20.2193
42.5731
65.0051
64.9517
42.4269
20.1809
20.6193
43.8324
67.2702
67.5194
43.819
20.6393
21.0802
45.3031
69.8034
69.7858
45.1752
21.0431
21.5448
46.8076
72.4679
72.8171
46.8338
21.5741
22.0764
48.5258
75.4303
75.4719
48.4179
22.0433
22.631
50.3237
78.6115
79.096
50.3997
22.6797
23.272
52.3465
82.1728
82.3347
52.2593
23.2667
24.0185
54.5642
86.1598
86.8863
54.7433
24.1535
25.0806
57.2777
90.7887
91.2631
57.312
25.279
26.5275
60.7427
96.2731
97.0908
60.7844
26.6545
27.7137
64.6413
102.109
102.002
63.9057
27.4341
28.185
67.3831
107.407
107.857
66.7066
27.848
28.6585
69.4294
113.462
114.75
69.3564
29.3127
33.0798
76.8462
121.598
122.299
88.6348
38.3625
19.1782
38.0347
74.9096
113.836
67.452
25.3149
25.3046
65.6532
114.837
132.136
71.9828
29.8414
38.8187
81.4419
161.538
209.76
121.589
58.5373
83.6179
179.325
237.391
258.882
194.689
90.5107
105.388
225.454
285.567
295.999
238.933
111.414
113.472
241.623
296.018
318.437
266.847
131.822
152.437
293.965
340.603
363.841
322.197
173.893
201.687
350.937
387.496
409.201
378.221
229.528
250.967
399.279
421.46
428.123
414.926
269.357
291.29
425.322
431.607
420.87
423.565
310.862
322.472
419.927
413.973
404.478
415.021
330.153
336.66
402.032
384.029
371.634
387.315
337.968
337.572
376.213
361.848
353.31
367.164
335.428
332.346
366.631
355.114
355.168
370.736
327.925
322.532
375.709
374.145
380.546
363.461
316.487
310.718
335.134
363.989
358.76
324.983
305.97
300.433
308.997
331.239
304.619
297.352
295.14
288.073
282.795
288.083
270.074
266.825
281.844
271.281
249.726
248.988
234.456
231.304
257.575
237.491
211.732
218.886
191.638
191.27
214.555
181.981
167.47
183.38
166.465
151.192
157.379
118.489
115.198
127.667
124.878
93.2193
73.4011
57.6634
74.4094
107.97
62.8095
39.7937
36.0742
39.6743
59.9399
74.3753
66.2205
52.398
34.8193
26.6449
30.0719
42.6184
50.6258
42.5596
31.1951
29.165
38.4756
46.0455
30.034
25.594
24.7996
28.2709
33.3121
39.4153
36.0817
30.4718
27.464
25.4935
21.654
24.957
29.3036
25.4009
26.5966
26.756
23.8444
27.6307
20.006
18.6393
26.4363
26.8844
23.0911
25.9787
20.0835
19.7322
27.3147
26.9457
23.2579
28.7651
26.3227
21.9532
27.8699
29.4291
19.2098
18.909
29.2864
23.3109
28.2444
29.5111
22.2221
26.8713
19.6521
19.6249
31.9339
29.1364
22.5478
27.5051
25.3899
21.9614
30.8855
34.5227
19.5124
19.6403
23.178
21.7865
30.4672
34.1934
20.1909
19.1092
24.9084
21.0962
30.2232
32.395
21.0157
23.1808
18.7356
19.7604
37.124
31.9325
20.6232
21.2349
18.3148
20.3366
36.3201
31.0117
19.4371
21.4499
20.4877
19.4596
33.4006
38.0325
20.6587
17.6861
20.5573
19.2472
32.4338
35.727
19.2653
19.7909
17.3683
21.9145
40.9478
35.0911
18.1444
19.5203
17.5395
21.5655
41.0236
34.5255
18.0974
19.8774
17.7235
20.9561
40.1182
33.7894
18.9518
20.3275
18.9012
18.6338
37.3294
44.0944
23.3912
17.9034
19.1977
18.2647
36.6034
43.1835
22.2312
17.7249
19.8539
19.35
36.0018
40.0852
19.2328
18.3376
18.4121
25.4571
48.3358
39.0948
18.0975
18.2717
17.8039
24.7587
46.7097
38.5045
17.4729
18.825
17.8213
23.2263
45.8383
37.8311
19.4935
19.9665
18.4412
19.5662
42.397
50.1996
28.2206
18.9153
18.4181
17.833
41.5986
50.7289
26.3586
18.4364
19.3863
18.243
41.6035
49.8308
24.7284
18.681
20.586
20.2543
41.3223
46.3642
20.6564
19.0241
20.2159
30.0682
56.6929
45.2486
19.2379
18.8973
19.3268
29.2097
55.9048
45.1815
18.5677
19.2409
19.1514
26.8789
54.1962
43.9883
20.7155
20.6148
19.129
21.3659
49.6251
61.3996
32.6809
20.8752
19.2493
20.0033
48.5527
60.3735
31.4308
20.1465
19.8084
19.0518
48.3943
58.6478
30.0527
20.3455
20.3872
19.6748
47.7317
57.8746
29.3815
20.6124
21.7825
21.9052
47.0278
53.4625
23.2199
20.3683
22.5961
36.021
66.558
53.2002
21.6726
20.6264
21.841
34.1062
66.4009
53.8073
20.2837
20.9806
21.9264
32.7178
65.5402
53.3463
20.5162
21.2424
22.2724
33.4523
65.2462
52.9903
21.4457
21.7081
22.2443
32.5859
63.8099
51.6809
23.5655
23.0603
21.5391
24.6882
58.4791
72.9185
40.3071
24.4897
22.1335
23.5087
58.4036
73.1822
37.2761
23.769
22.5504
22.1161
58.5726
71.1008
35.826
23.8392
22.8358
22.309
57.8995
70.7633
36.37
24.1996
23.2694
23.2123
57.5161
69.3674
36.5759
24.2794
24.7755
25.5294
56.1919
63.9761
27.2264
23.3049
26.7895
44.4529
80.06
64.0448
25.5408
24.0138
26.1819
41.2337
80.4223
64.932
24.0869
23.9878
25.9741
40.1054
79.6656
64.1202
24.1164
24.0836
26.0032
39.9529
78.2384
63.4307
24.7148
24.3546
25.7977
40.2896
76.4368
61.5438
27.1521
25.976
24.4402
28.9064
69.8489
87.5456
48.9986
28.6684
25.3861
27.4659
70.0858
88.252
44.4835
28.0448
25.453
25.6633
70.8275
86.3826
42.8999
27.7594
25.5565
25.5447
69.6057
84.8213
43.0581
27.9113
25.9831
26.4814
68.6818
82.8019
43.5868
27.8225
27.526
29.047
66.6565
76.2179
31.5701
26.1808
30.9285
54.9569
94.697
77.0972
29.4977
27.553
30.5699
49.1001
97.1256
76.59
27.7743
27.3688
30.2562
47.5078
93.8572
75.6553
28.0516
27.3259
30.2691
47.8214
92.9017
74.5923
28.6843
27.6098
29.8919
47.9228
90.3647
72.8825
31.2812
29.1799
27.6779
33.4147
82.7618
103.65
58.6258
33.529
29.3423
32.144
82.0088
104.575
53.5515
32.9727
29.4066
30.2336
82.9265
101.819
51.5947
32.6884
29.4797
30.1159
80.9276
98.5602
51.2833
32.767
29.8573
31.0416
79.1314
96.1872
51.4848
32.4281
31.2062
33.577
77.1406
88.4773
36.6293
29.911
36.4486
63.3854
112.34
90.4148
34.9443
31.8027
35.9164
57.5656
114.316
89.6966
32.7738
31.7496
35.4868
56.0064
109.504
86.8208
33.1822
31.7786
34.8013
55.3687
105.752
85.0457
35.8035
33.0323
31.4836
38.3448
97.5107
121.839
68.9197
38.9079
33.7016
37.1027
97.8651
122.153
61.3441
38.1757
33.6844
34.6438
95.7671
116.012
58.9367
37.7636
33.7662
35.1456
92.5805
112.372
59.2461
37.1409
34.9529
38.0464
89.2316
102.825
41.6929
33.7462
41.9793
74.5886
127.609
102.925
39.8438
36.1963
41.1342
66.4309
128.603
101.396
37.2627
36.1759
40.0054
64.04
122.941
97.2191
40.3826
37.3454
35.6924
43.938
111.735
140.163
79.1086
45.2931
38.0238
42.445
110.795
138.221
69.9313
43.7841
38.1969
39.7724
107.314
131.01
67.5364
42.4436
39.2394
42.6728
103.701
120.045
46.6493
37.7456
48.0901
84.7784
150.046
118.416
44.8246
40.1312
46.6975
74.7773
146.212
114.501
41.9412
40.2422
44.987
72.1282
139.966
110.197
45.166
41.393
39.6528
48.7647
127.454
157.808
89.9029
50.6647
42.2178
47.9376
124.315
153.369
78.5762
48.1337
43.0595
47.2439
119.351
137.586
50.7278
41.0921
54.1696
97.6788
172.63
134.158
50.4331
43.8033
50.9703
83.8429
165.767
127.442
48.9375
44.2785
42.516
53.1833
146.874
181.293
100.198
56.0786
45.3472
51.6218
139.731
175.436
89.3957
53.781
46.11
51.7025
135.666
157.018
56.1621
44.5364
59.0118
108.017
190.914
147.021
54.3965
47.4751
55.7121
93.0705
182.834
141.273
53.7422
47.9455
45.9332
57.1698
163.33
201.554
111.254
59.6891
49.1856
59.1298
154.883
177.836
60.7458
47.6415
63.2935
120.516
218.569
166.148
61.6761
50.7264
48.9009
64.1595
191.92
236.657
127.187
66.7747
52.2213
64.5308
179.027
201.235
64.9528
50.3728
70.5937
133.084
254.493
189.253
66.8689
53.9106
52.0253
69.2052
217.048
267.687
140.214
72.8171
55.1211
68.9226
195.603
225.428
71.2413
53.2494
76.2851
149.99
283.13
209.683
72.8195
56.9203
54.7841
72.7717
236.467
297.67
149.803
77.5703
57.9785
73.547
217.978
249.77
84.6407
56.1236
54.8539
85.7337
283.01
350.899
179.004
86.8356
61.2992
80.6893
251.17
291.384
84.6138
58.5351
55.9787
90.3564
321.663
374.397
113.885
56.9649
53.7453
98.1333
402.185
451.067
127.631
56.3875
52.3033
100.576
459.174
500.877
247.169
102.903
61.2765
91.708
320.058
340.403
94.7309
58.9491
57.18
103.644
361.54
361.193
108.81
55.7765
54.3472
113.348
355.987
343.788
117.321
53.3495
52.5741
121.316
325.584
305.324
125.235
52.331
52.4673
129.128
284.522
264.158
133.76
52.92
53.9273
137.93
244.821
226.965
143.026
55.0656
57.0473
147.487
210.699
196.071
151.984
58.8443
61.5484
155.451
182.95
171.232
158.126
64.5715
68.507
159.761
160.748
151.377
161.128
72.2863
76.2959
162.414
143.036
135.617
163.565
80.1392
84.1973
164.659
129.045
123.218
165.637
88.0428
92.1257
166.581
118.078
113.538
167.414
95.9254
99.9828
168.231
109.552
106.05
168.946
103.677
107.446
169.644
102.995
100.324
170.234
110.864
114.345
170.801
98.008
95.9944
171.237
117.461
120.644
171.625
94.259
92.7568
171.88
123.472
126.35
172.09
91.4651
90.3574
172.148
128.856
131.409
172.114
89.3994
88.5816
172.012
133.593
135.82
171.804
87.8738
87.2683
171.485
137.668
139.564
171.067
86.7361
86.2766
170.569
141.094
142.668
169.985
85.8616
85.5017
169.33
143.884
145.15
168.584
85.1651
84.8669
167.8
146.085
147.061
166.939
84.5758
84.3153
166.052
147.735
148.443
165.088
84.0517
83.8093
164.127
148.877
149.329
163.105
83.5571
83.3231
162.089
149.565
149.797
161.022
83.0761
82.8435
159.973
149.893
149.927
158.91
82.5933
82.3675
157.838
149.887
149.823
156.788
82.1105
81.8989
155.722
149.658
149.529
154.698
81.6477
81.4459
153.649
149.246
149.072
152.656
81.2036
81.0118
151.644
148.707
148.5
150.688
80.775
80.5956
149.727
148.089
147.839
148.813
80.3701
80.207
147.912
147.416
147.139
147.046
79.991
79.8447
146.209
146.715
146.425
145.391
79.6456
79.5202
144.623
146.017
145.72
143.856
79.3367
79.2307
143.153
145.332
145.029
142.436
79.0694
78.9883
141.8
144.673
144.364
141.133
78.8452
78.7879
140.564
144.045
143.731
139.928
78.6733
78.6308
139.43
143.462
143.144
138.841
78.5405
78.5142
138.404
142.932
142.605
137.858
78.4544
78.4421
137.478
142.391
142.038
136.972
78.407
78.4063
136.625
141.83
141.471
136.155
78.3973
78.4079
135.837
141.283
140.934
135.404
78.4103
78.432
135.113
140.761
140.431
134.702
78.4444
78.4828
134.447
140.28
139.977
134.072
78.5029
78.5546
133.841
139.841
139.568
133.501
78.584
78.6516
133.296
139.453
139.218
132.992
78.6881
78.768
132.811
139.12
138.918
132.543
78.8137
78.9097
132.39
138.839
138.672
132.157
78.9628
79.0706
132.028
138.608
138.471
131.831
79.136
79.2567
131.73
138.422
138.313
131.566
79.3342
79.4628
131.486
138.276
138.191
131.353
79.5548
79.6939
131.295
138.166
138.102
131.19
79.7974
79.943
131.148
138.086
138.038
131.07
80.0596
80.214
131.043
138.03
137.997
130.989
80.3401
80.4997
130.973
137.994
137.971
130.94
80.6363
80.8035
130.935
137.975
137.959
130.925
80.9469
81.1193
130.925
137.964
137.954
130.927
81.2704
81.449
130.937
137.962
137.952
130.948
81.6032
81.7864
130.969
137.959
137.952
130.982
81.9454
82.1324
131.015
137.96
137.951
131.033
82.2938
82.4831
131.073
137.957
137.946
131.094
82.6473
82.8393
131.14
137.951
137.937
131.163
83.0046
83.197
131.213
137.938
137.921
131.238
83.3639
83.5574
131.29
137.923
137.9
131.322
83.724
83.9176
131.373
137.898
137.867
131.401
84.0849
84.2776
131.455
137.863
137.829
131.49
84.4433
84.6353
131.543
137.82
137.778
131.57
84.8007
84.991
131.628
137.763
137.718
131.655
85.1545
85.3422
131.711
137.699
137.646
131.737
85.5047
85.6906
131.792
137.624
137.564
131.818
85.8506
86.0329
131.87
137.537
137.469
131.895
86.1912
86.371
131.944
137.442
137.367
131.973
86.5255
86.7024
132.018
137.335
137.251
132.04
86.8549
87.0281
132.085
137.218
137.131
132.11
87.1767
87.3466
132.151
137.092
136.996
132.171
87.4929
87.6591
132.212
136.957
136.86
132.232
87.8013
87.9634
132.273
136.814
136.711
132.289
88.1036
88.2623
132.326
136.663
136.557
132.342
88.3985
88.5529
132.377
136.506
136.393
132.391
88.6859
88.8373
132.422
136.346
136.23
132.437
88.9659
89.113
132.468
136.176
136.057
132.481
89.2395
89.3827
132.512
136.001
135.881
132.524
89.5055
89.6446
132.552
135.823
135.699
132.563
89.7645
89.9006
132.589
135.643
135.518
132.601
90.0165
90.149
132.625
135.458
135.328
132.634
90.2627
90.3915
132.658
135.267
135.139
132.666
90.5019
90.6267
132.688
135.077
134.947
132.696
90.7344
90.8561
132.717
134.884
134.754
132.724
90.9607
91.0782
132.745
134.69
134.558
132.75
91.1808
91.2944
132.77
134.494
134.357
132.79
91.3951
91.5064
132.804
134.294
134.16
132.811
91.6037
91.7111
132.808
134.103
133.974
132.814
91.8013
91.9069
132.831
133.909
133.771
132.837
91.9958
92.099
132.853
133.71
133.579
132.86
92.1853
92.286
132.875
133.515
133.38
132.879
92.3708
92.4687
132.894
133.319
133.19
132.899
92.5507
92.6462
132.913
133.127
132.993
132.916
92.7264
92.819
132.929
132.933
132.807
132.934
92.8965
92.9867
132.946
132.744
132.613
132.95
93.0624
93.1498
132.962
132.554
132.43
132.966
93.223
93.3082
132.978
132.368
132.24
132.981
93.3798
93.4624
132.992
132.182
132.061
132.996
93.5315
93.612
133.007
131.999
131.876
133.01
93.6797
93.7578
133.02
131.817
131.701
133.025
93.8232
93.8993
133.034
131.639
131.521
133.037
93.9634
94.0372
133.047
131.462
131.351
133.052
94.0992
94.1711
133.063
131.291
131.18
133.066
94.2319
94.3022
133.072
131.113
131.011
133.078
94.3606
94.4287
133.087
130.948
130.841
133.09
94.4859
94.5519
133.099
130.782
130.683
133.104
94.6073
94.6715
133.115
130.623
130.523
133.118
94.726
94.7889
133.125
130.457
130.363
133.13
94.8414
94.902
133.141
130.306
130.207
133.144
94.9538
95.0129
133.153
130.149
130.056
133.156
95.0636
95.1207
133.163
129.995
129.909
133.169
95.17
95.2263
133.172
129.839
129.76
133.18
95.2737
95.3284
133.186
129.695
129.609
133.189
95.3748
95.4276
133.194
129.548
129.469
133.202
95.4727
95.5247
133.207
129.407
129.32
133.209
95.5687
95.6188
133.216
129.265
129.181
133.218
95.6618
95.7101
133.224
129.123
129.043
133.226
95.7518
95.7988
133.229
128.981
128.91
133.236
95.8389
95.8853
133.237
128.845
128.769
133.239
95.9237
95.9684
133.245
128.716
128.635
133.245
96.0065
96.0494
133.249
128.581
128.503
133.249
96.086
96.1277
133.251
128.448
128.374
133.252
96.1631
96.2033
133.254
128.317
128.249
133.255
96.2372
96.2767
133.254
128.184
128.123
133.256
96.3091
96.3468
133.259
128.065
128.003
133.259
96.3786
96.4157
133.259
127.937
127.882
133.261
96.4462
96.4819
133.261
127.822
127.759
133.261
96.5115
96.5459
133.262
127.703
127.649
133.265
96.5745
96.6082
133.264
127.59
127.53
133.264
96.636
96.6684
133.265
127.475
127.424
133.268
96.6951
96.7269
133.267
127.367
127.309
133.267
96.753
96.7836
133.267
127.256
127.207
133.27
96.8084
96.8384
133.269
127.152
127.096
133.269
96.8627
96.8915
133.269
127.046
126.999
133.272
96.9147
96.9431
133.27
126.946
126.893
133.27
96.9657
96.993
133.27
126.844
126.8
133.273
97.0146
97.0415
133.271
126.748
126.697
133.27
97.0626
97.0884
133.271
126.65
126.607
133.273
97.1086
97.1339
133.271
126.558
126.508
133.27
97.1536
97.1778
133.27
126.464
126.422
133.272
97.1967
97.2205
133.271
126.376
126.324
133.268
97.239
97.2615
133.269
126.288
126.238
133.268
97.2795
97.3012
133.268
126.2
126.155
133.267
97.3184
97.3398
133.267
126.11
126.077
133.268
97.3562
97.3773
133.265
126.026
125.992
133.266
97.393
97.4134
133.264
125.947
125.908
133.265
97.4287
97.448
133.265
125.871
125.831
133.264
97.4631
97.4822
133.26
125.788
125.752
133.261
97.4963
97.5147
133.26
125.716
125.67
133.258
97.5287
97.546
133.258
125.644
125.598
133.257
97.5596
97.5764
133.257
125.572
125.526
133.256
97.5896
97.606
133.256
125.501
125.456
133.255
97.6188
97.6347
133.255
125.431
125.387
133.254
97.6471
97.6626
133.254
125.363
125.32
133.253
97.6745
97.6894
133.253
125.296
125.255
133.252
97.7009
97.7155
133.252
125.231
125.192
133.251
97.7266
97.7405
133.251
125.167
125.13
133.25
97.7512
97.7649
133.25
125.105
125.071
133.249
97.7752
97.7883
133.249
125.043
125.014
133.248
97.7983
97.8114
133.248
124.981
124.953
133.247
97.8209
97.8334
133.247
124.929
124.898
133.246
97.8426
97.8553
133.246
124.87
124.839
133.245
97.8641
97.8762
133.246
124.821
124.785
133.245
97.8847
97.8969
133.245
124.768
124.733
133.245
97.9051
97.9169
133.245
124.716
124.681
133.244
97.9248
97.9366
133.245
124.665
124.632
133.244
97.9444
97.9558
133.244
124.615
124.582
133.244
97.9633
97.9747
133.244
124.567
124.535
133.244
97.982
97.9932
133.244
124.519
124.49
133.244
98.0001
98.0115
133.244
124.469
124.45
133.246
98.0179
98.0295
133.244
124.426
124.399
133.243
98.036
98.0471
133.243
124.379
124.361
133.245
98.0531
98.0646
133.244
124.337
124.311
133.243
98.0707
98.0817
133.243
124.292
124.275
133.245
98.0876
98.0989
133.244
124.253
124.227
133.243
98.105
98.116
133.243
124.21
124.193
133.245
98.122
98.1334
133.244
124.173
124.146
133.243
98.1398
98.1508
133.244
124.133
124.107
133.243
98.1575
98.1685
133.244
124.096
124.07
133.244
98.1756
98.1869
133.244
124.057
124.036
133.246
98.1946
98.2057
133.247
124.024
123.997
133.247
98.2151
98.2257
133.25
123.986
123.949
133.262
98.2375
98.2492
133.244
123.947
123.932
133.245
98.2571
98.2713
133.245
123.907
123.895
133.248
98.2797
98.2943
133.248
123.876
123.855
133.248
98.3036
98.3185
133.25
123.84
123.828
133.255
98.3281
98.344
133.254
123.809
123.788
133.255
98.3542
98.3701
133.257
123.774
123.762
133.262
98.3804
98.3968
133.262
123.744
123.723
133.264
98.4073
98.4232
133.266
123.709
123.699
133.272
98.4332
98.449
133.272
123.681
123.661
133.274
98.4586
98.4734
133.278
123.65
123.629
133.28
98.4826
98.496
133.284
123.62
123.601
133.286
98.5049
98.5175
133.291
123.593
123.575
133.293
98.5272
98.5382
133.298
123.567
123.547
133.301
98.5505
98.5602
133.308
123.548
123.525
133.309
98.5832
98.5812
133.306
123.52
123.5
133.34
98.6332
98.6512
133.285
123.495
123.438
133.183
98.6515
98.7136
133.062
123.371
123.245
132.761
99.4645
100.783
132.401
123.233
123.289
132.896
102.562
119.579
102.892
97.032
98.2987
106.732
122.723
133.631
140.574
158.275
173.109
183.061
191.473
198.376
203.74
207.717
210.404
212.037
212.843
213.045
212.83
212.348
211.709
210.994
210.26
209.541
208.859
208.227
207.649
207.126
206.656
206.236
205.861
205.528
205.232
204.97
204.736
204.529
204.345
204.182
204.036
203.907
203.792
203.69
203.6
203.52
203.449
203.387
203.332
203.284
203.243
203.208
203.178
203.154
203.136
203.124
203.117
203.113
203.113
203.115
203.117
203.121
203.125
203.129
203.133
203.138
203.142
203.147
203.151
203.155
203.158
203.161
203.163
203.166
203.167
203.169
203.17
203.17
203.17
203.17
203.17
203.169
203.168
203.167
203.166
203.164
203.162
203.16
203.157
203.154
203.15
203.145
203.139
203.132
203.12
203.102
203.077
203.046
203.009
202.968
202.924
202.879
202.834
202.791
202.753
202.721
202.698
202.686
202.684
202.694
202.715
202.748
202.792
202.847
202.911
202.984
203.063
203.149
203.238
203.331
203.425
203.52
203.615
203.71
203.804
203.897
203.989
204.08
204.171
204.26
204.35
204.439
204.528
204.617
204.707
204.798
204.89
204.983
205.077
205.172
205.27
205.369
205.47
205.573
205.678
205.785
205.895
206.007
206.122
206.239
206.359
206.482
206.607
206.734
206.865
206.997
207.132
207.27
207.41
207.551
207.695
207.841
207.989
208.139
208.29
208.442
208.595
208.75
208.905
209.061
209.218
209.375
209.532
209.689
209.846
210.003
210.159
210.315
210.47
210.624
210.777
210.93
211.081
211.231
211.38
211.527
211.673
211.817
211.96
212.102
212.242
212.38
212.517
212.652
212.785
212.917
213.047
213.176
213.303
213.428
213.552
213.674
213.795
213.915
214.032
214.149
214.264
214.377
214.49
214.601
214.71
214.818
214.925
215.031
215.135
215.239
215.341
215.441
215.541
215.639
215.737
215.833
215.927
216.021
216.114
216.205
216.295
216.384
216.472
216.559
216.645
216.729
216.813
216.895
216.977
217.057
217.136
217.214
217.291
217.367
217.442
217.516
217.589
217.661
217.733
217.803
217.873
217.941
218.009
218.076
218.143
218.209
218.274
218.338
218.402
218.465
218.528
218.59
218.652
218.713
218.774
218.834
218.895
218.954
219.014
219.073
219.132
219.19
219.249
219.307
219.365
219.422
219.479
219.536
219.593
219.649
219.704
219.759
219.812
219.865
219.916
219.966
220.013
220.059
220.102
220.143
220.182
220.218
220.252
220.285
220.316
220.345
220.371
220.393
220.412
220.431
220.459
220.46
220.461
220.464
220.467
220.471
220.476
220.483
220.491
220.499
220.509
220.521
220.534
220.547
220.56
220.571
220.577
220.57
220.531
220.447
220.305
220.089
219.793
219.426
219.008
218.559
218.093
217.619
217.14
216.657
216.169
215.674
215.172
214.663
214.145
213.62
213.088
212.548
212.002
211.451
210.893
210.331
209.765
209.195
208.621
208.044
207.464
206.882
206.298
205.712
205.126
204.539
203.952
203.366
202.78
202.196
201.613
201.033
200.455
199.88
199.309
198.742
198.179
197.621
197.068
196.52
195.979
195.444
194.915
194.394
193.88
193.374
192.877
192.39
191.911
191.443
190.985
190.536
190.095
189.661
189.23
188.8
188.372
187.948
187.539
187.17
186.868
186.659
186.544
186.5
186.497
186.517
186.552
186.595
186.634
186.657
186.656
186.613
186.465
185.999
184.325
182.137
176.342
173.447
171.082
167.995
165.849
162.674
160.756
157.666
155.977
152.994
151.522
148.662
147.377
144.655
143.515
140.938
139.903
137.478
136.527
134.248
133.367
131.215
130.397
128.356
127.597
125.66
124.95
123.105
122.438
120.673
120.049
118.362
117.774
116.159
115.606
114.057
113.536
112.054
111.562
110.14
109.677
108.31
107.875
106.564
106.154
104.896
104.51
103.3
102.933
101.767
101.418
100.293
99.964
98.8781
98.5646
97.5154
97.2171
96.201
95.9191
94.9357
94.6677
93.7152
93.4596
92.536
92.2899
91.3916
91.1576
90.2846
90.0587
89.2081
88.9928
88.164
87.9573
87.1499
86.9489
86.1599
85.9653
85.1933
85.005
84.2492
84.0668
83.3264
83.1494
82.4234
82.2513
81.5389
81.3713
80.6715
80.508
79.8193
79.6613
78.985
78.829
78.1628
78.0092
77.3508
77.2012
76.5524
76.4035
75.762
75.6144
74.9792
74.8328
74.2035
74.0582
73.4345
73.2899
72.6712
72.5272
71.9129
71.7693
71.159
71.0154
70.4086
70.2649
69.6609
69.5169
68.9154
68.7707
68.1704
68.0265
67.4286
67.2841
66.6879
66.5423
65.9467
65.7996
65.204
65.0552
64.459
64.3082
63.7111
63.5581
62.9595
62.8041
62.2036
62.0456
61.4435
61.2812
60.6754
60.5096
59.8993
59.7318
59.1188
58.9484
58.3324
58.1588
57.5391
57.3619
56.738
56.5571
55.9284
55.7435
55.1104
54.92
54.2797
54.086
53.4405
53.2428
52.5919
52.3894
51.7319
51.5248
50.8614
50.6504
49.9833
49.7674
49.0959
48.8766
48.2012
47.9813
47.3077
47.0852
46.4108
46.1868
45.5129
45.2898
44.6202
44.3976
43.732
43.5104