/*--------------------------------*- C++ -*----------------------------------*\
| =========                 |                                                 |
| \\      /  F ield         | OpenFOAM: The Open Source CFD Toolbox           |
|  \\    /   O peration     | Version:  v2006                                 |
|   \\  /    A nd           | Website:  www.openfoam.com                      |
|    \\/     M anipulation  |                                                 |
\*---------------------------------------------------------------------------*/
FoamFile
{
    version     2.0;
    format      ascii;
    class       volScalarField;
    location    "0.03";
    object      nut;
}
// * * * * * * * * * * * * * * * * * * * * * * * * * * * * * * * * * * * * * //

dimensions      [0 2 -1 0 0 0 0];


internalField   nonuniform List<scalar> 
31566
(
3.38701
3.36595
8.60325
8.91566
8.49312
9.34797
9.57321
11.155
12.4733
14.9499
18.042
22.9134
30.1098
40.333
53.1819
62.9771
61.4359
56.6239
40.5526
9.1919
2.92148
1.38955
0.88141
0.663246
0.551269
0.487356
0.447832
0.421173
0.4014
0.385389
0.371555
0.359146
0.347842
0.337526
0.328149
0.319674
0.312049
0.305204
0.29906
0.293535
0.288551
0.28404
0.279943
0.276212
0.272811
0.269709
0.266885
0.264321
0.262002
0.259919
0.258063
0.256425
0.255002
0.253789
0.252784
0.251988
0.251393
0.250988
0.250785
0.250788
0.250994
0.251406
0.252027
0.252862
0.253915
0.2552
0.256731
0.258519
0.260581
0.262943
0.265638
0.268711
0.272219
0.276228
0.280809
0.286024
0.291906
0.29843
0.305484
0.312856
0.320253
0.327428
0.334425
0.341842
0.351523
0.367721
0.398995
0.46269
0.597188
0.901358
1.67683
3.98863
11.9273
40.3706
132.797
284.834
172.244
43.29
12.4462
4.41706
1.42368
0.607312
0.38471
0.200829
0.126868
0.0867709
0.0484864
0.0127518
0.00234195
7.65359e-05
6.69936e-05
0.00107114
0.00488659
0.00311579
0.00080119
6.03136e-05
5.4916e-05
0.000699705
0.00250739
0.00213693
0.000624767
5.1405e-05
4.84729e-05
0.000597213
0.00192606
0.00173898
0.000552491
4.62591e-05
4.44186e-05
0.00053121
0.00163931
0.00152116
0.000494776
4.25333e-05
4.10849e-05
0.00048152
0.0014638
0.0013812
0.000465977
3.98707e-05
3.90275e-05
0.000458891
0.00134967
0.00129141
0.000446746
3.81422e-05
3.75513e-05
0.000441832
0.00127016
0.0012244
0.000431837
3.68795e-05
3.64456e-05
0.000428257
0.00120916
0.00117095
0.000419767
3.59184e-05
3.55826e-05
0.000416892
0.00115925
0.00112621
0.000409597
3.51558e-05
3.48842e-05
0.000407037
0.00111655
0.00108762
0.000400672
3.45268e-05
3.42996e-05
0.000398335
0.00107942
0.00105361
0.00039269
3.39917e-05
3.37959e-05
0.000390511
0.00104653
0.0010232
0.000385423
3.35241e-05
3.33515e-05
0.000383386
0.00101702
0.0009957
0.00037874
3.31071e-05
3.2952e-05
0.00037683
0.000990232
0.000970597
0.000372552
3.27284e-05
3.25869e-05
0.000370766
0.000965742
0.000947556
0.000366798
3.23809e-05
3.22509e-05
0.000365125
0.000943205
0.000926214
0.000361395
3.20592e-05
3.19379e-05
0.000359817
0.000922304
0.000906387
0.000356311
3.17576e-05
3.16438e-05
0.000354829
0.000902857
0.000887891
0.000351519
3.14734e-05
3.1366e-05
0.000350124
0.0008847
0.000870586
0.000346989
3.12043e-05
3.11024e-05
0.000345675
0.000867694
0.000854345
0.000342698
3.09484e-05
3.08513e-05
0.000341457
0.000851721
0.000839071
0.000338625
3.07041e-05
3.06113e-05
0.000337453
0.000836689
0.000824673
0.000334752
3.04702e-05
3.03813e-05
0.000333643
0.00082251
0.000811071
0.000331063
3.02457e-05
3.01602e-05
0.000330013
0.000809111
0.000798214
0.000327544
3.00296e-05
2.99472e-05
0.000326551
0.000796443
0.00078605
0.000324188
2.98212e-05
2.97417e-05
0.000323248
0.000784452
0.000774502
0.000320983
2.96199e-05
2.9543e-05
0.000320093
0.000773073
0.00076353
0.000317918
2.9425e-05
2.93505e-05
0.000317075
0.000762256
0.000753083
0.00031498
2.9236e-05
2.91637e-05
0.000314179
0.000751949
0.000743124
0.000312159
2.90524e-05
2.89821e-05
0.000311397
0.000742115
0.000733608
0.000309444
2.88735e-05
2.8805e-05
0.000308719
0.000732713
0.000724494
0.000306827
2.8699e-05
2.86321e-05
0.000306134
0.000723703
0.000715758
0.000304297
2.85283e-05
2.84628e-05
0.000303636
0.000715064
0.000707375
0.00030185
2.83611e-05
2.82969e-05
0.000301218
0.000706769
0.000699322
0.000299479
2.81969e-05
2.81338e-05
0.000298875
0.000698795
0.000691564
0.000297178
2.80354e-05
2.79733e-05
0.000296599
0.00069111
0.000684085
0.00029494
2.78762e-05
2.7815e-05
0.000294385
0.000683695
0.000676854
0.000292758
2.77191e-05
2.76586e-05
0.000292223
0.000676523
0.000669858
0.000290625
2.75637e-05
2.75038e-05
0.00029011
0.000669579
0.00066308
0.000288539
2.74096e-05
2.73503e-05
0.000288042
0.000662847
0.000656496
0.000286493
2.72566e-05
2.71977e-05
0.000286013
0.000656303
0.000650087
0.000284482
2.71044e-05
2.70458e-05
0.000284017
0.000649929
0.000643838
0.000282501
2.69527e-05
2.68943e-05
0.000282049
0.000643711
0.000637737
0.000280545
2.68012e-05
2.67429e-05
0.000280105
0.000637636
0.000631771
0.00027861
2.66497e-05
2.65912e-05
0.000278181
0.000631695
0.000625931
0.000276693
2.64977e-05
2.64391e-05
0.000276275
0.000625876
0.000620207
0.000274792
2.63452e-05
2.62863e-05
0.000274384
0.000620171
0.000614588
0.000272904
2.61918e-05
2.61327e-05
0.000272504
0.000614569
0.000609074
0.000271026
2.60374e-05
2.59778e-05
0.000270635
0.000609076
0.000603655
0.000269158
2.58817e-05
2.58217e-05
0.000268776
0.000603681
0.000598322
0.000267296
2.57246e-05
2.5664e-05
0.000266921
0.00059838
0.00059308
0.00026544
2.55659e-05
2.55047e-05
0.000265073
0.000593163
0.000587912
0.000263587
2.54054e-05
2.53434e-05
0.000263227
0.000588013
0.000582802
0.000261734
2.52428e-05
2.51802e-05
0.000261379
0.000582917
0.00057774
0.000259875
2.5078e-05
2.50145e-05
0.000259524
0.000577866
0.000572717
0.000258007
2.49107e-05
2.48462e-05
0.000257659
0.000572854
0.000567727
0.000256126
2.47405e-05
2.46749e-05
0.000255781
0.000567873
0.000562766
0.000254232
2.45672e-05
2.45004e-05
0.000253889
0.00056292
0.000557828
0.00025232
2.43905e-05
2.43224e-05
0.000251979
0.00055799
0.000552909
0.00025039
2.42101e-05
2.41407e-05
0.000250051
0.000553077
0.000548004
0.000248439
2.40259e-05
2.3955e-05
0.000248101
0.000548178
0.000543108
0.000246465
2.38376e-05
2.37651e-05
0.000246127
0.000543285
0.000538213
0.000244465
2.36449e-05
2.35707e-05
0.000244126
0.000538393
0.000533321
0.000242443
2.34476e-05
2.33716e-05
0.000242096
0.000533505
0.00052843
0.000240392
2.32454e-05
2.31674e-05
0.000240039
0.000528618
0.000523536
0.000238313
2.30379e-05
2.2958e-05
0.000237954
0.000523726
0.000518633
0.000236204
2.28251e-05
2.27431e-05
0.000235838
0.000518823
0.000513714
0.000234063
2.26067e-05
2.25225e-05
0.000233688
0.000513904
0.000508772
0.000231885
2.23823e-05
2.22958e-05
0.000231502
0.000508961
0.000503803
0.000229669
2.21516e-05
2.20628e-05
0.000229276
0.000503989
0.000498801
0.000227412
2.19144e-05
2.18231e-05
0.000227007
0.000498984
0.000493765
0.000225111
2.16703e-05
2.15764e-05
0.000224696
0.000493944
0.000488683
0.000222763
2.14189e-05
2.13224e-05
0.000222337
0.000488857
0.000483548
0.000220365
2.116e-05
2.10606e-05
0.000219927
0.00048372
0.000478366
0.000217916
2.08931e-05
2.07908e-05
0.000217465
0.000478537
0.000473139
0.000215416
2.06179e-05
2.05126e-05
0.000214955
0.000473314
0.000467872
0.000212868
2.03342e-05
2.02258e-05
0.000212397
0.000468053
0.000462565
0.000210273
2.00418e-05
1.99304e-05
0.000209792
0.000462753
0.000457218
0.00020763
1.97407e-05
1.96262e-05
0.000207141
0.000457417
0.000451833
0.000204942
1.94307e-05
1.93133e-05
0.000204444
0.000452044
0.000446404
0.000202205
1.91118e-05
1.89914e-05
0.000201699
0.000446618
0.000440931
0.00019942
1.87838e-05
1.86605e-05
0.000198905
0.000441149
0.000435422
0.000196583
1.84468e-05
1.83204e-05
0.000196063
0.000435652
0.000429879
0.000193686
1.81013e-05
1.79709e-05
0.000193151
0.000430104
0.000424246
0.000190667
1.783e-05
1.77812e-05
0.00019004
0.000424388
0.000418445
0.000187506
1.76793e-05
1.76491e-05
0.000186826
0.000418464
0.000412466
0.000184287
1.75551e-05
1.75283e-05
0.00018359
0.000412377
0.000406355
0.00018107
1.74346e-05
1.74077e-05
0.000180381
0.000406198
0.000400199
0.000177899
1.73125e-05
1.72849e-05
0.00017723
0.000400015
0.000394065
0.000174793
1.71879e-05
1.71596e-05
0.000174163
0.000393901
0.000388024
0.000171777
1.70604e-05
1.70316e-05
0.000171195
0.000387921
0.000382152
0.000168871
1.69305e-05
1.69015e-05
0.000168342
0.000382145
0.000376507
0.000166084
1.67984e-05
1.67693e-05
0.00016562
0.000376634
0.000371148
0.000163437
1.66644e-05
1.66357e-05
0.000163046
0.000371444
0.000366127
0.000160945
1.65293e-05
1.65011e-05
0.000160634
0.000366629
0.0003615
0.000158621
1.63936e-05
1.63665e-05
0.000158396
0.000362235
0.000357302
0.000156476
1.62583e-05
1.62326e-05
0.000156341
0.000358292
0.000353563
0.000154516
1.61241e-05
1.61e-05
0.000154472
0.000354824
0.0003503
0.000152743
1.59916e-05
1.59692e-05
0.000152787
0.000351844
0.000347528
0.000151155
1.58613e-05
1.58408e-05
0.000151281
0.000349354
0.000345225
0.000149734
1.57333e-05
1.57146e-05
0.000149939
0.000347326
0.000343357
0.00014846
1.56075e-05
1.55901e-05
0.000148734
0.000345748
0.000341847
0.000147317
1.54836e-05
1.54669e-05
0.000147638
0.000344536
0.00034076
0.000146271
1.53603e-05
1.53438e-05
0.000146626
0.000343637
0.00033998
0.000145301
1.52372e-05
1.52205e-05
0.000145678
0.000342996
0.000339436
0.000144379
1.51139e-05
1.50965e-05
0.00014476
0.000342534
0.000339022
0.000143466
1.49896e-05
1.49708e-05
0.000143834
0.000342165
0.000338681
0.000142539
1.48637e-05
1.48433e-05
0.000142881
0.000341826
0.000338349
0.000141582
1.47362e-05
1.4714e-05
0.000141887
0.00034144
0.000337992
0.000140577
1.46075e-05
1.45834e-05
0.000140837
0.000340952
0.000337477
0.000139516
1.44787e-05
1.44511e-05
0.000139719
0.000340302
0.000336754
0.000138362
1.43495e-05
1.43185e-05
0.000138512
0.000339466
0.000335846
0.000137128
1.42198e-05
1.41863e-05
0.000137226
0.000338406
0.000334685
0.000135817
1.40907e-05
1.40552e-05
0.000135849
0.000337037
0.000333196
0.000134401
1.39617e-05
1.39248e-05
0.000134352
0.000335304
0.000331335
0.000132854
1.38323e-05
1.37942e-05
0.000132709
0.00033316
0.000328999
0.000131091
1.36974e-05
1.36646e-05
0.000131154
0.000330942
0.000325126
0.00012864
1.35486e-05
1.3523e-05
0.000128869
0.000327038
0.000321841
0.000126765
1.34434e-05
1.33814e-05
0.000126109
0.000322449
0.000316996
0.000123922
1.33743e-05
1.3198e-05
0.00012212
0.000314467
0.00031494
0.000122125
1.32582e-05
1.34711e-05
0.00012752
0.000326565
0.000338864
0.000131522
1.80089e-05
0.00092158
0.0017232
0.00267139
0.00381367
0.00483
0.00630272
0.00765112
0.00915488
0.0106031
0.0121651
0.0137129
0.0153469
0.0169802
0.0186764
0.0203735
0.0221122
0.0238456
0.025598
0.0273307
0.0290549
0.0307356
0.0323726
0.033932
0.0354033
0.0367518
0.0379595
0.0389911
0.03982
0.0404173
0.0407498
0.0407876
0.0405058
0.0398822
0.0389021
0.0375715
0.0358956
0.0339353
0.0317135
0.0293564
0.0268771
0.0244793
0.0221963
0.0200082
0.017929
0.0159557
0.0140682
0.0122303
0.0104199
0.00864242
0.00688598
0.00522065
0.0036448
0.00224594
0.00107753
0.000318085
0.000101734
1.49883e-05
1.14484e-05
0.000100104
0.000309108
0.000296518
9.53586e-05
1.13801e-05
1.13875e-05
9.72334e-05
0.00030319
0.000314843
0.000101689
1.16702e-05
1.17284e-05
0.00010401
0.000319415
0.000324972
0.000105584
1.18295e-05
1.1867e-05
0.000106642
0.000327838
0.000330935
0.000107397
1.19027e-05
1.19828e-05
0.00010851
0.000334468
0.00033748
0.000109336
1.20367e-05
1.21018e-05
0.000110384
0.000341083
0.000344506
0.000111381
1.21643e-05
1.2231e-05
0.000112471
0.000348212
0.000351937
0.000113582
1.22977e-05
1.23702e-05
0.000114757
0.000355783
0.000359834
0.000115931
1.24422e-05
1.25195e-05
0.000117202
0.00036385
0.000368136
0.000118461
1.25972e-05
1.2681e-05
0.00011981
0.000372453
0.000376916
0.000121174
1.27629e-05
1.28535e-05
0.000122604
0.000381503
0.000386208
0.000124066
1.29412e-05
1.30384e-05
0.000125588
0.000391052
0.000396017
0.000127149
1.31329e-05
1.32372e-05
0.000128766
0.000401132
0.000406379
0.000130431
1.3339e-05
1.34516e-05
0.000132138
0.000411666
0.000417319
0.000133942
1.35638e-05
1.36801e-05
0.000135776
0.000422911
0.000428755
0.000137626
1.38049e-05
1.39313e-05
0.000139583
0.000434742
0.000440829
0.000141624
1.40627e-05
1.42013e-05
0.000143593
0.000447062
0.000453512
0.000145741
1.43432e-05
1.44926e-05
0.000147877
0.000459991
0.000466793
0.000150056
1.46469e-05
1.48094e-05
0.000152322
0.00047357
0.000480607
0.000154556
1.49765e-05
1.51539e-05
0.000156859
0.000487842
0.000494983
0.000159132
1.53385e-05
1.5538e-05
0.000161472
0.000502486
0.000510225
0.00016381
1.57516e-05
1.59901e-05
0.000166234
0.000518505
0.000527756
0.000168814
1.626e-05
1.65644e-05
0.000171606
0.00053761
0.000551129
0.000175592
1.69301e-05
1.71812e-05
0.000180505
0.000566052
0.000581911
0.000186221
1.75926e-05
1.79075e-05
0.000193714
0.000599534
0.000616366
0.000199296
1.84487e-05
1.90824e-05
0.000206269
0.00063262
0.000647943
0.000211418
1.99205e-05
2.10944e-05
0.000215724
0.00065764
0.00067089
0.000222365
2.32988e-05
2.7633e-05
0.000239247
0.000688336
0.000654377
0.00026287
2.33741e-05
8.37125e-06
4.85315e-05
0.000202691
0.000542059
0.000167577
1.46182e-05
1.71352e-05
0.000164841
0.000548758
0.000654553
0.000207898
2.01126e-05
2.1828e-05
0.00022272
0.000691057
0.000752696
0.000247137
2.45126e-05
2.69698e-05
0.000269512
0.00080909
0.000868003
0.000292082
3.07178e-05
3.63214e-05
0.000325026
0.000938867
0.000895565
0.000348918
2.84011e-05
9.24692e-06
8.21146e-05
0.000322797
0.000771266
0.000251823
1.97924e-05
2.51754e-05
0.000288127
0.000863775
0.00103394
0.000357984
3.18726e-05
3.79272e-05
0.000411562
0.00118074
0.00132325
0.000461559
4.57922e-05
3.55122e-05
0.000459298
0.00125025
0.000657796
0.0002085
1.3035e-05
3.15005e-05
0.000393155
0.00112771
0.00147674
0.000533647
4.70964e-05
3.09687e-05
0.000413001
0.00119396
0.00104192
0.00036249
2.58175e-05
5.75489e-05
0.000624457
0.00167318
0.000924107
0.000338667
3.69323e-05
5.98433e-05
0.000662152
0.000956398
0.000963668
0.000625222
5.5582e-05
3.68309e-05
0.000477876
0.00107525
0.0012104
0.000495904
3.95794e-05
6.8295e-05
0.000794241
0.00180071
0.00114426
0.000413549
6.45403e-05
3.11418e-05
9.67521e-05
0.000286288
0.000587869
0.000271299
3.63787e-05
3.93746e-05
0.000226404
0.000526016
0.000184731
6.56569e-05
1.90343e-05
2.64424e-05
0.000229375
0.000446398
0.000415483
0.000193183
2.84154e-05
1.60081e-05
5.63941e-05
0.000152523
0.000401793
0.000207231
2.19825e-05
2.42965e-05
0.000175207
0.000375493
0.00013899
5.07838e-05
1.39187e-05
2.02963e-05
0.000192722
0.00036983
0.000344658
0.000158894
2.21878e-05
1.35819e-05
4.54472e-05
0.000124488
0.000338237
0.000170282
1.80528e-05
2.02429e-05
0.000142149
0.000314115
0.00011049
4.12425e-05
1.30006e-05
1.67157e-05
0.000154285
0.000307016
0.000284917
0.000127477
1.89101e-05
1.23694e-05
3.76149e-05
9.76276e-05
0.000276447
0.000138127
1.55282e-05
1.79031e-05
0.000114483
0.000255934
8.6896e-05
3.45495e-05
1.20278e-05
1.44207e-05
0.000122074
0.000249106
0.00022915
0.00010138
1.67541e-05
1.158e-05
3.11994e-05
7.70223e-05
0.000221803
0.000108326
1.35094e-05
1.57106e-05
8.83603e-05
0.000201536
6.49101e-05
2.61561e-05
1.09373e-05
1.17644e-05
0.000109424
0.0001742
8.28658e-05
3.78076e-05
1.30486e-05
1.4751e-05
0.000113403
0.000223488
0.00019412
9.05384e-05
1.6281e-05
1.15041e-05
3.14173e-05
6.96015e-05
0.000189884
9.53492e-05
1.30246e-05
1.51617e-05
8.00364e-05
0.000168833
6.12498e-05
2.80173e-05
1.09171e-05
1.20438e-05
8.30745e-05
0.000165957
0.000147942
7.04674e-05
1.44178e-05
1.03665e-05
2.35542e-05
5.23062e-05
0.000122781
8.66892e-05
1.08637e-05
1.20946e-05
3.18481e-05
6.17518e-05
0.000164257
8.12056e-05
1.24854e-05
1.46472e-05
6.50894e-05
0.000139307
5.15752e-05
2.38524e-05
1.05102e-05
1.05215e-05
8.0128e-05
0.00011318
5.85731e-05
3.10158e-05
1.2211e-05
1.2126e-05
7.64196e-05
0.000149975
0.000128984
6.34632e-05
1.43262e-05
1.07407e-05
2.51471e-05
5.11566e-05
0.000120911
6.5819e-05
1.07216e-05
1.3459e-05
5.53514e-05
0.000107072
4.2842e-05
2.05921e-05
9.96866e-06
9.65989e-06
6.84706e-05
8.22336e-05
4.64048e-05
2.68864e-05
1.15249e-05
1.01728e-05
6.70231e-05
9.84606e-05
5.20215e-05
2.84614e-05
1.20882e-05
1.13119e-05
6.34344e-05
0.000124294
0.000103969
5.31587e-05
1.36341e-05
1.0692e-05
2.2205e-05
4.29588e-05
8.61347e-05
6.05299e-05
9.45229e-06
1.16774e-05
2.73803e-05
4.82703e-05
0.000108047
6.06695e-05
1.09305e-05
1.33006e-05
5.1804e-05
9.2693e-05
3.99822e-05
2.17569e-05
1.0509e-05
9.02585e-06
5.78341e-05
7.60193e-05
4.3473e-05
2.55172e-05
1.1178e-05
1.00046e-05
6.18756e-05
8.12117e-05
4.73231e-05
2.90281e-05
1.20245e-05
1.08006e-05
5.57753e-05
9.86752e-05
8.54828e-05
4.76631e-05
1.32808e-05
1.00245e-05
2.22147e-05
3.79957e-05
6.57115e-05
5.20915e-05
9.18165e-06
1.13638e-05
2.82533e-05
4.07652e-05
7.66987e-05
5.75303e-05
9.68418e-06
1.18701e-05
2.85256e-05
4.52309e-05
8.89753e-05
5.10071e-05
1.06551e-05
1.31247e-05
4.33718e-05
7.57383e-05
3.64968e-05
2.34447e-05
1.04725e-05
8.75972e-06
5.23053e-05
6.2508e-05
3.86341e-05
2.7251e-05
1.11853e-05
9.67675e-06
5.10423e-05
6.93797e-05
4.23522e-05
2.8307e-05
1.18817e-05
1.04913e-05
4.93235e-05
7.9966e-05
6.95201e-05
4.19368e-05
1.29669e-05
1.04298e-05
2.35443e-05
3.51167e-05
5.73998e-05
4.86327e-05
8.60327e-06
1.11709e-05
2.72094e-05
3.63636e-05
6.1169e-05
4.57648e-05
9.55626e-06
1.15565e-05
2.83353e-05
3.89648e-05
6.7469e-05
4.87175e-05
9.60339e-06
1.17514e-05
2.8959e-05
4.19031e-05
7.65807e-05
4.76644e-05
1.0329e-05
1.2932e-05
4.09657e-05
6.53665e-05
3.44352e-05
2.45173e-05
1.05104e-05
8.7628e-06
4.45225e-05
5.22996e-05
3.5165e-05
2.80351e-05
1.14622e-05
9.26365e-06
4.35703e-05
5.66504e-05
3.75554e-05
2.89328e-05
1.15742e-05
9.3207e-06
4.42975e-05
6.00448e-05
3.94429e-05
2.97846e-05
1.16566e-05
9.67059e-06
4.69042e-05
6.44936e-05
4.15676e-05
3.02901e-05
1.18376e-05
1.02747e-05
4.70714e-05
7.3343e-05
6.33631e-05
4.11641e-05
1.29022e-05
9.98317e-06
2.67314e-05
3.5134e-05
5.17594e-05
4.3443e-05
8.93144e-06
1.16869e-05
2.96603e-05
3.5834e-05
5.54316e-05
4.37474e-05
9.36135e-06
1.17024e-05
3.06051e-05
3.77311e-05
5.81207e-05
4.41212e-05
9.44626e-06
1.178e-05
3.17493e-05
3.95594e-05
6.11315e-05
4.64924e-05
9.74757e-06
1.19282e-05
3.24357e-05
4.1458e-05
7.01867e-05
4.6447e-05
1.02715e-05
1.2875e-05
4.13542e-05
6.10937e-05
3.52116e-05
2.82956e-05
1.05718e-05
8.90769e-06
4.48024e-05
5.13403e-05
3.61016e-05
3.07253e-05
1.17786e-05
9.35822e-06
4.28725e-05
5.4491e-05
3.7837e-05
3.15225e-05
1.18192e-05
9.53724e-06
4.38217e-05
5.6645e-05
3.95905e-05
3.2698e-05
1.18835e-05
9.69035e-06
4.59973e-05
5.90654e-05
4.08978e-05
3.40377e-05
1.19737e-05
1.01386e-05
4.58043e-05
6.78987e-05
5.94219e-05
4.12981e-05
1.29077e-05
1.02642e-05
2.98532e-05
3.53221e-05
5.04059e-05
4.39779e-05
9.10656e-06
1.19305e-05
3.20665e-05
3.64877e-05
5.38166e-05
4.35115e-05
9.48225e-06
1.19773e-05
3.28155e-05
3.84417e-05
5.55284e-05
4.37039e-05
9.57989e-06
1.19833e-05
3.38502e-05
3.97547e-05
5.75578e-05
4.53919e-05
9.74814e-06
1.20989e-05
3.55975e-05
4.07782e-05
6.64972e-05
4.55419e-05
1.01885e-05
1.3008e-05
4.16351e-05
5.85412e-05
3.54737e-05
3.10246e-05
1.03412e-05
9.0181e-06
4.44538e-05
5.02912e-05
3.69923e-05
3.33144e-05
1.18706e-05
9.745e-06
4.35172e-05
5.36086e-05
3.88795e-05
3.39324e-05
1.20948e-05
9.709e-06
4.39385e-05
5.5161e-05
3.99479e-05
3.49431e-05
1.1994e-05
9.72133e-06
4.55976e-05
5.70896e-05
4.11115e-05
3.71295e-05
1.22396e-05
1.04973e-05
4.60934e-05
6.61112e-05
5.85081e-05
4.26191e-05
1.33087e-05
1.09518e-05
3.2631e-05
3.64365e-05
5.12867e-05
4.70412e-05
8.85401e-06
1.2096e-05
3.47936e-05
3.81399e-05
5.43652e-05
4.40087e-05
9.79317e-06
1.23392e-05
3.53955e-05
3.99127e-05
5.59955e-05
4.4928e-05
9.96433e-06
1.23131e-05
3.67626e-05
4.12402e-05
5.81226e-05
4.7053e-05
9.83006e-06
1.24073e-05
3.90337e-05
4.24302e-05
6.69355e-05
4.75477e-05
1.05322e-05
1.34949e-05
4.42853e-05
5.97244e-05
3.80698e-05
3.49068e-05
1.07835e-05
9.16428e-06
4.83963e-05
5.30666e-05
3.98607e-05
3.70614e-05
1.21124e-05
9.88654e-06
4.68642e-05
5.65534e-05
4.20629e-05
3.77911e-05
1.24237e-05
1.00062e-05
4.75451e-05
5.88538e-05
4.31135e-05
3.99779e-05
1.24936e-05
1.05734e-05
4.79953e-05
6.75119e-05
6.04849e-05
4.50017e-05
1.36081e-05
1.11634e-05
3.62834e-05
3.90312e-05
5.39545e-05
4.96547e-05
9.41705e-06
1.24112e-05
3.88127e-05
4.11086e-05
5.77956e-05
4.83337e-05
1.01465e-05
1.25416e-05
3.9532e-05
4.33823e-05
6.01882e-05
4.91405e-05
1.0098e-05
1.27278e-05
4.17045e-05
4.45715e-05
6.8679e-05
4.94168e-05
1.08547e-05
1.40321e-05
4.67753e-05
6.19641e-05
4.07539e-05
3.83458e-05
1.15635e-05
9.55788e-06
5.20013e-05
5.63556e-05
4.32086e-05
4.08766e-05
1.26499e-05
1.0083e-05
5.13151e-05
6.09333e-05
4.52859e-05
4.28563e-05
1.2975e-05
1.09287e-05
5.00105e-05
6.96946e-05
6.2794e-05
4.74086e-05
1.43517e-05
1.14322e-05
3.93021e-05
4.15616e-05
5.72832e-05
5.21223e-05
9.75364e-06
1.27832e-05
4.2282e-05
4.42734e-05
6.19488e-05
5.22048e-05
1.03488e-05
1.31767e-05
4.44357e-05
4.6587e-05
7.08284e-05
5.13667e-05
1.10924e-05
1.46189e-05
4.90441e-05
6.43882e-05
4.35093e-05
4.15002e-05
1.19376e-05
1.01359e-05
5.42359e-05
5.93365e-05
4.61586e-05
4.41801e-05
1.31319e-05
1.05821e-05
5.42526e-05
6.44048e-05
4.87341e-05
4.66169e-05
1.35742e-05
1.15394e-05
5.381e-05
7.40318e-05
6.74229e-05
5.16517e-05
1.52496e-05
1.23882e-05
4.43852e-05
4.60797e-05
6.29628e-05
5.70401e-05
1.04823e-05
1.38727e-05
4.74276e-05
4.83172e-05
7.47333e-05
5.64399e-05
1.17249e-05
1.53824e-05
5.40448e-05
6.81968e-05
4.75212e-05
4.5433e-05
1.26244e-05
1.06397e-05
5.78068e-05
6.38331e-05
4.96345e-05
4.88747e-05
1.43315e-05
1.21758e-05
5.72831e-05
7.54611e-05
6.93871e-05
5.51603e-05
1.61486e-05
1.27748e-05
4.68185e-05
4.87801e-05
6.49637e-05
6.02238e-05
1.04116e-05
1.44271e-05
5.06886e-05
5.09029e-05
7.6798e-05
5.76558e-05
1.23115e-05
1.65096e-05
5.617e-05
7.08848e-05
5.04966e-05
4.91874e-05
1.3455e-05
1.09511e-05
6.18978e-05
6.68402e-05
5.32282e-05
5.3741e-05
1.47399e-05
1.24188e-05
6.05711e-05
8.02651e-05
7.45449e-05
5.91778e-05
1.70188e-05
1.45133e-05
5.39211e-05
5.3573e-05
7.67428e-05
6.40537e-05
1.25007e-05
1.73897e-05
6.22721e-05
7.28178e-05
5.41381e-05
5.49825e-05
1.44926e-05
1.27975e-05
6.36295e-05
7.62857e-05
7.28772e-05
6.19305e-05
1.80968e-05
1.55918e-05
5.62457e-05
5.47012e-05
7.6335e-05
6.40669e-05
1.35234e-05
1.80045e-05
6.21296e-05
7.29487e-05
5.48727e-05
5.61637e-05
1.60382e-05
1.36695e-05
6.37205e-05
7.58045e-05
7.23819e-05
6.22805e-05
1.91317e-05
1.67062e-05
5.86947e-05
5.58368e-05
7.67965e-05
6.55228e-05
1.3608e-05
1.897e-05
6.39157e-05
7.39721e-05
5.74374e-05
6.0868e-05
1.70529e-05
1.47172e-05
6.72812e-05
7.87292e-05
7.60095e-05
6.56849e-05
2.05118e-05
1.75606e-05
6.49596e-05
5.98408e-05
8.35442e-05
7.12552e-05
1.53731e-05
2.33691e-05
7.63933e-05
7.99283e-05
7.53549e-05
7.25393e-05
2.13714e-05
1.97066e-05
6.86083e-05
6.33163e-05
8.62283e-05
7.34708e-05
1.73024e-05
2.70044e-05
7.53655e-05
8.54313e-05
8.22489e-05
7.54672e-05
2.65622e-05
2.83777e-05
7.98037e-05
7.72652e-05
7.65194e-05
7.58143e-05
2.86623e-05
3.04252e-05
7.86868e-05
7.36314e-05
7.2625e-05
7.2371e-05
2.87624e-05
2.65387e-05
7.27377e-05
6.61572e-05
8.26978e-05
7.40915e-05
2.3148e-05
3.68579e-05
7.64955e-05
8.13387e-05
8.01912e-05
8.19803e-05
3.99738e-05
4.16462e-05
8.67077e-05
8.00788e-05
8.04338e-05
9.04279e-05
4.30941e-05
4.32555e-05
9.45704e-05
8.08941e-05
8.19482e-05
9.86328e-05
4.24162e-05
4.14152e-05
0.00010272
8.30692e-05
8.49093e-05
0.000106975
3.99424e-05
3.84198e-05
0.000111172
8.70211e-05
8.93634e-05
0.000115634
3.68374e-05
3.52835e-05
0.000120003
9.21893e-05
9.55527e-05
0.000123523
3.38183e-05
3.24564e-05
0.000125183
9.91821e-05
0.000103261
0.000126881
3.12095e-05
3.00698e-05
0.000128194
0.000108121
0.000113876
0.00012917
2.90351e-05
2.80904e-05
0.000130001
0.000120021
0.000126355
0.00013092
2.72354e-05
2.64606e-05
0.000132072
0.000132563
0.00013898
0.000133299
2.57677e-05
2.51387e-05
0.000134595
0.000145262
0.000151677
0.000136143
2.45852e-05
2.40903e-05
0.000137808
0.000158039
0.000164497
0.000139466
2.36547e-05
2.32741e-05
0.000141397
0.000170082
0.000175215
0.000143277
2.29426e-05
2.26562e-05
0.000145309
0.000180431
0.00018535
0.000147392
2.24114e-05
2.22116e-05
0.000149747
0.000190282
0.000195292
0.000151856
2.20377e-05
2.18996e-05
0.000154134
0.000200202
0.000205019
0.000156617
2.17904e-05
2.17024e-05
0.000158836
0.000209794
0.000214705
0.000161248
2.1635e-05
2.15875e-05
0.000163492
0.0002192
0.000223733
0.000166021
2.1555e-05
2.15349e-05
0.000168112
0.000228258
0.000232445
0.000170553
2.15237e-05
2.15229e-05
0.000172605
0.000236774
0.000240802
0.000174898
2.15264e-05
2.15358e-05
0.000176895
0.000244768
0.000248758
0.000178876
2.15449e-05
2.15567e-05
0.000180746
0.000252346
0.000255914
0.000182729
2.1574e-05
2.15787e-05
0.000184233
0.000259437
0.000262687
0.000186039
2.15972e-05
2.15983e-05
0.000187465
0.000265845
0.000268932
0.000189004
2.16118e-05
2.16085e-05
0.000190273
0.000271758
0.000274697
0.000191411
2.16105e-05
2.16061e-05
0.000192644
0.000277294
0.000279932
0.000193513
2.15967e-05
2.15903e-05
0.000194635
0.000282319
0.000284637
0.000195312
2.15713e-05
2.15579e-05
0.000196109
0.00028707
0.000289184
0.000196705
2.15334e-05
2.15145e-05
0.000197337
0.000291334
0.000293446
0.00019782
2.1485e-05
2.14635e-05
0.000198306
0.000295382
0.000297425
0.000198639
2.143e-05
2.1404e-05
0.00019895
0.000299311
0.000301123
0.000199353
2.13718e-05
2.13385e-05
0.000199392
0.000303129
0.000304752
0.000199692
2.13047e-05
2.12736e-05
0.000199917
0.000306625
0.000308374
0.000199843
2.12319e-05
2.12015e-05
0.000200029
0.000310308
0.000311928
0.000199972
2.11595e-05
2.11293e-05
0.000200072
0.0003137
0.000315511
0.000200019
2.10874e-05
2.1057e-05
0.000200002
0.000317266
0.000318889
0.000200112
2.10194e-05
2.09882e-05
0.000200024
0.000320751
0.000322473
0.000199926
2.09493e-05
2.09217e-05
0.00019997
0.000324307
0.00032604
0.000199826
2.0884e-05
2.08569e-05
0.0001998
0.000327763
0.000328756
0.0001999
2.08261e-05
2.07985e-05
0.000199778
0.000329751
0.000330628
0.000199734
2.07694e-05
2.07444e-05
0.000199692
0.000331514
0.00033233
0.000199621
2.07177e-05
2.06919e-05
0.000199476
0.00033312
0.000333907
0.000199601
2.06715e-05
2.06418e-05
0.000199238
0.000334632
0.000335389
0.000199343
2.06239e-05
2.05978e-05
0.000199211
0.000336086
0.000336807
0.000198941
2.05749e-05
2.05545e-05
0.000198979
0.000337496
0.000338189
0.000198622
2.05289e-05
2.05122e-05
0.000198634
0.000338859
0.000339566
0.000198439
2.04881e-05
2.04726e-05
0.00019837
0.000340217
0.000340944
0.000198248
2.04508e-05
2.04333e-05
0.000197958
0.000341573
0.000342312
0.000198018
2.04168e-05
2.04e-05
0.000197774
0.000342956
0.000343674
0.00019769
2.03844e-05
2.0371e-05
0.000197578
0.000344351
0.000345062
0.00019746
2.03571e-05
2.03448e-05
0.000197274
0.000345774
0.000346456
0.000197347
2.03355e-05
2.03261e-05
0.000197338
0.00034723
0.00034793
0.000197172
2.03163e-05
2.03076e-05
0.000197096
0.000348684
0.000349426
0.000197098
2.03022e-05
2.02947e-05
0.000197017
0.000350165
0.000350944
0.000196937
2.0291e-05
2.02887e-05
0.00019713
0.000351696
0.000352495
0.000197007
2.02852e-05
2.02846e-05
0.000197045
0.000353266
0.000354059
0.000196932
2.02824e-05
2.0286e-05
0.000197126
0.00035487
0.000355668
0.000197227
2.02873e-05
2.02893e-05
0.00019716
0.000356498
0.000357307
0.000197234
2.02928e-05
2.02962e-05
0.000197183
0.000358147
0.000358993
0.000197397
2.0304e-05
2.03101e-05
0.000197579
0.000359814
0.000360685
0.000197437
2.03164e-05
2.03263e-05
0.00019779
0.00036151
0.00036239
0.000197776
2.03344e-05
2.03448e-05
0.000197898
0.000363226
0.000364108
0.000198021
2.03552e-05
2.03674e-05
0.000198155
0.00036496
0.000365841
0.000198325
2.03796e-05
2.03933e-05
0.000198455
0.000366687
0.00036758
0.000198635
2.0407e-05
2.04221e-05
0.000198776
0.000368403
0.000369332
0.000198972
2.04371e-05
2.04537e-05
0.000199128
0.000370123
0.000371045
0.000199329
2.04698e-05
2.04878e-05
0.000199495
0.000371856
0.000372742
0.000199707
2.05047e-05
2.05241e-05
0.000199894
0.000373581
0.000374422
0.000200073
2.05414e-05
2.05621e-05
0.000200295
0.000375272
0.000376103
0.000200465
2.05799e-05
2.06007e-05
0.000200587
0.000376946
0.000377761
0.000201031
2.06219e-05
2.06415e-05
0.000200995
0.000378591
0.000379398
0.000201438
2.06642e-05
2.06826e-05
0.00020138
0.0003802
0.000381008
0.000201748
2.07063e-05
2.07273e-05
0.000202055
0.000381781
0.000382581
0.000202027
2.07482e-05
2.07716e-05
0.000202466
0.000383342
0.000384114
0.000202527
2.07919e-05
2.08144e-05
0.000202744
0.000384882
0.000385614
0.000202941
2.0836e-05
2.08589e-05
0.000203155
0.000386371
0.000387077
0.00020335
2.08806e-05
2.09039e-05
0.000203558
0.000387807
0.00038851
0.000203742
2.09253e-05
2.09491e-05
0.000203947
0.000389226
0.000389925
0.000204124
2.09699e-05
2.09943e-05
0.000204339
0.000390596
0.000391265
0.000204497
2.10145e-05
2.10395e-05
0.000204716
0.000391934
0.000392583
0.00020485
2.10589e-05
2.10833e-05
0.000204956
0.000393239
0.000393861
0.000205371
2.11049e-05
2.1128e-05
0.000205299
0.0003945
0.000395097
0.000205709
2.11492e-05
2.1172e-05
0.00020564
0.000395718
0.000396294
0.000206027
2.11933e-05
2.12157e-05
0.000206059
0.000396891
0.000397452
0.000206211
2.12351e-05
2.12577e-05
0.000206267
0.000398016
0.000398574
0.000206663
2.12795e-05
2.12999e-05
0.000206547
0.000399103
0.000399637
0.000206828
2.13211e-05
2.13432e-05
0.000206974
0.000400155
0.000400677
0.000207096
2.13625e-05
2.13848e-05
0.000207252
0.000401165
0.000401674
0.000207489
2.14043e-05
2.14242e-05
0.000207368
0.000402152
0.000402626
0.000207745
2.1445e-05
2.14636e-05
0.000207615
0.00040309
0.000403535
0.000207987
2.14856e-05
2.15019e-05
0.000207811
0.000403994
0.000404392
0.000208113
2.15243e-05
2.15427e-05
0.000208313
0.000404872
0.00040522
0.000208283
2.15621e-05
2.15796e-05
0.000208394
0.000405706
0.000406013
0.000208494
2.15997e-05
2.16168e-05
0.000208598
0.000406486
0.000406767
0.00020869
2.16367e-05
2.16534e-05
0.00020879
0.000407226
0.000407514
0.000208876
2.16732e-05
2.16893e-05
0.000208967
0.000407868
0.000408182
0.000208944
2.17082e-05
2.17262e-05
0.000209274
0.000408508
0.000408786
0.000209216
2.17436e-05
2.17592e-05
0.000209257
0.000409091
0.000409351
0.000209242
2.17761e-05
2.17945e-05
0.00020956
0.000409631
0.000409854