/*--------------------------------*- C++ -*----------------------------------*\
| =========                 |                                                 |
| \\      /  F ield         | OpenFOAM: The Open Source CFD Toolbox           |
|  \\    /   O peration     | Version:  v2006                                 |
|   \\  /    A nd           | Website:  www.openfoam.com                      |
|    \\/     M anipulation  |                                                 |
\*---------------------------------------------------------------------------*/
FoamFile
{
    version     2.0;
    format      ascii;
    class       volScalarField;
    location    "0.03";
    object      p;
}
// * * * * * * * * * * * * * * * * * * * * * * * * * * * * * * * * * * * * * //

dimensions      [1 -1 -2 0 0 0 0];


internalField   nonuniform List<scalar> 
24416
(
144424
144423
144454
144455
144454
144455
144455
144455
144455
144456
144456
144456
144457
144457
144457
144458
144458
144458
144457
144457
144457
144458
144462
144468
144476
144486
144497
144508
144519
144531
144543
144554
144566
144578
144591
144603
144616
144628
144641
144655
144668
144681
144695
144709
144723
144737
144751
144765
144779
144793
144808
144822
144836
144851
144865
144879
144894
144908
144922
144936
144951
144965
144979
144993
145006
145020
145034
145047
145060
145074
145086
145099
145112
145124
145137
145149
145160
145172
145183
145194
145205
145216
145226
145237
145248
145258
145269
145279
145288
145294
145298
145300
145299
145298
145296
145294
145292
145291
145289
145288
145287
145292
145295
145311
145327
145345
145383
145448
145491
145518
145476
145473
145460
145456
145459
145461
145445
145445
145445
145431
145430
145429
145417
145417
145418
145406
145405
145404
145394
145395
145395
145385
145384
145383
145374
145375
145376
145367
145366
145366
145358
145358
145359
145352
145351
145350
145344
145344
145345
145339
145338
145338
145332
145333
145334
145329
145328
145328
145324
145324
145325
145321
145320
145320
145317
145317
145318
145315
145314
145314
145311
145312
145312
145310
145310
145309
145308
145308
145309
145307
145307
145306
145306
145306
145307
145306
145305
145305
145305
145305
145306
145305
145305
145304
145305
145305
145305
145306
145305
145305
145306
145306
145307
145307
145307
145307
145308
145308
145309
145310
145310
145309
145311
145311
145312
145314
145313
145313
145315
145316
145316
145318
145318
145317
145320
145320
145321
145323
145323
145323
145326
145326
145327
145330
145329
145329
145332
145333
145333
145336
145336
145336
145340
145340
145341
145344
145344
145344
145348
145348
145349
145353
145352
145352
145357
145357
145358
145362
145362
145361
145367
145367
145367
145372
145372
145372
145377
145377
145378
145383
145383
145382
145388
145388
145389
145394
145394
145394
145400
145400
145401
145407
145406
145406
145413
145413
145413
145420
145419
145419
145426
145426
145427
145433
145433
145433
145440
145440
145441
145448
145447
145447
145455
145455
145456
145463
145463
145462
145470
145471
145471
145479
145479
145478
145487
145487
145487
145496
145495
145495
145504
145504
145505
145513
145513
145513
145522
145522
145522
145531
145531
145531
145540
145541
145541
145550
145550
145550
145560
145560
145561
145570
145570
145570
145580
145580
145581
145591
145591
145590
145601
145601
145602
145612
145612
145612
145623
145623
145624
145635
145634
145634
145646
145646
145646
145658
145657
145657
145669
145670
145670
145682
145682
145681
145694
145694
145694
145707
145706
145706
145719
145719
145720
145733
145732
145732
145745
145746
145746
145759
145759
145759
145773
145773
145773
145787
145787
145787
145801
145801
145802
145816
145816
145815
145830
145830
145831
145846
145845
145845
145860
145861
145861
145876
145876
145876
145892
145892
145892
145908
145908
145908
145924
145924
145925
145941
145941
145941
145957
145958
145958
145975
145975
145974
145992
145992
145993
146010
146010
146010
146028
146028
146029
146046
146046
146046
146065
146065
146065
146084
146084
146083
146103
146103
146103
146123
146122
146122
146142
146142
146143
146162
146162
146162
146182
146183
146183
146203
146203
146203
146224
146224
146225
146246
146245
146245
146267
146267
146268
146289
146289
146289
146311
146312
146312
146334
146334
146334
146357
146357
146358
146381
146380
146380
146404
146404
146405
146428
146428
146428
146452
146452
146453
146477
146477
146476
146502
146502
146503
146527
146527
146527
146552
146553
146553
146579
146579
146578
146605
146605
146606
146632
146632
146631
146658
146659
146659
146686
146686
146686
146713
146714
146715
146742
146742
146741
146770
146770
146771
146799
146799
146798
146828
146828
146829
146858
146857
146857
146887
146887
146888
146917
146917
146916
146947
146947
146948
146978
146978
146977
147008
147009
147009
147040
147040
147039
147071
147071
147072
147104
147103
147103
147135
147135
147136
147168
147167
147167
147200
147200
147201
147233
147233
147232
147265
147266
147266
147299
147299
147298
147332
147332
147333
147367
147366
147366
147399
147400
147401
147434
147434
147433
147467
147468
147469
147503
147502
147502
147536
147536
147537
147571
147570
147570
147604
147605
147606
147640
147639
147639
147673
147673
147674
147708
147708
147707
147741
147742
147743
147776
147776
147775
147809
147810
147811
147844
147844
147843
147877
147877
147878
147911
147911
147910
147944
147944
147945
147978
147977
147976
148009
148010
148011
148043
148042
148042
148074
148074
148075
148106
148106
148105
148137
148137
148138
148168
148168
148167
148198
148198
148199
148229
148228
148228
148257
148258
148258
148287
148286
148286
148314
148315
148315
148343
148342
148342
148369
148369
148370
148396
148396
148395
148421
148422
148423
148447
148447
148446
148471
148471
148472
148496
148495
148495
148518
148519
148519
148541
148541
148541
148562
148563
148563
148584
148584
148583
148604
148604
148605
148624
148624
148624
148643
148643
148644
148662
148661
148661
148679
148679
148680
148696
148696
148696
148712
148712
148713
148728
148728
148728
148743
148743
148744
148758
148757
148757
148771
148771
148772
148785
148785
148784
148797
148797
148798
148810
148809
148809
148821
148821
148821
148832
148832
148832
148843
148843
148843
148853
148853
148853
148862
148863
148863
148872
148872
148872
148880
148881
148881
148889
148889
148889
148897
148897
148897
148905
148905
148905
148912
148912
148912
148919
148919
148919
148926
148926
148926
148932
148932
148932
148938
148938
148939
148944
148944
148944
148950
148950
148950
148956
148956
148956
148961
148961
148962
148967
148967
148967
148972
148972
148972
148977
148977
148977
148982
148982
148982
148988
148987
148987
148992
148993
148993
148997
148997
148997
148997
148997
148995
148997
148994
148995
148992
148994
148992
148993
148992
148993
148993
148994
148993
148995
148995
148996
148997
148998
148999
149000
149001
149003
149004
149006
149008
149009
149011
149012
149013
149015
149016
149017
149017
149018
149018
149019
149018
149018
149017
149017
149015
149014
149010
149008
149008
149010
149011
149013
149015
149015
149021
149022
149021
149028
149028
149027
149033
149034
149034
149042
149042
149041
149053
149053
149053
149062
149063
149062
149074
149074
149074
149083
149083
149083
149094
149094
149094
149102
149102
149102
149112
149112
149112
149120
149120
149120
149131
149131
149131
149138
149138
149138
149148
149148
149148
149156
149156
149156
149167
149167
149167
149175
149175
149175
149185
149185
149185
149193
149193
149194
149205
149205
149204
149213
149213
149213
149224
149224
149224
149233
149233
149233
149245
149245
149245
149254
149254
149254
149266
149266
149265
149276
149276
149276
149289
149289
149288
149299
149299
149299
149312
149312
149311
149322
149323
149323
149337
149337
149336
149348
149348
149348
149362
149362
149362
149374
149375
149375
149390
149390
149389
149402
149403
149403
149418
149418
149417
149431
149432
149432
149448
149448
149448
149462
149462
149462
149478
149478
149478
149493
149493
149493
149509
149509
149509
149522
149521
149520
149535
149538
149540
149562
149560
149556
149591
149595
149596
149631
149630
149626
149670
149673
149672
149713
149714
149713
149754
149756
149755
149795
149794
149791
149837
149841
149843
149885
149888
149881
149942
149835
149935
149968
149954
149968
150010
150010
150005
150052
150056
150058
150108
150104
150090
150139
150148
150156
150244
150227
150201
150259
150294
150307
150377
150357
150308
150352
150414
150441
150515
150475
150409
150427
150513
150577
150630
150530
150426
150389
150503
150648
150628
150437
150341
150184
150306
150565
150455
150191
150114
149947
150002
150272
149970
149782
149782
149464
149476
149606
149122
149166
149258
148896
148768
148593
147938
148401
148567
148229
148053
147299
146550
147507
147664
147374
147263
145866
145003
146776
146865
146316
146202
144110
142828
145652
145924
145299
144820
141386
139582
143563
144367
143544
142459
138393
137169
141333
142558
141456
140352
136560
136113
139747
140773
140108
139220
136251
136400
138801
139426
139273
138838
137144
137692
138833
139214
139130
138928
138267
138808
139273
139444
139636
139477
139212
139330
139605
139697
140158
140134
140140
140386
140414
140398
140617
140240
140644
141059
141198
141084
141234
141220
141248
141089
141382
141154
141719
141664
141718
141746
141762
141759
141801
141497
141849
142091
142196
142086
142162
142154
142183
141973
142277
142040
142478
142401
142505
142487
142460
142447
142308
142609
142245
142884
142456
142762
142661
142525
142689
142851
142863
142835
142838
142833
142862
142681
142937
142724
143051
143027
143050
143038
143014
143010
142877
143151
142822
143193
143130
143179
143115
143132
143160
142848
143244
142977
143353
143013
143451
143118
143224
143127
143295
143302
143306
143304
143266
143254
143116
143455
143030
143480
143188
143418
143266
143257
143286
143419
143415
143395
143360
143382
143378
143440
143105
143350
143406
143492
143423
143362
143383
143401
143386
142995
143525
143217
143785
143301
143254
143546
143185
143427
143423
143430
143330
143350
143343
143472
143469
143443
143379
143387
143416
143089
143493
143212
143495
143247
143544
143361
143354
143318
143406
143425
143429
143380
143346
143325
143133
143516
142996
143552
143075
143449
143295
143076
143391
143318
143354
143295
143207
143167
143205
143280
143289
143268
143202
143209
143193
143379
142852
143183
143069
143532
143060
143064
143101
143111
143137
143151
143140
143010
143011
143016
143090
143114
143115
143092
143039
143012
142801
143211
142674
143174
142684
143093
142889
142630
142978
142899
142923
142881
142792
142755
142799
142885
142879
142850
142752
142781
142819
142337
142857
142537
142844
142353
142958
142715
142397
142588
142593
142679
142632
142526
142459
142506
142521
142550
142547
142375
142373
142386
142425
142444
142438
142390
142359
142332
142127
142539
141991
142487
142034
142422
142186
141936
142287
142172
142217
142146
142052
141954
142064
142022
142083
142031
141912
141859
141907
141992
141986
141955
141819
141819
141828
141852
141855
141833
141720
141740
141769
141357
141782
141478
141734
141376
141797
141599
141387
141498
141495
141595
141526
141390
141325
141377
141350
141408
141342
141199
141159
141202
141228
141258
141259
141091
141084
141086
141100
141123
141123
141023
140997
140978
140733
141061
140653
140972
140706
140938
140726
140609
140786
140712
140793
140701
140570
140484
140561
140535
140600
140546
140409
140363
140410
140448
140448
140421
140267
140267
140279
140265
140270
140253
140122
140134
140157
139740
140098
139850
140099
139803
140172
139894
139777
139829
139811
139902
139816
139644
139588
139642
139627
139678
139641
139442
139423
139452
139444
139477
139462
139293
139276
139280
139251
139283
139250
139094
139091
139109
138931
138631
139078
138915
139130
138890
138805
138760
138767
138712
138805
138752
138561
138513
138570
138532
138588
138531
138333
138286
138316
138274
138342
138302
138123
138093
138135
138144
138155
138122
137979
137987
138013
137648
137834
137674
137785
137572
137860
137531
137465
137521
137495
137571
137473
137293
137245
137296
137282
137331
137266
137123
137074
137092
137053
137103
137049
136822
136797
136832
136799
136834
136799
136656
136610
136618
136261
136492
136148
136493
136386
136449
136188
136235
136158
136185
136124
136162
135899
135941
135903
135878
135817
135847
135557
135576
135493
135527
135511
135526
135321
135333
135300
134988
135037
135013
135108
135200
135140
134835
134903
134891
134832
134804
134897
134516
134563
134545
134411
134383
134394
133982
134066
134084
134111
134130
134109
133965
133996
133961
133695
133453
133808
133640
133764
133609
133377
133269
133331
133160
133293
133204
132849
132721
132739
132719
132801
132787
132613
132589
132660
132152
132398
132216
132321
132257
132366
131953
132047
131997
131862
131795
131877
131313
131439
131429
131333
131309
131252
131056
131085
131096
130734
130759
130686
130891
130907
130838
130583
130568
130561
130325
130463
130361
129912
129801
129809
129476
129584
129644
129408
129369
129324
129075
129054
129067
129095
129155
129114
128811
128818
128835
128587
128653
128594
128073
128079
128134
127421
127256
127197
127452
127480
127475
127279
127249
127255
127200
127244
127186
126843
126837
126904
126110
126226
126111
125821
125792
125635
125088
125238
125350
125354
125330
125266
125113
125166
125130
124669
124514
124757
124338
124518
124382
123841
123670
123722
122802
123029
123202
122848
122727
122595
122365
122385
122418
122398
122431
122407
121958
122050
121984
121192
120849
121125
120017
120207
120419
120109
119987
119849
119605
119530
119613
119570
119708
119525
119127
118865
119086
117655
117846
117105
117043
117318
117455
117089
116963
116899
116293
116414
116374
115980
115830
116036
114137
114706
114971
113765
113470
113064
113659
113752
113804
113527
113305
113450
111790
112476
112139
111395
110742
110145
110200
110454
110753
110172
109923
109938
108245
108798
108844
108327
107713
107147
107235
107533
107938
107267
106911
106462
104604
105446
106000
105541
105265
104786
103634
104465
104939
104921
104492
103880
103480
104132
104652
106559
106301
105927
108155
108341
108564
110785
110699
110635
112759
112765
112770
114307
114309
114305
115437
115447
115452
116369
116360
116349
117148
117157
117163
117873
117867
117858
118499
118507
118513
119091
119086
119078
119605
119612
119617
120098
120092
120087
120528
120533
120539
120945
120939
120934
121310
121314
121319
121666
121661
121657
121980
121983
121989
122288
122283
122279
122558
122562
122567
122828
122823
122820
123065
123068
123073
123304
123299
123296
123515
123518
123523
123729
123724
123722
123918
123920
123924
124110
124106
124104
124281
124283
124287
124456
124452
124450
124612
124614
124617
124771
124768
124766
124914
124916
124919
125061
125058
125056
125192
125194
125197
125327
125325
125323
125449
125451
125453
125574
125572
125570
125687
125688
125690
125802
125800
125799
125907
125909
125911
126014
126013
126012
126113
126114
126116
126212
126211
126210
126304
126305
126307
126397
126396
126395
126483
126484
126485
126570
126569
126568
126651
126652
126653
126732
126731
126731
126808
126809
126810
126884
126884
126883
126956
126957
126957
127027
127027
127027
127096
127096
127097
127162
127162
127162
127227
127227
127228
127290
127290
127289
127351
127351
127351
127410
127410
127410
127468
127468
127468
127524
127524
127524
127579
127579
127579
127631
127632
127631
127683
127684
127684
127733
127734
127733
127783
127783
127783
127830
127831
127830
127877
127877
127877
127922
127922
127922
127967
127967
127967
128010
128010
128010
128052
128052
128052
128093
128093
128093
128134
128134
128134
128172
128172
128172
128211
128211
128211
128248
128248
128248
128285
128285
128285
128320
128321
128321
128356
128356
128356
128389
128390
128390
128423
128423
128424
128455
128456
128456
128488
128488
128488
128518
128519
128519
128550
128550
128550
128579
128579
128579
128609
128609
128609
128637
128637
128637
128665
128665
128665
128692
128692
128692
128719
128719
128719
128745
128745
128745
128771
128771
128771
128796
128796
128796
128821
128821
128821
128844
128845
128845
128869
128869
128869
128891
128891
128892
128914
128914
128914
128936
128936
128936
128958
128958
128958
128979
128979
128979
129000
129000
129000
129020
129020
129020
129041
129041
129041
129060
129060
129060
129080
129079
129079
129098
129098
129098
129117
129117
129117
129134
129135
129135
129153
129152
129152
129169
129170
129170
129187
129187
129187
129203
129203
129204
129220
129220
129220
129235
129236
129236
129252
129252
129252
129267
129267
129267
129283
129282
129282
129297
129297
129297
129312
129312
129312
129326
129326
129326
129340
129340
129340
129353
129353
129354
129367
129367
129367
129380
129380
129380
129393
129393
129393
129405
129406
129406
129419
129418
129418
129430
129430
129431
129443
129442
129442
129454
129454
129454
129466
129466
129466
129476
129477
129477
129488
129488
129488
129498
129499
129499
129510
129509
129509
129519
129520
129520
129530
129530
129530
129539
129540
129540
129550
129550
129550
129559
129559
129559
129569
129569
129569
129577
129578
129578
129587
129587
129587
129596
129596
129596
129605
129605
129605
129613
129613
129613
129622
129622
129622
129629
129630
129630
129638
129638
129638
129645
129646
129646
129654
129654
129653
129661
129661
129661
129669
129669
129668
129675
129676
129676
129683
129683
129683
129690
129690
129690
129697
129697
129697
129703
129703
129704
129711
129710
129710
129716
129717
129717
129723
129723
129723
129729
129729
129730
129736
129736
129736
129741
129741
129742
129748
129748
129747
129753
129753
129753
129759
129759
129759
129764
129764
129765
129770
129770
129770
129775
129775
129775
129781
129781
129781
129785
129786
129786
129791
129791
129791
129795
129796
129796
129801
129801
129801
129805
129805
129806
129810
129810
129810
129814
129815
129815
129819
129819
129819
129823
129824
129824
129828
129828
129828
129832
129832
129832
129837
129837
129836
129840
129841
129841
129845
129845
129845
129848
129849
129849
129853
129853
129852
129856
129856
129856
129860
129860
129860
129863
129864
129864
129867
129867
129867
129870
129871
129871
129874
129874
129874
129877
129878
129878
129881
129881
129881
129884
129884
129884
129888
129887
129887
129890
129890
129891
129894
129894
129893
129896
129896
129897
129900
129900
129899
129902
129902
129902
129905
129905
129905
129908
129908
129908
129911
129911
129911
129913
129913
129913
129916
129916
129916
129918
129918
129919
129921
129921
129921
129923
129923
129924
129926
129926
129926
129928
129928
129928
129931
129931
129931
129933
129933
129933
129935
129935
129935
129937
129937
129937
129940
129940
129939
129941
129942
129942
129944
129944
129944
129945
129946
129946
129948
129948
129948
129949
129950
129950
129952
129952
129951
129953
129953
129953
129955
129955
129955
129957
129957
129957
129959
129959
129959
129960
129960
129961
129962
129962
129962
129964
129964
129964
129965
129965
129965
129967
129967
129967
129969
129969
129968
129970
129970
129970
129972
129971
129971
129973
129973
129973
129974
129974
129974
129975
129976
129976
129977
129977
129977
129978
129978
129978
129980
129980
129980
129981
129981
129981
129982
129982
129982
129983
129983
129983
129984
129984
129984
129985
129985
129986
129987
129987
129987
129988
129988
129988
129989
129989
129989
129990
129990
129990
129991
129991
129991
129992
129992
129992
129993
129993
129993
129993
129994
129994
129995
129995
129995
129995
129995
129995
129996
129996
129996
129997
129997
129997
129998
129998
129998
129999
129999
129999
130000
130000
130000
130000
130000
130000
130001
130001
130001
130002
130002
130002
130002
130002
130002
130003
130003
130003
130004
130004
130004
130004
130004
130004
130005
130005
130005
130005
130006
130006
130006
130006
130006
130007
130007
130007
130007
130007
130007
130008
130008
130008
130008
130008
130008
130009
130009
130009
130009
130009
130009
130010
130010
130010
130010
130010
130010
130010
130011
130011
130011
130011
130011
130011
130011
130011
130012
130012
130012
130012
130012
130012
130012
130012
130012
130013
130013
130013
130013
130013
130013
130013
130013
130013
130014
130014
130014
130014
130014
130014
130014
130014
130014
130014
130014
130014
130015
130015
130015
130015
130015
130015
130015
130015
130015
130015
130015
130015
130016
130015
130015
130015
130016
130016
130016
130016
130016
130016
130016
130016
130016
130016
130016
130016
130016
130016
130016
130016
130016
130016
130016
130016
130017
130017
130016
130016
130017
130017
130017
130017
130017
130017
130017
130017
130017
130017
130017
130017
130017
130017
130017
130017
130017
130017
130017
130017
130017
130017
130017
130017
130017
130017
130017
130017
130017
130017
130017
130017
130017
130017
130017
130017
130017
130017
130017
130017
130017
130017
130017
130017
130017
130017
130017
130016
130016
130017
130016
130016
130016
130016
130016
130016
130016
130016
130016
130016
130016
130016
130016
130016
130016
130016
130016
130016
130016
130016
130016
130016
130016
130016
130016
130016
130016
130015
130015
130015
130015
130015
130015
130015
130015
130015
130015
130015
130015
130015
130015
130015
130015
130014
130014
130014
130014
130014
130014
130014
130014
130014
130014
130014
130014
130014
130014
130013
130013
130013
130013
130013
130013
130013
130013
130013
130013
130013
130013
130012
130012
130012
130012
130012
130012
130012
130012
130012
130011
130011
130011
130011
130011
130011
130011
130011
130011
130010
130010
130010
130010
130010
130010
130009
130010
130010
130009
130009
130009
130009
130009
130009
130008
130008
130008
130008
130008
130008
130008
130008
130008
130007
130007
130007
130007
130007
130007
130006
130006
130006
130006
130006
130006
130005
130005
130005
130004
130004
130004
130004
130004
130004
130003
130003
130003
130002
130003
130003
130002
130002
130002
130001
130001
130001
130000
130000
130000
130000
130000
130000
129999
129999
129999
129998
129998
129998
129997
129997
129997
129996
129996
129996
129995
129995
129995
129994
129994
129994
129993
129993
129993
129992
129992
129992
129991
129991
129991
129990
129990
129990
129989
129989
129989
129988
129988
129988
129987
129987
129987
129986
129986
129986
129985
129985
129985
129983
129983
129983
129982
129982
129982
129981
129981
129981
129980
129980
129980
129979
129979
129979
129978
129978
129978
129977
129977
129977
129976
129976
129976
129974
129974
129975
129973
129973
129973
129972
129972
129972
129970
129970
129971
129968
129968
129968
129965
129965
129965
129960
129960
129960
129961
129962
129962
129979
129978
129977
130017
130020
130021
130042
130041
130038
130043
130050
130038
130034
130050
130077
130031
129997
130047
130090
130071
130040
130024
130015
130010
130007
130004
130003
130003
130003
130003
130003
130003
130004
130004
130004
130004
130004
130005
130005
130005
130005
130005
130005
130005
130005
130004
130004
130003
130003
130002
130001
130000
129999
129998
129997
129996
129995
129994
129992
129992
129991
129991
129989
129990
129988
129989
129999
130002
130003
130005
130007
130009
130011
130013
130015
130018
130021
130024
130028
130032
130036
130041
130046
130052
130059
130066
130074
130083
130092
130103
130114
130126
130138
130151
130164
130177
130189
130201
130211
130219
130223
130224
130224
130223
130223
130225
130228
130232
130237
130243
130249
130256
130264
130273
130282
130292
130302
130313
130325
130338
130351
130366
130381
130398
130416
130434
130455
130476
130499
130524
130551
130579
130610
130642
130677
130714
130753
130794
130839
130886
130935
130988
131044
131103
131165
131231
131300
131373
131449
131529
131614
131702
131795
131891
131992
132097
132206
132320
132438
132560
132686
132817
132951
133090
133232
133378
133528
133681
133838
133997
134160
134325
134492
134662
134833
135006
135181
135357
135534
135711
135889
136067
136245
136422
136599
136775
136951
137125
137297
137469
137638
137806
137972
138135
138297
138456
138613
138767
138919
139068
139214
139358
139499
139637
139772
139905
140035
140162
140286
140407
140525
140641
140754
140864
140972
141077
141179
141279
141376
141470
141562
141652
141739
141824
141907
141988
142066
142142
142216
142288
142358
142426
142492
142557
142619
142680
142739
142796
142852
142906
142958
143009
143059
143107
143153
143198
143242
143285
143326
143366
143405
143443
143479
143515
143549
143583
143615
143646
143677
143706
143735
143762
143789
143815
143840
143865
143888
143911
143933
143954
143974
143994
144013
144032
144050
144067
144083
144099
144114
144129
144143
144156
144169
144181
144192
144203
144214
144224
144234
144243
144253
144263
144273
144283
144294
144304
144314
144325
144336
144347
144357
144364
144368
144373
144388
144389
144388
144390
144391
144393
144396
144399
144402
144406
144410
144415
144421
144427
144433
144438
144443
144449
144457
144471
144482
144490
144497
144505
144514
144523
144533
144543
144553
144563
144574
144585
144596
144608
144620
144632
144645
144658
144670
144684
144697
144710
144724
144738
144751
144765
144779
144793
144808
144822
144836
144850
144864
144879
144893
144907
144921
144935
144949
144963
144977
144991
145005
145018
145032
145045
145058
145071
145083
145096
145108
145120
145132
145144
145155
145166
145177
145187
145197
145207
145217
145226
145235
145244
145252
145261
145268
145276
145283
145290
145295
145295
145294
145292
145291
145290
145293
145303
145323
145359
145394
145409
145416
145405
145395
145385
145376
145367
145359
145352
145345
145339
145334
145329
145325
145321
145318
145315
145313
145311
145310
145308
145307
145306
145306
145306
145306
145306
145307
145308
145310
145311
145313
145314
145317
145319
145322
145324
145328
145330
145334
145337
145341
145345
145350
145353
145358
145363
145368
145373
145378
145383
145390
145395
145402
145407
145414
145420
145428
145434
145442
145448
145456
145464
145472
145480
145488
145496
145506
145514
145523
145532
145542
145551
145561
145571
145582
145592
145603
145613
145625
145635
145647
145658
145671
145683
145696
145707
145721
145733
145747
145760
145775
145788
145803
145817
145832
145846
145862
145877
145894
145909
145926
145942
145959
145976
145994
146011
146030
146047
146067
146085
146105
146124
146144
146163
146184
146205
146226
146247
146269
146291
146314
146336
146359
146382
146406
146429
146454
146478
146504
146529
146555
146580
146607
146634
146661
146688
146716
146744
146773
146801
146830
146859
146889
146919
146950
146980
147011
147042
147074
147105
147138
147170
147203
147235
147268
147301
147335
147368
147403
147436
147471
147504
147539
147573
147608
147641
147676
147710
147745
147778
147813
147846
147880
147913
147947
147980
148013
148045
148077
148108
148140
148171
148201
148231
148261
148289
148318
148345
148372
148398
148425
148449
148474
148498
148521
148543
148566
148586
148607
148626
148646
148663
148681
148698
148715
148730
148745
148759
148773
148786
148799
148811
148823
148833
148844
148854
148864
148873
148882
148890
148898
148905
148913
148920
148927
148933
148939
148945
148951
148956
148962
148967
148973
148977
148983
148988
148993
148995
148991
148993
148994
148996
148993
148979
148987
148984
148977
148976
148976
148973
148967
148967
148971
148962
148966
148963
148956
148956
148956
148952
148945
148945
148952
148941
148945
148940
148933
148934
148932
148927
148920
148921
148929
148916
148919
148914
148905
148907
148905
148899
148890
148892
148902
148886
148889
148883
148873
148875
148872
148865
148854
148857
148869
148850
148853
148846
148834
148836
148832
148824
148811
148814
148828
148805
148809
148801
148787
148790
148783
148775
148760
148763
148780
148752
148756
148747
148731
148734
148726
148716
148699
148702
148721
148688
148693
148683
148664
148668
148658
148647
148627
148631
148652
148613
148619
148609
148587
148591
148578
148567
148544
148549
148571
148526
148534
148523
148499
148503
148487
148476
148450
148455
148479
148428
148438
148427
148399
148404
148386
148374
148346
148350
148375
148320
148331
148319
148290
148294
148274
148262
148232
148236
148262
148202
148215
148203
148171
148176
148154
148142
148109
148114
148141
148077
148091
148079
148045
148050
148027
148014
147980
147985
148012
147946
147961
147948
147914
147919
147894
147882
147847
147851
147879
147812
147826
147814
147779
147784
147758
147746
147711
147715
147743
147675
147690
147678
147642
147647
147621
147609
147574
147578
147606
147537
147552
147541
147505
147510
147484
147473
147437
147441
147469
147401
147416
147405
147369
147374
147348
147337
147302
147307
147334
147267
147281
147270
147236
147240
147216
147205
147171
147175
147202
147137
147151
147140
147106
147110
147087
147076
147043
147047
147073
147010
147024
147013
146981
146985
146962
146952
146920
146924
146949
146889
146902
146892
146860
146864
146842
146833
146802
146806
146830
146772
146784
146775
146745
146748
146728
146719
146689
146693
146716
146661
146673
146663
146635
146638
146619
146610
146582
146585
146607
146555
146566
146557
146530
146533
146515
146506
146479
146483
146504
146455
146465
146457
146431
146434
146417
146408
146383
146386
146407
146360
146370
146361
146337
146340
146324
146316
146292
146295
146314
146270
146279
146271
146248
146251
146236
146228
146206
146208
146227
146186
146194
146187
146164
146167
146154
146146
146125
146127
146145
146106
146114
146107
146086
146088
146076
146069
146048
146051
146068
146031
146039
146032
146012
146015
146003
145996
145977
145979
145996
145961
145968
145962
145943
145945
145935
145928
145910
145912
145928
145896
145902
145896
145878
145880
145871
145864
145847
145850
145864
145834
145840
145834
145818
145820
145811
145805
145789
145791
145805
145777
145783
145777
145761
145763
145755
145749
145734
145736
145750
145723
145729
145723
145708
145710
145703
145697
145683
145685
145698
145674
145678
145673
145659
145661
145655
145649
145636
145638
145650
145628
145632
145627
145614
145616
145610
145605
145592
145594
145606
145585
145588
145584