/*--------------------------------*- C++ -*----------------------------------*\
| =========                 |                                                 |
| \\      /  F ield         | OpenFOAM: The Open Source CFD Toolbox           |
|  \\    /   O peration     | Version:  v2006                                 |
|   \\  /    A nd           | Website:  www.openfoam.com                      |
|    \\/     M anipulation  |                                                 |
\*---------------------------------------------------------------------------*/
FoamFile
{
    version     2.0;
    format      ascii;
    class       surfaceScalarField;
    location    "0.03";
    object      phi;
}
// * * * * * * * * * * * * * * * * * * * * * * * * * * * * * * * * * * * * * //

dimensions      [1 0 -1 0 0 0 0];
oriented        oriented;


internalField   nonuniform List<scalar> 
48460
(
-1.76926e-05
-0.00120819
0.00119448
3.1419e-05
-0.00113339
0.00111571
2.75149e-06
6.59375e-05
-2.10952e-05
0.00128497
2.19267e-05
0.00139922
-5.00036e-05
0.00140848
-7.91317e-06
0.0014319
-2.2676e-05
0.0014053
-1.11655e-06
0.00139807
-3.35166e-06
0.00138293
1.00628e-06
0.00137729
-1.46056e-07
0.00137279
1.27132e-07
0.00137162
-1.09527e-08
0.00137097
-1.20255e-08
0.00137086
-1.31084e-08
0.0013709
-1.43002e-08
0.00137094
-1.51591e-08
0.00137098
-1.58854e-08
0.00137103
-2.20083e-08
0.00137107
-4.66228e-08
0.00137103
-9.86605e-08
0.00137076
-1.72481e-07
0.00137013
-2.54409e-07
0.00136917
-3.3404e-07
0.00136797
-4.05037e-07
0.00136662
-4.65183e-07
0.0013652
-5.1503e-07
0.00136375
-5.56247e-07
0.0013623
-5.90871e-07
0.00136086
-6.20706e-07
0.0013594
-6.47012e-07
0.00135794
-6.70563e-07
0.00135647
-6.91862e-07
0.00135497
-7.11225e-07
0.00135344
-7.28855e-07
0.0013519
-7.44897e-07
0.00135032
-7.59476e-07
0.00134872
-7.72712e-07
0.0013471
-7.84724e-07
0.00134546
-7.9562e-07
0.0013438
-8.05502e-07
0.00134212
-8.14449e-07
0.00134042
-8.22532e-07
0.00133871
-8.298e-07
0.00133698
-8.36286e-07
0.00133524
-8.42013e-07
0.00133348
-8.46985e-07
0.00133172
-8.51205e-07
0.00132994
-8.54707e-07
0.00132816
-8.57645e-07
0.00132637
-8.59934e-07
0.00132457
-8.61557e-07
0.00132277
-8.62498e-07
0.00132097
-8.62752e-07
0.00131916
-8.62327e-07
0.00131735
-8.61218e-07
0.00131555
-8.5944e-07
0.00131374
-8.57027e-07
0.00131194
-8.53974e-07
0.00131015
-8.50164e-07
0.00130836
-8.45596e-07
0.00130658
-8.40299e-07
0.00130481
-8.34291e-07
0.00130305
-8.2758e-07
0.00130131
-8.20164e-07
0.00129957
-8.12031e-07
0.00129785
-8.03155e-07
0.00129615
-7.93493e-07
0.00129446
-7.82995e-07
0.00129279
-7.7159e-07
0.00129115
-7.59201e-07
0.00128952
-7.45756e-07
0.00128791
-7.31207e-07
0.00128633
-7.15534e-07
0.00128478
-6.98773e-07
0.00128325
-6.81001e-07
0.00128175
-6.62275e-07
0.00128029
-6.42539e-07
0.00127885
-6.21449e-07
0.00127743
-5.9817e-07
0.00127603
-5.71321e-07
0.00127463
-5.38741e-07
0.00127322
-4.97328e-07
0.00127178
-4.43745e-07
0.00127031
-3.76252e-07
0.00126885
-2.98251e-07
0.00126747
-2.20373e-07
0.0012663
-1.56551e-07
0.00126547
9.74528e-09
0.00126467
2.76993e-08
0.00126399
-9.31214e-08
0.00126212
-2.36942e-06
0.00125756
-4.01464e-06
0.00124859
-1.88276e-05
0.00123038
-2.85814e-05
0.00120582
-8.05161e-05
0.00116705
-0.000132342
0.00114079
-0.00030946
0.00114281
-0.00069152
0.00132977
-0.000206154
0.000331229
3.43516e-05
0.000579482
-1.6974e-05
0.000730319
-9.13388e-06
0.000693414
-4.32476e-05
0.00058346
-5.77564e-06
0.000532977
-3.53594e-06
0.000194172
-2.62726e-06
0.000160941
0.000130654
6.2801e-06
0.000124374
1.04079e-05
0.000156814
0.000188071
1.65095e-05
-6.86415e-06
0.00018682
8.11526e-06
-2.83463e-06
0.000152785
0.00012154
1.75882e-06
0.000119781
8.71983e-07
0.000153672
0.000185583
2.10973e-06
-7.41409e-07
0.00018674
-4.13981e-07
-1.53828e-06
0.00015447
0.000118244
2.75702e-07
0.000117969
1.95655e-06
0.000152789
0.000186625
2.07216e-06
-1.7756e-06
0.00018645
1.9511e-06
-1.27057e-06
0.000152285
0.000116698
1.16196e-06
0.000115537
1.66049e-06
0.000151787
0.000186266
1.84508e-06
-1.50016e-06
0.000186041
1.72603e-06
-2.21749e-06
0.000152505
0.00011332
9.89539e-07
0.000112331
1.42511e-06
0.00015207
0.000185819
1.64714e-06
-1.35643e-06
0.00018433
2.84573e-06
-9.11265e-07
0.000151625
0.00011142
8.34448e-07
0.000110586
1.27319e-06
0.000151186
0.000185329
2.74772e-07
-1.21756e-06
0.000183817
2.72958e-06
-7.77216e-07
0.000150746
0.000109809
7.20277e-07
0.000109089
1.1497e-06
0.000150317
0.000184791
1.76514e-07
-1.10813e-06
0.000183265
2.6348e-06
-6.79178e-07
0.000149889
0.00010841
6.34768e-07
0.000107775
1.05146e-06
0.000149472
0.00018422
9.63359e-08
-1.02042e-06
0.000182686
2.55483e-06
-6.04665e-07
0.000149057
0.000107171
5.68634e-07
0.000106603
9.71468e-07
0.000148654
0.00018363
2.82197e-08
-9.4893e-07
0.000182093
2.48562e-06
-5.46554e-07
0.000148252
0.000106056
5.16986e-07
0.00010554
9.06523e-07
0.000147863
0.000183028
-2.83113e-08
-8.8959e-07
0.000181493
2.42489e-06
-5.00305e-07
0.000147474
0.00010504
4.7577e-07
0.000104564
8.52943e-07
0.000147097
0.000182422
-7.56522e-08
-8.39732e-07
0.000180891
2.37152e-06
-4.6281e-07
0.00014672
0.000104102
4.4189e-07
0.00010366
8.07243e-07
0.000146355
0.000181816
-1.17189e-07
-7.97556e-07
0.000180289
2.32475e-06
-4.31992e-07
0.00014599
0.000103228
4.13851e-07
0.000102815
7.68414e-07
0.000145636
0.00018121
-1.52772e-07
-7.61521e-07
0.000179689
2.28347e-06
-4.06269e-07
0.000145281
0.000102409
3.90638e-07
0.000102018
7.3565e-07
0.000144936
0.000180607
-1.82329e-07
-7.27711e-07
0.000179092
2.24318e-06
-3.83095e-07
0.000144592
0.000101636
3.70697e-07
0.000101265
7.06147e-07
0.000144257
0.00018001
-2.11863e-07
-6.98553e-07
0.000178499
2.2101e-06
-3.63063e-07
0.000143921
0.000100902
3.54464e-07
0.000100548
6.83787e-07
0.000143592
0.000179414
-2.30942e-07
-6.82385e-07
0.000177909
2.18849e-06
-3.5113e-07
0.000143262
0.000100197
3.38584e-07
9.98592e-05
6.60167e-07
0.00014294
0.00017882
-2.50686e-07
-6.62714e-07
0.000177318
2.16449e-06
-3.37554e-07
0.000142615
9.95219e-05
3.25968e-07
9.91962e-05
6.41607e-07
0.0001423
0.000178227
-2.66577e-07
-6.45955e-07
0.00017673
2.14331e-06
-3.25996e-07
0.00014198
9.88705e-05
3.14882e-07
9.85559e-05
6.25349e-07
0.00014167
0.000177635
-2.79804e-07
-6.31431e-07
0.000176143
2.12465e-06
-3.1594e-07
0.000141355
9.82402e-05
3.05174e-07
9.79353e-05
6.11162e-07
0.000141049
0.000177045
-2.90686e-07
-6.18811e-07
0.000175556
2.10819e-06
-3.07136e-07
0.000140738
9.76283e-05
2.96646e-07
9.73319e-05
5.98783e-07
0.000140436
0.000176454
-2.99457e-07
-6.07738e-07
0.000174969
2.0935e-06
-2.99347e-07
0.000140128
9.70327e-05
2.89143e-07
9.67438e-05
5.88038e-07
0.000139829
0.000175863
-3.0621e-07
-5.98255e-07
0.000174381
2.08076e-06
-2.92539e-07
0.000139524
9.64514e-05
2.82567e-07
9.6169e-05
5.78822e-07
0.000139228
0.000175271
-3.11033e-07
-5.90308e-07
0.000173792
2.06997e-06
-2.86646e-07
0.000138924
9.58825e-05
2.76816e-07
9.56058e-05
5.70967e-07
0.00013863
0.000174677
-3.14172e-07
-5.83416e-07
0.0001732
2.06039e-06
-2.81418e-07
0.000138329
9.53245e-05
2.71773e-07
9.50528e-05
5.64302e-07
0.000138036
0.000174081
-3.15764e-07
-5.77648e-07
0.000172606
2.05224e-06
-2.76855e-07
0.000137736
9.47761e-05
2.67279e-07
9.45089e-05
5.58553e-07
0.000137444
0.000173481
-3.16158e-07
-5.72604e-07
0.000172009
2.04499e-06
-2.72732e-07
0.000137145
9.42363e-05
2.63293e-07
9.39731e-05
5.53698e-07
0.000136854
0.000172878
-3.15282e-07
-5.68645e-07
0.000171408
2.03925e-06
-2.69205e-07
0.000136555
9.3704e-05
2.59805e-07
9.34443e-05
5.49728e-07
0.000136265
0.000172271
-3.132e-07
-5.65658e-07
0.000170802
2.03481e-06
-2.66214e-07
0.000135966
9.31782e-05
2.56846e-07
9.29215e-05
5.46692e-07
0.000135676
0.000171658
-3.09865e-07
-5.63206e-07
0.000170191
2.03093e-06
-2.63556e-07
0.000135377
9.26581e-05
2.54366e-07
9.24039e-05
5.44536e-07
0.000135087
0.000171041
-3.05241e-07
-5.61824e-07
0.000169574
2.02854e-06
-2.61473e-07
0.000134787
9.21426e-05
2.52282e-07
9.18904e-05
5.43085e-07
0.000134496
0.000170417
-2.99645e-07
-5.6126e-07
0.000168951
2.02726e-06
-2.59832e-07
0.000134195
9.16308e-05
2.50676e-07
9.13803e-05
5.42508e-07
0.000133903
0.000169787
-2.92827e-07
-5.61365e-07
0.000168322
2.02679e-06
-2.58569e-07
0.0001336
9.11219e-05
2.4954e-07
9.08726e-05
5.42813e-07
0.000133307
0.000169149
-2.84688e-07
-5.62289e-07
0.000167685
2.02743e-06
-2.57748e-07
0.000133003
9.0615e-05
2.48702e-07
9.03666e-05
5.43646e-07
0.000132708
0.000168504
-2.75765e-07
-5.63555e-07
0.000167039
2.0285e-06
-2.5712e-07
0.000132402
9.01097e-05
2.48196e-07
8.98617e-05
5.4515e-07
0.000132105
0.000167851
-2.65736e-07
-5.65982e-07
0.000166386
2.03133e-06
-2.57065e-07
0.000131797
8.96049e-05
2.48063e-07
8.93571e-05
5.4736e-07
0.000131498
0.000167188
-2.5466e-07
-5.68645e-07
0.000165722
2.03436e-06
-2.57143e-07
0.000131186
8.91002e-05
2.48361e-07
8.88521e-05
5.50468e-07
0.000130884
0.000166515
-2.42096e-07
-5.72666e-07
0.000165049
2.03942e-06
-2.57888e-07
0.00013057
8.85944e-05
2.49036e-07
8.83456e-05
5.54297e-07
0.000130265
0.000165832
-2.28466e-07
-5.77078e-07
0.000164364
2.04494e-06
-2.58839e-07
0.000129947
8.80871e-05
2.50121e-07
8.78372e-05
5.58955e-07
0.000129639
0.000165137
-2.13475e-07
-5.82177e-07
0.000163668
2.0514e-06
-2.60136e-07
0.000129317
8.75773e-05
2.5153e-07
8.7326e-05
5.64291e-07
0.000129004
0.00016443
-1.97308e-07
-5.88165e-07
0.00016296
2.05922e-06
-2.61854e-07
0.000128678
8.70644e-05
2.53264e-07
8.68114e-05
5.70301e-07
0.000128362
0.00016371
-1.8002e-07
-5.94846e-07
0.000162237
2.06804e-06
-2.63901e-07
0.000128031
8.65478e-05
2.55429e-07
8.62926e-05
5.77219e-07
0.000127709
0.000162976
-1.61227e-07
-6.02426e-07
0.000161501
2.07812e-06
-2.66379e-07
0.000127374
8.60265e-05
2.58012e-07
8.57687e-05
5.8501e-07
0.000127047
0.000162227
-1.40997e-07
-6.10821e-07
0.000160749
2.08935e-06
-2.69248e-07
0.000126706
8.54998e-05
2.60987e-07
8.52391e-05
5.9362e-07
0.000126374
0.000161463
-1.19391e-07
-6.19997e-07
0.000159981
2.10168e-06
-2.7249e-07
0.000126026
8.49668e-05
2.64324e-07
8.47028e-05
6.02997e-07
0.000125688
0.000160681
-9.64676e-08
-6.29854e-07
0.000159197
2.11496e-06
-2.7605e-07
0.000125335
8.44271e-05
2.68013e-07
8.41593e-05
6.13135e-07
0.00012499
0.000159882
-7.221e-08
-6.40468e-07
0.000158394
2.12933e-06
-2.79959e-07
0.00012463
8.38797e-05
2.72104e-07
8.36079e-05
6.24161e-07
0.000124278
0.000159065
-4.63949e-08
-6.52123e-07
0.000157572
2.14523e-06
-2.84349e-07
0.000123911
8.33239e-05
2.76587e-07
8.30477e-05
6.36014e-07
0.000123552
0.000158228
-1.91734e-08
-6.6406e-07
0.000156731
2.16122e-06
-2.88876e-07
0.000123177
8.27592e-05
2.81447e-07
8.24781e-05
6.48685e-07
0.00012281
0.000157371
9.46492e-09
-6.77033e-07
0.00015587
2.17854e-06
-2.93911e-07
0.000122427
8.21846e-05
2.86489e-07
8.18985e-05
6.61721e-07
0.000122053
0.000156494
3.86514e-08
-6.91213e-07
0.000154987
2.19807e-06
-2.99475e-07
0.000121661
8.15994e-05
2.91991e-07
8.13078e-05
6.75781e-07
0.000121278
0.000155594
6.97791e-08
-7.05701e-07
0.000154082
2.218e-06
-3.05142e-07
0.000120878
8.10031e-05
2.97893e-07
8.07057e-05
6.90817e-07
0.000120486
0.000154671
1.02838e-07
-7.21261e-07
0.000153153
2.2396e-06
-3.11274e-07
0.000120076
8.03949e-05
3.04115e-07
8.00912e-05
7.06632e-07
0.000119674
0.000153723
1.37389e-07
-7.37816e-07
0.000152199
2.26274e-06
-3.17823e-07
0.000119255
7.97739e-05
3.10816e-07
7.94636e-05
7.23548e-07
0.000118843
0.000152749
1.73928e-07
-7.5532e-07
0.000151218
2.28724e-06
-3.24784e-07
0.000118413
7.91393e-05
3.17927e-07
7.88219e-05
7.4141e-07
0.00011799
0.000151748
2.12201e-07
-7.73774e-07
0.000150209
2.3131e-06
-3.32162e-07
0.000117549
7.84903e-05
3.25462e-07
7.81653e-05
7.60239e-07
0.000117115
0.000150718
2.52246e-07
-7.93187e-07
0.000149171
2.34034e-06
-3.39959e-07
0.000116662
7.78259e-05
3.33425e-07
7.74931e-05
7.80044e-07
0.000116216
0.000149658
2.94099e-07
-8.13581e-07
0.000148104
2.36901e-06
-3.48186e-07
0.000115751
7.71455e-05
3.41827e-07
7.68042e-05
8.0086e-07
0.000115293
0.000148567
3.37833e-07
-8.34997e-07
0.000147004
2.39915e-06
-3.56856e-07
0.000114816
7.6448e-05
3.50684e-07
7.60979e-05
8.22725e-07
0.000114344
0.000147444
3.83534e-07
-8.57472e-07
0.000145872
2.43085e-06
-3.65985e-07
0.000113854
7.57325e-05
3.60008e-07
7.53732e-05
8.45672e-07
0.000113369
0.000146287
4.31273e-07
-8.81031e-07
0.000144705
2.46413e-06
-3.75579e-07
0.000112864
7.49982e-05
3.698e-07
7.46291e-05
8.69716e-07
0.000112365
0.000145094
4.8109e-07
-9.05693e-07
0.000143502
2.49901e-06
-3.85646e-07
0.000111846
7.42441e-05
3.80086e-07
7.38647e-05
8.94932e-07
0.000111332
0.000143865
5.33124e-07
-9.31765e-07
0.000142261
2.53601e-06
-3.96323e-07
0.000110797
7.34691e-05
3.90848e-07
7.30789e-05
9.2124e-07
0.000110267
0.000142597
5.87178e-07
-9.58654e-07
0.000140982
2.57408e-06
-4.07339e-07
0.000109717
7.26723e-05
4.02075e-07
7.2271e-05
9.48639e-07
0.000109171
0.000141288
6.43361e-07
-9.86474e-07
0.000139663
2.61347e-06
-4.18746e-07
0.000108604
7.1853e-05
4.13646e-07
7.14401e-05
9.76894e-07
0.000108042
0.000139939
7.01346e-07
-1.01531e-06
0.000138301
2.65438e-06
-4.30564e-07
0.000107458
7.10103e-05
4.25649e-07
7.05855e-05
1.00621e-06
0.000106879
0.000138547
7.61481e-07
-1.04521e-06
0.000136896
2.69687e-06
-4.42816e-07
0.000106277
7.01434e-05
4.38103e-07
6.97062e-05
1.03664e-06
0.00010568
0.00013711
8.23838e-07
-1.07624e-06
0.000135447
2.74104e-06
-4.55537e-07
0.00010506
6.92514e-05
4.51045e-07
6.88012e-05
1.06824e-06
0.000104444
0.000135628
8.88527e-07
-1.10849e-06
0.00013395
2.78694e-06
-4.68759e-07
0.000103805
6.83333e-05
4.645e-07
6.78697e-05
1.10107e-06
0.00010317
0.000134097
9.55629e-07
-1.14197e-06
0.000132406
2.83463e-06
-4.82502e-07
0.000102511
6.7388e-05
4.7848e-07
6.69104e-05
1.13515e-06
0.000101855
0.000132517
1.02519e-06
-1.17667e-06
0.000130811
2.88407e-06
-4.96756e-07
0.000101177
6.64145e-05
4.92929e-07
6.59225e-05
1.17034e-06
0.0001005
0.000130885
1.097e-06
-1.21216e-06
0.000129164
2.93457e-06
-5.11312e-07
9.98005e-05
6.54121e-05
5.07827e-07
6.49051e-05
1.20666e-06
9.91027e-05
0.000129201
1.17121e-06
-1.24898e-06
0.000127464
2.98702e-06
-5.26425e-07
9.83813e-05
6.43796e-05
5.23104e-07
6.38574e-05
1.24395e-06
9.76615e-05
0.000127462
1.24744e-06
-1.28715e-06
0.000125709
3.04143e-06
-5.42108e-07
9.69176e-05
6.33163e-05
5.38804e-07
6.27784e-05
1.28222e-06
9.61753e-05
0.000125667
1.32563e-06
-1.32583e-06
0.000123898
3.09629e-06
-5.57985e-07
9.54086e-05
6.22214e-05
5.54846e-07
6.16675e-05
1.32132e-06
9.46433e-05
0.000123815
1.40564e-06
-1.36512e-06
0.00012203
3.1518e-06
-5.74104e-07
9.38534e-05
6.10943e-05
5.71028e-07
6.05243e-05
1.36084e-06
9.30648e-05
0.000121905
1.48684e-06
-1.40494e-06
0.000120103
3.20797e-06
-5.90417e-07
9.22514e-05
5.99348e-05
5.87403e-07
5.93484e-05
1.40088e-06
9.14391e-05
0.000119936
1.56946e-06
-1.44524e-06
0.000118118
3.2647e-06
-6.06901e-07
9.0602e-05
5.87425e-05
6.03931e-07
5.81396e-05
1.44138e-06
8.97657e-05
0.000117907
1.65337e-06
-1.48597e-06
0.000116073
3.32186e-06
-6.23526e-07
8.89045e-05
5.75171e-05
6.20563e-07
5.68975e-05
1.48219e-06
8.80441e-05
0.000115818
1.73835e-06
-1.52676e-06
0.000113968
3.37886e-06
-6.40117e-07
8.71587e-05
5.62584e-05
6.3749e-07
5.5622e-05
1.52378e-06
8.62736e-05
0.000113668
1.82519e-06
-1.56904e-06
0.0001118
3.43796e-06
-6.57365e-07
8.53632e-05
5.49656e-05
6.54938e-07
5.43117e-05
1.56652e-06
8.44528e-05
0.000111454
1.91395e-06
-1.61507e-06
0.00010957
3.50101e-06
-6.7693e-07
8.3516e-05
5.36359e-05
6.81197e-07
5.29557e-05
1.61993e-06
8.25785e-05
0.000109177
2.01383e-06
-1.67702e-06
0.000107278
3.57764e-06
-7.11316e-07
8.16141e-05
5.22454e-05
7.17793e-07
5.15287e-05
1.68538e-06
8.06477e-05
0.00010684
2.12497e-06
-1.74176e-06
0.000104926
3.65755e-06
-7.46168e-07
7.96534e-05
5.07836e-05
7.50448e-07
5.00342e-05
1.74815e-06
7.8657e-05
0.000104441
2.23498e-06
-1.80255e-06
0.000102511
3.73364e-06
-7.76923e-07
7.76327e-05
4.92583e-05
7.79096e-07
4.84803e-05
1.80637e-06
7.66067e-05
0.000101978
2.34087e-06
-1.85808e-06
0.000100034
3.80354e-06
-8.03578e-07
7.55535e-05
4.76778e-05
8.04026e-07
4.68748e-05
1.85969e-06
7.44991e-05
9.94532e-05
2.442e-06
-1.90821e-06
9.74962e-05
3.86674e-06
-8.26489e-07
7.34187e-05
4.60494e-05
8.2475e-07
4.52257e-05
1.90635e-06
7.23384e-05
9.68691e-05
2.53497e-06
-1.9522e-06
9.49012e-05
3.92172e-06
-8.45611e-07
7.12331e-05
4.43812e-05
8.41275e-07
4.3541e-05
1.94568e-06
7.013e-05
9.42302e-05
2.61815e-06
-1.98859e-06
9.22546e-05
3.96574e-06
-8.60456e-07
6.90031e-05
4.26816e-05
8.54855e-07
4.18278e-05
1.97986e-06
6.78794e-05
9.15409e-05
2.69514e-06
-2.0172e-06
8.95614e-05
3.99822e-06
-8.71276e-07
6.67348e-05
4.09576e-05
8.62569e-07
4.00961e-05
2.00251e-06
6.55961e-05
8.88102e-05
2.7552e-06
-2.03631e-06
8.68314e-05
4.01664e-06
-8.77258e-07
6.44384e-05
3.92199e-05
8.65709e-07
3.83553e-05
2.0159e-06
6.32895e-05
8.60473e-05
2.80153e-06
-2.04572e-06
8.40744e-05
4.02017e-06
-8.78502e-07
6.21236e-05
3.74778e-05
8.64224e-07
3.66147e-05
2.01969e-06
6.09694e-05
8.3262e-05
2.83366e-06
-2.04358e-06
8.13012e-05
4.00591e-06
-8.74294e-07
5.98015e-05
3.57415e-05
8.56179e-07
3.48864e-05
2.00966e-06
5.86493e-05
8.04679e-05
2.84453e-06
-2.02875e-06
7.8526e-05
3.9722e-06
-8.64086e-07
5.7486e-05
3.40234e-05
8.42521e-07
3.3182e-05
1.98756e-06
5.63422e-05
7.76783e-05
2.83681e-06
-2.00074e-06
7.57625e-05
3.91807e-06
-8.47788e-07
5.51906e-05
3.23352e-05
8.22347e-07
3.1514e-05
1.95136e-06
5.40629e-05
7.49083e-05
2.80708e-06
-1.95816e-06
7.30267e-05
3.84132e-06
-8.24803e-07
5.29308e-05
3.06902e-05
7.95411e-07
2.98959e-05
1.90035e-06
5.18271e-05
7.21747e-05
2.75387e-06
-1.9006e-06
7.03356e-05
3.74114e-06
-7.95044e-07
5.07228e-05
2.91018e-05
7.61716e-07
2.83411e-05
1.83428e-06
4.96515e-05
6.9495e-05
2.67639e-06
-1.82807e-06
6.77072e-05
3.61726e-06
-7.58664e-07
4.85833e-05
2.75835e-05
7.21613e-07
2.68628e-05
1.75354e-06
4.75525e-05
6.68875e-05
2.57466e-06
-1.74092e-06
6.51596e-05
3.47021e-06
-7.15944e-07
4.65287e-05
2.61479e-05
6.75445e-07
2.54734e-05
1.65864e-06
4.55467e-05
6.43703e-05
2.44933e-06
-1.64012e-06
6.27105e-05
3.30124e-06
-6.67439e-07
4.45752e-05
2.48069e-05
6.23999e-07
2.41838e-05
1.55119e-06
4.36491e-05
6.19607e-05
2.30238e-06
-1.52933e-06
6.03753e-05
3.11601e-06
-6.14895e-07
4.27358e-05
2.35698e-05
5.68921e-07
2.30018e-05
1.4339e-06
4.1872e-05
5.96734e-05
2.13715e-06
-1.40769e-06
5.81702e-05
2.91211e-06
-5.58324e-07
4.10237e-05
2.24444e-05
5.11985e-07
2.19332e-05
1.31084e-06
4.02259e-05
5.75222e-05
1.9602e-06
-1.28223e-06
5.61093e-05
2.6964e-06
-5.00877e-07
3.94456e-05
2.14332e-05
4.54001e-07
2.09801e-05
1.18328e-06
3.87174e-05
5.55175e-05
1.77626e-06
-1.15457e-06
5.41939e-05
2.47947e-06
-4.43683e-07
3.80075e-05
2.05374e-05
3.97203e-07
2.01411e-05
1.05547e-06
3.73504e-05
5.36678e-05
1.58273e-06
-1.02833e-06
5.24346e-05
2.26268e-06
-3.88184e-07
3.67112e-05
1.97536e-05
3.43471e-07
1.94107e-05
9.3205e-07
3.61237e-05
5.19757e-05
1.39214e-06
-9.07532e-07
5.08316e-05
2.05255e-06
-3.36245e-07
3.55533e-05
1.90747e-05
2.92419e-07
1.87822e-05
8.12682e-07
3.50338e-05
5.04413e-05
1.20387e-06
-7.93794e-07
4.9384e-05
1.85177e-06
-2.88412e-07
3.45289e-05
1.84935e-05
2.46878e-07
1.8246e-05
7.03047e-07
3.4073e-05
4.90607e-05
1.02687e-06
-6.9036e-07
4.8086e-05
1.6653e-06
-2.462e-07
3.3629e-05
1.7999e-05
2.07967e-07
1.779e-05
6.05901e-07
3.3231e-05
4.78257e-05
8.66261e-07
-5.98945e-07
4.6928e-05
1.49649e-06
-2.10327e-07
3.2842e-05
1.75784e-05
1.75069e-07
1.7402e-05
5.20366e-07
3.24962e-05
4.67268e-05
7.21255e-07
-5.19114e-07
4.58973e-05
1.34808e-06
-1.80368e-07
3.21567e-05
1.722e-05
1.47943e-07
1.70704e-05
4.46373e-07
3.18574e-05
4.57503e-05
5.92599e-07
-4.49971e-07
4.49834e-05
1.21602e-06
-1.54861e-07
3.15612e-05
1.69138e-05
1.24977e-07
1.67869e-05
3.83912e-07
3.1301e-05
4.48821e-05
4.84139e-07
-3.9443e-07
4.41691e-05
1.10617e-06
-1.3473e-07
3.104e-05
1.66502e-05
1.08585e-07
1.65396e-05
3.36359e-07
3.08107e-05
4.4106e-05
3.98041e-07
-3.5366e-07
4.34378e-05
1.02028e-06
-1.21347e-07
3.05766e-05
1.64162e-05
9.87938e-08
1.63153e-05
3.03465e-07
3.03701e-05
4.34046e-05
3.34915e-07
-3.27852e-07
4.27716e-05
9.58902e-07
-1.1467e-07
3.0155e-05
1.61986e-05
9.56654e-08
1.61009e-05
2.85551e-07
2.9963e-05
4.27595e-05
2.95583e-07
-3.17143e-07
4.21519e-05
9.22513e-07
-1.14654e-07
2.97582e-05
1.59842e-05
9.92792e-08
1.5883e-05
2.83086e-07
2.95721e-05
4.21513e-05
2.81273e-07
-3.22932e-07
4.15583e-05
9.13447e-07
-1.21847e-07
2.93686e-05
1.57594e-05
1.10655e-07
1.5647e-05
2.98023e-07
2.91788e-05
4.15584e-05
2.95203e-07
-3.46457e-07
4.09674e-05
9.34778e-07
-1.36741e-07
2.89666e-05
1.55085e-05
1.26113e-07
1.53808e-05
3.29288e-07
2.87609e-05
4.09495e-05
3.4432e-07
-6.45805e-07
4.06101e-05
9.82275e-07
-1.71608e-07
2.82841e-05
1.52075e-05
1.57002e-07
1.5049e-05
1.5735e-07
2.82813e-05
4.00277e-05
7.36784e-07
-7.15266e-07
3.99176e-05
8.22878e-07
-2.06333e-07
2.77703e-05
1.48415e-05
2.13443e-07
1.46272e-05
5.07668e-07
2.74744e-05
3.95426e-05
8.80582e-07
-8.49638e-07
3.88312e-05
1.55903e-06
-2.76324e-07
2.68995e-05
1.43502e-05
3.07551e-07
1.40416e-05
4.11105e-07
2.67941e-05
3.84958e-05
7.44282e-07
1.31043e-07
3.88378e-05
-4.75081e-07
-9.01839e-08
2.70138e-05
1.39506e-05
-2.85614e-07
1.42355e-05
-8.37098e-07
2.75638e-05
4.00962e-05
-2.09737e-06
3.55455e-07
-7.12459e-07
9.03516e-08
-7.96591e-06
-0.000131643
1.45128e-06
-0.000161977
-1.0943e-06
-0.000198582
8.68834e-06
-0.000210239
4.97132e-06
-0.000223121
8.22734e-06
-0.000233625
6.51632e-06
-0.000240327
7.52963e-06
-0.000246478
7.59652e-06
-0.000250982
8.25779e-06
-0.000256059
8.74433e-06
-0.000260043
9.17966e-06
-0.000264248
9.64683e-06
-0.00026758
9.9184e-06
-0.000270849
1.03117e-05
-0.00027369
1.04823e-05
-0.000276285
1.0798e-05
-0.000278725
1.08743e-05
-0.000280854
1.11109e-05
-0.000283004
1.10971e-05
-0.000284809
1.12552e-05
-0.000286758
1.11568e-05
-0.000288344
1.12372e-05
-0.000290158
1.10616e-05
-0.000291606
1.1067e-05
-0.000293331
1.08209e-05
-0.000294704
1.07551e-05
-0.000296378
1.04454e-05
-0.000297724
1.03121e-05
-0.000299377
9.9459e-06
-0.000300735
9.7482e-06
-0.000302394
9.33155e-06
-0.000303797
9.07113e-06
-0.000305481
8.60872e-06
-0.000306962
8.28537e-06
-0.000308627
7.7799e-06
-0.000310155
7.45572e-06
-0.000311688
7.35068e-06
-0.000312719
7.34671e-06
-0.000313101
8.91918e-06
-0.000312128
1.01609e-05
-0.000309689
1.65722e-05
-0.000304828
2.37884e-05
-0.000301089
5.27363e-05
-0.000300321
0.00011301
-0.000306468
5.76442e-05
-0.000191337
2.61363e-05
-0.000192176
2.45726e-05
-0.000172867
7.88579e-06
-0.000155568
4.6968e-06
-5.35148e-05
2.03524e-06
-4.15391e-05
-2.67908e-05
-2.78855e-06
-2.40022e-05
-6.34207e-06
-3.79855e-05
-4.91655e-05
-1.06913e-05
5.37478e-06
-4.54002e-05
-9.14003e-06
2.34173e-06
-3.49525e-05
-2.16604e-05
-1.72809e-06
-1.99323e-05
-3.81325e-06
-3.28672e-05
-4.28737e-05
-6.33965e-06
1.53453e-06
-4.1993e-05
-2.4152e-06
6.79467e-07
-3.20121e-05
-1.92528e-05
-5.81495e-07
-1.86712e-05
-1.34277e-06
-3.12508e-05
-4.10041e-05
-2.3316e-06
1.25153e-07
-4.09529e-05
-1.7622e-07
8.68585e-08
-3.12124e-05
-1.85843e-05
-1.81886e-07
-1.84023e-05
-5.03343e-07
-3.08909e-05
-4.05245e-05
-9.31686e-07
-3.30697e-07
-4.07617e-05
5.68019e-07
-1.40908e-07
-3.10806e-05
-1.85432e-05
-1.95304e-07
-1.83478e-05
-4.93992e-07
-3.07818e-05
-4.03506e-05
-9.05065e-07
-2.62686e-07
-4.05421e-05
4.54291e-07
-1.63073e-07
-3.08814e-05
-1.85108e-05
-1.16757e-07
-1.8394e-05
-2.79246e-07
-3.07188e-05
-4.01561e-05
-6.65092e-07
-3.93468e-07
-4.04773e-05
7.1469e-07
-2.22815e-07
-3.08894e-05
-1.86167e-05
-1.68427e-07
-1.84482e-05
-3.85111e-07
-3.06726e-05
-4.00294e-05
-8.32836e-07
-2.98098e-07
-4.02315e-05
5.00242e-07
-1.82248e-07
-3.07883e-05
-1.86304e-05
-1.00941e-07
-1.85294e-05
-2.5008e-07
-3.06391e-05
-3.99183e-05
-5.63183e-07
-4.12373e-07
-4.02433e-05
7.37486e-07
-2.35474e-07
-3.08159e-05
-1.87648e-05
-1.5771e-07
-1.8607e-05
-3.67733e-07
-3.06058e-05
-3.98014e-05
-8.09486e-07
-3.08372e-07
-4.00017e-05
5.08829e-07
-1.906e-07
-3.07235e-05
-1.87975e-05
-9.41017e-08
-1.87033e-05
-2.40604e-07
-3.05768e-05
-3.96901e-05
-5.52126e-07
-4.159e-07
-4.00088e-05
7.34723e-07
-2.41095e-07
-3.07516e-05
-1.89443e-05
-1.53843e-07
-1.87904e-05
-3.64463e-07
-3.05408e-05
-3.95654e-05
-8.07742e-07
-3.07249e-07
-3.97573e-05
4.99289e-07
-1.93831e-07
-3.06541e-05
-1.89841e-05
-9.19493e-08
-1.88921e-05
-2.41119e-07
-3.05048e-05
-3.94412e-05
-5.57021e-07
-4.10289e-07
-3.97478e-05
7.17009e-07
-2.42621e-07
-3.06724e-05
-1.91346e-05
-1.54002e-07
-1.89805e-05
-3.69845e-07
-3.04564e-05
-3.92978e-05
-8.19688e-07
-2.98597e-07
-3.94762e-05
4.77155e-07
-1.93724e-07
-3.05612e-05
-1.91741e-05
-9.26199e-08
-1.90814e-05
-2.4798e-07
-3.04057e-05
-3.91517e-05
-5.72333e-07
-3.98554e-07
-3.94418e-05
6.88734e-07
-2.4157e-07
-3.05625e-05
-1.93228e-05
-1.56341e-07
-1.91664e-05
-3.80404e-07
-3.03383e-05
-3.89816e-05
-8.40435e-07
-2.85482e-07
-3.91428e-05
4.46887e-07
-1.91865e-07
-3.04318e-05
-1.93581e-05
-9.44312e-08
-1.92636e-05
-2.57852e-07
-3.02683e-05
-3.88073e-05
-5.93253e-07
-3.83558e-07
-3.90774e-05
6.53828e-07
-2.39308e-07
-3.04124e-05
-1.95027e-05
-1.59422e-07
-1.93432e-05
-3.93063e-07
-3.01786e-05
-3.86049e-05
-8.65419e-07
-2.71122e-07
-3.87466e-05
4.13082e-07
-1.89741e-07
-3.02598e-05
-1.95328e-05
-9.54253e-08
-1.94372e-05
-2.66643e-07
-3.00884e-05
-3.83994e-05
-6.13679e-07
-3.70144e-07
-3.86483e-05
6.19232e-07
-2.38164e-07
-3.02202e-05
-1.96753e-05
-1.60107e-07
-1.9515e-05
-4.01517e-07
-2.99787e-05
-3.81639e-05
-8.85781e-07
-2.63654e-07
-3.82869e-05
3.86914e-07
-1.91557e-07
-3.00506e-05
-1.97065e-05
-8.92043e-08
-1.96171e-05
-2.62744e-07
-2.98769e-05
-3.79314e-05
-6.18064e-07
-3.73995e-07
-3.81628e-05
6.05553e-07
-2.46986e-07
-3.00038e-05
-1.9864e-05
-1.46656e-07
-1.97172e-05
-3.84811e-07
-2.97654e-05
-3.76743e-05
-8.73138e-07
-2.94536e-07
-3.7788e-05
4.08471e-07
-2.16062e-07
-2.98438e-05
-1.99331e-05
-4.53203e-08
-1.98877e-05
-1.97516e-07
-2.96914e-05
-3.74402e-05
-5.45151e-07
-4.63396e-07
-3.7621e-05
6.444e-07
-3.08124e-07
-2.98465e-05
-2.01957e-05
-6.00012e-08
-2.01355e-05
-3.00451e-07
-2.96059e-05
-3.72169e-05
-7.0435e-07
-5.06366e-07
-3.72704e-05
5.60048e-07
-3.38629e-07
-2.97735e-05
-2.04741e-05
7.09219e-08
-2.05448e-05
-1.28985e-07
-2.95735e-05
-3.70022e-05
-3.96992e-07
-6.40161e-07
-3.70663e-05
7.04632e-07
-3.55316e-07
-2.9858e-05
-2.08999e-05
-2.46022e-08
-2.0875e-05
-3.28837e-07
-2.95535e-05
-3.67456e-05
-6.49283e-07
-4.05963e-07
-3.68129e-05
4.73438e-07
-2.83013e-07
-2.96763e-05
-2.11579e-05
4.16394e-08
-2.11995e-05
-7.94307e-08
-2.95552e-05
-3.6665e-05
-2.27325e-07
-5.76179e-07
-3.69659e-05
8.76983e-07
-2.97908e-07
-2.98334e-05
-2.14972e-05
2.53276e-07
-2.17502e-05
2.7891e-07
-2.9859e-05
-3.69671e-05
2.80006e-07
-1.52984e-06
-3.77288e-05
2.29034e-06
-7.53698e-07
-3.06347e-05
-2.25041e-05
1.43632e-06
-2.39342e-05
2.83178e-06
-3.20423e-05
-3.90196e-05
4.12741e-06
2.92307e-05
-1.94922e-05
-4.87542e-05
1.2871e-05
-1.56289e-05
-1.10936e-05
4.22069e-06
-1.4056e-05
6.69962e-06
-2.01231e-05
-2.51407e-05
1.3223e-05
-3.88907e-06
-2.76456e-05
6.57544e-06
-1.93913e-06
-2.2274e-05
-1.59273e-05
1.03591e-06
-1.69863e-05
1.94449e-06
-2.31551e-05
-2.85135e-05
2.80336e-06
-1.20616e-06
-5.64092e-05
2.91027e-05
-7.93699e-07
-2.35689e-05
-1.77784e-05
6.87195e-07
-1.84652e-05
2.50046e-05
-4.78855e-05
-4.76605e-05
1.62566e-05
-1.18909e-05
-4.73954e-05
1.16258e-05
-1.95384e-05
-4.02379e-05
-3.80035e-05
5.54182e-06
-4.35453e-05
8.44575e-06
-4.31418e-05
-4.66127e-05
7.66316e-06
-4.28983e-06
-4.50485e-05
2.72604e-06
-4.14076e-06
-4.32905e-05
-4.76856e-05
-2.97189e-07
-4.73882e-05
-4.10138e-06
-3.94862e-05
-4.28519e-05
-6.29793e-06
1.39295e-05
-2.58954e-05
-3.0886e-05
4.81819e-06
-3.03749e-05
-4.257e-05
-2.18886e-06
-4.03812e-05
-4.11678e-06
-2.84471e-05
-3.12925e-05
1.28026e-06
5.29978e-06
-2.95029e-05
-7.0895e-06
3.05319e-06
-2.62006e-05
-3.73282e-05
-7.15125e-06
-3.01772e-05
-1.13918e-05
-2.19603e-05
-2.54558e-05
-1.54391e-05
1.95974e-05
-1.99853e-05
-2.50683e-05
1.37077e-05
-1.6071e-05
-1.64701e-05
-2.38152e-05
7.34423e-06
-3.22111e-05
-7.67565e-06
-1.1889e-05
-4.03079e-05
5.07285e-05
1.43008e-05
-7.69191e-05
3.72297e-05
5.82252e-06
4.45728e-05
-4.69328e-05
9.1504e-05
-5.15802e-05
1.04692e-05
6.23442e-06
-4.35142e-05
5.62777e-05
-1.86669e-06
-4.81771e-05
5.80358e-05
8.71041e-06
0.000149538
-7.95981e-05
0.000229133
-8.56207e-05
1.47322e-05
2.17562e-06
-8.96639e-05
0.000121677
4.65936e-05
-0.000166097
0.000105204
3.12042e-05
0.000334333
-0.000112402
0.00044673
-0.000110703
2.95045e-05
1.94195e-05
-8.35301e-05
0.000119641
-1.48991e-06
-9.87324e-05
0.000127887
2.12572e-05
0.000574612
-0.000160032
0.000734637
-0.000181658
4.28821e-05
5.3148e-05
-0.000236297
0.000165335
3.09648e-05
-0.000143153
0.000166121
4.20952e-05
0.000900749
-0.000169174
0.00106991
-0.00017853
5.14509e-05
3.51608e-05
-0.000182727
0.000187374
9.13409e-05
-0.000243556
0.000160237
7.85869e-05
0.00123014
-8.38998e-05
0.00131402
-9.95159e-05
9.42022e-05
0.000101313
-0.000109489
4.90029e-05
0.000128533
-7.62242e-05
1.32188e-05
0.000129985
0.00132723
6.62359e-05
0.00126098
3.37646e-05
0.000162455
0.000179344
-1.70472e-05
-0.000157494
0.000133462
0.000203375
-0.000138129
0.000143089
0.00112284
0.000143325
0.000979501
0.000140794
0.000145619
0.000128572
0.000145683
-0.000109512
0.000232722
5.36023e-06
-0.000139859
0.000175965
0.000839631
0.000151297
0.000688323
0.000170885
0.000156374
0.000154265
0.00024934
-0.00013786
0.000140279
0.000151844
-0.000134373
0.000152885
0.000553942
0.00011068
0.000443255
8.96121e-05
0.00017395
0.000238677
-8.78728e-06
-0.000133279
0.000156966
0.000214987
-0.000108607
0.000149275
0.000334642
8.16174e-05
0.00025302
9.33687e-05
0.000137521
0.000131582
0.000118751
-4.23241e-05
0.000211713
-3.78103e-05
-5.4247e-05
0.00014944
0.000198767
5.08148e-05
0.000147946
7.74157e-05
0.000122834
0.000141374
0.000147747
-5.51589e-05
0.000109689
8.6842e-05
-3.74007e-05
0.000105073
0.000110543
2.02029e-05
9.03407e-05
1.47411e-05
0.000110535
0.000175305
-5.08739e-05
-5.93464e-05
0.000109126
0.000125526
-2.66992e-05
7.78881e-05
6.36407e-05
4.50048e-05
1.8632e-05
4.14264e-05
8.14628e-05
8.4565e-05
6.5982e-05
-1.952e-05
0.000153405
-4.93416e-05
1.40802e-05
4.78101e-05
3.27351e-05
9.84341e-06
2.26479e-05
2.40638e-05
3.40606e-05
5.1663e-05
0.000125601
-1.76055e-05
3.41322e-05
3.76794e-05
-1.20541e-05
2.27722e-05
1.40616e-05
-1.50846e-05
2.82753e-05