/*--------------------------------*- C++ -*----------------------------------*\
| =========                 |                                                 |
| \\      /  F ield         | OpenFOAM: The Open Source CFD Toolbox           |
|  \\    /   O peration     | Version:  v2006                                 |
|   \\  /    A nd           | Website:  www.openfoam.com                      |
|    \\/     M anipulation  |                                                 |
\*---------------------------------------------------------------------------*/
FoamFile
{
    version     2.0;
    format      ascii;
    class       volScalarField;
    location    "0.03";
    object      turbulenceProperties:I;
}
// * * * * * * * * * * * * * * * * * * * * * * * * * * * * * * * * * * * * * //

dimensions      [0 0 0 0 0 0 0];


internalField   nonuniform List<scalar> 
31566
(
0.14998
0.149979
0.15
0.15
0.15
0.15
0.15
0.15
0.15
0.15
0.15
0.15
0.15
0.15
0.15
0.15
0.15
0.15
0.15
0.149997
0.149994
0.149993
0.149994
0.149996
0.149999
0.150001
0.150003
0.150003
0.150004
0.150004
0.150004
0.150003
0.150003
0.150003
0.150003
0.150002
0.150002
0.150002
0.150002
0.150002
0.150001
0.150001
0.150001
0.150001
0.150001
0.150001
0.15
0.15
0.15
0.15
0.15
0.15
0.15
0.15
0.15
0.149999
0.149999
0.149999
0.149999
0.149999
0.149999
0.149999
0.149999
0.149999
0.149998
0.149998
0.149998
0.149998
0.149998
0.149998
0.149998
0.149998
0.149997
0.149997
0.149997
0.149997
0.149997
0.149997
0.149997
0.149996
0.149996
0.149995
0.149995
0.149995
0.149996
0.149998
0.150002
0.150007
0.150013
0.150019
0.150023
0.150022
0.150018
0.150012
0.150004
0.15
0.149994
0.149982
0.149973
0.149966
0.149959
0.149974
0.149991
0.149991
0.150002
0.150009
0.150011
0.149861
0.149317
0.145304
0.139129
0.145678
0.148753
0.146557
0.140662
0.134047
0.130105
0.136425
0.144143
0.141353
0.131824
0.126521
0.124016
0.128721
0.138971
0.136247
0.125148
0.121647
0.120104
0.123008
0.134325
0.13195
0.120166
0.118526
0.117476
0.118543
0.130461
0.128326
0.116537
0.116362
0.115701
0.115571
0.127226
0.125418
0.114083
0.114915
0.114509
0.113505
0.124612
0.123049
0.112348
0.11394
0.113691
0.112004
0.122459
0.121088
0.111079
0.113269
0.113114
0.110862
0.120644
0.119434
0.110116
0.112795
0.112697
0.109964
0.119072
0.118004
0.109349
0.112447
0.112387
0.10924
0.117703
0.116744
0.108717
0.112183
0.112147
0.108638
0.116489
0.115617
0.108182
0.111976
0.111956
0.108124
0.115399
0.114597
0.107719
0.111809
0.111799
0.107677
0.114409
0.113665
0.10731
0.111668
0.111664
0.107279
0.1135
0.112807
0.106945
0.111548
0.111552
0.106926
0.112665
0.112016
0.106621
0.111447
0.111456
0.106611
0.111893
0.111281
0.106328
0.111359
0.111371
0.106325
0.111173
0.110595
0.106061
0.111282
0.111296
0.106066
0.110502
0.109955
0.10582
0.111213
0.11123
0.105831
0.109875
0.109356
0.105602
0.111153
0.111173
0.105619
0.109289
0.108797
0.105405
0.111101
0.111122
0.105428
0.108742
0.108274
0.105228
0.111055
0.111078
0.105257
0.10823
0.107786
0.10507
0.111016
0.111041
0.105104
0.107753
0.107331
0.104931
0.110983
0.11101
0.10497
0.107309
0.106909
0.104809
0.110957
0.110985
0.104854
0.106897
0.106517
0.104704
0.110936
0.110966
0.104755
0.106515
0.106155
0.104616
0.11092
0.110953
0.104672
0.106162
0.105819
0.104544
0.11091
0.110944
0.104605
0.105835
0.105509
0.104486
0.110905
0.110941
0.104551
0.105534
0.105224
0.104441
0.110904
0.110942
0.104512
0.105257
0.104962
0.10441
0.110909
0.110948
0.104485
0.105002
0.104722
0.104391
0.110917
0.110959
0.104471
0.104771
0.104505
0.104384
0.11093
0.110973
0.104469
0.104561
0.104308
0.104389
0.110948
0.110992
0.104478
0.104372
0.104131
0.104406
0.110969
0.111015
0.104499
0.104202
0.103973
0.104433
0.110994
0.111042
0.104531
0.104051
0.103834
0.104471
0.111022
0.111072
0.104573
0.103919
0.103713
0.104519
0.111055
0.111107
0.104626
0.103805
0.103609
0.104577
0.111091
0.111145
0.104688
0.103709
0.103523
0.104645
0.111132
0.111187
0.104761
0.103629
0.103453
0.104722
0.111175
0.111233
0.104844
0.103566
0.103399
0.10481
0.111223
0.111283
0.104936
0.10352
0.103361
0.104906
0.111274
0.111336
0.105038
0.103489
0.103339
0.105013
0.111329
0.111393
0.10515
0.103475
0.103334
0.105129
0.111387
0.111454
0.105271
0.103477
0.103344
0.105255
0.11145
0.111519
0.105404
0.103496
0.103371
0.105392
0.111516
0.111588
0.105547
0.103531
0.103415
0.105539
0.111587
0.111662
0.105701
0.103584
0.103476
0.105698
0.111662
0.111739
0.105866
0.103653
0.103553
0.105869
0.111741
0.111822
0.106044
0.10374
0.103649
0.106052
0.111826
0.11191
0.106235
0.103844
0.103762
0.106248
0.111915
0.112002
0.10644
0.103967
0.103893
0.106458
0.112009
0.1121
0.106658
0.104108
0.104043
0.106681
0.112109
0.112204
0.10689
0.104268
0.104212
0.106919
0.112214
0.112313
0.107136
0.104447
0.1044
0.10717
0.112325
0.112429
0.107398
0.104647
0.104609
0.107437
0.112442
0.11255
0.107675
0.104868
0.104839
0.10772
0.112565
0.112677
0.107968
0.10511
0.105091
0.108019
0.112694
0.112812
0.108279
0.105376
0.105367
0.108337
0.11283
0.112953
0.108609
0.105665
0.105667
0.108673
0.112973
0.113101
0.108959
0.10598
0.105993
0.10903
0.113124
0.113258
0.10933
0.106321
0.106346
0.109409
0.113283
0.113423
0.109723
0.106691
0.106729
0.109811
0.11345
0.113597
0.110141
0.107091
0.107142
0.110237
0.113626
0.11378
0.110584
0.107523
0.107587
0.11069
0.113812
0.113972
0.111055
0.107988
0.108067
0.11117
0.114007
0.114175
0.111554
0.108488
0.108581
0.11168
0.114212
0.114389
0.112083
0.109025
0.109133
0.112221
0.114429
0.114614
0.112645
0.1096
0.109725
0.112794
0.114656
0.11485
0.113241
0.110217
0.110358
0.113402
0.114895
0.115099
0.113873
0.110876
0.111036
0.114047
0.115147
0.115361
0.114544
0.111582
0.111759
0.114731
0.115411
0.115637
0.115255
0.112335
0.112533
0.115457
0.115689
0.115926
0.11601
0.113141
0.113361
0.116228
0.115981
0.11623
0.116812
0.114003
0.114245
0.117047
0.116288
0.116549
0.117664
0.114923
0.11519
0.117918
0.116609
0.116883
0.11857
0.115906
0.116198
0.118843
0.116945
0.117234
0.119533
0.116956
0.117275
0.119826
0.117298
0.117601
0.120555
0.118075
0.118422
0.12087
0.117667
0.117987
0.121641
0.119267
0.119644
0.121978
0.118054
0.118389
0.122793
0.120537
0.120946
0.123155
0.118458
0.118811
0.124018
0.121891
0.122334
0.124406
0.118884
0.119259
0.12532
0.123334
0.123811
0.125747
0.119645
0.120361
0.126739
0.124869
0.125389
0.12724
0.120945
0.121798
0.128317
0.12651
0.12708
0.128899
0.122479
0.123417
0.130066
0.128272
0.128897
0.130729
0.124169
0.125179
0.131987
0.130163
0.130848
0.132731
0.125994
0.127074
0.134082
0.132192
0.13294
0.134908
0.127948
0.129095
0.136352
0.134363
0.135174
0.137255
0.130025
0.131237
0.138791
0.136678
0.137552
0.13977
0.132219
0.133492
0.141395
0.139135
0.140071
0.142444
0.134521
0.13585
0.144152
0.141732
0.142724
0.145264
0.136916
0.138293
0.147047
0.144456
0.145498
0.148212
0.139387
0.140801
0.150056
0.147291
0.148373
0.151261
0.14191
0.143346
0.153152
0.150217
0.151326
0.154379
0.144456
0.145897
0.156296
0.153206
0.154326
0.157525
0.146988
0.148415
0.159445
0.156222
0.157333
0.160651
0.149466
0.150856
0.162545
0.159225
0.160305
0.163702
0.151843
0.153173
0.165539
0.162168
0.163193
0.166617
0.154075
0.155321
0.168367
0.165001
0.165941
0.169334
0.156113
0.157253
0.170966
0.167672
0.168503
0.171799
0.157919
0.158933
0.173284
0.170131
0.170832
0.173954
0.159456
0.16033
0.175271
0.172332
0.172889
0.175764
0.160702
0.161428
0.176895
0.174242
0.174638
0.177199
0.161647
0.162223
0.178134
0.17583
0.176055
0.178244
0.162291
0.162722
0.178981
0.177079
0.177132
0.178901
0.162651
0.162945
0.179447
0.177987
0.177874
0.17919
0.16275
0.162922
0.179554
0.17856
0.178293
0.179135
0.162619
0.162686
0.179337
0.178819
0.178408
0.178781
0.162302
0.162272
0.178839
0.17879
0.178245
0.17816
0.161836
0.161731
0.1781
0.17849
0.177844
0.17733
0.161261
0.161103
0.177177
0.177966
0.177239
0.176343
0.160617
0.160428
0.176119
0.177268
0.176479
0.175239
0.159939
0.15974
0.174969
0.176442
0.175613
0.174063
0.159263
0.159078
0.173772
0.175541
0.174677
0.172824
0.15861
0.158479
0.17265
0.174646
0.173769
0.171523
0.158038
0.15798
0.171433
0.173732
0.172966
0.170521
0.157682
0.157654
0.170439
0.172969
0.172378
0.169754
0.157669
0.157661
0.169397
0.172073
0.171644
0.169041
0.157647
0.157555
0.169563
0.171479
0.171862
0.17007
0.157543
0.178626
0.182019
0.186303
0.194097
0.203303
0.209807
0.216531
0.221549
0.226904
0.231361
0.236048
0.240119
0.244323
0.248063
0.251872
0.25531
0.258776
0.261927
0.265077
0.267945
0.270791
0.27337
0.275909
0.278185
0.280404
0.282356
0.284232
0.285828
0.287328
0.288519
0.289586
0.290313
0.290875
0.291038
0.29098
0.290447
0.289642
0.288313
0.286783
0.284647
0.282217
0.279553
0.276468
0.273022
0.269203
0.264948
0.260101
0.254451
0.24778
0.239657
0.229877
0.217635
0.202406
0.182347
0.15811
0.144005
0.142937
0.143764
0.144523
0.158635
0.158884
0.144472
0.144375
0.144575
0.145778
0.160282
0.161771
0.147222
0.144777
0.14491
0.148015
0.162819
0.164046
0.14884
0.145101
0.145256
0.14947
0.165015
0.166137
0.150139
0.145446
0.145656
0.150891
0.167216
0.168317
0.151546
0.145812
0.146015
0.152302
0.169465
0.170617
0.153043
0.146197
0.146394
0.153826
0.171805
0.173013
0.154594
0.146581
0.146795
0.155429
0.174256
0.175536
0.156253
0.146999
0.147228
0.157141
0.176841
0.178196
0.158025
0.147451
0.147709
0.158984
0.179582
0.181006
0.159926
0.147946
0.148234
0.160954
0.182481
0.183991
0.16197
0.148498
0.148817
0.163073
0.18556
0.187167
0.164172
0.149112
0.149465
0.165357
0.188839
0.190556
0.166544
0.149797
0.150188
0.167815
0.192331
0.19418
0.169128
0.150577
0.150983
0.170468
0.196075
0.198055
0.171889
0.151435
0.151894
0.173353
0.20009
0.2022
0.174866
0.152373
0.152893
0.176435
0.204393
0.206661
0.178067
0.15342
0.153982
0.179758
0.209005
0.211457
0.181493
0.15456
0.155168
0.183306
0.213974
0.216608
0.185146
0.155783
0.156427
0.187058
0.219348
0.222168
0.188996
0.157075
0.157752
0.191019
0.225128
0.228211
0.19309
0.15844
0.159176
0.195262
0.231447
0.234827
0.197531
0.159954
0.16069
0.199778
0.238254
0.241769
0.202143
0.16129
0.161545
0.204576
0.245389
0.24942
0.207388
0.162015
0.162812
0.211206
0.254338
0.260167
0.215409
0.164221
0.166312
0.220671
0.266943
0.274719
0.226466
0.169108
0.172965
0.232938
0.283256
0.293546
0.241789
0.179175
0.190283
0.256542
0.305961
0.314663
0.277855
0.206937
0.175155
0.197539
0.257156
0.315242
0.260327
0.188385
0.192033
0.264581
0.325121
0.347702
0.288476
0.20202
0.207431
0.299545
0.363189
0.384962
0.31909
0.218023
0.227301
0.337342
0.407491
0.435787
0.360959
0.241558
0.263983
0.395348
0.472658
0.503969
0.441373
0.296774
0.234878
0.331206
0.439236
0.549546
0.463562
0.292673
0.323142
0.509083
0.607633
0.695468
0.591636
0.374713
0.433699
0.68977
0.809076
0.983348
0.837633
0.524448
0.669714
1
1
1
1
0.648599
1
1
1
1
1
1
1
1
1
1
1
0.978461
0.653789
0.99832
1
0.60605
0.517169
0.324227
0.292813
0.429901
0.473552
0.301365
0.271963
0.187129
0.141795
0.20464
0.227815
0.205527
0.182968
0.139993
0.165858
0.197846
0.2112
0.218924
0.198122
0.178513
0.17842
0.162659
0.191398
0.211086
0.199735
0.1902
0.190615
0.199637
0.215958
0.175744
0.158747
0.168946
0.177168
0.192579
0.2032
0.204775
0.190903
0.172413
0.164469
0.14687
0.1656
0.19546
0.185656
0.167952
0.163495
0.179978
0.194871
0.155265
0.145532
0.154515
0.160783
0.175736
0.187163
0.184303
0.169749
0.154725
0.151638
0.132451
0.147497
0.176777
0.164188
0.152176
0.147055
0.157703
0.172926
0.137452
0.124817
0.146302
0.145203
0.153327
0.166244
0.161777
0.146609
0.140685
0.141215
0.11797
0.12765
0.155524
0.142522
0.138684
0.135181
0.13614
0.150811
0.119185
0.111991
0.137319
0.133369
0.132822
0.145805
0.140629
0.126502
0.130517
0.134099
0.105986
0.111416
0.136514
0.123772
0.128969
0.12649
0.117988
0.130943
0.104575
0.0990094
0.132571
0.125203
0.11682
0.124359
0.105984
0.10499
0.127269
0.122407
0.114679
0.126827
0.120442
0.109293
0.12031
0.12432
0.0986985
0.0973038
0.118149
0.106175
0.118175
0.117946
0.102449
0.112358
0.0918551
0.0954763
0.122774
0.115486
0.0999243
0.110541
0.105305
0.0964721
0.116517
0.122296
0.0924167
0.0876802
0.101352
0.0932378
0.115007
0.119286
0.0885779
0.0878952
0.103961
0.0938305
0.109778
0.111211
0.0906935
0.0979639
0.0831629
0.0878634
0.117704
0.108866
0.0866751
0.0934938
0.0822522
0.083801
0.115215
0.105092
0.087686
0.0963514
0.0908833
0.0847339
0.106861
0.113823
0.0831057
0.0783341
0.0887571
0.0827441
0.10335
0.107338
0.0805636
0.0846609
0.0750275
0.0819263
0.114848
0.104556
0.0769699
0.0802148
0.0739567
0.0767867
0.113141
0.100394
0.0762268
0.0799421
0.0723902
0.0758219
0.107835
0.096855
0.076388
0.0834844
0.0781028
0.0752123
0.0995327
0.110861
0.0738793
0.0712038
0.0752877
0.0736017
0.0985474
0.106362
0.0734546
0.0692635
0.0767268
0.071268
0.0946068
0.097634
0.0712412
0.0723861
0.0677581
0.0722532
0.10981
0.0965961
0.0699603
0.0699765
0.065565
0.0718088
0.104777
0.0938125
0.0669932
0.0691191
0.0645725
0.0701246
0.101532
0.0903218
0.066721
0.0701478
0.0671643
0.0668071
0.0947534
0.103172
0.0729545
0.0629272
0.0649171
0.0613959
0.0930018
0.102645
0.0692322
0.0620992
0.0644338
0.0629031
0.0898726
0.0979394
0.0670184
0.0611866
0.0646284
0.0624217
0.0872129
0.0911823
0.062306
0.0613079
0.0604915
0.0683104
0.102669
0.089579
0.0605237
0.0602295
0.0584031
0.0685234
0.099158
0.0880321
0.0579797
0.0603453
0.0577947
0.0646745
0.0962974
0.0849077
0.0591783
0.0601081
0.0573715
0.0592507
0.0888174
0.100947
0.0667226
0.0578563
0.0563203
0.0578419
0.0874331
0.0974006
0.067576
0.0557279
0.0560495
0.0539998
0.0866559
0.0951563
0.0643055
0.0549776
0.0560548
0.0539203
0.0838517
0.0919188
0.0619957
0.0544277
0.0561197
0.0558464
0.0812433
0.0857778
0.0564024
0.0535163
0.0553747
0.0657844
0.0977494
0.0853966
0.051995
0.0525903
0.0528983
0.0627738
0.096311
0.0829722
0.0513539
0.0512318
0.0521106
0.0626161
0.0925507
0.0810878
0.0511007
0.0513364
0.0517337
0.0613928
0.0903593
0.0799127
0.0508476
0.0519461
0.0510858
0.0589413
0.0876661
0.0770194
0.0521934
0.0521474
0.0499002
0.052796
0.0820363
0.0908195
0.0665931
0.0517451
0.0494256
0.0494557
0.0816491
0.0925675
0.0608521
0.0502902
0.0482478
0.048729
0.0800732
0.0890789
0.0602216
0.0494069
0.0480739
0.0482927
0.0778608
0.0866343
0.0592547
0.0489761
0.048111
0.0479678
0.0765171
0.084118
0.0575502
0.048407
0.0486642
0.0495018
0.074369
0.0788856
0.0504785
0.0467775
0.0496306
0.0624717
0.0897395
0.0788516
0.0473373
0.0468115
0.0482256
0.0587561
0.0894982
0.0771073
0.0462351
0.0457661
0.0473135
0.05808
0.0862079
0.0756045
0.0460541
0.0455777
0.0469702
0.0576476
0.0842833
0.0741139
0.0459517
0.0455032
0.0463037
0.0566382
0.081684
0.0717051
0.0472845
0.0461221
0.0444621
0.0482462
0.0766391
0.0856361
0.0628428
0.0472963
0.0446791
0.045715
0.0766993
0.0870257
0.0574592
0.0462729
0.0437092
0.0444068
0.0751327
0.0840337
0.0565452
0.0455545
0.0433751
0.0442463
0.0733354
0.0817873
0.0561168
0.045086
0.043212
0.0440988
0.0718951
0.0794006
0.0554272
0.0443603
0.0439336
0.0453387
0.0695825
0.0743926
0.0464285
0.042433
0.0456309
0.0615007
0.0833279
0.0746826
0.0446261
0.0428394
0.0445808
0.0568044
0.0842715
0.0736741
0.042477
0.0420953
0.0438969
0.055241
0.0818025
0.0713892
0.0422074
0.041642
0.0434756
0.0547048
0.0792821
0.0699518
0.0425737
0.0414528
0.04274
0.0538385
0.0774462
0.0681344
0.0436354
0.0422481
0.0408635
0.045108
0.0726386
0.0828149
0.0583651
0.044596
0.0411627
0.0436549
0.0718197
0.0819983
0.0552471
0.0435866
0.0407216
0.0415996
0.0715418
0.0799571
0.0535481
0.0427621
0.0402959
0.0411045
0.0699729
0.0777243
0.0531162
0.0422946
0.0400733
0.0412501
0.0678969
0.075092
0.0522665
0.0414646
0.0406692
0.0421253
0.0655238
0.0702141
0.0435993
0.0394794
0.0431294
0.0583242
0.0790104
0.0699618
0.0428807
0.0401001
0.042383
0.0549257
0.079019
0.0691585
0.0407417
0.0396788
0.0415113
0.0524656
0.076641
0.0667527
0.0398697
0.0391269
0.0405753
0.0513966
0.0735137
0.0645443
0.0411179
0.0395606
0.0384393
0.0426798
0.0692593
0.0786368
0.0568599
0.0422984
0.0393044
0.0414829
0.068997
0.0776082
0.0534065
0.0415992
0.0387935
0.0395762
0.0677253
0.0746817
0.0511475
0.040669
0.0381168
0.0390364
0.0651647
0.0721647
0.0504301
0.039724
0.0385754
0.0401976
0.0633051
0.0679518
0.0420457
0.0376013
0.0415483
0.0548742
0.0774627
0.0671737
0.040546
0.038284
0.0406749
0.0517656
0.0756357
0.0646846
0.0386582
0.0377425
0.0394827
0.04999
0.0718285
0.062753
0.0396799
0.0379976
0.0370228
0.041176
0.0678106
0.0758897
0.0559058
0.041065
0.03793
0.040177
0.0667066
0.0744219
0.0513734
0.0401394
0.0372153
0.0379659
0.0641326
0.0709014
0.0494132
0.0388341
0.037154
0.0388908
0.0616954
0.0665659
0.0405717
0.036254
0.0404913
0.0544283
0.0752146
0.0661964
0.0395843
0.037195
0.0395827
0.0504655
0.0738556
0.0632388
0.0375602
0.0365319
0.0381277
0.0483909
0.0700165
0.0609541
0.038052
0.0364302
0.0355431
0.0396715
0.0658305
0.0739599
0.053491
0.0398909
0.0365793
0.0390273
0.0646551
0.0720552
0.0493279
0.0383876
0.0363658
0.0380519
0.0615199
0.0654737
0.0388225
0.0350287
0.0396197
0.0533016
0.0735371
0.0641987
0.038627
0.035955
0.0382125
0.04933
0.0720065
0.0618602
0.0377987
0.0359216
0.0348635
0.039062
0.0663198
0.0732223
0.0532017
0.0392995
0.0351928
0.0377769
0.06229
0.0703773
0.0489182
0.0377102
0.0352557
0.0371276
0.0608853
0.0654901
0.0388449
0.0343708
0.0390807
0.0520862
0.0733682
0.0619738
0.0372629
0.0347434
0.0370096
0.0476832
0.0690001
0.0588416
0.036095
0.0342959
0.0334265
0.0374687
0.0637115
0.0718168
0.0513218
0.0377761
0.034148
0.0374423
0.0612461
0.0656889
0.0374199
0.0332094
0.0374681
0.0520622
0.0720725
0.061513
0.0367346
0.0332525
0.0325546
0.0371783
0.0666863
0.074803
0.0528332
0.0376351
0.0332266
0.0368121
0.0635263
0.0662332
0.0367916
0.0320648
0.0375081
0.0515282
0.0748607
0.0630403
0.0361669
0.0325864
0.0317678
0.0368305
0.0675656
0.0757443
0.0521406
0.0371877
0.0319938
0.0359579
0.0615546
0.0650927
0.0357558
0.0309919
0.0366716
0.0517173
0.0738064
0.0623339
0.0358131
0.0316033
0.0308651
0.0352282
0.0664221
0.072625
0.0516152
0.0357412
0.0308004
0.0346353
0.0603049
0.0654004
0.0366069
0.0299327
0.0293194
0.0365784
0.0692425
0.076988
0.0522516
0.0361775
0.0301311
0.0343355
0.0627709
0.0676853
0.0343029
0.0292072
0.0282007
0.0345627
0.0703455
0.075881
0.0395107
0.028112
0.027348
0.0374738
0.0796189
0.0857973
0.0447258
0.0290087
0.0282227
0.0413443
0.0890741
0.0975257
0.063583
0.0406596
0.0314533
0.0392488
0.0778825
0.086593
0.0418602
0.0323795
0.0332952
0.0457131
0.0957367
0.102647
0.049253
0.0341969
0.034842
0.051941
0.107978
0.111543
0.0544903
0.0353238
0.035844
0.0567743
0.113695
0.115156
0.0592205
0.0363791
0.0370696
0.0615954
0.116054
0.116545
0.0640775
0.0378555
0.0387327
0.0666927
0.116727
0.116684
0.0692789
0.0397373
0.0409104
0.0720462
0.116528
0.116303
0.0745941
0.0421691
0.0435673
0.0771731
0.116073
0.115827
0.0794244
0.0451541
0.0469567
0.0815942
0.11561
0.115388
0.083505
0.0488461
0.0507931
0.0854667
0.115202
0.115022
0.087293
0.0527115
0.0546945
0.0891525
0.114889
0.114765
0.0908881
0.056634
0.0586083
0.0926608
0.114691
0.114629
0.0942931
0.0605692
0.0625421
0.0959568
0.114612
0.114613
0.0975061
0.0644842
0.0664061
0.0990584
0.114649
0.114705
0.100522
0.0682659
0.0700868
0.10197
0.114786
0.114891
0.103336
0.0718682
0.0736067
0.104638
0.115004
0.115143
0.105914
0.0752884
0.0769348
0.107094
0.115284
0.115434
0.108221
0.0785251
0.0800656
0.109286
0.115583
0.115741
0.110283
0.0815351
0.0829719
0.111212
0.115884
0.116036
0.112073
0.0843277
0.0856418
0.112865
0.116162
0.116298
0.113615
0.0868841
0.0880717
0.114268
0.116405
0.116512
0.114896
0.0891963
0.09026
0.115423
0.116596
0.11667
0.115938
0.0912483
0.0922012
0.116356
0.116734
0.116763
0.116733
0.0930675
0.0938955
0.117083
0.116809
0.116802
0.117334
0.094654
0.0953664
0.117605
0.11682
0.116785
0.11775
0.0960198
0.0966159
0.117944
0.116768
0.11672
0.118026
0.0971651
0.0976598
0.118127
0.116666
0.116606
0.118167
0.0981156
0.0985206
0.118173
0.116521
0.116446
0.118179
0.0988938
0.099222
0.118126
0.116342
0.116253
0.118093
0.0995306
0.0997838
0.117993
0.116133
0.116034
0.117923
0.100026
0.100226
0.11778
0.115902
0.115792
0.117686
0.100405
0.100564
0.117516
0.115658
0.115531
0.117375
0.100694
0.100806
0.117213
0.115395
0.115267
0.117032
0.100908
0.10098
0.11684
0.115117
0.114992
0.11667
0.101049
0.101086
0.116454
0.114838
0.114714
0.116284
0.101133
0.101147
0.116052
0.114559
0.114436
0.115884
0.101166
0.101167
0.115649
0.114285
0.11416
0.115456
0.101171
0.101153
0.115228
0.114011
0.113891
0.11504
0.101146
0.101116
0.1148
0.113744
0.113626
0.114626
0.101098
0.101055
0.114389
0.113489
0.113367
0.114196
0.101017
0.100948
0.113973
0.113236
0.113116
0.113779
0.100887
0.100812
0.113554
0.112991
0.11287
0.113364
0.100727
0.100653
0.113145
0.112758
0.11263
0.11293
0.100562
0.100476
0.112747
0.112526
0.112402
0.112505
0.100387
0.100292
0.11233
0.112293
0.112182
0.112109
0.100201
0.100106
0.111918
0.112067
0.11197
0.111731
0.100008
0.099924
0.111525
0.111856
0.111764
0.111356
0.0998214
0.0997476
0.111143
0.111655
0.111563
0.110987
0.0996413
0.099569
0.110796
0.111466
0.111374
0.110629
0.0994752
0.0993962
0.110459
0.111283
0.111198
0.110299
0.0993092
0.0992334
0.110135
0.111112
0.111032
0.109987
0.0991559
0.0990735
0.109844
0.110955
0.110878
0.109681
0.0990146
0.0989386
0.109544
0.110804
0.11073
0.1094
0.0988743
0.0988083
0.109276
0.110665
0.110594
0.109132
0.0987435
0.0986839
0.109025
0.110534
0.110472
0.108888
0.0986237
0.0985733
0.108775
0.110412
0.110357
0.108656
0.0985166
0.0984606
0.108549
0.110299
0.110252
0.108451
0.0984146
0.0983646
0.108328
0.110199
0.110151
0.108235
0.0983241
0.0982761
0.10813
0.110105
0.11006
0.108045
0.0982318
0.0981928
0.107955
0.110021
0.109978
0.107857
0.0981542
0.0981144
0.107778
0.109941
0.109904
0.107691
0.0980787
0.0980421
0.107611
0.109868
0.109835
0.107533
0.0980083
0.0979703
0.107456
0.109802
0.109773
0.107386
0.0979433
0.0979035
0.10731
0.109743
0.109717
0.107245
0.097875
0.0978394
0.107171
0.109689
0.109666
0.107109
0.097806
0.0977782
0.10704
0.109641
0.109619
0.10698
0.0977393
0.0977118
0.106913
0.109596
0.109577
0.106855
0.097675
0.0976447
0.106791
0.109555
0.109539
0.106734
0.0976091
0.0975759
0.10667
0.109516
0.109503
0.106617
0.097541
0.0975083
0.106551
0.109481
0.109469
0.106508
0.0974696
0.0974384
0.106441
0.109451
0.109437
0.106392
0.0973988
0.0973651
0.106325
0.109423
0.109405
0.106271
0.0973253
0.0972868
0.106221
0.109395
0.109378
0.106154
0.09725
0.0972086
0.106109
0.109366
0.109352
0.106041
0.0971691
0.0971279
0.105985
0.109337
0.109325
0.105932
0.0970878
0.0970421
0.105875
0.109311
0.109301
0.105822
0.0970019
0.0969541
0.105764
0.109286
0.109277
0.105711
0.0969108
0.0968639
0.105653
0.109262
0.109254
0.1056
0.0968194
0.096774
0.105541
0.109238
0.109231
0.105491
0.0967249
0.0966763
0.105428
0.109214
0.109209
0.105381
0.0966278
0.0965792
0.105313
0.109191
0.109187
0.105276
0.0965271
0.0964795
0.105208
0.10917
0.109165
0.105163
0.0964271
0.0963763
0.105095
0.109148
0.109143
0.105053
0.096325
0.0962699
0.10498
0.109126
0.10912
0.104933
0.096222
0.0961654
0.104866
0.109103
0.109097
0.104829
0.0961064
0.0960581
0.104761
0.109083
0.109075
0.104713
0.0959973
0.0959448
0.104656
0.109062
0.109054
0.104602
0.0958859
0.0958348
0.104543
0.10904
0.109034
0.104494
0.0957717
0.0957246
0.104428
0.109019
0.109011
0.104385
0.0956585
0.0956095
0.10432
0.108999
0.108989
0.104277
0.0955432
0.0954928
0.104212
0.10898
0.108965
0.10416
0.0954274
0.0953729
0.104117
0.10896
0.108946
0.104049
0.0953117
0.0952591
0.104003
0.108938
0.108924
0.103942
0.0951931
0.0951387
0.103898
0.108918
0.108904
0.103837
0.0950726
0.0950173
0.103793
0.108897
0.108883
0.103732
0.0949509
0.0948945
0.103687
0.108876
0.108861
0.103625
0.0948282
0.0947644
0.103588
0.108856
0.108842
0.103521
0.0947031
0.0946395
0.103471
0.108834
0.10882
0.103409
0.0945743
0.0945094
0.103372
0.108811
0.108801
0.103305
0.0944432
0.0943817
0.103251
0.108788
0.108778
0.103198
0.094312
0.0942441
0.103139
0.108765
0.108756
0.10309
0.0941787
0.0941086
0.103029
0.108742
0.108732
0.102987
0.094038
0.0939715
0.102921
0.108721
0.108708
0.102864
0.0939029
0.0938326
0.102809
0.108696
0.108683
0.102751
0.0937626
0.0936942
0.102699
0.108671
0.108658
0.10264
0.093622
0.093552
0.102592
0.108646
0.108635
0.102535
0.0934804
0.0934126
0.102476
0.108622
0.10861
0.102423
0.093341
0.0932699
0.102365
0.108597
0.108583
0.10231
0.0932021
0.0931248
0.102256
0.108572
0.108558
0.102195
0.0930599
0.0929871
0.102139
0.108545
0.108531
0.10208
0.0929141
0.0928476
0.102031
0.108517
0.108504
0.101973
0.0927701
0.0926993
0.10192
0.108491
0.108478
0.101864
0.0926287
0.0925576
0.101811
0.108463
0.108452
0.101763
0.0924804
0.0924154
0.101703
0.108438
0.108425
0.101653
0.0923385
0.0922727
0.101593
0.108411
0.108398
0.101538
0.0921976
0.0921306
0.101487
0.108384
0.108371
0.101433
0.0920589
0.0919881
0.101383
0.108356
0.108344
0.101336
0.0919196
0.0918487
0.101279
0.108331
0.108317
0.101228
0.0917844
0.0917136
0.101179
0.108304
0.108291
0.101135
0.091647
0.0915777
0.101084
0.10828
0.108266
0.101031
0.0915153
0.0914464
0.100989
0.108254
0.108241
0.100936
0.0913835
0.0913181
0.10089
0.108229
0.108216
0.100845
0.0912544
0.0911906
0.100801
0.108205
0.108193
0.100757
0.091128
0.0910685
0.100714
0.108182
0.10817
0.100671
0.0910044
0.0909472
0.100629
0.108159
0.108148
0.100587
0.090883
0.0908286
0.100547
0.108137
0.108126
0.100505
0.090764
0.0907128
0.100467
0.108116
0.108105
0.100426
0.0906478
0.0905975
0.100389
0.108095
0.108085
0.100349
0.0905337
0.0904865
0.100313
0.108074
0.108066
0.10028
0.0904243
0.0903761
0.100239
0.108055
0.108047
0.100207
0.0903175
0.0902689
0.100167
0.108036
0.108028
0.100137
0.0902134
0.0901635
0.100098
0.108019
0.10801
0.100064
0.0901132
0.0900634
0.100032
0.108
0.107992
0.100004
0.0900097
0.0899582
0.0999716
0.107985
0.107976
0.0999404
0.0899135
0.0898621
0.0999064
0.107969
0.107959
0.099871
0.0898181
0.0897711
0.0998469
0.107952
0.107944
0.0998114
0.0897221
0.0896833
0.0997836
0.107936
0.107928
0.0997556
0.0896308
0.08959
0.0997278
0.107921
0.107913
0.0997007
0.0895442
0.0894964
0.0996781
0.107907
0.107899
0.0996466
0.0894572
0.0894122
0.099618
0.107893
0.107885
0.0995937
0.0893744
0.0893253
0.0995719
0.10788
0.107872
0.0995414
0.0892912
0.0892434
0.0995208
0.107867
0.107859
0.0994908
0.0892101
0.089163
0.0994714
0.107854
0.107847
0.0994478
0.0891293
0.0890843
0.0994213
0.107843
0.107834
0.0993933
0.0890525
0.0890104
0.0993759
0.10783
0.107823
0.099348
0.0889746
0.0889387
0.0993258
0.107818
0.10781
0.0993056
0.0889026
0.0888593
0.0992881
0.107807
0.1078
0.0992616
0.0888301
0.0887871
0.0992449
0.107796
0.107789
0.0992187
0.0887587
0.088718
0.0992033
0.107785
0.107779
0.0991836
0.0886892
0.0886496
0.0991608
0.107776
0.107768
0.0991367
0.0886224
0.0885824
0.0991218
0.107765
0.107758
0.0990984
0.088556
0.088517
0.099084
0.107756
0.107749
0.099061
0.0884913
0.088453
0.099047
0.107746
0.107739
0.0990244
0.088428
0.0883905
0.099011
0.107737
0.10773
0.0989886
0.088366
0.0883292
0.0989759
0.107728
0.107722
0.0989536
0.0883053
0.0882688
0.0989419
0.107719
0.107714
0.0989195
0.0882462
0.0882147
0.0989038
0.10771
0.107705
0.0988881
0.0881882
0.0881567
0.0988726
0.107701
0.107697
0.0988567
0.08813
0.0881007
0.0988414
0.107694
0.107689
0.0988258
0.0880733
0.088046
0.0988106
0.107686
0.107681
0.0987951
0.0880188
0.0879883
0.0987852
0.107679
0.107675
0.0987649
0.0879665
0.0879371
0.0987496
0.107671
0.107667
0.098736
0.0879169
0.0878847
0.0987215
0.107664
0.10766
0.098708
0.0878655
0.0878363
0.098694
0.107656
0.107653
0.0986856
0.0878113
0.0877859
0.0986702
0.107651
0.107647
0.0986513
0.0877644
0.0877384
0.0986439
0.107643
0.107641
0.0986298
0.0877154
0.0876908
0.0986109
0.107637
0.107633
0.0985995
0.0876726
0.0876442
0.0985875
0.10763
0.107627
0.0985757
0.0876239
0.0876017
0.0985637
0.107623
0.107621
0.0985565
0.0875732
0.0875567
0.0985386
0.107618
0.107615
0.0985275
0.0875345
0.0875118
0.0985159
0.107612
0.107609
0.098505
0.0874904
0.0874666
0.0984925
0.107606
0.107603
0.098482
0.0874508
0.0874241
0.0984703
0.1076
0.107598
0.0984598
0.0874085
0.0873857
0.0984485
0.107594
0.107592
0.0984427
0.0873627
0.0873444
0.0984254
0.107589
0.107586
0.0984159
0.0873291
0.0873027
0.0984047
0.107584
0.10758
0.0983953
0.087287
0.0872632
0.0983892
0.107579
0.107575
0.0983736
0.0872487
0.0872255
0.0983682
0.107574
0.10757
0.0983525
0.0872112
0.0871876
0.098348
0.107568
0.107565
0.0983389
0.0871729
0.0871508
0.0983266
0.107564
0.10756
0.0983116
0.0871372
0.0871153
0.0983069
0.107558
0.107555
0.0982932
0.0871018
0.0870797
0.0982886
0.107553
0.10755
0.0982749
0.0870664
0.0870447
0.0982705
0.107548
0.107545
0.0982566
0.0870316
0.0870097
0.0982525
0.107543
0.10754
0.0982382
0.0869962
0.0869791
0.0982353
0.107538
0.107536
0.098225
0.0869589
0.0869468
0.0982116
0.107533
0.107531
0.0982077
0.0869259
0.0869142
0.0981949
0.107529
0.107527
0.0981911
0.0868937
0.0868822
0.0981783
0.107524
0.107523
0.0981748
0.0868621
0.0868508
0.0981619
0.10752
0.107518
0.098159
0.0868311
0.08682
0.0981457
0.107516
0.107514
0.0981437
0.0868013
0.0867891
0.098137
0.107512
0.107511
0.098128
0.0867719
0.0867603
0.0981212
0.107509
0.107507
0.0981114
0.0867423
0.086732
0.0980991
0.107505
0.107503
0.098097
0.0867133
0.0867035
0.098086
0.107501
0.1075
0.098084
0.0866854
0.0866759
0.098073
0.107498
0.107497
0.0980713
0.0866583
0.0866491
0.0980603
0.107495
0.107494
0.098059
0.0866319
0.086623
0.0980478
0.107492
0.107491
0.0980472
0.0866071
0.0865956
0.0980354
0.107489
0.107487
0.0980304
0.086585
0.0865677
0.098024
0.107485
0.107483
0.0980188
0.0865505
0.0865405
0.0980122
0.107479
0.107473
0.0980024
0.0865249
0.0865099
0.0979931
0.107465
0.107439
0.0979674
0.0864921
0.0864927
0.0979825
0.107426
0.107375
0.0979171
0.0865097
0.0866286
0.0979915
0.10735
0.107318
0.0979235
0.0867687
0.0867562
0.0977499
0.107387
0.107272
0.097498
0.0865748
0.0864793
0.0974061
0.107176
0.0802362
0.074956
0.0726058
0.0714637
0.0710542
0.0709152
0.0709955
0.0711856
0.0714492
0.0717657
0.0721196
0.0725223
0.0730092
0.0736043
0.0743241
0.0752186
0.0759056
0.0769115
0.0778476
0.0785364
0.0790558
0.0794368
0.0796679
0.0797703
0.0797614
0.0796714
0.079527
0.0793501
0.0791579
0.0789622
0.0787711
0.0785895
0.0784201
0.0782641
0.0781219
0.077993
0.0778768
0.0777721
0.0776781
0.0775938