/*--------------------------------*- C++ -*----------------------------------*\
| =========                 |                                                 |
| \\      /  F ield         | OpenFOAM: The Open Source CFD Toolbox           |
|  \\    /   O peration     | Version:  v2006                                 |
|   \\  /    A nd           | Website:  www.openfoam.com                      |
|    \\/     M anipulation  |                                                 |
\*---------------------------------------------------------------------------*/
FoamFile
{
    version     2.0;
    format      ascii;
    class       volVectorField;
    location    "0.03";
    object      U;
}
// * * * * * * * * * * * * * * * * * * * * * * * * * * * * * * * * * * * * * //

dimensions      [0 1 -1 0 0 0 0];


internalField   nonuniform List<vector> 
31566
(
(81.9249 -0.00058156 -1.70567e-19)
(81.9252 -0.000173922 0)
(81.9157 -5.78387e-06 0)
(81.9157 -2.29341e-05 -2.44277e-21)
(81.9156 -2.82783e-05 4.03633e-21)
(81.9158 -5.48768e-05 -7.29051e-22)
(81.916 -7.46021e-05 0)
(81.9162 -9.69968e-05 3.72159e-22)
(81.9165 -0.000113193 3.99283e-22)
(81.9168 -0.000133962 -8.29856e-22)
(81.9171 -0.000151186 -1.39778e-23)
(81.9175 -0.000173242 0)
(81.918 -0.000191562 0)
(81.9185 -0.000215951 0)
(81.919 -0.000233529 0)
(81.9196 -0.000263832 -1.289e-25)
(81.9203 -0.000268556 0)
(81.9207 -0.000333915 0)
(81.922 -0.000287141 0)
(81.9217 -0.000357412 0)
(81.9136 -0.00147842 0)
(81.8881 -0.00480521 0)
(81.842 -0.0100451 0)
(81.7789 -0.016126 0)
(81.704 -0.0221967 0)
(81.622 -0.0277171 0)
(81.5365 -0.0324517 0)
(81.4498 -0.0363994 0)
(81.3627 -0.0396758 0)
(81.2754 -0.0424257 0)
(81.1877 -0.0447797 0)
(81.0994 -0.0468389 0)
(81.0099 -0.0486741 0)
(80.9191 -0.0503317 0)
(80.8268 -0.0518404 0)
(80.733 -0.0532179 0)
(80.6375 -0.0544762 0)
(80.5406 -0.0556247 0)
(80.4422 -0.056672 0)
(80.3425 -0.0576265 0)
(80.2415 -0.0584968 0)
(80.1393 -0.0592917 0)
(80.036 -0.060019 0)
(79.9317 -0.0606811 0)
(79.8265 -0.06128 0)
(79.7203 -0.0618209 0)
(79.6134 -0.0623072 0)
(79.5058 -0.0627408 0)
(79.3974 -0.063123 0)
(79.2885 -0.0634543 0)
(79.1791 -0.0637347 0)
(79.0693 -0.0639644 0)
(78.9592 -0.0641427 0)
(78.8488 -0.0642693 0)
(78.7382 -0.0643432 0)
(78.6275 -0.0643627 0)
(78.5169 -0.0643268 0)
(78.4063 -0.0642392 0)
(78.296 -0.0641045 0)
(78.1858 -0.0639234 1.57739e-22)
(78.0761 -0.063694 0)
(77.9667 -0.0634157 0)
(77.8579 -0.0630894 0)
(77.7497 -0.0627173 0)
(77.6421 -0.0623005 0)
(77.5354 -0.061831 0)
(77.4295 -0.0613033 0)
(77.3244 -0.06072 0)
(77.2204 -0.0600806 0)
(77.1175 -0.059383 0)
(77.0156 -0.0586235 0)
(76.915 -0.0577974 0)
(76.8157 -0.0568989 0)
(76.7178 -0.0559228 0)
(76.6215 -0.054865 0)
(76.5268 -0.0537246 0)
(76.4338 -0.0525045 0)
(76.3428 -0.0512116 0)
(76.2535 -0.0498543 0)
(76.1659 -0.0484351 0)
(76.0796 -0.0469399 0)
(75.994 -0.0453186 0)
(75.9082 -0.0434686 1.47798e-22)
(75.8213 -0.0412456 0)
(75.7329 -0.0384371 0)
(75.643 -0.0347641 0)
(75.554 -0.0300032 0)
(75.4708 -0.0242502 0)
(75.4013 -0.0181583 0)
(75.3539 -0.0128534 -1.00596e-22)
(75.3322 -0.00936803 -1.37901e-22)
(75.3322 -0.00782204 -2.79761e-22)
(75.3444 -0.00740892 -2.04041e-22)
(75.3615 -0.00734999 0)
(75.3797 -0.00732987 0)
(75.398 -0.00732926 0)
(75.4159 -0.0072696 0)
(75.4327 -0.00728422 -3.80091e-21)
(75.4474 -0.00740748 0)
(75.4576 -0.00815133 0)
(75.459 -0.00991684 0)
(75.4364 -0.009684 0)
(75.3974 -0.00721684 0)
(75.3273 -0.0209174 0)
(75.1989 -0.0415329 -5.27505e-19)
(75.0327 -0.069104 7.12024e-19)
(74.8184 -0.107582 0)
(74.4888 -0.143636 5.89809e-19)
(74.1183 -0.162108 -7.70075e-19)
(72.6996 -0.223328 0)
(71.7597 -0.196708 0)
(74.1046 -0.253133 0)
(74.559 -0.234247 -6.06311e-18)
(74.5916 -0.271571 1.19829e-18)
(73.9978 -0.290135 -3.75842e-19)
(70.7373 -0.191503 2.34163e-19)
(69.7292 -0.17399 -1.00766e-18)
(73.8436 -0.281611 3.3231e-19)
(74.6126 -0.275318 -1.09188e-18)
(74.6086 -0.258854 1.06575e-18)
(73.6629 -0.253672 8.18606e-20)
(68.8076 -0.150776 8.13885e-19)
(67.9684 -0.128901 -4.69971e-20)
(73.4727 -0.231588 -7.72181e-20)
(74.5774 -0.244456 -6.38584e-20)
(74.5244 -0.226963 6.40236e-20)
(73.2433 -0.207295 0)
(67.2154 -0.111411 4.72755e-20)
(66.537 -0.0992598 0)
(73.0173 -0.188769 -4.83438e-21)
(74.4602 -0.212927 0)
(74.3828 -0.196718 0)
(72.7673 -0.170312 4.83939e-21)
(65.8877 -0.0897759 0)
(65.2895 -0.0835781 -2.96475e-21)
(72.5642 -0.160666 4.82698e-21)
(74.3024 -0.186619 -4.01202e-21)
(74.2143 -0.17909 4.03484e-21)
(72.3591 -0.150803 -4.83628e-21)
(64.745 -0.0765558 1.48513e-21)
(64.2522 -0.0693366 8.01792e-26)
(72.1572 -0.139476 -1.20966e-21)
(74.1245 -0.171008 0)
(74.027 -0.16427 5.17474e-19)
(71.9539 -0.13119 1.21053e-21)
(63.7911 -0.0637605 1.48625e-21)
(63.3678 -0.0584032 0)
(71.7543 -0.122363 0)
(73.9266 -0.157614 0)
(73.8202 -0.152271 -5.18127e-19)
(71.5551 -0.116275 0)
(62.9666 -0.0544378 0)
(62.5952 -0.0503546 0)
(71.3605 -0.109212 0)
(73.7124 -0.146718 0)
(73.6002 -0.142397 -5.18644e-19)
(71.1666 -0.104702 0)
(62.2394 -0.0475042 0)
(61.9078 -0.0442511 0)
(70.9779 -0.0988222 0)
(73.4879 -0.137706 0)
(73.3721 -0.134089 0)
(70.7898 -0.0955079 0)
(61.5875 -0.0422044 0)
(61.2866 -0.0396101 0)
(70.6068 -0.0906952 0)
(73.2573 -0.129821 -5.19281e-19)
(73.1392 -0.126924 0)
(70.4242 -0.088146 0)
(60.9941 -0.038054 0)
(60.7178 -0.0359249 0)
(70.2468 -0.084103 0)
(73.0231 -0.123146 0)
(72.9038 -0.120804 0)
(70.0695 -0.0821299 0)
(60.4479 -0.0347345 0)
(60.1915 -0.0329405 0)
(69.8974 -0.078623 0)
(72.7873 -0.117425 -5.19968e-19)
(72.6674 -0.115544 0)
(69.7252 -0.0771264 0)
(59.94 -0.0320395 0)
(59.7001 -0.0305025 0)
(69.558 -0.074045 0)
(72.5509 -0.11254 0)
(72.4309 -0.110967 0)
(69.3903 -0.0729076 0)
(59.464 -0.029815 0)
(59.2378 -0.0285028 0)
(69.2275 -0.0702381 0)
(72.3146 -0.108448 -5.2053e-19)
(72.1954 -0.10663 0)
(69.0648 -0.0690413 0)
(59.0154 -0.0278489 0)
(58.802 -0.0268254 0)
(68.907 -0.0668904 0)
(72.0806 -0.104483 0)
(71.9612 -0.102995 0)
(68.7477 -0.0657724 0)
(58.59 -0.0261901 0)
(58.3855 -0.0254012 0)
(68.5925 -0.0642169 0)
(71.8462 -0.10167 -5.21012e-19)
(71.7257 -0.100914 0)
(68.4354 -0.063829 0)
(58.182 -0.0251308 0)
(57.9856 -0.0240889 0)
(68.283 -0.0615785 0)
(71.6108 -0.0987329 5.2123e-19)
(71.491 -0.0983361 0)
(68.1292 -0.0615165 0)
(57.7905 -0.0239767 0)
(57.6017 -0.0230324 0)
(67.9797 -0.059453 0)
(71.3765 -0.0963205 0)
(71.2566 -0.0961821 0)
(67.8283 -0.0595854 0)
(57.4134 -0.0230087 0)
(57.2308 -0.0221019 0)
(67.681 -0.0575866 0)
(71.1423 -0.0942069 0)
(71.0223 -0.0943036 0)
(67.5317 -0.0578957 0)
(57.0485 -0.0221593 0)
(56.8715 -0.0212869 0)
(67.3864 -0.0559551 0)
(70.9082 -0.0923712 0)
(70.788 -0.0926855 -5.21881e-19)
(67.239 -0.0564222 0)
(56.6944 -0.0214156 0)
(56.5223 -0.0205688 0)
(67.0954 -0.0545219 0)
(70.6739 -0.0907766 0)
(70.5535 -0.0912612 0)
(66.9494 -0.0551165 0)
(56.3498 -0.0207556 0)
(56.1819 -0.0199349 0)
(66.8073 -0.0532643 0)
(70.4392 -0.0894103 0)
(70.3184 -0.0900567 0)
(66.6626 -0.0539826 0)
(56.0134 -0.0201771 0)
(55.8492 -0.0193757 0)
(66.5216 -0.0521673 0)
(70.2039 -0.0882565 0)
(70.0825 -0.0890727 0)
(66.3779 -0.0530071 0)
(55.6843 -0.0196704 0)
(55.5233 -0.0188825 0)
(66.2377 -0.0512135 0)
(69.9676 -0.0872848 0)
(69.8456 -0.0882316 -5.22538e-19)
(66.0948 -0.0521467 0)
(55.3614 -0.0192177 0)
(55.2032 -0.018445 0)
(65.9553 -0.0503822 0)
(69.7302 -0.0864774 0)
(69.6075 -0.0875398 0)
(65.8129 -0.0514004 0)
(55.044 -0.0188172 0)
(54.8883 -0.0180505 0)
(65.6739 -0.0496468 0)
(69.4914 -0.0857978 0)
(69.3679 -0.0869469 0)
(65.5319 -0.0507306 0)
(54.7315 -0.0184511 0)
(54.578 -0.0176949 0)
(65.3932 -0.0489996 0)
(69.2511 -0.0852532 0)
(69.1266 -0.0865112 0)
(65.2514 -0.0501652 0)
(54.4233 -0.0181303 0)
(54.2717 -0.0173771 0)
(65.1128 -0.0484393 0)
(69.0089 -0.0848325 0)
(68.8834 -0.0862255 -5.23115e-19)
(64.9711 -0.0496953 0)
(54.1188 -0.0178486 0)
(53.9688 -0.0170985 0)
(64.8324 -0.0479711 0)
(68.7647 -0.0845362 0)
(68.638 -0.0860062 0)
(64.6905 -0.0492817 0)
(53.8175 -0.0175923 0)
(53.6689 -0.0168555 0)
(64.5516 -0.047587 0)
(68.5181 -0.084372 0)
(68.3902 -0.0859334 0)
(64.4095 -0.0489693 0)
(53.5188 -0.0173794 0)
(53.3713 -0.016642 0)
(64.2702 -0.0472726 0)
(68.2691 -0.0843058 0)
(68.1398 -0.0859907 0)
(64.1275 -0.0487359 0)
(53.2222 -0.0171972 0)
(53.0755 -0.0164627 0)
(63.9876 -0.0470413 0)
(68.0173 -0.0843558 0)
(67.8866 -0.0861392 0)
(63.8443 -0.0485675 0)
(52.9272 -0.0170423 0)
(52.7812 -0.0163175 0)
(63.7037 -0.0468918 0)
(67.7626 -0.0845324 0)
(67.6303 -0.0863983 0)
(63.5596 -0.0484761 0)
(52.6334 -0.0169205 0)
(52.4878 -0.0161954 0)
(63.4181 -0.0467964 0)
(67.5046 -0.0847873 0)
(67.3707 -0.0867041 0)
(63.2731 -0.0484191 0)
(52.3403 -0.0168135 0)
(52.195 -0.0160956 0)
(63.1307 -0.0467565 0)
(67.2433 -0.0851446 0)
(67.1076 -0.0871803 0)
(62.9845 -0.0484604 0)
(52.0477 -0.0167458 0)
(51.9023 -0.0160224 0)
(62.8409 -0.0467806 0)
(66.9782 -0.0855889 0)
(66.8407 -0.0876908 0)
(62.6935 -0.0485248 0)
(51.755 -0.0166867 0)
(51.6095 -0.0159785 0)
(62.5486 -0.0468808 0)
(66.7093 -0.086174 0)
(66.5697 -0.0883964 0)
(62.3998 -0.048708 0)
(51.4619 -0.0166756 0)
(51.3159 -0.0159617 0)
(62.2532 -0.047049 0)
(66.436 -0.0868514 0)
(66.2943 -0.0891672 0)
(62.1029 -0.0489286 0)
(51.1678 -0.0166766 0)
(51.0213 -0.0159722 0)
(61.9546 -0.0472885 0)
(66.1582 -0.0876521 0)
(66.0142 -0.0900234 0)
(61.8025 -0.0492084 0)
(50.8724 -0.0167022 0)
(50.7251 -0.0160046 0)
(61.6524 -0.0475859 0)
(65.8756 -0.0885574 0)
(65.7292 -0.0910109 0)
(61.4983 -0.0495636 0)
(50.5754 -0.0167563 0)
(50.427 -0.0160582 0)
(61.3462 -0.0479403 0)
(65.5878 -0.0895561 0)
(65.4388 -0.0921068 0)
(61.19 -0.049977 0)
(50.2762 -0.0168308 0)
(50.1267 -0.0161401 0)
(61.0356 -0.0483704 0)
(65.2946 -0.0906825 0)
(65.1429 -0.0933307 0)
(60.8772 -0.0504671 0)
(49.9745 -0.0169341 0)
(49.8236 -0.0162497 0)
(60.7203 -0.0488754 0)
(64.9955 -0.0919321 0)
(64.8409 -0.0946734 0)
(60.5594 -0.0510281 0)
(49.6699 -0.0170628 0)
(49.5173 -0.0163847 0)
(60.3999 -0.0494511 0)
(64.6902 -0.0932997 0)
(64.5325 -0.0961328 0)
(60.2362 -0.0516575 0)
(49.3618 -0.0172158 0)
(49.2074 -0.0165436 0)
(60.0739 -0.0500943 0)
(64.3784 -0.0947802 0)
(64.2176 -0.0976993 0)
(59.9074 -0.0523493 0)
(49.0499 -0.0173903 0)
(48.8934 -0.0167248 0)
(59.742 -0.0508013 0)
(64.0597 -0.0963673 0)
(63.8956 -0.099371 0)
(59.5724 -0.0531023 0)
(48.7338 -0.0175853 0)
(48.5751 -0.0169308 0)
(59.4039 -0.0515811 0)
(63.7339 -0.0980762 0)
(63.5661 -0.101211 0)
(59.231 -0.0539493 0)
(48.4131 -0.0178128 0)
(48.2519 -0.0171615 0)
(59.059 -0.0524323 0)
(63.4003 -0.0998995 0)
(63.229 -0.103082 0)
(58.8826 -0.0548149 0)
(48.0874 -0.018044 0)
(47.9235 -0.0174152 0)
(58.7071 -0.0533446 0)
(63.0589 -0.101799 0)
(62.8838 -0.105046 0)
(58.5271 -0.0557552 0)
(47.7562 -0.0183013 0)
(47.5896 -0.0176893 0)
(58.3478 -0.0543234 0)
(62.7093 -0.103809 0)
(62.53 -0.10722 0)
(58.1639 -0.0568136 0)
(47.4193 -0.0186012 0)
(47.2495 -0.0179776 0)
(57.9805 -0.0553544 0)
(62.3513 -0.106029 0)
(62.1677 -0.109474 0)
(57.7926 -0.0578825 0)
(47.0761 -0.0189077 0)
(46.9031 -0.0182991 0)
(57.6052 -0.0564544 0)
(61.9844 -0.108367 0)
(61.7961 -0.111865 0)
(57.413 -0.0590304 0)
(46.7263 -0.0192446 0)
(46.5499 -0.0186384 0)
(57.2211 -0.0576146 0)
(61.608 -0.110823 0)
(61.4147 -0.114422 0)
(57.0244 -0.0602559 0)
(46.3696 -0.0196048 0)
(46.1895 -0.0190072 0)
(56.8279 -0.0588615 0)
(61.2215 -0.113441 0)
(61.023 -0.117122 0)
(56.6264 -0.0615579 0)
(46.0053 -0.0199899 0)
(45.8213 -0.0194008 0)
(56.425 -0.0601859 0)
(60.8245 -0.116203 0)
(60.6206 -0.119967 0)
(56.2184 -0.0629384 0)
(45.6331 -0.0203997 0)
(45.445 -0.0198197 0)
(56.0118 -0.0615895 0)
(60.4164 -0.11911 0)
(60.2069 -0.122955 0)
(55.8 -0.0643967 0)
(45.2524 -0.0208341 0)
(45.06 -0.0202636 0)
(55.588 -0.063071 0)
(59.9969 -0.122161 0)
(59.7815 -0.126088 0)
(55.3707 -0.0659327 0)
(44.8629 -0.0212931 0)
(44.6659 -0.0207327 0)
(55.153 -0.0646313 0)
(59.5655 -0.125358 0)
(59.3438 -0.129369 0)
(54.9299 -0.0675481 0)
(44.4641 -0.0217773 0)
(44.2622 -0.0212277 0)
(54.7064 -0.0662728 0)
(59.1215 -0.128707 0)
(58.8935 -0.132804 0)
(54.4772 -0.0692456 0)
(44.0554 -0.0222874 0)
(43.8485 -0.0217493 0)
(54.2475 -0.0679981 0)
(58.6646 -0.132213 0)
(58.4299 -0.136398 0)
(54.012 -0.0710275 0)
(43.6365 -0.0228241 0)
(43.4242 -0.0222979 0)
(53.7758 -0.0698091 0)
(58.1942 -0.135881 0)
(57.9525 -0.140157 0)
(53.5338 -0.0728967 0)
(43.2067 -0.0233879 0)
(42.9889 -0.0228758 0)
(53.2909 -0.0717135 0)
(57.7096 -0.139726 0)
(57.4607 -0.144136 0)
(53.0419 -0.0748819 0)
(42.7656 -0.0239901 0)
(42.5419 -0.023481 0)
(52.7919 -0.0737111 0)
(57.2104 -0.143741 0)
(56.9539 -0.148253 0)
(52.5357 -0.0769349 0)
(42.3126 -0.0246089 0)
(42.0828 -0.024114 0)
(52.2785 -0.0757955 0)
(56.6959 -0.147927 0)
(56.4316 -0.152499 0)
(52.0149 -0.0790608 0)
(41.8472 -0.0252506 0)
(41.6111 -0.0247646 0)
(51.7501 -0.0779449 0)
(56.1657 -0.152243 0)
(55.8934 -0.156895 0)
(51.4788 -0.0812611 0)
(41.369 -0.0259135 0)
(41.1264 -0.0254373 0)
(51.2062 -0.0801696 0)
(55.6192 -0.156709 0)
(55.3386 -0.161438 0)
(50.9269 -0.0835356 0)
(40.8777 -0.0265976 0)
(40.6283 -0.0261329 0)
(50.6463 -0.0824711 0)
(55.0558 -0.161324 0)
(54.7666 -0.166134 0)
(50.3588 -0.0858882 0)
(40.3727 -0.027304 0)
(40.1164 -0.0268516 0)
(50.0699 -0.0848528 0)
(54.4751 -0.166095 0)
(54.177 -0.170989 0)
(49.7739 -0.0883235 0)
(39.8537 -0.0280346 0)
(39.5902 -0.027595 0)
(49.4763 -0.0873186 0)
(53.8764 -0.171029 0)
(53.5691 -0.176007 0)
(49.1716 -0.0908444 0)
(39.3202 -0.0287904 0)
(39.0493 -0.0283636 0)
(48.8652 -0.0898701 0)
(53.2591 -0.176126 0)
(52.9423 -0.181186 0)
(48.5514 -0.0934495 0)
(38.7716 -0.0295709 0)
(38.493 -0.0291539 0)
(48.2359 -0.0924972 0)
(52.6227 -0.181367 0)
(52.2962 -0.186455 0)
(47.9128 -0.0961018 0)
(38.2076 -0.0303616 0)
(37.9212 -0.0299662 0)
(47.5879 -0.095197 0)
(51.9667 -0.186756 0)
(51.6303 -0.191891 0)
(47.2554 -0.0988486 0)
(37.6278 -0.0311827 0)
(37.3334 -0.0307956 0)
(46.9208 -0.0979658 0)
(51.2906 -0.192265 0)
(50.9438 -0.197531 0)
(46.5785 -0.101698 0)
(37.0317 -0.0320329 0)
(36.7291 -0.0316433 0)
(46.234 -0.100809 0)
(50.5936 -0.197905 0)
(50.2365 -0.203239 0)
(45.8817 -0.104576 0)
(36.419 -0.0328833 0)
(36.108 -0.0325011 0)
(45.5272 -0.103699 0)
(49.8758 -0.203645 0)
(49.5081 -0.20898 0)
(45.1648 -0.107476 0)
(35.7894 -0.0337359 0)
(35.4701 -0.0333519 0)
(44.8003 -0.106589 0)
(49.1368 -0.209397 0)
(48.7584 -0.21474 0)
(44.4278 -0.110379 0)
(35.1431 -0.0345825 0)
(34.8154 -0.0341973 0)
(44.0533 -0.109479 0)
(48.3765 -0.215156 0)
(47.9875 -0.220491 0)
(43.6707 -0.113273 0)
(34.48 -0.0354197 0)
(34.144 -0.0350304 0)
(43.2861 -0.112353 0)
(47.5948 -0.220889 0)
(47.1952 -0.226203 0)
(42.8934 -0.116144 0)
(33.8003 -0.0362428 0)
(33.4562 -0.0358423 0)
(42.4988 -0.115185 0)
(46.7918 -0.226551 0)
(46.3817 -0.231778 0)
(42.0962 -0.118941 0)
(33.1044 -0.0370329 0)
(32.7523 -0.036637 0)
(41.6919 -0.117977 0)
(45.9677 -0.232147 0)
(45.547 -0.237333 0)
(41.2794 -0.121739 0)
(32.3925 -0.0378223 0)
(32.0326 -0.0373912 0)
(40.8654 -0.120687 0)
(45.1226 -0.237568 0)
(44.6916 -0.242771 0)
(40.4433 -0.124455 0)
(31.6651 -0.0385697 0)
(31.2976 -0.0381361 0)
(40.0198 -0.123373 0)
(44.2569 -0.242955 0)
(43.8157 -0.2481 0)
(39.5882 -0.127125 0)
(30.9224 -0.0393009 0)
(30.5475 -0.038881 0)
(39.1554 -0.126055 0)
(43.371 -0.24831 0)
(42.9199 -0.253758 0)
(38.7144 -0.130141 0)
(30.1648 -0.0402452 0)
(29.7801 -0.0406276 0)
(38.2721 -0.129834 0)
(42.4654 -0.254653 0)
(42.0052 -0.260803 0)
(37.8213 -0.134628 0)
(29.3813 -0.0428963 0)
(28.9794 -0.0434252 0)
(37.3693 -0.134376 0)
(41.5422 -0.26184 0)
(41.0736 -0.267714 0)
(36.9087 -0.138918 0)
(28.565 -0.0453622 0)
(28.1488 -0.0455441 0)
(36.447 -0.138409 0)
(40.6021 -0.268428 0)
(40.1252 -0.273804 0)
(35.9768 -0.142661 0)
(27.7213 -0.047139 0)
(27.2935 -0.0470104 0)
(35.506 -0.1418 0)
(39.6458 -0.274006 0)
(39.1613 -0.278957 0)
(35.0273 -0.145771 0)
(26.8558 -0.048359 0)
(26.4193 -0.047952 0)
(34.5488 -0.144455 0)
(38.675 -0.278473 0)
(38.1841 -0.282882 0)
(34.0632 -0.14805 0)
(25.9743 -0.0490806 0)
(25.5319 -0.048493 0)
(33.5787 -0.146366 0)
(37.692 -0.281835 0)
(37.1961 -0.285425 0)
(33.088 -0.149496 0)
(25.0823 -0.0493996 0)
(24.6371 -0.0485798 0)
(32.5996 -0.147301 0)
(36.6999 -0.283573 0)
(36.2007 -0.286523 0)
(32.106 -0.15004 0)
(24.1861 -0.0493134 0)
(23.7411 -0.0482453 0)
(31.6162 -0.147261 0)
(35.7025 -0.28373 0)
(35.2023 -0.286033 0)
(31.1223 -0.149581 0)
(23.2919 -0.0488158 0)
(22.8502 -0.0475513 0)
(30.6337 -0.146276 0)
(34.7043 -0.282349 0)
(34.2053 -0.283729 0)
(30.1423 -0.148073 0)
(22.4057 -0.0479303 0)
(21.9707 -0.0464324 0)
(29.6578 -0.144154 0)
(33.7099 -0.278981 0)
(33.215 -0.279429 0)
(29.1721 -0.145433 0)
(21.5346 -0.046629 0)
(21.1098 -0.0448954 0)
(28.6952 -0.140886 0)
(32.7252 -0.273578 0)
(32.2371 -0.273073 0)
(28.2185 -0.141645 0)
(20.6855 -0.0449187 0)
(20.2745 -0.0429511 0)
(27.7524 -0.136463 0)
(31.756 -0.266098 0)
(31.2778 -0.264643 0)
(27.2881 -0.136702 0)
(19.8655 -0.0428088 0)
(19.4717 -0.0406222 0)
(26.8365 -0.130902 0)
(30.8085 -0.256555 0)
(30.3433 -0.254181 0)
(26.3881 -0.130633 0)
(19.0815 -0.0403227 0)
(18.7082 -0.0379397 0)
(25.9542 -0.12425 0)
(29.8889 -0.24501 0)
(29.44 -0.241779 0)
(25.525 -0.123517 0)
(18.3399 -0.0375081 0)
(17.9902 -0.0349438 0)
(25.1123 -0.116588 0)
(29.0036 -0.231582 0)
(28.5738 -0.227581 0)
(24.7055 -0.115448 0)
(17.6467 -0.0344113 0)
(17.3231 -0.0316983 0)
(24.3168 -0.108041 0)
(28.1584 -0.216447 0)
(27.7508 -0.211728 0)
(23.9354 -0.106527 0)
(17.0069 -0.0310764 0)
(16.7116 -0.0282953 0)
(23.5735 -0.0988413 0)
(27.3591 -0.199941 0)
(26.9756 -0.194629 5.36617e-19)
(23.2193 -0.0970584 0)
(16.4241 -0.0276224 0)
(16.1585 -0.0247827 0)
(22.8862 -0.0891284 0)
(26.6098 -0.182272 0)
(26.2529 -0.176893 0)
(22.5616 -0.087317 0)
(15.9011 -0.0241565 0)
(15.6657 -0.0212952 0)
(22.2586 -0.0792516 0)
(25.9147 -0.16423 0)
(25.5861 -0.158481 0)
(21.9644 -0.0776157 0)
(15.4385 -0.0206505 0)
(15.2332 -0.0177655 0)
(21.6921 -0.0696071 0)
(25.2768 -0.145545 5.37128e-19)
(24.9772 -0.140151 0)
(21.4289 -0.0678835 0)
(15.0359 -0.0172565 0)
(14.86 -0.0145204 0)
(21.1877 -0.0599681 0)
(24.6974 -0.12739 5.37296e-19)
(24.427 -0.122239 0)
(20.9552 -0.0583721 0)
(14.6914 -0.014141 0)
(14.5437 -0.0115134 0)
(20.7445 -0.0506628 0)
(24.1768 -0.109723 5.37448e-19)
(23.9355 -0.105091 0)
(20.5419 -0.049368 0)
(14.4024 -0.0112916 0)
(14.2808 -0.0088077 0)
(20.3603 -0.0420117 0)
(23.7141 -0.0930203 5.37584e-19)
(23.5008 -0.0891089 0)
(20.1861 -0.0411228 0)
(14.1644 -0.00877223 0)
(14.0664 -0.00642095 0)
(20.0319 -0.0341204 0)
(23.3073 -0.0775331 5.37706e-19)
(23.121 -0.0743901 0)
(19.8841 -0.0336396 0)
(13.9726 -0.00656761 0)
(13.8956 -0.00438255 0)
(19.7552 -0.0271031 0)
(22.9537 -0.0634785 5.37815e-19)
(22.7926 -0.0610513 0)
(19.6316 -0.0269889 0)
(13.8216 -0.00467843 0)
(13.7631 -0.0026524 0)
(19.5257 -0.020955 0)
(22.6497 -0.0508374 5.37912e-19)
(22.5119 -0.049451 0)
(19.4239 -0.0210756 0)
(13.7063 -0.00314961 0)
(13.6632 -0.00129733 0)
(19.3384 -0.0155972 0)
(22.3908 -0.0402197 0)
(22.2737 -0.0393995 0)
(19.2554 -0.0162014 0)
(13.6206 -0.00193371 0)
(13.5902 -0.00027222 0)
(19.1873 -0.0114632 0)
(22.1721 -0.0309535 0)
(22.0729 -0.0309129 0)
(19.1203 -0.0124945 0)
(13.5588 -0.00103679 0)
(13.538 0.000441311 0)
(19.0669 -0.00816327 0)
(21.9899 -0.0234285 0)
(21.9053 -0.0242463 0)
(19.013 -0.00964929 0)
(13.515 -0.00048946 0)
(13.5012 0.000784117 0)
(18.9717 -0.00555434 0)
(21.8383 -0.0177997 0)
(21.7653 -0.0194949 0)
(18.9281 -0.00755112 0)
(13.484 -0.000282036 0)
(13.4745 0.00079006 0)
(18.8957 -0.00390746 0)
(21.7102 -0.0140497 0)
(21.6458 -0.0166456 0)
(18.8591 -0.00638933 0)
(13.4604 -0.000388312 0)
(13.4523 0.00049219 0)
(18.832 -0.00329068 0)
(21.5989 -0.0122422 0)
(21.5404 -0.015825 0)
(18.7993 -0.00628374 0)
(13.4382 -0.000837962 0)
(13.4281 -0.000165183 0)
(18.774 -0.00381117 0)
(21.4978 -0.0125664 0)
(21.4421 -0.0172028 0)
(18.7412 -0.00724906 0)
(13.4099 -0.00160975 0)
(13.397 -0.000791075 0)
(18.7155 -0.00477032 0)
(21.4002 -0.0151892 0)
(21.3338 -0.0195697 0)
(18.6724 -0.0095364 0)
(13.3697 -0.00387683 -9.78017e-20)
(13.3465 -0.00078272 -4.5325e-24)
(18.6453 -0.00934725 0)
(21.287 -0.0222066 0)
(21.2182 -0.0283012 1.36238e-19)
(18.5936 -0.0145603 -1.63151e-19)
(13.3087 -0.00426138 9.91879e-20)
(13.2685 -0.00407212 0)
(18.5403 -0.0156208 1.64473e-19)
(21.1621 -0.0315378 -1.36881e-19)
(21.0777 -0.0428978 1.44185e-18)
(18.4704 -0.0239203 -3.51972e-19)
(13.2119 -0.0103207 0)
(13.1286 -0.0108115 0)
(18.3906 -0.0247547 3.6098e-19)
(20.9994 -0.0428617 -3.02603e-19)
(20.9837 -0.0346364 3.39005e-19)
(18.3565 -0.0172814 -2.05579e-18)
(13.0658 -0.00471907 -1.0091e-18)
(13.135 -0.00244501 7.51182e-19)
(18.4017 -0.00664232 -3.34851e-18)
(21.0591 -0.0403238 1.42289e-18)
(21.0698 -0.0496951 -1.50842e-18)
(18.4151 -0.0178992 2.70594e-18)
(13.1948 0.00991995 -8.13448e-19)
(24.0099 -0.103198 0)
(26.1369 -0.225287 5.62294e-19)
(27.6924 -0.394926 -2.49457e-18)
(28.639 -0.538761 -2.11949e-18)
(29.1946 -0.56005 0)
(30.3223 -0.671257 -5.23498e-19)
(30.93 -0.779768 1.73626e-23)
(31.6675 -0.885434 -6.5467e-20)
(32.1431 -0.982444 6.52051e-20)
(32.6663 -1.07358 0)
(33.0411 -1.1552 1.61936e-20)
(33.442 -1.2311 -1.61095e-20)
(33.7488 -1.29895 0)
(34.0716 -1.36045 0)
(34.3303 -1.41488 0)
(34.6003 -1.46222 0)
(34.8248 -1.50301 0)
(35.0584 -1.53648 0)
(35.2588 -1.56373 -4.95509e-19)
(35.4676 -1.58404 0)
(35.651 -1.59832 0)
(35.8432 -1.60588 0)
(36.0155 -1.60765 0)
(36.1972 -1.60323 0)
(36.3626 -1.59335 0)
(36.5383 -1.57786 0)
(36.7003 -1.55718 0)
(36.8735 -1.53163 0)
(37.0345 -1.50096 0)
(37.2081 -1.46611 0)
(37.3702 -1.42637 4.74992e-19)
(37.5468 -1.38295 -4.83159e-19)
(37.7116 -1.33502 6.71901e-20)
(37.8926 -1.28382 6.62499e-19)
(38.0604 -1.22893 -2.44493e-19)
(38.2446 -1.17143 -4.97601e-19)
(38.4117 -1.11226 1.03079e-18)
(38.5913 -1.05251 -1.32079e-19)
(38.7403 -0.993194 0)
(38.9009 -0.921621 1.99743e-17)
(39.0399 -0.869493 -3.99168e-17)
(39.1648 -0.818931 1.02206e-17)
(39.2895 -0.76541 0)
(39.4088 -0.712726 0)
(39.5183 -0.661038 -3.80706e-19)
(39.6171 -0.609141 0)
(39.7044 -0.555992 5.11403e-20)
(39.7782 -0.500739 -5.17612e-20)
(39.8313 -0.442966 0)
(39.854 -0.381267 4.22425e-19)
(39.8219 -0.317307 -9.08285e-19)
(39.7002 -0.248776 9.00646e-19)
(39.3878 -0.180953 -4.17309e-18)
(38.7063 -0.120438 2.61802e-18)
(36.7709 -0.0672196 -1.42762e-18)
(34.0326 -0.0425809 0)
(25.7631 -0.0382342 2.61611e-19)
(25.5295 -0.00679717 -1.20243e-18)
(33.8572 -0.0401893 -2.40412e-18)
(36.6106 -0.0572762 5.9359e-24)
(36.4678 -0.0496767 0)
(33.6982 -0.0210167 0)
(25.3248 -0.0065747 0)
(25.3569 0.0052899 0)
(33.6537 -0.0077197 -6.77927e-19)
(36.4072 -0.0339393 0)
(36.3828 -0.0208414 0)
(33.6561 -0.00302531 6.55006e-19)
(25.4215 0.00501151 0)
(25.4546 0.00550444 0)
(33.658 0.000240038 6.12319e-19)
(36.3524 -0.0130651 -8.9809e-25)
(36.3115 -0.0090771 0)
(33.64 0.00225174 -7.58514e-20)
(25.4759 0.00654524 2.77342e-19)
(25.4988 0.00701578 9.08424e-24)
(33.6209 0.00453786 0)
(36.269 -0.00524081 0)
(36.2253 -0.00359918 0)
(33.5995 0.00663037 0)
(25.5249 0.00765654 -1.82529e-19)
(25.5577 0.00753024 0)
(33.5818 0.00792324 0)
(36.1856 -0.00156501 0)
(36.1458 -0.000103271 0)
(33.5656 0.00924771 0)
(25.5929 0.00789247 0)
(25.6322 0.00819553 0)
(33.5506 0.0103963 2.98482e-19)
(36.1073 0.000998799 0)
(36.0697 0.00203502 0)
(33.5372 0.0111528 1.42226e-23)
(25.6744 0.00854224 0)
(25.7186 0.00905543 0)
(33.5249 0.0114321 -2.99581e-19)
(36.0328 0.00289645 0)
(35.9963 0.00364032 0)
(33.5132 0.0116608 0)
(25.7637 0.00948664 0)
(25.8111 0.00975255 0)
(33.5022 0.0120462 0)
(35.9595 0.00402383 0)
(35.9227 0.00417254 0)
(33.4907 0.0123755 0)
(25.8595 0.00991491 0)
(25.9091 0.00999437 0)
(33.4794 0.0127015 0)
(35.885 0.0040885 0)
(35.8467 0.00377162 0)
(33.4671 0.0130598 0)
(25.9591 0.0100187 0)
(26.0109 0.0101214 0)
(33.4542 0.0131191 0)
(35.8071 0.00343261 0)
(35.7665 0.00299406 0)
(33.4406 0.0131044 0)
(26.0611 0.0102249 0)
(26.1134 0.0103216 0)
(33.4256 0.0130054 0)
(35.7243 0.00240281 0)
(35.6806 0.001704 0)
(33.4094 0.0128615 0)
(26.1637 0.0103869 0)
(26.2156 0.0104323 0)
(33.3916 0.0126388 0)
(35.6348 0.000868254 0)
(35.5873 -5.46284e-05 0)
(33.3721 0.0123835 0)
(26.2654 0.0104458 0)
(26.3163 0.010426 0)
(33.3507 0.0120639 0)
(35.5374 -0.00110731 0)
(35.4854 -0.00218883 0)
(33.3274 0.0118123 0)
(26.365 0.0103835 0)
(26.4144 0.0102959 0)
(33.3018 0.0114841 2.98467e-19)
(35.4303 -0.00341585 0)
(35.3732 -0.00475445 0)
(33.2741 0.0108016 -2.9899e-19)
(26.4624 0.0103532 0)
(26.5083 0.0102966 0)
(33.244 0.0104217 2.9779e-19)
(35.3134 -0.0060362 0)
(35.2504 -0.00738084 0)
(33.2115 0.0100357 -2.9831e-19)
(26.5547 0.0102423 0)
(26.5997 0.0103849 0)
(33.1764 0.00928748 0)
(35.1847 -0.00871045 0)
(35.1161 -0.00995047 0)
(33.139 0.00879435 0)
(26.6428 0.0104292 0)
(26.6864 0.0105882 0)
(33.0993 0.00843235 0)
(35.0443 -0.0109813 0)
(34.97 -0.0117084 0)
(33.0573 0.00799079 0)
(26.7284 0.0108448 0)
(26.7707 0.0110053 0)
(33.0137 0.00793081 0)
(34.8925 -0.0125155 0)
(34.8128 -0.0130721 0)
(32.9677 0.00810248 0)
(26.8133 0.0112599 0)
(26.8572 0.0116403 0)
(32.9211 0.00856974 0)
(34.7303 -0.0132797 0)
(34.6461 -0.0131054 0)
(32.8734 0.0094738 0)
(26.9032 0.0122251 0)
(26.9534 0.0131075 0)
(32.8262 0.0109541 0)
(34.5605 -0.0118042 0)
(34.4738 -0.00921582 0)
(32.7808 0.0134018 0)
(27.0099 0.014393 0)
(27.0759 0.0163104 0)
(32.7387 0.0168145 0)
(34.3876 -0.00510176 0)
(34.303 0.00151726 0)
(32.7019 0.0217144 0)
(27.1548 0.0192863 0)
(27.2509 0.0239588 0)
(32.6723 0.0285315 0)
(34.2213 0.0117067 0)
(34.1478 0.0262552 0)
(32.6563 0.0373475 0)
(27.3738 0.0313901 0)
(27.5482 0.0436315 0)
(32.6716 0.046939 0)
(34.093 0.0482191 0)
(34.0685 0.096958 2.46862e-19)
(32.7355 0.0735777 0)
(27.8106 0.0777086 0)
(28.1199 0.196889 -1.46322e-18)
(32.8167 0.186163 1.49962e-18)
(34.05 0.216552 0)
(33.9845 0.414369 -4.69741e-23)
(32.8466 0.386178 -2.70835e-18)
(28.386 0.400618 -1.83558e-19)
(28.4971 0.709077 -5.68994e-18)
(32.7493 0.702197 9.61843e-18)
(33.8159 0.691089 -4.20939e-18)
(33.532 0.968824 -7.72066e-18)
(32.5084 1.00155 4.53571e-18)
(28.4377 0.994776 0)
(28.2591 1.29249 1.17852e-17)
(32.1567 1.31194 -9.32786e-18)
(33.1495 1.24409 0)
(32.6952 1.46343 0)
(31.7232 1.54581 0)
(27.9856 1.51233 0)
(27.7495 1.67998 -1.02867e-17)
(31.2864 1.71256 9.56765e-18)
(32.2236 1.63075 7.81587e-18)
(31.7271 1.79455 7.55419e-18)
(30.851 1.8721 -9.46817e-18)
(27.5633 1.84824 1.48612e-18)
(27.3121 2.03439 -2.49823e-17)
(30.3698 2.08146 1.66871e-17)
(31.1725 1.99734 0)
(30.4235 2.05849 9.14189e-17)
(29.7216 2.15844 0)
(26.9612 2.08391 1.9748e-18)
(23.4102 1.60305 -2.56498e-18)
(28.1858 2.00434 4.58457e-18)
(29.5535 2.27945 -4.185e-18)
(29.4498 2.36593 1.35923e-18)
(28.3383 2.52954 0)
(24.596 2.30484 0)
(24.3238 2.35836 -9.23139e-19)
(27.9348 2.61914 -3.73925e-19)
(28.8996 2.52776 -1.81772e-18)
(28.2653 2.61414 1.94381e-17)
(27.4032 2.73178 -2.25736e-17)
(24.2279 2.52283 2.93775e-17)
(23.8791 2.67587 -2.68961e-17)
(26.7806 2.85391 -2.16869e-17)
(27.5657 2.7034 1.74871e-17)
(26.8041 2.72394 -9.08803e-22)
(26.0842 2.88898 2.1234e-17)
(23.4635 2.7605 -6.17415e-19)
(23.0463 2.84826 7.83864e-19)
(25.3779 2.91036 -2.15976e-17)
(26.0113 2.72776 -2.06605e-18)
(25.1005 2.74101 -1.35674e-17)
(24.556 2.96594 -1.82797e-17)
(22.5014 2.98391 2.4584e-17)
(21.7988 3.13215 -4.54118e-17)
(23.5914 3.04953 4.63146e-22)
(24.0334 2.76612 2.54072e-17)
(22.7044 2.62691 7.58429e-22)
(22.3788 2.95483 1.08766e-16)
(20.9401 3.11688 0)
(18.169 2.53827 -4.37986e-17)
(20.9725 2.88535 3.30823e-17)
(21.701 2.98077 0)
(20.8037 2.79432 -2.16992e-17)
(20.1912 3.12124 2.84572e-17)
(18.3687 3.02056 1.04491e-18)
(17.2464 2.98469 0)
(18.8966 2.98319 0)
(19.4501 2.59331 0)
(17.8932 2.25347 -1.55539e-17)
(17.3997 2.74573 4.45136e-17)
(16.0629 2.89768 1.99124e-21)
(14.5536 2.7526 3.34079e-18)
(15.6404 2.41047 -4.69158e-17)
(16.0837 1.77963 -2.04272e-18)
(13.9235 1.23048 0)
(13.6093 2.11653 4.49954e-18)
(12.809 2.71941 -5.16284e-17)
(10.5796 2.27468 -1.40335e-16)
(10.8083 1.48219 5.72658e-17)
(10.9816 0.567138 9.77111e-17)
(9.22273 0.81023 0)
(8.70156 1.4443 0)
(7.5938 1.73868 9.23684e-17)
(5.09657 1.00343 -7.10247e-17)
(5.84438 0.406455 5.45365e-17)
(6.51712 -0.543698 2.1225e-17)
(3.53783 -2.73839 3.83726e-17)
(3.01277 -1.18487 1.74215e-20)
(2.51064 0.0538711 -5.90125e-17)
(-2.85255 -1.65422 7.83755e-17)
(-2.78902 -3.1132 -6.60464e-17)
(-2.19344 -4.84004 1.0062e-16)
(-5.26781 -6.11017 2.64632e-17)
(-6.32919 -4.99611 4.0369e-17)
(-7.0356 -3.95982 -9.15414e-17)
(-13.6236 -8.30804 -1.40741e-16)
(-12.1639 -10.342 -1.18471e-17)
(-10.4384 -12.5264 1.41204e-16)
(-18.7941 -20.5734 0)
(-20.4111 -18.0581 1.525e-16)
(-21.6523 -14.8654 -1.62544e-16)
(-31.5646 -32.5996 -1.74341e-16)
(-26.5648 -34.4907 1.25971e-16)
(-21.3472 -36.7774 -1.31116e-17)
(-20.1771 -66.2047 9.72638e-18)
(-25.1548 -66.1766 1.04687e-16)
(-33.0235 -66.3598 0)
(-1.85434 -98.3995 7.00366e-20)
(8.52695 -92.9647 -1.0058e-17)
(4.5726 -90.8175 -3.569e-18)
(38.5487 -92.2745 -5.07673e-18)
(48.1471 -88.9103 0)
(37.5813 -92.629 7.78699e-17)
(55.535 -70.845 -1.12688e-16)
(65.1623 -73.2264 7.68508e-17)
(60.1109 -78.6728 -1.19908e-16)
(65.2515 -60.463 1.3247e-16)
(65.9482 -55.2546 -1.59596e-16)
(54.9532 -53.9953 2.29454e-16)
(47.6954 -39.9681 0)
(60.5766 -41.9633 4.77159e-18)
(63.0341 -47.2637 -4.02733e-18)
(62.8766 -46.1997 9.96376e-18)
(59.4488 -39.8285 6.0037e-17)
(47.6964 -32.0406 -1.62569e-16)
(44.4667 -27.2772 0)
(56.0273 -33.6061 3.01367e-18)
(60.7229 -38.4551 -8.8262e-18)
(56.8259 -31.542 0)
(50.5186 -28.6488 7.63148e-17)
(39.2716 -23.8148 -9.64976e-17)
(43.1347 -22.8809 3.89886e-20)
(53.3798 -30.1103 8.15929e-17)
(58.4958 -34.748 -1.07385e-16)
(56.2175 -30.3655 7.31213e-17)
(50.6404 -26.7143 -1.20861e-17)
(40.7608 -20.9652 0)
(36.7534 -17.5654 -2.96667e-18)
(46.4299 -23.0897 5.10311e-18)
(52.0766 -26.5244 -2.18254e-17)
(55.0765 -29.1058 -1.06984e-16)
(50.2182 -25.8383 -4.01946e-18)
(40.4928 -20.0973 -7.69901e-17)
(39.0646 -18.8953 -2.03915e-18)
(48.2674 -23.8113 0)
(53.2491 -26.7664 -6.77334e-17)
(50.0719 -23.1447 -4.36132e-18)
(44.2459 -21.8071 8.45289e-17)
(35.1379 -18.008 -9.34029e-17)
(39.9805 -18.8039 2.42455e-18)
(48.2786 -23.8365 -3.98914e-18)
(52.6533 -26.6215 1.06843e-16)
(51.3361 -25.055 0)