/*--------------------------------*- C++ -*----------------------------------*\
| =========                 |                                                 |
| \\      /  F ield         | OpenFOAM: The Open Source CFD Toolbox           |
|  \\    /   O peration     | Version:  v2006                                 |
|   \\  /    A nd           | Website:  www.openfoam.com                      |
|    \\/     M anipulation  |                                                 |
\*---------------------------------------------------------------------------*/
FoamFile
{
    version     2.0;
    format      ascii;
    class       volScalarField;
    location    "0.066";
    object      rho;
}
// * * * * * * * * * * * * * * * * * * * * * * * * * * * * * * * * * * * * * //

dimensions      [1 -3 0 0 0 0 0];


internalField   nonuniform List<scalar> 
9148
(
1.71418
1.71421
1.71418
1.7142
1.7142
1.71424
1.71432
1.71442
1.71454
1.71466
1.71479
1.71492
1.71506
1.71521
1.71537
1.71553
1.71571
1.71589
1.71608
1.71628
1.71649
1.71671
1.71693
1.71716
1.71739
1.71763
1.71787
1.71812
1.71837
1.71862
1.71888
1.71914
1.7194
1.71966
1.71992
1.72018
1.72044
1.72069
1.72095
1.7212
1.72145
1.72169
1.72193
1.72217
1.72239
1.72262
1.72283
1.72304
1.72324
1.72343
1.72362
1.72379
1.72396
1.72412
1.72427
1.7244
1.72453
1.72464
1.72474
1.72483
1.72489
1.72495
1.72499
1.72501
1.72498
1.725
1.72503
1.72509
1.72526
1.72552
1.72564
1.72552
1.72524
1.72552
1.72555
1.72546
1.72538
1.72504
1.72486
1.72525
1.72536
1.72525
1.72512
1.7247
1.72459
1.72502
1.72516
1.72509
1.72493
1.72451
1.72445
1.72487
1.72504
1.725
1.72482
1.72441
1.72438
1.72478
1.72497
1.72494
1.72476
1.72436
1.72435
1.72474
1.72492
1.72492
1.72473
1.72436
1.72437
1.72473
1.72492
1.72493
1.72474
1.7244
1.72442
1.72475
1.72494
1.72496
1.72478
1.72446
1.7245
1.7248
1.72499
1.72502
1.72485
1.72456
1.72461
1.72489
1.72506
1.72511
1.72494
1.72468
1.72474
1.72499
1.72516
1.72523
1.72506
1.72482
1.72489
1.72512
1.72529
1.72536
1.72521
1.72498
1.72507
1.72528
1.72543
1.72552
1.72537
1.72517
1.72526
1.72545
1.7256
1.72569
1.72555
1.72537
1.72546
1.72564
1.72578
1.72588
1.72574
1.72558
1.72568
1.72584
1.72597
1.72608
1.72595
1.7258
1.72592
1.72606
1.72618
1.7263
1.72618
1.72605
1.72618
1.7263
1.72642
1.72655
1.72644
1.72632
1.72646
1.72657
1.72668
1.72682
1.72672
1.72663
1.72678
1.72687
1.72697
1.72713
1.72704
1.72695
1.72712
1.72719
1.72728
1.72746
1.72738
1.72731
1.72748
1.72754
1.72762
1.72781
1.72773
1.72768
1.72786
1.72791
1.72798
1.72817
1.72811
1.72806
1.72825
1.72829
1.72835
1.72855
1.72849
1.72846
1.72865
1.72868
1.72874
1.72894
1.72889
1.72887
1.72908
1.72909
1.72914
1.72936
1.72932
1.72932
1.72955
1.72954
1.72957
1.72981
1.72978
1.7298
1.73006
1.73002
1.73005
1.7303
1.73029
1.73033
1.7306
1.73056
1.73056
1.73085
1.73084
1.73089
1.73118
1.73113
1.73113
1.73143
1.73143
1.73148
1.73179
1.73173
1.73173
1.73204
1.73205
1.7321
1.73243
1.73237
1.73235
1.73268
1.73269
1.73275
1.7331
1.73303
1.73301
1.73334
1.73337
1.73345
1.73383
1.73373
1.73369
1.73405
1.7341
1.7342
1.73462
1.7345
1.73444
1.73482
1.73489
1.73502
1.73547
1.73533
1.73525
1.73566
1.73574
1.73587
1.73635
1.73623
1.73613
1.73653
1.73662
1.73671
1.73731
1.73723
1.73705
1.73718
1.73679
1.7354
1.73472
1.73521
1.73677
1.73556
1.73493
1.73482
1.73482
1.73496
1.73524
1.73538
1.73513
1.73494
1.73511
1.73534
1.73559
1.73566
1.73548
1.73542
1.73567
1.73564
1.73563
1.73546
1.7355
1.7355
1.73566
1.73563
1.73556
1.73532
1.73544
1.73552
1.73561
1.73547
1.73534
1.73512
1.73523
1.7354
1.73537
1.73521
1.73513
1.73503
1.73509
1.73523
1.73524
1.73511
1.73508
1.73511
1.73512
1.7352
1.73523
1.73518
1.7352
1.73525
1.73522
1.73522
1.73521
1.73526
1.73533
1.73541
1.73531
1.7352
1.73523
1.73538
1.73549
1.73552
1.73543
1.73529
1.73535
1.73546
1.73554
1.73553
1.73546
1.7354
1.73538
1.73543
1.73551
1.73548
1.73539
1.73533
1.73528
1.73535
1.73546
1.73546
1.73534
1.73523
1.7352
1.73534
1.73547
1.7355
1.73536
1.73518
1.7352
1.73539
1.73554
1.73559
1.73545
1.73523
1.73527
1.73551
1.73565
1.73573
1.7356
1.73535
1.73542
1.73567
1.7358
1.7359
1.73576
1.73549
1.73558
1.73586
1.73598
1.73607
1.73594
1.73567
1.73575
1.73603
1.73616
1.73625
1.73612
1.73583
1.73591
1.73621
1.73634
1.73643
1.7363
1.73599
1.73606
1.73639
1.73652
1.73661
1.73647
1.73614
1.7362
1.73655
1.73669
1.73678
1.73663
1.73627
1.7363
1.73669
1.73685
1.73692
1.73675
1.73636
1.73634
1.73677
1.73696
1.73698
1.73676
1.73633
1.73627
1.73668
1.73694
1.73704
1.737
1.73689
1.73682
1.73681
1.73684
1.73687
1.73686
1.73684
1.7368
1.73678
1.73674
1.73673
1.73674
1.73679
1.73686
1.73693
1.73701
1.73705
1.73704
1.73702
1.73704
1.73708
1.73709
1.73712
1.73713
1.73717
1.73703
1.73751
1.73712
1.73795
1.73632
1.7384
1.73844
1.7372
1.73688
1.73695
1.7372
1.73774
1.73748
1.73715
1.73705
1.73691
1.73755
1.73706
1.73737
1.73743
1.7372
1.73714
1.73726
1.73772
1.73704
1.73799
1.73683
1.73686
1.73728
1.73733
1.73718
1.73706
1.73696
1.73656
1.73744
1.73673
1.73692
1.7369
1.73683
1.7364
1.73755
1.73653
1.7364
1.73634
1.73667
1.73724
1.73556
1.73625
1.73616
1.73558
1.7374
1.73736
1.73559
1.7371
1.73693
1.73581
1.7372
1.73714
1.73572
1.7371
1.73656
1.73652
1.73686
1.73648
1.73711
1.73609
1.73699
1.73602
1.73694
1.73687
1.73644
1.73675
1.73604
1.7372
1.7365
1.73652
1.73679
1.73634
1.73706
1.73606
1.73688
1.73691
1.73606
1.73707
1.73691
1.73642
1.73688
1.73692
1.7366
1.73672
1.7361
1.7373
1.7367
1.73669
1.7372
1.73636
1.7368
1.73683
1.73687
1.73698
1.73695
1.73688
1.73703
1.7371
1.73711
1.73727
1.73726
1.73719
1.73738
1.73744
1.73744
1.73763
1.73764
1.7376
1.73782
1.73784
1.73783
1.73804
1.73806
1.73804
1.73821
1.73831
1.73829
1.73856
1.7386
1.73832
1.73855
1.73883
1.73874
1.7385
1.73927
1.73871
1.73965
1.73905
1.73911
1.73945
1.73952
1.73954
1.73984
1.73977
1.73965
1.73984
1.73997
1.74006
1.74029
1.74014
1.73998
1.74015
1.74019
1.74107
1.74043
1.74029
1.74006
1.74016
1.74052
1.74094
1.73984
1.73981
1.73964
1.7392
1.73961
1.73998
1.73818
1.73761
1.73654
1.73451
1.73422
1.73416
1.72659
1.72735
1.72952
1.71574
1.7151
1.71261
1.69495
1.70505
1.70636
1.68805
1.68827
1.66897
1.65388
1.67308
1.68114
1.67873
1.67416
1.66714
1.67571
1.68133
1.68477
1.68611
1.68232
1.67769
1.6805
1.68337
1.68589
1.69145
1.68973
1.68729
1.68932
1.69038
1.69191
1.69618
1.69496
1.69333
1.69391
1.69466
1.69601
1.69977
1.69894
1.6974
1.69852
1.69895
1.69994
1.70043
1.69945
1.69884
1.70179
1.70237
1.70294
1.7025
1.70203
1.70249
1.70448
1.70442
1.70501
1.70512
1.70458
1.70451
1.70439
1.70456
1.70512
1.70701
1.70667
1.70628
1.70639
1.70631
1.70657
1.70812
1.70779
1.70777
1.70756
1.70745
1.70772
1.70924
1.70905
1.70884
1.70871
1.70884
1.70913
1.70891
1.7087
1.70874
1.71002
1.70998
1.71021
1.71022
1.70983
1.70879
1.70992
1.71113
1.71086
1.71061
1.71058
1.70873
1.7105
1.71172
1.71144
1.71096
1.71078
1.70994
1.71142
1.71191
1.71191
1.71147
1.71126
1.71104
1.71174
1.71223
1.71231
1.71198
1.7118
1.71168
1.71122
1.71131
1.71164
1.7126
1.71252
1.71186
1.71218
1.7119
1.71189
1.71279
1.71241
1.71257
1.71313
1.71159
1.71179
1.71282
1.71218
1.71328
1.71324
1.71184
1.71206
1.7128
1.71253
1.71293
1.71215
1.71195
1.71213
1.71303
1.71302
1.71294
1.71225
1.71223
1.7124
1.71281
1.71271
1.71243
1.71183
1.71198
1.71218
1.71292
1.71293
1.71259
1.71177
1.71198
1.71219
1.71257
1.7125
1.71207
1.7114
1.71166
1.71187
1.71254
1.71255
1.71212
1.71129
1.71155
1.71178
1.71216
1.71208
1.71158
1.71091
1.7112
1.71142
1.71207
1.71208
1.71165
1.71076
1.71104
1.71126
1.71157
1.7115
1.71088
1.71013
1.71052
1.71075
1.71132
1.71138
1.71105
1.70967
1.71021
1.71064
1.71081
1.71097
1.7102
1.7083
1.7096
1.70997
1.71069
1.71049
1.70874
1.70924
1.71123
1.71091
1.70989
1.70935
1.70757
1.70856
1.71005
1.71003
1.70911
1.7088
1.70799
1.70896
1.70956
1.70953
1.70857
1.70837
1.70798
1.70808
1.70876
1.70886
1.70785
1.70754
1.70706
1.70755
1.70818
1.70826
1.70739
1.70721
1.70682
1.70716
1.70777
1.70781
1.70666
1.7064
1.70587
1.70604
1.70678
1.70688
1.70577
1.70546
1.70491
1.70556
1.70611
1.70626
1.70624
1.70619
1.70532
1.70391
1.7046
1.70488
1.70527
1.70521
1.70452
1.70351
1.70398
1.7042
1.70465
1.70462
1.70402
1.70288
1.70333
1.70352
1.70369
1.70365
1.70303
1.70162
1.70218
1.70244
1.70278
1.70272
1.70199
1.70079
1.70132
1.70162
1.70167
1.70161
1.70103
1.70063
1.70122
1.70152
1.70001
1.69987
1.69982
1.70011
1.70016
1.70027
1.69912
1.699
1.69889
1.69901
1.6995
1.69956
1.69836
1.69811
1.69767
1.69742
1.69829
1.69838
1.697
1.6967
1.69603
1.69646
1.69727
1.69737
1.69591
1.69545
1.69473
1.69469
1.69558
1.69598
1.6958
1.69592
1.69457
1.6923
1.69369
1.69431
1.69452
1.69453
1.69319
1.69149
1.69267
1.69304
1.69311
1.69308
1.69209
1.6905
1.69127
1.69161
1.69166
1.69159
1.69073
1.68879
1.68958
1.69005
1.69003
1.68992
1.68934
1.6886
1.68945
1.68978
1.68785
1.68757
1.68718
1.68753
1.68789
1.68799
1.68648
1.68615
1.6858
1.68591
1.68656
1.68661
1.68499
1.68464
1.68395
1.68415
1.68508
1.68511
1.68349
1.68302
1.68221
1.68237
1.6833
1.68337
1.68141
1.68083
1.67985
1.68026
1.6812
1.68145
1.6812
1.68103
1.67964
1.67762
1.67856
1.67905
1.67886
1.67881
1.67798
1.67586
1.67658
1.67711
1.67681
1.67663
1.67556
1.6733
1.6743
1.67488
1.67517
1.67508
1.67391
1.67181
1.67281
1.67331
1.67304
1.67291
1.67164
1.66918
1.67022
1.67089
1.67065
1.6702
1.66907
1.66797
1.66982
1.67003
1.66743
1.66674
1.66522
1.66609
1.66751
1.66763
1.66562
1.66504
1.66391
1.66384
1.66511
1.66516
1.66284
1.66218
1.6611
1.65969
1.66139
1.66185
1.65946
1.65857
1.65711
1.65866
1.65997
1.65997
1.65761
1.65699
1.65572
1.65492
1.65631
1.65682
1.65602
1.65597
1.65406
1.64954
1.65143
1.65255
1.65197
1.65166
1.64996
1.64731
1.6487
1.64949
1.64936
1.6493
1.64774
1.64486
1.64611
1.64667
1.64557
1.64542
1.64392
1.63963
1.64131
1.64231
1.64122
1.6406
1.63862
1.63592
1.63754
1.63848
1.63862
1.63862
1.63683
1.63366
1.63517
1.63583
1.63459
1.63455
1.63283
1.62792
1.62983
1.63093
1.62907
1.62832
1.62587
1.62267
1.6247
1.62584
1.62601
1.62601
1.62397
1.6203
1.62208
1.62296
1.62107
1.62109
1.61904
1.61291
1.6152
1.61662
1.61412
1.6132
1.61017
1.60667
1.60909
1.61069
1.6102
1.6095
1.60729
1.60614
1.60926
1.60914
1.60395
1.60268
1.59991
1.59661
1.59951
1.60027
1.59549
1.59331
1.58993
1.59248
1.59461
1.59494
1.59235
1.59146
1.58922
1.5834
1.58443
1.5856
1.58307
1.5832
1.5811
1.56904
1.57314
1.57553
1.57465
1.57396
1.57047
1.56638
1.56919
1.57031
1.56885
1.56897
1.56603
1.55733
1.56063
1.56265
1.55476
1.5526
1.54718
1.54145
1.54594
1.54819
1.54828
1.54792
1.54444
1.53838
1.54194
1.54322
1.53652
1.53625
1.53204
1.51401
1.52159
1.5266
1.52203
1.52097
1.51675
1.51327
1.51678
1.52002
1.50768
1.50679
1.50364
1.4876
1.49338
1.4962
1.48646
1.48208
1.47496
1.4786
1.48196
1.48282
1.47717
1.47404
1.46894
1.4496
1.45764
1.46139
1.45028
1.44437
1.43518
1.42833
1.43282
1.43688
1.424
1.42261
1.41517
1.38854
1.40364
1.41023
1.3958
1.38954
1.37921
1.36909
1.37708
1.37992
1.36647
1.35674
1.33677
1.33686
1.34589
1.35038
1.32242
1.30972
1.28734
1.30024
1.31056
1.31819
1.31353
1.29925
1.26773
1.26251
1.29549
1.30768
1.30632
1.29466
1.25957
1.2865
1.31465
1.31892
1.35974
1.35757
1.33645
1.37192
1.38986
1.39478
1.41371
1.40662
1.39015
1.40304
1.41713
1.42538
1.43441
1.42514
1.4126
1.42224
1.43288
1.4424
1.4489
1.4389
1.42967
1.437
1.44468
1.45434
1.45871
1.44908
1.44276
1.44853
1.45382
1.4627
1.46618
1.45759
1.45333
1.45809
1.46175
1.4695
1.47243
1.46506
1.46215
1.46616
1.46864
1.47524
1.47772
1.47164
1.46974
1.47315
1.47473
1.48008
1.48231
1.47749
1.47625
1.47912
1.48018
1.48448
1.4866
1.48267
1.48176
1.48421
1.485
1.48852
1.49053
1.48722
1.48657
1.48873
1.48926
1.49224
1.49413
1.49127
1.49087
1.49279
1.49308
1.49566
1.49749
1.49496
1.49476
1.49649
1.49664
1.4989
1.50066
1.49844
1.49831
1.49986
1.49999
1.50205
1.50374
1.50168
1.50153
1.50294
1.50313
1.50507
1.50668
1.50473
1.50452
1.50579
1.50607
1.50792
1.50942
1.50757
1.50725
1.50844
1.50881
1.51058
1.51199
1.51023
1.50981
1.51093
1.5114
1.51307
1.51436
1.5127
1.51218
1.51323
1.51377
1.51533
1.51659
1.51502
1.51442
1.51542
1.51605
1.51745
1.51864
1.51718
1.51652
1.51747
1.51814
1.51942
1.52057
1.51922
1.51851
1.51942
1.52011
1.52129
1.52235
1.5211
1.52038
1.52124
1.52193
1.52302
1.52403
1.52288
1.52217
1.52298
1.52366
1.52464
1.52556
1.52452
1.52382
1.52458
1.52524
1.52612
1.527
1.52607
1.5254
1.52612
1.52674
1.52753
1.52831
1.52749
1.52686
1.52752
1.52811
1.5288
1.52956
1.52883
1.52824
1.52886
1.52941
1.53003
1.5307
1.53005
1.5295
1.53007
1.53059
1.53114
1.53179
1.53121
1.5307
1.53123
1.53171
1.5322
1.53279
1.53227
1.53179
1.53228
1.53273
1.53317
1.53374
1.53328
1.53283
1.53329
1.53371
1.53409
1.53461
1.53419
1.53378
1.5342
1.53459
1.53494
1.53543
1.53506
1.53467
1.53507
1.53543
1.53574
1.5362
1.53586
1.5355
1.53587
1.5362
1.53648
1.53692
1.53662
1.53628
1.53662
1.53693
1.53719
1.53759
1.53731
1.537
1.53731
1.5376
1.53784
1.53823
1.53797
1.53767
1.53796
1.53824
1.53846
1.53882
1.53857
1.53829
1.53856
1.53883
1.53903
1.53938
1.53915
1.53888
1.53913
1.53938
1.53957
1.53989
1.53967
1.53942
1.53965
1.53989
1.54007
1.54038
1.54017
1.53993
1.54014
1.54038
1.54055
1.54084
1.54063
1.54039
1.54059
1.54082
1.54099
1.54127
1.54107
1.54083
1.54101
1.54124
1.54141
1.54167
1.54147
1.54124
1.5414
1.54163
1.54179
1.54205
1.54185
1.54162
1.54178
1.542
1.54216
1.5424
1.54221
1.54198
1.54212
1.54234
1.5425
1.54273
1.54254
1.54231
1.54245
1.54267
1.54283
1.54305
1.54285
1.54263
1.54275
1.54297
1.54313
1.54335
1.54315
1.54292
1.54304
1.54326
1.54342
1.54362
1.54343
1.5432
1.54331
1.54353
1.54369
1.54389
1.54369
1.54347
1.54357
1.54379
1.54395
1.54413
1.54394
1.54372
1.5438
1.54402
1.54419
1.54437
1.54418
1.54395
1.54404
1.54426
1.54442
1.54459
1.5444
1.54417
1.54425
1.54447
1.54463
1.5448
1.54461
1.54439
1.54446
1.54468
1.54484
1.54499
1.54481
1.54459
1.54465
1.54487
1.54502
1.54518
1.54499
1.54478
1.54484
1.54505
1.54521
1.54536
1.54517
1.54496
1.54501
1.54522
1.54538
1.54553
1.54534
1.54513
1.54518
1.54539
1.54555
1.54569
1.5455
1.54529
1.54533
1.54554
1.5457
1.54584
1.54565
1.54544
1.54549
1.5457
1.54585
1.54599
1.54579
1.54559
1.54562
1.54583
1.54599
1.54612
1.54593
1.54573
1.54576
1.54597
1.54613
1.54625
1.54606
1.54586
1.54588
1.54609
1.54625
1.54638
1.54618
1.54598
1.54601
1.54622
1.54638
1.54649
1.5463
1.5461
1.54612
1.54633
1.54649
1.54661
1.54641
1.54621
1.54623
1.54644
1.5466
1.54671
1.54652
1.54632
1.54633
1.54654
1.54671
1.54681
1.54662
1.54642
1.54644
1.54664
1.5468
1.54691
1.54671
1.54652
1.54653
1.54673
1.5469
1.547
1.5468
1.54661
1.54662
1.54682
1.54699
1.54709
1.54689
1.54669
1.5467
1.54691
1.54708
1.54717
1.54697
1.54678
1.54679
1.54699
1.54716
1.54725
1.54705
1.54686
1.54686
1.54706
1.54724
1.54732
1.54713
1.54693
1.54694
1.54714
1.54731
1.5474
1.5472
1.547
1.54701
1.54721
1.54738
1.54746
1.54727
1.54707
1.54708
1.54727
1.54745
1.54753
1.54733
1.54714
1.54714
1.54734
1.54751
1.54759
1.54739
1.5472
1.5472
1.5474
1.54758
1.54765
1.54745
1.54726
1.54725
1.54745
1.54763
1.5477
1.54751
1.54731
1.54731
1.54751
1.54769
1.54776
1.54756
1.54737
1.54736
1.54756
1.54774
1.54781
1.54761
1.54742
1.54741
1.54761
1.54779
1.54786
1.54765
1.54746
1.54745
1.54765
1.54783
1.5479
1.5477
1.54751
1.5475
1.54769
1.54788
1.54794
1.54773
1.54754
1.54753
1.54773
1.54791
1.54797
1.54777
1.54758
1.54757
1.54776
1.54795
1.54801
1.5478
1.54761
1.54759
1.54779
1.54798
1.54803
1.54783
1.54764
1.54762
1.54782
1.548
1.54806
1.54785
1.54766
1.54764
1.54784
1.54802
1.54808
1.54787
1.54768
1.54766
1.54786
1.54804
1.5481
1.54789
1.5477
1.54767
1.54787
1.54806
1.54811
1.5479
1.54771
1.54769
1.54789
1.54808
1.54813
1.54792
1.54773
1.5477
1.5479
1.54809
1.54815
1.54794
1.54775
1.54773
1.54793
1.54812
1.54818
1.54796
1.54777
1.54775
1.54795
1.54815
1.54825
1.54802
1.54783
1.54781
1.54803
1.54823
1.54835
1.54813
1.54793
1.54794
1.54816
1.54837
1.54854
1.54828
1.54805
1.54811
1.54833
1.5486
1.54925
1.5488
1.54854
1.54943
1.54967
1.55013
1.55017
1.54982
1.5497
1.55066
1.55369
1.55469
1.5546
1.55762
1.56065
1.56128
1.56116
1.56339
1.56516
1.56664
1.56768
1.56866
1.56953
1.57026
1.57081
1.57119
1.57145
1.57162
1.57174
1.57181
1.57186
1.57189
1.57191
1.57191
1.57191
1.5719
1.57188
1.57186
1.57186
1.57184
1.57184
1.57194
1.57199
1.57203
1.5721
1.57217
1.57228
1.5724
1.57256
1.57274
1.57295
1.57318
1.57341
1.57362
1.57377
1.57385
1.5739
1.57398
1.57409
1.57422
1.57436
1.57451
1.57468
1.57486
1.57505
1.57527
1.57551
1.57579
1.57611
1.57648
1.5769
1.57738
1.57793
1.57855
1.57926
1.58006
1.58096
1.58197
1.5831
1.58436
1.58576
1.5873
1.589
1.59087
1.59289
1.59509
1.59746
1.59999
1.60268
1.60552
1.6085
1.61161
1.61482
1.61812
1.62149
1.6249
1.62835
1.6318
1.63523
1.63864
1.64201
1.64532
1.64856
1.65171
1.65478
1.65775
1.66062
1.66339
1.66605
1.66861
1.67105
1.6734
1.67563
1.67777
1.67981
1.68174
1.68359
1.68535
1.68701
1.6886
1.6901
1.69153
1.69289
1.69418
1.6954
1.69655
1.69765
1.69869
1.69968
1.70062
1.7015
1.70235
1.70314
1.7039
1.70462
1.70529
1.70594
1.70654
1.70712
1.70766
1.70817
1.70865
1.70911
1.70954
1.70994
1.71033
1.71068
1.71102
1.71134
1.71163
1.71191
1.71217
1.71241
1.71263
1.71283
1.71302
1.71319
1.71335
1.71348
1.71361
1.71371
1.7138
1.7139
1.71406
1.71417
1.7142
1.71417
1.71426
1.7145
1.71466
1.71475
1.71484
1.71493
1.71503
1.71514
1.71526
1.71539
1.71552
1.71567
1.71583
1.716
1.71618
1.71637
1.71657
1.71678
1.71699
1.71721
1.71744
1.71768
1.71791
1.71816
1.7184
1.71865
1.71891
1.71916
1.71942
1.71968
1.71993
1.72019
1.72045
1.7207
1.72096
1.72121
1.72145
1.72169
1.72193
1.72216
1.72239
1.7226
1.72282
1.72302
1.72322
1.7234
1.72358
1.72375
1.72391
1.72406
1.7242
1.72433
1.72445
1.72456
1.72467
1.72477
1.72487
1.72494
1.72499
1.72509
1.7252
1.72523
1.72524
1.72519
1.72515
1.72512
1.7251
1.72508
1.72508
1.72508
1.72508
1.7251
1.72511
1.72514
1.72517
1.7252
1.72525
1.72529
1.72535
1.72541
1.72547
1.72554
1.72562
1.7257
1.72578
1.72587
1.72596
1.72605
1.72615
1.72625
1.72635
1.72647
1.72658
1.72671
1.72684
1.72697
1.72712
1.72727
1.72743
1.72759
1.72776
1.72794
1.72811
1.72829
1.72848
1.72867
1.72885
1.72905
1.72925
1.72946
1.72967
1.7299
1.73013
1.73038
1.73063
1.7309
1.73118
1.73148
1.73177
1.73208
1.73239
1.73271
1.73303
1.73337
1.73371
1.73405
1.73442
1.73479
1.73518
1.73559
1.73601
1.73642
1.73681
1.73704
1.73708
1.73694
1.73659
1.73645
1.73664
1.73666
1.73596
1.7354
1.73545
1.7352
1.73531
1.73505
1.73511
1.73497
1.73506
1.73508
1.73522
1.73528
1.7354
1.73548
1.73557
1.7356
1.73563
1.73563
1.73562
1.7356
1.73559
1.73559
1.73561
1.73564
1.73568
1.73572
1.73578
1.73585
1.73591
1.73599
1.73607
1.73615
1.73623
1.73632
1.7364
1.73649
1.73657
1.73666
1.73675
1.73683
1.7369
1.73697
1.73702
1.73706
1.737
1.73688
1.73682
1.73695
1.7369
1.73676
1.73673
1.73684
1.73678
1.73664
1.73652
1.73668
1.73673
1.73679
1.73677
1.7367
1.73663
1.73662
1.7367
1.73679
1.7368
1.73672
1.73663
1.73649
1.73629
1.73636
1.73657
1.7367
1.73661
1.73647
1.73641
1.73653
1.73644
1.73631
1.73619
1.73606
1.73626
1.73636
1.73628
1.73618
1.73613
1.73621
1.73614
1.73606
1.73597
1.73591
1.73602
1.73607
1.736
1.73596
1.73592
1.73594
1.73589
1.73589
1.73587
1.73585
1.73585
1.73583
1.73579
1.73583
1.73579
1.73575
1.73572
1.73579
1.73583
1.73582
1.73576
1.7357
1.73569
1.73577
1.73576
1.73568
1.73569
1.73577
1.73583
1.73579
1.73577
1.7357
1.73569
1.73575
1.73574
1.73568
1.73564
1.73567
1.7357
1.73542
1.73567
1.73559
1.73549
1.73548
1.73551
1.73543
1.73529
1.73521
1.73549
1.73573
1.73533
1.73527
1.73511
1.73482
1.73514
1.73508
1.73492
1.7346
1.73582
1.73653
1.73543
1.73509
1.73493
1.73491
1.7361
1.73525
1.73537
1.73594
1.73727
1.7375
1.73753
1.73609
1.73622
1.73719
1.73787
1.73719
1.73723
1.73733
1.73739
1.73716
1.73746
1.73718
1.73705
1.73711
1.73718
1.73711
1.73706
1.73697
1.73691
1.7366
1.73697
1.73703
1.73687
1.73669
1.73659
1.73665
1.73631
1.73617
1.73616
1.7356
1.73595
1.73595
1.73555
1.7355
1.73525
1.73518
1.7348
1.73482
1.735
1.73439
1.73456
1.73445
1.7341
1.73415
1.7339
1.73376
1.73343
1.7335
1.73377
1.73316
1.73325
1.7331
1.73278
1.73287
1.73262
1.73247
1.73216
1.73225
1.73256
1.73198
1.73201
1.73185
1.73156
1.73166
1.73144
1.73127
1.73099
1.7311
1.73142
1.73091
1.7309
1.73073
1.73047
1.73059
1.73041
1.73023
1.73
1.73012
1.73044
1.73
1.72995
1.72978
1.72957
1.72969
1.72953
1.72936
1.72916
1.72928
1.72959
1.7292
1.72914
1.72897
1.72878
1.7289
1.72876
1.7286
1.72841
1.72852
1.72882
1.72845
1.72839
1.72823
1.72805
1.72817
1.72804
1.72789
1.72771
1.72782
1.7281
1.72777
1.7277
1.72755
1.72739
1.7275
1.72739
1.72725
1.7271
1.72721
1.72747
1.72719
1.72711
1.72697
1.72683
1.72694
1.72685
1.72672
1.72659
1.7267
1.72694
1.7267
1.72662
1.72649
1.72637
1.72648
1.7264
1.72628
1.72617
1.72627
1.72649
1.72629
1.7262
1.72608
1.72599
1.72608
1.72602
1.72591
1.72582
1.72591
1.7261
1.72592
1.72585
1.72574
1.72566
1.72574
1.72569
1.72559
1.72552
1.7256
1.72576
1.72562
1.72555
1.72546
1.7254
1.72547
1.72544
1.72535
1.7253
1.72537
1.7255
1.7254
1.72534
1.72527
1.72523
1.72529
1.72527
1.7252
1.72518
1.72523
1.72532
1.72526
1.72521
1.72516
1.72515
1.72519
1.72518
1.72514
1.72514
1.72517
1.72522
1.72518
1.72517
1.72515
1.72516
1.72517
1.72518
1.72518
1.7252
1.72519
1.72515
1.72509
1.72519
1.72526
1.72533
1.7254
1.7255
1.7256
1.72573
1.72587
1.72604
1.72621
1.7264
1.7266
1.72681
1.72704
1.72729
1.72757
1.72786
1.72818
1.72852
1.72888
1.72925
1.72963
1.73003
1.73045
1.73091
1.73139
1.73191
1.73246
1.73303
1.73361
1.73418
1.73476
1.73531
1.73584
1.73631
1.73671
1.73706
1.73736
1.73759
1.73776
1.73773
1.73744
1.73688
1.73598
1.73569
1.73564
1.73576
1.73581
1.73581
1.73579
1.73578
1.7358
1.73584
1.73589
1.73597
1.73609
1.73608
1.73627
1.73647
1.73661
1.7367
1.73678
1.73675
1.73667
1.73659
1.73655
1.73662
1.7367
1.73667
1.7366
1.73651
1.73641
1.73624
1.73623
1.73637
1.73649
1.73656
1.73663
1.73662
1.73655
1.73646
1.73648
1.73656
1.73662
1.73666
1.73659
1.7365
1.73638
1.73624
1.73604
1.73604
1.73606
1.73591
1.73594
1.73583
1.73575
1.73565
1.73577
1.7357
1.73587
1.73585
1.73568
1.73555
1.73556
1.73547
1.73558
1.73569
1.73567
1.73553
1.73553
1.73568
1.7357
1.73554
1.73552
1.73546
1.73544
1.7355
1.73549
1.73582
1.73582
1.73588
1.736
1.73618
1.73638
1.73652
1.73659
1.73667
1.73673
1.7368
1.73673
1.73665
1.73679
1.73684
1.73687
1.7369
1.73684
1.73679
1.73673
1.73663
1.73684
1.73694
1.73693
1.73689
1.73692
1.73694
1.73707
1.73703
1.73709
1.73709
1.73698
1.73703
1.73707
1.73703
1.73706
1.73707
1.73709
1.73693
1.7369
1.73708
1.73705
1.73707
1.73716
1.73716
1.73696
1.73697
1.73694
1.73697
1.73691
1.73687
1.73678
1.73667
1.73646
1.73635
1.73628
1.73627
1.73651
1.73654
1.73648
1.73654
1.73654
1.73662
1.73673
1.73679
1.73685
1.73689
1.73693
1.73689
1.73692
1.73691
1.73698
1.73691
1.7369
1.73699
1.73692
1.73686
1.73684
1.73682
1.73689
1.73692
1.73688
1.73683
1.73681
1.73677
1.73675
1.73675
1.73679
1.73672
1.73671
1.73666
1.73664
1.73668
1.7367
1.73672
1.73669
1.73667
1.73668
1.73668
1.73662
1.73665
1.73667
1.73676
1.73662
1.73664
1.73631
1.73645
1.73588
1.73603
1.73558
1.73572
1.73603
1.73564
1.73554
1.73567
1.7356
1.73563
1.73611
1.73567
1.73623
1.73689
1.73714
1.73667
1.73601
1.73654
1.73697
1.73707
1.73675
1.73702
1.737
1.73668
1.73631
1.73703
1.7367
1.73741
1.7372
1.73694
1.73683
1.73704
1.73686
1.73686
1.73683
1.73677
1.73676
1.73671
1.73671
1.73669
1.73669
1.73671
1.73669
1.73671
1.73673
1.73674
1.73677
1.73678
1.73683
1.73689
1.73699
1.73698
1.73705
1.73721
1.73726
1.73711
1.73741
1.73732
1.73726
1.73755
1.73764
1.73751
1.73759
1.73777
1.73798
1.73785
1.73802
1.73786
1.73817
1.73764
1.73793
1.73788
1.73848
1.73845
1.73878
1.73856
1.73843
1.73825
1.73847
1.73821
1.73866
1.73881
1.73905
1.73894
1.73923
1.73901
1.73917
1.73887
1.73904
1.73891
1.73933
1.73933
1.73961
1.73942
1.7396
1.73998
1.73977
1.73959
1.73939
1.73911
1.73869
1.73808
1.73745
1.73723
1.73679
1.7362
1.73526
1.73658
1.73773
1.73663
1.73841
1.73932
1.7384
1.73941
1.73964
1.7398
1.73918
1.73965
1.73834
1.73789
1.73749
1.73857
1.73866
1.73579
1.73441
1.73569
1.73507
1.73396
1.73521
1.7373
1.73945
1.73393
1.73074
1.73015
1.73218
1.73141
1.73164
1.72913
1.72743
1.72683
1.72553
1.72902
1.71396
1.721
1.72173
1.72772
1.7274
1.73136
1.73265
1.73432
1.7354
1.73385
1.7336
1.73056
1.72656
1.72469
1.72265
1.71817
1.71315
1.70802
1.70064
1.68987
1.69159
1.70048
1.70406
1.69737
1.69273
1.69126
1.69689
1.69558
1.69954
1.69869
1.70155
1.70196
1.70201
1.70407
1.70414
1.70559
1.70608
1.70612
1.70731
1.70731
1.7084
1.70841
1.70922
1.70948
1.70954
1.71005
1.71035
1.71067
1.71083
1.71121
1.71124
1.71164
1.71174
1.71202
1.71216
1.71209
1.71232
1.71229
1.71243
1.71232
1.7125
1.71247
1.71255
1.71246
1.71249
1.71252
1.71247
1.71237
1.71232
1.71227
1.7122
1.71206
1.71198
1.71187
1.71178
1.71161
1.71148
1.71131
1.7112
1.71099
1.7108
1.7107
1.71036
1.71023
1.71018
1.71029
1.71066
1.71084
1.71117
1.71114
1.71137
1.71151
1.71181
1.71176
1.71196
1.71204
1.71231
1.71224
1.71239
1.71242
1.71267
1.71258
1.71267
1.71266
1.71286
1.71272
1.71276
1.71273
1.71285
1.71265
1.71268
1.71257
1.71266
1.71241
1.71226
1.71259
1.7127
1.7128
1.71302
1.71287
1.71289
1.71295
1.71297
1.71287
1.71286
1.71284
1.71289
1.71274
1.71262
1.71243
1.71241
1.71218
1.71199
1.71223
1.71194
1.71159
1.71126
1.71131
1.71086
1.71054
1.71095
1.71056
1.71039
1.70972
1.70967
1.70928
1.7091
1.70886
1.70866
1.7083
1.70799
1.70782
1.70751
1.70715
1.70678
1.70649
1.70604
1.70589
1.70633
1.70676
1.70701
1.70736
1.70757
1.708
1.70826
1.70857
1.70868
1.70912
1.70931
1.70959
1.70963
1.71014
1.70954
1.70903
1.70848
1.70792
1.70723
1.7067
1.70596
1.70609
1.70556
1.70503
1.70475
1.70435
1.70394
1.70354
1.70311
1.70261
1.70224
1.70174
1.70155
1.70089
1.7002
1.69986
1.69937
1.69891
1.69839
1.69788
1.6973
1.69669
1.69605
1.6957
1.69628
1.6969
1.69736
1.69795
1.69846
1.69902
1.69952
1.70004
1.70047
1.70097
1.7014
1.70187
1.70227
1.70273
1.70318
1.70356
1.70396
1.7044
1.70482
1.70524
1.70545
1.70507
1.70499
1.70418
1.70347
1.70433
1.70355
1.70262
1.70181
1.70269
1.70181
1.70091
1.70009
1.69903
1.69808
1.69691
1.69602
1.69577
1.69494
1.69434
1.69364
1.6931
1.69228
1.69164
1.69098
1.69029
1.6898
1.69037
1.68966
1.6889
1.68814
1.68734
1.68661
1.68589
1.68519
1.68437
1.68354
1.68269
1.68181
1.68118
1.67994
1.67912
1.67803
1.67715
1.6762
1.67526
1.67426
1.67338
1.67225
1.67111
1.67028
1.67132
1.67042
1.66893
1.66782
1.66658
1.66559
1.66414
1.66282
1.66159
1.65999
1.65902
1.6575
1.65651
1.65427
1.6527
1.6512
1.64973
1.64803
1.64662
1.64446
1.64258
1.64082
1.6391
1.63734
1.63574
1.6332
1.63089
1.62888
1.62672
1.62473
1.62255
1.61982
1.61665
1.61445
1.6113
1.60987
1.61291
1.61079
1.60648
1.60325
1.6001
1.59665
1.5945
1.59068
1.58557
1.5821
1.57741
1.57483
1.57103
1.56633
1.56167
1.55644
1.5509
1.54776
1.54288
1.53615
1.52841
1.52608
1.51805
1.50789
1.5021
1.49085
1.48677
1.47672
1.47276
1.45501
1.4387
1.43961
1.41797
1.39997
1.40598
1.38224
1.36235
1.3398
1.36025
1.33954
1.33387
1.33494
1.34278
1.37326
1.40389
1.42291
1.43477
1.44438
1.45249
1.4598
1.46555
1.4709
1.47511
1.47953
1.48284
1.48663
1.48923
1.49248
1.49446
1.49724
1.49873
1.50117
1.50236
1.5046
1.50557
1.50763
1.50836
1.51023
1.51078
1.51251
1.51293
1.51457
1.5149
1.5165
1.51674
1.51825
1.51843
1.5199
1.52002
1.52138
1.52148
1.52281
1.52289
1.52411
1.52418
1.52537
1.52546
1.52651
1.52662
1.52764
1.52778
1.52868
1.52883
1.5297
1.52989
1.53063
1.53085
1.5316
1.53182
1.53247
1.5327
1.53337
1.53358
1.53416
1.53438
1.53497
1.53518
1.53569
1.5359
1.53641
1.53662
1.53707
1.53727
1.53772
1.53791
1.5383
1.5385
1.53889
1.53907
1.53942
1.53959
1.53994
1.54011
1.54041
1.54057
1.54088
1.54104
1.5413
1.54144
1.54172
1.54185
1.54209
1.54222
1.54246
1.54258
1.54279
1.5429
1.54312
1.54323
1.54341
1.54352
1.54371
1.54381
1.54398
1.54407
1.54424
1.54433
1.54448
1.54456
1.54472
1.5448
1.54494
1.54501
1.54516
1.54522
1.54535
1.54541
1.54555
1.5456
1.54572
1.54577
1.5459
1.54595
1.54606
1.5461
1.54622
1.54626
1.54637
1.5464
1.54652
1.54655
1.54664
1.54667
1.54678
1.54681
1.5469
1.54692
1.54702
1.54704
1.54713
1.54714
1.54724
1.54725
1.54733
1.54734
1.54744
1.54745
1.54753
1.54753
1.54762
1.54762
1.5477
1.5477
1.54778
1.54779
1.54786
1.54785
1.54794
1.54793
1.548
1.54799
1.54807
1.54807
1.54813
1.54812
1.54819
1.54819
1.54825
1.54823
1.54831
1.54829
1.54835
1.54833
1.5484
1.54839
1.54844
1.54842
1.54848
1.54846
1.54852
1.54849
1.54855
1.54852
1.54857
1.54854
1.5486
1.54857
1.54862
1.54858
1.54864
1.54861
1.54866
1.54862
1.54869
1.54866
1.54872
1.54869
1.54879
1.5488
1.54893
1.54894
1.54926
1.54921
1.54986
1.55066
1.5538
1.55308
1.55448
1.55161
1.55193
1.55312
1.55093
1.5513
1.55241
1.55062
1.55105
1.55214
1.55045
1.5509
1.55194
1.55042
1.55089
1.55197
1.55037
1.55082
1.55184
1.55036
1.55083
1.55192
1.55032
1.55078
1.55177
1.55032
1.55079
1.5519
1.55027
1.55074
1.55172
1.55028
1.55074
1.55187
1.55022
1.55069
1.55168
1.55022
1.55068
1.55182
1.55015
1.55062
1.55162
1.55014
1.55061
1.55176
1.55007
1.55054
1.55155
1.55006
1.55053
1.55169
1.54998
1.55045
1.55148
1.54996
1.55043
1.55161
1.54987
1.55035
1.55139
1.54985
1.55032
1.55152
1.54976
1.55023
1.55129
1.54972
1.5502
1.55142
1.54963
1.55011
1.55119
1.54959
1.55007
1.55131
1.54949
1.54997
1.55107
1.54944
1.54993
1.55119
1.54933
1.54982
1.55095
1.54928
1.54977
1.55106
1.54916
1.54966
1.55081
1.54911
1.54961
1.55092
1.54898
1.54949
1.55067
1.54892
1.54943
1.55077
1.54879
1.5493
1.55051
1.54872
1.54923
1.55061
1.54858
1.5491
1.55035
1.54849
1.54902
1.55044
1.54835
1.54887
1.55017
1.54825
1.54879
1.55025
1.5481
1.54863
1.54997
1.54799
1.54854
1.55005
1.54783
1.54837
1.54976
1.54771
1.54827
1.54982
1.54753
1.54809
1.54953
1.5474
1.54799
1.54958
1.54722
1.54779
1.54928
1.54707
1.54767
1.54932
1.54688
1.54747
1.54901
1.54672
1.54734
1.54904
1.54651
1.54712
1.54872
1.54634
1.54698
1.54874
1.54612
1.54674
1.54839
1.54593
1.54659
1.5484
1.5457
1.54634
1.54804
1.54549
1.54618
1.54804
1.54524
1.54591
1.54764
1.54502
1.54573
1.54763
1.54475
1.54543
1.54719
1.54449
1.54523
1.54718
1.5442
1.54491
1.54669
1.54392
1.54469
1.54667
1.5436
1.54434
1.54613
1.54329
1.5441
1.54608
1.54294
1.54371
1.54549
1.54261
1.54344
1.5454
1.54222
1.54302
1.54476
1.54184
1.5427
1.54462
1.54141
1.54223
1.5439
1.541
1.54188
1.54373
1.5405
1.54133
1.5429
1.54003
1.54093
1.54268
1.53946
1.54029
1.54176
1.53892
1.53982
1.54145
1.53825
1.53908
1.54042
1.53761