/*--------------------------------*- C++ -*----------------------------------*\
| =========                 |                                                 |
| \\      /  F ield         | OpenFOAM: The Open Source CFD Toolbox           |
|  \\    /   O peration     | Version:  v2006                                 |
|   \\  /    A nd           | Website:  www.openfoam.com                      |
|    \\/     M anipulation  |                                                 |
\*---------------------------------------------------------------------------*/
FoamFile
{
    version     2.0;
    format      ascii;
    class       volScalarField;
    location    "0.066";
    object      T;
}
// * * * * * * * * * * * * * * * * * * * * * * * * * * * * * * * * * * * * * //

dimensions      [0 0 0 1 0 0 0];


internalField   nonuniform List<scalar> 
9148
(
298.085
298.085
298.085
298.085
298.086
298.086
298.089
298.094
298.103
298.112
298.122
298.132
298.143
298.154
298.165
298.177
298.19
298.203
298.217
298.232
298.246
298.262
298.278
298.294
298.311
298.328
298.345
298.363
298.381
298.399
298.417
298.435
298.454
298.472
298.491
298.509
298.527
298.546
298.564
298.582
298.599
298.617
298.634
298.65
298.666
298.682
298.697
298.712
298.727
298.74
298.753
298.766
298.778
298.789
298.8
298.81
298.82
298.829
298.837
298.843
298.847
298.848
298.848
298.848
298.848
298.848
298.849
298.851
298.855
298.863
298.872
298.913
298.921
298.872
298.858
298.859
298.875
298.935
298.947
298.879
298.86
298.863
298.885
298.957
298.964
298.891
298.866
298.871
298.898
298.971
298.977
298.904
298.876
298.881
298.91
298.982
298.986
298.916
298.885
298.891
298.921
298.989
298.993
298.927
298.896
298.9
298.932
298.995
298.998
298.938
298.906
298.911
298.942
299.001
299.004
298.948
298.917
298.922
298.952
299.006
299.01
298.958
298.928
298.933
298.962
299.012
299.016
298.969
298.939
298.944
298.973
299.018
299.023
298.979
298.951
298.956
298.984
299.025
299.03
298.991
298.964
298.969
298.995
299.033
299.038
299.002
298.977
298.982
299.007
299.041
299.047
299.015
298.99
298.996
299.019
299.051
299.057
299.027
299.004
299.01
299.032
299.061
299.067
299.041
299.019
299.025
299.046
299.071
299.079
299.055
299.034
299.041
299.061
299.083
299.091
299.07
299.051
299.058
299.076
299.095
299.103
299.086
299.068
299.076
299.092
299.109
299.117
299.103
299.087
299.095
299.109
299.123
299.132
299.12
299.106
299.115
299.128
299.139
299.149
299.139
299.127
299.136
299.148
299.157
299.168
299.16
299.149
299.159
299.169
299.177
299.188
299.183
299.172
299.183
299.192
299.198
299.21
299.206
299.197
299.209
299.217
299.219
299.231
299.23
299.223
299.235
299.241
299.24
299.251
299.254
299.25
299.262
299.265
299.261
299.272
299.279
299.276
299.289
299.29
299.283
299.295
299.304
299.304
299.318
299.317
299.308
299.322
299.333
299.334
299.35
299.348
299.338
299.355
299.366
299.368
299.386
299.384
299.373
299.391
299.403
299.406
299.427
299.423
299.411
299.429
299.443
299.448
299.47
299.464
299.449
299.465
299.483
299.491
299.512
299.503
299.483
299.497
299.519
299.531
299.551
299.538
299.515
299.526
299.55
299.566
299.585
299.57
299.547
299.557
299.579
299.595
299.615
299.601
299.583
299.574
299.588
299.61
299.621
299.694
299.935
300.051
299.968
299.699
299.909
300.016
300.034
300.031
300.006
299.963
299.949
299.995
300.028
300.05
300.012
299.958
300.022
300.058
300.069
300.076
300.081
300.084
300.103
300.094
300.096
300.088
300.093
300.108
300.132
300.11
300.095
300.092
300.116
300.14
300.159
300.141
300.113
300.123
300.15
300.164
300.172
300.162
300.138
300.144
300.165
300.17
300.172
300.17
300.157
300.161
300.17
300.167
300.162
300.168
300.168
300.171
300.162
300.151
300.136
300.153
300.172
300.162
300.137
300.119
300.107
300.122
300.146
300.128
300.11
300.096
300.088
300.101
300.111
300.105
300.096
300.082
300.077
300.093
300.103
300.102
300.089
300.07
300.062
300.082
300.101
300.098
300.074
300.051
300.04
300.064
300.094
300.086
300.052
300.028
300.015
300.04
300.078
300.068
300.027
300.003
299.988
300.012
300.055
300.045
300.001
299.978
299.967
299.99
300.037
300.028
299.98
299.959
299.952
299.974
300.022
300.019
299.97
299.948
299.945
299.967
300.018
300.019
299.968
299.945
299.946
299.969
300.022
300.028
299.972
299.949
299.952
299.976
300.034
300.043
299.983
299.957
299.961
299.987
300.05
300.06
299.993
299.965
299.966
299.996
300.064
300.077
300.002
299.969
299.971
300.01
300.084
300.093
300.022
299.977
299.957
299.964
299.98
299.99
299.99
299.982
299.977
299.978
299.984
299.992
299.999
300.011
300.02
300.027
300.03
300.029
300.026
300.02
300.013
300.003
299.994
299.985
299.973
299.962
299.962
299.96
299.954
299.975
299.894
299.959
299.811
300.101
299.732
299.724
299.937
299.992
299.976
299.933
299.84
299.884
299.94
299.957
299.974
299.865
299.949
299.898
299.889
299.928
299.931
299.91
299.831
299.949
299.788
299.986
299.964
299.892
299.885
299.903
299.924
299.941
299.999
299.849
299.969
299.934
299.938
299.951
300.017
299.822
299.996
300.013
300.024
299.968
299.855
300.141
300.025
300.03
300.126
299.816
299.811
300.111
299.856
299.874
300.063
299.827
299.826
300.065
299.832
299.915
299.917
299.862
299.915
299.811
299.983
299.822
299.985
299.831
299.835
299.905
299.856
299.969
299.773
299.89
299.883
299.84
299.913
299.788
299.958
299.818
299.812
299.953
299.782
299.81
299.892
299.814
299.808
299.86
299.843
299.945
299.741
299.844
299.845
299.759
299.898
299.827
299.825
299.821
299.817
299.819
299.829
299.828
299.818
299.818
299.818
299.818
299.829
299.828
299.82
299.82
299.823
299.822
299.828
299.83
299.827
299.828
299.832
299.831
299.836
299.848
299.833
299.835
299.836
299.832
299.875
299.884
299.835
299.847
299.94
299.803
299.91
299.798
299.894
299.874
299.862
299.862
299.867
299.865
299.869
299.872
299.876
299.873
299.868
299.862
299.876
299.878
299.892
299.903
299.761
299.873
299.87
299.872
299.82
299.81
299.795
299.826
299.802
299.791
299.689
299.687
299.661
299.53
299.516
299.583
299.258
299.285
299.399
299.07
299.025
298.781
298.54
298.357
298.57
297.33
297.55
297.86
297.213
296.956
297.126
298.077
297.496
297.547
297.663
297.83
298.235
298.432
297.919
297.755
298.135
298.329
298.615
298.728
298.555
298.393
298.417
298.618
298.886
298.93
298.805
298.641
298.592
298.755
298.966
299.043
298.933
298.76
298.689
298.806
299.028
299.032
298.972
298.845
298.848
298.982
299.081
299.041
298.963
298.864
298.985
299.048
298.98
298.979
299.007
298.897
298.949
299.033
299.047
299.111
299.071
298.982
298.949
299.018
299.073
299.058
299.055
299.013
298.969
299.042
299.039
299.06
299.06
299.01
298.959
299.011
299.043
299.069
299.033
298.978
299.005
299.042
299.055
299.013
299.032
298.973
298.928
299.012
299.214
299.121
298.926
298.948
298.933
298.949
299.277
299.128
298.913
298.935
298.951
298.986
299.142
299.041
298.951
298.925
298.94
298.988
299.047
299.018
298.937
298.905
298.924
298.972
299.018
299.031
298.989
298.925
298.882
298.915
299.027
298.908
298.931
298.933
298.858
298.936
298.926
298.715
298.96
298.934
298.838
298.965
298.789
298.717
298.931
298.884
298.812
298.879
298.813
298.829
298.858
298.827
298.763
298.797
298.825
298.82
298.803
298.765
298.724
298.758
298.801
298.823
298.781
298.74
298.687
298.717
298.791
298.792
298.739
298.695
298.653
298.684
298.759
298.772
298.714
298.671
298.614
298.646
298.733
298.731
298.67
298.624
298.572
298.606
298.692
298.699
298.634
298.591
298.528
298.56
298.648
298.647
298.581
298.536
298.481
298.51
298.617
298.621
298.545
298.502
298.452
298.478
298.542
298.626
298.52
298.432
298.396
298.395
298.526
298.687
298.463
298.398
298.299
298.361
298.658
298.554
298.2
298.222
298.222
298.321
298.645
298.48
298.221
298.202
298.234
298.296
298.451
298.34
298.223
298.192
298.209
298.258
298.351
298.291
298.168
298.127
298.146
298.198
298.285
298.228
298.12
298.082
298.099
298.148
298.245
298.168
298.051
298.012
298.034
298.08
298.182
298.122
297.996
297.959
297.987
298.041
298.142
298.078
297.973
297.921
297.845
297.882
298.034
298.04
297.908
297.86
297.776
297.814
297.937
297.934
297.839
297.796
297.707
297.746
297.861
297.87
297.769
297.723
297.64
297.676
297.791
297.8
297.697
297.654
297.566
297.603
297.732
297.747
297.641
297.582
297.538
297.564
297.67
297.635
297.532
297.46
297.477
297.497
297.513
297.453
297.447
297.401
297.422
297.448
297.481
297.449
297.357
297.313
297.323
297.379
297.48
297.427
297.275
297.234
297.253
297.308
297.438
297.338
297.187
297.14
297.159
297.233
297.36
297.321
297.171
297.091
297.001
297.01
297.246
297.326
297.077
296.971
296.885
296.918
297.163
297.183
296.969
296.901
296.81
296.846
297.025
297.035
296.885
296.819
296.725
296.769
296.927
296.943
296.809
296.735
296.676
296.709
296.811
296.796
296.653
296.572
296.592
296.64
296.72
296.594
296.53
296.48
296.481
296.533
296.598
296.536
296.415
296.373
296.38
296.437
296.56
296.479
296.308
296.264
296.259
296.345
296.5
296.371
296.198
296.149
296.16
296.236
296.388
296.29
296.122
296.071
295.948
296.006
296.236
296.222
296.037
295.95
295.85
295.897
296.045
296.05
295.916
295.827
295.716
295.772
295.951
295.967
295.8
295.717
295.579
295.633
295.844
295.872
295.682
295.585
295.459
295.516
295.743
295.747
295.564
295.456
295.344
295.427
295.611
295.539
295.25
295.202
295.208
295.3
295.548
295.367
295.12
295.059
295.057
295.174
295.392
295.212
294.98
294.925
294.888
295.001
295.211
295.067
294.808
294.728
294.739
294.856
295.085
294.87
294.627
294.573
294.581
294.691
294.915
294.783
294.554
294.455
294.24
294.278
294.598
294.59
294.328
294.202
294.054
294.13
294.398
294.418
294.176
294.042
293.861
293.926
294.202
294.215
293.958
293.836
293.618
293.69
293.955
293.936
293.679
293.563
293.359
293.455
293.733
293.756
293.494
293.363
293.16
293.217
293.537
293.546
293.261
293.128
292.899
292.966
293.286
293.265
292.959
292.82
292.576
292.677
293.024
293.032
292.723
292.581
292.351
292.41
292.774
292.802
292.467
292.291
292.037
292.102
292.489
292.413
292.081
291.926
291.657
291.764
292.187
292.212
291.841
291.626
291.476
291.593
291.992
291.678
291.19
291.147
291.022
291.171
291.663
291.129
290.729
290.649
290.579
290.758
291.116
290.787
290.444
290.335
290.077
290.321
290.769
290.537
290.264
290.002
289.554
289.606
290.03
289.894
289.556
289.482
289.078
289.189
289.711
289.699
289.228
289.061
288.512
288.585
289.139
289.104
288.557
288.278
287.7
287.766
288.356
288.396
287.85
287.709
287.232
287.35
287.936
287.924
287.284
287.069
286.326
286.349
287.05
286.626
286.154
285.973
285.737
285.811
286.31
286.216
285.616
285.045
285.086
285.257
286.006
284.699
284.098
284.009
283.794
283.956
284.592
283.811
283.331
283.253
282.523
282.909
283.597
282.062
281.538
281.766
281.023
281.272
281.933
281.139
280.802
280.497
279.567
279.315
280.181
279.234
278.455
278.707
277.669
277.943
278.85
276.906
276.518
277.036
275.934
275.757
276.625
274.462
274.3
274.723
274.15
274.142
275.262
273.783
273.583
273.913
273.874
273.532
274.374
275.872
274.346
274.378
276.011
276.771
279.53
282.491
279.039
278.549
281.539
282.754
286.595
288.622
285.139
283.733
285.188
286.829
290.042
290.706
287.926
286.164
287.15
289.069
291.553
291.965
289.845
287.906
288.718
290.729
292.565
292.78
291.249
289.312
289.986
291.902
293.156
293.287
292.232
290.459
291.02
292.719
293.559
293.657
292.929
291.39
291.855
293.304
293.873
293.941
293.451
292.146
292.533
293.722
294.088
294.128
293.817
292.762
293.067
294.004
294.237
294.272
294.064
293.219
293.441
294.2
294.371
294.397
294.243
293.55
293.715
294.351
294.47
294.484
294.382
293.796
293.919
294.466
294.535
294.54
294.484
293.978
294.062
294.542
294.573
294.572
294.542
294.097
294.152
294.574
294.592
294.584
294.559
294.153
294.183
294.576
294.598
294.587
294.55
294.167
294.186
294.555
294.592
294.58
294.524
294.158
294.169
294.519
294.576
294.557
294.482
294.134
294.14
294.472
294.55
294.523
294.429
294.1
294.102
294.416
294.514
294.482
294.374
294.067
294.06
294.357
294.471
294.432
294.308
294.031
294.016
294.292
294.418
294.375
294.242
293.989
293.971
294.226
294.359
294.312
294.176
293.942
293.922
294.158
294.294
294.245
294.108
293.894
293.875
294.091
294.227
294.176
294.04
293.847
293.828
294.024
294.157
294.106
293.975
293.801
293.786
293.96
294.087
294.036
293.911
293.755
293.743
293.897
294.017
293.968
293.851
293.713
293.702
293.838
293.951
293.903
293.792
293.669
293.66
293.781
293.886
293.841
293.737
293.629
293.62
293.727
293.825
293.781
293.685
293.588
293.58
293.676
293.767
293.725
293.636
293.549
293.542
293.627
293.712
293.672
293.588
293.511
293.504
293.58
293.659
293.621
293.544
293.474
293.467
293.536
293.609
293.573
293.5
293.437
293.431
293.494
293.562
293.527
293.46
293.403
293.397
293.453
293.517
293.483
293.421
293.369
293.363
293.415
293.474
293.443
293.384
293.335
293.33
293.378
293.434
293.404
293.348
293.303
293.298
293.343
293.395
293.368
293.315
293.273
293.267
293.31
293.36
293.333
293.282
293.243
293.237
293.278
293.325
293.301
293.252
293.214
293.209
293.248
293.294
293.27
293.222
293.186
293.181
293.219
293.263
293.241
293.195
293.159
293.155
293.191
293.235
293.214
293.168
293.134
293.129
293.165
293.208
293.188
293.143
293.109
293.104
293.14
293.182
293.163
293.118
293.085
293.08
293.115
293.158
293.139
293.095
293.061
293.057
293.092
293.134
293.116
293.072
293.039
293.034
293.069
293.111
293.094
293.05
293.017
293.013
293.048
293.09
293.073
293.029
292.996
292.992
293.026
293.069
293.053
293.009
292.975
292.972
293.006
293.048
293.033
292.989
292.956
292.952
292.986
293.028
293.014
292.97
292.937
292.933
292.967
293.009
292.995
292.951
292.918
292.915
292.949
292.99
292.977
292.933
292.9
292.897
292.931
292.972
292.959
292.916
292.883
292.88
292.914
292.954
292.941
292.899
292.866
292.863
292.897
292.937
292.924
292.882
292.849
292.847
292.881
292.92
292.908
292.866
292.833
292.831
292.865
292.904
292.892
292.85
292.817
292.815
292.849
292.888
292.876
292.834
292.802
292.799
292.834
292.872
292.86
292.819
292.787
292.784
292.819
292.857
292.846
292.804
292.772
292.77
292.804
292.842
292.831
292.79
292.757
292.755
292.79
292.827
292.816
292.775
292.743
292.741
292.776
292.813
292.802
292.761
292.729
292.727
292.762
292.799
292.788
292.748
292.715
292.714
292.749
292.785
292.774
292.734
292.701
292.7
292.735
292.772
292.761
292.721
292.687
292.687
292.722
292.759
292.748
292.708
292.675
292.673
292.709
292.746
292.735
292.695
292.661
292.662
292.697
292.733
292.722
292.682
292.649
292.648
292.684
292.72
292.71
292.67
292.636
292.636
292.672
292.708
292.697
292.658
292.623
292.623
292.659
292.695
292.685
292.645
292.611
292.612
292.647
292.683
292.673
292.633
292.599
292.599
292.635
292.671
292.661
292.622
292.586
292.588
292.624
292.659
292.649
292.61
292.575
292.575
292.612
292.648
292.637
292.598
292.563
292.565
292.601
292.636
292.626
292.587
292.551
292.552
292.589
292.624
292.614
292.575
292.539
292.542
292.578
292.613
292.603
292.564
292.528
292.529
292.566
292.601
292.591
292.553
292.517
292.519
292.555
292.59
292.58
292.541
292.505
292.507
292.544
292.579
292.569
292.53
292.494
292.497
292.533
292.568
292.557
292.519
292.482
292.484
292.521
292.556
292.546
292.508
292.471
292.474
292.51
292.545
292.535
292.496
292.46
292.461
292.499
292.534
292.523
292.485
292.448
292.451
292.487
292.522
292.512
292.473
292.436
292.438
292.476
292.511
292.501
292.462
292.425
292.428
292.465
292.5
292.489
292.451
292.414
292.415
292.453
292.489
292.478
292.44
292.402
292.406
292.443
292.478
292.468
292.429
292.391
292.394
292.432
292.467
292.457
292.419
292.381
292.383
292.422
292.456
292.448
292.409
292.37
292.372
292.412
292.447
292.44
292.4
292.361
292.362
292.403
292.439
292.434
292.392
292.352
292.355
292.395
292.433
292.428
292.384
292.344
292.341
292.385
292.426
292.419
292.378
292.326
292.273
292.355
292.399
292.36
292.325
292.243
292.244
292.31
292.331
292.151
291.59
291.313
291.225
290.789
290.41
290.14
290.02
289.733
289.552
289.221
288.948
288.726
288.54
288.393
288.285
288.21
288.16
288.128
288.106
288.091
288.081
288.074
288.069
288.065
288.062
288.06
288.059
288.058
288.057
288.057
288.056
288.056
288.056
288.055
288.054
288.054
288.053
288.052
288.051
288.05
288.05
288.049
288.049
288.048
288.048
288.047
288.046
288.044
288.043
288.044
288.048
288.055
288.064
288.077
288.092
288.109
288.13
288.154
288.18
288.211
288.245
288.284
288.328
288.376
288.431
288.492
288.56
288.636
288.72
288.812
288.915
289.027
289.15
289.285
289.431
289.589
289.758
289.94
290.132
290.336
290.549
290.772
291.003
291.24
291.482
291.729
291.977
292.227
292.476
292.723
292.967
293.207
293.442
293.672
293.895
294.111
294.32
294.521
294.714
294.9
295.078
295.248
295.41
295.565
295.712
295.852
295.985
296.112
296.232
296.346
296.454
296.556
296.653
296.745
296.832
296.914
296.992
297.066
297.136
297.201
297.264
297.323
297.378
297.431
297.481
297.528
297.572
297.614
297.653
297.69
297.725
297.758
297.788
297.817
297.844
297.869
297.893
297.914
297.935
297.954
297.971
297.987
298.002
298.015
298.028
298.039
298.049
298.057
298.064
298.071
298.076
298.08
298.083
298.085
298.085
298.085
298.085
298.085
298.086
298.088
298.092
298.098
298.106
298.115
298.125
298.136
298.147
298.158
298.171
298.184
298.197
298.212
298.226
298.242
298.257
298.273
298.29
298.307
298.324
298.342
298.359
298.378
298.396
298.414
298.433
298.452
298.47
298.489
298.508
298.527
298.545
298.563
298.582
298.599
298.617
298.634
298.651
298.667
298.683
298.699
298.714
298.729
298.743
298.756
298.769
298.781
298.793
298.804
298.815
298.824
298.833
298.84
298.845
298.848
298.849
298.849
298.849
298.849
298.85
298.853
298.855
298.857
298.86
298.863
298.867
298.871
298.875
298.879
298.883
298.888
298.893
298.898
298.903
298.909
298.915
298.921
298.927
298.933
298.94
298.947
298.954
298.961
298.968
298.975
298.983
298.991
298.999
299.007
299.016
299.025
299.034
299.043
299.053
299.063
299.073
299.084
299.094
299.106
299.117
299.129
299.141
299.154
299.167
299.18
299.194
299.208
299.222
299.236
299.25
299.266
299.28
299.296
299.312
299.329
299.345
299.364
299.383
299.403
299.424
299.446
299.468
299.491
299.513
299.535
299.556
299.575
299.594
299.609
299.622
299.629
299.628
299.635
299.664
299.73
299.78
299.817
299.887
300.049
300.113
300.126
300.146
300.15
300.168
300.167
300.175
300.169
300.17
300.162
300.157
300.14
300.125
300.106
300.094
300.082
300.071
300.063
300.056
300.048
300.038
300.027
300.015
300.004
299.992
299.98
299.968
299.959
299.949
299.942
299.937
299.934
299.932
299.933
299.934
299.937
299.941
299.945
299.949
299.953
299.955
299.956
299.956
299.963
299.981
299.985
299.966
299.965
299.984
299.978
299.961
299.959
299.976
300.001
299.998
299.998
299.993
299.995
300.001
300.005
300.004
299.999
299.99
299.988
299.997
300.002
300.009
300.011
299.997
299.97
299.953
299.95
299.969
299.962
299.945
299.942
299.96
299.988
299.977
299.954
299.939
299.938
299.952
299.949
299.938
299.939
299.948
299.967
299.96
299.949
299.942
299.946
299.95
299.954
299.953
299.96
299.957
299.956
299.96
299.965
299.97
299.979
299.969
299.981
299.99
299.999
299.986
299.971
299.987
300
300.012
300.021
300.005
300.019
300.032
300.04
300.025
300.005
300.033
300.038
300.05
300.06
300.05
300.065
300.073
300.088
300.083
300.067
300.126
300.098
300.103
300.124
300.127
300.137
300.139
300.158
300.161
300.15
300.13
300.156
300.16
300.167
300.174
300.157
300.165
300.172
300.176
300.035
299.866
300.148
300.165
300.173
300.145
300.065
300.163
300.14
299.976
299.746
299.693
299.795
300.052
299.958
299.771
299.714
299.804
299.748
299.712
299.668
299.636
299.688
299.721
299.692
299.665
299.649
299.66
299.641
299.633
299.606
299.585
299.626
299.633
299.628
299.618
299.611
299.626
299.614
299.598
299.565
299.541
299.588
299.603
299.585
299.567
299.553
299.568
299.546
299.529
299.509
299.471
299.511
299.525
299.502
299.486
299.466
299.48
299.456
299.442
299.429
299.387
299.422
299.435
299.412
299.399
299.38
299.392
299.371
299.358
299.347
299.309
299.34
299.352
299.333
299.321
299.304
299.316
299.298
299.286
299.274
299.241
299.27
299.282
299.266
299.253
299.238
299.251
299.235
299.222
299.21
299.181
299.208
299.221
299.206
299.193
299.179
299.192
299.178
299.165
299.153
299.127
299.151
299.164
299.15
299.138
299.125
299.137
299.125
299.112
299.102
299.077
299.1
299.112
299.1
299.088
299.076
299.089
299.077
299.065
299.054
299.032
299.054
299.066
299.055
299.043
299.032
299.045
299.035
299.023
299.012
298.993
299.013
299.025
299.015
299.004
298.994
299.006
298.998
298.986
298.976
298.96
298.977
298.989
298.981
298.97
298.962
298.973
298.965
298.955
298.945
298.932
298.947
298.958
298.951
298.94
298.933
298.943
298.937
298.927
298.919
298.907
298.92
298.93
298.924
298.915
298.908
298.917
298.912
298.903
298.897
298.887
298.897
298.905
298.9
298.892
298.887
298.895
298.89
298.883
298.878
298.871
298.878
298.885
298.881
298.875
298.871
298.876
298.872
298.867
298.864
298.859
298.864
298.869
298.865
298.861
298.859
298.862
298.859
298.857
298.855
298.852
298.855
298.857
298.855
298.853
298.851
298.853
298.851
298.85
298.85
298.85
298.852
298.854
298.858
298.862
298.867
298.874
298.882
298.891
298.901
298.912
298.924
298.937
298.951
298.966
298.982
299
299.02
299.041
299.063
299.087
299.111
299.136
299.163
299.191
299.22
299.252
299.285
299.321
299.359
299.398
299.436
299.471
299.502
299.526
299.547
299.568
299.595
299.624
299.648
299.666
299.698
299.758
299.861
300.032
300.107
300.083
300.03
299.996
299.975
299.964
299.96
299.959
299.964
299.977
299.993
300.006
300
300.008
300.01
300.004
299.999
299.99
299.997
300.004
300.008
300.015
300.012
300.006
300.014
300.019
300.021
300.017
300.008
300.005
300.021
300.027
300.028
300.025
300.033
300.036
300.034
300.036
300.04
300.039
300.042
300.042
300.037
300.023
300.003
299.991
299.992
299.996
299.985
299.988
299.976
299.969
299.977
299.978
299.984
299.985
299.987
299.987
299.991
299.988
299.992
299.978
299.969
299.968
299.98
299.985
299.969
299.979
300
300.002
299.999
299.995
299.995
299.994
299.965
299.964
299.965
299.969
299.976
299.987
300.009
300.03
300.038
300.04
300.035
300.034
300.025
300.011
300.024
300.028
300.019
300.017
300.006
299.979
299.955
299.938
299.942
299.964
299.988
299.999
300.002
299.973
299.984
299.97
299.96
299.982
299.967
299.959
299.959
299.957
299.954
299.955
299.981
299.979
299.955
299.951
299.948
299.936
299.928
299.962
299.967
299.961
299.939
299.929
299.919
299.928
299.921
299.941
299.928
299.918
299.913
299.877
299.879
299.889
299.894
299.905
299.912
299.9
299.91
299.911
299.913
299.921
299.932
299.939
299.944
299.946
299.958
299.962
299.963
299.952
299.948
299.948
299.946
299.927
299.908
299.904
299.901
299.903
299.9
299.891
299.89
299.896
299.886
299.888
299.891
299.88
299.877
299.88
299.877
299.873
299.869
299.869
299.863
299.871
299.861
299.854
299.846
299.869
299.872
299.916
299.926
299.97
299.97
299.996
299.988
299.943
299.997
300.018
300.006
300.049
300.017
299.943
300.051
299.962
299.802
299.698
299.81
299.936
299.835
299.714
299.631
299.58
299.646
299.752
299.871
299.943
299.913
299.935
299.894
299.884
299.879
299.872
299.846
299.845
299.831
299.832
299.837
299.838
299.845
299.847
299.853
299.856
299.851
299.86
299.847
299.842
299.838
299.834
299.832
299.826
299.822
299.82
299.828
299.83
299.83
299.822
299.821
299.825
299.833
299.851
299.859
299.841
299.836
299.827
299.832
299.836
299.845
299.85
299.869
299.879
299.899
299.892
299.879
299.883
299.884
299.875
299.871
299.863
299.856
299.846
299.841
299.852
299.866
299.859
299.839
299.869
299.872
299.879
299.882
299.883
299.883
299.884
299.882
299.879
299.876
299.882
299.879
299.87
299.871
299.869
299.867
299.844
299.845
299.833
299.711
299.597
299.517
299.429
299.479
299.607
299.865
299.79
299.717
299.857
299.829
299.828
299.828
299.748
299.73
299.698
299.667
299.461
299.494
299.506
299.584
299.454
299.539
299.469
299.301
299.395
299.596
299.716
299.065
299.051
299.131
299.345
299.29
299.114
299.15
298.845
298.781
298.407
298.412
298.182
298.348
298.72
298.77
298.978
299.112
299.318
299.421
299.45
299.336
299.264
298.988
298.678
298.701
298.409
298.429
298.105
297.477
297.48
297.501
297.621
297.662
297.777
297.786
298
298.309
298.228
298.52
298.395
298.658
298.556
298.635
298.824
298.709
298.862
298.779
298.827
298.95
298.864
298.971
298.862
298.959
298.868
298.914
298.974
298.916
298.939
298.898
298.934
298.883
298.932
298.862
298.907
298.835
298.853
298.888
298.83
298.869
298.805
298.848
298.777
298.806
298.743
298.775
298.717
298.726
298.674
298.705
298.645
298.661
298.602
298.631
298.567
298.583
298.518
298.545
298.481
298.496
298.427
298.449
298.392
298.388
298.348
298.338
298.297
298.276
298.23
298.298
298.266
298.351
298.325
298.394
298.36
298.441
298.414
298.486
298.449
298.524
298.495
298.566
298.525
298.594
298.567
298.635
298.597
298.661
298.635
298.697
298.662
298.726
298.694
298.76
298.722
298.781
298.759
298.674
298.56
298.593
298.51
298.654
298.616
298.544
298.46
298.561
298.488
298.4
298.536
298.492
298.42
298.337
298.417
298.352
298.262
298.388
298.332
298.273
298.185
298.241
298.192
298.103
298.213
298.149
298.174
298.254
298.228
298.195
298.21
298.14
298.143
298.079
298.095
298.019
298.034
297.96
297.968
297.902
297.922
297.869
297.822
297.802
297.88
297.851
297.944
297.92
297.993
297.962
298.059
298.029
298.103
298.064
298.164
298.117
298.014
298.012
297.929
297.909
297.822
297.79
297.715
297.73
297.771
297.794
297.704
297.724
297.642
297.654
297.566
297.58
297.501
297.518
297.433
297.366
297.399
297.305
297.324
297.237
297.241
297.148
297.148
297.084
297.085
297.008
296.998
296.996
297.09
297.08
297.16
297.16
297.234
297.225
297.296
297.295
297.375
297.43
297.433
297.496
297.498
297.562
297.561
297.629
297.624
297.682
297.67
297.618
297.62
297.571
297.496
297.56
297.493
297.447
297.354
297.435
297.364
297.301
297.222
297.174
297.064
297.012
296.905
296.909
296.927
296.908
296.823
296.812
296.741
296.737
296.64
296.639
296.562
296.571
296.502
296.47
296.467
296.391
296.385
296.284
296.264
296.177
296.159
296.054
296.033
295.953
295.864
295.835
295.742
295.717
295.605
295.583
295.493
295.456
295.347
295.328
295.216
295.254
295.139
295.105
295.06
294.976
294.921
294.797
294.734
294.613
294.597
294.448
294.443
294.237
294.121
294.053
293.919
293.87
293.715
293.619
293.475
293.367
293.255
293.164
293.034
292.905
292.751
292.615
292.479
292.345
292.218
292.077
291.848
291.688
291.528
291.461
291.207
291.358
291.224
291.024
290.784
290.618
290.325
290.181
289.958
289.707
289.461
289.083
289.033
288.65
288.49
287.865
287.854
287.253
287.263
286.555
286.567
285.751
285.756
285.174
284.255
284.332
283.242
283.366
282.051
281.974
281.051
280.213
279.837
278.937
277.703
277.6
276.19
275.324
274.469
275.395
274.81
275.428
276.467
278.4
280.747
282.523
283.882
284.652
285.503
286.071
286.722
287.157
287.663
288.034
288.449
288.773
289.113
289.4
289.68
289.942
290.182
290.423
290.624
290.834
290.997
291.182
291.316
291.487
291.607
291.77
291.875
292.023
292.11
292.244
292.312
292.435
292.486
292.601
292.638
292.745
292.77
292.869
292.886
292.971
292.983
293.061
293.07
293.131
293.141
293.19
293.2
293.235
293.246
293.271
293.285
293.295
293.312
293.312
293.326
293.318
293.333
293.32
293.333
293.315
293.328
293.307
293.319
293.294
293.306
293.279
293.291
293.261
293.274
293.243
293.255
293.222
293.234
293.201
293.213
293.177
293.191
293.155
293.168
293.131
293.145
293.109
293.122
293.084
293.1
293.063
293.077
293.039
293.055
293.018
293.033
292.996
293.012
292.976
292.991
292.954
292.971
292.935
292.95
292.914
292.93
292.895
292.911
292.875
292.892
292.857
292.873
292.838
292.854
292.82
292.836
292.802
292.818
292.785
292.801
292.768
292.784
292.751
292.767
292.734
292.75
292.719
292.734
292.702
292.718
292.687
292.702
292.671
292.686
292.656
292.671
292.641
292.656
292.627
292.641
292.612
292.627
292.598
292.612
292.584
292.598
292.57
292.584
292.556
292.57
292.543
292.557
292.529
292.543
292.516
292.53
292.503
292.517
292.491
292.504
292.478
292.492
292.466
292.479
292.453
292.467
292.441
292.455
292.429
292.442
292.417
292.43
292.405
292.418
292.393
292.406
292.381
292.394
292.369
292.382
292.357
292.37
292.345
292.358
292.333
292.346
292.321
292.334
292.309
292.322
292.297
292.31
292.285
292.298
292.274
292.287
292.262
292.276
292.252
292.265
292.24
292.253
292.234
292.227
292.231
292.205
292.176
291.628
291.648
291.332
291.775
291.729
291.472
291.837
291.805
291.552
291.881
291.841
291.608
291.908
291.867
291.64
291.925
291.88
291.658
291.94
291.896
291.675
291.952
291.906
291.68
291.965
291.92
291.704
291.975
291.929
291.699
291.99
291.944
291.728
291.998
291.953
291.719
292.014
291.967
291.749
292.022
291.976
291.739
292.037
291.989
291.769
292.045
291.998
291.758
292.06
292.012
291.789
292.067
292.02
291.777
292.082
292.033
291.807
292.09
292.042
291.795
292.105
292.055
291.826
292.112
292.063
291.813
292.128
292.077
291.844
292.135
292.086
291.831
292.151
292.099
291.861
292.158
292.108
291.849
292.174
292.122
291.879
292.182
292.13
291.866
292.197
292.144
291.896
292.205
292.152
291.883
292.221
292.166
291.912
292.229
292.174
291.899
292.244
292.188
291.927
292.252
292.196
291.914
292.267
292.209
291.941
292.275
292.217
291.929
292.29
292.231
291.954
292.298
292.238
291.942
292.313
292.251
291.966
292.321
292.259
291.954
292.336
292.272
291.977
292.343
292.279
291.965
292.358
292.291
291.985
292.365
292.297
291.974
292.378
292.308
291.991
292.384
292.313
291.98
292.396
292.323
291.994
292.402
292.327
291.983
292.413
292.336
291.994
292.417
292.338
291.983
292.427
292.345
291.991
292.43
292.346
291.979
292.437
292.351
291.985
292.437
292.349
291.97
292.442
292.35
291.973
292.439
292.345
291.955
292.441
292.343
291.956
292.435
292.334
291.935
292.433
292.329
291.933
292.424
292.315
291.907
292.418
292.305
291.903
292.403
292.286
291.871
292.393
292.27
291.862
292.372
292.244
291.826
292.354
292.221
291.812
292.326
292.189
291.77
292.301
292.158
291.751
292.265
292.117
291.704
292.232
292.078
291.683
292.186
292.028
291.624
292.144
291.979
291.598
292.087
291.919
291.528
292.034
291.86
291.494
291.967
291.789
291.414
291.904
291.72
291.372
291.827
291.64
291.282