/*--------------------------------*- C++ -*----------------------------------*\
| =========                 |                                                 |
| \\      /  F ield         | OpenFOAM: The Open Source CFD Toolbox           |
|  \\    /   O peration     | Version:  v2006                                 |
|   \\  /    A nd           | Website:  www.openfoam.com                      |
|    \\/     M anipulation  |                                                 |
\*---------------------------------------------------------------------------*/
FoamFile
{
    version     2.0;
    format      ascii;
    class       volScalarField;
    location    "0.066";
    object      turbulenceProperties:L;
}
// * * * * * * * * * * * * * * * * * * * * * * * * * * * * * * * * * * * * * //

dimensions      [0 1 0 0 0 0 0];


internalField   nonuniform List<scalar> 
9148
(
1999.43
1999.48
1999.63
1999.74
1999.68
1999.56
1998.76
1997.24
1995.52
1994.08
1992.89
1991.91
1991.01
1990.15
1989.3
1988.48
1987.67
1986.89
1986.14
1985.41
1984.7
1984.02
1983.36
1982.72
1982.11
1981.52
1980.97
1980.44
1979.95
1979.5
1979.08
1978.7
1978.36
1978.07
1977.82
1977.61
1977.46
1977.36
1977.31
1977.32
1977.38
1977.51
1977.7
1977.96
1978.28
1978.67
1979.09
1979.17
1976.43
1955.99
1893.68
1725.78
1365.26
850.269
412.003
170.949
66.7588
25.9206
10.6027
4.97261
3.21919
2.11143
1.5948
1.3125
1.60923
0.620731
0.2565
0.0970111
0.0254929
0.00317771
0.000591108
4.25352e-05
4.15801e-05
0.000295201
0.00125496
0.000824027
0.000227403
4.07466e-05
4.00171e-05
0.000201558
0.000665711
0.00057823
0.000190316
3.99555e-05
3.95959e-05
0.000179377
0.000525369
0.000482699
0.000174016
3.9463e-05
3.92318e-05
0.000168475
0.000461568
0.000438946
0.000164978
3.90738e-05
3.90054e-05
0.000163944
0.000428972
0.000412477
0.00016078
3.8945e-05
3.88953e-05
0.000160439
0.0004077
0.000395731
0.000157778
3.88373e-05
3.87963e-05
0.000157646
0.000392437
0.000382797
0.000155315
3.8745e-05
3.87088e-05
0.000155219
0.000380333
0.000372086
0.000153157
3.86622e-05
3.8629e-05
0.000153028
0.000370179
0.000362882
0.000151186
3.85857e-05
3.85545e-05
0.000151043
0.000361375
0.000354773
0.00014936
3.85133e-05
3.84832e-05
0.000149211
0.000353551
0.0003475
0.000147651
3.84432e-05
3.84137e-05
0.000147502
0.000346458
0.000340874
0.000146038
3.83743e-05
3.83448e-05
0.0001459
0.000339971
0.000334767
0.000144512
3.83053e-05
3.82755e-05
0.00014439
0.000333972
0.000329082
0.000143063
3.82355e-05
3.82051e-05
0.00014296
0.000328374
0.000323748
0.000141681
3.81641e-05
3.81327e-05
0.000141599
0.00032311
0.000318705
0.000140357
3.80905e-05
3.80578e-05
0.000140293
0.000318121
0.000313903
0.000139079
3.80139e-05
3.79796e-05
0.000139033
0.00031336
0.000309298
0.000137839
3.79334e-05
3.78972e-05
0.00013781
0.000308786
0.000304854
0.000136628
3.78484e-05
3.78098e-05
0.000136614
0.00030436
0.000300532
0.000135436
3.77578e-05
3.77162e-05
0.000135435
0.000300047
0.000296296
0.000134255
3.76604e-05
3.76153e-05
0.000134263
0.00029581
0.000292113
0.000133072
3.75548e-05
3.75056e-05
0.000133087
0.000291617
0.000287953
0.000131878
3.74394e-05
3.73852e-05
0.000131897
0.000287432
0.000283779
0.000130662
3.73123e-05
3.72522e-05
0.000130681
0.00028322
0.000279553
0.000129414
3.71712e-05
3.71039e-05
0.000129428
0.000278948
0.000275244
0.000128123
3.70132e-05
3.69373e-05
0.000128128
0.000274579
0.000270803
0.000126772
3.68348e-05
3.67482e-05
0.000126756
0.000270055
0.000266161
0.000125332
3.66309e-05
3.6531e-05
0.000125288
0.000265313
0.000261245
0.000123775
3.63951e-05
3.62779e-05
0.000123677
0.000260259
0.00025593
0.000122043
3.61177e-05
3.59775e-05
0.00012186
0.000254757
0.000250045
0.00012006
3.57851e-05
3.56129e-05
0.000119743
0.000248616
0.000243422
0.000117713
3.53766e-05
3.51564e-05
0.000117184
0.000241564
0.000235666
0.000114876
3.48597e-05
3.45612e-05
0.000113832
0.000233106
0.000226136
0.000111221
3.41719e-05
3.37399e-05
0.000109326
0.000222287
0.000213836
0.000106132
3.31891e-05
3.25005e-05
0.000102885
0.000207484
0.000196859
9.85566e-05
3.16036e-05
3.03516e-05
9.23459e-05
0.000185545
0.000170438
8.56128e-05
2.87936e-05
2.51673e-05
7.03767e-05
0.000149026
0.000111899
4.49466e-05
1.77235e-05
2.19619e-05
4.26702e-05
8.28341e-05
8.67493e-05
7.64436e-05
2.54411e-05
2.65536e-05
0.000105615
0.000127754
0.000171569
0.000132598
2.6807e-05
2.50696e-05
0.000158717
0.000214998
0.000256325
0.000149089
1.80389e-05
1.19742e-05
8.03004e-05
0.000169291
0.000129065
5.07629e-05
9.32587e-06
8.28004e-06
4.14428e-05
0.00011092
0.000101934
3.44743e-05
7.99373e-06
1.13374e-05
3.89683e-05
0.000114722
0.000129045
4.34884e-05
1.37913e-05
1.57427e-05
5.63163e-05
0.000166625
0.000183789
6.27863e-05
1.64834e-05
1.67214e-05
7.23712e-05
0.000200661
0.000200167
7.30457e-05
1.62128e-05
1.54268e-05
7.14252e-05
0.000189087
0.000166072
6.38766e-05
1.43339e-05
1.37474e-05
5.90905e-05
0.00015356
0.000140258
5.36348e-05
1.35001e-05
1.39717e-05
5.06425e-05
0.000137487
0.000138651
5.06395e-05
1.49131e-05
1.60034e-05
5.17086e-05
0.000142352
0.000149595
5.40178e-05
1.71629e-05
1.82692e-05
5.68056e-05
0.00015777
0.000169881
6.03871e-05
1.92909e-05
2.01886e-05
6.38019e-05
0.000180001
0.000195837
6.79995e-05
2.0973e-05
2.16302e-05
7.18194e-05
0.000206923
0.000225223
7.67662e-05
2.21822e-05
2.26149e-05
8.09131e-05
0.00023621
0.000255717
8.64099e-05
2.29593e-05
2.32004e-05
9.08763e-05
0.000266013
0.000285245
9.65498e-05
2.3332e-05
2.33802e-05
0.000101127
0.000293847
0.000309644
0.000106616
2.33733e-05
2.32233e-05
0.000109208
0.000315376
0.000326608
0.00011308
2.2996e-05
2.26311e-05
0.000114187
0.000329393
0.000335957
0.000117465
2.21692e-05
2.15395e-05
0.000116965
0.00033281
0.000332642
0.000119113
2.07912e-05
1.98192e-05
0.000116398
0.000320524
0.000312709
0.000117287
1.86809e-05
1.73084e-05
0.000112637
0.000289837
0.000275725
0.000112673
1.58707e-05
1.41423e-05
0.000107949
0.000245429
0.000227639
0.000109263
1.24431e-05
9.59023e-06
0.000101359
0.000189039
0.00017335
0.000103757
7.6483e-06
1.29525e-05
0.000140932
0.000149524
0.000154623
0.000161727
0.000161946
0.000166584
0.000165868
0.000167459
0.000167408
0.000168057
0.000168243
0.000168533
0.000168627
0.000168712
0.000168767
0.000168643
0.000168552
0.000167796
0.000167656
0.000165872
0.000166647
0.000158527
8.80622e-05
2.29526e-05
3.60688e-05
4.84745e-05
4.51683e-05
3.2639e-05
3.19576e-06
6.86235e-07
4.32473e-06
1.93041e-05
2.98461e-05
3.89215e-06
4.3781e-07
7.6278e-07
4.47921e-06
3.56345e-05
3.79487e-05
4.51235e-06
7.91392e-07
8.05906e-07
4.636e-06
3.89351e-05
3.14816e-05
3.96472e-06
6.87077e-07
6.28278e-07
4.20853e-06
3.34877e-05
3.66056e-05
4.94614e-06
6.67765e-07
9.81514e-07
1.10885e-05
5.86331e-05
5.64018e-05
1.42509e-05
1.32368e-06
1.34255e-06
1.31348e-05
4.90398e-05
3.62355e-05
1.01243e-05
1.24538e-06
9.71229e-07
6.25829e-06
1.99263e-05
1.87303e-05
5.16589e-06
7.98793e-07
7.13984e-07
6.79689e-06
2.61512e-05
2.96792e-05
7.22913e-06
6.93057e-07
5.3747e-07
8.1798e-06
3.50638e-05
3.82815e-05
9.28186e-06
6.80343e-07
1.15867e-06
1.19003e-05
4.56151e-05
4.71452e-05
1.2861e-05
1.59017e-06
2.08698e-06
1.55198e-05
5.47853e-05
5.56772e-05
1.60593e-05
2.46718e-06
2.89734e-06
1.84104e-05
6.31713e-05
6.34983e-05
1.86876e-05
3.22939e-06
3.61382e-06
2.11168e-05
7.0662e-05
7.04787e-05
2.10048e-05
3.91025e-06
4.26427e-06
2.33761e-05
7.76692e-05
7.69846e-05
2.31323e-05
4.5479e-06
4.90175e-06
2.58154e-05
8.47539e-05
8.42175e-05
2.55546e-05
5.19314e-06
5.58007e-06
2.881e-05
9.32264e-05
9.33846e-05
2.87767e-05
5.90832e-06
6.27998e-06
3.37861e-05
0.00010587
0.00010621
3.42205e-05
6.47367e-06
6.85597e-06
4.04359e-05
0.000121523
0.000121801
4.09479e-05
7.16901e-06
7.72974e-06
4.78111e-05
0.000139385
0.000141517
4.99734e-05
8.2857e-06
9.17956e-06
5.93438e-05
0.000161367
0.000164847
6.26324e-05
1.00348e-05
1.14424e-05
7.35527e-05
0.00018458
0.000189767
7.5956e-05
1.33659e-05
9.88953e-06
8.56721e-05
0.000194851
8.14987e-05
2.63658e-05
4.62686e-06
8.32916e-06
7.28094e-05
0.000185016
0.00020405
8.14434e-05
1.07301e-05
1.37139e-05
9.93668e-05
0.000240893
0.000262874
0.000111242
1.62045e-05
1.12475e-05
9.76633e-05
0.000233355
0.000162392
6.21186e-05
5.94576e-06
1.21044e-05
9.63225e-05
0.000228494
0.000344185
0.000143646
1.74623e-05
1.19038e-05
5.4288e-05
0.000134316
0.000185201
7.86436e-05
9.95046e-06
1.84213e-05
0.000143081
0.000332011
0.0002536
0.000161269
1.72148e-05
8.75221e-06
3.31769e-05
8.8121e-05
0.000177815
9.04481e-05
1.18888e-05
1.61098e-05
9.04292e-05
0.000192804
0.000265423
0.000548142
1.70529e-05
1.33403e-05
2.37138e-05
5.62114e-05
6.45748e-05
3.01579e-05
1.11031e-05
1.92072e-05
6.00201e-05
0.000104752
8.22744e-05
4.52166e-05
1.9464e-05
1.10275e-05
1.99164e-05
3.5826e-05
5.84433e-05
4.29855e-05
1.19305e-05
1.20966e-05
2.25197e-05
3.82249e-05
6.10839e-05
4.62547e-05
1.31639e-05
1.35788e-05
2.46545e-05
4.11017e-05
6.54516e-05
4.46103e-05
1.5395e-05
1.71064e-05
3.91188e-05
6.08229e-05
3.2987e-05
1.79581e-05
9.92721e-06
1.12247e-05
4.32661e-05
5.31469e-05
3.65604e-05
2.21363e-05
1.20746e-05
1.41731e-05
4.20373e-05
5.97376e-05
5.58737e-05
3.71054e-05
1.60453e-05
9.39064e-06
1.65842e-05
3.07716e-05
4.91162e-05
4.11266e-05
1.03023e-05
1.10862e-05
2.01125e-05
3.33299e-05
5.32631e-05
4.35135e-05
1.19631e-05
1.2742e-05
2.15587e-05
3.59923e-05
5.72696e-05
3.92173e-05
1.40796e-05
1.58663e-05
3.35505e-05
5.26665e-05
2.80205e-05
1.51792e-05
9.08422e-06
9.77146e-06
3.783e-05
4.51417e-05
3.01418e-05
1.8406e-05
1.05948e-05
1.09019e-05
4.01523e-05
4.67502e-05
3.12116e-05
1.9384e-05
1.15976e-05
1.16705e-05
3.9116e-05
4.86181e-05
3.20602e-05
1.95574e-05
1.22092e-05
1.23468e-05
3.86731e-05
4.98983e-05
3.32237e-05
2.02937e-05
1.30904e-05
1.41041e-05
3.52741e-05
5.35387e-05
4.87901e-05
3.03621e-05
1.59712e-05
9.1553e-06
1.50492e-05
2.60953e-05
4.04176e-05
3.44124e-05
9.6293e-06
1.05757e-05
1.76762e-05
2.73055e-05
4.1947e-05
3.61353e-05
1.06714e-05
1.13749e-05
1.82763e-05
2.80342e-05
4.32363e-05
3.43161e-05
1.11776e-05
1.17515e-05
1.83383e-05
2.87023e-05
4.38154e-05
3.46506e-05
1.12716e-05
1.18911e-05
1.83224e-05
2.88284e-05
4.35669e-05
3.4552e-05
1.14835e-05
1.19427e-05
1.84901e-05
2.87925e-05
4.34604e-05
3.40342e-05
1.14964e-05
1.21922e-05
1.85443e-05
2.88637e-05
4.31624e-05
3.44268e-05
1.17211e-05
1.21995e-05
1.84965e-05
2.86897e-05
4.26439e-05
3.3744e-05
1.15693e-05
1.22025e-05
1.84751e-05
2.85343e-05
4.21421e-05
3.37317e-05
1.17118e-05
1.21966e-05
1.83049e-05
2.81272e-05
4.14907e-05
3.31064e-05
1.15422e-05
1.21183e-05
1.81916e-05
2.77287e-05
4.0742e-05
3.28121e-05
1.15129e-05
1.20055e-05
1.78828e-05
2.72272e-05
3.99512e-05
3.20606e-05
1.13286e-05
1.1907e-05
1.76818e-05
2.66947e-05
3.88113e-05
3.16601e-05
1.11957e-05
1.16145e-05
1.70043e-05
2.58293e-05
3.64838e-05
3.10788e-05
1.04828e-05
1.06117e-05
1.5526e-05
2.36422e-05
3.12238e-05
1.88954e-05
9.69159e-06
1.65104e-05
3.02175e-05
4.76482e-05
3.20243e-05
2.13035e-05
1.52832e-05
1.33278e-05
3.81962e-05
4.45407e-05
3.04581e-05
2.05648e-05
1.35225e-05
1.26904e-05
3.66535e-05
4.36564e-05
2.94845e-05
1.96209e-05
1.30492e-05
1.21654e-05
3.50289e-05
4.21013e-05
2.83749e-05
1.89303e-05
1.26517e-05
1.20615e-05
3.30136e-05
4.05244e-05
2.74188e-05
1.84213e-05
1.25109e-05
1.15318e-05
3.26148e-05
3.88567e-05
2.58835e-05
1.72315e-05
1.18111e-05
1.0664e-05
3.09128e-05
3.60027e-05
2.34887e-05
1.56948e-05
1.08434e-05
9.88969e-06
1.88529e-05
3.04287e-05
4.57705e-05
2.92524e-05
1.66517e-05
1.5529e-05
2.12593e-05
3.11059e-05
4.31525e-05
3.71822e-05
1.36776e-05
1.37639e-05
2.05035e-05
2.96251e-05
4.21235e-05
3.59088e-05
1.28594e-05
1.31749e-05
1.94552e-05
2.85097e-05
4.02804e-05
3.44416e-05
1.22405e-05
1.2561e-05
1.82374e-05
2.70538e-05
3.73555e-05
3.23067e-05
1.14002e-05
1.14886e-05
1.65188e-05
2.44395e-05
3.15051e-05
1.98485e-05
1.03937e-05
1.72564e-05
3.04894e-05
4.61335e-05
3.17434e-05
2.19631e-05
1.60081e-05
1.39403e-05
3.74796e-05
4.28524e-05
2.97232e-05
2.06778e-05
1.40246e-05
1.30106e-05
3.51911e-05
4.12774e-05
2.83426e-05
1.95137e-05
1.32935e-05
1.23871e-05
3.34454e-05
3.92104e-05
2.67244e-05
1.82574e-05
1.26571e-05
1.13586e-05
3.18199e-05
3.60861e-05
2.39091e-05
1.63458e-05
1.13092e-05
1.03689e-05
1.9539e-05
3.03982e-05
4.42637e-05
2.93379e-05
1.71373e-05
1.59857e-05
2.17332e-05
3.0754e-05
4.17127e-05
3.63916e-05
1.41888e-05
1.42673e-05
2.07147e-05
2.90696e-05
4.05834e-05
3.50326e-05
1.32742e-05
1.34277e-05
1.93016e-05
2.77514e-05
3.76269e-05
3.32911e-05
1.21464e-05
1.2132e-05
1.74031e-05
2.51068e-05
3.20709e-05
2.06305e-05
1.10301e-05
1.79913e-05
3.09614e-05
4.61424e-05
3.2207e-05
2.28366e-05
1.67988e-05
1.46954e-05
3.78531e-05
4.27928e-05
2.9927e-05
2.13656e-05
1.46984e-05
1.37118e-05
3.56385e-05
4.10468e-05
2.85843e-05
2.01593e-05
1.39876e-05
1.3111e-05
3.34898e-05
3.91507e-05
2.70618e-05
1.89723e-05
1.3359e-05
1.217e-05
3.2186e-05
3.62286e-05
2.45354e-05
1.71975e-05
1.21523e-05
1.11298e-05
2.02991e-05
3.06837e-05
4.42893e-05
2.98469e-05
1.81483e-05
1.69941e-05
2.27522e-05
3.12337e-05
4.16983e-05
3.67919e-05
1.50393e-05
1.51068e-05
2.16024e-05
2.95197e-05
4.08335e-05
3.52758e-05
1.41577e-05
1.44223e-05
2.05367e-05
2.86334e-05
3.92895e-05
3.35114e-05
1.35809e-05
1.37929e-05
1.9391e-05
2.7328e-05
3.65639e-05
3.20979e-05
1.26823e-05
1.2619e-05
1.76875e-05
2.49266e-05
3.13404e-05
2.08243e-05
1.1484e-05
1.83334e-05
3.02408e-05
4.38881e-05
3.12894e-05
2.29707e-05
1.70773e-05
1.52495e-05
3.63806e-05
4.12952e-05
2.95612e-05
2.1677e-05
1.52862e-05
1.43688e-05
3.45326e-05
3.99527e-05
2.84196e-05
2.06068e-05
1.45812e-05
1.37811e-05
3.30678e-05
3.84288e-05
2.72604e-05
1.96539e-05
1.40793e-05
1.30855e-05
3.17509e-05
3.62926e-05
2.52687e-05
1.8148e-05
1.30098e-05
1.20894e-05
2.12443e-05
3.15439e-05
4.41919e-05
3.05091e-05
1.92073e-05
1.79876e-05
2.39154e-05
3.17201e-05
4.26205e-05
3.7074e-05
1.62743e-05
1.62937e-05
2.29466e-05
3.06799e-05
4.20921e-05
3.59136e-05
1.56172e-05
1.58305e-05
2.2187e-05
3.00742e-05
4.11908e-05
3.51216e-05
1.51429e-05
1.54649e-05
2.14776e-05
2.93504e-05
4.01635e-05
3.37054e-05
1.48681e-05
1.52761e-05
2.1289e-05
2.88838e-05
3.93557e-05
3.31441e-05
1.47976e-05
1.50986e-05
2.09942e-05
2.8472e-05
3.86037e-05
3.28911e-05
1.45968e-05
1.48919e-05
2.04805e-05
2.78754e-05
3.76667e-05
3.19744e-05
1.43348e-05
1.47302e-05
2.03614e-05
2.74917e-05
3.70356e-05
3.14812e-05
1.42943e-05
1.45736e-05
2.0073e-05
2.71475e-05
3.62601e-05
3.15077e-05
1.39867e-05
1.41538e-05
1.91924e-05
2.63659e-05
3.44896e-05
3.02972e-05
1.33227e-05
1.33085e-05
1.82134e-05
2.49583e-05
3.03878e-05
2.13206e-05
1.25262e-05
1.97684e-05
2.92668e-05
4.19931e-05
3.09803e-05
2.42904e-05
1.86039e-05
1.72028e-05
3.63276e-05
4.1665e-05
3.08e-05
2.4549e-05
1.75658e-05
1.83585e-05
3.3414e-05
4.5419e-05
4.17519e-05
3.00956e-05
1.98967e-05
1.27129e-05
1.90571e-05
2.62338e-05
3.51666e-05
3.30968e-05
1.30743e-05
1.38884e-05
2.00495e-05
2.62403e-05
3.64e-05
3.05317e-05
1.4232e-05
1.48256e-05
2.01093e-05
2.69171e-05
3.65729e-05
3.02824e-05
1.48158e-05
1.51031e-05
2.02169e-05
2.70242e-05
3.65442e-05
3.06621e-05
1.49374e-05
1.54765e-05
2.08616e-05
2.73885e-05
3.70516e-05
3.09434e-05
1.54941e-05
1.59237e-05
2.14194e-05
2.78322e-05
3.7727e-05
3.21392e-05
1.57876e-05
1.65034e-05
2.22102e-05
2.81586e-05
4.12051e-05
3.00255e-05
1.77696e-05
1.94848e-05
2.7919e-05
3.83707e-05
2.50022e-05
1.88574e-05
1.27216e-05
1.34643e-05
3.09583e-05
3.39378e-05
2.60294e-05
2.03819e-05
1.44988e-05
1.54815e-05
2.98573e-05
3.61221e-05
2.7461e-05
2.20709e-05
1.64585e-05
1.81281e-05
2.99163e-05
4.1207e-05
3.88714e-05
2.84093e-05
2.04315e-05
1.41671e-05
2.00755e-05
2.5666e-05
3.83598e-05
3.00194e-05
1.63081e-05
1.90918e-05
2.89467e-05
3.76744e-05
2.56677e-05
1.98732e-05
1.39153e-05
1.6723e-05
3.09899e-05
3.86923e-05
3.72458e-05
2.8342e-05
2.06089e-05
1.67217e-05
2.84009e-05
3.56702e-05
2.35693e-05
1.75965e-05
1.25818e-05
1.61415e-05
2.7787e-05
3.63888e-05
3.61663e-05
2.69292e-05
2.00971e-05
1.89539e-05
2.64767e-05
3.40672e-05
3.35343e-05
2.56138e-05
1.84113e-05
1.86043e-05
2.53915e-05
3.35759e-05
3.37968e-05
2.5277e-05
1.88354e-05
1.89e-05
2.62061e-05
3.39472e-05
3.44316e-05
2.68222e-05
1.88829e-05
1.88431e-05
2.74528e-05
3.46307e-05
3.57157e-05
2.86421e-05
1.87661e-05
1.8684e-05
2.90802e-05
3.61036e-05
3.7359e-05
3.03884e-05
1.86128e-05
1.85201e-05
3.07662e-05
3.80094e-05
3.92861e-05
3.20877e-05
1.84305e-05
1.83427e-05
3.22691e-05
4.05308e-05
4.18716e-05
3.32578e-05
1.82538e-05
1.81671e-05
3.32988e-05
4.34821e-05
4.47105e-05
3.4203e-05
1.80813e-05
1.79986e-05
3.42489e-05
4.62439e-05
4.73919e-05
3.5222e-05
1.792e-05
1.78453e-05
3.53071e-05
4.88519e-05
4.99644e-05
3.63658e-05
1.77781e-05
1.77145e-05
3.64992e-05
5.13516e-05
5.24055e-05
3.76778e-05
1.76612e-05
1.76104e-05
3.78449e-05
5.36052e-05
5.46452e-05
3.91102e-05
1.75728e-05
1.75337e-05
3.92954e-05
5.57136e-05
5.67772e-05
4.06599e-05
1.75127e-05
1.74805e-05
4.08488e-05
5.77224e-05
5.88184e-05
4.22381e-05
1.74794e-05
1.74561e-05
4.24082e-05
5.96689e-05
6.08191e-05
4.3823e-05
1.74629e-05
1.74494e-05
4.39541e-05
6.15625e-05
6.27404e-05
4.53337e-05
1.74594e-05
1.74506e-05
4.53861e-05
6.33637e-05
6.45751e-05
4.6723e-05
1.74626e-05
1.74565e-05
4.66969e-05
6.50604e-05
6.62785e-05
4.7943e-05
1.74697e-05
1.74645e-05
4.78265e-05
6.66637e-05
6.79138e-05
4.90003e-05
1.74795e-05
1.74746e-05
4.88267e-05
6.81906e-05
6.94608e-05
4.98926e-05
1.74902e-05
1.74857e-05
4.96535e-05
6.96618e-05
7.1003e-05
5.06576e-05
1.7502e-05
1.74979e-05
5.03964e-05
7.10886e-05
7.24658e-05
5.13143e-05
1.75148e-05
1.75111e-05
5.10087e-05
7.24835e-05
7.38807e-05
5.18924e-05
1.75285e-05
1.75253e-05
5.15754e-05
7.38557e-05
7.52151e-05
5.23891e-05
1.7543e-05
1.75402e-05
5.20293e-05
7.51664e-05
7.65218e-05
5.283e-05
1.7558e-05
1.75555e-05
5.24598e-05
7.64223e-05
7.77658e-05
5.3205e-05
1.75733e-05
1.7571e-05
5.27913e-05
7.76222e-05
7.89798e-05
5.35386e-05
1.75885e-05
1.75864e-05
5.31169e-05
7.87768e-05
8.01157e-05
5.38162e-05
1.76034e-05
1.76015e-05
5.33524e-05
7.98742e-05
8.12205e-05
5.40622e-05
1.7618e-05
1.76161e-05
5.35943e-05
8.09231e-05
8.22431e-05
5.42595e-05
1.76319e-05
1.76301e-05
5.3753e-05
8.19121e-05
8.32326e-05
5.44336e-05
1.76452e-05
1.76434e-05
5.39265e-05
8.28484e-05
8.41369e-05
5.45662e-05
1.76579e-05
1.76561e-05
5.40239e-05
8.37242e-05
8.50078e-05
5.46846e-05
1.76698e-05
1.76681e-05
5.41425e-05
8.45468e-05
8.57939e-05
5.47751e-05
1.76812e-05
1.76795e-05
5.41944e-05
8.53137e-05
8.65495e-05
5.48455e-05
1.76919e-05
1.76902e-05
5.42651e-05
8.60204e-05
8.72289e-05
5.48877e-05
1.7702e-05
1.77004e-05
5.42695e-05
8.66612e-05
8.78658e-05
5.49116e-05
1.77114e-05
1.77098e-05
5.42949e-05
8.724e-05
8.84115e-05
5.49078e-05
1.77202e-05
1.77186e-05
5.42541e-05
8.77567e-05
8.8935e-05
5.48877e-05
1.77283e-05
1.77267e-05
5.42419e-05
8.82382e-05
8.93567e-05
5.48457e-05
1.77359e-05
1.77342e-05
5.41689e-05
8.86461e-05
8.97524e-05
5.47935e-05
1.77428e-05
1.77412e-05
5.41258e-05
8.89955e-05
9.00633e-05
5.47216e-05
1.77492e-05
1.77475e-05
5.40266e-05
8.93011e-05
9.03556e-05
5.46439e-05
1.7755e-05
1.77533e-05
5.39612e-05
8.95554e-05
9.05752e-05
5.45499e-05
1.77603e-05
1.77586e-05
5.38441e-05
8.97762e-05
9.07869e-05
5.44552e-05
1.77651e-05
1.77634e-05
5.37647e-05
8.99544e-05
9.09346e-05
5.43479e-05
1.77696e-05
1.77679e-05
5.36379e-05
9.01099e-05
9.10847e-05
5.42441e-05
1.77737e-05
1.7772e-05
5.35524e-05
9.02308e-05
9.11783e-05
5.41309e-05
1.77776e-05
1.77759e-05
5.34222e-05
9.03367e-05
9.12816e-05
5.40242e-05
1.77812e-05
1.77795e-05
5.33354e-05
9.04171e-05
9.13286e-05
5.39098e-05
1.77846e-05
1.7783e-05
5.32055e-05
9.04881e-05
9.14139e-05
5.38042e-05
1.77879e-05
1.77863e-05
5.31207e-05
9.05442e-05
9.14249e-05
5.36924e-05
1.7791e-05
1.77894e-05
5.29945e-05
9.05814e-05
9.14862e-05
5.35908e-05
1.7794e-05
1.77924e-05
5.2914e-05
9.06111e-05
9.14698e-05
5.34836e-05
1.77969e-05
1.77953e-05
5.27928e-05
9.06226e-05
9.15079e-05
5.33873e-05
1.77996e-05
1.7798e-05
5.27174e-05
9.06298e-05
9.14712e-05
5.32855e-05
1.78023e-05
1.78007e-05
5.2602e-05
9.06218e-05
9.14934e-05
5.31952e-05
1.78049e-05
1.78033e-05
5.25326e-05
9.06119e-05
9.14437e-05
5.31001e-05
1.78074e-05
1.78059e-05
5.24242e-05
9.05887e-05
9.1457e-05
5.30168e-05
1.78098e-05
1.78083e-05
5.2361e-05
9.05643e-05
9.1401e-05
5.29285e-05
1.78122e-05
1.78107e-05
5.22587e-05
9.0529e-05
9.1409e-05
5.28534e-05
1.78145e-05
1.78131e-05
5.22013e-05
9.04966e-05
9.13453e-05
5.27712e-05
1.78168e-05
1.78153e-05
5.21052e-05
9.04551e-05
9.13469e-05
5.27022e-05
1.7819e-05
1.78176e-05
5.20537e-05
9.04177e-05
9.12772e-05
5.26258e-05
1.78212e-05
1.78197e-05
5.19636e-05
9.03719e-05
9.12745e-05
5.25626e-05
1.78233e-05
1.78219e-05
5.19176e-05
9.03314e-05
9.12004e-05
5.24916e-05
1.78254e-05
1.78239e-05
5.18331e-05
9.02824e-05
9.11942e-05
5.24337e-05
1.78274e-05
1.7826e-05
5.17922e-05
9.02392e-05
9.11172e-05
5.23679e-05
1.78294e-05
1.7828e-05
5.17129e-05
9.01887e-05
9.11095e-05
5.2315e-05
1.78313e-05
1.78299e-05
5.16768e-05
9.0145e-05
9.10313e-05
5.2254e-05
1.78332e-05
1.78318e-05
5.16024e-05
9.0094e-05
9.10225e-05
5.22059e-05
1.78351e-05
1.78336e-05
5.15709e-05
9.00496e-05
9.09431e-05
5.21494e-05
1.78369e-05
1.78355e-05
5.15011e-05
8.99995e-05
9.09335e-05
5.21058e-05
1.78387e-05
1.78373e-05
5.14738e-05
8.99569e-05
9.08538e-05
5.20534e-05
1.78404e-05
1.7839e-05
5.14083e-05
8.99087e-05
9.08431e-05
5.20138e-05
1.78421e-05
1.78407e-05
5.13847e-05
8.98663e-05
9.07633e-05
5.19651e-05
1.78438e-05
1.78424e-05
5.13229e-05
8.98186e-05
9.07535e-05
5.19292e-05
1.78455e-05
1.78441e-05
5.13029e-05
8.97777e-05
9.06753e-05
5.1884e-05
1.78471e-05
1.78457e-05
5.12447e-05
8.97314e-05
9.06667e-05
5.18516e-05
1.78487e-05
1.78473e-05
5.12279e-05
8.96913e-05
9.05891e-05
5.18096e-05
1.78503e-05
1.78489e-05
5.11728e-05
8.96459e-05
9.05816e-05
5.17803e-05
1.78518e-05
1.78504e-05
5.11589e-05
8.96069e-05
9.05052e-05
5.17411e-05
1.78534e-05
1.7852e-05
5.11066e-05
8.95611e-05
9.0498e-05
5.17144e-05
1.78549e-05
1.78535e-05
5.10952e-05
8.95229e-05
9.04228e-05
5.1678e-05
1.78563e-05
1.7855e-05
5.10458e-05
8.94792e-05
9.04185e-05
5.16542e-05
1.78578e-05
1.78564e-05
5.10372e-05
8.94444e-05
9.03466e-05
5.16206e-05
1.78593e-05
1.78579e-05
5.09906e-05
8.94035e-05
9.03441e-05
5.15994e-05
1.78607e-05
1.78594e-05
5.09846e-05
8.93698e-05
9.0273e-05
5.15684e-05
1.78622e-05
1.78608e-05
5.09406e-05
8.93306e-05
9.02733e-05
5.155e-05
1.78637e-05
1.78623e-05
5.09372e-05
8.93009e-05
9.02066e-05
5.15215e-05
1.78652e-05
1.78638e-05
5.08954e-05
8.92653e-05
9.02091e-05
5.15049e-05
1.78667e-05
1.78653e-05
5.08934e-05
8.92362e-05
9.01419e-05
5.14776e-05
1.78682e-05
1.78669e-05
5.08526e-05
8.92004e-05
9.01448e-05
5.14618e-05
1.78697e-05
1.78684e-05
5.08508e-05
8.91724e-05
9.00783e-05
5.14345e-05
1.78712e-05
1.78699e-05
5.08092e-05
8.91354e-05
9.00771e-05
5.14173e-05
1.78726e-05
1.78713e-05
5.0795e-05
8.90916e-05
9.00139e-05
5.13894e-05
1.7874e-05
1.78726e-05
5.07762e-05
8.90698e-05
8.99788e-05
5.13936e-05
1.78866e-05
1.78961e-05
5.0774e-05
8.90607e-05
8.99706e-05
5.13419e-05
1.78985e-05
1.79078e-05
5.07565e-05
8.9034e-05
9.00319e-05
5.13972e-05
1.79504e-05
1.79827e-05
5.08549e-05
8.91016e-05
9.0745e-05
5.18257e-05
1.80944e-05
1.81986e-05
5.13779e-05
8.98701e-05
9.2182e-05
5.26593e-05
1.84074e-05
1.85992e-05
5.24502e-05
9.15717e-05
9.47389e-05
5.39739e-05
1.92343e-05
2.01991e-05
5.68392e-05
0.000101172
0.000106644
5.97757e-05
2.11641e-05
0.00020487
0.000360104
0.000525237
0.000567434
0.000823484
0.00116727
0.00143844
0.00153619
0.00201811
0.00264434
0.00321751
0.00392551
0.00489366
0.00634649
0.00864441
0.0121635
0.017296
0.0243098
0.0333875
0.0445861
0.0578522
0.07301
0.0897893
0.107778
0.126535
0.145264
0.16333
0.17935
0.19265
0.202302
0.208362
0.21123
0.213754
0.21828
0.224629
0.232578
0.241821
0.25234
0.263976
0.276974
0.291501
0.30798
0.326894
0.348969
0.375237
0.407346
0.457288
0.557823
0.767784
1.18572
2.00522
3.65078
7.11329
14.5154
29.1243
52.6753
78.6422
96.678
105.438
109.17
110.921
112.096
113.266
114.42
115.595
116.808
118.08
119.43
120.88
122.451
124.165
126.048
128.125
130.425
132.978
135.816
138.973
142.485
146.39
150.727
155.537
160.861
166.742
173.222
180.343
188.149
196.682
205.982
216.09
227.045
238.886
251.647
265.363
280.066
295.784
312.543
330.366
349.272
369.277
390.392
412.625
435.976
460.446
486.025
512.703
540.46
569.279
599.126
629.974
661.781
694.509
728.103
762.519
797.692
833.568
870.073
907.148
944.711
982.695
1021.01
1059.6
1098.36
1137.22
1176.09
1214.89
1253.55
1291.97
1330.08
1367.8
1405.05
1441.74
1477.81
1513.17
1547.76
1581.5
1614.33
1646.18
1677
1706.72
1735.31
1762.7
1788.86
1813.75
1837.31
1859.51
1880.3
1899.66
1917.54
1933.91
1948.76
1962.04
1973.8
1983.82
1991.83
1996.67
1998.51
1999.28
1999.06
1998.74
1997.23
1993.68
1987.79
1981.1
1975.07
1970.04
1965.74
1961.81
1958.03
1954.33
1950.67
1947.09
1943.61
1940.24
1936.99
1933.87
1930.87
1927.99
1925.23
1922.61
1920.12
1917.77
1915.57
1913.51
1911.61
1909.87
1908.3
1906.91
1905.69
1904.67
1903.85
1903.24
1902.85
1902.68
1902.74
1903.03
1903.57
1904.32
1905.16
1905.54
1903.17
1890.31
1841.14
1694.2
1366.54
871.705
428.618
177.745
69.1293
26.5991
10.4307
4.22686
1.78798
0.80989
0.414109
0.249428
0.172259
0.116817
0.0537525
0.0146178
0.00651018
0.00225758
0.00194121
0.00179663
0.00162436
0.00154882
0.00143897
0.00139344
0.00131499
0.00128477
0.00122537
0.00120314
0.00115657
0.00113953
0.00110158
0.00108806
0.00105612
0.0010451
0.00101748
0.0010083
0.000983952
0.000976111
0.000954321
0.000947471
0.000927714
0.000921626
0.000903476
0.000897984
0.000881127
0.000876104
0.000860298
0.000855642
0.000840688
0.000836315
0.000822046
0.000817883
0.000804159
0.000800141
0.000786836
0.000782907
0.000769906
0.000766011
0.000753211
0.000749302
0.000736613
0.000732648
0.000719985
0.000715914
0.000703181
0.000698942
0.000686025
0.000681541
0.000668303
0.000663512
0.000649821
0.000644609
0.000630255
0.000624475
0.00060919
0.000602638
0.000586061
0.000578433
0.000560035
0.000550843
0.000529787
0.000518208
0.000493146
0.000477701
0.000446645
0.000423943
0.000383621
0.000346848
0.000283594
0.000241946
0.000189082
0.000171871
0.000180251
0.000202634
0.000239716
0.000186986
0.000215921
0.000270913
0.00030881
0.000360349
0.000393582
0.000476132
0.000503677
0.000529768
0.000515978
0.000499945
0.000464059
0.000445133
0.000424001
0.000422425
0.000428879
0.00043971
0.000464818
0.000486098
0.000518595
0.000543409
0.000578365
0.000601903
0.000635022
0.000653451
0.000679871
0.000691752
0.000706201
0.000710658
0.00071512
0.00070827
0.00070436
0.000688249
0.000676028
0.000646236
0.000624569
0.000579033
0.000546643
0.000481808
0.000440993
0.000361954
0.000317916
0.000233704
0.000187435
0.000209261
0.000236253
0.000384468
0.000296785
0.000429682
0.000570043
0.000666926
0.000496074
0.00063286
0.00083424
0.00100357
0.000713253
0.000495492
0.000278799
0.00032675
0.000598473
0.000833651
0.000947938
0.000700618
0.000385906
0.000440273
0.000764264
0.000980946
0.00119534
0.00143721
0.00122278
0.000866152
0.000680746
0.000779667
0.000998201
0.00100162
0.000810679
0.00088473
0.00111483
0.00137639
0.00147833
0.00110314
0.000903753
0.000959109
0.0012021
0.0011801
0.000969252
0.00101133
0.00126447
0.00155007
0.00160217
0.00122932
0.00101086
0.00104165
0.00130311
0.0012596
0.00103209
0.00105061
0.00132069
0.00162838
0.00163946
0.00127142
0.00103375
0.00103748
0.00132173
0.00126663
0.00101347
0.00101045
0.00130668
0.00162016
0.00158388
0.00124351
0.000974172
0.000965429
0.00127316
0.00119454
0.000919044
0.00090717
0.00122395
0.00153618
0.00145553
0.00114014
0.000856559
0.000844521
0.00117046
0.0010912
0.000799683
0.000791989
0.0011143
0.00134886
0.00112827
0.00104932
0.00076772
0.00077189
0.00105055
0.00098809
0.000774284
0.0007829
0.000933576
0.000802749
0.000549346
0.000826598
0.00078232
0.00077041
0.000656884
0.000565979
0.000771594
0.000693255
0.000529251
0.000505118
0.000481809
0.00043625
0.000631572
0.000495054
0.000358955
0.000315656
0.00036956
0.000261548
0.000328175
0.000522907
0.00063564
0.000372279
0.000223102
0.000294549
0.00036342
0.000400548
0.000282087
0.000274983
0.000427864
0.000847269
0.00111364
0.000543974
0.000275724
0.000293973
0.000552723
0.000745256
0.000371698
0.000410236
0.000731086
0.00138052
0.0016628
0.000952654
0.000519528
0.000569618
0.000931975
0.00115019
0.000676529
0.000717256
0.00111555
0.00191059
0.0021444
0.00131662
0.000801428
0.000826698
0.00126483
0.00145341
0.00089758
0.000911812
0.00138798
0.00235033
0.00254819
0.00157017
0.00097441
0.000981676
0.00149289
0.00167326
0.00103882
0.0010412
0.00158584
0.00273288
0.00291039
0.00176738
0.00109527
0.00109454
0.00167092
0.00185347
0.00114631
0.00114354
0.00175035
0.00308438
0.0032567
0.00193538
0.00119347
0.00118905
0.00182586
0.00201436
0.00123788
0.0012321
0.00189864
0.00342884
0.00360208
0.00209128
0.00128036
0.00127345
0.00196958
0.00216684
0.00132159
0.00131374
0.00203943
0.00377743
0.00395575
0.00224178
0.00136204
0.00135325
0.00210911
0.00231715
0.00140204
0.00139246
0.00217868
0.00413746
0.00432333
0.0023938
0.00144205
0.00143179
0.00224909
0.0024723
0.00148254
0.00147171
0.00232174
0.00451435
0.00471191
0.00255363
0.00152392
0.00151263
0.00239811
0.00263966
0.00156655
0.00155485
0.00247867
0.00491995
0.00514158
0.00273074
0.00161079
0.00159873
0.00256378
0.0028273
0.00165709
0.00164478
0.00265446
0.00538072
0.00564105
0.00293063
0.00170601
0.00169355
0.00275196
0.00304221
0.00175819
0.00174572
0.00285776
0.00592724
0.00624507
0.00316384
0.00181439
0.00180206
0.00297369
0.00329772
0.00187556
0.00186357
0.00310199
0.00660179
0.00700633
0.00344661
0.00194285
0.00193144
0.00324542
0.00361392
0.00201769
0.00200714
0.00340702
0.00746901
0.00800037
0.00380356
0.002102
0.00209281
0.00359055
0.00402261
0.00219862
0.00219145
0.00380427
0.00862273
0.00936928
0.00428018
0.00231131
0.00230709
0.00405786
0.00458908
0.00244527
0.00244548
0.00436569
0.0102874
0.011447
0.00496857
0.00260809
0.00261494
0.00474982
0.00545011
0.00281321
0.00283384
0.00524608
0.012962
0.0150306
0.00608147
0.0030808
0.00312426
0.00591193
0.00695485
0.00344873
0.00353121
0.00686435
0.0180418
0.0228933
0.00824405
0.00398782
0.00416082
0.00836248
0.0103573
0.00484399
0.0052839
0.0111718
0.032018
0.0702285
0.049263
0.0381219
0.0312982
0.0266533
0.0232624
0.0206651
0.0186084
0.0169318
0.0155155
0.0143082
0.013268