/*--------------------------------*- C++ -*----------------------------------*\
| =========                 |                                                 |
| \\      /  F ield         | OpenFOAM: The Open Source CFD Toolbox           |
|  \\    /   O peration     | Version:  v2006                                 |
|   \\  /    A nd           | Website:  www.openfoam.com                      |
|    \\/     M anipulation  |                                                 |
\*---------------------------------------------------------------------------*/
FoamFile
{
    version     2.0;
    format      ascii;
    class       volScalarField;
    location    "0.002";
    object      k;
}
// * * * * * * * * * * * * * * * * * * * * * * * * * * * * * * * * * * * * * //

dimensions      [0 2 -2 0 0 0 0];


internalField   nonuniform List<scalar> 
11076
(
35.4066
35.2462
39.0588
39.08
39.1165
38.8928
38.6529
38.2857
37.9412
37.6734
37.3738
37.0064
36.6247
36.2804
35.9679
35.66
35.346
35.0318
34.7213
34.4117
34.1004
33.787
33.4712
33.1526
32.8305
32.5049
32.1756
31.8427
31.5062
31.166
30.8225
30.4741
30.1103
29.7396
29.3769
29.0202
28.6683
28.3212
27.977
27.6346
27.2949
26.9589
26.6272
26.3005
25.9797
25.666
25.3602
25.0628
24.7741
24.4938
24.2217
23.9573
23.6998
23.4482
23.2007
22.9563
22.7137
22.4753
22.2424
22.0202
21.8003
21.5679
21.238
21.2646
21.1227
21.183
21.2664
21.3506
21.4559
21.4479
21.3211
19.5878
18.6333
21.4433
22.3078
22.6616
21.0761
17.3698
15.9069
20.0723
22.5045
21.6833
18.3467
14.2555
12.5692
16.3164
20.0055
17.7263
13.8713
10.9655
9.73122
11.6568
15.4228
13.2272
9.86674
8.88158
8.37705
8.79659
11.7119
10.7784
8.23683
8.05533
7.8691
8.10032
10.4852
10.4441
8.09743
7.73731
7.68857
8.30066
10.6756
11.1119
8.57503
7.64925
7.64585
8.99215
11.696
12.085
9.23107
7.63734
7.63964
9.60067
12.6028
12.9518
9.81802
7.63284
7.61656
10.0929
13.3492
13.5546
10.2013
7.5649
7.48768
10.2938
13.7147
13.735
10.2887
7.37527
7.20992
10.2856
13.7413
13.6608
10.1956
6.92142
6.5099
9.98276
13.4211
12.7262
9.45407
5.9503
5.30446
8.80233
11.7943
10.3882
7.74586
4.6638
4.16604
6.29035
8.61144
6.48543
4.72367
3.83357
3.64069
3.46885
4.43433
2.79917
2.7192
3.53481
3.47046
2.33664
1.72458
1.15676
2.19039
3.42505
3.38563
2.11884
0.873432
0.768664
2.10586
3.34814
3.30904
2.08651
0.715367
0.707149
2.08662
3.26889
3.22612
2.07346
0.695338
0.697734
2.072
3.18207
3.13546
2.05347
0.692214
0.695657
2.04802
3.088
3.03825
2.02307
0.691493
0.695771
2.01524
2.988
2.93565
1.98677
0.692266
0.696093
1.97693
2.88291
2.82811
1.94546
0.69097
0.692968
1.93298
2.77292
2.71593
1.89958
0.686552
0.688644
1.88409
2.65852
2.59935
1.85003
0.682769
0.684637
1.83105
2.53957
2.47809
1.79605
0.67853
0.680056
1.77365
2.41589
2.35203
1.73778
0.673731
0.67495
1.71187
2.28733
2.22102
1.67507
0.668497
0.669401
1.64577
2.15369
2.08478
1.60763
0.662826
0.663388
1.57482
2.01475
1.94314
1.53568
0.656705
0.656913
1.49941
1.87019
1.79569
1.4586
0.650124
0.649877
1.41858
1.71979
1.64255
1.37654
0.643393
0.641913
1.33362
1.5639
1.48413
1.29035
0.635268
0.631317
1.24427
1.40311
1.32133
1.19892
0.623245
0.615548
1.14911
1.2386
1.15551
1.10041
0.604989
0.593065
1.04529
1.07177
0.988116
0.992443
0.580413
0.564547
0.931462
0.904104
0.820563
0.870773
0.549515
0.529994
0.801649
0.737444
0.655792
0.736044
0.512534
0.49107
0.665859
0.575892
0.498567
0.597838
0.468392
0.446332
0.530077
0.424713
0.354287
0.463104
0.424669
0.400273
0.400747
0.289464
0.228569
0.339002
0.365741
0.324479
0.276659
0.173509
0.126705
0.215502
0.279339
0.24476
0.168696
0.0962397
0.0790546
0.132237
0.216303
0.198123
0.108145
0.0685733
0.0624844
0.0916398
0.183354
0.170938
0.0816731
0.0584224
0.0566796
0.0787251
0.16743
0.166817
0.0804906
0.0572635
0.0594971
0.0920724
0.177283
0.18967
0.108551
0.0657217
0.0735934
0.136443
0.218333
0.242575
0.165502
0.0839777
0.101167
0.206675
0.278318
0.306005
0.246273
0.122188
0.156332
0.295625
0.337367
0.366909
0.34552
0.198147
0.255037
0.397462
0.393123
0.417111
0.451317
0.321579
0.393858
0.501692
0.435706
0.452645
0.55549
0.471326
0.551265
0.605749
0.464537
0.478237
0.655318
0.631896
0.711323
0.698022
0.486137
0.495197
0.740869
0.788826
0.862791
0.775476
0.500353
0.505912
0.810185
0.933224
0.999137
0.83735
0.509607
0.512473
0.865013
1.06088
1.11775
0.88502
0.51498
0.516162
0.903033
1.1702
1.21806
0.917402
0.51811
0.518193
0.929265
1.26171
1.30134
0.940613
0.519568
0.518502
0.948231
1.33716
1.36961
0.957403
0.519562
0.518444
0.961737
1.39867
1.42499
0.969543
0.519834
0.519166
0.971601
1.44832
1.46934
0.977576
0.521093
0.520963
0.978493
1.4878
1.50441
0.984334
0.52488
0.527468
0.985631
1.51898
1.53238
0.994903
0.538166
0.550566
1.00229
1.54456
1.55701
1.02427
0.578365
0.612665
1.05036
1.57013
1.58531
1.09442
0.665674
0.720658
1.14136
1.6024
1.62305
1.19916
0.781678
0.821031
1.23995
1.64707
1.67226
1.2601
0.841158
0.853379
1.26998
1.69748
1.72009
1.28694
0.878215
0.915592
1.31828
1.74286
1.7685
1.36945
0.960803
1.00631
1.42871
1.79309
1.80978
1.48649
1.04996
1.1
1.54368
1.8172
1.8181
1.56951
1.13321
1.14645
1.57655
1.8033
1.77926
1.56977
1.14934
1.12883
1.51104
1.74014
1.66729
1.41742
1.08869
1.0671
1.33494
1.52036
1.29994
1.23447
1.04175
1.00752
1.08146
1.06656
0.996658
0.995202
0.995281
0.995581
0.995438
0.995429
0.995302
0.995354
0.99529
0.995318
0.995262
0.995329
0.995312
0.995352
0.995399
0.995844
0.996456
0.996715
0.995838
0.995893
0.997489
1.00056
1.00294
1.01816
1.04971
1.18137
0.615352
0.460518
1.26101
1.18446
1.40316
1.19001
0.358094
0.248991
0.964164
1.43107
1.53108
0.946452
0.201103
0.175331
0.896537
1.53206
1.57429
0.987801
0.180456
0.174293
0.988339
1.57507
1.62604
1.092
0.197901
0.191651
1.08013
1.63783
1.66868
1.13702
0.209721
0.200508
1.10686
1.66197
1.67091
1.15069
0.215657
0.206843
1.12378
1.65858
1.66406
1.17097
0.223609
0.214797
1.14854
1.65255
1.65963
1.19943
0.232216
0.223416
1.17965
1.65298
1.66168
1.22743
0.240881
0.231322
1.20027
1.65388
1.65646
1.24162
0.247545
0.238111
1.20929
1.641
1.63984
1.24625
0.253738
0.24412
1.20942
1.61911
1.61483
1.24353
0.258438
0.249072
1.20572
1.59008
1.58348
1.23778
0.263196
0.253987
1.20079
1.5574
1.54994
1.23332
0.268827
0.260323
1.2001
1.52459
1.51768
1.23337
0.277064
0.268978
1.205
1.49856
1.49181
1.2399
0.287556
0.279625
1.21426
1.47644
1.46551
1.24764
0.298655
0.289936
1.22146
1.45274
1.43591
1.25264
0.308325
0.298939
1.2257
1.42505
1.40337
1.25383
0.31717
0.307106
1.22648
1.39444
1.37155
1.25393
0.326026
0.316303
1.22965
1.36681
1.3493
1.25818
0.337197
0.327688
1.23656
1.34906
1.33703
1.26648
0.350775
0.342019
1.24857
1.33946
1.33136
1.2795
0.36795
0.359671
1.26433
1.33609
1.33014
1.29621
0.38883
0.381536
1.28485
1.33863
1.33294
1.31663
0.414927
0.408578
1.3081
1.34133
1.33329
1.3402
0.447913
0.443687
1.33516
1.34027
1.32767
1.36976
0.492272
0.493176
1.36513
1.33453
1.31732
1.3983
0.553635
0.568211
1.40153
1.32505
1.30074
1.43456
0.639703
0.66188
1.44602
1.30774
1.283
1.47917
0.731578
0.745148
1.49369
1.28618
1.26296
1.51565
0.801601
0.813489
1.54372
1.26935
1.23472
1.56753
0.873115
0.892531
1.58954
1.23511
1.19473
1.60505
0.982576
1.03589
1.63974
1.18875
1.14172
1.65006
1.14962
1.22664
1.6759
1.13275
1.08174
1.6814
1.36102
1.49986
1.70632
1.06696
1.0074
1.69682
1.64608
1.81597
1.70533
1.03502
0.817784
1.73132
1.98031
2.29995
1.31154
0.707882
0.669797
0.985521
2.02783
2.02247
0.844945
0.638495
0.668359
0.906308
2.26254
2.39018
0.873131
0.670122
0.671807
0.802238
2.3191
2.24976
0.771447
0.678628
0.688963
0.754055
2.1982
2.15552
0.753884
0.706112
0.728157
0.761372
2.12458
2.10207
0.757723
0.751586
0.808883
0.805388
2.10935
2.20308
0.804695
0.807902
0.837713
0.843433
2.28005
2.26475
0.848897
0.868535
0.906216
0.891396
2.27609
2.33487
0.885421
0.951551
0.977789
0.948452
2.47256
2.60493
1.05537
0.993483
1.03627
1.07463
2.73459
2.86383
1.10075
1.06605
1.09937
1.11789
2.8552
2.83054
1.11854
1.13617
1.19141
1.1808
2.81104
2.85202
1.18717
1.24112
1.282
1.25258
2.8159
2.73216
1.2837
1.33482
1.43653
1.39026
2.65162
2.59918
1.45287
1.46023
1.54433
1.52504
2.53306
2.47355
1.62889
1.62376
1.70425
1.70072
2.43271
2.40275
1.81008
1.77234
1.7953
1.88544
2.38496
2.3797
1.90714
1.84554
1.98439
2.037
2.39178
2.42096
2.09649
2.04491
2.2267
2.30523
2.45561
2.49479
2.45325
2.43607
2.47422
2.51632
2.5297
2.5849
2.57157
2.59051
2.6042
2.6417
2.62665
2.694
2.70499
2.77108
2.81589
2.80115
2.73124
2.79141
2.83611
2.88547
2.93113
2.81431
2.80227
2.74608
2.64889
2.75384
2.57471
2.49248
2.32066
2.58779
2.98576
3.11739
7.7996
6.10104
4.42674
6.00289
9.18169
11.0831
12.7437
10.8794
7.13588
7.60453
12.439
13.6692
11.7319
12.283
7.44343
7.05256
10.4971
9.93613
9.26386
8.93529
5.4308
5.78948
8.44395
8.15673
8.06277
8.24545
10.2091
10.8988
7.4853
7.87311
7.74347
7.08785
10.7666
10.6483
6.57309
7.6304
8.65178
6.01775
10.2942
10.0788
5.76578
7.94361
7.52886
5.47353
9.66316
9.31633
5.3228
9.10187
7.60005
5.20596
8.8971
8.98613
5.02223
6.89835
6.46576
5.00194
8.48081
7.8808
5.18304
7.46631
6.25845
4.88826
7.94864
11.2236
5.37111
5.66376
6.03179
3.91938
9.46007
10.1317
4.11779
4.38169
4.4247
4.52362
10.4792
9.85383
5.07825
4.55517
4.95124
3.59122
8.09641
8.74046
4.20734
4.48192
4.42789
4.40787
8.28108
6.99146
3.45786
5.45303
4.67693
3.55931
7.38283
7.44632
3.81119
4.45761
4.5607
4.25075
6.90551
5.72163
4.10833
5.92997
4.80025
3.5254
5.77483
5.16929
3.66338
4.30693
5.85403
3.98646
4.29016
3.97624
3.00554
4.25376
3.70991
2.95622
3.59885
3.15694
3.61704
5.30608
3.86965
2.56903
2.70541
2.47562
2.51542
3.43776
5.15425
3.30855
2.31997
1.70047
2.03809
3.75113
3.0016
1.73838
1.41316
1.26863
1.53131
2.58452
4.25597
2.75332
1.3017
0.783084
1.49129
2.93683
2.47412
1.21504
0.697389
0.846196
2.60269
4.04445
2.58897
1.13882
0.391142
0.350141
0.841015
2.0007
4.08154
2.85961
0.599845
0.197161
1.51422
3.04205
2.77581
1.06834
0.0967892
0.145213
1.51391
3.0668
2.29014
0.764791
0.0429551
0.219789
1.71729
3.15536
3.07347
1.41998
0.204947
0.105428
0.574977
1.77859
3.57347
2.6097
0.965924
0.605278
1.32411
2.38262
3.16942
2.24432
1.09953
1.07299
1.69353
2.74582
1.29886
0.792985
1.00952
1.2968
1.46605
2.26132
1.98506
1.31005
1.48508
1.61687
0.924953
1.07868
1.9093
1.29698
1.7065
1.97065
1.21005
1.69313
1.04902
1.0553
2.31857
2.15803
1.29105
1.79268
1.56858
1.32328
2.54657
3.16666
1.27862
1.15879
1.48145
1.30357
2.78905
3.53451
1.41869
1.18689
1.45713
1.28998
2.94059
3.49889
1.26362
1.22272
1.21068
1.92341
4.46026
3.67592
1.29478
1.23892
1.10553
1.2924
4.34463
5.44947
2.39762
1.25361
1.1344
1.14853
4.23243
5.56702
2.15647
1.19616
1.1816
1.28381
4.32965
5.1459
1.378
1.1065
1.37577
2.94348
6.60273
5.17063
1.47528
1.24476
1.20008
1.60947
6.10657
7.73278
3.56398
1.66789
1.31583
1.45479
5.87823
7.71618
3.0676
1.59267
1.33024
1.54363
5.86867
6.93145
1.74476
1.27616
1.92245
4.20927
8.85732
6.74133
1.66659
1.41011
1.8437
3.57377
8.75972
6.5823
1.68708
1.38468
1.35058
1.96146
7.73911
9.88743
4.72334
2.15702
1.47195
2.00211
7.60829
8.89665
2.27174
1.43702
2.51287
5.4187
11.2718
8.57063
2.02753
1.6143
2.34035
4.58024
11.0511
8.34283
1.99935
1.50556
1.50563
2.38012
9.75718
12.3597
6.00693
2.78086
1.7134
2.27048
9.42263
12.0513
5.04052
2.55822
1.56747
2.1434
8.98965
10.4773
2.55482
1.57979
3.00857
6.47237
13.2799
10.0666
2.45212
1.82805
2.83279
5.6146
12.9685
9.81685
2.39208
1.69093
1.7233
2.85885
11.409
14.4082
7.08337
3.34836
1.98398
2.68311
10.9752
14.0777
6.09407
3.10009
1.79426
2.55618
10.4999
12.1567
3.0679
1.83591
3.6317
7.61827
15.331
11.7301
2.952
2.13763
3.38107
6.55022
14.9473
11.2698
2.80926
1.93484
1.99437
3.38016
13.0469
16.4299
8.21278
3.97033
2.31691
3.20393
12.5629
16.0046
7.03186
3.6442
2.04726
2.98267
11.9922
13.7884
3.57697
2.11109
4.19824
8.6799
17.2068
13.1724
3.42974
2.46379
3.90601
7.44007
16.7736
12.7062
3.23506
2.19817
2.27569
3.87553
14.6308
18.3413
9.31562
4.54857
2.64911
3.68899
13.9516
17.7044
7.94076
4.18311
2.32414
3.40263
13.2133
15.2028
4.10395
2.40392
4.7794
9.67611
19.0229
14.5914
3.89421
2.80289
4.43803
8.34042
18.5057
14.0062
3.68029
2.48749
2.58092
4.40038
16.0792
20.0832
10.3102
5.11258
2.99028
4.15249
15.4115
19.4903
8.78442
4.69347
2.61749
3.82186
14.6249
16.7338
4.54038
2.711
5.33265
10.6644
20.8194
15.9807
4.337
3.14184
4.93775
9.18726
20.2382
15.2819
4.08104
2.7707
2.87538
4.86999
17.5108
21.8649
11.2763
5.65425
3.3206
4.58796
16.7264
21.0945
9.63746
5.19328
2.90378
4.24635
15.8626
18.1465
5.00558
3.00944
5.87848
11.6957
22.5816
17.2093
4.80145
3.4633
5.4376
10.036
21.7579
16.4773
4.51789
3.06287
3.18213
5.37887
18.9638
23.7207
12.2883
6.21973
3.66091
5.05535
18.1251
22.7027
10.4176
5.69032
3.19271
4.63034
16.9309
19.4944
5.45906
3.30938
6.41811
12.6027
24.2967
18.6153
5.22906
3.79942
5.93074
10.7946
23.403
17.6871
4.92806
3.35093
3.48037
5.79399
20.4001
25.4374
13.3207
6.75897
3.99691
5.52446
19.3802
24.1808
11.2154
6.18809
3.48169
5.04735
18.0429
20.8324
5.90159
3.60692
6.98091
13.6447
26.0855
19.9211
5.73498
4.14488
6.43359
11.5855
24.8277
18.7193
5.3188
3.64311
3.78852
6.26285
21.6919
27.0088
14.1336
7.27046
4.31749
5.95297
20.6036
25.556
11.9825
6.64345
3.73319
5.43384
18.9022
21.8863
6.31811
3.85231
7.34944
14.3998
27.1168
20.6046
6.25515
4.15212
4.24933
7.04196
23.8302
29.8831
15.606
8.11715
4.764
6.50257
22.5638
27.8377
13.0391
7.29986
4.11149
5.94058
20.7248
24.0373
6.83782
4.24922
8.15355
15.8242
30.0246
22.6787
6.69693
4.83109
7.46517
13.3278
28.1537
20.9388
6.07375
4.20984
4.37204
7.12404
24.2679
29.7917
15.9752
8.25292
4.66369
7.05897
22.6873
26.2318
7.64739
4.74349
9.02018
17.3204
33.0588
24.8439
7.24512
5.32112
8.18163
14.5335
30.918
22.9956
6.65347
4.62049
4.7646
7.73453
26.6634
32.5809
17.3962
8.96644
5.06284
7.61734
24.4525
28.3203
8.22956
5.12792
9.6622
18.4264
35.4076
26.3848
7.69806
5.68149
8.73787
15.6108
32.9659
24.4978
7.07299
4.89785
5.07972
8.242
28.4259
34.6175
18.6103
9.57709
5.3921
8.09486
25.8109
30.0631
8.95333
5.4844
10.3332
19.4398
37.3741
27.9279
8.26304
6.09542
9.3881
16.6393
35.0677
26.2394
7.68545
5.27496
5.44616
8.83288
30.4932
37.414
19.9546
10.2846
5.75484
8.66519
27.8343
32.359
9.51716
5.85045
10.9467
20.9905
40.0856
29.7397
9.12298
6.05287
6.101
9.9074
34.4195
42.414
22.4415
11.5248
6.32877
9.4842
31.2294
36.1012
10.3358
6.42387
12.1095
23.5169
44.2925
32.6313
9.98669
6.62662
6.64545
10.3609
37.4571
46.6948
24.5743
12.5807
6.86792
10.2613
34.1459
39.4639
11.1241
6.95171
13.1146
25.4182
48.3434
35.4303
10.6828
7.14105
7.1647
11.3952
40.9588
50.5201
25.8155
13.3546
7.27809
10.8688
37.0501
42.7908
11.7911
7.34198
14.038
27.4703
52.4804
38.3919
11.4832
7.57819
7.618
12.1525
44.1579
54.185
28.075
14.369
7.73467
11.4639
39.0614
45.1089
12.4533
7.78973
14.9187
29.339
56.1747
40.9182
12.2168
7.94611
7.96821
12.8361
46.8902
57.6877
29.3157
14.8561
7.82445
11.9534
41.5361
46.7945
13.9774
7.97002
8.60153
16.5172
54.7829
66.5572
35.3081
17.5028
8.94232
14.0572
48.0013
54.7018
16.8997
9.32327
9.45913
16.491
61.4316
75.0226
38.2921
18.6649
9.37056
14.7786
52.7793
58.7478
17.0576
9.54722
10.0203
19.0724
67.3646
79.5634
40.9182
20.1129
10.0371
15.8261
56.3857
63.9252
18.4149
10.2948
10.3186
19.1343
72.1115
84.6175
41.372
19.9318
9.64374
15.3386
56.9235
65.5311
17.0092
9.53616
9.50105
17.9181
72.4857
82.5606
24.3945
10.7981
10.465
22.7391
87.9909
101.699
50.8629
23.1286
10.652
18.1075
68.247
75.3385
17.5112
10.259
10.9056
23.6846
84.029
91.6587
22.4077
10.5464
11.1155
26.7058
97.5428
101.435
26.023
10.7858
11.3529
29.0859
100.785
98.7319
29.3392
11.2459
11.7535
31.4321
94.7434
88.8431
31.6363
11.6674
12.2315
33.4451
83.0769
77.4061
33.8412
12.1576
12.9044
35.9267
72.3168
67.5752
36.6073
12.8988
13.878
39.0837
63.5096
59.8525
39.6421
13.9291
15.118
41.5827
56.7197
53.9693
42.5232
15.2638
16.7286
43.7361
51.5761
49.5159
44.6973
16.9486
18.7202
45.3859
47.6948
46.1505
46.2032
18.9965
20.8723
46.7353
44.768
43.6272
47.4275
21.1263
23.0121
47.8878
42.5748
41.7756
48.5108
23.2959
25.194
48.8797
40.9525
40.4539
49.3958
25.462
27.383
49.6963
39.8038
39.5617
50.1041
27.6178
29.4524
50.332
39.0659
38.9791
50.6373
29.6105
31.334
50.8243
38.6435
38.647
51.0597
31.4461
33.0352
51.1973
38.4734
38.5274
51.3713
33.0713
34.5315
51.479
38.4632
38.57
51.6243
34.5235
35.8187
51.6681
38.5454
38.7511
51.7916
35.7451
36.9237
51.8078
38.7522
39.0097
51.916
36.8317
37.8654
51.9065
39.0339
39.3353
51.9936
37.7296
38.657
51.975
39.3819
39.7228
52.0538
38.4965
39.3073
52.0266
39.7881
40.1564
52.0934
39.1133
39.8415
52.064
40.2371
40.6278
52.1289
39.6314
40.2682
52.0965
40.7221
41.1294
52.1555
40.0334
40.6094
52.1259
41.2358
41.6565
52.1874
40.3655
40.8717
52.159
41.7732
42.2032
52.2188
40.6103
41.0748
52.1968
42.3294
42.7677
52.266
40.81
41.2232
52.2481
42.9023
43.3457
52.3187
40.9461
41.3334
52.3084
43.4879
43.9359
52.3885
41.057
41.4083
52.3837
44.0848
44.5353
52.4655
41.1236
41.4665
52.4723
44.6906
45.1434
52.5609
41.1839
41.5107
52.5805
45.3046
45.758
52.6645
41.2125
41.5318
52.7022
45.9246
46.3789
52.7908
41.2351
41.542
52.8399
46.5501
47.0029
52.9227
41.2327
41.5368
52.9883
47.1781
47.6297
53.0753
41.2305
41.5249
53.1513
47.8082
48.2565
53.2309
41.2064
41.5008
53.3229
48.4383
48.885
53.4057
41.1862
41.4729
53.5098
49.07
49.5145
53.5857
41.1466
41.4376
53.7059
49.7032
50.1475
53.7913
41.1201
41.4107
53.915
50.3393
50.7823
54.0026
41.0858
41.3842
54.1392
50.9775
51.4203
54.2334
41.0655
41.3586
54.3723
51.6183
52.0593
54.4639
41.0265
41.3267
54.6162
52.2605
52.7014
54.7163
41.0012
41.2996
54.8711
52.905
53.3438
54.9671
40.9619
41.2703
55.1352
53.5502
53.9885
55.2416
40.9406
41.249
55.4137
54.1969
54.6323
55.5177
40.908
41.2299
55.7036
54.8426
55.2765
55.8192
40.8994
41.2245
56.0101
55.4881
55.9173
56.1255
40.8848
41.2264
56.3314
56.1335
56.5551
56.4607
40.8989
41.2454
56.6728
56.7769
57.1907
56.8015
40.9113
41.2776
57.0316
57.4144
57.8237
57.1769
40.9592
41.3327
57.4142
58.0486
58.4505
57.56
41.0092
41.4044
57.8146
58.6767
59.0697
57.9665
41.0988
41.5083
58.2602
59.3024
59.6771
58.3661
41.1955
41.6387
58.7147
59.9183
60.2781
58.8008
41.3354
41.7799
59.188
60.5215
60.8693
59.244
41.4671
41.9359
59.6522
61.1106
61.4488
59.7038
41.6301
42.0884
60.1298
61.686
62.014
60.1597
41.7684
42.24
60.5929
62.2464
62.5657
60.6225
41.9235
42.3803
61.0756
62.794
63.1045
61.0904
42.0489
42.5338
61.55
63.3266
63.6295
61.5785
42.2118
42.7068
62.0576
63.846
64.1395
62.0727
42.3763
42.9097
62.5528
64.3477
64.6332
62.5809
42.5909
43.1209
63.0705
64.8342
65.11
63.0814
42.7893
43.3357
63.5649
65.302
65.5707
63.5883
43.0082
43.5382
64.0822
65.7556
66.0158
64.0899
43.1935
43.7519
64.5855
66.1913
66.445
64.6103
43.4158
43.9809
65.1164
66.6125
66.8576
65.1279
43.6356
44.2396
65.6295
67.0146
67.2538
65.657
43.9065
44.503
66.1657
67.4023
67.633
66.1784
44.1545
44.7696
66.675
67.7705
67.9959
66.7054
44.4259
45.0325
67.2106
68.1251
68.3426
67.232
44.6747
45.3188
67.7217
68.4597
68.6728
67.7643
44.9739
45.6169
68.2585
68.7815
68.9868
68.2955
45.2593
45.9255
68.7661
69.0837
69.283
68.8251
45.5736
46.2246
69.2932
69.3735
69.5636
69.356
45.8555
46.5415
69.7983
69.6459
69.8258
69.8878
46.1851
46.8699
70.3228
69.9022
70.0747
70.419
46.5025
47.2156
70.824
70.1426
70.3061
70.9441
46.8576
47.5494
71.335
70.3672
70.5242
71.4638
47.1731
47.8903
71.8258
70.5777
70.7268
71.9794
47.5232
48.2301
72.3249
70.7737
70.9172
72.4896
47.8498
48.5898
72.8136
70.9574
71.094
72.9931
48.2211
48.9458
73.3059
71.1274
71.2578
73.4755
48.5606
49.3105
73.7943
71.2859
71.4107
73.9608
48.9347
49.6649
74.2647
71.4323
71.5505
74.4193
49.2718
50.0268
74.7302
71.5674
71.6827
74.893
49.6436
50.3801
75.188
71.6937
71.8022
75.3286
49.98
50.7425
75.6288
71.8087
71.9155
75.7806
50.3538
51.0962
76.0668
71.917
72.0174
76.1973
50.6899
51.4516
76.4844
72.015
72.1119
76.6184
51.0543
51.7922
76.8926
72.1062
72.1977
77.0116
51.3776
52.1379
77.2877
72.1883
72.2759
77.4065
51.7331
52.4706
77.6667
72.2631
72.3458
77.7694
52.0491
52.8051
78.0333
72.3301
72.41
78.1368
52.393
53.1184
78.3822
72.3913
72.4685
78.4636
52.6852
53.4221
78.7146
72.4484
72.5268
78.7877
52.9905
53.6903
79.0244
72.5047
72.6042
79.1032
53.2648
53.9609
79.3302
72.5882
72.69
79.3858
53.5306
54.1586
79.6039
72.6748
72.8231
79.5966
53.6786
54.2394
79.8377
72.825
73.0546
79.7698
53.0132
52.4407
79.7742
73.3113
73.8808
79.0026
50.6885
44.1702
77.2193
74.9128
75.3877
74.5651
39.5763
34.2
71.4032
76.5084
9.4918
2.61864
1.63309
1.07665
0.744191
0.78156
0.779605
0.771369
0.77224
0.768559
0.767636
0.765253
0.763512
0.761345
0.758352
0.75466
0.751439
0.748807
0.746782
0.745102
0.743811
0.742752
0.741885
0.741203
0.740637
0.740239
0.73986
0.73968
0.739481
0.739436
0.739354
0.740027
0.740359
0.741451
0.742163
0.743972
0.745107
0.747546
0.749212
0.752016
0.754173
0.757428
0.760045
0.763607
0.766516
0.770508
0.773504
0.777772
0.781084
0.785391
0.78921
0.793532
0.797835
0.802403
0.807161
0.812142
0.817392
0.82292
0.828748
0.834866
0.841288
0.848025
0.855034
0.862315
0.869836
0.877593
0.885533
0.89365
0.901898
0.910283
0.918719
0.927217
0.935663
0.944039
0.952224
0.960186
0.967834
0.975131
0.982027
0.988444
0.994321
0.999605
1.00424
1.00821
1.01143
1.01377
1.0151
1.0157
1.01585
1.01515
1.01326
1.01121
1.00755
1.00422
0.999922
0.994873
0.989778
0.984187
0.978003
0.971584
0.965138
0.958431
0.951654
0.944929
0.938004
0.931123
0.924475
0.917643
0.911161
0.904627
0.898341
0.892124
0.886039
0.880064
0.874188
0.868459
0.862988
0.857742
0.852646
0.847573
0.842545
0.837719
0.833093
0.828543
0.824031
0.819706
0.815516
0.811396
0.807401
0.803537
0.799766
0.79612
0.792592
0.78918
0.785898
0.782736
0.779715
0.776825
0.774071
0.771441
0.768914
0.766478
0.764112
0.761805
0.75949
0.757007
0.7557
0.755547
0.757295
0.766336
0.796459
0.884899
1.12944
1.7689
3.31482
6.56955
11.7977
17.3076
21.7182
25.2723
28.0262
30.0858
31.6013
32.6537
33.229
33.4102
33.3161
32.927
32.266
31.3547
30.2311
28.9595
27.6427
26.4709
25.8907
26.0863
27.7213
30.814
30.9277
31.1663
31.2793
31.1244
30.9009
30.7681
30.7706
30.7541
30.6248
30.4697
30.3646
30.3015
30.2325
30.1439
30.0556
29.9744
29.8924
29.8074
29.7224
29.6375
29.5518
29.464
29.373
29.2774
29.1748
29.0635
28.9418
28.809
28.6652
28.5119
28.3511
28.1836
28.0148
27.8436
27.6678
27.486
27.2939
27.0908
26.876
26.65
26.4161
26.1775
25.9376
25.6988
25.4634
25.2336
25.0116
24.7992
24.5979
24.4084
24.2315
24.0682
23.9197
23.7895
23.6779
23.5783
23.4727
23.3324
23.1441
22.9841
23.048
23.147
23.1522
22.6787
21.074
19.2242
17.1667
15.5319
14.3278
13.859
13.7814
14.0324
14.6589
15.4847
16.1286
16.8886
17.4473
18.044
18.3984
18.6746
18.7398
18.7517
18.6545
18.3507
17.4697
16.2699
14.4893
12.397
9.80736
7.17921
4.72354
2.8909
1.72693
1.1203
0.837148
0.717781
0.669383
0.650876
0.64378
0.641311
0.640369
0.64016
0.640116
0.640416
0.64048
0.640743
0.640739
0.641033
0.641067
0.641465
0.641533
0.641993
0.642043
0.642574
0.642611
0.64322
0.643242
0.643932
0.643945
0.644728
0.644746
0.645577
0.645586
0.646289
0.646245
0.64657
0.646044
0.645972
0.644384
0.643419
0.641121
0.639382
0.636629
0.634122
0.63081
0.626916
0.622973
0.616971
0.612256
0.604775
0.600104
0.594932
0.591132
0.583203
0.577307
0.566734
0.562417
0.555291
0.548231
0.54409
0.539818
0.539067
0.531218
0.534995
0.532324
0.539781
0.543799
0.55559
0.562769
0.575059
0.584011
0.593104
0.599883
0.605
0.610647
0.613252
0.616877
0.618042
0.619663
0.61963
0.620407
0.620224
0.62114
0.621072
0.622183
0.622222
0.623458
0.623575
0.624866
0.625026
0.62665
0.627109
0.629678
0.631353
0.636823
0.6432
0.65732
0.676275
0.707639
0.745128
0.791539
0.830173
0.847613
0.85524
0.861027
0.869184
0.882165
0.897441
0.913628
0.928694
0.94457
0.958743
0.972498
0.981524
0.984828
0.986908
0.98982
0.993742
0.986793
0.977398
0.976877
0.987115
0.986911
0.978885
0.965059
0.970209
0.970705
0.961947
0.960001
0.948512
0.950181
0.935552
0.932224
0.939242
0.916941
0.922003
0.923555
0.914534
0.912043
0.907891
0.908243
0.903153
0.901984
0.902732
0.894848
0.898325
0.897043
0.891437
0.893336
0.889404
0.886033
0.883116
0.884064
0.887534
0.874174
0.882278
0.880239
0.876169
0.877294
0.86939
0.8655
0.841023
0.847266
0.8437
0.805195
0.819954
0.804166
0.779991
0.799863
0.779088
0.754058
0.743772
0.769961
0.777452
0.762958
0.758591
0.731034
0.729464
0.757768
0.75272
0.724213
0.724823
0.754184
0.758662
0.758566
0.751916
0.722574
0.723893
0.754306
0.753188
0.722668
0.725134
0.757585
0.760611
0.767065
0.756851
0.724264
0.727918
0.763751
0.76339
0.727266
0.732568
0.772822
0.776187
0.791082
0.772878
0.732336
0.739983
0.78609
0.787237
0.740739
0.751715
0.804913
0.811766
0.83496
0.80677
0.753561
0.767647
0.826711
0.829095
0.769931
0.784945
0.853539
0.861763
0.894276
0.857333
0.787374
0.803191
0.887469
0.891591
0.804646
0.820124
0.926236
0.933727
0.981125
0.928274
0.819562
0.830978
0.96546
0.963323
0.828348
0.834684
0.999704
1.03676
1.09192
0.992762
0.830596
0.832814
1.02636
1.01383
0.830074
0.830911
1.04151
1.13719
1.16442
1.02578
0.833564
0.829539
1.0366
1.02647
0.837605
0.827572
1.01826
1.16762
1.15295
1.02503
0.838416
0.828874
1.00608
1.02579
0.839882
0.833216
1.00267
1.12681
1.09568
1.01941
0.841008
0.835925
0.996096
1.0081
0.842213
0.835844
0.982513
1.06182
1.02818
0.990188
0.839854
0.832309
0.964396
0.969501
0.835646
0.828346
0.945531
0.997827
0.97167
0.949062
0.830984
0.823191
0.927554
0.930113
0.825044
0.816722
0.910659
0.948639
0.928429
0.912621
0.81796
0.809452
0.895191
0.896825
0.810286
0.801683
0.881116
0.910819
0.89526
0.88252
0.802025
0.793176
0.868041
0.869273
0.793291
0.78457
0.855639
0.881171
0.867819
0.856732
0.784651
0.776312
0.843658
0.844593
0.776425
0.768516
0.832048
0.854707
0.842069
0.832859
0.768637
0.761206
0.82108
0.821843
0.761392
0.754675
0.811044
0.830232
0.819325
0.811808
0.754976
0.748968
0.802081
0.802829
0.749377
0.743989
0.793985
0.809905
0.801523
0.794739
0.744475
0.739576
0.786574
0.787253
0.740118
0.735641
0.779878
0.793421
0.785931
0.780562
0.736253
0.732179
0.773826
0.774403
0.732859
0.729084
0.768032
0.778895
0.775577
0.768453
0.729764
0.726106
0.762814
0.764468
0.726704
0.723538
0.761864
0.777122
0.794632
0.767818
0.724845
0.723482
0.768716
0.791431
0.728774
0.732075
0.812005
0.873288
1.15788
0.899574
0.75767
0.800528
1.01228
1.33682
0.935768
1.19844
1.80036
2.04562
4.34698
2.81664
1.81633
2.86827
4.16232
6.35392
4.68243
6.93378
8.71266
8.85478
14.8656
11.6953
9.76871
12.387
14.2571
17.0761
15.1593
17.1793
18.9402
20.1663
22.9414
20.8568
19.1565
20.2895
21.8039
22.7824
21.276
21.5717
22.9742
23.9805
24.1668
23.2421
21.7317
21.6524
23.0464
23.027
21.5871
21.1324
22.416
23.7488
22.5661
22.0375
20.7224
19.9002
21.0536
20.4048
19.2459
18.2638
19.3055
20.9076
19.5176
18.6242
17.5202
16.5863
17.7403
17.5917
16.1408
15.9665
17.4164
19.1983
19.8521
17.8708
16.2482
16.8604
18.4965
19.6384
18.1347
19.4779
20.7283
21.432
22.7262
21.839
21.032
22.2836
22.7116
22.8189
21.9182
20.7165
20.1782
20.4296
21.5071
22.9392
24.0403
24.5246
24.428
23.6735
21.6172
17.4142
11.6625
6.37274
3.10583
1.60348
1.03504
0.848551
0.795955
0.785352
0.7855
0.790154
0.799835
0.8091
0.818739
0.82987
0.842136
0.855294
0.868764
0.882142
0.895801
0.91056
0.92714
0.945712
0.966666
0.989604
1.01486
1.04447
1.07834
1.11714
1.15732
1.19589
1.2159
1.20852
1.17297
1.11923
1.05958
1.00459
0.95582
0.913635
0.877178
0.845811
0.819461
0.79631
0.776305
0.76339
0.757085
0.7551
0.755145
0.760173
0.775634
0.802941
0.84071
0.873733
0.886335
0.892717
0.901835
0.91918
0.942132
0.965158
0.979228
0.979627
0.987924
0.98782
0.988361
0.979754
0.979569
0.988121
0.988324
0.979824
0.965177
0.965232
0.979691
0.98822
0.988402
0.979914
0.979705
0.98822
0.988346
0.979818
0.965293
0.965515
0.979674
0.988202
0.988661
0.980033
0.979393
0.988405
0.99171
0.985852
0.96839
0.969738
0.980844
0.989006
0.988475
0.980965
0.980987
0.991178
0.998361
0.996908
1.00851
1.01009
1.00272
1.01913
1.02843
1.14832
1.08871
1.28495
1.07473
1.06335
1.32218
1.44453
1.10943
1.01102
0.978376
0.966721
1.00372
1.13886
1.08519
1.45041
1.53412
1.52721
1.10303
1.15825
1.0041
0.963396
0.945694
0.94451
0.943019
0.943452
0.943436
0.94317
0.920502
0.920824
0.920792
0.920133
0.902356
0.90274
0.902828
0.90259
0.892987
0.893145
0.886916
0.88663
0.874401
0.875164
0.875188
0.886774
0.892981
0.892858
0.886727
0.875214
0.844978
0.844829
0.844326
0.842514
0.805127
0.806917
0.77864
0.777472
0.76144
0.762142
0.762752
0.779173
0.807617
0.807539
0.778734
0.762028
0.756724
0.757533
0.756587
0.755953
0.755809
0.756544
0.758653
0.757649
0.763559
0.765171
0.767313
0.760178
0.757675
0.756952
0.759754
0.767665
0.771668
0.761572
0.757791
0.7571
0.761423
0.777409
0.806097
0.843731
0.875076
0.887167
0.893502
0.903027
0.92095
0.922811
0.942082
0.946921
0.994406
0.995419
0.983609
0.924989
0.921387
0.906022
0.89608
0.888125
0.875608
0.880915
0.88825
0.892571
0.899799
0.906804
0.910393
0.956539
0.974528
1.17997
1.13503
1.19489
1.14082
1.19265
1.13189
1.18014
1.11702
1.58043
1.5933
1.63217
1.61286
1.64691
1.62375
1.64538
1.60679
1.6169
1.56083
1.11501
1.14407
1.07171
1.5045
1.56944
1.51194
1.08929
0.937906
0.919952
1.03705
1.02187
1.4418
1.44786
1.37789
0.98188
0.995499
0.899913
0.889722
0.873279
0.863767
0.876063
0.862519
0.847895
0.806979
0.776384
0.759712
0.744119
0.76075
0.769363
0.799315
0.816584
0.849232
0.815165
0.836592
0.869426
0.865182
0.892485
0.888503
0.925063
0.917115
0.955249
0.946381
1.31942
1.38454
1.32572
1.26151
1.2674
1.2077
1.21381
1.15727
1.16358
1.11179
0.841136
0.839614
0.812256
1.06113
1.11729
1.06256
0.80444
0.76624
0.737898
0.752798
0.772738
0.999091
0.995241
0.924979
0.727773
0.706662
0.694733
0.678544
0.654805
0.652841
0.74428
0.737267
0.754493
0.754631
0.758574
0.768022
0.754698
0.750237
0.741763
0.742706
0.737004
0.740682
0.646581
0.643967
0.617085
0.620147
0.624583
0.631708
0.641154
0.653136
0.666039
0.685009
0.862037
0.921159
0.863823
0.819151
0.824627
0.793255
0.802414
0.778171
0.788697
0.769574
0.614488
0.612625
0.613117
0.762206
0.780783
0.773088
0.611932
0.644452
0.651289
0.611704
0.612763
0.756091
0.767337
0.748468
0.613962
0.612853
0.65106
0.661112
0.662852
0.677142
0.764381
0.770359
0.787224
0.79193
0.786479
0.783952
0.779403
0.776708
0.798317
0.804747
0.83341
0.822693
0.85077
0.864875
0.87356
0.839034
0.809481
0.810157
0.838213
0.872092
0.916782
0.917994
0.904903
0.884811
0.925317
0.952129
1.01202
0.973252
1.02971
1.07551
1.17947