/*--------------------------------*- C++ -*----------------------------------*\
| =========                 |                                                 |
| \\      /  F ield         | OpenFOAM: The Open Source CFD Toolbox           |
|  \\    /   O peration     | Version:  v2006                                 |
|   \\  /    A nd           | Website:  www.openfoam.com                      |
|    \\/     M anipulation  |                                                 |
\*---------------------------------------------------------------------------*/
FoamFile
{
    version     2.0;
    format      ascii;
    class       volScalarField;
    location    "0.002";
    object      T;
}
// * * * * * * * * * * * * * * * * * * * * * * * * * * * * * * * * * * * * * //

dimensions      [0 0 0 1 0 0 0];


internalField   nonuniform List<scalar> 
11076
(
299.336
299.332
299.419
299.419
299.418
299.414
299.412
299.41
299.411
299.413
299.414
299.415
299.417
299.42
299.424
299.428
299.433
299.439
299.445
299.451
299.458
299.466
299.474
299.482
299.49
299.499
299.507
299.516
299.525
299.534
299.543
299.552
299.561
299.57
299.579
299.587
299.596
299.604
299.612
299.62
299.627
299.634
299.641
299.648
299.655
299.661
299.667
299.672
299.677
299.682
299.687
299.691
299.695
299.698
299.701
299.704
299.705
299.706
299.707
299.707
299.706
299.704
299.696
299.696
299.692
299.696
299.698
299.699
299.701
299.703
299.707
299.721
299.758
299.735
299.726
299.758
299.771
299.795
299.839
299.813
299.8
299.851
299.865
299.89
299.941
299.919
299.906
299.962
299.973
299.99
300.031
300.017
300.011
300.055
300.059
300.075
300.116
300.095
300.091
300.123
300.13
300.152
300.191
300.164
300.153
300.182
300.196
300.226
300.263
300.23
300.209
300.235
300.257
300.289
300.315
300.281
300.255
300.273
300.303
300.341
300.364
300.323
300.288
300.295
300.334
300.378
300.394
300.338
300.293
300.287
300.343
300.413
300.427
300.345
300.278
300.259
300.336
300.412
300.234
300.264
300.197
299.978
299.929
299.399
297.727
299.051
299.422
298.631
297.925
296.03
294.529
296.794
297.778
296.827
295.644
293.334
292.504
294.547
295.841
294.784
293.529
292.018
291.773
292.727
293.771
292.907
292.186
291.667
291.624
291.879
292.301
291.934
291.722
291.614
291.615
291.652
291.74
291.645
291.622
291.622
291.633
291.616
291.604
291.591
291.618
291.645
291.655
291.623
291.591
291.594
291.632
291.665
291.672
291.639
291.599
291.608
291.648
291.681
291.686
291.654
291.614
291.62
291.66
291.692
291.697
291.664
291.625
291.63
291.668
291.7
291.701
291.67
291.632
291.635
291.672
291.701
291.7
291.673
291.636
291.637
291.672
291.7
291.697
291.669
291.635
291.632
291.667
291.694
291.689
291.662
291.628
291.624
291.658
291.684
291.675
291.65
291.618
291.612
291.644
291.667
291.656
291.634
291.603
291.594
291.624
291.647
291.633
291.611
291.583
291.572
291.6
291.62
291.602
291.584
291.558
291.544
291.57
291.588
291.568
291.552
291.528
291.512
291.535
291.551
291.529
291.514
291.493
291.475
291.496
291.511
291.489
291.475
291.455
291.435
291.456
291.469
291.443
291.433
291.415
291.395
291.412
291.423
291.397
291.389
291.373
291.352
291.367
291.376
291.35
291.343
291.33
291.308
291.322
291.329
291.304
291.296
291.285
291.263
291.275
291.284
291.256
291.251
291.241
291.218
291.228
291.234
291.208
291.202
291.194
291.171
291.18
291.184
291.156
291.153
291.147
291.122
291.128
291.133
291.105
291.102
291.098
291.072
291.076
291.08
291.053
291.05
291.047
291.023
291.026
291.029
291.002
291
290.998
290.973
290.976
290.979
290.954
290.951
290.95
290.926
290.928
290.931
290.908
290.905
290.904
290.881
290.882
290.885
290.863
290.86
290.858
290.837
290.84
290.843
290.825
290.82
290.817
290.796
290.8
290.804
290.788
290.784
290.779
290.762
290.768
290.772
290.756
290.752
290.746
290.731
290.74
290.743
290.732
290.726
290.716
290.702
290.713
290.719
290.71
290.703
290.69
290.675
290.69
290.699
290.69
290.681
290.664
290.652
290.671
290.682
290.674
290.661
290.64
290.63
290.652
290.666
290.662
290.643
290.619
290.608
290.632
290.653
290.646
290.625
290.6
290.589
290.616
290.641
290.635
290.606
290.579
290.571
290.598
290.626
290.62
290.591
290.563
290.553
290.58
290.612
290.605
290.574
290.547
290.539
290.568
290.598
290.594
290.561
290.532
290.522
290.553
290.586
290.583
290.545
290.514
290.512
290.536
290.576
290.566
290.537
290.523
290.556
290.551
290.555
290.558
290.596
290.646
290.846
290.71
290.573
290.613
290.945
291.22
291.878
291.379
290.716
290.939
292.123
292.937
294.523
293.298
291.347
292.068
294.995
296.643
299.024
297.14
293.222
294.906
299.172
300.127
300.356
300.027
297.022
299.25
300.294
300.379
300.363
300.363
300.237
300.396
300.357
300.307
300.26
300.296
300.388
300.322
300.253
300.242
300.232
300.237
300.251
300.221
300.219
300.214
300.185
300.193
300.205
300.177
300.16
300.154
300.134
300.134
300.142
300.111
300.118
300.117
300.089
300.092
300.096
300.072
300.068
300.066
300.046
300.047
300.048
300.027
300.028
300.027
300.008
300.008
300.009
300.008
300.008
300.007
300.008
300.008
300.008
300.008
300.008
300.008
300.008
300.008
300.008
300.008
300.008
300.008
300.008
300.008
300.007
300.007
300.006
300.004
300.003
300.004
300.004
300.004
300.004
300.003
300.011
300.011
300.011
300.022
300.023
300.024
300.033
300.031
300.029
300.044
300.046
300.046
300.054
300.054
300.051
300.068
300.068
300.071
300.088
300.078
300.076
300.091
300.094
300.111
300.13
300.108
300.099
300.116
300.128
300.153
300.171
300.145
300.127
300.146
300.165
300.19
300.209
300.18
300.159
300.177
300.199
300.234
300.255
300.214
300.189
300.208
300.238
300.279
300.28
300.255
300.221
300.244
300.272
300.265
300.088
300.252
300.255
300.261
300.217
299.889
299.357
300.053
300.238
300.22
299.944
299.056
298.346
299.592
300.117
300.061
299.414
297.956
297.158
298.893
299.844
299.755
298.675
296.742
295.89
298.047
299.433
299.321
297.797
295.433
294.603
297.084
298.907
298.774
296.802
294.15
293.401
295.995
298.248
298.07
295.64
292.981
292.37
294.764
297.395
297.121
294.307
292.019
291.589
293.461
296.172
295.642
292.974
291.319
291.043
292.264
294.466
293.796
291.866
290.91
290.776
291.42
292.838
292.295
291.177
290.702
290.635
290.943
291.699
291.366
290.81
290.603
290.581
290.701
291.049
290.878
290.644
290.57
290.559
290.594
290.733
290.658
290.577
290.563
290.57
290.566
290.6
290.573
290.564
290.569
290.561
290.558
290.554
290.543
290.555
290.562
290.569
290.555
290.538
290.532
290.555
290.57
290.57
290.556
290.531
290.528
290.556
290.57
290.569
290.557
290.53
290.528
290.555
290.569
290.569
290.555
290.529
290.526
290.553
290.568
290.571
290.552
290.525
290.522
290.551
290.572
290.57
290.548
290.52
290.517
290.55
290.572
290.57
290.548
290.518
290.515
290.549
290.571
290.569
290.545
290.514
290.51
290.544
290.567
290.571
290.544
290.509
290.504
290.544
290.571
290.564
290.539
290.501
290.492
290.533
290.555
290.549
290.525
290.487
290.473
290.519
290.547
290.543
290.508
290.475
290.443
290.508
290.537
290.529
290.473
290.427
290.41
290.454
290.49
290.48
290.423
290.387
290.389
290.424
290.473
290.462
290.412
290.38
290.366
290.394
290.446
290.425
290.372
290.353
290.338
290.353
290.408
290.387
290.33
290.32
290.303
290.31
290.368
290.347
290.282
290.279
290.254
290.256
290.322
290.31
290.229
290.227
290.212
290.21
290.277
290.257
290.172
290.178
290.153
290.143
290.214
290.203
290.092
290.086
290.061
290.059
290.177
290.141
290.013
290.015
289.958
289.98
290.105
290.031
289.912
289.913
289.858
289.864
289.949
289.873
289.76
289.785
289.721
289.681
289.748
289.651
289.572
289.619
289.542
289.49
289.492
289.352
289.375
289.467
289.425
289.299
289.146
288.993
289.215
289.297
289.241
289.098
288.817
288.693
289.078
289.25
289.137
289.012
288.569
288.524
288.981
289.158
289.18
289.01
288.483
288.494
289.014
289.191
289.206
289.048
288.461
288.5
289.091
289.287
289.247
288.865
288.575
288.734
288.469
288.704
288.512
288.508
289.133
289.454
288.767
288.617
288.885
289.367
289.814
290.1
289.782
289.497
289.764
290.111
290.287
290.409
290.277
290.111
290.141
290.298
290.403
290.414
290.39
290.242
290.648
290.873
290.959
291.166
290.882
290.712
290.586
290.715
291.004
290.798
290.508
290.424
290.365
290.417
290.702
290.699
290.544
290.428
290.313
290.62
290.723
290.729
290.463
289.944
289.675
290.073
290.999
290.989
289.54
289.519
289.474
289.303
289.651
289.21
289.246
289.498
289.437
289.199
289.098
288.988
289.151
289.385
289.412
289.135
288.893
288.803
289.018
289.247
289.177
288.958
288.74
288.648
288.92
289.214
289.016
288.77
288.575
288.514
288.686
288.93
288.832
288.617
288.475
288.449
288.624
288.884
288.692
288.462
288.395
288.336
288.393
288.596
288.649
288.431
288.349
288.311
288.364
288.433
288.435
288.359
288.305
288.287
288.324
288.406
288.517
288.412
288.3
288.269
288.337
288.442
288.408
288.324
288.273
288.29
288.431
288.568
288.475
288.35
288.259
288.258
288.343
288.446
288.415
288.311
288.239
288.259
288.429
288.564
288.452
288.318
288.208
288.201
288.29
288.373
288.525
288.391
288.212
288.157
288.259
288.383
288.301
288.228
288.146
288.151
288.305
288.431
288.298
288.185
288.094
288.082
288.159
288.235
288.372
288.248
288.099
288.057
288.144
288.251
288.189
288.117
288.051
288.011
288.074
288.14
288.212
288.125
288.021
287.947
288.018
288.097
288.061
287.997
287.938
287.955
288.058
288.146
288.027
287.944
287.882
287.863
287.909
287.985
288.108
288.025
287.903
287.87
287.956
288.029
288.007
287.934
287.859
287.828
287.916
287.997
287.923
287.854
287.815
287.823
287.886
287.941
287.936
287.854
287.785
287.753
287.787
287.846
287.962
287.898
287.821
287.777
287.821
287.875
287.92
287.871
287.8
287.753
287.82
287.881
287.762
287.732
287.713
287.739
287.794
287.845
287.822
287.772
287.727
287.686
287.701
287.73
287.769
287.736
287.696
287.68
287.711
287.745
287.662
287.647
287.642
287.638
287.666
287.691
287.673
287.649
287.632
287.607
287.605
287.61
287.635
287.617
287.606
287.587
287.583
287.584
287.61
287.595
287.577
287.568
287.578
287.59
287.534
287.533
287.535
287.52
287.53
287.538
287.518
287.509
287.517
287.501
287.494
287.473
287.475
287.474
287.485
287.47
287.461
287.445
287.45
287.452
287.457
287.454
287.435
287.434
287.4
287.427
287.438
287.409
287.401
287.397
287.385
287.389
287.41
287.393
287.38
287.356
287.352
287.352
287.373
287.366
287.352
287.329
287.322
287.327
287.347
287.35
287.32
287.298
287.302
287.324
287.342
287.307
287.276
287.269
287.253
287.278
287.299
287.281
287.254
287.245
287.224
287.245
287.281
287.272
287.253
287.227
287.199
287.209
287.238
287.247
287.213
287.186
287.193
287.213
287.235
287.204
287.162
287.152
287.156
287.171
287.204
287.18
287.136
287.125
287.109
287.14
287.186
287.18
287.151
287.123
287.08
287.097
287.145
287.146
287.109
287.083
287.058
287.069
287.119
287.126
287.074
287.047
287.062
287.084
287.119
287.081
287.031
287.013
287.022
287.045
287.087
287.058
287.003
286.992
286.986
287.017
287.069
287.064
287.024
287.004
286.949
286.965
287.021
287.026
286.982
286.957
286.928
286.939
286.995
287.009
286.951
286.923
286.943
286.966
287.007
286.972
286.914
286.893
286.905
286.928
286.976
286.944
286.881
286.868
286.865
286.897
286.959
286.956
286.909
286.889
286.832
286.852
286.914
286.924
286.872
286.843
286.814
286.826
286.891
286.909
286.85
286.811
286.834
286.854
286.899
286.86
286.796
286.778
286.789
286.814
286.868
286.831
286.766
286.755
286.752
286.789
286.849
286.844
286.795
286.776
286.72
286.74
286.805
286.812
286.758
286.73
286.696
286.708
286.777
286.795
286.731
286.691
286.714
286.739
286.787
286.749
286.682
286.661
286.671
286.701
286.757
286.719
286.648
286.636
286.632
286.673
286.74
286.737
286.682
286.661
286.601
286.621
286.692
286.699
286.641
286.61
286.575
286.589
286.663
286.684
286.614
286.57
286.599
286.624
286.679
286.632
286.559
286.536
286.548
286.581
286.643
286.601
286.526
286.512
286.507
286.551
286.622
286.621
286.562
286.539
286.476
286.499
286.573
286.583
286.522
286.486
286.45
286.464
286.541
286.563
286.491
286.445
286.472
286.498
286.555
286.511
286.435
286.413
286.423
286.457
286.52
286.482
286.401
286.385
286.382
286.431
286.511
286.509
286.447
286.419
286.355
286.381
286.465
286.477
286.41
286.368
286.328
286.346
286.433
286.458
286.373
286.322
286.354
286.386
286.45
286.399
286.313
286.287
286.305
286.341
286.415
286.373
286.284
286.267
286.26
286.315
286.404
286.401
286.334
286.298
286.23
286.257
286.348
286.36
286.287
286.241
286.203
286.222
286.312
286.332
286.238
286.195
286.227
286.263
286.331
286.284
286.196
286.169
286.186
286.227
286.301
286.255
286.162
286.143
286.135
286.193
286.288
286.285
286.213
286.175
286.1
286.129
286.227
286.232
286.153
286.11
286.069
286.086
286.179
286.207
286.103
286.058
286.103
286.144
286.214
286.163
286.071
286.041
286.026
286.096
286.199
286.195
286.128
286.067
286.002
286.036
286.138
286.148
286.064
286.018
285.961
285.982
286.087
286.115
285.996
285.949
285.988
286.043
286.118
286.067
285.965
285.933
285.952
286.003
286.086
286.032
285.925
285.899
285.891
285.95
286.069
286.061
285.985
285.923
285.865
285.892
285.987
286.013
285.892
285.842
285.879
285.933
286.01
285.958
285.853
285.818
285.846
285.9
285.992
285.938
285.825
285.798
285.784
285.853
285.978
285.969
285.891
285.822
285.751
285.784
285.893
285.916
285.801
285.731
285.752
285.805
285.889
285.835
285.72
285.685
285.724
285.77
285.878
285.818
285.692
285.662
285.642
285.722
285.858
285.849
285.769
285.687
285.616
285.654
285.774
285.795
285.676
285.59
285.596
285.659
285.743
285.713
285.578
285.533
285.565
285.643
285.76
285.694
285.554
285.523
285.499
285.588
285.74
285.727
285.632
285.551
285.457
285.496
285.63
285.652
285.512
285.443
285.428
285.491
285.598
285.541
285.413
285.37
285.363
285.446
285.619
285.63
285.522
285.421
285.35
285.395
285.542
285.581
285.419
285.316
285.348
285.444
285.552
285.416
285.292
285.245
285.203
285.266
285.441
285.457
285.344
285.256
285.19
285.235
285.38
285.447
285.273
285.16
285.235
285.318
285.433
285.313
285.155
285.104
285.072
285.157
285.333
285.256
285.127
285.041
284.954
285.008
285.171
285.28
285.057
284.95
285.028
285.145
285.286
285.172
284.985
284.925
284.869
285.012
285.209
285.145
285.003
284.88
284.767
284.815
284.947
284.988
284.783
284.695
284.786
284.901
285.035
284.943
284.76
284.694
284.624
284.755
284.985
284.931
284.794
284.66
284.516
284.551
284.684
284.692
284.507
284.438
284.409
284.538
284.769
284.783
284.639
284.502
284.386
284.465
284.662
284.691
284.413
284.264
284.177
284.292
284.551
284.573
284.385
284.248
284.116
284.221
284.494
284.537
284.205
284.078
284.011
284.206
284.537
284.407
284.203
284.031
283.803
283.902
284.199
284.355
283.967
283.801
283.772
283.958
284.369
284.275
284.023
283.821
283.585
283.678
283.988
284.028
283.615
283.493
283.486
283.68
284.135
284.005
283.593
283.428
283.324
283.577
284.081
284.135
283.828
283.569
283.36
283.517
283.913
283.882
283.452
283.244
283.305
283.586
284.111
284.129
283.583
283.345
283.504
283.819
284.426
284.628
283.954
283.618
283.822
284.195
284.884
285.259
284.532
284.086
284.28
284.75
285.45
285.668
284.989
284.47
284.591
285.115
285.744
285.877
285.289
284.732
284.825
285.376
285.918
285.999
285.511
284.942
285.016
285.569
286.02
286.067
285.668
285.114
285.173
285.708
286.075
286.1
285.777
285.255
285.302
285.802
286.099
286.106
285.847
285.368
285.405
285.86
286.097
286.095
285.885
285.455
285.486
285.889
286.08
286.07
285.896
285.512
285.546
285.893
286.047
286.033
285.887
285.55
285.574
285.879
286.004
285.985
285.866
285.573
285.572
285.839
285.943
285.921
285.823
285.563
285.552
285.785
285.869
285.844
285.765
285.533
285.508
285.717
285.787
285.759
285.694
285.485
285.449
285.639
285.696
285.666
285.612
285.423
285.376
285.55
285.598
285.565
285.521
285.347
285.294
285.453
285.493
285.458
285.421
285.261
285.201
285.348
285.382
285.346
285.314
285.165
285.097
285.235
285.266
285.229
285.199
285.061
284.987
285.117
285.146
285.107
285.079
284.95
284.873
284.993
285.021
284.981
284.954
284.833
284.752
284.864
284.893
284.851
284.824
284.711
284.626
284.731
284.76
284.718
284.69
284.585
284.496
284.595
284.625
284.581
284.552
284.454
284.362
284.456
284.486
284.442
284.412
284.32
284.227
284.314
284.344
284.299
284.27
284.184
284.088
284.17
284.2
284.155
284.125
284.046
283.948
284.024
284.054
284.008
283.979
283.906
283.807
283.877
283.907
283.861
283.832
283.765
283.665
283.73
283.76
283.713
283.685
283.623
283.523
283.582
283.612
283.566
283.538
283.481
283.38
283.435
283.465
283.42
283.391
283.338
283.238
283.289
283.32
283.275
283.246
283.196
283.096
283.145
283.177
283.133
283.102
283.055
282.956
283.002
283.035
282.992
282.96
282.916
282.818
282.861
282.897
282.855
282.82
282.778
282.681
282.723
282.761
282.72
282.683
282.642
282.547
282.588
282.629
282.589
282.549
282.509
282.415
282.456
282.5
282.461
282.418
282.378
282.286
282.328
282.375
282.337
282.291
282.251
282.16
282.202
282.253
282.217
282.167
282.126
282.037
282.08
282.135
282.101
282.046
282.004
281.917
281.962
282.021
281.988
281.929
281.885
281.801
281.848
281.912
281.88
281.816
281.77
281.688
281.738
281.806
281.776
281.708
281.659
281.58
281.632
281.705
281.676
281.603
281.552
281.475
281.53
281.608
281.58
281.503
281.449
281.375
281.433
281.515
281.489
281.407
281.35
281.279
281.34
281.425
281.401
281.315
281.256
281.188
281.251
281.34
281.317
281.228
281.166
281.1
281.166
281.258
281.236
281.144
281.08
281.017
281.085
281.18
281.159
281.064
280.997
280.937
281.007
281.106
281.086
280.988
280.919
280.861
280.933
281.035
281.016
280.915
280.844
280.788
280.863
280.967
280.949
280.846
280.772
280.719
280.797
280.902
280.886
280.781
280.704
280.654
280.734
280.841
280.826
280.719
280.64
280.592
280.674
280.783
280.768
280.661
280.58
280.534
280.618
280.727
280.714
280.606
280.523
280.48
280.566
280.675
280.663
280.554
280.47
280.429
280.516
280.626
280.614
280.506
280.42
280.382
280.469
280.579
280.569
280.46
280.374
280.337
280.426
280.535
280.526
280.418
280.33
280.296
280.386
280.495
280.487
280.379
280.29
280.257
280.349
280.457
280.45
280.343
280.253
280.223
280.314
280.422
280.415
280.309
280.219
280.191
280.283
280.39
280.384
280.279
280.188
280.162
280.254
280.361
280.356
280.251
280.159
280.135
280.229
280.334
280.33
280.226
280.134
280.112
280.206
280.31
280.307
280.204
280.112
280.091
280.185
280.289
280.287
280.185
280.092
280.073
280.168
280.271
280.27
280.169
280.074
280.058
280.153
280.255
280.255
280.155
280.059
280.045
280.141
280.241
280.242
280.143
280.047
280.035
280.131
280.23
280.231
280.134
280.037
280.027
280.123
280.221
280.223
280.127
280.03
280.021
280.118
280.214
280.216
280.122
280.024
280.018
280.114
280.209
280.211
280.118
280.02
280.015
280.112
280.205
280.206
280.116
280.018
280.013
280.11
280.201
280.202
280.114
280.016
280.012
280.109
280.198
280.199
280.114
280.017
280.012
280.108
280.195
280.197
280.114
280.016
280.012
280.108
280.193
280.196
280.114
280.018
280.013
280.109
280.191
280.194
280.115
280.018
280.013
280.109
280.19
280.193
280.115
280.02
280.014
280.11
280.189
280.192
280.116
280.02
280.014
280.111
280.188
280.191
280.116
280.021
280.015
280.111
280.187
280.189
280.117
280.021
280.015
280.112
280.186
280.188
280.118
280.023
280.016
280.113
280.185
280.188
280.119
280.023
280.017
280.114
280.184
280.187
280.12
280.025
280.018
280.115
280.183
280.186
280.121
280.026
280.019
280.116
280.182
280.185
280.122
280.027
280.02
280.116
280.18
280.183
280.122
280.027
280.02
280.116
280.178
280.18
280.122
280.028
280.02
280.115
280.175
280.177
280.12
280.027
280.018
280.113
280.171
280.171
280.118
280.024
280.015
280.109
280.165
280.165
280.112
280.019
280.007
280.102
280.157
280.154
280.101
280.01
279.991
280.088
280.144
280.134
280.081
279.986
279.971
280.068
280.12
280.082
280.033
279.928
279.932
280.014
280.055
279.988
279.997
279.924
279.939
280.023
279.986
279.447
279.15
279.133
279.073
279.003
279.015
279.011
278.996
278.997
278.986
278.982
278.981
278.98
278.98
278.98
278.979
278.979
278.979
278.979
278.979
278.979
278.978
278.978
278.978
278.977
278.978
278.977
278.979
278.976
278.979
278.979
278.86
278.805
278.727
278.672
278.629
278.606
278.6
278.582
278.607
278.615
278.678
278.704
278.785
278.824
278.914
278.957
279.05
279.099
279.197
279.245
279.359
279.419
279.535
279.621
279.747
279.857
280.009
280.144
280.322
280.484
280.688
280.879
281.104
281.317
281.559
281.787
282.038
282.273
282.527
282.76
283.006
283.229
283.461
283.668
283.879
284.067
284.254
284.421
284.584
284.73
284.87
284.997
285.119
285.231
285.338
285.439
285.537
285.631
285.724
285.814
285.903
285.992
286.082
286.171
286.261
286.352
286.442
286.533
286.625
286.718
286.811
286.904
286.996
287.088
287.179
287.269
287.358
287.445
287.529
287.611
287.689
287.763
287.833
287.898
287.959
288.015
288.063
288.099
288.126
288.144
288.155
288.162
288.162
288.151
288.131
288.103
288.067
288.025
287.976
287.923
287.865
287.804
287.742
287.678
287.615
287.553
287.493
287.437
287.384
287.336
287.294
287.257
287.227
287.204
287.19
287.183
287.181
287.187
287.203
287.234
287.293
287.411
287.658
288.169
289.143
290.609
292.08
293.184
294.028
294.695
295.238
295.697
296.092
296.439
296.748
297.026
297.278
297.509
297.722
297.922
298.114
298.302
298.49
298.68
298.869
299.045
299.195
299.199
299.204
299.207
299.208
299.211
299.219
299.229
299.238
299.245
299.253
299.263
299.274
299.286
299.299
299.312
299.328
299.344
299.361
299.38
299.399
299.419
299.438
299.458
299.478
299.497
299.516
299.535
299.553
299.571
299.589
299.605
299.621
299.636
299.65
299.663
299.676
299.687
299.698
299.709
299.718
299.727
299.736
299.744
299.752
299.759
299.766
299.773
299.779
299.785
299.791
299.796
299.801
299.807
299.812
299.817
299.821
299.825
299.826
299.827
299.828
299.828
299.861
299.872
299.889
299.946
299.998
300.046
300.085
300.118
300.145
300.169
300.19
300.209
300.223
300.234
300.24
300.24
300.23
300.209
300.182
300.145
300.068
299.888
299.552
299.048
298.443
297.686
296.839
295.843
294.796
293.752
292.889
292.276
291.913
291.719
291.627
291.589
291.577
291.576
291.579
291.585
291.591
291.597
291.602
291.607
291.61
291.612
291.614
291.614
291.613
291.611
291.608
291.604
291.598
291.592
291.584
291.575
291.564
291.552
291.539
291.526
291.51
291.494
291.477
291.459
291.44
291.42
291.401
291.381
291.36
291.339
291.318
291.297
291.275
291.252
291.231
291.209
291.186
291.163
291.14
291.116
291.092
291.068
291.043
291.019
290.996
290.971
290.948
290.925
290.902
290.88
290.857
290.835
290.815
290.794
290.775
290.756
290.739
290.723
290.706
290.691
290.677
290.662
290.65
290.637
290.625
290.614
290.603
290.593
290.584
290.574
290.565
290.556
290.549
290.54
290.533
290.525
290.517
290.508
290.502
290.505
290.522
290.57
290.689
290.933
291.376
292.127
293.304
295
297.188
299.379
300.213
300.359
300.367
300.341
300.289
300.252
300.238
300.228
300.208
300.181
300.151
300.133
300.115
300.087
300.064
300.045
300.025
300.025
300.043
300.042
300.024
300.021
300.04
300.073
300.063
300.063
300.086
300.086
300.11
300.113
300.133
300.134
300.109
300.155
300.147
300.151
300.179
300.178
300.197
300.206
300.227
300.242
300.249
300.312
300.262
300.242
300.256
300.278
300.299
300.291
300.32
300.28
300.287
300.022
300.305
300.334
300.311
300.187
300.101
300.136
299.279
299.015
298.713
295.571
297.356
297.195
295.128
295.33
293.801
293.453
292.278
292.581
293.073
291.619
291.753
291.49
291.022
291.233
290.889
290.746
290.605
290.708
290.914
290.629
290.592
290.539
290.515
290.548
290.521
290.506
290.508
290.517
290.547
290.528
290.515
290.515
290.523
290.524
290.528
290.531
290.538
290.539
290.535
290.551
290.544
290.546
290.554
290.554
290.56
290.562
290.571
290.57
290.566
290.581
290.577
290.58
290.589
290.588
290.595
290.599
290.61
290.607
290.599
290.619
290.616
290.621
290.633
290.63
290.64
290.645
290.657
290.655
290.641
290.668
290.667
290.672
290.686
290.683
290.698
290.701
290.718
290.716
290.699
290.733
290.731
290.734
290.752
290.75
290.768
290.771
290.791
290.789
290.77
290.812
290.808
290.812
290.833
290.831
290.851
290.855
290.877
290.876
290.857
290.902
290.897
290.9
290.923
290.921
290.943
290.946
290.969
290.967
290.947
290.993
290.99
290.993
291.016
291.014
291.038
291.041
291.064
291.062
291.04
291.087
291.087
291.089
291.112
291.11
291.133
291.137
291.159
291.157
291.135
291.183
291.18
291.183
291.205
291.203
291.225
291.228
291.249
291.247
291.229
291.273
291.269
291.272
291.293
291.291
291.312
291.315
291.335
291.334
291.317
291.359
291.354
291.357
291.377
291.375
291.395
291.398
291.417
291.415
291.4
291.439
291.434
291.437
291.455
291.453
291.47
291.473
291.49
291.488
291.475
291.508
291.504
291.507
291.522
291.519
291.533
291.536
291.548
291.546
291.537
291.56
291.557
291.56
291.571
291.568
291.577
291.58
291.588
291.585
291.579
291.594
291.592
291.595
291.6
291.597
291.602
291.604
291.607
291.605
291.603
291.606
291.607
291.609
291.61
291.608
291.608
291.61
291.608
291.606
291.606
291.602
291.604
291.606
291.603
291.601
291.597
291.598
291.593
291.592
291.597
291.6
291.591
291.587
291.582
291.589
291.595
291.58
291.581
291.608
291.632
291.765
291.653
291.592
291.625
291.722
291.886
291.709
291.873
292.127
292.163
293.096
292.574
292.202
292.719
293.158
293.985
293.506
294.409
294.866
294.708
296.57
295.828
295.436
296.357
296.684
297.482
297.258
297.97
298.126
297.994
298.867
298.661
298.615
299.093
299.091
299.403
299.487
299.751
299.655
299.405
299.738
299.803
299.922
300.026
299.935
299.999
300.083
300.134
300.071
299.934
300.048
300.103
300.161
300.186
300.141
300.154
300.194
300.199
300.169
300.109
300.131
300.169
300.194
300.188
300.169
300.158
300.174
300.159
300.144
300.123
300.08
300.12
300.135
300.107
300.09
300.051
300.069
300.027
300.008
300.004
299.913
299.96
299.977
299.927
299.91
299.906
299.987
300.055
300.091
300.092
300.058
299.979
299.849
299.644
299.331
298.866
298.169
297.053
295.4
293.689
292.518
291.923
291.688
291.612
291.592
291.591
291.594
291.595
291.592
291.582
291.568
291.549
291.525
291.497
291.464
291.426
291.387
291.346
291.304
291.259
291.214
291.168
291.12
291.072
291.023
290.974
290.927
290.881
290.836
290.793
290.751
290.714
290.681
290.652
290.627
290.606
290.587
290.57
290.555
290.541
290.528
290.53
290.565
290.689
291.037
291.79
293.218
295.585
298.72
300.175
300.376
300.345
300.223
300.14
300.107
300.074
300.04
300.04
300.021
300.021
300.021
300.039
300.039
300.021
300.021
300.039
300.073
300.073
300.039
300.021
300.02
300.038
300.038
300.02
300.02
300.038
300.072
300.072
300.038
300.02
300.02
300.038
300.038
300.02
300.019
300.039
300.072
300.072
300.038
300.02
300.02
300.038
300.041
300.02
300.011
300.023
300.038
300.02
300.011
300.01
300.023
300.023
300.011
300.029
300.029
300.044
300.045
300.052
300.05
300.061
300.061
300.085
300.085
300.073
300.067
300.068
300.075
300.092
300.091
300.099
300.109
300.108
300.107
300.104
300.105
300.106
300.107
300.107
300.138
300.137
300.137
300.136
300.214
300.215
300.217
300.22
300.346
300.343
300.379
300.38
300.184
300.194
300.202
300.379
300.341
300.34
300.379
300.208
298.903
298.861
298.811
298.752
295.636
295.713
293.327
293.269
291.831
291.868
291.901
293.376
295.778
295.843
293.431
291.94
291.124
291.1
291.082
291.062
290.7
290.707
290.562
290.564
290.524
290.517
290.51
290.56
290.714
290.724
290.558
290.502
290.493
290.553
290.723
291.124
291.938
293.426
295.834
298.892
300.199
300.372
300.337
300.215
300.135
300.149
300.146
300.132
300.129
300.151
300.176
300.175
300.191
300.237
300.307
300.291
300.083
300.294
300.277
300.294
300.272
300.254
300.231
300.22
300.2
300.193
300.181
300.167
300.156
300.145
300.135
300.123
300.114
300.115
300.099
300.122
300.136
300.145
300.16
300.171
300.187
300.197
300.214
300.206
300.218
300.227
300.24
300.224
300.246
300.235
300.241
300.261
300.254
300.247
300.261
300.26
300.266
300.27
300.273
300.291
300.309
300.31
300.279
300.185
300.171
299.015
296.078
293.454
291.868
292.06
293.039
294.386
296.026
298.051
299.443
299.689
300.147
300.214
300.272
300.287
300.313
300.304
300.311
300.296
300.296
300.254
300.251
300.214
300.218
300.144
300.147
300.023
300.018
299.839
299.83
300.17
300.044
299.811
299.36
299.561
298.385
299.161
298.265
295.996
296.998
298.24
297.505
295.94
294.974
295.869
294.686
294.001
292.563
291.602
291.055
291.458
291.022
291.045
290.672
290.528
290.476
290.459
290.478
290.498
290.552
290.628
290.796
290.587
290.74
290.738
290.908
291.083
291.403
291.742
292.299
292.889
293.771
292.958
293.694
292.128
291.692
291.237
291.011
290.791
290.688
290.595
290.548
290.65
290.569
290.53
290.496
290.514
290.486
290.497
290.508
290.477
290.469
290.481
290.478
290.476
290.473
290.462
290.459
290.461
290.454
290.449
290.447
290.453
290.445
290.456
290.469
290.483
290.496
290.508
290.518
290.528
290.514
290.523
290.54
290.553
290.534
290.51
290.505
290.499
290.482
290.482
290.483
290.484
290.518
290.545
290.569
290.585
290.559
290.574
290.605
290.628
290.595
290.555
290.537
290.525
290.486
290.491
290.501
290.523
290.579
290.621
290.657
290.689
290.65
290.689
290.725
290.766
290.733
290.688
290.645
290.607
290.553
290.587
290.633
290.684
290.737
290.779
290.811
290.857
290.825
290.872
290.903
290.951
290.92
290.883
290.833
290.784
290.735
290.785
290.838
290.785
290.73
290.675
290.622
290.567
290.517
290.477
290.445
290.433
290.427
290.43
290.44
290.447
290.455
290.461
290.447
290.433
290.42
290.395
290.415
290.42
290.433
290.435
290.444
290.438
290.443
290.445
290.445
290.448
290.447
290.45
290.45
290.454
290.455
290.471
290.474
290.472
290.468
290.469
290.465
290.465
290.461
290.461
290.457
290.442
290.441
290.437
290.45
290.456
290.448
290.435
290.432
290.424
290.426
290.43
290.441
290.438
290.428
290.42
290.416
290.413
290.401
290.383
290.366
290.391
290.365
290.397
290.368
290.333
290.324
290.191
290.282
290.275
290.32
290.322
290.36
290.319
290.339
290.344
290.356
290.366
290.376
290.387
290.394
290.402
290.409
290.415
290.427
290.406
290.397
290.383
290.374
290.362
290.353
290.352
290.362
290.375
290.335
290.338
290.326
290.331
290.314
290.303
290.291
290.305
290.301
290.324
290.287
290.251
290.264