/*--------------------------------*- C++ -*----------------------------------*\
| =========                 |                                                 |
| \\      /  F ield         | OpenFOAM: The Open Source CFD Toolbox           |
|  \\    /   O peration     | Version:  v2006                                 |
|   \\  /    A nd           | Website:  www.openfoam.com                      |
|    \\/     M anipulation  |                                                 |
\*---------------------------------------------------------------------------*/
FoamFile
{
    version     2.0;
    format      ascii;
    class       volScalarField;
    location    "0.02";
    object      Ma;
}
// * * * * * * * * * * * * * * * * * * * * * * * * * * * * * * * * * * * * * //

dimensions      [0 0 0 0 0 0 0];


internalField   nonuniform List<scalar> 
31566
(
0.223768
0.22377
0.223702
0.223702
0.223703
0.223705
0.223708
0.223712
0.223717
0.223722
0.223728
0.223735
0.223743
0.223752
0.223762
0.223772
0.223784
0.223795
0.22381
0.223816
0.223787
0.223693
0.22353
0.223312
0.223058
0.222785
0.222506
0.222224
0.221941
0.221657
0.22137
0.221079
0.220782
0.22048
0.220171
0.219857
0.219537
0.219211
0.218881
0.218546
0.218206
0.217862
0.217514
0.217163
0.216808
0.216449
0.216088
0.215724
0.215357
0.214989
0.214618
0.214246
0.213873
0.213498
0.213123
0.212747
0.212372
0.211996
0.211622
0.211247
0.210875
0.210503
0.210133
0.209766
0.209401
0.209038
0.208679
0.208322
0.207969
0.20762
0.207275
0.206935
0.206599
0.206267
0.205941
0.20562
0.205305
0.204997
0.204694
0.204399
0.204111
0.203829
0.203552
0.20328
0.203008
0.202734
0.202456
0.202176
0.201902
0.201653
0.201459
0.201345
0.201311
0.201333
0.201379
0.201432
0.201485
0.201535
0.201579
0.201612
0.201623
0.201574
0.201484
0.20131
0.200976
0.200531
0.199945
0.199045
0.198039
0.194183
0.191637
0.198016
0.199253
0.19936
0.197743
0.188869
0.186146
0.197345
0.199436
0.199442
0.196872
0.183659
0.181393
0.196369
0.199369
0.19923
0.195752
0.179355
0.177512
0.195136
0.199053
0.198835
0.19445
0.175744
0.174109
0.193887
0.198606
0.198353
0.193316
0.172617
0.171262
0.19275
0.198093
0.19781
0.192179
0.169991
0.168821
0.191616
0.197519
0.19721
0.191053
0.167709
0.166678
0.190503
0.196897
0.196572
0.189953
0.165688
0.164764
0.189417
0.196246
0.19591
0.188882
0.163869
0.163028
0.188361
0.195576
0.195234
0.18784
0.162209
0.161434
0.187334
0.194896
0.19455
0.186827
0.160676
0.159955
0.186335
0.194209
0.193862
0.185841
0.159248
0.158571
0.185361
0.193521
0.193174
0.184882
0.157907
0.15727
0.184416
0.192835
0.192485
0.183945
0.156638
0.156028
0.183485
0.192143
0.191791
0.183021
0.155424
0.154841
0.18257
0.191449
0.191097
0.182115
0.154262
0.153702
0.181671
0.190755
0.190401
0.181223
0.153144
0.152603
0.180785
0.190059
0.189704
0.180343
0.152063
0.151539
0.17991
0.189361
0.189005
0.179473
0.151015
0.150505
0.179044
0.188661
0.188303
0.17861
0.149994
0.149496
0.178185
0.187957
0.187598
0.177754
0.148997
0.14851
0.177332
0.18725
0.186888
0.176903
0.148021
0.147543
0.176482
0.186538
0.186173
0.176054
0.147063
0.146592
0.175634
0.18582
0.185451
0.175207
0.146119
0.145655
0.174788
0.185095
0.184724
0.174361
0.145188
0.14473
0.173941
0.184364
0.183989
0.173514
0.144268
0.143815
0.173094
0.183626
0.183246
0.172665
0.143358
0.142908
0.172243
0.182878
0.182494
0.171813
0.142454
0.142007
0.17139
0.182121
0.181732
0.170957
0.141556
0.141111
0.170531
0.181354
0.18096
0.170096
0.140662
0.140219
0.169667
0.180576
0.180176
0.169228
0.13977
0.139327
0.168795
0.179786
0.17938
0.168353
0.138879
0.138436
0.167915
0.178984
0.178571
0.167468
0.137987
0.137543
0.167026
0.178168
0.177748
0.166574
0.137093
0.136648
0.166127
0.177337
0.176911
0.16567
0.136196
0.135748
0.165216
0.176491
0.176057
0.164753
0.135294
0.134843
0.164293
0.175628
0.175186
0.163823
0.134386
0.133931
0.163356
0.174748
0.174297
0.162879
0.13347
0.133011
0.162404
0.173849
0.173388
0.161919
0.132545
0.132081
0.161435
0.17293
0.17246
0.160941
0.13161
0.13114
0.160449
0.17199
0.17151
0.159946
0.130663
0.130187
0.159444
0.17103
0.170538
0.158931
0.129702
0.129219
0.158419
0.170045
0.169541
0.157896
0.128727
0.128236
0.157372
0.169036
0.168519
0.156837
0.127735
0.127235
0.156302
0.168001
0.16747
0.155755
0.126725
0.126216
0.155207
0.166938
0.166393
0.154647
0.125696
0.125177
0.154085
0.165846
0.165286
0.153511
0.124646
0.124115
0.152935
0.164723
0.164146
0.152346
0.123573
0.12303
0.151755
0.163567
0.162974
0.151151
0.122476
0.12192
0.150544
0.162377
0.161766
0.149922
0.121351
0.120782
0.149298
0.16115
0.160521
0.148659
0.120199
0.119614
0.148016
0.159886
0.159236
0.147358
0.119016
0.118416
0.146696
0.158581
0.15791
0.146019
0.117801
0.117184
0.145337
0.157233
0.156541
0.144639
0.116552
0.115918
0.143935
0.155841
0.155126
0.143215
0.115267
0.114614
0.142489
0.154403
0.153663
0.141746
0.113944
0.113271
0.140996
0.152915
0.15215
0.140229
0.11258
0.111885
0.139454
0.151376
0.150584
0.13866
0.111173
0.110456
0.137859
0.149782
0.148962
0.137038
0.10972
0.108979
0.136209
0.148131
0.147282
0.13536
0.108219
0.107453
0.134501
0.14642
0.145539
0.133621
0.106666
0.105873
0.132732
0.144645
0.143732
0.13182
0.105059
0.104238
0.130897
0.142804
0.141856
0.129952
0.103395
0.102544
0.128995
0.140892
0.139908
0.128014
0.10167
0.100787
0.12702
0.138907
0.137884
0.126002
0.0998799
0.0989635
0.124969
0.136844
0.13578
0.123911
0.0980216
0.0970693
0.122837
0.134697
0.13359
0.121735
0.0960897
0.0950987
0.120618
0.132462
0.131308
0.11947
0.0940785
0.0930457
0.118305
0.130132
0.128928
0.117108
0.0919812
0.0909028
0.11589
0.127699
0.126441
0.114638
0.0897889
0.0886601
0.113364
0.125155
0.123839
0.112051
0.087477
0.0862609
0.110711
0.122493
0.121115
0.109329
0.0849878
0.0836817
0.107916
0.119704
0.118256
0.106456
0.0823173
0.0809193
0.104962
0.116772
0.115247
0.103417
0.0794616
0.0779687
0.101833
0.113682
0.112072
0.100194
0.0764131
0.07482
0.0985125
0.110417
0.108712
0.0967694
0.0731598
0.0714587
0.0949788
0.106957
0.105145
0.0931194
0.0696844
0.0678644
0.0912072
0.103278
0.101346
0.0892166
0.065963
0.0640068
0.0871641
0.09935
0.0972786
0.0850203
0.061957
0.0598404
0.0828025
0.0951309
0.0928941
0.0804763
0.0576138
0.0553032
0.0780593
0.0905657
0.0881285
0.0755096
0.0528589
0.0503048
0.0728449
0.085578
0.0828912
0.0700122
0.0475823
0.0447132
0.0670284
0.08006
0.077052
0.063824
0.0416208
0.0383208
0.060412
0.0738539
0.0704179
0.0566985
0.0347161
0.0307891
0.0526795
0.0667232
0.0626973
0.0482336
0.0264369
0.0214861
0.0433125
0.0583004
0.0534444
0.0377815
0.0158485
0.00978481
0.0314873
0.0481952
0.0426984
0.0238716
0.00271718
0.00892642
0.0170255
0.0369515
0.0300038
0.00945825
0.0121204
0.0137685
0.0016385
0.0222429
0.014967
0.00469032
0.0155824
0.0170384
0.00779192
0.00879028
0.00393138
0.0100314
0.0178531
0.0176888
0.0110039
0.000901806
0.00151808
0.0113372
0.0170052
0.0157876
0.011171
0.00295139
0.00492117
0.0118624
0.0148275
0.0133778
0.0122953
0.00657899
0.00936106
0.0137025
0.0123209
0.0111831
0.0141357
0.010915
0.0131947
0.0153681
0.0111419
0.0112659
0.0161389
0.0143735
0.0162766
0.0174106
0.0121716
0.0132312
0.0185713
0.0174772
0.0192475
0.0200303
0.014685
0.0161678
0.0214411
0.0205666
0.0216753
0.0223574
0.0171094
0.0176149
0.0228158
0.0221324
0.0222043
0.0226456
0.0171877
0.0168223
0.0220998
0.0217863
0.0210108
0.0210344
0.0154415
0.0146401
0.020093
0.0202636
0.0190334
0.018555
0.0128537
0.0115089
0.0172681
0.0179785
0.0168608
0.0158776
0.00973724
0.00864798
0.0149977
0.0161913
0.0156656
0.0142321
0.0075219
0.00693203
0.0138514
0.015465
0.0153172
0.0135506
0.00638887
0.00608971
0.013418
0.0152944
0.0152957
0.0133356
0.0058281
0.00567129
0.013331
0.0153513
0.0154376
0.0133766
0.00555622
0.00551768
0.0134697
0.0155617
0.0157173
0.0136014
0.00554059
0.00560409
0.0137814
0.0159127
0.0161322
0.0139949
0.00570226
0.00582863
0.0142438
0.0163824
0.016648
0.0145172
0.00598337
0.00616139
0.0148173
0.0169364
0.0172338
0.0151353
0.00636718
0.00659738
0.0154746
0.0175466
0.017859
0.0158231
0.00685208
0.00712547
0.0161812
0.018176
0.0184779
0.0165319
0.00741004
0.00769433
0.0168693
0.0187701
0.0190259
0.0171755
0.00797118
0.00822313
0.0174382
0.0192519
0.0194153
0.0176383
0.00845455
0.00864443
0.0177616
0.0195213
0.0195271
0.017788
0.00880805
0.00891408
0.0177047
0.0194325
0.0192036
0.0174996
0.00899165
0.00900651
0.0171522
0.018841
0.0183157
0.0166517
0.00897595
0.00884608
0.0159987
0.0176198
0.0167569
0.0152084
0.00861074
0.00827264
0.0142699
0.0157176
0.014531
0.0132194
0.0078424
0.00724133
0.0119831
0.0132157
0.0117591
0.0105679
0.00644456
0.00553171
0.009035
0.0102158
0.00848591
0.00710129
0.00399589
0.00362062
0.00596453
0.00741087
0.00510092
0.00293343
0.000467009
0.00738721
0.0106958
0.0133116
0.015321
0.0159614
0.0157325
0.0149806
0.0136738
0.0119957
0.0097738
0.00736634
0.00531077
0.00492771
0.010367
0.0154454
0.0228006
0.027775
0.0346603
0.0393022
0.0456147
0.0498487
0.0554169
0.0591952
0.0638332
0.0670844
0.0708548
0.0735674
0.0765973
0.0788353
0.0812715
0.0831283
0.0851336
0.0867074
0.088409
0.0897762
0.0912549
0.0924516
0.0937225
0.0946696
0.095684
0.0965296
0.0972999
0.0980784
0.0988339
0.0995422
0.100204
0.10083
0.101425
0.101979
0.102482
0.102859
0.103055
0.102792
0.101598
0.0969234
0.0894773
0.0657665
0.0647107
0.0886325
0.0961664
0.0955762
0.0879812
0.0638814
0.0637473
0.0876587
0.0951947
0.0949012
0.0874621
0.0637723
0.063729
0.0872774
0.0945951
0.0942615
0.0870371
0.063659
0.0636105
0.0867992
0.0939217
0.0935837
0.0865507
0.063561
0.0635375
0.0863205
0.0932503
0.092918
0.086087
0.0635193
0.0635166
0.085853
0.0925868
0.0922532
0.0856199
0.0635206
0.0635281
0.0853859
0.0919176
0.0915783
0.0851491
0.0635341
0.0635424
0.0849072
0.0912304
0.0908762
0.0846571
0.0635479
0.0635509
0.0843994
0.0905105
0.0901354
0.0841301
0.0635483
0.0635436
0.0838484
0.0897461
0.0893457
0.0835547
0.0635291
0.063508
0.0832461
0.0889285
0.0884978
0.0829226
0.0634751
0.0634321
0.0825817
0.0880479
0.0875823
0.0822236
0.063375
0.0633048
0.0818455
0.0870951
0.0865899
0.0814479
0.0632179
0.0631154
0.0810281
0.0860603
0.0855101
0.080586
0.0629961
0.0628537
0.0801207
0.0849376
0.0843373
0.0796297
0.0626946
0.0625133
0.0791134
0.0837132
0.083064
0.0785712
0.0623071
0.062081
0.0779999
0.0823836
0.0816795
0.0774026
0.0618277
0.0615514
0.0767763
0.0809425
0.080179
0.0761203
0.0612497
0.0609242
0.0754361
0.0793827
0.0785595
0.0747227
0.0605736
0.0602013
0.0739822
0.0777056
0.0768227
0.0732162
0.0598091
0.0594022
0.0724283
0.0759128
0.0749778
0.0716219
0.0589862
0.058571
0.0708009
0.0740199
0.0730464
0.069977
0.0581756
0.0578498
0.0691802
0.0720796
0.071134
0.0684496
0.057676
0.0575678
0.0677051
0.0701575
0.0690428
0.0668079
0.0573276
0.0567336
0.0656107
0.067681
0.0660585
0.0641005
0.055729
0.0544607
0.0623489
0.0642275
0.0622314
0.0604131
0.0529429
0.0514282
0.0584603
0.0601808
0.058019
0.0564548
0.0499528
0.0484836
0.0543715
0.0557061
0.0528787
0.0517059
0.0466987
0.0381411
0.0481852
0.0506085
0.0490546
0.0472729
0.0401423
0.0385166
0.0449208
0.04657
0.0437766
0.0423894
0.0370196
0.0349514
0.039544
0.040749
0.0374592
0.0363875
0.0324784
0.0297954
0.0330297
0.0339468
0.0300209
0.0292452
0.0266092
0.0232081
0.0251553
0.0256004
0.0201731
0.0198733
0.0189049
0.0129192
0.0160962
0.0171147
0.012523
0.0114894
0.00978925
0.00506198
0.00633386
0.00768211
0.00472859
0.00244039
0.000968855
0.00714499
0.00820888
0.0094979
0.0178719
0.0167637
0.0162677
0.0229184
0.0256934
0.0276106
0.0346227
0.0339611
0.0317981
0.0455954
0.0476353
0.0474021
0.0635131
0.0637677
0.0628201
0.0753759
0.0783554
0.0803378
0.0989378
0.099734
0.0978207
0.131983
0.131734
0.128888
0.16631
0.166791
0.167465
0.239545
0.223369
0.2115
0.294405
0.307274
0.324708
0.367271
0.354574
0.345321
0.34712
0.345601
0.316592
0.231199
0.304092
0.315149
0.25182
0.230341
0.160096
0.0651949
0.144427
0.184701
0.192743
0.120396
0.025915
0.0105224
0.105254
0.163089
0.111174
0.0456533
0.068101
0.0187548
0.0684676
0.127852
0.107174
0.0584647
0.00698421
0.0331396
0.0226583
0.0724584
0.0980131
0.0580323
0.00823121
0.0125375
0.0523192
0.0867321
0.0647953
0.0313024
0.0179404
0.0236438
0.0582413
0.0869634
0.0800928
0.0543696
0.0244587
0.000207215
0.0385968
0.0639565
0.0834171
0.0606964
0.0301623
0.0310451
0.0577689
0.0787212
0.0651714
0.0441474
0.0134389
0.0358368
0.0631928
0.0819761
0.0788794
0.061113
0.0366661
0.0227026
0.0493545
0.0673232
0.0822858
0.0660882
0.04127
0.041828
0.0645664
0.0801229
0.0699906
0.0539639
0.0300343
0.0458489
0.0689813
0.0835397
0.0821014
0.0680297
0.0464235
0.0361191
0.0585411
0.0731145
0.0855073
0.0724434
0.0506732
0.0511841
0.0717609
0.0845483
0.0763016
0.0631768
0.041861
0.05654
0.0763928
0.0875958
0.0824061
0.0708109
0.0502082
0.0624384
0.082649
0.0940433
0.0928049
0.0810897
0.0621218
0.0542608
0.0738241
0.0856754
0.0962572
0.0858818
0.065886
0.0659721
0.0847639
0.095875
0.0895505
0.078048
0.0585073
0.0700975
0.0897663
0.0994227
0.0992896
0.088684
0.0701951
0.0626349
0.0823228
0.0930009
0.10247
0.0935254
0.0743876
0.0701632
0.0887323
0.0987237
0.10809
0.099152
0.0805778
0.0802179
0.0976289
0.107569
0.102052
0.0919243
0.0736684
0.0841721
0.102562
0.110814
0.107229
0.0978166
0.0799553
0.0891442
0.107452
0.115868
0.115761
0.106618
0.0891754
0.0838176
0.101463
0.110986
0.119164
0.111263
0.0928527
0.0922333
0.109834
0.119191
0.114317
0.104752
0.0857097
0.0962103
0.115028
0.122738
0.119542
0.110403
0.0927324
0.101521
0.119952
0.127268
0.124008
0.115609
0.0975572
0.106943
0.124415
0.131733
0.131781
0.123962
0.106837
0.101786
0.118859
0.127091
0.13447
0.127214
0.109247
0.10512
0.123877
0.131737
0.139697
0.132828
0.115217
0.115082
0.132495
0.139955
0.135439
0.127351
0.109991
0.117481
0.13526
0.142585
0.139921
0.132129
0.113184
0.123072
0.141092
0.147567
0.145169
0.137486
0.12024
0.128471
0.145582
0.152073
0.151976
0.144224
0.127867
0.121945
0.13959
0.14783
0.154864
0.148525
0.129919
0.127263
0.144736
0.152686
0.159654
0.153621
0.135943
0.132768
0.150002
0.157266
0.163727
0.157479
0.140317
0.139503
0.156831
0.163851
0.160046
0.152571
0.135393
0.143345
0.160762
0.167062
0.164911
0.157948
0.139211
0.147619
0.165965
0.171721
0.169354
0.162147
0.144272
0.152519
0.169811
0.175631
0.176146
0.169444
0.152196
0.147832
0.16519
0.172571
0.178855
0.173078
0.155175
0.150887
0.170159
0.176448
0.18338
0.177582
0.158836
0.155669
0.173948
0.18106
0.187626
0.182014
0.164077
0.161477
0.178921
0.185696
0.191759
0.186262
0.169237
0.16798
0.18532
0.191778
0.187982
0.180778
0.163259
0.171018
0.188331
0.194501
0.192715
0.185899
0.166809
0.17511
0.194099
0.199487
0.197495
0.190293
0.172303
0.179942
0.198198
0.203672
0.201349
0.194452
0.176643
0.183814
0.20183
0.207236
0.205571
0.19896
0.181505
0.189606
0.206467
0.211645
0.212286
0.20554
0.189307
0.184555
0.201832
0.209341
0.215448
0.21018
0.191027
0.187568
0.205622
0.213232
0.219245
0.213888
0.195083
0.192442
0.210646
0.217494
0.223813
0.218734
0.200476
0.197618
0.215277
0.221872
0.227606
0.222536
0.204668
0.202296
0.219494
0.225993
0.231788
0.226782
0.209965
0.209187
0.226231
0.232404
0.229375
0.222348
0.204957
0.212102
0.230066
0.235542
0.233528
0.226852
0.208159
0.216171
0.234885
0.239942
0.238186
0.231608
0.213461
0.220707
0.23921
0.244186
0.242242
0.235637
0.21764
0.225012
0.242898
0.247981
0.246518
0.239982
0.222732
0.230811
0.247517
0.252365
0.253263
0.246878
0.230494
0.2255
0.243115
0.250372
0.256198
0.25116
0.231714
0.228695
0.247034
0.254436
0.260534
0.255593
0.23655
0.233689
0.252185
0.258906
0.264889
0.259909
0.241374
0.238738
0.256583
0.263246
0.269003
0.263983
0.246045
0.243765
0.261076
0.267653
0.273539
0.26878
0.252038
0.251794
0.268154
0.2746
0.271817
0.264157
0.24674
0.252943
0.272439
0.27748
0.275997
0.268842
0.249892
0.257815
0.2774
0.282256
0.280656
0.273706
0.254752
0.263011
0.281805
0.286655
0.285214
0.278485
0.260748
0.267997
0.286194
0.291025
0.289541
0.283021
0.265159
0.272967
0.290389
0.295079
0.296334
0.289885
0.272711
0.268673
0.286014
0.293912
0.299889
0.294871
0.276484
0.27255
0.292032
0.298549
0.304871
0.300174
0.280334
0.27735
0.29656
0.303285
0.309097
0.30429
0.284565
0.281782
0.30066
0.307532
0.313666
0.308987
0.290492
0.288461
0.306403
0.31272
0.318531
0.31415
0.29705
0.297248
0.314214
0.320146
0.317327
0.310234
0.292644
0.299241
0.317817
0.323051
0.321622
0.315062
0.295909
0.304243
0.323523
0.328395
0.327302
0.320644
0.301545
0.311288
0.329534
0.333911
0.333209
0.327229
0.309369
0.317791
0.334825
0.339077
0.340566
0.334697
0.317291
0.312218
0.330586
0.337799
0.343465
0.338429
0.319163
0.316021
0.335321
0.342117
0.348965
0.344289
0.324803
0.323073
0.342124
0.34857
0.355619
0.351564
0.333205
0.330764
0.348924
0.354749
0.359906
0.355358
0.337804
0.336858
0.354946
0.361185
0.358892
0.3516
0.332769
0.341708
0.360802
0.365775
0.365257
0.358774
0.339074
0.350686
0.368922
0.372809
0.372663
0.367115
0.349158
0.356632
0.374255
0.378505
0.379901
0.373513
0.35532
0.350684
0.369636
0.377642
0.384185
0.379299
0.358938
0.3568
0.376453
0.383751
0.39157
0.38759
0.36842
0.367545
0.385757
0.391987
0.398318
0.394358
0.376662
0.375773
0.393931
0.400156
0.397565
0.389783
0.370544
0.377645
0.398612
0.403676
0.403294
0.39606
0.375438
0.388435
0.407927
0.411819
0.413279
0.407696
0.388657
0.39854
0.416512
0.420244
0.421844
0.415808
0.396596
0.391555
0.411589
0.419115
0.425642
0.420495
0.400174
0.397983
0.419242
0.425909
0.434742
0.43091
0.412513
0.415769
0.434776
0.44014
0.438485
0.431508
0.41232
0.418369
0.439106
0.444273
0.44289
0.435552
0.414072
0.425835
0.445753
0.450459
0.454976
0.447892
0.427106
0.426773
0.447092
0.455504
0.464807
0.460899
0.441121
0.437653
0.458015
0.464396
0.470816
0.46607
0.446005
0.444592
0.46608
0.473286
0.472208
0.463935
0.441964
0.457337
0.47751
0.481955
0.485313
0.47978
0.458824
0.474065
0.492529
0.495547
0.497951
0.491845
0.471117
0.46555
0.48769
0.49592
0.503686
0.498679
0.47772
0.480276
0.502717
0.50996
0.513012
0.504633
0.483282
0.498656
0.520317
0.523818
0.526515
0.519407
0.494909
0.489011
0.514687
0.524212
0.533235
0.52774
0.50436
0.510347
0.53493
0.541838
0.543675
0.534329
0.512149
0.524818
0.548967
0.553728
0.557102
0.549063
0.521889
0.518483
0.546271
0.556663
0.56916
0.565559
0.546126
0.552903
0.574913
0.579648
0.579308
0.571266
0.54735
0.55774
0.581752
0.587171
0.593338
0.585463
0.559462
0.564719
0.588991
0.598026
0.61161
0.610087
0.586365
0.581068
0.610484
0.61673
0.621961
0.613896
0.582313
0.584064
0.6147
0.623694
0.636453
0.632924
0.605141
0.601081
0.635009
0.640072
0.646445
0.640322
0.604993
0.601987
0.642324
0.6508
0.652309
0.642659
0.595215
0.584737
0.636588
0.649683
0.644226
0.629039
0.570366
0.542995
0.603058
0.623687
0.620919
0.602643
0.547926
0.506059
0.56924
0.589747
0.563707
0.538852
0.468383
0.435404
0.512352
0.540819
0.523
0.491732
0.409523
0.38817
0.474705
0.508709
0.496494
0.459982
0.369737
0.352953
0.446229
0.485355
0.475075
0.433628
0.337749
0.323911
0.421749
0.465432
0.45642
0.410688
0.311385
0.300023
0.40034
0.44793
0.439919
0.390655
0.289697
0.280246
0.381532
0.432244
0.42497
0.372976
0.271591
0.263627
0.364889
0.417947
0.411261
0.357298
0.256296
0.249526
0.350122
0.404786
0.398605
0.343383
0.243287
0.237529
0.337007
0.392609
0.386861
0.331005
0.232224
0.227335
0.32534
0.381308
0.375987
0.320011
0.222843
0.218713
0.314966
0.370821
0.365884
0.310225
0.214929
0.211458
0.305725
0.361091
0.356503
0.30148
0.208288
0.205393
0.297462
0.352076
0.347843
0.293675
0.202761
0.20037
0.29008
0.343742
0.339811
0.286687
0.198202
0.196241
0.283485
0.336045
0.3324
0.280446
0.194472
0.192879
0.277581
0.32892
0.325571
0.274871
0.191449
0.190167
0.272318
0.322381
0.3193
0.269893
0.189019
0.187996
0.267614
0.316377
0.313559
0.265448
0.187079
0.186265
0.263413
0.310889
0.308319
0.261481
0.185538
0.184892
0.259663
0.305882
0.303554
0.257945
0.184317
0.183809
0.256331
0.30135
0.299235
0.2548
0.183355
0.182953
0.253365
0.29724
0.295336
0.252007
0.182595
0.182274
0.250729
0.293529
0.291812
0.249526
0.181992
0.181735
0.24839
0.290177
0.288639
0.247328
0.181509
0.181302
0.246323
0.287167
0.285787
0.245386
0.181121
0.180956
0.2445
0.284466
0.283223
0.243671
0.180807
0.180674
0.242895
0.282043
0.280928
0.242166
0.180553
0.180445
0.241487
0.279875
0.278878
0.240851
0.18035
0.18027
0.240261
0.277937
0.277047
0.239707
0.180202
0.180148
0.239195
0.276209
0.275409
0.238714
0.180101
0.180065
0.238272
0.27466
0.273949
0.237859
0.180039
0.180019
0.237476
0.273272
0.272637
0.237126
0.180008
0.180007
0.236802
0.272037
0.271469
0.236505
0.180011
0.180025
0.236235
0.270934
0.270429
0.235986
0.180046
0.180077
0.235764
0.269955
0.269501
0.235559
0.180112
0.180155
0.235377
0.269075
0.268671
0.235215
0.180203
0.18026
0.235072
0.268289
0.267929
0.234948
0.18032
0.180392
0.23484
0.26759
0.267264
0.234741
0.180468
0.180552
0.234656
0.266957
0.266667
0.234576
0.18064
0.180734
0.23451
0.266392
0.266132
0.234448
0.18083
0.18093
0.234398
0.265889
0.265654
0.234353
0.18103
0.181132
0.234317
0.265438
0.265231
0.234287
0.181236
0.181338
0.234262
0.265035
0.264858
0.234246
0.181443
0.181546
0.234236
0.264691
0.264541
0.234235
0.181651
0.181757
0.234238
0.264402
0.264274
0.234249
0.181861
0.181968
0.234266
0.264158
0.264052
0.234288
0.182073
0.182182
0.234319
0.263958
0.263875
0.234354
0.182289
0.182399
0.234397
0.263798
0.263738
0.234444
0.182512
0.182626
0.234499
0.263682
0.263639
0.234559
0.182741
0.182859
0.234625
0.263602
0.263574
0.234695
0.18298
0.183101
0.234771
0.263558
0.263546
0.234853
0.183226
0.183352
0.234941
0.263546
0.26355
0.235033
0.183482
0.183613
0.23513
0.263564
0.263587
0.235234
0.183749
0.183885
0.23534
0.263615
0.263651
0.235454
0.184025
0.184168
0.235569
0.263695
0.263746
0.235692
0.184314
0.184462
0.235817
0.263802
0.263866
0.235947
0.184612
0.184765
0.236084
0.263935
0.264014
0.236221
0.184921
0.185079
0.236366
0.264098
0.264188
0.236514
0.18524
0.185403
0.236665
0.264284
0.264388
0.236823
0.185569
0.185737
0.236983
0.264496
0.264612
0.237148
0.185909
0.186083
0.237317
0.264734
0.264861
0.237491
0.186259
0.186438
0.23767
0.264993
0.265133
0.23785
0.186621
0.186805
0.238037
0.265276
0.265426
0.238225
0.186993
0.187183
0.238419
0.265579
0.265741
0.238615
0.187376
0.187571
0.238816
0.2659
0.266072
0.239018
0.187768
0.187967
0.239226
0.26624
0.26642
0.239435
0.188169
0.188373
0.239648
0.266599
0.266782
0.239864
0.188579
0.188786
0.240082
0.26697
0.26716
0.240303
0.188995
0.189207
0.240527
0.267355
0.267551
0.240753
0.189419
0.189634
0.240982
0.267752
0.267955
0.241211
0.189849
0.190066
0.241445
0.268161
0.26837
0.241679
0.190285
0.190503
0.241915
0.268581
0.268795
0.242153
0.190725
0.190945
0.242393
0.269011
0.269231
0.242634
0.191167
0.191389
0.242877
0.269451
0.269674
0.243122
0.191613
0.191837
0.243367
0.269898
0.270123
0.243614
0.192062
0.192287
0.243862
0.270351
0.270581
0.244111
0.192512
0.192738
0.24436
0.270813
0.271045
0.244611
0.192964
0.193191
0.244863
0.271278
0.271513
0.245115
0.193417
0.193644
0.245368
0.271749
0.271987
0.245622
0.19387
0.194098
0.245876
0.272226
0.272464
0.246129
0.194324
0.194551
0.246385
0.272705
0.272945
0.246639
0.194776
0.195003
0.246895
0.273187
0.273429
0.24715
0.195227
0.195452
0.247407
0.273671
0.273916
0.247661
0.195677
0.195902
0.247917
0.27416
0.274404
0.248172
0.196125
0.196348
0.248429
0.274648
0.274893
0.248684
0.196571
0.196793
0.248939
0.275138
0.275383
0.249194
0.197014
0.197235
0.249448
0.275628
0.275875
0.249702
0.197454
0.197673
0.249956
0.276119
0.276366
0.250209
0.197891
0.198109
0.250463
0.27661
0.276856
0.250714
0.198325
0.198541
0.250967
0.2771
0.277346
0.251218
0.198756
0.198969
0.251468
0.27759
0.277833
0.251719
0.199182
0.199394
0.251967
0.278078
0.27832
0.252217
0.199605
0.199814
0.252464
0.278565
0.278805
0.252712
0.200023
0.200231
0.252957
0.279049
0.279289
0.253203
0.200438
0.200644
0.253446
0.279531
0.279771
0.25369
0.200849
0.201052
0.253932
0.28001
0.280249
0.254173
0.201254
0.201455
0.254414
0.280487
0.280724
0.254654
0.201655
0.201853
0.254891
0.28096
0.281194
0.255129
0.202049
0.202245
0.255363
0.28143
0.281663
0.255598
0.202439
0.202632
0.255833
0.281894
0.282127
0.256063
0.202824
0.203016
0.256295
0.282357
0.282586
0.256525
0.203205
0.203393
0.256755
0.282813
0.283042
0.256981
0.203581
0.203767
0.257207
0.283267
0.283489
0.257433
0.203952
0.204135
0.257655
0.283713
0.283934
0.257877
0.204317
0.204498
0.258096
0.284152
0.284369
0.258314
0.204677
0.204855
0.258531
0.284585
0.284798
0.258745
0.20503
0.205205
0.258959
0.285011
0.285221
0.25917
0.205378
0.205549
0.259379
0.285432
0.285638
0.259588
0.205719
0.205886
0.259794
0.285845
0.286047
0.26
0.206052
0.206217
0.260201
0.28625
0.286451
0.260402
0.20638
0.206541
0.260601
0.286648
0.286846
0.260797
0.2067
0.206858
0.260992
0.287041
0.287234
0.261184
0.207013
0.207167
0.261375
0.287425
0.287613
0.261563
0.207318
0.207467
0.26175
0.287801
0.287987
0.261935
0.207614
0.20776
0.262117
0.288167
0.288347
0.262298
0.207904
0.208046
0.262476
0.288525
0.2887
0.262651
0.208186
0.208324
0.262825
0.288874
0.289044
0.262996
0.20846
0.208594
0.263166
0.289213
0.28938
0.263332
0.208726
0.208856
0.263495
0.289544
0.289707
0.263658
0.208984
0.209109
0.263816
0.289867
0.290026
0.263974
0.209232
0.209353
0.26413
0.290183
0.290338
0.264283
0.209472
0.209588
0.264434
0.290493
0.290644
0.264583
0.209703
0.209815
0.26473
0.290793
0.290941
0.264875
0.209926
0.210034
0.265018
0.291086
0.29123
0.265159
0.210141
0.210246
0.265298
0.291372
0.291513
0.265435
0.210349
0.21045
0.26557
0.291651
0.291788
0.265703
0.210549
0.210646
0.265834
0.291924
0.292059
0.265963
0.210741
0.210835
0.266092
0.292191
0.292321
0.266216
0.210927
0.211018
0.266341
0.292451
0.292578
0.266463
0.211106
0.211193
0.266584
0.292704
0.292828
0.266702
0.211278
0.211361
0.266821
0.29295
0.293072
0.266937
0.211444
0.211525
0.26705
0.293194
0.293313
0.267162
0.211604
0.211682
0.267273
0.29343
0.293546
0.267383
0.211759
0.211833
0.26749
0.293661
0.293775
0.267598
0.211908
0.211979
0.267702
0.293886
0.293996
0.267807
0.212051
0.212121
0.267908
0.294107
0.294214
0.268011
0.21219
0.212257
0.268108
0.294321
0.294427
0.268208
0.212325
0.21239
0.268303
0.29453
0.294635
0.2684
0.212455
0.212518
0.268493
0.294735
0.294836
0.268588
0.212582
0.212642
0.268678
0.294935
0.295034
0.268771
0.212704
0.212763
0.268858
0.29513
0.295225
0.268948
0.212822
0.21288
0.269034
0.29532
0.295414
0.26912
0.212937
0.212992
0.269203
0.295507
0.295599
0.269289
0.213047
0.213101
0.26937
0.295688
0.295777
0.269453
0.213154
0.213206
0.269532
0.295866
0.295954
0.269613
0.213258
0.213309
0.269689
0.296039
0.296124
0.269768
0.21336
0.213408
0.269842
0.296208
0.296291
0.26992
0.213457
0.213505
0.269993
0.296373
0.296454
0.270067
0.213552
0.213598
0.270137
0.296535
0.296614
0.27021
0.213644
0.213688
0.270279
0.296692
0.29677
0.27035
0.213733
0.213776
0.270417
0.296846
0.296922
0.270487
0.213819
0.213861
0.270552
0.296997
0.29707
0.27062
0.213903
0.213944
0.270683
0.297144
0.297215
0.270749
0.213985
0.214024
0.270811
0.297287
0.297357
0.270875
0.214064
0.214102
0.270936
0.297428
0.297494
0.270999
0.21414
0.214178
0.271058
0.297566
0.297629
0.271119
0.214215
0.214252
0.271176
0.2977
0.297761
0.271236
0.214288
0.214324
0.271292
0.297831
0.297891
0.27135
0.214359
0.214394
0.271405
0.297957
0.29802
0.271461
0.214428
0.214461
0.271514
0.298081
0.298143
0.271569
0.214495
0.214527
0.271624
0.298203
0.298264
0.271675
0.21456
0.214591
0.271728
0.298322
0.298382
0.271778
0.214623
0.214654
0.27183
0.298441
0.298498
0.271881
0.214685
0.214715
0.271928
0.298554
0.298611
0.271979
0.214745
0.214775
0.272028
0.298666
0.29872
0.272074
0.214803
0.214832
0.272123
0.298774
0.298829
0.272168
0.21486
0.214888
0.272216
0.298881
0.298934
0.272259
0.214915
0.214942
0.272306
0.298987
0.299038
0.272349
0.214969
0.214995
0.272394
0.299086
0.29914
0.272436
0.215021
0.215046
0.27248
0.299188
0.299237
0.272522
0.215071
0.215096
0.272565
0.299285
0.299334
0.272605
0.215121
0.215145
0.272647
0.29938
0.299428
0.272686
0.215169
0.215192
0.272727
0.299475
0.299521
0.272765
0.215215
0.215238
0.272805
0.299563
0.29961
0.272842
0.215261
0.215283
0.272879
0.299654
0.299699
0.272918
0.215305
0.215326
0.272953
0.299741
0.299784
0.272992
0.215347
0.215368
0.273026
0.299825
0.299867
0.273063
0.215389
0.215409
0.273097
0.299908
0.299949
0.273132
0.215429
0.215448
0.273164
0.29999
0.30003
0.2732
0.215467
0.215486
0.273232
0.300069
0.300109
0.273266
0.215505
0.215523
0.273297
0.300146
0.300185
0.273331
0.215541
0.215559
0.273361
0.300222
0.300259
0.273394
0.215578
0.215595
0.273424
0.300296
0.300332
0.273456
0.215612
0.21563
0.273486
0.300368
0.300404
0.273514
0.215646
0.215663
0.273545
0.300439
0.300475
0.273573
0.215679
0.215695
0.273604
0.300509
0.300543
0.27363
0.215711
0.215727
0.27366
0.300577
0.30061
0.273686
0.215742
0.215757
0.273715
0.300643
0.300675
0.273741
0.215772
0.215787
0.273769
0.300707
0.300738
0.273794
0.215801
0.215815
0.27382
0.300769
0.3008
0.273845
0.215828
0.215841
0.27387
0.30083
0.30086
0.273892
0.215853
0.215866
0.273918
0.300889
0.300917
0.273939
0.215877
0.215888
0.273964
0.300945
0.300972
0.273984
0.215899
0.21591
0.274007
0.300998
0.301025
0.274026
0.215919
0.215929
0.274048
0.30105
0.301075
0.274067
0.215938
0.215948
0.274088
0.3011
0.301125
0.274106
0.215957
0.215967
0.274127
0.30115
0.301175
0.274145
0.215975
0.215985
0.274169
0.301231
0.301257
0.274194
0.216001
0.216023
0.274225
0.301287
0.301326
0.274261
0.216059
0.216135
0.274307
0.30135
0.301369
0.274275
0.216194
0.21628
0.274219
0.301276
0.300946
0.27393
0.216311
0.216191
0.273342
0.300418
0.300126
0.273063
0.215816
0.216279
0.273623
0.300887
0.301102
0.273854
0.216423
0.332463
0.352246
0.36687
0.378181
0.386458
0.393655
0.399343
0.404242
0.408405
0.412043
0.415287
0.418158
0.420521
0.422349
0.423955
0.425421
0.428061
0.430268
0.431599
0.434525
0.437087
0.439276
0.441218
0.442904
0.444367
0.445628
0.44671
0.447638
0.448432
0.449112
0.449693
0.450192
0.450619
0.450985
0.4513
0.451572
0.451807
0.45201
0.452188
0.452342
0.452477
0.452596
0.452701
0.452793
0.452875
0.452948
0.453013
0.453071
0.453123
0.45317
0.453211
0.453248
0.453281
0.45331
0.453337
0.453359
0.45338
0.453397
0.453412
0.453424
0.453433
0.453439
0.453442
0.453444
0.453447
0.453448