/*--------------------------------*- C++ -*----------------------------------*\
| =========                 |                                                 |
| \\      /  F ield         | OpenFOAM: The Open Source CFD Toolbox           |
|  \\    /   O peration     | Version:  v2006                                 |
|   \\  /    A nd           | Website:  www.openfoam.com                      |
|    \\/     M anipulation  |                                                 |
\*---------------------------------------------------------------------------*/
FoamFile
{
    version     2.0;
    format      ascii;
    class       volScalarField;
    location    "0.09";
    object      k;
}
// * * * * * * * * * * * * * * * * * * * * * * * * * * * * * * * * * * * * * //

dimensions      [0 2 -2 0 0 0 0];


internalField   nonuniform List<scalar> 
16277
(
78.7511
78.7517
78.7587
78.7607
78.7663
78.7594
78.7446
78.6981
78.5904
78.4169
78.1924
77.9416
77.681
77.4176
77.1519
76.8817
76.604
76.3167
76.0182
75.7081
75.3863
75.0529
74.7082
74.3526
73.9862
73.6092
73.222
72.8246
72.4174
72.0008
71.5751
71.1407
70.6979
70.2473
69.7893
69.3243
68.8529
68.3756
67.8928
67.4051
66.9131
66.4173
65.9183
65.4165
64.9127
64.4073
63.9009
63.3941
62.8875
62.3817
61.8772
61.3746
60.8746
60.3776
59.8843
59.3953
58.9109
58.4319
57.9588
57.4921
57.0324
56.5803
56.1361
55.7004
55.2736
54.8564
54.449
54.052
53.6657
53.2905
52.9268
52.575
52.2355
51.9087
51.595
51.2945
51.0067
50.7299
50.4617
50.1993
49.9428
49.6996
49.4911
49.3473
49.2826
49.2737
49.2882
49.307
49.3185
49.3171
49.3068
49.241
49.0902
48.8379
48.3205
47.4672
43.1343
38.6798
45.3964
47.7155
46.0161
41.1645
34.5259
31.6352
38.9002
44.7176
42.2918
35.3635
28.9184
27.2049
33.9418
41.2593
39.0173
31.2934
25.4438
24.3785
30.4093
38.2126
36.3903
28.5342
23.1881
22.491
28.0226
35.8073
34.3533
26.7518
21.6582
21.1739
26.4171
33.9031
32.7066
25.4699
20.5476
20.1906
25.2376
32.3573
31.3424
24.4885
19.6924
19.4166
24.32
31.0627
30.1787
23.6992
19.0025
18.7795
23.5721
29.949
29.1633
23.0384
18.4216
18.2337
22.939
28.9704
28.2603
22.4656
17.9157
17.753
22.3844
28.0949
27.4444
21.9542
17.4639
17.3188
21.8855
27.3001
26.698
21.4876
17.0511
16.9188
21.4282
26.5703
26.009
21.0559
16.6676
16.5448
21.0035
25.8948
25.3676
20.6522
16.3066
16.1911
20.6053
25.2642
24.7665
20.2713
15.9634
15.8535
20.2288
24.6725
24.2009
19.9097
15.6344
15.5289
19.8708
24.1154
23.668
19.5647
15.317
15.2149
19.5292
23.5904
23.1653
19.235
15.0092
14.9099
19.2024
23.0947
22.6899
18.9189
14.7094
14.6123
18.8889
22.6254
22.2387
18.6149
14.4163
14.3211
18.5869
22.1796
21.809
18.3212
14.1288
14.035
18.2947
21.7543
21.3981
18.036
13.8458
13.753
18.0108
21.3471
21.0037
17.7579
13.5662
13.474
17.7335
20.9558
20.6236
17.4854
13.2891
13.1972
17.4614
20.5784
20.2562
17.2172
13.0136
12.9217
17.1933
20.2131
19.8997
16.9521
12.739
12.6467
16.9279
19.8584
19.5527
16.689
12.4644
12.3716
16.6644
19.5127
19.2139
16.4271
12.1893
12.0956
16.4018
19.1748
18.882
16.1655
11.913
11.8184
16.1394
18.8437
18.5561
15.9036
11.6352
11.5395
15.8765
18.5184
18.2355
15.641
11.3556
11.2586
15.6129
18.1981
17.9194
15.3772
11.0738
10.9757
15.3481
17.8822
17.6072
15.1121
10.7899
10.6909
15.0822
17.5701
17.2984
14.8459
10.5042
10.4044
14.8151
17.2613
16.9927
14.5782
10.217
10.1167
14.5466
16.9556
16.6897
14.3092
9.92894
9.82855
14.2769
16.6525
16.3893
14.0391
9.64075
9.54083
14.0064
16.352
16.0913
13.7686
9.35365
9.25494
13.7357
16.0541
15.796
13.4986
9.06916
8.97258
13.4661
15.7592
15.5041
13.2303
8.78926
8.69598
13.1988
15.468
15.2165
12.9656
8.51643
8.42785
12.9357
15.1814
14.934
12.7063
8.25364
8.17145
12.6789
14.9004
14.6581
12.4549
8.00438
7.93058
12.431
14.6267
14.3907
12.2143
7.77273
7.70977
12.195
14.3624
14.1343
11.9884
7.56323
7.51436
11.9739
14.11
13.8921
11.7807
7.38241
7.34893
11.7675
13.8723
13.6651
11.5844
7.23782
7.21925
11.5739
13.6503
13.4553
11.4043
7.13157
7.12893
11.3978
13.4461
13.2644
11.2446
7.07148
7.08142
11.2425
13.2611
13.095
11.1086
7.05443
7.07903
11.1104
13.0967
12.9462
10.9929
7.07164
7.12265
10.9983
12.9528
12.8183
10.8936
7.13068
7.2091
10.9027
12.8303
12.7131
10.8126
7.23307
7.33507
10.8254
12.7295
12.6278
10.7514
7.37106
7.48986
10.7686
12.6485
12.5616
10.7108
7.5349
7.66584
10.7335
12.5866
12.5147
10.6931
7.71787
7.85827
10.7224
12.5443
12.4877
10.6979
7.91524
8.06188
10.7372
12.5221
12.4801
10.7197
8.12116
8.26996
10.7743
12.5224
12.4896
10.7631
8.32965
8.47726
10.8312
12.5399
12.5117
10.8252
8.53548
8.67863
10.9052
12.5731
12.5488
10.9038
8.73369
8.86945
10.9932
12.6195
12.5983
10.9952
8.92007
9.04611
11.0922
12.6761
12.6566
11.0946
9.09144
9.20562
11.1931
12.7378
12.7191
11.1954
9.24449
9.34508
11.2942
12.8007
12.7819
11.2959
9.3769
9.46326
11.3937
12.8615
12.8418
11.394
9.4879
9.56007
11.4884
12.9169
12.8955
11.4873
9.57777
9.63653
11.5769
12.9643
12.9409
11.5738
9.64783
9.6945
11.6573
13.002
12.9759
11.6521
9.70016
9.73627
11.7283
13.0281
12.9993
11.7205
9.73708
9.76301
11.7885
13.0424
13.0091
11.7781
9.76061
9.77863
11.8377
13.0457
13.0078
11.8245
9.77367
9.78526
11.8758
13.0384
12.9961
11.8603
9.77814
9.78567
11.904
13.0225
12.9741
11.8851
9.77535
9.78038
11.9226
12.9973
12.9427
11.8991
9.7652
9.76912
11.9323
12.9629
12.9027
11.9048
9.75088
9.75397
11.9341
12.9203
12.8552
11.903
9.73336
9.73579
11.9287
12.8702
12.8008
11.8944
9.71333
9.71525
11.9166
12.8134
12.7401
11.8795
9.69126
9.69277
11.8985
12.7506
12.6736
11.8587
9.66753
9.66876
11.875
12.6821
12.6023
11.8329
9.64247
9.64338
11.8473
12.6089
12.5268
11.8025
9.61635
9.61709
11.8153
12.5317
12.4475
11.7678
9.58929
9.59031
11.78
12.451
12.3641
11.7308
9.56225
9.5638
11.7403
12.3687
12.2783
11.6864
9.53379
9.54564
11.6989
12.2857
12.2073
11.6868
9.53234
9.55558
11.6572
12.1947
12.177
11.6966
9.59618
9.70385
11.4841
12.1279
12.8047
12.1962
10.2359
10.2192
10.8467
11.5262
13.7715
16.2946
18.9365
21.1672
22.7085
24.75
26.0448
27.1509
27.8992
28.4229
28.6702
28.6654
28.3948
27.7916
26.9152
25.384
24.2932
22.1069
20.1227
18.0174
15.8498
14.2355
12.5977
12.5236
8.1705
7.92478
12.4837
12.5567
12.5307
12.4862
7.72503
7.57706
12.4976
12.522
12.5772
12.5356
7.48242
7.48385
12.5601
12.5981
12.6394
12.5665
7.41357
7.41716
12.5842
12.6676
12.693
12.6024
7.42509
7.43419
12.6122
12.7212
12.7409
12.6307
7.44623
7.4578
12.6464
12.7729
12.7886
12.6623
7.47099
7.48423
12.6818
12.8242
12.8408
12.6945
7.49739
7.51236
12.7201
12.878
12.895
12.7325
7.52535
7.542
12.7577
12.9322
12.95
12.7699
7.55551
7.5715
12.794
12.9885
13.0061
12.8107
7.58586
7.60214
12.8316
13.0463
13.0653
12.8514
7.61753
7.63304
12.8723
13.1051
13.1238
12.8936
7.64949
7.66544
12.9128
13.1659
13.1857
12.9349
7.68205
7.69859
12.9568
13.2287
13.2489
12.9791
7.7153
7.73215
13.0003
13.2933
13.3139
13.0241
7.74958
7.76741
13.0473
13.3595
13.3812
13.0697
7.78416
7.80183
13.0923
13.4273
13.4492
13.1167
7.8201
7.83801
13.1412
13.4971
13.5195
13.1651
7.85603
7.87518
13.1939
13.5684
13.5918
13.2139
7.89312
7.91273
13.2439
13.6422
13.6659
13.2674
7.931
7.95085
13.2998
13.7174
13.742
13.3205
7.96917
7.98924
13.3531
13.794
13.8187
13.3779
8.00821
8.028
13.412
13.8725
13.8977
13.4339
8.04615
8.06769
13.4701
13.9523
13.978
13.4956
8.08585
8.10659
13.5331
14.0328
14.0592
13.5569
8.12536
8.14595
13.5951
14.1155
14.1418
13.6239
8.16504
8.18638
13.6644
14.1982
14.2247
13.6893
8.2045
8.22586
13.7306
14.2816
14.308
13.7597
8.24371
8.26498
13.8026
14.3615
14.3872
13.8293
8.28309
8.30319
13.8716
14.4419
14.4666
13.902
8.32026
8.34052
13.946
14.5159
14.5385
13.9716
8.35666
8.3751
14.0123
14.5845
14.6047
14.0416
8.39035
8.40749
14.0765
14.6455
14.663
14.1062
8.42194
8.4368
14.1361
14.6958
14.7095
14.1639
8.45023
8.46171
14.1838
14.7313
14.7391
14.2058
8.47427
8.48386
14.2182
14.7509
14.752
14.2267
8.49311
8.50207
14.2304
14.7535
14.7374
14.225
8.51164
8.51946
14.208
14.731
14.6964
14.1843
8.5278
8.53885
14.1554
14.6807
14.6359
14.1067
8.54907
8.56416
14.058
14.6143
14.5474
13.9897
8.5812
8.60408
13.9123
14.5131
14.4249
13.8089
8.6288
8.66189
13.6973
14.3793
14.2809
13.5645
8.70309
8.75769
13.4346
14.2351
14.1393
13.2742
8.82008
8.91126
13.1329
14.081
13.982
12.9405
9.01018
9.1344
12.7703
13.9319
13.8416
12.5679
9.29021
9.47305
12.3721
13.8001
13.7359
12.1403
9.69722
9.95054
11.9637
13.7147
13.693
11.8604
10.177
10.3898
11.6454
13.6892
13.677
11.4319
10.6096
10.7651
11.2926
13.7766
13.7728
11.2429
10.9273
11.0749
11.0033
13.9281
13.9722
10.932
11.2339
11.382
10.8937
14.2257
14.3388
10.9037
11.4911
11.6138
11.0692
14.7278
14.8936
11.152
11.7709
11.9453
11.5184
15.4188
15.7576
11.9522
12.0806
12.3189
12.8985
16.6257
16.974
13.4722
12.5663
11.1041
9.62667
10.5067
14.4303
11.5077
11.1319
11.0261
10.8042
14.2239
14.4448
10.6056
11.2858
11.494
10.304
14.2308
14.6652
10.3563
11.7507
11.9788
10.2858
14.653
15.3629
10.6384
12.198
12.3893
10.733
15.4074
16.4991
11.4734
12.6019
12.7989
11.8547
16.8811
18.5858
13.2464
13.2239
13.5936
14.0232
19.3006
10.8758
9.35834
12.8791
12.5843
11.6009
16.6247
16.9006
11.5049
12.4836
12.5796
12.3799
18.798
19.3199
12.6487
12.6726
12.9529
13.6566
20.7907
21.5574
14.2489
13.2362
13.8368
15.9292
23.4016
23.7608
17.1027
14.4598
12.8834
10.7625
13.0296
20.6151
13.1192
13.0482
13.0161
13.1159
21.0478
23.0501
14.4273
13.4191
13.718
14.8611
23.4186
26.3363
17.3487
14.5182
15.5543
19.1504
27.2878
15.0581
11.2321
13.8695
13.7237
15.2026
25.2574
26.4445
16.0614
13.8269
14.655
19.278
30.5602
32.182
21.148
15.4626
17.1776
24.3311
33.9389
19.2193
13.3581
14.3411
14.6214
19.2557
32.1594
33.1681
20.1668
14.9892
16.7614
26.0064
39.059
40.9034
29.1374
18.4174
14.9896
15.9012
25.1877
41.926
25.814
16.215
17.0868
28.1033
44.7669
53.3815
37.4716
20.2118
21.7022
40.4376
55.0661
39.1306
23.6196
16.5111
21.2541
43.1153
60.4844
63.2681
47.2335
23.432
17.2732
28.7844
48.7799
74.4407
56.0255
25.5036
29.1646
62.7643
79.3554
70.9106
44.0829
19.5017
37.6897
81.3877
94.1121
87.678
63.0838
20.0586
38.0483
89.8605
105.759
107.536
89.6337
37.5728
39.4168
87.884
105.523
101.705
86.3247
42.8138
56.0217
95.7992
102.222
77.8097
53.767
38.8714
45.1935
71.1132
82.5212
58.2521
41.9165
31.8285
33.5197
51.8191
65.2605
59.3286
43.3575
29.3316
25.3734
24.3888
36.2481
48.1264
37.3138
27.2056
22.7457
25.0399
32.9369
43.236
32.1849
24.0186
21.7089
27.7244
39.5572
23.6626
18.0927
20.1415
21.2
24.8846
35.0705
32.0175
21.9812
19.4552
18.9415
15.4572
19.1034
29.4826
20.766
19.4067
18.2344
18.8469
26.7763
16.4091
14.1169
18.1169
18.0639
18.031
25.4519
22.8608
16.5753
17.3667
17.647
12.9916
14.3725
22.0921
16.0222
17.0047
16.587
14.7604
19.9063
12.7861
11.93
17.1593
16.116
14.5007
19.6093
17.6341
13.3762
15.8327
16.6656
11.0945
11.6297
17.5753
13.1982
15.3356
15.2275
12.207
15.9127
10.7397
10.3831
16.1158
14.7372
12.4812
16.3934
14.0626
11.355
14.5934
14.9658
10.2976
12.183
8.94378
8.85951
16.7498
14.1098
9.81955
12.5295
11.4687
9.43707
14.4708
15.5965
8.8581
8.48789
11.1309
9.1673
13.2809
13.9174
8.885
10.3486
7.83714
8.06709
15.6475
13.0762
8.3863
10.1927
9.50695
8.30802
13.676
15.0551
8.08349
7.3925
9.2927
8.01487
12.6036
13.3945
8.00077
8.80602
7.14733
7.97721
14.9303
12.4259
7.53461
8.5682
8.196
7.55325
13.1892
15.1869
7.31271
6.67811
8.27909
7.23088
12.3651
13.1423
7.31665
7.80608
6.44991
7.13848
15.1661
12.331
6.79456
7.50028
7.23274
7.00945
13.2954
15.6584
6.88132
6.11114
6.99505
6.793
12.7406
14.2882
7.02142
5.9746
7.68529
6.71854
11.723
12.5633
6.72118
7.20317
6.24164
7.42449
14.4692
11.9476
6.76187
7.33738
7.00052
6.69759
12.8748
14.719
7.43443
6.1468
7.27191
6.75044
12.0335
12.9999
6.60081
6.86847
6.11806
7.74675
15.0533
12.3051
6.53429
6.70269
6.37644
6.32587
13.3339
15.337
7.88316
5.89127
6.32659
6.33327
12.369
13.4897
6.28796
6.02612
5.72237
7.54363
16.0783
12.8332
5.70313
6.00722
5.49158
7.18747
14.7819
12.0561
5.9612
6.0974
5.67302
5.80828
13.0606
15.0963
7.75433
5.50604
5.82715
5.92624
12.3562
13.5165
5.76147
5.34262
5.41537
7.90626
16.0791
12.7646
5.25753
5.43044
5.11861
7.09812
14.9023
11.9752
5.5948
5.55022
5.14328
5.53462
13.1046
15.3382
7.82315
5.2047
5.50536
5.70504
12.4758
13.8011
5.64124
5.07365
5.29278
8.09265
16.6043
13.095
5.05808
5.08491
4.94242
7.17537
15.3812
12.2884
5.4234
5.30054
4.86429
5.41474
13.5593
15.9334
8.0314
5.03069
5.17221
5.48898
12.8096
14.2705
5.48165
4.70359
5.08777
8.92684
16.5716
13.3986
5.04425
4.70156
4.68506
7.10614
15.8785
12.5021
5.08053
4.88736
4.53224
5.2247
13.9703
16.8906
8.33537
4.96685
4.61552
4.75967
13.335
16.0949
7.28052
4.67404
4.87614
5.10586
12.7136
14.1829
5.16745
4.48166
4.97337
8.79857
16.7066
13.3996
4.97075
4.59005
4.65066
7.29547
16.1782
12.7051
5.04135
4.8051
4.45994
5.22368
14.3113
17.0005
9.07878
5.00492
4.61006
4.98265
13.6761
16.7603
7.47457
4.69793
4.8185
5.06947
13.1333
14.7548
5.27744
4.46454
5.0611
8.88864
17.8471
14.0636
4.84598
4.58735
4.72839
7.64922
16.9787
13.4507
5.11724
4.82324
4.45597
5.2976
15.1839
17.8759
9.64868
5.12067
4.64824
5.02276
14.569
17.9069
8.40576
5.00399
4.61052
4.65852
13.9921
16.6897
7.59087
4.75881
4.85975
5.11266
13.2624
14.977
5.38099
4.51933
5.18741
9.44578
18.1887
14.4706
5.06407
4.67179
4.8662
8.02918
17.8147
14.0499
5.2224
4.90004
4.5421
5.51564
15.9191
18.7756
10.1333
5.29321
4.745
5.2125
15.4455
18.8105
8.75584
5.16657
4.68195
4.78327
14.8464
17.6745
7.92452
4.87303
4.91592
5.24113
13.9565
15.8099
5.47872
4.56876
5.38196
9.84146
19.6493
15.513
5.08518
4.75719
5.21985
8.75373
19.0358
15.043
4.82324
4.77867
5.04163
8.34669
18.0876
14.4006
5.3703
5.0374
4.72013
5.75225
16.3129
19.4483
10.42
5.53877
4.92274
5.41906
15.738
19.7278
9.16992
5.42161
4.88451
4.97377
15.5143
18.637
8.51445
5.15107
5.12434
5.48094
14.7139
16.6757
5.83015
4.7975
5.70414
10.5752
20.6054
16.3286
5.43505
5.01395
5.54297
9.3439
20.0925
15.9716
5.13889
5.01338
5.34431
8.90992
19.1415
15.1919
5.65475
5.25247
4.92508
6.04084
17.3435
21.8948
10.8165
5.92529
5.12174
5.49118
17.351
21.3633
9.68519
5.71917
5.10612
5.16092
16.7599
20.1788
9.29741
5.50558
5.31557
5.76935
15.8321
17.9661
6.13615
4.97371
6.03353
11.1649
22.4999
17.6514
5.63743
5.20148
5.84244
10.031
21.7013
16.9263
5.28188
5.18835
5.77933
9.58114
20.7264
16.5349
5.35382
5.18232
5.63646
9.52513
20.0607
15.8884
5.86696
5.41938
5.13834
6.38159
18.1242
21.95
11.9749
6.2158
5.48029
6.17102
18.1405
22.8184
10.5773
6.18077
5.38989
5.60703
18.0173
21.7369
10.0244
5.98405
5.33364
5.51321
17.1249
20.7404
9.87605
5.8265
5.58522
6.09736
16.5017
18.8658
6.53185
5.26529
6.49595
12.1251
23.9083
18.9195
6.06493
5.57085
6.28149
10.7493
23.519
18.4085
5.64602
5.53627
6.20878
10.2962
22.3972
17.7822
5.72938
5.52505
6.07458
10.3847
21.4999
17.1352
6.34721
5.74716
5.45596
6.82407
19.5
24.7156
12.6162
6.80022
5.76874
6.34323
19.6419
24.4978
11.1889
6.56428
5.72418
5.8311
19.2676
23.6829
10.8697
6.48203
5.71679
5.98827
18.7501
22.7374
10.856
6.3169
5.88259
6.53116
17.9367
20.4801
7.10426
5.60285
7.00043
13.3941
24.6772
20.2692
6.81848
5.96951
6.90317
11.8171
25.4834
19.9703
6.11503
5.92811
6.73924
11.318
24.3961
19.4011
6.14876
5.87472
6.64107
11.0816
23.8435
19.0264
6.18794
5.89212
6.56719
11.1403
23.1489
18.5894
6.91093
6.12619
5.8621
7.5004
21.3186
27.5509
13.8723
7.49956
6.15433
6.83915
21.6017
26.9231
12.2607
7.18314
6.11048
6.28433
21.0058
25.6612
11.7862
7.0315
6.11349
6.39909
20.3296
24.9798
11.7383
6.96651
6.12687
6.54801
20.0144
24.2936
11.7005
6.81517
6.3366
7.11874
19.3
22.0324
7.66561
6.05553
7.76523
14.4148
27.854
21.9096
7.14824
6.44991
7.56978
12.8518
27.4992
21.5327
6.71162
6.44776
7.41393
12.3087
26.5614
21.0677
6.73008
6.43633
7.36925
12.2907
25.8388
20.7074
6.94122
6.47774
7.22646
12.202
25.1713
20.1747
7.51417
6.66456
6.41249
8.18966
23.0893
29.6908
15.1943
8.27319
6.71232
7.50241
23.5349
29.3107
13.4061
7.91643
6.6726
6.94402
23.1473
28.4297
12.9082
7.81262
6.67063
6.9637
22.5222
27.5956
12.9031
7.7281
6.69245
7.16509
21.9455
26.4722
12.898
7.55835
6.90254
7.81012
20.9905
24.0801
8.50956
6.64178
8.60904
15.9371
30.6431
24.313
7.88036
7.0048
8.33428
14.0623
30.4545
23.8723
7.28601
6.9798
8.15876
13.4184
29.2763
23.2537
7.29931
6.97197
8.12833
13.4083
28.5517
22.8659
7.53549
7.0094
7.97403
13.5069
27.7576
22.144
8.22361
7.19707
6.96908
9.04846
25.594
33.2777
16.8964
9.19568
7.27693
8.18553
26.0419
32.4209
14.9162
8.78955
7.1917
7.59679
25.281
31.0421
14.1643
8.57877
7.19293
7.59669
24.6957
30.3871
14.1647
8.52729
7.2553
7.80304
24.2553
29.6594
14.1463
8.51501
7.31148
7.93376
23.7335
28.8471
14.121
8.31828
7.51873
8.58041
22.8322
26.4061
9.3877
7.2799
9.51666
17.7133
32.982
26.3691
8.97026
7.73784
9.32524
15.6901
33.2616
26.087
8.16078
7.67241
9.09304
14.9729
31.9176
25.2614
8.18437
7.68102
9.02293
14.8474
30.8648
24.7112
8.42552
7.75243
8.88683
14.7381
30.0084
23.9757
9.05403
7.92016
7.69492
9.96027
27.8525
35.4468
18.6877
10.2055
8.1408
9.34596
28.0701
35.0893
16.5236
9.88745
7.99691
8.60308
27.7029
33.9472
15.7571
9.58868
7.94989
8.50814
26.908
32.8598
15.6014
9.50014
7.9822
8.72863
26.2859
32.1006
15.6329
9.29752
8.14838
9.42708
25.3479
29.444
10.3437
7.90281
10.5854
19.8076
36.6117
29.1285
10.0161
8.42462
10.3238
17.4269
36.6405
28.7361
9.02508
8.31614
10.0376
16.552
35.0398
27.7897
8.97887
8.26937
9.88147
16.2852
34.0843
27.1794
9.113
8.3182
9.72268
16.2717
33.3554
26.4991
9.85584
8.49618
8.28381
10.9536
30.9486
39.2151
20.8662
11.2449
8.86268
10.4039
31.0837
39.0092
18.4365
10.9631
8.72074
9.53841
30.5002
37.4041
17.6155
10.6354
8.67028
9.50008
29.5179
36.3908
17.3725
10.5315
8.70085
9.64993
28.932
35.7062
17.3985
10.3022
8.86644
10.3736
28.2658
32.9584
11.4524
8.62979
11.7761
21.9691
41.1925
32.6411
10.9931
9.26701
11.4742
19.3322
40.5254
31.644
10.0514
9.15602
11.1694
18.3946
39.033
30.7338
10.0308
9.13793
10.9809
18.4374
38.239
30.4296
11.0154
9.25779
9.05137
12.2588
35.6558
45.2573
23.7242
12.7743
9.74161
11.5298
35.4716
43.7344
20.5099
12.1976
9.49714
10.491
34.072
41.9424
19.5973
11.7689
9.40613
10.4478
32.6368
40.3923
19.441
11.4659
9.50049
11.4034
31.8556
37.3436
12.6771
9.2721
13.1066
24.8972
45.7866
36.3005
12.3465
10.0115
12.6877
21.6008
45.7748
35.3267
10.9074
9.87446
12.3629
20.6516
44.1121
34.6814
11.0563
9.84658
12.136
20.6972
42.9907
33.8642
12.0419
9.90485
9.73558
13.5218
39.8257
50.525
26.4343
14.1565
10.5227
12.6395
39.2259
48.7718
22.78
13.4345
10.2706
11.453
37.5837
46.5221
21.7002
12.9241
10.1754
11.4901
36.3127
45.3346
21.611
12.6012
10.2706
12.5047
35.8519
42.2408
13.9242
10.0666
14.6462
27.5312
52.8032
40.9344
13.2693
10.9856
14.1367
24.22
51.4308
39.6969
12.2168
10.8383
13.673
22.9597
49.288
38.5922
12.1691
10.8106
13.4852
23.03
48.1462
38.153
13.4095
10.9178
10.7692
15.107
44.9743
56.0628
29.7898
15.8875
11.7428
14.4897
43.4442
54.3092
25.7807
15.137
11.4688
13.1183
41.942
52.2386
24.6482
14.3857
11.3369
13.9078
40.8827
47.8706
15.2278
11.1436
16.6636
31.7226
60.7005
46.2738
15.0254
12.2423
15.9204
27.2547
57.7437
44.6318
13.7003
12.0007
15.3238
25.9564
55.6324
43.4077
13.5956
11.9453
15.025
25.8874
54.1636
42.6366
14.8431
12.0082
11.8993
16.767
50.1356
62.1538
33.6163
17.7589
13.0366
16.5237
48.3058
60.8845
29.173
17.066
12.8796
14.848
47.2764
59.1161
28.0306
16.2996
12.7533
15.7815
45.8887
54.0686
17.618
12.5815
18.8979
35.8395
67.7553
52.4507
17.3267
13.777
18.1206
31.2448
65.6939
50.7539
15.8388
13.5911
17.3016
29.8778
63.0818
49.3255
16.748
13.4644
13.3676
18.8695
57.7006
71.2876
38.3694
20.1754
14.5863
18.7187
54.8664
68.78
33.4582
19.0903
14.2341
17.7714
53.0899
62.1449
19.7024
14.0534
21.2876
40.2609
77.0684
58.4391
19.1191
15.2726
20.485
35.4525
74.1188
57.0343
17.7604
14.9517
19.4108
33.7266
71.0221
55.4894
18.6341
14.7035
14.6111
21.1087
64.976
80.5417
42.7366
22.5125
15.9754
20.5425
62.1185
77.5316
37.0269
21.085
15.3256
19.3275
59.6499
69.5771
21.3763
15.1557
23.4409
44.8091
85.953
65.5684
21.1336
16.5067
22.0416
38.9045
82.1861
62.7688
20.4765
15.9331
15.7974
23.0298
73.9756
92.2832
48.4294
25.0878
17.3465
22.4327
69.817
86.979
41.5857
23.3966
16.495
21.1999
66.2589
77.2176
23.5772
16.3437
25.8799
49.7816
95.6571
72.7059
23.091
17.8912
24.1987
42.8251
90.5508
69.3901
22.0826
17.1053
16.9867
24.6208
81.2251
100.867
52.4096
27.042
18.5616
23.4228
74.4894
95.3539
45.4674
25.4423
17.6761
23.1873
72.7992
84.968
25.5522
17.5285
28.0675
54.6418
104.728
79.6872
25.2621
19.1626
26.2185
46.966
99.3456
75.9964
23.914
18.4163
18.3189
26.7135
88.4153
109.569
57.2178
29.431
20.1136
26.3611
83.0094
103.709
49.0549
27.3506
19.0861
24.9352
78.374
90.596
26.5462
18.8402
29.8736
59.7577
114.5
86.7031
28.122
20.2873
20.0361
30.2295
100.366
123.366
64.2535
32.8156
21.9934
29.1518
93.3447
115.484
54.3076
30.2597
20.6793
26.9837
87.6116
101.167
30.0558
20.6004
32.8073
65.2
124.425
94.5289
31.0962
22.0633
21.6446
31.6845
108.574
135.75
69.7786
34.9244
22.863
32.5724
101.942
117.56
34.1083
22.4374
37.5256
74.2403
144.392
107.38
32.7285
24.5712
34.1745
61.8784
131.666
98.8334
30.1687
22.9191
22.8305
33.4231
113.533
138.925
73.0335
36.4851
24.2505
34.4133
104.688
119.61
34.6095
23.7874
38.2976
76.4383
150.099
112.376
35.5913
25.0577
24.6669
37.6056
129.061
158.964
81.8396
40.4477
26.1325
37.4275
117.859
133.909
38.8235
25.7131
41.7715
83.6055
162.846
121.376
38.2705
26.8578
26.4993
39.847
138.521
170.447
85.9713
42.9658
27.4024
38.9316
126.255
142.478
46.0785
27.8589
28.1009
50.2802
165.223
200.708
101.646
49.4661
29.7407
43.9449
145.58
163.732
44.4447
28.9969
47.7607
97.7382
195.939
142.769
42.4863
29.2039
29.0452
46.7126
158.316
182.737
51.9179
29.1935
52.8446
112.782
224.276
160.987
46.4869
30.8679
31.1748
53.1447
177.345
201.352
57.5431
31.4648
56.3413
117.612
240.064
168.042
48.1765
32.3182
32.0529
53.2883
188.591
215.5
58.3444
31.8892
57.5849
124.298
260.218
183.043
50.3282
32.5135
31.2598
48.8209
200.301
221.337
69.0313
33.3554
32.3525
56.6477
245.657
285.194
146.197
63.5015
34.3917
55.4737
198.723
220.488
57.0614
33.428
33.6701
68.947
247.095
264.249
61.6807
31.8886
33.836
78.6832
285.608
301.151
75.1606
31.8788
64.4749
156.805
330.428
208.759
54.9613
32.5694
31.0926
54.1029
222.367
244.814
65.6605
30.9429
30.1534
65.0839
259.615
271.934
66.8586
29.6551
29.4912
72.1335
275.059
272.252
75.4769
29.3841
29.3453
78.5015
265.459
253.033
82.3416
29.4437
29.5728
85.2828
239.407
225.705
89.0631
29.9557
30.35
92.8296
212.529
200.248
97.7165
31.207
31.8965
102.419
189.113
179.072
107.005
33.2108
34.2194
111.427
170.055
161.981
115.706
35.8766
37.1827
119.826
154.759
148.369
123.801
39.1535
41.0364
127.197
142.693
137.691
130.398
43.5792
45.8857
133.071
133.249
129.336
135.67
48.7233
51.0689
138.09
125.884
122.872
140.457
53.9717
56.3879
142.627
120.231
117.946
144.72
59.3786
61.87
146.595
115.954
114.25
148.389
64.9221
67.4614
149.957
112.772
111.523
151.443
70.5525
73.1411
152.694
110.444
109.542
153.863
76.2901
78.9173
154.803
108.765
108.122
155.651
82.1058
84.661
156.309
107.57
107.124
156.9
87.7101
90.1176
157.319
106.744
106.443
157.694
92.9978
95.235
157.906
106.185
105.984
158.087
97.9224
99.9528
158.12
105.81
105.675
158.092
102.402
104.179
157.995
105.555
105.472
157.865
106.363
107.873
157.587
105.39
105.333
157.378
109.784
111.049
156.985
105.287
105.252
156.684
112.71
113.753
156.214
105.228
105.203
155.832
115.178
116.008
155.301
105.184
105.152
154.853
117.201
117.834
154.279
105.129
105.087
153.781
118.808
119.263
153.186
105.057
105.001
152.657
120.045
120.362
152.061
104.962
104.893
151.513
120.967
121.176
150.925
104.845
104.761
150.368
121.623
121.748
149.794
104.703
104.612
149.236
122.052
122.116
148.682
104.548
104.449
148.135
122.302
122.315
147.603
104.377
104.275
147.073
122.389
122.37
146.562
104.196
104.089
146.056
122.376
122.311
145.56
104.005
103.897
145.081
122.286
122.171
144.605
103.81
103.702
144.155
122.109
121.928
143.699
103.614
103.507
143.272
121.842
121.62
142.837
103.421
103.314
142.428
121.519
121.272
142.014
103.228
103.122
141.621
121.162
120.904
141.232
103.038
102.933
140.854
120.791
120.533
140.49
102.85
102.747
140.128
120.415
120.169
139.793
102.667
102.567
139.446
120.05
119.827
139.137
102.49
102.393
138.809
119.707
119.504
138.529
102.32
102.228
138.222
119.395
119.213
137.967
102.159
102.071
137.683
119.115
118.955
137.456
102.008
101.926
137.196
118.871
118.737
136.994
101.87
101.793
136.759
118.667
118.556
136.581
101.744
101.673
136.37
118.5
118.414
136.216
101.631
101.566
136.027
118.373
118.308
135.896
101.532
101.474
135.729
118.282
118.24
135.619
101.447
101.396
135.471
118.226
118.204
135.381
101.375
101.334
135.252
118.204
118.201
135.18
101.318
101.286
135.068
118.215
118.227
135.011
101.276
101.253
134.915
118.249
118.28
134.873
101.247
101.233
134.793
118.31
118.356
134.761
101.232
101.229
134.698
118.393
118.453
134.675
101.232
101.234
134.627
118.496
118.569
134.612
101.243
101.25
134.578
118.617
118.701
134.57
101.267
101.278
134.55
118.753
118.846
134.548
101.302
101.317
134.54
118.903
119.004
134.545
101.347
101.366
134.546
119.063
119.171
134.557
101.401
101.425
134.563
119.233
119.347
134.584
101.464
101.49
134.594
119.41
119.528
134.622
101.534
101.564
134.636
119.592
119.714
134.672
101.611
101.644
134.689
119.78
119.905
134.732
101.694
101.73
134.752
119.971
120.098
134.8
101.783
101.821
134.824
120.164
120.293
134.877
101.877
101.918
134.903
120.359
120.489
134.961
101.976
102.019
134.989
120.555
120.684
135.05
102.079
102.124
135.08
120.75
120.879
135.145
102.185
102.232
135.176
120.943
121.071
135.244
102.296
102.345
135.276
121.134
121.26
135.346
102.409
102.459
135.379
121.321
121.444
135.45
102.525
102.577
135.484
121.504
121.624
135.556
102.643
102.696
135.591
121.682
121.799
135.664
102.763
102.817
135.698
121.855
121.968
135.772
102.884
102.938
135.806
122.022
122.132
135.88
103.007
103.061
135.914
122.184
122.289
135.988
103.13
103.184
136.022
122.339
122.441
136.096
103.253
103.308
136.131
122.489
122.588
136.205
103.377
103.432
136.239
122.634
122.729
136.313
103.5
103.555
136.348
122.774
122.866
136.422
103.624
103.679
136.456
122.908
122.997
136.529
103.747
103.802
136.563
123.038
123.123
136.635
103.87
103.925
136.668
123.161
123.242
136.739
103.994
104.048
136.772
123.279
123.356
136.842
104.117
104.171
136.875
123.391
123.465
136.944
104.24
104.294
136.975
123.497
123.567
137.043
104.364
104.418
137.074
123.598
123.665
137.141
104.488
104.542
137.172
123.694
123.757
137.237
104.613
104.667
137.267
123.784
123.843
137.332
104.739
104.793
137.362
123.868
123.925
137.426
104.865
104.92
137.456
123.949
124.003
137.52
104.991
105.045
137.55
124.025
124.076
137.613
105.117
105.169
137.643
124.097
124.144
137.705
105.24
105.291
137.734
124.163
124.21
137.797
105.361
105.41
137.825
124.225
124.278
137.891
105.481
105.529
137.921
124.295
124.336
137.98
105.598
105.64
138.008
124.352
124.392
138.077
105.715
105.75
138.096
124.406
124.44
138.156
105.864
105.896
138.171
124.446
124.463
138.233
105.988
106.017
138.253
124.507
124.52
138.109
106.126
106.025
137.83
124.679
124.447
137.413
106.304
106.999
137.218
124.325
124.381
137.596
107.411
116.118
72.1719
43.2261
40.4469
41.3865
45.6037
49.1457
54.7698
56.9054
63.8529
67.6802
68.8008
68.9646
68.4382
67.9079
67.6008
67.5029
67.5424
67.6512
67.7863
67.9248
68.0557
68.1742
68.2789
68.3698
68.4477
68.513
68.5666
68.6082
68.639
68.6596
68.6717
68.6772
68.6843
68.6973
68.7165
68.7419
68.772
68.8068
68.8454
68.8883
68.9356
68.9883
69.0471
69.1134
69.2042
69.3511
69.5684
69.8333
70.1105
70.3771
70.6245
70.8513
71.0588
71.2487
71.4219
71.5794
71.7219
71.85
71.9647
72.067
72.1582
72.2398
72.3133
72.3802
72.4416
72.4987
72.5524
72.6037
72.6533
72.702
72.7504
72.799
72.8486
72.8996
72.9524
73.0076
73.0655
73.1264
73.1907
73.2584
73.3297
73.4046
73.4832
73.5652
73.6504
73.7387
73.8296
73.9229
74.0182
74.1149
74.2128
74.3114
74.4103
74.509
74.6074
74.7049
74.8014
74.8965
74.99
75.0818
75.1716
75.2594
75.3449
75.4283
75.5093
75.5879
75.6642
75.7382
75.8097
75.879
75.9459
76.0107
76.0732
76.1336
76.1919
76.2482
76.3025
76.3549
76.4056
76.4545
76.5017
76.5473
76.5913
76.6339
76.675
76.7148
76.7532
76.7905
76.8265
76.8614
76.8953
76.9281
76.9599
76.9909
77.0209
77.0502
77.0786
77.1063
77.1333
77.1596
77.1853
77.2103
77.2349
77.2589
77.2824
77.3054
77.3281
77.3503
77.3721
77.3936
77.4148
77.4357
77.4564
77.4767
77.4969
77.5169
77.5367
77.5564
77.576
77.5954
77.6148
77.6341
77.6535
77.6728
77.6921
77.7115
77.7309
77.7505
77.7701
77.7899
77.8099
77.83
77.8504
77.8711
77.892
77.9132
77.9348
77.9568
77.9792
78.002
78.0253
78.0492
78.0736
78.0987
78.1244
78.1508
78.178
78.2061
78.235
78.2648
78.2956
78.3275
78.3605
78.3945
78.4297
78.466
78.5032
78.541
78.5788
78.6158
78.6505
78.6813
78.7052
78.7212
78.7296
78.7364
78.7431
78.7422
78.7409
78.7363
78.7196
78.6763
78.5838
78.4304
78.2235
77.9828
77.7259
77.4621
77.1939
76.9202
76.6389
76.3481
76.0465
75.7336
75.4093
75.0737
74.7269
74.3694
74.0012
73.6227
73.2339
72.8353
72.427
72.0094
71.5827
71.1475
70.7041
70.2529
69.7943
69.3289
68.8571
68.3794
67.8963
67.4084
66.9161
66.4201
65.9208
65.4188
64.9148
64.4092
63.9027
63.3958
62.8891
62.3832
61.8786
61.3759
60.8758
60.3788
59.8854
59.3963
58.9119
58.4328
57.9597
57.4929
57.0332
56.5809
56.1366
55.7008
55.274
54.8566
54.4491
54.0519
53.6654
53.29
52.9262
52.5743
52.2349
51.9083
51.595
51.295
51.0078
50.7323
50.4666
50.2094
49.9625
49.7347
49.5442
49.4103
49.3362
49.3023
49.2847
49.2671
49.2225
49.0557
48.1997
46.6678
45.549
45.1389
43.9823
43.6587
42.52
42.2616
41.1708
40.9711
39.9198
39.7699
38.7579
38.6502
37.6759
37.6036
36.6646
36.622
35.7155
35.6982
34.8227
34.8258
33.9833
33.9999
33.1851
33.2137
32.4253
32.4654
31.7032
31.7549
31.0186
31.0809
30.3686
30.44
29.7498
29.829
29.1588
29.2445
28.5926
28.6838
28.0488
28.1446
27.5249
27.6246
27.0191
27.1221
26.5298
26.6354
26.0552
26.1629
25.5937
25.7029
25.1439
25.2542
24.7047
24.8157
24.2751
24.3865
23.8541
23.9655
23.4408
23.5519
23.0343
23.1448
22.6339
22.7436
22.2389
22.3475
21.8488
21.956
21.463
21.5688
21.0813
21.1854
20.7033
20.8056
20.329
20.4295
19.9588
20.0574
19.5932
19.6903
19.2334
19.3293
18.8808
18.9758
18.5374
18.6323
18.2059
18.3017
17.8902
17.9879
17.5935
17.6939
17.3186
17.4228
17.0688
17.1773
16.8446
16.9588
16.6513
16.7741
16.4954
16.6279
16.3749
16.5172
16.287
16.4384
16.2292
16.3898
16.1999
16.3693
16.1965
16.3741
16.2157
16.4003
16.2481
16.4417