/*--------------------------------*- C++ -*----------------------------------*\
| =========                 |                                                 |
| \\      /  F ield         | OpenFOAM: The Open Source CFD Toolbox           |
|  \\    /   O peration     | Version:  v2006                                 |
|   \\  /    A nd           | Website:  www.openfoam.com                      |
|    \\/     M anipulation  |                                                 |
\*---------------------------------------------------------------------------*/
FoamFile
{
    version     2.0;
    format      ascii;
    class       surfaceScalarField;
    location    "0.09";
    object      phi;
}
// * * * * * * * * * * * * * * * * * * * * * * * * * * * * * * * * * * * * * //

dimensions      [1 0 -1 0 0 0 0];
oriented        oriented;


internalField   nonuniform List<scalar> 
32242
(
-2.61592e-05
-0.00135439
0.00133511
4.5531e-05
-0.00127012
0.0012439
8.34936e-06
7.76998e-05
-3.49453e-06
0.00146284
3.80293e-05
0.00159993
-3.29052e-05
0.00165138
-3.66677e-06
0.00169139
-1.6373e-05
0.00168406
-2.32879e-06
0.00168002
-2.4299e-06
0.00166947
-4.47132e-07
0.00166257
-1.01529e-06
0.00165676
-1.15314e-06
0.00165309
-1.27921e-06
0.00164974
-1.47977e-06
0.00164692
-1.51038e-06
0.00164385
-1.61889e-06
0.00164092
-1.72338e-06
0.00163777
-1.82384e-06
0.0016345
-1.92032e-06
0.00163109
-2.01303e-06
0.00162755
-2.1023e-06
0.00162388
-2.18852e-06
0.00162008
-2.27206e-06
0.00161616
-2.35319e-06
0.00161211
-2.43211e-06
0.00160794
-2.50893e-06
0.00160365
-2.5837e-06
0.00159924
-2.65637e-06
0.00159472
-2.72689e-06
0.00159008
-2.79517e-06
0.00158533
-2.8611e-06
0.00158047
-2.92456e-06
0.00157551
-2.98541e-06
0.00157045
-3.04353e-06
0.0015653
-3.09877e-06
0.00156005
-3.15099e-06
0.00155472
-3.20005e-06
0.00154931
-3.24583e-06
0.00154383
-3.28821e-06
0.00153827
-3.32706e-06
0.00153265
-3.36226e-06
0.00152697
-3.39373e-06
0.00152124
-3.42134e-06
0.00151546
-3.44499e-06
0.00150964
-3.4646e-06
0.00150378
-3.48007e-06
0.00149789
-3.49133e-06
0.00149199
-3.49828e-06
0.00148606
-3.50086e-06
0.00148013
-3.499e-06
0.00147419
-3.49268e-06
0.00146826
-3.48193e-06
0.00146234
-3.46656e-06
0.00145643
-3.44507e-06
0.00145055
-3.41994e-06
0.00144471
-3.39043e-06
0.0014389
-3.35609e-06
0.00143315
-3.317e-06
0.00142744
-3.27315e-06
0.0014218
-3.22456e-06
0.00141622
-3.17125e-06
0.00141073
-3.11324e-06
0.00140531
-3.05056e-06
0.00139999
-2.98322e-06
0.00139476
-2.91123e-06
0.00138964
-2.83453e-06
0.00138462
-2.75298e-06
0.00137973
-2.6664e-06
0.00137496
-2.57446e-06
0.00137031
-2.47683e-06
0.0013658
-2.37316e-06
0.00136144
-2.26324e-06
0.00135722
-2.14697e-06
0.00135316
-2.02407e-06
0.00134927
-1.89332e-06
0.00134552
-1.75124e-06
0.00134191
-9.21946e-07
0.00133772
-1.39989e-06
0.00133426
-1.16974e-06
0.00132816
-2.89536e-06
0.00131955
-4.61646e-06
0.00130742
-1.96294e-05
0.00128696
-3.00953e-05
0.00126105
-8.36234e-05
0.00122473
-0.000143177
0.00120262
-0.000328503
0.00121428
-0.000736197
0.00140183
-0.000202563
0.000361196
2.04325e-05
0.000599542
4.44664e-06
0.000786408
-3.85986e-05
0.000696038
-1.24937e-05
0.000609995
-7.50925e-06
0.000220539
-4.58124e-06
0.000183625
0.000148435
8.5264e-06
0.000139909
1.73474e-05
0.000174804
0.000210944
2.69429e-05
-1.36292e-05
0.000203716
2.08567e-05
-6.80519e-06
0.00016798
0.000133104
2.50445e-06
0.000130599
4.12783e-06
0.000166357
0.000202481
5.36315e-06
-4.65159e-06
0.000200396
6.73666e-06
-2.87151e-06
0.000164576
0.000127728
1.54677e-06
0.000126181
2.0287e-06
0.000164094
0.000200281
2.14367e-06
-4.459e-06
0.000198717
6.02269e-06
-2.60027e-06
0.000162236
0.000123581
1.26911e-06
0.000122311
1.14655e-06
0.000162358
0.000198482
1.3816e-06
-3.62737e-06
0.000197499
4.61065e-06
-1.7761e-06
0.000160507
0.000120535
4.71952e-07
0.000120063
3.54616e-07
0.000160624
0.000197859
-6.2163e-09
-2.83716e-06
0.00019616
4.53636e-06
-1.60637e-06
0.000159394
0.000118457
3.42458e-07
0.000118115
2.39701e-07
0.000159496
0.000196461
-6.06902e-08
-2.71694e-06
0.000195374
3.80387e-06
-1.48145e-06
0.000158261
0.000116633
2.51175e-07
0.000116382
1.48001e-07
0.000158364
0.00019564
-1.18452e-07
-2.62298e-06
0.000194523
3.74038e-06
-1.38807e-06
0.000157129
0.000114994
1.83383e-07
0.000114811
8.2707e-08
0.00015723
0.000194759
-1.53457e-07
-2.54962e-06
0.000193618
3.69071e-06
-1.31737e-06
0.000155998
0.000113493
1.32265e-07
0.000113361
2.73474e-08
0.000156103
0.000193833
-1.87653e-07
-2.48673e-06
0.000192676
3.64343e-06
-1.2618e-06
0.000154878
0.000112099
9.26054e-08
0.000112007
-1.27396e-08
0.000154983
0.000192873
-2.09208e-07
-2.43706e-06
0.000191704
3.60572e-06
-1.22103e-06
0.000153767
0.000110786
6.11214e-08
0.000110725
-4.2266e-08
0.000153871
0.000191884
-2.22214e-07
-2.39748e-06
0.000190702
3.57955e-06
-1.18738e-06
0.00015266
0.000109537
3.88091e-08
0.000109498
-6.16473e-08
0.000152761
0.000190868
-2.27529e-07
-2.36729e-06
0.000189674
3.56124e-06
-1.16009e-06
0.000151554
0.000108338
2.28573e-08
0.000108316
-7.47275e-08
0.000151651
0.000189826
-2.2642e-07
-2.34307e-06
0.000188621
3.54828e-06
-1.1378e-06
0.000150446
0.000107178
1.16269e-08
0.000107166
-8.1201e-08
0.000150539
0.000188758
-2.18105e-07
-2.32495e-06
0.000187541
3.54184e-06
-1.11992e-06
0.000149334
0.000106046
4.38498e-09
0.000106042
-8.17729e-08
0.00014942
0.000187662
-2.02947e-07
-2.31214e-06
0.000186433
3.54135e-06
-1.10574e-06
0.000148214
0.000104936
4.70797e-10
0.000104936
-7.72321e-08
0.000148291
0.000186537
-1.81636e-07
-2.30382e-06
0.000185295
3.54615e-06
-1.0946e-06
0.000147082
0.000103841
-1.14737e-09
0.000103842
-6.89057e-08
0.00014715
0.000185382
-1.55924e-07
-2.299e-06
0.000184126
3.55499e-06
-1.08598e-06
0.000145937
0.000102756
-4.24549e-10
0.000102756
-5.70052e-08
0.000145993
0.000184194
-1.25736e-07
-2.29728e-06
0.000182924
3.56774e-06
-1.07929e-06
0.000144775
0.000101677
2.10821e-09
0.000101675
-4.17538e-08
0.000144819
0.000182973
-9.10821e-08
-2.29851e-06
0.000181687
3.58441e-06
-1.0744e-06
0.000143595
0.0001006
6.36525e-09
0.000100594
-2.32684e-08
0.000143624
0.000181715
-5.19463e-08
-2.30263e-06
0.000180413
3.60514e-06
-1.07119e-06
0.000142393
9.95227e-05
1.19762e-08
9.95107e-05
-2.38158e-09
0.000142407
0.00018042
-9.6623e-09
-2.30853e-06
0.000179101
3.62804e-06
-1.06923e-06
0.000141168
9.84414e-05
1.98735e-08
9.84215e-05
2.26127e-08
0.000141165
0.000179084
3.93294e-08
-2.31633e-06
0.000177747
3.65302e-06
-1.06834e-06
0.000139917
9.73531e-05
2.92326e-08
9.73239e-05
5.04425e-08
0.000139896
0.000177705
9.252e-08
-2.32666e-06
0.00017635
3.68159e-06
-1.06878e-06
0.000138638
9.62551e-05
4.00123e-08
9.6215e-05
8.10997e-08
0.000138597
0.000176281
1.49847e-07
-2.33943e-06
0.000174907
3.71372e-06
-1.0705e-06
0.000137328
9.51445e-05
5.22486e-08
9.50923e-05
1.14657e-07
0.000137265
0.00017481
2.11521e-07
-2.35454e-06
0.000173415
3.74924e-06
-1.07346e-06
0.000135984
9.40189e-05
6.59047e-08
9.3953e-05
1.51056e-07
0.000135899
0.000173289
2.77522e-07
-2.37185e-06
0.000171873
3.78799e-06
-1.07755e-06
0.000134605
9.28755e-05
8.09127e-08
9.27947e-05
1.90186e-07
0.000134496
0.000171715
3.47733e-07
-2.39119e-06
0.000170277
3.82972e-06
-1.08268e-06
0.000133187
9.17121e-05
9.71813e-08
9.1615e-05
2.31886e-07
0.000133053
0.000170087
4.21941e-07
-2.41235e-06
0.000168625
3.87413e-06
-1.08874e-06
0.000131729
9.05263e-05
1.14596e-07
9.04118e-05
2.75942e-07
0.000131568
0.000168402
4.99848e-07
-2.43507e-06
0.000166916
3.92085e-06
-1.09559e-06
0.000130229
8.93163e-05
1.33034e-07
8.91832e-05
3.22124e-07
0.00013004
0.000166657
5.8102e-07
-2.45888e-06
0.000165147
3.96926e-06
-1.10302e-06
0.000128684
8.80802e-05
1.52255e-07
8.7928e-05
3.69958e-07
0.000128466
0.000164852
6.648e-07
-2.48334e-06
0.000163317
4.01864e-06
-1.11078e-06
0.000127093
8.68172e-05
1.71975e-07
8.66452e-05
4.18855e-07
0.000126846
0.000162985
7.50276e-07
-2.50762e-06
0.000161425
4.06778e-06
-1.11847e-06
0.000125457
8.55267e-05
1.91706e-07
8.53349e-05
4.67839e-07
0.000125181
0.000161057
8.35992e-07
-2.53062e-06
0.000159472
4.11501e-06
-1.12552e-06
0.000123776
8.42094e-05
2.10801e-07
8.39986e-05
5.1563e-07
0.000123471
0.000159068
9.19951e-07
-2.55112e-06
0.000157461
4.15831e-06
-1.13144e-06
0.000122051
8.28672e-05
2.28773e-07
8.26384e-05
5.6094e-07
0.000121719
0.000157022
9.99994e-07
-2.56777e-06
0.000155394
4.1955e-06
-1.13562e-06
0.000120287
8.15028e-05
2.44879e-07
8.1258e-05
6.02209e-07
0.00011993
0.000154923
1.07363e-06
-2.57892e-06
0.000153278
4.22394e-06
-1.13731e-06
0.000118488
8.01207e-05
2.58205e-07
7.98626e-05
6.37468e-07
0.000118109
0.000152778
1.13772e-06
-2.58247e-06
0.00015112
4.24024e-06
-1.13553e-06
0.000116662
7.87271e-05
2.67604e-07
7.84595e-05
6.64211e-07
0.000116266
0.000150596
1.18825e-06
-2.57579e-06
0.000148932
4.24021e-06
-1.12909e-06
0.000114819
7.73305e-05
2.71658e-07
7.70589e-05
6.79327e-07
0.000114411
0.000148391
1.22021e-06
-2.5557e-06
0.000146728
4.21871e-06
-1.11659e-06
0.000112972
7.59423e-05
2.68681e-07
7.56737e-05
6.79067e-07
0.000112562
0.000146179
1.22761e-06
-2.51848e-06
0.000144528
4.16973e-06
-1.09635e-06
0.00011114
7.45774e-05
2.56712e-07
7.43207e-05
6.59157e-07
0.000110738
0.000143984
1.20349e-06
-2.45998e-06
0.000142357
4.08645e-06
-1.06646e-06
0.000109344
7.32542e-05
2.33547e-07
7.30207e-05
6.14757e-07
0.000108963
0.000141832
1.1399e-06
-2.37538e-06
0.000140247
3.96094e-06
-1.02484e-06
0.000107612
7.19959e-05
1.96631e-07
7.17992e-05
5.40146e-07
0.000107269
0.000139759
1.02753e-06
-2.25927e-06
0.000138234
3.78434e-06
-9.69124e-07
0.000105979
7.083e-05
1.43128e-07
7.06868e-05
4.29045e-07
0.000105693
0.000137807
8.55985e-07
-2.10639e-06
0.000136365
3.54793e-06
-8.97075e-07
0.000104483
6.97896e-05
7.08602e-08
6.97186e-05
2.76446e-07
0.000104277
0.000136024
6.16988e-07
-1.9123e-06
0.000134691
3.2453e-06
-8.05029e-07
0.00010317
6.89134e-05
-2.45781e-08
6.89378e-05
7.5372e-08
0.00010307
0.000134467
2.99121e-07
-1.66754e-06
0.000133269
2.86548e-06
-6.8681e-07
0.000102089
6.82508e-05
-1.47938e-07
6.83986e-05
-1.82035e-07
0.000102123
0.000133191
-1.03942e-07
-1.37906e-06
0.000132167
2.40292e-06
-5.53201e-07
0.000101297
6.78452e-05
-2.84851e-07
6.813e-05
-4.79505e-07
0.000101491
0.000132264
-5.76962e-07
-1.0561e-06
0.000131438
1.88149e-06
-4.06109e-07
0.000100841
6.77237e-05
-4.35721e-07
6.81593e-05
-8.11549e-07
0.000101217
0.000131738
-1.11144e-06
-7.16797e-07
0.000131124
1.33065e-06
-2.53691e-07
0.000100753
6.79055e-05
-5.90904e-07
6.84964e-05
-1.15884e-06
0.000101321
0.000131642
-1.67699e-06
-3.74126e-07
0.000131248
7.68056e-07
-1.01615e-07
0.000101049
6.83947e-05
-7.34624e-07
6.91294e-05
-1.48561e-06
0.0001018
0.000131979
-2.21668e-06
-4.12639e-08
0.000131798
2.2281e-07
5.026e-08
0.000101708
6.91797e-05
-8.96017e-07
7.00757e-05
-1.8489e-06
0.000102661
0.000132765
-2.81594e-06
3.00403e-07
0.000132807
-3.42461e-07
2.00247e-07
0.000102761
7.0276e-05
-1.0547e-06
7.13307e-05
-2.20191e-06
0.000103909
0.000134009
-3.4039e-06
5.40605e-07
0.000134236
-7.67347e-07
2.89702e-07
0.000104159
7.16203e-05
-1.14255e-06
7.27628e-05
-2.42845e-06
0.000105445
0.000135613
-3.80576e-06
6.93421e-07
0.000135972
-1.05222e-06
3.41902e-07
0.000105797
7.31047e-05
-1.18858e-06
7.42932e-05
-2.56643e-06
0.000107174
0.000137471
-4.06573e-06
7.67531e-07
0.000137917
-1.214e-06
3.57632e-07
0.000107584
7.46508e-05
-1.20782e-06
7.58587e-05
-2.64397e-06
0.000109021
0.000139502
-4.22885e-06
7.86999e-07
0.000140002
-1.28679e-06
3.4971e-07
0.000109458
7.62084e-05
-1.20416e-06
7.74126e-05
-2.66873e-06
0.000110922
0.000141638
-4.30515e-06
7.56317e-07
0.000142158
-1.27601e-06
3.20521e-07
0.000111358
7.77331e-05
-1.17881e-06
7.89119e-05
-2.64365e-06
0.000112823
0.000143813
-4.2982e-06
6.81048e-07
0.000144322
-1.18987e-06
2.72325e-07
0.000113232
7.91843e-05
-1.13536e-06
8.03196e-05
-2.57549e-06
0.000114672
0.000145964
-4.21784e-06
5.69124e-07
0.000146435
-1.04012e-06
2.09425e-07
0.000115032
8.05289e-05
-1.07786e-06
8.16067e-05
-2.47244e-06
0.000116426
0.000148039
-4.07667e-06
4.29037e-07
0.000148449
-8.39746e-07
1.35762e-07
0.000116719
8.17424e-05
-1.0098e-06
8.2752e-05
-2.34225e-06
0.000118051
0.000149994
-3.88659e-06
2.68678e-07
0.000150326
-6.0139e-07
5.54076e-08
0.000118265
8.28073e-05
-9.36815e-07
8.37439e-05
-2.19285e-06
0.00011952
0.000151793
-3.66031e-06
9.64842e-08
0.000152034
-3.37724e-07
-2.68345e-08
0.000119644
8.3717e-05
-8.64307e-07
8.45812e-05
-2.03437e-06
0.000120813
0.000153411
-3.41145e-06
-7.95025e-08
0.000153551
-6.07876e-08
-1.08065e-07
0.000120842
8.4473e-05
-7.89517e-07
8.52624e-05
-1.87262e-06
0.000121925
0.000154832
-3.15372e-06
-2.49786e-07
0.000154873
2.09515e-07
-1.86287e-07
0.000121861
8.5076e-05
-7.1742e-07
8.57934e-05
-1.71396e-06
0.000122858
0.000156056
-2.89712e-06
-4.11323e-07
0.000155997
4.70178e-07
-2.58876e-07
0.000122705
8.55344e-05
-6.5126e-07
8.61856e-05
-1.56529e-06
0.000123619
0.000157084
-2.65307e-06
-5.58726e-07
0.00015693
7.12325e-07
-3.23314e-07
0.000123384
8.58622e-05
-5.92759e-07
8.64548e-05
-1.43073e-06
0.000124221
0.000157928
-2.42881e-06
-6.86706e-07
0.000157689
9.26067e-07
-3.77445e-07
0.000123912
8.60773e-05
-5.4424e-07
8.66216e-05
-1.31562e-06
0.000124683
0.000158607
-2.23386e-06
-7.94056e-07
0.000158293
1.10876e-06
-4.21149e-07
0.000124311
8.62005e-05
-5.05574e-07
8.67062e-05
-1.2205e-06
0.000125026
0.000159142
-2.06986e-06
-8.81247e-07
0.000158763
1.26036e-06
-4.55082e-07
0.0001246
8.62513e-05
-4.75815e-07
8.67273e-05
-1.14411e-06
0.000125268
0.000159555
-1.93561e-06
-9.49824e-07
0.000159123
1.38244e-06
-4.80357e-07
0.000124799
8.62472e-05
-4.537e-07
8.6701e-05
-1.08439e-06
0.00012543
0.000159867
-1.82835e-06
-1.00258e-06
0.000159391
1.47883e-06
-4.98614e-07
0.000124926
8.62025e-05
-4.37495e-07
8.664e-05
-1.03822e-06
0.000125527
0.000160096
-1.74338e-06
-1.04232e-06
0.000159585
1.55356e-06
-5.1138e-07
0.000124996
8.61286e-05
-4.24974e-07
8.65536e-05
-1.00121e-06
0.000125572
0.000160257
-1.67344e-06
-1.06929e-06
0.00015972
1.60644e-06
-5.18821e-07
0.000125022
8.60348e-05
-4.17093e-07
8.6452e-05
-9.75284e-07
0.00012558
0.000160367
-1.62215e-06
-1.08911e-06
0.000159809
1.6469e-06
-5.23678e-07
0.000125015
8.59285e-05
-4.11142e-07
8.63397e-05
-9.55476e-07
0.000125559
0.000160438
-1.58413e-06
-1.10172e-06
0.000159863
1.67686e-06
-5.25733e-07
0.000124983
8.58141e-05
-4.06129e-07
8.62203e-05
-9.42636e-07
0.00012552
0.000160478
-1.55801e-06
-1.1109e-06
0.000159889
1.70046e-06
-5.24752e-07
0.000124934
8.56956e-05
-4.03773e-07
8.60993e-05
-9.33576e-07
0.000125463
0.000160493
-1.53798e-06
-1.11662e-06
0.000159893
1.71703e-06
-5.23601e-07
0.00012487
8.55757e-05
-4.0325e-07
8.59788e-05
-9.27977e-07
0.000125395
0.000160489
-1.52387e-06
-1.1202e-06
0.00015988
1.72888e-06
-5.22581e-07
0.000124797
8.5456e-05
-4.03693e-07
8.58594e-05
-9.24487e-07
0.000125318
0.000160469
-1.51368e-06
-1.12306e-06
0.000159854
1.73783e-06
-5.22141e-07
0.000124717
8.53375e-05
-4.03879e-07
8.57405e-05
-9.22334e-07
0.000125235
0.000160438
-1.50709e-06
-1.12261e-06
0.000159819
1.74185e-06
-5.20089e-07
0.000124632
8.52208e-05
-4.05697e-07
8.56264e-05
-9.22456e-07
0.000125149
0.0001604
-1.5035e-06
-1.12069e-06
0.000159778
1.74268e-06
-5.18211e-07
0.000124546
8.51072e-05
-4.0675e-07
8.55161e-05
-9.2334e-07
0.000125065
0.000160359
-1.50258e-06
-1.11794e-06
0.000159734
1.74004e-06
-5.16287e-07
0.00012446
8.49971e-05
-4.10724e-07
8.54103e-05
-9.29042e-07
0.000124981
0.000160316
-1.50689e-06
-1.11718e-06
0.000159693
1.7366e-06
-5.15921e-07
0.000124378
8.48941e-05
-4.1299e-07
8.53068e-05
-9.34665e-07
0.0001249
0.000160278
-1.51943e-06
-1.10356e-06
0.000159674
1.70989e-06
-5.09451e-07
0.000124309
8.48003e-05
-4.27115e-07
8.52218e-05
-9.68492e-07
0.000124845
0.000160816
-2.11363e-06
-5.26487e-07
0.000159719
1.62618e-06
-4.62838e-07
0.000124784
8.47607e-05
-9.30465e-07
8.56949e-05
-1.56553e-06
0.000125422
0.000161464
-3.30916e-06
1.68054e-07
0.000161535
-2.37759e-07
7.43363e-08
0.000125514
8.57672e-05
-1.66573e-06
8.74344e-05
-4.54978e-06
0.000128399
0.000164078
-7.0947e-06
6.13431e-06
0.000168397
-1.04516e-05
2.9764e-06
0.000131558
9.04109e-05
-8.66234e-06
9.90708e-05
-1.96789e-05
0.000142573
0.000181986
-3.32678e-05
4.32945e-05
0.000211511
-7.28211e-05
1.94542e-05
0.000166413
0.000118525
3.93471e-05
9.49962e-05
0.000165987
3.99763e-05
-0.000288205
-5.72877e-05
-0.000326085
-6.18118e-05
-0.000510468
-2.49807e-05
-0.000550483
-1.59412e-05
-0.000577074
-3.11896e-06
-0.000579749
-2.56339e-06
-0.000584685
-2.03655e-07
-0.000585155
-8.0395e-07
-0.000585845
9.64538e-07
-0.0005853
1.54886e-06
-0.000583073
5.07409e-06
-0.000577009
9.78001e-06
-0.000568947
2.14737e-05
-0.000554885
3.83956e-05
-0.000540861
8.52402e-05
-0.000536061
0.000189246
-0.000544789
8.5278e-05
-0.000335922
4.86806e-05
-0.000332975
2.72024e-05
-0.000323185
2.72329e-05
-0.000275561
7.975e-06
-0.000237138
4.48939e-06
-8.35548e-05
1.82965e-06
-5.64591e-05
-3.04923e-05
-2.31721e-06
-2.82625e-05
-6.01287e-06
-5.27814e-05
-7.83573e-05
-1.10406e-05
3.95518e-06
-7.53814e-05
-7.16613e-06
1.32802e-06
-5.01335e-05
-2.68115e-05
-1.02801e-06
-2.5852e-05
-1.77386e-06
-4.93906e-05
-7.35549e-05
-3.48247e-06
6.97634e-07
-7.29192e-05
-1.33056e-06
1.65807e-07
-4.88588e-05
-2.56877e-05
-4.27564e-07
-2.52504e-05
-5.47429e-07
-4.87377e-05
-7.23127e-05
-1.17094e-06
5.26576e-07
-7.27567e-05
-8.70205e-08
6.66409e-08
-4.82781e-05
-2.5183e-05
-5.2672e-09
-2.51785e-05
-2.78031e-08
-4.82559e-05
-7.27627e-05
-1.91533e-08
-2.30853e-08
-7.27802e-05
3.82855e-08
-1.21987e-08
-4.82668e-05
-2.51893e-05
1.66515e-08
-2.52072e-05
3.72532e-08
-4.82876e-05
-7.27999e-05
5.94785e-08
-5.52716e-08
-7.28337e-05
8.89605e-08
-2.57512e-08
-4.83171e-05
-2.52328e-05
2.49709e-08
-2.52567e-05
5.43829e-08
-4.83467e-05
-7.28622e-05
8.00586e-08
-6.10805e-08
-7.28994e-05
9.96071e-08
-2.75424e-08
-4.83802e-05
-2.5285e-05
2.72048e-08
-2.53126e-05
6.02732e-08
-4.84134e-05
-7.29325e-05
9.43228e-08
-7.06069e-08
-7.29764e-05
1.11529e-07
-3.32392e-08
-4.84506e-05
-2.53443e-05
2.7269e-08
-2.5374e-05
6.21704e-08
-4.84858e-05
-7.30119e-05
1.02602e-07
-7.29849e-08
-7.30538e-05
1.08414e-07
-3.45001e-08
-4.85236e-05
-2.54048e-05
2.7424e-08
-2.54355e-05
6.49211e-08
-4.85612e-05
-7.30884e-05
1.05938e-07
-7.61415e-08
-7.31334e-05
1.19381e-07
-3.52199e-08
-4.86018e-05
-2.54697e-05
3.15267e-08
-2.55015e-05
6.94477e-08
-4.864e-05
-7.31727e-05
1.08699e-07
-7.53304e-08
-7.3217e-05
1.17138e-07
-3.46161e-08
-4.86807e-05
-2.5535e-05
3.16668e-08
-2.55677e-05
7.04561e-08
-4.87196e-05
-7.3258e-05
1.13533e-07
-7.64856e-08
-7.33054e-05
1.27398e-07
-3.44884e-08
-4.87621e-05
-2.56043e-05
3.60671e-08
-2.56367e-05
7.72268e-08
-4.88028e-05
-7.33467e-05
1.11144e-07
-7.42602e-08
-7.33911e-05
1.23715e-07
-3.24497e-08
-4.8845e-05
-2.56718e-05
3.46549e-08
-2.57061e-05
7.57797e-08
-4.8886e-05
-7.34332e-05
1.16838e-07
-8.30203e-08
-7.34822e-05
1.30479e-07
-3.8392e-08
-4.89305e-05
-2.57437e-05
3.4734e-08
-2.57784e-05
7.62646e-08
-4.8972e-05
-7.35252e-05
1.196e-07
-8.08349e-08
-7.35738e-05
1.29036e-07
-3.76111e-08
-4.90148e-05
-2.58154e-05
3.46331e-08
-2.58521e-05
7.68397e-08
-4.90572e-05
-7.3617e-05
1.24587e-07
-8.87616e-08
-7.36685e-05
1.32455e-07
-4.2337e-08
-4.91028e-05
-2.58902e-05
3.19466e-08
-2.59262e-05
7.53665e-08
-4.91464e-05
-7.37101e-05
1.24566e-07
-8.39057e-08
-7.37597e-05
1.31104e-07
-3.91501e-08
-4.91909e-05
-2.59641e-05
3.77185e-08
-2.6001e-05
8.2105e-08
-4.9235e-05
-7.38051e-05
1.26234e-07
-8.66699e-08
-7.38576e-05
1.40448e-07
-3.97881e-08
-4.92817e-05
-2.60409e-05
3.64403e-08
-2.60784e-05
8.04777e-08
-4.93259e-05
-7.39044e-05
1.29533e-07
-8.78993e-08
-7.39556e-05
1.3515e-07
-4.10204e-08
-4.9372e-05
-2.61168e-05
3.61142e-08
-2.61551e-05
8.17498e-08
-4.94179e-05
-7.40014e-05
1.31756e-07
-9.04356e-08
-7.40554e-05
1.43098e-07
-4.18119e-08
-4.94665e-05
-2.61964e-05
3.84232e-08
-2.62348e-05
8.42992e-08
-4.95123e-05
-7.4104e-05
1.32893e-07
-8.70875e-08
-7.41573e-05
1.41226e-07
-3.95553e-08
-4.95604e-05
-2.62753e-05
3.9623e-08
-2.63147e-05
8.66302e-08
-4.96074e-05
-7.42084e-05
1.36803e-07
-9.01528e-08
-7.42648e-05
1.49351e-07
-4.07339e-08
-4.96575e-05
-2.63571e-05
4.13059e-08
-2.63953e-05
8.96278e-08
-4.97056e-05
-7.43175e-05
1.35109e-07
-8.62982e-08
-7.43725e-05
1.46582e-07
-3.72722e-08
-4.97553e-05
-2.64356e-05
3.88604e-08
-2.64756e-05
8.71086e-08
-4.98039e-05
-7.4426e-05
1.42722e-07
-9.78705e-08
-7.44868e-05
1.50371e-07
-4.54775e-08
-4.98558e-05
-2.65169e-05
3.52772e-08
-2.65561e-05
8.45117e-08
-4.99055e-05
-7.45396e-05
1.44552e-07
-9.26815e-08
-7.46e-05
1.5053e-07
-4.14819e-08
-4.99566e-05
-2.65964e-05
4.06811e-08
-2.66357e-05
9.18119e-08
-5.00072e-05
-7.46584e-05
1.48013e-07
-9.23795e-08
-7.47206e-05
1.61542e-07
-3.88795e-08
-5.0061e-05
-2.6678e-05
4.15485e-08
-2.67169e-05
9.45333e-08
-5.01133e-05
-7.47802e-05
1.48658e-07
-9.51838e-08
-7.48464e-05
1.5892e-07
-4.0856e-08
-5.01673e-05
-2.67565e-05
3.57541e-08
-2.67962e-05
8.95459e-08
-5.02216e-05
-7.49086e-05
1.58993e-07
-1.02028e-07
-7.49802e-05
1.66102e-07
-4.40909e-08
-5.02786e-05
-2.68358e-05
3.42698e-08
-2.68741e-05
8.97288e-08
-5.03343e-05
-7.50452e-05
1.63603e-07
-1.00981e-07
-7.51182e-05
1.67494e-07
-4.17592e-08
-5.03926e-05
-2.69124e-05
3.77955e-08
-2.69498e-05
9.67016e-08
-5.04515e-05
-7.51911e-05
1.69174e-07
-9.93578e-08
-7.52696e-05
1.81325e-07
-3.73877e-08
-5.05136e-05
-2.6989e-05
3.55794e-08
-2.70255e-05
9.66965e-08
-5.05749e-05
-7.53462e-05
1.75256e-07
-1.04789e-07
-7.54302e-05
1.82893e-07
-3.98002e-08
-5.06391e-05
-2.70619e-05
3.30663e-08
-2.70977e-05
9.78876e-08
-5.07042e-05
-7.55134e-05
1.86632e-07
-1.04786e-07
-7.56046e-05
1.96052e-07
-3.59408e-08
-5.07732e-05
-2.7134e-05
3.33779e-08
-2.71671e-05
1.02344e-07
-5.08424e-05
-7.5695e-05
1.91499e-07
-1.0712e-07
-7.57935e-05
2.02508e-07
-3.4208e-08
-5.09152e-05
-2.72001e-05
2.89587e-08
-2.72319e-05
1.02706e-07
-5.09897e-05
-7.58927e-05
2.07842e-07
-1.14276e-07
-7.60024e-05
2.19461e-07
-3.47032e-08
-5.10688e-05
-2.72642e-05
2.93576e-08
-2.72927e-05
1.10346e-07
-5.11495e-05
-7.61107e-05
2.17051e-07
-1.11146e-07
-7.62273e-05
2.36434e-07
-2.65301e-08
-5.1235e-05
-2.73238e-05
3.41584e-08
-2.73528e-05
1.23821e-07
-5.13236e-05
-7.63524e-05
2.38188e-07
-1.22895e-07
-7.6485e-05
2.61622e-07
-2.78699e-08
-5.14194e-05
-2.7384e-05
2.86569e-08
-2.74127e-05
1.27177e-07
-5.15176e-05
-7.662e-05
2.62425e-07
-1.36773e-07
-7.67635e-05
2.8262e-07
-3.00968e-08
-5.16239e-05
-2.74435e-05
3.58379e-08
-2.74748e-05
1.48052e-07
-5.17347e-05
-7.69181e-05
2.94828e-07
-1.52515e-07
-7.70824e-05
3.24256e-07
-3.25367e-08
-5.18548e-05
-2.75105e-05
3.51585e-08
-2.7547e-05
1.6303e-07
-5.19827e-05
-7.72482e-05
3.33371e-07
-1.90741e-07
-7.74362e-05
3.6442e-07
-5.13622e-08
-5.212e-05
-2.75908e-05
4.40089e-08
-2.76423e-05
1.89683e-07
-5.22672e-05
-7.76307e-05
3.97988e-07
-2.24172e-07
-7.78392e-05
4.29001e-07
-6.2282e-08
-5.24283e-05
-2.77022e-05
6.89595e-08
-2.77697e-05
2.414e-07
-5.25995e-05
-7.80546e-05
4.56638e-07
-2.69917e-07
-7.82868e-05
5.0254e-07
-8.20201e-08
-5.2787e-05
-2.78516e-05
9.20559e-08
-2.79479e-05
2.93715e-07
-5.29901e-05
-7.85326e-05
5.46057e-07
-3.36724e-07
-7.87973e-05
5.98403e-07
-1.15225e-07
-5.32121e-05
-2.80631e-05
1.32802e-07
-2.81962e-05
3.73816e-07
-5.34538e-05
-7.90691e-05
6.4576e-07
-4.33236e-07
-7.9367e-05
7.10903e-07
-1.65979e-07
-5.37208e-05
-2.83537e-05
1.72696e-07
-2.85476e-05
4.56403e-07
-5.40087e-05
-7.96782e-05
8.07036e-07
-5.65355e-07
-8.00327e-05
8.74808e-07
-2.53885e-07
-5.4318e-05
-2.87752e-05
2.52537e-07
-2.90377e-05
5.97391e-07
-5.46624e-05
-8.03771e-05
9.66916e-07
-6.7684e-07
-8.07424e-05
1.07811e-06
-2.97148e-07
-5.50447e-05
-2.93526e-05
4.04102e-07
-2.97219e-05
8.2635e-07
-5.54623e-05
-8.11755e-05
1.18626e-06
-8.62893e-07
-8.16356e-05
1.38396e-06
-4.03938e-07
-5.59295e-05
-3.01639e-05
5.16561e-07
-3.06693e-05
1.04067e-06
-5.6453e-05
-8.21343e-05
1.51014e-06
-1.17787e-06
-8.26954e-05
1.75084e-06
-5.82835e-07
-5.70503e-05
-3.12575e-05
8.40221e-07
-3.20918e-05
1.5831e-06
-5.77895e-05
-8.28036e-05
1.67625e-06
-1.52483e-06
-8.33157e-05
2.04793e-06
-9.37953e-07
-5.83784e-05
-3.30355e-05
7.4272e-07
-3.37772e-05
1.39998e-06
-5.90358e-05
-8.38546e-05
1.93657e-06
-1.24084e-06
-8.53453e-05
2.72933e-06
-2.94271e-07
-5.99827e-05
-3.4071e-05
1.28909e-06
-3.53603e-05
1.67987e-06
-6.03747e-05
-8.61461e-05
2.47805e-06
-1.98183e-06
-8.69373e-05
2.77177e-06
-5.92226e-07
-6.1765e-05
-3.5953e-05
9.25537e-07
-3.68765e-05
1.7003e-06
-6.25377e-05
-8.82085e-05
2.97093e-06
-2.34825e-06
-8.89043e-05
3.04606e-06
-1.02717e-06
-6.38553e-05
-3.79004e-05
1.09662e-06
-3.89915e-05
1.93338e-06
-6.46866e-05
-9.0691e-05
3.72328e-06
-2.64912e-06
-9.18804e-05
3.84343e-06
-1.38876e-06
-6.59424e-05
-4.0372e-05
1.34801e-06
-4.17187e-05
2.58749e-06
-6.7182e-05
-9.29807e-05
3.68982e-06
-2.54779e-06
-9.47854e-05
4.35037e-06
-1.12172e-06
-6.8611e-05
-4.2842e-05
1.0567e-06
-4.39026e-05
2.85554e-06
-7.04185e-05
-9.66263e-05
4.67879e-06
-4.29177e-06
-9.96688e-05
7.34791e-06
-2.44153e-06
-7.22802e-05
-4.63581e-05
2.51898e-06
-4.87501e-05
6.43296e-06
-7.6158e-05
-0.00010387
1.0476e-05
6.81741e-05
-5.04873e-05
-0.000120924
2.75023e-05
-3.555e-05
-2.15899e-05
3.96903e-06
-2.6076e-05
1.49686e-05
-4.59862e-05
-6.59603e-05
3.04239e-05
-8.40763e-06
-7.3075e-05
1.57307e-05
-2.93747e-06
-5.14978e-05
-2.9122e-05
9.4753e-07
-3.01747e-05
2.23194e-06
-5.28037e-05
-7.43106e-05
3.68423e-06
-1.49854e-07
-7.44353e-05
2.66633e-07
-3.39014e-07
-5.26112e-05
-3.05116e-05
1.69222e-06
-3.19852e-05
3.5071e-06
-5.43976e-05
-7.61551e-05
4.80065e-06
-2.538e-06
-7.739e-05
3.54037e-06
-1.27339e-06
-5.56411e-05
-3.31398e-05
2.32715e-06
-3.53221e-05
4.45836e-06
-5.77333e-05
-7.98105e-05
6.59423e-06
-2.75288e-06
-8.19158e-05
4.80872e-06
-1.54479e-06
-5.89339e-05
-3.68384e-05
2.36279e-06
-3.9207e-05
4.93037e-06
-6.15014e-05
-8.45194e-05
7.5471e-06
-4.33843e-06
-8.72134e-05
7.1587e-06
-1.94947e-06
-6.39034e-05
-4.122e-05
2.75154e-06
-4.39599e-05
6.4657e-06
-6.75939e-05
-9.22813e-05
1.14795e-05
-9.61967e-06
-9.92929e-05
1.64826e-05
-4.2694e-06
-7.28694e-05
-4.81198e-05
-2.60627e-05
-2.24351e-05
-6.33824e-05
-3.56417e-05
-4.94669e-05
-0.000112486
-1.73974e-05
-6.56597e-05
3.35728e-05
-5.63945e-06
-4.65139e-05
-2.89241e-05
4.01508e-06
-3.34732e-05
1.15854e-05
-5.42228e-05
-7.42913e-05
2.12032e-05
-6.98113e-06
-8.07228e-05
1.40515e-05
-3.33207e-06
-5.79161e-05
-3.71215e-05
2.5473e-06
-3.96879e-05
6.42272e-06
-6.18119e-05
-8.45449e-05
1.02891e-05
-5.60184e-06
-8.81333e-05
8.94622e-06
-2.54773e-06
-6.48468e-05
-4.21185e-05
2.61124e-06
-4.47896e-05
5.67474e-06
-6.79413e-05
-9.17842e-05
9.44585e-06
-7.05373e-06
-9.69927e-05
1.22111e-05
-3.01386e-06
-7.19596e-05
-4.77767e-05
3.11069e-06
-5.09349e-05
6.8456e-06
-7.57558e-05
-0.000101458
1.14421e-05
6.5527e-05
-5.04019e-05
-0.000116889
2.66487e-05
-3.68232e-05
-2.41288e-05
7.21772e-06
-3.07733e-05
1.80307e-05
-4.78961e-05
-6.62528e-05
3.35003e-05
-1.22715e-05
-7.56662e-05
2.0538e-05
-4.94993e-06
-5.50663e-05
-3.51533e-05
2.90091e-06
-3.79929e-05
6.18398e-06
-5.83142e-05
-7.90642e-05
9.3835e-06
-3.76905e-06
-8.09582e-05
5.88768e-06
-1.67816e-06
-6.04359e-05
-3.97929e-05
3.22888e-06
-4.29755e-05
6.65619e-06
-6.38526e-05
-8.6666e-05
1.22722e-05
-9.35795e-06
-9.2765e-05
1.54777e-05
-4.29699e-06
-6.88948e-05
-4.72785e-05
-2.4282e-05
-2.29799e-05
-5.88257e-05
-3.44277e-05
-4.68008e-05
-0.000104691
-1.88096e-05
-6.222e-05
3.40737e-05
-6.12937e-06
-4.6211e-05
-2.98285e-05
6.54696e-06
-3.60467e-05
1.43457e-05
-5.39486e-05
-7.23568e-05
2.38221e-05
-1.0131e-05
-8.08257e-05
1.78738e-05
-4.49761e-06
-5.95225e-05
-4.01717e-05
4.43144e-06
-4.47742e-05
9.36885e-06
-6.45336e-05
-8.74216e-05
1.63405e-05
-7.7712e-06
-9.17696e-05
1.1909e-05
-3.40237e-06
-6.88126e-05
-4.80937e-05
-2.53314e-05
-2.29698e-05
-5.97361e-05
-3.44805e-05
-4.60494e-05
-0.000105001
-1.78879e-05
-6.06029e-05
3.24284e-05
-6.51779e-06
-4.50719e-05
-3.02236e-05
4.91285e-06
-3.55003e-05
1.1633e-05
-5.19021e-05
-6.96921e-05
2.1406e-05
-9.1325e-06
-7.59944e-05
1.53681e-05
-4.06604e-06
-5.695e-05
-3.9505e-05
4.62082e-06
-4.41233e-05
1.04442e-05
-6.27642e-05
-8.2888e-05
1.73168e-05
5.32403e-05
-4.24806e-05
-9.35486e-05
2.23384e-05
-3.1947e-05
-2.17555e-05
6.49421e-06
-2.91464e-05
1.83798e-05
-4.28695e-05
-5.66731e-05
3.24995e-05
-1.41695e-05
-6.82147e-05
2.65425e-05
-6.22512e-06
-5.09347e-05
-3.58081e-05
5.47978e-06
-4.1191e-05
1.25672e-05
-5.79764e-05
-7.68399e-05
2.10108e-05
-7.68329e-06
-8.14413e-05
1.23099e-05
-3.99822e-06
-6.16654e-05
-4.51978e-05
-2.26011e-05
-2.26018e-05
-5.25768e-05
-3.16947e-05
-4.18747e-05
-9.21408e-05
-1.89004e-05
-5.59905e-05
3.29213e-05
-7.64034e-06
-4.29357e-05
-3.01857e-05
6.86619e-06
-3.70006e-05
1.40902e-05
-5.01377e-05
-6.5432e-05
2.34195e-05
4.24409e-05
-3.41769e-05
-7.36172e-05
1.80402e-05
-2.5697e-05
-1.90624e-05
7.29826e-06
-2.59808e-05
1.70949e-05
-3.58515e-05
-4.73595e-05
3.02268e-05
-1.3809e-05
-5.55399e-05
2.19772e-05
-6.6004e-06
-4.30676e-05
-3.25863e-05
-1.63922e-05
-1.62291e-05
-3.78932e-05
-2.15704e-05
-2.78389e-05
-6.55345e-05
-1.0814e-05
-3.5275e-05
1.82458e-05
-5.07647e-06
-2.73038e-05
-2.13032e-05
-1.27086e-05
-8.59374e-06
-2.85015e-05
-1.15101e-05
-1.52054e-05
-4.85706e-05
7.87071e-07
-1.65215e-05
5.30228e-07
5.63807e-07
-1.1286e-05
-8.02935e-06
-1.36046e-05
5.57588e-06
-3.24054e-05
7.51531e-06
9.60747e-06
-5.85347e-05
2.53876e-05
2.64208e-05
-4.22013e-05
1.17336e-05
2.11695e-05
1.73098e-05
-1.08392e-05
2.81492e-05
-2.39414e-05
3.42719e-05
4.28881e-05
-4.04087e-05
2.75694e-05
6.34869e-05
-4.8168e-05
1.15361e-05
5.03054e-05
3.96855e-05
-1.34827e-05
5.31695e-05
-3.28848e-05
6.97091e-05
8.96955e-05
-5.90912e-05
-4.88775e-05
5.56719e-05
8.2903e-05
-2.13126e-05
4.21455e-05
3.18578e-05
-1.9136e-05
5.09934e-05
-4.37059e-05
6.67129e-05
8.72942e-05
-7.53359e-05
-4.04072e-05
5.92729e-05
6.84144e-05
-1.84116e-05
4.47106e-05
3.25836e-05
-2.4026e-05
5.6693e-05
-5.5676e-05
7.63888e-05
9.96503e-05
-9.61696e-05
-3.7439e-05
7.50246e-05
6.20907e-05
-1.69132e-05
5.58153e-05
3.97776e-05
1.23007e-05
2.62105e-05
3.27566e-05
3.69731e-05
4.89594e-05
5.84835e-05
4.79693e-05
8.6178e-05
-8.51258e-05
1.98444e-05
6.47084e-05
4.6358e-05
1.41226e-05
3.22971e-05
3.32266e-05
4.57035e-05
6.0148e-05
5.90472e-05
5.99589e-05
0.00010733
-0.000106984
2.48489e-05
8.07968e-05
5.70398e-05
1.41173e-05
4.29571e-05
3.33235e-05
6.16079e-05