/*--------------------------------*- C++ -*----------------------------------*\
| =========                 |                                                 |
| \\      /  F ield         | OpenFOAM: The Open Source CFD Toolbox           |
|  \\    /   O peration     | Version:  v2006                                 |
|   \\  /    A nd           | Website:  www.openfoam.com                      |
|    \\/     M anipulation  |                                                 |
\*---------------------------------------------------------------------------*/
FoamFile
{
    version     2.0;
    format      ascii;
    class       volScalarField;
    location    "0.101";
    object      Ma;
}
// * * * * * * * * * * * * * * * * * * * * * * * * * * * * * * * * * * * * * //

dimensions      [0 0 0 0 0 0 0];


internalField   nonuniform List<scalar> 
16277
(
0.139392
0.139393
0.139392
0.13939
0.13939
0.139384
0.13937
0.139325
0.139223
0.139061
0.138856
0.13863
0.138396
0.138162
0.137926
0.137685
0.137437
0.13718
0.136911
0.136632
0.136341
0.136038
0.135725
0.135401
0.135066
0.13472
0.134365
0.133998
0.133622
0.133236
0.13284
0.132435
0.132021
0.131598
0.131167
0.130728
0.130282
0.129828
0.129367
0.1289
0.128427
0.127949
0.127466
0.126978
0.126487
0.125992
0.125494
0.124994
0.124492
0.123989
0.123485
0.122981
0.122477
0.121975
0.121474
0.120975
0.12048
0.119988
0.119499
0.119016
0.118538
0.118066
0.1176
0.117142
0.116691
0.116248
0.115815
0.115391
0.114977
0.114573
0.114181
0.1138
0.113431
0.113075
0.112732
0.112403
0.112087
0.111782
0.111487
0.111196
0.110909
0.110633
0.11039
0.11022
0.110144
0.110143
0.110172
0.110207
0.110235
0.110233
0.110211
0.110141
0.109963
0.109665
0.10918
0.108623
0.106572
0.105257
0.108647
0.109317
0.109386
0.108499
0.103773
0.102305
0.108323
0.10945
0.109443
0.108053
0.100955
0.099711
0.107767
0.109402
0.109289
0.107397
0.0985498
0.0975004
0.107061
0.109171
0.108999
0.106678
0.0965077
0.0956377
0.106347
0.108846
0.108639
0.105946
0.0947952
0.094043
0.105608
0.108453
0.108216
0.105199
0.0933008
0.0926302
0.104859
0.108009
0.107754
0.104449
0.0919648
0.0913632
0.104117
0.107539
0.107264
0.103704
0.0907494
0.0901907
0.103372
0.107034
0.106742
0.102953
0.0896136
0.0890909
0.102624
0.106503
0.106205
0.10221
0.0885514
0.0880589
0.101886
0.10596
0.105652
0.101472
0.0875446
0.0870737
0.10115
0.105402
0.105085
0.100735
0.0865789
0.0861249
0.100415
0.104828
0.104503
0.0999982
0.0856452
0.0852042
0.0996771
0.104239
0.103906
0.0992582
0.084736
0.0843048
0.0989356
0.103636
0.103293
0.0985131
0.083845
0.0834206
0.0981877
0.103016
0.102664
0.0977607
0.0829668
0.0825473
0.0974314
0.102379
0.102018
0.0969992
0.0820975
0.0816808
0.0966652
0.101724
0.101353
0.0962272
0.0812334
0.0808181
0.0958874
0.10105
0.100669
0.0954429
0.0803716
0.0799564
0.0950964
0.100357
0.0999644
0.0946445
0.0795096
0.0790931
0.0942904
0.0996423
0.0992385
0.0938306
0.0786449
0.0782259
0.0934684
0.0989056
0.0984897
0.0929997
0.0777749
0.0773524
0.0926287
0.0981455
0.0977169
0.0921503
0.0768976
0.0764705
0.0917696
0.0973608
0.0969189
0.0912807
0.0760107
0.0755779
0.0908893
0.09655
0.0960942
0.0903891
0.0751122
0.0746726
0.0899862
0.0957118
0.0952413
0.0894739
0.0741998
0.0737526
0.0890586
0.0948448
0.094359
0.0885335
0.0732717
0.0728158
0.0881049
0.0939476
0.0934459
0.0875663
0.0723261
0.0718607
0.0871239
0.093019
0.0925009
0.0865711
0.0713613
0.0708857
0.086114
0.0920579
0.0915228
0.0855466
0.0703761
0.0698898
0.0850745
0.0910634
0.0905111
0.084492
0.0693694
0.068872
0.0840046
0.0900349
0.0894653
0.083407
0.0683407
0.0678324
0.0829042
0.0889722
0.0883855
0.0822919
0.0672905
0.0667718
0.0817741
0.087876
0.0872728
0.0811476
0.0662199
0.0656919
0.0806157
0.0867476
0.086129
0.0799763
0.0651311
0.0645951
0.0794317
0.0855893
0.0849569
0.0787811
0.0640272
0.0634853
0.0782259
0.0844046
0.0837605
0.0775666
0.0629128
0.062368
0.0770036
0.0831984
0.0825458
0.076339
0.0617943
0.0612505
0.0757721
0.0819773
0.0813204
0.0751067
0.0606801
0.0601426
0.0745412
0.0807503
0.0800945
0.0738808
0.0595813
0.0590567
0.0733233
0.0795288
0.0788811
0.0726754
0.058512
0.0580087
0.0721341
0.0783277
0.0776966
0.0715078
0.0574896
0.0570177
0.0709931
0.077165
0.0765612
0.0703996
0.0565353
0.056107
0.0699237
0.0760631
0.0754992
0.0693765
0.0556744
0.0553037
0.0689538
0.0750481
0.0745383
0.0684679
0.0549356
0.0546413
0.0681125
0.0741495
0.0737102
0.0677055
0.0543526
0.0541648
0.0674345
0.0733976
0.0730466
0.0671244
0.0539671
0.0538989
0.0669588
0.0728341
0.0725835
0.0667598
0.0538021
0.053865
0.0667136
0.0724853
0.0723467
0.0666364
0.053877
0.0540748
0.0667168
0.0723708
0.0723519
0.0667675
0.0541984
0.0545172
0.0669661
0.0724918
0.0725851
0.0671327
0.0547486
0.0552013
0.0674661
0.0728581
0.0730786
0.0677651
0.0555626
0.0561432
0.0682367
0.0734903
0.073832
0.0686553
0.0566075
0.0572525
0.0692143
0.074334
0.0747592
0.0697107
0.0577706
0.0584533
0.0703325
0.0753308
0.0758156
0.0708805
0.0589975
0.0596934
0.0715396
0.0764335
0.0769583
0.0721173
0.0602426
0.0609337
0.072794
0.0776041
0.0781503
0.0733821
0.0614706
0.0621404
0.0740575
0.0788056
0.0793553
0.0746381
0.062648
0.063282
0.0752955
0.080003
0.0805402
0.0758526
0.0637469
0.0643337
0.0764781
0.0811658
0.0816769
0.0769986
0.0647458
0.065277
0.0775813
0.0822682
0.0827421
0.0780548
0.0656293
0.0660998
0.078586
0.0832898
0.0837177
0.0790033
0.0663906
0.0667976
0.0794777
0.0842147
0.084589
0.0798325
0.0670311
0.0673713
0.0802481
0.0850315
0.0853516
0.0805425
0.067548
0.0678237
0.0808993
0.0857385
0.0860048
0.0811345
0.0679468
0.0681631
0.0814349
0.0863365
0.0865507
0.0816143
0.0682379
0.0684015
0.0818624
0.0868302
0.0869962
0.0819912
0.0684345
0.0685535
0.0821929
0.0872296
0.0873533
0.082278
0.0685523
0.068636
0.0824405
0.0875468
0.0876341
0.082489
0.0686083
0.0686649
0.0826186
0.0877928
0.0878488
0.0826368
0.0686173
0.0686539
0.0827399
0.0879794
0.08801
0.0827337
0.0685913
0.068613
0.0828155
0.0881177
0.0881277
0.0827902
0.0685398
0.0685508
0.0828552
0.0882169
0.0882103
0.0828148
0.0684702
0.0684739
0.0828672
0.0882851
0.0882659
0.0828158
0.0683884
0.0683875
0.082859
0.08833
0.0883006
0.0827992
0.0682991
0.0682957
0.0828354
0.0883561
0.0883188
0.0827696
0.068206
0.0682003
0.0827995
0.0883668
0.0883227
0.0827282
0.0681093
0.0681054
0.0827561
0.0883669
0.0883192
0.0826828
0.0680156
0.0680115
0.0827077
0.0883591
0.0883067
0.0826312
0.0679212
0.0679186
0.0826542
0.0883432
0.088287
0.0825751
0.0678285
0.0678279
0.0825984
0.0883223
0.0882672
0.0825204
0.0677401
0.0677364
0.0825422
0.0883024
0.0882431
0.0824611
0.0676461
0.0676471
0.0824857
0.0882803
0.0882242
0.0824085
0.0675621
0.0675653
0.0824336
0.0882613
0.0882072
0.0823608
0.0674858
0.0674962
0.082393
0.0882607
0.0882144
0.0823249
0.0674081
0.0675076
0.0823955
0.0882937
0.0882805
0.0824051
0.0674905
0.0677115
0.0826147
0.088473
0.0886373
0.0828524
0.0681337
0.0689826
0.0834306
0.0891733
0.0907193
0.0857304
0.0722927
0.071578
0.0829931
0.0882024
0.0916149
0.0941269
0.0955844
0.0960836
0.0963897
0.0969935
0.0972358
0.0975018
0.0976214
0.0977235
0.0977459
0.097714
0.0976401
0.0974455
0.0972436
0.0967376
0.096449
0.0961286
0.0957305
0.095053
0.0933406
0.0895732
0.0817551
0.0717813
0.0511989
0.0496333
0.0707524
0.0809156
0.0800759
0.0697697
0.0483189
0.047501
0.0691306
0.0795439
0.0792961
0.0688769
0.0469228
0.046848
0.0687621
0.0791911
0.0790792
0.0686586
0.0465338
0.046516
0.0685845
0.0790846
0.0790951
0.0685939
0.0465293
0.046558
0.0686183
0.0791172
0.0791491
0.0686593
0.0466048
0.0466516
0.0687038
0.0791863
0.0792155
0.0687416
0.0466934
0.0467414
0.0687861
0.0792524
0.0792942
0.0688387
0.0467995
0.0468596
0.0688952
0.0793409
0.0793779
0.0689431
0.0469115
0.0469667
0.0689939
0.07942
0.0794654
0.0690512
0.0470295
0.0470928
0.0691098
0.0795138
0.0795544
0.069162
0.0471503
0.0472151
0.0692217
0.0796038
0.0796507
0.0692804
0.04728
0.0473394
0.0693355
0.0796963
0.0797441
0.0693946
0.0474043
0.0474706
0.0694571
0.0797957
0.0798409
0.0695148
0.0475331
0.0476
0.0695787
0.0798945
0.079943
0.0696396
0.0476666
0.0477307
0.0696991
0.0799918
0.080042
0.0697623
0.0478006
0.047871
0.0698265
0.0800956
0.0801434
0.0698861
0.0479393
0.0480092
0.0699494
0.0801959
0.0802479
0.070014
0.0480812
0.0481533
0.0700804
0.0803031
0.0803537
0.0701435
0.0482243
0.0482973
0.0702103
0.0804097
0.0804639
0.0702769
0.048371
0.0484439
0.0703449
0.0805212
0.0805762
0.0704126
0.0485162
0.0485903
0.0704827
0.0806353
0.0806913
0.070551
0.0486649
0.04874
0.0706209
0.0807511
0.0808063
0.0706874
0.0488113
0.0488866
0.070759
0.0808683
0.0809288
0.0708306
0.0489618
0.0490344
0.070901
0.0809908
0.0810515
0.0709716
0.0491065
0.0491808
0.0710455
0.0811171
0.0811805
0.0711189
0.0492543
0.0493298
0.0711952
0.0812491
0.0813146
0.0712686
0.0494028
0.0494764
0.0713439
0.0813839
0.0814543
0.071422
0.0495501
0.0496246
0.0715038
0.0815309
0.0816054
0.0715846
0.0496963
0.0497687
0.0716687
0.081686
0.0817673
0.0717544
0.0498397
0.0499081
0.0718416
0.0818533
0.0819391
0.0719306
0.0499732
0.0500414
0.0720269
0.0820351
0.0821294
0.072122
0.0501054
0.0501673
0.0722183
0.0822279
0.0823302
0.0723198
0.0502291
0.0502914
0.0724265
0.08244
0.0825515
0.0725358
0.0503522
0.0504123
0.0726499
0.0826714
0.0827923
0.0727655
0.0504698
0.0505261
0.0728884
0.0829232
0.0830617
0.0730207
0.0505842
0.0506394
0.0731593
0.0832095
0.0833597
0.0733023
0.0506908
0.0507462
0.0734585
0.0835246
0.0836975
0.073625
0.0508084
0.0508747
0.0738016
0.0838811
0.0840727
0.0739895
0.0509478
0.0510345
0.0741953
0.0842799
0.0844965
0.0744153
0.0511377
0.051258
0.0746486
0.0847257
0.0849654
0.0748981
0.0513978
0.0515615
0.075173
0.0852254
0.0855013
0.0754706
0.0517537
0.0519812
0.0757985
0.0857981
0.0861104
0.0761547
0.0522422
0.0525612
0.0765532
0.0864508
0.0868062
0.0769816
0.0529438
0.0533937
0.0774496
0.0871835
0.0875857
0.077963
0.0539242
0.0545498
0.0785261
0.088018
0.0884789
0.0791365
0.0552715
0.0561245
0.0798207
0.0889867
0.0895878
0.0806493
0.0571886
0.0585262
0.0816136
0.0902653
0.0909305
0.0825962
0.059858
0.0611305
0.0835446
0.0915338
0.0920235
0.084334
0.0623684
0.0634389
0.0847738
0.0923403
0.0925988
0.0854153
0.064492
0.0654696
0.0857971
0.0928154
0.0929591
0.0862064
0.066545
0.0676948
0.0866234
0.0931239
0.0931497
0.0869067
0.0687239
0.069596
0.0871405
0.0931142
0.0931016
0.0874239
0.0705792
0.0716828
0.0877334
0.0931284
0.0930793
0.0879477
0.0727583
0.0733163
0.0881013
0.0928733
0.0922565
0.0876843
0.0732241
0.0583481
0.0806858
0.0891864
0.091597
0.0839475
0.0620156
0.0620274
0.0842704
0.0917202
0.0916146
0.0844737
0.062998
0.0642489
0.0845489
0.0914205
0.09149
0.0850134
0.0657492
0.0674263
0.0853892
0.0914947
0.0915584
0.0859262
0.0690192
0.0704789
0.0861694
0.0914278
0.0914174
0.0866005
0.0719806
0.0734415
0.0869434
0.0913443
0.0912563
0.087264
0.07471
0.0750882
0.0870883
0.0907373
0.0882971
0.081779
0.0645829
0.0686966
0.0846949
0.0902186
0.0903156
0.0850984
0.0696213
0.0711826
0.0857192
0.0903875
0.0903822
0.0860515
0.0723735
0.0735343
0.0862902
0.0902912
0.0901913
0.0866
0.0747743
0.0753515
0.0866085
0.089905
0.0892502
0.086249
0.0756239
0.0666266
0.081853
0.0871715
0.0886331
0.084208
0.0700802
0.0709442
0.0844271
0.0884867
0.0881173
0.0844674
0.0721246
0.073265
0.0843867
0.0877096
0.0873406
0.08447
0.0744772
0.0748075
0.0840757
0.0865416
0.0846205
0.0801127
0.0672148
0.0710906
0.0823034
0.0858632
0.0856244
0.082488
0.0720973
0.0731177
0.0823653
0.0851017
0.0845538
0.0822716
0.0737896
0.0737345
0.0815229
0.0835415
0.0818755
0.078234
0.0672823
0.0703256
0.0797523
0.0824836
0.0816478
0.0792953
0.0707489
0.0715936
0.0788473
0.080711
0.0793387
0.0778606
0.071391
0.0661607
0.0749351
0.0776983
0.0777291
0.0757288
0.068821
0.0689067
0.0747951
0.0763856
0.0747686
0.0736497
0.068818
0.0677131
0.0717535
0.0724504
0.0701295
0.0686817
0.0631019
0.0635573
0.0675696
0.0684268
0.0650237
0.0647181
0.0615973
0.0567804
0.0608605
0.061864
0.0586823
0.0581692
0.0559077
0.0517565
0.0526326
0.052539
0.0452018
0.0449162
0.0437142
0.0348557
0.0347506
0.0351777
0.0239789
0.0220362
0.0206139
0.00593219
0.00913261
0.0150046
0.0295608
0.0279391
0.0283317
0.0536088
0.0519398
0.0512235
0.0693141
0.0707717
0.0722011
0.0833247
0.0831561
0.0822585
0.0866982
0.0866287
0.0854388
0.0890304
0.0917204
0.0917612
0.0932285
0.0924418
0.0889864
0.0909043
0.0952285
0.0959022
0.0968311
0.0953695
0.0904504
0.0875152
0.0942106
0.0965575
0.0984335
0.0968451
0.0895518
0.0867483
0.0949077
0.0974799
0.0994257
0.0976633
0.0904304
0.0893402
0.0969752
0.0994577
0.0981608
0.0950415
0.0864203
0.0897227
0.0977387
0.0999012
0.0996014
0.096703
0.0881434
0.0851632
0.0945619
0.0980966
0.0998781
0.0975601
0.0888695
0.0873093
0.0964491
0.0994532
0.0976669
0.0938966
0.0838601
0.087774
0.0968847
0.0993901
0.0992069
0.096102
0.0867037
0.0831744
0.0933822
0.0973521
0.0991636
0.0964877
0.0874336
0.0865669
0.095945
0.0992222
0.0972645
0.0933377
0.0831088
0.0868516
0.0962126
0.0989932
0.0989217
0.0955111
0.0858242
0.0827173
0.0930346
0.0970665
0.0988944
0.0960852
0.086696
0.085499
0.0952807
0.0987163
0.0968283
0.0927374
0.0822059
0.0865176
0.0958584
0.0986686
0.098655
0.0953357
0.0854769
0.0837667
0.0940667
0.0979852
0.0955816
0.0907091
0.0792778
0.0838306
0.0945732
0.0976977
0.0978291
0.0939865
0.0828017
0.0788952
0.0910962
0.0956815
0.0977909
0.094626
0.0837646
0.0824211
0.0936754
0.0976158
0.0954036
0.0906591
0.0786093
0.0835614
0.0945245
0.0976256
0.0977174
0.0938852
0.0826065
0.0787839
0.0909589
0.095537
0.0977037
0.0944528
0.0833686
0.0822189
0.0936634
0.0976221
0.0955702
0.0909252
0.0787267
0.0837591
0.0946941
0.0979236
0.0978855
0.0939755
0.0826311
0.0790005
0.0907427
0.0956307
0.0978842
0.094554
0.0836437
0.0825534
0.0938058
0.0978746
0.0958163
0.090919
0.0791732
0.0840925
0.0950282
0.0982795
0.0983014
0.094243
0.0829421
0.0788429
0.0908534
0.0958544
0.0983005
0.094965
0.083407
0.0811528
0.0929369
0.0971205
0.0996216
0.0967124
0.0864319
0.0857721
0.0960876
0.0997077
0.0977021
0.0934062
0.0826192
0.0867984
0.0968307
0.0998864
0.0996844
0.0959836
0.0855275
0.0823966
0.0934274
0.0978532
0.100364
0.0974076
0.0873278
0.0866283
0.097024
0.100641
0.0987111
0.094393
0.0835084
0.0876379
0.0978672
0.100893
0.100687
0.0969508
0.0862599
0.0827156
0.0940184
0.0986576
0.101104
0.0979854
0.0876498
0.0870336
0.0976554
0.101454
0.0993662
0.094767
0.0835998
0.0876112
0.0987015
0.101747
0.100374
0.0964186
0.0851006
0.0888944
0.0995538
0.102548
0.102512
0.0987361
0.0877785
0.0851313
0.0963242
0.100704
0.103147
0.100236
0.0899473
0.0890311
0.0997132
0.103328
0.101274
0.0967632
0.085669
0.0896814
0.100667
0.103632
0.102186
0.0981969
0.0869441
0.0910797
0.101372
0.104362
0.104531
0.101021
0.0907593
0.0879983
0.0985803
0.102827
0.105166
0.102298
0.0922883
0.0914344
0.101753
0.10533
0.103351
0.0989322
0.088073
0.0918177
0.102739
0.105667
0.104189
0.100175
0.0889173
0.0930506
0.103302
0.106194
0.106443
0.10305
0.0928341
0.0899726
0.100705
0.104826
0.107169
0.104366
0.0941616
0.0932861
0.10381
0.107408
0.10537
0.101105
0.089651
0.0935193
0.104707
0.107692
0.106227
0.102306
0.0907324
0.0950841
0.105495
0.108398
0.108536
0.105005
0.0946553
0.0916039
0.102404
0.106737
0.109264
0.106419
0.0955763
0.0935094
0.104535
0.108346
0.110664
0.107958
0.0978508
0.0966351
0.107008
0.110498
0.108275
0.103976
0.0931256
0.0965193
0.107404
0.110487
0.109386
0.105409
0.0942875
0.0993008
0.109234
0.111985
0.11218
0.108632
0.0984846
0.0952446
0.105959
0.110222
0.112661
0.10976
0.0992102
0.0968327
0.107721
0.111461
0.113635
0.110952
0.100942
0.0998454
0.109931
0.113368
0.111141
0.106785
0.096017
0.0997726
0.110573
0.113359
0.112708
0.10901
0.0981065
0.102461
0.11261
0.115207
0.115392
0.112028
0.101747
0.0982074
0.109347
0.11346
0.115737
0.112869
0.101837
0.0994192
0.110665
0.114471
0.116776
0.114036
0.103313
0.100685
0.11154
0.115303
0.11722
0.114491
0.104385
0.103902
0.114015
0.117528
0.115867
0.111682
0.101192
0.10504
0.115552
0.118344
0.11728
0.113594
0.102838
0.10681
0.116956
0.119544
0.119505
0.116047
0.10575
0.10211
0.113348
0.117498
0.119749
0.116824
0.105538
0.102608
0.114305
0.118211
0.120413
0.117596
0.106392
0.104708
0.115845
0.11955
0.121988
0.119424
0.109365
0.108562
0.118772
0.1222
0.120387
0.11613
0.10561
0.10899
0.119944
0.122698
0.121411
0.117609
0.10645
0.110358
0.121141
0.123761
0.122591
0.11904
0.108322
0.11171
0.121885
0.124534
0.124329
0.120754
0.110376
0.10712
0.118139
0.122418
0.124951
0.122142
0.111245
0.109144
0.120256
0.123974
0.126404
0.123865
0.113169
0.111204
0.121882
0.125407
0.127576
0.12507
0.115172
0.114304
0.124281
0.127652
0.125797
0.121624
0.111197
0.114344
0.12518
0.127945
0.126524
0.122695
0.111678
0.115029
0.125979
0.128733
0.127747
0.124026
0.113174
0.117406
0.127408
0.129979
0.130189
0.126757
0.116699
0.113554
0.124158
0.128406
0.130669
0.128092
0.116772
0.1144
0.125879
0.129579
0.131834
0.129385
0.118228
0.116098
0.127182
0.130713
0.132781
0.130236
0.120055
0.119002
0.129253
0.13269
0.130561
0.126131
0.115397
0.118537
0.12991
0.132735
0.13182
0.127852
0.116556
0.120917
0.131863
0.134483
0.133465
0.129802
0.119
0.122694
0.133284
0.135797
0.13474
0.131278
0.120723
0.124475
0.134367
0.136824
0.136807
0.133497
0.123587
0.120237
0.130915
0.134951
0.137205
0.134361
0.12333
0.120622
0.132099
0.135866
0.138115
0.135349
0.123935
0.121617
0.132989
0.136878
0.139226
0.136609
0.125841
0.124068
0.134708
0.138317
0.140564
0.138111
0.128216
0.127422
0.137415
0.140739
0.138988
0.134725
0.124333
0.127489
0.138642
0.141272
0.140151
0.136342
0.125088
0.128758
0.139898
0.142501
0.141268
0.13759
0.12655
0.130189
0.140902
0.143438
0.142228
0.138629
0.128038
0.131546
0.141594
0.144209
0.144325
0.140904
0.130796
0.127895
0.13827
0.142622
0.144982
0.142355
0.131083
0.12876
0.14012
0.14399
0.146429
0.143903
0.132673
0.130571
0.141662
0.145316
0.147459
0.144925
0.134109
0.131992
0.142767
0.146361
0.148465
0.14595
0.135939
0.135091
0.145111
0.148486
0.146607
0.14257
0.131464
0.134573
0.145957
0.148856
0.147578
0.143708
0.131854
0.136102
0.147532
0.150205
0.149164
0.145352
0.134182
0.137959
0.149005
0.151601
0.150483
0.14683
0.135889
0.13941
0.150154
0.152719
0.15168
0.148112
0.137499
0.141273
0.151332
0.153822
0.153926
0.150516
0.140381
0.137189
0.147697
0.152131
0.154387
0.151741
0.140193
0.137646
0.14923
0.153193
0.155431
0.152781
0.141178
0.138832
0.150292
0.154182
0.156599
0.15392
0.142797
0.140948
0.151853
0.155587
0.157946
0.155364
0.144596
0.142785
0.153458
0.157042
0.15933
0.156851
0.146926
0.146027
0.156085
0.159453
0.157679
0.153361
0.142838
0.146147
0.15734
0.160033
0.15893
0.154999
0.143828
0.147729
0.158886
0.161497
0.160328
0.156584
0.145515
0.14897
0.15998
0.162601
0.161338
0.157595
0.146749
0.150339
0.160992
0.163605
0.162684
0.15913
0.148565
0.152376
0.162415
0.164897
0.165088
0.161696
0.151601
0.148531
0.158984
0.163382
0.165644
0.163018
0.151336
0.149018
0.160637
0.164625
0.167118
0.164553
0.152875
0.150561
0.162204
0.165966
0.168309
0.165735
0.154357
0.15233
0.163511
0.167178
0.169422
0.166833
0.155844
0.153956
0.164779
0.168413
0.1707
0.168203
0.158078
0.157197
0.167434
0.170886
0.169168
0.164746
0.15411
0.15731
0.168836
0.171571
0.170576
0.166621
0.155098
0.159093
0.170642
0.173241
0.172094
0.16829
0.156769
0.160623
0.171901
0.174502
0.173421
0.16975
0.15869
0.16222
0.173178
0.175775
0.174803
0.17116
0.160339
0.164347
0.174551
0.177062
0.177235
0.173748
0.163416
0.1602
0.170967
0.175508
0.1779
0.175287
0.163325
0.160985
0.17278
0.17687
0.179397
0.176753
0.164928
0.16263
0.174391
0.17828
0.180809
0.178158
0.166465
0.164422
0.175897
0.179707
0.182143
0.179493
0.168101
0.166097
0.177271
0.181062
0.183556
0.180967
0.17004
0.168226
0.179038
0.182665
0.184996
0.18248
0.172414
0.171568
0.181824
0.185278
0.183621
0.17942
0.168482
0.172056
0.183335
0.186167
0.185148
0.181265
0.16973
0.173886
0.185283
0.18789
0.186831
0.183054
0.171806
0.17557
0.186695
0.189308
0.188248
0.184505
0.17363
0.177322
0.188078
0.190668
0.189728
0.186137
0.175441
0.179417
0.189558
0.192058
0.192268
0.188781
0.178409
0.175491
0.186268
0.190647
0.193144
0.190445
0.17885
0.176338
0.187983
0.192017
0.194639
0.19199
0.180306
0.178263
0.18983
0.193646
0.196131
0.193526
0.182047
0.180188
0.191426
0.195192
0.197822
0.195295
0.184248
0.182535
0.193485
0.19706
0.199453
0.19703
0.186783
0.185527
0.196127
0.199623
0.197945
0.193659
0.182427
0.186233
0.19771
0.200639
0.199496
0.195468
0.183672
0.187859
0.199539
0.202275
0.201197
0.197248
0.18573
0.18984
0.201182
0.203864
0.202921
0.199143
0.188011
0.191872
0.202878
0.205493
0.204695
0.201008
0.190041
0.194442
0.204736
0.207251
0.207731
0.204185
0.193647
0.190851
0.20181
0.206276
0.208997
0.206284
0.194626
0.192416
0.204042
0.208023
0.210694
0.20802
0.19628
0.193898
0.205557
0.209531
0.212002
0.209274
0.197721
0.195628
0.207053
0.210951
0.213656
0.211023
0.199834
0.197894
0.209108
0.212834
0.215342
0.212788
0.202223
0.201453
0.212284
0.215877
0.21436
0.209892
0.198672
0.202399
0.214218
0.217061
0.216158
0.212074
0.200257
0.204772
0.216477
0.219174
0.218449
0.214537
0.202921
0.207884
0.218992
0.221464
0.22072
0.21716
0.206095
0.209661
0.220464
0.223012
0.223092
0.219412
0.208192
0.205173
0.216568
0.221376
0.224043
0.221205
0.208708
0.206288
0.218736
0.222989
0.225889
0.223128
0.210778
0.208493
0.220812
0.224911
0.227763
0.224991
0.213131
0.211009
0.222922
0.226909
0.229691
0.22701
0.215887
0.215119
0.226591
0.230364
0.228861
0.224386
0.212171
0.216742
0.228957
0.232053
0.231354
0.227212
0.21457
0.220221
0.232276
0.234851
0.233836
0.229948
0.217866
0.221516
0.233538
0.236324
0.235178
0.231161
0.219067
0.223621
0.235045
0.237855
0.238142
0.234139
0.222235
0.219428
0.231298
0.236534
0.239572
0.236634
0.223699
0.22115
0.234107
0.238552
0.241638
0.238735
0.226034
0.223936
0.236589
0.240854
0.244198
0.241355
0.229044
0.226969
0.239434
0.243558
0.246636
0.243924
0.232269
0.231799
0.243837
0.247752
0.246678
0.241852
0.229783
0.234305
0.247106
0.249952
0.24849
0.244096
0.231001
0.235333
0.24824
0.251245
0.250045
0.245737
0.232816
0.237468
0.250125
0.253077
0.252128
0.24787
0.23515
0.240139
0.252143
0.255039
0.255632
0.251494
0.239091
0.236222
0.248896
0.254051
0.257233
0.254114
0.240958
0.238624
0.251907
0.256446
0.260086
0.257226
0.244354
0.242282
0.255397
0.259659
0.26315
0.26045
0.248303
0.248483
0.260874
0.264709
0.263305
0.258298
0.246078
0.249701
0.262959
0.266113
0.264521
0.259842
0.246315
0.251089
0.264467
0.267667
0.266565
0.261991
0.248552
0.253782
0.266861
0.269914
0.269174
0.264778
0.251631
0.257077
0.26945
0.27245
0.273339
0.269063
0.256236
0.253456
0.266641
0.271815
0.275298
0.271923
0.258828
0.256454
0.27003
0.274637
0.278739
0.27583
0.262697
0.261037
0.274451
0.278743
0.282608
0.280285
0.268827
0.26859
0.280395
0.283845
0.281757
0.276982
0.264151
0.267581
0.281115
0.284468
0.28317
0.27842
0.26442
0.269923
0.283572
0.286754
0.285999
0.281421
0.267496
0.273359
0.286384
0.289453
0.290456
0.286012
0.272415
0.269537
0.283435
0.288934
0.292513
0.289041
0.275338
0.272818
0.287068
0.291942
0.296164
0.293077
0.279746
0.27965
0.293752
0.298301
0.297625
0.292243
0.277914
0.285277
0.299049
0.301988
0.300738
0.296174
0.281963
0.285963
0.300388
0.3038
0.302265
0.297275
0.282424
0.288132
0.30213
0.305548
0.306261
0.301374
0.286817
0.283619
0.298625
0.304591
0.308566
0.304887
0.289843
0.287215
0.302754
0.307937
0.312299
0.309
0.294549
0.294071
0.30927
0.314169
0.312899
0.306922
0.291244
0.298457
0.313801
0.317399
0.317735
0.312681
0.297155
0.306647
0.320384
0.323024
0.32393
0.319642
0.305111
0.299503
0.315378
0.321196
0.32445
0.320446
0.304525
0.300807
0.317433
0.323043
0.32723
0.323532
0.308187
0.307097
0.323263
0.328622
0.327114
0.320495
0.303962
0.311119
0.327718
0.331765
0.331212
0.325425
0.308409
0.317207
0.332883
0.336395
0.339027
0.333725
0.317132
0.314997
0.332033
0.338444
0.344219
0.341351
0.326194
0.32412
0.339387
0.344015
0.347772
0.344343
0.328895
0.325647
0.342275
0.34754
0.344988
0.338452
0.320774
0.327994
0.345043
0.349465
0.348376
0.342448
0.324562
0.332957
0.349383
0.353275
0.355357
0.349664
0.332326
0.32951
0.347175
0.354179
0.359489
0.355457
0.338277
0.336675
0.354302
0.360125
0.366666
0.363834
0.349043
0.352219
0.367255
0.371079
0.369756
0.364508
0.348851
0.352397
0.368861
0.372968
0.37246
0.366645
0.348667
0.343645
0.362857
0.369939
0.375223
0.370593
0.352333
0.349048
0.368302
0.374504
0.38024
0.376254
0.358888
0.359067
0.377461
0.383256
0.382719
0.375679
0.356748
0.367271
0.384536
0.388565
0.393192
0.38779
0.369345
0.369097
0.387711
0.393798
0.399754
0.395958
0.377955
0.372938
0.393136
0.399296
0.395792
0.387902
0.366358
0.375291
0.395614
0.400873
0.399617
0.39257
0.371492
0.382446
0.401272
0.405797
0.409058
0.402646
0.382859
0.381046
0.401245
0.408899
0.415655
0.411509
0.393693
0.397332
0.416179
0.421476
0.422766
0.416896
0.398171
0.407043
0.425273
0.428956
0.428215
0.422121
0.401354
0.394493
0.416574
0.424836
0.429928
0.424546
0.404272
0.402651
0.424519
0.431599
0.430754
0.422146
0.399628
0.413626
0.43373
0.438629
0.444314
0.437659
0.41591
0.418342
0.439851
0.44702
0.456327
0.453586
0.436048
0.432632
0.452986
0.45797
0.456736
0.449012
0.425242
0.416279
0.442489
0.452761
0.458682
0.45263
0.428596
0.427223
0.453202
0.461423
0.461685
0.452064
0.425143
0.446183
0.467705
0.472268
0.48235
0.478085
0.455546
0.459148
0.481976
0.487829
0.483727
0.474437
0.447662
0.45537
0.480881
0.487691
0.486787
0.478494
0.449489
0.446494
0.477575
0.487953
0.487852
0.474985
0.443906
0.4714
0.495398
0.499823
0.511334
0.506481
0.482142
0.481684
0.508315
0.515339
0.509303
0.498055
0.466082
0.476644
0.50556
0.51318
0.513681
0.505123
0.472674
0.472237
0.508029
0.518007
0.52862
0.518319
0.483329
0.481398
0.517816
0.52835
0.536099
0.527156
0.49367
0.481869
0.521329
0.532511
0.532125
0.519426
0.475825
0.478623
0.525063
0.536906
0.54214
0.528853
0.480077
0.469042
0.523095
0.540756
0.52931
0.509288
0.450369
0.48317
0.523659
0.53608
0.533205
0.521925
0.480619
0.470149
0.516646
0.530602
0.524417
0.508027
0.451915
0.434095
0.495911
0.514373
0.50229
0.481383
0.414051
0.391045
0.465929
0.490123
0.478931
0.451841
0.371118
0.35514
0.440158
0.469634
0.461849
0.430095
0.341519
0.329414
0.420927
0.454916
0.448527
0.412368
0.318491
0.308658
0.404344
0.442561
0.436948
0.396813
0.2997
0.291508
0.389712
0.431619
0.426537
0.383005
0.28402
0.27717
0.376652
0.421674
0.417026
0.370651
0.270937
0.265282
0.364999
0.412581
0.408319
0.359681
0.260147
0.255497
0.354686
0.404221
0.400278
0.349994
0.251285
0.247479
0.345589
0.396474
0.392801
0.341446
0.24404
0.240939
0.337557
0.389248
0.385812
0.333901
0.238147
0.235645
0.330469
0.382486
0.379272
0.327246
0.233408
0.231417
0.324226
0.376164
0.373159
0.321395
0.22965
0.228089
0.318747
0.370251
0.367442
0.31627
0.226713
0.225505
0.313957
0.364731
0.362117
0.311796
0.224446
0.223526
0.309776
0.3596
0.357176
0.307878
0.222727
0.222038
0.306101
0.354845
0.352601
0.304431
0.221446
0.220941
0.302867
0.350448
0.348377
0.301397
0.220511
0.22015
0.300019
0.346396
0.344497
0.298724
0.219847
0.219599
0.29751
0.342687
0.340955
0.296368
0.219397
0.219238
0.295297
0.339308
0.337735
0.29429
0.219112
0.219019
0.293345
0.336242
0.33482
0.292452
0.218961
0.218924
0.291613
0.33347
0.332187
0.290819
0.218914
0.218916
0.290076
0.330972
0.329818
0.289373
0.218935
0.218955
0.288715
0.328726
0.327689
0.28809
0.218986
0.219016
0.287509
0.326711
0.325782
0.286957
0.219054
0.219084
0.286442
0.324905
0.324071
0.285952
0.219121
0.219152
0.285498
0.323288
0.322543
0.285067
0.219187
0.219213
0.284665
0.321841
0.321173
0.284283
0.219243
0.219269
0.283932
0.320549
0.319955
0.2836
0.219298
0.219316
0.28329
0.319396
0.318861
0.282995
0.219336
0.219349
0.282723
0.318362
0.317885
0.282466
0.219366
0.219373
0.282226
0.317436
0.317006
0.281997
0.219381
0.219385
0.281787
0.316605
0.316221
0.281587
0.219392
0.21939
0.281397
0.315857
0.315508
0.281214
0.219391
0.219389
0.281044
0.31518
0.314865
0.280881
0.219389
0.219381
0.280727
0.314566
0.314278
0.280577
0.219375
0.219366
0.280438
0.314008
0.313747
0.280305
0.21936
0.219347
0.280178
0.313499
0.313259
0.280056
0.219337
0.219324
0.279943
0.313035
0.312818
0.279835
0.219315
0.2193
0.279732
0.312612
0.312412
0.279632
0.219286
0.219272
0.279541
0.312225
0.312046
0.279454
0.219259
0.219244
0.279371
0.311874
0.311712
0.279292
0.219228
0.219213
0.279217
0.311556
0.311414
0.279149
0.219201
0.219187
0.279086
0.311274
0.311145
0.279025
0.219175
0.219162
0.278968
0.311015
0.310902
0.278915
0.219152
0.219142
0.278867
0.310784
0.310684
0.278823
0.219136
0.219128
0.278781
0.310576
0.310488
0.278744
0.219125
0.21912
0.278711
0.310391
0.310313
0.278681
0.219121
0.219119
0.278653
0.310225
0.310158
0.27863
0.219124
0.219127
0.278609
0.310078
0.31002
0.278592
0.219135
0.219143
0.278576
0.309947
0.309899
0.278566
0.219156
0.21917
0.278556
0.309835
0.309795
0.278553
0.219188
0.219205
0.278549
0.309737
0.309707
0.278552
0.219229
0.219252
0.278554
0.309657
0.309634
0.278562
0.219281
0.219308
0.278569
0.30959
0.309575
0.278584
0.219342
0.219375
0.278597
0.309538
0.30953
0.278616
0.219412
0.219449
0.278634
0.309498
0.309499
0.278658
0.219491
0.219534
0.278681
0.309473
0.309481
0.27871
0.219579
0.219625
0.278737
0.309459
0.309474
0.278771
0.219674
0.219724
0.278803
0.309458
0.309479
0.278841
0.219777
0.219829
0.278876
0.309467
0.309493
0.278917
0.219885
0.219942
0.278957
0.309487
0.309518
0.279002
0.22
0.220059
0.279045
0.309517
0.309553
0.279094
0.22012
0.220182
0.279141
0.309556
0.309597
0.279192
0.220245
0.220309
0.279242
0.309604
0.309649
0.279296
0.220375
0.220441
0.279349
0.30966
0.30971
0.279406
0.220508
0.220577
0.279462
0.309724
0.309779
0.279522
0.220646
0.220717
0.279581
0.309797
0.309855
0.279644
0.220789
0.220861
0.279706
0.309877
0.309939
0.279772
0.220935
0.221009
0.279836
0.309965
0.31003
0.279904
0.221084
0.221159
0.279971
0.310058
0.310128
0.280042
0.221236
0.221313
0.280111
0.310159
0.310232
0.280184
0.221391
0.221469
0.280254
0.310265
0.310341
0.280329
0.221547
0.221626
0.280401
0.310377
0.310455
0.280477
0.221705
0.221785
0.280551
0.310493
0.310574
0.280629
0.221865
0.221945
0.280705
0.310614
0.310697
0.280783
0.222025
0.222105
0.28086
0.310739
0.310823
0.28094
0.222185
0.222266
0.281017
0.310867
0.310953
0.281098