/*--------------------------------*- C++ -*----------------------------------*\
| =========                 |                                                 |
| \\      /  F ield         | OpenFOAM: The Open Source CFD Toolbox           |
|  \\    /   O peration     | Version:  v2006                                 |
|   \\  /    A nd           | Website:  www.openfoam.com                      |
|    \\/     M anipulation  |                                                 |
\*---------------------------------------------------------------------------*/
FoamFile
{
    version     2.0;
    format      ascii;
    class       volScalarField;
    location    "0.101";
    object      turbulenceProperties:I;
}
// * * * * * * * * * * * * * * * * * * * * * * * * * * * * * * * * * * * * * //

dimensions      [0 0 0 0 0 0 0];


internalField   nonuniform List<scalar> 
16277
(
0.149971
0.149971
0.149979
0.149983
0.149989
0.149988
0.14999
0.149994
0.150001
0.150009
0.150015
0.150018
0.150018
0.150017
0.150015
0.150013
0.150011
0.150009
0.150008
0.150007
0.150006
0.150005
0.150005
0.150004
0.150004
0.150003
0.150003
0.150003
0.150002
0.150002
0.150002
0.150002
0.150002
0.150002
0.150002
0.150002
0.150002
0.150002
0.150002
0.150001
0.150001
0.150001
0.150001
0.150001
0.150001
0.150001
0.150001
0.150001
0.150001
0.150001
0.150001
0.150001
0.150001
0.150001
0.150001
0.150001
0.150001
0.150001
0.150001
0.150001
0.150001
0.150001
0.150001
0.150001
0.150001
0.150001
0.150001
0.150001
0.15
0.15
0.15
0.15
0.15
0.15
0.149999
0.149999
0.149998
0.149997
0.149995
0.149995
0.149997
0.150005
0.150018
0.150031
0.150035
0.150024
0.150006
0.149987
0.149966
0.149968
0.149981
0.149977
0.149989
0.150008
0.149873
0.149304
0.14506
0.13908
0.145978
0.148746
0.14598
0.139197
0.133277
0.129404
0.135533
0.143821
0.139875
0.129547
0.125376
0.123121
0.127253
0.138208
0.134539
0.122607
0.120471
0.119191
0.121242
0.133289
0.130277
0.117865
0.11744
0.116713
0.117167
0.12941
0.126995
0.114912
0.115549
0.115164
0.114556
0.126377
0.124398
0.112921
0.11435
0.114173
0.112769
0.123968
0.122297
0.111519
0.113571
0.113516
0.111487
0.121994
0.120553
0.110494
0.113058
0.113089
0.110551
0.120351
0.119086
0.109736
0.112727
0.112809
0.10985
0.118957
0.11782
0.109151
0.112502
0.112616
0.109299
0.117745
0.116713
0.108685
0.112352
0.112489
0.10886
0.116682
0.115736
0.10831
0.112254
0.112407
0.108505
0.115741
0.114868
0.108006
0.112194
0.112358
0.108219
0.114904
0.114094
0.107762
0.112163
0.112336
0.10799
0.114157
0.113401
0.107571
0.112155
0.112337
0.107814
0.11349
0.112785
0.107427
0.112168
0.112356
0.107684
0.112899
0.112243
0.107327
0.112199
0.112394
0.1076
0.112381
0.111772
0.107272
0.112246
0.112449
0.107561
0.111935
0.111369
0.107261
0.11231
0.11252
0.107565
0.111556
0.111033
0.107292
0.112391
0.112608
0.107613
0.111243
0.110758
0.107365
0.112487
0.112713
0.107702
0.11099
0.110542
0.107476
0.112599
0.112834
0.107831
0.110797
0.110384
0.107627
0.112727
0.112971
0.107998
0.110661
0.11028
0.107814
0.112871
0.113124
0.108203
0.110579
0.11023
0.108038
0.11303
0.113293
0.108446
0.110552
0.110233
0.108299
0.113205
0.113478
0.108725
0.110578
0.110288
0.108595
0.113396
0.11368
0.109042
0.110656
0.110395
0.108928
0.113603
0.113897
0.109396
0.110788
0.110554
0.109299
0.113825
0.114132
0.109789
0.110972
0.110766
0.109707
0.114064
0.114383
0.11022
0.11121
0.11103
0.110153
0.114319
0.114651
0.110692
0.111502
0.111349
0.11064
0.114589
0.114935
0.111205
0.111849
0.111721
0.111167
0.114875
0.115234
0.111759
0.11225
0.112148
0.111736
0.115175
0.115547
0.112355
0.112704
0.112627
0.112344
0.115487
0.115871
0.11299
0.113212
0.113156
0.112989
0.115808
0.116204
0.113661
0.113768
0.113733
0.113669
0.116135
0.11654
0.114365
0.11437
0.114351
0.114377
0.116462
0.116873
0.115094
0.115009
0.115002
0.115106
0.116781
0.117194
0.115838
0.115678
0.115677
0.115846
0.117083
0.117494
0.116586
0.116362
0.11636
0.116581
0.117356
0.117756
0.117319
0.117045
0.11703
0.117292
0.117585
0.117965
0.118014
0.117703
0.117662
0.117952
0.117748
0.118098
0.11864
0.118304
0.118222
0.118529
0.117825
0.118132
0.11916
0.118814
0.118673
0.118985
0.117788
0.118038
0.119532
0.119192
0.118972
0.119276
0.117618
0.117758
0.119688
0.119393
0.119067
0.119301
0.117292
0.117289
0.119542
0.119349
0.118903
0.119016
0.116784
0.116626
0.119064
0.119023
0.118442
0.118398
0.116129
0.115785
0.118245
0.118388
0.117675
0.117449
0.115301
0.114827
0.11711
0.117456
0.116629
0.1162
0.114282
0.113753
0.115655
0.116221
0.115268
0.114595
0.113077
0.112522
0.113851
0.114676
0.113624
0.11269
0.111785
0.111302
0.111846
0.11293
0.111839
0.11067
0.110575
0.110161
0.109779
0.111082
0.109992
0.108639
0.109474
0.109134
0.107753
0.109212
0.108159
0.106689
0.108506
0.108247
0.105843
0.107386
0.106396
0.104875
0.107691
0.107513
0.10411
0.105657
0.10475
0.103217
0.107034
0.106929
0.102577
0.104079
0.10325
0.101771
0.106532
0.106492
0.101259
0.102661
0.101904
0.100547
0.106178
0.106194
0.10016
0.101421
0.100743
0.0995473
0.105959
0.10602
0.0992795
0.100363
0.0997671
0.0987652
0.105857
0.105953
0.0986081
0.0994843
0.0989692
0.0981814
0.105849
0.105974
0.0981058
0.0987695
0.0983277
0.0977581
0.105921
0.106063
0.0977557
0.098198
0.0978227
0.0974801
0.106051
0.106201
0.09754
0.09775
0.097434
0.0973277
0.106223
0.106371
0.0974342
0.0974041
0.0971383
0.0972766
0.106419
0.10656
0.097416
0.0971361
0.0969114
0.0973029
0.106625
0.106751
0.0974606
0.0969258
0.0967325
0.0973816
0.106825
0.106935
0.0975465
0.0967521
0.0965841
0.0974933
0.107014
0.107101
0.0976549
0.0966008
0.0964445
0.0976192
0.107188
0.107255
0.0977703
0.0964612
0.0963103
0.0977464
0.107344
0.107392
0.0978823
0.0963257
0.0961764
0.0978659
0.107481
0.107517
0.0979847
0.0961923
0.0960347
0.097967
0.107594
0.107623
0.0980708
0.0960507
0.0958809
0.098044
0.107677
0.107704
0.0981377
0.0958955
0.0957134
0.0981021
0.107745
0.107772
0.0981879
0.0957263
0.0955325
0.098144
0.107803
0.107823
0.0982169
0.0955404
0.0953335
0.0981619
0.107842
0.107859
0.0982246
0.0953375
0.095121
0.0981625
0.10787
0.107883
0.0982146
0.095121
0.0948939
0.0981442
0.107886
0.107893
0.0981828
0.0948866
0.0946468
0.0981009
0.107882
0.107891
0.0981352
0.0946347
0.0943908
0.0980449
0.107876
0.107877
0.0980696
0.0943706
0.0941127
0.0979623
0.107854
0.107855
0.0979828
0.094086
0.0938158
0.0978663
0.107827
0.107821
0.0978687
0.0937773
0.0934817
0.0977265
0.107798
0.10771
0.0976965
0.0934256
0.0931437
0.0976404
0.107671
0.107449
0.0972722
0.0928932
0.092649
0.0971514
0.107007
0.106287
0.0955996
0.091908
0.0928284
0.0958701
0.104159
0.105111
0.0933917
0.0905854
0.0953251
0.100925
0.107142
0.112688
0.116349
0.12071
0.123519
0.12577
0.127335
0.12839
0.128918
0.128949
0.128435
0.127317
0.125553
0.122566
0.120262
0.115105
0.110273
0.105091
0.100369
0.0991557
0.101966
0.116091
0.131625
0.133759
0.117551
0.102904
0.104143
0.119133
0.135158
0.13614
0.120326
0.104869
0.105294
0.120963
0.137082
0.137393
0.121286
0.105468
0.105772
0.121498
0.137703
0.137766
0.121712
0.105911
0.105995
0.121783
0.137809
0.137803
0.121786
0.106091
0.106123
0.121803
0.137776
0.137745
0.121799
0.10621
0.106237
0.121807
0.137739
0.13772
0.121824
0.106336
0.106348
0.12179
0.137667
0.137629
0.121811
0.106437
0.106459
0.121785
0.137598
0.137581
0.121816
0.106557
0.106567
0.121774
0.137523
0.137487
0.121788
0.106664
0.106684
0.121777
0.13745
0.13741
0.121773
0.106785
0.106802
0.121766
0.137363
0.137335
0.121775
0.106911
0.106925
0.121765
0.137286
0.137244
0.12175
0.107013
0.107025
0.121753
0.137219
0.13718
0.121745
0.107119
0.107133
0.121737
0.137132
0.137097
0.121731
0.107242
0.107258
0.121731
0.13705
0.136999
0.121725
0.107381
0.10741
0.121724
0.136947
0.136895
0.121716
0.107528
0.107547
0.121723
0.136854
0.136811
0.121723
0.107668
0.107692
0.121727
0.136769
0.136726
0.121744
0.107814
0.107835
0.12172
0.136674
0.136637
0.121738
0.107948
0.107962
0.121736
0.1366
0.136577
0.12177
0.10808
0.108101
0.121742
0.136521
0.136483
0.121773
0.10823
0.108253
0.121769
0.13644
0.136404
0.121805
0.108377
0.108394
0.121778
0.13635
0.13632
0.121817
0.108521
0.108538
0.121808
0.136274
0.136242
0.121848
0.108658
0.108672
0.121827
0.136195
0.136162
0.121872
0.108805
0.108826
0.121869
0.136114
0.136073
0.121915
0.108959
0.108969
0.121894
0.136024
0.136
0.121943
0.109084
0.109087
0.12194
0.135959
0.135934
0.121989
0.109192
0.109183
0.121959
0.135887
0.135868
0.121997
0.109264
0.109234
0.12198
0.135835
0.135824
0.122013
0.109278
0.109234
0.121963
0.135783
0.135761
0.121975
0.109275
0.109213
0.121927
0.135713
0.135681
0.121898
0.109217
0.109137
0.121852
0.135642
0.135595
0.12179
0.109128
0.109032
0.121713
0.135533
0.135479
0.121596
0.108949
0.108796
0.121465
0.135425
0.135358
0.121287
0.108635
0.108431
0.121092
0.135303
0.135247
0.120852
0.108206
0.107913
0.120542
0.13515
0.135033
0.120183
0.107646
0.107263
0.119779
0.134909
0.134759
0.11932
0.106939
0.106523
0.118778
0.134583
0.134368
0.118201
0.106177
0.10569
0.117512
0.134093
0.133849
0.116769
0.105255
0.104618
0.115887
0.133549
0.133215
0.11492
0.104088
0.103297
0.113836
0.132875
0.132536
0.112714
0.102643
0.101846
0.111391
0.132053
0.131567
0.110108
0.101204
0.100365
0.108607
0.131014
0.130441
0.107156
0.0997166
0.0989819
0.105428
0.129735
0.128918
0.10364
0.098319
0.0974028
0.101562
0.127973
0.12676
0.0997337
0.0965861
0.0957946
0.0981224
0.12537
0.124075
0.0961595
0.0951481
0.0946042
0.0943674
0.122886
0.121687
0.0932971
0.0946226
0.0943397
0.0923825
0.120592
0.119591
0.090983
0.094631
0.0946046
0.0902557
0.118519
0.117274
0.0896601
0.0952702
0.0956313
0.0893986
0.116055
0.115159
0.089879
0.0970234
0.0975834
0.0899433
0.114328
0.113456
0.0911121
0.0992038
0.100321
0.0925112
0.112397
0.112508
0.0959
0.103329
0.105021
0.09871
0.113684
0.133138
0.0908273
0.0856883
0.0975059
0.0950338
0.126472
0.125826
0.0917228
0.0966714
0.0975504
0.0906475
0.125388
0.124088
0.0892252
0.0970685
0.0984993
0.0889438
0.122523
0.120635
0.0882414
0.0984374
0.100528
0.0891975
0.119
0.117601
0.0893771
0.100722
0.104393
0.0920376
0.1162
0.114765
0.0932205
0.10584
0.111307
0.098237
0.11438
0.115296
0.101445
0.114021
0.0883712
0.0884655
0.12933
0.121015
0.0942592
0.106982
0.107752
0.0934325
0.118737
0.116777
0.0964061
0.112935
0.114216
0.097197
0.115807
0.115295
0.100713
0.11853
0.121205
0.10246
0.114326
0.116148
0.108322
0.126489
0.12841
0.11262
0.118635
0.127767
0.0941134
0.0970078
0.12006
0.101399
0.121578
0.120071
0.101145
0.121539
0.12809
0.105915
0.119712
0.118954
0.107527
0.129948
0.138236
0.115843
0.119979
0.123877
0.122654
0.141813
0.107686
0.0995469
0.129128
0.12343
0.111995
0.136992
0.140731
0.114776
0.122145
0.122884
0.12528
0.152819
0.158131
0.131316
0.124945
0.131895
0.142611
0.164076
0.12627
0.110637
0.130808
0.128323
0.129717
0.161595
0.165742
0.133493
0.128931
0.134452
0.152206
0.182194
0.189834
0.163172
0.14097
0.135596
0.12534
0.152356
0.195969
0.157785
0.13766
0.141092
0.166709
0.206043
0.229846
0.195537
0.15372
0.16182
0.208468
0.240928
0.209817
0.166649
0.151575
0.170824
0.228674
0.267387
0.287764
0.24977
0.185126
0.173399
0.20664
0.265903
0.345813
0.302674
0.212483
0.245433
0.354011
0.398779
0.438182
0.34768
0.23761
0.414276
0.6106
0.648607
0.918343
0.847638
0.51094
1
1
1
0.825031
0.796983
0.50887
0.275468
0.424546
0.471702
0.342298
0.308868
0.213204
0.211371
0.276957
0.289208
0.239422
0.199184
0.171716
0.177701
0.21637
0.23298
0.192661
0.164823
0.149199
0.149628
0.177814
0.198245
0.187138
0.162427
0.141613
0.13254
0.123837
0.147164
0.16619
0.148713
0.136721
0.129242
0.123513
0.13857
0.155583
0.136442
0.127348
0.12332
0.127865
0.148434
0.11633
0.105948
0.122643
0.120994
0.120126
0.139093
0.133267
0.114235
0.11818
0.120402
0.0981382
0.104775
0.127931
0.110239
0.116825
0.114422
0.105876
0.122874
0.0978248
0.0934368
0.118837
0.113604
0.103046
0.119843
0.114052
0.0994922
0.11231
0.117949
0.0902659
0.0919013
0.111887
0.0973956
0.110634
0.111163
0.0941404
0.105767
0.0863583
0.087455
0.117833
0.10889
0.0930955
0.10487
0.0994284
0.0902082
0.110038
0.11708
0.0848139
0.0826078
0.0994741
0.0891156
0.106602
0.108157
0.0864668
0.0947874
0.0795819
0.0821138
0.115644
0.104621
0.0868096
0.0963063
0.0892539
0.0831273
0.105306
0.108912
0.0803043
0.0837525
0.0743323
0.0785506
0.119286
0.104517
0.0784802
0.084956
0.0814667
0.076813
0.107802
0.118473
0.0759302
0.0713514
0.0807359
0.0749998
0.102674
0.106585
0.0749693
0.077868
0.0694511
0.0747124
0.11749
0.101353
0.0723688
0.0766283
0.0742778
0.0723317
0.105201
0.116542
0.0727824
0.0667038
0.0736206
0.0703171
0.100554
0.104742
0.0709625
0.0715635
0.065498
0.071958
0.116123
0.0994499
0.0683073
0.0707937
0.0691869
0.0690268
0.103797
0.115631
0.0713353
0.0640133
0.0686704
0.0669021
0.098492
0.103088
0.0674524
0.0668321
0.062335
0.070638
0.114594
0.0976831
0.0646007
0.0651303
0.0640533
0.0654576
0.103146
0.116164
0.0706763
0.060777
0.06334
0.0644316
0.099709
0.109407
0.0672946
0.0592814
0.0654653
0.0631271
0.093344
0.0977371
0.0634964
0.0630407
0.0600956
0.0689437
0.108988
0.0940288
0.0633329
0.0636795
0.0626356
0.0636098
0.0986622
0.10924
0.0685091
0.0597443
0.0632488
0.0625672
0.0931768
0.0976549
0.0620406
0.0610983
0.0589079
0.0691916
0.109041
0.0941803
0.0614437
0.0603068
0.0592048
0.061098
0.099411
0.110908
0.0699223
0.0579309
0.0588696
0.0605321
0.093939
0.0990495
0.0598283
0.0567569
0.0567834
0.0706282
0.111368
0.0956157
0.057257
0.0567441
0.055012
0.0654464
0.106121
0.0919211
0.0578317
0.056887
0.0539756
0.0575677
0.0974394
0.108392
0.0684371
0.0545593
0.054961
0.0571911
0.0924446
0.0976525
0.0567579
0.0523811
0.053925
0.069738
0.109515
0.0935848
0.0541686
0.0525568
0.0518778
0.0635674
0.104396
0.0893026
0.0547777
0.0529158
0.0513342
0.0547012
0.0935469
0.104192
0.0664975
0.0524487
0.0528012
0.0551018
0.0897686
0.095423
0.0551096
0.0505459
0.0525715
0.0686743
0.107607
0.0924669
0.0522065
0.0503823
0.0502526
0.062741
0.103719
0.0886722
0.0530879
0.0510101
0.0492891
0.0531849
0.0930492
0.103671
0.0658761
0.0507301
0.0502108
0.0529282
0.0890159
0.0950024
0.0530799
0.0478003
0.050586
0.0682121
0.108195
0.0923745
0.0497232
0.047408
0.0480256
0.061657
0.103612
0.0877218
0.0503265
0.0479773
0.0464892
0.0512938
0.092807
0.104183
0.0667936
0.0494288
0.0464558
0.0487599
0.0891985
0.10082
0.0605124
0.0469935
0.0469205
0.0491477
0.0856407
0.0918652
0.0499055
0.0448399
0.0483106
0.0669426
0.104266
0.0897938
0.0485846
0.045547
0.0463998
0.0604983
0.100487
0.0845477
0.0484627
0.0461623
0.0439419
0.0495318
0.0907759
0.103409
0.0667133
0.0474634
0.0446309
0.0474442
0.0884482
0.0997519
0.0599783
0.0456858
0.0453752
0.0477768
0.0847055
0.0904079
0.0492394
0.0441771
0.0479069
0.0660321
0.102271
0.0877004
0.0473566
0.044692
0.0455078
0.059547
0.0986856
0.0841801
0.047259
0.044889
0.0430316
0.0482839
0.0901849
0.103027
0.0661042
0.0469376
0.0436968
0.0460543
0.0884728
0.100356
0.0617676
0.0459469
0.0433055
0.0446037
0.0853768
0.0956145
0.0582321
0.0445536
0.0443049
0.0464914
0.0822011
0.0879601
0.0478892
0.0422962
0.0460798
0.065019
0.099806
0.0856652
0.0458055
0.0428411
0.0441951
0.0587785
0.0968108
0.0827001
0.0459827
0.0435186
0.0419759
0.0475938
0.0889017
0.101551
0.0654816
0.0461379
0.0426784
0.0453055
0.0877227
0.0996765
0.0609438
0.0451735
0.0422932
0.0437267
0.0853813
0.0945896
0.0572518
0.0434659
0.0427845
0.0450968
0.0804668
0.0863449
0.0463915
0.0410748
0.0453214
0.0642879
0.0982562
0.0849108
0.0447332
0.0418608
0.0443101
0.0592955
0.0966179
0.0828026
0.0426237
0.0415751
0.0430932
0.0569992
0.0924491
0.0799755
0.0447685
0.0424887
0.0410032
0.0467811
0.0862854
0.0979545
0.0643316
0.0452199
0.0416994
0.0445097
0.0844855
0.0958914
0.059235
0.0441355
0.0411657
0.0423631
0.0819933
0.091443
0.0564427
0.0426375
0.0418217
0.0441045
0.0784527
0.0842156
0.0457626
0.0403066
0.0446142
0.0633189
0.0958959
0.0831934
0.0441624
0.0411936
0.0438303
0.0587777
0.0946326
0.0818838
0.0423886
0.0409601
0.042595
0.0566025
0.0910475
0.0781713
0.043937
0.0415328
0.040164
0.0456945
0.0839968
0.0958162
0.0630297
0.0446625
0.0409797
0.0437953
0.0835805
0.0952195
0.0583081
0.0436093
0.0404117
0.0413502
0.0815814
0.0911369
0.0563493
0.0422606
0.0409462
0.0434423
0.0780504
0.0838619
0.0451964
0.0395911
0.0443275
0.0631926
0.0956145
0.0830232
0.043761
0.0406207
0.0432998
0.0584046
0.0942722
0.0801986
0.0409882
0.0399107
0.0423954
0.0561125
0.090115
0.0780236
0.0408244
0.0394974
0.0415214
0.0552926
0.0873586
0.0754434
0.0425075
0.0401413
0.0390074
0.0446368
0.081248
0.093019
0.0622696
0.0436098
0.0400546
0.0429574
0.0816086
0.0933251
0.0578131
0.0429243
0.0395647
0.0410696
0.0806802
0.0903227
0.055999
0.0421162
0.0391017
0.040487
0.0775191
0.0865324
0.0550892
0.0411501
0.0395707
0.0421362
0.0746561
0.0802626
0.0437757
0.0383522
0.0430983
0.0611082
0.0916865
0.0800032
0.0424654
0.0394104
0.0422586
0.0568888
0.0914644
0.0786037
0.040099
0.0389344
0.0415451
0.0549738
0.0881454
0.0762976
0.0399917
0.0385993
0.0408105
0.0546777
0.0852695
0.0741104
0.0418982
0.0392055
0.0381506
0.0437294
0.0795288
0.0905862
0.0608385
0.0430364
0.0390635
0.0423362
0.0792961
0.0906858
0.056437
0.0420192
0.0385164
0.0395864
0.0780192
0.0878466
0.054855
0.0412595
0.0381851
0.0397498
0.0760625
0.0850738
0.0542913
0.0404324
0.0385412
0.0412504
0.0733917
0.0790197
0.043317
0.0375839
0.0426653
0.0605073
0.0904899
0.0793092
0.0415061
0.0386505
0.0418157
0.0561744
0.0901705
0.0773129
0.0393767
0.0381196
0.040957
0.0544227
0.0867252
0.0752549
0.0391435
0.0377086
0.0404388
0.0535364
0.0847697
0.073824
0.0391824
0.0374612
0.0398005
0.0531672
0.0824536
0.0718683
0.0408336
0.0378593
0.0370432
0.0428089
0.0774169
0.0887071
0.0597491
0.0423443
0.0379882
0.0414282
0.0776649
0.0890034
0.0555334
0.0414147
0.0375859
0.0387961
0.0766114
0.0860606
0.0539147
0.0405758
0.0371939
0.0387287
0.0744249
0.0835078
0.0530667
0.0399233
0.0369409
0.038723
0.0728592
0.0813734
0.0525197
0.0392058
0.0372935
0.0401733
0.0705232
0.0757793
0.0418776
0.0364098
0.0416019
0.0584156
0.0864685
0.0751956
0.0405086
0.0374345
0.0408847
0.0546917
0.0860098
0.0741042
0.0385034
0.0371154
0.0400716
0.0528675
0.0835363
0.0726568
0.0382532
0.0367774
0.0396328
0.052412
0.0816261
0.0713167
0.0385291
0.0366777
0.0389738
0.0517211
0.0796107
0.0695111
0.0398231
0.0369385
0.0361898
0.0417853
0.0746983
0.0853004
0.0579443
0.041423
0.0369771
0.0403878
0.075075
0.0857932
0.0540097
0.0404666
0.0365454
0.0378781
0.0742923
0.0835591
0.0523023
0.0397741
0.0361748
0.0375739
0.0725205
0.0812562
0.0517315
0.0391385
0.0359793
0.037724
0.0708031
0.0787875
0.0513357
0.0384869
0.0363439
0.0392401
0.0683682
0.0736257
0.04116
0.0356115
0.0408562
0.0572068
0.0840143
0.0735797
0.0397642
0.0364347
0.0400339
0.0532931
0.0839743
0.0724821
0.037374
0.0359988
0.0391739
0.0513806
0.0814426
0.0708351
0.0370979
0.0356796
0.0387273
0.0508539
0.0793799
0.0694664
0.0373148
0.0354996
0.0380906
0.0505803
0.0774732
0.0675346
0.0387647
0.0357597
0.0351464
0.0408851
0.0729739
0.0835501
0.0568333
0.0406745
0.0359085
0.0394164
0.0731576
0.0836253
0.0530621
0.0397882
0.0353485
0.0369206
0.0720289
0.080888
0.0510003
0.0388221
0.0349796
0.0365567
0.0704734
0.0790374
0.0504414
0.0382689
0.0348516
0.0366064
0.0690292
0.0773102
0.0499588
0.0379953
0.0347831
0.0367133
0.0675847
0.0753579
0.0495703
0.0373119
0.0350179
0.0379486
0.0654303
0.0707109
0.0398135
0.0343921
0.0396732
0.0553863
0.0806583
0.0705364
0.0383829
0.035248
0.0388791
0.0514958
0.0801511
0.0692867
0.03633
0.0347698
0.0380618
0.0498337
0.0775629
0.0675202
0.0361214
0.0345498
0.0376714
0.0492784
0.0754999
0.0661706
0.0364543
0.0344814
0.0371036
0.0487132
0.0736939
0.0644072
0.0374753
0.0345869
0.0340443
0.0394461
0.0697771
0.0796125
0.0547388
0.0394767
0.0348755
0.0382014
0.0696744
0.0793301
0.0511609
0.0387161
0.0343277
0.0361153
0.0689377
0.0771919
0.0494138
0.0377936
0.0339423
0.0356273
0.0673046
0.0750857
0.0487305
0.0372604
0.0337063
0.0356906
0.0656545
0.0732288
0.0481853
0.0365107
0.0337905
0.0367657
0.0636054
0.0690571
0.0387219
0.0332571
0.0388606
0.0543121
0.0786154
0.0686143
0.0376011
0.0341745
0.0380082
0.0503475
0.0777908
0.0673544
0.0355154
0.0336484
0.0371492
0.0486692
0.0752036
0.0655134
0.0351289
0.0333032
0.0365864
0.0478147
0.0732989
0.0641625
0.0351432
0.0331552
0.0359938
0.0474281
0.0717735
0.0625244
0.0362355
0.0332216
0.0327162
0.0382797
0.0678108
0.0771845
0.0533986
0.0383355
0.0336393
0.0371174
0.0674913
0.0766709
0.0497583
0.0376192
0.0331294
0.0351071
0.0664694
0.0745169
0.0482634
0.0368037
0.0328186
0.034834
0.0649301
0.0728296
0.0475799
0.0363371
0.0326064
0.0347722
0.0635586
0.0712858
0.0470818
0.0356096
0.0326642
0.0357326
0.0620747
0.0672959
0.0376539
0.032148
0.037815
0.0527416
0.0761819
0.0666007
0.0366981
0.0331493
0.0370558
0.0490354
0.0750963
0.0649039
0.0346431
0.0326405
0.0361739
0.0472529
0.0727409
0.0630125
0.034198
0.0322632
0.0354807
0.0467368
0.07088
0.0621504
0.0355737
0.0322391
0.0318637
0.0376918
0.0676906
0.0767427
0.0530252
0.0380671
0.0329377
0.0367943
0.0669885
0.0757723
0.0491865
0.0371079
0.0322959
0.0344295
0.0654764
0.0734533
0.0474022
0.0361265
0.0318558
0.033982
0.0634129
0.0712102
0.0468142
0.0352868
0.0316993
0.0351441
0.0617638
0.0670855
0.0370781
0.0312213
0.0373883
0.0525851
0.0757433
0.0659803
0.0359312
0.032287
0.0363693
0.0482207
0.0745192
0.0638057
0.0335733
0.0316273
0.0355296
0.046765
0.0720436
0.0628104
0.0336881
0.03139
0.0350225
0.0464824
0.0707067
0.0615173
0.0349002
0.0313088
0.0310093
0.0371727
0.0671105
0.0757762
0.0524794
0.0375818
0.032016
0.0361812
0.0656989
0.0746776
0.0485412
0.0364514
0.0314127
0.0336679
0.0641599
0.0720489
0.0465484
0.0353584
0.0309251
0.0331787
0.062266
0.070216
0.0459754
0.0344996
0.030727
0.0343183
0.0609819
0.0662292
0.0361518
0.0302609
0.036592
0.051131
0.0742834
0.064254
0.0350877
0.0313245
0.0358081
0.0478125
0.0733668
0.0633137
0.0334113
0.0310344
0.0350511
0.0461693
0.0713681
0.061948
0.0330266
0.0307892
0.0345202
0.0458866
0.0698935
0.0609146
0.0344177
0.0306789
0.0303782
0.0365703
0.0663529
0.0746744
0.0517713
0.0370663
0.0315018
0.0356096
0.0645083
0.0730362
0.0477432
0.0359256
0.0308383
0.0333745
0.0626918
0.0705971
0.0460248
0.0346123
0.0303233
0.0339434
0.0609659
0.0659304
0.0354752
0.0298793
0.0366822
0.0515075
0.0744172
0.0641018
0.035236
0.0310317
0.0357421
0.0477098
0.0729094
0.0629272
0.033221
0.0306613
0.034791
0.0460091
0.0709932
0.0614386
0.032683
0.030357
0.0341615
0.0455526
0.0693229
0.0602308
0.0339519
0.0301521
0.0299036
0.036083
0.0654907
0.0737003
0.0515194
0.0367083
0.0310769
0.0353437
0.0636116
0.0720189
0.0473384
0.0355931
0.0304947
0.0330495
0.0619567
0.0697591
0.0456872
0.034309
0.0299494
0.0335818
0.0597003
0.0648479
0.0354661
0.0296224
0.0365683
0.0512102
0.0738161
0.0641306
0.0350996
0.0309376
0.0356475
0.0475929
0.0726391
0.0625575
0.0332842
0.030493
0.0344947
0.0460557
0.0703705
0.0609044
0.033895
0.0300695
0.0298587
0.0360173
0.0660894
0.0742445
0.0518133
0.0368674
0.0309694
0.0355013
0.0637699
0.0720542
0.0477778
0.0354941
0.0302171
0.0341154
0.0617444
0.0668237
0.035834
0.0298123
0.0367728
0.0514945
0.0748954
0.063546
0.0346876
0.0307062
0.0357085
0.0476903
0.0724021
0.0626339
0.0332912
0.0302068
0.0345922
0.0463496
0.0707646
0.0613229
0.0339084
0.0297869
0.0296242
0.0361723
0.0666529
0.0749406
0.0519118
0.0369632
0.030719
0.0353428
0.0644248
0.0727095
0.0477109
0.0354174
0.0297697
0.0337909
0.0621876
0.0672776
0.035495
0.0294316
0.0367481
0.0517688
0.0755044
0.0643831
0.0348215
0.0304144
0.0351239
0.0473767
0.0724425
0.0613577
0.0335844
0.0293719
0.029164
0.0356908
0.0669349
0.0761984
0.0524436
0.037055
0.0305288
0.0350982
0.0652089
0.0736304
0.048248
0.0355768
0.0294951
0.0338111
0.0627361
0.0679494
0.0356809
0.0292363
0.0369489
0.0522398
0.0762588
0.0649826
0.0349359
0.0302591
0.0353164
0.0478029
0.0732576
0.0623673
0.0335817
0.0292421
0.0289204
0.0353566
0.0674935
0.0757426
0.0518347
0.0365458
0.0298045
0.0337542
0.0629058
0.0716448
0.0472456
0.0349175
0.0287842
0.0333184
0.0617045
0.0673132
0.0351939
0.0286825
0.0365838
0.0520664
0.0760034
0.0648889
0.034607
0.0299023
0.0349835
0.0475978
0.0730546
0.0622892
0.0332916
0.0289179
0.0286734
0.0351571
0.067303
0.0755049
0.0518306
0.0364531
0.0296799
0.0344537
0.0640416
0.0719494
0.0470499
0.0345709
0.028376
0.0326773
0.0603399
0.0643101
0.0334198
0.0278732
0.0352308
0.0505121
0.0730063
0.0629199
0.0342763
0.0288004
0.0286699
0.0357765
0.068436
0.0771192
0.0527946
0.0369584
0.0298928
0.0347056
0.0654951
0.0733971
0.0477095
0.0350421
0.0285351
0.0329102
0.0621924
0.0667844
0.0346221
0.0282581
0.0357081
0.0512903
0.0745711
0.0631449
0.0346029
0.0288482
0.0282365
0.0346301
0.0672777
0.0753407
0.051487
0.0358193
0.0285735
0.0343134
0.0637824
0.0693827
0.0353495
0.0283432
0.0369555
0.0530777
0.0783431
0.0660316
0.0344694
0.0296011
0.0349689
0.0478538
0.0738023
0.062115
0.0327389
0.0282087
0.0279339
0.0343222
0.0664693
0.0738874
0.0509159
0.0353216
0.0283386
0.0340847
0.0621046
0.0657849
0.0338051
0.0276884
0.0350325
0.0502051
0.0736012
0.0623108
0.0335165
0.0279491
0.0277835
0.0346949
0.0676755
0.0763863
0.0519435
0.0358319
0.0284816
0.0345001
0.0642254
0.0687324
0.0351508
0.0281526
0.0359488
0.0518585
0.0764026
0.0637591
0.0341769
0.0283214
0.027782
0.0345582
0.0677426
0.0747204
0.0505325
0.0351548
0.0275272
0.0330152
0.0617609
0.0661022
0.03596
0.0276609
0.0278524
0.037876
0.0723624
0.0813718
0.0546669
0.0373055
0.0285423
0.0351923
0.0673098
0.0716414
0.0353213
0.0280355
0.0359229
0.0524127
0.0789794
0.0643801
0.033452
0.027511
0.0268652
0.0343291
0.0664616
0.0707936
0.0359345
0.0266552
0.0361531
0.053819
0.0802757
0.0668991
0.0341191
0.0274232
0.0276128
0.0367094
0.0710776
0.0763091
0.0382073
0.0276818
0.0371237
0.0551142
0.0834481
0.0657386
0.0339739
0.0274014
0.0267084
0.0349002
0.0683218
0.0731202
0.0363426
0.0264266
0.0358962
0.0539278
0.0830173
0.0680823
0.0338433
0.0267734
0.0262449
0.0333251
0.071587
0.0767055
0.0394623
0.0269198
0.0259843
0.0352561
0.0771393
0.0850711
0.0559415
0.0363608
0.0264769
0.0338876
0.0696574
0.0748802
0.034632
0.0262459
0.0263662
0.0384401
0.0793747
0.0819771
0.0360821
0.0254677
0.0259872
0.0406054
0.0852138
0.0893191
0.0400718
0.0252647
0.036506
0.0589075
0.0977856
0.0727504
0.033926
0.0257291
0.0252437
0.0337944
0.0751888
0.0801287
0.0377808
0.0253055
0.025255
0.0382724
0.085952
0.0915089
0.0397522
0.0255208
0.0260405
0.0424682
0.0961463
0.101078
0.0448056
0.0266143
0.0271944
0.04703
0.104919
0.106905
0.0493934
0.0277648
0.0282807
0.0514177
0.108058
0.108739
0.0536624
0.0288852
0.0294682
0.0558723
0.109114
0.109264
0.0584078
0.0302587
0.0309574
0.0608821
0.10932
0.109323
0.0633214
0.031953
0.0328019
0.0657185
0.109298
0.109271
0.068082
0.0339643
0.0349608
0.0703949
0.109236
0.109214
0.0726429
0.0362628
0.0375071
0.0746931
0.109196
0.109201
0.0766685
0.0390257
0.0404209
0.0784733
0.109217
0.109255
0.0802374
0.0420388
0.0434305
0.0819193
0.109306
0.10938
0.083555
0.0450409
0.0464298
0.0851061
0.109465
0.109569
0.0866102
0.0480371
0.0494333
0.0880237
0.10968
0.109806
0.0893812
0.0510457
0.0524449
0.0906376
0.109932
0.110068
0.091833
0.0540422
0.0554293
0.0929239
0.110198
0.110333
0.0939569
0.0570144
0.0583895
0.0948875
0.110458
0.110584
0.0957622
0.0599629
0.061294
0.0965516
0.110698
0.110813
0.0972964
0.0627962
0.0640572
0.0979602
0.110913
0.11101
0.0985836
0.0654741
0.0666502
0.0991289
0.11109
0.111166
0.0996384
0.0679685
0.0690431
0.100077
0.111226
0.11128
0.100475
0.0702476
0.0712083
0.100829
0.11132
0.111357
0.101152
0.0722969
0.0731461
0.101409
0.111378
0.111395
0.101668
0.0741201
0.074864
0.101851
0.111401
0.111402
0.102046
0.0757277
0.07637
0.102171
0.111394
0.11138
0.102307
0.0771266
0.077672
0.10238
0.111361
0.111335
0.102465
0.0783275
0.0787861
0.102498
0.111307
0.11127
0.102542
0.079348
0.0797287
0.102543
0.111236
0.111192
0.102553
0.0802077
0.0805233
0.10253
0.111154
0.111102
0.102511
0.0809236
0.0811826
0.102468
0.11106
0.111004
0.102425
0.081511
0.0817232
0.102368
0.110959
0.1109
0.102305
0.081985
0.0821587
0.102235
0.110852
0.110792
0.10216
0.082365
0.0825074
0.102084
0.110745
0.110686
0.102
0.0826616
0.0827793
0.101916
0.110638
0.11058
0.101829
0.0828989
0.082989
0.10174
0.110532
0.110476
0.10165
0.0830869
0.0831492
0.101557
0.110428
0.110373
0.10147
0.0832252
0.0832562
0.101377
0.110328
0.110274
0.101289
0.0833142
0.0833219
0.101196
0.11023
0.110179
0.101108
0.0833673
0.0833593
0.101017
0.110138
0.110088
0.100929
0.0833942
0.0833751
0.10084
0.110048
0.11
0.100752
0.083403
0.0833785
0.100667
0.109963
0.109916
0.10058
0.0833985
0.0833716
0.1005
0.10988
0.109836
0.100414
0.0833864
0.0833631
0.10034
0.109804
0.109761
0.100256
0.0833724
0.0833506
0.100187
0.109729
0.10969
0.100108
0.0833597
0.0833406
0.100045
0.109662
0.109624
0.0999702
0.0833491
0.0833324
0.0999131
0.109597
0.109561
0.0998429
0.0833417
0.0833299
0.0997919
0.109538
0.109505
0.099728
0.083341
0.0833329
0.0996827
0.109484
0.109453
0.0996241
0.0833458
0.0833428
0.0995844
0.109434
0.109405
0.0995316
0.0833581
0.0833595
0.0994974
0.109389
0.109362
0.0994496
0.0833772
0.0833835
0.0994207
0.109348
0.109323
0.0993782
0.0834038
0.0834144
0.0993541
0.109311
0.109289
0.099316
0.0834369
0.0834521
0.0992963
0.109277
0.109258
0.0992627
0.0834773
0.0834951
0.0992462
0.109246
0.109229
0.0992161
0.0835216
0.083544
0.0992027
0.109218
0.109203
0.0991764
0.0835715
0.0835969
0.0991648
0.109192
0.10918
0.0991423
0.0836249
0.0836533
0.0991318
0.109168
0.109158
0.0991132
0.0836818
0.083712
0.0991035
0.109147
0.109136
0.0990881
0.0837406
0.0837729
0.0990792
0.109128
0.109117
0.0990668
0.0838015
0.0838349
0.0990584
0.10911
0.109099
0.0990492
0.0838632
0.0838979
0.0990417
0.109093
0.109083
0.0990344
0.083926
0.0839612
0.0990276
0.109078
0.109068
0.0990203
0.0839886
0.0840246
0.0990156
0.109064
0.109054
0.0990087
0.0840515
0.0840873
0.0990057
0.109051
0.109041
0.0989988
0.0841134
0.0841495
0.0989975
0.109039
0.10903
0.0989907
0.0841748
0.0842101
0.0989903
0.109027
0.109018
0.0989834
0.0842344
0.0842693
0.0989842
0.109017
0.109008
0.0989773
0.0842927
0.0843268
0.0989787
0.109006
0.108997
0.0989714
0.084349
0.0843817
0.0989732
0.108996
0.108988
0.0989657
0.0844027
0.0844341
0.098968
0.108987
0.108978
0.0989601
0.0844539
0.0844839
0.0989628
0.108977
0.108968