/*--------------------------------*- C++ -*----------------------------------*\
| =========                 |                                                 |
| \\      /  F ield         | OpenFOAM: The Open Source CFD Toolbox           |
|  \\    /   O peration     | Version:  v2006                                 |
|   \\  /    A nd           | Website:  www.openfoam.com                      |
|    \\/     M anipulation  |                                                 |
\*---------------------------------------------------------------------------*/
FoamFile
{
    version     2.0;
    format      ascii;
    class       volScalarField;
    location    "0.11";
    object      alphat;
}
// * * * * * * * * * * * * * * * * * * * * * * * * * * * * * * * * * * * * * //

dimensions      [1 -1 -1 0 0 0 0];


internalField   nonuniform List<scalar> 
16277
(
38.6258
26.6135
91.2873
19.1319
28.0966
15.6518
6.39134
2.62032
1.4142
0.954493
0.750556
0.647138
0.585222
0.540237
0.502409
0.468424
0.437527
0.409743
0.385099
0.363421
0.344376
0.327565
0.312608
0.299181
0.287028
0.275951
0.265801
0.256463
0.247844
0.239869
0.232475
0.225607
0.219219
0.213272
0.20773
0.202564
0.197748
0.19326
0.189078
0.185185
0.181564
0.178203
0.175088
0.172208
0.169554
0.167118
0.164892
0.162871
0.161051
0.159427
0.157998
0.156761
0.155718
0.154869
0.154214
0.153758
0.153507
0.153467
0.153646
0.154047
0.154684
0.15557
0.15672
0.158154
0.159892
0.161961
0.164391
0.16722
0.170495
0.174276
0.178644
0.183706
0.189598
0.196478
0.204505
0.213787
0.224329
0.236053
0.249064
0.264501
0.286361
0.325984
0.412498
0.62176
1.15805
2.4347
4.29881
4.59719
2.72413
1.79942
0.885996
0.403983
0.21966
0.103639
0.0245576
0.00441851
0.0001464
0.000127054
0.00207673
0.00956441
0.00527017
0.00134567
0.00011128
9.96368e-05
0.00122688
0.00443177
0.00353617
0.00105454
9.20688e-05
8.61341e-05
0.00102197
0.00335343
0.00290156
0.000920531
8.10799e-05
7.76728e-05
0.000904695
0.00282631
0.00257242
0.000843073
7.43143e-05
7.24985e-05
0.000848153
0.00254624
0.00238182
0.000803042
7.02801e-05
6.90876e-05
0.00081025
0.00236723
0.00224242
0.000773926
6.74509e-05
6.66266e-05
0.000781079
0.00223589
0.00213273
0.00075027
6.5348e-05
6.47501e-05
0.000757219
0.0021307
0.00204133
0.000730108
6.37118e-05
6.32625e-05
0.000737033
0.00204219
0.00196266
0.000712411
6.23847e-05
6.20307e-05
0.000719366
0.00196542
0.00189328
0.000696438
6.12596e-05
6.09712e-05
0.000703312
0.0018973
0.00183097
0.000681711
6.02782e-05
6.0036e-05
0.000688501
0.00183591
0.0017744
0.000668009
5.93999e-05
5.91901e-05
0.000674729
0.00178
0.00172256
0.000655202
5.85971e-05
5.84111e-05
0.000661862
0.00172874
0.00167471
0.000643181
5.7852e-05
5.76842e-05
0.000649777
0.00168141
0.00163039
0.000631843
5.71521e-05
5.69984e-05
0.000638373
0.00163754
0.00158921
0.000621111
5.64884e-05
5.63459e-05
0.000627576
0.00159675
0.00155086
0.000610928
5.58543e-05
5.57207e-05
0.000617343
0.00155876
0.0015151
0.000601271
5.52448e-05
5.51188e-05
0.000607639
0.00152327
0.00148162
0.000592099
5.46565e-05
5.45372e-05
0.000598415
0.00149002
0.00145016
0.000583357
5.40865e-05
5.3973e-05
0.000589619
0.00145871
0.00142047
0.000575
5.35318e-05
5.34232e-05
0.000581201
0.00142913
0.00139234
0.000566977
5.299e-05
5.28854e-05
0.000573114
0.00140106
0.00136557
0.000559245
5.24582e-05
5.23569e-05
0.00056531
0.00137432
0.00134001
0.000551758
5.19343e-05
5.18354e-05
0.000557745
0.00134875
0.00131551
0.000544475
5.14157e-05
5.13186e-05
0.00055038
0.00132422
0.00129195
0.000537361
5.09005e-05
5.08044e-05
0.000543181
0.0013006
0.00126922
0.000530388
5.03864e-05
5.02908e-05
0.00053612
0.0012778
0.00124722
0.000523529
4.98716e-05
4.97758e-05
0.000529171
0.00125571
0.00122588
0.000516762
4.93543e-05
4.92577e-05
0.000522313
0.00123428
0.00120514
0.000510072
4.88327e-05
4.87349e-05
0.000515533
0.00121344
0.00118495
0.000503447
4.83053e-05
4.82061e-05
0.000508822
0.00119316
0.00116529
0.00049688
4.77708e-05
4.76699e-05
0.000502189
0.0011734
0.00114612
0.000490377
4.7228e-05
4.71256e-05
0.000495675
0.00115417
0.00112746
0.000483958
4.66765e-05
4.65726e-05
0.000489229
0.00113545
0.0011093
0.000477601
4.61156e-05
4.60102e-05
0.000482866
0.00111724
0.00109163
0.000471327
4.55448e-05
4.5438e-05
0.000476608
0.00109955
0.0010745
0.000465163
4.49641e-05
4.48564e-05
0.000470488
0.00108244
0.00105795
0.000459148
4.43739e-05
4.42661e-05
0.000464548
0.00106597
0.00104208
0.000453327
4.37756e-05
4.36685e-05
0.000458848
0.00105037
0.00102705
0.000447773
4.31709e-05
4.3066e-05
0.000453468
0.0010358
0.001013
0.00044257
4.25631e-05
4.24624e-05
0.000448493
0.00102226
0.00100004
0.00043781
4.19564e-05
4.18623e-05
0.000444028
0.00100999
0.000988431
0.000433608
4.13561e-05
4.12718e-05
0.000440203
0.000999273
0.000978478
0.000430106
4.07689e-05
4.06994e-05
0.000437165
0.000990419
0.000970513
0.000427483
4.02032e-05
4.01565e-05
0.000434985
0.00098377
0.000964922
0.000425862
3.96765e-05
3.96457e-05
0.00043349
0.000979576
0.000961824
0.000424851
3.92096e-05
3.91834e-05
0.000432715
0.000978326
0.000961697
0.000424684
3.88013e-05
3.87789e-05
0.000432783
0.000980041
0.000964499
0.000425426
3.84854e-05
3.84468e-05
0.000433665
0.000984532
0.00097012
0.000427055
3.82587e-05
3.82079e-05
0.000435242
0.000991418
0.000978028
0.000429158
3.80408e-05
3.80637e-05
0.000437209
0.00100051
0.000988102
0.000431378
3.78989e-05
3.79845e-05
0.000439145
0.00101146
0.000999856
0.000433631
3.78383e-05
3.79999e-05
0.000440764
0.00102299
0.00101182
0.000435576
3.78786e-05
3.80929e-05
0.000442092
0.00103403
0.00102307
0.000436977
3.79964e-05
3.82517e-05
0.000443358
0.00104408
0.00103333
0.000438087
3.81807e-05
3.84722e-05
0.000444358
0.00105291
0.00104241
0.000439104
3.84257e-05
3.87462e-05
0.00044526
0.00106044
0.00105013
0.000439651
3.87201e-05
3.90579e-05
0.000445921
0.00106681
0.00105628
0.000439994
3.90509e-05
3.93971e-05
0.000446356
0.00107174
0.00106056
0.000440156
3.94063e-05
3.97517e-05
0.000446563
0.00107589
0.00106352
0.000440196
3.97743e-05
4.01105e-05
0.000446628
0.00107839
0.00106481
0.000439896
4.01436e-05
4.04637e-05
0.000446557
0.00107914
0.00106359
0.000439138
4.05043e-05
4.08017e-05
0.000445831
0.00107773
0.00106103
0.000438154
4.08447e-05
4.11127e-05
0.000444862
0.00107488
0.00105742
0.00043706
4.11549e-05
4.13902e-05
0.000443755
0.00107083
0.00105281
0.000435933
4.1429e-05
4.163e-05
0.000442548
0.00106564
0.00104729
0.000434812
4.16637e-05
4.18304e-05
0.000441305
0.00105948
0.00104106
0.000433726
4.18578e-05
4.19923e-05
0.000440058
0.00105257
0.00103422
0.000432677
4.20127e-05
4.21178e-05
0.000438807
0.00104501
0.00102691
0.000431644
4.21312e-05
4.22053e-05
0.000437545
0.00103702
0.00101915
0.000430601
4.22156e-05
4.22655e-05
0.00043626
0.00102882
0.00101122
0.000429529
4.22731e-05
4.23029e-05
0.000434943
0.0010205
0.00100323
0.000428421
4.23074e-05
4.2325e-05
0.000433611
0.00101226
0.000995181
0.000427206
4.23199e-05
4.23305e-05
0.000432237
0.00100404
0.000987093
0.000425849
4.23073e-05
4.2316e-05
0.00043082
0.000995799
0.000979018
0.000424473
4.22817e-05
4.22882e-05
0.000429389
0.000987578
0.000970966
0.000423074
4.22451e-05
4.22498e-05
0.000427925
0.000979385
0.000962935
0.000421626
4.21993e-05
4.22024e-05
0.000426403
0.000971212
0.000954847
0.000420112
4.21457e-05
4.21472e-05
0.000424812
0.000963029
0.000946707
0.000418524
4.20848e-05
4.2085e-05
0.000423146
0.00095484
0.000938603
0.000416866
4.20179e-05
4.20163e-05
0.000421439
0.000946687
0.000930562
0.000415156
4.19462e-05
4.19429e-05
0.00041969
0.000938598
0.000922595
0.000413394
4.18506e-05
4.1882e-05
0.000417956
0.000930654
0.000914062
0.000411596
4.1751e-05
4.17983e-05
0.000415752
0.000923092
0.000906854
0.00040862
4.15937e-05
4.18481e-05
0.000415969
0.000920569
0.00090936
0.000415408
4.17396e-05
4.24237e-05
0.000416161
0.000919458
0.000963073
0.000437631
4.27396e-05
4.55354e-05
0.000410394
0.000936259
0.00142979
0.000596488
5.13573e-05
5.54199e-05
0.000309287
0.000710003
0.00175155
0.00401389
0.00750364
0.0106978
0.0128834
0.0169342
0.0195204
0.021841
0.0231474
0.0237722
0.0235964
0.0225464
0.0210517
0.0186543
0.0163039
0.0127404
0.0111319
0.00809978
0.0060599
0.00411587
0.00233951
0.0010739
0.000391591
0.000162758
3.13951e-05
2.04803e-05
0.000150892
0.000354764
0.000334982
0.000143253
1.97119e-05
1.89404e-05
0.000138156
0.000317788
0.000318999
0.000136202
1.87371e-05
1.8612e-05
0.000135434
0.000313832
0.000314057
0.000134071
1.84208e-05
1.84049e-05
0.000134004
0.00031365
0.000314568
0.000134083
1.8434e-05
1.84349e-05
0.000134277
0.000315272
0.000315758
0.000134513
1.84654e-05
1.848e-05
0.000134715
0.000316696
0.00031714
0.000134933
1.84964e-05
1.85268e-05
0.000135173
0.000318161
0.000318707
0.000135406
1.85167e-05
1.85491e-05
0.000135699
0.000319731
0.000320287
0.000135888
1.85639e-05
1.85979e-05
0.000136202
0.000321377
0.000321919
0.000136359
1.86005e-05
1.8609e-05
0.000136803
0.000323058
0.000323581
0.000136901
1.86498e-05
1.8658e-05
0.000137307
0.000324724
0.000325253
0.000137463
1.86747e-05
1.8681e-05
0.000137864
0.000326439
0.000326985
0.000137996
1.87244e-05
1.87317e-05
0.000138401
0.000328227
0.000328812
0.000138598
1.87502e-05
1.87578e-05
0.000139034
0.000330107
0.000330695
0.000139213
1.88029e-05
1.88112e-05
0.000139642
0.000331977
0.000332579
0.000139847
1.88301e-05
1.88394e-05
0.000140291
0.000333918
0.000334533
0.000140479
1.88866e-05
1.88935e-05
0.00014091
0.000335839
0.000336448
0.000141133
1.89139e-05
1.89225e-05
0.000141573
0.000337788
0.000338418
0.000141822
1.89566e-05
1.8993e-05
0.000142183
0.000339806
0.000340463
0.000142432
1.89993e-05
1.90096e-05
0.000142956
0.000341901
0.000342562
0.000143224
1.90436e-05
1.90806e-05
0.000143628
0.000343995
0.000344669
0.000143877
1.90858e-05
1.90986e-05
0.000144436
0.000346151
0.000346832
0.00014471
1.91345e-05
1.91725e-05
0.000145119
0.000348281
0.000348964
0.000145366
1.91785e-05
1.91933e-05
0.000145941
0.00035045
0.00035113
0.000146201
1.92281e-05
1.92681e-05
0.000146639
0.00035256
0.000353219
0.000146865
1.92717e-05
1.92845e-05
0.000147438
0.000354661
0.000355317
0.000147684
1.93182e-05
1.93558e-05
0.000148091
0.000356739
0.000357386
0.000148324
1.93606e-05
1.93733e-05
0.000148906
0.000358841
0.000359467
0.000149136
1.94053e-05
1.9443e-05
0.000149544
0.000360866
0.000361445
0.000149733
1.94445e-05
1.94552e-05
0.000150276
0.000362799
0.000363298
0.00015043
1.94839e-05
1.95168e-05
0.000150729
0.000364478
0.000364957
0.000150798
1.9515e-05
1.95206e-05
0.000151195
0.000366029
0.000366352
0.000151132
1.95573e-05
1.95559e-05
0.00015138
0.000367264
0.000367562
0.000151284
1.95601e-05
1.95545e-05
0.000151456
0.000368402
0.000368596
0.000151285
1.95863e-05
1.95746e-05
0.000151298
0.000369174
0.000369243
0.000151031
1.95749e-05
1.95555e-05
0.000150879
0.000369489
0.000369335
0.000150422
1.95608e-05
1.95632e-05
0.000149916
0.000369302
0.000368719
0.000149219
1.95324e-05
1.94994e-05
0.000148574
0.000368554
0.000367692
0.000147706
1.94948e-05
1.9488e-05
0.000146796
0.000367424
0.000366286
0.00014571
1.94506e-05
1.94157e-05
0.00014481
0.000366009
0.000364566
0.000143481
1.94199e-05
1.93864e-05
0.000142338
0.000364119
0.000362556
0.000140854
1.93669e-05
1.93496e-05
0.000139655
0.000362326
0.000360208
0.000138007
1.93569e-05
1.93754e-05
0.000136502
0.000359776
0.000357869
0.000134866
1.93825e-05
1.94299e-05
0.000133527
0.000357957
0.000357024
0.000132096
1.94912e-05
1.95857e-05
0.000131106
0.000357789
0.000357035
0.000129842
1.96922e-05
1.985e-05
0.000129032
0.000358776
0.000360999
0.000127803
2.00479e-05
2.02315e-05
0.000126879
0.000364733
0.000370001
0.000128222
2.04297e-05
2.06329e-05
0.000128833
0.00037486
0.000377515
0.000128044
2.06847e-05
2.08351e-05
0.000125716
0.000383304
0.000389683
0.00013248
2.11322e-05
2.13409e-05
0.000128707
0.000395457
0.000400913
0.000132022
2.16968e-05
2.19592e-05
0.000133873
0.000411053
0.000413967
0.000136959
2.2332e-05
2.28513e-05
0.000144048
0.000427076
0.000429001
0.000147731
2.33576e-05
2.37943e-05
0.000153712
0.000439287
0.000442166
0.000159089
2.46779e-05
2.65629e-05
0.00018503
0.000462191
0.000460302
0.000195658
1.99705e-05
1.53496e-05
4.80201e-05
0.000129581
0.000359269
0.000110656
1.79347e-05
1.88788e-05
9.97332e-05
0.000329997
0.000347734
0.00010387
1.93416e-05
1.97456e-05
9.84554e-05
0.000333207
0.000359034
0.000105804
2.02586e-05
2.08424e-05
0.000104541
0.000354311
0.000390183
0.000119471
2.16047e-05
2.23104e-05
0.000118434
0.000382799
0.000418154
0.000137974
2.31882e-05
2.44626e-05
0.000141913
0.000420274
0.000469915
0.00017246
2.71322e-05
2.07823e-05
0.000192011
0.000482575
0.000130613
4.56122e-05
1.65357e-05
1.96717e-05
0.000122219
0.000404084
0.000394345
0.0001133
2.14779e-05
2.26423e-05
0.00014702
0.000487341
0.000497322
0.00014871
2.36176e-05
2.49383e-05
0.000173359
0.000552828
0.000569394
0.000185998
2.6753e-05
2.98328e-05
0.000220936
0.000622803
0.000603524
0.000237846
2.31225e-05
1.74293e-05
5.34935e-05
0.000158685
0.000492932
0.000145215
2.09011e-05
2.2642e-05
0.000135468
0.000483419
0.000555679
0.000167609
2.42379e-05
2.58897e-05
0.000167553
0.000547942
0.000622497
0.00021521
3.00319e-05
2.4067e-05
0.000251683
0.000628497
0.000171954
5.49726e-05
1.76838e-05
2.18498e-05
0.000153568
0.000560065
0.000576252
0.000162252
2.49347e-05
2.88069e-05
0.000228906
0.000743186
0.000778242
0.000270154
3.37651e-05
2.78455e-05
0.000316259
0.000789265
0.000221522
6.49647e-05
1.87361e-05
2.37744e-05
0.000205975
0.000697021
0.000690995
0.000200178
2.82622e-05
3.53835e-05
0.000299353
0.000878054
0.000896394
0.000352223
2.95774e-05
1.96304e-05
7.40858e-05
0.00027608
0.000900689
0.000265156
2.7795e-05
3.53585e-05
0.000280267
0.000968564
0.00134352
0.000472552
4.82148e-05
4.02298e-05
0.000503953
0.00129104
0.000455978
0.00011963
2.62511e-05
4.65589e-05
0.000486245
0.00140144
0.00139812
0.000519566
4.34789e-05
2.95393e-05
0.000132316
0.000545026
0.00194763
0.000646521
6.49276e-05
6.41075e-05
0.000747552
0.00211805
0.000964638
0.000266457
4.07609e-05
6.49228e-05
0.000867529
0.00252796
0.00167
0.000553878
4.32308e-05
8.02889e-05
0.000976816
0.00196951
0.0016893
0.000817165
6.60138e-05
6.67792e-05
0.000778175
0.00185139
0.00237173
0.000857631
7.64718e-05
0.000105518
0.00159899
0.00394823
0.000879063
0.000273257
5.99282e-05
6.13588e-05
0.000766009
0.00175549
0.000542591
0.000193911
4.27461e-05
4.67019e-05
0.000472619
0.00113741
0.000972495
0.000348387
4.59879e-05
2.54742e-05
8.99927e-05
0.000280695
0.000662291
0.000373549
3.1269e-05
2.92341e-05
0.000118303
0.000302374
0.000729101
0.000321039
3.33877e-05
3.55137e-05
0.000260094
0.000658254
0.000213251
7.99594e-05
2.34107e-05
2.78613e-05
0.000252212
0.000568202
0.000521249
0.000209933
3.10137e-05
2.17321e-05
6.79891e-05
0.000173457
0.00048155
0.000214582
2.52845e-05
2.8831e-05
0.000185283
0.000443255
0.00015307
6.34793e-05
2.10549e-05
2.38021e-05
0.00019066
0.000425625
0.000385219
0.000167126
2.77142e-05
2.06223e-05
5.8727e-05
0.000136462
0.000375342
0.000171344
2.25152e-05
2.67627e-05
0.000150425
0.000341622
0.000123203
5.53039e-05
2.033e-05
2.18654e-05
0.00015932
0.000338075
0.000304649
0.000139562
2.60144e-05
1.99218e-05
5.21628e-05
0.000113461
0.000307457
0.000147021
2.09986e-05
2.58468e-05
0.000131191
0.000281613
0.000110668
5.23436e-05
2.02407e-05
2.1021e-05
0.000149931
0.000300815
0.00025489
0.000120087
2.64579e-05
2.21651e-05
9.64352e-05
0.000209182
8.48539e-05
3.89294e-05
1.81098e-05
1.79797e-05
0.000103621
0.000208209
0.000195448
9.60254e-05
2.29566e-05
1.81667e-05
3.71391e-05
7.80464e-05
0.000187962
9.47287e-05
1.71339e-05
2.19244e-05
8.72439e-05
0.000175017
7.4795e-05
3.76886e-05
1.78773e-05
1.71485e-05
9.19737e-05
0.000170478
0.000162761
8.71408e-05
2.20738e-05
1.79138e-05
3.5026e-05
6.95924e-05
0.00015991
8.51766e-05
1.65677e-05
2.12171e-05
7.97717e-05
0.000149301
6.65788e-05
3.4452e-05
1.74656e-05
1.61876e-05
7.93269e-05
0.000145287
0.000140298
7.73419e-05
2.10279e-05
1.7556e-05
3.3967e-05
6.42162e-05
0.000139484
7.79794e-05
1.62814e-05
2.1363e-05
7.62308e-05
0.000133303
6.24417e-05
3.35519e-05
1.7346e-05
1.56903e-05
7.03824e-05
0.000127428
0.000123268
7.15746e-05
2.08468e-05
1.69986e-05
3.03945e-05
5.60122e-05
0.000108981
8.23417e-05
1.52602e-05
1.96763e-05
3.8634e-05
6.33138e-05
0.000142987
8.16304e-05
1.75248e-05
2.18795e-05
7.52424e-05
0.000133034
6.38657e-05
3.67408e-05
1.77302e-05
1.62247e-05
7.93698e-05
0.000132832
0.000126101
7.39665e-05
2.14704e-05
1.79224e-05
3.69562e-05
6.27022e-05
0.000131508
7.90086e-05
1.63207e-05
2.11655e-05
7.31794e-05
0.000124392
6.07978e-05
3.67166e-05
1.75815e-05
1.60805e-05
7.39571e-05
0.000118338
0.000111978
6.7334e-05
2.15256e-05
1.78798e-05
3.62913e-05
5.72612e-05
0.000110065
6.93262e-05
1.57092e-05
2.06038e-05
6.50465e-05
0.000104379
5.11707e-05
3.31617e-05
1.68458e-05
1.48493e-05
6.92338e-05
9.15794e-05
5.57783e-05
3.85058e-05
1.93002e-05
1.70834e-05
6.75213e-05
0.000108894
0.000100075
6.09733e-05
2.15929e-05
1.74713e-05
3.64399e-05
5.3087e-05
9.92741e-05
6.48769e-05
1.55512e-05
2.0589e-05
6.01293e-05
9.04262e-05
4.90737e-05
3.49133e-05
1.71671e-05
1.47812e-05
6.55206e-05
8.36984e-05
5.27988e-05
3.82985e-05
1.94216e-05
1.6909e-05
6.51929e-05
0.000100735
9.12214e-05
5.87787e-05
2.13687e-05
1.74585e-05
3.70434e-05
5.074e-05
9.41455e-05
6.27972e-05
1.55458e-05
2.05706e-05
5.72146e-05
8.571e-05
4.7191e-05
3.49792e-05
1.70586e-05
1.47211e-05
6.10812e-05
7.65145e-05
4.94516e-05
3.76497e-05
1.94117e-05
1.66908e-05
6.0696e-05
9.26543e-05
8.35816e-05
5.52209e-05
2.11798e-05
1.73387e-05
3.68501e-05
4.71225e-05
8.42184e-05
5.74374e-05
1.54545e-05
2.06166e-05
5.2587e-05
7.6487e-05
4.26994e-05
3.39248e-05
1.718e-05
1.43624e-05
5.46493e-05
6.75401e-05
4.45783e-05
3.54925e-05
1.89121e-05
1.59401e-05
5.49087e-05
8.27163e-05
7.38925e-05
5.06415e-05
2.03914e-05
1.68081e-05
3.50275e-05
4.30156e-05
6.64642e-05
5.56654e-05
1.42171e-05
1.90482e-05
3.74066e-05
4.50704e-05
8.12825e-05
5.3945e-05
1.61238e-05
2.10661e-05
4.96099e-05
7.29922e-05
4.23193e-05
3.55953e-05
1.7164e-05
1.44121e-05
5.3358e-05
6.52095e-05
4.47277e-05
3.75716e-05
1.902e-05
1.58987e-05
5.42577e-05
8.01083e-05
7.17752e-05
4.9973e-05
2.0806e-05
1.70249e-05
3.58016e-05
4.20874e-05
6.4694e-05
5.44862e-05
1.41033e-05
1.90956e-05
3.77596e-05
4.43126e-05
7.87507e-05
5.268e-05
1.61374e-05
2.11216e-05
4.92894e-05
7.07564e-05
4.25101e-05
3.7083e-05
1.73958e-05
1.46104e-05
5.48312e-05
6.37489e-05
4.43991e-05
3.90724e-05
1.92316e-05
1.61257e-05
5.26149e-05
7.77203e-05
6.89775e-05
4.82597e-05
2.09692e-05
1.74025e-05
3.61746e-05
4.08605e-05
6.15028e-05
5.35655e-05
1.42131e-05
1.88008e-05
3.92405e-05
4.39431e-05
6.70212e-05
5.0705e-05
1.50875e-05
1.95764e-05
3.9566e-05
4.63469e-05
7.90835e-05
5.30075e-05
1.64247e-05
2.09086e-05
4.91777e-05
7.0419e-05
4.26866e-05
3.7698e-05
1.70883e-05
1.42268e-05
5.4282e-05
6.31398e-05
4.44985e-05
4.01952e-05
1.92615e-05
1.61613e-05
5.20263e-05
7.61695e-05
6.79944e-05
4.84678e-05
2.11326e-05
1.74696e-05
3.7256e-05
4.11343e-05
6.06697e-05
5.30458e-05
1.43914e-05
1.91222e-05
4.00261e-05
4.40833e-05
6.58217e-05
5.02365e-05
1.54466e-05
1.95312e-05
4.05579e-05
4.62705e-05
7.76345e-05
5.25896e-05
1.61835e-05
2.09341e-05
4.91086e-05
6.92787e-05
4.29206e-05
3.91001e-05
1.72851e-05
1.4419e-05
5.43651e-05
6.15719e-05
4.58056e-05
4.25191e-05
1.93306e-05
1.55062e-05
5.28743e-05
6.75373e-05
4.7895e-05
4.34128e-05
1.98068e-05
1.65363e-05
5.2959e-05
7.92069e-05
7.06088e-05
4.98846e-05
2.1402e-05
1.73999e-05
3.99592e-05
4.36629e-05
6.27919e-05
5.58362e-05
1.43579e-05
1.92193e-05
4.27818e-05
4.65259e-05
6.77608e-05
5.32382e-05
1.5478e-05
1.98275e-05
4.35619e-05
4.8327e-05
7.92157e-05
5.36643e-05
1.65235e-05
2.1281e-05
5.0615e-05
7.08964e-05
4.46749e-05
4.1479e-05
1.75477e-05
1.47033e-05
5.64248e-05
6.36351e-05
4.77699e-05
4.45048e-05
1.96262e-05
1.58792e-05
5.48493e-05
6.90227e-05
4.95184e-05
4.52662e-05
1.98976e-05
1.64721e-05
5.41186e-05
8.04195e-05
7.1667e-05
5.10491e-05
2.10996e-05
1.73725e-05
4.12915e-05
4.48651e-05
6.20949e-05
5.62206e-05
1.47847e-05
1.96061e-05
4.39953e-05
4.67828e-05
6.69243e-05
5.34208e-05
1.57863e-05
2.00164e-05
4.50289e-05
4.84553e-05
7.75899e-05
5.30934e-05
1.66031e-05
2.13734e-05
5.04876e-05
6.95807e-05
4.45906e-05
4.18534e-05
1.76023e-05
1.48375e-05
5.61462e-05
6.1817e-05
4.69792e-05
4.43633e-05
1.95201e-05
1.54269e-05
5.2625e-05
6.63588e-05
4.94876e-05
4.52467e-05
1.96545e-05
1.56689e-05
5.43646e-05
6.92411e-05
5.09454e-05
4.80098e-05
1.99732e-05
1.66563e-05
5.51504e-05
7.95569e-05
7.0979e-05
5.22923e-05
2.13363e-05
1.75367e-05
4.30337e-05
4.53876e-05
6.3719e-05
5.77192e-05
1.45508e-05
1.95665e-05
4.51442e-05
4.83197e-05
6.71681e-05
5.34472e-05
1.58079e-05
1.99018e-05
4.59756e-05
5.04276e-05
6.94935e-05
5.46756e-05
1.57587e-05
1.99978e-05
4.8519e-05
5.14687e-05
7.95673e-05
5.54962e-05
1.66108e-05
2.13098e-05
5.28594e-05
7.13268e-05
4.68184e-05
4.45402e-05
1.7641e-05
1.4796e-05
5.87734e-05
6.39163e-05
4.92675e-05
4.6897e-05
1.98129e-05
1.58683e-05
5.46246e-05
6.84364e-05
5.17111e-05
4.77473e-05
2.00592e-05
1.60299e-05
5.63708e-05
7.09237e-05
5.3037e-05
5.05718e-05
2.02669e-05
1.68827e-05
5.72036e-05
8.10516e-05
7.27677e-05
5.44115e-05
2.15529e-05
1.76481e-05
4.5658e-05
4.82772e-05
6.50848e-05
6.0102e-05
1.49271e-05
1.99041e-05
4.7746e-05
5.04894e-05
6.86568e-05
5.52731e-05
1.57905e-05
2.00336e-05
4.79159e-05
5.20808e-05
7.04371e-05
5.61229e-05
1.59388e-05
2.03673e-05
5.07185e-05
5.31839e-05
7.95056e-05
5.64695e-05
1.68524e-05
2.16742e-05
5.41714e-05
7.19059e-05
4.80181e-05
4.60443e-05
1.80399e-05
1.49663e-05
5.89905e-05
6.43914e-05
5.05959e-05
4.82517e-05
1.99406e-05
1.58711e-05
5.56929e-05
6.88471e-05
5.27831e-05
4.8965e-05
2.00226e-05
1.57585e-05
5.6155e-05
7.06337e-05
5.41509e-05
5.00594e-05
2.00351e-05
1.60612e-05
5.83616e-05
7.24704e-05
5.50427e-05
5.31255e-05
2.02615e-05
1.684e-05
5.90285e-05
8.16957e-05
7.40523e-05
5.63768e-05
2.15654e-05
1.76627e-05
4.72692e-05
5.02786e-05
6.57891e-05
6.13512e-05
1.50779e-05
2.01888e-05
4.94059e-05
5.22299e-05
6.88798e-05
5.60157e-05
1.60979e-05
2.03093e-05
4.98663e-05
5.36354e-05
7.05541e-05
5.67019e-05
1.59776e-05
2.01851e-05
5.16558e-05
5.47784e-05
7.29168e-05
5.93169e-05
1.61483e-05
2.04099e-05
5.42296e-05
5.59129e-05
8.28518e-05
6.00846e-05
1.69646e-05
2.18285e-05
5.78046e-05
7.52058e-05
5.19515e-05
4.97809e-05
1.80261e-05
1.50449e-05
6.39006e-05
6.78286e-05
5.40279e-05
5.19244e-05
2.00789e-05
1.58553e-05
5.90208e-05
7.19831e-05
5.59642e-05
5.19551e-05
2.0253e-05
1.61248e-05
5.91939e-05
7.37319e-05
5.73216e-05
5.38354e-05
2.02757e-05
1.61556e-05
6.22212e-05
7.58546e-05
5.83682e-05
5.64691e-05
2.04873e-05
1.71563e-05
6.21785e-05
8.50683e-05
7.74469e-05
5.96576e-05
2.18624e-05
1.79656e-05
5.09822e-05
5.38411e-05
6.88507e-05
6.4494e-05
1.53999e-05
2.0425e-05
5.29702e-05
5.57648e-05
7.2206e-05
5.97593e-05
1.62529e-05
2.05704e-05
5.27688e-05
5.72267e-05
7.34094e-05
5.89662e-05
1.62944e-05
2.05583e-05
5.46934e-05
5.80162e-05
7.55693e-05
6.21056e-05
1.64816e-05
2.07151e-05
5.77233e-05
5.89042e-05
8.48632e-05
6.31089e-05
1.71684e-05
2.21378e-05
6.09664e-05
7.78956e-05
5.50121e-05
5.2778e-05
1.82196e-05
1.53517e-05
6.65789e-05
7.03669e-05
5.71282e-05
5.47354e-05
2.04333e-05
1.62294e-05
6.14371e-05
7.40619e-05
5.9054e-05
5.47329e-05
2.06203e-05
1.63635e-05
6.10961e-05
7.5896e-05
6.03437e-05
5.64847e-05
2.05341e-05
1.64587e-05
6.44035e-05
7.77475e-05
6.09088e-05
5.92309e-05
2.06803e-05
1.71821e-05
6.43373e-05
8.65198e-05
7.92524e-05
6.21415e-05
2.22106e-05
1.81328e-05
5.35451e-05
5.6342e-05
7.03334e-05
6.69985e-05
1.55348e-05
2.06815e-05
5.54183e-05
5.80095e-05
7.28016e-05
6.09246e-05
1.63385e-05
2.07454e-05
5.52661e-05
5.92568e-05
7.42761e-05
6.06938e-05
1.64522e-05
2.06359e-05
5.70481e-05
6.0247e-05
7.62095e-05
6.34643e-05
1.6427e-05
2.05465e-05
5.8689e-05
6.16993e-05
7.90007e-05
6.60906e-05
1.64153e-05
2.07666e-05
6.1689e-05
6.2723e-05
8.89458e-05
6.69272e-05
1.73059e-05
2.24669e-05
6.48138e-05
8.18852e-05
5.87266e-05
5.68729e-05
1.861e-05
1.54513e-05
7.0411e-05
7.3899e-05
6.12632e-05
5.91451e-05
2.06127e-05
1.64592e-05
6.54357e-05
7.77564e-05
6.31529e-05
5.93913e-05
2.08348e-05
1.65106e-05
6.61049e-05
8.004e-05
6.47395e-05
6.09988e-05
2.067e-05
1.65284e-05
6.9048e-05
8.28938e-05
6.61285e-05
6.41425e-05
2.09153e-05
1.74994e-05
6.94631e-05
9.18839e-05
8.42299e-05
6.71166e-05
2.26626e-05
1.86531e-05
5.87468e-05
6.09731e-05
7.57722e-05
7.26957e-05
1.56537e-05
2.08502e-05
6.08383e-05
6.35196e-05
7.83179e-05
6.70682e-05
1.66488e-05
2.09609e-05
6.02277e-05
6.44952e-05
7.93337e-05
6.58369e-05
1.67437e-05
2.08764e-05
6.18859e-05
6.54368e-05
8.13758e-05
6.88204e-05
1.66822e-05
2.1123e-05
6.50326e-05
6.608e-05
9.04569e-05
6.92528e-05
1.75876e-05
2.30411e-05
6.76128e-05
8.35482e-05
6.17692e-05
6.04301e-05
1.90276e-05
1.56595e-05
7.33128e-05
7.58656e-05
6.43667e-05
6.26793e-05
2.09424e-05
1.67477e-05
6.84462e-05
7.9506e-05
6.62548e-05
6.28643e-05
2.10992e-05
1.66968e-05
6.87682e-05
8.14088e-05
6.74069e-05
6.43582e-05
2.09669e-05
1.68423e-05
7.08673e-05
8.41922e-05
6.88889e-05
6.77915e-05
2.1427e-05
1.78287e-05
7.21423e-05
9.33559e-05
8.59493e-05
7.0332e-05
2.31829e-05
1.90615e-05
6.27602e-05
6.4265e-05
7.8418e-05
7.65288e-05
1.58674e-05
2.10355e-05
6.44275e-05
6.67954e-05
8.08276e-05
7.01001e-05
1.68028e-05
2.13059e-05
6.42393e-05
6.79372e-05
8.19976e-05
6.95481e-05
1.6872e-05
2.13751e-05
6.61665e-05
6.90627e-05
8.42215e-05
7.21318e-05
1.70212e-05
2.18368e-05
6.98669e-05
6.99408e-05
9.34891e-05
7.31981e-05
1.82869e-05
2.38623e-05
7.19363e-05
8.67466e-05
6.64302e-05
6.59442e-05
1.95959e-05
1.63547e-05
7.85297e-05
8.04535e-05
6.92178e-05
6.79711e-05
2.14093e-05
1.70674e-05
7.44425e-05
8.4291e-05
7.11344e-05
6.82251e-05
2.16912e-05
1.70484e-05
7.40908e-05
8.6655e-05
7.20021e-05
7.0887e-05
2.20225e-05
1.84939e-05
7.4137e-05
9.49008e-05
8.76667e-05
7.28579e-05
2.43145e-05
1.96943e-05
6.6439e-05
6.75046e-05
8.00152e-05
7.88394e-05
1.65423e-05
2.18953e-05
6.86331e-05
6.99354e-05
8.27768e-05
7.40084e-05
1.74507e-05
2.2123e-05
6.85303e-05
7.1107e-05
8.46884e-05
7.28188e-05
1.74239e-05
2.25531e-05
7.19391e-05
7.18958e-05
9.30767e-05
7.43069e-05
1.86992e-05
2.45883e-05
7.35525e-05
8.65476e-05
6.79989e-05
6.82852e-05
2.01957e-05
1.65277e-05
7.94924e-05
8.02686e-05
7.03833e-05
7.00709e-05
2.18673e-05
1.7243e-05
7.39241e-05
8.40487e-05
7.27816e-05
7.0917e-05
2.2365e-05
1.77787e-05
7.5409e-05
8.66725e-05
7.40029e-05
7.42392e-05
2.2802e-05
1.88648e-05
7.59227e-05
9.44233e-05
8.80839e-05
7.52982e-05
2.51095e-05
2.01011e-05
6.97056e-05
7.05308e-05
8.13974e-05
8.16466e-05
1.67884e-05
2.25873e-05
7.24274e-05
7.27157e-05
8.42887e-05
7.64329e-05
1.79074e-05
2.27864e-05
7.24798e-05
7.38941e-05
8.66102e-05
7.5369e-05
1.7933e-05
2.33726e-05
7.61534e-05
7.49629e-05
9.54109e-05
7.74803e-05
1.94758e-05
2.56428e-05
7.71268e-05
8.91305e-05
7.21926e-05
7.31024e-05
2.06519e-05
1.70669e-05
8.40665e-05
8.3844e-05
7.50475e-05
7.5795e-05
2.29822e-05
1.82728e-05
7.97769e-05
8.81306e-05
7.73677e-05
7.65025e-05
2.3501e-05
1.86777e-05
7.92889e-05
9.12009e-05
7.9169e-05
8.04158e-05
2.42222e-05
2.01389e-05
8.16274e-05
9.98646e-05
9.35061e-05
8.14849e-05
2.66421e-05
2.15561e-05
7.68212e-05
7.6524e-05
8.73321e-05
8.80552e-05
1.77085e-05
2.35275e-05
7.92018e-05
7.87369e-05
9.1298e-05
8.25718e-05
1.87576e-05
2.46596e-05
8.17905e-05
8.03427e-05
9.94392e-05
8.18347e-05
2.05021e-05
2.705e-05
8.12509e-05
9.36863e-05
7.71551e-05
7.83716e-05
2.1957e-05
1.79933e-05
8.87363e-05
8.8021e-05
8.03404e-05
8.16223e-05
2.42688e-05
1.93489e-05
8.47042e-05
9.27869e-05
8.27255e-05
8.29206e-05
2.49821e-05
1.98329e-05
8.46634e-05
9.65578e-05
8.50739e-05
8.75559e-05
2.58196e-05
2.14897e-05
8.80142e-05
0.000106176
9.95039e-05
8.82298e-05
2.83975e-05
2.31527e-05
8.50033e-05
8.31958e-05
9.41258e-05
9.56698e-05
1.87261e-05
2.50881e-05
8.72871e-05
8.61077e-05
9.91959e-05
8.98951e-05
2.00673e-05
2.63874e-05
9.03828e-05
8.80827e-05
0.000108442
8.99331e-05
2.15824e-05
2.88195e-05
9.01808e-05
0.000102419
8.64738e-05
8.87366e-05
2.4258e-05
1.9935e-05
9.78067e-05
9.72505e-05
8.94014e-05
9.18768e-05
2.64943e-05
2.12371e-05
9.37779e-05
0.000103227
9.22881e-05
9.56109e-05
2.78896e-05
2.32625e-05
9.4496e-05
0.000113032
0.000106756
9.49746e-05
3.07425e-05
2.5109e-05
9.29441e-05
9.07249e-05
0.000101943
0.000102568
2.03543e-05
2.7697e-05
9.75893e-05
9.34614e-05
0.000112412
9.57378e-05
2.3097e-05
3.08305e-05
9.56363e-05
0.000106961
9.09337e-05
9.22156e-05
2.50675e-05
2.00103e-05
0.000103262
0.000101299
9.35618e-05
9.51882e-05
2.72472e-05
2.18516e-05
9.62677e-05
0.000105779
9.56476e-05
9.90114e-05
2.90093e-05
2.41681e-05
9.68483e-05
0.000114788
0.000109223
9.81299e-05
3.21452e-05
2.62284e-05
9.71242e-05
9.47426e-05
0.000104527
0.000105193
2.15877e-05
2.92681e-05
0.000102616
9.72722e-05
0.000114653
9.95073e-05
2.45479e-05
3.27488e-05
9.97352e-05
0.000109565
9.60094e-05
9.89122e-05
2.69361e-05
2.17973e-05
0.000106787
0.00010533
9.79009e-05
0.000103477
2.93781e-05
2.39673e-05
9.94552e-05
0.000114992
0.000110085
0.000100303
3.26638e-05
2.73148e-05
9.9237e-05
9.65689e-05
0.000105663
0.000106236
2.23843e-05
3.04584e-05
0.000105297
9.92883e-05
0.000115075
0.00010084
2.5274e-05
3.40648e-05
0.000101666
0.000110408
9.84897e-05
0.000102008
2.78593e-05
2.26901e-05
0.000108566
0.00010682
0.000100905
0.000107392
3.07452e-05
2.54094e-05
0.00010261
0.000116802
0.000112045
0.000103101
3.41705e-05
2.79904e-05
0.000103062
9.96758e-05
0.000108202
0.000111552
2.19655e-05
3.04508e-05
0.000108254
0.000101978
0.000117493
0.000102642
2.57707e-05
3.51609e-05
0.000103895
0.000112948
0.000101939
0.000107488
2.94114e-05
2.39377e-05
0.000111529
0.000110247
0.000105106
0.000113926
3.24498e-05
2.70103e-05
0.000107742
0.000121537
0.000116978
0.000108984
3.62159e-05
2.98502e-05
0.000111481
0.000106401
0.000114862
0.000116559
2.42696e-05
3.30749e-05
0.000118696
0.000109637
0.000126948
0.000113191
2.72496e-05
3.61707e-05
0.000112636
0.000122139
0.000110506
0.000119975
3.1425e-05
2.71832e-05
0.000119442
0.000124966
0.000121022
0.000119165
3.77149e-05
3.20715e-05
0.000118854
0.000112426
0.00012177
0.000122506
2.62313e-05
3.54091e-05
0.000125339
0.000116469
0.000132665
0.000118004
2.9565e-05
3.93774e-05
0.000119639
0.000127858
0.000117578
0.000127637
3.32078e-05
2.82564e-05