/*--------------------------------*- C++ -*----------------------------------*\
| =========                 |                                                 |
| \\      /  F ield         | OpenFOAM: The Open Source CFD Toolbox           |
|  \\    /   O peration     | Version:  v2006                                 |
|   \\  /    A nd           | Website:  www.openfoam.com                      |
|    \\/     M anipulation  |                                                 |
\*---------------------------------------------------------------------------*/
FoamFile
{
    version     2.0;
    format      ascii;
    class       volScalarField;
    location    "0.11";
    object      yPlus;
}
// * * * * * * * * * * * * * * * * * * * * * * * * * * * * * * * * * * * * * //

dimensions      [0 0 0 0 0 0 0];


internalField   uniform 0;

boundaryField
{
    bottomEmptyFaces
    {
        type            empty;
    }
    topEmptyFaces
    {
        type            empty;
    }
    inlet
    {
        type            calculated;
        value           uniform 0;
    }
    outlet
    {
        type            calculated;
        value           uniform 0;
    }
    walls
    {
        type            calculated;
        value           nonuniform List<scalar> 
1055
(
30.3916
29.6508
28.9724
28.3533
27.7952
27.2867
26.8283
26.4145
26.0476
25.7215
25.4355
25.1826
24.9634
24.7711
24.6062
24.4621
24.341
24.2368
24.1518
24.0799
24.0227
23.9746
23.9371
23.9054
23.8816
23.8623
23.8491
23.8394
23.8338
23.8297
23.8298
23.83
23.8327
23.8359
23.8398
23.8442
23.8482
23.8526
23.8557
23.8592
23.8606
23.8628
23.8622
23.8631
23.8607
23.8604
23.8563
23.8546
23.8494
23.8467
23.8404
23.8366
23.8298
23.825
23.8174
23.8118
23.804
23.798
23.7899
23.7836
23.7756
23.7692
23.7609
23.7543
23.7459
23.7392
23.7306
23.7238
23.7152
23.7085
23.7
23.6936
23.6852
23.6791
23.6713
23.6657
23.6582
23.6533
23.6465
23.6421
23.6358
23.6322
23.6265
23.6235
23.6184
23.6163
23.6119
23.6105
23.6068
23.6061
23.6033
23.6031
23.6014
23.6016
23.601
23.6018
23.6022
23.6035
23.605
23.6067
23.609
23.6114
23.6141
23.6174
23.6206
23.6246
23.6283
23.6331
23.6373
23.6427
23.6473
23.6531
23.6582
23.6645
23.6699
23.6766
23.6824
23.6894
23.6955
23.7029
23.7093
23.7169
23.7236
23.7314
23.7383
23.7465
23.7536
23.7619
23.7693
23.7778
23.7853
23.794
23.8017
23.8105
23.8184
23.8273
23.8353
23.8443
23.8524
23.8614
23.8696
23.8786
23.8868
23.8959
23.9041
23.9132
23.9214
23.9305
23.9387
23.9477
23.9559
23.9649
23.9731
23.982
23.9902
23.9991
24.0072
24.0161
24.0242
24.0331
24.0411
24.05
24.058
24.0669
24.0749
24.0839
24.0919
24.1009
24.1088
24.1179
24.1258
24.1349
24.1428
24.1518
24.1597
24.1686
24.1763
24.1851
24.1925
24.2013
24.2084
24.2253
24.2242
24.2248
24.2393
24.2485
24.254
24.2801
24.2891
24.3167
24.2762
24.2161
23.9995
24.1585
24.5679
8.52983
7.18779
6.5775
11.427
10.5335
9.67903
7.99132
18.2619
13.3595
11.5843
11.4901
12.6651
9.43545
7.93877
12.5364
11.384
13.6574
13.6332
10.7665
9.2402
9.7233
9.62946
8.52832
7.35058
10.0851
9.86381
8.83763
7.46149
9.1395
7.60735
8.60085
7.35563
9.63783
10.077
8.54613
7.42884
8.37172
7.27912
8.36298
7.27103
6.46848
10.4419
10.9337
9.73356
10.6126
9.48695
10.4058
9.23046
9.99183
9.25214
10.1196
10.1252
10.5452
9.32499
10.2174
11.5825
8.46026
8.79327
9.0106
9.78347
10.3235
10.7721
11.8968
8.63381
9.04453
9.5858
10.3834
8.36433
9.04142
10.018
7.35691
7.60521
8.80649
9.06529
10.1792
7.45382
7.73827
8.02641
8.51432
9.16544
9.53186
8.15281
8.69212
8.41719
9.13638
8.67141
9.39541
8.34854
8.93697
10.774
9.39435
9.7728
7.80348
8.16224
10.5616
7.6976
8.05821
10.4304
9.10647
9.40988
8.3002
9.01356
7.97773
8.57446
7.50485
7.91181
9.88301
10.2893
11.4035
8.3072
8.71211
8.85473
9.73228
11.0525
8.0153
8.33374
8.68736
9.33235
9.12905
9.94688
9.64098
10.0986
8.97117
9.73876
8.6489
9.53922
8.52047
9.16349
9.46022
9.83119
10.8647
7.945
8.32605
8.66409
9.39955
9.13492
9.98025
8.83121
9.61169
8.66918
9.13191
7.91008
7.73134
7.32619
7.04121
9.55782
7.41582
7.83975
8.33145
8.51239
9.46329
6.95934
7.24433
8.37446
8.57884
9.71348
7.13008
7.41196
7.58502
8.01975
8.14608
8.25648
7.029
7.25158
7.97533
7.97936
7.84167
7.81625
9.18081
6.83962
7.01124
9.21088
7.87106
7.92246
6.79163
7.02147
9.08781
7.32154
7.02301
8.90967
7.71984
7.68976
8.68801
6.65552
6.75742
7.86473
7.77547
6.70279
6.70176
6.69489
6.79153
9.2543
7.96796
8.06073
9.31598
6.9524
7.12655
6.82715
7.1234
9.02044
8.80494
7.38357
6.95355
8.28815
7.03167
6.51916
8.41548
7.08621
6.54859
8.41014
7.18136
6.53875
8.29067
7.00542
6.48452
8.13828
6.47918
6.25845
8.34982
6.82844
6.44302
7.84396
7.47717
8.38897
7.77858
7.55594
6.55039
6.43378
8.73278
8.70725
7.26414
6.8519
7.40769
6.95519
7.10497
6.83845
8.9873
7.19611
6.91121
8.55238
6.67223
6.67114
8.72845
8.95353
10.0749
7.40686
7.69325
9.90454
7.18286
7.51299
8.58848
8.83009
7.78489
8.2952
7.8616
8.33018
8.71943
9.03626
8.05362
8.58692
13.2266
11.3567
8.65284
11.2576
8.33657
11.6878
9.71923
7.01541
10.6435
10.3584
7.15803
12.2503
10.0028
26.155
24.6289
8.22309
8.8281
6.10305
25.2373
21.1815
21.1959
20.3784
10.3865
20.118
8.8967
25.4182
7.69904
20.6782
8.96762
6.12183
20.134
21.4253
20.8934
10.7358
9.57783
8.46815
7.42611
8.31516
5.94936
28.052
26.4942
21.8342
21.3764
22.1048
21.5501
25.1093
22.0209
20.8969
27.1241
23.3765
22.4403
10.0244
9.00725
8.48014
7.97976
7.32513
8.49128
6.05063
10.4936
9.68746
9.10336
8.61202
8.20894
7.6919
6.9664
7.84881
5.71937
9.70775
8.94537
8.49933
8.13452
7.83467
7.52702
7.2744
7.05874
6.92058
6.77003
6.3987
7.78827
5.37011
9.83205
9.28606
8.97674
8.80594
8.60483
13.9784
8.38145
8.2065
8.06799
7.91576
7.81902
10.9719
12.0129
7.67524
12.0579
12.5058
10.3982
11.2318
13.4777
11.6638
12.1884
9.71942
10.264
10.674
11.7091
7.58291
7.54402
7.42649
7.30663
7.21357
7.12684
7.05622
7.00144
14.7528
10.5458
11.0988
12.6032
13.1753
11.6008
12.7044
6.95259
6.91361
6.88064
6.85773
6.83528
6.81725
6.80518
6.79453
13.5626
14.1663
12.3835
13.481
6.78861
6.77746
6.77403
6.77202
6.76586
6.75994
6.75941
6.75861
13.8098
14.2686
13.247
14.3918
12.6148
13.5986
16.1375
11.6361
12.2872
6.75281
15.8175
6.74657
6.7449
11.3715
12.0082
6.73978
6.73707
12.3135
13.1935
6.72709
6.72354
6.71824
15.2434
11.8225
12.9313
13.0776
13.597
11.848
12.8125
10.9839
11.5675
11.4395
12.3483
11.2926
12.3244
12.1816
12.665
11.0794
12.1977
14.1452
10.1936
10.7029
10.9311
11.8077
14.4303
11.1295
12.0431
10.4268
11.0346
12.404
12.9295
10.802
11.6727
10.1633
10.6869
19.2118
14.367
14.9451
6.71441
6.70395
6.6987
6.69443
20.681
6.68456
6.67541
6.6691
20.0263
6.66411
14.5423
15.4464
17.3298
17.3984
19.842
16.8857
17.2524
14.6078
15.3133
16.708
16.9847
6.65339
6.64364
6.63715
6.63181
6.62127
6.61146
6.60507
6.60009
6.5893
6.57939
6.57281
6.56741
6.55703
6.54686
6.54054
15.4335
6.53536
15.7261
16.2537
16.784
14.4238
15.4057
18.2114
13.1212
13.9296
6.52507
6.51532
6.50956
6.50431
6.49438
6.48478
6.47969
6.47218
17.4766
13.9947
14.9602
12.9041
13.6441
13.345
14.2714
17.1204
14.6531
15.2092
12.2401
13.0373
14.8219
15.4512
18.3966
15.716
16.2081
13.3025
14.0618
19.2526
19.0558
13.9566
14.6047
16.2952
16.5011
16.149
16.6284
6.46738
14.1292
6.45568
14.8843
6.45027
6.44304
6.43797
6.42662
6.42179
6.41483
21.3678
6.41015
6.39939
15.8896
16.5826
6.39495
6.38844
6.38377
6.37352
6.36885
22.2072
6.36499
21.8964
18.1239
17.8953
18.7284
18.9196
19.8111
19.9108
23.5012
6.35605
18.8442
6.35061
18.6705
6.34214
6.34082
6.33293
22.7607
6.32752
6.32251
18.7695
18.4355
6.3151
22.946
17.8667
18.4103
16.8454
17.4162
18.0389
18.3097
15.4986
16.1665
6.31342
6.30738
6.31062
6.37468
6.41886
6.51719
6.77983
7.12848
29.3481
25.9991
30.1802
23.7539
22.1006
29.8518
27.22
26.9954
23.2863
22.169
9.91676
10.78
33.7103
32.2435
30.6291
32.9901
25.6168
23.5034
31.1453
26.7261
25.5652
23.0511
12.5383
30.1664
9.97527
10.9105
10.8502
11.2665
28.6579
35.647
27.5474
25.3843
10.2513
11.2129
10.0429
11.0099
35.6153
12.8201
11.1215
11.5922
9.30213
9.75328
36.0966
9.78609
10.5621
9.12053
9.58431
36.5735
36.6223
36.7431
36.4765
35.7434
13.1587
34.8277
10.755
11.7128
10.4496
11.4941
10.2379
11.0452
9.51383
10.04
10.4173
11.3901
11.3353
11.7771
10.2147
11.1353
33.8939
32.9613
32.0527
31.1928
9.59834
10.5412
12.021
8.7469
9.07348
9.34938
10.1443
9.78095
10.724
25.0505
7.5728
36.471
33.1928
31.0012
29.531
28.4213
27.3887
26.6569
25.9466
25.5499
25.0744
24.7908
24.4221
24.2085
23.9079
23.7399
23.4854
23.3472
23.1238
23.0057
22.8044
22.7008
22.5154
22.4219
22.2482
22.162
21.9971
21.9162
21.7582
21.6813
21.5286
21.4547
21.3063
21.2346
21.0897
21.0196
20.8774
20.8086
20.6687
20.6008
20.4626
20.3953
20.2584
20.1915
20.0554
19.9886
19.8529
19.7858
19.6501
19.5826
19.4465
19.3781
19.2413
19.1719
19.0339
18.9634
18.8238
18.7518
18.6105
18.5369
18.3934
18.3181
18.1723
18.0951
17.9467
17.8675
17.7164
17.6355
17.4816
17.3989
17.2423
17.158
16.9988
16.9132
16.7517
16.6652
16.5017
16.4149
16.2501
16.1639
15.9987
15.9141
15.7497
15.6681
15.506
15.4291
15.2713
15.2012
15.0498
14.9891
14.8466
14.7989
14.6689
14.6359
14.5253
14.5069
14.4189
14.4164
14.3585
14.3687
14.3438
14.3665
14.3591
14.4107
14.4188
14.4977
14.5216
14.6234
14.659
14.7762
14.8203
14.9481
14.9984
15.1336
15.188
15.3274
15.3833
15.5229
15.5784
15.7152
15.7687
15.8997
15.9496
16.0725
16.1179
16.2307
16.271
16.3723
16.4065
16.495
16.5228
16.5982
16.6196
16.6823
16.6975
16.7483
16.758
16.7982
16.803
16.834
16.8346
16.8568
16.8546
16.87
16.8657
16.8756
16.8694
16.8758
16.8669
16.8711
16.858
16.8612
16.8455
16.8481
16.8303
16.8323
16.8129
16.8144
16.7936
16.7948
16.7729
16.7739
16.751
16.7519
16.7284
16.7291
16.702
16.7085
16.6758
16.6851
16.6404
16.7147
16.7433
16.9459
17.2278
18.2725
20.9113
18.9397
39.9396
)
;
    }
    rightWall
    {
        type            calculated;
        value           uniform 0;
    }
    symmetryLine
    {
        type            symmetryPlane;
    }
}


// ************************************************************************* //
