/*--------------------------------*- C++ -*----------------------------------*\
| =========                 |                                                 |
| \\      /  F ield         | OpenFOAM: The Open Source CFD Toolbox           |
|  \\    /   O peration     | Version:  v2006                                 |
|   \\  /    A nd           | Website:  www.openfoam.com                      |
|    \\/     M anipulation  |                                                 |
\*---------------------------------------------------------------------------*/
FoamFile
{
    version     2.0;
    format      ascii;
    class       volScalarField;
    location    "0.048";
    object      Co;
}
// * * * * * * * * * * * * * * * * * * * * * * * * * * * * * * * * * * * * * //

dimensions      [0 0 0 0 0 0 0];


internalField   nonuniform List<scalar> 
24416
(
0.0188182
0.018011
0.0194902
0.0202398
0.0205719
0.020108
0.0202189
0.0200601
0.0198884
0.0198502
0.0197236
0.0197261
0.0197048
0.0196988
0.0196978
0.019695
0.0196895
0.0196794
0.0196656
0.0196493
0.0196315
0.0196132
0.0195946
0.019576
0.0195575
0.0195389
0.0195201
0.0195009
0.0194815
0.0194615
0.0194412
0.0194204
0.0193992
0.0193777
0.0193557
0.0193334
0.0193107
0.0192877
0.0192645
0.0192409
0.019217
0.0191929
0.0191685
0.0191439
0.0191191
0.0190941
0.0190689
0.0190435
0.0190179
0.0189923
0.0189665
0.0189406
0.0189146
0.0188886
0.0188625
0.0188364
0.0188104
0.0187843
0.0187583
0.0187323
0.0187064
0.0186807
0.018655
0.0186295
0.0186041
0.0185789
0.0185539
0.0185291
0.0185045
0.0184802
0.0184561
0.0184324
0.0184089
0.0183857
0.0183629
0.0183404
0.0183184
0.0182968
0.0182757
0.0182548
0.0182343
0.0182138
0.018193
0.0181717
0.0181498
0.0181271
0.0181044
0.0180833
0.0180663
0.018056
0.0180526
0.0180549
0.0180614
0.0180866
0.0181271
0.0182706
0.0184966
0.0190781
0.0200792
0.022445
0.0277712
0.0395873
0.060782
0.0489827
0.0432038
0.0430669
0.0419023
0.0401028
0.039512
0.0380482
0.0344751
0.03727
0.0388883
0.0353302
0.0353419
0.033616
0.0281075
0.0299689
0.030491
0.0293714
0.0295631
0.0279458
0.0254232
0.0277104
0.0283193
0.0282523
0.0278462
0.0255059
0.0248919
0.0274622
0.0280524
0.02807
0.0275617
0.0248956
0.0245528
0.0273834
0.028054
0.0281342
0.0273269
0.0243749
0.0241822
0.0272407
0.0279065
0.0280539
0.0271578
0.024007
0.0238403
0.0270716
0.0278185
0.0279608
0.0269895
0.023686
0.0235404
0.0269068
0.0277243
0.0278653
0.026829
0.0234047
0.0232754
0.02675
0.0276287
0.0277692
0.0266761
0.023154
0.0230373
0.0266007
0.0275403
0.0276729
0.0265298
0.022927
0.0228203
0.0264576
0.0274522
0.0275771
0.0263894
0.0227188
0.0226201
0.0263199
0.0273636
0.0274821
0.0262543
0.0225259
0.0224339
0.0261871
0.0272749
0.0273876
0.0261236
0.0223456
0.0222592
0.0260589
0.0271866
0.027294
0.0259968
0.0221758
0.0220945
0.0259347
0.0270985
0.0272023
0.0258747
0.0220153
0.0219374
0.0258134
0.0270104
0.0271112
0.0257552
0.0218619
0.021787
0.0256947
0.0269224
0.0270201
0.025638
0.0217147
0.0216426
0.0255787
0.0268346
0.0269297
0.0255232
0.021573
0.0215034
0.0254649
0.0267469
0.0268397
0.0254104
0.0214362
0.0213686
0.025353
0.0266592
0.0267501
0.0252994
0.0213034
0.0212378
0.0252426
0.0265716
0.0266606
0.0251899
0.0211744
0.0211104
0.0251337
0.0264838
0.0265714
0.0250816
0.0210485
0.020986
0.025026
0.0263958
0.0264821
0.0249745
0.0209255
0.0208642
0.0249192
0.0263076
0.0263927
0.0248681
0.020805
0.0207448
0.0248132
0.026219
0.0263031
0.0247625
0.0206866
0.0206273
0.0247078
0.0261299
0.0262132
0.0246573
0.0205701
0.0205117
0.0246028
0.0260403
0.0261229
0.0245526
0.0204553
0.0203977
0.0244982
0.0259501
0.0260322
0.0244481
0.0203421
0.0202851
0.0243937
0.0258592
0.0259408
0.0243438
0.0202301
0.0201737
0.0242894
0.0257676
0.0258488
0.0242394
0.0201192
0.0200632
0.0241849
0.0256751
0.025756
0.024135
0.0200092
0.0199536
0.0240803
0.0255816
0.0256624
0.0240302
0.0199
0.0198447
0.0239754
0.0254871
0.0255679
0.0239251
0.0197912
0.0197362
0.02387
0.0253914
0.0254723
0.0238195
0.0196829
0.019628
0.023764
0.0252946
0.0253757
0.0237133
0.0195748
0.0195199
0.0236574
0.0251964
0.0252778
0.0236063
0.0194669
0.019412
0.02355
0.0250969
0.0251787
0.0234985
0.0193589
0.0193038
0.0234417
0.0249958
0.0250781
0.0233897
0.0192506
0.0191954
0.0233324
0.0248931
0.024976
0.0232798
0.019142
0.0190865
0.0232219
0.0247887
0.0248723
0.0231687
0.0190328
0.0189771
0.0231101
0.0246824
0.0247668
0.0230563
0.018923
0.0188669
0.0229969
0.0245742
0.0246595
0.0229423
0.0188124
0.0187558
0.0228821
0.0244638
0.0245502
0.0228267
0.0187008
0.0186436
0.0227656
0.0243512
0.0244387
0.0227094
0.0185881
0.0185303
0.0226473
0.0242362
0.024325
0.0225901
0.0184741
0.0184155
0.0225269
0.0241188
0.024209
0.0224687
0.0183586
0.0182993
0.0224045
0.0239988
0.0240904
0.0223451
0.0182416
0.0181814
0.0222797
0.0238759
0.0239691
0.0222192
0.0181228
0.0180617
0.0221525
0.0237503
0.0238451
0.0220907
0.0180021
0.0179401
0.0220228
0.0236216
0.0237182
0.0219597
0.0178794
0.0178163
0.0218904
0.0234906
0.0235883
0.0218258
0.0177546
0.0176904
0.0217551
0.02336
0.0234553
0.0216891
0.0176275
0.017562
0.0216168
0.0232263
0.023319
0.0215493
0.0174979
0.0174311
0.0214754
0.0230892
0.0231792
0.0214062
0.0173657
0.0172976
0.0213306
0.0229485
0.0230357
0.0212598
0.0172307
0.0171611
0.0211824
0.0228041
0.0228884
0.0211097
0.0170928
0.0170217
0.0210304
0.0226558
0.0227371
0.0209558
0.0169518
0.0168791
0.0208746
0.0225034
0.0225816
0.020798
0.0168075
0.0167331
0.0207148
0.0223468
0.0224217
0.0206361
0.0166598
0.0165836
0.0205507
0.0221858
0.0222572
0.0204699
0.0165085
0.0164304
0.0203822
0.0220201
0.022088
0.0202991
0.0163534
0.0162734
0.0202092
0.0218497
0.021914
0.0201237
0.0161944
0.0161123
0.0200313
0.0216742
0.0217348
0.0199434
0.0160312
0.0159469
0.0198484
0.0214936
0.0215502
0.0197579
0.0158636
0.0157772
0.0196603
0.0213076
0.0213601
0.0195671
0.0156916
0.0156029
0.0194668
0.021116
0.0211643
0.0193709
0.015515
0.0154239
0.0192678
0.0209186
0.0209626
0.019169
0.0153335
0.01524
0.019063
0.0207152
0.0207547
0.0189612
0.0151472
0.0150511
0.0188522
0.0205057
0.0205405
0.0187474
0.0149557
0.014857
0.0186353
0.0202898
0.0203199
0.0185274
0.014759
0.0146577
0.0184122
0.0200673
0.0200924
0.018301
0.0145569
0.0144529
0.0181826
0.0198381
0.0198582
0.0180681
0.0143494
0.0142425
0.0179463
0.019602
0.019617
0.0178285
0.0141361
0.0140263
0.0177032
0.0193588
0.0193685
0.017582
0.013917
0.0138043
0.0174532
0.0191083
0.0191125
0.0173283
0.013692
0.0135763
0.017196
0.0188504
0.018849
0.0170676
0.0134611
0.0133424
0.0169317
0.018585
0.018578
0.0167997
0.0132242
0.0131025
0.0166602
0.018312
0.0182993
0.0165246
0.0129814
0.0128568
0.0163815
0.0180313
0.0180129
0.0162424
0.0127328
0.0126054
0.0160958
0.0177432
0.0177189
0.0159532
0.0124786
0.0123483
0.0158031
0.0174474
0.0174175
0.0156571
0.0122188
0.0120859
0.0155036
0.0171443
0.0171086
0.0153542
0.0119537
0.0118182
0.0151974
0.0168339
0.0167925
0.0150448
0.0116836
0.0115457
0.0148848
0.0165165
0.0164697
0.0147292
0.0114086
0.0112682
0.0145669
0.0161932
0.016142
0.0144096
0.0111277
0.0109821
0.0142449
0.0158656
0.0158091
0.0140841
0.0108358
0.0106849
0.0139156
0.0155318
0.01547
0.0137513
0.0105338
0.0103785
0.0135793
0.0151917
0.0151246
0.0134119
0.0102238
0.0100654
0.013237
0.014846
0.0147738
0.0130667
0.00990795
0.00974739
0.0128894
0.014495
0.0144183
0.0127172
0.00958847
0.00942687
0.0125381
0.0141398
0.0140593
0.0123648
0.00926758
0.00910607
0.0121849
0.0137819
0.013698
0.0120112
0.00894746
0.0087872
0.0118314
0.0134223
0.013336
0.0116584
0.00863052
0.00847274
0.0114797
0.013063
0.0129752
0.0113086
0.00831922
0.00816516
0.0111321
0.0127057
0.0126174
0.010964
0.00801603
0.00786692
0.010791
0.0123525
0.0122649
0.0106271
0.00772342
0.00758044
0.0104588
0.0120056
0.0119198
0.0103003
0.00744372
0.00730802
0.0101379
0.0116673
0.0115845
0.00998608
0.00717916
0.00705175
0.0098307
0.0113397
0.0112612
0.00968661
0.00693174
0.00681358
0.00953951
0.0110254
0.0109415
0.00939485
0.00669649
0.00659484
0.0092661
0.010726
0.0106596
0.00914055
0.0064947
0.00639676
0.00901249
0.010444
0.0103955
0.00889726
0.00630712
0.00621971
0.00877963
0.010171
0.0101403
0.0086752
0.00614071
0.00606385
0.0085685
0.00992801
0.0099057
0.00847504
0.0059953
0.00592875
0.00837934
0.00970575
0.00969238
0.00829691
0.00587033
0.00581359
0.00821209
0.00950476
0.00950051
0.0081404
0.00576466
0.00571699
0.00806595
0.00932477
0.00932962
0.00800454
0.00567681
0.00563745
0.00794004
0.0091655
0.00917911
0.00788818
0.00560511
0.00557317
0.00783293
0.00902598
0.00903891
0.00778988
0.00554777
0.00552228
0.00774309
0.00891383
0.00892569
0.00770782
0.00550277
0.00548283
0.00766865
0.00880992
0.00882892
0.00764026
0.00546821
0.0054527
0.00760772
0.00872159
0.00874678
0.00758509
0.00544179
0.0054295
0.00755784
0.008655
0.00867783
0.00754025
0.00542145
0.0054114
0.00751728
0.00859981
0.00861956
0.00750353
0.00540515
0.00539633
0.00748377
0.00855104
0.00856963
0.0074726
0.00539071
0.00538191
0.00745486
0.00850607
0.00852558
0.00744481
0.00537558
0.00536554
0.0074269
0.00846079
0.00852431
0.00746354
0.00536353
0.00534358
0.00740273
0.00843299
0.008531
0.00751539
0.00541405
0.00540063
0.00749064
0.00854828
0.00904569
0.00800124
0.00581344
0.00582719
0.00812014
0.00928515
0.0106958
0.00945101
0.00683162
0.00701083
0.0100171
0.0118421
0.0125591
0.0108865
0.00775475
0.0146873
0.0162567
0.0172627
0.0187979
0.0195317
0.0203275
0.0208101
0.0212518
0.0215733
0.0219086
0.0221765
0.022446
0.0226659
0.0228815
0.0230654
0.0232428
0.0234012
0.0235507
0.0236897
0.023819
0.023943
0.0240575
0.0241702
0.0242739
0.0243784
0.0244746
0.0245733
0.0246646
0.0247592
0.024848
0.0249401
0.0250284
0.0251195
0.0252093
0.0253006
0.0253938
0.0254889
0.0256076
0.0257385
0.0259926
0.0262981
0.0267393
0.0274347
0.0294229
0.0379408
0.0546968
0.0582708
0.054401
0.0496071
0.0469847
0.0421962
0.0315375
0.0282788
0.0393005
0.0451033
0.0410409
0.0369154
0.0269004
0.0220187
0.0309776
0.0349093
0.0311486
0.028697
0.0209698
0.0190372
0.0266197
0.0295508
0.0279709
0.0256668
0.0186123
0.0183832
0.0255985
0.0281313
0.0278636
0.0254185
0.0183376
0.0183558
0.0254395
0.0279248
0.0277185
0.0253469
0.0183656
0.0183646
0.0252925
0.0277104
0.0277913
0.025405
0.0184645
0.0184635
0.0253456
0.0277484
0.0276294
0.0253373
0.0185113
0.0185104
0.0252589
0.0275639
0.0277033
0.0254049
0.0186338
0.0185955
0.0252281
0.0275289
0.0276497
0.0254424
0.0187346
0.018696
0.0252511
0.0274612
0.0276078
0.0254078
0.0188307
0.0187918
0.0252235
0.0274281
0.0275461
0.0254414
0.018939
0.0188999
0.025245
0.0273566
0.0274948
0.025401
0.0190392
0.019
0.0252138
0.0273185
0.0274214
0.0254263
0.0191502
0.0191107
0.0252281
0.0272369
0.0273579
0.025377
0.0192514
0.0192116
0.0251892
0.0271892
0.0272708
0.0253922
0.0193632
0.0193231
0.025193
0.0270933
0.0271947
0.0253341
0.0194653
0.0194249
0.025145
0.0270332
0.0270951
0.0253409
0.0195797
0.0195391
0.0251379
0.0269201
0.0270106
0.0252796
0.0196878
0.0196468
0.0250835
0.026847
0.0269068
0.0252884
0.0198148
0.0197736
0.0250693
0.026715
0.0268305
0.0252439
0.0199499
0.0199483
0.0251169
0.026735
0.0266467
0.0251918
0.020092
0.0200905
0.0250013
0.0264672
0.0267291
0.0253415
0.0203915
0.0204719
0.0251443
0.0264801
0.0267971
0.0255332
0.0208331
0.0210474
0.0253578
0.0264033
0.0270458
0.0259477
0.0215385
0.0215645
0.0255894
0.0265781
0.0269888
0.0260747
0.0220871
0.0220849
0.0256791
0.0264474
0.0274112
0.0265783
0.0228404
0.0226365
0.0260319
0.0267188
0.027107
0.0268484
0.0237028
0.0229928
0.0244584
0.0232379
0.0717685
0.0530824
0.0324708
0.0248192
0.0363842
0.0476471
0.0302161
0.0281108
0.0226151
0.0212751
0.0249278
0.0259095
0.0317574
0.0243266
0.0216274
0.0211323
0.0306072
0.0321399
0.0282546
0.0311772
0.0294463
0.0227612
0.0247568
0.0250573
0.0210806
0.0218494
0.0213972
0.0195362
0.0178206
0.0148737
0.0338673
0.0239858
0.0200378
0.0190826
0.0213877
0.0274537
0.0184696
0.017127
0.0165269
0.0145022
0.015904
0.0175947
0.017591
0.0156936
0.0118586
0.00885369
0.0163945
0.019524
0.017034
0.0168111
0.00553505
0.00851442
0.0211475
0.0232016
0.0325876
0.0262042
0.0170792
0.0263751
0.0306597
0.0336481
0.0400667
0.0400086
0.0352409
0.0473961
0.0547163
0.0529806
0.0663944
0.0655232
0.0587466
0.0669325
0.0750061
0.0666905
0.0828852
0.0941026
0.074737
0.0834281
0.111417
0.0953767
0.0919938
0.115306
0.0827074
0.0934663
0.105104
0.0963527
0.0827936
0.0802066
0.105252
0.115255
0.0698426
0.0500473
0.0916087
0.110719
0.1394
0.158831
0.145564
0.16209
0.117536
0.139844
0.159283
0.154166
0.140044
0.125636
0.184034
0.156039
0.156141
0.138995
0.134986
0.126327
0.123261
0.128032
0.127885
0.116208
0.134761
0.17312
0.120879
0.106189
0.0990533
0.0856202
0.097512
0.100708
0.146068
0.104675
0.0793487
0.0663827
0.0780826
0.105939
0.0920003
0.0811818
0.0631322
0.0813128
0.101162
0.134252
0.102041
0.0737144
0.0588852
0.0470161
0.0595736
0.0819767
0.112007
0.077652
0.0498354
0.0520918
0.090175
0.130422
0.0657174
0.0571083
0.0422889
0.0443294
0.0742693
0.105145
0.12661
0.0894805
0.0508897
0.0415272
0.0556355
0.0626467
0.102591
0.0746308
0.0466049
0.0523856
0.0902464
0.125929
0.0630971
0.0564655
0.0427982
0.0457033
0.0749623
0.104199
0.12629
0.0903586
0.0527974
0.0440856
0.0570263
0.0627689
0.108154
0.0777402
0.0476178
0.0532565
0.0897337
0.124684
0.0899774
0.0722276
0.0495601
0.0564507
0.0893471
0.116115
0.065983
0.0602588
0.0474654
0.0513585
0.0796063
0.107552
0.128328
0.0956165
0.0588649
0.0485827
0.0606162
0.0658
0.109566
0.0810636
0.0520983
0.0602184
0.0975931
0.130902
0.0669206
0.062289
0.0503848
0.0542753
0.0853095
0.116396
0.129754
0.0960495
0.0594644
0.0563079
0.0797545
0.097835
0.121397
0.094795
0.061962
0.0533392
0.0658762
0.0707796
0.12088
0.0897759
0.0581451
0.0631759
0.100655
0.134128
0.100461
0.0825708
0.0589605
0.0649213
0.0985401
0.125048
0.0732218
0.0683638
0.0558649
0.0626904
0.0927175
0.121636
0.139348
0.105579
0.0673679
0.0567537
0.0693847
0.0740409
0.128367
0.09693
0.0648159
0.068993
0.106734
0.139634
0.112064
0.0907173
0.0630346
0.0686239
0.101995
0.130044
0.109276
0.0897793
0.0637506
0.0708013
0.10462
0.130874
0.0806875
0.0754746
0.0620688
0.0675876
0.102558
0.136581
0.145676
0.111099
0.0712493
0.0673921
0.0935491
0.113799
0.136632
0.109372
0.0745211
0.0647961
0.0779543
0.0827696
0.142921
0.107335
0.0708284
0.0744917
0.115195
0.151514
0.122583
0.100451
0.0722741
0.0768827
0.112089
0.140914
0.120392
0.0998039
0.0726512
0.0793557
0.115093
0.143066
0.0888005
0.0833726
0.0688955
0.0786429
0.114404
0.149584
0.158436
0.122446
0.0823205
0.0760245
0.107015
0.131191
0.147866
0.117757
0.0812659
0.0771382
0.106449
0.128655
0.148703
0.119813
0.0829385
0.0734773
0.0880934
0.093673
0.160154
0.121084
0.0808049
0.0849798
0.129298
0.165479
0.137308
0.113457
0.0825174
0.0861794
0.124374
0.154363
0.133573
0.11128
0.0816658
0.0888802
0.127667
0.156576
0.0985199
0.0930068
0.0783026
0.0859664
0.127752
0.169326
0.175029
0.135165
0.0900026
0.0873171
0.119815
0.145297
0.162155
0.130783
0.0914207
0.0878694
0.121214
0.147347
0.162255
0.131238
0.093355
0.0882776
0.120125
0.144953
0.165702
0.135514
0.0958199
0.0840681
0.1003
0.106343
0.180672
0.136897
0.093114
0.0983405
0.144094
0.185015
0.156085
0.127826
0.0909443
0.0960639
0.137497
0.171145
0.158483
0.130301
0.0938544
0.0984682
0.13779
0.171085
0.159095
0.130652
0.0944253
0.100998
0.141793
0.173178
0.155399
0.129056
0.0952189
0.103955
0.146554
0.178351
0.113556
0.10735
0.0907856
0.101658
0.148646
0.194386
0.200188
0.154608
0.104316
0.100119
0.137324
0.166694
0.181588
0.148178
0.104803
0.101996
0.140073
0.169173
0.18183
0.148767
0.106519
0.10242
0.140929
0.171373
0.185876
0.151623
0.109065
0.103754
0.139628
0.1675
0.1892
0.156075
0.112258
0.0980546
0.115916
0.122921
0.208086
0.159262
0.109484
0.114249
0.166524
0.210817
0.179757
0.14792
0.107012
0.112111
0.156868
0.194451
0.181242
0.149989
0.109296
0.114444
0.159133
0.192637
0.182093
0.150232
0.109526
0.116096
0.161825
0.196802
0.178205
0.148992
0.110962
0.119814
0.167128
0.202547
0.129323
0.123026
0.104534
0.119016
0.169543
0.22046
0.226501
0.176972
0.120598
0.115239
0.157663
0.190234
0.206934
0.16724
0.119886
0.116197
0.159686
0.192549
0.206871
0.169392
0.121993
0.117594
0.161115
0.194994
0.211606
0.173001
0.124319
0.118799
0.159407
0.190643
0.213626
0.177968
0.128039
0.112532
0.132158
0.139047
0.235459
0.181229
0.12659
0.1281
0.187439
0.239482
0.202699
0.16826
0.124882
0.129609
0.180718
0.220236
0.204824
0.169809
0.125206
0.130887
0.180043
0.219757
0.20696
0.171783
0.126814
0.133758
0.184629
0.223612
0.200977
0.168365
0.126357
0.136134
0.188013
0.227833
0.146006
0.138525
0.118663
0.134977
0.193558
0.25121
0.253505
0.201201
0.139235
0.132376
0.179091
0.215473
0.233891
0.191821
0.138457
0.133549
0.180871
0.217467
0.233732
0.194252
0.140282
0.1352
0.18292
0.21995
0.238918
0.197722
0.143384
0.135189
0.179253
0.214085
0.241716
0.200167
0.14624
0.128777
0.149566
0.156874
0.26591
0.204399
0.142568
0.147201
0.210951
0.268037
0.228288
0.18912
0.140229
0.147056
0.204012
0.250175
0.229622
0.191454
0.142552
0.15043
0.205877
0.251126
0.223903
0.188426
0.141993
0.152554
0.210537
0.257078
0.162507
0.154952
0.133688
0.150065
0.214396
0.278641
0.285862
0.222562
0.155317
0.146842
0.197834
0.239057
0.264021
0.214949
0.155065
0.149978
0.201806
0.241386
0.263293
0.217679
0.15818
0.149867
0.19788
0.235658
0.269144
0.222496
0.161715
0.141472
0.163965
0.171499
0.292347
0.226492
0.159909
0.164468
0.237947
0.298389
0.25033
0.208559
0.156316
0.165353
0.228411
0.280659
0.244584
0.207893
0.158408
0.167932
0.233737
0.282186
0.175305
0.168896
0.147427
0.165343
0.235314
0.304329
0.316825
0.247213
0.17118
0.162657
0.217153
0.261216
0.294233
0.239364
0.173098
0.16476
0.216337
0.255092
0.295665
0.242503
0.175254
0.154213
0.177145
0.1845
0.316595
0.244327
0.171864
0.179944
0.259214
0.328489
0.270598
0.226102
0.170193
0.180933
0.248567
0.305323
0.263865
0.224492
0.17222
0.184401
0.254871
0.309786
0.189176
0.182262
0.159324
0.179965
0.253551
0.326943
0.344735
0.270908
0.18768
0.174363
0.228201
0.270973
0.322671
0.26448
0.189475
0.166296
0.187616
0.192875
0.34029
0.264354
0.187686
0.195873
0.282251
0.365939
0.276872
0.234928
0.180122
0.196491
0.276333
0.337033
0.198122
0.192462
0.169849
0.192791
0.271898
0.351254
0.377036
0.294476
0.203773
0.189069
0.246276
0.289708
0.350531
0.284864
0.202985
0.175543
0.197819
0.202827
0.357823
0.278138
0.198842
0.212203
0.306903
0.388724
0.295092
0.25192
0.195197
0.213771
0.298479
0.368245
0.206358
0.201191
0.179371
0.201449
0.277258
0.35241
0.407698
0.316766
0.217547
0.181244
0.20189
0.205754
0.363135
0.284782
0.206729
0.224863
0.32836
0.422739
0.205266
0.201924
0.183265
0.206957
0.286448
0.365892
0.432696
0.338603
0.229437
0.190398
0.208782
0.211062
0.383391
0.301364
0.217511
0.235589
0.347671
0.448976
0.212824
0.210119
0.190877
0.217554
0.300778
0.384261
0.4644
0.3639
0.247835
0.20554
0.223144
0.222512
0.393567
0.310368
0.22575
0.251216
0.371659
0.475085
0.220847
0.220633
0.203952
0.231246
0.313723
0.395447
0.492426
0.380385
0.25711
0.192735
0.199057
0.192864
0.261315
0.241843
0.209057
0.224731
0.307753
0.392758
0.49967
0.380546
0.252562
0.179633
0.182969
0.176694
0.211114
0.20915
0.193486
0.181414
0.203499
0.209402
0.197378
0.193666
0.179062
0.177456
0.200106
0.20281
0.232006
0.214562
0.179391
0.191579
0.276348
0.358355
0.488022
0.357948
0.220898
0.14923
0.159713
0.155406
0.167498
0.163308
0.142266
0.127159
0.151316
0.159097
0.152876
0.14427
0.118948
0.10919
0.135246
0.14518
0.140668
0.130319
0.103031
0.0965846
0.123932
0.135703
0.132212
0.120347
0.0921766
0.0875575
0.115942
0.128551
0.125837
0.11267
0.0839952
0.0807439
0.109591
0.123268
0.120817
0.106684
0.077766
0.0750345
0.103943
0.118474
0.116233
0.101358
0.0725267
0.0702247
0.0989228
0.114085
0.112245
0.0966279
0.0681074
0.0661647
0.0944706
0.109836
0.108149
0.0924498
0.0643856
0.0627561
0.0905514
0.106332
0.104594
0.0887708
0.0612645
0.0599004
0.087097
0.102919
0.10132
0.0855295
0.0586558
0.0575206
0.0840547
0.099776
0.0985011
0.0826736
0.0564885
0.0555516
0.0813735
0.0967024
0.0955381
0.0801577
0.0547052
0.0539384
0.0790087
0.0942355
0.0931845
0.0779324
0.0532482
0.0526262
0.0769155
0.0916264
0.0906694
0.0759662
0.0520702
0.0515701
0.0750663
0.0895709
0.0887106
0.0742264
0.0511259
0.0507292
0.0734306
0.087359
0.0865832
0.0726907
0.0503795
0.0500665
0.0719867
0.0856653
0.0849759
0.0713323
0.0497924
0.0495487
0.0707096
0.0838082
0.0831956
0.0701344
0.0493377
0.0491488
0.0695842
0.0824391
0.0819026
0.0690766
0.0489863
0.048841
0.0685902
0.0808967
0.0804283
0.0681455
0.0487181
0.0486065
0.0677169
0.0798131
0.0794105
0.0673259
0.0485127
0.0484271
0.0669478
0.0785442
0.0782002
0.066607
0.0483571
0.0482912
0.0662748
0.0777054
0.0774165
0.0659765
0.0482378
0.0481865
0.0656838
0.0766666
0.0764264
0.0654252
0.048147
0.048107
0.0651689
0.076031
0.0758355
0.0649434
0.0480767
0.0480504
0.0647216
0.0751805
0.0750247
0.0645251
0.0480272
0.0480143
0.0643363
0.0747092
0.0744418
0.0641666
0.0479984
0.047993
0.0640033
0.0741594
0.073926
0.0638587
0.0479839
0.047984
0.0637194
0.0736765
0.0734733
0.0635973
0.0479796
0.0479859
0.0634787
0.0732491
0.0730726
0.0633775
0.0479877
0.0479988
0.0632791
0.0728763
0.0727249
0.0631963
0.0480043
0.0480209
0.0631141
0.0725472
0.0724159
0.0630485
0.0480329
0.0480542
0.0629899
0.0722673
0.0721506
0.0629338
0.0480699
0.0480964
0.0629061
0.0720288
0.071929
0.0628671
0.0481191
0.0481509
0.062851
0.0718243
0.0718821
0.0628219
0.0481775
0.0482146
0.0628181
0.0715033
0.0715746
0.0628008
0.0482468
0.0482882
0.0628067
0.0715177
0.0715861
0.062795
0.0483224
0.0483682
0.0628116
0.0712766
0.0713619
0.0628111
0.048409
0.0484582
0.0628315
0.0713429
0.0712931
0.0628348
0.0485009
0.0485532
0.0628623
0.071286
0.0712494
0.0628742
0.0486003
0.048655
0.0629055
0.0712472
0.0713584
0.0629207
0.0487033
0.0487605
0.0629583
0.0710826
0.0712051
0.0629811
0.0488124
0.0488713
0.063022
0.0712173
0.0712013
0.063047
0.0489235
0.048984
0.0630935
0.0712227
0.0712173
0.0631257
0.0490395
0.0491016
0.0631748
0.071242
0.071239
0.0632084
0.049157
0.0492205
0.0632627
0.0712721
0.0712792
0.0633032
0.0492792
0.0493442
0.0633596
0.0713147
0.0713234
0.063401
0.0494027
0.049469
0.0634621
0.0713666
0.0713847
0.06351
0.0495308
0.0495987
0.0635728
0.0714297
0.0714485
0.0636211
0.0496603
0.0497296
0.0636882
0.0715005
0.071528
0.0637425
0.0497944
0.0498651
0.0638107
0.0715808
0.0716081
0.0638647
0.0499295
0.0500013
0.0639366
0.0716671
0.0717024
0.0639962
0.0500687
0.0501416
0.0640687
0.0717615
0.071796
0.0641275
0.0502084
0.0502821
0.0642031
0.0718604
0.071902
0.0642666
0.0503514
0.050426
0.0643428
0.0719662
0.0721504
0.0644055
0.0504948
0.05057
0.0644838
0.071932
0.0721224
0.0645504
0.0506407
0.0507165
0.0646295
0.0721911
0.072381
0.0646955
0.0507867
0.0508627
0.0647756
0.0721647
0.0723591
0.0648442
0.0509339
0.05101
0.0649249
0.0724312
0.0724809
0.064993
0.0510806
0.0511567
0.0650749
0.0725555
0.0726087
0.0651452
0.0512282
0.0513041
0.0652268
0.0726829
0.0727354
0.0652962
0.0513746
0.0514502
0.0653788
0.0728119
0.0728676
0.0654501
0.0515212
0.0515964
0.0655322
0.0729431
0.0731431
0.0656022
0.0516662
0.0517409
0.0656847
0.0729295
0.0731328
0.0657562
0.0518109
0.0518848
0.0658382
0.0732091
0.0734109
0.0659083
0.0519533
0.0520265
0.0659903
0.0731969
0.0734017
0.0660617
0.052095
0.0521673
0.0661428
0.0734784
0.0735352
0.0662126
0.0522342
0.0523055
0.0662939
0.0736133
0.0736722
0.0663647
0.0523723
0.0524425
0.0664447
0.0737487
0.0738058
0.0665136
0.0525075
0.0525766
0.0665935
0.0738833
0.0739422
0.0666632
0.0526412
0.052709
0.0667418
0.0740178
0.0742224
0.0668094
0.0527717
0.0528384
0.0668876
0.0740037
0.0742104
0.0669558
0.0529006
0.0529659
0.0670327
0.074285
0.0744896
0.0670988
0.0530261
0.0530902
0.0671751
0.0742685
0.074475
0.0672416
0.0531498
0.0532124
0.0673165
0.0745483
0.0747526
0.0673811
0.0532701
0.0533314
0.0674553
0.074677
0.074734
0.0675199
0.0533884
0.0534484
0.0675925
0.0748062
0.074861
0.067655
0.0535034
0.053562
0.067727
0.0749334
0.0749893
0.0677896
0.0536164
0.0536735
0.06786
0.0749109
0.075264
0.0679206
0.053726
0.0537817
0.0679902
0.0750347
0.0752391
0.0680507
0.0538333
0.0538877
0.0681188
0.0753077
0.0753598
0.0681772
0.0539374
0.0539904
0.0682445
0.0754284
0.0754811
0.0683029
0.0540394
0.054091
0.0683686
0.0755478
0.0757492
0.0684249
0.0541383
0.0541887
0.0684896
0.0755143
0.0757167
0.0685458
0.0542352
0.0542844
0.068609
0.0757816
0.0758306
0.0686632
0.0543291
0.0543769
0.0687256
0.0758953
0.0759448
0.0687795
0.0544209
0.0544674
0.0688403
0.0760077
0.076055
0.0688921
0.0545097
0.0545549
0.0689521
0.0761176
0.0761652
0.0690036
0.0545964
0.0546404
0.069062
0.076226
0.076577
0.0692496
0.0546802
0.0547229
0.0691684
0.0763313
0.0763771
0.0692175
0.0547619
0.0548034
0.0691355
0.0761317
0.0766323
0.0693209
0.0548409
0.0548812
0.0693759
0.0763854
0.0765824
0.069423
0.054918
0.0549574
0.0694768
0.076639
0.0768344
0.0695222
0.0549929
0.0550311
0.0695747
0.0765843
0.07678
0.0696197
0.055066
0.0551033
0.0696714
0.0768348
0.0770291
0.0697149
0.0551369
0.0551731
0.069765
0.0767758
0.0769703
0.069808
0.055206
0.0552412
0.0698574
0.0770229
0.0772161
0.0698989
0.0552729
0.0553071
0.0699467
0.0769598
0.0771532
0.0699878
0.0553381
0.0553713
0.070035
0.0772036
0.0773957
0.0700747
0.0554013
0.0554335
0.0701202
0.0771365
0.0773288
0.0701595
0.0554628
0.0554941
0.0702044
0.0773771
0.077568
0.0702423
0.0555224
0.0555527
0.0702857
0.077306
0.077497
0.0703231
0.0555803
0.0556099
0.0703659
0.0775433
0.077733
0.070402
0.0556365
0.0556651
0.0704433
0.0774683
0.0776582
0.0704789
0.0556911
0.055719
0.0705199
0.0777026
0.0778912
0.0705545
0.0557442
0.0557712
0.0705939
0.0777784
0.0778119
0.0706277
0.0557958
0.0558224
0.0706665
0.0776995
0.0780425
0.0706992
0.0558461
0.0558716
0.0707365
0.0777723
0.0779596
0.0707688
0.0558946
0.0559196
0.0708059
0.078
0.0781861
0.0708371
0.0559419
0.0559659
0.0708727
0.0780686
0.078099
0.0709031
0.0559877
0.0560113
0.0709381
0.0779821
0.078323
0.0709677
0.0560322
0.0560548
0.0710014
0.0782034
0.0782322
0.0710304
0.0560753
0.0560975
0.0710636
0.078269
0.0782964
0.0710915
0.0561173
0.0561386
0.0711234
0.0783317
0.0783591
0.0711508
0.0561578
0.0561787
0.0711823
0.0782381
0.0785774
0.0712087
0.0561972
0.0562173
0.0712389
0.0782976
0.0784802
0.071265
0.0562352
0.0562548
0.071295
0.0785134
0.0786951
0.07132
0.0562722
0.056291
0.0713487
0.0784133
0.0785949
0.0713732
0.0563079
0.0563263
0.0714016
0.0786266
0.07865
0.0714252
0.0563426
0.0563602
0.0714524
0.0786803
0.0787037
0.0714757
0.056376
0.0563932
0.0715026
0.0787338
0.0789135
0.0715249
0.0564085
0.056425
0.0715505
0.0786276
0.0789647
0.0715726
0.0564397
0.0564561
0.0715981
0.0788355
0.0788566
0.071619
0.0564704
0.0564859
0.0716432
0.0788839
0.078905
0.0716639
0.0564997
0.056515
0.071688
0.0789324
0.0789522
0.0717078
0.0565283
0.0565428
0.0717306
0.0789781
0.0789981
0.07175
0.0565557
0.05657
0.0717728
0.0788667
0.0792012
0.0717916
0.0565824
0.0565959
0.0718132
0.0790672
0.0790862
0.0718315
0.056608
0.0566214
0.071853
0.0789533
0.0792872
0.0718705
0.056633
0.0566457
0.0718908
0.0789941
0.0791698
0.0719081
0.0566568
0.0566693
0.0719286
0.0791932
0.0793683
0.0719451
0.0566801
0.056692
0.0719642
0.0790737
0.0792486
0.0719803
0.0567023
0.056714
0.0719996
0.0792707
0.0794449
0.072015
0.056724
0.0567351
0.0720331
0.0791491
0.0793232
0.0720483
0.0567448
0.0567556
0.0720665
0.079344
0.0795175
0.0720809
0.0567649
0.0567753
0.072098
0.0792204
0.0793937
0.0721122
0.0567843
0.0567944
0.0721293
0.0794135
0.0795862
0.0721428
0.056803
0.0568127
0.072159
0.0792879
0.0794604
0.0721723
0.0568211
0.0568305
0.0721885
0.0794793
0.0796512
0.0722011
0.0568384
0.0568475
0.0722165
0.0793518
0.0795236
0.0722289
0.0568553
0.0568641
0.0722443
0.0795416
0.0797128
0.0722561
0.0568715
0.05688
0.0722706
0.0794123
0.0795835
0.0722822
0.0568872
0.0568955
0.0722968
0.0796007
0.0797712
0.0723079
0.0569024
0.0569103
0.0723215
0.0794696
0.0796401
0.0723324
0.056917
0.0569248
0.0723461
0.0796567
0.079667
0.0723565
0.0569312
0.0569385
0.0723695
0.079683
0.0796939
0.0723799
0.0569448
0.056952
0.072393
0.0797096
0.0798788
0.0724028
0.0569581
0.0569649
0.072415
0.0795754
0.0799043
0.0724247
0.0569708
0.0569776
0.0724369
0.0796006
0.0799284
0.0724461
0.0569831
0.0569895
0.0724576
0.0797832
0.0797929
0.0724668
0.0569951
0.0570015
0.0724782
0.0796483
0.0799759
0.0724869
0.0570068
0.0570128
0.0724976
0.0796707
0.0798392
0.0725064
0.0570179
0.0570238
0.0725172
0.0798529
0.0798609
0.0725255
0.0570288
0.0570343
0.0725358
0.0798742
0.0798827
0.0725442
0.0570392
0.0570448
0.0725543
0.0798959
0.0799034
0.072562
0.0570493
0.0570547
0.0725719
0.0799163
0.0799242
0.0725797
0.0570592
0.0570644
0.0725893
0.0799369
0.0799438
0.0725965
0.0570686
0.0570737
0.0726059
0.0799562
0.0799635
0.0726132
0.0570779
0.0570829
0.0726225
0.0799758
0.0799821
0.0726291
0.0570868
0.0570916
0.072638
0.079994
0.0800008
0.0726448
0.0570954
0.0571002
0.0726536
0.0800126
0.0800184
0.0726598
0.0571037
0.0571082
0.0726682
0.0800298
0.0800361
0.0726746
0.0571118
0.0571163
0.072683
0.0800475
0.0800529
0.0726887
0.0571196
0.0571238
0.0726968
0.0800639
0.0800698
0.0727027
0.0571271
0.0571314
0.0727107
0.0800807
0.0800858
0.0727161
0.0571345
0.0571385
0.0727239
0.0800965
0.0801019
0.0727295
0.0571417
0.0571458
0.0727371
0.0801124
0.0801171
0.0727422
0.0571486
0.0571526
0.0727496
0.0801273
0.0801324
0.0727549
0.0571555
0.0571595
0.0727623
0.0801426
0.080147
0.072767
0.0571622
0.057166
0.0727743
0.080157
0.0801617
0.0727792
0.0571688
0.0571727
0.0727865
0.0801717
0.0801756
0.0727908
0.0571752
0.0571789
0.0727979
0.0801854
0.0801898
0.0728025
0.0571815
0.0571853
0.0728097
0.0801995
0.0803638
0.0728138
0.0571878
0.0571915
0.0728206
0.0800526
0.0802169
0.0728248
0.0571939
0.0571975
0.0728319
0.0802264
0.0803906
0.0728358
0.0571999
0.0572035
0.0728424
0.0800789
0.0802431
0.0728464
0.0572059
0.0572095
0.0728534
0.0802524
0.0804165
0.0728572
0.0572118
0.0572154
0.0728637
0.0801047
0.0802687
0.0728676
0.0572178
0.0572215
0.0728746
0.080278
0.080442
0.0728783
0.0572238
0.0572275
0.0728849
0.0801301
0.0802941
0.0728886
0.0572299
0.0572337
0.0728956
0.0803034
0.0803066
0.0728992
0.0572361
0.0572399
0.0729061
0.0803159
0.0803198
0.0729101
0.0572426
0.0572466
0.0729174
0.0803291
0.0804934