/*--------------------------------*- C++ -*----------------------------------*\
| =========                 |                                                 |
| \\      /  F ield         | OpenFOAM: The Open Source CFD Toolbox           |
|  \\    /   O peration     | Version:  v2006                                 |
|   \\  /    A nd           | Website:  www.openfoam.com                      |
|    \\/     M anipulation  |                                                 |
\*---------------------------------------------------------------------------*/
FoamFile
{
    version     2.0;
    format      ascii;
    class       volScalarField;
    location    "0.048";
    object      turbulenceProperties:L;
}
// * * * * * * * * * * * * * * * * * * * * * * * * * * * * * * * * * * * * * //

dimensions      [0 1 0 0 0 0 0];


internalField   nonuniform List<scalar> 
24416
(
2000
2000
2000
2000
2000
2000
2000
2000
2000
2000
2000
2000
2000
1999.99
1999.97
1999.88
1999.67
1999.35
1998.99
1998.64
1998.33
1998.06
1997.84
1997.65
1997.49
1997.34
1997.21
1997.09
1996.98
1996.87
1996.77
1996.67
1996.58
1996.49
1996.4
1996.32
1996.23
1996.15
1996.06
1995.96
1995.86
1995.75
1995.61
1995.46
1995.28
1995.06
1994.78
1994.42
1993.97
1993.38
1992.61
1991.58
1990.22
1988.4
1985.96
1982.68
1978.25
1972.29
1964.24
1953.39
1938.82
1919.3
1893.31
1858.98
1814.13
1756.36
1683.33
1593.19
1485.1
1359.91
1220.56
1072.15
921.28
774.958
639.347
518.808
415.534
329.745
260.219
204.911
161.476
127.627
101.35
81.0539
65.7636
55.9396
60.272
53.6232
49.3615
52.4577
68.596
108.539
187.391
341.506
816.759
141.591
37.4058
13.5399
5.56322
2.38539
0.999413
0.710911
0.830055
0.317406
0.11796
0.0472575
0.0143704
0.00170427
0.000315549
2.14316e-05
2.07734e-05
0.00014795
0.000657018
0.000424937
0.000114769
2.02496e-05
1.99861e-05
0.000103552
0.000347535
0.000301985
9.59096e-05
1.99606e-05
1.99441e-05
9.41246e-05
0.000276932
0.000255198
8.98386e-05
1.99962e-05
1.9927e-05
8.81501e-05
0.000244216
0.000230943
8.43357e-05
1.97642e-05
1.9607e-05
8.34349e-05
0.000225026
0.000216144
8.23706e-05
1.95583e-05
1.95205e-05
8.20306e-05
0.000213316
0.000207364
8.1139e-05
1.94802e-05
1.94502e-05
8.08875e-05
0.000205577
0.000201026
8.01057e-05
1.94165e-05
1.9392e-05
7.99117e-05
0.000199798
0.00019602
7.92068e-05
1.93633e-05
1.93425e-05
7.90357e-05
0.000195097
0.000191803
7.83986e-05
1.93176e-05
1.92995e-05
7.82258e-05
0.000191057
0.000188135
7.76478e-05
1.92773e-05
1.92611e-05
7.74733e-05
0.000187512
0.000184868
7.69474e-05
1.92409e-05
1.92261e-05
7.67704e-05
0.00018434
0.000181919
7.62871e-05
1.92075e-05
1.91937e-05
7.61116e-05
0.000181466
0.000179227
7.56639e-05
1.91763e-05
1.91634e-05
7.54925e-05
0.000178836
0.00017675
7.50757e-05
1.91469e-05
1.91346e-05
7.49127e-05
0.000176412
0.000174457
7.45188e-05
1.91188e-05
1.91071e-05
7.43627e-05
0.000174163
0.00017232
7.39892e-05
1.90919e-05
1.90805e-05
7.38406e-05
0.000172066
0.000170323
7.34866e-05
1.90659e-05
1.90549e-05
7.33468e-05
0.000170105
0.000168453
7.301e-05
1.90406e-05
1.90299e-05
7.28782e-05
0.000168265
0.000166695
7.2557e-05
1.9016e-05
1.90055e-05
7.24329e-05
0.000166535
0.000165039
7.2126e-05
1.89919e-05
1.89817e-05
7.20092e-05
0.000164904
0.000163475
7.17155e-05
1.89684e-05
1.89583e-05
7.16058e-05
0.000163363
0.000161995
7.13241e-05
1.89452e-05
1.89353e-05
7.1221e-05
0.000161903
0.000160592
7.09505e-05
1.89224e-05
1.89126e-05
7.08537e-05
0.000160519
0.000159262
7.05939e-05
1.88999e-05
1.88902e-05
7.05033e-05
0.000159207
0.000157999
7.02537e-05
1.88776e-05
1.8868e-05
7.01693e-05
0.000157962
0.000156796
6.99294e-05
1.88556e-05
1.88461e-05
6.98508e-05
0.000156776
0.000155649
6.96198e-05
1.88338e-05
1.88244e-05
6.95468e-05
0.000155647
0.000154556
6.93239e-05
1.88122e-05
1.88028e-05
6.9256e-05
0.000154569
0.000153512
6.90408e-05
1.87907e-05
1.87814e-05
6.89779e-05
0.000153539
0.000152512
6.87696e-05
1.87693e-05
1.876e-05
6.87115e-05
0.000152552
0.000151553
6.85095e-05
1.8748e-05
1.87386e-05
6.84557e-05
0.000151605
0.000150633
6.82595e-05
1.87266e-05
1.87173e-05
6.821e-05
0.000150695
0.000149748
6.80192e-05
1.87053e-05
1.8696e-05
6.79738e-05
0.000149821
0.000148898
6.77882e-05
1.86839e-05
1.86745e-05
6.77468e-05
0.00014898
0.000148079
6.75658e-05
1.86625e-05
1.8653e-05
6.75281e-05
0.000148169
0.00014729
6.73514e-05
1.86409e-05
1.86314e-05
6.73175e-05
0.000147388
0.000146527
6.71444e-05
1.86192e-05
1.86096e-05
6.71138e-05
0.000146632
0.000145789
6.6944e-05
1.85973e-05
1.85876e-05
6.69168e-05
0.000145901
0.000145076
6.67501e-05
1.85752e-05
1.85654e-05
6.67261e-05
0.000145193
0.000144383
6.65622e-05
1.85528e-05
1.85429e-05
6.65413e-05
0.000144506
0.000143711
6.63796e-05
1.85301e-05
1.852e-05
6.63617e-05
0.000143838
0.000143056
6.62019e-05
1.85071e-05
1.84968e-05
6.61868e-05
0.000143187
0.000142418
6.60286e-05
1.84837e-05
1.84732e-05
6.60162e-05
0.000142553
0.000141795
6.58594e-05
1.84598e-05
1.84491e-05
6.58496e-05
0.000141934
0.000141187
6.56938e-05
1.84355e-05
1.84246e-05
6.56867e-05
0.000141329
0.000140593
6.55319e-05
1.84106e-05
1.83994e-05
6.55273e-05
0.000140738
0.000140011
6.53731e-05
1.83851e-05
1.83737e-05
6.5371e-05
0.000140159
0.000139442
6.52174e-05
1.8359e-05
1.83472e-05
6.5218e-05
0.000139595
0.000138886
6.50649e-05
1.83322e-05
1.83201e-05
6.50683e-05
0.000139042
0.000138339
6.49152e-05
1.83047e-05
1.82923e-05
6.49209e-05
0.000138499
0.000137802
6.47677e-05
1.82764e-05
1.82635e-05
6.47761e-05
0.000137969
0.000137278
6.46228e-05
1.82472e-05
1.8234e-05
6.46339e-05
0.000137451
0.000136764
6.44802e-05
1.82171e-05
1.82034e-05
6.44937e-05
0.000136942
0.000136257
6.43393e-05
1.8186e-05
1.81719e-05
6.43552e-05
0.000136439
0.000135758
6.41998e-05
1.81539e-05
1.81392e-05
6.42182e-05
0.000135944
0.000135264
6.40615e-05
1.81206e-05
1.81054e-05
6.40824e-05
0.000135454
0.000134775
6.39241e-05
1.8086e-05
1.80703e-05
6.39475e-05
0.00013497
0.000134292
6.37875e-05
1.80502e-05
1.80338e-05
6.38135e-05
0.000134491
0.000133814
6.36515e-05
1.80129e-05
1.79959e-05
6.36802e-05
0.000134017
0.00013334
6.35161e-05
1.79741e-05
1.79563e-05
6.35475e-05
0.000133547
0.000132869
6.3381e-05
1.79336e-05
1.79151e-05
6.34151e-05
0.000133081
0.000132402
6.32459e-05
1.78914e-05
1.7872e-05
6.32826e-05
0.000132618
0.000131938
6.31107e-05
1.78473e-05
1.7827e-05
6.31497e-05
0.000132158
0.000131477
6.29764e-05
1.78011e-05
1.77799e-05
6.30168e-05
0.000131702
0.00013102
6.28421e-05
1.77528e-05
1.77306e-05
6.2884e-05
0.000131248
0.000130564
6.27078e-05
1.77022e-05
1.76788e-05
6.27512e-05
0.000130798
0.000130111
6.25733e-05
1.7649e-05
1.76246e-05
6.26182e-05
0.000130349
0.000129658
6.24384e-05
1.75932e-05
1.75675e-05
6.24849e-05
0.000129902
0.000129207
6.2303e-05
1.75346e-05
1.75075e-05
6.23509e-05
0.000129455
0.000128757
6.21667e-05
1.74729e-05
1.74444e-05
6.22162e-05
0.00012901
0.000128307
6.20297e-05
1.74078e-05
1.73778e-05
6.20809e-05
0.000128567
0.000127857
6.18915e-05
1.73393e-05
1.73076e-05
6.19445e-05
0.000128123
0.000127407
6.17517e-05
1.72669e-05
1.72335e-05
6.18064e-05
0.000127678
0.000126956
6.16103e-05
1.71904e-05
1.71551e-05
6.16668e-05
0.000127235
0.000126506
6.14675e-05
1.71095e-05
1.70721e-05
6.15262e-05
0.000126793
0.000126058
6.13238e-05
1.70239e-05
1.69843e-05
6.1385e-05
0.000126354
0.000125612
6.11795e-05
1.69332e-05
1.68914e-05
6.12436e-05
0.000125918
0.00012517
6.10351e-05
1.68372e-05
1.67929e-05
6.11023e-05
0.000125487
0.000124731
6.0891e-05
1.67355e-05
1.66886e-05
6.09619e-05
0.000125061
0.000124297
6.07467e-05
1.66277e-05
1.6578e-05
6.08218e-05
0.00012464
0.000123869
6.0603e-05
1.65136e-05
1.64608e-05
6.06824e-05
0.000124222
0.000123447
6.04589e-05
1.63927e-05
1.63364e-05
6.05444e-05
0.000123813
0.000123035
6.03151e-05
1.6265e-05
1.6204e-05
6.04084e-05
0.000123417
0.000122635
6.0172e-05
1.61307e-05
1.60618e-05
6.02694e-05
0.000123029
0.000122234
6.00174e-05
1.59918e-05
1.59394e-05
6.00846e-05
0.000122623
0.000121805
5.98021e-05
1.5876e-05
1.58254e-05
5.9847e-05
0.000122168
0.000121328
5.95487e-05
1.5761e-05
1.57085e-05
5.9583e-05
0.000121666
0.000120814
5.928e-05
1.56412e-05
1.5586e-05
5.93118e-05
0.000121135
0.000120277
5.90098e-05
1.55154e-05
1.54573e-05
5.90469e-05
0.000120593
0.000119736
5.87502e-05
1.53833e-05
1.53225e-05
5.8797e-05
0.000120059
0.000119212
5.85097e-05
1.52453e-05
1.51819e-05
5.8569e-05
0.000119554
0.000118724
5.82938e-05
1.51017e-05
1.5036e-05
5.83697e-05
0.000119094
0.000118288
5.81097e-05
1.49532e-05
1.48856e-05
5.82053e-05
0.0001187
0.000117923
5.79629e-05
1.48005e-05
1.47316e-05
5.8081e-05
0.000118387
0.000117645
5.78582e-05
1.46447e-05
1.4575e-05
5.80011e-05
0.000118171
0.000117468
5.77995e-05
1.44871e-05
1.44173e-05
5.79688e-05
0.000118065
0.000117405
5.77896e-05
1.4329e-05
1.42599e-05
5.79864e-05
0.000118079
0.000117466
5.783e-05
1.4172e-05
1.41044e-05
5.80545e-05
0.000118224
0.000117659
5.79219e-05
1.40177e-05
1.39524e-05
5.81734e-05
0.000118504
0.000117987
5.80621e-05
1.38677e-05
1.38055e-05
5.83406e-05
0.000118924
0.00011845
5.82464e-05
1.37237e-05
1.36651e-05
5.85493e-05
0.000119484
0.000119025
5.84696e-05
1.35869e-05
1.35326e-05
5.87915e-05
0.000120164
0.000119741
5.87241e-05
1.34583e-05
1.34085e-05
5.90601e-05
0.000120954
0.000120564
5.9001e-05
1.33387e-05
1.32938e-05
5.93471e-05
0.000121843
0.000121477
5.92908e-05
1.32287e-05
1.31886e-05
5.96406e-05
0.000122809
0.000122457
5.95802e-05
1.31281e-05
1.30927e-05
5.99282e-05
0.000123828
0.000123484
5.98608e-05
1.30368e-05
1.30058e-05
6.02005e-05
0.000124878
0.000124534
6.01233e-05
1.29543e-05
1.29273e-05
6.04484e-05
0.000125927
0.000125605
6.03585e-05
1.28799e-05
1.28565e-05
6.06655e-05
0.000126961
0.000126626
6.05606e-05
1.2813e-05
1.27927e-05
6.08448e-05
0.000127958
0.000127597
6.07196e-05
1.27525e-05
1.27343e-05
6.09768e-05
0.000128894
0.000128502
6.08261e-05
1.26971e-05
1.26804e-05
6.10588e-05
0.000129763
0.000129331
6.08841e-05
1.26458e-05
1.26302e-05
6.1088e-05
0.000130537
0.000130055
6.08877e-05
1.25974e-05
1.25823e-05
6.10588e-05
0.000131188
0.00013065
6.08293e-05
1.25502e-05
1.25349e-05
6.09619e-05
0.000131692
0.000131082
6.06845e-05
1.25011e-05
1.24869e-05
6.08737e-05
0.000132151
0.000130944
6.02738e-05
1.24424e-05
1.24328e-05
6.05224e-05
0.000132067
0.000131025
6.00561e-05
1.24033e-05
1.23715e-05
5.99613e-05
0.000131643
0.000130417
5.94164e-05
1.23765e-05
1.22761e-05
5.89696e-05
0.000130169
0.000130781
5.91948e-05
1.23865e-05
1.27392e-05
6.14973e-05
0.000135297
0.00014002
6.31109e-05
1.33013e-05
0.000322693
0.000547598
0.000786248
0.00104512
0.00124225
0.0015142
0.00174838
0.00199855
0.0022284
0.00246847
0.00269785
0.00293376
0.0031626
0.00339499
0.00362155
0.00384906
0.00407059
0.0042903
0.00450264
0.00470977
0.0049068
0.00509429
0.00526751
0.00542582
0.00556444
0.00568155
0.00577268
0.00583485
0.00586462
0.00585844
0.00581249
0.00572446
0.00559177
0.0054129
0.00518835
0.00491767
0.00460559
0.00425223
0.00386924
0.00345544
0.00303321
0.0025972
0.00217881
0.00175921
0.00146491
0.00107598
0.000781153
0.000508747
0.000267676
0.000102746
3.99389e-05
7.78195e-06
6.9203e-06
3.47074e-05
8.97548e-05
8.19544e-05
3.11515e-05
6.07549e-06
5.38171e-06
2.76177e-05
7.26938e-05
6.93126e-05
2.62803e-05
5.0454e-06
4.87374e-06
2.58644e-05
6.88372e-05
6.61186e-05
2.50581e-05
4.79134e-06
4.76237e-06
2.53521e-05
6.76195e-05
6.65598e-05
2.49615e-05
4.76504e-06
4.77499e-06
2.56117e-05
6.82972e-05
6.69559e-05
2.50101e-05
4.76107e-06
4.78424e-06
2.57368e-05
6.86308e-05
6.77658e-05
2.53242e-05
4.79212e-06
4.81669e-06
2.61309e-05
6.95484e-05
6.82598e-05
2.55287e-05
4.80408e-06
4.83065e-06
2.62906e-05
7.00312e-05
6.92154e-05
2.58722e-05
4.83983e-06
4.87309e-06
2.67243e-05
7.10567e-05
6.9755e-05
2.61081e-05
4.84945e-06
4.88489e-06
2.69203e-05
7.16109e-05
7.07981e-05
2.64934e-05
4.89486e-06
4.93033e-06
2.73903e-05
7.27029e-05
7.1376e-05
2.67582e-05
4.90696e-06
4.9448e-06
2.7615e-05
7.331e-05
7.24882e-05
2.7177e-05
4.95544e-06
4.99298e-06
2.81184e-05
7.44554e-05
7.3097e-05
2.74673e-05
4.96969e-06
5.00987e-06
2.83675e-05
7.51001e-05
7.42588e-05
2.79153e-05
5.02107e-06
5.06085e-06
2.89003e-05
7.62775e-05
7.48728e-05
2.8227e-05
5.03762e-06
5.08055e-06
2.91719e-05
7.69422e-05
7.60762e-05
2.87033e-05
5.09242e-06
5.13492e-06
2.97329e-05
7.81532e-05
7.66825e-05
2.90343e-05
5.11184e-06
5.15817e-06
3.00262e-05
7.88367e-05
7.79254e-05
2.95374e-05
5.17097e-06
5.21665e-06
3.06087e-05
8.00763e-05
7.84934e-05
2.98747e-05
5.19391e-06
5.24439e-06
3.09026e-05
8.07452e-05
7.97085e-05
3.03716e-05
5.25863e-06
5.30278e-06
3.14542e-05
8.19193e-05
8.01395e-05
3.06397e-05
5.29441e-06
5.34811e-06
3.16676e-05
8.24869e-05
8.13741e-05
3.10575e-05
5.36889e-06
5.43303e-06
3.22159e-05
8.38327e-05
8.25736e-05
3.13879e-05
5.43621e-06
5.49256e-06
3.28504e-05
8.5824e-05
8.50429e-05
3.24266e-05
5.51302e-06
5.59674e-06
3.44042e-05
8.89655e-05
8.74157e-05
3.37176e-05
5.66818e-06
5.82481e-06
3.54464e-05
9.04132e-05
8.91547e-05
3.48833e-05
5.97421e-06
6.25963e-06
3.58057e-05
9.06735e-05
8.82499e-05
3.5184e-05
6.65309e-06
7.61213e-06
3.70094e-05
8.94332e-05
8.63048e-05
4.09089e-05
5.48242e-06
2.66691e-06
1.07694e-05
3.40846e-05
7.47512e-05
2.87673e-05
4.09292e-06
4.79974e-06
2.69658e-05
7.2738e-05
8.47881e-05
3.02904e-05
5.57448e-06
6.46648e-06
3.42845e-05
9.71909e-05
0.000158765
4.29238e-05
1.36597e-05
2.20582e-05
0.000103267
0.000226554
0.000254561
0.000109213
2.67746e-05
3.0621e-05
0.000147845
0.000318017
0.000313994
0.000150951
3.10129e-05
3.24432e-05
0.000139577
0.000271602
0.000323077
0.000162101
3.66231e-05
4.30893e-05
0.000188872
0.000368062
0.000417308
0.000218396
4.91186e-05
5.73828e-05
0.000255897
0.000503207
0.00063449
0.000304241
6.44264e-05
7.28269e-05
0.000388924
0.000776838
0.000868524
0.000474541
7.87552e-05
9.365e-05
0.000633373
0.00111236
0.00135179
0.000796714
0.000107731
0.000124217
0.000943293
0.00143576
0.00151817
0.00109471
0.000137887
0.000163326
0.00123746
0.00173809
0.00192435
0.00142868
0.00018239
0.000206805
0.00156376
0.00204233
0.00225817
0.00166368
0.000222794
0.00022643
0.00155236
0.00216526
0.00208931
0.00154369
0.000213085
0.00019037
0.000851044
0.00202641
0.000711881
0.00029041
0.000163336
0.000130223
0.000167762
0.000246659
0.000214401
0.000140365
0.000113133
9.14966e-05
0.000110812
0.000166178
0.000112637
9.05863e-05
7.71673e-05
6.31254e-05
7.57267e-05
0.000107078
9.5367e-05
6.61422e-05
5.47423e-05
4.39148e-05
5.23056e-05
6.97818e-05
7.03308e-05
4.80722e-05
3.85103e-05
3.28973e-05
4.37467e-05
6.60883e-05
5.04164e-05
3.62049e-05
2.73374e-05
2.34166e-05
3.43977e-05
5.45992e-05
5.07307e-05
3.30584e-05
1.95083e-05
1.0726e-05
1.74952e-05
3.25085e-05
3.69981e-05
1.90947e-05
5.94354e-06
7.02046e-06
1.74195e-05
3.32183e-05
1.75818e-05
8.22227e-06
3.88451e-06
5.22999e-06
1.92898e-05
2.83004e-05
2.7641e-05
1.78005e-05
6.33457e-06
3.54311e-06
7.9713e-06
1.60329e-05
2.63278e-05
1.7948e-05
4.84653e-06
6.06787e-06
1.67886e-05
2.59768e-05
1.48126e-05
7.38181e-06
3.49944e-06
4.72309e-06
1.71226e-05
2.55984e-05
2.49162e-05
1.58042e-05
5.9272e-06
3.46474e-06
6.90173e-06
1.37823e-05
2.36731e-05
1.57173e-05
4.4052e-06
5.56425e-06
1.46173e-05
2.33907e-05
1.21691e-05
5.96338e-06
3.19361e-06
3.81907e-06
1.8184e-05
2.18963e-05
1.4125e-05
7.76453e-06
4.4913e-06
5.51375e-06
1.72492e-05
2.69501e-05
2.57743e-05
1.58044e-05
6.80184e-06
4.03323e-06
7.12709e-06
1.36493e-05
2.669e-05
1.70281e-05
4.98365e-06
6.36166e-06
1.53658e-05
2.57907e-05
1.33214e-05
6.88064e-06
3.87276e-06
4.81917e-06
1.65692e-05
2.61919e-05
2.52471e-05
1.51464e-05
6.047e-06
3.57047e-06
6.08951e-06
1.23195e-05
2.19217e-05
1.86157e-05
4.05788e-06
4.69608e-06
7.8512e-06
1.37465e-05
2.63789e-05
1.64669e-05
5.48945e-06
6.64359e-06
1.48465e-05
2.48544e-05
1.2215e-05
6.35384e-06
3.81356e-06
4.23281e-06
1.82535e-05
2.14215e-05
1.37269e-05
8.07765e-06
4.97974e-06
5.86652e-06
1.6324e-05
2.5354e-05
2.42354e-05
1.48784e-05
7.12664e-06
4.26166e-06
7.14306e-06
1.28171e-05
2.31168e-05
1.55624e-05
4.9802e-06
6.1796e-06
1.36028e-05
2.23471e-05
1.1107e-05
6.11742e-06
3.59436e-06
3.93728e-06
1.59405e-05
1.89172e-05
1.20724e-05
7.41534e-06
4.48966e-06
4.73178e-06
1.67258e-05
2.15014e-05
1.36617e-05
8.24783e-06
5.39211e-06
5.98604e-06
1.5515e-05
2.45579e-05
2.27298e-05
1.35422e-05
7.05293e-06
4.11279e-06
6.67785e-06
1.16633e-05
1.98953e-05
1.58801e-05
4.47774e-06
5.14436e-06
8.1433e-06
1.29204e-05
2.34546e-05
1.53495e-05
5.71985e-06
6.81346e-06
1.3562e-05
2.16475e-05
1.1201e-05
6.50811e-06
3.93311e-06
4.26475e-06
1.51805e-05
1.83372e-05
1.20035e-05
7.8287e-06
4.8409e-06
4.93828e-06
1.558e-05
2.0322e-05
1.31517e-05
8.17336e-06
5.58503e-06
6.15515e-06
1.50538e-05
2.33516e-05
2.13745e-05
1.31227e-05
7.28719e-06
4.18856e-06
6.71903e-06
1.11893e-05
1.78582e-05
1.50066e-05
4.39287e-06
5.03322e-06
7.95971e-06
1.19322e-05
2.00237e-05
1.57328e-05
5.11829e-06
5.73086e-06
8.46997e-06
1.31104e-05
2.29372e-05
1.46592e-05
6.23752e-06
7.2089e-06
1.28475e-05
2.08784e-05
1.09377e-05
6.70205e-06
4.12621e-06
4.37137e-06
1.49364e-05
1.71203e-05
1.15124e-05
7.88461e-06
4.96769e-06
5.06592e-06
1.4622e-05
1.90174e-05
1.25536e-05
8.12314e-06
5.72355e-06
6.2342e-06
1.41547e-05
2.17304e-05
1.99012e-05
1.25909e-05
7.27497e-06
4.18461e-06
6.72979e-06
1.06704e-05
1.66648e-05
1.45378e-05
4.41751e-06
5.02058e-06
7.85442e-06
1.12706e-05
1.82887e-05
1.41234e-05
5.08585e-06
5.59633e-06
8.23841e-06
1.22322e-05
1.94685e-05
1.47732e-05
5.48709e-06
6.04549e-06
8.59835e-06
1.29976e-05
2.19876e-05
1.43462e-05
6.51284e-06
7.52189e-06
1.2481e-05
1.98766e-05
1.0679e-05
6.81652e-06
4.28799e-06
4.48786e-06
1.41714e-05
1.64144e-05
1.13231e-05
8.01666e-06
5.12971e-06
5.11169e-06
1.41304e-05
1.78162e-05
1.19762e-05
8.16601e-06
5.50502e-06
5.30392e-06
1.40962e-05
1.83797e-05
1.23715e-05
8.4151e-06
5.74722e-06
5.69275e-06
1.46783e-05
1.90196e-05
1.29347e-05
8.88906e-06
6.24103e-06
6.72444e-06
1.42465e-05
2.15058e-05
1.96528e-05
1.27282e-05
7.78103e-06
4.52867e-06
7.13246e-06
1.08232e-05
1.64882e-05
1.43097e-05
4.66311e-06
5.33344e-06
8.2761e-06
1.1475e-05
1.79204e-05
1.41261e-05
5.39696e-06
5.84215e-06
8.52027e-06
1.22715e-05
1.86568e-05
1.44279e-05
5.64956e-06
6.07607e-06
8.80992e-06
1.27591e-05
1.93091e-05
1.49986e-05
6.01584e-06
6.50692e-06
9.25574e-06
1.31961e-05
2.15293e-05
1.43829e-05
6.88269e-06
7.91231e-06
1.27436e-05
1.95367e-05
1.09328e-05
7.36097e-06
4.63337e-06
4.86297e-06
1.431e-05
1.63955e-05
1.1571e-05
8.33014e-06
5.48199e-06
5.37435e-06
1.41211e-05
1.74886e-05
1.20075e-05
8.38097e-06
5.76869e-06
5.6318e-06
1.3809e-05
1.7783e-05
1.23995e-05
8.74114e-06
6.12148e-06
6.06998e-06
1.4419e-05
1.83668e-05
1.27734e-05
9.24396e-06
6.54828e-06
6.95219e-06
1.40144e-05
2.06541e-05
1.89304e-05
1.2599e-05
8.01324e-06
4.71448e-06
7.38256e-06
1.07755e-05
1.61861e-05
1.41274e-05
4.9261e-06
5.53375e-06
8.35902e-06
1.14589e-05
1.72706e-05
1.39367e-05
5.5091e-06
5.9742e-06
8.62403e-06
1.20724e-05
1.7781e-05
1.40178e-05
5.84386e-06
6.26422e-06
8.93859e-06
1.24394e-05
1.83807e-05
1.45752e-05
6.2103e-06
6.68789e-06
9.4406e-06
1.28583e-05
2.04729e-05
1.40162e-05
7.05881e-06
8.04555e-06
1.2496e-05
1.86871e-05
1.07343e-05
7.42198e-06
4.715e-06
4.95442e-06
1.40684e-05
1.59659e-05
1.13072e-05
8.27631e-06
5.51e-06
5.55303e-06
1.35305e-05
1.68305e-05
1.19236e-05
8.57608e-06
6.05159e-06
5.87386e-06
1.37519e-05
1.72205e-05
1.21818e-05
8.78408e-06
6.23612e-06
6.18146e-06
1.40295e-05
1.76728e-05
1.25358e-05
9.3091e-06
6.73615e-06
7.10569e-06
1.36707e-05
1.98512e-05
1.82753e-05
1.24634e-05
8.16045e-06
4.88521e-06
7.52863e-06
1.07148e-05
1.56963e-05
1.40184e-05
5.02796e-06
5.66581e-06
8.39841e-06
1.12951e-05
1.68168e-05
1.3613e-05
5.65671e-06
6.12633e-06
8.63464e-06
1.18845e-05
1.72958e-05
1.37641e-05
6.07269e-06
6.50229e-06
9.03507e-06
1.22993e-05
1.7887e-05
1.44048e-05
6.36176e-06
6.91476e-06
9.55857e-06
1.27939e-05
2.00174e-05
1.38666e-05
7.32543e-06
8.33424e-06
1.25393e-05
1.83639e-05
1.0838e-05
7.70753e-06
4.98156e-06
5.17787e-06
1.40051e-05
1.59104e-05
1.15166e-05
8.53447e-06
5.72376e-06
5.85666e-06
1.39422e-05
1.68721e-05
1.20833e-05
8.85049e-06
6.32256e-06
6.2188e-06
1.39723e-05
1.74055e-05
1.24747e-05
9.38865e-06
6.83337e-06
7.2481e-06
1.35604e-05
1.94359e-05
1.79329e-05
1.24464e-05
8.2876e-06
5.10836e-06
7.77758e-06
1.08415e-05
1.59212e-05
1.39177e-05
5.30437e-06
5.90085e-06
8.72142e-06
1.16175e-05
1.70409e-05
1.40742e-05
6.09314e-06
6.53035e-06
9.14187e-06
1.2287e-05
1.77094e-05
1.43209e-05
6.45094e-06
7.00628e-06
9.61228e-06
1.27486e-05
1.97797e-05
1.38206e-05
7.56671e-06
8.61438e-06
1.25989e-05
1.8272e-05
1.10128e-05
7.93708e-06
5.19443e-06
5.4662e-06
1.42126e-05
1.60252e-05
1.178e-05
8.86941e-06
6.05951e-06
6.18926e-06
1.43509e-05
1.72262e-05
1.23786e-05
9.39307e-06
6.77173e-06
7.41994e-06
1.34697e-05
1.92005e-05
1.78838e-05
1.24371e-05
8.5239e-06
5.19765e-06
7.84595e-06
1.08949e-05
1.58261e-05
1.38828e-05
5.44095e-06
6.05301e-06
8.89346e-06
1.16657e-05
1.7151e-05
1.42577e-05
6.25052e-06
6.90315e-06
9.51296e-06
1.24264e-05
1.92519e-05
1.35318e-05
7.43599e-06
8.48854e-06
1.24338e-05
1.78571e-05
1.09323e-05
7.89353e-06
5.20813e-06
5.53467e-06
1.39148e-05
1.58044e-05
1.17274e-05
8.91611e-06
6.12465e-06
6.29608e-06
1.42063e-05
1.70747e-05
1.23907e-05
9.51839e-06
6.88824e-06
7.5442e-06
1.35519e-05
1.92269e-05
1.79634e-05
1.25974e-05
8.77684e-06
5.49127e-06
8.16383e-06
1.11959e-05
1.619e-05
1.39447e-05
5.83268e-06
6.6144e-06
9.38685e-06
1.20213e-05
1.87975e-05
1.36767e-05
7.34898e-06
8.45751e-06
1.27872e-05
1.76888e-05
1.09757e-05
7.89731e-06
5.26143e-06
5.71083e-06
1.36237e-05
1.58438e-05
1.1763e-05
9.20184e-06
6.53359e-06
7.39411e-06
1.35313e-05
1.84092e-05
1.73893e-05
1.26987e-05
8.61586e-06
5.38822e-06
8.15238e-06
1.10688e-05
1.59422e-05
1.40684e-05
5.77097e-06
6.5917e-06
9.36478e-06
1.18692e-05
1.85053e-05
1.33566e-05
7.44797e-06
8.67815e-06
1.25741e-05
1.75328e-05
1.1114e-05
8.16267e-06
5.4513e-06
5.97497e-06
1.397e-05
1.59909e-05
1.2047e-05
9.65327e-06
6.79243e-06
7.74717e-06
1.38076e-05
1.90103e-05
1.80971e-05
1.31859e-05
9.23143e-06
6.23313e-06
8.99112e-06
1.18495e-05
1.82358e-05
1.41134e-05
7.21433e-06
8.6836e-06
1.35388e-05
1.76703e-05
1.15949e-05
8.71099e-06
5.83033e-06
6.96631e-06
1.3732e-05
1.79517e-05
1.74837e-05
1.32178e-05
8.56755e-06
5.86366e-06
8.70247e-06
1.15216e-05
1.77071e-05
1.35859e-05
6.98429e-06
8.37239e-06
1.31864e-05
1.72647e-05
1.12107e-05
8.44028e-06
5.74285e-06
6.90995e-06
1.33122e-05
1.7407e-05
1.70197e-05
1.28463e-05
8.49849e-06
5.90284e-06
8.66105e-06
1.13342e-05
1.74909e-05
1.35135e-05
6.98545e-06
8.4902e-06
1.30317e-05
1.70872e-05
1.13288e-05
8.68152e-06
6.00306e-06
7.36536e-06
1.35522e-05
1.77434e-05
1.74648e-05
1.32917e-05
8.96011e-06
6.33369e-06
9.16482e-06
1.1823e-05
1.85507e-05
1.42106e-05
7.95245e-06
1.02875e-05
1.4367e-05
1.80676e-05
1.71796e-05
1.3546e-05
8.24348e-06
5.97821e-06
8.74799e-06
1.16485e-05
1.84468e-05
1.38756e-05
7.77902e-06
1.03251e-05
1.39761e-05
1.81257e-05
1.79056e-05
1.36526e-05
9.17152e-06
8.50636e-06
1.23776e-05
1.68893e-05
1.74354e-05
1.24294e-05
8.04158e-06
7.80039e-06
1.11516e-05
1.62932e-05
1.69512e-05
1.11401e-05
7.12412e-06
5.7343e-06
7.84443e-06
1.07886e-05
1.75924e-05
1.29467e-05
8.16123e-06
1.11701e-05
1.31852e-05
1.7573e-05
1.75276e-05
1.36679e-05
1.10948e-05
1.10419e-05
1.40463e-05
1.77648e-05
1.80396e-05
1.44331e-05
1.10721e-05
1.10633e-05
1.49125e-05
1.83944e-05
1.87487e-05
1.5354e-05
1.10165e-05
1.09933e-05
1.58534e-05
1.91641e-05
1.96023e-05
1.62904e-05
1.09357e-05
1.08692e-05
1.67531e-05
2.00397e-05
2.05288e-05
1.71655e-05
1.07971e-05
1.07212e-05
1.76128e-05
2.09889e-05
2.15478e-05
1.80049e-05
1.06428e-05
1.05634e-05
1.83878e-05
2.20335e-05
2.26289e-05
1.87035e-05
1.04837e-05
1.04043e-05
1.89748e-05
2.32601e-05
2.39987e-05
1.91869e-05
1.03257e-05
1.02483e-05
1.93969e-05
2.4707e-05
2.54107e-05
1.96095e-05
1.01729e-05
1.00999e-05
1.98282e-05
2.60809e-05
2.67524e-05
2.00539e-05
1.00302e-05
9.96389e-06
2.02899e-05
2.73966e-05
2.80462e-05
2.0534e-05
9.90169e-06
9.84346e-06
2.07914e-05
2.86722e-05
2.93052e-05
2.10557e-05
9.78975e-06
9.74038e-06
2.1336e-05
2.99174e-05
3.05156e-05
2.16219e-05
9.6957e-06
9.65528e-06
2.19214e-05
3.1094e-05
3.16609e-05
2.22239e-05
9.61931e-06
9.58737e-06
2.25406e-05
3.22155e-05
3.27621e-05
2.28577e-05
9.55948e-06
9.53505e-06
2.31853e-05
3.32954e-05
3.38218e-05
2.35097e-05
9.51395e-06
9.49579e-06
2.38442e-05
3.43398e-05
3.48527e-05
2.41698e-05
9.48025e-06
9.46707e-06
2.45051e-05
3.53543e-05
3.58511e-05
2.48277e-05
9.45597e-06
9.44663e-06
2.51566e-05
3.63391e-05
3.68223e-05
2.54692e-05
9.43868e-06
9.43198e-06
2.57857e-05
3.72937e-05
3.77589e-05
2.60821e-05
9.42615e-06
9.42128e-06
2.63834e-05
3.82146e-05
3.86629e-05
2.66614e-05
9.4169e-06
9.41314e-06
2.69424e-05
3.90998e-05
3.95274e-05
2.71973e-05
9.40956e-06
9.40644e-06
2.74573e-05
3.99466e-05
4.03542e-05
2.76893e-05
9.40328e-06
9.40042e-06
2.79254e-05
4.07519e-05
4.11349e-05
2.81324e-05
9.39736e-06
9.3946e-06
2.83455e-05
4.15141e-05
4.18748e-05
2.85303e-05
9.39148e-06
9.38872e-06
2.87187e-05
4.22372e-05
4.25744e-05
2.88827e-05
9.38533e-06
9.38276e-06
2.90478e-05
4.29213e-05
4.32426e-05
2.9194e-05
9.3792e-06
9.37673e-06
2.93378e-05
4.35747e-05
4.3884e-05
2.94659e-05
9.37325e-06
9.37084e-06
2.95922e-05
4.41983e-05
4.44983e-05
2.97049e-05
9.36743e-06
9.3651e-06
2.98169e-05
4.4799e-05
4.50892e-05
2.99157e-05
9.36171e-06
9.35955e-06
3.00164e-05
4.53807e-05
4.5661e-05
3.01038e-05
9.35633e-06
9.35442e-06
3.01954e-05
4.59466e-05
4.62175e-05
3.02724e-05
9.35133e-06
9.34972e-06
3.03567e-05
4.64982e-05
4.67632e-05
3.04261e-05
9.34696e-06
9.34572e-06
3.05053e-05
4.70404e-05
4.72988e-05
3.05673e-05
9.34325e-06
9.34239e-06
3.06431e-05
4.75737e-05
4.78268e-05
3.07008e-05
9.34037e-06
9.34002e-06
3.07745e-05
4.81009e-05
4.83471e-05
3.08271e-05
9.33839e-06
9.3385e-06
3.08994e-05
4.8622e-05
4.88624e-05
3.09483e-05
9.33746e-06
9.33786e-06
3.10197e-05
4.91373e-05
4.93692e-05
3.10641e-05
9.33735e-06
9.33807e-06
3.1134e-05
4.96452e-05
4.98696e-05
3.11758e-05
9.33823e-06
9.33924e-06
3.12417e-05
5.0135e-05
5.03451e-05
3.12781e-05
9.34001e-06
9.34129e-06
3.13394e-05
5.0601e-05
5.08006e-05
3.13725e-05
9.3425e-06
9.344e-06
3.14299e-05
5.10479e-05
5.12374e-05
3.14593e-05
9.34539e-06
9.34728e-06
3.15129e-05
5.14764e-05
5.16601e-05
3.15402e-05
9.34887e-06
9.35111e-06
3.15908e-05
5.189e-05
5.20673e-05
3.16154e-05
9.35284e-06
9.35534e-06
3.16628e-05
5.22885e-05
5.24619e-05
3.16867e-05
9.35726e-06
9.36009e-06
3.17315e-05
5.26756e-05
5.28447e-05
3.17536e-05
9.36213e-06
9.3652e-06
3.17957e-05
5.30508e-05
5.32172e-05
3.18178e-05
9.36743e-06
9.3708e-06
3.18584e-05
5.34165e-05
5.35789e-05
3.18791e-05
9.37319e-06
9.37675e-06
3.19176e-05
5.37709e-05
5.39306e-05
3.19389e-05
9.37945e-06
9.3832e-06
3.19764e-05
5.4116e-05
5.42714e-05
3.19965e-05
9.38614e-06
9.39004e-06
3.20324e-05
5.44499e-05
5.46024e-05
3.2053e-05
9.39328e-06
9.39738e-06
3.2088e-05
5.47746e-05
5.49222e-05
3.21074e-05
9.40083e-06
9.40504e-06
3.21405e-05
5.50877e-05
5.52318e-05
3.21605e-05
9.40876e-06
9.41312e-06
3.21924e-05
5.53914e-05
5.55301e-05
3.22112e-05
9.41701e-06
9.42145e-06
3.22412e-05
5.56835e-05
5.58182e-05
3.22604e-05
9.42553e-06
9.4301e-06
3.22892e-05
5.59663e-05
5.60935e-05
3.23075e-05
9.43429e-06
9.43895e-06
3.2334e-05
5.62361e-05
5.63612e-05
3.23518e-05
9.44324e-06
9.448e-06
3.23777e-05
5.64962e-05
5.66142e-05
3.23934e-05
9.45231e-06
9.45713e-06
3.24178e-05
5.67453e-05
5.68616e-05
3.24328e-05
9.46151e-06
9.46635e-06
3.24563e-05
5.69852e-05
5.7096e-05
3.24694e-05
9.47074e-06
9.47559e-06
3.24916e-05
5.72142e-05
5.73205e-05
3.25037e-05
9.47999e-06
9.48485e-06
3.25248e-05
5.74339e-05
5.75342e-05
3.25351e-05
9.48924e-06
9.49405e-06
3.25546e-05
5.76424e-05
5.77379e-05
3.25642e-05
9.49843e-06
9.50321e-06
3.2582e-05
5.78419e-05
5.79301e-05
3.25909e-05
9.50754e-06
9.51228e-06
3.26065e-05
5.80301e-05
5.81154e-05
3.2614e-05
9.51658e-06
9.52125e-06
3.26284e-05
5.8209e-05
5.82879e-05
3.26353e-05
9.52547e-06
9.53008e-06
3.26476e-05
5.83772e-05
5.84538e-05
3.2653e-05
9.53424e-06
9.53878e-06
3.26643e-05
5.85358e-05
5.86077e-05
3.26686e-05
9.54285e-06
9.54729e-06
3.26779e-05
5.86852e-05
5.87524e-05
3.26815e-05
9.5513e-06
9.55565e-06
3.26891e-05
5.88262e-05
5.88873e-05
3.26914e-05
9.55957e-06
9.56381e-06
3.26979e-05
5.89576e-05
5.90133e-05
3.26994e-05
9.56766e-06
9.57181e-06
3.27047e-05
5.90818e-05
5.91298e-05
3.27049e-05
9.57554e-06
9.57959e-06
3.27091e-05
5.91956e-05
5.92411e-05
3.27077e-05
9.58325e-06
9.58719e-06
3.27112e-05
5.93023e-05
5.93415e-05
3.27087e-05
9.59073e-06
9.59457e-06
3.27112e-05
5.94001e-05
5.94371e-05
3.27074e-05
9.59803e-06
9.60176e-06
3.27093e-05
5.94911e-05
5.95232e-05
3.27042e-05
9.60512e-06
9.60873e-06
3.27056e-05
5.9573e-05
5.96026e-05
3.26994e-05
9.61202e-06
9.61554e-06
3.26999e-05
5.96507e-05
5.96743e-05
3.26925e-05
9.61871e-06
9.62212e-06
3.26923e-05
5.97216e-05
5.9738e-05
3.26841e-05
9.62521e-06
9.62853e-06
3.2683e-05
5.9789e-05
5.98013e-05
3.26742e-05
9.63151e-06
9.63472e-06
3.26727e-05
5.9841e-05
5.98576e-05
3.2663e-05
9.63763e-06
9.64074e-06
3.2661e-05
5.9892e-05
5.99057e-05
3.26503e-05
9.64356e-06
9.64657e-06
3.26477e-05
5.99378e-05
5.99481e-05
3.26367e-05
9.6493e-06
9.65223e-06
3.26336e-05
5.99795e-05
5.9985e-05
3.26219e-05
9.65487e-06
9.65771e-06
3.26181e-05
6.00143e-05
6.00203e-05
3.26061e-05
9.66029e-06
9.66304e-06
3.2602e-05
6.00446e-05
6.00487e-05
3.25893e-05
9.66553e-06
9.66818e-06
3.25846e-05
6.00707e-05
6.00727e-05
3.25717e-05
9.67061e-06
9.67318e-06
3.25668e-05
6.0093e-05
6.00924e-05
3.2553e-05
9.67553e-06
9.67801e-06
3.2548e-05
6.01106e-05
6.01083e-05
3.25317e-05
9.6803e-06
9.68269e-06
3.25325e-05
6.01239e-05
6.01204e-05
3.25104e-05
9.68493e-06
9.68726e-06
3.25068e-05
6.01356e-05
6.01264e-05
3.24917e-05
9.68942e-06
9.69167e-06
3.24895e-05
6.01437e-05
6.01295e-05
3.24739e-05
9.69367e-06
9.69587e-06
3.24669e-05
6.01471e-05
6.0133e-05
3.24519e-05
9.69784e-06
9.69998e-06
3.24452e-05
6.01487e-05
6.01311e-05
3.24302e-05
9.70189e-06
9.70397e-06
3.24232e-05
6.01466e-05
6.01294e-05
3.24082e-05
9.70583e-06
9.70785e-06
3.24012e-05
6.01429e-05
6.01215e-05
3.23862e-05
9.70965e-06
9.71161e-06
3.23788e-05
6.01352e-05
6.0116e-05
3.23637e-05
9.71336e-06
9.71526e-06
3.23564e-05
6.01271e-05
6.0102e-05
3.23413e-05
9.71695e-06
9.71878e-06
3.23336e-05
6.01143e-05
6.00934e-05
3.23186e-05
9.72044e-06
9.72221e-06
3.23109e-05