/*--------------------------------*- C++ -*----------------------------------*\
| =========                 |                                                 |
| \\      /  F ield         | OpenFOAM: The Open Source CFD Toolbox           |
|  \\    /   O peration     | Version:  v2006                                 |
|   \\  /    A nd           | Website:  www.openfoam.com                      |
|    \\/     M anipulation  |                                                 |
\*---------------------------------------------------------------------------*/
FoamFile
{
    version     2.0;
    format      ascii;
    class       volVectorField;
    location    "0.048";
    object      U;
}
// * * * * * * * * * * * * * * * * * * * * * * * * * * * * * * * * * * * * * //

dimensions      [0 1 -1 0 0 0 0];


internalField   nonuniform List<vector> 
24416
(
(82.3683 -5.32853e-05 -6.55061e-22)
(82.3682 -1.74354e-05 0)
(82.3682 -5.62016e-06 0)
(82.3682 -1.72406e-05 -7.33636e-22)
(82.3683 -2.98586e-05 1.24274e-21)
(82.3684 -4.24453e-05 -2.35043e-22)
(82.3685 -5.75564e-05 0)
(82.3687 -7.20774e-05 1.28609e-22)
(82.3689 -8.77869e-05 1.15535e-22)
(82.3691 -9.8879e-05 -1.28755e-22)
(82.3694 -0.000104086 -9.26543e-25)
(82.3697 -0.000104558 0)
(82.3699 -9.77202e-05 0)
(82.3701 -8.57442e-05 0)
(82.369 -0.000136408 0)
(82.3606 -0.000879444 -1.83311e-23)
(82.3351 -0.00363684 0)
(82.2891 -0.00840471 0)
(82.227 -0.0139817 0)
(82.1545 -0.0194978 0)
(82.0765 -0.0244758 0)
(81.9964 -0.0287269 0)
(81.9161 -0.0322799 0)
(81.8362 -0.0352625 0)
(81.7567 -0.0378156 0)
(81.6771 -0.0400568 0)
(81.5969 -0.0420709 0)
(81.5155 -0.0439107 0)
(81.4327 -0.0456067 0)
(81.3482 -0.0471774 0)
(81.262 -0.0486329 0)
(81.1741 -0.0499792 0)
(81.0846 -0.0512222 0)
(80.9934 -0.0523688 0)
(80.9007 -0.0534275 0)
(80.8067 -0.0544068 0)
(80.7112 -0.0553144 0)
(80.6145 -0.0561575 0)
(80.5165 -0.0569428 0)
(80.4174 -0.0576757 0)
(80.3171 -0.05836 0)
(80.2157 -0.0589986 0)
(80.1133 -0.0595934 0)
(80.01 -0.0601452 0)
(79.9058 -0.0606544 0)
(79.8008 -0.0611212 0)
(79.695 -0.0615449 0)
(79.5885 -0.0619253 0)
(79.4815 -0.0622615 0)
(79.3739 -0.0625527 0)
(79.2659 -0.0627983 0)
(79.1575 -0.0629975 0)
(79.0488 -0.0631496 0)
(78.9399 -0.063254 0)
(78.8309 -0.0633102 0)
(78.7218 -0.063318 0)
(78.6128 -0.0632765 -1.60177e-22)
(78.5039 -0.0631832 0)
(78.3952 -0.0630412 0)
(78.2868 -0.0628553 8.0122e-23)
(78.1787 -0.0626201 0)
(78.0711 -0.0623324 0)
(77.9641 -0.0619941 0)
(77.8577 -0.0616065 0)
(77.7519 -0.0611702 0)
(77.647 -0.0606846 0)
(77.5428 -0.060149 0)
(77.4396 -0.0595619 0)
(77.3374 -0.0589211 0)
(77.2362 -0.0582233 0)
(77.1361 -0.0574644 0)
(77.0373 -0.0566395 0)
(76.9397 -0.0557433 0)
(76.8436 -0.0547714 0)
(76.749 -0.0537217 0)
(76.6561 -0.0525954 0)
(76.565 -0.0513981 0)
(76.4757 -0.0501397 0)
(76.3882 -0.0488306 0)
(76.3023 -0.0474756 0)
(76.2174 -0.0460595 0)
(76.1328 -0.0445322 0)
(76.0475 -0.0427905 0)
(75.9604 -0.0406526 0)
(75.8709 -0.0378469 0)
(75.7793 -0.0340351 -1.4647e-22)
(75.6886 -0.0290182 0)
(75.6049 -0.0230363 0)
(75.5383 -0.0169266 0)
(75.4985 -0.0120276 -9.02095e-23)
(75.489 -0.00949959 -9.68343e-23)
(75.5012 -0.00889994 -1.12825e-22)
(75.522 -0.00888713 -3.52916e-23)
(75.5445 -0.00891663 0)
(75.5671 -0.00892136 0)
(75.5894 -0.0089102 0)
(75.6109 -0.00888229 0)
(75.6308 -0.00896642 -7.20757e-21)
(75.6478 -0.00920117 0)
(75.6589 -0.0102 0)
(75.6602 -0.0122595 0)
(75.637 -0.0114028 0)
(75.598 -0.00805096 0)
(75.528 -0.022017 0)
(75.4009 -0.0423257 -5.35332e-19)
(75.2364 -0.0694725 7.22983e-19)
(75.0239 -0.107672 0)
(74.695 -0.143757 6.01511e-19)
(74.324 -0.162259 -7.87179e-19)
(72.902 -0.223566 0)
(71.9605 -0.197096 0)
(74.3103 -0.253738 0)
(74.7648 -0.235165 -6.19718e-18)
(74.7963 -0.273273 1.22594e-18)
(74.202 -0.291267 -3.84786e-19)
(70.9348 -0.192028 2.39868e-19)
(69.9218 -0.174644 -1.03238e-18)
(74.0448 -0.283347 3.40302e-19)
(74.8147 -0.27795 -1.11758e-18)
(74.8069 -0.262001 1.09106e-18)
(73.8598 -0.255674 8.38376e-20)
(68.9944 -0.151501 8.33868e-19)
(68.1485 -0.129717 -4.81549e-20)
(73.6646 -0.23361 -7.909e-20)
(74.7714 -0.247612 -6.53841e-20)
(74.7143 -0.229757 6.55588e-20)
(73.4302 -0.209097 0)
(67.3889 -0.112148 4.84403e-20)
(66.7046 -0.0999431 0)
(73.1996 -0.190423 -4.95194e-21)
(74.6465 -0.215487 0)
(74.5658 -0.198941 0)
(72.9455 -0.171762 4.95719e-21)
(66.0498 -0.0903532 0)
(65.4469 -0.0840692 -3.03795e-21)
(72.7388 -0.161906 4.94459e-21)
(74.4826 -0.188473 -4.10875e-21)
(74.3921 -0.180572 4.13223e-21)
(72.5307 -0.151818 -4.95417e-21)
(64.8984 -0.0769577 1.5218e-21)
(64.4022 -0.0696549 7.77618e-26)
(72.3263 -0.140279 -1.23916e-21)
(74.3005 -0.172129 0)
(74.2016 -0.165086 5.29982e-19)
(72.1211 -0.131788 1.24006e-21)
(63.9386 -0.063996 1.52297e-21)
(63.5134 -0.0585622 0)
(71.9201 -0.122778 0)
(74.1001 -0.158154 0)
(73.9929 -0.152588 -5.30662e-19)
(71.7198 -0.116535 0)
(63.1107 -0.0545329 0)
(62.7386 -0.0503879 0)
(71.5244 -0.109329 0)
(73.8846 -0.146838 0)
(73.7719 -0.142383 -5.31199e-19)
(71.3301 -0.104723 0)
(62.3823 -0.0474974 0)
(62.0506 -0.0441937 0)
(71.1411 -0.0987236 0)
(73.6595 -0.137593 0)
(73.5435 -0.133877 0)
(70.9529 -0.0953617 0)
(61.7304 -0.0421301 0)
(61.4299 -0.0395134 0)
(70.7698 -0.0905007 0)
(73.4286 -0.129511 -5.31859e-19)
(73.3104 -0.126575 0)
(70.5873 -0.087907 0)
(61.138 -0.0379367 0)
(60.8622 -0.0357951 0)
(70.41 -0.0838378 0)
(73.1943 -0.122766 0)
(73.0748 -0.120393 0)
(70.2328 -0.0818339 0)
(60.593 -0.0345921 0)
(60.3374 -0.0327877 0)
(70.0609 -0.0783033 0)
(72.9583 -0.116987 -5.32572e-19)
(72.8383 -0.115093 0)
(69.8889 -0.0767896 0)
(60.0869 -0.0318803 0)
(59.8479 -0.0303383 0)
(69.722 -0.0736901 0)
(72.7218 -0.112067 0)
(72.602 -0.110278 0)
(69.5548 -0.0724101 0)
(59.6129 -0.0296024 0)
(59.3881 -0.0283663 0)
(69.3926 -0.0699214 0)
(72.4861 -0.107889 -5.33157e-19)
(72.3671 -0.10601 0)
(69.2307 -0.0684883 0)
(59.1671 -0.0275741 0)
(58.9543 -0.0266804 0)
(69.0729 -0.0665871 0)
(72.2523 -0.10408 0)
(72.1318 -0.102883 0)
(68.9129 -0.0657884 0)
(58.7424 -0.0261883 0)
(58.5386 -0.0251737 0)
(68.7578 -0.0637102 0)
(72.0166 -0.101102 -5.33659e-19)
(71.8965 -0.100432 0)
(68.6014 -0.0634354 0)
(58.3363 -0.0249639 0)
(58.141 -0.0239356 0)
(68.4495 -0.0611999 0)
(71.7817 -0.0982082 5.33887e-19)
(71.6619 -0.0978177 0)
(68.2961 -0.0611419 0)
(57.9468 -0.0238235 0)
(57.7589 -0.0228717 0)
(68.147 -0.0590602 0)
(71.5476 -0.0957581 0)
(71.4278 -0.0956361 0)
(67.996 -0.0592034 0)
(57.5716 -0.022853 0)
(57.39 -0.0219443 0)
(67.8493 -0.0571936 0)
(71.3138 -0.0936276 0)
(71.194 -0.0937388 0)
(67.7005 -0.0575128 0)
(57.2087 -0.0220076 0)
(57.0326 -0.0211318 0)
(67.5558 -0.0555572 0)
(71.0802 -0.0917674 0)
(70.9603 -0.0920922 -5.34566e-19)
(67.4089 -0.056033 0)
(56.8566 -0.0212664 0)
(56.6854 -0.0204161 0)
(67.2659 -0.054117 0)
(70.8466 -0.0901424 0)
(70.7265 -0.0906261 0)
(67.1207 -0.0547151 0)
(56.5139 -0.0206067 0)
(56.347 -0.0197866 0)
(66.9792 -0.0528582 0)
(70.6128 -0.0887586 0)
(70.4924 -0.0894042 0)
(66.8353 -0.0535811 0)
(56.1796 -0.0200335 0)
(56.0164 -0.0192306 0)
(66.6951 -0.0517554 0)
(70.3785 -0.0875768 0)
(70.2577 -0.0883871 0)
(66.5522 -0.0525968 0)
(55.8526 -0.0195285 0)
(55.6926 -0.0187383 0)
(66.4129 -0.0507914 0)
(70.1435 -0.0865696 0)
(70.0222 -0.0875075 -5.35254e-19)
(66.2709 -0.0517239 0)
(55.5319 -0.0190755 0)
(55.3748 -0.0182995 0)
(66.1324 -0.0499454 0)
(69.9076 -0.0857202 0)
(69.7857 -0.086769 0)
(65.9911 -0.0509601 0)
(55.2168 -0.0186724 0)
(55.0623 -0.0179014 0)
(65.8531 -0.0491905 0)
(69.6706 -0.0849909 0)
(69.548 -0.0861235 0)
(65.7123 -0.0502689 0)
(54.9067 -0.0183021 0)
(54.7544 -0.0175413 0)
(65.5748 -0.0485214 0)
(69.4323 -0.0843927 0)
(69.3088 -0.0856332 0)
(65.4343 -0.049681 0)
(54.601 -0.0179767 0)
(54.4507 -0.0172188 0)
(65.297 -0.0479383 0)
(69.1923 -0.0839171 0)
(69.0679 -0.0852914 -5.35859e-19)
(65.1567 -0.0491874 0)
(54.2992 -0.01769 0)
(54.1506 -0.0169346 0)
(65.0194 -0.0474451 0)
(68.9506 -0.0835627 0)
(68.8252 -0.0850128 0)
(64.8791 -0.0487476 0)
(54.0007 -0.0174274 0)
(53.8536 -0.0166851 0)
(64.7417 -0.0470345 0)
(68.7068 -0.0833395 0)
(68.5803 -0.0848797 0)
(64.6012 -0.0484076 0)
(53.705 -0.0172074 0)
(53.559 -0.0164642 0)
(64.4636 -0.0466922 0)
(68.4608 -0.0832122 0)
(68.3331 -0.0848749 0)
(64.3226 -0.0481454 0)
(53.4116 -0.0170175 0)
(53.2666 -0.0162767 0)
(64.1846 -0.046431 0)
(68.2123 -0.0831984 0)
(68.0833 -0.0849581 0)
(64.0431 -0.047946 0)
(53.12 -0.016854 0)
(52.9757 -0.0161229 0)
(63.9045 -0.0462508 0)
(67.9612 -0.0833098 0)
(67.8306 -0.0851536 0)
(63.7623 -0.0478247 0)
(52.8297 -0.016724 0)
(52.686 -0.0159941 0)
(63.6229 -0.0461293 0)
(67.707 -0.0835083 0)
(67.575 -0.085402 0)
(63.48 -0.0477412 0)
(52.5404 -0.0166101 0)
(52.397 -0.0158863 0)
(63.3397 -0.0460603 0)
(67.4498 -0.0838033 0)
(67.3161 -0.0858118 0)
(63.1958 -0.0477509 0)
(52.2517 -0.0165335 0)
(52.1084 -0.0158039 0)
(63.0544 -0.0460527 0)
(67.1891 -0.0841811 0)
(67.0537 -0.0862552 0)
(62.9094 -0.0477832 0)
(51.9631 -0.0164652 0)
(51.8198 -0.0157509 0)
(62.7669 -0.046121 0)
(66.9248 -0.0847001 0)
(66.7874 -0.0868933 0)
(62.6206 -0.0479338 0)
(51.6743 -0.0164447 0)
(51.5306 -0.0157247 0)
(62.4766 -0.0462563 0)
(66.6564 -0.0853094 0)
(66.517 -0.0875948 0)
(62.3288 -0.0481207 0)
(51.3848 -0.0164361 0)
(51.2406 -0.0157253 0)
(62.1832 -0.046462 0)
(66.3838 -0.0860407 0)
(66.2423 -0.0883794 0)
(62.0338 -0.0483654 0)
(51.0941 -0.0164514 0)
(50.9492 -0.0157473 0)
(61.8865 -0.0467239 0)
(66.1066 -0.0868751 0)
(65.9628 -0.0892942 0)
(61.7353 -0.0486844 0)
(50.802 -0.0164949 0)
(50.6562 -0.0157899 0)
(61.5861 -0.0470417 0)
(65.8246 -0.0878013 0)
(65.6784 -0.0903148 0)
(61.433 -0.04906 0)
(50.508 -0.0165581 0)
(50.3612 -0.01586 0)
(61.2817 -0.0474327 0)
(65.5374 -0.0888515 0)
(65.3886 -0.0914592 0)
(61.1264 -0.0495099 0)
(50.2118 -0.0166492 0)
(50.0637 -0.015957 0)
(60.9728 -0.0478964 0)
(65.2446 -0.0900213 0)
(65.0931 -0.0927191 0)
(60.8151 -0.0500285 0)
(49.9128 -0.0167652 0)
(49.7632 -0.0160787 0)
(60.659 -0.0484289 0)
(64.946 -0.0913064 0)
(64.7916 -0.0940944 0)
(60.4988 -0.0506147 0)
(49.6107 -0.0169053 0)
(49.4594 -0.0162246 0)
(60.3401 -0.049029 0)
(64.6412 -0.0927061 0)
(64.4837 -0.0955822 0)
(60.1771 -0.0512658 0)
(49.3051 -0.0170681 0)
(49.1518 -0.0163928 0)
(60.0155 -0.0496928 0)
(64.3298 -0.0942137 0)
(64.1692 -0.0971734 0)
(59.8496 -0.0519767 0)
(48.9955 -0.0172512 0)
(48.8401 -0.0165845 0)
(59.685 -0.050425 0)
(64.0116 -0.0958386 0)
(63.8475 -0.0989237 0)
(59.516 -0.0527759 0)
(48.6815 -0.0174647 0)
(48.5238 -0.0168001 0)
(59.3481 -0.0512268 0)
(63.6861 -0.0975775 0)
(63.5185 -0.100712 0)
(59.1758 -0.0535973 0)
(48.3628 -0.017684 0)
(48.2026 -0.0170366 0)
(59.0044 -0.0520864 0)
(63.353 -0.099412 0)
(63.1818 -0.102602 0)
(58.8287 -0.0544855 0)
(48.039 -0.0179259 0)
(47.8762 -0.0172908 0)
(58.6538 -0.0530043 0)
(63.012 -0.101323 0)
(62.8369 -0.104663 0)
(58.4744 -0.0554682 0)
(47.7098 -0.0181981 0)
(47.544 -0.0175767 0)
(58.2955 -0.0540095 0)
(62.6626 -0.103362 0)
(62.4835 -0.106769 0)
(58.1122 -0.056497 0)
(47.3747 -0.0184874 0)
(47.2058 -0.0178724 0)
(57.9295 -0.0550547 0)
(62.305 -0.105597 0)
(62.1215 -0.109048 0)
(57.7421 -0.0575943 0)
(47.0333 -0.018807 0)
(46.8611 -0.0181926 0)
(57.5552 -0.0561544 0)
(61.9384 -0.107931 0)
(61.7502 -0.111476 0)
(57.3636 -0.0587571 0)
(46.6852 -0.0191491 0)
(46.5096 -0.0185417 0)
(57.1722 -0.0573347 0)
(61.5623 -0.110419 0)
(61.3692 -0.114041 0)
(56.976 -0.0599912 0)
(46.33 -0.0195147 0)
(46.1508 -0.0189143 0)
(56.78 -0.0585886 0)
(61.1761 -0.113043 0)
(60.9778 -0.116745 0)
(56.5791 -0.0612999 0)
(45.9674 -0.0199034 0)
(45.7842 -0.019311 0)
(56.3782 -0.0599187 0)
(60.7795 -0.115809 0)
(60.5758 -0.119589 0)
(56.1722 -0.0626831 0)
(45.5967 -0.0203154 0)
(45.4094 -0.0197313 0)
(55.9661 -0.0613232 0)
(60.3719 -0.118712 0)
(60.1626 -0.122569 0)
(55.7549 -0.0641395 0)
(45.2176 -0.0207503 0)
(45.026 -0.020175 0)
(55.5435 -0.0628013 0)
(59.9529 -0.121752 0)
(59.7377 -0.125687 0)
(55.3267 -0.0656693 0)
(44.8297 -0.0212082 0)
(44.6335 -0.0206423 0)
(55.1097 -0.064354 0)
(59.5221 -0.124931 0)
(59.3008 -0.128944 0)
(54.8872 -0.0672741 0)
(44.4326 -0.0216897 0)
(44.2316 -0.0211339 0)
(54.6643 -0.0659831 0)
(59.0788 -0.128253 0)
(58.8512 -0.132347 0)
(54.4358 -0.0689561 0)
(44.0257 -0.0221954 0)
(43.8197 -0.0216504 0)
(54.2069 -0.0676911 0)
(58.6228 -0.131724 0)
(58.3886 -0.135903 0)
(53.9721 -0.0707188 0)
(43.6086 -0.0227263 0)
(43.3973 -0.0221944 0)
(53.7368 -0.0694864 0)
(58.1533 -0.13536 0)
(57.9122 -0.139669 0)
(53.4955 -0.0725926 0)
(43.1808 -0.0232937 0)
(42.964 -0.0227659 0)
(53.2535 -0.0713719 0)
(57.6699 -0.139159 0)
(57.4217 -0.143569 0)
(53.0054 -0.0745332 0)
(42.7417 -0.0238794 0)
(42.5191 -0.0233642 0)
(52.7565 -0.0733432 0)
(57.1721 -0.143126 0)
(56.9164 -0.147594 0)
(52.5013 -0.0765448 0)
(42.291 -0.0244865 0)
(42.0624 -0.0239807 0)
(52.2452 -0.0753789 0)
(56.6593 -0.147221 0)
(56.396 -0.151769 0)
(51.9828 -0.0786303 0)
(41.8281 -0.0251154 0)
(41.5934 -0.0246193 0)
(51.7193 -0.0774878 0)
(56.131 -0.151462 0)
(55.8598 -0.156082 0)
(51.4493 -0.0807861 0)
(41.3528 -0.0257647 0)
(41.1117 -0.025278 0)
(51.1782 -0.0796664 0)
(55.5867 -0.155841 0)
(55.3073 -0.160534 0)
(50.9004 -0.0830123 0)
(40.8646 -0.026434 0)
(40.6169 -0.0259571 0)
(50.6214 -0.0819164 0)
(55.0259 -0.160359 0)
(54.7381 -0.165126 0)
(50.3356 -0.0853108 0)
(40.3631 -0.0271239 0)
(40.1086 -0.0266574 0)
(50.0484 -0.0842398 0)
(54.4481 -0.165019 0)
(54.1515 -0.169861 0)
(49.7544 -0.0876837 0)
(39.8478 -0.0278352 0)
(39.5864 -0.0273795 0)
(49.4588 -0.0866382 0)
(53.8527 -0.169823 0)
(53.5472 -0.174738 0)
(49.1562 -0.0901303 0)
(39.3185 -0.0285678 0)
(39.0499 -0.0281202 0)
(48.852 -0.0891024 0)
(53.2392 -0.174753 0)
(52.9246 -0.179689 0)
(48.5407 -0.0926154 0)
(38.7747 -0.029308 0)
(38.4987 -0.0288803 0)
(48.2278 -0.0916315 0)
(52.6073 -0.179818 0)
(52.2832 -0.184798 0)
(47.9075 -0.0951897 0)
(38.216 -0.0300775 0)
(37.9326 -0.0296579 0)
(47.5855 -0.0942276 0)
(51.9563 -0.184999 0)
(51.6226 -0.190111 0)
(47.256 -0.0978663 0)
(37.6422 -0.0308769 0)
(37.3509 -0.0304562 0)
(46.9247 -0.0969012 0)
(51.2858 -0.190315 0)
(50.9422 -0.1955 0)
(46.5858 -0.100578 0)
(37.0526 -0.0316797 0)
(36.7534 -0.0312682 0)
(46.245 -0.0996286 0)
(50.5955 -0.195745 0)
(50.2419 -0.200939 0)
(45.8966 -0.103321 0)
(36.4471 -0.0324891 0)
(36.14 -0.0320766 0)
(45.5463 -0.102365 0)
(49.8851 -0.2012 0)
(49.5215 -0.206407 0)
(45.1882 -0.106073 0)
(35.8257 -0.0332955 0)
(35.5107 -0.0328797 0)
(44.8284 -0.105102 0)
(49.1546 -0.206666 0)
(48.7808 -0.211865 0)
(44.4608 -0.108815 0)
(35.1884 -0.0340925 0)
(34.8656 -0.0336698 0)
(44.0914 -0.10782 0)
(48.4037 -0.212102 0)
(48.0198 -0.217277 0)
(43.7142 -0.111529 0)
(34.5354 -0.0348734 0)
(34.2049 -0.0344387 0)
(43.3354 -0.110494 0)
(47.6326 -0.217464 0)
(47.2388 -0.22255 0)
(42.9488 -0.114165 0)
(33.867 -0.0356192 0)
(33.529 -0.0351889 0)
(42.5608 -0.113124 0)
(46.8415 -0.222754 0)
(46.4377 -0.227798 0)
(42.1649 -0.116798 0)
(33.1836 -0.0363635 0)
(32.8382 -0.0358988 0)
(41.7677 -0.11567 0)
(46.0306 -0.227866 0)
(45.617 -0.232908 0)
(41.3628 -0.119339 0)
(32.4856 -0.0370612 0)
(32.1331 -0.03659 0)
(40.9567 -0.118165 0)
(45.2002 -0.2329 0)
(44.7771 -0.237827 0)
(40.5429 -0.121784 0)
(31.7734 -0.0377236 0)
(31.4143 -0.037238 0)
(40.1283 -0.120538 0)
(44.351 -0.23771 0)
(43.9187 -0.242556 0)
(39.7061 -0.124127 0)
(31.0478 -0.0383434 0)
(30.6824 -0.0378669 0)
(39.2832 -0.122841 0)
(43.4835 -0.242381 0)
(43.0423 -0.247302 0)
(38.8527 -0.12651 0)
(30.3092 -0.0389678 0)
(29.9378 -0.0389472 0)
(38.4217 -0.125765 0)
(42.5983 -0.247571 0)
(42.149 -0.253246 0)
(37.9828 -0.130317 0)
(29.5524 -0.0411331 0)
(29.1645 -0.0416607 0)
(37.5434 -0.129926 0)
(41.6975 -0.253976 0)
(41.2409 -0.259444 0)
(37.0961 -0.134267 0)
(28.7645 -0.0435974 0)
(28.3631 -0.043742 0)
(36.6484 -0.133557 0)
(40.7823 -0.259786 0)
(40.3186 -0.264921 0)
(36.1928 -0.137673 0)
(27.9509 -0.0453467 0)
(27.5389 -0.0451515 0)
(35.7373 -0.136579 0)
(39.8534 -0.264673 0)
(39.3836 -0.269319 0)
(35.2746 -0.140359 0)
(27.1175 -0.0464783 0)
(26.6977 -0.0460582 0)
(34.8127 -0.138929 0)
(38.9126 -0.26857 0)
(38.4377 -0.272497 0)
(34.3443 -0.142289 0)
(26.2699 -0.0471399 0)
(25.8452 -0.0464759 0)
(33.8777 -0.140393 0)
(37.9623 -0.271038 0)
(37.4836 -0.274398 0)
(33.4055 -0.143392 0)
(25.414 -0.0473737 0)
(24.9875 -0.0464681 0)
(32.9363 -0.140969 0)
(37.0056 -0.272105 0)
(36.5251 -0.274856 0)
(32.4626 -0.143566 0)
(24.5558 -0.0471927 0)
(24.1304 -0.0460888 0)
(31.9931 -0.14065 0)
(36.0461 -0.271749 0)
(35.5658 -0.27366 0)
(31.5203 -0.142758 0)
(23.7013 -0.0466226 0)
(23.2801 -0.0452976 0)
(31.0533 -0.139279 0)
(35.0883 -0.269602 0)
(34.6105 -0.270657 0)
(30.5842 -0.140901 0)
(22.8569 -0.0456507 0)
(22.4433 -0.0441088 0)
(30.1226 -0.13685 0)
(34.137 -0.265605 0)
(33.6643 -0.265772 0)
(29.6602 -0.137971 0)
(22.0292 -0.0442846 0)
(21.6265 -0.042528 0)
(29.2071 -0.133339 0)
(33.1975 -0.259696 0)
(32.7327 -0.258972 0)
(28.7547 -0.133961 0)
(21.2248 -0.042535 0)
(20.8364 -0.0405714 0)
(28.3133 -0.128753 0)
(32.2755 -0.251864 0)
(31.8214 -0.250268 0)
(27.8739 -0.128893 0)
(20.4504 -0.0404239 0)
(20.0793 -0.0382661 0)
(27.4474 -0.123129 0)
(31.3766 -0.242142 0)
(30.9362 -0.239711 0)
(27.0243 -0.122814 0)
(19.712 -0.0379819 0)
(19.3613 -0.0356475 0)
(26.6157 -0.116525 0)
(30.5068 -0.230607 0)
(30.0829 -0.227402 0)
(26.2119 -0.115794 0)
(19.0156 -0.0352483 0)
(18.6878 -0.0327574 0)
(25.8242 -0.109024 0)
(29.6716 -0.21737 0)
(29.2671 -0.213411 0)
(25.4426 -0.107894 0)
(18.3663 -0.0322527 0)
(18.0638 -0.029669 0)
(25.0786 -0.100793 0)
(28.8767 -0.202668 0)
(28.4935 -0.198051 5.496e-19)
(24.7213 -0.0993508 0)
(17.7682 -0.0290904 0)
(17.4927 -0.0264269 0)
(24.3832 -0.0919593 0)
(28.1263 -0.186665 0)
(27.7671 -0.181869 0)
(24.0526 -0.0904229 0)
(17.2247 -0.0258603 0)
(16.9772 -0.0231487 0)
(23.7419 -0.0828448 0)
(27.4249 -0.170093 0)
(27.0915 -0.164795 0)
(23.4392 -0.0814128 0)
(16.7374 -0.0225307 0)
(16.5182 -0.0197542 0)
(23.1569 -0.0738084 0)
(26.7757 -0.152621 5.50146e-19)
(26.4691 -0.147559 0)
(22.8832 -0.0722171 0)
(16.3067 -0.0192389 0)
(16.1156 -0.0165784 0)
(22.6299 -0.0646151 0)
(26.1808 -0.135434 5.50327e-19)
(25.9014 -0.130478 0)
(22.3852 -0.0630665 0)
(15.9319 -0.0161626 0)
(15.7682 -0.013591 0)
(22.1609 -0.0555969 0)
(25.6409 -0.118485 5.50491e-19)
(25.389 -0.113918 0)
(21.9448 -0.0542727 0)
(15.6112 -0.0133079 0)
(15.4733 -0.0108591 0)
(21.7487 -0.0470765 0)
(25.156 -0.102255 5.5064e-19)
(24.9309 -0.0982621 0)
(21.56 -0.0460796 0)
(15.3412 -0.0107358 0)
(15.227 -0.00839386 0)
(21.3907 -0.0391519 0)
(24.7247 -0.086945 5.50775e-19)
(24.5257 -0.0835936 0)
(21.228 -0.0385017 0)
(15.1177 -0.0084312 0)
(15.0252 -0.00624172 0)
(21.0838 -0.0319797 0)
(24.3451 -0.0728403 5.50895e-19)
(24.1709 -0.0701427 0)
(20.9453 -0.0316788 0)
(14.9363 -0.00642483 0)
(14.8629 -0.00438846 0)
(20.8242 -0.0255992 0)
(24.0143 -0.0600085 5.51003e-19)
(23.8631 -0.0583475 0)
(20.7076 -0.0255406 0)
(14.792 -0.00478336 0)
(14.7351 -0.00290197 0)
(20.6073 -0.0198978 0)
(23.7282 -0.0490097 0)
(23.5979 -0.0478163 0)
(20.5102 -0.0202948 0)
(14.6795 -0.00341594 0)
(14.6364 -0.00167922 0)
(20.428 -0.0153026 0)
(23.4829 -0.0392741 0)
(23.371 -0.0388453 0)
(20.3477 -0.0161254 0)
(14.5935 -0.00232961 0)
(14.5612 -0.000821156 0)
(20.2807 -0.0118973 0)
(23.2733 -0.0311007 0)
(23.1771 -0.0315413 0)
(20.2142 -0.0130467 0)
(14.5275 -0.00159505 0)
(14.5033 -0.000249876 0)
(20.1601 -0.00899997 0)
(23.096 -0.024875 0)
(23.0123 -0.0261645 0)
(20.1048 -0.0106863 0)
(14.4765 -0.00123228 0)
(14.4576 -7.85976e-05 0)
(20.0605 -0.00700294 0)
(22.9443 -0.0204995 0)
(22.87 -0.0226832 0)
(20.0133 -0.00919787 0)
(14.4349 -0.00119981 0)
(14.4185 -0.000239893 0)
(19.9755 -0.00603619 0)
(22.8111 -0.0180743 0)
(22.7433 -0.0212679 0)
(19.933 -0.00877565 0)
(14.3968 -0.00151998 0)
(14.3795 -0.000785757 0)
(19.8979 -0.00624869 0)
(22.6896 -0.0178377 0)
(22.6252 -0.0221292 0)
(19.8563 -0.00947758 0)
(14.3546 -0.00218517 0)
(14.3353 -0.00129767 0)
(19.8216 -0.00693887 0)
(22.5731 -0.0199644 0)
(22.4979 -0.0240078 0)
(19.7703 -0.0116353 0)
(14.3022 -0.00428617 -1.00236e-19)
(14.2731 -0.00111804 -5.23789e-24)
(19.7346 -0.0114442 0)
(22.4431 -0.0266094 0)
(22.3652 -0.0323989 1.39574e-19)
(19.6755 -0.0164463 -1.67167e-19)
(14.2301 -0.00458016 1.01655e-19)
(14.1847 -0.0044648 0)
(19.6147 -0.017459 1.68521e-19)
(22.3006 -0.0355746 -1.40233e-19)
(22.2079 -0.0467472 1.47711e-18)
(19.5377 -0.0256466 -3.6062e-19)
(14.1233 -0.0108099 0)
(14.0356 -0.0113519 0)
(19.4508 -0.0265004 3.69848e-19)
(22.1217 -0.0469011 -3.09999e-19)
(22.0988 -0.0392903 3.47257e-19)
(19.4105 -0.0191022 -2.10607e-18)
(13.9689 -0.00521282 -1.03405e-18)
(14.0351 -0.00509713 7.69741e-19)
(19.4509 -0.00818041 -3.43026e-18)
(22.1687 -0.0467655 1.45739e-18)
(22.1693 -0.0571789 -1.54496e-18)
(19.4531 -0.0214738 2.77184e-18)
(14.0887 0.0104728 -8.33484e-19)
(25.1562 -0.116897 0)
(27.2739 -0.245939 5.75726e-19)
(28.8021 -0.421002 -2.55353e-18)
(29.7287 -0.568594 -2.16863e-18)
(30.2656 -0.598378 0)
(31.3404 -0.715769 -5.35266e-19)
(31.9261 -0.827465 1.82296e-23)
(32.6288 -0.938185 -6.68872e-20)
(33.0852 -1.03833 6.65942e-20)
(33.5839 -1.13374 0)
(33.9434 -1.2187 1.65258e-20)
(34.326 -1.2984 -1.64335e-20)
(34.6202 -1.36949 0)
(34.9287 -1.43438 0)
(35.177 -1.49177 0)
(35.4352 -1.54209 0)
(35.6509 -1.58551 0)
(35.8746 -1.62143 0)
(36.0676 -1.65075 -5.04112e-19)
(36.2681 -1.67283 0)
(36.4453 -1.68851 0)
(36.6305 -1.69731 0)
(36.7975 -1.69993 0)
(36.9733 -1.69611 0)
(37.1343 -1.68638 0)
(37.3052 -1.67082 0)
(37.4637 -1.64966 0)
(37.633 -1.62335 0)
(37.7915 -1.59152 0)
(37.9623 -1.55526 0)
(38.1229 -1.51361 0)
(38.2979 -1.46801 0)
(38.4627 -1.41723 0)
(38.6445 -1.36275 0)
(38.8155 -1.30331 0)
(39.0065 -1.24002 -4.90273e-19)
(39.1853 -1.17216 -1.5442e-20)
(39.3871 -1.09984 4.52677e-19)
(39.5728 -1.02402 4.43021e-19)
(39.7833 -0.942599 1.16505e-18)
(39.9688 -0.860253 5.30693e-19)
(40.1775 -0.769884 2.75655e-18)
(40.345 -0.684505 -2.26714e-18)
(40.5207 -0.583107 9.59991e-18)
(40.6154 -0.502313 -1.10964e-17)
(40.6488 -0.428978 -1.84576e-17)
(40.6328 -0.341712 0)
(40.4817 -0.259075 0)
(39.9619 -0.192312 0)
(38.3713 -0.141997 5.16588e-18)
(35.8541 -0.124514 -9.33231e-18)
(28.1797 -0.13244 3.77485e-18)
(27.2742 -0.134004 0)
(35.3459 -0.1624 0)
(38.0243 -0.165946 -8.8978e-18)
(37.7067 -0.174134 -6.36782e-18)
(34.8732 -0.16201 6.256e-18)
(26.3792 -0.131578 0)
(25.5556 -0.0955326 -4.39167e-19)
(34.4451 -0.13443 -7.25259e-19)
(37.4143 -0.155804 -9.66182e-18)
(37.1743 -0.117675 2.39517e-18)
(34.1154 -0.0903457 1.47048e-18)
(24.9329 -0.0539242 -4.53696e-19)
(24.6735 -0.0306908 0)
(33.953 -0.055543 0)
(37.0564 -0.0792767 -2.91125e-19)
(36.9064 -0.0445424 2.17981e-19)
(33.7833 -0.0239138 8.80679e-20)
(24.4211 -0.00806862 2.14605e-19)
(24.4276 -0.000977353 -2.1271e-19)
(33.7491 -0.00970842 0)
(36.8617 -0.0258949 0)
(36.7675 -0.0141556 0)
(33.6631 0.000808214 0)
(24.3768 0.00502488 0)
(24.4412 0.00207536 0)
(33.6727 0.00139658 0)
(36.7488 -0.00877313 0)
(36.664 -0.00150806 0)
(33.5975 0.0085172 0)
(24.3988 0.00800702 0)
(24.4951 0.00703175 0)
(33.6257 0.00955456 0)
(36.6564 0.00179844 0)
(36.5888 0.00299074 0)
(33.5763 0.0117653 0)
(24.5029 0.00956014 0)
(24.6003 0.00557537 0)
(33.615 0.00979517 0)
(36.5859 0.00414575 0)
(36.5141 0.00790496 0)
(33.5618 0.0146424 0)
(24.5861 0.0104923 0)
(24.6976 0.00932935 0)
(33.6015 0.0143321 0)
(36.514 0.00905404 0)
(36.4563 0.00834315 0)
(33.5624 0.0152247 0)
(24.7239 0.0116588 0)
(24.8315 0.00793078 2.1199e-19)
(33.6055 0.0125614 6.94974e-19)
(36.4551 0.00816478 -5.74026e-19)
(36.386 0.0106989 8.95014e-25)
(33.558 0.0168083 -7.0118e-19)
(24.8308 0.0124044 -2.13044e-19)
(24.9494 0.0106941 0)
(33.5988 0.0163301 0)
(36.3849 0.0111601 0)
(36.3274 0.00949082 0)
(33.5618 0.0166596 0)
(24.9842 0.0127099 0)
(25.0962 0.00903473 -4.23828e-19)
(33.6026 0.0136562 1.04183e-18)
(36.3221 0.00848091 -5.73538e-19)
(36.2509 0.0104617 1.00819e-24)
(33.5551 0.0175398 -7.00763e-19)
(25.1019 0.0132586 0)
(25.2235 0.0115533 0)
(33.5922 0.0169994 0)
(36.2445 0.0106805 0)
(36.1831 0.00833942 0)
(33.5533 0.0168773 0)
(25.2619 0.0133713 0)
(25.3749 0.0098038 2.11843e-19)
(33.5879 0.0136522 6.94093e-19)
(36.17 0.00676722 -5.72995e-19)
(36.0938 0.00864546 1.16222e-24)
(33.5373 0.0174024 -7.00306e-19)
(25.3834 0.0138411 -2.12894e-19)
(25.5055 0.0121886 0)
(33.5679 0.0169757 0)
(36.0789 0.00889764 0)
(36.0114 0.00608603 0)
(33.5249 0.0165289 0)
(25.5451 0.0138468 0)
(25.6574 0.0104443 2.11762e-19)
(33.5508 0.0131841 6.93586e-19)
(35.9881 0.0040797 -5.72403e-19)
(35.9049 0.00613563 1.34282e-24)
(33.4957 0.0169939 -6.9981e-19)
(25.6674 0.0143448 -2.12812e-19)
(25.7896 0.0127913 0)
(33.5185 0.0168811 0)
(35.8801 0.00672463 0)
(35.8055 0.0037656 0)
(33.471 0.0162959 0)
(25.8303 0.0143411 0)
(25.9423 0.0111534 2.11676e-19)
(33.4882 0.0129832 6.93035e-19)
(35.7709 0.00157044 -5.71761e-19)
(35.6807 0.0043281 1.51024e-24)
(33.4293 0.0171678 -6.99272e-19)
(25.9553 0.0149968 -2.12725e-19)
(26.0795 0.0136376 0)
(33.446 0.0177702 0)
(35.6463 0.00590589 0)
(35.5661 0.003322 0)
(33.3969 0.017373 0)
(26.1251 0.0151605 0)
(26.2406 0.012335 2.11585e-19)
(33.4086 0.0145735 6.92434e-19)
(35.5215 0.00159182 -5.71062e-19)
(35.4276 0.00607083 1.55605e-24)
(33.3513 0.0199335 -6.98677e-19)
(26.2639 0.016379 -2.12631e-19)
(26.3985 0.015525 0)
(33.3691 0.0224926 0)
(35.3877 0.0102682 0)
(35.308 0.00961903 0)
(33.3279 0.0236624 0)
(26.4641 0.0173182 0)
(26.5999 0.0152442 0)
(33.347 0.023418 0)
(35.2604 0.0108679 0)
(35.1736 0.0215021 0)
(33.3082 0.0325217 0)
(26.6632 0.0216435 0)
(26.8456 0.0252388 0)
(33.3503 0.0408627 0)
(35.1406 0.0355108 0)
(35.0794 0.0446918 0)
(33.3473 0.0477065 0)
(26.9938 0.0331114 0)
(27.2377 0.0387025 0)
(33.4248 0.0521966 0)
(35.0596 0.0613344 0)
(35.0369 0.112319 0)
(33.4931 0.0859912 0)
(27.52 0.0797315 -2.12549e-19)
(27.9358 0.190598 2.13484e-19)
(33.6484 0.206756 1.39993e-18)
(35.0681 0.24622 -1.15021e-18)
(35.0176 0.441264 2.89016e-19)
(33.7017 0.408839 0)
(28.2479 0.407083 0)
(28.4403 0.70368 0)
(33.6395 0.732712 -5.42731e-18)
(34.8572 0.732913 -2.88071e-19)
(34.5505 1.03216 5.22294e-18)
(33.3847 1.05401 -5.82469e-18)
(28.4086 1.00962 7.12053e-18)
(28.3314 1.30773 -6.43964e-19)
(33.0655 1.38479 1.122e-17)
(34.1744 1.33547 -1.90128e-17)
(33.7007 1.55646 -1.97334e-17)
(32.6212 1.62507 9.95094e-18)
(28.1121 1.54491 4.36164e-19)
(27.9703 1.71605 -1.36187e-17)
(32.1842 1.78654 1.24919e-17)
(33.2014 1.71721 -9.08551e-18)
(32.6656 1.90443 -1.19998e-17)
(31.7318 1.96139 1.09519e-17)
(27.8802 1.90653 0)
(27.7813 2.11892 0)
(31.266 2.18631 -9.3305e-18)
(32.1053 2.12167 1.04866e-17)
(31.3635 2.16958 -1.59003e-17)
(30.6339 2.26254 1.64955e-17)
(27.5685 2.16467 0)
(23.9334 2.003 0)
(29.1496 2.22782 -9.86151e-18)
(30.5286 2.18544 9.04137e-18)
(30.3615 2.51832 -1.46612e-18)
(29.3783 2.63918 3.62711e-18)
(25.3085 2.35088 0)
(25.2788 2.49614 3.17327e-17)
(28.8982 2.7969 -2.72469e-17)
(29.7071 2.67135 -9.14489e-18)
(29.0065 2.72399 -1.35484e-17)
(28.3713 2.92109 -2.49902e-17)
(25.5217 2.72954 3.05721e-17)
(25.7067 2.98601 -2.86262e-17)
(27.8774 3.03815 -3.10118e-17)
(28.3386 2.68361 2.14919e-17)
(27.454 2.51825 -2.7973e-18)
(27.2265 3.00032 -6.33184e-18)
(26.2251 3.37172 1.67052e-17)
(25.3824 3.85764 1.43325e-17)
(26.2072 3.2892 -1.19825e-17)
(26.3296 2.6588 4.25581e-22)
(24.8907 2.46776 0)
(24.7931 3.20347 5.30804e-18)
(24.0338 4.11583 -1.07744e-17)
(22.7886 4.2426 -1.93758e-17)
(23.2773 3.07551 4.32923e-17)
(23.2423 2.18722 1.13197e-21)
(21.5519 1.66268 -2.5864e-17)
(21.6263 2.70835 -2.50072e-17)
(21.4134 4.20682 1.98666e-17)
(19.6307 3.97269 3.06526e-17)
(19.9773 2.40932 -1.51159e-17)
(20.2701 1.52761 0)
(18.8034 0.743094 5.86079e-18)
(18.1542 1.68338 7.96542e-19)
(17.6598 3.41348 -1.78726e-17)
(15.3257 2.60131 -1.57553e-17)
(16.0418 0.627215 -7.03936e-19)
(17.005 -0.434857 0)
(15.0153 -2.08785 0)
(13.7848 -1.09203 0)
(12.8071 1.11338 -5.50218e-17)
(10.0914 -1.34022 1.12312e-16)
(11.2693 -3.81488 -4.00496e-17)
(12.8477 -4.98191 1.84807e-17)
(10.4847 -8.83275 -1.41842e-17)
(8.87397 -7.21168 -9.26605e-18)
(7.61219 -4.40367 -3.31705e-17)
(4.74976 -9.28613 0)
(6.82458 -11.7321 -8.60163e-21)
(8.44828 -13.0733 6.07303e-18)
(7.54694 -16.2661 -7.85832e-18)
(5.47067 -15.7206 -1.32536e-17)
(2.09386 -14.1014 8.18687e-17)
(0.00579526 -19.8805 -7.304e-17)
(5.15996 -20.3602 0)
(7.76478 -20.119 0)
(9.15069 -25.9487 2.93212e-17)
(6.08847 -26.2328 -3.99611e-17)
(-1.36981 -26.5079 7.7233e-18)
(-2.11479 -33.354 0)
(7.05039 -31.877 0)
(9.89309 -30.9526 2.48038e-17)
(11.4437 -34.8326 -1.55886e-17)
(8.78038 -36.4604 -4.11034e-17)
(-2.10755 -39.989 6.73778e-18)
(-0.680054 -46.9035 0)
(13.1957 -41.043 -3.36023e-17)
(15.5365 -38.8952 9.67045e-17)
(18.6781 -43.1956 9.44131e-17)
(16.6583 -45.3532 -1.0387e-16)
(1.44831 -53.3943 -1.53768e-16)
(4.21683 -59.1379 1.52117e-16)
(20.3783 -48.0566 0)
(21.8104 -45.9152 -2.47404e-17)
(26.6151 -48.7727 1.72674e-17)
(25.5354 -50.6918 5.11279e-17)
(7.938 -65.0256 5.58005e-17)
(11.1846 -70.7276 -6.55774e-17)
(28.993 -53.9259 -1.89344e-18)
(29.9416 -52.1322 2.2387e-18)
(33.2347 -55.0571 -2.41515e-17)
(32.5722 -57.0232 0)
(14.1627 -76.8156 1.78197e-17)
(17.9031 -83.2211 -2.91224e-17)
(34.4847 -64.1557 4.37126e-17)
(36.7461 -59.598 -1.54869e-17)
(39.6222 -67.2045 7.82342e-18)
(36.2118 -72.319 -4.15875e-17)
(22.3282 -88.4559 1.19691e-17)
(26.9244 -91.5792 1.48377e-17)
(39.1352 -77.6016 -5.40988e-17)
(42.8675 -72.5709 3.05005e-17)
(49.3496 -74.8294 -5.22484e-17)
(44.4715 -80.038 5.21484e-17)
(32.0657 -92.8952 6.58615e-17)
(37.2663 -91.6972 -5.54943e-17)
(49.4748 -79.1944 1.16017e-17)
(53.9278 -76.0796 -3.29201e-17)
(57.098 -74.9163 -1.55334e-17)
(52.951 -76.6646 -2.71929e-17)
(41.7811 -88.2056 5.63396e-17)
(46.244 -82.2312 -7.54827e-17)
(57.7217 -71.5825 3.92195e-17)
(62.9066 -71.407 1.00721e-19)
(65.8048 -67.6349 5.1625e-17)
(60.8399 -65.3681 0)
(49.5242 -74.3968 1.44022e-17)
(51.5648 -65.308 -6.92532e-17)
(62.204 -58.2951 1.4544e-17)
(66.7283 -62.2405 0)
(69.1453 -57.9073 0)
(63.4198 -51.063 1.39168e-17)
(52.2066 -55.3796 1.9396e-17)
(51.6109 -46.5287 0)
(63.0471 -44.3405 0)
(68.9675 -51.5699 0)
(66.8141 -46.0346 -2.68915e-17)
(60.7183 -39.2131 2.42768e-17)
(49.7453 -39.46 1.33037e-17)