/*--------------------------------*- C++ -*----------------------------------*\
| =========                 |                                                 |
| \\      /  F ield         | OpenFOAM: The Open Source CFD Toolbox           |
|  \\    /   O peration     | Version:  v2006                                 |
|   \\  /    A nd           | Website:  www.openfoam.com                      |
|    \\/     M anipulation  |                                                 |
\*---------------------------------------------------------------------------*/
FoamFile
{
    version     2.0;
    format      ascii;
    class       volScalarField;
    location    "0.019";
    object      k;
}
// * * * * * * * * * * * * * * * * * * * * * * * * * * * * * * * * * * * * * //

dimensions      [0 2 -2 0 0 0 0];


internalField   nonuniform List<scalar> 
16277
(
77.9517
77.9508
77.9463
77.9461
77.9421
77.9246
77.8773
77.788
77.6501
77.4717
77.2635
77.037
76.7986
76.5518
76.2978
76.0363
75.7664
75.4868
75.1966
74.8951
74.5821
74.2578
73.9222
73.5756
73.2182
72.8501
72.4716
72.0827
71.6839
71.2754
70.8575
70.4306
69.995
69.5512
69.0996
68.6407
68.1748
67.7026
67.2245
66.741
66.2527
65.7601
65.2637
64.7641
64.2619
63.7577
63.2519
62.7453
62.2384
61.7318
61.226
60.7218
60.2195
59.72
59.2238
58.7313
58.2434
57.7605
57.2832
56.8122
56.3479
55.891
55.442
55.0014
54.5698
54.1475
53.7352
53.3333
52.9421
52.5621
52.1936
51.8371
51.493
51.1617
50.8437
50.5391
50.2474
49.9672
49.6958
49.4306
49.1706
48.9213
48.7017
48.544
48.4649
48.4472
48.4579
48.4773
48.4916
48.4911
48.4816
48.4217
48.2789
48.0355
47.5286
46.6919
42.4351
38.0733
44.6742
46.9507
45.3034
40.5285
33.9988
31.1613
38.3137
44.0403
41.6711
34.8442
28.4915
26.807
33.4531
40.6647
38.475
30.8546
25.0743
24.0256
29.9904
37.6909
35.9105
28.152
22.8541
22.1674
27.6526
35.3434
33.9235
26.4085
21.3476
20.8711
26.0829
33.4864
32.3182
25.1561
20.2539
19.9025
24.9301
31.9792
30.9868
24.1957
19.41
19.1358
24.0316
30.7152
29.8489
23.4209
18.725
18.5027
23.2971
29.6256
28.8543
22.7712
18.1481
17.9618
22.6751
28.6675
27.9718
22.2103
17.6474
17.4866
22.1335
27.8136
27.1796
21.714
17.2019
17.0597
21.6513
27.0443
26.4625
21.2665
16.7972
16.6686
21.2142
26.3454
25.8067
20.8568
16.4231
16.3047
20.8123
25.7039
25.2006
20.4764
16.0724
15.9617
20.4375
25.1092
24.6357
20.1188
15.7399
15.635
20.0843
24.5539
24.1062
19.7797
15.4214
15.3209
19.7486
24.0327
23.6079
19.4559
15.1137
15.0163
19.4275
23.5415
23.1368
19.1449
14.8143
14.7191
19.1185
23.0764
22.6887
18.8442
14.521
14.4272
18.8192
22.6327
22.2589
18.5514
14.2321
14.139
18.5269
22.2058
21.8429
18.2638
13.9461
13.8534
18.2393
21.7916
21.4372
17.9795
13.6622
13.5695
17.9544
21.387
21.0398
17.6971
13.3796
13.2868
17.6713
20.9903
20.6497
17.416
13.098
13.005
17.3894
20.6007
20.2666
17.136
12.8171
12.7236
17.1086
20.2183
19.8906
16.8569
12.5363
12.4423
16.8287
19.8431
19.5218
16.5787
12.2552
12.1603
16.5497
19.4749
19.1597
16.301
11.9732
11.8772
16.2711
19.1134
18.8039
16.0234
11.6896
11.5924
15.9925
18.7582
18.4539
15.7454
11.4041
11.3054
15.7135
18.4084
18.1087
15.4666
11.1162
11.016
15.4334
18.0633
17.7676
15.1864
10.8257
10.724
15.152
17.7221
17.4298
14.9045
10.5325
10.4296
14.8692
17.384
17.095
14.6214
10.2371
10.1333
14.585
17.0489
16.7629
14.3367
9.94013
9.83575
14.2993
16.7165
16.4333
14.0505
9.64222
9.53775
14.0123
16.3866
16.1061
13.7634
9.34438
9.24043
13.7246
16.0592
15.7816
13.4757
9.04784
8.94517
13.4366
15.7346
15.4598
13.1884
8.75421
8.65376
13.1496
15.4132
15.1421
12.9029
8.46553
8.36851
12.8651
15.0964
14.8297
12.6212
8.18436
8.09219
12.5851
14.7853
14.524
12.3455
7.91373
7.82808
12.312
14.4817
14.2272
12.0786
7.65717
7.57997
12.0488
14.1879
13.9418
11.8236
7.4187
7.35211
11.7989
13.9063
13.6702
11.5842
7.20272
7.14917
11.5657
13.6396
13.4156
11.3663
7.01415
6.97733
11.3503
13.3908
13.1802
11.1632
6.86194
6.84035
11.15
13.1615
12.9649
10.9766
6.74862
6.74297
10.9675
12.9527
12.7713
10.8111
6.68031
6.68793
10.8067
12.7656
12.6003
10.6698
6.65567
6.67654
10.6705
12.6012
12.4546
10.5528
6.66745
6.7162
10.5579
12.4614
12.3331
10.4538
6.72307
6.79858
10.4625
12.3455
12.234
10.3728
6.81995
6.91681
10.3847
12.2503
12.1521
10.3095
6.94968
7.06263
10.3252
12.1722
12.0871
10.2651
7.10454
7.22964
10.2859
12.111
12.0392
10.2416
7.27867
7.41335
10.267
12.067
12.0083
10.2388
7.46741
7.60818
10.2724
12.04
11.993
10.2522
7.6645
7.80694
10.2966
12.0289
11.9902
10.2817
7.86331
8.00372
10.3367
12.0305
11.9969
10.3262
8.0583
8.19352
10.3901
12.041
12.0107
10.3833
8.2447
8.3719
10.4542
12.0584
12.0296
10.4499
8.41845
8.53534
10.5256
12.0797
12.0514
10.5209
8.5764
8.68082
10.5955
12.1007
12.0714
10.59
8.71528
8.8056
10.6623
12.1166
12.0851
10.6558
8.83295
8.90862
10.725
12.1259
12.0913
10.7172
8.92881
8.99019
10.7826
12.128
12.09
10.7735
9.00359
9.05172
10.8344
12.1223
12.0809
10.8239
9.05901
9.09545
10.8801
12.1092
12.0639
10.8681
9.09748
9.12335
10.9193
12.0894
12.0393
10.9058
9.12166
9.13868
10.9517
12.0621
12.008
10.9366
9.13439
9.14492
10.9772
12.0285
11.9712
10.96
9.13854
9.14495
10.9967
11.9897
11.9299
10.977
9.13588
9.14036
11.0106
11.9466
11.8852
10.9886
9.12768
9.13148
11.0193
11.9003
11.8378
10.9949
9.11668
9.11988
11.0228
11.8516
11.7883
10.9965
9.10347
9.10638
11.022
11.8008
11.7369
10.9941
9.08898
9.09173
11.0173
11.7483
11.6841
10.9878
9.07366
9.07634
11.009
11.6944
11.6301
10.9781
9.05785
9.06048
10.9974
11.6393
11.5748
10.9651
9.04163
9.04423
10.9825
11.583
11.5184
10.949
9.02509
9.02768
10.9648
11.5256
11.4609
10.9303
9.00837
9.01107
10.9447
11.4673
11.4028
10.9093
8.99154
8.9946
10.923
11.4087
11.3436
10.8871
8.97503
8.97844
10.8985
11.3511
11.2844
10.8589
8.9572
8.97027
10.8733
11.2951
11.2383
10.8713
8.9635
8.98909
10.8461
11.2285
11.2277
10.8869
9.03238
9.1382
10.6878
11.189
11.7855
11.3008
9.63334
9.62887
10.1149
10.6835
12.674
14.9787
17.4147
19.5012
20.9555
22.9309
24.177
25.2592
25.987
26.5164
26.7805
26.7991
26.5614
26.0075
25.1993
23.7644
22.7553
20.7124
18.8608
16.9008
14.8896
13.443
11.9948
11.9867
7.81864
7.57623
11.9577
11.9556
11.9376
11.9593
7.37018
7.21843
11.972
11.9373
11.9896
12.0095
7.12284
7.12501
12.0327
12.0055
12.0437
12.0385
7.05364
7.05439
12.0537
12.0706
12.093
12.0702
7.06072
7.06869
12.0786
12.1183
12.1349
12.0952
7.07958
7.09001
12.1091
12.1638
12.1778
12.1228
7.10158
7.11392
12.1412
12.2093
12.2238
12.1524
7.12601
7.13959
12.175
12.2568
12.2721
12.1858
7.15157
7.16607
12.2087
12.3055
12.3212
12.2199
7.17876
7.19354
12.2417
12.3562
12.3723
12.2574
7.2069
7.22163
12.2757
12.4084
12.4254
12.2949
7.2364
7.25107
12.3136
12.4627
12.4802
12.3335
7.26607
7.28114
12.3511
12.5187
12.5371
12.3729
7.29714
7.31243
12.3921
12.5771
12.5959
12.4139
7.32845
7.34431
12.4327
12.6372
12.6569
12.4559
7.36122
7.37741
12.4767
12.6998
12.72
12.4999
7.39431
7.41113
12.5204
12.7643
12.7855
12.5449
7.42889
7.4461
12.5676
12.8317
12.8536
12.5919
7.46396
7.48211
12.6189
12.901
12.9237
12.6393
7.49995
7.51898
12.668
12.9734
12.997
12.6917
7.53715
7.55679
12.7229
13.0477
13.0721
12.7439
7.57521
7.59553
12.7762
13.1251
13.1502
12.8012
7.61438
7.63518
12.8358
13.204
13.2299
12.8583
7.65428
7.67565
12.894
13.2858
13.3124
12.9208
7.69513
7.71681
12.9589
13.3688
13.396
12.9833
7.73642
7.75855
13.0226
13.4543
13.482
13.0516
7.77839
7.80058
13.0931
13.5402
13.5681
13.1193
7.82027
7.84269
13.1619
13.6274
13.6553
13.1928
7.86236
7.88449
13.2371
13.7133
13.7408
13.265
7.90366
7.92554
13.3096
13.7984
13.8252
13.3412
7.94429
7.96542
13.3867
13.8797
13.9051
13.4143
7.98315
8.00346
13.4582
13.9571
13.9805
13.489
8.02033
8.03908
13.5262
14.0271
14.048
13.5577
8.0557
8.07249
13.59
14.0885
14.1058
13.6188
8.08803
8.10331
13.6429
14.1372
14.1498
13.6673
8.11824
8.13176
13.6828
14.1711
14.1779
13.6967
8.14552
8.15862
13.7034
14.1858
14.185
13.7047
8.17199
8.18482
13.696
14.1866
14.1682
13.6825
8.19857
8.2126
13.6577
14.1605
14.1257
13.6183
8.22831
8.24655
13.5731
14.1102
14.058
13.5125
8.26702
8.29265
13.4406
14.0332
13.9663
13.3542
8.32304
8.36086
13.2573
13.9343
13.8543
13.1423
8.40615
8.46325
13.0236
13.8156
13.7284
12.8747
8.53126
8.61715
12.7351
13.6881
13.6015
12.5593
8.71795
8.84485
12.3993
13.5624
13.4894
12.205
8.99472
9.18314
12.026
13.459
13.4181
11.8099
9.40669
9.66187
11.6551
13.409
13.3935
11.5596
9.88636
10.0997
11.362
13.4038
13.3928
11.1559
10.3169
10.4713
11.0223
13.498
13.4968
10.9761
10.6315
10.7786
10.7482
13.6602
13.7129
10.6813
10.9374
11.0861
10.6487
13.9752
14.0939
10.6694
11.1965
11.3175
10.8419
14.4869
14.6587
10.929
11.475
11.6507
11.3005
15.1848
15.5245
11.7315
11.7889
12.0082
12.6827
16.3937
16.7096
13.3184
12.2309
10.6313
9.47798
10.3608
14.2263
11.2676
10.8232
10.7143
10.6036
14.0191
14.2343
10.4117
10.9801
11.1989
10.1219
14.0271
14.4641
10.1766
11.4561
11.684
10.1072
14.4591
15.2116
10.4589
11.8855
12.0647
10.5543
15.2756
16.3573
11.316
12.2815
12.5006
11.7021
16.7414
18.4413
13.0956
12.8918
13.2254
13.9576
19.1229
10.8415
9.29944
12.2638
12.2944
11.4311
16.5403
16.8078
11.3455
12.159
12.3039
12.222
18.6524
19.169
12.4781
12.4074
12.6438
13.4894
20.6797
21.3996
14.0843
12.9518
13.5315
15.7588
23.2226
23.5847
16.937
14.2548
12.7168
10.5178
12.8803
20.5362
12.9909
12.7421
12.7157
12.9854
20.9708
22.9626
14.2938
13.1082
13.4165
14.7211
23.3413
26.1918
17.2183
14.2142
15.2309
19.0706
27.0887
14.9758
11.2836
13.228
13.4398
15.0863
25.1425
26.3447
15.9386
13.5456
14.2876
19.1006
30.402
31.9961
21.0162
15.1474
16.7708
24.2284
33.7644
19.1738
13.317
13.593
14.2889
19.1258
32.0604
33.0496
20.0537
14.616
16.3982
25.9079
38.9599
40.8294
29.0755
17.9768
14.2303
15.7334
25.2188
41.8095
25.7644
15.8627
16.7307
28.0272
44.6645
53.2685
37.3909
19.8415
21.397
40.3998
54.9586
39.1558
23.5576
16.0946
20.9028
43.0868
60.4296
63.234
47.1576
23.0698
16.9461
28.3766
48.9846
74.487
56.0534
25.125
28.8567
62.8793
79.4828
71.1634
44.2903
18.9038
37.0297
81.2404
94.2913
89.1533
65.4573
20.8614
36.9738
89.0228
105.368
107.392
89.0785
37.3127
39.506
87.8068
105.602
101.798
86.3622
42.9706
56.1868
95.874
102.292
77.8581
53.9237
39.2032
45.4036
71.1384
82.5224
58.2392
41.9927
32.0356
33.5437
51.7627
65.1576
59.162
43.2548
29.7455
24.4796
24.5511
36.2031
48.0695
37.2193
27.0853
22.711
24.794
32.7851
43.0002
31.9863
23.9732
21.6611
27.5834
39.3065
23.5036
18.0354
20.107
21.145
24.6893
34.7615
31.7151
21.7995
19.3559
18.8257
15.3227
18.9256
29.2182
20.5608
19.2682
18.08
18.645
26.5035
16.2187
13.9547
17.9932
17.9208
17.8323
25.1458
22.5888
16.3868
17.221
17.501
12.8378
14.2083
21.8058
15.8232
16.8432
16.4369
14.5674
19.6336
12.6114
11.7774
17.0136
15.9542
14.2978
19.3026
17.363
13.1898
15.6959
16.5352
10.9608
11.4747
17.2877
13.0117
15.1815
15.1097
12.0353
15.6578
10.5969
10.2641
16.0105
14.5962
12.3056
16.1
13.8304
11.1826
14.4533
14.8644
10.1631
12.0057
8.9841
8.97684
16.2101
13.7584
9.79034
12.1852
11.2733
9.30854
14.2095
15.5829
8.51966
8.31354
11.0458
8.93492
13.1651
13.7536
8.72319
10.2083
7.73794
8.12396
15.1931
12.7635
8.26198
9.8343
9.28501
8.17503
13.434
15.0471
7.78049
7.21999
9.16454
7.84212
12.5383
13.2452
7.83832
8.64033
6.94791
7.60311
14.8886
12.288
7.33689
8.42883
8.04562
7.40377
13.0659
14.8505
7.45023
6.59631
7.93545
7.03831
12.0921
12.9238
7.12734
7.57705
6.36421
7.36763
14.7215
12.05
6.6763
7.28438
7.02901
6.71615
13.063
15.0669
7.29664
6.01209
6.86134
6.63012
12.3416
13.9921
6.90721
5.8682
7.49444
6.6108
11.5728
12.4494
6.60776
7.04366
6.11729
7.30704
14.309
11.7627
6.63467
7.17513
6.84724
6.56261
12.6855
14.533
7.34234
6.02464
7.10058
6.62511
11.8837
12.8449
6.47378
6.71623
6.0117
7.63584
14.85
12.1327
6.40999
6.5546
6.25076
6.20293
13.1317
15.0647
7.70803
5.76956
6.2426
6.23639
12.1241
13.2831
6.04793
5.86134
5.63483
7.94699
15.5102
12.4835
5.65338
5.90154
5.41242
7.08716
14.5219
11.8996
5.87436
5.97734
5.561
5.72879
12.9307
14.9336
7.6505
5.40572
5.73183
5.83082
12.1722
13.3554
5.67392
5.22132
5.30248
8.06487
15.6077
12.5395
5.25835
5.26778
4.99511
6.954
14.7035
11.8288
5.48089
5.42564
5.0335
5.42984
12.9758
15.1823
7.71417
5.10235
5.40802
5.60901
12.3041
13.6381
5.55401
4.962
5.18155
8.23468
16.0826
12.8715
5.06383
4.97685
4.83487
7.01776
15.1836
12.1405
5.31924
5.19057
4.76821
5.31893
13.4193
15.7663
7.92435
4.94
5.05523
5.38597
12.6917
14.1038
5.37478
4.63858
5.03504
8.44186
16.7136
13.2433
4.8312
4.61549
4.61729
7.05552
15.6925
12.3485
5.00341
4.81054
4.44704
5.15024
13.8042
16.4408
8.41119
4.88073
4.53962
4.76411
13.1022
15.9203
7.15328
4.58871
4.77712
5.00661
12.5736
14.0331
5.07704
4.39707
4.892
8.57803
16.7086
13.3074
4.842
4.50914
4.58073
7.22403
15.9753
12.5486
4.96923
4.72962
4.38808
5.14465
14.1452
17.0736
8.80034
4.92675
4.53415
4.84407
13.5531
16.5745
7.41835
4.63533
4.75548
5.00879
12.985
14.5991
5.21681
4.40249
4.99343
8.94511
17.4106
13.8283
4.8576
4.53164
4.66143
7.53333
16.8025
13.3213
5.03889
4.74423
4.39297
5.21759
15.0353
18.1808
9.29307
5.06569
4.54884
4.84089
14.3783
17.7203
8.29847
4.92609
4.55266
4.60597
13.8482
16.5222
7.51371
4.69889
4.79033
5.03916
13.1262
14.8275
5.30626
4.45416
5.11832
9.33204
18.006
14.3197
4.99369
4.60463
4.7984
7.93489
17.6312
13.9091
5.14771
4.82249
4.48091
5.43477
15.7592
19.1126
9.81721
5.25102
4.64634
5.0246
15.1964
18.6545
8.61733
5.07972
4.61719
4.70543
14.7068
17.5129
7.83899
4.80774
4.84044
5.15681
13.8192
15.6572
5.40493
4.50111
5.31473
9.93943
19.1255
15.2397
5.12392
4.71224
5.16621
8.67877
18.8611
14.9003
4.74601
4.71279
4.96699
8.20181
17.9132
14.2513
5.29176
4.96662
4.65472
5.67715
16.1519
19.5497
10.2358
5.48728
4.84935
5.28169
15.6613
19.5034
9.02344
5.34598
4.82015
4.89878
15.3364
18.4536
8.43623
5.09227
5.04893
5.40493
14.5669
16.514
5.75352
4.72694
5.62142
10.5582
20.1952
16.0966
5.43428
4.95687
5.48557
9.27402
19.9077
15.8243
5.07452
4.94342
5.26891
8.78137
18.9616
15.0357
5.56407
5.16774
4.85254
5.9648
17.1643
21.1467
10.9716
5.84462
5.10305
5.56784
17.0113
21.1842
9.61639
5.6827
5.03939
5.08708
16.6144
19.9854
9.13568
5.42342
5.2316
5.67358
15.6629
17.773
6.0582
4.90164
5.95528
11.3619
21.7042
17.2919
5.72126
5.18147
5.80319
9.94829
21.5289
16.7801
5.19251
5.11649
5.688
9.42872
20.528
16.3479
5.23766
5.09637
5.55491
9.3815
19.8534
15.732
5.7878
5.33344
5.05617
6.31006
17.973
22.2884
11.7815
6.17776
5.36549
5.98172
17.988
22.5933
10.3741
6.05669
5.30767
5.48092
17.8099
21.5344
9.88194
5.91305
5.26203
5.44232
16.9802
20.5728
9.80682
5.75968
5.48417
6.00764
16.3475
18.6776
6.43297
5.17544
6.38972
12.123
23.1738
18.5678
6.11514
5.50135
6.23753
10.7183
23.3422
18.2793
5.59511
5.45694
6.11378
10.1846
22.2167
17.6034
5.61735
5.42712
5.9791
10.2261
21.2853
16.962
6.2435
5.64689
5.37084
6.73981
19.3183
23.9434
12.6528
6.69572
5.69575
6.39504
19.2956
24.328
11.1518
6.51166
5.643
5.77686
19.138
23.4905
10.7544
6.39023
5.61969
5.87709
18.5632
22.5155
10.6959
6.21932
5.79025
6.43397
17.7652
20.3226
7.02544
5.51881
6.984
13.1785
25.203
20.2171
6.60008
5.86857
6.78723
11.5909
25.2277
19.723
5.95867
5.80642
6.63263
11.1315
24.1648
19.2372
6.04599
5.78896
6.57523
11.0078
23.6871
18.8935
6.13355
5.80201
6.47576
11.036
22.9588
18.4128
6.78678
6.00997
5.76732
7.39001
21.1153
26.4591
13.9737
7.37494
6.09615
6.93467
21.1708
26.7916
12.2397
7.15499
6.04315
6.24609
20.9137
25.5031
11.6861
6.96249
5.99129
6.26896
20.149
24.7447
11.5435
6.8416
6.01428
6.41163
19.8144
24.1049
11.5715
6.71927
6.23144
7.02922
19.1529
21.8644
7.57296
5.9599
7.64119
14.3533
27.2261
21.5909
7.15756
6.34541
7.50197
12.7968
27.311
21.3966
6.64551
6.35616
7.34242
12.2048
26.3982
20.9081
6.62633
6.3255
7.26001
12.1382
25.6307
20.5238
6.81939
6.36971
7.13565
12.0688
24.9859
20.0235
7.41835
6.55867
6.32029
8.10145
22.9032
28.6624
15.214
8.1309
6.64695
7.60972
23.093
29.1676
13.4082
7.8979
6.58342
6.89968
23.0533
28.2871
12.8282
7.72716
6.5504
6.84976
22.3625
27.3717
12.7103
7.61522
6.5651
7.01067
21.7426
26.2837
12.7497
7.45789
6.78608
7.71314
20.8419
23.9043
8.41702
6.54055
8.47286
15.8891
29.9016
23.9502
7.93044
6.90523
8.28674
14.0373
30.269
23.7441
7.21115
6.85439
8.05474
13.3265
29.1351
23.1067
7.18762
6.84358
8.01567
13.2403
28.3485
22.6743
7.38813
6.87972
7.89126
13.3445
27.57
21.9873
8.10234
7.05655
6.83434
8.94389
25.3971
31.9999
16.9352
9.03178
7.20526
8.34105
25.5424
32.3311
14.9577
8.78999
7.08548
7.56281
25.2329
30.9451
14.1218
8.49236
7.0295
7.47605
24.5658
30.1717
13.9683
8.36965
7.0988
7.61659
24.0436
29.4688
13.971
8.39636
7.1848
7.81582
23.5752
28.6968
14.0005
8.24699
7.37458
8.45996
22.6982
26.2622
9.27992
7.14268
9.42731
17.5576
33.0202
26.2723
8.78995
7.58484
9.1917
15.5082
33.0614
25.8965
8.00392
7.50729
8.963
14.8059
31.7257
25.0869
8.02749
7.51292
8.89651
14.7132
30.7088
24.5735
8.30029
7.60002
8.77581
14.607
29.8334
23.8136
8.91076
7.75562
7.53662
9.82463
27.6611
34.8323
18.59
10.0405
8.00252
9.32507
27.7479
34.9271
16.4596
9.80072
7.86164
8.51079
27.5806
33.844
15.68
9.49499
7.79782
8.40373
26.8047
32.7064
15.4783
9.37629
7.80898
8.57479
26.1247
31.9044
15.4652
9.16244
7.96584
9.27713
25.1826
29.2881
10.2217
7.73559
10.4945
19.6493
36.7777
29.1069
9.80668
8.27626
10.1922
17.2432
36.4765
28.5665
8.87219
8.15239
9.90111
16.39
34.8513
27.6164
8.82815
8.10953
9.76801
16.1433
33.9122
27.0389
8.98517
8.15421
9.60664
16.1583
33.1974
26.345
9.72324
8.31657
8.11262
10.828
30.7597
38.7192
20.7503
11.0823
8.7174
10.3413
30.8198
38.8266
18.3478
10.8603
8.58288
9.44006
30.3716
37.2727
17.5293
10.539
8.52211
9.39839
29.4056
36.2146
17.2538
10.4122
8.53871
9.51301
28.765
35.5062
17.2387
10.1789
8.68708
10.2278
28.0852
32.7673
11.3262
8.4625
11.6422
21.8543
40.8469
32.4258
10.9115
9.12162
11.3677
19.2308
40.3169
31.4947
9.94399
9.01145
11.0618
18.2858
38.8661
30.5934
9.91571
8.9852
10.8646
18.3098
38.0534
30.2532
10.8758
9.08354
8.89259
12.1239
35.4291
44.2214
23.6182
12.6024
9.59664
11.6245
34.95
43.5149
20.5269
12.1277
9.372
10.4348
33.946
41.8706
19.5455
11.6997
9.26591
10.364
32.5889
40.2559
19.3541
11.3542
9.321
11.242
31.6734
37.1372
12.523
9.1123
13.0323
24.667
46.2083
36.3974
12.0589
9.88442
12.5498
21.3867
45.6052
35.163
10.7536
9.70344
12.2084
20.4923
43.8935
34.4517
10.9045
9.67872
12.0096
20.5178
42.7522
33.6965
11.9181
9.74416
9.59227
13.4296
39.6425
49.2526
26.3854
13.9932
10.3882
12.8502
38.5894
48.593
22.854
13.3879
10.1491
11.4052
37.4711
46.4828
21.6578
12.8662
10.0409
11.408
36.2955
45.234
21.544
12.4978
10.096
12.3593
35.6889
41.9934
13.764
9.90321
14.4674
27.3477
51.9349
40.4592
13.2762
10.8163
14.0222
24.1593
51.1458
39.4794
12.1329
10.6919
13.5888
22.8741
49.1524
38.5065
12.0718
10.6719
13.3885
22.9596
48.0612
38.0339
13.2877
10.7501
10.6101
14.9698
44.7877
55.3725
29.6032
15.7175
11.5797
14.4311
43.0665
54.0029
25.6706
15.0197
11.3137
13.0136
41.723
52.0635
24.5443
14.2828
11.1791
13.8093
40.7607
47.7274
15.1466
10.9978
16.5086
31.546
59.6722
45.6401
15.0746
12.0406
15.7902
27.1807
57.2501
44.2935
13.62
11.8463
15.2261
25.8204
55.3792
43.2423
13.4684
11.7992
14.933
25.8097
54.0797
42.5399
14.7369
11.8367
11.7418
16.644
49.9928
62.0549
33.44
17.6536
12.8744
16.3551
48.1445
60.6369
28.9919
16.9254
12.6961
14.688
47.0424
58.8765
27.8413
16.1472
12.5591
15.6033
45.6609
53.823
17.448
12.408
18.7769
35.6447
67.4933
52.2312
17.1754
13.6072
17.9907
31.0854
65.4617
50.5515
15.6959
13.4195
17.1676
29.7225
62.8593
49.1287
16.5974
13.2796
13.2008
18.7281
57.4917
71.0609
38.1994
20.0568
14.424
18.5737
54.6616
68.5512
33.2916
18.9728
14.0433
17.6162
52.8865
61.9276
19.5553
13.8801
21.1644
40.0873
76.8312
58.2325
18.9709
15.1069
20.3634
35.2885
73.8946
56.8373
17.6131
14.7764
19.2792
33.573
70.8121
55.301
18.4845
14.512
14.4368
20.9672
64.7867
80.0549
42.5792
22.3671
15.784
20.4413
61.8108
77.2281
36.8827
20.9759
15.1447
19.1848
59.4161
69.3452
21.2509
14.9948
23.3359
44.6655
85.6915
65.4189
21.0118
16.3647
21.9574
38.7662
82.0041
62.6011
20.353
15.7572
15.6393
22.9155
73.8
92.2388
48.2972
24.9959
17.2191
22.2823
69.7346
86.8341
41.4334
23.2945
16.3155
21.0589
66.1106
77.0593
23.4454
16.1794
25.7185
49.6234
95.008
72.3581
23.0195
17.6868
24.0944
42.688
90.2281
69.1667
21.951
16.9331
16.8356
24.4993
81.0111
100.662
52.2673
26.947
18.452
23.3231
74.3816
95.3614
45.3264
25.3868
17.5154
23.0863
72.7393
84.9205
25.498
17.3861
28.033
54.6833
105.067
79.892
25.1237
19.0969
26.1715
46.8446
99.393
75.9761
23.7728
18.2471
18.1608
26.5804
88.4129
109.201
57.0989
29.2776
19.9203
26.2615
82.8029
103.397
48.865
27.2193
18.8898
24.7572
78.1256
90.3838
26.4029
18.6705
29.7963
59.6255
114.34
86.5731
28.0068
20.1295
19.8978
30.1554
100.266
123.836
64.178
32.7862
21.9258
28.9679
93.5341
115.572
54.1742
30.2224
20.5194
26.8884
87.6485
101.238
29.9398
20.4534
32.7016
65.1255
124.422
94.4335
30.9342
21.8925
21.4786
31.5449
108.361
135.971
69.6243
34.8501
22.7209
32.2884
101.963
117.633
33.8479
22.3228
37.4742
74.2246
144.824
107.67
32.5563
24.4921
34.1424
61.8212
131.909
98.9212
30.0552
22.7361
22.6636
33.3131
113.591
138.921
72.9737
36.3948
24.0834
34.2743
104.63
119.473
34.4952
23.63
38.2362
76.318
150.269
112.357
35.3346
24.9023
24.5356
37.3568
129.066
158.913
81.7815
40.3835
25.9727
37.3108
117.797
133.893
38.7224
25.5739
41.7274
83.5505
162.906
121.359
38.153
26.7095
26.373
39.7387
138.5
170.311
85.878
42.901
27.2425
38.8292
126.14
142.363
46.0304
27.7143
27.9846
50.2256
165.118
199.755
102.013
49.4548
29.6076
43.9036
144.995
163.204
44.4275
28.8728
47.7041
97.2128
196.486
143.078
42.311
29.0619
28.9349
46.5832
158.879
183.058
51.7638
29.107
52.8433
112.795
224.317
161.02
46.4131
30.7335
31.0477
53.196
177.252
201.763
57.5826
31.4114
56.4311
119.123
237.3
166.262
48.4134
32.2004
31.913
53.4633
187.489
214.545
58.3777
31.7452
57.4319
124.3
258.546
182.092
50.2017
32.3188
31.1021
48.7074
198.001
226.909
69.3049
33.3488
32.2598
57.4606
239.642
288.258
144.921
63.5874
34.4316
54.8772
202.169
221.88
56.0918
33.365
33.6098
68.6294
247.276
267.062
61.5913
31.8352
33.8034
78.9462
289.388
303.933
75.4404
31.7997
64.7006
151.257
339.6
213.011
54.3039
32.5155
30.971
53.5179
223.842
245.851
65.6751
30.7899
30.0066
65.0873
261.872
273.996
66.8531
29.5251
29.3845
72.1031
275.95
272.863
75.4825
29.2985
29.2773
78.5008
265.58
253.035
82.3552
29.4034
29.5417
85.3046
239.502
225.971
89.1152
29.9281
30.316
92.8789
212.91
200.652
97.765
31.1633
31.8462
102.466
189.489
179.41
107.048
33.1575
34.1669
111.485
170.351
162.238
115.801
35.8388
37.1615
119.96
154.987
148.585
123.942
39.1501
41.0272
127.316
142.909
137.907
130.506
43.554
45.8435
133.193
133.468
129.566
135.818
48.6862
51.0434
138.252
126.129
123.132
140.619
53.9586
56.372
142.781
120.501
118.222
144.87
59.3507
61.8224
146.746
116.235
114.534
148.542
64.863
67.3962
150.118
113.061
111.814
151.609
70.4892
73.0794
152.871
110.739
109.84
154.046
76.2344
78.8609
154.997
109.071
108.436
155.853
82.0582
84.6223
156.522
107.892
107.449
157.12
87.6822
90.0967
157.545
107.071
106.769
157.913
92.9759
95.2033
158.123
106.511
106.309
158.29
97.8746
99.8851
158.319
106.138
106.007
158.291
102.321
104.091
158.198
105.892
105.815
158.072
106.28
107.803
157.803
105.738
105.687
157.604
109.733
111.013
157.217
105.644
105.612
156.921
112.686
113.734
156.451
105.591
105.569
156.071
115.16
115.989
155.541
105.554
105.527
155.096
117.185
117.823
154.528
105.508
105.47
154.037
118.804
119.27
153.449
105.443
105.39
152.925
120.058
120.381
152.332
105.353
105.287
151.788
120.99
121.201
151.203
105.241
105.161
150.648
121.65
121.776
150.076
105.106
105.018
149.521
122.082
122.146
148.968
104.957
104.861
148.422
122.333
122.346
147.891
104.791
104.691
147.361
122.419
122.399
146.85
104.616
104.512
146.344
122.404
122.337
145.851
104.431
104.327
145.373
122.312
122.197
144.902
104.243
104.138
144.453
122.137
121.957
144.003
104.053
103.948
143.574
121.872
121.651
143.146
103.864
103.759
142.733
121.551
121.305
142.329
103.675
103.571
141.93
121.195
120.938
141.552
103.488
103.386
141.167
120.826
120.57
140.813
103.303
103.204
140.443
120.453
120.207
140.117
103.123
103.027
139.764
120.091
119.868
139.463
102.948
102.854
139.13
119.75
119.548
138.858
102.78
102.691
138.545
119.439
119.259
138.298
102.62
102.535
138.007
119.161
119.004
137.788
102.471
102.391
137.521
118.919
118.787
137.327
102.333
102.259
137.085
118.716
118.607
136.915
102.207
102.139
136.698
118.552
118.467
136.551
102.094
102.032
136.358
118.426
118.364
136.233
101.994
101.939
136.063
118.338
118.297
135.957
101.909
101.859
135.809
118.285
118.265
135.721
101.836
101.793
135.594
118.265
118.263
135.522
101.776
101.741
135.412
118.276
118.289
135.356
101.729
101.704
135.263
118.311
118.342
135.22
101.697
101.681
135.142
118.371
118.417
135.11
101.679
101.672
135.047
118.454
118.512
135.023
101.674
101.675
134.975
118.556
118.626
134.959
101.682
101.687
134.925
118.675
118.756
134.916
101.701
101.711
134.894
118.809
118.9
134.892
101.732
101.746
134.884
118.957
119.058
134.888
101.773
101.791
134.889
119.118
119.226
134.899
101.823
101.845
134.905
119.288
119.403
134.925
101.882
101.906
134.935
119.467
119.586
134.963
101.947
101.975
134.976
119.651
119.774
135.011
102.02
102.051
135.029
119.841
119.967
135.07
102.098
102.132
135.09
120.034
120.161
135.137
102.182
102.218
135.16
120.228
120.357
135.211
102.271
102.31
135.236
120.424
120.553
135.292
102.366
102.407
135.319
120.619
120.748
135.379
102.465
102.508
135.408
120.814
120.942
135.471
102.568
102.613
135.501
121.007
121.134
135.567
102.675
102.722
135.598
121.198
121.324
135.667
102.784
102.833
135.7
121.387
121.51
135.77
102.897
102.947
135.804
121.572
121.693
135.876
103.012
103.063
135.911
121.753
121.872
135.984
103.128
103.18
136.019
121.93
122.046
136.094
103.246
103.298
136.129
122.103
122.216
136.205
103.365
103.417
136.24
122.27
122.38
136.316
103.484
103.536
136.351
122.433
122.539
136.427
103.603
103.656
136.462
122.59
122.692
136.537
103.723
103.775
136.572
122.741
122.84
136.647
103.842
103.894
136.682
122.886
122.981
136.756
103.96
104.012
136.79
123.026
123.117
136.863
104.078
104.13
136.898
123.159
123.247
136.97
104.196
104.248
137.003
123.287
123.371
137.074
104.313
104.365
137.107
123.41
123.49
137.177
104.431
104.482
137.209
123.526
123.603
137.278
104.548
104.599
137.31
123.637
123.71
137.377
104.665
104.717
137.408
123.742
123.812
137.474
104.783
104.834
137.505
123.842
123.908
137.57
104.901
104.952
137.6
123.937
123.999
137.663
105.019
105.07
137.693
124.026
124.085
137.756
105.137
105.188
137.785
124.11
124.167
137.847
105.255
105.305
137.876
124.19
124.244
137.937
105.372
105.421
137.965
124.266
124.315
138.026
105.488
105.536
138.054
124.335
124.384
138.115
105.602
105.648
138.142
124.401
124.455
138.206
105.715
105.76
138.234
124.473
124.516
138.291
105.825
105.865
138.319
124.533
124.574
138.386
105.935
105.968
138.403
124.59
124.624
138.46
106.078
106.107
138.474
124.632
124.649
138.532
106.193
106.221
138.551
124.695
124.709
138.403
106.324
106.221
138.122
124.872
124.64
137.702
106.497
107.19
137.504
124.515
124.572
137.885
107.594
116.116
71.4943
42.2413
39.4784
40.3915
44.5359
48.0324
53.6209
55.8044
62.9793
67.0387
68.3291
68.5899
68.0939
67.3799
66.7922
66.4543
66.3466
66.4022
66.5511
66.7415
66.9407
67.1306
67.3027
67.4533
67.5824
67.6897
67.7772
67.8444
67.8939
67.9266
67.9459
67.9546
67.9636
67.9802
68.0039
68.0342
68.0696
68.11
68.1543
68.2033
68.2572
68.3168
68.3831
68.4576
68.5595
68.7169
68.9277
69.167
69.4107
69.6455
69.8681
70.0795
70.2815
70.4753
70.6612
70.8393
71.0092
71.1703
71.3223
71.465
71.5984
71.723
71.8394
71.9484
72.051
72.148
72.2402
72.3285
72.4136
72.4962
72.577
72.6566
72.7355
72.8142
72.8933
72.9731
73.054
73.1363
73.2203
73.3061
73.3938
73.4833
73.5746
73.6676
73.7619
73.8573
73.9534
74.0498
74.1461
74.2419
74.3367
74.43
74.5214
74.6107
74.6974
74.7813
74.8621
74.9395
75.0135
75.0838
75.1502
75.2126
75.2708
75.3247
75.3743
75.4194
75.4603
75.4968
75.5289
75.5568
75.5804
75.6002
75.6164
75.6294
75.6392
75.6459
75.6493
75.6506
75.65
75.6471
75.6428
75.6367
75.6302
75.6228
75.6151
75.6074
75.5999
75.5927
75.5869
75.5849
75.5847
75.5857
75.5891
75.5957
75.6054
75.6182
75.6343
75.6541
75.6779
75.7062
75.7391
75.7768
75.8196
75.8676
75.921
75.98
76.0445
76.1147
76.1903
76.2713
76.3575
76.4484
76.5438
76.643
76.7455
76.8506
76.9577
77.0659
77.1743
77.2823
77.3891
77.4938
77.5958
77.6946
77.7895
77.8801
77.9662
78.0473
78.1235
78.1945
78.2602
78.3209
78.3764
78.4269
78.4726
78.5137
78.5502
78.5825
78.6107
78.635
78.6556
78.6725
78.6857
78.6952
78.6998
78.7005
78.6968
78.6882
78.6742
78.6545
78.6289
78.5972
78.5595
78.5161
78.4673
78.4138
78.3565
78.2967
78.2361
78.1769
78.1226
78.0768
78.0421
78.0165
77.9966
77.9789
77.9627
77.9639
77.9639
77.9571
77.9335
77.88
77.7865
77.6519
77.4823
77.2858
77.0692
76.837
76.5919
76.3348
76.0656
75.7841
75.4899
75.1829
74.8631
74.5311
74.187
73.8314
73.4646
73.0869
72.6986
72.2999
71.8912
71.4728
71.045
70.6083
70.1631
69.7097
69.2486
68.7804
68.3055
67.8245
67.3378
66.846
66.3498
65.8495
65.346
64.8397
64.3312
63.8211
63.3102
62.7988
62.2877
61.7775
61.2687
60.7619
60.2578
59.757
59.2599
58.7673
58.2796
57.7975
57.3214
56.8519
56.3895
55.9348
55.4883
55.0503
54.6215
54.2023
53.793
53.3942
53.0061
52.6293
52.2639
51.9105
51.5695
51.2411
50.9259
50.6237
50.3341
50.0557
49.7866
49.525
49.2715
49.0332
48.8269
48.673
48.5793
48.5311
48.5027
48.4803
48.4391
48.2887
47.4784
45.985
44.9079
44.5166
43.3991
43.0916
41.9896
41.7454
40.6878
40.5003
39.4786
39.3395
38.3533
38.2551
37.3037
37.2406
36.3233
36.2908
35.407
35.4015
34.5565
34.5697
33.7581
33.7861
33.0045
33.0455
32.2918
32.3441
31.6159
31.6798
30.9762
31.0501
30.368
30.4501
29.7858
29.874
29.224
29.3166
28.6777
28.7731
28.1432
28.2404
27.6182
27.7165
27.1014
27.2007
26.5933
26.6934
26.094
26.1949
25.6039
25.7053
25.123
25.2247
24.6511
24.7529
24.1877
24.2894
23.7321
23.8332
23.2832
23.3834
22.84
22.9389
22.4018
22.4991
21.968
22.0636
21.5383
21.6318
21.1124
21.2035
20.69
20.7789
20.2717
20.3585
19.8584
19.9432
19.4512
19.5345
19.0519
19.1342
18.6624
18.7443
18.2849
18.3671
17.9217
18.005
17.5758
17.6611
17.2502
17.3388
16.9488
17.0413
16.6738
16.771
16.4261
16.5288
16.2083
16.3184
16.0262
16.1458
15.8826
16.0109
15.7701
15.9068
15.6863
15.8317
15.63
15.7837
15.5985
15.7598
15.5878
15.7555
15.5928
15.7652
15.6074
15.7824
15.6261
15.8022