/*--------------------------------*- C++ -*----------------------------------*\
| =========                 |                                                 |
| \\      /  F ield         | OpenFOAM: The Open Source CFD Toolbox           |
|  \\    /   O peration     | Version:  v2006                                 |
|   \\  /    A nd           | Website:  www.openfoam.com                      |
|    \\/     M anipulation  |                                                 |
\*---------------------------------------------------------------------------*/
FoamFile
{
    version     2.0;
    format      ascii;
    class       volScalarField;
    location    "0.019";
    object      rho;
}
// * * * * * * * * * * * * * * * * * * * * * * * * * * * * * * * * * * * * * //

dimensions      [1 -3 0 0 0 0 0];


internalField   nonuniform List<scalar> 
16277
(
1.72497
1.72492
1.72494
1.72497
1.72499
1.72503
1.72506
1.72508
1.72512
1.72516
1.7252
1.72525
1.7253
1.72535
1.7254
1.72545
1.72551
1.72557
1.72563
1.72569
1.72575
1.72582
1.72589
1.72596
1.72604
1.72611
1.72619
1.72627
1.72636
1.72644
1.72653
1.72662
1.72671
1.7268
1.7269
1.72699
1.72709
1.72719
1.72729
1.72739
1.72749
1.72759
1.7277
1.7278
1.72791
1.72801
1.72812
1.72822
1.72833
1.72844
1.72854
1.72865
1.72875
1.72886
1.72896
1.72907
1.72917
1.72927
1.72937
1.72947
1.72957
1.72967
1.72976
1.72985
1.72994
1.73003
1.73012
1.7302
1.73029
1.73037
1.73044
1.73052
1.73059
1.73066
1.73073
1.73079
1.73085
1.73091
1.73096
1.73102
1.73106
1.73111
1.73115
1.73118
1.73121
1.73123
1.73123
1.73124
1.73123
1.73125
1.73124
1.73128
1.73132
1.73141
1.73157
1.73167
1.7316
1.73145
1.73162
1.73163
1.7316
1.73155
1.73134
1.73123
1.73149
1.73156
1.73151
1.73142
1.73114
1.73106
1.73136
1.73146
1.73141
1.7313
1.73101
1.73097
1.73126
1.73138
1.73135
1.73123
1.73094
1.73091
1.7312
1.73132
1.7313
1.73117
1.73089
1.73088
1.73115
1.73128
1.73126
1.73114
1.73088
1.73088
1.73113
1.73126
1.73125
1.73113
1.73089
1.7309
1.73113
1.73125
1.73125
1.73113
1.73091
1.73093
1.73114
1.73126
1.73127
1.73115
1.73095
1.73097
1.73117
1.73128
1.73129
1.73118
1.731
1.73102
1.7312
1.73131
1.73132
1.73121
1.73104
1.73107
1.73123
1.73134
1.73136
1.73125
1.73109
1.73111
1.73127
1.73137
1.73139
1.73129
1.73113
1.73116
1.73131
1.73141
1.73143
1.73133
1.73118
1.73121
1.73135
1.73145
1.73147
1.73137
1.73124
1.73126
1.73139
1.73149
1.73151
1.73142
1.7313
1.73133
1.73145
1.73154
1.73157
1.73148
1.73136
1.7314
1.73151
1.73159
1.73162
1.73154
1.73144
1.73148
1.73157
1.73165
1.73169
1.73161
1.73152
1.73156
1.73165
1.73172
1.73176
1.73169
1.7316
1.73164
1.73173
1.7318
1.73184
1.73177
1.73169
1.73173
1.73181
1.73188
1.73192
1.73185
1.73178
1.73183
1.7319
1.73196
1.732
1.73194
1.73188
1.73192
1.73199
1.73205
1.7321
1.73204
1.73197
1.73202
1.73208
1.73214
1.73219
1.73213
1.73207
1.73212
1.73218
1.73223
1.73229
1.73223
1.73217
1.73222
1.73228
1.73233
1.73238
1.73233
1.73228
1.73233
1.73238
1.73243
1.73249
1.73244
1.73239
1.73245
1.73249
1.73254
1.7326
1.73256
1.73252
1.73257
1.73261
1.73265
1.73272
1.73268
1.73264
1.73269
1.73273
1.73277
1.73284
1.7328
1.73276
1.73282
1.73285
1.73289
1.73296
1.73292
1.73288
1.73294
1.73297
1.73301
1.73307
1.73304
1.73301
1.73307
1.73309
1.73313
1.7332
1.73316
1.73314
1.7332
1.73322
1.73325
1.73332
1.73329
1.73327
1.73333
1.73335
1.73337
1.73345
1.73342
1.73341
1.73347
1.73348
1.7335
1.73358
1.73356
1.73355
1.73362
1.73362
1.73364
1.73371
1.7337
1.7337
1.73377
1.73377
1.73378
1.73385
1.73385
1.73386
1.73394
1.73392
1.73392
1.734
1.734
1.73402
1.7341
1.73407
1.73407
1.73415
1.73416
1.73419
1.73427
1.73424
1.73422
1.73431
1.73432
1.73436
1.73444
1.7344
1.73438
1.73446
1.73448
1.73453
1.7346
1.73456
1.73453
1.73461
1.73463
1.73468
1.73475
1.73471
1.73468
1.73475
1.73478
1.73482
1.73488
1.73484
1.73482
1.73488
1.7349
1.73494
1.73499
1.73495
1.73493
1.73498
1.735
1.73503
1.73506
1.73503
1.73501
1.73505
1.73507
1.73509
1.73511
1.73509
1.73507
1.73509
1.7351
1.73512
1.73511
1.7351
1.73509
1.73509
1.7351
1.73511
1.73509
1.73509
1.73508
1.73507
1.73507
1.73507
1.73504
1.73504
1.73504
1.735
1.735
1.735
1.73496
1.73496
1.73496
1.7349
1.73491
1.73491
1.73486
1.73486
1.73485
1.73479
1.7348
1.7348
1.73474
1.73473
1.73473
1.73466
1.73467
1.73468
1.73461
1.7346
1.73459
1.73453
1.73454
1.73454
1.73447
1.73446
1.73445
1.73439
1.7344
1.7344
1.73432
1.73432
1.73431
1.73424
1.73425
1.73425
1.73417
1.73417
1.73416
1.73409
1.7341
1.7341
1.73402
1.73402
1.73402
1.73395
1.73396
1.73396
1.73388
1.73388
1.73388
1.73382
1.73383
1.73382
1.73375
1.73376
1.73375
1.7337
1.7337
1.7337
1.73363
1.73364
1.73364
1.73359
1.73359
1.73358
1.73352
1.73354
1.73354
1.7335
1.7335
1.73349
1.73343
1.73345
1.73345
1.73342
1.73341
1.7334
1.73336
1.73337
1.73338
1.73335
1.73335
1.73334
1.7333
1.73331
1.73332
1.7333
1.7333
1.73329
1.73326
1.73327
1.73328
1.73326
1.73326
1.73325
1.73323
1.73324
1.73324
1.73323
1.73323
1.73322
1.7332
1.73321
1.73322
1.73321
1.73321
1.7332
1.73319
1.7332
1.7332
1.7332
1.73319
1.73319
1.73318
1.73318
1.73319
1.73319
1.73318
1.73318
1.73317
1.73318
1.73319
1.73318
1.73318
1.73317
1.73316
1.73317
1.73318
1.73318
1.73317
1.73316
1.73316
1.73317
1.73318
1.73318
1.73317
1.73316
1.73316
1.73317
1.73318
1.73318
1.73317
1.73315
1.73315
1.73316
1.73317
1.73317
1.73316
1.73315
1.73315
1.73316
1.73317
1.73317
1.73316
1.73314
1.73314
1.73316
1.73317
1.73317
1.73315
1.73314
1.73314
1.73315
1.73317
1.73316
1.73315
1.73313
1.73313
1.73315
1.73316
1.73316
1.73314
1.73312
1.73312
1.73314
1.73315
1.73314
1.73313
1.73311
1.7331
1.73312
1.73314
1.73313
1.73311
1.73308
1.73307
1.7331
1.73312
1.7331
1.73308
1.73306
1.73304
1.73307
1.73309
1.73307
1.73305
1.73302
1.733
1.73303
1.73305
1.73303
1.73301
1.73297
1.73296
1.73299
1.73301
1.73297
1.73295
1.73293
1.73296
1.73298
1.73299
1.73302
1.733
1.73303
1.73277
1.73269
1.7327
1.73276
1.7329
1.73298
1.73301
1.73301
1.73301
1.73301
1.73301
1.73301
1.73301
1.73301
1.73301
1.733
1.733
1.733
1.73299
1.73299
1.73297
1.73295
1.73293
1.73289
1.73287
1.73283
1.7328
1.7328
1.73278
1.7328
1.73283
1.7328
1.73276
1.73273
1.73271
1.73275
1.73279
1.7328
1.73276
1.73272
1.73274
1.73278
1.73281
1.73282
1.73279
1.73275
1.73277
1.73281
1.73285
1.73286
1.73283
1.73279
1.73281
1.73284
1.73288
1.73289
1.73286
1.73283
1.73284
1.73287
1.7329
1.73291
1.73289
1.73286
1.73287
1.7329
1.73292
1.73293
1.73291
1.73288
1.7329
1.73292
1.73294
1.73295
1.73293
1.73291
1.73292
1.73294
1.73296
1.73297
1.73295
1.73293
1.73294
1.73296
1.73298
1.73298
1.73296
1.73295
1.73296
1.73297
1.73299
1.73299
1.73298
1.73296
1.73297
1.73298
1.733
1.733
1.73299
1.73298
1.73298
1.73299
1.73301
1.73301
1.733
1.73299
1.73299
1.733
1.73301
1.73302
1.733
1.733
1.733
1.73301
1.73302
1.73302
1.73301
1.73301
1.73301
1.73301
1.73302
1.73302
1.73301
1.73301
1.73302
1.73301
1.73302
1.73302
1.73302
1.73302
1.73302
1.73302
1.73302
1.73302
1.73302
1.73302
1.73302
1.73301
1.73302
1.73302
1.73301
1.73302
1.73302
1.73301
1.73301
1.73301
1.73301
1.73302
1.73302
1.73301
1.73301
1.73301
1.73301
1.73302
1.73301
1.733
1.733
1.733
1.733
1.73301
1.73301
1.73299
1.73299
1.73299
1.73299
1.73301
1.733
1.73299
1.73298
1.73298
1.73298
1.733
1.73299
1.73297
1.73297
1.73297
1.73297
1.73299
1.73298
1.73296
1.73296
1.73295
1.73296
1.73298
1.73297
1.73295
1.73294
1.73294
1.73294
1.73297
1.73296
1.73293
1.73293
1.73292
1.73292
1.73295
1.73294
1.73291
1.73291
1.7329
1.7329
1.73293
1.73292
1.73289
1.73288
1.73287
1.73288
1.73291
1.7329
1.73287
1.73286
1.73285
1.73285
1.73289
1.73288
1.73284
1.73283
1.73282
1.73283
1.73286
1.73285
1.73281
1.73281
1.7328
1.7328
1.73283
1.73282
1.73278
1.73279
1.73277
1.73277
1.7328
1.73278
1.73275
1.73276
1.73275
1.73273
1.73276
1.73274
1.73271
1.73273
1.73272
1.7327
1.73272
1.7327
1.73268
1.7327
1.73269
1.73266
1.73268
1.73266
1.73264
1.73268
1.73266
1.73263
1.73264
1.73261
1.7326
1.73264
1.73263
1.73259
1.73259
1.73257
1.73256
1.73261
1.7326
1.73254
1.73254
1.73251
1.73252
1.73258
1.73256
1.73249
1.73248
1.73244
1.73246
1.73254
1.73252
1.73244
1.73241
1.73237
1.7324
1.73249
1.73247
1.73237
1.73232
1.73227
1.73234
1.73245
1.73243
1.73231
1.73222
1.73218
1.73229
1.73242
1.7324
1.73227
1.73214
1.73209
1.73224
1.73237
1.73231
1.73218
1.73204
1.73195
1.7321
1.73225
1.73221
1.73206
1.73191
1.73184
1.73202
1.73218
1.7322
1.73204
1.73183
1.73186
1.73207
1.73223
1.73227
1.7321
1.73186
1.73189
1.73215
1.73232
1.73236
1.73218
1.7319
1.73194
1.73224
1.73242
1.7325
1.73231
1.73206
1.73221
1.73236
1.73256
1.73259
1.73232
1.73238
1.7327
1.7322
1.7326
1.73266
1.73219
1.73309
1.73337
1.73243
1.73283
1.73304
1.73273
1.73355
1.73331
1.73222
1.73221
1.73276
1.73265
1.73196
1.73253
1.73273
1.73293
1.73299
1.73279
1.73245
1.73254
1.73282
1.73304
1.73309
1.73286
1.73264
1.73286
1.73289
1.73312
1.73319
1.73297
1.73337
1.73404
1.73302
1.73325
1.73335
1.73303
1.73465
1.73478
1.73307
1.73345
1.73369
1.73329
1.73464
1.73459
1.73355
1.73401
1.73325
1.73344
1.7341
1.73291
1.73376
1.73379
1.73394
1.7338
1.73367
1.73359
1.73389
1.73403
1.73416
1.73403
1.73377
1.73387
1.73412
1.73424
1.73435
1.73422
1.73396
1.73425
1.73446
1.73456
1.7347
1.73466
1.73438
1.73381
1.73426
1.73445
1.73478
1.73461
1.73369
1.73354
1.73504
1.73508
1.73528
1.73526
1.73312
1.73309
1.73545
1.73541
1.73549
1.73557
1.7335
1.73418
1.73587
1.73548
1.73561
1.73484
1.73327
1.73461
1.7353
1.73562
1.73596
1.73595
1.73414
1.7343
1.73604
1.73607
1.7362
1.73633
1.73492
1.73574
1.73652
1.73614
1.73626
1.73599
1.7359
1.73775
1.73627
1.7363
1.73652
1.73646
1.73751
1.73759
1.73666
1.73684
1.73726
1.73687
1.73769
1.73709
1.73737
1.73691
1.73759
1.73765
1.73714
1.73766
1.73779
1.73786
1.73827
1.73822
1.73803
1.73841
1.73854
1.73855
1.73884
1.73876
1.7386
1.73922
1.73933
1.73936
1.73974
1.7398
1.73972
1.7401
1.74024
1.74028
1.74089
1.74099
1.74096
1.74177
1.74169
1.74147
1.74258
1.74268
1.74268
1.74431
1.74396
1.74341
1.74348
1.74406
1.74427
1.74513
1.74446
1.7438
1.7436
1.74438
1.74504
1.74223
1.74226
1.74188
1.73935
1.73944
1.73862
1.73556
1.73632
1.73647
1.73475
1.73413
1.73299
1.73318
1.7335
1.73365
1.73284
1.73229
1.73136
1.73198
1.73231
1.73251
1.73209
1.73169
1.73089
1.73082
1.73161
1.73129
1.73155
1.7309
1.73097
1.7313
1.73126
1.73136
1.73143
1.73124
1.73136
1.73115
1.73096
1.73118
1.73084
1.73076
1.73082
1.7308
1.73099
1.73116
1.73111
1.7309
1.73063
1.73038
1.73057
1.7308
1.73116
1.731
1.73062
1.7305
1.73085
1.73108
1.73073
1.7305
1.73027
1.73081
1.73115
1.73124
1.73111
1.73089
1.73053
1.73026
1.73048
1.73071
1.73129
1.73124
1.73095
1.73059
1.73092
1.73113
1.73073
1.7305
1.73029
1.73097
1.73127
1.73131
1.73121
1.73105
1.73078
1.73037
1.73056
1.7308
1.73134
1.73128
1.73099
1.73077
1.73106
1.73123
1.73087
1.73064
1.73045
1.73108
1.7314
1.73143
1.73128
1.73116
1.73096
1.73022
1.73103
1.73107
1.7303
1.73139
1.73056
1.73203
1.73087
1.73177
1.73113
1.73077
1.73207
1.73295
1.7311
1.73075
1.7313
1.73127
1.73256
1.73159
1.73107
1.73116
1.73107
1.73116
1.73132
1.73172
1.73165
1.73154
1.73131
1.73121
1.73155
1.73149
1.73097
1.7309
1.73144
1.73145
1.73158
1.73129
1.73115
1.73127
1.73088
1.73072
1.73054
1.73108
1.73144
1.73145
1.73132
1.73119
1.7307
1.73035
1.73072
1.73098
1.7316
1.7316
1.73114
1.73121
1.73132
1.73145
1.73106
1.73086
1.73049
1.73117
1.73158
1.73152
1.73139
1.73121
1.72983
1.72999
1.7312
1.73048
1.73191
1.73094
1.73158
1.73201
1.73123
1.73134
1.73162
1.73148
1.73223
1.73216
1.73108
1.73119
1.7309
1.73108
1.732
1.73187
1.73147
1.73143
1.73123
1.73115
1.73128
1.731
1.73092
1.73093
1.73144
1.73144
1.73128
1.73091
1.73114
1.73129
1.73087
1.73064
1.73049
1.73112
1.73141
1.73145
1.73127
1.7311
1.73082
1.73065
1.73081
1.73099
1.73153
1.73153
1.73135
1.73063
1.73114
1.73134
1.73052
1.73088
1.73091
1.73158
1.7309
1.73152
1.73104
1.73101
1.73177
1.7319
1.73127
1.7314
1.73106
1.73101
1.73208
1.73175
1.73094
1.73079
1.73118
1.73122
1.73152
1.73083
1.73079
1.73094
1.73048
1.73038
1.73034
1.73084
1.73105
1.73107
1.73069
1.73049
1.73024
1.73095
1.73125
1.73123
1.73107
1.73091
1.73066
1.73013
1.7303
1.73056
1.73109
1.73105
1.73074
1.73036
1.73067
1.73088
1.73042
1.73018
1.72998
1.73059
1.73091
1.73096
1.73059
1.73037
1.73011
1.73089
1.73116
1.73111
1.7309
1.73072
1.73048
1.72997
1.73014
1.73041
1.73084
1.7308
1.73054
1.72995
1.73046
1.73064
1.72982
1.73005
1.72999
1.73069
1.73023
1.73078
1.73028
1.73017
1.73067
1.73119
1.73068
1.73072
1.73034
1.73028
1.73107
1.73073
1.73011
1.72996
1.73039
1.73043
1.73078
1.73003
1.72996
1.73
1.73027
1.73026
1.73013
1.72967
1.72988
1.73006
1.72962
1.72945
1.7293
1.7299
1.73027
1.7303
1.72998
1.72978
1.72959
1.72988
1.73024
1.73027
1.73
1.72979
1.72946
1.72908
1.72928
1.72951
1.73004
1.72999
1.72963
1.7291
1.72939
1.72963
1.72998
1.72994
1.72957
1.72919
1.72957
1.72977
1.72931
1.72907
1.72884
1.72975
1.73006
1.73004
1.72957
1.72931
1.72903
1.7294
1.72976
1.72977
1.72948
1.72922
1.72886
1.72844
1.72869
1.72889
1.72952
1.72941
1.72906
1.72878
1.72896
1.7291
1.72938
1.72924
1.72912
1.72874
1.72878
1.72893
1.72942
1.72947
1.72937
1.72888
1.72898
1.72917
1.7286
1.72843
1.72835
1.72871
1.72906
1.72911
1.72869
1.72847
1.7282
1.72843
1.72895
1.72899
1.72875
1.72852
1.72825
1.72767
1.72801
1.72836
1.72876
1.72891
1.72826
1.7274
1.7279
1.72828
1.72889
1.72886
1.72815
1.72742
1.72816
1.72855
1.72874
1.72874
1.72792
1.72756
1.72822
1.72848
1.72789
1.72751
1.72718
1.72773
1.72826
1.72836
1.72791
1.72764
1.72727
1.72773
1.72821
1.72824
1.72776
1.72749
1.72711
1.72766
1.72812
1.72816
1.72793
1.72769
1.72729
1.72701
1.7272
1.72744
1.72798
1.72793
1.72751
1.7268
1.72716
1.72744
1.72769
1.72764
1.72718
1.72661
1.72697
1.72722
1.72755
1.72751
1.72705
1.72662
1.72705
1.72728
1.72669
1.7264
1.72612
1.72677
1.72722
1.72729
1.72683
1.72654
1.72617
1.72682
1.72728
1.72729
1.72684
1.72658
1.72626
1.72664
1.72709
1.7271
1.72679
1.72653
1.72612
1.72558
1.72584
1.72612
1.7267
1.72666
1.72616
1.72547
1.72589
1.72618
1.7265
1.72647
1.72593
1.72532
1.72573
1.72602
1.72638
1.72635
1.72586
1.72539
1.72586
1.72612
1.7255
1.7252
1.72489
1.72583
1.72628
1.72629
1.72576
1.72546
1.72511
1.72539
1.72591
1.72596
1.7254
1.72513
1.72474
1.72508
1.72561
1.72568
1.72519
1.72491
1.72452
1.72498
1.72549
1.72552
1.72524
1.72496
1.72456
1.72397
1.72426
1.72458
1.72519
1.72515
1.72458
1.72395
1.72438
1.72469
1.72506
1.72497
1.72435
1.72396
1.72433
1.7246
1.72491
1.72486
1.72428
1.72366
1.72407
1.72438
1.72463
1.7246
1.72407
1.72348
1.72399
1.72429
1.72356
1.72328
1.72297
1.72358
1.72411
1.72419
1.72366
1.72333
1.7229
1.7233
1.7239
1.72397
1.72344
1.72315
1.72271
1.72313
1.72376
1.72381
1.72329
1.72296
1.7225
1.72321
1.72373
1.72373
1.72342
1.72314
1.72271
1.72207
1.72235
1.72265
1.72327
1.7232
1.72267
1.72192
1.72236
1.72269
1.72296
1.72293
1.72223
1.72147
1.72201
1.72234
1.72267
1.7226
1.72201
1.72138
1.72183
1.72216
1.72251
1.72248
1.72193
1.72132
1.72182
1.72216
1.72142
1.72107
1.72074
1.72144
1.72206
1.72211
1.72159
1.72128
1.72085
1.72119
1.72189
1.72193
1.72128
1.72095
1.72046
1.72075
1.72147
1.72155
1.72095
1.72061
1.72009
1.72054
1.72119
1.72126
1.72072
1.72041
1.71996
1.72034
1.72098
1.72104
1.72068
1.7203
1.71985
1.7191
1.71959
1.71999
1.72055
1.72059
1.71974
1.71898
1.71949
1.71989
1.72031
1.72021
1.71948
1.71876
1.71932
1.71973
1.72013
1.72009
1.71921
1.71839
1.71905
1.71946
1.71978
1.71969
1.71894
1.71826
1.71878
1.71919
1.71946
1.71939
1.71875
1.71806
1.71869
1.71906
1.71823
1.71793
1.71757
1.71821
1.71883
1.71892
1.71832
1.71794
1.71747
1.71775
1.71848
1.71856
1.71791
1.71757
1.71703
1.71739
1.71817
1.71826
1.71766
1.71731
1.71679
1.71735
1.71799
1.71806
1.71745
1.71711
1.71662
1.71703
1.71769
1.71774
1.71736
1.71696
1.71649
1.71561
1.71604
1.71652
1.71715
1.71717
1.71632
1.71556
1.71615
1.71649
1.71675
1.71668
1.71576
1.71492
1.7156
1.71603
1.71643
1.71637
1.71546
1.71455
1.71529
1.71571
1.71612
1.71603
1.71522
1.71456
1.71511
1.71552
1.71581
1.71574
1.715
1.71441
1.71504
1.71541
1.71442
1.71401
1.71358
1.71443
1.71514
1.71521
1.71454
1.71412
1.71355
1.71383
1.71465
1.71475
1.714
1.71365
1.71302
1.71349
1.71436
1.71441
1.71368
1.71325
1.71257
1.71318
1.71392
1.714
1.71335
1.71298
1.71243
1.7129
1.71361
1.71366
1.71321
1.71276
1.71224
1.7113
1.71187
1.71229
1.71298
1.71298
1.71201
1.71119
1.7118
1.71226
1.71252
1.71238
1.71155
1.71075
1.71135
1.71179
1.71211
1.71204
1.71097
1.7102
1.71094
1.71134
1.71169
1.71158
1.71065
1.70994
1.71056
1.71098
1.71129
1.71118
1.71033
1.70953
1.71015
1.71056
1.71089
1.71082
1.71005
1.70934
1.71005
1.71045
1.70935
1.7089
1.70843
1.70927
1.70999
1.7101
1.70938
1.70894
1.70834
1.7086
1.70952
1.70962
1.70881
1.7084
1.70771
1.70809
1.70903
1.70912
1.70838
1.70798
1.70733
1.70771
1.70858
1.7087
1.70801
1.7076
1.707
1.70745
1.70824
1.70832
1.70786
1.70745
1.70674
1.70583
1.70632
1.70672
1.70746
1.70733
1.70654
1.70562
1.70627
1.70673
1.70707
1.70702
1.70596
1.70499
1.70576
1.7062
1.70652
1.70643
1.70541
1.70462
1.70531
1.70573
1.70595
1.70584
1.70488
1.70404
1.70472
1.70514
1.70539
1.70526
1.70435
1.70366
1.70444
1.70491
1.70376
1.70337
1.70288
1.7035
1.70436
1.70452
1.70376
1.7033
1.70263
1.70297
1.70397
1.7041
1.70324
1.70277
1.70203
1.70244
1.7035
1.70357
1.70267
1.70222
1.70142
1.70197
1.70288
1.703
1.70219
1.70177
1.7011
1.70154
1.7024
1.70245
1.70189
1.70142
1.70064
1.69961
1.7001
1.70051
1.70129
1.70119
1.70017
1.69899
1.69985
1.7004
1.70063
1.70046
1.69943
1.69853
1.6993
1.69977
1.70017
1.70003
1.699
1.69814
1.69889
1.69934
1.69967
1.69954
1.69851
1.69749
1.69829
1.69877
1.69908
1.69903
1.6981
1.69725
1.69807
1.69857
1.69709
1.69652
1.69595
1.69696
1.69786
1.69797
1.69706
1.69657
1.69579
1.69612
1.69723
1.69733
1.69629
1.69585
1.69503
1.69518
1.69636
1.69647
1.69531
1.69474
1.69369
1.69451
1.69558
1.69575
1.6953
1.69481
1.69386
1.69259
1.694
1.69385
1.69481
1.69437
1.69378
1.69252
1.6933
1.69377
1.69419
1.69396
1.69288
1.69168
1.69266
1.69316
1.69358
1.69343
1.69231
1.69117
1.69207
1.69257
1.69288
1.69285
1.69187
1.69069
1.6916
1.69219
1.69044
1.68991
1.68929
1.69018
1.69122
1.69135
1.69036
1.68986
1.68903
1.68867
1.69006
1.69029
1.68892
1.68824
1.68707
1.68816
1.68939
1.68955
1.6887
1.68814
1.6872
1.68786
1.68901
1.68913
1.68853
1.68796
1.68686
1.68542
1.68707
1.68684
1.6879
1.68691
1.68705
1.68486
1.68622
1.68647
1.68704
1.68681
1.68577
1.6843
1.68535
1.68586
1.68617
1.68598
1.68467
1.6833
1.68438
1.68491
1.68519
1.68517
1.68401
1.68271
1.68371
1.68436
1.68228
1.68177
1.68101
1.68127
1.68214
1.68291
1.68164
1.68121
1.6796
1.6809
1.68229
1.68247
1.68142
1.6808
1.67967
1.68035
1.68171
1.68189
1.68075
1.68012
1.67907
1.67973
1.681
1.6811
1.6804
1.6797
1.67851
1.67685
1.67779
1.67837
1.67944
1.67922
1.67808
1.67659
1.67761
1.67821
1.67838
1.67815
1.6766
1.67506
1.67624
1.67692
1.67713
1.67703
1.67568
1.67447
1.67551
1.67626
1.67331
1.67334
1.67069
1.67303
1.67401
1.67468
1.6735
1.67283
1.67188
1.67261
1.67403
1.67429
1.67309
1.67228
1.67115
1.67168
1.67328
1.6735
1.67216
1.67147
1.6702
1.67085
1.67233
1.67242
1.67154
1.67082
1.66966
1.66782
1.66855
1.66927
1.67033
1.67011
1.66881
1.66719
1.66833
1.66899
1.66895
1.66877
1.66711
1.66529
1.6665
1.66729
1.66712
1.66694
1.66561
1.66243
1.66452
1.66568
1.66351
1.66255
1.66124
1.66328
1.66483
1.66511
1.66404
1.66326
1.66204
1.66243
1.66428
1.66453
1.66308
1.66234
1.66098
1.66152
1.66322
1.66339
1.66242
1.66159
1.66007
1.65827
1.65915
1.65997
1.66104
1.66075
1.65925
1.65745
1.65879
1.65957
1.65959
1.65946
1.65772
1.65595
1.65742
1.65819
1.6552
1.65442
1.65342
1.65273
1.65473
1.6554
1.65333
1.65205
1.65016
1.65173
1.65389
1.65434
1.65327
1.65232
1.65081
1.65183
1.65371
1.65392
1.65306
1.65212
1.65035
1.64829
1.64928
1.65037
1.65155
1.65127
1.64946
1.64754
1.64908
1.64999
1.65007
1.64994
1.64804
1.64584
1.64768
1.64859
1.64537
1.64455
1.64346
1.64429
1.64627
1.64652
1.64463
1.64382
1.64214
1.64034
1.64274
1.64347
1.64175
1.6401
1.63726
1.63596
1.63784
1.63918
1.6413
1.64095
1.63889
1.63718
1.63884
1.64
1.64047
1.6403
1.6383
1.63614
1.63809
1.63929
1.63581
1.63474
1.63361
1.6345
1.63681
1.63715
1.63532
1.63434
1.63267
1.63253
1.63492
1.63515
1.63312
1.63202
1.62986
1.62704
1.62825
1.6293
1.62945
1.62835
1.62725
1.62029
1.62442
1.62594
1.62681
1.62597
1.62315
1.62219
1.62469
1.62598
1.62384
1.6219
1.6212
1.62233
1.62508
1.62535
1.62371
1.62237
1.62034
1.62089
1.62362
1.62387
1.62227
1.621
1.61853
1.61511
1.61662
1.61791
1.61922
1.61883
1.61637
1.61361
1.61573
1.61681
1.61544
1.61505
1.61271
1.60761
1.61098
1.61262
1.60674
1.60392
1.60044
1.60539
1.60809
1.60913
1.60884
1.60761
1.60438
1.60263
1.60469
1.60628
1.60772
1.60714
1.60439
1.60161
1.60399
1.6054
1.6055
1.60511
1.60221
1.599
1.60178
1.6032
1.59839
1.59688
1.59488
1.59595
1.59846
1.59906
1.59724
1.59576
1.59288
1.5851
1.58787
1.59034
1.58965
1.58744
1.58333
1.58206
1.5863
1.58851
1.5856
1.58309
1.58128
1.58411
1.58756
1.5882
1.586
1.58426
1.58144
1.58259
1.58603
1.58657
1.58433
1.58269
1.5794
1.57473
1.57693
1.57875
1.57887
1.57808
1.57529
1.57139
1.57477
1.57651
1.56815
1.56493
1.56137
1.5594
1.56425
1.56701
1.5659
1.56341
1.55803
1.55768
1.56065
1.56312
1.5658
1.56504
1.56149
1.55914
1.56292
1.56501
1.55971
1.55759
1.55511
1.55583
1.55915
1.5601
1.55713
1.55513
1.55119
1.54423
1.5466
1.54908
1.54549
1.54252
1.53677
1.53094
1.53824
1.54215
1.54033
1.53713
1.53039
1.53068
1.53415
1.53753
1.5406
1.53982
1.53552
1.53274
1.53749
1.53981
1.53301
1.53062
1.52739
1.52665
1.53087
1.53196
1.52701
1.52505
1.52027
1.49949
1.51005
1.51569
1.50855
1.50371
1.49728
1.50767
1.5125
1.51416
1.51521
1.51291
1.50709
1.50481
1.51064
1.51361
1.50716
1.50399
1.50052
1.49897
1.50405
1.50546
1.49844
1.49474
1.48645
1.46623
1.47993
1.48698
1.4812
1.4762
1.46916
1.48209
1.48805
1.48921
1.48995
1.4877
1.48127
1.47702
1.48385
1.48752
1.48055
1.47828
1.47196
1.44181
1.44959
1.46129
1.46456
1.45913
1.45055
1.45381
1.46237
1.4676
1.46749
1.46256
1.45295
1.45227
1.46155
1.46733
1.45842
1.44959
1.43283
1.42504
1.44015
1.45086
1.44544
1.44458
1.42677
1.4501
1.45588
1.45994
1.46155
1.455
1.44254
1.43492
1.4506
1.45987
1.45965
1.45253
1.44043
1.44675
1.45948
1.46552
1.47265
1.46517
1.44967
1.45869
1.473
1.48005
1.48741
1.48018
1.46734
1.47365
1.48533
1.49326
1.49771
1.48913
1.47817
1.48189
1.49225
1.50129
1.50433
1.4949
1.48535
1.48862
1.49733
1.50692
1.50922
1.49955
1.49149
1.49403
1.50157
1.51126
1.51306
1.50333
1.49642
1.49882
1.50494
1.51458
1.51595
1.50651
1.50115
1.50326
1.50807
1.51718
1.51834
1.50954
1.50511
1.50685
1.5109
1.51937
1.52031
1.51212
1.50853
1.51012
1.5133
1.52111
1.52185
1.51443
1.51153
1.51283
1.51554
1.52254
1.52323
1.5166
1.51406
1.51528
1.51763
1.52388
1.52451
1.51859
1.51646
1.51757
1.5195
1.52507
1.52559
1.52035
1.51863
1.51966
1.52119
1.52607
1.52653
1.522
1.52065
1.52162
1.52282
1.52699
1.52746
1.5236
1.52252
1.52337
1.52437
1.52794
1.52843
1.52509
1.52418
1.52497
1.52578
1.5289
1.52936
1.52643
1.52573
1.52646
1.52708
1.52981
1.53026
1.52769
1.52717
1.52785
1.52831
1.53071
1.53116
1.52889
1.5285
1.52911
1.52946
1.53162
1.53206
1.53
1.52969
1.53024
1.53053
1.5325
1.53293
1.53103
1.53076
1.53127
1.53152
1.53335
1.53377
1.532
1.53175
1.53222
1.53246
1.53419
1.5346
1.53291
1.53267
1.5331
1.53334
1.53499
1.53538
1.53376
1.53352
1.53393
1.53417
1.53575
1.53612
1.53456
1.53431
1.5347
1.53495
1.53647
1.53682
1.53532
1.53506
1.53543
1.53569
1.53715
1.53748
1.53605
1.53577
1.53611
1.53641
1.53781
1.53812
1.53675
1.53642
1.53674
1.53709
1.53843
1.53872
1.5374
1.53703
1.53732
1.53772
1.53902
1.53929
1.53801
1.53759
1.53786
1.5383
1.53955
1.5398
1.53857
1.53811
1.53836
1.53884
1.54005
1.54028
1.53909
1.53859
1.53883
1.53934
1.5405
1.54071
1.53957
1.53905
1.53927
1.5398
1.54092
1.54111
1.54001
1.53948
1.53969
1.54023
1.5413
1.54147
1.54042
1.53988
1.54009
1.54063
1.54165
1.54181
1.54081
1.54027
1.54047
1.541
1.54197
1.54212
1.54117
1.54064
1.54083
1.54135
1.54227
1.5424
1.54151
1.54099
1.54116
1.54167
1.54254
1.54268
1.54182
1.54132
1.54149
1.54198
1.54281
1.54293
1.54212
1.54163
1.54179
1.54227
1.54306
1.54317
1.5424
1.54192
1.54207
1.54254
1.54329
1.5434
1.54266
1.5422
1.54234
1.5428
1.54351
1.54362
1.54291
1.54246
1.5426
1.54304
1.54373
1.54382
1.54314
1.54271
1.54284
1.54327
1.54393
1.54402
1.54337
1.54294
1.54306
1.54348
1.54412
1.54421
1.54358
1.54316
1.54328
1.54369
1.54431
1.54439
1.54378
1.54337
1.54349
1.54388
1.54449
1.54457
1.54397
1.54358
1.54368
1.54407
1.54466
1.54474
1.54416
1.54377
1.54387
1.54426
1.54483
1.54491
1.54434
1.54396
1.54406
1.54444
1.545
1.54508
1.54451
1.54414
1.54424
1.54461
1.54517
1.54524
1.54468
1.54431
1.54441
1.54478
1.54533
1.5454
1.54485
1.54448
1.54457
1.54494
1.54549
1.54556
1.54501
1.54464
1.54473
1.5451
1.54565
1.54571
1.54517
1.54479
1.54488
1.54525
1.5458
1.54586
1.54532
1.54494
1.54503
1.5454
1.54595
1.54601
1.54546
1.54509
1.54517
1.54554
1.54609
1.54616
1.54561
1.54523
1.54531
1.54569
1.54624
1.5463
1.54575
1.54536
1.54544
1.54582
1.54638
1.54645
1.54589
1.5455
1.54557
1.54596
1.54651
1.54659
1.54602
1.54562
1.5457
1.54609
1.54665
1.54672
1.54615
1.54575
1.54582
1.54622
1.54679
1.54685
1.54628
1.54587
1.54594
1.54635
1.54692
1.54698
1.5464
1.54598
1.54605
1.54647
1.54705
1.5471
1.54652
1.5461
1.54616
1.54659
1.54717
1.54722
1.54664
1.54621
1.54628
1.54671
1.54729
1.54734
1.54675
1.54632
1.54638
1.54682
1.54741
1.54746
1.54686
1.54643
1.54649
1.54693
1.54752
1.54757
1.54697
1.54653
1.5466
1.54704
1.54763
1.54768
1.54708
1.54664
1.5467
1.54715
1.54774
1.54778
1.54719
1.54674
1.5468
1.54725
1.54785
1.54789
1.54729
1.54684
1.54691
1.54736
1.54795
1.54799
1.5474
1.54695
1.54701
1.54746
1.54805
1.54809
1.5475
1.54705
1.54711
1.54756
1.54815
1.54819
1.5476
1.54715
1.54721
1.54766
1.54825
1.54829
1.5477
1.54725
1.54731
1.54776
1.54835
1.54838
1.5478
1.54734
1.54741
1.54786
1.54844
1.54847
1.54789
1.54744
1.5475
1.54795
1.54853
1.54857
1.54799
1.54754
1.5476
1.54805
1.54862
1.54866
1.54808
1.54763
1.54769
1.54814
1.54871
1.54874
1.54818
1.54773
1.54779
1.54823
1.5488
1.54883
1.54827
1.54782
1.54788
1.54832
1.54888
1.54891
1.54835
1.54791
1.54797
1.54841
1.54897
1.549
1.54844
1.548
1.54806
1.5485
1.54905
1.54908
1.54853
1.54809
1.54815
1.54858
1.54913
1.54916
1.54861
1.54818
1.54823
1.54866
1.5492
1.54923
1.54869
1.54826
1.54832
1.54874
1.54928
1.5493
1.54877
1.54835
1.5484
1.54882
1.54935
1.54937
1.54885
1.54843
1.54848
1.5489
1.54942
1.54944
1.54892
1.5485
1.54855
1.54897
1.54949
1.54951
1.54899
1.54858
1.54863
1.54904
1.54955
1.54957
1.54906
1.54865
1.5487
1.54911
1.54961
1.54963
1.54913
1.54872
1.54876
1.54917
1.54967
1.54969
1.54919
1.54878
1.54883
1.54923
1.54973
1.54975
1.54925
1.54885
1.54889
1.54929
1.54978
1.5498
1.54931
1.54891
1.54895
1.54935
1.54984
1.54985
1.54937
1.54897
1.54901
1.54941
1.54989
1.54991
1.54943
1.54903
1.54907
1.54946
1.54994
1.54997
1.54949
1.5491
1.54914
1.54953
1.55
1.55001
1.54955
1.54916
1.54916
1.54954
1.55001
1.54998
1.54953
1.54918
1.54917
1.54952
1.54997
1.55023
1.54972
1.54933
1.54974
1.55015
1.55079
1.55118
1.55049
1.55007
1.55245
1.55459
1.55965
1.56192
1.5621
1.56498
1.5668
1.56715
1.56732
1.56834
1.56899
1.56966
1.57008
1.57046
1.57081
1.5711
1.57134
1.57155
1.57171
1.57184
1.57193
1.57201
1.57206
1.5721
1.57213
1.57215
1.57216
1.57217
1.57217
1.57218
1.57217
1.57217
1.57217
1.57218
1.5722
1.57223
1.57228
1.57234
1.57241
1.5725
1.5726
1.57273
1.57286
1.573
1.5731
1.57316
1.57321
1.57328
1.57336
1.57345
1.57354
1.57364
1.57373
1.57384
1.57395
1.57406
1.57419
1.57433
1.57449
1.57467
1.57487
1.5751
1.57537
1.57567
1.57601
1.5764
1.57684
1.57734
1.5779
1.57854
1.57926
1.58006
1.58096
1.58196
1.58308
1.58431
1.58567
1.58716
1.58879
1.59057
1.59248
1.59454
1.59674
1.59908
1.60156
1.60415
1.60686
1.60966
1.61256
1.61552
1.61855
1.62162
1.62472
1.62784
1.63095
1.63406
1.63714
1.64019
1.6432
1.64616
1.64906
1.6519
1.65467
1.65736
1.65999
1.66253
1.66499
1.66738
1.66968
1.67191
1.67406
1.67612
1.67812
1.68003
1.68188
1.68365
1.68535
1.68699
1.68856
1.69007
1.69152
1.69291
1.69424
1.69552
1.69676
1.69794
1.69907
1.70017
1.70122
1.70223
1.7032
1.70413
1.70503
1.70589
1.70672
1.70752
1.70829
1.70902
1.70973
1.71041
1.71106
1.71169
1.71229
1.71287
1.71342
1.71395
1.71446
1.71496
1.71543
1.71588
1.71632
1.71674
1.71714
1.71752
1.71789
1.71825
1.71859
1.71891
1.71923
1.71952
1.71981
1.72009
1.72035
1.7206
1.72085
1.72108
1.7213
1.72152
1.72173
1.72193
1.72212
1.72231
1.72249
1.72266
1.72282
1.72298
1.72313
1.72328
1.72342
1.72355
1.72368
1.7238
1.72391
1.72402
1.72412
1.72422
1.72431
1.72441
1.72449
1.72458
1.72466
1.72474
1.72481
1.72489
1.72495
1.72502
1.72508
1.72513
1.72518
1.72522
1.72525
1.72528
1.72529
1.72527
1.72522
1.72515
1.72506
1.72495
1.72499
1.72509
1.72519
1.72525
1.7253
1.72534
1.72537
1.72541
1.72544
1.72548
1.72552
1.72556
1.7256
1.72565
1.7257
1.72575
1.72581
1.72587
1.72593
1.72599
1.72606
1.72613
1.7262
1.72627
1.72635
1.72643
1.72651
1.72659
1.72668
1.72677
1.72686
1.72695
1.72704
1.72713
1.72723
1.72732
1.72742
1.72752
1.72762
1.72772
1.72782
1.72793
1.72803
1.72813
1.72824
1.72834
1.72844
1.72855
1.72865
1.72876
1.72886
1.72896
1.72907
1.72917
1.72927
1.72937
1.72947
1.72956
1.72966
1.72976
1.72985
1.72994
1.73003
1.73011
1.7302
1.73028
1.73036
1.73044
1.73051
1.73058
1.73065
1.73071
1.73077
1.73083
1.73089
1.73094
1.73099
1.73104
1.73108
1.73112
1.73117
1.7312
1.73122
1.73123
1.73125
1.73131
1.73143
1.73149
1.73151
1.73147
1.73145
1.73142
1.73141
1.73139
1.73138
1.73137
1.73136
1.73136
1.73136
1.73136
1.73137
1.73138
1.73139
1.7314
1.73142
1.73143
1.73145
1.73147
1.73149
1.7315
1.73152
1.73154
1.73156
1.73158
1.7316
1.73162
1.73165
1.73167
1.7317
1.73173
1.73176
1.73179
1.73182
1.73185
1.73189
1.73193
1.73197
1.732
1.73205
1.73209
1.73213
1.73217
1.73222
1.73227
1.73231
1.73236
1.73241
1.73246
1.73251
1.73256
1.73261
1.73267
1.73272
1.73278
1.73284
1.7329
1.73295
1.73301
1.73307
1.73313
1.73318
1.73325
1.7333
1.73337
1.73342
1.73349
1.73355
1.73362
1.73367
1.73375
1.73381
1.73388
1.73394
1.73402
1.73409
1.73416
1.73423
1.73431
1.73438
1.73445
1.73452
1.7346
1.73467
1.73473
1.7348
1.73486
1.73491
1.73496
1.735
1.73503
1.73506
1.73507
1.73509
1.73508
1.73508
1.73506
1.73504
1.735
1.73496
1.7349
1.73485
1.73478
1.73473
1.73466
1.73459
1.73452
1.73445
1.73438
1.73431
1.73423
1.73416
1.73409
1.73401
1.73395
1.73388
1.73382
1.73375
1.7337