/*--------------------------------*- C++ -*----------------------------------*\
| =========                 |                                                 |
| \\      /  F ield         | OpenFOAM: The Open Source CFD Toolbox           |
|  \\    /   O peration     | Version:  v2006                                 |
|   \\  /    A nd           | Website:  www.openfoam.com                      |
|    \\/     M anipulation  |                                                 |
\*---------------------------------------------------------------------------*/
FoamFile
{
    version     2.0;
    format      ascii;
    class       volScalarField;
    location    "0.178";
    object      Co;
}
// * * * * * * * * * * * * * * * * * * * * * * * * * * * * * * * * * * * * * //

dimensions      [0 0 0 0 0 0 0];


internalField   nonuniform List<scalar> 
10108
(
0.00788445
0.00754925
0.00818648
0.00846285
0.00856777
0.00836383
0.00837393
0.00829187
0.00820772
0.00817572
0.00811456
0.00809328
0.00807183
0.00805843
0.00804304
0.00802742
0.00801069
0.0079932
0.00797493
0.0079559
0.00793615
0.00791569
0.00789458
0.00787283
0.00785049
0.00782759
0.00780417
0.00778025
0.0077559
0.00773114
0.00770603
0.00768061
0.00765494
0.00762907
0.00760304
0.00757692
0.00755076
0.0075246
0.00749852
0.00747257
0.00744679
0.00742126
0.00739602
0.00737113
0.00734663
0.00732259
0.00729906
0.00727609
0.00725374
0.00723206
0.00721106
0.00719053
0.00716888
0.00714955
0.00713217
0.00711942
0.0071152
0.00715574
0.00723555
0.00747214
0.00789331
0.00887414
0.0110648
0.0159944
0.0241019
0.0188809
0.0162471
0.0160892
0.0157264
0.015084
0.0149472
0.014437
0.0129881
0.0140656
0.0147226
0.0136542
0.0137241
0.0131594
0.0108852
0.0116436
0.0118547
0.0118652
0.0119275
0.0112784
0.0102693
0.0111868
0.0114448
0.0116545
0.011471
0.0105467
0.0102931
0.0113109
0.0115507
0.0116791
0.0114234
0.0103683
0.0102758
0.011393
0.0116646
0.0116976
0.0114228
0.0102435
0.0101627
0.0113358
0.0116417
0.0116591
0.0113466
0.0100936
0.0100218
0.0112582
0.0115954
0.0116074
0.0112639
0.00995375
0.00988831
0.011176
0.0115413
0.0115518
0.0111819
0.00982536
0.00976444
0.0110943
0.0114849
0.0114941
0.0111006
0.00970588
0.00964828
0.0110136
0.0114264
0.0114344
0.0110197
0.00959275
0.00953786
0.0109331
0.0113662
0.0113731
0.0109391
0.00948472
0.00943186
0.0108528
0.0113044
0.0113102
0.0108585
0.0093805
0.00932916
0.0107723
0.0112408
0.0112454
0.0107774
0.00927912
0.00922888
0.0106912
0.0111753
0.0111788
0.0106957
0.0091798
0.00913033
0.0106094
0.011108
0.0111102
0.0106131
0.00908192
0.00903295
0.0105266
0.0110387
0.0110396
0.0105294
0.00898492
0.00893617
0.0104425
0.0109673
0.0109668
0.0104442
0.00888827
0.0088395
0.0103568
0.0108936
0.0108916
0.0103573
0.00879148
0.00874247
0.0102692
0.0108174
0.0108137
0.0102684
0.00869414
0.00864468
0.0101795
0.0107384
0.010733
0.0101772
0.00859583
0.00854575
0.0100875
0.0106565
0.0106493
0.0100834
0.00849618
0.00844527
0.00999265
0.0105715
0.0105623
0.00998677
0.0083948
0.0083429
0.00989483
0.010483
0.0104716
0.00988695
0.00829137
0.00823829
0.00979371
0.0103909
0.0103772
0.00978366
0.00818552
0.0081311
0.009689
0.0102948
0.0102787
0.00967659
0.00807689
0.00802093
0.00958035
0.0101945
0.0101758
0.00956538
0.0079651
0.00790742
0.00946741
0.0100897
0.0100681
0.00944967
0.00784976
0.00779015
0.00934979
0.00997998
0.00995537
0.00932908
0.00773046
0.00766871
0.00922711
0.00986499
0.00983714
0.00920317
0.00760677
0.00754266
0.00909893
0.00974434
0.009713
0.00907152
0.00747825
0.00741157
0.00896479
0.00961757
0.00958251
0.00893366
0.00734449
0.00727505
0.00882427
0.00948426
0.00944523
0.00878918
0.00720511
0.00713274
0.00867697
0.009344
0.00930081
0.00863773
0.00705981
0.00698436
0.00852256
0.00919645
0.0091489
0.00847897
0.00690829
0.00682964
0.00836071
0.00904128
0.00898917
0.00831259
0.00675031
0.00666835
0.00819114
0.00887814
0.00882129
0.00813831
0.00658568
0.00650035
0.00801358
0.00870675
0.008645
0.00795592
0.00641429
0.0063256
0.0078279
0.00852687
0.0084601
0.00776536
0.00623622
0.00614427
0.00763409
0.00833836
0.00826656
0.00756671
0.00605172
0.00595675
0.00743238
0.00814128
0.00806451
0.00736033
0.00586135
0.00576377
0.00722324
0.00793589
0.00785436
0.00714686
0.00566604
0.00556649
0.00700754
0.00772274
0.00763688
0.00692742
0.0054672
0.00536657
0.00678662
0.00750282
0.00741324
0.00670362
0.00526677
0.00516633
0.00656239
0.00727751
0.00718532
0.0064778
0.00506749
0.00496882
0.00633756
0.00704907
0.00695567
0.00625302
0.00487272
0.00477776
0.00611554
0.00682039
0.00672747
0.00603304
0.00468647
0.00459745
0.00590045
0.00659503
0.00650469
0.00582232
0.00451334
0.00443272
0.00569702
0.00637726
0.00629202
0.00562593
0.0043583
0.00428858
0.00551049
0.00617207
0.00609488
0.00544931
0.00422629
0.00416966
0.00534618
0.00598494
0.00591869
0.00529489
0.00411942
0.00407953
0.00520893
0.00581859
0.00577147
0.00517484
0.00404653
0.00401973
0.00510201
0.00568304
0.0056509
0.00508345
0.00400181
0.00398951
0.00502637
0.00557778
0.0055605
0.00502397
0.0039873
0.00399653
0.00500944
0.00551998
0.00549736
0.00500132
0.00400891
0.00402706
0.00501673
0.00550016
0.00548562
0.00500379
0.00404676
0.00407079
0.00504041
0.00551279
0.00550718
0.00503403
0.00409526
0.00412264
0.00507563
0.00553333
0.00553393
0.00507283
0.00414933
0.00417782
0.00511712
0.00556269
0.00556536
0.00511607
0.00420489
0.0042329
0.00516134
0.00559533
0.00559616
0.00516064
0.00425905
0.00428568
0.00520602
0.00563228
0.00563059
0.00520492
0.00431027
0.00433506
0.00524978
0.00566674
0.00566761
0.00524776
0.00435777
0.00438058
0.00529186
0.00569805
0.00570148
0.00528891
0.00440152
0.00442235
0.00533201
0.00573155
0.0057316
0.00532802
0.0044416
0.00446314
0.00537027
0.00576693
0.00576328
0.00536479
0.00447609
0.00448939
0.00539559
0.00578681
0.00575658
0.0053596
0.00447189
0.004486
0.00538455
0.00576558
0.00566791
0.00525491
0.00435987
0.00447022
0.00534252
0.00571337
0.00557021
0.00511236
0.00420518
0.00464064
0.00550183
0.00580495
0.00563909
0.00519267
0.00428347
0.00512008
0.00600908
0.00628488
0.0066938
0.00606531
0.00492768
0.00545578
0.0065303
0.00699345
0.00760833
0.00790543
0.00796751
0.0081196
0.00809593
0.00816239
0.0082425
0.00831949
0.00838915
0.00845206
0.00849546
0.00854117
0.00857456
0.00860308
0.00867156
0.00878789
0.00907449
0.00953698
0.0105939
0.0130869
0.019012
0.028103
0.0217353
0.0166803
0.0158173
0.0166828
0.015699
0.0197889
0.034091
0.0475256
0.0297965
0.0215356
0.0132917
0.0107004
0.0146326
0.0167439
0.0149058
0.013655
0.0103625
0.00944731
0.012526
0.0136785
0.0134703
0.0124835
0.00946913
0.00930897
0.0124971
0.0137319
0.0135741
0.0124014
0.00933938
0.00935018
0.012418
0.0136303
0.0136656
0.0125
0.00933474
0.0093255
0.012497
0.0136831
0.0137544
0.0125349
0.0093958
0.0094053
0.0124729
0.0136614
0.0138012
0.0125922
0.00947154
0.00947146
0.0125284
0.0137009
0.0138472
0.0126529
0.00955014
0.00955006
0.0125861
0.0137421
0.0138961
0.0127169
0.00963274
0.00963266
0.012647
0.0137862
0.0139468
0.0127833
0.00971894
0.00971887
0.0127101
0.0138317
0.0140009
0.0128536
0.00980965
0.00980958
0.0127767
0.013866
0.0140719
0.012927
0.00990458
0.00990452
0.0128461
0.0139303
0.0141185
0.0130053
0.010005
0.010005
0.0129199
0.0139698
0.0141979
0.0130883
0.0101111
0.010111
0.0129975
0.0140401
0.0142542
0.0131779
0.0102245
0.0102244
0.0130808
0.0140862
0.0143461
0.0132751
0.0103461
0.0103461
0.0131699
0.0141643
0.0144177
0.0133827
0.010479
0.010479
0.0132673
0.014234
0.0145152
0.0135035
0.0106263
0.0106263
0.0133734
0.0143085
0.014628
0.0136422
0.0107945
0.0107945
0.0134922
0.0143902
0.0147629
0.0138074
0.0109931
0.0109931
0.0136255
0.014478
0.0149275
0.014009
0.0112388
0.0112389
0.0137778
0.014573
0.0151395
0.0142675
0.0115613
0.0116005
0.0140045
0.0146877
0.0154028
0.0146455
0.0120125
0.0121059
0.014381
0.0149631
0.0156996
0.0149352
0.0125039
0.0125313
0.0146318
0.0151326
0.015802
0.0150733
0.0128222
0.0128345
0.014815
0.0152278
0.0157345
0.0150072
0.0129121
0.0130694
0.0149108
0.0152996
0.015759
0.0150826
0.013132
0.0131441
0.0148857
0.0153218
0.0159907
0.0153659
0.013473
0.0134688
0.0150438
0.0155303
0.0162283
0.0157516
0.0140883
0.014046
0.0156002
0.016047
0.0163105
0.0160995
0.0146631
0.014343
0.0147014
0.0139672
0.0420626
0.0314509
0.0200273
0.0170872
0.023191
0.0293745
0.0189371
0.0174409
0.0147898
0.014224
0.0159949
0.0166766
0.0160119
0.0156526
0.0142319
0.0138345
0.0151385
0.0154665
0.0149906
0.0150144
0.0140889
0.0133679
0.0130208
0.011826
0.0384439
0.0292551
0.0190243
0.0146003
0.0202064
0.0263061
0.0159811
0.0152088
0.0135086
0.0128351
0.0133851
0.0131751
0.00991449
0.0113393
0.0120077
0.0166634
0.0248949
0.03209
0.0200602
0.0165576
0.0132475
0.0105614
0.0110228
0.0109919
0.00777844
0.00780928
0.00849714
0.0106431
0.0151682
0.0183479
0.0120635
0.00956426
0.00560589
0.0120638
0.0180971
0.0210815
0.0334052
0.0291615
0.0222909
0.0349052
0.0392871
0.0428704
0.0423298
0.0410386
0.0372427
0.0402019
0.0534321
0.0626315
0.0659176
0.0541479
0.0389885
0.0334159
0.0388272
0.0402236
0.0653705
0.0505325
0.0349815
0.036668
0.0551895
0.0718021
0.035665
0.0341907
0.0294879
0.0330329
0.046699
0.059968
0.0688899
0.0524414
0.034438
0.0279101
0.0323185
0.0337677
0.0577748
0.0435777
0.0296469
0.0330481
0.050865
0.0670765
0.0325079
0.0310508
0.0267934
0.0302068
0.0429328
0.0555699
0.0650943
0.0496387
0.0325151
0.0264088
0.0305749
0.0319801
0.0545386
0.0418527
0.0291924
0.03223
0.0491514
0.0645741
0.0314518
0.0301275
0.026096
0.0291456
0.0415318
0.0539346
0.0637064
0.0483467
0.0319138
0.0259512
0.0300184
0.0313612
0.0534522
0.0411003
0.0288622
0.0318548
0.0483204
0.0633508
0.0311204
0.0298601
0.0259191
0.0289434
0.0412092
0.0535962
0.0630591
0.0483571
0.0318406
0.0260565
0.0300394
0.0313202
0.0538833
0.0414154
0.0290625
0.0319353
0.0483971
0.0631821
0.0314735
0.0302558
0.026259
0.0294985
0.0421136
0.054791
0.0640425
0.0491476
0.032535
0.0269243
0.0310392
0.0322929
0.0583039
0.0429156
0.0283474
0.0323002
0.0489248
0.0638764
0.0472906
0.0396104
0.029665
0.0325245
0.0471717
0.0588813
0.0340084
0.0324836
0.0280421
0.0312372
0.0442502
0.0572268
0.0651659
0.0503374
0.0336589
0.0280582
0.0321337
0.0334419
0.0607067
0.0449583
0.0299775
0.0335564
0.0504819
0.0658672
0.0490553
0.041137
0.0308979
0.0341854
0.0490784
0.0607032
0.0354768
0.0339979
0.0294212
0.0329524
0.047243
0.061557
0.066214
0.0509537
0.0344998
0.0319396
0.0425969
0.0510902
0.0620656
0.0501223
0.0352482
0.0304925
0.0352283
0.0367536
0.0632092
0.0485483
0.0339097
0.0359456
0.052886
0.0681929
0.052416
0.0439068
0.0331836
0.0366825
0.0519542
0.064089
0.0380162
0.0363214
0.0313836
0.0355054
0.0506284
0.0656186
0.0702231
0.0549153
0.0375225
0.0348685
0.0461666
0.0549972
0.0656607
0.0534756
0.0377405
0.0326788
0.0376727
0.0392515
0.0678692
0.0522736
0.0366349
0.0387715
0.056772
0.0726767
0.0564848
0.0474761
0.0359716
0.039072
0.0550265
0.0678964
0.0403755
0.0387935
0.033625
0.0393478
0.0548411
0.0700266
0.0741376
0.0580561
0.0407461
0.0378502
0.0507532
0.0608726
0.0688588
0.0559228
0.0400294
0.0378168
0.0500629
0.059511
0.069276
0.0564767
0.0403932
0.0356756
0.0413493
0.0434226
0.0756021
0.0566903
0.0384183
0.0407579
0.0606339
0.0780979
0.0641327
0.0530825
0.0393549
0.0415214
0.0580949
0.0713972
0.0621062
0.0520955
0.039368
0.042666
0.0594704
0.0725281
0.0451123
0.0432174
0.0375598
0.0402396
0.0594308
0.0792966
0.0819229
0.0630919
0.0422176
0.0410996
0.0555584
0.0674176
0.074358
0.0606538
0.0436723
0.0419105
0.0563957
0.0679773
0.0746355
0.0609697
0.0442167
0.0421489
0.0558919
0.0667432
0.0756861
0.0624655
0.0453599
0.0396059
0.0457179
0.0478405
0.0834967
0.0625212
0.0424341
0.0443605
0.0660773
0.085554
0.0711881
0.0587799
0.0435112
0.0458926
0.063906
0.0780683
0.0713367
0.0592967
0.0441335
0.0463225
0.0638909
0.0782212
0.0696112
0.058358
0.0441291
0.047805
0.0659152
0.0800542
0.0504638
0.0482232
0.041817
0.0457148
0.0666849
0.0881163
0.0900093
0.07008
0.0473332
0.0460105
0.0620588
0.0750778
0.0818018
0.0671599
0.0484766
0.0469291
0.0629716
0.0757609
0.0820057
0.0676209
0.0494153
0.0474914
0.0636967
0.0766784
0.0830149
0.068442
0.0502742
0.0476295
0.0628256
0.0748365
0.0847137
0.0699526
0.0512002
0.0448566
0.0519016
0.0545578
0.0936924
0.0712271
0.0492218
0.0508471
0.0744978
0.0954598
0.080175
0.0664512
0.0494409
0.051547
0.0710513
0.0867659
0.0808401
0.0672141
0.0500936
0.0522697
0.0712271
0.0864755
0.0813435
0.0675298
0.0503536
0.0533593
0.0727768
0.0882767
0.0793664
0.0665652
0.0504133
0.0544302
0.074542
0.0902972
0.0575249
0.0549834
0.0475768
0.0546039
0.0768573
0.0985784
0.100142
0.0795303
0.0558931
0.0530775
0.0707757
0.0847801
0.0926039
0.0757868
0.0553108
0.0536552
0.0718305
0.0860063
0.0920753
0.0761331
0.0559653
0.0537772
0.0721591
0.0867964
0.0936541
0.0772676
0.0566696
0.053937
0.0711691
0.0847346
0.0955779
0.0789964
0.0577549
0.0509421
0.0588537
0.0616644
0.106027
0.0806203
0.055677
0.0572779
0.0838871
0.107622
0.0907852
0.0750847
0.0559355
0.0585488
0.0805674
0.09829
0.0913207
0.0760507
0.0566688
0.0593069
0.0807552
0.0975877
0.0920573
0.0765909
0.0572932
0.0604656
0.0820195
0.0994674
0.0895603
0.0752231
0.0570875
0.0616208
0.0843735
0.101744
0.0645938
0.0618897
0.0536843
0.0625692
0.0872351
0.111198
0.113517
0.0905272
0.0644839
0.0605804
0.0805591
0.0958872
0.104467
0.0860367
0.0628618
0.0605289
0.0809349
0.0968791
0.104336
0.086265
0.0635371
0.0610252
0.0816664
0.0980497
0.10622
0.087739
0.0646542
0.0611695
0.0804847
0.0956547
0.108375
0.0896728
0.0658758
0.057773
0.0666426
0.0695675
0.118722
0.092535
0.0661161
0.0682304
0.0960276
0.121214
0.101927
0.0854215
0.0641117
0.0668883
0.0917065
0.111154
0.103133
0.0864675
0.0647921
0.0682318
0.0924987
0.110809
0.104112
0.0869943
0.0653737
0.0692401
0.0937275
0.113358
0.10103
0.0852843
0.0650673
0.0701741
0.0955844
0.115586
0.073334
0.0702488
0.0611246
0.069646
0.097919
0.126278
0.129058
0.101923
0.0720007
0.0684239
0.0909655
0.108647
0.118979
0.0979722
0.0715312
0.0688077
0.0915629
0.109491
0.119295
0.0980501
0.0720598
0.0687379
0.090321
0.107217
0.121671
0.100567
0.0736776
0.064454
0.0740256
0.0771213
0.13328
0.103236
0.0732142
0.0754005
0.108351
0.137821
0.114462
0.095647
0.0720537
0.0754839
0.103418
0.125862
0.114375
0.0957966
0.0722874
0.0765867
0.104108
0.126232
0.111479
0.09412
0.0720287
0.0779857
0.106731
0.129592
0.0812781
0.0781161
0.0683687
0.0779918
0.109302
0.140243
0.145341
0.115184
0.0808156
0.0755036
0.100014
0.119153
0.134374
0.110601
0.0803893
0.0753624
0.0983669
0.116015
0.135615
0.112147
0.0818541
0.0716346
0.08201
0.0853346
0.147316
0.11428
0.0813552
0.084038
0.119794
0.152418
0.125038
0.104715
0.0792543
0.083787
0.115109
0.140764
0.120861
0.102823
0.0791836
0.0852784
0.117596
0.142168
0.0877536
0.0846664
0.0743922
0.0847373
0.118488
0.152546
0.160003
0.12571
0.0882571
0.0820958
0.106693
0.125962
0.149528
0.122457
0.0881133
0.0763909
0.0862726
0.0886304
0.15572
0.122481
0.0881307
0.0926996
0.132289
0.166786
0.129234
0.110983
0.0857954
0.0926758
0.12832
0.156541
0.0917722
0.0894801
0.0795781
0.0889648
0.125645
0.162775
0.174624
0.136162
0.0940931
0.0876214
0.113879
0.134718
0.16323
0.133381
0.0956973
0.083292
0.093123
0.0952558
0.169695
0.133549
0.09619
0.0994936
0.143384
0.183468
0.137748
0.117651
0.0912139
0.0998007
0.139241
0.170684
0.0984103
0.0963871
0.08601
0.0974743
0.136867
0.176846
0.190856
0.149368
0.103878
0.095173
0.122525
0.143637
0.177351
0.144902
0.103729
0.0878084
0.0978216
0.0997889
0.171575
0.135591
0.0994374
0.109439
0.157401
0.199942
0.100508
0.0997162
0.0910912
0.100802
0.138506
0.176184
0.206664
0.160857
0.110237
0.0899971
0.0987271
0.0993547
0.179033
0.143162
0.105864
0.116081
0.167587
0.214012
0.10406
0.103881
0.0952996
0.106005
0.145352
0.184551
0.221552
0.172798
0.11795
0.0971209
0.104299
0.103738
0.193121
0.15078
0.10861
0.121945
0.178808
0.229173
0.10663
0.105784
0.0973919
0.109618
0.147902
0.186557
0.237476
0.186175
0.127722
0.0972687
0.097353
0.091588
0.126866
0.118083
0.101984
0.108729
0.14723
0.189183
0.248282
0.191786
0.130081
0.0975617
0.0958206
0.0887723
0.110584
0.107237
0.0975799
0.102198
0.116143
0.125759
0.19378
0.153914
0.113296
0.124886
0.18896
0.249999
0.0857297
0.0899665
0.0901088
0.0915036
0.099215
0.10072
0.0945212
0.0911961
0.0830081
0.0804157
0.0903239
0.0931128
0.0841541
0.0814803
0.0717281
0.0665555
0.0779632
0.0810303
0.0760776
0.0727919
0.060884
0.0570845
0.0705706
0.0752195
0.0711545
0.0667479
0.0534915
0.0509239
0.0651874
0.070592
0.0670178
0.062038
0.0482251
0.0464374
0.0610238
0.067006
0.0640029
0.0583631
0.0443382
0.0431029
0.0578314
0.0643577
0.0616238
0.0554898
0.0413858
0.0404339
0.0550924
0.0620533
0.0594886
0.052959
0.0389729
0.0382301
0.0527405
0.0600029
0.0575456
0.0507743
0.0369746
0.0364183
0.0506442
0.0580866
0.0557733
0.0488559
0.0353531
0.0349555
0.048894
0.0564081
0.0541998
0.047252
0.0340459
0.0337844
0.0473598
0.054867
0.0527779
0.0458553
0.033009
0.032856
0.0460958
0.0535305
0.0515219
0.0446952
0.0321864
0.0321259
0.0449661
0.0522925
0.0503988
0.0437386
0.0316124
0.0315836
0.0440368
0.0512191
0.0495568
0.0430148
0.0312189
0.0311931
0.0432084
0.0502323
0.048883
0.0424411
0.0309463
0.0309232
0.0425557
0.0494071
0.0482647
0.0419152
0.0307623
0.0307414
0.0419716
0.0486633
0.047763
0.0415161
0.0306471
0.0306282
0.0415279
0.048056
0.0473035
0.0411467
0.0305818
0.0305647
0.0411247
0.0475073
0.0469444
0.0408859
0.0305577
0.0305416
0.0408392
0.0470761
0.0466166
0.0406412
0.0305627
0.0305476
0.040578
0.0466907
0.0463773
0.04049
0.0305909
0.0305768
0.0404111
0.0463981
0.0461541
0.0403419
0.0306375
0.0306243
0.0402552
0.0461374
0.0460063
0.040274
0.0306976
0.030685
0.0401765
0.0459508
0.0458619
0.0401981
0.0307699
0.0307579
0.0400974
0.0457829
0.0457815
0.0401915
0.0308502
0.0308388
0.0400828
0.0456734
0.0456937
0.0401667
0.0309384
0.0309275
0.0400987
0.0456629
0.0456849
0.0402441
0.0310619
0.0309897
0.0400099
0.0454492
0.0456203
0.0402174
0.0311295
0.0311196
0.0401052
0.0454695
0.0456237
0.0402858
0.0312307
0.0312213
0.0401685
0.0454568
0.0456062
0.0403241
0.0313363
0.0313274
0.0402093
0.0454404
0.0456366
0.0404116
0.031442
0.0314335
0.0402947
0.0454566
0.045639
0.0404667
0.0315507
0.0315426
0.0403533
0.0454649
0.0456862
0.0405669
0.0316579
0.0316502
0.0404523
0.0455011
0.0457009
0.0406306
0.0317662
0.031759
0.0405234
0.0455274
0.0457582
0.0407379
0.0318713
0.0318643
0.0406276
0.0455758
0.0457809
0.0408036
0.0319766
0.0319703
0.0407018
0.0456119
0.0458428
0.0409107
0.0320776
0.0320714
0.040808
0.04567
0.0458689
0.0409739
0.032176
0.0321703
0.0408799
0.0457094
0.0459333
0.0410784
0.0322697
0.0322643
0.0409843
0.0457722
0.0459605
0.041137
0.03236
0.032355
0.0410518
0.0458137
0.0460251
0.041236
0.0324454
0.0324406
0.0411513
0.0458784
0.0460526
0.0412888
0.0325265
0.0325221
0.0412129
0.0459196
0.0461156
0.0413811
0.0326019
0.0325977
0.0413065
0.0459837
0.0461431
0.0414288
0.0326736
0.0326697
0.0413617
0.046023
0.0462049
0.0415158
0.0327402
0.0327365
0.04145
0.0460861
0.0462311
0.0415581
0.0328031
0.0327998
0.0414991
0.0461231
0.0462912
0.0416399
0.0328616
0.0328584
0.041582
0.0461843
0.0463156
0.0416772
0.0329168
0.0329139
0.0416253
0.0462185
0.0463736
0.041754
0.0329682
0.0329654
0.0417029
0.0462774
0.0463964
0.0417865
0.0330168
0.0330142
0.0417409
0.0463095
0.0464533
0.0418584
0.0330618
0.0330593
0.0418135
0.0463672
0.0464746
0.0418865
0.0331046
0.0331023
0.0418462
0.0463967
0.0465291
0.041954
0.0331444
0.0331422
0.041914
0.0464514
0.0465483
0.0419785
0.0331822
0.0331801
0.041943
0.0464771
0.0465996
0.0420429
0.0332175
0.0332155
0.0420076
0.0465291
0.0466158
0.0420637
0.033251
0.0332492
0.0420321
0.0465518
0.0466645
0.0421242
0.0332827
0.033281
0.042092
0.0466007
0.0466781
0.0421409
0.0333133
0.0333117
0.0421118
0.04662
0.0467237
0.0421968
0.0333416
0.03334
0.0421682
0.0466666
0.0467346
0.0422096
0.0333684
0.0333669
0.0421841
0.046683
0.0467777
0.0422618
0.033393
0.0333916
0.0422366
0.0467266
0.0467861
0.0422713
0.0334166
0.0334152
0.0422488
0.0467401
0.046827
0.0423204
0.0334382
0.0334369
0.042298
0.0467811
0.0468335
0.042327
0.0334591
0.0334578
0.042307
0.0467921
0.0468725
0.0423736
0.0334783
0.0334772
0.0423534
0.046831
0.0468774
0.0423778
0.0334971
0.033496
0.0423598
0.0468399
0.0469147
0.0424221
0.0335145
0.0335134
0.0424038
0.0468769
0.046918
0.0424242
0.0335314
0.0335304
0.0424079
0.046884
0.0469537
0.0424664
0.033547
0.0335461
0.0424498
0.0469193
0.0469555
0.0424665
0.0335623
0.0335614
0.0424518
0.0469246
0.0469898
0.0425068
0.0335765
0.0335756
0.0424918
0.0469584
0.0469902
0.0425051
0.0335903
0.0335895
0.0424918
0.0469621
0.047023
0.0425437
0.033603
0.0336023
0.0425301
0.0469945
0.0470221
0.0425404
0.0336156
0.0336148
0.0425284
0.0469967
0.0470537
0.0425773
0.033627
0.0336263
0.042565
0.0470277
0.0470515
0.0425724
0.0336383
0.0336376
0.0425616
0.0470285
0.0470816
0.0426078
0.0336485
0.0336479
0.0425967
0.0470581
0.0470782
0.0426013
0.0336585
0.0336579
0.0425917
0.0470575
0.0471071
0.0426353
0.0336676
0.033667
0.0426253
0.0470858
0.0471026
0.0426276
0.0336766
0.0336761
0.0426189
0.0470838
0.0471307
0.0426605
0.0336849
0.0336843
0.0426512
0.047111
0.0471254
0.0426517
0.0336932
0.0336927
0.0426437
0.0471081
0.047153
0.0426839
0.033701
0.0337005
0.0426751
0.0471344
0.0471475
0.0426748
0.0337091
0.0337087
0.0426669
0.0471307
0.0471752
0.0427069
0.033717
0.0337166
0.0426981
0.0471567
0.04717
0.042698
0.0337255
0.0337251
0.0426899
0.047153
0.0471982
0.0427305
0.033734
0.0337337
0.0427213
0.0471792
0.0471938
0.0427222
0.0337434
0.0337431
0.0427136
0.047176
0.0472229
0.0427556
0.0337529
0.0337526
0.0427458
0.0472029
0.0472195
0.0427483
0.0337633
0.0337631
0.0427391
0.0472007
0.0472488
0.0427821
0.0337735
0.0337734
0.0427722
0.0472287
0.0472451
0.0427746
0.0337841
0.033784
0.0427658
0.047227
0.0472737
0.0428077
0.0337938
0.0337937
0.0427986
0.047255
0.0472689
0.042799
0.0338033
0.0338032
0.0427913
0.0472527
0.0472971
0.0428315
0.033812
0.0338119
0.0428234
0.0472787
0.047309
0.0428448
0.0338213
0.0338212
0.0428154
0.0472597
0.0473049
0.0428515
0.0338562
0.0338386
0.0428104
0.047259
0.0473782
0.0428698
0.0338442
0.0337591
0.0427272
0.0471525
0.0473597
0.0428976
0.0338312
0.0335598
0.0424119
0.0468321
0.0476693
0.043238
0.0341531
0.0336899
0.0426237
0.0470419
0.0501894
0.0459267
0.0365942
0.0364111
0.0465014
0.0519831
0.0629689
0.0564298
0.0439317
0.0448005
0.059832
0.0700336
0.0724384
0.0639122
0.0494952
0.0799326
0.0868776
0.095669
0.11818
0.0734077
0.0583403
0.0520472
0.0620659
0.0430327
0.0293991
0.0236249
0.0209206
0.0198321
0.0192161
0.0190361
0.0189353
0.0189343
0.0189386
0.018957
0.0189713
0.0189842
0.0189955
0.0190201
0.0190344
0.0191496
0.0192014
0.0193775
0.0195608
0.0195391
0.0200189
0.019774
0.0191279
0.0176324
0.0174725
0.0153524
0.0158397
0.0149406
0.0155053
0.015398
0.0156899
0.0157167
0.0158021
0.0158053
0.01582
0.0158144
0.0158085
0.0158101
0.0158122
0.0158027
0.0158085
0.0157972
0.0158001
0.0157861
0.0157871
0.0157714
0.0157669
0.0157576
0.0157474
0.0157359
0.0157232
0.015709
0.015693
0.015675
0.0156548
0.015636
0.0156025
0.0155815
0.0155413
0.0155128
0.0154645
0.0154268
0.0153686
0.0153162
0.0152577
0.0151813
0.015113
0.0150259
0.0149312
0.0148396
0.0147249
0.014613
0.0144926
0.0143535
0.0142206
0.0140661
0.0139184
0.0137505
0.0135904
0.0134117
0.0132418
0.0130553
0.0128757
0.0126909
0.0125047
0.012318
0.0121315
0.0119456
0.0117612
0.0115785
0.0113982
0.0112206
0.0110461
0.0108777
0.0107049
0.0105464
0.0103817
0.0102313
0.0100752
0.00993325
0.00978592
0.00965264
0.00951662
0.00938497
0.00926461
0.00913939
0.00902747
0.00891072
0.00880695
0.00869845
0.00860251
0.00850181
0.00841126
0.00832223
0.00823674
0.00815473
0.00807621
0.00800055
0.0079281
0.00785907
0.00779281
0.00772943
0.00766883
0.00761092
0.00755561
0.00750282
0.00745247
0.00740447
0.00735875
0.00731524
0.00727385
0.00723452
0.00719721
0.00716195
0.00712821
0.00709631
0.00706651
0.00703818
0.0070115
0.00698645
0.00696293
0.00694091
0.00692036
0.00690123
0.00688351
0.00686714
0.00685212
0.00683841
0.00682601
0.00681455
0.00680024
0.00678911
0.00674593
0.00672792
0.00659456
0.00664196
0.00639622
0.00678077
0.00657174
0.00748153
0.00717222
0.00711103
0.00710981
0.00711211
0.0070959
0.00706024
0.00702141
0.00698817
0.00696427
0.00694737
0.00693383
0.00692184
0.00691048
0.00689824
0.00688508
0.00687131
0.00685675
0.00684142
0.00682534
0.00680857
0.00679115
0.00677311
0.00675446
0.00673527
0.00671554
0.00669531
0.00667463
0.00665338
0.00663175
0.00660997
0.0065879
0.0065656
0.00654311
0.00652047
0.00649773
0.00647493
0.00645213
0.00642937
0.00640668
0.00638412
0.00636188
0.00633984
0.00631789
0.00629622
0.00627487
0.0062539
0.00623349
0.00621329
0.00619341
0.0061752
0.00615667
0.00613935
0.00612794
0.00612516
0.0061469
0.00620762
0.00631491
0.00645928
0.00656302
0.00643639
0.00634986
0.0134478
0.0115523
0.011463
0.0116336
0.0116269
0.0117533
0.0117315
0.0117875
0.0117415
0.0117808
0.0117246
0.0117577
0.011698
0.0117286
0.0116669
0.0116955
0.011632
0.0116586
0.0115937
0.0116186
0.0115522
0.0115754
0.0115076
0.0115291
0.01146
0.0114798
0.0114094
0.0114276
0.0113559
0.0113724
0.0112994
0.0113141
0.0112398
0.0112527
0.011177
0.011188
0.0111109
0.0111199
0.0110413
0.0110481
0.0109679
0.0109726
0.0108907
0.010893
0.0108093
0.0108091
0.0107236
0.0107208
0.0106333
0.0106277
0.0105382
0.0105296
0.0104378
0.0104261
0.0103319
0.0103168
0.0102201
0.0102014
0.0101019
0.0100794
0.00997706
0.00995051
0.00984513
0.00981436
0.00970581
0.00967063
0.00955881
0.00951903
0.00940381
0.00935926
0.00924056
0.0091911
0.00906885
0.00901438
0.00888859
0.0088291
0.00869986
0.00863542
0.00850292
0.00843375
0.00829834
0.00822483
0.00808705
0.0080098
0.00787043
0.00779044
0.00765052
0.00756905
0.00742992
0.00734848
0.0072118
0.00713224
0.00699996
0.00692452
0.00679889
0.00673006
0.00661322
0.00655688
0.00644161
0.00640612
0.00630064
0.00627782
0.00618613
0.00617661
0.00609844
0.00609901
0.0060531
0.0060557
0.0060383
0.00603607
0.00603301
0.00602858
0.00603976
0.00603303
0.00605291
0.00604555
0.00607339
0.00606465
0.00609362
0.00608887
0.00611269
0.00611149
0.00613581
0.00612866
0.00616535
0.00615212
0.00617662
0.00614785
0.00615088
0.0060739
0.00606474
0.00594425
0.00603393
0.00600856
0.00648487
0.00709686
0.00743039
0.00758217
0.00701507
0.00672998
0.00637227
0.00658647
0.00766163
0.00644363
0.00622925
0.00739919
0.00322602
0.00765026
0.00738661
0.00768062
0.0077455
0.00755908
0.00770717
0.00794199
0.00770998
0.00786058
0.00794549
0.00779822
0.00799706
0.00316963
0.00334368
0.00350276
0.00782124
0.00647516
0.00646206
0.00776974
0.00793224
0.00657022
0.00652917
0.00787352
0.00356997
0.00358981
0.007957
0.00659372
0.00653218
0.00788096
0.00794264
0.00658068
0.00651638
0.00786829
0.00359362
0.00359382
0.00793862
0.0065656
0.00650508
0.00785799
0.00792797
0.00655142
0.00649237
0.00785069
0.00358922
0.00358765
0.00791871
0.0065385
0.00648232
0.00784743
0.00791076
0.0065275
0.00647652
0.00785
0.00358449
0.00358261
0.00790449
0.0065192
0.00647643
0.00786092
0.00790157
0.00651445
0.0064893
0.00788398
0.0035864
0.00360188
0.00790345
0.00651405
0.00651628
0.00792427
0.00791218
0.00651996
0.00656144
0.00798573
0.0036226
0.00365559
0.00793
0.00653542
0.00662754
0.00807099
0.00796153
0.00657385
0.00671768
0.00818466
0.00369914
0.00375521
0.00801182
0.0066425
0.00683373
0.00832857
0.00808571
0.00673436
0.00697583
0.00850214
0.00382411
0.00390584
0.00818705
0.00685077
0.00714173
0.00870621
0.00831672
0.00699438
0.00732481
0.00892508
0.0039965
0.00409556
0.00847601
0.00715704
0.00752611
0.00916276
0.00866239
0.00733827
0.00773816
0.0094094
0.00420059
0.00430807
0.00887804
0.00754195
0.00795555
0.00966044
0.00910715
0.00775218
0.00817449
0.00991155
0.00441661
0.00452463
0.00934195
0.00796231
0.00839196
0.0101594
0.00957858
0.00816983
0.00860583
0.0104013
0.00463077
0.0047344
0.00981864
0.00837768
0.00881423
0.0106358
0.010063
0.00858765
0.00901538
0.0108615
0.00483463
0.00493082
0.0103034
0.00879233
0.00920859
0.0110777
0.0105376
0.00899045
0.00939337
0.0112839
0.0050229
0.00511093
0.0107642
0.00918108
0.00956952
0.0114801
0.0109821
0.00936366
0.009737
0.0116664
0.00519465
0.00527386
0.0111906
0.00953788
0.00989595
0.0118428
0.0113894
0.00970366
0.0100466
0.0120098
0.005349
0.00541995
0.0115784
0.00986106
0.0101891
0.0121677
0.0117577
0.0100103
0.010324
0.0123168
0.00548733
0.00555044
0.0119274
0.0101515
0.0104514
0.0124575
0.012088
0.0102851
0.0105717
0.0125901
0.00561042
0.0056665
0.0122396
0.0104113
0.0106851
0.0127149
0.0123826
0.0105303
0.0107921
0.0128324
0.00571935
0.00576891
0.0125171
0.0106426
0.010893
0.012943
0.0126437
0.0107484
0.0109883
0.0130472
0.00581575
0.00585977
0.0127628
0.0108483
0.0110782
0.0131453
0.0128747
0.0109425
0.0111631
0.0132376
0.00590086
0.00593955
0.01298
0.0110313
0.0112433
0.0133244
0.0130789
0.0111151
0.0113189
0.013406
0.00597583
0.00600982
0.0131719
0.0111941
0.0113903
0.0134827
0.0132592
0.0112686
0.0114575
0.0135546
0.00604161
0.00607128
0.0133411
0.0113388
0.0115208
0.0136219
0.0134178
0.0114048
0.0115804
0.0136847
0.00609889
0.0061245
0.0134894
0.0114668
0.0116364
0.0137434
0.0135563
0.0115251
0.0116889
0.013798
0.00614821
0.00617012
0.0136187
0.0115798
0.0117381
0.0138488
0.0136768
0.0116309
0.0117841
0.0138958
0.00619026
0.00620866
0.0137306
0.0116786
0.0118269
0.0139389
0.0137802
0.011723
0.0118664
0.0139783
0.0062253
0.00624017
0.0138258
0.0117641
0.0119027
0.0140137
0.0138674
0.0118018
0.0119356
0.0140452
0.00625324
0.00626447
0.0139049
0.011836
0.011965
0.0140726
0.0139381
0.0118667
0.011991
0.014096
0.00627367
0.0062801
0.0139673
0.0118937
0.0120132
0.0141146
0.0139925
0.0119171
0.0120304
0.0141271
0.00628307
0.00627603
0.0140127
0.011936
0.0120481
0.0141354
0.0140162
0.0119453
0.012042
0.0141226
0.00625783
0.00623357
0.0139791
0.0119274
0.0120047
0.0140745
0.0138015
0.0118114
0.0118626
0.0139192
0.00622783
0.00594463
0.00582219
0.00583899
0.00587702
0.00589861
0.0059023
0.00590139
0.00589738
0.00589131
0.00588363
0.00587434
0.0058635
0.00585116
0.00583731
0.00582197
0.00580509
0.00578663
0.0057665
0.00574461
0.00572095
0.00569546
0.00566807
0.0056387
0.00560738
0.00557361
0.00553758
0.00549944
0.00545864
0.00541519
0.00536836
0.00531892
0.00526564
0.00520921