/*--------------------------------*- C++ -*----------------------------------*\
| =========                 |                                                 |
| \\      /  F ield         | OpenFOAM: The Open Source CFD Toolbox           |
|  \\    /   O peration     | Version:  v2006                                 |
|   \\  /    A nd           | Website:  www.openfoam.com                      |
|    \\/     M anipulation  |                                                 |
\*---------------------------------------------------------------------------*/
FoamFile
{
    version     2.0;
    format      ascii;
    class       volScalarField;
    location    "0.007";
    object      T;
}
// * * * * * * * * * * * * * * * * * * * * * * * * * * * * * * * * * * * * * //

dimensions      [0 0 0 1 0 0 0];


internalField   nonuniform List<scalar> 
16277
(
298.599
298.598
298.594
298.594
298.594
298.596
298.599
298.604
298.609
298.615
298.622
298.629
298.636
298.644
298.652
298.66
298.669
298.678
298.687
298.696
298.706
298.715
298.725
298.735
298.745
298.755
298.765
298.775
298.786
298.796
298.807
298.817
298.828
298.839
298.849
298.86
298.871
298.882
298.892
298.903
298.914
298.925
298.935
298.946
298.957
298.967
298.978
298.988
298.999
299.009
299.019
299.03
299.04
299.05
299.06
299.07
299.079
299.089
299.098
299.108
299.117
299.126
299.135
299.144
299.153
299.161
299.17
299.178
299.186
299.194
299.201
299.209
299.216
299.223
299.229
299.236
299.242
299.248
299.253
299.259
299.263
299.268
299.272
299.275
299.277
299.278
299.278
299.278
299.277
299.275
299.274
299.275
299.277
299.28
299.285
299.292
299.318
299.332
299.297
299.289
299.297
299.31
299.349
299.37
299.322
299.307
299.32
299.337
299.386
299.406
299.353
299.333
299.348
299.369
299.421
299.441
299.386
299.364
299.38
299.402
299.454
299.473
299.421
299.397
299.414
299.437
299.485
299.506
299.458
299.434
299.454
299.477
299.522
299.547
299.502
299.478
299.503
299.526
299.569
299.599
299.555
299.53
299.558
299.582
299.622
299.651
299.613
299.588
299.616
299.638
299.672
299.697
299.667
299.644
299.669
299.688
299.713
299.737
299.715
299.696
299.718
299.733
299.753
299.777
299.758
299.743
299.763
299.776
299.794
299.821
299.801
299.788
299.807
299.819
299.839
299.868
299.846
299.833
299.854
299.867
299.889
299.921
299.897
299.882
299.906
299.921
299.946
299.981
299.955
299.937
299.965
299.982
300.009
300.047
300.019
300
300.031
300.049
300.078
300.117
300.088
300.068
300.101
300.121
300.148
300.186
300.161
300.14
300.175
300.193
300.216
300.253
300.234
300.215
300.249
300.265
300.282
300.317
300.304
300.288
300.322
300.335
300.345
300.38
300.373
300.36
300.392
300.402
300.407
300.442
300.439
300.429
300.46
300.467
300.47
300.506
300.504
300.497
300.527
300.533
300.536
300.573
300.57
300.564
300.595
300.6
300.603
300.642
300.638
300.633
300.664
300.669
300.674
300.714
300.709
300.703
300.736
300.742
300.747
300.788
300.782
300.776
300.81
300.816
300.823
300.864
300.858
300.851
300.887
300.893
300.9
300.942
300.935
300.929
300.965
300.971
300.979
301.021
301.014
301.007
301.044
301.05
301.057
301.099
301.093
301.087
301.124
301.13
301.136
301.179
301.173
301.167
301.205
301.211
301.217
301.261
301.255
301.249
301.288
301.293
301.3
301.345
301.338
301.332
301.371
301.377
301.384
301.426
301.421
301.415
301.454
301.46
301.465
301.502
301.502
301.498
301.535
301.538
301.537
301.574
301.579
301.577
301.613
301.61
301.596
301.631
301.643
301.648
301.682
301.677
301.66
301.661
301.691
301.711
301.724
301.709
301.726
302.448
301.861
301.759
301.9
302.457
303.352
303.617
303.085
302.216
302.71
303.424
303.7
303.728
303.542
303.07
303.299
303.6
303.751
303.756
303.591
303.337
303.388
303.619
303.789
303.813
303.63
303.392
303.473
303.71
303.871
303.896
303.757
303.52
303.66
303.861
303.942
303.957
303.904
303.734
303.863
303.969
303.978
303.993
303.993
303.915
303.988
304.024
304.002
304.014
304.042
304.025
304.061
304.055
304.019
304.026
304.06
304.081
304.089
304.058
304.033
304.045
304.057
304.088
304.078
304.054
304.056
304.076
304.059
304.072
304.078
304.074
304.097
304.124
304.095
304.094
304.111
304.115
304.143
304.165
304.134
304.126
304.132
304.143
304.177
304.193
304.155
304.141
304.145
304.16
304.199
304.207
304.17
304.155
304.156
304.17
304.204
304.199
304.173
304.161
304.155
304.165
304.183
304.168
304.158
304.151
304.14
304.143
304.15
304.141
304.131
304.133
304.123
304.121
304.139
304.146
304.119
304.12
304.112
304.117
304.149
304.149
304.119
304.103
304.087
304.11
304.138
304.122
304.097
304.068
304.041
304.074
304.098
304.074
304.051
304.018
303.987
304.02
304.045
304.019
303.995
303.963
303.929
303.961
303.988
303.961
303.936
303.9
303.861
303.899
303.928
303.9
303.87
303.823
303.77
303.827
303.863
303.831
303.793
303.719
303.645
303.738
303.788
303.75
303.694
303.574
303.474
303.622
303.697
303.649
303.564
303.376
303.239
303.467
303.581
303.518
303.389
303.116
302.954
303.264
303.429
303.351
303.17
302.834
302.683
303.03
303.241
303.151
302.935
302.582
302.453
302.793
303.028
302.932
302.701
302.369
302.26
302.567
302.803
302.706
302.481
302.188
302.091
302.357
302.577
302.482
302.276
302.024
301.932
302.158
302.356
302.26
302.078
301.866
301.774
301.964
302.137
302.042
301.884
301.707
301.618
301.773
301.921
301.827
301.694
301.552
301.465
301.588
301.709
301.619
301.511
301.4
301.317
301.41
301.506
301.421
301.336
301.253
301.172
301.242
301.318
301.238
301.172
301.11
301.032
301.084
301.145
301.071
301.019
300.972
300.897
300.937
300.985
300.919
300.875
300.838
300.763
300.795
300.837
300.774
300.735
300.705
300.631
300.658
300.695
300.635
300.599
300.574
300.498
300.521
300.555
300.492
300.46
300.439
300.359
300.377
300.406
300.346
300.316
300.299
300.226
300.24
300.268
300.205
300.184
300.169
300.098
300.109
300.13
300.049
300.038
300.033
300.02
300.014
300.017
300.017
300.017
300.018
300.018
300.018
300.018
300.018
300.018
300.018
300.018
300.019
300.019
300.018
300.017
300.012
300.012
300.011
300.011
300.009
300.006
300.005
300.008
300.041
300.035
300.034
300.081
300.087
300.096
300.165
300.151
300.135
300.175
300.199
300.216
300.261
300.243
300.215
300.252
300.283
300.302
300.344
300.325
300.291
300.326
300.362
300.383
300.427
300.404
300.366
300.406
300.445
300.467
300.51
300.487
300.446
300.479
300.523
300.547
300.59
300.564
300.518
300.557
300.603
300.629
300.67
300.645
300.597
300.63
300.68
300.707
300.749
300.721
300.669
300.709
300.761
300.787
300.829
300.802
300.748
300.78
300.836
300.865
300.906
300.876
300.819
300.858
300.915
300.944
300.985
300.956
300.895
300.927
300.99
301.02
301.062
301.03
300.965
301.005
301.069
301.1
301.142
301.111
301.044
301.077
301.147
301.179
301.222
301.189
301.116
301.158
301.23
301.263
301.307
301.274
301.198
301.232
301.311
301.345
301.391
301.355
301.273
301.317
301.398
301.433
301.48
301.445
301.359
301.394
301.484
301.521
301.57
301.531
301.437
301.483
301.576
301.614
301.664
301.625
301.527
301.562
301.665
301.706
301.758
301.715
301.608
301.655
301.762
301.804
301.855
301.813
301.701
301.737
301.854
301.899
301.952
301.905
301.785
301.833
301.953
301.999
302.052
302.005
301.88
301.915
302.045
302.095
302.149
302.098
301.964
302.012
302.145
302.196
302.249
302.198
302.058
302.092
302.237
302.292
302.346
302.29
302.141
302.189
302.337
302.392
302.445
302.389
302.234
302.265
302.427
302.487
302.541
302.479
302.314
302.361
302.526
302.587
302.639
302.578
302.404
302.434
302.613
302.68
302.733
302.666
302.485
302.531
302.712
302.779
302.831
302.764
302.575
302.603
302.798
302.87
302.924
302.853
302.661
302.709
302.899
302.969
303.022
302.953
302.756
302.788
302.987
303.061
303.116
303.047
302.858
302.91
303.096
303.163
303.216
303.152
302.962
302.997
303.186
303.255
303.31
303.249
303.08
303.133
303.298
303.355
303.406
303.351
303.186
303.222
303.384
303.442
303.493
303.445
303.31
303.361
303.49
303.534
303.579
303.537
303.41
303.442
303.565
303.609
303.653
303.616
303.516
303.555
303.65
303.684
303.721
303.687
303.593
303.616
303.708
303.743
303.777
303.747
303.672
303.7
303.772
303.8
303.828
303.8
303.728
303.744
303.814
303.845
303.87
303.843
303.784
303.804
303.862
303.887
303.908
303.882
303.825
303.839
303.893
303.92
303.94
303.918
303.874
303.892
303.933
303.954
303.972
303.953
303.914
303.93
303.966
303.984
304.003
303.987
303.957
303.97
304.001
304.016
304.032
304.017
303.982
303.99
304.025
304.042
304.057
304.04
304.006
304.015
304.05
304.067
304.08
304.061
304.025
304.032
304.067
304.086
304.095
304.077
304.043
304.049
304.08
304.098
304.103
304.089
304.061
304.068
304.095
304.108
304.12
304.113
304.096
304.098
304.124
304.138
304.15
304.137
304.114
304.127
304.152
304.163
304.17
304.159
304.134
304.144
304.171
304.183
304.19
304.179
304.152
304.157
304.187
304.201
304.206
304.192
304.162
304.167
304.197
304.213
304.214
304.199
304.171
304.176
304.201
304.215
304.215
304.204
304.181
304.203
304.217
304.223
304.233
304.22
304.193
304.196
304.223
304.237
304.238
304.221
304.191
304.188
304.219
304.237
304.236
304.217
304.186
304.184
304.213
304.232
304.229
304.211
304.186
304.19
304.212
304.225
304.23
304.224
304.207
304.196
304.223
304.237
304.241
304.226
304.199
304.198
304.225
304.241
304.238
304.22
304.194
304.19
304.214
304.235
304.234
304.223
304.203
304.209
304.223
304.23
304.228
304.213
304.191
304.187
304.21
304.228
304.219
304.198
304.177
304.172
304.189
304.211
304.209
304.196
304.179
304.178
304.192
304.2
304.191
304.182
304.169
304.153
304.167
304.183
304.165
304.149
304.141
304.145
304.154
304.166
304.155
304.143
304.134
304.123
304.129
304.139
304.132
304.117
304.108
304.078
304.084
304.107
304.101
304.081
304.078
304.058
304.066
304.084
304.042
304.021
304.017
304.004
304.002
304.029
303.98
303.959
303.953
303.863
303.854
303.885
303.841
303.791
303.802
303.692
303.661
303.705
303.577
303.491
303.484
303.281
303.154
303.252
302.852
302.76
302.933
302.229
302.113
302.121
301.898
301.853
302.138
301.922
301.715
301.96
302.223
301.743
301.851
302.239
302.193
302.595
302.54
302.186
302.153
302.401
302.474
302.753
302.668
302.373
302.218
302.414
302.556
302.775
302.783
302.645
302.568
302.462
302.597
302.841
302.874
302.702
302.612
302.48
302.615
302.837
302.865
302.689
302.578
302.712
302.778
302.899
302.83
302.699
302.592
302.673
302.768
302.893
302.911
302.827
302.785
302.671
302.762
302.865
302.922
302.815
302.738
302.832
302.881
302.954
302.921
302.83
302.754
302.799
302.86
302.964
303.013
302.941
302.897
302.825
302.891
302.978
303.025
302.931
302.873
302.965
303.017
303.082
303.076
302.983
302.925
302.965
303.016
303.107
303.161
303.098
303.063
303.012
303.065
303.147
303.185
303.106
303.057
303.133
303.175
303.233
303.218
303.144
303.099
303.132
303.176
303.248
303.282
303.219
303.19
303.226
303.256
303.301
303.274
303.218
303.193
303.212
303.245
303.303
303.305
303.267
303.24
303.209
303.232
303.279
303.3
303.251
303.221
303.243
303.266
303.301
303.275
303.23
303.212
303.219
303.243
303.291
303.293
303.258
303.241
303.202
303.225
303.274
303.279
303.232
303.206
303.231
303.25
303.286
303.263
303.214
303.193
303.201
303.234
303.284
303.29
303.25
303.239
303.181
303.21
303.268
303.275
303.224
303.189
303.225
303.242
303.281
303.252
303.198
303.173
303.186
303.219
303.273
303.275
303.232
303.22
303.16
303.187
303.241
303.248
303.203
303.189
303.11
303.147
303.215
303.227
303.168
303.122
303.176
303.183
303.23
303.193
303.12
303.078
303.091
303.145
303.21
303.21
303.157
303.149
303.042
303.087
303.167
303.18
303.107
303.052
303.114
303.138
303.191
303.155
303.082
303.045
303.062
303.115
303.188
303.198
303.144
303.129
303.039
303.081
303.161
303.19
303.118
303.056
303.124
303.152
303.204
303.175
303.106
303.073
303.12
303.146
303.204
303.197
303.098
303.049
303.067
303.121
303.2
303.206
303.152
303.127
303.063
303.095
303.168
303.186
303.119
303.077
303.113
303.137
303.186
303.146
303.091
303.068
303.097
303.111
303.161
303.127
303.051
303.016
303.023
303.066
303.128
303.124
303.074
303.063
302.99
303.016
303.075
303.081
303.027
302.995
303.016
303.026
303.076
303.031
302.983
302.961
302.982
302.996
303.043
302.997
302.933
302.909
302.908
302.94
302.998
302.985
302.94
302.929
302.868
302.886
302.943
302.947
302.893
302.867
302.88
302.897
302.948
302.91
302.859
302.842
302.859
302.877
302.926
302.891
302.823
302.799
302.803
302.835
302.902
302.901
302.85
302.829
302.785
302.806
302.867
302.887
302.833
302.806
302.768
302.793
302.864
302.904
302.828
302.782
302.83
302.875
302.923
302.907
302.831
302.802
302.829
302.873
302.934
302.905
302.828
302.8
302.817
302.872
302.948
302.959
302.91
302.868
302.841
302.867
302.933
302.971
302.91
302.87
302.843
302.871
302.945
302.985
302.909
302.858
302.905
302.95
302.999
302.963
302.896
302.871
302.886
302.925
302.98
302.951
302.879
302.856
302.862
302.905
302.979
302.985
302.934
302.896
302.867
302.887
302.963
302.976
302.919
302.882
302.858
302.882
302.949
302.985
302.924
302.882
302.852
302.877
302.952
302.976
302.903
302.855
302.886
302.932
302.977
302.951
302.887
302.862
302.879
302.922
302.979
302.964
302.886
302.861
302.872
302.914
302.995
303.027
302.967
302.915
302.896
302.922
303.005
303.062
302.989
302.931
302.915
302.943
303.035
303.077
303.003
302.948
302.933
302.962
303.055
303.111
303.015
302.956
303.027
303.091
303.153
303.133
303.045
303.012
303.066
303.13
303.21
303.188
303.085
303.056
303.117
303.178
303.26
303.238
303.138
303.104
303.15
303.208
303.311
303.347
303.28
303.217
303.198
303.23
303.321
303.382
303.304
303.245
303.226
303.259
303.356
303.414
303.334
303.277
303.253
303.287
303.386
303.441
303.346
303.283
303.35
303.407
303.47
303.447
303.359
303.327
303.37
303.429
303.506
303.476
303.379
303.345
303.383
303.437
303.514
303.482
303.387
303.355
303.374
303.438
303.53
303.545
303.484
303.433
303.405
303.431
303.534
303.559
303.482
303.437
303.408
303.434
303.541
303.569
303.491
303.447
303.405
303.44
303.535
303.579
303.485
303.42
303.476
303.536
303.595
303.566
303.471
303.439
303.459
303.509
303.582
303.545
303.453
303.424
303.447
303.494
303.57
303.535
303.442
303.413
303.44
303.486
303.563
303.526
303.429
303.399
303.411
303.466
303.56
303.566
303.502
303.456
303.415
303.442
303.545
303.563
303.484
303.438
303.403
303.434
303.54
303.556
303.475
303.425
303.385
303.416
303.516
303.534
303.455
303.412
303.36
303.391
303.491
303.525
303.424
303.367
303.409
303.46
303.528
303.491
303.395
303.367
303.386
303.43
303.509
303.478
303.372
303.345
303.368
303.412
303.495
303.465
303.353
303.325
303.353
303.399
303.482
303.436
303.334
303.301
303.308
303.366
303.464
303.461
303.393
303.347
303.298
303.326
303.422
303.438
303.358
303.315
303.272
303.295
303.413
303.424
303.336
303.293
303.253
303.281
303.381
303.399
303.32
303.278
303.224
303.256
303.354
303.386
303.287
303.229
303.268
303.321
303.391
303.35
303.256
303.225
303.243
303.287
303.368
303.343
303.217
303.192
303.207
303.254
303.34
303.308
303.191
303.164
303.187
303.226
303.316
303.268
303.162
303.129
303.148
303.198
303.279
303.232
303.13
303.099
303.097
303.154
303.258
303.249
303.184
303.124
303.081
303.109
303.218
303.23
303.142
303.094
303.054
303.08
303.191
303.201
303.112
303.072
303.011
303.039
303.16
303.162
303.073
303.025
302.975
303.006
303.11
303.117
303.034
302.992
302.934
302.963
303.062
303.088
302.987
302.929
302.957
303.01
303.082
303.029
302.934
302.902
302.914
302.958
303.042
303.002
302.887
302.86
302.873
302.921
303.013
302.976
302.854
302.827
302.845
302.891
302.985
302.929
302.821
302.789
302.802
302.854
302.939
302.889
302.785
302.757
302.746
302.806
302.911
302.903
302.835
302.774
302.72
302.752
302.875
302.873
302.785
302.725
302.689
302.712
302.854
302.854
302.75
302.708
302.65
302.677
302.809
302.817
302.717
302.669
302.619
302.65
302.763
302.772
302.685
302.63
302.584
302.613
302.72
302.744
302.636
302.575
302.605
302.663
302.74
302.689
302.575
302.54
302.548
302.604
302.698
302.652
302.528
302.499
302.514
302.562
302.665
302.62
302.485
302.459
302.474
302.523
302.627
302.571
302.452
302.421
302.43
302.487
302.579
302.523
302.414
302.388
302.373
302.44
302.549
302.54
302.463
302.403
302.336
302.372
302.492
302.504
302.405
302.342
302.299
302.327
302.454
302.463
302.359
302.311
302.25
302.276
302.433
302.424
302.315
302.262
302.208
302.239
302.376
302.379
302.274
302.219
302.161
302.194
302.318
302.324
302.229
302.166
302.128
302.153
302.264
302.284
302.174
302.101
302.132
302.194
302.275
302.21
302.095
302.056
302.06
302.122
302.221
302.178
302.035
302.007
302.012
302.068
302.176
302.134
301.987
301.96
301.966
302.024
302.131
302.075
301.948
301.917
301.922
301.982
302.081
302.022
301.902
301.875
301.859
301.931
302.048
302.035
301.944
301.883
301.819
301.855
301.974
301.994
301.889
301.826
301.773
301.799
301.962
301.955
301.837
301.784
301.731
301.757
301.913
301.906
301.792
301.736
301.681
301.711
301.856
301.855
301.744
301.688
301.637
301.665
301.795
301.826
301.701
301.623
301.652
301.712
301.81
301.745
301.614
301.573
301.581
301.649
301.763
301.711
301.558
301.526
301.535
301.598
301.72
301.674
301.504
301.476
301.487
301.546
301.671
301.603
301.461
301.428
301.433
301.498
301.609
301.544
301.412
301.386
301.359
301.45
301.57
301.541
301.452
301.39
301.314
301.347
301.509
301.512
301.385
301.324
301.27
301.303
301.457
301.475
301.349
301.279
301.224
301.26
301.418
301.431
301.302
301.239
301.171
301.208
301.368
301.379
301.252
301.184
301.129
301.159
301.305
301.333
301.192
301.102
301.15
301.217
301.326
301.245
301.097
301.048
301.064
301.13
301.261
301.202
301.022
300.985
300.993
301.055
301.193
301.137
300.948
300.916
300.928
300.997
301.14
301.065
300.908
300.875
300.861
300.939
301.098
301.102
300.979
300.902
300.811
300.859
301.021
301.045
300.906
300.817
300.766
300.802
300.987
301.001
300.847
300.784
300.7
300.741
300.92
300.937
300.792
300.717
300.651
300.684
300.85
300.886
300.727
300.621
300.676
300.748
300.867
300.79
300.608
300.554
300.566
300.642
300.787
300.748
300.527
300.484
300.507
300.587
300.763
300.679
300.479
300.437
300.451
300.546
300.701
300.619
300.438
300.403
300.391
300.498
300.672
300.657
300.514
300.442
300.332
300.385
300.564
300.596
300.436
300.357
300.271
300.313
300.519
300.537
300.365
300.29
300.197
300.245
300.46
300.472
300.3
300.216
300.135
300.172
300.371
300.397
300.218
300.106
300.141
300.2
300.345
300.293
300.086
300.023
300.072
300.155
300.338
300.266
300.017
299.962
299.996
300.094
300.289
300.192
299.961
299.905
299.927
300.037
300.216
300.118
299.906
299.86
299.839
299.959
300.169
300.155
299.999
299.909
299.774
299.839
300.045
300.066
299.885
299.8
299.691
299.743
299.993
299.992
299.795
299.712
299.598
299.653
299.888
299.871
299.654
299.531
299.597
299.734
299.885
299.792
299.584
299.51
299.561
299.652
299.847
299.753
299.5
299.433
299.474
299.576
299.787
299.689
299.422
299.36
299.39
299.5
299.71
299.599
299.354
299.3
299.268
299.407
299.644
299.619
299.462
299.327
299.202
299.278
299.499
299.521
299.321
299.233
299.103
299.16
299.437
299.423
299.211
299.105
298.981
299.033
299.257
299.302
299.05
298.936
299.039
299.153
299.337
299.24
298.992
298.913
298.945
299.074
299.282
299.201
298.906
298.839
298.894
298.979
299.225
299.099
298.814
298.747
298.724
298.882
299.16
299.123
298.941
298.799
298.642
298.729
298.988
299.015
298.788
298.683
298.538
298.6
298.901
298.917
298.637
298.487
298.496
298.613
298.823
298.718
298.44
298.353
298.425
298.524
298.784
298.694
298.364
298.28
298.338
298.484
298.752
298.615
298.297
298.215
298.19
298.366
298.703
298.687
298.464
298.285
298.124
298.225
298.527
298.559
298.299
298.169
298.014
298.085
298.409
298.468
298.14
297.974
298.064
298.163
298.408
298.248
297.9
297.811
297.819
297.939
298.221
298.048
297.732
297.656
297.611
297.774
298.139
298.19
297.923
297.765
297.602
297.705
298.04
298.099
297.824
297.644
297.524
297.601
297.939
298.04
297.693
297.48
297.596
297.727
297.979
297.826
297.458
297.346
297.39
297.543
297.845
297.691
297.291
297.205
297.126
297.331
297.709
297.578
297.308
297.137
296.934
297.014
297.364
297.415
297.112
296.953
296.817
296.916
297.273
297.433
297.021
296.824
296.987
297.146
297.459
297.273
296.858
296.72
296.77
296.989
297.318
297.141
296.717
296.616
296.535
296.774
297.205
297.127
296.849
296.626
296.374
296.489
296.914
296.883
296.532
296.364
296.147
296.247
296.626
296.542
296.092
295.96
296.103
296.276
296.605
296.454
296.07
295.902
295.894
296.105
296.647
296.665
296.307
296.041
295.8
295.952
296.426
296.467
296.081
295.855
295.642
295.753
296.247
296.279
295.795
295.551
295.571
295.783
296.164
295.914
295.479
295.344
295.122
295.356
295.857
295.716
295.368
295.181
294.881
295.061
295.516
295.821
295.17
294.905
295.113
295.431
295.855
295.582
295.025
294.84
294.934
295.183
295.632
295.372
294.8
294.65
294.532
294.855
295.405
295.243
294.84
294.557
294.266
294.453
294.943
294.824
294.239
293.979
293.991
294.225
294.634
294.404
293.898
293.707
293.742
294.001
294.796
294.821
294.346
293.946
293.712
293.91
294.501
294.615
293.96
293.589
293.735
294.057
294.504
294.156
293.571
293.345
293.096
293.447
294.134
293.727
293.319
293.01
292.572
292.704
293.292
293.47
292.769
292.508
292.573
292.941
293.832
293.854
293.308
292.84
292.519
292.767
293.482
293.575
292.761
292.321
292.444
292.833
293.364
292.835
292.113
291.874
291.515
291.64
292.34
292.403
291.402
291.146
291.546
291.942
292.628
292.32
291.567
291.246
291.234
291.628
292.645
292.719
291.681
291.145
291.293
291.81
292.449
291.658
290.843
290.596
290.161
290.28
291.151
291.53
290.273
289.872
290.368
290.902
291.633
291.471
290.431
290.06
289.988
290.392
291.524
291.601
290.358
289.764
289.161
289.558
290.581
290.849
289.965
289.385
288.995
289.487
290.437
291.34
289.869
289.092
289.117
289.927
291.391
290.878
289.54
288.699
288.606
289.468
291.024
291.902
289.82
288.703
289.532
290.791
291.741
290.86
289.669
289.011
289.055
289.703
291.037
291.922
290.205
289.255
289.739
290.548
292.3
292.998
291.107
290.113
290.699
291.792
293.717
294.517
292.507
291.288
291.824
293.151
295.157
295.607
293.667
292.266
292.632
294.102
295.958
296.236
294.48
292.957
293.254
294.823
296.47
296.655
295.126
293.53
293.786
295.401
296.813
296.94
295.643
294.028
294.254
295.864
297.049
297.136
296.058
294.469
294.672
296.234
297.21
297.267
296.386
294.864
295.045
296.524
297.316
297.352
296.641
295.217
295.378
296.746
297.384
297.405
296.834
295.531
295.673
296.913
297.423
297.435
296.979
295.808
295.933
297.037
297.443
297.446
297.084
296.051
296.158
297.125
297.446
297.445
297.158
296.26
296.351
297.187
297.441
297.433
297.208
296.436
296.512
297.227
297.427
297.416
297.24
296.581
296.642
297.252
297.407
297.394
297.258
296.697
296.743
297.264
297.384
297.369
297.267
296.784
296.818
297.267
297.358
297.342
297.265
296.846
296.868
297.263
297.331
297.314
297.257
296.885
296.899
297.252
297.303
297.286
297.241
296.907
296.913
297.234
297.274
297.257
297.221
296.913
296.911
297.211
297.245
297.227
297.194
296.907
296.902
297.183
297.214
297.195
297.164
296.892
296.884
297.151
297.183
297.163
297.13
296.869
296.859
297.115
297.15
297.13
297.092
296.843
296.831
297.076
297.117
297.096
297.053
296.812
296.8
297.036
297.083
297.062
297.011
296.78
296.767
296.995
297.049
297.026
296.969
296.747
296.735
296.953
297.014
296.99
296.927
296.713
296.702
296.91
296.977
296.952
296.882
296.679
296.666
296.865
296.938
296.911
296.837
296.642
296.63
296.819
296.895
296.868
296.79
296.605
296.593
296.771
296.852
296.824
296.743
296.568
296.556
296.725
296.808
296.78
296.696
296.532
296.52
296.679
296.764
296.737
296.651
296.496
296.485
296.634
296.721
296.694
296.608
296.462
296.451
296.592
296.679
296.652
296.566
296.429
296.418
296.551
296.637
296.612
296.526
296.397
296.386
296.511
296.597
296.572
296.487
296.365
296.355
296.473
296.558
296.534
296.45
296.335
296.325
296.437
296.52
296.496
296.414
296.305
296.295
296.401
296.483
296.459
296.378
296.275
296.265
296.366
296.447
296.423
296.344
296.244
296.234
296.332
296.411
296.388
296.31
296.214
296.204
296.298
296.376
296.353
296.276
296.184
296.174
296.265
296.341
296.318
296.243
296.153
296.143
296.231
296.306
296.283
296.209
296.122
296.111
296.198
296.271
296.248
296.176
296.09
296.079
296.164
296.237
296.213
296.142
296.057
296.046
296.13
296.202
296.178
296.108
296.024
296.013
296.096
296.166
296.143
296.073
295.99
295.978
296.061
296.131
296.107
296.038
295.955
295.943
296.026
296.095
296.07
296.002
295.919
295.907
295.99
296.058
296.033
295.965
295.883
295.87
295.953
296.021
295.996
295.928
295.845
295.833
295.916
295.983
295.958
295.89
295.807
295.794
295.877
295.945
295.919
295.852
295.768
295.755
295.839
295.906
295.88
295.813
295.728
295.715
295.799
295.867
295.841
295.773
295.688
295.675
295.76
295.827
295.801
295.733
295.648
295.634
295.719
295.787
295.761
295.693
295.607
295.593
295.679
295.747
295.721
295.652
295.565
295.551
295.638
295.707
295.681
295.611
295.523
295.509
295.597
295.667
295.64
295.57
295.481
295.467
295.556
295.627
295.6
295.529
295.439
295.425
295.514
295.587
295.56
295.487
295.397
295.383
295.473
295.547
295.52
295.446
295.355
295.341
295.432
295.507
295.481
295.405
295.313
295.299
295.391
295.467
295.441
295.365
295.271
295.258
295.351
295.428
295.403
295.324
295.23
295.217
295.311
295.39
295.364
295.285
295.189
295.176
295.271
295.352
295.327
295.245
295.149
295.136
295.232
295.314
295.289
295.207
295.11
295.097
295.194
295.277
295.253
295.169
295.071
295.058
295.156
295.241
295.217
295.132
295.033
295.02
295.119
295.206
295.182
295.095
294.995
294.983
295.083
295.171
295.148
295.06
294.959
294.947
295.048
295.137
295.114
295.025
294.924
294.912
295.014
295.103
295.081
294.991
294.889
294.878
294.98
295.071
295.049
294.958
294.855
294.845
294.948
295.039
295.018
294.926
294.823
294.812
294.916
295.008
294.988
294.895
294.791
294.78
294.885
294.978
294.958
294.864
294.76
294.75
294.854
294.948
294.929
294.835
294.73
294.72
294.825
294.919
294.9
294.806
294.7
294.691
294.796
294.891
294.873
294.777
294.672
294.663
294.768
294.864
294.846
294.75
294.645
294.636
294.742
294.837
294.819
294.724
294.618
294.61
294.715
294.811
294.794
294.698
294.592
294.584
294.69
294.785
294.769
294.673
294.567
294.559
294.665
294.761
294.744
294.649
294.543
294.535
294.641
294.736
294.72
294.625
294.519
294.512
294.617
294.712
294.696
294.601
294.496
294.489
294.594
294.689
294.673
294.579
294.474
294.467
294.571
294.666
294.65
294.556
294.452
294.445
294.549
294.643
294.628
294.534
294.43
294.423
294.527
294.621
294.607
294.513
294.409
294.402
294.506
294.599
294.585
294.492
294.388
294.382
294.485
294.578
294.563
294.471
294.368
294.362
294.465
294.556
294.543
294.452
294.35
294.343
294.443
294.533
294.523
294.434
294.332
294.323
294.422
294.506
294.498
294.416
294.314
294.285
294.398
294.485
294.474
294.386
294.256
294.23
294.364
294.454
293.993
293.682
292.515
292.002
291.913
291.336
291.088
291.048
290.963
290.651
290.452
290.069
289.697
289.406
289.161
288.956
288.788
288.652
288.543
288.456
288.386
288.33
288.284
288.246
288.215
288.19
288.169
288.151
288.139
288.129
288.122
288.118
288.116
288.146
288.166
288.187
288.208
288.228
288.248
288.269
288.292
288.317
288.345
288.377
288.412
288.451
288.493
288.538
288.586
288.636
288.688
288.742
288.798
288.854
288.912
288.972
289.033
289.096
289.161
289.229
289.3
289.375
289.455
289.54
289.631
289.729
289.834
289.947
290.067
290.195
290.33
290.472
290.62
290.774
290.933
291.098
291.269
291.445
291.627
291.814
292.006
292.203
292.404
292.608
292.815
293.025
293.235
293.446
293.657
293.867
294.075
294.28
294.483
294.682
294.878
295.069
295.256
295.439
295.619
295.815
296.26
296.404
296.368
296.42
296.507
296.618
296.747
296.884
297.022
297.155
297.282
297.402
297.514
297.617
297.714
297.804
297.889
297.969
298.043
298.112
298.176
298.235
298.288
298.335
298.38
298.423
298.457
298.482
298.492
298.497
298.499
298.497
298.493
298.483
298.468
298.449
298.426
298.401
298.373
298.343
298.311
298.278
298.244
298.211
298.178
298.146
298.115
298.087
298.062
298.038
298.016
298.002
297.993
297.988
297.984
297.983
297.985
297.991
298
298.012
298.027
298.046
298.068
298.092
298.12
298.151
298.184
298.22
298.258
298.299
298.342
298.388
298.436
298.487
298.541
298.596
298.653
298.711
298.768
298.824
298.877
298.926
298.97
299.01
299.043
299.072
299.096
299.114
299.128
299.137
299.14
299.14
299.135
299.126
299.113
299.095
299.072
299.045
299.012
298.974
298.932
298.886
298.838
298.789
298.74
298.693
298.649
298.615
298.617
298.624
298.634
298.643
298.65
298.656
298.663
298.671
298.678
298.686
298.693
298.701
298.709
298.717
298.726
298.734
298.743
298.752
298.76
298.768
298.776
298.784
298.792
298.8
298.808
298.816
298.824
298.832
298.84
298.849
298.858
298.866
298.876
298.885
298.894
298.904
298.913
298.923
298.933
298.943
298.953
298.963
298.973
298.984
298.994
299.005
299.015
299.026
299.036
299.047
299.057
299.068
299.078
299.089
299.099
299.11
299.12
299.13
299.141
299.151
299.161
299.172
299.182
299.192
299.201
299.211
299.22
299.23
299.239
299.247
299.256
299.264
299.271
299.279
299.286
299.292
299.298
299.303
299.308
299.312
299.315
299.315
299.314
299.312
299.308
299.304
299.306
299.316
299.321
299.334
299.348
299.363
299.379
299.396
299.414
299.436
299.457
299.482
299.507
299.536
299.563
299.592
299.62
299.648
299.675
299.7
299.726
299.749
299.774
299.796
299.821
299.843
299.87
299.894
299.923
299.951
299.984
300.015
300.049
300.083
300.12
300.156
300.194
300.23
300.269
300.305
300.343
300.378
300.416
300.449
300.487
300.519
300.556
300.588
300.626
300.658
300.697
300.73
300.77
300.804
300.845
300.88
300.922
300.958
301
301.037
301.08
301.117
301.16
301.198
301.242
301.28
301.324
301.363
301.407
301.446
301.49
301.528
301.571
301.608
301.649
301.681
301.717
301.745
301.762
301.796
301.843
301.986
302.093
302.351
302.499
302.759
302.842
302.995
303.03
303.189
303.284
303.514
303.618
303.785
303.874
303.985
304.051
304.097
304.112
304.111
304.104
304.101
304.106
304.114
304.124
304.13
304.14
304.145
304.156
304.161
304.166
304.163
304.159
304.149
304.139
304.123
304.108
304.088
304.07