/*--------------------------------*- C++ -*----------------------------------*\
| =========                 |                                                 |
| \\      /  F ield         | OpenFOAM: The Open Source CFD Toolbox           |
|  \\    /   O peration     | Version:  v2006                                 |
|   \\  /    A nd           | Website:  www.openfoam.com                      |
|    \\/     M anipulation  |                                                 |
\*---------------------------------------------------------------------------*/
FoamFile
{
    version     2.0;
    format      ascii;
    class       volScalarField;
    location    "0.134";
    object      omega;
}
// * * * * * * * * * * * * * * * * * * * * * * * * * * * * * * * * * * * * * //

dimensions      [0 0 -1 0 0 0 0];


internalField   nonuniform List<scalar> 
16277
(
0.00810653
0.00810657
0.00810535
0.00810492
0.00810368
0.00810367
0.00810292
0.00810131
0.00809764
0.00809143
0.00808287
0.00807267
0.00806154
0.00804989
0.00803787
0.00802546
0.00801256
0.00799908
0.00798496
0.00797015
0.00795465
0.00793845
0.00792158
0.00790403
0.00788583
0.00786699
0.00784752
0.00782741
0.0078067
0.00778538
0.00776347
0.00774099
0.00771796
0.00769438
0.00767028
0.00764568
0.00762059
0.00759505
0.00756907
0.00754267
0.00751589
0.00748874
0.00746125
0.00743345
0.00740537
0.00737704
0.00734847
0.00731972
0.00729079
0.00726174
0.00723258
0.00720335
0.00717409
0.00714482
0.00711558
0.00708641
0.00705733
0.00702838
0.00699961
0.00697106
0.00694275
0.00691476
0.00688717
0.00686015
0.00683404
0.00680967
0.00678895
0.0067766
0.00678508
0.00684359
0.00700282
0.00737717
0.00820687
0.00999173
0.0137343
0.0213652
0.0365717
0.0665361
0.125289
0.238465
0.453785
0.84251
1.40712
1.82864
2.498
2.99681
3.63751
6.62701
11.4704
14.4731
12.9724
34.2417
105.412
397.789
3406.76
18601
254897
251709
37848.4
8637.93
15117.7
52962.7
248573
245278
54893.1
17469.8
20705.9
58055.4
236456
232034
57494.9
21300.5
23279.4
58848.1
226110
223288
58184.8
23405.7
24488.9
58586.5
218919
216054
57190.2
24343.9
24967.3
57662.9
212519
210463
56434
24791.6
25247.6
56963.6
207750
206195
55926.6
25050.7
25438.4
56494.7
204000
202775
55590.6
25235.3
25590.3
56182.9
200921
199916
55356.5
25384.8
25720.4
55973
198291
197433
55192.8
25514.4
25837.5
55833.6
195972
195220
55088.3
25631.9
25945.5
55741.8
193877
193199
55020
25740
26045
55677.2
191943
191319
54970.8
25839.2
26137
55626.2
190128
189543
54930.2
25929.4
26221.4
55580.7
188404
187849
54892.5
26010.8
26296.6
55536.3
186750
186217
54853.8
26082.8
26362.8
55489.8
185150
184634
54811.9
26146
26420.6
55439.3
183593
183090
54764.5
26201.1
26470.9
55382.5
182071
181577
54710.4
26249.1
26514.5
55318.8
180575
180089
54649.1
26290.8
26552.2
55247.9
179101
178620
54580.3
26327
26584.7
55169.2
177644
177165
54503.3
26358.1
26612.2
55081.9
176196
175719
54417.5
26384.3
26635
54985.6
174755
174277
54322.4
26406
26653.5
54879.9
173315
172834
54217.8
26423.5
26667.8
54764.4
171871
171386
54103.1
26437
26678
54638.5
170419
169928
53977.7
26446.4
26684.2
54501.6
168954
168456
53841.2
26451.7
26686.1
54353
167474
166967
53692.7
26452.8
26683.7
54192
165975
165458
53531.5
26449.4
26676.6
54017.8
164453
163925
53356.7
26441.2
26664.5
53829.4
162907
162367
53167.2
26427.8
26646.7
53625.6
161334
160782
52960.5
26408.5
26622.5
53404.7
159733
159171
52731.7
26382.3
26590.9
53164.7
158106
157533
52485.2
26348.5
26551.3
52906.2
156453
155871
52218.1
26306.1
26502.4
52626.2
154777
154189
51927.9
26253.9
26442.8
52322.3
153082
152490
51611.8
26190.3
26370.6
51991.7
151375
150783
51267
26113.1
26283.6
51631.7
149664
149078
50889.9
26016.5
26178
51238.5
147961
147389
50476.8
25897.6
26051.4
50808.5
146282
145732
50024.4
25756.9
25901.6
50338.8
144646
144130
49529.1
25589.8
25724
49825.5
143077
142609
48987
25391.5
25513.9
49265.3
141604
141200
48395.3
25157.6
25267
48655
140257
139941
47759.7
24884.4
24979.7
47997.6
139085
138866
47101.6
24571.6
24652.2
47313.1
138140
138018
46412.4
24210.8
24278.1
46598.1
137441
137423
45700.9
23807.9
23864.9
45867
137045
137110
44988.1
23373.9
23424.1
45140.5
136901
137093
44299.1
22924.2
22971
44451.7
137044
137381
43654.7
22466
22511.9
43823
137433
137949
43083.3
22012.3
22063.9
43270.2
138106
138773
42619.3
21592.5
21655.9
42831
139007
139779
42265.8
21224.9
21304
42530
140070
140914
42005.1
20916.3
21012.6
42349.4
141248
142145
41864.4
20669.7
20783.2
42266.9
142508
143437
41833.9
20485
20616
42297
143810
144744
41912.9
20361.8
20510.1
42431.5
145117
146036
42089.8
20294.7
20461.6
42657.3
146396
147279
42354
20268.4
20463.7
42959.4
147617
148448
42686.2
20294.5
20518
43345.9
148756
149522
43074.4
20369.8
20635.3
43810.1
149796
150485
43534
20494.5
20785.7
44304.6
150718
151322
44020.3
20649
20958.5
44811.5
151512
152027
44516.1
20824.5
21148
45315.2
152174
152603
45006.7
21015.2
21347.5
45801.9
152708
153056
45479.2
21214.2
21550.2
46261
153123
153399
45923.6
21415
21750.6
46684.7
153433
153647
46332.9
21612.4
21944.2
47069.4
153651
153804
46703.9
21802.1
22127.8
47415
153790
153894
47036.6
21981.6
22299.2
47720.7
153865
153933
47331.5
22148.5
22456.8
47987.8
153891
153935
47589
22301.5
22600.4
48224.5
153873
153902
47814.4
22440.8
22730
48435.2
153814
153839
48009.8
22566
22844.8
48613.5
153735
153755
48173.5
22676.9
22948.3
48765.7
153633
153649
48315.5
22777.2
23041.7
48898
153517
153528
48441.1
22868.1
23126.8
49013.3
153386
153396
48548.7
22949
23204.6
49113.5
153245
153252
48641.8
23022.3
23273.2
49200.5
153094
153101
48725.1
23086.4
23334
49278.5
152943
152946
48800
23143.9
23387.7
49342
152813
152754
48854.5
23192.4
23449.1
49404
152685
152599
48948.2
23226.3
23468.2
49573.7
152638
151973
48749.1
23132.5
23268.8
48764.4
151434
149533
48555
22989.1
21915.2
46327
147102
138330
48503.9
22451.2
15522.1
27060.3
124073
139435
60773.2
28131.1
13625.7
7035.85
4374.07
3429.51
3055.08
2533.23
2312.56
2154.63
2089.04
2072.3
2105.88
2203.56
2337.71
2582.06
2861.1
3452.94
3782.04
4729.81
5754
7584.75
11738.6
22971.6
55661.3
128528
405748
435108
139261
61250.6
64741.5
147181
460969
483007
153657
68260.4
68377.2
155073
489316
495205
156282
69520.1
69721.9
157860
498939
499527
158263
69993.4
69914.2
158259
499332
499713
158305
69927.5
69924.3
158332
499550
499646
158321
69896.6
69885.6
158330
499772
499616
158318
69854.2
69826.3
158326
500324
500168
158287
69796.8
69769.4
158279
500288
500157
158265
69742
69723.4
158264
500581
501038
158193
69686.7
69668.1
158230
500612
501063
158162
69628.4
69610.2
158209
501209
501643
158109
69573.4
69554.4
158166
501219
501656
158078
69515.5
69497.7
158138
501820
502262
158024
69453.8
69433.9
158074
501857
502304
157984
69392.6
69374.5
158041
502479
502947
157927
69338
69320.6
157976
502560
503034
157889
69283.3
69270.3
157942
503216
503675
157837
69237.7
69226.5
157885
503562
503452
157852
69195.3
69181
157855
503904
504366
157778
69141.9
69128.3
157814
504252
504146
157786
69095
69083.1
157786
504607
505091
157719
69063.4
69051.3
157758
504986
504912
157734
69025.9
69020.6
157758
505377
505860
157704
69003.2
68999.2
157758
505757
505673
157748
68989.3
68988.3
157798
506136
506623
157760
68976.7
68974.7
157838
506520
506437
157842
68968.8
68973
157926
506896
507385
157909
68965.5
68974
158012
507279
507190
158049
68976.4
68991.1
158164
507651
508143
158174
68992.8
69017.2
158338
508038
507945
158414
69021
69044.2
158578
508393
508865
158657
69052.9
69078.2
158866
508445
508892
158986
69088.5
69119.4
159237
509033
509450
159369
69131.6
69169.9
159661
508994
509391
159857
69184.7
69211.7
160199
509506
509896
160412
69217
69235.1
160793
509719
509521
161099
69241.3
69246.6
161496
509886
510265
161784
69244.4
69250
162241
510066
509884
162607
69236.6
69221.1
163070
510282
510737
163410
69157.7
69110.2
163918
510327
510788
164268
69053.5
69004.6
164756
511001
511624
165046
68904.7
68787.1
165479
511779
512032
165711
68562.2
68383.5
166005
512885
513647
166128
68130.1
67911.9
166229
514609
515853
166229
67583.6
67148.3
166021
517353
519176
165575
66573
65984.5
164808
521223
523620
163628
65189.8
64092.5
160183
520969
518317
156565
63235.5
62705.2
154489
524696
522052
155411
62211.3
61182.5
146815
514301
511305
148021
61011.3
60427.2
143467
503249
496375
141105
60065.8
60162.7
138256
484697
469872
133471
59987.1
60374.8
131177
459391
452656
130187
60957
61872.1
130506
434759
406553
121355
62575.6
64131.4
120130
595964
972574
356224
140977
69735.7
173130
728134
656807
187385
74702.8
71924
177112
649178
642433
182248
74140
71029.7
170009
623400
601197
171233
71970
68726.2
155228
574283
547946
157612
70295.1
68486
144476
520008
489066
145098
69405.7
68602.1
133945
445786
637173
128050
69531.6
145333
370264
997712
717633
165173
71528.1
74158
176358
605297
548058
145500
66799.5
67311.1
147034
512974
478349
136050
65161.1
65550.1
132673
446934
412862
124358
65063.7
68190.7
123927
597122
939013
338747
142167
72603.8
156127
683258
594288
167511
75522.6
72176.6
149802
556803
517786
154416
74426.2
73687.9
141223
468038
666908
133441
75571.2
152464
368755
1.00669e+06
704923
172251
78287.8
79642.1
172843
578583
502238
146082
71483.5
71938.8
137041
450757
655308
135142
75125.5
151820
370171
993990
705204
163207
80562.6
83808.7
176593
580055
511700
152120
77656.5
79690.5
144833
719830
1.03606e+06
389383
159441
80911.1
169241
705610
551825
174295
80352.1
69005.2
137750
486269
664981
139378
74029.9
148750
343205
903054
623642
153533
74754.4
78267
157387
788459
988415
366088
155269
66497.8
150729
656428
792721
146215
65244.8
128130
288389
833970
1.0128e+06
163633
64916.3
91554.3
198679
809452
827207
160518
58692.4
71129.8
191387
993492
1.02879e+06
196841
73012.4
65746.6
175160
915617
800488
104076
39068.4
153620
341374
806627
935830
161010
81531.8
186055
374602
846933
781693
189948
99470.6
105880
214712
672387
1.10269e+06
494105
223151
127104
177456
962510
827913
365426
190029
103329
175386
696212
575604
187111
104746
193171
393544
916795
717396
171295
107173
106581
180379
574905
927053
389999
190717
106236
167849
713660
571382
174673
104956
185379
379277
911560
698899
163760
103809
103014
170872
564745
908177
379484
182319
102450
162161
685481
551475
169227
101334
178659
369651
886361
658948
157173
100317
100009
165095
535689
875426
365253
176236
98877.3
155252
646448
520364
161653
97941.9
167981
344916
828958
602334
144488
94363
95579.5
162922
462797
635767
187162
102234
188581
435796
1.03308e+06
751122
167537
103788
101813
171700
598477
986608
388859
188257
104948
166866
711126
576670
176288
104134
181498
393390
967462
714428
159610
102194
101150
166429
578580
960737
380513
184468
102511
161984
692412
565859
171194
102149
184040
380045
970526
701872
163527
102142
101163
167743
564679
950351
395094
181029
101878
159357
695740
563924
169230
102195
181874
399307
962751
721404
162631
103735
103775
173133
591998
1.02792e+06
439252
191703
112294
145034
817898
732929
315473
165299
93018.5
143544
558036
475823
155579
94309.2
168527
346763
823852
614222
147416
95752.1
96259
157129
502623
844647
349832
169840
95799.9
148217
622292
512661
155737
95859.2
174169
363243
873079
650250
152811
98287.8
99000.4
163548
530352
901673
375024
177999
100337
158458
678526
566273
169604
101283
191540
435814
1.00638e+06
811795
143760
113842
171512
321855
741684
578562
153811
96825.3
98659.8
165708
496506
868730
365447
178587
102075
158352
662274
550550
167221
102693
190454
420209
960992
784459
143531
112908
169306
319512
719858
558054
149537
95892.4
98344
163912
485825
858203
365049
177742
101955
158026
652021
550353
172119
103183
193837
428206
980132
797332
147577
115620
173902
327704
735277
578146
155262
99173.8
101311
170295
505703
892906
376231
184545
105210
164251
670350
570331
178100
105807
206891
419440
1.028e+06
819451
155943
121312
182040
347014
758717
593190
159894
102825
106100
177943
526621
975899
427822
200411
120769
151127
807377
760717
336036
180351
103438
163516
598834
519645
180106
106241
203331
416555
949830
785875
159031
121393
179410
336455
742946
591279
160361
103533
107281
180521
520183
971152
423108
206467
123220
156212
811268
762535
344576
183306
105827
166008
598367
529191
184940
109049
205744
432126
964778
804228
155966
124880
184329
337741
763648
615286
167973
107188
111209
188505
550162
1.02251e+06
429977
216891
130416
159876
852520
834928
371472
197649
119587
159120
714851
684125
330502
177509
106284
166491
562827
513767
188346
110865
210205
434095
965745
810368
162052
128159
188752
344602
767961
618797
172536
110765
114701
195089
556866
1.04594e+06
438254
222746
134763
166343
870982
846404
378986
203032
123433
164468
731116
715515
336193
181896
109564
172133
587412
528897
192077
113997
216204
450946
984065
846512
166740
133613
196907
355659
816863
714552
156524
122138
181845
331779
701875
583739
175583
109933
115583
199782
530998
994026
438671
220185
135153
164044
852115
835948
370302
201502
124782
162079
722365
707581
337865
184251
111634
176189
581126
529556
198328
116813
219520
449482
981645
837534
169581
136190
200616
362582
815795
717621
161782
125484
186098
339793
716120
600984
180770
113225
119369
205243
554709
1.03712e+06
477969
227582
143633
175649
902438
879399
378000
210828
131398
165039
757051
750744
356609
195718
118595
188699
616474
560851
211476
124415
233020
488304
1.03256e+06
895042
180770
146288
214552
387863
885386
772772
171248
134691
201426
365280
778041
706211
170845
129281
191128
342713
704813
587646
183726
117871
124901
210664
546079
1.04557e+06
460602
237258
147131
177896
905424
903486
402842
220104
138862
181195
790556
799100
376528
205265
132512
174103
715701
714954
351130
195152
120896
189183
603742
557436
212812
127373
237684
487161
1.03468e+06
909382
185897
151152
220529
395512
897713
781292
177649
139405
206766
371802
788539
708215
175366
134135
197045
353608
711851
602665
191320
122428
129763
216599
560161
1.04668e+06
497435
241591
154087
190417
927562
918124
403951
224691
143753
181358
814408
832126
390946
214440
139831
184377
747039
745890
368524
204556
127617
198917
624254
580321
225492
134037
252398
476194
1.09338e+06
925528
189759
157803
233749
420256
924908
814490
188930
148020
219436
397898
838039
775295
188301
143184
211204
380367
794854
718959
182455
139845
205033
361140
729487
627574
201098
128695
136498
228595
589068
1.10691e+06
533928
255016
164132
204638
978950
962066
426882
238199
153204
192379
836937
855060
407500
226007
149117
195442
782524
803916
390736
218419
144432
189291
733609
744369
369976
209430
131624
203843
628748
582311
227994
138599
255337
509646
1.07387e+06
929924
199474
164403
241317
426186
935909
834033
195204
154068
227578
406873
851664
772467
195274
149890
220574
392183
798990
734756
191638
146641
212473
370500
743152
632803
207673
134717
142654
236179
596786
1.10345e+06
535404
262208
169658
213031
972564
974417
436188
245034
159190
199160
870524
892052
420200
234635
156037
203164
809066
832006
404857
228110
151779
197575
745463
756861
382310
219802
139687
212339
639203
598776
239602
146597
266955
532725
1.10796e+06
969929
212803
171705
250885
442211
976905
862719
203031
161806
236958
420021
881034
803572
204612
157488
230623
406785
833317
758744
200454
154387
223996
390032
775748
662138
219039
142710
151023
249825
626583
1.16273e+06
568457
278076
181130
226802
1.02077e+06
1.02142e+06
462982
261758
169847
212821
897798
915749
439060
248332
166018
214896
837522
872103
425355
242151
162846
210440
797327
830320
410897
235796
158449
204925
758615
772099
391645
227206
144898
219911
645853
608408
248251
152301
277778
527622
1.12903e+06
966656
214154
178343
259636
452120
974744
856474
212967
168466
245794
430233
882008
798893
211346
163948
238126
415643
830871
758497
208625
159893
229734
392702
770301
652947
222724
147232
155995
253479
621445
1.14673e+06
551622
284587
184502
226751
993656
1.00135e+06
464632
266399
174561
218773
893874
922453
446169
253873
171059
220225
829570
863548
430098
247599
167308
216547
786067
803616
409387
239683
153613
231754
670419
632537
260781
161333
292933
552267
1.17113e+06
1.00084e+06
227380
188729
272839
472070
1.00378e+06
879946
224644
177948
257690
448122
907578
826061
222353
172829
249426
430355
859542
775232
218698
168166
240291
408563
795902
672795
232729
154876
163966
265097
643398
1.18028e+06
570310
296926
193106
236072
1.02775e+06
1.04419e+06
487230
279622
183734
231220
913730
942693
466194
266177
179769
232188
850236
884498
446231
259103
175544
227512
800090
819666
422628
250009
161062
240492
682890
651152
270146
168975
300671
567868
1.17396e+06
1.00707e+06
240474
195940
281626
483881
1.02521e+06
895353
229472
184463
266380
457523
927700
837150
229499
178874
258454
440649
861573
723654
251974
165287
174961
284648
693288
1.25039e+06
619425
318679
207613
263541
1.08233e+06
1.09292e+06
511131
296874
194951
238369
950184
982592
483872
280670
188244
243498
865021
884206
457694
269981
172865
259499
738452
704036
291469
181162
326274
604491
1.27793e+06
1.08444e+06
250676
210704
303208
516876
1.0997e+06
949880
250019
198201
286798
491196
985943
880773
247548
191863
276834
470597
914365
765965
268146
177007
186775
302785
731378
1.30916e+06
658585
337047
219831
283267
1.13171e+06
1.14389e+06
538337
313815
206140
250197
980322
1.01737e+06
503499
295167
198204
257032
898951
924507
478661
283328
181587
272048
770400
739987
304091
190164
340519
639644
1.31342e+06
1.11178e+06
275279
220796
317173
540912
1.13512e+06
978333
256860
207113
297557
504300
1.01554e+06
893622
257958
199552
286620
481689
928255
779847
276714
183882
193534
311212
751103
1.33007e+06
654513
347466
226292
282938
1.12541e+06
1.1497e+06
547825
322965
210918
265695
976980
994176
504652
300281
191201
285455
813118
779278
315411
199669
361127
687965
1.37024e+06
1.1483e+06
299163
232616
332649
564964
1.1731e+06
1.00574e+06
269033
216870
310283
522458
1.04661e+06
912470
268604
207191
295769
495526
948391
784372
282801
189503
200048
318058
754424
1.33511e+06
658595
356289
231099
286622
1.12826e+06
1.15299e+06
556477
330079
216248
275126
978991
1.00881e+06
515881
308085
195901
291984
826884
788609
324739
204450
363409
671154
1.35908e+06
1.13629e+06
294936
235842
337249
565550
1.16751e+06
985338
281058
219132
311773
519378
1.01105e+06
822838
294770
198115
208124
330101
789521
1.37187e+06
684778
369041
237617
303051
1.13848e+06
1.14359e+06
568423
338830
210037
307833
904590
859062
341220
217731
387189
721869
1.49841e+06
1.2313e+06
306162
249416
361801
614960
1.26061e+06
1.05823e+06
304978
233737
335366
562579
1.08368e+06
882462
318183
211765
221109
355134
848514
1.4571e+06
726621
392014
252299
325269
1.19902e+06
1.20692e+06
596173
357644
220574
320334
944319
894955
353261
228030
401696
745399
1.52195e+06
1.2466e+06
326195
258209
370591
617843
1.26584e+06
1.0019e+06
338553
227692
235503
376900
949622
1.62613e+06
798440
425744
269623
344531
1.29676e+06
1.29889e+06
645898
386086
234934
345029
1.01086e+06
953681
379640
242520
429409
798617
1.60994e+06
1.31066e+06
352866
273711
392379
653394
1.32377e+06
1.04319e+06
351310
239557
247618
389329
989204
1.69008e+06
827598
441548
280570
341608
1.35798e+06
1.36894e+06
679765
406716
245022
368655
1.05284e+06
991050
401850
252556
447611
821846
1.6677e+06
1.33307e+06
360306
283096
403749
663126
1.33866e+06
1.04356e+06
360483
245408
253458
396630
990392
1.65691e+06
828400
446667
283175
368238
1.3318e+06
1.34094e+06
668206
403232
242774
356081
1.02647e+06
966247
379636
248597
433920
798006
1.57335e+06
1.17742e+06
377977
261052
266151
408267
1.08489e+06
1.7735e+06
865539
469414
290802
375627
1.39505e+06
1.39569e+06
690825
416431
249902
367805
1.06666e+06
1.00561e+06
402270
257937
445530
814677
1.61779e+06
1.21765e+06
390244
266751
268984
407249
1.11566e+06
1.79714e+06
877102
471108
277699
410347
1.31624e+06
1.19067e+06
436839
280033
501752
938577
1.90806e+06
1.47255e+06
404080
308254
442964
731220
1.46264e+06
1.09999e+06
383648
260057
267892
416432
1.02989e+06
1.63636e+06
830780
458879
270182
397161
1.21594e+06
1.11128e+06
409148
272393
472524
866603
1.76478e+06
1.27546e+06
407059
276227
279298
431966
1.1502e+06
1.77156e+06
886909
483115
278540
413464
1.27997e+06
1.15539e+06
435157
280990
482087
882509
1.76893e+06
1.28776e+06
413071
280021
283694
437090
1.17443e+06
1.82384e+06
898097
488351
281098
415707
1.30681e+06
1.11964e+06
453323
286486
299637
512937
1.47107e+06
2.1875e+06
1.07428e+06
545976
305226
475925
1.50088e+06
1.33149e+06
487893
302739
523384
965670
1.9991e+06
1.39206e+06
445179
295019
295684
455866
1.18418e+06
1.53944e+06
525864
308703
570369
1.12101e+06
2.26592e+06
1.50877e+06
485461
308994
311907
507850
1.26656e+06
1.64031e+06
566989
326650
598908
1.1946e+06
2.36295e+06
1.58238e+06
503761
317040
317866
514626
1.33808e+06
1.685e+06
578085
324643
591067
1.17617e+06
2.39778e+06
1.54703e+06
500507
312481
304308
492677
1.27078e+06
1.56526e+06
607798
333110
327285
557038
1.91595e+06
2.75116e+06
1.29925e+06
639855
330014
538674
1.72655e+06
1.3891e+06
542410
326335
334885
621062
1.59725e+06
1.79602e+06
594509
319360
343998
726272
1.94834e+06
2.14712e+06
727895
327674
626524
1.28676e+06
2.79983e+06
1.65073e+06
513625
311471
303755
514365
1.29826e+06
1.39865e+06
563900
303993
297366
560053
1.46468e+06
1.51724e+06
570746
292411
289792
598129
1.5319e+06
1.51637e+06
607655
288054
285001
613750
1.49589e+06
1.46113e+06
612663
283187
280452
607969
1.42467e+06
1.38643e+06
598900
278399
276124
591873
1.34853e+06
1.31206e+06
586893
274943
273949
583651
1.27801e+06
1.24652e+06
581855
273991
274149
580964
1.2176e+06
1.19111e+06
580670
275006
275973
580584
1.16688e+06
1.14494e+06
580443
277596
279013
580119
1.12508e+06
1.10733e+06
579461
280811
282225
578267
1.09139e+06
1.07718e+06
576686
283763
284852
574542
1.06445e+06
1.05317e+06
572064
285919
286523
569032
1.04315e+06
1.0344e+06
565746
286996
286927
561919
1.02672e+06
1.02011e+06
557935
286742
286110
553463
1.01435e+06
1.00944e+06
548958
285372
283983
544023
1.00516e+06
1.00155e+06
539132
282834
281086
533843
998420
995801
528532
280005
278333
522969
993536
991686
517507
277307
275686
511853
990097
988826
506386
274679
273083
500785
987743
986899
495424
272076
270476
489959
986175
985604
484788
269443
267824
479551
985088
984724
474646
266764
265124
469699
984351
984063
465086
264031
262371
460474
983832
983638
456190
261260
259592
451919
983481
983320
447973
258477
256811
444032
983194
983024
440422
255698
254052
436810
982893
982690
433522
252949
251322
430227
982538
982283
427257
250246
248658
424266
982096
981786
421585
247606
246067
418878
981560
981191
416473
245045
243567
414027
980925
980523
411864
242573
241156
409654
980235
979806
407722
240192
238826
405731
979488
979044
403995
237874
236545
402194
978704
978246
400642
235623
234335
399009
977879
977415
397613
233441
232199
396130
977039
976575
394888
231343
230147
393549
976196
975739
392430
229327
228180
391212
975371
974913
390211
227406
226308
389101
974548
974097
388194
225572
224523
387175
973744
973302
386364
223832
222831
385429
972955
972521
384689
222178
221221
383823
972188
971770
383166
220609
219706
382370
971447
971039
381765
219123
218263
381026
970733
970343
380489
217720
216902
379807
970055
969679
379314
216392
215613
378684
969415
969065
378235
215134
214398
377658
968825
968496
377247
213950
213251
376718
968285
967982
376335
212830
212169
375851
967802
967523
375496
211774
211150
375050
967376
967124
374720
210777
210189
374309
967004
966787
374005
209839
209283
373620
966691
966510
373341
208954
208428
372980
966435
966289
372722
208122
207621
372381
966237
966131
372140
207335
206860
371818
966097
966028
371594
206594
206141
371287
966014
965985
371076
205892
205461
370788
965988
965986
370589
205229
204816
370315
966013
966029
370126
204600
204207
369868
966088
966120
369690
204005
203628
369445
966207
966255
369276
203440
203081
369047
966369
966435
368888
202905
202560
368671
966570
966653
368519
202397
202066
368317
966805
966902
368174
201915
201595
367983
967072
967183
367848
201455
201148
367671
967367
967489
367544
201019
200721
367376
967687
967821
367256
200602
200315
367101
968030
968173
366988
200204
199929
366843
968392
968545
366736
199823
199560
366603
968771
968932
366500
199460
199207
366376
969166
969336
366278
199112
198869
366167
969579
969756
366073
198780
198546
365971
970005
970189
365882
198461
198235
365789
970443
970633
365705
198155
197937
365620
970892
971088
365540
197861
197651
365466
971350
971551
365390
197579
197376
365323
971815
972021
365252
197309
197112
365193
972288
972496
365128
197048
196858
365075
972765
972973
365018
196798
196615
364969
973244
973454
364917
196558
196379
364873
973725
973935
364826
196326
196154
364789
974207
974417
364747
196103
195936
364716
974688
974898
364678
195889
195728
364654
975167
975377
364618
195683
195527
364598
975646
975855
364567
195485
195333
364551
976125
976333
364524
195293
195144
364509
976603
976810
364487
195107
194962
364475
977080
977287
364457
194927
194786
364446
977560
977767
364434
194752
194615
364425
978041
978248
364416
194584
194449
364409
978525
978732
364405
194419
194287
364401
979011
979219
364399
194260
194130
364399
979501
979710
364401
194104
193978
364404
979993
980201
364412
193954
193831
364418
980485
980691
364433
193810
193692
364443
980972
981174
364464
193673
193557
364477
981454
981649
364502
193541
193452
364525
981926
982110
364551
193389
193315
364570
982017
982575
364608
193302
193194
364628
983219
983007
364669
193202
193063
364697
983302
983433
364864
193090
192921
364493
983324
983257
364737
192881
192537
363953
982870
985036
365410
193116
193330
366399
988894
998162
371119
195200
196113
372096
993397
981196
361230
191020
188848
356483
963697
105131
57855.8
31203.6
19287.8
17993.5
12112.1
8887.27
7355.94
6960.33
5246.03
3817.41
2988.7
2263.55
1648.93
1168.03
815.103
573.651
411.573
303.356
229.998
179.256
143.363
117.439
98.3563
84.1043
73.327
65.1972
59.0584
54.6134
51.4828
49.4711
48.3069
47.7817
47.2647
46.3365
45.0624
43.5272
41.8417
40.0476
38.2103
36.3219
34.3925
32.4031
30.3383
28.1692
25.4075
21.3921
16.35
11.421
7.47289
4.67178
2.82179
1.6657
0.986113
0.621966
0.446485
0.367776
0.334588
0.320923
0.314972
0.312011
0.309689
0.307535
0.305485
0.303495
0.301528
0.299554
0.29754
0.29546
0.293286
0.290991
0.288548
0.285933
0.28312
0.280086
0.276806
0.273263
0.269436
0.265312
0.26088
0.256133
0.251072
0.245701
0.240032
0.234082
0.227874
0.221437
0.214801
0.208002
0.201079
0.19407
0.187013
0.179948
0.172911
0.165936
0.159055
0.152294
0.145679
0.139231
0.132968
0.1269
0.121043
0.115401
0.10998
0.104782
0.0998086
0.0950568
0.0905264
0.0862098
0.0821045
0.0782031
0.0744994
0.0709859
0.0676555
0.0645004
0.0615129
0.0586852
0.0560098
0.053479
0.0510854
0.0488217
0.0466819
0.0446582
0.0427451
0.0409358
0.0392251
0.0376069
0.0360766
0.0346289
0.0332588
0.0319623
0.0307349
0.0295728
0.028472
0.0274292
0.0264412
0.0255044
0.0246162
0.0237741
0.0229752
0.0222169
0.0214972
0.0208137
0.0201645
0.0195478
0.0189617
0.0184046
0.0178748
0.0173708
0.0168914
0.0164352
0.0160009
0.0155874
0.0151937
0.0148186
0.0144613
0.0141208
0.0137962
0.0134869
0.013192
0.0129108
0.0126426
0.0123869
0.0121429
0.0119102
0.0116883
0.0114766
0.0112746
0.011082
0.0108983
0.010723
0.010556
0.0103967
0.0102448
0.0101001
0.00996228
0.00983101
0.00970605
0.00958716
0.00947411
0.00936667
0.00926464
0.00916783
0.00907606
0.00898916
0.00890697
0.00882934
0.00875614
0.00868722
0.00862249
0.00856181
0.0085051
0.00845226
0.0084032
0.00835787
0.00831621
0.00827819
0.00824382
0.00821313
0.00818624
0.00816328
0.00814447
0.00812991
0.00812001
0.00811419
0.00811157
0.00810974
0.00810825
0.00810826
0.00810811
0.00810822
0.00810896
0.00811056
0.00811306
0.00811571
0.00811715
0.00811644
0.00811359
0.00810909
0.00810345
0.00809695
0.00808974
0.00808182
0.00807318
0.00806376
0.00805353
0.00804247
0.00803057
0.00801785
0.00800431
0.00798998
0.00797485
0.00795895
0.00794228
0.00792485
0.00790669
0.0078878
0.0078682
0.00784791
0.00782694
0.0078053
0.00778302
0.00776012
0.00773661
0.00771252
0.00768786
0.00766265
0.00763693
0.00761071
0.00758401
0.00755686
0.00752929
0.00750131
0.00747297
0.00744428
0.00741527
0.00738598
0.00735643
0.00732665
0.00729669
0.00726657
0.00723634
0.00720605
0.00717577
0.00714567
0.00711607
0.00708772
0.00706228
0.00704363
0.00704038
0.00707205
0.00718171
0.00746273
0.00811324
0.00954262
0.0126136
0.0190721
0.0323338
0.0588899
0.110753
0.209721
0.394431
0.733071
1.34728
2.45554
4.43355
7.81104
12.9514
19.3044
25.4081
30.6257
37.2012
54.6505
111.236
353.226
1710.33
5117.08
6290.94
6386.67
7291.29
7250.96
7981.88
7894.45
8501.64
8379.86
8920.41
8775
9266.54
9104.28
9558.25
9383.61
9807.91
9623.87
10024.4
9832.79
10213.9
10016.3
10381.3
10178.7
10529.7
10322.8
10661.4
10451
10779
10565.7
10884.6
10669
10980.1
10762.7
11067.2
10848.5
11147.5
10927.6
11221.8
11001.3
11291.2
11070.4
11356.6
11135.5
11418.4
11197.1
11477.1
11255.8
11533.2
11312
11587
11366
11638.8
11417.9
11688.7
11467.5
11737
11515
11782.9
11560.2
11826.5
11603.3
11868
11644.3
11907.3
11683.1
11944.1
11719.3
11978.1
11752.4
12008.6
11781.7
12034.6
11806
12054.9
11824
12067.9
11833.9
12071.1
11833
12062.4
11819
12038.8
11788.6
11996.8
11738.4
11932.8
11664.8
11843.3
11563.2
11725.1
11426
11577
11264.9
11404.9
11081.2
11210.9
10879
10999.2
10661.2
10775
10436.9
10548.1
10217.5
10328
10009.4
10120.7
9816.29
9929.53
9641.13
9757.32
9485.98
9605.92
9352.13
9476.4
9239.94
9368.91
9148.89
9282.74
9073.33
9215.49
9015.76
9168.45
8978.41
9142.85
8961.62
9137.46
8963.46
9149.53
8980.99
9175.85
9011.05
9213.19
9050.57
9259.09
9097.04
9311.73
9148.29
9366.25
9201.26
9421.31
9254.5
9475.76
9307
9528.61
9357.76
9578.74
9405.84
9626.39
9451.38
9671.85
9494.38
9714.23
9534.29
9753.64
9570.74
9789.59
9604.59
9822.98
9635.7
9851.99
9662.54
9878.56
9684.92
9911.87
9702.38
9945.83
9707.17
9955.93
9551.82
9876.22
8916.64
8756.08
7015.67
4674.64
5045.21
5504.27
3490.19
5966.71
5553.5
3508.19
6015.96
5556.98
3541.19
6028.94
5568.42
3536.53
6023.13
5561.91
3531.98
6009.07
5551.09
3522.9
5995.85
5538.27
3512.42
5980.98
5524.26
3501.57
5964.92
5509.03
3490.39
5947.55
5492.65
3478.88
5929.22