/*--------------------------------*- C++ -*----------------------------------*\
| =========                 |                                                 |
| \\      /  F ield         | OpenFOAM: The Open Source CFD Toolbox           |
|  \\    /   O peration     | Version:  v2006                                 |
|   \\  /    A nd           | Website:  www.openfoam.com                      |
|    \\/     M anipulation  |                                                 |
\*---------------------------------------------------------------------------*/
FoamFile
{
    version     2.0;
    format      ascii;
    class       volScalarField;
    location    "0.134";
    object      yPlus;
}
// * * * * * * * * * * * * * * * * * * * * * * * * * * * * * * * * * * * * * //

dimensions      [0 0 0 0 0 0 0];


internalField   uniform 0;

boundaryField
{
    bottomEmptyFaces
    {
        type            empty;
    }
    topEmptyFaces
    {
        type            empty;
    }
    inlet
    {
        type            calculated;
        value           uniform 0;
    }
    outlet
    {
        type            calculated;
        value           uniform 0;
    }
    walls
    {
        type            calculated;
        value           nonuniform List<scalar> 
1055
(
30.38
29.6364
28.959
28.342
27.7847
27.277
26.8208
26.4103
26.0461
25.7216
25.4352
25.1803
24.9578
24.7624
24.5952
24.4515
24.3323
24.2313
24.1483
24.0787
24.0233
23.9767
23.9403
23.9099
23.8872
23.868
23.8543
23.8437
23.8375
23.833
23.8327
23.8323
23.8348
23.8383
23.8423
23.8468
23.8504
23.8544
23.8567
23.8599
23.8608
23.8629
23.862
23.8629
23.8606
23.8603
23.8565
23.8548
23.8497
23.8469
23.8406
23.8366
23.8296
23.8247
23.8171
23.8116
23.8039
23.7981
23.7902
23.7841
23.7762
23.7699
23.7617
23.7552
23.7468
23.7402
23.7317
23.7251
23.7166
23.71
23.7018
23.6954
23.6873
23.6812
23.6734
23.6677
23.6602
23.655
23.648
23.6434
23.637
23.6331
23.6273
23.6243
23.6191
23.6169
23.6124
23.611
23.6074
23.6066
23.604
23.6037
23.602
23.6023
23.6017
23.6025
23.6028
23.6041
23.6056
23.6073
23.6096
23.612
23.6147
23.618
23.6212
23.6252
23.6289
23.6337
23.6378
23.6432
23.6478
23.6536
23.6587
23.6649
23.6704
23.677
23.6828
23.6897
23.6958
23.7032
23.7095
23.7172
23.7238
23.7316
23.7385
23.7466
23.7537
23.762
23.7693
23.7778
23.7853
23.794
23.8016
23.8104
23.8183
23.8271
23.8351
23.8441
23.8521
23.8612
23.8693
23.8784
23.8865
23.8956
23.9038
23.9129
23.921
23.9301
23.9383
23.9473
23.9555
23.9645
23.9727
23.9816
23.9897
23.9986
24.0067
24.0156
24.0237
24.0326
24.0406
24.0496
24.0576
24.0665
24.0745
24.0835
24.0915
24.1005
24.1085
24.1175
24.1255
24.1345
24.1424
24.1515
24.1593
24.1683
24.1759
24.1848
24.1923
24.2011
24.2082
24.2251
24.2241
24.2246
24.2391
24.2484
24.2539
24.28
24.289
24.3167
24.2762
24.2161
23.9995
24.1585
24.568
8.5377
7.18448
6.62281
11.4
10.572
9.67635
7.98416
18.2616
13.3594
11.5842
11.4901
12.7115
9.43191
7.91325
12.5046
11.3851
13.6575
13.6327
10.7288
9.22458
9.75837
9.66219
8.54489
7.38015
10.1544
9.91581
8.84945
7.49004
9.13947
7.61762
8.60505
7.38295
9.60902
10.0905
8.56204
7.41238
8.37448
7.30478
8.33226
7.25934
6.42841
10.4478
10.9406
9.73765
10.6132
9.47826
10.3984
9.21877
9.98849
9.24207
10.1123
10.1276
10.5501
9.32966
10.2189
11.5722
8.47353
8.75829
8.98645
9.75702
10.328
10.7792
11.8898
8.6318
9.01251
9.59506
10.3869
8.34736
9.02042
10.0184
7.36399
7.58618
8.80055
9.06431
10.1784
7.46739
7.72187
8.0152
8.49978
9.16154
9.53039
8.15736
8.68007
8.42241
9.1437
8.66749
9.38973
8.33447
8.92756
10.7711
9.40074
9.7791
7.80951
8.12824
10.5655
7.70772
8.04077
10.4281
9.10312
9.4093
8.29544
9.00803
7.96449
8.56059
7.51917
7.93659
9.87962
10.2931
11.3985
8.3064
8.69261
8.84619
9.72551
11.0514
8.02889
8.30964
8.66259
9.29893
9.13947
9.95215
9.64613
10.1009
8.9662
9.73677
8.66073
9.55466
8.52359
9.14294
9.46482
9.8348
10.8749
7.96162
8.35723
8.66011
9.39603
9.12872
9.97492
8.82279
9.61199
8.66145
9.09337
7.8779
7.72026
7.32034
7.02622
9.58414
7.43289
7.84422
8.35195
8.53497
9.47673
6.96101
7.25278
8.39226
8.60014
9.74419
7.12846
7.40338
7.60262
8.02038
8.16134
8.26374
7.0333
7.25506
7.97867
7.97637
7.82187
7.80984
9.16642
6.85081
7.02786
9.21319
7.87714
7.92909
6.79499
7.0331
9.05612
7.34879
7.02123
9.02575
7.77214
7.70833
8.72945
6.65215
6.78147
7.82927
7.76709
6.70788
6.68238
6.70681
6.82004
9.26091
7.97505
8.05604
9.30173
6.93826
7.09029
6.81931
7.12545
8.96851
8.80191
7.39473
6.94556
8.31413
7.00758
6.51367
8.43849
7.09671
6.58558
8.36582
7.17127
6.50292
8.3139
7.01945
6.50863
8.07579
6.46355
6.21683
8.31414
6.81992
6.42496
7.78341
7.44202
8.36353
7.74344
7.54511
6.54731
6.41099
8.75624
8.65036
7.26139
6.87854
7.39711
6.94467
7.09303
6.80331
8.95219
7.20554
6.90962
8.54068
6.67126
6.64172
8.73171
8.95658
10.0755
7.40568
7.67549
9.90447
7.18638
7.52797
8.58806
8.82921
7.77595
8.29005
7.86496
8.3254
8.71636
9.03708
8.04835
8.58458
13.2267
11.3566
8.65282
11.2589
8.33571
11.6942
9.7227
7.03594
10.6612
10.356
7.15744
12.2603
9.99185
26.163
24.6521
8.23325
8.81389
6.09003
25.241
21.183
21.1991
20.3865
10.373
20.1303
8.84828
25.4434
7.71333
20.695
8.94706
6.09742
20.1318
21.4223
20.89
10.7143
9.58292
8.44936
7.43824
8.30585
5.9485
28.0568
26.4983
21.8364
21.3813
22.112
21.5554
25.0895
21.9644
20.8887
27.122
23.4043
22.454
9.99776
8.99435
8.46206
7.98436
7.33956
8.50812
6.07599
10.5107
9.68064
9.11436
8.60753
8.21405
7.67964
6.95694
7.84466
5.71847
9.69637
8.94397
8.50064
8.13534
7.83246
7.53434
7.27888
7.0452
6.91382
6.76591
6.39762
7.77237
5.3557
9.81583
9.2768
8.9702
8.80066
8.60047
13.9795
8.37811
8.20421
8.06687
7.91622
7.82121
10.9692
12.0094
7.678
12.0645
12.5092
10.3974
11.2436
13.4706
11.659
12.1839
9.70851
10.2455
10.6715
11.7092
7.58625
7.54688
7.42835
7.30647
7.21147
7.12678
7.05581
6.9997
14.7421
10.5133
11.064
12.621
13.1867
11.6027
12.7116
6.9525
6.91392
6.87919
6.85512
6.83206
6.81569
6.80538
6.79463
13.5493
14.1565
12.3851
13.4806
6.78786
6.77769
6.77562
6.77397
6.76764
6.76181
6.76021
6.75828
13.8091
14.2685
13.2484
14.3873
12.6265
13.6498
16.1051
11.571
12.2283
6.75226
15.7963
6.74603
6.74431
11.346
11.9826
6.73968
6.73724
12.3177
13.2193
6.72757
6.72401
6.71812
15.2217
11.8125
12.9084
13.0547
13.5759
11.8505
12.8454
10.963
11.5477
11.4243
12.369
11.2836
12.3075
12.1833
12.6619
11.0768
12.1932
14.1376
10.1839
10.6774
10.9183
11.8183
14.4393
11.1274
12.0101
10.4582
11.0671
12.3896
12.92
10.7991
11.6773
10.1552
10.6777
19.2089
14.3737
14.9499
6.71366
6.70327
6.69823
6.69389
20.6743
6.68404
6.67529
6.66928
20.0298
6.66413
14.5268
15.4496
17.3119
17.412
19.8343
16.8899
17.2758
14.5818
15.3087
16.7073
16.98
6.65365
6.64393
6.63715
6.6317
6.62099
6.61123
6.60492
6.59961
6.58905
6.57923
6.57292
6.5679
6.55749
6.54778
6.54163
15.4339
6.53592
15.7259
16.2545
16.7833
14.4234
15.4054
18.2132
13.1216
13.9309
6.52516
6.51537
6.50941
6.50407
6.49423
6.48448
6.47928
6.47216
17.4732
13.9969
14.9641
12.9083
13.6467
13.3522
14.2703
17.0941
14.628
15.1936
12.2543
13.042
14.8202
15.4494
18.394
15.7139
16.2067
13.3013
14.061
19.252
19.0508
13.9438
14.6025
16.2978
16.5163
16.143
16.624
6.46708
14.1261
6.45558
14.8844
6.45061
6.44324
6.43839
6.42693
6.42205
6.4149
21.3816
6.41001
6.39894
15.867
16.5771
6.39455
6.38816
6.3834
6.37351
6.36915
22.219
6.3654
21.9175
18.1272
17.9005
18.7341
18.9279
19.8196
19.9133
23.5209
6.35661
18.8359
6.35097
18.672
6.34247
6.34074
6.33286
22.7525
6.32733
6.32265
18.7967
18.4591
6.31532
22.9952
17.907
18.4222
16.8709
17.4241
18.0561
18.3099
15.5529
16.2024
6.31377
6.3082
6.31122
6.37536
6.41631
6.51489
6.78403
7.12607
29.3276
25.9493
30.1999
23.7556
22.0957
29.7811
27.1284
26.9221
23.1659
22.263
9.91324
10.7878
33.586
32.0469
30.8492
32.9616
25.5499
23.501
31.2361
26.8914
25.729
22.8334
12.5348
30.3587
9.98373
10.9216
10.8441
11.2647
28.8717
35.6687
27.8279
25.41
10.2502
11.2125
10.044
11.0098
35.7078
12.8146
11.1195
11.5891
9.29555
9.73409
36.2242
9.78727
10.5572
9.12463
9.593
36.6281
36.666
36.7912
36.5253
35.8011
13.1623
34.8743
10.757
11.7152
10.4534
11.4974
10.2372
11.0321
9.51976
10.0482
10.415
11.3858
11.3398
11.7823
10.2099
11.1321
33.917
32.966
32.0493
31.1858
9.58443
10.5308
12.0084
8.76763
9.03974
9.31877
10.1066
9.79062
10.726
25.0505
7.58012
36.4709
33.1927
31.0011
29.5309
28.4212
27.3886
26.6569
25.9466
25.5498
25.0744
24.7908
24.4221
24.2084
23.9078
23.7398
23.4853
23.3472
23.1238
23.0057
22.8044
22.7008
22.5154
22.4219
22.2482
22.1619
21.9971
21.9162
21.7581
21.6812
21.5286
21.4547
21.3063
21.2346
21.0896
21.0196
20.8774
20.8086
20.6687
20.6008
20.4626
20.3953
20.2584
20.1915
20.0554
19.9885
19.8529
19.7858
19.6501
19.5825
19.4464
19.3781
19.2412
19.1719
19.0339
18.9633
18.8238
18.7518
18.6105
18.5369
18.3934
18.3181
18.1723
18.0951
17.9467
17.8676
17.7165
17.6355
17.4817
17.3989
17.2424
17.1581
16.9989
16.9133
16.7517
16.6652
16.5017
16.415
16.2502
16.1639
15.9987
15.9141
15.7497
15.6681
15.5061
15.4291
15.2713
15.2012
15.0498
14.9891
14.8466
14.7989
14.6689
14.6359
14.5253
14.5069
14.4189
14.4165
14.3585
14.3688
14.3439
14.3665
14.3591
14.4107
14.4189
14.4977
14.5217
14.6234
14.6591
14.7763
14.8204
14.9482
14.9985
15.1338
15.1882
15.3276
15.3835
15.5231
15.5786
15.7154
15.7688
15.8998
15.9498
16.0726
16.118
16.2309
16.2711
16.3724
16.4066
16.4951
16.5229
16.5984
16.6197
16.6824
16.6976
16.7484
16.7581
16.7983
16.803
16.8342
16.8347
16.857
16.8548
16.8699
16.8656
16.8753
16.8691
16.8753
16.8663
16.8705
16.8577
16.8611
16.8457
16.8483
16.8305
16.8325
16.8131
16.8146
16.7936
16.7949
16.7729
16.7736
16.7507
16.7517
16.7287
16.7288
16.7016
16.7079
16.6753
16.6848
16.6397
16.7145
16.743
16.9451
17.2269
18.2722
20.9116
18.9402
39.9395
)
;
    }
    rightWall
    {
        type            calculated;
        value           uniform 0;
    }
    symmetryLine
    {
        type            symmetryPlane;
    }
}


// ************************************************************************* //
