/*--------------------------------*- C++ -*----------------------------------*\
| =========                 |                                                 |
| \\      /  F ield         | OpenFOAM: The Open Source CFD Toolbox           |
|  \\    /   O peration     | Version:  v2006                                 |
|   \\  /    A nd           | Website:  www.openfoam.com                      |
|    \\/     M anipulation  |                                                 |
\*---------------------------------------------------------------------------*/
FoamFile
{
    version     2.0;
    format      ascii;
    class       volScalarField;
    location    "0.1";
    object      T;
}
// * * * * * * * * * * * * * * * * * * * * * * * * * * * * * * * * * * * * * //

dimensions      [0 0 0 1 0 0 0];


internalField   nonuniform List<scalar> 
38932
(
298.189
298.189
298.189
298.189
298.19
298.19
298.191
298.192
298.193
298.194
298.195
298.197
298.198
298.2
298.202
298.205
298.207
298.21
298.212
298.215
298.218
298.222
298.225
298.229
298.232
298.236
298.24
298.245
298.249
298.254
298.258
298.263
298.268
298.273
298.278
298.284
298.289
298.295
298.3
298.306
298.312
298.318
298.325
298.331
298.337
298.344
298.35
298.357
298.364
298.371
298.378
298.385
298.392
298.399
298.406
298.413
298.421
298.428
298.436
298.443
298.451
298.458
298.466
298.473
298.481
298.489
298.496
298.504
298.511
298.519
298.527
298.534
298.542
298.549
298.557
298.565
298.572
298.579
298.587
298.594
298.601
298.609
298.616
298.623
298.63
298.637
298.644
298.65
298.657
298.664
298.67
298.676
298.683
298.689
298.695
298.701
298.707
298.712
298.718
298.723
298.728
298.734
298.738
298.743
298.748
298.753
298.757
298.761
298.765
298.769
298.773
298.777
298.78
298.783
298.786
298.789
298.792
298.795
298.797
298.799
298.801
298.803
298.805
298.805
298.805
298.803
298.794
298.781
298.731
298.757
298.808
298.941
299.071
298.772
298.784
298.79
298.778
299.049
299.04
298.806
298.805
298.811
298.834
299.036
299.034
298.854
298.817
298.827
298.875
299.034
299.033
298.889
298.837
298.846
298.9
299.032
299.031
298.909
298.854
298.862
298.916
299.029
299.027
298.923
298.87
298.877
298.929
299.025
299.023
298.934
298.884
298.89
298.939
299.021
299.019
298.943
298.897
298.903
298.947
299.018
299.017
298.952
298.908
298.914
298.955
299.017
299.017
298.959
298.919
298.925
298.963
299.017
299.018
298.967
298.93
298.936
298.971
299.019
299.02
298.975
298.941
298.946
298.979
299.021
299.023
298.984
298.952
298.958
298.988
299.026
299.028
298.993
298.964
298.97
298.998
299.031
299.034
299.003
298.976
298.982
299.008
299.038
299.041
299.013
298.989
298.995
299.019
299.045
299.05
299.025
299.002
299.009
299.031
299.054
299.059
299.038
299.017
299.024
299.044
299.065
299.07
299.051
299.032
299.04
299.058
299.076
299.082
299.066
299.049
299.057
299.073
299.089
299.095
299.081
299.066
299.075
299.09
299.102
299.11
299.098
299.085
299.094
299.107
299.117
299.125
299.116
299.104
299.114
299.125
299.134
299.142
299.135
299.125
299.136
299.145
299.151
299.16
299.155
299.147
299.158
299.166
299.17
299.18
299.177
299.17
299.182
299.189
299.19
299.201
299.2
299.195
299.208
299.212
299.212
299.224
299.225
299.221
299.235
299.238
299.236
299.248
299.251
299.249
299.263
299.265
299.26
299.274
299.279
299.278
299.293
299.293
299.287
299.301
299.308
299.309
299.325
299.323
299.315
299.329
299.338
299.341
299.357
299.354
299.344
299.359
299.37
299.374
299.391
299.386
299.375
299.391
299.403
299.409
299.426
299.42
299.407
299.424
299.437
299.444
299.463
299.455
299.441
299.458
299.472
299.481
299.5
299.49
299.476
299.494
299.509
299.519
299.537
299.527
299.512
299.53
299.546
299.556
299.575
299.564
299.548
299.567
299.582
299.594
299.613
299.601
299.585
299.603
299.619
299.631
299.648
299.636
299.621
299.639
299.653
299.665
299.681
299.67
299.656
299.673
299.685
299.696
299.71
299.7
299.688
299.703
299.714
299.723
299.735
299.726
299.718
299.73
299.738
299.745
299.754
299.748
299.742
299.753
299.757
299.761
299.767
299.765
299.762
299.77
299.771
299.772
299.779
299.779
299.781
299.794
299.79
299.787
299.787
299.789
299.792
299.759
299.762
299.763
299.713
299.705
299.695
299.616
299.631
299.643
299.566
299.551
299.533
299.452
299.471
299.488
299.414
299.396
299.376
299.306
299.326
299.345
299.282
299.262
299.241
299.182
299.201
299.223
299.169
299.147
299.13
299.081
299.098
299.12
299.075
299.052
299.035
298.991
299.009
299.033
298.992
298.967
298.947
298.905
298.926
298.951
298.911
298.885
298.864
298.823
298.844
298.871
298.831
298.804
298.782
298.741
298.763
298.79
298.748
298.722
298.701
298.662
298.681
298.706
298.663
298.64
298.622
298.584
298.598
298.619
298.575
298.556
298.545
298.508
298.515
298.53
298.485
298.474
298.472
298.437
298.433
298.44
298.395
298.393
298.404
298.373
298.355
298.35
298.307
298.318
298.345
298.321
298.284
298.265
298.226
298.254
298.301
298.287
298.228
298.191
298.16
298.208
298.279
298.277
298.195
298.136
298.119
298.19
298.286
298.306
298.195
298.112
298.117
298.216
298.343
298.402
298.257
298.141
298.192
298.33
298.496
298.639
298.453
298.289
298.468
298.664
298.869
299.248
299.04
298.807
299.495
299.778
299.977
301.472
301.315
300.968
299.594
297.729
297.141
296.935
296.8
296.683
296.582
296.482
296.384
296.283
296.179
296.071
295.959
295.846
295.734
295.648
295.582
295.525
295.49
295.492
295.477
295.442
295.45
295.555
295.621
295.657
295.739
295.853
295.981
296.168
296.358
296.534
296.766
297.05
297.152
297.009
296.827
296.637
296.426
296.397
296.563
296.753
296.957
297.127
297.009
296.819
296.621
296.451
296.291
296.174
296.326
296.48
296.663
296.846
296.674
296.495
296.323
296.175
296.037
295.88
296.01
296.151
296.314
296.487
296.279
296.114
295.96
295.828
295.708
295.514
295.623
295.744
295.888
296.043
295.773
295.631
295.501
295.391
295.294
295.052
295.134
295.228
295.342
295.469
295.134
295.025
294.929
294.851
294.783
294.492
294.544
294.607
294.685
294.775
294.403
294.33
294.269
294.223
294.186
293.872
293.893
293.924
293.969
294.027
293.653
293.607
293.576
293.559
293.553
293.233
293.225
293.229
293.249
293.285
292.92
292.89
292.879
292.887
292.91
292.575
292.536
292.516
292.518
292.546
292.149
292.116
292.125
292.158
292.213
291.801
291.722
291.679
291.705
291.703
291.174
291.172
291.188
291.224
291.267
290.6
290.31
290.235
290.192
290.15
286.618
287.012
287.92
288.39
289.018
287.197
286.068
283.935
281.931
281.904
280.287
280.313
282.647
285.123
287.2
287.284
285.478
283.647
281.668
280.33
279.963
281.251
283.411
285.481
287.228
287.551
285.871
284.076
282.748
281.227
279.614
281.32
283.317
285.304
287.445
287.512
285.894
283.795
282.251
281.564
279.429
280.827
282.862
285.25
287.273
287.479
285.814
283.728
281.431
281.177
279.119
279.681
282.58
285.175
287.4
287.563
285.635
283.567
281.298
280.345
279.849
280.635
283.433
285.774
287.596
287.971
286.255
284.48
282.591
281.562
279.366
280.297
283.269
285.619
287.744
288.003
286.133
284.302
282.875
280.846
278.804
281.454
283.576
285.865
287.79
288.138
286.43
284.679
283.446
281.867
278.097
280.674
283.291
285.636
287.968
288.176
286.426
284.33
282.37
281.515
278.738
281.02
283.318
285.851
287.937
288.292
286.533
284.658
283.037
282.303
278.012
280.094
282.912
285.53
288.061
288.357
286.525
284.368
281.877
281.406
278.311
279.911
283.178
285.943
288.207
288.516
286.916
284.93
282.391
281.985
277.768
278.912
283.021
285.905
288.336
288.521
286.794
284.601
281.932
281.011
278.092
278.903
283.228
286.278
288.344
288.628
286.552
284.229
282.165
279.618
277.001
279.439
282.96
286.037
288.378
288.717
286.783
284.58
282.24
280.429
276.632
280.381
283.394
286.066
288.445
288.939
287.169
285.02
282.34
281.605
277.202
279.907
283.488
286.231
288.622
289.062
287.304
285.171
282.247
281.999
277.899
279.211
283.616
286.63
288.86
289.208
287.481
285.462
282.816
282.237
277.964
278.909
283.637
286.771
289.066
289.366
287.54
285.414
282.854
281.94
278.437
279.104
283.832
287.031
289.205
289.577
287.571
285.525
283.093
281.569
278.326
279.17
283.825
287.097
289.315
289.671
287.604
285.601
283.645
280.584
277.347
279.923
284.003
287.123
289.481
289.806
287.838
285.984
284.377
281.447
275.886
280.83
284.327
287.148
289.593
289.941
288.039
285.96
283.98
282.267
276.694
281.674
284.707
287.23
289.815
290.156
288.119
285.95
283.849
282.075
276.812
280.828
284.459
287.264
290.026
290.333
288.151
285.81
283.526
281.272
275.636
280.509
284.322
287.31
290.198
290.657
288.437
285.954
283.006
281.249
275.851
280.87
284.692
287.56
290.522
291.072
288.876
286.275
282.985
281.722
276.723
280.822
285.042
288.031
290.858
291.426
289.278
286.559
282.815
282.025
277.293
280.157
285.182
288.563
291.35
291.801
289.646
286.976
283.247
282.522
277.505
279.426
285.285
289.146
291.797
292.244
289.992
287.194
283.486
282.211
278.012
279.106
285.403
289.61
292.355
292.887
290.055
287.092
283.261
280.692
277.935
279.192
285.552
289.96
292.936
293.747
290.672
287.412
283.714
278.661
274.192
280.182
286.419
290.745
294.42
296.114
293.418
288.748
282.176
279.601
277.332
281.858
289.409
294.167
297.491
299.656
297.862
295.895
290.519
283.149
300.122
299.912
300.944
300.035
299.588
299.514
299.488
299.311
299.946
300.274
299.659
299.553
299.618
299.603
299.613
299.609
299.61
299.61
299.613
299.603
299.603
299.601
299.602
299.603
299.604
299.601
299.6
299.599
299.597
299.596
299.593
299.594
299.595
299.596
299.598
299.595
299.593
299.591
299.589
299.586
299.583
299.585
299.587
299.589
299.591
299.588
299.586
299.583
299.581
299.578
299.575
299.577
299.58
299.582
299.584
299.581
299.578
299.576
299.573
299.569
299.566
299.569
299.572
299.575
299.578
299.574
299.571
299.568
299.565
299.561
299.558
299.562
299.565
299.568
299.571
299.568
299.565
299.562
299.559
299.556
299.553
299.556
299.559
299.562
299.565
299.562
299.558
299.555
299.552
299.55
299.547
299.549
299.552
299.555
299.558
299.555
299.552
299.549
299.545
299.543
299.54
299.542
299.546
299.549
299.552
299.548
299.545
299.542
299.539
299.535
299.533
299.535
299.539
299.542
299.545
299.543
299.54
299.536
299.532
299.53
299.527
299.53
299.534
299.537
299.541
299.539
299.535
299.531
299.527
299.524
299.52
299.524
299.529
299.533
299.536
299.534
299.53
299.526
299.522
299.518
299.515
299.519
299.524
299.527
299.531
299.527
299.524
299.521
299.517
299.512
299.51
299.514
299.518
299.521
299.523
299.52
299.517
299.515
299.512
299.507
299.505
299.509
299.512
299.515
299.517
299.514
299.512
299.51
299.507
299.502
299.5
299.504
299.507
299.51
299.512
299.51
299.508
299.505
299.502
299.499
299.497
299.5
299.503
299.506
299.509
299.506
299.504
299.501
299.498
299.494
299.492
299.496
299.499
299.502
299.504
299.502
299.5
299.497
299.494
299.491
299.488
299.492
299.495
299.498
299.5
299.498
299.496
299.493
299.49
299.487
299.484
299.488
299.491
299.493
299.496
299.494
299.491
299.489
299.486
299.482
299.48
299.484
299.487
299.49
299.493
299.491
299.488
299.485
299.482
299.478
299.476
299.48
299.484
299.487
299.49
299.488
299.485
299.482
299.478
299.474
299.471
299.476
299.48
299.483
299.486
299.483
299.48
299.477
299.474
299.469
299.466
299.472
299.475
299.478
299.481
299.48
299.477
299.473
299.469
299.463
299.462
299.468
299.472
299.475
299.479
299.477
299.474
299.47
299.466
299.461
299.458
299.464
299.468
299.472
299.475
299.473
299.47
299.466
299.462
299.457
299.455
299.461
299.464
299.468
299.471
299.468
299.466
299.462
299.459
299.454
299.451
299.457
299.461
299.464
299.467
299.466
299.463
299.459
299.455
299.45
299.447
299.453
299.457
299.461
299.464
299.462
299.459
299.455
299.451
299.446
299.443
299.449
299.453
299.456
299.46
299.457
299.453
299.45
299.446
299.441
299.438
299.444
299.448
299.451
299.454
299.453
299.449
299.445
299.441
299.435
299.432
299.439
299.443
299.447
299.451
299.448
299.444
299.441
299.436
299.431
299.427
299.434
299.438
299.441
299.445
299.441
299.438
299.435
299.431
299.425
299.422
299.428
299.432
299.435
299.438
299.436
299.432
299.429
299.425
299.419
299.416
299.421
299.426
299.429
299.433
299.428
299.425
299.422
299.418
299.412
299.409
299.414
299.418
299.421
299.424
299.42
299.417
299.414
299.41
299.405
299.401
299.406
299.41
299.413
299.417
299.412
299.409
299.406
299.402
299.396
299.392
299.397
299.4
299.403
299.406
299.4
299.397
299.395
299.392
299.387
299.382
299.386
299.389
299.392
299.394
299.389
299.386
299.383
299.38
299.376
299.37
299.374
299.376
299.379
299.382
299.372
299.37
299.368
299.366
299.363
299.355
299.358
299.36
299.361
299.362
299.353
299.352
299.351
299.349
299.347
299.339
299.34
299.341
299.342
299.344
299.331
299.33
299.33
299.329
299.329
299.318
299.317
299.317
299.317
299.317
299.304
299.303
299.304
299.304
299.306
299.293
299.29
299.289
299.289
299.29
299.268
299.27
299.271
299.273
299.277
299.26
299.254
299.251
299.249
299.247
299.226
299.227
299.23
299.234
299.241
299.221
299.212
299.206
299.203
299.2
299.172
299.175
299.18
299.186
299.199
299.173
299.158
299.15
299.145
299.144
299.109
299.111
299.117
299.125
299.144
299.107
299.087
299.077
299.071
299.066
299.025
299.026
299.032
299.043
299.071
299.014
298.988
298.977
298.971
298.971
298.902
298.904
298.909
298.921
298.956
298.874
298.837
298.828
298.827
298.837
298.746
298.73
298.724
298.724
298.744
298.58
298.576
298.592
298.61
298.623
298.52
298.487
298.45
298.392
298.249
298.024
298.222
298.307
298.359
298.395
298.296
298.243
298.184
298.114
298.028
297.983
297.99
298.05
298.11
298.158
298.056
297.974
297.895
297.819
297.821
297.207
297.538
297.69
297.798
297.888
297.704
297.617
297.495
297.299
296.93
296.962
297.19
297.352
297.468
297.557
297.433
297.338
297.223
297.067
296.705
296.605
296.936
297.098
297.222
297.324
297.232
297.122
296.985
296.779
296.265
296.354
296.683
296.897
297.041
297.151
297.071
296.969
296.834
296.645
296.517
296.339
296.589
296.799
296.938
297.044
297.028
296.941
296.811
296.622
296.579
296.758
296.744
296.873
296.983
297.09
297.131
297.07
296.998
296.943
297.175
297.407
297.122
297.14
297.179
297.238
297.278
297.259
297.249
297.297
297.602
297.435
297.338
297.328
297.352
297.384
297.446
297.449
297.462
297.481
297.601
298.01
297.68
297.633
297.6
297.583
297.65
297.697
297.756
297.865
298.209
298.338
298.029
297.891
297.812
297.759
297.855
297.914
298
298.146
298.418
298.466
298.233
298.091
298.003
297.949
298.011
298.074
298.161
298.289
298.47
298.489
298.337
298.225
298.139
298.069
298.133
298.206
298.293
298.404
298.565
298.629
298.477
298.367
298.279
298.205
298.283
298.349
298.435
298.544
298.699
298.739
298.596
298.489
298.403
298.327
298.374
298.45
298.533
298.634
298.766
298.781
298.663
298.57
298.492
298.429
298.458
298.524
298.597
298.683
298.786
298.795
298.699
298.62
298.552
298.487
298.526
298.577
298.639
298.709
298.794
298.786
298.715
298.654
298.599
298.546
298.563
298.615
298.667
298.723
298.788
298.805
298.739
298.684
298.633
298.58
298.601
298.653
298.703
298.756
298.824
298.834
298.77
298.72
298.673
298.632
298.647
298.691
298.734
298.78
298.838
298.841
298.788
298.745
298.704
298.661
298.682
298.717
298.755
298.795
298.843
298.846
298.801
298.765
298.73
298.694
298.702
298.739
298.772
298.806
298.846
298.846
298.809
298.778
298.747
298.718
298.727
298.756
298.784
298.813
298.846
298.846
298.816
298.789
298.762
298.732
298.744
298.769
298.793
298.818
298.847
298.847
298.82
298.798
298.775
298.751
298.755
298.78
298.801
298.822
298.846
298.846
298.824
298.804
298.784
298.763
298.768
298.789
298.807
298.826
298.847
298.846
298.827
298.81
298.792
298.771
298.778
298.795
298.812
298.828
298.846
298.845
298.829
298.815
298.8
298.782
298.784
298.802
298.817
298.83
298.845
298.845
298.831
298.819
298.806
298.791
298.797
298.809
298.821
298.832
298.845
298.845
298.834
298.823
298.812
298.8
298.802
298.814
298.825
298.835
298.846
298.846
298.835
298.825
298.815
298.804
298.806
298.817
298.827
298.836
298.845
298.845
298.836
298.828
298.819
298.808
298.81
298.819
298.828
298.836
298.844
298.845
298.837
298.829
298.821
298.811
298.812
298.822
298.83
298.837
298.844
298.844
298.837
298.83
298.822
298.814
298.815
298.824
298.831
298.837
298.843
298.844
298.838
298.831
298.824
298.816
298.817
298.824
298.831
298.838
298.844
298.843
298.837
298.832
298.826
298.818
298.819
298.826
298.832
298.837
298.843
298.841
298.837
298.832
298.826
298.819
298.82
298.827
298.832
298.837
298.843
298.842
298.837
298.832
298.827
298.82
298.82
298.826
298.832
298.836
298.841
298.839
298.836
298.832
298.827
298.821
298.821
298.827
298.831
298.835
298.839
298.838
298.834
298.831
298.826
298.821
298.821
298.827
298.831
298.834
298.837
298.837
298.834
298.83
298.826
298.821
298.821
298.825
298.829
298.833
298.836
298.833
298.832
298.829
298.825
298.821
298.82
298.825
298.828
298.831
298.832
298.831
298.83
298.827
298.824
298.819
298.82
298.824
298.827
298.829
298.831
298.829
298.828
298.825
298.822
298.818
298.818
298.821
298.824
298.826
298.829
298.816
298.829
298.823
298.822
298.818
298.816
298.82
298.827
298.823
298.869
298.617
298.921
298.822
298.825
298.818
298.822
298.83
298.87
298.944
298.954
298.117
299.185
298.885
298.848
298.824
298.836
298.859
298.923
299.026
298.931
297.721
299.057
298.903
298.862
298.836
298.833
298.853
298.884
298.886
298.461
298.174
298.831
298.855
298.841
298.822
298.81
298.826
298.829
298.778
298.426
298.468
298.749
298.806
298.812
298.804
298.797
298.799
298.788
298.735
298.532
298.584
298.732
298.778
298.792
298.793
298.787
298.785
298.771
298.733
298.626
298.657
298.738
298.769
298.78
298.781
298.774
298.774
298.766
298.743
298.68
298.703
298.746
298.763
298.769
298.77
298.768
298.768
298.762
298.749
298.716
298.72
298.748
298.759
298.763
298.762
298.759
298.76
298.757
298.748
298.725
298.73
298.749
298.756
298.759
298.758
298.753
298.755
298.754
298.748
298.734
298.737
298.748
298.752
298.752
298.75
298.749
298.751
298.75
298.747
298.739
298.739
298.746
298.748
298.747
298.744
298.742
298.744
298.745
298.744
298.74
298.741
298.743
298.744
298.742
298.739
298.733
298.737
298.74
298.741
298.74
298.736
298.737
298.736
298.734
298.731
298.728
298.731
298.733
298.734
298.732
298.732
298.731
298.729
298.726
298.722
298.72
298.723
298.726
298.728
298.73
298.729
298.725
298.723
298.72
298.717
298.711
298.714
298.718
298.72
298.721
298.719
298.716
298.714
298.712
298.709
298.705
298.708
298.71
298.712
298.714
298.71
298.708
298.706
298.704
298.702
298.698
298.7
298.702
298.704
298.705
298.704
298.701
298.698
298.695
298.69
298.688
298.691
298.694
298.697
298.702
298.701
298.693
298.689
298.686
298.683
298.675
298.679
298.683
298.687
298.692
298.684
298.68
298.677
298.675
298.673
298.668
298.67
298.672
298.675
298.679
298.674
298.67
298.667
298.666
298.663
298.659
298.66
298.662
298.665
298.668
298.665
298.66
298.657
298.654
298.65
298.647
298.649
298.651
298.654
298.658
298.656
298.649
298.646
298.643
298.642
298.634
298.638
298.64
298.643
298.649
298.642
298.638
298.635
298.633
298.631
298.626
298.627
298.63
298.633
298.638
298.631
298.627
298.625
298.623
298.621
298.616
298.617
298.619
298.622
298.627
298.619
298.616
298.613
298.611
298.607
298.604
298.606
298.608
298.61
298.616
298.607
298.604
298.601
298.599
298.599
298.59
298.593
298.596
298.599
298.605
298.597
298.592
298.59
298.589
298.587
298.581
298.582
298.584
298.587
298.592
298.585
298.581
298.578
298.577
298.575
298.57
298.571
298.573
298.575
298.58
298.575
298.569
298.566
298.564
298.561
298.557
298.559
298.561
298.564
298.569
298.561
298.557
298.554
298.552
298.551
298.544
298.546
298.548
298.551
298.557
298.546
298.543
298.541
298.539
298.539
298.529
298.532
298.534
298.536
298.542
298.534
298.531
298.528
298.526
298.524
298.518
298.519
298.521
298.524
298.53
298.525
298.518
298.515
298.513
298.511
298.506
298.506
298.507
298.51
298.516
298.506
298.502
298.5
298.499
298.496
298.49
298.492
298.493
298.496
298.501
298.494
298.489
298.486
298.485
298.484
298.477
298.478
298.48
298.483
298.489
298.478
298.475
298.472
298.471
298.472
298.462
298.465
298.466
298.468
298.471
298.471
298.465
298.461
298.459
298.456
298.45
298.452
298.454
298.458
298.466
298.462
298.452
298.447
298.445
298.442
298.436
298.436
298.437
298.441
298.448
298.443
298.434
298.431
298.428
298.425
298.416
298.418
298.421
298.424
298.43
298.421
298.416
298.413
298.411
298.41
298.401
298.403
298.405
298.408
298.414
298.407
298.401
298.398
298.396
298.396
298.385
298.389
298.391
298.394
298.402
298.397
298.387
298.383
298.381
298.378
298.373
298.373
298.376
298.379
298.384
298.383
298.374
298.369
298.367
298.364
298.358
298.359
298.361
298.365
298.372
298.365
298.357
298.353
298.35
298.348
298.341
298.341
298.343
298.347
298.351
298.348
298.339
298.336
298.334
298.33
298.321
298.324
298.326
298.33
298.338
298.334
298.324
298.319
298.316
298.315
298.306
298.308
298.311
298.315
298.324
298.316
298.307
298.303
298.3
298.3
298.288
298.292
298.295
298.3
298.312
298.299
298.29
298.285
298.282
298.278
298.272
298.273
298.277
298.282
298.293
298.279
298.272
298.268
298.265
298.262
298.256
298.257
298.26
298.264
298.272
298.265
298.255
298.25
298.247
298.245
298.238
298.238
298.241
298.246
298.254
298.25
298.238
298.233
298.23
298.226
298.216
298.22
298.223
298.229
298.243
298.229
298.221
298.216
298.212
298.211
298.201
298.204
298.208
298.215
298.228
298.216
298.205
298.2
298.196
298.194
298.183
298.186
298.19
298.197
298.211
298.197
298.186
298.18
298.176
298.175
298.163
298.167
298.17
298.176
298.191
298.182
298.165
298.159
298.154
298.151
298.145
298.146
298.15
298.155
298.164
298.159
298.147
298.141
298.137
298.134
298.127
298.129
298.132
298.138
298.148
298.141
298.129
298.122
298.118
298.115
298.107
298.108
298.112
298.119
298.137
298.125
298.109
298.103
298.099
298.095
298.082
298.086
298.091
298.099
298.117
298.101
298.089
298.082
298.077
298.075
298.064
298.068
298.072
298.08
298.095
298.082
298.07
298.063
298.059
298.056
298.044
298.047
298.052
298.059
298.071
298.067
298.049
298.041
298.038
298.036
298.024
298.028
298.032
298.039
298.054
298.047
298.029
298.021
298.015
298.011
298.005
298.007
298.012
298.02
298.033
298.028
298.011
298.002
297.998
297.993
297.985
297.989
297.994
298.002
298.015
298.009
297.991
297.982
297.977
297.973
297.964
297.968
297.972
297.98
297.996
297.989
297.969
297.96
297.954
297.951
297.941
297.943
297.948
297.957
297.972
297.966
297.945
297.936
297.932
297.928
297.912
297.917
297.923
297.932
297.952
297.936
297.921
297.914
297.909
297.906
297.894
297.898
297.903
297.912
297.93
297.917
297.902
297.894
297.89
297.886
297.874
297.877
297.882
297.89
297.906
297.902
297.882
297.873
297.869
297.866
297.851
297.856
297.862
297.872
297.893
297.887
297.862
297.851
297.845
297.842
297.829
297.834
297.84
297.85
297.874
297.865
297.839
297.826
297.818
297.812
297.805
297.809
297.815
297.825
297.843
297.833
297.813
297.802
297.796
297.792
297.784
297.788
297.792
297.8
297.816
297.81
297.79
297.78
297.773
297.77
297.761
297.765
297.77
297.779
297.796
297.788
297.767
297.757
297.75
297.745
297.736
297.739
297.744
297.755
297.783
297.774
297.745
297.734
297.727
297.722
297.705
297.711
297.72
297.732
297.753
297.746
297.722
297.71
297.703
297.698
297.684
297.69
297.698
297.709
297.729
297.724
297.7
297.688
297.682
297.676
297.661
297.666
297.674
297.685
297.711
297.702
297.675
297.663
297.656
297.651
297.634
297.639
297.647
297.659
297.683
297.677
297.647
297.634
297.627
297.623
297.609
297.615
297.622
297.634
297.66
297.649
297.622
297.608
297.599
297.591
297.584
297.59
297.598
297.611
297.641
297.624
297.598
297.585
297.576
297.57
297.562
297.568
297.575
297.589
297.618
297.603
297.576
297.562
297.553
297.546
297.537
297.543
297.552
297.567
297.599
297.578
297.553
297.537
297.527
297.52
297.508
297.515
297.523
297.537
297.569
297.55
297.521
297.506
297.496
297.49
297.477
297.482
297.491
297.507
297.544
297.53
297.493
297.477
297.469
297.462
297.442
297.45
297.461
297.477
297.51
297.496
297.465
297.45
297.441
297.434
297.418
297.425
297.435
297.452
297.484
297.471
297.439
297.424
297.416
297.41
297.392
297.399
297.409
297.425
297.458
297.45
297.415
297.398
297.39
297.383
297.364
297.372
297.383
297.401
297.436
297.43
297.387
297.368
297.359
297.353
297.337
297.345
297.356
297.375
297.418
297.394
297.357
297.338
297.326
297.317
297.309
297.317
297.327
297.345
297.383
297.366
297.329
297.311
297.3
297.292
297.283
297.29
297.299
297.316
297.35
297.34
297.301
297.282
297.271
297.264
297.254
297.261
297.27
297.287
297.324
297.308
297.271
297.254
297.242
297.234
297.224
297.232
297.241
297.259
297.3
297.284
297.245
297.225
297.212
297.203
297.19
297.198
297.209
297.231
297.279
297.267
297.219
297.196
297.184
297.173
297.151
297.163
297.178
297.2
297.239
297.231
297.189
297.167
297.154
297.143
297.126
297.136
297.15
297.173
297.214
297.205
297.16
297.138
297.125
297.115
297.095
297.105
297.119
297.141
297.186
297.173
297.127
297.105
297.094
297.084
297.063
297.073
297.087
297.11
297.16
297.142
297.094
297.073
297.061
297.052
297.029
297.039
297.053
297.075
297.118
297.109
297.06
297.038
297.027
297.018
296.995
297.006
297.021
297.045
297.092
297.086
297.029
297.004
296.99
296.981
296.963
296.975
296.99
297.016
297.073
297.048
296.997
296.971
296.953
296.94
296.931
296.943
296.958
296.985
297.039
297.017
296.966
296.939
296.923
296.912
296.901
296.912
296.926
296.952
297.002
296.985
296.933
296.906
296.89
296.879
296.867
296.878
296.892
296.917
296.97
296.952
296.899
296.872
296.855
296.844
296.831
296.843
296.856
296.882
296.94
296.916
296.864
296.837
296.819
296.807
296.791
296.802
296.818
296.847
296.91
296.893
296.832
296.803
296.786
296.773
296.749
296.763
296.783
296.816
296.875
296.859
296.801
296.771
296.752
296.739
296.718
296.731
296.75
296.781
296.844
296.82
296.763
296.734
296.719
296.707
296.684
296.696
296.713
296.742
296.802
296.788
296.728
296.699
296.684
296.672
296.648
296.661
296.679
296.71
296.775
296.758
296.693
296.663
296.647
296.635
296.61
296.623
296.642
296.672
296.734
296.727
296.654
296.622
296.605
296.593
296.574
296.589
296.608
296.641
296.712
296.691
296.623
296.587
296.565
296.549
296.539
296.554
296.574
296.608
296.679
296.663
296.59
296.553
296.531
296.517
296.504
296.518
296.536
296.57
296.636
296.616
296.547
296.513
296.493
296.479
296.465
296.479
296.496
296.528
296.598
296.58
296.509
296.473
296.453
296.438
296.423
296.438
296.456
296.488
296.564
296.54
296.469
296.433
296.411
296.395
296.376
296.39
296.411
296.448
296.529
296.514
296.432
296.394
296.373
296.355
296.328
296.347
296.372
296.411
296.482
296.473
296.398
296.359
296.335
296.318
296.295
296.312
296.337
296.378
296.454
296.442
296.362
296.322
296.299
296.282
296.255
296.272
296.296
296.336
296.416
296.4
296.317
296.278
296.257
296.24
296.212
296.228
296.252
296.292
296.373
296.36
296.273
296.233
296.212
296.195
296.166
296.184
296.208
296.248
296.33
296.32
296.228
296.184
296.161
296.145
296.123
296.143
296.167
296.211
296.298
296.282
296.192
296.144
296.115
296.094
296.082
296.101
296.128
296.172
296.268
296.236
296.148
296.101
296.074
296.056
296.041
296.059
296.082
296.124
296.207
296.196
296.103
296.057
296.031
296.013
295.996
296.015
296.039
296.082
296.172
296.152
296.059
296.013
295.986
295.967
295.949
295.968
295.992
296.036
296.131
296.114
296.015
295.968
295.939
295.919
295.896
295.915
295.943
295.993
296.1
296.084
295.977
295.925
295.896
295.874
295.843
295.866
295.899
295.954
296.05
296.04
295.935
295.882
295.851
295.829
295.802
295.822
295.853
295.906
296.005
295.981
295.882
295.832
295.805
295.785
295.754
295.774
295.803
295.856
295.957
295.933
295.829
295.781
295.756
295.736
295.704
295.723
295.752
295.803
295.908
295.88
295.775
295.728
295.705
295.686
295.654
295.674
295.703
295.755
295.86
295.849
295.731
295.678
295.65
295.63
295.608
295.631
295.662
295.718
295.836
295.806
295.696
295.636
295.601
295.577
295.563
295.587
295.619
295.677
295.795
295.766
295.653
295.592
295.558
295.535
295.517
295.541
295.572
295.63
295.744
295.719
295.6
295.541
295.508
295.485
295.465
295.489
295.519
295.576
295.693
295.671
295.545
295.486
295.453
295.429
295.407
295.43
295.459
295.516
295.635
295.613
295.485
295.428
295.395
295.371
295.341
295.363
295.396
295.458
295.578
295.567
295.433
295.373
295.341
295.315
295.279
295.306
295.344
295.412
295.537
295.523
295.39
295.325
295.29
295.263
295.233
295.257
295.296
295.363
295.483
295.471
295.339
295.274
295.239
295.213
295.179
295.205
295.243
295.31
295.436
295.415
295.277
295.214
295.182
295.156
295.12
295.147
295.186
295.254
295.385
295.376
295.222
295.152
295.115
295.089
295.062
295.091
295.13
295.204
295.353
295.322
295.175
295.097
295.053
295.024
295.005
295.035
295.075
295.15
295.291
295.255
295.117
295.041
294.998
294.971
294.947
294.976
295.012
295.086
295.233
295.185
295.046
294.974
294.934
294.908
294.88
294.906
294.94
295.012
295.162
295.112
294.973
294.904
294.866
294.839
294.803
294.828
294.864
294.937
295.097
295.057
294.914
294.841
294.804
294.775
294.738
294.767
294.811
294.891
295.034
295.027
294.873
294.795
294.751
294.721
294.689
294.719
294.765
294.848
295.005
294.984
294.82
294.741
294.699
294.667
294.63
294.66
294.707
294.79
294.951
294.932
294.758
294.676
294.635
294.604
294.563
294.595
294.641
294.725
294.893
294.881
294.689
294.602
294.555
294.526
294.493
294.527
294.572
294.658
294.845
294.814
294.625
294.531
294.48
294.448
294.425
294.457
294.501
294.59
294.765
294.715
294.548
294.458
294.412
294.384
294.356
294.385
294.423
294.504
294.668
294.622
294.465
294.382
294.34
294.313
294.284
294.313
294.35
294.43
294.603
294.581
294.406
294.32
294.275
294.245
294.208
294.239
294.285
294.377
294.572
294.547
294.36
294.264
294.215
294.178
294.136
294.173
294.229
294.332
294.534
294.5
294.302
294.204
294.151
294.114
294.074
294.108
294.164
294.265
294.451
294.425
294.225
294.13
294.082
294.045
293.999
294.034
294.088
294.191
294.381
294.348
294.141
294.045
293.999
293.963
293.915
293.95
294.001
294.101
294.288
294.271
294.05
293.949
293.9
293.867
293.827
293.864
293.912
294.011
294.23
294.186
293.973
293.868
293.812
293.777
293.749
293.785
293.835
293.939
294.159
294.097
293.895
293.792
293.738
293.705
293.671
293.706
293.754
293.855
294.063
294.033