/*--------------------------------*- C++ -*----------------------------------*\
| =========                 |                                                 |
| \\      /  F ield         | OpenFOAM: The Open Source CFD Toolbox           |
|  \\    /   O peration     | Version:  v2006                                 |
|   \\  /    A nd           | Website:  www.openfoam.com                      |
|    \\/     M anipulation  |                                                 |
\*---------------------------------------------------------------------------*/
FoamFile
{
    version     2.0;
    format      ascii;
    class       volScalarField;
    location    "0.1";
    object      turbulenceProperties:L;
}
// * * * * * * * * * * * * * * * * * * * * * * * * * * * * * * * * * * * * * //

dimensions      [0 1 0 0 0 0 0];


internalField   nonuniform List<scalar> 
38932
(
0.0100146
0.0100149
0.0100048
0.0100047
0.0100048
0.0100047
0.0100048
0.0100048
0.0100048
0.0100048
0.0100048
0.0100048
0.0100048
0.0100048
0.0100048
0.0100048
0.0100048
0.0100048
0.0100048
0.0100048
0.0100048
0.0100048
0.0100048
0.0100048
0.0100048
0.0100048
0.0100048
0.0100048
0.0100048
0.0100048
0.0100048
0.0100048
0.0100048
0.0100049
0.0100049
0.0100049
0.0100049
0.0100049
0.0100049
0.0100049
0.0100049
0.0100049
0.0100049
0.0100049
0.0100049
0.0100049
0.0100049
0.0100049
0.0100049
0.0100049
0.0100049
0.0100049
0.0100049
0.0100049
0.0100049
0.0100049
0.010005
0.010005
0.010005
0.010005
0.010005
0.010005
0.010005
0.010005
0.010005
0.010005
0.010005
0.010005
0.010005
0.010005
0.010005
0.010005
0.010005
0.010005
0.010005
0.010005
0.010005
0.010005
0.010005
0.010005
0.010005
0.0100051
0.0100051
0.0100051
0.0100051
0.0100051
0.0100051
0.0100051
0.0100051
0.0100051
0.0100051
0.0100051
0.0100051
0.0100051
0.0100051
0.0100051
0.0100051
0.0100051
0.0100051
0.0100051
0.0100051
0.0100051
0.0100051
0.0100051
0.0100051
0.0100051
0.0100051
0.0100051
0.0100051
0.0100052
0.0100052
0.0100052
0.0100052
0.0100052
0.0100052
0.0100052
0.0100052
0.0100051
0.0100051
0.010005
0.0100046
0.0100035
0.0100005
0.00999096
0.00997221
0.00991885
0.0097501
0.00914801
0.00717815
0.00248905
0.000846209
4.35497e-05
4.28478e-05
0.00037758
0.00102541
0.000726985
0.000271525
4.25621e-05
4.24857e-05
0.000226286
0.000591198
0.000527424
0.000201598
4.28407e-05
4.28001e-05
0.00018843
0.000484206
0.000461017
0.000182669
4.28641e-05
4.27192e-05
0.000177551
0.000448779
0.000442873
0.00017657
4.26423e-05
4.26353e-05
0.000176176
0.000439579
0.000437819
0.000176111
4.26411e-05
4.264e-05
0.000176158
0.000436642
0.000435614
0.000176192
4.264e-05
4.264e-05
0.000176152
0.000434485
0.000433121
0.000176006
4.264e-05
4.264e-05
0.000175746
0.000431502
0.000429639
0.000175379
4.264e-05
4.264e-05
0.000174923
0.000427571
0.000425343
0.000174394
4.264e-05
4.264e-05
0.000173813
0.000422998
0.000420574
0.000173195
4.264e-05
4.264e-05
0.000172555
0.000418105
0.000415619
0.000171904
4.264e-05
4.264e-05
0.000171252
0.000413137
0.000410677
0.000170607
4.264e-05
4.264e-05
0.000169973
0.00040825
0.000405865
0.000169356
4.264e-05
4.264e-05
0.000168757
0.000403528
0.000401242
0.000168179
4.264e-05
4.264e-05
0.000167623
0.000399011
0.000396834
0.00016709
4.264e-05
4.264e-05
0.000166582
0.000394714
0.000392648
0.000166097
4.264e-05
4.264e-05
0.000165636
0.000390638
0.000388683
0.0001652
4.264e-05
4.264e-05
0.000164788
0.000386781
0.000384932
0.000164401
4.264e-05
4.264e-05
0.000164038
0.000383135
0.000381389
0.000163699
4.264e-05
4.264e-05
0.000163386
0.000379694
0.000378049
0.000163096
4.264e-05
4.264e-05
0.000162832
0.000376454
0.000374907
0.000162593
4.264e-05
4.264e-05
0.000162379
0.000373409
0.000371959
0.000162191
4.264e-05
4.264e-05
0.000162029
0.000370557
0.000369203
0.000161893
4.264e-05
4.264e-05
0.000161785
0.000367897
0.000366638
0.000161704
4.264e-05
4.264e-05
0.000161653
0.000365428
0.000364267
0.00016163
4.264e-05
4.264e-05
0.000161638
0.000363154
0.000362091
0.000161678
4.264e-05
4.264e-05
0.000161751
0.000361079
0.000360119
0.000161858
4.264e-05
4.264e-05
0.000162002
0.000359212
0.00035836
0.000162183
4.264e-05
4.264e-05
0.000162404
0.000357565
0.000356828
0.000162668
4.264e-05
4.264e-05
0.000162977
0.000356152
0.000355541
0.000163334
4.264e-05
4.264e-05
0.000163742
0.000354997
0.000354525
0.000164206
4.264e-05
4.264e-05
0.000164728
0.000354128
0.000353811
0.000165315
4.264e-05
4.264e-05
0.000165971
0.000353582
0.000353444
0.000166703
4.264e-05
4.264e-05
0.000167517
0.00035341
0.000353484
0.000168422
4.264e-05
4.264e-05
0.000169427
0.000353676
0.000354004
0.000170542
4.264e-05
4.264e-05
0.00017178
0.000354479
0.000355116
0.000173153
4.264e-05
4.264e-05
0.000174681
0.000355938
0.00035696
0.000176377
4.264e-05
4.264e-05
0.00017827
0.00035822
0.000359731
0.000180376
4.264e-05
4.264e-05
0.000182734
0.000361556
0.000363701
0.000185367
4.264e-05
4.264e-05
0.00018832
0.00036625
0.000369254
0.000191635
4.264e-05
4.264e-05
0.000195366
0.000372792
0.000376902
0.000199553
4.264e-05
4.264e-05
0.000204264
0.00038175
0.000387426
0.000209561
4.264e-05
4.264e-05
0.000215484
0.000394008
0.000401535
0.000222031
4.264e-05
4.264e-05
0.000229316
0.000410418
0.000420765
0.000237341
4.264e-05
4.264e-05
0.000246152
0.000432916
0.000447074
0.000255783
4.264e-05
4.264e-05
0.000265968
0.000464037
0.000482836
0.000274905
4.264e-05
4.264e-05
0.000281858
0.000503673
0.000528745
0.000289409
4.264e-05
4.264e-05
0.000297125
0.000556697
0.000586732
0.00030446
4.264e-05
4.264e-05
0.000310931
0.00061806
0.000650682
0.000316578
4.264e-05
4.264e-05
0.000320192
0.00068229
0.000707103
0.000319351
4.264e-05
4.264e-05
0.000311907
0.000716674
0.000693765
0.00029209
4.26329e-05
4.26471e-05
0.000254444
0.000627107
0.000563825
0.000227229
4.26329e-05
4.264e-05
0.000213312
0.000524912
0.000505838
0.000204855
4.26471e-05
4.264e-05
0.000200109
0.000496844
0.000493383
0.000198666
4.264e-05
4.264e-05
0.000199659
0.000496079
0.000503292
0.000202132
4.26329e-05
4.26471e-05
0.000205281
0.000511715
0.000520865
0.000209096
4.264e-05
4.264e-05
0.000212969
0.000530786
0.000540215
0.00021667
4.26329e-05
4.264e-05
0.000219641
0.000549058
0.000559026
0.000223392
4.26471e-05
4.264e-05
0.000226668
0.000567837
0.00057622
0.000230034
4.264e-05
4.264e-05
0.000233378
0.000584339
0.000591751
0.000236607
4.26329e-05
4.26471e-05
0.000239847
0.000598822
0.000605255
0.000242921
4.26329e-05
4.264e-05
0.000246033
0.000611311
0.000616839
0.000249052
4.26471e-05
4.264e-05
0.000252016
0.000621902
0.000626509
0.000254996
4.264e-05
4.26471e-05
0.000258007
0.000630703
0.00063434
0.000261005
4.26329e-05
4.26471e-05
0.000264207
0.00063759
0.000640179
0.000267493
4.26259e-05
4.27497e-05
0.000271203
0.00064202
0.000642877
0.000275182
4.28039e-05
4.28729e-05
0.000279846
0.000641985
0.000637191
0.000284732
4.27731e-05
4.29521e-05
0.00028938
0.000623469
0.000592516
0.000291648
4.26833e-05
4.2796e-05
0.000286034
0.000526317
0.000385037
0.000224257
4.29533e-05
4.35625e-05
0.000177004
0.000177024
0.000174625
0.00017711
0.000175976
0.000180209
0.000179711
0.000181181
0.000180718
0.000181015
0.000180955
0.000181045
0.000180955
0.000181127
0.00018041
0.000180681
0.000180922
0.000195583
0.000192084
0.0001886
0.00018227
0.000136065
8.31803e-05
9.69137e-05
0.00011472
9.66729e-05
5.29392e-05
5.56003e-05
6.00576e-05
5.96975e-05
5.80582e-05
5.8466e-05
3.93748e-05
3.41967e-05
3.18449e-05
3.30505e-05
2.32364e-05
4.71456e-05
7.15387e-05
9.57201e-05
0.000135963
0.00028284
0.000225922
0.000162206
8.568e-05
2.602e-05
2.70705e-05
0.000125429
0.000248127
0.000340878
0.000415358
0.000499166
0.000398273
0.000281677
0.000137615
2.76762e-05
2.7277e-05
0.000142581
0.000297186
0.000429385
0.000542946
0.000559224
0.000441607
0.000300918
0.000143267
2.69196e-05
2.60102e-05
0.000139459
0.000294255
0.000434359
0.000553034
0.000535699
0.000418764
0.000282623
0.000133673
2.48679e-05
2.3622e-05
0.000127734
0.000269638
0.00040014
0.00051367
0.000489626
0.000381535
0.000257177
0.000122411
2.23459e-05
2.12298e-05
0.000118104
0.000246852
0.000365623
0.00046924
0.000454043
0.000352852
0.000238601
0.000115009
2.02904e-05
1.93977e-05
0.000111997
0.000230964
0.000341587
0.000440284
0.000427456
0.000330655
0.000223439
0.00010885
1.84846e-05
1.74674e-05
0.000104354
0.000214313
0.000318536
0.000413799
0.000395325
0.000301889
0.000201703
9.75339e-05
1.61517e-05
1.46316e-05
8.66411e-05
0.00018325
0.000279792
0.000372463
0.000345371
0.000252876
0.000160351
7.31945e-05
1.28042e-05
1.02203e-05
5.60621e-05
0.000131836
0.000220461
0.00031391
0.000274564
0.000180043
9.27278e-05
3.17532e-05
6.56506e-06
4.5081e-06
1.67652e-05
6.14171e-05
0.000131019
0.000222424
0.000159551
7.92664e-05
4.05772e-05
1.43633e-05
4.52213e-06
4.54269e-06
8.75263e-06
2.44873e-05
5.43869e-05
9.4807e-05
6.65943e-05
2.95128e-05
1.11519e-05
5.10458e-06
4.41176e-06
4.41955e-06
5.15579e-06
1.11832e-05
3.04523e-05
6.8227e-05
6.80284e-05
3.03735e-05
1.17032e-05
5.9522e-06
4.54018e-06
4.48699e-06
6.73117e-06
1.28808e-05
3.18116e-05
6.87559e-05
6.86437e-05
3.23501e-05
1.32466e-05
5.8709e-06
4.63334e-06
4.61401e-06
5.86191e-06
1.30785e-05
3.24932e-05
6.97027e-05
6.93877e-05
3.25186e-05
1.322e-05
7.01733e-06
4.52347e-06
4.62696e-06
7.13416e-06
1.50736e-05
3.45157e-05
6.97491e-05
7.12395e-05
3.57448e-05
1.52745e-05
6.21357e-06
4.41325e-06
4.42186e-06
6.25291e-06
1.48852e-05
3.52557e-05
7.07835e-05
7.18486e-05
3.75995e-05
1.70865e-05
8.04716e-06
4.47268e-06
4.42741e-06
7.73094e-06
1.82996e-05
3.91401e-05
7.31775e-05
7.54079e-05
3.91046e-05
1.71613e-05
7.28431e-06
4.5095e-06
4.43568e-06
7.97864e-06
1.74836e-05
3.79633e-05
7.31253e-05
7.63116e-05
4.03347e-05
1.80131e-05
6.82849e-06
4.7068e-06
4.69656e-06
6.53075e-06
1.71576e-05
3.84918e-05
7.5937e-05
8.01279e-05
4.38055e-05
1.94723e-05
7.04453e-06
4.65805e-06
4.68814e-06
6.7259e-06
1.72937e-05
3.80695e-05
7.39642e-05
7.46503e-05
3.97736e-05
1.81978e-05
8.06037e-06
4.49174e-06
4.69178e-06
7.93773e-06
1.96182e-05
4.02373e-05
7.34464e-05
7.84336e-05
4.44367e-05
2.07561e-05
8.31702e-06
4.48795e-06
4.6548e-06
8.41635e-06
2.04254e-05
4.14121e-05
7.34667e-05
7.65076e-05
4.35296e-05
2.0595e-05
7.33003e-06
4.40343e-06
4.46501e-06
8.29244e-06
1.99872e-05
4.04303e-05
7.27991e-05
7.72079e-05
4.50586e-05
2.2099e-05
7.73243e-06
4.396e-06
4.37803e-06
7.45109e-06
2.01556e-05
4.05112e-05
7.25166e-05
7.36323e-05
4.28644e-05
2.21315e-05
9.13618e-06
4.43902e-06
4.32781e-06
7.70336e-06
2.19808e-05
4.18613e-05
7.15354e-05
7.17634e-05
4.06729e-05
2.05656e-05
7.46531e-06
4.69965e-06
4.55799e-06
8.27961e-06
2.11036e-05
3.99534e-05
7.10786e-05
7.58739e-05
4.46451e-05
2.28037e-05
9.14746e-06
4.55713e-06
4.79769e-06
7.86322e-06
2.33153e-05
4.48511e-05
7.62865e-05
8.0415e-05
4.714e-05
2.33971e-05
7.76826e-06
4.38835e-06
4.56331e-06
9.53057e-06
2.37834e-05
4.54927e-05
7.78573e-05
8.26665e-05
4.97897e-05
2.49353e-05
8.10541e-06
4.36312e-06
4.33548e-06
7.72769e-06
2.3064e-05
4.51173e-05
7.92602e-05
8.29307e-05
5.06873e-05
2.60759e-05
9.10745e-06
4.4075e-06
4.28805e-06
7.56223e-06
2.35335e-05
4.56682e-05
7.95352e-05
8.14121e-05
4.93113e-05
2.57826e-05
9.71794e-06
4.44511e-06
4.26441e-06
7.77905e-06
2.43718e-05
4.66534e-05
7.94413e-05
8.04649e-05
4.76918e-05
2.46967e-05
8.88262e-06
4.54167e-06
4.29668e-06
8.76897e-06
2.51231e-05
4.68071e-05
7.83016e-05
8.21468e-05
4.78494e-05
2.45892e-05
7.91409e-06
4.73782e-06
4.5113e-06
9.25542e-06
2.48021e-05
4.56286e-05
7.88641e-05
8.63707e-05
5.2127e-05
2.66207e-05
8.40286e-06
4.76369e-06
4.81775e-06
7.89794e-06
2.49996e-05
4.62961e-05
8.19858e-05
8.83066e-05
5.57653e-05
2.94918e-05
1.04367e-05
4.60751e-06
4.87749e-06
7.96632e-06
2.69167e-05
5.07734e-05
8.56396e-05
8.71055e-05
5.48387e-05
2.89867e-05
9.9267e-06
4.60975e-06
4.75101e-06
8.51229e-06
2.68779e-05
5.03909e-05
8.33777e-05
8.493e-05
5.3593e-05
2.86125e-05
9.99448e-06
4.63355e-06
4.83312e-06
8.30753e-06
2.67511e-05
4.94543e-05
8.24263e-05
8.45976e-05
5.33188e-05
2.86776e-05
1.06693e-05
4.50481e-06
4.86302e-06
8.7468e-06
2.80543e-05
5.20172e-05
8.41218e-05
8.55486e-05
5.31963e-05
2.813e-05
9.41939e-06
4.40457e-06
4.69996e-06
1.04164e-05
2.90683e-05
5.30873e-05
8.47194e-05
8.65358e-05
5.28671e-05
2.7478e-05
8.72956e-06
4.32912e-06
4.42045e-06
9.81287e-06
2.781e-05
5.08001e-05
8.39344e-05
8.77927e-05
5.424e-05
2.82367e-05
9.18228e-06
4.34256e-06
4.25942e-06
8.5791e-06
2.70764e-05
4.9384e-05
8.34431e-05
8.70769e-05
5.47068e-05
2.92416e-05
1.02767e-05
4.40332e-06
4.17575e-06
8.0941e-06
2.69513e-05
4.95197e-05
8.2962e-05
8.30653e-05
5.20429e-05
2.83239e-05
1.00087e-05
4.56826e-06
4.23039e-06
9.16848e-06
2.82735e-05
5.23861e-05
8.34665e-05
8.30901e-05
4.94269e-05
2.6197e-05
8.41991e-06
4.83717e-06
4.78398e-06
8.62134e-06
2.46617e-05
4.2548e-05
7.28901e-05
7.07371e-05
4.23638e-05
2.45587e-05
8.88791e-06
4.29223e-06
4.47297e-06
1.1111e-05
2.61446e-05
4.39444e-05
7.15483e-05
7.97579e-05
4.48784e-05
2.44854e-05
8.5358e-06
4.84517e-06
5.16394e-06
1.0294e-05
2.9123e-05
6.08012e-05
0.000100201
0.00013083
7.9309e-05
3.97035e-05
1.51531e-05
6.81806e-06
8.83769e-06
2.36147e-05
6.24274e-05
0.00012607
0.000208956
0.000247754
0.000163611
9.06e-05
3.58366e-05
1.1355e-05
1.38214e-05
5.01732e-05
0.000117271
0.000196967
0.000285292
0.000318093
0.00022775
0.000141742
6.38749e-05
1.59493e-05
1.75978e-05
7.64142e-05
0.000162679
0.000253586
0.000346007
0.000370249
0.000276061
0.000180501
8.59652e-05
1.88254e-05
1.99946e-05
9.46017e-05
0.000195467
0.00029472
0.000390183
0.000404102
0.000309821
0.000208473
0.00010266
2.10452e-05
2.18884e-05
0.000110546
0.000220998
0.000325181
0.000421631
0.000436913
0.000337628
0.00023051
0.000116133
2.25816e-05
2.33696e-05
0.000119481
0.000238432
0.000349251
0.000452356
0.000467736
0.000360953
0.0002465
0.000124117
2.4239e-05
2.59007e-05
0.000127893
0.000254181
0.000370781
0.000477965
0.000487822
0.000381958
0.000264265
0.000135319
2.75604e-05
2.87214e-05
0.000143137
0.000275726
0.000396374
0.000505031
0.000521711
0.000410455
0.000286709
0.000149573
2.96926e-05
3.0665e-05
0.000157119
0.000297288
0.000423632
0.00053668
0.00055099
0.000434983
0.000306467
0.000164411
3.11208e-05
3.08998e-05
0.00016683
0.000309361
0.000439345
0.000562108
0.000537598
0.000425747
0.000300216
0.000161499
3.00007e-05
2.91516e-05
0.000155421
0.0002882
0.000405906
0.000506278
0.000521888
0.000409842
0.000288115
0.000153876
2.91435e-05
2.90057e-05
0.000157388
0.000294747
0.000420292
0.000535278
0.000547836
0.00043056
0.000302418
0.000162788
2.92649e-05
2.89087e-05
0.000164337
0.000308132
0.00043915
0.00055868
0.000567441
0.00044596
0.000312539
0.000166271
2.91443e-05
2.81221e-05
0.000164416
0.000311611
0.000446946
0.000571863
0.000561036
0.000436001
0.000303751
0.00016067
2.73952e-05
2.55232e-05
0.000151254
0.000285802
0.000407275
0.000511702
0.000461689
0.000371628
0.000263018
0.000139213
2.35734e-05
2.16433e-05
0.00012878
0.000244722
0.000350664
0.000450454
0.00042363
0.000331838
0.000230297
0.000120023
2.03492e-05
1.89914e-05
0.000112533
0.000216504
0.000310778
0.000392595
0.000394598
0.000304833
0.000210196
0.000108921
1.86331e-05
1.81384e-05
0.000106928
0.00020834
0.00030397
0.000394219
0.000389278
0.000300937
0.000206322
0.00010591
1.80065e-05
1.77224e-05
0.000104927
0.000204073
0.000297718
0.000385491
0.000382769
0.000295279
0.000202109
0.000104128
1.77457e-05
1.72936e-05
0.00010301
0.000200714
0.000293918
0.000381928
0.000380656
0.000290275
0.00019818
0.000101849
1.70844e-05
1.63954e-05
9.83854e-05
0.000190858
0.000278384
0.000359746
0.000337615
0.000264485
0.000181742
9.35679e-05
1.57894e-05
1.57426e-05
9.27574e-05
0.000181635
0.000266524
0.000347904
0.000357024
0.000273334
0.000185802
9.48974e-05
1.60932e-05
1.62777e-05
9.79798e-05
0.00019067
0.000280139
0.000365412
0.00037302
0.000285556
0.00019438
9.97418e-05
1.6142e-05
1.57189e-05
9.8548e-05
0.000193223
0.000285512
0.000376818
0.00035709
0.000275106
0.00018701
9.50028e-05
1.49999e-05
1.42362e-05
9.09754e-05
0.000179819
0.000262925
0.000336526
0.000348469
0.000266165
0.000180014
8.99602e-05
1.38539e-05
1.42512e-05
9.16985e-05
0.000184414
0.000273794
0.0003597
0.000369272
0.000281306
0.00018967
9.43377e-05
1.46337e-05
1.48058e-05
9.62397e-05
0.000193065
0.000287031
0.000377417
0.000382589
0.000287929
0.000193303
9.65663e-05
1.478e-05
1.45313e-05
9.49403e-05
0.00018843
0.000278568
0.000363242
0.000343971
0.000268173
0.000183297
9.28122e-05
1.43093e-05
1.42453e-05
9.27617e-05
0.000184678
0.00027254
0.000356899
0.000369197
0.000281165
0.000189415
9.46221e-05
1.44385e-05
1.48718e-05
9.67747e-05
0.000194585
0.00028918
0.000380118
0.000389563
0.000296086
0.000199126
0.000100032
1.50842e-05
1.51044e-05
9.99111e-05
0.000199896
0.000297656
0.000395973
0.000376427
0.000288163
0.000194926
9.81854e-05
1.47577e-05
1.44266e-05
9.66849e-05
0.000190719
0.00027891
0.000357818
0.000371873
0.000283986
0.000192427
9.67982e-05
1.43494e-05
1.44915e-05
9.881e-05
0.000197976
0.00029356
0.000385358
0.000397618
0.000301961
0.000202866
0.000101249
1.49134e-05
1.51147e-05
0.000102388
0.000204326
0.000304675
0.000405888
0.000387012
0.000296517
0.00020109
0.000101308
1.49631e-05
1.46658e-05
9.99824e-05
0.000197056
0.0002884
0.000369528
0.000384919
0.000294082
0.000198957
0.000100185
1.46603e-05
1.5003e-05
0.000102354
0.000203987
0.000303091
0.0003995
0.000409554
0.000306515
0.000205718
0.000103657
1.52151e-05
1.49697e-05
0.000102527
0.000202441
0.000299009
0.000391168
0.00037498
0.00029205
0.000199499
0.000101318
1.48627e-05
1.49192e-05
0.000102256
0.000202718
0.000299228
0.000391678
0.000407344
0.000309114
0.000207844
0.000104435
1.51536e-05
1.53668e-05
0.000105717
0.00020999
0.000313589
0.000419305
0.000401396
0.000306915
0.000208267
0.000105641
1.53733e-05
1.53218e-05
0.000105689
0.000206569
0.000301209
0.000386157
0.00040447
0.000309267
0.000210224
0.000106716
1.5276e-05
1.52266e-05
0.000108119
0.000215914
0.000320856
0.00042243
0.000436492
0.000326978
0.000219034
0.000110289
1.58161e-05
1.64e-05
0.000112378
0.000218931
0.000321643
0.00041991
0.000406695
0.000317867
0.000219057
0.000113488
1.6901e-05
1.73838e-05
0.000115781
0.000222771
0.000326459
0.000426531
0.000443601
0.000333395
0.000226055
0.000117484
1.77401e-05
1.76818e-05
0.000117571
0.000224839
0.000328198
0.000427571
0.000415106
0.000324236
0.000223521
0.000116787
1.70913e-05
1.62753e-05
0.000114777
0.000224817
0.000332194
0.000435467
0.000453519
0.000337862
0.000224918
0.000111339
1.48584e-05
1.46953e-05
0.000109318
0.000222904
0.000333166
0.000437791
0.000427917
0.000331267
0.000224259
0.000112098
1.57187e-05
1.66766e-05
0.00011511
0.000227698
0.00033801
0.000450345
0.000439869
0.000337464
0.000229822
0.000117647
1.74251e-05
1.82592e-05
0.000120818
0.000232768
0.000338826
0.000433501
0.000457588
0.000346582
0.000236713
0.000123537
1.89447e-05
1.94973e-05
0.000125674
0.000238613
0.000346117
0.000447971
0.000441908
0.000347481
0.000241495
0.000128071
2.00928e-05
2.04775e-05
0.000130195
0.000244988
0.000355113
0.000466082
0.000456311
0.000353904
0.00024601
0.00013125
2.08059e-05
2.1071e-05
0.000132278
0.000247595
0.000354833
0.000449634
0.000471298
0.000358702
0.000246706
0.000131161
2.06649e-05
1.90613e-05
0.000125448
0.000238473
0.000349121
0.000456096
0.000443508
0.000337088
0.00022644
0.000115678
1.75168e-05
1.81936e-05
0.000112696
0.000219584
0.000329081
0.000435568
0.000441313
0.000332289
0.000222133
0.000116065
2.03042e-05
2.09911e-05
0.000120132
0.000228564
0.000337948
0.000444166
0.000465958
0.000352019
0.0002361
0.000121876
2.02607e-05
1.80774e-05
0.000116811
0.00023453
0.000354479
0.000477891
0.000462556
0.000348183
0.000231765
0.000116983
1.83772e-05
2.16828e-05
0.000124316
0.000234158
0.000343729
0.00045103
0.000441451
0.000339034
0.000236395
0.000131173
2.43206e-05
2.51734e-05
0.000132164
0.000230799
0.000330005
0.00042975
0.000413843
0.000313246
0.00021371
0.000115699
2.54531e-05
2.47593e-05
9.56668e-05
0.00018812
0.000286151
0.000387815
0.000330811
0.000245038
0.000159611
7.81745e-05
2.24342e-05
1.98135e-05
6.54558e-05
0.000138283
0.000217458
0.000298454
0.000265983
0.000193854
0.000125152
6.1524e-05
1.84148e-05
1.76425e-05
5.56848e-05
0.000115455
0.000181164
0.000251863
0.000230289
0.00016795
0.000107793
5.1834e-05
1.66708e-05
1.59616e-05
4.80966e-05
0.000102553
0.000161956
0.000225424
0.00020853
0.000151238
9.59458e-05
4.42133e-05
1.47927e-05
1.29728e-05
4.1601e-05
9.39736e-05
0.000150225
0.000210181
0.000197362
0.000144029
9.13248e-05
4.02338e-05
1.21172e-05
1.27127e-05
4.47585e-05
9.46082e-05
0.000147608
0.000204456
0.000195361
0.000145712
9.63652e-05
4.77029e-05
1.31084e-05
1.33197e-05
5.08754e-05
0.000100724
0.000151776
0.000205572
0.000203331
0.000151056
0.000102099
5.2535e-05
1.34213e-05
1.31697e-05
5.2438e-05
0.000100233
0.000144965
0.000185821
0.000193484
0.000148648
0.00010302
5.40814e-05
1.28733e-05
1.29712e-05
5.77316e-05
0.000105666
0.000149545
0.000191507
0.000204387
0.000157943
0.000111323
6.16157e-05
1.35214e-05
1.41455e-05
6.40536e-05
0.000114001
0.000160062
0.000207181
0.000195373
0.000157162
0.0001144
6.57874e-05
1.46507e-05
1.49003e-05
6.61683e-05
0.000116653
0.000161774
0.000204619
0.000206951
0.00016234
0.000117369
6.66231e-05
1.49763e-05
1.48372e-05
6.53632e-05
0.000115655
0.000158753
0.000196019
0.000204726
0.000162609
0.000116799
6.42305e-05
1.4502e-05
1.41098e-05
6.42823e-05
0.000116936
0.000162744
0.000207086
0.000196317
0.000159294
0.000115476
6.34185e-05
1.37743e-05
1.34049e-05
6.43021e-05
0.000117668
0.000163277
0.000204394
0.000205757
0.000166027
0.000120986
6.76881e-05
1.34109e-05
1.38869e-05
7.14368e-05
0.000126836
0.000174904
0.000218782
0.000223958
0.000177929
0.000129622
7.36473e-05
1.42944e-05
1.45334e-05
7.42646e-05
0.000129961
0.000176115
0.00021518
0.000225163
0.000181556
0.000132652
7.55658e-05
1.47133e-05
1.48566e-05
7.65513e-05
0.000134125
0.000183402
0.00022966
0.000220445
0.000180974
0.000133602
7.64374e-05
1.49626e-05
1.50798e-05
7.76535e-05
0.000136285
0.000186141
0.000230234
0.000234592
0.00018731
0.000136744
7.74353e-05
1.5112e-05
1.51104e-05
7.74037e-05
0.000136042
0.000184715
0.000225327
0.000234923
0.000189557
0.000138034
7.78449e-05
1.50798e-05
1.50288e-05
7.74152e-05
0.000138576
0.000190936
0.000239432
0.000229845
0.000188043
0.00013762
7.71868e-05
1.49216e-05
1.48732e-05
7.77502e-05
0.000139899
0.000193002
0.000239613
0.000244291
0.00019435
0.000140565
7.80215e-05
1.47635e-05
1.46741e-05
7.7303e-05
0.000139625
0.000191765
0.00023467
0.000244768
0.000197162
0.000142728
7.93938e-05
1.46884e-05
1.47224e-05
7.94372e-05
0.000143452
0.000198627
0.000249912
0.000240294
0.000196169
0.000142732
7.93029e-05
1.46857e-05
1.46212e-05
7.94935e-05
0.000145382
0.000201767
0.000250986
0.000256629
0.000203319
0.000145499
7.91836e-05
1.44568e-05
1.41478e-05
7.62876e-05
0.000141821
0.000198097
0.000247939
0.000235923
0.000191717
0.000137557
7.36627e-05
1.37609e-05
1.35448e-05
7.40735e-05
0.000138858
0.000195275
0.000244697
0.000249267
0.0001961
0.000139303
7.46707e-05
1.34353e-05
1.34206e-05
7.51605e-05
0.000138729
0.000193405
0.000239047
0.000249495
0.000199
0.000141687
7.63082e-05
1.34256e-05
1.33867e-05
7.62131e-05
0.00014229
0.000200323
0.000254647
0.000244227
0.000197569
0.00014147
7.61816e-05
1.33246e-05
1.33391e-05
7.64802e-05
0.000143865
0.000202918
0.000254751
0.000260049
0.000204318
0.00014469
7.73945e-05
1.32896e-05
1.33108e-05
7.62686e-05
0.000143482
0.000201285
0.000249075
0.000259712
0.000206582
0.000146111
7.75128e-05
1.32421e-05
1.32791e-05
7.7405e-05
0.000146399
0.000207462
0.000264686
0.000253168
0.00020417
0.00014523
7.70956e-05
1.3234e-05
1.32405e-05
7.80552e-05
0.000147638
0.000209313
0.000263725
0.000268602
0.000210229
0.00014789
7.76933e-05
1.3222e-05
1.31437e-05
7.71062e-05
0.000146406
0.000206431
0.000256522
0.000267009
0.000211403
0.000148568
7.80344e-05
1.31546e-05
1.31325e-05
7.75942e-05
0.000148595
0.000212155
0.000271846
0.000259208
0.000208054
0.000146675
7.6431e-05
1.29942e-05
1.28994e-05
7.74153e-05
0.000148897
0.000212796
0.000269598
0.000274101
0.000213168
0.000148885
7.76179e-05
1.28623e-05
1.28018e-05
7.64264e-05
0.000147018
0.000209169
0.000261225
0.000271581
0.000213906
0.00014917
7.71819e-05
1.27103e-05
1.27027e-05
7.72951e-05
0.000149095
0.000214335
0.000275865
0.00026289
0.000210275
0.000147657
7.63828e-05
1.26223e-05
1.24906e-05
7.6651e-05
0.000149407
0.000214979
0.000273398
0.000277729
0.000215313
0.000149439
7.709e-05
1.24203e-05
1.24257e-05
7.59088e-05
0.000148044
0.00021167
0.000265025
0.000276283
0.000217094
0.000150599
7.71933e-05
1.24167e-05
1.2485e-05
7.73209e-05
0.000151393
0.000218487
0.000281832
0.000270738
0.000216168
0.000151337
7.76993e-05
1.24725e-05
1.27554e-05
7.94928e-05
0.000155365
0.000223808
0.000284354
0.00029218
0.000227368
0.000158003
8.11096e-05
1.2941e-05
1.3358e-05
8.29149e-05
0.000160989
0.000228887
0.000285216
0.000303037
0.000240953
0.000168668
8.68684e-05
1.34566e-05
1.46164e-05
9.0753e-05
0.000175441
0.000250208
0.000319082
0.000317311
0.000256492
0.000182302
9.53513e-05
1.47919e-05
1.68439e-05
0.000102866
0.000196015
0.000273608
0.000335658
0.000362089
0.000297224
0.000214435
0.00011298
1.79374e-05
2.02573e-05
0.000125264
0.000238783
0.000334836
0.000413996
0.000444506
0.000354563
0.000252856
0.000132922
2.13971e-05
2.23502e-05
0.000134981
0.000254818
0.000356384
0.000444639
0.000427603
0.000349871
0.000252132
0.000134259
2.26663e-05
2.31399e-05
0.000136179
0.000256554
0.000358119
0.000443487
0.00044938
0.000364624
0.000262815
0.000140191
2.39631e-05
2.48094e-05
0.000145832
0.000273523
0.000382892
0.000474773
0.000486164
0.000388026
0.000277739
0.000148773
2.5709e-05
2.62813e-05
0.000148808
0.000275936
0.000381874
0.000466732
0.000485413
0.000391402
0.000280366
0.000150262
2.55673e-05
2.55578e-05
0.00015059
0.000280633
0.000392753
0.000493627
0.00047153
0.000384721
0.000277021
0.000149047
2.54724e-05
2.54895e-05
0.000151076
0.000281652
0.000394069
0.000489839
0.0004977
0.000395466
0.000282484
0.000151935
2.55622e-05
2.55689e-05
0.000150455
0.000278952
0.000387216
0.000475113
0.000493618
0.000396334
0.000282934
0.000151626
2.55156e-05
2.54732e-05
0.000152067
0.000283428
0.000397634
0.000501484
0.000478259
0.000388835
0.000279178
0.000149359
2.53944e-05
2.53818e-05
0.000151106
0.00028327
0.000398061
0.00049704
0.000504769
0.000399266
0.000283711
0.000151607
2.54251e-05
2.52636e-05
0.000149674
0.000279747
0.000390327
0.000480974
0.000499683
0.000399255
0.000283406
0.000150612
2.51687e-05
2.50884e-05
0.000149755
0.000282627
0.000399636
0.000506644
0.000481819
0.000389774
0.000277867
0.000147411
2.49382e-05
2.48153e-05
0.000147397
0.000280391
0.000397768
0.000500102
0.00050529
0.000397128
0.000279487
0.000146847
2.45322e-05
2.43989e-05
0.000145425
0.00027488
0.000386872
0.000479526
0.000495308
0.000394173
0.000278474
0.000146875
2.45336e-05
2.48496e-05
0.000149091
0.00028252
0.000397889
0.000496962
0.000522668
0.000414979
0.00029137
0.000152689
2.5315e-05
2.55822e-05
0.000153263
0.000292853
0.000416261
0.000529607
0.000502924
0.000405327
0.000287347
0.000151492
2.55805e-05
2.54937e-05
0.00015173
0.000289897
0.00041303
0.000521339
0.0005247
0.00041066
0.000287418
0.000150267
2.52143e-05
2.4944e-05
0.000147221
0.000281408
0.000398704
0.000495657
0.000511464
0.000404955
0.000283989
0.000148124
2.48693e-05
2.51076e-05
0.000149786
0.00028718
0.000407513
0.00051145
0.00053775
0.000424408
0.000295701
0.000153133
2.5413e-05
2.55527e-05
0.000153686
0.000296284
0.000424507
0.000543236
0.00051349
0.00041177
0.000289804
0.00015096
2.54599e-05
2.5267e-05
0.000150953
0.000291832
0.000419318
0.000532496
0.0005349
0.000416047
0.000288864
0.00014899
2.50574e-05
2.48898e-05
0.000146488
0.000282241
0.000402494
0.000503001
0.000519042
0.000408428
0.000284325
0.000146839
2.48825e-05
2.5067e-05
0.00014846
0.000287172
0.000410255
0.000517952
0.000544998
0.000427326
0.000295217
0.00015147
2.53978e-05
2.54826e-05
0.000151701
0.000295641
0.000427057
0.000549759
0.000517233
0.000412985
0.000288847
0.000149175
2.53186e-05
2.51614e-05
0.000148844
0.000290131
0.000419904
0.000536323
0.000537977
0.000416238
0.00028683
0.000146549
2.49548e-05
2.46451e-05
0.000142498
0.00027881
0.00040076
0.000503714
0.00051968
0.000406452
0.000280258
0.000143115
2.456e-05
2.4706e-05
0.000144407
0.000282633
0.000406937
0.000517002
0.000544382
0.000423389
0.000289771
0.000147134
2.49204e-05
2.50289e-05
0.000147287
0.00028958
0.000421655
0.000546972
0.000511643
0.000406395
0.000282367
0.000144688
2.48337e-05
2.48739e-05
0.000144901
0.000283882
0.000412185
0.000527876
0.000524751
0.000412777
0.000286461
0.00014651
2.51225e-05
2.53813e-05
0.000148765
0.000292833
0.000428325
0.000551938
0.000554156
0.000426518
0.000291889
0.000148117
2.53332e-05
2.50595e-05
0.000143697
0.000283556
0.000409491
0.000516488
0.000532678
0.000414644
0.000284124
0.00014374
2.49402e-05
2.50715e-05
0.000144552
0.000285385
0.000413897
0.000528189
0.000555581
0.000429391
0.000291911
0.000146866
2.52037e-05
2.51665e-05
0.000146629
0.000290997
0.000427014
0.000557006
0.00051795
0.000409582
0.000282768
0.000143708
2.5012e-05
2.5016e-05
0.000143323
0.000283607
0.000414828
0.000534403
0.000529513
0.000414034
0.000285048
0.000144245
2.51318e-05
2.53152e-05
0.000146538
0.000291662
0.000430037
0.000557483
0.000558836
0.000427271
0.000290206
0.000146172
2.53393e-05
2.51816e-05
0.000141335
0.000281149
0.000408911
0.000518377
0.000534823
0.000413481
0.000280953
0.000140634
2.5061e-05
2.51395e-05
0.000142124
0.000282419
0.000412415
0.000529388
0.000557039
0.000428013
0.000288854
0.000144252
2.53174e-05
2.51683e-05
0.000143557
0.00028702
0.000424797
0.000557733
0.000515652
0.000405697
0.000277683
0.000139081
2.48478e-05
2.46293e-05
0.000138364
0.000277521
0.000410012
0.000532212
0.000525275
0.000407907
0.000277947
0.000138713
2.46459e-05
2.47812e-05
0.000140877
0.00028379
0.000422805
0.000553053
0.000553095
0.000419254
0.000281607
0.000138577
2.4687e-05
2.42448e-05
0.000132904
0.000270508
0.000398661
0.000509081
0.000525259
0.000402046
0.000269846
0.000132444
2.3972e-05
2.42013e-05
0.000134437
0.000271176
0.000400427
0.000517752
0.000543127
0.000414921
0.000279045
0.000138347
2.47389e-05
2.50978e-05
0.000140648
0.000282617
0.000415908
0.000536926
0.000566599
0.000432621