/*--------------------------------*- C++ -*----------------------------------*\
| =========                 |                                                 |
| \\      /  F ield         | OpenFOAM: The Open Source CFD Toolbox           |
|  \\    /   O peration     | Version:  v2006                                 |
|   \\  /    A nd           | Website:  www.openfoam.com                      |
|    \\/     M anipulation  |                                                 |
\*---------------------------------------------------------------------------*/
FoamFile
{
    version     2.0;
    format      ascii;
    class       volScalarField;
    location    "0.022";
    object      alphat;
}
// * * * * * * * * * * * * * * * * * * * * * * * * * * * * * * * * * * * * * //

dimensions      [1 -1 -1 0 0 0 0];


internalField   nonuniform List<scalar> 
11076
(
16.4483
15.9711
77.4349
82.6215
83.4637
96.7604
97.8642
92.654
68.0686
15.4207
4.04434
1.75743
1.08472
0.820493
0.694577
0.623575
0.575458
0.537425
0.504771
0.476045
0.450841
0.428914
0.409937
0.393511
0.37923
0.36674
0.35575
0.346043
0.337453
0.32986
0.323171
0.317319
0.312252
0.307933
0.304331
0.301418
0.299186
0.297651
0.296815
0.29669
0.297301
0.298688
0.300906
0.304033
0.308175
0.313475
0.320111
0.328287
0.338188
0.349926
0.363473
0.378718
0.39584
0.416445
0.445964
0.499555
0.615672
0.89628
1.64461
3.75373
8.39136
11.2612
7.07094
7.8497
2.56526
1.08387
0.553633
0.306425
0.14441
0.0339392
0.00614388
0.000197042
0.000171114
0.00289747
0.0130941
0.00829615
0.00212111
0.000152949
0.000138426
0.00186867
0.00666176
0.00566058
0.00167395
0.00012926
0.000121538
0.0015908
0.00510459
0.00460317
0.00146256
0.000115364
0.000110377
0.00140109
0.00431626
0.00401532
0.00133651
0.000106137
0.000103296
0.00130525
0.00386376
0.00364273
0.00125212
0.000100256
9.83649e-05
0.00123542
0.0035604
0.00339649
0.00119324
9.60983e-05
9.47595e-05
0.00118321
0.0033385
0.00320872
0.00114831
9.29989e-05
9.1996e-05
0.00114143
0.00316479
0.00305592
0.00111189
9.05888e-05
8.97995e-05
0.00110614
0.00302152
0.00292726
0.00108083
8.86317e-05
8.79862e-05
0.00107583
0.00289973
0.00281625
0.00105359
8.69887e-05
8.64452e-05
0.00104916
0.0027937
0.00271879
0.00102926
8.55722e-05
8.51021e-05
0.00102525
0.00269952
0.00263185
0.00100715
8.43216e-05
8.39056e-05
0.0010035
0.00261505
0.00255332
0.000986844
8.31957e-05
8.2821e-05
0.000983523
0.00253846
0.00248161
0.000968033
8.21661e-05
8.18233e-05
0.000965004
0.00246835
0.00241561
0.000950481
8.12122e-05
8.08945e-05
0.000947714
0.00240369
0.00235443
0.000933998
8.03183e-05
8.00208e-05
0.000931462
0.00234363
0.00229723
0.000918419
7.94729e-05
7.91916e-05
0.000916087
0.00228749
0.00224363
0.000903614
7.8667e-05
7.83989e-05
0.000901467
0.00223481
0.00219321
0.000889483
7.78933e-05
7.7636e-05
0.000887506
0.00218517
0.00214558
0.000875948
7.71459e-05
7.68973e-05
0.000874122
0.00213822
0.00210041
0.000862932
7.64201e-05
7.61791e-05
0.000861241
0.00209364
0.00205742
0.000850366
7.57122e-05
7.54772e-05
0.000848796
0.00205113
0.00201633
0.000838188
7.50179e-05
7.47872e-05
0.000836728
0.00201046
0.00197692
0.00082634
7.4333e-05
7.41056e-05
0.000824978
0.0019714
0.00193899
0.000814768
7.36548e-05
7.34302e-05
0.00081349
0.00193378
0.00190237
0.000803414
7.29807e-05
7.2757e-05
0.000802206
0.0018974
0.00186689
0.000792226
7.23058e-05
7.20817e-05
0.000791075
0.0018621
0.00183235
0.00078115
7.16275e-05
7.14034e-05
0.000780043
0.00182769
0.0017986
0.000770132
7.09452e-05
7.07199e-05
0.000769052
0.00179402
0.00176547
0.000759115
7.02537e-05
7.00239e-05
0.000758052
0.00176091
0.00173281
0.000748052
6.95467e-05
6.9313e-05
0.000747005
0.00172823
0.00170048
0.000736904
6.88254e-05
6.8589e-05
0.000735871
0.00169585
0.00166838
0.000725639
6.80879e-05
6.78435e-05
0.000724586
0.00166367
0.0016364
0.000714213
6.73222e-05
6.70673e-05
0.000713137
0.00163158
0.00160445
0.000702603
6.65268e-05
6.62678e-05
0.000701518
0.00159951
0.00157245
0.00069079
6.57114e-05
6.54469e-05
0.00068968
0.00156736
0.00154034
0.000678745
6.48644e-05
6.45829e-05
0.000677609
0.00153507
0.00150806
0.000666452
6.39665e-05
6.36727e-05
0.000665324
0.00150264
0.00147559
0.000653923
6.30338e-05
6.27409e-05
0.00065283
0.00147007
0.00144302
0.000641193
6.20799e-05
6.17744e-05
0.000640159
0.00143767
0.00141054
0.00062834
6.10683e-05
6.07336e-05
0.000627412
0.00140539
0.00137817
0.000615487
5.99859e-05
5.96478e-05
0.000614732
0.00137353
0.00134634
0.000602866
5.88915e-05
5.85674e-05
0.000602288
0.00134245
0.00131554
0.000590619
5.77913e-05
5.74445e-05
0.000590318
0.00131268
0.00128629
0.000579041
5.66108e-05
5.62338e-05
0.000579197
0.00128458
0.0012592
0.000568469
5.53837e-05
5.50432e-05
0.00056928
0.00125935
0.00123539
0.000559313
5.42345e-05
5.39459e-05
0.000560945
0.00123782
0.00121576
0.000552037
5.31459e-05
5.28357e-05
0.000554717
0.0012209
0.00120106
0.00054708
5.19995e-05
5.16896e-05
0.000550949
0.00120951
0.00119209
0.000544614
5.09147e-05
5.07155e-05
0.000549776
0.00120418
0.00118947
0.000544789
5.00892e-05
4.99871e-05
0.00055103
0.00120481
0.0011934
0.000547451
4.93884e-05
4.92243e-05
0.000554494
0.00121157
0.00120304
0.000551884
4.85968e-05
4.84213e-05
0.000559405
0.00122342
0.00121737
0.000557576
4.79417e-05
4.78888e-05
0.000564658
0.00123861
0.00123395
0.000561067
4.76558e-05
4.76244e-05
0.000567139
0.00125434
0.00125021
0.000562375
4.73857e-05
4.71529e-05
0.000567996
0.00127071
0.00126567
0.000562614
4.67684e-05
4.6484e-05
0.000567383
0.00128426
0.00127797
0.000561774
4.6165e-05
4.59849e-05
0.000566148
0.00129559
0.00128798
0.000560518
4.58248e-05
4.57774e-05
0.000563966
0.0013038
0.00129498
0.000558285
4.56246e-05
4.54902e-05
0.000560973
0.00130905
0.00129894
0.000555126
4.51957e-05
4.49724e-05
0.00055725
0.00131129
0.00130022
0.000551475
4.4685e-05
4.45132e-05
0.000553154
0.0013111
0.00129963
0.000547643
4.43597e-05
4.43609e-05
0.000548976
0.00130912
0.00129815
0.000543769
4.43021e-05
4.42935e-05
0.000544958
0.00130644
0.00129517
0.000539842
4.41599e-05
4.39928e-05
0.000540791
0.00130253
0.00129112
0.000535879
4.37451e-05
4.35764e-05
0.00053669
0.0012975
0.00128648
0.000532206
4.34137e-05
4.34172e-05
0.000532999
0.00129226
0.00128194
0.000529081
4.34485e-05
4.3518e-05
0.000529563
0.00128718
0.00127687
0.000525666
4.34687e-05
4.33581e-05
0.000526057
0.00128134
0.00127124
0.000522285
4.31635e-05
4.30435e-05
0.000522746
0.00127505
0.00126509
0.0005193
4.29031e-05
4.29155e-05
0.000519678
0.00126913
0.00125975
0.000516904
4.30127e-05
4.29645e-05
0.000515659
0.00125786
0.00125096
0.000513361
4.31969e-05
4.27567e-05
0.0005104
0.00124399
0.00125339
0.000511794
4.33557e-05
4.40914e-05
0.000534
0.00131119
0.00137688
0.000559498
4.5459e-05
0.00385667
0.0074696
0.0116115
0.016226
0.020004
0.0249111
0.0289019
0.0326937
0.0356014
0.0379022
0.0392834
0.0397537
0.0392525
0.0376787
0.035302
0.0318412
0.0280014
0.0231924
0.019595
0.0153086
0.00980018
0.00686269
0.00426069
0.00200971
0.000685551
0.000267158
2.67738e-05
2.49013e-05
0.000222776
0.000574781
0.000510377
0.000198545
2.31881e-05
2.13744e-05
0.000171292
0.000438028
0.000410438
0.000162359
2.07621e-05
2.04548e-05
0.000163299
0.000417515
0.000394728
0.000155596
2.03336e-05
2.03248e-05
0.000159355
0.000414356
0.000399314
0.000153263
2.02923e-05
2.0457e-05
0.000161178
0.000419248
0.000407183
0.000155626
2.04265e-05
2.05685e-05
0.000163045
0.000426263
0.000413948
0.000157453
2.05317e-05
2.06826e-05
0.000164987
0.000433597
0.000421071
0.000159312
2.06411e-05
2.07972e-05
0.000167125
0.000441226
0.00042852
0.000161365
2.07653e-05
2.09253e-05
0.000169361
0.000449145
0.000436242
0.000163476
2.08956e-05
2.10584e-05
0.00017157
0.000457581
0.000444258
0.000165636
2.10224e-05
2.11985e-05
0.000174061
0.000466228
0.000452786
0.000168011
2.11698e-05
2.13457e-05
0.000176587
0.000475412
0.000461648
0.000170425
2.13096e-05
2.14933e-05
0.000179262
0.000484928
0.000470926
0.000172979
2.1464e-05
2.1651e-05
0.000182077
0.000494758
0.000480582
0.000175619
2.16192e-05
2.18123e-05
0.000185019
0.000505113
0.000490549
0.000178479
2.17714e-05
2.19767e-05
0.000187988
0.000515941
0.000501058
0.000181273
2.19328e-05
2.21474e-05
0.00019123
0.000526999
0.000511845
0.000184421
2.21133e-05
2.23314e-05
0.000194538
0.000538752
0.000523135
0.000187608
2.22937e-05
2.2518e-05
0.000197857
0.000550902
0.000534877
0.000190838
2.24695e-05
2.2708e-05
0.000201557
0.000563274
0.000547066
0.000194265
2.26695e-05
2.29024e-05
0.000205077
0.000576203
0.000559478
0.000197686
2.28511e-05
2.3099e-05
0.000208868
0.000589516
0.000572233
0.000201215
2.30519e-05
2.33005e-05
0.000212436
0.000603117
0.000585357
0.000204629
2.32376e-05
2.34969e-05
0.000216196
0.000616892
0.000598566
0.000208036
2.34432e-05
2.36999e-05
0.00021944
0.000630837
0.000611818
0.00021106
2.36285e-05
2.39036e-05
0.000222692
0.000644714
0.000625458
0.00021386
2.38465e-05
2.41357e-05
0.000225346
0.000659509
0.000640016
0.000216215
2.40748e-05
2.4419e-05
0.000228106
0.000676674
0.000657849
0.000219003
2.44002e-05
2.47705e-05
0.000232288
0.000698154
0.000680223
0.000224085
2.47784e-05
2.51087e-05
0.000240072
0.000729604
0.000707184
0.00023129
2.50305e-05
2.52766e-05
0.000250616
0.00076869
0.000742823
0.000238045
2.52316e-05
2.56541e-05
0.000259732
0.000798829
0.000772013
0.000249241
2.57905e-05
2.62066e-05
0.000273955
0.000840942
0.000808997
0.000257531
2.63758e-05
2.67523e-05
0.000280696
0.000863642
0.000839153
0.000267222
2.71015e-05
2.80444e-05
0.000291421
0.000887689
0.000860511
0.000281406
2.87197e-05
3.0416e-05
0.00030158
0.000911661
0.000886949
0.000299908
3.24678e-05
3.67646e-05
0.000317098
0.000962016
0.000981941
0.000312885
4.29483e-05
5.3033e-05
0.000372263
0.00135784
0.00225587
0.000511145
8.58298e-05
0.000141248
0.00138284
0.00317213
0.00329875
0.00120481
0.000132827
0.000137344
0.00092186
0.00236686
0.003489
0.00125324
0.00017523
0.000222161
0.00153235
0.00391853
0.00469793
0.00184708
0.00026241
0.000308978
0.0021049
0.00521115
0.00601786
0.0024686
0.000354151
0.000407629
0.0028691
0.00673708
0.00770259
0.00328551
0.000446292
0.000449972
0.00326667
0.00762533
0.00624051
0.00282871
0.000414832
0.000484172
0.00327927
0.00777026
0.00837709
0.00362258
0.00053515
0.000576676
0.00375756
0.00870094
0.00763338
0.00348384
0.000527508
0.000469732
0.00284501
0.00603276
0.00577327
0.00271274
0.000433703
0.000427203
0.00250909
0.00508114
0.00594923
0.00281087
0.000459589
0.000511882
0.00317391
0.00661241
0.00731718
0.0035798
0.000565296
0.000586666
0.00382736
0.00618619
0.00586762
0.00394456
0.000631236
0.000709322
0.0047243
0.00528984
0.00462026
0.00424517
0.000849425
0.000935039
0.00383338
0.00393699
0.0038829
0.00357094
0.0010951
0.00125509
0.00302439
0.00360953
0.00313682
0.00284382
0.00148027
0.00164318
0.00264738
0.0030858
0.00325708
0.00252084
0.00160518
0.00186865
0.00262147
0.00349294
0.00360644
0.00267013
0.00174333
0.00195206
0.00260744
0.0036897
0.00396995
0.00256883
0.00170298
0.00185935
0.00258496
0.0047223
0.00432824
0.00237842
0.00158598
0.00154876
0.0019901
0.00325816
0.00339556
0.00203942
0.00122385
0.00114013
0.0020334
0.00321991
0.00468265
0.00211359
0.000913392
0.000743675
0.00159345
0.00253038
0.00260285
0.0014233
0.000629344
0.000567252
0.00124982
0.00224403
0.00150912
0.00103055
0.000464075
0.000434347
0.000988814
0.00170369
0.00160967
0.000911216
0.000385478
0.0003471
0.000820255
0.00119595
0.00145492
0.000797408
0.000316159
0.000297517
0.000762733
0.00135523
0.00103576
0.000691997
0.000270572
0.000272447
0.000785818
0.0016058
0.00142673
0.000760146
0.000270109
0.000276945
0.000893151
0.0021881
0.00204592
0.000884833
0.000264346
0.000237661
0.000825559
0.00183168
0.00128556
0.00072009
0.000210479
0.000205546
0.000791859
0.0017255
0.00175834
0.000794267
0.0001956
0.000175242
0.000697571
0.00125668
0.00176048
0.00080519
0.000167729
0.000164129
0.000808925
0.00162841
0.00144428
0.00069612
0.00013729
0.00011488
0.000551786
0.00100018
0.00137824
0.000625602
0.000106005
0.000102132
0.000638504
0.00129372
0.000681978
0.000261791
5.84785e-05
4.2569e-05
0.000291655
0.00093807
0.00068322
0.00025303
5.15643e-05
3.97762e-05
0.000208788
0.000550762
0.000209928
9.04211e-05
2.57357e-05
2.9442e-05
0.000259278
0.000465611
0.000444773
0.000239559
3.6663e-05
2.62602e-05
0.000101298
0.000196104
0.000499848
0.00028232
3.03519e-05
3.96811e-05
0.000239774
0.000447521
0.000379461
0.000196951
3.19791e-05
2.44541e-05
8.14959e-05
0.000162685
0.000411748
0.000224226
2.60935e-05
3.31157e-05
0.000204676
0.000389285
0.000164924
8.66924e-05
2.46479e-05
2.59331e-05
0.000233028
0.000420878
0.000389836
0.000206829
3.25627e-05
2.46531e-05
8.78174e-05
0.000165142
0.000427169
0.000234572
2.63099e-05
3.30191e-05
0.000210678
0.000396015
0.000171099
9.09713e-05
2.52466e-05
2.73647e-05
0.000237929
0.000436695
0.000389416
0.000210392
3.58827e-05
2.96866e-05
0.00016743
0.000321279
0.000136239
6.96506e-05
2.25656e-05
2.2952e-05
0.000181449
0.000323448
0.000308233
0.000167365
2.95551e-05
2.30433e-05
7.35112e-05
0.000135783
0.000312412
0.000181313
2.28137e-05
2.94855e-05
0.000161525
0.000287535
0.000132216
7.25504e-05
2.30343e-05
2.23433e-05
0.000169769
0.00028803
0.000271608
0.000158543
2.88983e-05
2.29381e-05
7.07371e-05
0.0001252
0.000279189
0.000165355
2.21127e-05
2.83419e-05
0.000151976
0.000258117
0.000122158
6.92588e-05
2.18372e-05
2.09226e-05
0.000153561
0.000253259
0.000239876
0.000143869
2.72877e-05
2.18589e-05
6.31831e-05
0.000111592
0.000222065
0.000166288
2.00548e-05
2.4297e-05
8.26004e-05
0.00012939
0.000301291
0.000173928
2.31979e-05
2.9434e-05
0.000157986
0.000273651
0.000129319
7.6158e-05
2.32562e-05
2.23712e-05
0.000170308
0.000279638
0.000260323
0.000157245
2.87822e-05
2.27581e-05
7.46197e-05
0.000125827
0.000273278
0.00016663
2.18478e-05
2.87121e-05
0.000151668
0.000250434
0.000125129
7.55873e-05
2.27823e-05
2.14174e-05
0.000156918
0.000246664
0.000223975
0.000141035
2.78075e-05
2.18336e-05
7.02248e-05
0.000112288
0.000207385
0.000158555
1.97247e-05
2.46155e-05
8.49204e-05
0.000128413
0.000257273
0.000162039
2.31401e-05
2.92535e-05
0.000142468
0.000228948
0.000119405
7.74093e-05
2.25664e-05
2.09891e-05
0.000147656
0.000219124
0.000201441
0.000133664
2.76556e-05
2.19686e-05
7.15637e-05
0.000106912
0.000186552
0.000144336
1.94884e-05
2.43899e-05
8.57083e-05
0.000119845
0.000226263
0.000151106
2.24566e-05
2.87838e-05
0.000135092
0.000206193
0.000113839
7.8152e-05
2.26241e-05
2.10885e-05
0.000144493
0.000205515
0.000187985
0.000129779
2.77766e-05
2.1694e-05
7.40625e-05
0.000104278
0.000177688
0.000142618
1.89948e-05
2.42743e-05
8.64711e-05
0.000116137
0.00021377
0.000145026
2.2151e-05
2.85159e-05
0.000129543
0.000191646
0.000106969
7.81328e-05
2.21268e-05
1.94008e-05
0.00014038
0.000173794
0.000116101
8.9451e-05
2.46612e-05
2.23578e-05
0.000146163
0.000209911
0.000190093
0.000130968
2.89537e-05
2.28305e-05
8.16135e-05
0.000109562
0.000192789
0.000139704
2.10127e-05
2.81364e-05
0.0001273
0.000175593
0.000102935
7.95509e-05
2.21255e-05
1.92106e-05
0.000133725
0.000158626
0.000108452
8.74872e-05
2.44703e-05
2.18561e-05
0.000132929
0.000190694
0.000171056
0.000120489
2.83962e-05
2.20615e-05
7.95815e-05
0.000100136
0.000152101
0.000127271
1.9115e-05
2.46412e-05
8.72754e-05
0.000105829
0.000182984
0.000130829
2.18912e-05
2.85656e-05
0.000119815
0.000165091
0.000100296
8.29975e-05
2.23836e-05
1.91129e-05
0.000128479
0.000150217
0.000105495
8.93779e-05
2.48027e-05
2.2032e-05
0.000129015
0.000182205
0.000163965
0.000118364
2.86881e-05
2.25939e-05
8.39024e-05
0.000100015
0.000149164
0.000127903
1.93579e-05
2.5119e-05
9.05845e-05
0.000105411
0.00017906
0.00012878
2.22499e-05
2.91017e-05
0.000119112
0.000162005
0.00010063
8.70595e-05
2.30686e-05
1.9771e-05
0.000128374
0.000149134
0.000106096
9.31923e-05
2.56161e-05
2.24169e-05
0.000129176
0.000179505
0.000161962
0.000119605
2.93893e-05
2.33374e-05
8.85299e-05
0.000101239
0.000148649
0.000128731
1.99201e-05
2.60775e-05
9.41992e-05
0.000106493
0.000178393
0.000129472
2.31328e-05
3.0244e-05
0.000120663
0.000161701
0.000102926
9.18909e-05
2.39757e-05
2.02997e-05
0.00013094
0.000149909
0.000107813
9.72021e-05
2.65646e-05
2.32927e-05
0.00013013
0.000179534
0.000162355
0.000121375
3.04534e-05
2.41825e-05
9.24789e-05
0.000103104
0.000149398
0.000130536
2.04646e-05
2.69945e-05
9.82218e-05
0.000107997
0.000178529
0.000130754
2.35653e-05
3.10507e-05
0.00012275
0.000162204
0.000104823
9.56154e-05
2.45952e-05
2.09225e-05
0.00013273
0.000150596
0.000109545
0.000101306
2.74073e-05
2.37753e-05
0.000131207
0.000179309
0.000162659
0.000123163
3.13256e-05
2.50306e-05
9.66166e-05
0.000105543
0.000151123
0.000133011
2.12417e-05
2.79027e-05
0.000102066
0.000110523
0.000179255
0.000132661
2.4357e-05
3.20787e-05
0.000125228
0.000162943
0.000107323
9.9606e-05
2.55725e-05
2.16065e-05
0.00013575
0.00015259
0.000112322
0.00010518
2.83412e-05
2.45847e-05
0.000133149
0.000180416
0.000164172
0.000125747
3.23582e-05
2.58453e-05
0.000100542
0.000108097
0.00015343
0.000135917
2.19568e-05
2.89238e-05
0.000106546
0.000113544
0.000181183
0.000135173
2.51281e-05
3.30644e-05
0.000128105
0.000165048
0.000110146
0.000103479
2.64694e-05
2.21664e-05
0.000138825
0.000155534
0.000115813
0.000110066
2.92834e-05
2.51371e-05
0.000135781
0.000183061
0.000166883
0.00012874
3.32909e-05
2.66475e-05
0.000104327
0.000111175
0.000156591
0.000138803
2.26324e-05
3.00131e-05
0.000111157
0.000116974
0.000184335
0.000138893
2.59898e-05
3.42637e-05
0.000132312
0.000168353
0.000114391
0.000108818
2.74311e-05
2.30654e-05
0.000143619
0.000159761
0.000119996
0.000115651
3.04577e-05
2.63995e-05
0.00014043
0.000187769
0.000171507
0.000133664
3.47979e-05
2.79409e-05
0.000109946
0.000116654
0.000161447
0.000144204
2.34953e-05
3.11924e-05
0.000117147
0.000121878
0.000190036
0.000143951
2.69723e-05
3.54158e-05
0.000137527
0.000174033
0.000119568
0.000113819
2.83775e-05
2.39368e-05
0.000148104
0.000165001
0.000125242
0.000121776
3.17923e-05
2.74894e-05
0.000146588
0.000194336
0.000177878
0.000139989
3.62083e-05
2.91738e-05
0.000116837
0.000123204
0.000168626
0.000150938
2.46726e-05
3.25887e-05
0.000124438
0.000128377
0.000200034
0.000151691
2.79925e-05
3.71233e-05
0.000145651
0.000184008
0.000127055
0.000122873
3.07552e-05
2.71305e-05
0.000154136
0.000187119
0.000176216
0.000147362
3.68719e-05
3.00631e-05
0.000119295
0.000125167
0.000168521
0.0001522
2.52646e-05
3.35508e-05
0.000126109
0.000130416
0.000196965
0.000150329
2.86386e-05
3.7767e-05
0.000144517
0.000181178
0.000128064
0.000122799
3.06178e-05
2.5621e-05
0.000154463
0.000170783
0.000133173
0.000131672
3.4333e-05
2.95455e-05
0.000155421
0.000202621
0.000186601
0.000150068
3.91332e-05
3.21245e-05
0.000130029
0.000132651
0.000189498
0.000158107
2.80759e-05
3.796e-05
0.000152296
0.000179146
0.000130584
0.000125779
3.14671e-05
2.62588e-05
0.000155875
0.000170467
0.000135378
0.000133577
3.52529e-05
3.02314e-05
0.000153467
0.000198265
0.000184394
0.000149462
4.02801e-05
3.30575e-05
0.000132668
0.00013397
0.000185913
0.000157537
2.89115e-05
3.92951e-05
0.000152435
0.000176735
0.000131816
0.000129766
3.24886e-05
2.69584e-05
0.00015687
0.000170272
0.000137575
0.000137998
3.6396e-05
3.11177e-05
0.000155898
0.000199238
0.000185675
0.0001524
4.14827e-05
3.40973e-05
0.000138264
0.000136788
0.000189682
0.000162563
2.97668e-05
4.06231e-05
0.000157433
0.000180338
0.000136714
0.000135416
3.32012e-05
2.76427e-05
0.000161641
0.0001747
0.000143108
0.000144867
3.74931e-05
3.20933e-05
0.000160141
0.000203646
0.000191023
0.000157217
4.29343e-05
3.56193e-05
0.000145147
0.000142634
0.000195428
0.000168982
3.1024e-05
4.24613e-05
0.000164224
0.000186025
0.000142593
0.000145319
3.56186e-05
3.08854e-05
0.00016631
0.000193651
0.000185194
0.000162599
4.33454e-05
3.71189e-05
0.000147344
0.000143097
0.000193597
0.000167722
3.23494e-05
4.4438e-05
0.000163533
0.000184632
0.000143616
0.000147856
3.71243e-05
3.17562e-05
0.000165797
0.000192028
0.000184152
0.000161433
4.34968e-05
3.74633e-05
0.000147268
0.000142926
0.00019042
0.000165745
3.25915e-05
4.53629e-05
0.000162188
0.000181881
0.00014414
0.000150276
3.8278e-05
3.29185e-05
0.000166889
0.000190396
0.000182524
0.00016303
4.54584e-05
3.80889e-05
0.000151161
0.000144994
0.000190444
0.00016552
3.27071e-05
4.60668e-05
0.000162785
0.000182331
0.000146374
0.000154579
3.94291e-05
3.40341e-05
0.000169985
0.000192379
0.00018472
0.000166235
4.72218e-05
3.9888e-05
0.000157846
0.000149099
0.00019582
0.000171468
3.33836e-05
4.60818e-05
0.00016854
0.000187346
0.000151094
0.000161466
4.04071e-05
3.52787e-05
0.000177203
0.000200269
0.000193024
0.000174133
4.92151e-05
4.24762e-05
0.000169864
0.000157034
0.000211913
0.000185391
3.66189e-05
5.0989e-05
0.000194186
0.000203825
0.00018893
0.000186105
4.7612e-05
4.26427e-05
0.000169757
0.00016058
0.000207116
0.000182028
3.76794e-05
5.48672e-05
0.000191375
0.000198095
0.000188667
0.000180264
4.8512e-05
4.35531e-05
0.000164819
0.00015901
0.000202259
0.000176707
3.87518e-05
5.66468e-05
0.000189382
0.000196124
0.00018466
0.000181054
5.23103e-05
4.46761e-05
0.00017003
0.000160278
0.000200333
0.000176472
3.81408e-05
5.73507e-05
0.00018827
0.000190549
0.000183908
0.000179655
5.4225e-05
4.85807e-05
0.000176806
0.0001617
0.000211162
0.000185172
4.04141e-05
6.08194e-05
0.000190178
0.000204228
0.000197371
0.00019195
6.14662e-05
6.22391e-05
0.000196552
0.000186932
0.000181729
0.000184633
5.7471e-05
5.22941e-05
0.000180617
0.000163457
0.000209227
0.000186114
4.54575e-05
6.68832e-05
0.000183022
0.000203456
0.000193368
0.000196408
6.67723e-05
7.02192e-05
0.000190265
0.000192304
0.00018658
0.000192103
7.33649e-05
7.85212e-05
0.000185477
0.000185876
0.000184231
0.000192317
8.23175e-05
8.60828e-05
0.00019329
0.000185668
0.000186787
0.00020478
8.82713e-05
8.67791e-05
0.000209861
0.000188338
0.000191176
0.000222305
8.45355e-05
8.16069e-05
0.000233687
0.000193506
0.000199831
0.000247834
7.88613e-05
7.59015e-05
0.000259345
0.000203169
0.000213042
0.000272253
7.33843e-05
7.08973e-05
0.000270607
0.000217056
0.000229693
0.000281911
6.88311e-05
6.68625e-05
0.000283869
0.000234587
0.000250266
0.000292114
6.52166e-05
6.37103e-05
0.000296676
0.000256514
0.00027693
0.000302042
6.24233e-05
6.12622e-05
0.000306955
0.000284592
0.000307612
0.000312265
6.0275e-05
5.94088e-05
0.000317275
0.000316198
0.000340058
0.000323145
5.86609e-05
5.80523e-05
0.00032854
0.000350211
0.000374946
0.000334598
5.74858e-05
5.712e-05
0.000340309
0.000386177
0.00041152
0.000346678
5.6653e-05
5.65383e-05
0.000352778
0.000415577
0.000442234
0.000359161
5.61579e-05
5.62285e-05
0.000365401
0.000444566
0.000470817
0.000371973
5.59397e-05
5.60984e-05
0.000378069
0.000473017
0.000498155
0.000384456
5.59227e-05
5.61158e-05
0.000390363
0.000499993
0.000524345
0.000396719
5.6043e-05
5.62458e-05
0.00040229
0.000525773
0.000548839
0.000408051
5.61904e-05
5.64238e-05
0.00041318
0.000549613
0.000571483
0.000418693
5.64925e-05
5.66314e-05
0.000423448
0.000572164
0.000592539
0.000428578
5.66782e-05
5.68477e-05
0.000432878
0.00059301
0.000612364
0.000437736
5.68958e-05
5.70553e-05
0.000441438
0.000612539
0.00063053
0.000445857
5.71019e-05
5.72676e-05
0.000449139
0.000630556
0.000647771
0.00045329
5.72985e-05
5.74597e-05
0.000455997
0.000647515
0.000663598
0.000459728
5.74812e-05
5.76358e-05
0.000462077
0.000663233
0.000678706
0.000465589
5.76432e-05
5.77897e-05
0.000467436
0.000678105
0.000692691
0.00047058
5.77908e-05
5.79301e-05
0.000472151
0.000692037
0.000706154
0.000475123
5.792e-05
5.80518e-05
0.000476279
0.000705295
0.000718727
0.000478938
5.80385e-05
5.81645e-05
0.000479907
0.000717835
0.000730924
0.000482443
5.81425e-05
5.82626e-05
0.000483097
0.000729817
0.000742383
0.000485356
5.82394e-05
5.8356e-05
0.000485897
0.000741265
0.000753577
0.000488075
5.83271e-05
5.84384e-05
0.000488365
0.000752232
0.000764125
0.000490302
5.84085e-05
5.85167e-05
0.000490543
0.000762752
0.000774621
0.000492448
5.8483e-05
5.85879e-05
0.00049248
0.000772924
0.000784464
0.000494186
5.85549e-05
5.86576e-05
0.000494228
0.000782632
0.000794159
0.000495908
5.86219e-05
5.87213e-05
0.000495748
0.000791993
0.000803157
0.000497239
5.86865e-05
5.87832e-05
0.000497119
0.000800844
0.000810218
0.000498599
5.87468e-05
5.88399e-05
0.000498277
0.000809111
0.000815478
0.000499575
5.88055e-05
5.88948e-05
0.000499278
0.000816574
0.000819998
0.000500558
5.88593e-05
5.89434e-05
0.000500053
0.000823391
0.000824022
0.000501132
5.89097e-05
5.89881e-05
0.000500644
0.000829535
0.000827444
0.000501713
5.89534e-05
5.90257e-05
0.000501033
0.000835046
0.000830531
0.000501907
5.89931e-05
5.90597e-05
0.000501264
0.000838034
0.000833047
0.000502154
5.90261e-05
5.90872e-05
0.000501343
0.000840219
0.000835199
0.000502053
5.90554e-05
5.9111e-05
0.000501274
0.00084228
0.000836928
0.000501988
5.90786e-05
5.91283e-05
0.000501053
0.00084377
0.000838425
0.00050163
5.9098e-05
5.91428e-05
0.000500739
0.000845308
0.000839624
0.000501341
5.9112e-05
5.91519e-05
0.000500315
0.000846212
0.000840608
0.000500792
5.91232e-05
5.91592e-05
0.000499857
0.000847508
0.000841486
0.000500377
5.91304e-05
5.91625e-05
0.000499316
0.000848064
0.000842123
0.000499723
5.91358e-05
5.91648e-05
0.000498775
0.000849028
0.00084268
0.000499246
5.91383e-05
5.91642e-05
0.000498175
0.00084925
0.00084302
0.000498541
5.91398e-05
5.91633e-05
0.000497591
0.000849943
0.00084333
0.000498032
5.91392e-05
5.91603e-05
0.000496967
0.000849924
0.000843454
0.00049731
5.91382e-05
5.91575e-05
0.000496373
0.000850414
0.000843578
0.000496797
5.91356e-05
5.91529e-05
0.000495748
0.000850212
0.000843542
0.00049608
5.9133e-05
5.91488e-05
0.000495163
0.00085055
0.00084353
0.000495579
5.9129e-05
5.91433e-05
0.000494553
0.000850214
0.000843378
0.000494881
5.91253e-05
5.91385e-05
0.00049399
0.000850435
0.000843268
0.000494404
5.91206e-05
5.91326e-05
0.000493405
0.000850016
0.000843039
0.000493735
5.91164e-05
5.91275e-05
0.00049287
0.000850161
0.000842856
0.000493289
5.91114e-05
5.91215e-05
0.000492316
0.000849652
0.000842559
0.00049265
5.91069e-05
5.91163e-05
0.000491812
0.000849728
0.000842325
0.000492235
5.91018e-05
5.91103e-05
0.000491289
0.000849189
0.000841997
0.000491629
5.90973e-05
5.91053e-05
0.000490814
0.000849175
0.000841707
0.000491244
5.90922e-05
5.90993e-05
0.000490322
0.000848592
0.000841352
0.000490669
5.90876e-05
5.90943e-05
0.000489877
0.000848558
0.000841047
0.000490316
5.90825e-05
5.90884e-05
0.000489416
0.00084796
0.000840684
0.000489773
5.90779e-05
5.90838e-05
0.000489004
0.000847916
0.000840373
0.000489451
5.90729e-05
5.90781e-05
0.000488575
0.000847311
0.000840007
0.000488941
5.90684e-05
5.90737e-05
0.000488194
0.000847263
0.000839696
0.000488651
5.90635e-05
5.90681e-05
0.000487796
0.000846657
0.000839332
0.000488172
5.9059e-05
5.90639e-05
0.000487446
0.000846611
0.000839024
0.000487913
5.90543e-05
5.90586e-05
0.000487078
0.000846007
0.000838666
0.000487463
5.905e-05
5.90546e-05
0.000486756
0.000845965
0.000838364
0.000487232
5.90455e-05
5.90494e-05
0.000486416
0.000845367
0.000838014
0.00048681
5.90414e-05
5.90456e-05
0.000486122
0.000845333
0.000837725
0.000486606
5.9037e-05
5.90405e-05
0.000485806
0.000844748
0.000837389
0.00048621
5.90329e-05
5.90367e-05
0.000485539
0.000844727
0.000837114
0.000486032
5.90285e-05
5.90317e-05
0.000485249
0.000844155
0.000836792
0.000485662
5.90245e-05
5.90281e-05
0.000485006
0.000844148
0.00083653
0.000485509
5.90203e-05
5.90232e-05
0.000484743
0.000843587
0.000836223
0.000485164
5.90165e-05
5.90198e-05
0.000484523
0.000843597
0.000835979
0.000485034
5.90125e-05
5.90153e-05
0.000484281
0.000843054
0.000835692
0.000484711
5.9009e-05
5.90123e-05
0.000484084
0.000843083
0.000835471
0.000484601
5.90055e-05
5.90082e-05
0.000483862
0.000842564
0.000835205
0.000484298
5.90025e-05
5.90057e-05
0.000483684
0.000842611
0.000835001
0.000484208
5.89996e-05
5.90023e-05
0.00048348
0.000842107
0.00083475
0.000483923
5.89973e-05
5.90006e-05
0.000483319
0.000842167
0.000834558
0.000483848
5.89951e-05
5.8998e-05
0.00048313
0.000841674
0.000834316
0.000483577
5.89937e-05
5.89971e-05
0.000482981
0.000841741
0.000834131
0.000483514
5.89924e-05
5.89954e-05
0.000482803
0.000841253
0.000833893
0.000483254
5.89917e-05
5.89953e-05
0.000482663
0.000841323
0.000833709
0.0004832
5.89911e-05
5.89941e-05
0.000482494
0.000840833
0.000833472
0.000482948
5.8991e-05
5.89944e-05
0.000482365
0.000840906
0.000833292
0.000482905
5.89906e-05
5.89937e-05
0.000482205
0.000840427
0.000833073
0.000482664
5.89905e-05
5.89942e-05
0.00048209
0.000840521
0.000832845
0.000482622
5.899e-05
5.89924e-05
0.00048197
0.000840164
0.000832897
0.000482529
5.89878e-05
5.90331e-05
0.000482313
0.000840045
0.00083284
0.000482758
5.90536e-05
5.90604e-05
0.000482194
0.000840092
0.000832673
0.000482737
5.90523e-05
5.90827e-05
0.000482565
0.000840968
0.000831961
0.000484173
5.93099e-05
5.95521e-05
0.000484747
0.000847369
0.000856809
0.000491577
6.07764e-05
6.23052e-05
0.000499586
0.000873308
0.000944941
0.000524344
6.68151e-05
7.07223e-05
0.000554484
0.000991825
0.00105529
0.000591213
7.52148e-05
0.00167831
0.00268108
0.00378242
0.00615664
0.0118889
0.0155636
0.0175943
0.0274195
0.0413058
0.0554086
0.072679
0.0957658
0.126512
0.167603
0.220822
0.28815
0.370402
0.467927
0.580207
0.706012
0.843263
0.989451
1.14094
1.29455
1.444
1.58536
1.70847
1.80948
1.88201
1.92723
1.94854
1.96496
1.99494
2.0375
2.09129
2.15405
2.22507
2.30291
2.38825
2.48156
2.58429
2.6981
2.82519
2.96834
3.1313
3.31916
3.53937
3.80346
2.84089
1.908
1.42785
1.19283
1.06421
0.974158
0.894082
0.816393
0.741801
0.671896
0.607164
0.547267
0.491868
0.440846
0.394289
0.352228
0.314569
0.281058
0.251342
0.225038
0.20177
0.181204
0.163036
0.147008
0.132872
0.120436
0.109495
0.0999043
0.0915069
0.084167
0.0777688
0.0722014
0.0673728
0.0631939
0.0595946
0.0565018
0.0538636
0.0516227
0.0497358
0.0481611
0.0468712
0.0458291
0.0450107
0.0443954
0.04396
0.0436986
0.0435867
0.0436181
0.0437821
0.0440671
0.0444719
0.0449825
0.0456035
0.0463237
0.0471353
0.0480498
0.0490546
0.0501511
0.051343
0.0526225
0.0539954
0.0554587
0.0570142
0.0586641
0.0604042
0.0622481
0.0641877
0.0662328
0.0683756
0.0706283
0.0729984
0.0754764
0.0780801
0.0808051
0.0836642
0.0866568
0.0897903
0.0930763
0.0965167
0.10013
0.103919
0.107896
0.112072