/*--------------------------------*- C++ -*----------------------------------*\
| =========                 |                                                 |
| \\      /  F ield         | OpenFOAM: The Open Source CFD Toolbox           |
|  \\    /   O peration     | Version:  v2006                                 |
|   \\  /    A nd           | Website:  www.openfoam.com                      |
|    \\/     M anipulation  |                                                 |
\*---------------------------------------------------------------------------*/
FoamFile
{
    version     2.0;
    format      ascii;
    class       volScalarField;
    location    "0.022";
    object      Co;
}
// * * * * * * * * * * * * * * * * * * * * * * * * * * * * * * * * * * * * * //

dimensions      [0 0 0 0 0 0 0];


internalField   nonuniform List<scalar> 
11076
(
0.0215056
0.0205529
0.0222494
0.0231448
0.0235018
0.0229922
0.0231335
0.0229407
0.0227607
0.0227238
0.0225836
0.0225678
0.0225203
0.0224817
0.0224404
0.0223989
0.0223551
0.0223117
0.0222672
0.0222207
0.0221725
0.0221224
0.0220705
0.0220169
0.0219617
0.021905
0.0218469
0.0217875
0.0217269
0.0216653
0.0216026
0.0215391
0.0214749
0.02141
0.0213447
0.021279
0.0212131
0.0211471
0.0210812
0.0210154
0.02095
0.0208851
0.0208208
0.0207572
0.0206946
0.0206331
0.0205727
0.0205137
0.0204562
0.0204003
0.020346
0.0202925
0.0202354
0.0201842
0.0201378
0.0201092
0.0201048
0.0202163
0.0204381
0.0210794
0.0221892
0.024799
0.0306382
0.0435616
0.0671546
0.0546648
0.0487406
0.0486911
0.0472099
0.045243
0.0444914
0.0427443
0.0386002
0.0418181
0.0437544
0.0394345
0.0393523
0.0376213
0.0314272
0.0333828
0.0338953
0.0324925
0.0327312
0.0310497
0.028355
0.0306519
0.031196
0.0310055
0.0306635
0.0283116
0.0275649
0.0301649
0.0307435
0.0307689
0.030107
0.0273735
0.027141
0.0300089
0.0306767
0.0306857
0.0299817
0.0269366
0.0267276
0.029751
0.0305273
0.0305699
0.0297711
0.0265328
0.0263443
0.0295398
0.0304024
0.0304368
0.0295577
0.026166
0.0259944
0.0293291
0.0302667
0.0302974
0.0293477
0.0258305
0.0256714
0.0291206
0.0301247
0.030152
0.0291398
0.0255188
0.0253692
0.0289143
0.0299777
0.0300021
0.0289337
0.0252253
0.0250832
0.0287095
0.0298264
0.0298482
0.0287287
0.024946
0.0248096
0.0285056
0.0296712
0.0296903
0.0285241
0.0246774
0.0245454
0.0283016
0.0295119
0.0295282
0.0283191
0.024417
0.0242882
0.0280967
0.0293483
0.0293617
0.0281128
0.0241626
0.024036
0.0278902
0.0291801
0.0291904
0.0279045
0.0239123
0.0237872
0.0276814
0.0290071
0.0290141
0.0276935
0.0236647
0.0235404
0.0274697
0.0288288
0.0288324
0.0274792
0.0234184
0.0232943
0.0272543
0.0286451
0.0286449
0.0272609
0.0231723
0.0230478
0.0270345
0.0284552
0.0284511
0.0270377
0.0229251
0.0227996
0.0268096
0.0282587
0.0282504
0.0268092
0.0226759
0.022549
0.0265789
0.0280552
0.0280422
0.0265743
0.0224236
0.0222947
0.0263415
0.0278438
0.0278258
0.0263323
0.022167
0.0220356
0.0260965
0.0276238
0.0276003
0.0260823
0.0219053
0.0217711
0.0258433
0.0273946
0.0273654
0.0258236
0.0216376
0.0215
0.0255809
0.0271555
0.0271199
0.0255552
0.0213629
0.0212212
0.0253084
0.0269054
0.026863
0.025276
0.0210798
0.0209338
0.0250247
0.0266436
0.0265942
0.0249854
0.0207879
0.020637
0.0247294
0.0263697
0.0263125
0.0246824
0.0204858
0.0203292
0.0244208
0.026082
0.0260161
0.0243651
0.0201717
0.0200086
0.0240972
0.0257791
0.0257043
0.0240326
0.0198447
0.0196751
0.0237584
0.0254606
0.0253763
0.0236842
0.0195043
0.0193272
0.0234029
0.0251252
0.0250299
0.0233177
0.0191481
0.0189621
0.0230279
0.0247701
0.0246632
0.0229309
0.0187742
0.0185798
0.022633
0.0243949
0.0242768
0.0225249
0.0183838
0.0181811
0.0222189
0.0240001
0.0238697
0.0220983
0.0179757
0.0177623
0.0217822
0.0235826
0.0234376
0.0216467
0.0175453
0.0173205
0.0213197
0.0231393
0.0229804
0.0211705
0.0170935
0.0168598
0.0208348
0.0226728
0.022501
0.0206728
0.0166241
0.0163806
0.0203275
0.0221833
0.0219954
0.0201494
0.0161327
0.0158755
0.019791
0.0216639
0.0214583
0.0195954
0.0156146
0.0153472
0.0192265
0.0211151
0.0208963
0.0190186
0.0150795
0.0148073
0.0186443
0.0205462
0.0203147
0.018425
0.0145339
0.0142531
0.0180414
0.0199535
0.0197038
0.0178052
0.0139684
0.0136768
0.0174098
0.0193282
0.019064
0.0171611
0.0133864
0.0130968
0.0167655
0.0186846
0.0184181
0.0165176
0.0128154
0.0125369
0.0161303
0.0180424
0.0177724
0.0158828
0.0122635
0.0119881
0.015496
0.0173922
0.0171124
0.0152428
0.0117168
0.0114487
0.0148599
0.0167301
0.0164548
0.0146168
0.0111967
0.0109624
0.0142633
0.0160944
0.0158468
0.0140545
0.0107535
0.0105605
0.013739
0.0155172
0.0152981
0.0135567
0.0103791
0.0102152
0.0132567
0.0149619
0.0147784
0.0131054
0.0100609
0.00992259
0.0128298
0.0144613
0.0143214
0.012726
0.00981877
0.00974756
0.0125186
0.0140678
0.0139783
0.0124762
0.00971156
0.00969099
0.0123346
0.0138033
0.0137313
0.0123197
0.009687
0.00970371
0.0122663
0.0136178
0.0135225
0.0122214
0.00971721
0.00974152
0.0122362
0.013499
0.0134527
0.0121916
0.00978305
0.00985713
0.0122898
0.0135097
0.0135231
0.0122983
0.00994671
0.0100458
0.0124291
0.0136131
0.0136343
0.0124496
0.0101382
0.0102173
0.0125677
0.0137281
0.0137119
0.0125563
0.0102753
0.0103266
0.0126487
0.0137787
0.0137548
0.0126304
0.0103774
0.0104476
0.0127426
0.0138401
0.0138484
0.0127578
0.0105316
0.0106276
0.0129008
0.0139674
0.0140042
0.012932
0.0107195
0.0108022
0.0130681
0.0141062
0.0141221
0.0130676
0.0108594
0.010898
0.0131638
0.0141872
0.014178
0.0131378
0.0109231
0.0109509
0.0132065
0.0142131
0.0142224
0.0132015
0.0109931
0.0110621
0.013313
0.014299
0.0143512
0.0133464
0.0111401
0.0112187
0.0134734
0.0144465
0.0144866
0.0134904
0.0112755
0.0113078
0.0135757
0.0145459
0.0145283
0.0135341
0.0113112
0.0113102
0.0135946
0.0145604
0.0145276
0.01355
0.0113239
0.0113722
0.0136589
0.0146203
0.0146345
0.0136675
0.011436
0.0114996
0.0137935
0.0147476
0.0147646
0.013801
0.0115499
0.0115683
0.0138819
0.0148418
0.0149042
0.013995
0.0117434
0.0117583
0.0140953
0.0150902
0.0158248
0.0150211
0.0126994
0.0128568
0.0155123
0.0167307
0.0194699
0.0183046
0.0153135
0.0158239
0.0196233
0.0217737
0.0230426
0.0212138
0.0174636
0.0251128
0.0266902
0.0274639
0.0288658
0.0293692
0.0300155
0.0303612
0.0307157
0.0309309
0.0312039
0.0313686
0.0315669
0.0316651
0.0317947
0.032007
0.0323732
0.0329622
0.033822
0.0361705
0.0455008
0.0685833
0.0728129
0.0680527
0.0611498
0.0575436
0.050577
0.0374552
0.0334035
0.047361
0.0556813
0.0503565
0.0442911
0.0318026
0.0259614
0.0370149
0.0426421
0.0367856
0.0336235
0.0246865
0.0225345
0.0315066
0.0354817
0.0342212
0.0308089
0.0222318
0.0220242
0.0306164
0.0341883
0.0341232
0.0306371
0.0221601
0.0221187
0.0304812
0.0339148
0.0341684
0.0306882
0.0222341
0.0222557
0.0305731
0.0339778
0.0342468
0.0307984
0.0224049
0.0224065
0.0306922
0.0340622
0.0343497
0.0309372
0.0225667
0.0225496
0.0308243
0.0341652
0.0344682
0.0310739
0.0226916
0.0227066
0.0309447
0.0342543
0.0345716
0.0312027
0.0228481
0.0228704
0.0310623
0.0343031
0.034694
0.0313376
0.02304
0.023022
0.0311941
0.0344343
0.0347768
0.031476
0.0231837
0.0231982
0.0313174
0.0344889
0.0349139
0.0316222
0.0233799
0.0233566
0.0314604
0.0346381
0.0350054
0.0317718
0.0235458
0.023557
0.0315783
0.0346761
0.0351984
0.0319593
0.0237412
0.0237711
0.0317602
0.0348495
0.0352356
0.0320806
0.0239768
0.0239704
0.0318852
0.0348974
0.0354357
0.0322865
0.0241898
0.0241683
0.0320869
0.0350965
0.0355205
0.0324281
0.0243637
0.0243913
0.0322479
0.0351776
0.035687
0.0325983
0.0245958
0.0246191
0.0324133
0.0353338
0.0357908
0.0327928
0.024855
0.0248324
0.0326032
0.0354824
0.0359729
0.0329973
0.0250583
0.0250844
0.032783
0.0356164
0.0361284
0.0332081
0.0253513
0.0253346
0.0329988
0.0357439
0.036365
0.0334366
0.0255991
0.025627
0.0332116
0.035933
0.0365301
0.0336983
0.0259194
0.0258992
0.0334534
0.0360849
0.0368133
0.0339784
0.0262134
0.026234
0.0337025
0.0362996
0.037035
0.0343087
0.0266024
0.0265773
0.0339991
0.0365184
0.0373784
0.0346936
0.0269747
0.0270029
0.0342981
0.0367264
0.0377384
0.0351492
0.027541
0.0275147
0.0346603
0.0369661
0.0382315
0.0357316
0.028211
0.0282524
0.0351236
0.0373596
0.0389857
0.0364575
0.0290751
0.0292174
0.0358264
0.037809
0.0395437
0.0372589
0.0300318
0.0301575
0.0364703
0.0380984
0.0396838
0.0375028
0.0309177
0.0307645
0.0367602
0.0382733
0.0401056
0.0380389
0.0313868
0.031105
0.0366758
0.0383513
0.0397529
0.0379657
0.0318329
0.0317598
0.0371469
0.0385827
0.0398388
0.0381506
0.0324918
0.0323005
0.0372641
0.0386196
0.0397943
0.0382083
0.0329503
0.0332607
0.0377373
0.038855
0.0400235
0.0386436
0.0340093
0.0344386
0.0383182
0.0393456
0.05259
0.040185
0.0361603
0.0364246
0.0506934
0.0504065
0.0492075
0.0535535
0.0504986
0.0380099
0.0393326
0.0399733
0.0704003
0.0493681
0.0405447
0.0420691
0.0521697
0.0706538
0.0498074
0.0470403
0.0410959
0.0397818
0.0418705
0.043221
0.0402171
0.0397215
0.0389982
0.0392831
0.0385156
0.0386484
0.0368554
0.0373956
0.0391041
0.039332
0.0358819
0.0346748
0.0282185
0.0339466
0.0385361
0.0417755
0.0457806
0.0634455
0.0559296
0.0444573
0.0439555
0.0446799
0.0397239
0.0390584
0.037491
0.0384869
0.0438013
0.0443977
0.0412547
0.0348252
0.0684176
0.0542381
0.0461017
0.049614
0.0587396
0.0580907
0.0900148
0.0647296
0.0511364
0.052326
0.059873
0.0707198
0.0528895
0.0509016
0.0497989
0.0463694
0.0473638
0.0491659
0.0423992
0.0476714
0.0418796
0.0383339
0.0577353
0.0740773
0.0669339
0.0576104
0.0318707
0.0217707
0.0537227
0.0589403
0.0529506
0.0550983
0.0153541
0.0248175
0.066516
0.073034
0.0947303
0.0773803
0.047343
0.0688563
0.0893994
0.0894791
0.110815
0.114044
0.0940586
0.117591
0.132808
0.143621
0.130185
0.148253
0.129692
0.140585
0.183678
0.153665
0.200014
0.224314
0.158506
0.174315
0.229011
0.205965
0.186097
0.195919
0.181183
0.192272
0.14612
0.135769
0.180522
0.163617
0.214273
0.236855
0.189752
0.182424
0.231012
0.222919
0.235201
0.237197
0.212757
0.197852
0.197291
0.226846
0.228981
0.237593
0.26606
0.314813
0.246861
0.228698
0.217172
0.210904
0.227893
0.214341
0.308434
0.243925
0.200342
0.185759
0.196742
0.250825
0.181636
0.191572
0.171776
0.167107
0.202164
0.26198
0.234314
0.170159
0.150738
0.144749
0.168265
0.173385
0.221462
0.167394
0.132471
0.118536
0.156341
0.238139
0.14151
0.132007
0.106263
0.0972077
0.117822
0.155127
0.0903504
0.0987628
0.0912342
0.0921146
0.107659
0.11628
0.152078
0.108822
0.0841844
0.0743503
0.095062
0.141744
0.0815976
0.0809403
0.070263
0.0708251
0.0915183
0.129738
0.123712
0.0838995
0.0646888
0.0627403
0.070243
0.0711849
0.0953789
0.0838917
0.0657625
0.0659797
0.0917272
0.133008
0.121943
0.0801334
0.0602667
0.0609016
0.0769634
0.0826168
0.135386
0.107771
0.0873155
0.0771621
0.0849107
0.116552
0.0862861
0.0653866
0.058753
0.0626474
0.0784859
0.093569
0.134139
0.100016
0.0696244
0.079257
0.12652
0.171867
0.0767285
0.0725035
0.0618177
0.0700143
0.101122
0.133296
0.17122
0.127767
0.0816016
0.0624723
0.0694297
0.0703171
0.094369
0.0832766
0.0663299
0.0718504
0.104719
0.14018
0.173504
0.129958
0.083443
0.0657567
0.0761825
0.0795779
0.140224
0.107102
0.0744652
0.0849711
0.130958
0.172946
0.0832315
0.0798438
0.0694861
0.077493
0.110078
0.14257
0.174979
0.133237
0.0868505
0.0707943
0.0807201
0.0837853
0.142207
0.110542
0.0787088
0.0876511
0.133839
0.175383
0.0747278
0.0743883
0.0682716
0.0724953
0.0894177
0.100519
0.149008
0.116743
0.0828718
0.0872535
0.134899
0.180712
0.0826627
0.0804028
0.0709853
0.0806799
0.114707
0.149504
0.179455
0.138043
0.0913963
0.0732282
0.0841669
0.0875398
0.152697
0.116909
0.0823064
0.0941135
0.140826
0.182782
0.0883865
0.0851717
0.0742325
0.0848338
0.120192
0.156
0.185037
0.14248
0.0944551
0.0761449
0.0875366
0.0913164
0.159926
0.125409
0.0892859
0.0974933
0.145746
0.188851
0.0929259
0.0899614
0.0786664
0.0891486
0.128005
0.167889
0.188969
0.146085
0.0975458
0.0880958
0.116077
0.137916
0.17621
0.141263
0.0985215
0.0825446
0.0942846
0.0978942
0.165146
0.128533
0.0917482
0.101065
0.149752
0.19349
0.0979236
0.0944137
0.0829589
0.0930875
0.130348
0.168025
0.197308
0.153026
0.103175
0.0843049
0.0954698
0.0985873
0.171944
0.13303
0.0945842
0.105517
0.156175
0.20029
0.10224
0.0985001
0.0860124
0.0982852
0.140089
0.182655
0.201803
0.156262
0.105782
0.0954454
0.126076
0.149785
0.186944
0.150888
0.105499
0.0902831
0.103408
0.107511
0.182018
0.141291
0.100853
0.110282
0.161722
0.20807
0.106386
0.102841
0.0904234
0.102868
0.14608
0.189895
0.20899
0.161985
0.110273
0.0997589
0.131201
0.155987
0.194667
0.157641
0.111061
0.0945826
0.107585
0.111402
0.189444
0.147297
0.105241
0.114048
0.167417
0.215849
0.112289
0.108271
0.095014
0.108099
0.1533
0.198986
0.218007
0.169925
0.115661
0.105289
0.138246
0.163882
0.202069
0.163407
0.115686
0.0993457
0.113394
0.117532
0.204278
0.157976
0.111609
0.119068
0.173675
0.222789
0.168916
0.142614
0.109034
0.119744
0.169011
0.207781
0.121197
0.116885
0.102621
0.113997
0.158696
0.203201
0.230208
0.180013
0.123372
0.102615
0.116052
0.119809
0.213527
0.164304
0.115752
0.12298
0.179964
0.230994
0.177027
0.149261
0.113756
0.123261
0.173363
0.213606
0.124911
0.120882
0.106284
0.11994
0.169608
0.219292
0.236416
0.18351
0.12587
0.115997
0.151613
0.179673
0.219683
0.178048
0.126617
0.109267
0.124362
0.12869
0.224946
0.173877
0.123217
0.130128
0.18817
0.240824
0.186233
0.15703
0.120032
0.129443
0.180967
0.224358
0.131941
0.127294
0.11178
0.125811
0.177648
0.229662
0.248018
0.192807
0.132899
0.122747
0.160028
0.189324
0.22966
0.187158
0.133745
0.115502
0.13125
0.135906
0.236026
0.182655
0.129451
0.135852
0.196673
0.252688
0.19551
0.16499
0.126166
0.13676
0.191248
0.234479
0.138881
0.134155
0.117943
0.132789
0.187124
0.241325
0.258444
0.20203
0.139531
0.128529
0.167522
0.198265
0.240079
0.194909
0.139369
0.120582
0.13735
0.14223
0.247338
0.191703
0.136154
0.142737
0.206189
0.264604
0.204891
0.172844
0.132077
0.142737
0.199396
0.245609
0.145428
0.140521
0.123649
0.139501
0.196209
0.252891
0.270876
0.212167
0.14683
0.135207
0.175961
0.20787
0.25168
0.205481
0.146753
0.126829
0.143998
0.148968
0.259453
0.201001
0.142635
0.149279
0.215592
0.276543
0.214776
0.181366
0.138799
0.14999
0.209238
0.256576
0.151945
0.14695
0.129272
0.145615
0.205207
0.2648
0.28282
0.221154
0.15281
0.141424
0.184224
0.217644
0.2641
0.21479
0.153056
0.132434
0.150393
0.155545
0.271547
0.210379
0.149208
0.156359
0.226042
0.289051
0.224535
0.18949
0.144976
0.156993
0.21904
0.268438
0.158903
0.15399
0.135894
0.152215
0.214645
0.277301
0.296455
0.231705
0.160252
0.148016
0.192816
0.227635
0.275428
0.224657
0.160605
0.138525
0.15733
0.16266
0.284479
0.220417
0.156735
0.164734
0.23732
0.303155
0.235558
0.199057
0.1528
0.164579
0.228861
0.281701
0.166027
0.160908
0.142091
0.159572
0.224633
0.29021
0.311384
0.242594
0.167672
0.154665
0.201414
0.23788
0.289024
0.235949
0.168308
0.14521
0.164711
0.170086
0.297852
0.230924
0.163955
0.172073
0.24846
0.318971
0.246274
0.208254
0.159505
0.171548
0.239545
0.294973
0.173638
0.168231
0.148402
0.167385
0.235212
0.303354
0.327375
0.255108
0.176452
0.162388
0.211092
0.248909
0.303124
0.24763
0.176749
0.15323
0.173329
0.178627
0.312047
0.24256
0.172734
0.180941
0.261239
0.333385
0.257312
0.217654
0.167011
0.180086
0.251503
0.309449
0.182207
0.176553
0.155989
0.174619
0.245254
0.316203
0.341951
0.267763
0.185366
0.16931
0.219225
0.258868
0.31955
0.260858
0.187641
0.158702
0.178521
0.183765
0.313217
0.245759
0.177832
0.189811
0.274658
0.351935
0.18485
0.179659
0.16007
0.18029
0.253763
0.328321
0.356205
0.277359
0.191547
0.175998
0.228357
0.269224
0.330828
0.268876
0.192235
0.166092
0.18721
0.192344
0.338421
0.262991
0.187719
0.197936
0.285438
0.365732
0.276562
0.23468
0.181093
0.197528
0.277124
0.340021
0.196826
0.190768
0.168951
0.188989
0.2611
0.332886
0.378434
0.295094
0.203623
0.17036
0.190547
0.195343
0.352637
0.27333
0.194706
0.204962
0.297016
0.3828
0.287358
0.243509
0.187273
0.204389
0.287183
0.353287
0.200453
0.195347
0.174422
0.195081
0.269983
0.345267
0.393498
0.307648
0.211698
0.176516
0.196859
0.201311
0.366223
0.283723
0.202005
0.214303
0.31159
0.400181
0.297415
0.252896
0.195445
0.21366
0.300197
0.370587
0.211106
0.205245
0.182623
0.203771
0.28138
0.35947
0.41311
0.322085
0.221188
0.184933
0.20622
0.210804
0.381914
0.295773
0.210759
0.223586
0.32578
0.419867
0.310184
0.263756
0.203922
0.222584
0.312509
0.385786
0.216214
0.210702
0.188406
0.210824
0.289859
0.368789
0.427302
0.334574
0.22932
0.189519
0.210855
0.215513
0.377716
0.295343
0.214496
0.234298
0.342323
0.438634
0.213199
0.209914
0.190252
0.214594
0.296463
0.37896
0.445435
0.34596
0.235262
0.193561
0.215054
0.219192
0.388579
0.30314
0.219499
0.242502
0.355248
0.456093
0.219885
0.217712
0.198307
0.225451
0.31162
0.397415
0.466986
0.362302
0.245398
0.199868
0.221232
0.225374
0.401761
0.313487
0.226413
0.249606
0.368465
0.474677
0.226032
0.223806
0.203442
0.232734
0.321338
0.412188
0.491546
0.378479
0.256823
0.208022
0.229625
0.233117
0.415735
0.325191
0.235276
0.259276
0.383671
0.494573
0.234214
0.231382
0.210487
0.240298
0.330492
0.421751
0.510571
0.397982
0.270976
0.222229
0.242452
0.243411
0.427715
0.336222
0.245276
0.27171
0.400337
0.51648
0.239237
0.237093
0.21727
0.244799
0.332132
0.420817
0.527898
0.411093
0.279333
0.216186
0.222144
0.213961
0.293487
0.270282
0.229815
0.245329
0.338556
0.437088
0.545964
0.415355
0.277147
0.210673
0.216304
0.207591
0.28858
0.26598
0.228777
0.255238
0.351467
0.450855
0.568381
0.431557
0.284808
0.213792
0.220371
0.212138
0.297606
0.273537
0.23222
0.256089
0.354702
0.461046
0.583823
0.442487
0.293866
0.217338
0.221542
0.21073
0.287181
0.267271
0.230462
0.250087
0.342938
0.442704
0.599769
0.45628
0.301725
0.217184
0.216695
0.202471
0.247994
0.243613
0.223771
0.217533
0.244578
0.257536
0.295433
0.274834
0.235005
0.243526
0.339811
0.439788
0.600237
0.450319
0.291497
0.206634
0.210382
0.201891
0.237743
0.23477
0.214301
0.193029
0.214225
0.223286
0.224025
0.217626
0.193257
0.174362
0.198018
0.205866
0.204325
0.196458
0.168141
0.153356
0.182346
0.190797
0.188953
0.177809
0.145477
0.136612
0.168762
0.17943
0.179649
0.16651
0.131488
0.124855
0.158783
0.17107
0.172034
0.157407
0.121104
0.116165
0.15121
0.164909
0.16623
0.150268
0.113362
0.109243
0.144691
0.159646
0.161307
0.144265
0.107092
0.103579
0.139143
0.155066
0.156772
0.138894
0.101939
0.098927
0.13416
0.150832
0.152747
0.13431
0.0977148
0.0951216
0.12993
0.147048
0.148991
0.130221
0.0942678
0.0920313
0.126163
0.143542
0.145684
0.1268
0.0914801
0.0895393
0.123023
0.14043
0.14259
0.123748
0.0892381
0.0875493
0.120222
0.137536
0.139879
0.121217
0.0874601
0.0861785
0.118153
0.135224
0.137337
0.118934
0.0861156
0.0851768
0.116552
0.13345
0.135147
0.117091
0.0851206
0.0844462
0.115054
0.13176
0.13312
0.115411
0.0843955
0.0839306
0.113879
0.130342
0.131412
0.11409
0.0838848
0.0835761
0.112761
0.129
0.13009
0.113092
0.0836182
0.0833497
0.111926
0.127975
0.128338
0.111719
0.0832299
0.0832173
0.111109
0.126884
0.127355
0.111074
0.0831828
0.0831605
0.110543
0.126084
0.126399
0.110451
0.083128
0.0831615
0.10997
0.125309
0.125525
0.109854
0.0831311
0.0832039
0.109613
0.124743
0.124845
0.109461
0.0831756
0.0832802
0.109224
0.124177
0.124216
0.109066
0.0832536
0.0833814
0.109031
0.123799
0.123753
0.108847
0.0833561
0.0835046
0.108789
0.123399
0.123318
0.108604
0.0834805
0.0836425
0.10872
0.123169
0.12302
0.108517
0.0836195
0.0837956
0.108587
0.122895
0.122729
0.108389
0.0837737
0.0839575
0.108613
0.122777
0.122552
0.1084
0.0839366
0.0841305
0.108562
0.122597
0.12237
0.108361
0.0841107
0.0843076
0.108658
0.122557
0.122283
0.108441
0.0842884
0.0844936
0.108666
0.122448
0.122175
0.10846
0.0844756
0.084683
0.108812
0.122465
0.122159
0.108594
0.0846657
0.0848767
0.108861
0.122405
0.122106
0.108654
0.0848603
0.0850712
0.109039
0.122462
0.12214
0.108825
0.0850556
0.0852678
0.109115
0.122439
0.122127
0.108912
0.0852532
0.0854641
0.109313
0.122524
0.122197
0.109105
0.0854503
0.08566
0.109403
0.122524
0.122212
0.109206
0.0856472
0.0858523
0.109607
0.122625
0.122305
0.109408
0.0858402
0.0860409
0.109699
0.122638
0.122338
0.109514
0.0860297
0.0862234
0.109903
0.122749
0.122446
0.109718
0.0862128
0.0863994
0.109992
0.122771
0.12249
0.109823
0.0863896
0.0865673
0.110189
0.12289
0.122609
0.110021
0.0865583
0.0867288
0.11027
0.122916
0.122659
0.110118
0.0867206
0.0868808
0.110459
0.123036
0.122779
0.110308
0.0868732
0.0870252
0.110532
0.123062
0.122829
0.110397
0.0870183
0.0871598
0.110712
0.123181
0.122948
0.110579
0.0871535
0.0872876
0.110776
0.123205
0.122995
0.110657
0.087282
0.0874071
0.110946
0.123322
0.123111
0.110828
0.0874019
0.0875201
0.110999
0.123343
0.123155
0.110895
0.0875155
0.0876241
0.111159
0.123455
0.123268
0.111056
0.0876198
0.0877223
0.111202
0.123473
0.123307
0.111111
0.0877185
0.0878128
0.111352
0.123582
0.123415
0.111262
0.0878092
0.0878983
0.111386
0.123595
0.123448
0.111308
0.0878951
0.0879767
0.111527
0.123699
0.123551
0.111448
0.0879738
0.0880512
0.111552
0.123709
0.123579
0.111484
0.0880486
0.0881195
0.111685
0.123808
0.123676
0.111616
0.0881171
0.0881849
0.111702
0.123814
0.123699
0.111643
0.0881828
0.0882449
0.111827
0.12391
0.123792
0.111767
0.088243
0.0883025
0.111838
0.123912
0.12381
0.111786
0.0883009
0.0883553
0.111956
0.124003
0.123898
0.111903
0.0883537
0.0884062
0.111961
0.124002
0.123911
0.111915
0.088405
0.0884527
0.112073
0.124089
0.123995
0.112026
0.0884516
0.0884977
0.112072
0.124084
0.124004
0.112032
0.0884968
0.0885385
0.112178
0.124168
0.124084
0.112136
0.0885377
0.0885783
0.112171
0.124159
0.124088
0.112136
0.0885777
0.0886141
0.112272
0.124239
0.124164
0.112235
0.0886137
0.0886493
0.112261
0.124228
0.124165
0.11223
0.0886491
0.0886808
0.112357
0.124304
0.124237
0.112324
0.0886806
0.0887119
0.112341
0.12429
0.124235
0.112315
0.0887119
0.0887396
0.112433
0.124364
0.124304
0.112404
0.0887397
0.0887671
0.112413
0.124346
0.124298
0.11239
0.0887674
0.0887913
0.112501
0.124417
0.124364
0.112475
0.0887916
0.0888155
0.112477
0.124397
0.124355
0.112458
0.088816
0.0888364
0.112561
0.124465
0.124418
0.112539
0.0888369
0.0888573
0.112533
0.124442
0.124405
0.112517
0.088858
0.0888754
0.112614
0.124507
0.124465
0.112595
0.0888761
0.0888939
0.112584
0.124482
0.12445
0.11257
0.0888947
0.0889098
0.112662
0.124545
0.124508
0.112645
0.0889107
0.0889265
0.112629
0.124519
0.124491
0.112617
0.0889275
0.0889411
0.112706
0.124581
0.124546
0.11269
0.0889421
0.0889569
0.112672
0.124553
0.124528
0.11266
0.0889581
0.0889711
0.112747
0.124615
0.124583
0.112732
0.0889722
0.0889869
0.112713
0.124588
0.124563
0.112702
0.0889882
0.0890016
0.112788
0.12465
0.124618
0.112773
0.0890029
0.0890182
0.112754
0.124624
0.124599
0.112743
0.0890197
0.0890338
0.112831
0.124688
0.124655
0.112815
0.0890354
0.0890516
0.112798
0.124662
0.124637
0.112786
0.0890534
0.0890686
0.112875
0.124727
0.124694
0.112859
0.0890703
0.0890875
0.112843
0.124703
0.124677
0.112831
0.0890894
0.0891053
0.112921
0.124769
0.124735
0.112905
0.0891072
0.0891247
0.11289
0.124745
0.12472
0.112878
0.0891268
0.0891426
0.112968
0.124811
0.124778
0.112952
0.0891447
0.0891624
0.112937
0.124789
0.124763
0.112925
0.0891647
0.0891814
0.113017
0.124857
0.124822
0.113
0.0891837
0.0892036
0.112988
0.124838
0.124808
0.112975
0.089206
0.0892277
0.113075
0.124914
0.124867
0.113054
0.0892302
0.0892602
0.113117
0.124953
0.124814
0.113034
0.089263
0.0893745
0.11316
0.124966
0.124845
0.113077
0.0893312
0.0892169
0.11303
0.124857
0.124513
0.112862
0.0892209
0.0890162
0.113117
0.125192
0.124469
0.113291
0.090041
0.0900424
0.115285
0.12879
0.135427
0.123283
0.0979116
0.100076
0.131375
0.150809
0.177512
0.156732
0.120584
0.122921
0.164865
0.194036
0.200424
0.17618
0.136014
0.221369
0.2481
0.268904
0.253281
0.176373
0.147159
0.171601
0.115443
0.0806313
0.0654344
0.0584407
0.0556318
0.0540217
0.0535064
0.0531899
0.0531713
0.0531818
0.0532253
0.0532601
0.0532933
0.0533273
0.0533838
0.0533914
0.05373
0.0538225
0.0542603
0.0547295
0.0543986
0.055606
0.054762
0.0526417
0.0486333
0.0473212
0.0417559
0.0420997
0.039828
0.0406166
0.0403784
0.0408377
0.0409282
0.0410692
0.041078
0.041096
0.0410923
0.0410774
0.0410924
0.0410767
0.0410723
0.0410678
0.0410615
0.0410518
0.0410386
0.0410228
0.0410052
0.0409859
0.0409547
0.0409523
0.0409066
0.0408992
0.0408479
0.040834
0.0407752
0.0407526
0.040684
0.0406502
0.0405691
0.0405211
0.0404244
0.0403591
0.0402431
0.0401566
0.0400279
0.0398961
0.0397501
0.0395791
0.0394211
0.039207
0.0390139
0.0387632
0.038532
0.0382431
0.0379728
0.0376454
0.0373273
0.0369819
0.0366193
0.0362408
0.0358476
0.0354502
0.0350149
0.0346044
0.0341516
0.0337259
0.0332704
0.0328119
0.032376
0.0319079
0.0314648
0.0310239
0.0305638
0.0301382
0.0296886
0.0292746
0.0288456
0.0284245
0.0280323
0.0276278
0.0272323
0.026866
0.0264824
0.0261344
0.0257702
0.0254411
0.0251024
0.0247736
0.0244726
0.0241568
0.0238742
0.0235773
0.0233126
0.0230396
0.0227754
0.0225366
0.0222839
0.0220615
0.0218253
0.0216132
0.0214033
0.0212009
0.0210058
0.0208179
0.0206368
0.0204625
0.0202948
0.0201334
0.0199783
0.0198294
0.0196863
0.019549
0.0194175
0.0192912
0.0191704
0.0190548
0.0189442
0.0188385
0.0187376
0.0186413
0.0185496
0.0184621
0.018379
0.0182999
0.0182252
0.0181535
0.0180856
0.0180222
0.0179619
0.0179051
0.0178515
0.0178012
0.0177541
0.0177099
0.0176687
0.0176305
0.0175956
0.0175624
0.0175321
0.0175053
0.0174795
0.0174511
0.0174224
0.0173503
0.0172963
0.0170925
0.0171888
0.0168438
0.0178035
0.0176523
0.020004
0.0193134
0.0192268
0.0192704
0.0193045
0.0192843
0.0192123
0.0191372
0.0190761
0.0190359
0.019005
0.0189762
0.0189471
0.0189177
0.0188871
0.0188546
0.0188213
0.0187861
0.0187496
0.0187117
0.0186711
0.0186296
0.018586
0.0185408
0.0184937
0.0184457
0.0183969
0.018346
0.0182945
0.018242
0.0181887
0.0181346
0.0180798
0.0180245
0.0179687
0.0179126
0.0178568
0.0178004
0.0177436
0.0176873
0.0176317
0.017576
0.0175203
0.017466
0.0174114
0.0173577
0.0173056
0.0172541
0.0172034
0.0171532
0.0171029
0.0170562
0.0170168
0.0169904
0.0169898
0.0170596
0.0172367
0.0175492
0.0179894
0.0183521
0.0180289
0.0175361
0.0367333
0.0313781
0.0310904
0.030996
0.0308098
0.0309172
0.0308067
0.0309058
0.0307731
0.0308717
0.0307258
0.0308156
0.0306623
0.0307458
0.0305872
0.0306653
0.0305023
0.0305755
0.0304086
0.0304775
0.030307
0.0303716
0.0301978
0.0302582
0.030081
0.0301372
0.0299568
0.0300089
0.0298253
0.0298731
0.0296862
0.0297297
0.0295396
0.0295786
0.0293851
0.0294194
0.0292223
0.0292517
0.029051
0.0290752
0.0288704
0.028889
0.0286799
0.0286926
0.0284791
0.0284855
0.0282674
0.028267
0.0280437
0.0280362
0.0278075
0.0277926
0.0275583
0.0275353
0.0272946
0.0272626
0.0270151
0.0269738
0.0267195
0.0266685
0.0264065
0.0263444
0.0260735
0.0259996
0.0257202
0.0256351
0.0253474
0.0252498
0.0249517
0.0248393
0.0245301
0.024404
0.0240859
0.0239471
0.0236191
0.0234642
0.0231226
0.02295
0.0225974
0.0224121
0.0220532
0.0218556
0.0214862
0.0212704
0.0208871
0.0206572
0.0202707
0.0200386
0.0196559
0.0194198
0.0190322
0.0187849
0.0183944
0.0181502
0.0177803
0.0175608
0.0172185
0.017024
0.0166684
0.0165066
0.0161642
0.0160394
0.0157549
0.0156804
0.0154583
0.0154028
0.0151955
0.0151533
0.0149932
0.0149963
0.0149247
0.0149549
0.0149543
0.0149555
0.0149968
0.014942
0.0149965
0.014934
0.0150126
0.0149859
0.0151004
0.0151097
0.0151908
0.0151902
0.0152378
0.0152096
0.0152484
0.0152362
0.015316
0.0153469
0.0154422
0.0154589
0.0155188
0.0154878
0.0155132
0.0154716
0.0155737
0.0155754
0.0156894
0.0156847
0.0157744
0.0157934
0.0160206
0.0165499
0.0178675
0.0203599
0.023162
0.0246797
0.0217289
0.0223414
0.0257072
0.0271458
0.0254592
0.0092425
0.0230206
0.0191963
0.0170833
0.0202319
0.0202308
0.0168943
0.0166148
0.0199278
0.00913252
0.00907662
0.0201135
0.016733
0.0165759
0.0199338
0.0200933
0.0166843
0.0165036
0.0198929
0.0090699
0.00904813
0.0199886
0.0165748
0.0164082
0.0197997
0.019999
0.0165534
0.0164169
0.0197892
0.00905152
0.00905427
0.0200141
0.0165686
0.0164168
0.019811
0.0199642
0.0165091
0.0163364
0.0197502
0.00904113
0.00901249
0.0198808
0.0164127
0.0162448
0.0196612
0.0198607
0.0163773
0.0162257
0.019635
0.00900675
0.00900715
0.0198767
0.0163886
0.0162366
0.0196656
0.0198636
0.0163638
0.016199
0.0196579
0.00900339
0.00898488
0.0198009
0.0162972
0.0161238
0.0196147
0.0197597
0.0162449
0.016102
0.0196107
0.00897661
0.00898872
0.0197894
0.0162586
0.0161476
0.0196867
0.0198178
0.016275
0.0162234
0.0198024
0.00901606
0.00906196
0.0198093
0.0162564
0.0162818
0.019904
0.0198051
0.0162416
0.0163837
0.0200533
0.00912294
0.00921985
0.0198838
0.0163089
0.0166034
0.0203285
0.0200231
0.0164777
0.0168955
0.0206893
0.00936039
0.00951922
0.0201674
0.0166788
0.0172153
0.0210851
0.0203434
0.0169136
0.0176056
0.0215659
0.00970751
0.00994365
0.0206449
0.0172536
0.0181028
0.0221615
0.0210554
0.0176871
0.0186516
0.0228165
0.0102141
0.0104896
0.021528
0.0181861
0.0192064
0.0234653
0.0220864
0.0187422
0.019805
0.0241614
0.0107813
0.0110901
0.0227174
0.0193389
0.0204392
0.0248913
0.0233862
0.0199495
0.0210651
0.0256045
0.0114013
0.0117022
0.0240454
0.0205399
0.0216691
0.0262903
0.024704
0.0211164
0.0222686
0.0269692
0.0119979
0.0122905
0.0253754
0.0216897
0.0228579
0.0276319
0.0260319
0.0222435
0.0234179
0.0282557
0.0125698
0.0128344
0.0266819
0.022793
0.0239491
0.028847
0.0273348
0.0233429
0.0244605
0.0294167
0.0130878
0.0133314
0.0279737
0.0238768
0.024947
0.0299564
0.0285796
0.0243821
0.0254026
0.0304608
0.0135591
0.0137737
0.0291506
0.0248574
0.025833
0.0309375
0.0296972
0.0253108
0.026242
0.0313899
0.0139773
0.01417
0.0302168
0.0257412
0.0266265
0.0318141
0.030703
0.0261443
0.0269868
0.0322113
0.0143493
0.0145184
0.0311609
0.0265238
0.0273269
0.0325863
0.0315947
0.0268831
0.0276478
0.0329392
0.0146774
0.0148274
0.0320022
0.0272209
0.0279485
0.0332694
0.0323838
0.0275375
0.0282309
0.033579
0.0149663
0.0150977
0.0327426
0.0278356
0.028497
0.0338702
0.0330795
0.0281161
0.0287474
0.0341434
0.015221
0.0153356
0.0333944
0.0283794
0.0289828
0.0343997
0.0336895
0.0286268
0.0292048
0.0346407
0.0154431
0.015545
0.0339668
0.02886
0.0294141
0.0348672
0.0342266
0.0290794
0.0296111
0.0350796
0.0156393
0.0157278
0.0344701
0.0292858
0.0297966
0.0352789
0.0346985
0.0294801
0.0299714
0.0354658
0.0158102
0.0158881
0.0349125
0.029663
0.0301358
0.0356405
0.0351125
0.0298347
0.0302903
0.0358037
0.0159595
0.0160261
0.0352992
0.029996
0.0304356
0.0359561
0.0354733