/*--------------------------------*- C++ -*----------------------------------*\
| =========                 |                                                 |
| \\      /  F ield         | OpenFOAM: The Open Source CFD Toolbox           |
|  \\    /   O peration     | Version:  v2006                                 |
|   \\  /    A nd           | Website:  www.openfoam.com                      |
|    \\/     M anipulation  |                                                 |
\*---------------------------------------------------------------------------*/
FoamFile
{
    version     2.0;
    format      ascii;
    class       volScalarField;
    location    "0.022";
    object      omega;
}
// * * * * * * * * * * * * * * * * * * * * * * * * * * * * * * * * * * * * * //

dimensions      [0 0 -1 0 0 0 0];


internalField   nonuniform List<scalar> 
11076
(
0.0109843
0.0109843
0.0109833
0.0109834
0.0109834
0.0109835
0.0109837
0.0109838
0.0109841
0.0109846
0.0109844
0.0109813
0.0109734
0.0109608
0.0109448
0.0109268
0.0109077
0.0108878
0.0108671
0.0108457
0.0108234
0.0108002
0.010776
0.0107509
0.010725
0.0106982
0.0106708
0.0106426
0.0106137
0.0105843
0.0105543
0.0105239
0.0104931
0.010462
0.0104308
0.0103997
0.0103691
0.0103397
0.0103131
0.010292
0.0102823
0.0102957
0.0103569
0.0105173
0.0108701
0.0116033
0.0130825
0.0160095
0.0217286
0.032877
0.0541164
0.0939677
0.167914
0.30439
0.554322
0.994256
1.64196
1.99983
2.65732
2.99596
3.21299
5.37428
8.92778
11.1052
9.78278
25.2613
71.1107
183.576
656.378
5642.56
30637.8
427110
414077
61881.6
14440.3
22149.9
78545.7
401502
388611
83578.3
26698.4
30211.4
86800.3
372525
361136
86542.3
32348.2
34433.2
88374.1
350704
344141
88228.2
35578.8
36793.1
87933.2
336799
331650
87327.8
37249.8
38126.2
87199.7
326185
322488
86537.6
38200
38776.4
86427.2
318219
315400
85831.9
38766.7
39174.7
85770.1
311938
309676
85272.4
39133.5
39458.4
85261.6
306783
304878
84859.8
39399.3
39673.6
84881.6
302383
300729
84549.9
39603.7
39845.3
84592.5
298521
297046
84309.4
39768.1
39987.3
84366.8
295049
293704
84118.5
39905
40107.7
84185.9
291864
290615
83960.8
40021.6
40211.5
84034.5
288893
287715
83824.3
40122.4
40301.9
83901.7
286086
284961
83700.4
40210.2
40380.8
83779.6
283402
282318
83582.8
40287
40450.2
83662.5
280814
279760
83467.2
40354.3
40513.2
83546.6
278297
277265
83350.6
40413.7
40568.1
83428.9
275833
274814
83230.2
40465.2
40615.3
83306.6
273405
272394
83103.8
40509.5
40655.9
83177.8
271000
269992
82970
40547.7
40691.1
83041.3
268606
267596
82827.7
40581
40721.5
82896
266212
265195
82675.5
40609.9
40747.8
82740.2
263806
262778
82511.9
40634.8
40770.3
82572.6
261379
260336
82335.5
40656.1
40789.4
82391.9
258920
257857
82145.4
40674.1
40805.1
82197
256419
255332
81940.2
40688.8
40817.6
81986.5
253866
252751
81718.7
40700.6
40827.4
81759.7
251252
250104
81480.5
40710
40834.9
81515.6
248564
247377
81223.8
40716.9
40839.7
81252.2
245790
244561
80946.5
40721.4
40842.3
80967.8
242920
241642
80647
40724
40842.8
80660.6
239941
238610
80322.4
40723.9
40839.9
80326.6
236842
235452
79970.8
40719.9
40832.6
79962.1
233610
232159
79588
40711.7
40821.3
79565.2
230239
228722
79170.2
40699.4
40804.7
79131.7
226717
225129
78713.1
40680.4
40779.9
78655.5
223034
221371
78210.5
40652.3
40745.8
78132.4
219182
217446
77658.4
40615.1
40701.5
77558.9
215161
213351
77051
40565.5
40641
76924.7
210967
209081
76375.7
40489.7
40556.2
76216.6
206602
204648
75622.4
40389
40446
75423.9
202087
200080
74784.1
40256.7
40300.7
74531.4
197452
195405
73846
40080.4
40105.4
73529.1
192727
190661
72787.2
39844
39845.2
72393.9
187968
185925
71589.6
39542.9
39510.2
71121.8
183265
181289
70252.3
39152.5
39078.9
69707.4
178706
176839
68765
38654.7
38532.9
68135.8
174391
172689
67106
38030.9
37857.1
66396.7
170446
168973
65300
37274.7
37057.2
64543.3
166993
165788
63392.2
36399.1
36142.8
62608.5
164118
163201
61430.6
35425.9
35118.1
60620.4
161848
161224
59438.7
34358.4
34023.3
58658.5
160202
159836
57536.3
33262.1
32920.1
56815.3
159142
159009
55796.8
32190.5
31865.7
55275.9
158650
158611
54365
31195.4
30878.4
53940
158422
158452
53099.4
30231.3
29956.3
52784.9
158362
158439
52070.4
29382.2
29152.7
51841.8
158425
158570
51223.4
28634.8
28460.4
51071.2
158617
158796
50562.2
28000.9
27860
50444.1
158835
159009
49997.6
27439.3
27326.2
49915.1
159050
159234
49545.8
26957
26879.6
49510.9
159290
159476
49214.2
26560.6
26518.8
49222
159551
159743
48988.4
26245.4
26214.3
49012.7
159806
159965
48787.8
25963.3
25938.4
48814.4
159998
160129
48614.3
25706.4
25696.7
48658.4
160172
160326
48507
25502.1
25512.2
48577.2
160395
160559
48463
25349
25369.8
48535.5
160629
160754
48431.4
25210.7
25221.1
48481.9
160776
160876
48369.6
25066.1
25081.8
48434.1
160917
161059
48360.9
24960.5
24989.9
48442.6
161148
161229
48399.2
24883.3
24918.9
48469
161249
161389
48480
24874.2
24887.5
48516.8
161123
161553
48560.1
24854.8
24630.4
48318.4
159749
156354
46752.1
23766.2
22884.1
45216.2
152160
11217
7304.28
5596.81
4622.16
4171.07
3717.72
3454.34
3252.71
3135.29
3064.69
3048.27
3081.21
3164.88
3318.42
3532.3
3864.8
4284.18
4960.14
5585.74
6608.82
8969.75
11202.1
15118.4
25237.5
55112.4
121405
407174
457211
141641
63476
69848.9
157896
519350
584261
177213
79585.7
85108.9
187221
616279
630248
187322
84430.3
88828.6
194350
635858
643750
191809
86337.6
89126.7
197824
643909
644852
191623
86675.6
88905.9
196950
644596
645941
191486
86663
88854.9
196887
645745
647121
191314
86647.3
88822.5
196760
646928
648370
191061
86625.3
88838.4
196381
648150
649624
190789
86628.1
88833.9
196140
649443
650928
190655
86613.1
88821
196089
650772
652340
190359
86615.7
88836.7
195707
652205
653795
190160
86639.1
88846.3
195633
653637
655298
189961
86642.4
88868.8
195327
655178
656880
189681
86704.6
88920.1
195157
656774
658524
189458
86749
88937.9
195028
658454
660256
189349
86815.3
89004.6
195027
660169
662049
189104
86905.6
89129.8
194603
661950
663885
188947
87009.1
89245.6
194505
663831
665820
188907
87119.4
89320.8
194564
665763
667840
188706
87267.8
89515
194294
667803
669924
188754
87425.4
89635.2
194460
669915
672129
188646
87596.5
89868.4
194317
672141
674422
188703
87803.7
90029.7
194518
674444
676832
188683
88020.8
90314.1
194464
676920
679381
188868
88284.2
90550.3
194797
679514
682173
188908
88604.3
90922.1
194821
682454
685388
189295
88913.6
91144.7
195455
685926
689381
189602
89067.4
91157.9
195597
690509
694538
188975
88916.5
90763.8
194023
696282
700501
186177
87939.9
90056.2
190922
701776
705158
181938
86416.3
88582.7
188046
697624
686569
177340
85628.5
87731.2
181747
673339
663298
169968
83985.9
86484.3
176615
650190
641174
166377
84324.3
86293.5
171999
623522
605056
162765
85475.1
88090.9
167121
591932
578780
165149
88567.3
91919.6
167567
567637
567353
171577
93271.7
95849.3
178166
568242
578421
180168
89106.6
62861.3
171784
365560
278274
85331.2
50998.9
51231.2
97699.5
281020
288938
120399
66186.4
51715.4
103703
270173
247226
92828.4
48591.6
43905.2
85530.4
235342
225161
80653.1
41744.3
38536.7
75097.8
219664
213555
69605.3
36336.6
33839
65530.3
215463
224261
68398.9
35142.4
42558.7
78578.5
236727
240685
73530.4
36418.5
35315.2
70566.7
241241
248864
71474.6
35535.4
41278.9
78342
270583
299140
94216.3
51569.5
54712.9
100353
326434
344445
110160
62295.8
55870
104424
346647
340639
98156.1
52460.3
47341
92038.7
332879
339837
89428.1
45540.1
48105.9
88980.5
333225
323172
77771.6
38729.9
28336.7
59185.4
293441
282564
47643
24163.1
22232.2
39991.8
255007
233190
32822.9
18637.6
16889.6
26599.1
201362
183837
22915.1
15529.4
13173.1
20264.4
152967
136045
17699.6
11482.8
10972.9
16298.8
125339
120564
15917.7
10833.6
11180.5
17544.1
122696
125984
16522
10734.6
17954.7
36428.1
141375
153065
56542.1
18529.5
41527.3
100555
172100
185027
122447
52357.7
69509.9
147656
208263
231649
181971
125375
120602
195258
254504
272360
211221
131978
173828
240720
301795
313522
238614
155088
156463
245697
331060
345754
257134
187857
159180
249658
355608
356915
250736
161692
187739
252658
361241
339852
223585
135543
142708
215291
317067
292431
186104
104923
104989
177858
284192
291528
181229
108342
130106
190141
303347
291680
172531
105021
100677
166220
285223
287095
171393
118774
94945.5
152374
278683
271331
145069
94865.2
98930.2
155790
295206
326663
174226
119587
96960.5
157341
324996
335221
149631
97655.2
141802
289984
516676
702480
239740
116890
129642
242621
544764
684575
267772
140916
254737
505873
982623
736994
214252
148558
145197
216013
593293
866338
411464
226797
134368
187230
653851
511349
201468
132953
139371
225333
658138
998459
462903
238514
137152
198084
727030
589833
204170
135345
225415
421375
896885
683453
188069
131086
131303
200099
564606
864147
414080
221575
127610
184229
657614
545629
193335
127463
213156
398092
824334
618754
179448
123272
122948
190258
494314
660500
221254
133077
249717
506517
1.02219e+06
748402
209997
137980
136617
213488
612622
968490
451638
238893
136117
195383
721045
602035
209305
136937
236023
450008
962128
720548
196264
136478
136817
202811
603429
958889
449376
237225
136940
197067
719082
606029
207874
138721
245515
474390
973430
736579
203516
140862
141643
214700
626782
1.04548e+06
496307
256873
153747
187790
833556
771223
375679
222394
128361
185272
606450
530597
201354
131355
228258
421928
855907
655861
189883
133538
135619
203308
563683
908315
439177
235385
136029
194253
685858
584123
208366
137592
241689
453467
938767
715922
200250
140903
143468
214671
620635
1.03803e+06
502098
261055
157673
192215
841160
788216
386508
229800
134821
192795
625791
560519
213787
139624
246721
458724
926077
718113
206646
145863
148276
221128
625237
1.04119e+06
510251
267709
162745
200529
842869
794001
388293
234354
137737
195456
627172
561200
214114
141780
248058
457027
917037
706676
207304
147485
150992
227262
621475
1.05099e+06
513920
273211
166579
202068
854334
810970
399816
241197
142496
204655
646562
585627
226743
147575
267931
498814
989385
812959
204230
166066
238553
389238
780942
622047
201140
141727
147005
223545
563634
935141
473716
258686
153956
215902
721884
637091
236136
157179
281663
523462
1.06784e+06
873306
211797
174403
252711
416280
844875
679059
218216
151131
156768
243128
621499
1.06238e+06
532920
286242
178148
221628
871204
838846
418423
255489
153021
216842
665123
608070
240450
158396
283166
520960
1.03779e+06
855197
218576
178313
256765
419285
831321
671963
222516
154903
160922
247438
619119
1.05386e+06
530613
288727
181527
222587
867947
846487
424895
260537
156845
223239
668942
616077
248012
162709
291119
531301
1.04904e+06
868069
226950
183779
264465
428808
851536
684716
228262
160025
166388
254480
632597
1.07677e+06
544176
298325
188056
232095
889642
868528
437587
268882
162357
230825
685010
633590
256754
168535
299838
546243
1.07429e+06
892821
234415
190174
273336
442514
876787
703781
236827
165789
172452
264043
654865
1.11496e+06
567265
310041
195679
242484
914471
894733
455349
280430
169458
240510
705443
654580
268208
175897
312724
565438
1.11597e+06
919991
244592
198573
285652
461680
910358
729779
247724
173428
180343
276268
678158
1.14779e+06
586080
322121
203942
252544
946811
934307
473346
292189
176982
250398
735951
684154
277869
183713
325994
587960
1.1569e+06
957267
254441
207233
297829
482133
950759
756275
258274
181031
188157
288049
706591
1.19565e+06
609592
335886
212842
263387
976773
967462
493467
304930
184713
261509
764323
712135
289706
191719
339995
615433
1.20056e+06
986866
266806
216226
310783
503024
981920
787829
270422
189116
196633
301548
737100
1.24764e+06
636005
350996
222114
276222
1.01225e+06
1.00021e+06
510361
317533
192356
270739
785223
733016
299745
199528
351697
630072
1.23139e+06
1.01607e+06
275025
223898
321582
516803
1.01518e+06
809092
279140
195753
203407
309610
758128
1.27089e+06
655577
361835
229385
285212
1.0361e+06
1.02712e+06
525844
327871
198787
279952
805071
755753
308953
206059
364503
654223
1.2723e+06
1.04022e+06
287563
231990
332298
531147
1.03674e+06
825108
286459
202082
210070
318014
775504
1.28882e+06
662583
369632
234884
291962
1.0467e+06
1.04623e+06
537125
334905
202249
285828
812449
755403
313479
208701
361714
643790
1.22323e+06
940188
302443
219081
224567
328716
861736
1.41772e+06
714891
395556
246947
307914
1.12986e+06
1.12318e+06
574549
354918
214140
303707
878633
823609
333012
221571
394330
709151
1.36797e+06
1.10405e+06
312324
248829
355877
568995
1.09747e+06
853799
302212
214300
222384
333709
797294
1.28738e+06
679986
384594
231174
321092
993283
910265
341710
235717
416588
756091
1.48738e+06
1.18671e+06
326617
261034
377271
606970
1.18157e+06
914674
321676
225906
232924
352895
853016
1.37208e+06
717545
403662
242538
338064
1.041e+06
950807
358752
246390
432792
780313
1.54205e+06
1.21611e+06
337838
269976
389181
628826
1.21229e+06
932187
330301
232010
240339
362704
869196
1.39251e+06
735178
415478
248112
344568
1.05162e+06
966810
370599
252780
442446
788917
1.57784e+06
1.24054e+06
345213
276535
399628
641547
1.23947e+06
955437
341040
237584
244803
370833
888856
1.40713e+06
742773
421371
251688
349357
1.05473e+06
962569
373340
255906
437891
780124
1.52224e+06
1.12407e+06
364403
259254
261590
385404
1.00803e+06
1.56143e+06
801497
449287
263824
371349
1.14484e+06
1.03801e+06
397396
267875
465280
837912
1.62659e+06
1.20292e+06
389054
272226
273745
402646
1.08085e+06
1.67815e+06
867991
481647
278655
396470
1.22264e+06
1.10253e+06
421835
282318
491527
876976
1.70903e+06
1.25116e+06
405034
284910
286743
427412
1.12973e+06
1.76047e+06
892152
498888
286960
408692
1.27421e+06
1.14196e+06
433228
289760
506405
902759
1.75886e+06
1.27774e+06
415927
291173
293172
436159
1.14637e+06
1.75736e+06
899179
506474
290017
411191
1.27026e+06
1.14444e+06
436065
292376
509900
907472
1.74446e+06
1.24987e+06
416299
290274
291254
432668
1.11444e+06
1.6661e+06
855292
488167
276200
394838
1.16949e+06
999484
411280
276256
294714
480295
1.30746e+06
1.95251e+06
1.00029e+06
534861
297148
441500
1.34386e+06
1.141e+06
474763
302839
309095
488587
1.467e+06
2.14324e+06
1.09347e+06
568717
306288
464545
1.40979e+06
1.17308e+06
477668
306937
321755
541530
1.5139e+06
2.23566e+06
1.12289e+06
592899
318572
483043
1.4995e+06
1.24424e+06
504535
322181
324483
539012
1.54037e+06
2.16455e+06
1.07828e+06
573071
298134
451362
1.3794e+06
1.13762e+06
466155
293880
293033
479661
1.28549e+06
1.52502e+06
589503
318653
312926
588451
1.81105e+06
2.45472e+06
1.25428e+06
623725
311878
502389
1.52878e+06
1.26149e+06
486338
302067
316463
576049
1.42722e+06
1.55937e+06
561101
308791
317857
638375
1.65062e+06
1.70967e+06
634709
310252
317479
681303
1.71783e+06
1.69659e+06
686212
313646
319178
694896
1.66364e+06
1.61629e+06
684436
315342
319697
683666
1.5685e+06
1.51951e+06
659014
314584
318047
660624
1.47339e+06
1.42884e+06
644340
313219
317013
647801
1.38899e+06
1.35194e+06
636649
312964
317734
640876
1.31912e+06
1.28919e+06
632633
314811
320181
636862
1.2624e+06
1.2386e+06
628890
317393
322704
632663
1.21696e+06
1.19802e+06
624419
319779
324178
627652
1.1807e+06
1.16584e+06
618331
320460
324229
621023
1.15205e+06
1.14072e+06
611041
320005
323156
613130
1.12969e+06
1.12151e+06
601893
318494
321561
603424
1.11236e+06
1.10731e+06
591506
317111
319994
592631
1.09972e+06
1.09709e+06
579844
315488
318377
580708
1.09095e+06
1.08975e+06
567955
314049
316689
568743
1.08508e+06
1.08474e+06
555851
312217
314785
556643
1.08139e+06
1.08158e+06
544379
310311
312693
545317
1.07952e+06
1.07959e+06
533387
307991
310291
534450
1.07737e+06
1.0785e+06
523414
305743
307847
524722
1.0771e+06
1.07798e+06
514101
303192
305246
515561
1.07684e+06
1.07788e+06
505851
300646
302562
507580
1.07689e+06
1.07816e+06
498272
297923
299818
500142
1.07724e+06
1.07863e+06
491681
295266
297052
493807
1.07775e+06
1.07921e+06
485645
292476
294261
487882
1.07837e+06
1.07988e+06
480447
289780
291477
482912
1.07908e+06
1.08062e+06
475649
286978
288690
478187
1.07984e+06
1.08142e+06
471537
284292
285935
474278
1.08067e+06
1.08226e+06
467693
281530
283206
470475
1.08154e+06
1.08315e+06
464413
278915
280543
467386
1.08246e+06
1.08408e+06
461295
276260
277937
464282
1.08341e+06
1.08505e+06
458640
273776
275414
461793
1.08439e+06
1.08604e+06
456056
271272
272970
459211
1.08541e+06
1.08706e+06
453784
268947
270613
457162
1.08646e+06
1.08811e+06
451618
266616
268350
455008
1.08752e+06
1.08917e+06
449739
264469
266175
453339
1.0886e+06
1.09024e+06
447929
262320
264098
451523
1.08968e+06
1.09131e+06
446368
260358
262108
450162
1.09076e+06
1.09236e+06
444847
258396
260221
448621
1.09182e+06
1.09338e+06
443548
256623
258421
447508
1.09284e+06
1.09435e+06
442261
254846
256722
446188
1.09382e+06
1.09528e+06
441178
253262
255110
445283
1.09474e+06
1.09613e+06
440101
251670
253596
444166
1.0956e+06
1.09694e+06
439221
250260
252160
443456
1.0964e+06
1.09768e+06
438328
248840
250821
442511
1.09713e+06
1.09836e+06
437616
247605
249557
441962
1.09781e+06
1.09897e+06
436876
246332
248376
441165
1.09842e+06
1.09953e+06
436311
245277
247277
440754
1.09898e+06
1.10004e+06
435703
244105
246227
440079
1.09948e+06
1.1005e+06
435258
243193
245273
439783
1.09995e+06
1.10092e+06
434764
242167
244365
439219
1.10036e+06
1.1013e+06
434428
241389
243540
439026
1.10075e+06
1.10165e+06
434032
240486
242752
438552
1.10109e+06
1.10197e+06
433784
239822
242036
438440
1.10141e+06
1.10226e+06
433465
239024
241349
438038
1.1017e+06
1.10252e+06
433286
238459
240727
437989
1.10197e+06
1.10276e+06
433026
237751
240127
437642
1.10221e+06
1.10299e+06
432900
237270
239586
437642
1.10244e+06
1.1032e+06
432685
236636
239058
437336
1.10265e+06
1.10339e+06
432601
236228
238586
437373
1.10284e+06
1.10356e+06
432422
235664
238125
437102
1.10302e+06
1.10373e+06
432371
235318
237713
437170
1.10319e+06
1.10388e+06
432221
234809
237306
436925
1.10334e+06
1.10402e+06
432196
234518
236946
437017
1.10348e+06
1.10415e+06
432070
234061
236589
436794
1.10361e+06
1.10427e+06
432066
233817
236274
436905
1.10374e+06
1.10438e+06
431958
233404
235959
436698
1.10384e+06
1.10449e+06
431971
233201
235683
436824
1.10395e+06
1.10458e+06
431876
232825
235405
436631
1.10404e+06
1.10467e+06
431902
232658
235163
436769
1.10413e+06
1.10475e+06
431819
232316
234917
436586
1.10421e+06
1.10482e+06
431856
232180
234705
436733
1.10429e+06
1.10489e+06
431781
231867
234488
436558
1.10435e+06
1.10495e+06
431826
231759
234302
436712
1.10442e+06
1.10501e+06
431759
231472
234110
436544
1.10447e+06
1.10506e+06
431811
231389
233948
436704
1.10452e+06
1.1051e+06
431748
231123
233776
436539
1.10456e+06
1.10514e+06
431804
231061
233634
436702
1.1046e+06
1.10518e+06
431744
230814
233481
436539
1.10464e+06
1.10521e+06
431801
230771
233356
436703
1.10467e+06
1.10524e+06
431741
230542
233219
436541
1.1047e+06
1.10527e+06
431799
230512
233107
436704
1.10473e+06
1.1053e+06
431738
230295
232981
436540
1.10476e+06
1.10533e+06
431794
230277
232879
436701
1.1048e+06
1.10537e+06
431732
230068
232762
436535
1.10484e+06
1.10541e+06
431787
230059
232670
436696
1.10489e+06
1.10546e+06
431725
229860
232561
436530
1.10494e+06
1.10551e+06
431780
229860
232476
436692
1.105e+06
1.10557e+06
431719
229668
232375
436529
1.10506e+06
1.10564e+06
431778
229676
232299
436694
1.10514e+06
1.10572e+06
431721
229492
232206
436536
1.10522e+06
1.1058e+06
431786
229509
232139
436708
1.1053e+06
1.10589e+06
431736
229336
232057
436556
1.10539e+06
1.10598e+06
431807
229361
231997
436733
1.10549e+06
1.10607e+06
431761
229194
231919
436583
1.10559e+06
1.10618e+06
431832
229224
231864
436759
1.1057e+06
1.1063e+06
431781
229058
231809
436683
1.10582e+06
1.10644e+06
431808
229044
231637
436611
1.10596e+06
1.10611e+06
431437
228941
231525
436330
1.10502e+06
1.10575e+06
431501
228791
231401
436485
1.10532e+06
1.10551e+06
430965
228264
230979
434691
1.10105e+06
1.09576e+06
426843
225561
222051
422171
1.07627e+06
1.04527e+06
412993
216370
194055
381751
980997
916272
357977
180073
161154
326570
863846
70257.4
35216.4
25279.5
18140.5
11482.6
9584.72
8962.46
6625.94
4821.79
3741.72
2909.07
2226.09
1687.61
1270.61
960.519
733.075
568.243
448.485
360.85
296.007
247.475
210.677
182.547
160.777
144.061
131.162
121.674
114.856
110.414
107.814
106.63
105.742
104.158
101.987
99.3708
96.4825
93.4101
90.2605
87.0432
83.779
80.4582
77.0751
73.6194
70.0816
66.4475
62.6995
58.8105
54.7364
49.6706
42.3657
32.9664
23.4463
15.5166
9.68757
5.72511
3.19303
1.68033
0.856476
0.456214
0.27632
0.20137
0.172012
0.160774
0.156224
0.154095
0.152593
0.151213
0.149899
0.148589
0.147246
0.145845
0.144365
0.142788
0.1411
0.139287
0.137339
0.135248
0.133006
0.130612
0.128064
0.125364
0.122518
0.119536
0.116428
0.113208
0.109894
0.106503
0.103054
0.0995657
0.096059
0.0925516
0.0890628
0.0856083
0.0822045
0.0788639
0.075599
0.0724205
0.0693352
0.0663516
0.0634736
0.0607044
0.0580475
0.0555029
0.0530712
0.050751
0.0485412
0.04644
0.0444438
0.0425503
0.040756
0.0390572
0.0374502
0.0359311
0.0344961
0.033141
0.031862
0.0306556
0.0295173
0.028444
0.0274318
0.0264772
0.0255768
0.0247274
0.023926
0.0231695
0.022455
0.0217799
0.0211417
0.0205381
0.0199667
0.0194256
0.0189128
0.0184266
0.0179655
0.0175279
0.0171126
0.0167184
0.0163443
0.0159893
0.0156526
0.0153334
0.0150308
0.0147443
0.0144732
0.0142168
0.0139746
0.0137459
0.0135301
0.0133268
0.0131353
0.0129552
0.012786
0.0126271
0.0124781
0.0123386
0.0122082
0.0120863
0.0119727
0.0118668
0.0117684
0.0116771
0.0115926
0.0115144
0.0114424
0.0113763
0.0113157
0.0112607
0.011211
0.0111666
0.0111276
0.0110941
0.0110662
0.0110436
0.0110263
0.0110133
0.0110035
0.0109953
0.0109884
0.0109882
0.0109881
0.0109881
0.0109884
0.0109892
0.0109911
0.0109955
0.011002
0.0110096
0.0110167
0.0110206
0.0110195
0.0110137
0.0110046
0.0109932
0.0109803
0.0109662
0.0109507
0.0109341
0.0109161
0.0108969
0.0108763
0.0108546
0.0108317
0.0108077
0.0107827
0.0107569
0.0107303
0.0107032
0.0106762
0.01065
0.0106263
0.0106082
0.0106018
0.0106192
0.0106839
0.0108426
0.0111866
0.0118948
0.013314
0.0161128
0.0215696
0.0320859
0.0521024
0.089677
0.15912
0.285385
0.511544
0.911859
1.61575
2.85077
5.00496
8.64512
14.2372
21.3495
28.3146
33.8359
39.2157
51.8606
94.4034
260.743
1133.52
2641.95
7747.7
8905.9
9637.39
10611.6
11093.8
11868.7
12197.3
12830.4
13062
13582.7
13759.8
14187.2
14324.6
14681.2
14788.8
15091.9
15176.9
15438.9
15506.4
15735.9
15789.5
15993.2
16035.7
16218.4
16251.9
16417.5
16443.7
16595.2
16615.4
16755.2
16770.3
16900.3
16911.3
17032.9
17040.4
17155.1
17159.9
17268.9
17271.4
17375.9
17376.7
17477.4
17477
17574.6
17573.6
17669
17667.4
17761.2
17759.3
17852.1
17850.3
17942.9
17941.3
18034.5
18033.4
18127.8
18127.4
18223.5
18224.2
18322.4
18324.6
18425.2
18428.9
18532.4
18537.9
18644.7
18652.4
18762.6
18772.1
18885.8
18897
19014.3
19027.7
19148.3
19163.4
19286.2
19301.4
19425.2
19440
19563
19576.5
19694.9
19704
19813.3
19814
19904.5
19896.9
19961.2
19943.2
19972.3
19933.7
19937.9
19851.4
19827.9
19690.1
19636.5
19440.8
19356.9
19104.4
18988
18679.8
18541.8
18192
18041.2
17668.9
17513.2
17137.6
16975.3
16603
16447
16090.7
15951.2
15617.8
15489.3
15183.2
15062.6
14776.7
14665.9
14402.8
14306.6
14070.9
13991.3
13784.5
13713.6
13521.6
13454.4
13274.3
13216.5
13058.1
13014
12877.4
12841.8
12714.5
12675.8
12549.8
12518
12410.4
12386.8
12287.5
12286.7
12216.7
12153.7
12158.7
11893.6
11795.1
7537.37
7673.6
5798.5
5689.9
4630.66
4643.42
4557.46
6020.34
7837.86
7972.28
6244.02
6017.65
7923.96
8054.13
6303.16
4627.43
4684.21
6080.54
8010.85
8149.4
6387.09
6165.06
8112.85
8263.02
6479.62
4747.97
4809.22
6255.24
8229.43
8388.07
6577.33
6350.16
8357.16
8518.81
6678.24
4879.84
4949.66
6449.7
8487.45
8659.11
6789.01
6559.92
8630.93
8816.53
6912.07
5024.37
5105.03
6680.55
8793.26
8991.83
7043.62
6806.55
8970.83
9178.51
7179.68
5190.94
5279.3
6939.14
9157.86
9377.77
7326.84
7083.66
9359.55
9596.71
7487.82
5372.32
5470.12
7238.77
9583.02
9836.01
7657.31
7399.45
9824.15
10090.3
7832.92
5572.04
5674.7
7567.38
10079.8
10358.7
8017.25
7742.07
10347.8
10638.8
8207.88
5777.8
5878.83
7919.3
10628.8
10929.7
8398.84
8093.49
10919.9
11225.8
8584.77
5975
6059.46
8260.01
11212.5
11513.7
8759.99
8411.72
11491.3
11782.9
8916.18
6127.91
6175.09
8539.48
11751
12022.3
9042.48
8634.97
11978.9
12221
9133.23
6196.79
6191.26
8694.17
12162
12367.3
9182.81
8712.47
12288.8
12444.5
9187.88
6164.45
6111.07
8692.2
12332.9
12464.2
9156.64
8644.61
12327.8
12443.8
9092.46
6028.31
5918.72
8564.92
12280.2
12385.1
9000.9
8460.85
12195.8
12292.6
8888.02
5795.23
5664.39
8340.23
12084.5
12176.8
8764.55
8209.73
11956.3
12045.6
8633.56
5530.28
5394.81
8075.36
11817.6
11904.5
8498.31
7940.61
11673.1
11759.1
8362.94
5260.24
5129.1
7808.51
11527.9
11614.9
8230.25
7680.36
11386
11474.2
8102.66
5002.22
4879.53
7555.61
11248.2
11337.8
7979.41
7435.3
11115.4
11206.8
7860.94
4761.23
4647.62
7320.06
10988.6
11082.1
7747.49
7209.52
10867.8
10962.9
7638.3
4538.05
4432.06
7102.99
10752.1
10848.6
7532.84
7000.17
10641.2
10739.4
7430.97
4329.02
4228.11
6900.72
10535
10634.6
7332.35
6804.17
10432.5
10533.1
7236.16
4129.91
4034.13
6709.95
10333
10434.5
7141.92
6617.6
10235.9
10338.2
7049.04
3940.32
3847.82
6526.48
10140.5
10243.3
6956.85
6435.9
10045.8
10148.8
6864.56
3756.29
3665.41
6345.21
9950.81
10053.7
6771.42
6253.63
9854.55
9957
6676.43
3574.89
3484.53
6160.2
9755.8
9857.41
6578.3
6063.68
9653.38
9753.83
6475.15
3394.26
3304.27
5962.15
9546.45
9645.55
6365.69
5854.38
9434.52
9532.24
6251.1
3212.96
3118.17
5741.79
9316.96
9413.02
6131.18
5624
9192.76
9286.76
6005.21
3020.33
2919.07
5500.33
9060.64
9152.1
5872.2
5369.81
8919.16
9007.55
5731.06
2813.83
2704.05
5231.43
8766.74
8851.45
5580.67
5084.1
8601.64
8682.02
5419.81
2589.11
2468.35
4926.69
8422.01
8497.3
5247.21
4758.02
8225.74
8295.06
5061.75
2341.19
2207.37
4577.12
8010.35
8072.59
4862.42
4383.21
7772.64
7826.3
4647.62
2067.55
1922.83
4174.79
7508.43
7551.56
4414.55
3947.45
7212.91
7243.59
4162.81
1769.39
1607.44
3699.11
6880.29
6896.02
3886.69
3427.32
6504.01
6501.16
3582.33
1436.48
1256.27
3128.19
6072.02
6039.86
3245.19
2799.67
5574.18
5505.57
2872.56
1066.83
868.238
2436.42
4993.93
4880.44
2457.62
2038.98
4324.61
4127.77
1990.73
660.925
451.475
1602.2
3546.6
3233.56
1473.61
175.043
271.858
373.218
473.863
572.435
668.469
761.823
852.422
940.297
1025.42
1108.32
1189.17
1268.09
1345.21
1420.63
1494.49
1566.96
1638.21
1708.36
1777.77
1846.73
1915.61
1984.78
2054.53
2125.05
2196.56
2269.28
2343.56
2419.33
2499.2
2582.92
2670.37
2761.44
2856.32
2955.13
3058.06
3165.37
3277.22
3393.34
3513.41
3637.02
3762.86
3888.59
4011.55
4128.7
4233.79
4321.44
4392.87
4441.61
4469.35
4467.1
4454.41
4425.41
4382.47
4331.96
4277.89
4222.59
4167.83
4114.35
4063.16
4014.37
3968.04
3923.77
3882.35
3842.92
3806.38
3767.73
3737.23
3697.71
3674.47
3601.76
3720.46
4261.66
4209.69
3719.99
3464.63
3479.16
3256.59
3255.26
3140.31
3147.07
3200.74
3052.68
3067.46
3066.34
3049.76
3051.75
3084.19
3082.52
3164.25
3162.82
3109.03
3410.73
3327.34
3322.38
3532.63
3530.55
3901.96
3882.72
4301.82
4307.46
4089.31
5734.25
5192.51
5084.58
5760.07
5838.57
7977.95
7505.45
10898.1
11792.3
12192.5
12526.1
12381.2
16863.6
17783.2
30527.1
29076.2
33827.4
19980.5
21699.6
35375
34649.5
19967.6
12958.4
8520.88
9100.3
13269.1
20004.8
21974.3
36593.1
35225.1
36709.3
22103.3
20100.8
13203.6
8707.98
5891.39
4164.76
3428.1
3118.51
3066.06
3231.5
3243.49
3069.43
3116.73
3428.26
3418.69
3109.68
3070.93
3260.05
3272.67
3071.13
3070.93
3288.75
3303.01
3068.83
3074.22
3088.77
3100.89
3405.77
3387.48
3364.73
3336.81
3056.55
3065.59
3318.69
3334.14
3061.21
3056.06
3351.77
3370.23
3050.65
2984.49
3011.62
3035.74
3302.78
3262.15
3214.38
3159
2954.5
3045.14
3390.6
3412.61
3040.1
3036.79
3436.82
3463
3035.46
2852.49
2887.63
2921.96
3095.69
3024.87
2947.34
3519.95
3655.12
3771.62
3869.19
3947.35
4009.88
4059.43
4098.11
4127.01
4149.08
4162.73
4171.24
4169.16
5906.35
8775.28
9258.99
13577.6
13409.1
13733.1
9367.75
8878.27
5953.12
5965.72
5984.6
5985.21
9178.54
9707.16
9079.79
9593.97
8978.32
9479.98
13902.7
13577.4
20578.1
22605.7
20510.9
22533.9
20332.8
22358.8
20251.7
22272.7
36735.2
35317
35439.3
36872.9
35532.9
37008.6
35655.7
37056.3
35760
37236.8
22798.5
20767.8
22876.2
37299.8
35895.4
36014.3
20842.5
13747.2
14081.5
21041.7
23079.2
37494.9
36163.9
37570.8
23165
21125
13925
14266.9
14108.7
14457.9
9818.99
9274.08
5981.55
5966.49
5937.17
5891.17
9481.77
10096.4
9433.39
10021.1
9361.01
9925.62
14653.5
14297.9
21742.8
23810.9
21640.6
23703.3
21424.6
23477.4
21333.3
23380.4
37781.7
36295.6
36464.4
37878.1
36614.6
38106.7
36810.4
38216.6
36969.7
38472.1
24050.2
21972.3
24172
38605.6
37189.5
37368.1
22083.8
14491.2
14852
22325.9
24426.1
38884.1
37599.1
39045.2
24562.1
22448.1
14685.9
15048.6
14877.3
15238.3
10142.7
9502.65
5825.79
5705.6
5529.46
5315.8
9174.16
9916.33
9366.26
10072
9470.51
10139.2
15407.6
15059.3
23264.9
25440
23121.1
25272
22845.9
24980.9
22710.3
24831.8
39348.6
37815.7
38075.7
39539.1
38319.7
39874.9
38615.7
40103.5
38896.3
40478.6
25745.6
23550.5
25921.3
40755.4
39227.9
39531.2
23695.3
15218.1
15539
23967.5
26221.7
41131.1
39849.4
41330.8
26386.8
24092.6
15329
15582.7
15352.2
15500.5
9637.22
8830.48
5029.63
3361.57
2863.92
2818.01
3035.77
3490.6
3519.19
3039.47
3044.96
3546.47
3569.7
3050.08
2735.36
2758.47
2786.31
2777.92
2692.32
2611.38
2538.79
2715.93
3052.01
3581.74
3585.54
3047.3
3026.37
3573.58
3538.68
2987.41
2598.93
2661.76
2696.01
2481.58
2416.33
2323.57
2211.65
2503.45
2915.82
3485.52
3405.95
2818.39
2702.7
3306.82
3193.75
2579.91
2135.66
2262.31
2387.93
2079.94
1943.14
1810.04
1684.98
2012.69
2457.46
3074.47
2953.4
2337.78
2223.06
2833.29
2716.26
2114.67
1686.99
1787.31
1896.11
1570.12
1465.79
1371.92
1133.36
1222.44
1324.11
1439.67
1570.6
1716.76
1876.7
2043.25
2196.71
2332.11
2438.15
2585.13
2794.4
2995.26
3185.72
4681.13
4273.77
3795.88
6579.58
7627.79
7567.57
8525.96
8298.25
9197.76
15155.4
15205.9
25389.8
27698.5
24979.7
27277.9
24564.4
26876.3
24358
26666.7
41632
40037.4
40117.6
41658.8
40367.1
41983.9
40859.5
42710.5
41798.1
43633.3
28242.9
25872.6
28720.7
45238.7
43152
44939.6
26218.5
14693.8
14271.5
26478.4
29137.2
47693.9
47682.3
51586.7
29024.3
25984.2
13394
12812.5
11378.1
9893.94
6307.33
5462.97
3270
2787.67
2567.61
2317.32
2855.34
3133.68
3271.03
3741.89
4135.11
5055.16
7866.93