/*--------------------------------*- C++ -*----------------------------------*\
| =========                 |                                                 |
| \\      /  F ield         | OpenFOAM: The Open Source CFD Toolbox           |
|  \\    /   O peration     | Version:  v2006                                 |
|   \\  /    A nd           | Website:  www.openfoam.com                      |
|    \\/     M anipulation  |                                                 |
\*---------------------------------------------------------------------------*/
FoamFile
{
    version     2.0;
    format      ascii;
    class       volScalarField;
    location    "0.022";
    object      turbulenceProperties:L;
}
// * * * * * * * * * * * * * * * * * * * * * * * * * * * * * * * * * * * * * //

dimensions      [0 1 0 0 0 0 0];


internalField   nonuniform List<scalar> 
11076
(
1999.81
1999.8
2000
2000
2000
2000
2000
2000
2000
1999.85
1999.48
1998.76
1997.8
1996.82
1995.98
1995.31
1994.77
1994.31
1993.9
1993.52
1993.16
1992.83
1992.51
1992.21
1991.94
1991.68
1991.44
1991.23
1991.02
1990.84
1990.67
1990.51
1990.36
1990.22
1990.06
1989.85
1989.54
1988.97
1987.9
1985.77
1981.48
1972.8
1955.14
1919.49
1851.63
1729.52
1529.53
1246.36
915.779
603.618
365.755
210.104
117.284
64.5387
35.3526
19.6633
11.8816
9.74024
7.32455
6.49567
6.05774
3.62242
2.18105
1.75357
1.99075
0.770718
0.273557
0.105803
0.0295184
0.00341585
0.000623664
4.26203e-05
4.14223e-05
0.000301372
0.00132623
0.000852373
0.000228882
4.04755e-05
3.99546e-05
0.000208272
0.000695733
0.000602909
0.000193438
3.99819e-05
3.99284e-05
0.000188862
0.000553324
0.000509306
0.00017921
3.98855e-05
3.97033e-05
0.000175554
0.000485188
0.000460193
0.000171752
3.9651e-05
3.96074e-05
0.000170324
0.000448659
0.000430609
0.000166947
3.956e-05
3.95259e-05
0.000166466
0.000425311
0.000412313
0.000163706
3.94852e-05
3.94574e-05
0.000163584
0.000408833
0.00039872
0.000161212
3.94223e-05
3.93986e-05
0.000161199
0.000396192
0.000387714
0.000159109
3.93677e-05
3.93468e-05
0.000159073
0.000385816
0.000378435
0.000157222
3.93188e-05
3.92999e-05
0.000157165
0.000376984
0.000370389
0.000155493
3.92742e-05
3.92567e-05
0.000155425
0.000369259
0.000363273
0.000153891
3.92325e-05
3.9216e-05
0.000153816
0.000362354
0.000356876
0.000152389
3.9193e-05
3.91771e-05
0.000152316
0.000356114
0.00035105
0.000150978
3.91549e-05
3.91395e-05
0.000150911
0.000350411
0.000345688
0.000149646
3.91178e-05
3.91027e-05
0.000149589
0.000345152
0.000340716
0.000148386
3.90814e-05
3.90664e-05
0.000148342
0.000340265
0.000336073
0.000147191
3.90452e-05
3.90302e-05
0.000147161
0.000335695
0.000331695
0.000146054
3.90091e-05
3.8994e-05
0.000146037
0.000331391
0.000327566
0.000144967
3.89728e-05
3.89575e-05
0.000144964
0.00032733
0.00032366
0.000143928
3.89361e-05
3.89205e-05
0.000143939
0.000323481
0.000319949
0.000142931
3.88987e-05
3.88827e-05
0.000142957
0.000319818
0.000316409
0.000141973
3.88605e-05
3.8844e-05
0.000142013
0.000316317
0.000313017
0.00014105
3.88212e-05
3.88042e-05
0.000141103
0.000312958
0.000309754
0.000140158
3.87807e-05
3.8763e-05
0.000140225
0.000309723
0.000306606
0.000139295
3.87386e-05
3.87202e-05
0.000139375
0.000306597
0.000303556
0.000138457
3.86948e-05
3.86754e-05
0.00013855
0.000303565
0.000300593
0.00013764
3.86489e-05
3.86285e-05
0.000137746
0.000300616
0.000297704
0.000136841
3.86006e-05
3.85791e-05
0.000136959
0.000297736
0.000294875
0.000136056
3.85496e-05
3.85267e-05
0.000136186
0.000294911
0.000292091
0.000135282
3.84955e-05
3.84709e-05
0.000135423
0.000292127
0.000289341
0.000134514
3.84376e-05
3.84113e-05
0.000134666
0.000289371
0.00028661
0.000133749
3.83756e-05
3.83472e-05
0.000133914
0.000286632
0.000283889
0.000132985
3.83088e-05
3.82781e-05
0.000133164
0.0002839
0.000281172
0.000132222
3.82365e-05
3.8203e-05
0.000132412
0.000281171
0.000278453
0.000131458
3.81579e-05
3.81214e-05
0.000131659
0.000278438
0.000275722
0.000130692
3.80722e-05
3.80323e-05
0.000130908
0.00027569
0.000272974
0.000129924
3.79784e-05
3.79345e-05
0.000130155
0.000272929
0.000270214
0.000129156
3.78751e-05
3.78267e-05
0.000129405
0.000270155
0.000267438
0.000128388
3.77612e-05
3.77078e-05
0.000128661
0.000267366
0.000264644
0.000127624
3.76355e-05
3.75764e-05
0.000127926
0.00026457
0.000261857
0.000126873
3.74961e-05
3.74305e-05
0.000127215
0.000261838
0.000259119
0.000126155
3.73413e-05
3.72685e-05
0.000126546
0.000259159
0.000256433
0.00012549
3.71697e-05
3.70896e-05
0.000125938
0.000256581
0.000253865
0.000124916
3.69806e-05
3.68925e-05
0.000125422
0.000254171
0.000251508
0.000124457
3.67724e-05
3.6676e-05
0.000125046
0.000252035
0.000249463
0.00012417
3.65449e-05
3.64415e-05
0.000124873
0.000250227
0.000247823
0.000124106
3.63013e-05
3.61931e-05
0.00012495
0.000248948
0.000246778
0.000124323
3.60455e-05
3.59346e-05
0.000125343
0.000248352
0.000246495
0.000124906
3.57823e-05
3.56723e-05
0.000126156
0.000248621
0.000247141
0.000125943
3.55214e-05
3.54197e-05
0.000127436
0.000249923
0.000248827
0.000127433
3.52778e-05
3.51895e-05
0.000129184
0.000252319
0.000251644
0.000129389
3.50624e-05
3.49908e-05
0.000131361
0.000255794
0.000255678
0.000131799
3.48811e-05
3.48295e-05
0.000133952
0.00026044
0.000260788
0.000134517
3.47446e-05
3.47151e-05
0.00013674
0.00026597
0.000266677
0.000137374
3.46568e-05
3.46465e-05
0.000139495
0.000272014
0.000272872
0.0001397
3.46159e-05
3.4612e-05
0.000141621
0.000278048
0.000279008
0.000141579
3.45937e-05
3.45958e-05
0.000143406
0.000284279
0.000285012
0.000143148
3.45884e-05
3.45961e-05
0.000144735
0.000289886
0.000290306
0.000144332
3.45966e-05
3.46103e-05
0.000145763
0.00029493
0.000294959
0.000145252
3.46146e-05
3.46297e-05
0.000146429
0.000299189
0.000298929
0.000145862
3.46313e-05
3.46453e-05
0.000146865
0.000302846
0.000302298
0.000146218
3.46484e-05
3.46649e-05
0.000147042
0.000305803
0.000304947
0.000146328
3.46713e-05
3.46886e-05
0.000146991
0.000308052
0.000306945
0.000146246
3.46956e-05
3.47118e-05
0.000146775
0.000309667
0.000308551
0.000146042
3.47158e-05
3.47277e-05
0.00014654
0.00031103
0.000309835
0.000145811
3.47294e-05
3.47403e-05
0.000146239
0.000312112
0.000310799
0.000145506
3.47451e-05
3.47596e-05
0.000145842
0.000312751
0.00031136
0.000145128
3.47663e-05
3.47807e-05
0.000145408
0.000313065
0.000311687
0.000144766
3.47858e-05
3.47949e-05
0.00014499
0.000313311
0.000311992
0.000144382
3.4795e-05
3.48022e-05
0.000144604
0.000313506
0.00031217
0.000143989
3.48061e-05
3.48189e-05
0.00014416
0.000313394
0.000311982
0.000143562
3.48175e-05
3.4836e-05
0.000143676
0.000313144
0.000311764
0.000143191
3.48579e-05
3.48367e-05
0.000143005
0.000311814
0.000310882
0.000142635
3.49245e-05
3.48119e-05
0.000142164
0.000310227
0.000312815
0.000142715
3.52875e-05
3.62713e-05
0.0001482
0.000325713
0.000340143
0.000154252
3.74925e-05
0.000813118
0.00140233
0.00199741
0.00259821
0.00303686
0.0035896
0.00401115
0.00439636
0.0046728
0.00487661
0.004978
0.00498083
0.00488345
0.00467252
0.00438368
0.00398013
0.00354504
0.0029984
0.00259715
0.00211042
0.00144941
0.00108533
0.000736123
0.0003913
0.000154658
6.50486e-05
1.5638e-05
1.38289e-05
5.49956e-05
0.000131953
0.000118531
4.91739e-05
1.20605e-05
1.05845e-05
4.31109e-05
0.000102874
9.62979e-05
4.08364e-05
9.96367e-06
9.73648e-06
4.09431e-05
9.75135e-05
9.24379e-05
3.92362e-05
9.62575e-06
9.54973e-06
3.9969e-05
9.6064e-05
9.28168e-05
3.8597e-05
9.53742e-06
9.5827e-06
4.02161e-05
9.64398e-05
9.38421e-05
3.89796e-05
9.57653e-06
9.61484e-06
4.0462e-05
9.72493e-05
9.46444e-05
3.92128e-05
9.60836e-06
9.64914e-06
4.07205e-05
9.80899e-05
9.54719e-05
3.94562e-05
9.64232e-06
9.68376e-06
4.101e-05
9.89608e-05
9.6303e-05
3.97484e-05
9.67933e-06
9.72072e-06
4.13129e-05
9.98425e-05
9.71684e-05
4.00316e-05
9.7168e-06
9.75834e-06
4.15959e-05
0.000100784
9.80636e-05
4.02996e-05
9.75313e-06
9.79695e-06
4.1929e-05
0.000101729
9.89904e-05
4.06274e-05
9.79373e-06
9.8373e-06
4.22539e-05
0.000102712
9.99492e-05
4.09254e-05
9.83347e-06
9.87846e-06
4.25942e-05
0.000103732
0.000100934
4.1263e-05
9.8766e-06
9.92199e-06
4.29588e-05
0.000104739
0.000101933
4.15944e-05
9.92055e-06
9.96659e-06
4.33296e-05
0.000105802
0.000102974
4.19444e-05
9.96308e-06
1.00113e-05
4.36881e-05
0.000106888
0.000104031
4.22715e-05
1.00079e-05
1.00573e-05
4.40913e-05
0.00010797
0.00010507
4.26837e-05
1.00563e-05
1.01056e-05
4.44895e-05
0.000109102
0.000106153
4.30613e-05
1.01044e-05
1.01547e-05
4.48718e-05
0.000110255
0.000107292
4.34229e-05
1.01521e-05
1.02051e-05
4.53126e-05
0.00011139
0.000108388
4.38415e-05
1.02054e-05
1.02569e-05
4.57005e-05
0.000112558
0.000109537
4.4206e-05
1.02556e-05
1.03101e-05
4.61341e-05
0.000113739
0.000110633
4.46158e-05
1.03109e-05
1.03653e-05
4.65192e-05
0.000114907
0.000111794
4.49685e-05
1.03644e-05
1.04212e-05
4.69309e-05
0.000116067
0.000112869
4.53478e-05
1.04238e-05
1.04807e-05
4.72584e-05
0.000117196
0.000113962
4.56362e-05
1.04825e-05
1.05437e-05
4.76018e-05
0.000118263
0.000114989
4.59357e-05
1.05511e-05
1.06154e-05
4.78357e-05
0.000119403
0.000116177
4.61118e-05
1.06259e-05
1.07015e-05
4.80886e-05
0.000120843
0.000117776
4.63914e-05
1.07243e-05
1.08108e-05
4.86088e-05
0.000122851
0.000120023
4.71177e-05
1.08466e-05
1.09313e-05
4.9787e-05
0.000126284
0.000122857
4.82567e-05
1.09558e-05
1.10192e-05
5.14566e-05
0.000130755
0.000126949
4.93254e-05
1.11232e-05
1.13662e-05
5.30533e-05
0.000133893
0.000130033
5.13344e-05
1.15668e-05
1.17959e-05
5.56496e-05
0.0001387
0.000134056
5.29288e-05
1.20106e-05
1.22403e-05
5.69296e-05
0.000140265
0.000136665
5.46267e-05
1.25548e-05
1.30354e-05
5.86403e-05
0.000141226
0.000136961
5.6865e-05
1.33943e-05
1.3964e-05
5.92146e-05
0.000140584
0.000136105
5.86186e-05
1.45577e-05
1.53443e-05
5.9563e-05
0.000140708
0.000140225
5.80581e-05
1.6339e-05
1.75482e-05
6.29711e-05
0.000171012
0.000262417
7.55646e-05
2.93766e-05
4.12181e-05
0.000176319
0.000345427
0.000351429
0.000153794
4.05834e-05
4.04091e-05
0.000121177
0.000261882
0.000359678
0.000152226
4.5451e-05
5.1671e-05
0.000177892
0.000393199
0.000452878
0.000203448
5.62686e-05
6.07765e-05
0.000223625
0.000489109
0.000546979
0.000250939
6.44132e-05
6.81397e-05
0.000280958
0.000595928
0.00066021
0.000309814
6.92317e-05
6.75927e-05
0.000302339
0.000644527
0.000529762
0.000262435
6.40167e-05
6.57737e-05
0.000292047
0.000638968
0.000673608
0.000313292
6.71091e-05
6.65701e-05
0.00031701
0.000684248
0.00059458
0.00029153
6.10524e-05
5.47864e-05
0.000240194
0.000472813
0.000449025
0.000227231
5.03882e-05
4.86772e-05
0.000208549
0.000394726
0.00045098
0.000226687
5.03194e-05
5.35614e-05
0.000248437
0.000490633
0.000556773
0.000272465
5.69278e-05
5.73873e-05
0.000285799
0.000587087
0.000558881
0.000290863
6.01055e-05
6.46937e-05
0.000340509
0.000705488
0.000978474
0.000458853
7.42992e-05
7.94477e-05
0.000576749
0.00115157
0.00124908
0.000689083
9.05257e-05
0.000101385
0.00083919
0.00147596
0.0016125
0.0010313
0.00011963
0.000132601
0.00118714
0.00173203
0.00199361
0.00132393
0.000160825
0.000181278
0.00149225
0.00224789
0.002339
0.00160668
0.000196434
0.000203771
0.0016406
0.00236676
0.00229519
0.00148854
0.000199228
0.000193113
0.00159068
0.00240237
0.00145338
0.00072121
0.000170525
0.000156153
0.000462878
0.00142377
0.000634697
0.000255226
0.00013764
0.000126909
0.00020669
0.000503922
0.000374898
0.00016682
0.000111681
9.94083e-05
0.000130614
0.000198129
0.000205095
0.000119296
8.93923e-05
8.25151e-05
0.00010758
0.00018217
0.000130289
9.15879e-05
7.32953e-05
6.94279e-05
9.01571e-05
0.000146626
0.000141935
8.53274e-05
6.44808e-05
6.05181e-05
7.91786e-05
0.000111719
0.000133867
7.92312e-05
5.74027e-05
5.58382e-05
7.73348e-05
0.000128196
0.00010404
7.33924e-05
5.36398e-05
5.54237e-05
8.31095e-05
0.000152408
0.000139993
8.32849e-05
5.76026e-05
6.0697e-05
9.70684e-05
0.000202133
0.000195379
9.8826e-05
6.0652e-05
5.74209e-05
9.45768e-05
0.000182019
0.000139164
8.62443e-05
5.34271e-05
5.36822e-05
9.4909e-05
0.000179382
0.000184927
9.68246e-05
5.32778e-05
5.10998e-05
8.93592e-05
0.000143954
0.000190491
0.000101782
5.10984e-05
5.1047e-05
0.000104542
0.00018328
0.000169044
9.35892e-05
4.55613e-05
3.9959e-05
7.87877e-05
0.000127956
0.00016674
8.82444e-05
3.87564e-05
3.69971e-05
9.14185e-05
0.000160978
9.70347e-05
4.2064e-05
2.30659e-05
1.61963e-05
4.88073e-05
0.000125286
0.000101524
4.51829e-05
2.02648e-05
1.56965e-05
3.90616e-05
8.74531e-05
4.01708e-05
1.87346e-05
1.0096e-05
1.36683e-05
4.86408e-05
7.82511e-05
7.73725e-05
4.65603e-05
1.69353e-05
1.14002e-05
2.19397e-05
4.11068e-05
8.52183e-05
5.42573e-05
1.52676e-05
1.95699e-05
4.82091e-05
8.1068e-05
7.29212e-05
4.13174e-05
1.51406e-05
1.00797e-05
1.85454e-05
3.6499e-05
7.65291e-05
4.70039e-05
1.3362e-05
1.65798e-05
4.4234e-05
7.49229e-05
3.77895e-05
2.00431e-05
1.10333e-05
1.4028e-05
4.91626e-05
7.91347e-05
7.61064e-05
4.49131e-05
1.71321e-05
1.14372e-05
2.03424e-05
3.81418e-05
8.07927e-05
4.98297e-05
1.45907e-05
1.77865e-05
4.61072e-05
7.78414e-05
3.95759e-05
2.11151e-05
1.20585e-05
1.55815e-05
5.08422e-05
8.31024e-05
7.85807e-05
4.64322e-05
1.97488e-05
1.50812e-05
3.84162e-05
6.86242e-05
3.2631e-05
1.64064e-05
9.87281e-06
1.26874e-05
4.10484e-05
6.75976e-05
6.6323e-05
3.91016e-05
1.57638e-05
1.04337e-05
1.78107e-05
3.32914e-05
6.68729e-05
4.2527e-05
1.30951e-05
1.60555e-05
3.87837e-05
6.39734e-05
3.30457e-05
1.77365e-05
1.05359e-05
1.30471e-05
4.10609e-05
6.41145e-05
6.2199e-05
3.90326e-05
1.60109e-05
1.06297e-05
1.75267e-05
3.20746e-05
6.30232e-05
4.04437e-05
1.30744e-05
1.59105e-05
3.77368e-05
6.02202e-05
3.11517e-05
1.69011e-05
1.03383e-05
1.26349e-05
3.83652e-05
5.91821e-05
5.74589e-05
3.61505e-05
1.53754e-05
9.90247e-06
1.57524e-05
2.91044e-05
5.30518e-05
4.1536e-05
1.14083e-05
1.2894e-05
2.07024e-05
3.36753e-05
6.76384e-05
4.27731e-05
1.5307e-05
1.81114e-05
3.91133e-05
6.37338e-05
3.32413e-05
1.87653e-05
1.19105e-05
1.43814e-05
4.18093e-05
6.38861e-05
6.11752e-05
3.88324e-05
1.73057e-05
1.14102e-05
1.82085e-05
3.229e-05
6.25802e-05
4.08962e-05
1.39252e-05
1.69562e-05
3.76783e-05
5.95772e-05
3.17791e-05
1.80368e-05
1.12083e-05
1.34477e-05
3.90893e-05
5.8417e-05
5.51798e-05
3.57966e-05
1.61463e-05
1.03345e-05
1.65265e-05
2.89702e-05
5.06474e-05
4.01219e-05
1.16542e-05
1.31955e-05
2.07105e-05
3.3017e-05
6.10098e-05
4.04881e-05
1.53841e-05
1.79026e-05
3.60606e-05
5.65674e-05
3.07389e-05
1.8154e-05
1.15074e-05
1.35565e-05
3.73449e-05
5.41417e-05
5.14992e-05
3.43527e-05
1.62996e-05
1.05172e-05
1.65558e-05
2.79281e-05
4.72993e-05
3.74917e-05
1.1769e-05
1.33123e-05
2.07662e-05
3.15975e-05
5.66339e-05
3.88497e-05
1.54588e-05
1.80946e-05
3.51075e-05
5.32992e-05
2.99488e-05
1.82841e-05
1.18181e-05
1.39595e-05
3.68989e-05
5.21711e-05
4.93222e-05
3.34052e-05
1.66521e-05
1.05782e-05
1.67858e-05
2.73151e-05
4.56545e-05
3.71424e-05
1.17589e-05
1.33323e-05
2.05661e-05
3.06803e-05
5.41518e-05
3.72174e-05
1.52955e-05
1.77718e-05
3.34274e-05
5.03935e-05
2.79496e-05
1.75089e-05
1.1281e-05
1.2412e-05
3.66652e-05
4.52335e-05
3.08536e-05
2.12065e-05
1.39334e-05
1.5972e-05
3.77016e-05
5.3826e-05
5.03059e-05
3.38635e-05
1.85826e-05
1.2046e-05
1.83708e-05
2.87995e-05
4.95056e-05
3.55881e-05
1.41353e-05
1.69092e-05
3.24912e-05
4.67681e-05
2.67568e-05
1.72557e-05
1.0868e-05
1.19437e-05
3.51643e-05
4.22018e-05
2.89965e-05
2.0295e-05
1.33587e-05
1.50886e-05
3.45449e-05
4.9718e-05
4.62429e-05
3.11685e-05
1.74546e-05
1.10159e-05
1.71148e-05
2.61934e-05
4.09091e-05
3.35504e-05
1.20637e-05
1.3583e-05
2.02262e-05
2.85008e-05
4.84216e-05
3.4394e-05
1.54731e-05
1.79484e-05
3.12684e-05
4.52161e-05
2.63694e-05
1.7687e-05
1.13957e-05
1.23687e-05
3.3962e-05
4.06571e-05
2.84011e-05
2.04597e-05
1.38652e-05
1.55413e-05
3.37341e-05
4.80486e-05
4.47277e-05
3.06506e-05
1.79145e-05
1.14277e-05
1.76295e-05
2.60902e-05
4.01737e-05
3.35952e-05
1.24165e-05
1.39027e-05
2.0472e-05
2.81986e-05
4.73637e-05
3.36679e-05
1.58309e-05
1.82765e-05
3.07309e-05
4.42415e-05
2.60794e-05
1.79577e-05
1.16926e-05
1.26506e-05
3.33507e-05
3.99458e-05
2.80939e-05
2.068e-05
1.40861e-05
1.57709e-05
3.33641e-05
4.69737e-05
4.37689e-05
3.04183e-05
1.81801e-05
1.16502e-05
1.79033e-05
2.58548e-05
3.9449e-05
3.30457e-05
1.26011e-05
1.41362e-05
2.05957e-05
2.79326e-05
4.65196e-05
3.32374e-05
1.6102e-05
1.85257e-05
3.04346e-05
4.34797e-05
2.6019e-05
1.82163e-05
1.19082e-05
1.2796e-05
3.31833e-05
3.94188e-05
2.78933e-05
2.08182e-05
1.42857e-05
1.59999e-05
3.29179e-05
4.62123e-05
4.30993e-05
3.0121e-05
1.83272e-05
1.17592e-05
1.79458e-05
2.56277e-05
3.88211e-05
3.25991e-05
1.27564e-05
1.43028e-05
2.0644e-05
2.75804e-05
4.56133e-05
3.27663e-05
1.62179e-05
1.86402e-05
3.0076e-05
4.26852e-05
2.57483e-05
1.82906e-05
1.19544e-05
1.29349e-05
3.27536e-05
3.8719e-05
2.75422e-05
2.08369e-05
1.43564e-05
1.60373e-05
3.23647e-05
4.52188e-05
4.22457e-05
2.97062e-05
1.84176e-05
1.19123e-05
1.80729e-05
2.54758e-05
3.83001e-05
3.22907e-05
1.28678e-05
1.43287e-05
2.06709e-05
2.73741e-05
4.47908e-05
3.2395e-05
1.62475e-05
1.8643e-05
2.9891e-05
4.19258e-05
2.55578e-05
1.83365e-05
1.20676e-05
1.29853e-05
3.25263e-05
3.82099e-05
2.73565e-05
2.08098e-05
1.43836e-05
1.61501e-05
3.19814e-05
4.44664e-05
4.16182e-05
2.94436e-05
1.84582e-05
1.19603e-05
1.81089e-05
2.52918e-05
3.78394e-05
3.20162e-05
1.30103e-05
1.44543e-05
2.07205e-05
2.72064e-05
4.41527e-05
3.20511e-05
1.63163e-05
1.86889e-05
2.96599e-05
4.13767e-05
2.53983e-05
1.82999e-05
1.21552e-05
1.31122e-05
3.21787e-05
3.78332e-05
2.72422e-05
2.08783e-05
1.45198e-05
1.6151e-05
3.16215e-05
4.39038e-05
4.11228e-05
2.91732e-05
1.84631e-05
1.1981e-05
1.80937e-05
2.51381e-05
3.74905e-05
3.16534e-05
1.31037e-05
1.45977e-05
2.08501e-05
2.71112e-05
4.3723e-05
3.19906e-05
1.65398e-05
1.89146e-05
2.96909e-05
4.10412e-05
2.55001e-05
1.85846e-05
1.23598e-05
1.33049e-05
3.23024e-05
3.77573e-05
2.73171e-05
2.1159e-05
1.46928e-05
1.64548e-05
3.17155e-05
4.37929e-05
4.1071e-05
2.93952e-05
1.87565e-05
1.22871e-05
1.83337e-05
2.54147e-05
3.75372e-05
3.18167e-05
1.33488e-05
1.48376e-05
2.11325e-05
2.72925e-05
4.37661e-05
3.20983e-05
1.68243e-05
1.913e-05
2.98822e-05
4.11526e-05
2.56705e-05
1.86997e-05
1.25051e-05
1.35619e-05
3.21553e-05
3.77839e-05
2.75169e-05
2.14662e-05
1.50079e-05
1.68121e-05
3.20583e-05
4.39471e-05
4.12525e-05
2.9751e-05
1.91091e-05
1.26328e-05
1.88443e-05
2.5903e-05
3.8001e-05
3.22488e-05
1.37865e-05
1.52102e-05
2.16025e-05
2.77821e-05
4.46297e-05
3.26939e-05
1.73334e-05
1.98921e-05
3.06123e-05
4.21569e-05
2.66307e-05
1.96362e-05
1.35247e-05
1.55919e-05
3.20631e-05
4.15062e-05
3.97937e-05
3.00873e-05
1.81645e-05
1.21544e-05
1.83728e-05
2.52941e-05
3.71299e-05
3.16023e-05
1.3419e-05
1.48706e-05
2.10743e-05
2.72612e-05
4.31336e-05
3.16435e-05
1.68153e-05
1.91567e-05
2.96523e-05
4.06901e-05
2.56707e-05
1.87514e-05
1.2716e-05
1.38834e-05
3.16659e-05
3.72999e-05
2.7556e-05
2.16751e-05
1.54113e-05
1.75292e-05
3.22995e-05
4.37941e-05
4.12749e-05
3.02245e-05
2.0028e-05
1.36284e-05
1.97275e-05
2.64875e-05
4.08218e-05
3.16396e-05
1.56367e-05
1.82063e-05
3.01243e-05
3.93237e-05
2.5287e-05
1.84262e-05
1.2342e-05
1.35711e-05
3.1194e-05
3.64851e-05
2.70609e-05
2.11978e-05
1.50501e-05
1.71433e-05
3.11944e-05
4.23092e-05
4.01976e-05
2.94122e-05
1.96177e-05
1.34041e-05
1.94532e-05
2.60556e-05
3.95857e-05
3.08661e-05
1.55691e-05
1.81868e-05
2.9497e-05
3.83114e-05
2.49994e-05
1.84779e-05
1.23983e-05
1.37387e-05
3.08671e-05
3.59652e-05
2.69465e-05
2.124e-05
1.52414e-05
1.7425e-05
3.1126e-05
4.19819e-05
3.98312e-05
2.93857e-05
1.99337e-05
1.36723e-05
1.96851e-05
2.60328e-05
3.96576e-05
3.11563e-05
1.59246e-05
1.85178e-05
2.95874e-05
3.83278e-05
2.52623e-05
1.88343e-05
1.25443e-05
1.39628e-05
3.11123e-05
3.61243e-05
2.72194e-05
2.16253e-05
1.54741e-05
1.76609e-05
3.11575e-05
4.20928e-05
4.01735e-05
2.96237e-05
2.02439e-05
1.40595e-05
2.01379e-05
2.64931e-05
4.01113e-05
3.16615e-05
1.64639e-05
1.92615e-05
3.02207e-05
3.88379e-05
2.60314e-05
1.96969e-05
1.34647e-05
1.59369e-05
3.08406e-05
3.94361e-05
3.84101e-05
2.96682e-05
1.89509e-05
1.35001e-05
1.96052e-05
2.57909e-05
3.9123e-05
3.06964e-05
1.60328e-05
1.88315e-05
2.93251e-05
3.79324e-05
2.54267e-05
1.92339e-05
1.32211e-05
1.55641e-05
2.98788e-05
3.84303e-05
3.75601e-05
2.90144e-05
1.84011e-05
1.315e-05
1.89227e-05
2.50013e-05
3.79116e-05
2.96605e-05
1.56564e-05
1.85e-05
2.84612e-05
3.68206e-05
2.48779e-05
1.90276e-05
1.31251e-05
1.55624e-05
2.94819e-05
3.75397e-05
3.66609e-05
2.83976e-05
1.83668e-05
1.3005e-05
1.89673e-05
2.48272e-05
3.754e-05
2.93487e-05
1.55756e-05
1.85301e-05
2.8287e-05
3.6577e-05
2.48217e-05
1.91191e-05
1.32557e-05
1.58048e-05
2.94975e-05
3.74981e-05
3.66336e-05
2.85117e-05
1.87307e-05
1.34394e-05
1.93893e-05
2.50936e-05
3.8015e-05
2.98843e-05
1.59978e-05
1.89224e-05
2.884e-05
3.70924e-05
2.52747e-05
1.96062e-05
1.37656e-05
1.66015e-05
3.02679e-05
3.85253e-05
3.77641e-05
2.94489e-05
1.97652e-05
1.45438e-05
2.07298e-05
2.63638e-05
4.0731e-05
3.187e-05
1.78516e-05
2.1917e-05
3.20362e-05
4.00108e-05
3.73682e-05
2.90883e-05
1.80146e-05
1.32849e-05
1.92736e-05
2.56106e-05
3.89847e-05
2.99902e-05
1.65728e-05
2.06507e-05
2.96781e-05
3.77757e-05
3.6569e-05
2.84507e-05
1.69353e-05
1.27886e-05
1.82862e-05
2.48607e-05
3.81735e-05
2.89985e-05
1.65073e-05
2.07802e-05
2.96082e-05
3.75556e-05
3.56259e-05
2.72174e-05
1.71692e-05
1.26402e-05
1.8369e-05
2.45155e-05
3.74563e-05
2.85961e-05
1.60329e-05
2.04257e-05
2.89342e-05
3.63673e-05
3.56334e-05
2.73623e-05
1.7475e-05
1.3488e-05
1.92271e-05
2.51903e-05
3.9926e-05
3.0414e-05
1.75575e-05
2.26157e-05
3.04288e-05
3.96337e-05
3.90754e-05
3.01693e-05
2.09841e-05
1.88068e-05
2.75429e-05
3.64929e-05
3.63677e-05
2.67822e-05
1.6341e-05
1.30024e-05
1.82516e-05
2.45521e-05
3.9179e-05
2.91484e-05
1.72811e-05
2.19475e-05
2.93755e-05
3.92286e-05
3.74269e-05
2.80362e-05
2.03325e-05
1.94522e-05
2.79505e-05
3.78053e-05
3.67166e-05
2.63582e-05
1.89169e-05
1.87374e-05
2.59582e-05
3.70874e-05
3.64192e-05
2.54589e-05
1.8685e-05
1.8766e-05
2.53457e-05
3.6659e-05
3.63225e-05
2.58334e-05
1.88227e-05
1.88009e-05
2.62933e-05
3.66049e-05
3.65606e-05
2.70302e-05
1.87608e-05
1.87123e-05
2.81946e-05
3.70297e-05
3.7379e-05
2.89645e-05
1.86646e-05
1.86117e-05
2.9976e-05
3.7942e-05
3.85855e-05
3.08166e-05
1.85618e-05
1.85098e-05
3.15873e-05
3.917e-05
3.99637e-05
3.21801e-05
1.84615e-05
1.84131e-05
3.29326e-05
4.05515e-05
4.15097e-05
3.32434e-05
1.83679e-05
1.83246e-05
3.40534e-05
4.21896e-05
4.34552e-05
3.41297e-05
1.82838e-05
1.82459e-05
3.49189e-05
4.42364e-05
4.56609e-05
3.49497e-05
1.82101e-05
1.8178e-05
3.57585e-05
4.65461e-05
4.79742e-05
3.57842e-05
1.81474e-05
1.81216e-05
3.66246e-05
4.89904e-05
5.04297e-05
3.6645e-05
1.80958e-05
1.80766e-05
3.75584e-05
5.15372e-05
5.29347e-05
3.75836e-05
1.80543e-05
1.80429e-05
3.8535e-05
5.40218e-05
5.52942e-05
3.85537e-05
1.80239e-05
1.80188e-05
3.95579e-05
5.63588e-05
5.74678e-05
3.9572e-05
1.80034e-05
1.80021e-05
4.05844e-05
5.84851e-05
5.94602e-05
4.05772e-05
1.79905e-05
1.79916e-05
4.16108e-05
6.04658e-05
6.12945e-05
4.15848e-05
1.79837e-05
1.79862e-05
4.25969e-05
6.22851e-05
6.29909e-05
4.25244e-05
1.79737e-05
1.7984e-05
4.35328e-05
6.39859e-05
6.45615e-05
4.34356e-05
1.7987e-05
1.79841e-05
4.43955e-05
6.55345e-05
6.60032e-05
4.42608e-05
1.79814e-05
1.79857e-05
4.52057e-05
6.69904e-05
6.73472e-05
4.50445e-05
1.79838e-05
1.79884e-05
4.59315e-05
6.83317e-05
6.85997e-05
4.57328e-05
1.79869e-05
1.79921e-05
4.66015e-05
6.95957e-05
6.97731e-05
4.638e-05
1.79908e-05
1.79962e-05
4.71887e-05
7.07639e-05
7.08721e-05
4.69325e-05
1.79949e-05
1.80006e-05
4.77275e-05
7.18772e-05
7.19111e-05
4.74537e-05
1.79993e-05
1.8005e-05
4.81929e-05
7.29128e-05
7.28942e-05
4.78882e-05
1.80038e-05
1.80096e-05
4.86221e-05
7.39139e-05
7.38334e-05
4.83054e-05
1.80085e-05
1.80142e-05
4.89892e-05
7.48506e-05
7.473e-05
4.86453e-05
1.80131e-05
1.80188e-05
4.93322e-05
7.5766e-05
7.55923e-05
4.89809e-05
1.80178e-05
1.80234e-05
4.96237e-05
7.66229e-05
7.6417e-05
4.92457e-05
1.80225e-05
1.80281e-05
4.98984e-05
7.74635e-05
7.72097e-05
4.95178e-05
1.80272e-05
1.80328e-05
5.01314e-05
7.82478e-05
7.79704e-05
4.97274e-05
1.80319e-05
1.80374e-05
5.03564e-05
7.90203e-05
7.87042e-05
4.99522e-05
1.80366e-05
1.80421e-05
5.05554e-05
7.97399e-05
7.94093e-05
5.01228e-05
1.80413e-05
1.80467e-05
5.07437e-05
8.04492e-05
8.00779e-05
5.03085e-05
1.80459e-05
1.80513e-05
5.09049e-05
8.11022e-05
8.07188e-05
5.04427e-05
1.80505e-05
1.80558e-05
5.10584e-05
8.1745e-05
8.13181e-05
5.05952e-05
1.8055e-05
1.80602e-05
5.11861e-05
8.23218e-05
8.18785e-05
5.06964e-05
1.80594e-05
1.80645e-05
5.13067e-05
8.28787e-05
8.2391e-05
5.0817e-05
1.80636e-05
1.80685e-05
5.14026e-05
8.33679e-05
8.28691e-05
5.08869e-05
1.80677e-05
1.80724e-05
5.14924e-05
8.38415e-05
8.33052e-05
5.0979e-05
1.80715e-05
1.80761e-05
5.15603e-05
8.42542e-05
8.37141e-05
5.10222e-05
1.80752e-05
1.80795e-05
5.16232e-05
8.46573e-05
8.40816e-05
5.10893e-05
1.80785e-05
1.80827e-05
5.16653e-05
8.49972e-05
8.44207e-05
5.11086e-05
1.80817e-05
1.80856e-05
5.17048e-05
8.53354e-05
8.47254e-05
5.11536e-05
1.80846e-05
1.80884e-05
5.17257e-05
8.56158e-05
8.5008e-05
5.11547e-05
1.80873e-05
1.80908e-05
5.17476e-05
8.59075e-05
8.52636e-05
5.11839e-05
1.80897e-05
1.80931e-05
5.17529e-05
8.6131e-05
8.5496e-05
5.11707e-05
1.8092e-05
1.80952e-05
5.17631e-05
8.6397e-05
8.57164e-05
5.11902e-05
1.80941e-05
1.80972e-05
5.17587e-05
8.6581e-05
8.59094e-05
5.11681e-05
1.8096e-05
1.80989e-05
5.17607e-05
8.68077e-05
8.60915e-05
5.11802e-05
1.80977e-05
1.81006e-05
5.17484e-05
8.69531e-05
8.62492e-05
5.11512e-05
1.80993e-05
1.81021e-05
5.17439e-05
8.71466e-05
8.63999e-05
5.11578e-05
1.81008e-05
1.81034e-05
5.17263e-05
8.7261e-05
8.65291e-05
5.11244e-05
1.81022e-05
1.81047e-05
5.17177e-05
8.74271e-05
8.66539e-05
5.11276e-05
1.81035e-05
1.81059e-05
5.16967e-05
8.75158e-05
8.67596e-05
5.10914e-05
1.81047e-05
1.8107e-05
5.16856e-05
8.76593e-05
8.68632e-05
5.10926e-05
1.81058e-05
1.81081e-05
5.16626e-05
8.77267e-05
8.69496e-05
5.10552e-05
1.81068e-05
1.8109e-05
5.16503e-05
8.78517e-05
8.70361e-05
5.10555e-05
1.81077e-05
1.81099e-05
5.16265e-05
8.79022e-05
8.71069e-05
5.10175e-05
1.81086e-05
1.81108e-05
5.16137e-05
8.80117e-05
8.71784e-05
5.10176e-05
1.81095e-05
1.81116e-05
5.15895e-05
8.80467e-05
8.72356e-05
5.09795e-05
1.81103e-05
1.81123e-05
5.15765e-05
8.81431e-05
8.72953e-05
5.09795e-05
1.8111e-05
1.8113e-05
5.15524e-05
8.81669e-05
8.73419e-05
5.09417e-05
1.81117e-05
1.81137e-05
5.15395e-05
8.82495e-05
8.73899e-05
5.09419e-05
1.81124e-05
1.81143e-05
5.15155e-05
8.82627e-05
8.74274e-05
5.09045e-05
1.8113e-05
1.81148e-05
5.15031e-05
8.83367e-05
8.74675e-05
5.09053e-05
1.81135e-05
1.81154e-05
5.14796e-05
8.83417e-05
8.74977e-05
5.08685e-05
1.81141e-05
1.81159e-05
5.1468e-05
8.84085e-05
8.7531e-05
5.08701e-05
1.81146e-05
1.81164e-05
5.14452e-05
8.84066e-05
8.7555e-05
5.08343e-05
1.81151e-05
1.81168e-05
5.14344e-05
8.84674e-05
8.75827e-05
5.08367e-05
1.81155e-05
1.81173e-05
5.14125e-05
8.84597e-05
8.76015e-05
5.08018e-05
1.81159e-05
1.81177e-05
5.14026e-05
8.85153e-05
8.76244e-05
5.08052e-05
1.81163e-05
1.8118e-05
5.13816e-05
8.85026e-05
8.76388e-05
5.07712e-05
1.81167e-05
1.81184e-05
5.13726e-05
8.85539e-05
8.76575e-05
5.07754e-05
1.8117e-05
1.81187e-05
5.13524e-05
8.85369e-05
8.76681e-05
5.07423e-05
1.81174e-05
1.8119e-05
5.13443e-05
8.85849e-05
8.76839e-05
5.07475e-05
1.81177e-05
1.81193e-05
5.13251e-05
8.85646e-05
8.76915e-05
5.07156e-05
1.8118e-05
1.81196e-05
5.13182e-05
8.86097e-05
8.77048e-05
5.07219e-05
1.81182e-05
1.81198e-05
5.13001e-05
8.85867e-05
8.77102e-05
5.06911e-05
1.81185e-05
1.81201e-05
5.12943e-05
8.86294e-05
8.77212e-05
5.06986e-05
1.81187e-05
1.81203e-05
5.12774e-05
8.86045e-05
8.77252e-05
5.0669e-05
1.81189e-05
1.81205e-05
5.12728e-05
8.86459e-05
8.77351e-05
5.06777e-05
1.81192e-05
1.81208e-05
5.1257e-05
8.862e-05
8.77384e-05
5.06493e-05
1.81194e-05
1.8121e-05
5.12536e-05
8.8661e-05
8.77482e-05
5.06592e-05
1.81196e-05
1.81212e-05
5.1239e-05
8.86345e-05
8.77509e-05
5.06319e-05
1.81199e-05
1.81215e-05
5.12366e-05
8.8675e-05
8.77602e-05
5.06427e-05
1.81201e-05
1.81217e-05
5.12229e-05
8.86479e-05
8.77625e-05
5.06162e-05
1.81204e-05
1.8122e-05
5.12212e-05
8.86878e-05
8.77711e-05
5.06276e-05
1.81207e-05
1.81223e-05
5.12081e-05
8.86598e-05
8.77725e-05
5.06016e-05
1.8121e-05
1.81226e-05
5.12068e-05
8.86987e-05
8.77802e-05
5.06133e-05
1.81213e-05
1.81229e-05
5.11938e-05
8.86695e-05
8.77803e-05
5.05873e-05
1.81216e-05
1.81232e-05
5.11926e-05
8.87067e-05
8.77861e-05
5.05991e-05
1.81219e-05
1.81235e-05
5.11796e-05
8.8676e-05
8.7785e-05
5.05733e-05
1.81222e-05
1.81238e-05
5.11787e-05
8.87124e-05
8.77905e-05
5.05856e-05
1.81225e-05
1.81241e-05
5.11665e-05
8.86814e-05
8.77896e-05
5.0561e-05
1.81229e-05
1.81245e-05
5.1167e-05
8.87189e-05
8.77884e-05
5.05649e-05
1.81232e-05
1.81249e-05
5.11588e-05
8.87032e-05
8.78244e-05
5.05693e-05
1.81237e-05
1.81367e-05
5.11992e-05
8.87175e-05
8.78434e-05
5.05972e-05
1.81463e-05
1.81483e-05
5.11841e-05
8.875e-05
8.78596e-05
5.05711e-05
1.81471e-05
1.81649e-05
5.12356e-05
8.88998e-05
8.79031e-05
5.07824e-05
1.82317e-05
1.83528e-05
5.1723e-05
8.97702e-05
9.09795e-05
5.22771e-05
1.87148e-05
1.93598e-05
5.33154e-05
9.30305e-05
0.000102158
5.74783e-05
2.07848e-05
2.23953e-05
6.10099e-05
0.000108622
0.000118438
6.66585e-05
2.39363e-05
0.000226163
0.00040334
0.000565196
0.000850715
0.00148472
0.00185921
0.0020442
0.00297505
0.00426694
0.00560887
0.00728428
0.00955727
0.0126148
0.0167318
0.0220874
0.0288793
0.0371879
0.0470472
0.0584033
0.0711307
0.0850184
0.0998117
0.115142
0.130688
0.145814
0.160121
0.172582
0.182805
0.190148
0.194725
0.196882
0.198538
0.201559
0.205851
0.211275
0.217604
0.224765
0.232611
0.241213
0.250614
0.260962
0.27242
0.285212
0.299616
0.31601
0.334909
0.357068
0.38366
0.422811
0.495757
0.637188
0.896057
1.35422
2.16949
3.67186
6.58544
12.5181
24.5687
46.1441
76.2213
104.641
122.561
131.189
135.07
136.994
138.397
139.714
140.989
142.284
143.633
145.065
146.606
148.28
150.113
152.128
154.351
156.808
159.525
162.53
165.849
169.512
173.547
177.982
182.844
188.162
193.961
200.269
207.111
214.511
222.494
231.084
240.301
250.168
260.704
271.929
283.861
296.512
309.904
324.041
338.94
354.612
371.057
388.287
406.299
425.098
444.677
465.025
486.143
508.011