/*--------------------------------*- C++ -*----------------------------------*\
| =========                 |                                                 |
| \\      /  F ield         | OpenFOAM: The Open Source CFD Toolbox           |
|  \\    /   O peration     | Version:  v2006                                 |
|   \\  /    A nd           | Website:  www.openfoam.com                      |
|    \\/     M anipulation  |                                                 |
\*---------------------------------------------------------------------------*/
FoamFile
{
    version     2.0;
    format      ascii;
    class       volScalarField;
    location    "0.112";
    object      yPlus;
}
// * * * * * * * * * * * * * * * * * * * * * * * * * * * * * * * * * * * * * //

dimensions      [0 0 0 0 0 0 0];


internalField   uniform 0;

boundaryField
{
    bottomEmptyFaces
    {
        type            empty;
    }
    topEmptyFaces
    {
        type            empty;
    }
    inlet
    {
        type            calculated;
        value           uniform 0;
    }
    outlet
    {
        type            calculated;
        value           uniform 0;
    }
    walls
    {
        type            calculated;
        value           nonuniform List<scalar> 
1055
(
30.3892
29.6509
28.9729
28.3498
27.7874
27.2805
26.8293
26.4229
26.0581
25.7287
25.4354
25.1751
24.9518
24.7605
24.5994
24.4606
24.3439
24.2423
24.1567
24.0821
24.0222
23.9733
23.9365
23.9064
23.8841
23.8657
23.8531
23.843
23.8368
23.8318
23.8306
23.8289
23.8302
23.8322
23.8351
23.8394
23.8436
23.8485
23.8522
23.856
23.8581
23.8607
23.861
23.8624
23.8609
23.8609
23.8574
23.8559
23.8508
23.8481
23.8418
23.8378
23.8307
23.8258
23.818
23.8122
23.8043
23.7982
23.79
23.7837
23.7755
23.7691
23.7607
23.7541
23.7458
23.7393
23.7308
23.7244
23.7159
23.7095
23.7013
23.6948
23.6866
23.6803
23.6725
23.6665
23.659
23.6536
23.6466
23.6419
23.6353
23.6314
23.6255
23.6225
23.6172
23.6151
23.6107
23.6093
23.6058
23.6051
23.6025
23.6024
23.6008
23.6011
23.6006
23.6015
23.602
23.6033
23.6049
23.6067
23.6091
23.6115
23.6144
23.6177
23.621
23.6251
23.6288
23.6335
23.6377
23.643
23.6476
23.6534
23.6584
23.6646
23.67
23.6766
23.6824
23.6894
23.6955
23.7029
23.7093
23.7169
23.7236
23.7315
23.7384
23.7465
23.7537
23.762
23.7694
23.778
23.7855
23.7942
23.8019
23.8107
23.8186
23.8275
23.8355
23.8445
23.8526
23.8616
23.8698
23.8788
23.887
23.8961
23.9043
23.9134
23.9216
23.9306
23.9388
23.9478
23.956
23.965
23.9731
23.982
23.9902
23.9991
24.0072
24.016
24.0241
24.0329
24.041
24.0498
24.0578
24.0667
24.0747
24.0837
24.0917
24.1006
24.1086
24.1176
24.1256
24.1347
24.1426
24.1516
24.1595
24.1684
24.1761
24.185
24.1924
24.2012
24.2082
24.2252
24.2242
24.2247
24.2392
24.2485
24.254
24.2801
24.289
24.3167
24.2762
24.2162
23.9996
24.1586
24.568
8.41531
7.27002
6.56955
11.3967
10.537
9.67221
7.98038
18.262
13.3595
11.5843
11.49
12.7109
9.2948
7.94775
12.4885
11.3841
13.6562
13.633
10.7137
9.17514
9.75761
9.7004
8.54036
7.37668
10.1307
9.9144
8.84826
7.48146
9.11749
7.60319
8.60712
7.38637
9.64515
10.1133
8.56421
7.43934
8.39617
7.33879
8.40452
7.17877
6.50131
10.4464
10.9371
9.73559
10.6148
9.48879
10.4124
9.21343
9.93808
9.25841
10.1397
10.1254
10.5461
9.32733
10.2192
11.5511
8.39091
8.85029
8.9973
9.71416
10.3247
10.7744
11.8689
8.5923
9.07721
9.59102
10.3881
8.36397
9.00523
10.0056
7.28783
7.63029
8.80014
9.06907
10.1631
7.39543
7.77374
8.02524
8.48842
9.16944
9.53543
8.14748
8.71127
8.42005
9.12707
8.67045
9.40227
8.33994
8.89655
10.7537
9.39653
9.77459
7.73424
8.18633
10.5566
7.64723
8.08851
10.4336
9.09683
9.40272
8.29495
9.02128
7.96806
8.52854
7.5852
7.89052
9.877
10.2882
11.3822
8.27043
8.73502
8.85654
9.75094
11.0331
7.91994
8.39682
8.68704
9.27992
9.13367
9.94976
9.65176
10.1042
8.9726
9.7389
8.65019
9.52463
8.5194
9.20847
9.45952
9.83281
10.8766
8.03001
8.27721
8.66528
9.41201
9.13583
9.98681
8.82048
9.57105
8.6685
9.10878
7.85716
7.65805
7.3314
7.04565
9.58864
7.41946
7.8446
8.36057
8.53068
9.46701
7.03655
7.19395
8.39581
8.59268
9.73527
7.09199
7.42442
7.59005
8.02611
8.15789
8.26712
7.03698
7.25673
7.98035
7.98653
7.82422
7.78819
9.16671
6.85764
7.00825
9.20183
7.87107
7.93387
6.82077
7.00921
9.0675
7.3436
7.03293
8.98215
7.79222
7.7768
8.69435
6.72
6.72266
7.80961
7.71185
6.63987
6.7016
6.6791
6.81628
9.25136
7.96359
8.03173
9.30195
6.92816
7.13021
6.88535
7.07317
9.00195
8.79065
7.41027
6.98343
8.36204
6.95572
6.53429
8.29054
7.18091
6.54027
8.50378
7.06129
6.53884
8.43193
7.05102
6.51065
8.03674
6.36097
6.23838
8.20859
6.77774
6.40292
7.74813
7.29975
8.37215
7.708
7.45484
6.46318
6.44697
8.7193
8.69673
7.2891
6.87735
7.35285
6.8978
7.09838
6.82416
8.9583
7.20249
6.91856
8.54339
6.60741
6.66819
8.73154
8.95207
10.0695
7.38318
7.69501
9.90497
7.22144
7.51362
8.5827
8.83024
7.77676
8.27002
7.86808
8.35112
8.7168
9.03811
8.04729
8.5657
13.2266
11.3567
8.65285
11.2567
8.33593
11.6951
9.74887
7.02406
10.6818
10.3573
7.15563
12.2685
9.97611
26.1818
24.6555
8.24717
8.76351
6.12581
25.2942
21.2209
21.2241
20.3935
10.3524
20.1543
8.82893
25.4048
7.71896
20.6703
8.90096
6.10626
20.1087
21.4453
20.903
10.6803
9.56325
8.42465
7.43531
8.23895
5.9464
28.0673
26.4954
21.8384
21.3864
22.115
21.5561
25.0743
22.0461
20.9293
27.1908
23.2888
22.3722
9.95961
8.99936
8.47044
7.98043
7.33215
8.54284
6.08751
10.5263
9.67886
9.12943
8.62981
8.20515
7.67396
6.97282
7.80203
5.71199
9.66792
8.92719
8.49109
8.12835
7.82029
7.52182
7.27339
7.05736
6.92365
6.78025
6.4194
7.76078
5.36258
9.80692
9.27457
8.96474
8.79533
8.59726
13.9708
8.37723
8.20453
8.06748
7.91706
7.82233
10.9714
12.014
7.67977
12.0643
12.5098
10.3906
11.2101
13.4666
11.6617
12.1853
9.70593
10.2928
10.6811
11.7164
7.58837
7.54897
7.42928
7.30589
7.21328
7.13189
7.05905
6.99794
14.7095
10.543
11.1999
12.6124
13.1709
11.5813
12.7025
6.94762
6.90988
6.87911
6.85947
6.83785
6.81856
6.80631
6.79461
13.5548
14.1641
12.38
13.4581
6.78695
6.77625
6.7737
6.77209
6.76609
6.76022
6.75916
6.75823
13.8138
14.2617
13.2225
14.3321
12.5233
13.5172
16.0909
11.6545
12.3672
6.75308
15.786
6.74742
6.74557
11.3722
12.0435
6.74034
6.73693
12.2811
13.1607
6.72687
6.72333
6.7177
15.2183
11.8301
12.9108
13.0675
13.597
11.8002
12.7703
11.0029
11.6353
11.3564
12.2324
11.301
12.3165
12.1869
12.6639
11.0793
12.1949
14.1186
10.1853
10.7814
10.876
11.7204
14.4449
11.1692
12.0994
10.4315
10.9913
12.3937
12.9317
10.7927
11.6584
10.1599
10.703
19.2145
14.3653
14.94
6.71382
6.70363
6.69814
6.6935
20.6948
6.68332
6.67439
6.66896
19.9929
6.66435
14.5056
15.4453
17.3344
17.4068
19.8396
16.8609
17.2371
14.6186
15.3584
16.72
16.9912
6.65358
6.64338
6.63641
6.63086
6.62058
6.61124
6.60488
6.59943
6.5887
6.579
6.57255
6.56686
6.55598
6.5463
6.54072
15.4337
6.53545
15.7247
16.2546
16.7837
14.4234
15.4051
18.2123
13.1213
13.93
6.52513
6.51541
6.50949
6.50449
6.4948
6.48513
6.47953
6.47138
17.4708
13.9945
14.9623
12.9078
13.6463
13.3586
14.2875
17.0982
14.6262
15.1906
12.2531
13.0325
14.8166
15.4491
18.3917
15.7114
16.2043
13.3011
14.0614
19.2335
19.0431
13.9684
14.6316
16.2744
16.4859
16.1392
16.6134
6.46619
14.1274
6.45446
14.8891
6.44953
6.44259
6.438
6.42705
6.42209
6.41497
21.4049
6.41046
6.39926
15.8963
16.6163
6.39467
6.38815
6.38345
6.37311
6.36833
22.1924
6.36433
21.9122
18.1172
17.8866
18.7167
18.9036
19.8442
19.9203
23.5536
6.3556
18.8557
6.35017
18.703
6.34189
6.34086
6.33321
22.7718
6.32781
6.3227
18.7565
18.4266
6.31527
22.9664
17.8962
18.4222
16.804
17.3747
18.091
18.3391
15.4998
16.1541
6.31374
6.30767
6.31132
6.37438
6.41675
6.51307
6.77774
7.13269
29.2513
25.9534
30.2699
23.7725
22.1224
30.0424
27.2003
26.9126
23.3586
22.2718
9.90676
10.746
33.0632
32.1506
31.0791
32.8831
25.5262
23.4488
30.7883
26.7756
25.4315
22.9561
12.5319
30.5718
9.97951
10.9171
10.8387
11.2607
29.1024
35.3132
27.513
25.5112
10.2496
11.2109
10.0367
11.0008
35.8006
12.8061
11.1216
11.5894
9.28155
9.78967
36.4664
9.79203
10.5819
9.13001
9.57286
36.8813
36.7898
36.8806
36.5545
35.8021
13.1619
34.8737
10.7564
11.7123
10.4428
11.4864
10.25
11.0729
9.52029
10.0159
10.4163
11.3904
11.3373
11.7814
10.2202
11.1425
33.9204
32.9695
32.0518
31.1897
9.60645
10.5638
11.985
8.67324
9.16179
9.33256
10.0555
9.78645
10.7287
25.0506
7.58344
36.471
33.1929
31.0012
29.531
28.4213
27.3887
26.6569
25.9466
25.5499
25.0744
24.7908
24.4221
24.2085
23.9079
23.7399
23.4854
23.3472
23.1238
23.0058
22.8044
22.7008
22.5154
22.4219
22.2482
22.162
21.9971
21.9162
21.7582
21.6813
21.5286
21.4547
21.3063
21.2346
21.0897
21.0196
20.8774
20.8086
20.6687
20.6008
20.4626
20.3953
20.2584
20.1915
20.0555
19.9886
19.8529
19.7858
19.6501
19.5826
19.4465
19.3782
19.2413
19.172
19.0339
18.9634
18.8238
18.7519
18.6105
18.5369
18.3934
18.3181
18.1723
18.0951
17.9467
17.8676
17.7165
17.6355
17.4816
17.3989
17.2424
17.1581
16.9989
16.9133
16.7517
16.6652
16.5017
16.415
16.2502
16.1639
15.9987
15.9141
15.7497
15.6681
15.5061
15.4292
15.2713
15.2012
15.0498
14.9891
14.8466
14.7989
14.6689
14.6359
14.5253
14.507
14.4189
14.4165
14.3585
14.3688
14.3439
14.3665
14.3591
14.4107
14.4188
14.4977
14.5217
14.6234
14.659
14.7763
14.8204
14.9481
14.9984
15.1337
15.1881
15.3275
15.3834
15.523
15.5785
15.7153
15.7687
15.8998
15.9497
16.0725
16.118
16.2308
16.2711
16.3724
16.4066
16.4951
16.5228
16.5983
16.6197
16.6824
16.6976
16.7484
16.758
16.7982
16.803
16.8341
16.8348
16.8572
16.8552
16.871
16.8668
16.877
16.8709
16.8774
16.8687
16.873
16.8598
16.8631
16.8475
16.8499
16.8321
16.8339
16.8134
16.8145
16.7924
16.7935
16.7711
16.7719
16.7495
16.7502
16.7266
16.7275
16.7009
16.7076
16.6755
16.6854
16.6407
16.7153
16.7424
16.9446
17.2268
18.2727
20.9123
18.9414
39.9397
)
;
    }
    rightWall
    {
        type            calculated;
        value           uniform 0;
    }
    symmetryLine
    {
        type            symmetryPlane;
    }
}


// ************************************************************************* //
