/*--------------------------------*- C++ -*----------------------------------*\
| =========                 |                                                 |
| \\      /  F ield         | OpenFOAM: The Open Source CFD Toolbox           |
|  \\    /   O peration     | Version:  v2006                                 |
|   \\  /    A nd           | Website:  www.openfoam.com                      |
|    \\/     M anipulation  |                                                 |
\*---------------------------------------------------------------------------*/
FoamFile
{
    version     2.0;
    format      ascii;
    class       volVectorField;
    location    "0.064";
    object      U;
}
// * * * * * * * * * * * * * * * * * * * * * * * * * * * * * * * * * * * * * //

dimensions      [0 1 -1 0 0 0 0];


internalField   nonuniform List<vector> 
41981
(
(56.0367 -0.0085011 4.92298e-19)
(56.0361 0.0108047 3.73196e-19)
(56.0359 -0.00939506 8.79424e-20)
(56.0365 0.00367291 -5.04252e-19)
(56.0366 -0.00137601 2.44142e-19)
(56.0379 -0.00020444 0)
(56.0391 -0.000832 4.05218e-21)
(56.0403 -0.000391626 -2.53331e-21)
(56.0414 -0.000763556 7.31454e-21)
(56.0421 -0.00044821 -1.54168e-20)
(56.0412 -0.000880854 -3.1365e-21)
(56.0357 -0.00141475 6.99663e-21)
(56.0217 -0.00295573 -8.98811e-23)
(55.997 -0.00521306 0)
(55.9622 -0.00797576 0)
(55.9198 -0.0108605 0)
(55.873 -0.0135847 0)
(55.8245 -0.0159812 0)
(55.776 -0.0180172 0)
(55.7281 -0.0197551 0)
(55.6809 -0.0212731 0)
(55.6339 -0.0226398 0)
(55.5869 -0.0239062 0)
(55.5392 -0.0251046 0)
(55.4907 -0.0262528 0)
(55.441 -0.0273582 0)
(55.3901 -0.0284225 0)
(55.3379 -0.0294452 0)
(55.2845 -0.0304257 0)
(55.2297 -0.0313652 0)
(55.1738 -0.0322662 0)
(55.1166 -0.0331329 0)
(55.0583 -0.03397 0)
(54.9987 -0.0347826 0)
(54.9381 -0.0355753 0)
(54.8762 -0.0363521 0)
(54.8131 -0.0371165 0)
(54.7489 -0.037871 0)
(54.6835 -0.0386177 0)
(54.6169 -0.0393585 -9.60648e-23)
(54.5492 -0.0400941 0)
(54.4803 -0.0408231 0)
(54.4102 -0.0415455 0)
(54.3389 -0.0422623 0)
(54.2665 -0.0429735 0)
(54.193 -0.0436789 0)
(54.1184 -0.0443783 0)
(54.0426 -0.0450712 9.88684e-23)
(53.9658 -0.0457568 0)
(53.8879 -0.0464348 0)
(53.8089 -0.0471042 0)
(53.7289 -0.0477644 0)
(53.6479 -0.0484147 0)
(53.5659 -0.0490541 0)
(53.4829 -0.049682 0)
(53.3989 -0.0502977 0)
(53.314 -0.0509001 0)
(53.2283 -0.0514887 0)
(53.1416 -0.0520628 0)
(53.0541 -0.0526216 0)
(52.9657 -0.0531644 0)
(52.8766 -0.0536907 0)
(52.7866 -0.0541997 0)
(52.696 -0.054691 0)
(52.6046 -0.0551639 0)
(52.5125 -0.0556179 0)
(52.4198 -0.0560524 0)
(52.3264 -0.056467 0)
(52.2325 -0.0568612 0)
(52.1379 -0.0572347 0)
(52.0429 -0.0575867 0)
(51.9474 -0.057917 0)
(51.8514 -0.0582254 0)
(51.755 -0.0585113 0)
(51.6581 -0.0587743 0)
(51.561 -0.0590142 0)
(51.4635 -0.0592307 0)
(51.3657 -0.0594234 0)
(51.2677 -0.059592 0)
(51.1694 -0.0597363 0)
(51.071 -0.059856 0)
(50.9724 -0.0599508 0)
(50.8738 -0.0600205 0)
(50.775 -0.060065 0)
(50.6763 -0.060084 0)
(50.5775 -0.0600774 0)
(50.4788 -0.060045 0)
(50.3802 -0.0599868 0)
(50.2817 -0.0599027 0)
(50.1834 -0.0597929 0)
(50.0853 -0.059656 0)
(49.9874 -0.0594904 0)
(49.8898 -0.0592974 0)
(49.7925 -0.0590807 0)
(49.6956 -0.0588394 0)
(49.5991 -0.058571 0)
(49.5031 -0.0582757 0)
(49.4075 -0.0579539 0)
(49.3124 -0.0576061 -2.1039e-22)
(49.2179 -0.0572323 0)
(49.124 -0.0568324 0)
(49.0307 -0.0564068 0)
(48.9381 -0.055956 0)
(48.8463 -0.0554799 0)
(48.7551 -0.054979 0)
(48.6648 -0.0544537 0)
(48.5753 -0.0539042 0)
(48.4866 -0.053331 0)
(48.3989 -0.0527345 0)
(48.3121 -0.0521152 0)
(48.2262 -0.0514734 0)
(48.1414 -0.0508097 0)
(48.0576 -0.0501243 0)
(47.9748 -0.0494178 0)
(47.8932 -0.0486907 0)
(47.8127 -0.047943 0)
(47.7334 -0.0471751 0)
(47.6553 -0.046387 0)
(47.5784 -0.0455785 0)
(47.5027 -0.0447489 0)
(47.4283 -0.0438972 0)
(47.3552 -0.0430213 0)
(47.2834 -0.0421184 0)
(47.2129 -0.0411845 0)
(47.1438 -0.040215 0)
(47.076 -0.0392049 0)
(47.0097 -0.0381496 0)
(46.9449 -0.0370466 0)
(46.8817 -0.0358963 0)
(46.8202 -0.0347023 0)
(46.7603 -0.0334706 0)
(46.7019 -0.0322049 0)
(46.6448 -0.0309045 -1.95891e-22)
(46.5885 -0.0295497 0)
(46.5324 -0.0280761 0)
(46.4754 -0.0263803 0)
(46.417 -0.024318 0)
(46.3572 -0.0217097 0)
(46.2974 -0.0184322 0)
(46.2416 -0.0146066 0)
(46.1966 -0.0107978 0)
(46.1693 -0.00782641 0)
(46.1618 -0.00616261 0)
(46.1689 -0.00566487 0)
(46.1821 -0.00564184 -6.32652e-23)
(46.1965 -0.00565752 -2.74428e-23)
(46.2108 -0.00565196 0)
(46.2249 -0.00564201 -5.73555e-22)
(46.2381 -0.00565757 0)
(46.2491 -0.00588445 6.0823e-19)
(46.2549 -0.00658446 1.5252e-18)
(46.2519 -0.0084916 -4.56809e-18)
(46.2358 -0.0123147 0)
(46.2011 -0.0148889 0)
(46.1557 -0.0111723 3.30487e-19)
(46.0882 -0.0260062 0)
(45.9755 -0.0473851 3.7547e-18)
(45.8264 -0.0748123 0)
(45.6109 -0.0977133 0)
(45.3641 -0.106224 -1.96638e-18)
(44.4121 -0.138622 2.46909e-18)
(43.7356 -0.129165 -4.67054e-18)
(45.3424 -0.166078 3.87889e-18)
(45.6561 -0.155163 0)
(45.6577 -0.184221 5.69467e-18)
(45.2148 -0.194284 -5.0254e-19)
(42.938 -0.12892 0)
(42.1296 -0.119021 0)
(45.089 -0.194708 1.34802e-18)
(45.6655 -0.187579 7.44943e-19)
(45.6416 -0.17627 0)
(44.9238 -0.176762 -9.05566e-19)
(41.386 -0.102354 0)
(40.7176 -0.0866275 1.29764e-19)
(44.7651 -0.155385 2.13898e-19)
(45.621 -0.163193 1.77527e-19)
(45.5569 -0.148267 -1.6084e-18)
(44.5645 -0.13854 1.51422e-18)
(40.0939 -0.074223 -9.89069e-20)
(39.5714 -0.0635295 1.0089e-18)
(44.4184 -0.126406 -1.7307e-18)
(45.5152 -0.141862 -7.11604e-19)
(45.4418 -0.130123 -1.12068e-20)
(44.2141 -0.112404 8.69346e-19)
(39.0861 -0.0557455 -1.04707e-18)
(38.6565 -0.0494192 0)
(44.054 -0.100096 0)
(45.3823 -0.120147 -1.43115e-18)
(45.2909 -0.114442 -1.43977e-18)
(43.8855 -0.0952815 1.74721e-18)
(38.2588 -0.0461868 0)
(37.9175 -0.0391751 0)
(43.7369 -0.0850552 -6.07582e-26)
(45.2307 -0.108201 1.40679e-21)
(45.1315 -0.103479 -2.18774e-26)
(43.5717 -0.0819304 -3.4091e-21)
(37.5904 -0.0378891 0)
(37.3006 -0.0332068 0)
(43.4305 -0.0746306 0)
(45.0681 -0.0995458 -1.40834e-21)
(44.9639 -0.0967813 0)
(43.2688 -0.0741181 0)
(37.0071 -0.034522 0)
(36.7435 -0.0304318 0)
(43.1346 -0.0681035 0)
(44.9004 -0.0940631 0)
(44.7931 -0.0914605 2.88801e-18)
(42.9765 -0.0680708 -1.74705e-18)
(36.475 -0.0319909 0)
(36.2335 -0.0278908 0)
(42.8481 -0.0627429 0)
(44.73 -0.0892315 0)
(44.6204 -0.0868852 2.88968e-18)
(42.6932 -0.0631478 -1.74769e-18)
(35.9856 -0.0295591 0)
(35.7624 -0.0256935 0)
(42.5701 -0.0584321 0)
(44.5583 -0.0850388 0)
(44.4472 -0.0829674 0)
(42.4183 -0.0591924 0)
(35.5309 -0.0274497 0)
(35.3227 -0.0236217 0)
(42.3003 -0.0547856 -1.74848e-18)
(44.3864 -0.081368 -2.14037e-24)
(44.2741 -0.0795819 0)
(42.1512 -0.0559165 0)
(35.1054 -0.0256104 0)
(34.9105 -0.0217883 0)
(42.0383 -0.0516154 0)
(44.2154 -0.0781058 0)
(44.1021 -0.0769136 0)
(41.8917 -0.0533983 0)
(34.7055 -0.0241257 0)
(34.5219 -0.0201697 0)
(41.7833 -0.0489458 -1.74954e-18)
(44.0451 -0.0753143 -2.11206e-24)
(43.931 -0.074478 0)
(41.6389 -0.0512279 0)
(34.3273 -0.0229035 0)
(34.1534 -0.0188159 0)
(41.5345 -0.0466125 0)
(43.8755 -0.0727686 0)
(43.7604 -0.0721929 2.89604e-18)
(41.392 -0.0491759 -1.75031e-18)
(33.9678 -0.0217439 0)
(33.8023 -0.0175808 0)
(41.2912 -0.0444842 0)
(43.7064 -0.070437 0)
(43.5905 -0.0701123 0)
(41.1504 -0.0473206 0)
(33.6248 -0.0206947 0)
(33.4668 -0.0163393 0)
(41.053 -0.0424168 0)
(43.5377 -0.0682114 0)
(43.421 -0.0681348 2.89801e-18)
(40.9136 -0.0455125 -1.75117e-18)
(33.2963 -0.0196122 0)
(33.145 -0.0154999 0)
(40.8192 -0.0407713 0)
(43.3695 -0.0662256 0)
(43.2521 -0.0663217 0)
(40.6812 -0.0439464 0)
(32.981 -0.0188158 0)
(32.8356 -0.0146608 0)
(40.5895 -0.0393044 0)
(43.2018 -0.0645132 0)
(43.0836 -0.0647436 0)
(40.4529 -0.0426134 0)
(32.6774 -0.018085 0)
(32.5375 -0.0138629 0)
(40.3638 -0.0379678 0)
(43.0344 -0.0630875 0)
(42.9153 -0.0634426 -2.90054e-18)
(40.2281 -0.0414573 1.75231e-18)
(32.3845 -0.0174322 0)
(32.2494 -0.0131131 0)
(40.1413 -0.0366827 0)
(42.8671 -0.0617018 0)
(42.7473 -0.0622341 0)
(40.0067 -0.0403861 0)
(32.1012 -0.0168392 0)
(31.9707 -0.0124327 0)
(39.9221 -0.0355058 0)
(42.7001 -0.0604274 0)
(42.5795 -0.0611455 0)
(39.7883 -0.0394205 0)
(31.8269 -0.0163113 0)
(31.7004 -0.011813 0)
(39.7058 -0.0344329 0)
(42.5331 -0.0592788 0)
(42.4117 -0.0601785 0)
(39.5727 -0.0385536 0)
(31.5606 -0.0158405 0)
(31.4378 -0.0112532 0)
(39.4919 -0.0334598 0)
(42.366 -0.0582509 0)
(42.2438 -0.0593262 -2.90338e-18)
(39.3595 -0.0377814 1.75363e-18)
(31.3016 -0.0154262 0)
(31.1821 -0.0107484 0)
(39.2803 -0.0325836 0)
(42.1987 -0.0573374 0)
(42.0757 -0.0585952 0)
(39.1484 -0.0371299 0)
(31.049 -0.015093 0)
(30.9326 -0.0102569 0)
(39.0707 -0.0317537 0)
(42.0312 -0.0565053 0)
(41.9073 -0.0579609 0)
(38.9391 -0.0365543 0)
(30.8024 -0.0147989 0)
(30.6886 -0.00979667 0)
(38.8628 -0.0309925 0)
(41.8633 -0.0557648 0)
(41.7385 -0.0574313 0)
(38.7314 -0.0360544 0)
(30.5609 -0.0145414 0)
(30.4495 -0.00937494 0)
(38.6563 -0.0303034 0)
(41.6948 -0.0551124 0)
(41.5691 -0.0569593 -2.90583e-18)
(38.5251 -0.0356091 1.75481e-18)
(30.3242 -0.014316 0)
(30.2149 -0.00898239 0)
(38.451 -0.0296673 0)
(41.5258 -0.0545221 0)
(41.3992 -0.056549 0)
(38.3199 -0.035214 0)
(30.0917 -0.0141173 0)
(29.9844 -0.00862122 0)
(38.2467 -0.0290877 0)
(41.3561 -0.0539993 0)
(41.2286 -0.0562032 0)
(38.1157 -0.0348692 0)
(29.863 -0.0139457 0)
(29.7575 -0.00828678 0)
(38.0434 -0.0285586 0)
(41.1857 -0.0535423 0)
(41.0573 -0.0559215 0)
(37.9123 -0.0345715 0)
(29.6378 -0.0137984 0)
(29.5339 -0.00797751 0)
(37.8408 -0.0280785 0)
(41.0145 -0.0531512 0)
(40.885 -0.0557043 -2.90802e-18)
(37.7096 -0.0343199 1.75589e-18)
(29.4156 -0.0136741 0)
(29.3131 -0.00769163 0)
(37.6386 -0.027646 0)
(40.8423 -0.0528264 0)
(40.7118 -0.0555527 0)
(37.5072 -0.0341137 0)
(29.1962 -0.0135714 0)
(29.0949 -0.00742818 0)
(37.4367 -0.0272612 0)
(40.6689 -0.0525707 0)
(40.5374 -0.0554751 0)
(37.3051 -0.0339552 0)
(28.9791 -0.013486 0)
(28.8789 -0.00719031 0)
(37.2349 -0.0269243 0)
(40.4944 -0.0523805 0)
(40.3617 -0.0554847 0)
(37.1029 -0.0338459 0)
(28.7641 -0.0134014 0)
(28.6648 -0.00698923 0)
(37.033 -0.0266246 0)
(40.3184 -0.0522215 0)
(40.1846 -0.0555368 0)
(36.9006 -0.0337685 0)
(28.5508 -0.0133395 0)
(28.4522 -0.00680943 0)
(36.8308 -0.0263649 0)
(40.141 -0.0521267 0)
(40.0059 -0.0556561 0)
(36.6979 -0.0337327 0)
(28.3389 -0.0132971 0)
(28.2409 -0.00664954 0)
(36.6281 -0.0261463 0)
(39.962 -0.0520943 0)
(39.8256 -0.0558365 0)
(36.4946 -0.0337366 0)
(28.1281 -0.0132722 0)
(28.0305 -0.00650801 0)
(36.4247 -0.0259672 0)
(39.7812 -0.052122 0)
(39.6435 -0.0560766 0)
(36.2905 -0.0337789 0)
(27.9181 -0.013264 0)
(27.8208 -0.00638392 0)
(36.2203 -0.0258263 0)
(39.5984 -0.052208 0)
(39.4594 -0.0563747 0)
(36.0854 -0.0338586 0)
(27.7086 -0.0132716 0)
(27.6115 -0.00627614 0)
(36.0149 -0.0257222 0)
(39.4137 -0.0523508 0)
(39.2732 -0.0567295 0)
(35.8791 -0.0339744 0)
(27.4993 -0.0132942 0)
(27.4023 -0.00618381 0)
(35.8081 -0.0256532 0)
(39.2267 -0.0525489 0)
(39.0848 -0.0571398 0)
(35.6715 -0.0341251 0)
(27.2901 -0.013331 0)
(27.1929 -0.00610608 0)
(35.5999 -0.025618 0)
(39.0375 -0.0528011 0)
(38.894 -0.057605 0)
(35.4623 -0.0343098 0)
(27.0805 -0.0133816 0)
(26.9831 -0.00604229 0)
(35.39 -0.0256156 0)
(38.8458 -0.0531068 0)
(38.7007 -0.0581257 0)
(35.2513 -0.0345281 0)
(26.8704 -0.0134453 0)
(26.7727 -0.00599267 0)
(35.1783 -0.025646 0)
(38.6515 -0.0534676 0)
(38.5048 -0.058701 0)
(35.0385 -0.0347491 0)
(26.6596 -0.013508 0)
(26.5615 -0.00596973 0)
(34.9646 -0.0257342 0)
(38.4545 -0.0538694 0)
(38.3061 -0.0593175 0)
(34.8235 -0.0350054 0)
(26.4479 -0.0135819 0)
(26.3491 -0.00595564 0)
(34.7486 -0.0258526 0)
(38.2546 -0.0543166 0)
(38.1045 -0.0599846 0)
(34.6063 -0.0352924 0)
(26.2349 -0.0136652 0)
(26.1355 -0.0059522 0)
(34.5302 -0.0260011 0)
(38.0517 -0.0548134 0)
(37.8997 -0.0607041 0)
(34.3866 -0.0356093 0)
(26.0205 -0.0137589 0)
(25.9204 -0.00596116 0)
(34.3093 -0.026182 0)
(37.8456 -0.0553643 0)
(37.6918 -0.061491 0)
(34.1642 -0.0359648 0)
(25.8046 -0.0138889 0)
(25.7033 -0.00601022 0)
(34.0856 -0.026412 0)
(37.6363 -0.0559813 0)
(37.4805 -0.0623463 0)
(33.9391 -0.0363708 0)
(25.5865 -0.0140639 0)
(25.4836 -0.00609948 0)
(33.8592 -0.0266911 0)
(37.4236 -0.0566571 0)
(37.2658 -0.0632425 0)
(33.711 -0.036814 0)
(25.3659 -0.0142374 0)
(25.2613 -0.00617754 0)
(33.6298 -0.0269887 0)
(37.2074 -0.0573673 0)
(37.0476 -0.064175 0)
(33.4799 -0.0372728 0)
(25.1427 -0.0144012 0)
(25.0364 -0.00624614 0)
(33.3972 -0.0272978 0)
(36.9876 -0.0581107 0)
(36.8256 -0.0651421 0)
(33.2455 -0.037743 0)
(24.9169 -0.014557 0)
(24.8089 -0.00630799 0)
(33.1613 -0.0276162 0)
(36.764 -0.0588857 0)
(36.5997 -0.0661431 0)
(33.0077 -0.0382237 0)
(24.6884 -0.0147079 0)
(24.5788 -0.00636623 0)
(32.9217 -0.0279443 0)
(36.5363 -0.059692 0)
(36.3697 -0.0671783 0)
(32.7663 -0.0387158 0)
(24.4572 -0.0148569 0)
(24.346 -0.00642364 0)
(32.6785 -0.0282833 0)
(36.3045 -0.0605303 0)
(36.1356 -0.0682484 0)
(32.5211 -0.0392207 0)
(24.2234 -0.0150066 0)
(24.1104 -0.00648253 0)
(32.4315 -0.0286345 0)
(36.0684 -0.0614012 0)
(35.8971 -0.0693544 0)
(32.272 -0.0397399 0)
(23.9867 -0.015159 0)
(23.8721 -0.00654414 0)
(32.1804 -0.0289992 0)
(35.8279 -0.0623054 0)
(35.6541 -0.0704971 0)
(32.0189 -0.0402744 0)
(23.7472 -0.0153151 0)
(23.6309 -0.00660901 0)
(31.9253 -0.029378 0)
(35.5828 -0.0632437 0)
(35.4065 -0.0716772 0)
(31.7616 -0.0408249 0)
(23.5047 -0.0154755 0)
(23.3867 -0.00667996 0)
(31.6659 -0.0297707 0)
(35.3329 -0.0642136 0)
(35.1542 -0.0728676 0)
(31.5001 -0.0413775 0)
(23.2591 -0.0156377 0)
(23.1394 -0.00676126 0)
(31.4021 -0.0301883 0)
(35.0783 -0.0652372 0)
(34.897 -0.0740591 0)
(31.2343 -0.0419257 0)
(23.0105 -0.0157988 0)
(22.889 -0.00685479 0)
(31.1339 -0.0306377 0)
(34.8188 -0.0663368 0)
(34.6349 -0.0753019 0)
(30.9639 -0.0424954 0)
(22.7585 -0.0159688 0)
(22.6352 -0.00695336 0)
(30.8611 -0.0310968 0)
(34.5541 -0.0674665 0)
(34.3676 -0.0765721 0)
(30.6889 -0.0430754 0)
(22.5031 -0.0161436 0)
(22.378 -0.00705703 0)
(30.5837 -0.0315661 0)
(34.2844 -0.0686246 0)
(34.0952 -0.0778711 0)
(30.4092 -0.0436671 0)
(22.2443 -0.0163234 0)
(22.1174 -0.00716704 0)
(30.3014 -0.0320491 0)
(34.0093 -0.0698164 0)
(33.8174 -0.0791994 0)
(30.1246 -0.0442719 0)
(21.9819 -0.0165091 0)
(21.8531 -0.00728034 0)
(30.0142 -0.0325375 0)
(33.7289 -0.0710258 0)
(33.5342 -0.0805422 0)
(29.8351 -0.0448815 0)
(21.7159 -0.0166974 0)
(21.5853 -0.00739576 0)
(29.7221 -0.0330279 0)
(33.443 -0.0722483 0)
(33.2456 -0.0818968 0)
(29.5407 -0.045494 0)
(21.4462 -0.0168877 0)
(21.3138 -0.00751209 0)
(29.425 -0.0335163 0)
(33.1516 -0.0734776 0)
(32.9515 -0.0832556 0)
(29.2414 -0.046105 0)
(21.1729 -0.0170785 0)
(21.0387 -0.00762802 0)
(29.1229 -0.0339983 0)
(32.8547 -0.0747062 0)
(32.6519 -0.0846113 0)
(28.9371 -0.0467101 0)
(20.8959 -0.0172685 0)
(20.76 -0.00774222 0)
(28.8159 -0.0344693 0)
(32.5523 -0.0759265 0)
(32.3469 -0.085956 0)
(28.6279 -0.047305 0)
(20.6154 -0.0174563 0)
(20.4778 -0.00785332 0)
(28.504 -0.0349245 0)
(32.2445 -0.0771301 0)
(32.0364 -0.0872808 0)
(28.3138 -0.0478848 0)
(20.3314 -0.0176403 0)
(20.1922 -0.00795973 0)
(28.1873 -0.0353587 0)
(31.9312 -0.0783073 0)
(31.7206 -0.0885754 0)
(27.995 -0.0484438 0)
(20.044 -0.0178187 0)
(19.9034 -0.00805974 0)
(27.866 -0.035766 0)
(31.6127 -0.0794471 0)
(31.3995 -0.0898279 0)
(27.6717 -0.0489756 0)
(19.7535 -0.0179894 0)
(19.6115 -0.00815059 0)
(27.5401 -0.0361389 0)
(31.289 -0.0805359 0)
(31.0734 -0.0910234 0)
(27.344 -0.0494717 0)
(19.4599 -0.0181491 0)
(19.3167 -0.00823005 0)
(27.21 -0.0364694 0)
(30.9603 -0.0815586 0)
(30.7425 -0.0921462 0)
(27.0121 -0.049924 0)
(19.1637 -0.0182958 0)
(19.0195 -0.00829681 0)
(26.876 -0.03675 0)
(30.6268 -0.0824989 0)
(30.407 -0.0931791 0)
(26.6765 -0.0503243 0)
(18.8651 -0.0184275 0)
(18.7201 -0.00834722 0)
(26.5383 -0.0369717 0)
(30.289 -0.0833375 0)
(30.0673 -0.0941009 0)
(26.3375 -0.0506617 0)
(18.5644 -0.0185395 0)
(18.4189 -0.00837708 0)
(26.1975 -0.0371238 0)
(29.9471 -0.0840518 0)
(29.7237 -0.0948876 0)
(25.9955 -0.0509236 0)
(18.2622 -0.018627 0)
(18.1164 -0.00838194 0)
(25.8541 -0.0371941 0)
(29.6017 -0.0846163 0)
(29.3769 -0.0955123 0)
(25.6512 -0.0510963 0)
(17.9591 -0.0186847 0)
(17.8133 -0.00835689 0)
(25.5086 -0.0371702 0)
(29.2532 -0.0850031 0)
(29.0273 -0.0959458 0)
(25.3053 -0.0511653 0)
(17.6556 -0.0187069 0)
(17.5103 -0.00829671 0)
(25.162 -0.0370394 0)
(28.9024 -0.0851815 0)
(28.6758 -0.096156 0)
(24.9584 -0.0511152 0)
(17.3525 -0.0186875 0)
(17.2081 -0.0081959 0)
(24.8149 -0.0367883 0)
(28.55 -0.0851184 0)
(28.3231 -0.0961086 0)
(24.6116 -0.05093 0)
(17.0507 -0.0186201 0)
(16.9077 -0.00804859 0)
(24.4683 -0.0364034 0)
(28.1969 -0.0847781 0)
(27.9702 -0.0957664 0)
(24.2658 -0.0505924 0)
(16.7512 -0.0184978 0)
(16.61 -0.00784858 0)
(24.1235 -0.0358705 0)
(27.8441 -0.0841226 0)
(27.6182 -0.0950906 0)
(23.9223 -0.0500847 0)
(16.455 -0.0183135 0)
(16.3164 -0.00759005 0)
(23.7816 -0.0351759 0)
(27.4928 -0.0831154 0)
(27.2682 -0.0940456 0)
(23.5822 -0.0493917 0)
(16.1633 -0.0180617 0)
(16.0279 -0.007268 0)
(23.444 -0.0343066 0)
(27.1442 -0.0817198 0)
(26.9216 -0.0925914 0)
(23.2472 -0.0484964 0)
(15.8775 -0.0177366 0)
(15.746 -0.00687664 0)
(23.1122 -0.0332465 0)
(26.7999 -0.0798938 0)
(26.58 -0.0906835 0)
(22.9187 -0.0473779 0)
(15.599 -0.0173309 0)
(15.4722 -0.00640875 0)
(22.788 -0.0319755 0)
(26.4613 -0.0775972 0)
(26.245 -0.0882848 0)
(22.5986 -0.0460177 0)
(15.3294 -0.016837 0)
(15.208 -0.0058596 0)
(22.4732 -0.0304779 0)
(26.1302 -0.0748023 0)
(25.9183 -0.0853781 0)
(22.2886 -0.0444047 0)
(15.0704 -0.016255 0)
(14.9553 -0.00523815 0)
(22.1697 -0.0287655 0)
(25.8085 -0.0715237 0)
(25.6018 -0.0819767 0)
(21.9907 -0.0425567 0)
(14.8236 -0.0156133 0)
(14.7154 -0.00455935 0)
(21.8792 -0.0268333 0)
(25.4979 -0.0677357 0)
(25.2973 -0.0780455 0)
(21.7068 -0.0404627 0)
(14.5906 -0.0149014 0)
(14.49 -0.00381532 0)
(21.604 -0.0246679 0)
(25.2004 -0.0634285 0)
(25.0069 -0.0735794 0)
(21.439 -0.0381138 0)
(14.3729 -0.014101 0)
(14.2808 -0.00298947 0)
(21.346 -0.0222544 0)
(24.9181 -0.0586042 0)
(24.7325 -0.0685944 0)
(21.1891 -0.0355078 0)
(14.1723 -0.0132185 0)
(14.0895 -0.00209319 0)
(21.107 -0.0196014 0)
(24.6529 -0.053291 0)
(24.4761 -0.0631262 0)
(20.9592 -0.0326637 0)
(13.9905 -0.0122682 0)
(13.9178 -0.00114114 0)
(20.8889 -0.0167311 0)
(24.4065 -0.047535 0)
(24.2395 -0.0572273 0)
(20.7509 -0.0296119 0)
(13.8289 -0.0112668 0)
(13.767 -0.000148787 0)
(20.6933 -0.0136744 0)
(24.1809 -0.0413977 0)
(24.0243 -0.0509659 0)
(20.5657 -0.0263916 0)
(13.6889 -0.0102323 0)
(13.638 0.000869011 0)
(20.5216 -0.0104709 0)
(23.9775 -0.0349578 0)
(23.8321 -0.0444192 0)
(20.405 -0.0230474 0)
(13.5711 -0.00918367 0)
(13.5318 0.00191345 0)
(20.3749 -0.00713715 0)
(23.7978 -0.0282641 0)
(23.6642 -0.0376249 0)
(20.2698 -0.0195886 0)
(13.4763 -0.008117 0)
(13.4489 0.00306635 0)
(20.2542 -0.0036207 0)
(23.643 -0.0212987 0)
(23.5221 -0.0303479 0)
(20.1615 -0.0156758 0)
(13.4053 -0.006733 0)
(13.3936 0.00396803 0)
(20.1586 -0.000195427 0)
(23.514 -0.0145252 0)
(23.4058 -0.0232756 0)
(20.0787 -0.012017 0)
(13.3601 -0.00569186 0)
(13.3623 0.00474481 0)
(20.0889 0.00307561 0)
(23.4111 -0.00789932 0)
(23.3159 -0.0163247 0)
(20.022 -0.00854348 0)
(13.338 -0.00478995 0)
(13.353 0.00541783 0)
(20.0454 0.00616723 0)
(23.3347 -0.00147141 0)
(23.2525 -0.00956995 0)
(19.9912 -0.00524459 0)
(13.3375 -0.00398415 0)
(13.3645 0.00602178 0)
(20.0274 0.00907474 0)
(23.2846 0.0046965 0)
(23.2151 -0.00311764 0)
(19.9857 -0.00216781 0)
(13.3571 -0.00326421 0)
(13.395 0.00652551 0)
(20.0338 0.0117126 0)
(23.2599 0.0104109 0)
(23.2029 0.00289663 0)
(20.004 0.000790492 0)
(13.3955 -0.0026106 0)
(13.4432 0.00696357 0)
(20.0633 0.0141207 0)
(23.26 0.0158691 0)
(23.2147 0.00855485 0)
(20.0443 0.00359576 0)
(13.4516 -0.00188359 0)
(13.5082 0.00744343 0)
(20.1141 0.0163966 0)
(23.2831 0.0208578 0)
(23.2488 0.0133783 0)
(20.1041 0.00617294 0)
(13.5256 -0.000850809 0)
(13.5879 0.00757315 0)
(20.1837 0.0180553 0)
(23.3275 0.0250795 0)
(23.303 0.0174068 0)
(20.1819 0.00802958 0)
(13.6117 -0.000331146 0)
(13.6787 0.00766996 0)
(20.2701 0.0196513 0)
(23.3913 0.0293376 0)
(23.3752 0.0211117 0)
(20.275 0.00952505 0)
(13.7072 -2.1764e-06 0)
(13.7787 0.00812014 0)
(20.3706 0.0213949 0)
(23.4715 0.0329795 0)
(23.4629 0.0242542 0)
(20.3811 0.010886 0)
(13.8107 0.000329051 0)
(13.8853 0.0082314 0)
(20.4829 0.0224615 0)
(23.5662 0.0357299 0)
(23.5648 0.026941 0)
(20.499 0.0119138 0)
(13.921 0.000456464 0)
(13.9984 0.00824905 0)
(20.6068 0.0233552 0)
(23.6751 0.0382058 0)
(23.6806 0.0289923 0)
(20.6283 0.0127228 0)
(14.0381 0.000701606 0)
(14.1176 0.00819938 0)
(20.7416 0.0236981 0)
(23.7972 0.0396575 0)
(23.8083 0.0305604 0)
(20.767 0.0132706 0)
(14.1595 0.000666426 0)
(14.238 0.0079767 0)
(20.8831 0.0237411 0)
(23.9289 0.0403885 0)
(23.9436 0.0313872 0)
(20.9105 0.0132395 0)
(14.2801 0.000437448 0)
(14.3566 0.00774335 0)
(21.0279 0.0235248 0)
(24.0668 0.0407083 0)
(24.0837 0.0315365 0)
(21.056 0.0129171 0)
(14.3982 0.000210491 0)
(14.4724 0.00764047 0)
(21.1736 0.0232651 0)
(24.2083 0.0406995 0)
(24.2267 0.0314716 0)
(21.2018 0.0125269 0)
(14.5134 -1.79509e-05 0)
(14.5857 0.00755413 0)
(21.3192 0.0229443 0)
(24.3523 0.0404659 0)
(24.3715 0.031013 0)
(21.347 0.0119716 0)
(14.6259 -0.000288871 0)
(14.6956 0.00739754 0)
(21.4634 0.0223996 0)
(24.4971 0.0397647 0)
(24.5162 0.0301749 0)
(21.49 0.011239 0)
(14.7343 -0.000615093 0)
(14.8006 0.00702988 0)
(21.6044 0.021625 0)
(24.6409 0.0386562 0)
(24.6594 0.0289761 0)
(21.6296 0.01032 0)
(14.836 -0.00107899 0)
(14.8988 0.00666003 0)
(21.7416 0.0207149 0)
(24.7826 0.0372933 0)
(24.7999 0.0275552 0)
(21.7647 0.0093492 0)
(14.9308 -0.00146199 0)
(14.9901 0.00633765 0)
(21.8735 0.0197283 0)
(24.921 0.0357067 0)
(24.9363 0.0259787 0)
(21.8941 0.0083525 0)
(15.0188 -0.0018019 0)
(15.0746 0.00605021 0)
(21.9994 0.0187034 0)
(25.0548 0.0339629 0)
(25.0677 0.0242946 0)
(22.0171 0.00735415 0)
(15.1 -0.00210805 0)
(15.1524 0.00579021 0)
(22.1185 0.017663 0)
(25.1831 0.0321101 0)
(25.1933 0.0225449 0)
(22.133 0.00636924 0)
(15.1746 -0.00238806 0)
(15.2237 0.00555154 0)
(22.2304 0.0166257 0)
(25.3054 0.0301938 0)
(25.3126 0.0207705 0)
(22.2415 0.00541062 0)
(15.2429 -0.00264846 0)
(15.2888 0.00533533 0)
(22.3348 0.0156124 0)
(25.4211 0.0282605 0)
(25.425 0.0190146 0)
(22.3426 0.00449478 0)
(15.3051 -0.00289234 0)
(15.348 0.0051604 0)
(22.4317 0.0146572 0)
(25.5299 0.0263591 0)
(25.5304 0.017317 0)
(22.436 0.00365781 0)
(15.3618 -0.00308706 0)
(15.402 0.00504304 0)
(22.5211 0.0138021 0)
(25.6316 0.024541 0)
(25.6287 0.01566 2.94194e-18)
(22.5217 0.00298484 -1.7743e-18)
(15.414 -0.00305443 0)
(15.4514 0.00494218 0)
(22.603 0.0129705 0)
(25.7263 0.0227836 0)
(25.7199 0.0140832 0)
(22.6001 0.00232392 0)
(15.4617 -0.00304873 0)
(15.4965 0.00483493 0)
(22.678 0.0121759 1.77409e-18)
(25.8139 0.0211112 6.16229e-25)
(25.8042 0.0125959 0)
(22.6718 0.00170265 0)
(15.5053 -0.00305347 0)
(15.5375 0.00472829 0)
(22.7464 0.0114376 0)
(25.895 0.0195503 0)
(25.882 0.0112125 0)
(22.7371 0.00113648 0)
(15.5448 -0.00305687 0)
(15.5749 0.00463175 0)
(22.8087 0.0107712 0)
(25.9696 0.0181259 0)
(25.9537 0.00992564 0)
(22.7967 0.000622763 0)
(15.5809 -0.00305671 0)
(15.6089 0.00454222 0)
(22.8655 0.0101642 0)
(26.0383 0.0168117 0)
(26.0195 0.00876031 0)
(22.8508 0.00017221 0)
(15.6137 -0.00304894 0)
(15.64 0.0044648 0)
(22.9171 0.00962858 0)
(26.1014 0.0156301 0)
(26.0799 0.00772242 0)
(22.9001 -0.000210155 0)
(15.6438 -0.00302907 0)
(15.6685 0.00442488 0)
(22.9641 0.00918574 0)
(26.1592 0.014588 0)
(26.1353 0.00679117 0)
(22.945 -0.000552168 0)
(15.6716 -0.00301868 0)
(15.6951 0.00441053 0)
(23.007 0.00881904 0)
(26.2123 0.013669 0)
(26.1861 0.00598438 0)
(22.9859 -0.000846626 0)
(15.6974 -0.00301638 0)
(15.7198 0.00439455 0)
(23.0462 0.008494 0)
(26.2611 0.0128445 0)
(26.2329 0.00530846 0)
(23.0235 -0.00107874 0)
(15.7216 -0.00300582 0)
(15.7433 0.00439472 0)
(23.0822 0.00825097 0)
(26.3061 0.0121793 0)
(26.276 0.00465272 0)
(23.0581 -0.00130856 0)
(15.7446 -0.00300595 0)
(15.7656 0.00439172 0)
(23.1155 0.00803632 0)
(26.3475 0.0115816 0)
(26.3157 0.00405393 0)
(23.09 -0.00151285 0)
(15.7664 -0.00300758 0)
(15.7867 0.00438838 0)
(23.1462 0.00784996 0)
(26.3858 0.0110484 0)
(26.3524 0.00352348 0)
(23.1195 -0.0016887 0)
(15.7872 -0.00300929 0)
(15.807 0.00438536 0)
(23.1747 0.00769009 0)
(26.4212 0.0105786 0)
(26.3864 0.00305345 0)
(23.1469 -0.00184179 0)
(15.8071 -0.00301207 0)
(15.8264 0.00438027 0)
(23.2012 0.00754979 0)
(26.454 0.0101608 0)
(26.418 0.00263173 0)
(23.1726 -0.00196524 0)
(15.8263 -0.0030127 0)
(15.8452 0.00437584 0)
(23.226 0.00743697 0)
(26.4845 0.00978505 0)
(26.4474 0.00225657 0)
(23.1966 -0.00208521 0)
(15.8448 -0.00302309 0)
(15.8633 0.00437174 0)
(23.2494 0.00734178 0)
(26.513 0.00945294 0)
(26.4749 0.00191957 0)
(23.2192 -0.00220791 0)
(15.8627 -0.00304088 0)
(15.8808 0.00436416 0)
(23.2713 0.00724913 0)
(26.5396 0.00915443 0)
(26.5006 0.00161309 0)
(23.2405 -0.00232485 0)
(15.8799 -0.0030604 0)
(15.8977 0.00435266 0)
(23.2921 0.00715895 0)
(26.5646 0.00888068 0)
(26.5248 0.00133267 0)
(23.2607 -0.00243629 0)
(15.8965 -0.00308279 0)
(15.9139 0.00433704 0)
(23.3117 0.00707116 0)
(26.5881 0.00862853 0)
(26.5476 0.00107524 0)
(23.2798 -0.00254281 0)
(15.9124 -0.00310799 0)
(15.9295 0.00431777 0)
(23.3304 0.00698559 0)
(26.6103 0.00839576 0)
(26.5692 0.000838026 0)
(23.298 -0.00264469 0)
(15.9278 -0.00313392 0)
(15.9444 0.00429461 0)
(23.3482 0.00690231 0)
(26.6314 0.00818273 0)
(26.5897 0.000617679 0)
(23.3154 -0.00274046 0)
(15.9425 -0.00315377 0)
(15.9588 0.00427673 0)
(23.3652 0.00682334 0)
(26.6514 0.00798725 0)
(26.6092 0.000439316 0)
(23.332 -0.00282356 0)
(15.9566 -0.00318319 0)
(15.9726 0.00426125 0)
(23.3816 0.00675962 0)
(26.6706 0.00782602 0)
(26.628 0.000302462 0)
(23.3481 -0.00289007 0)
(15.9702 -0.0032145 0)
(15.9859 0.0042457 0)
(23.3974 0.00671473 0)
(26.6891 0.00770968 0)
(26.6462 0.00021832 0)
(23.3637 -0.00293042 0)
(15.9834 -0.00323923 0)
(15.999 0.00423509 0)
(23.413 0.0066988 0)
(26.7072 0.00765539 0)
(26.6641 0.000211521 0)
(23.3792 -0.00293036 0)
(15.9964 -0.0032518 0)
(16.012 0.0042357 0)
(23.4285 0.00673174 0)
(26.7251 0.00769863 0)
(26.682 0.000333757 0)
(23.3948 -0.00286032 0)
(16.0095 -0.00324236 0)
(16.0255 0.00425912 0)
(23.4445 0.00685401 0)
(26.7433 0.00791142 0)
(26.7005 0.000712696 0)
(23.4113 -0.00264444 0)
(16.0234 -0.00318463 0)
(16.0406 0.00435199 0)
(23.4619 0.00722136 0)
(26.7625 0.00855969 0)
(26.7208 0.00190639 0)
(23.4303 -0.00183592 0)
(16.0398 -0.00284404 0)
(16.0628 0.00540083 0)
(23.4833 0.00913814 1.76963e-18)
(26.7843 0.0109202 1.19356e-24)
(26.7416 0.00738248 1.27742e-18)
(23.4507 0.00479001 -1.75928e-18)
(16.0643 0.00342897 0)
(16.1897 0.0105494 0)
(23.5097 0.0103083 0)
(26.8245 0.0112858 1.81043e-19)
(26.796 0.015034 3.55239e-19)
(23.4543 0.00850292 0)
(16.1716 0.00446892 0)
(16.2746 0.0125654 0)
(23.5671 0.023274 -1.81596e-18)
(26.911 0.0329554 1.06005e-18)
(26.9267 0.0427645 1.35252e-18)
(23.6158 0.0298293 1.00078e-19)
(16.3569 0.0183544 9.62394e-19)
(16.7278 0.0335528 -1.27874e-18)
(23.8965 0.0449261 0)
(27.1925 0.0525663 1.05876e-17)
(27.3636 0.0500413 6.37948e-19)
(24.1204 0.0433772 0)
(17.0489 0.0335429 2.27608e-19)
(17.2825 0.0296311 0)
(24.2657 0.0359284 0)
(27.4463 0.0415501 -3.12412e-18)
(27.5706 0.0281837 1.74731e-19)
(24.4406 0.0405953 -2.06399e-19)
(17.5083 0.0120919 0)
(17.7275 0.0326226 -5.3698e-19)
(24.5192 0.0196265 6.67084e-19)
(27.6176 0.0190917 1.29646e-18)
(30.2273 0.0206579 5.43157e-19)
(31.3074 0.00100917 0)
(31.7848 -0.00669674 0)
(32.1109 0.0407262 0)
(32.5999 0.0571962 0)
(32.8869 0.0607564 0)
(33.1686 0.0707172 1.07942e-19)
(33.364 0.0723308 -1.08235e-19)
(33.5504 0.0775264 0)
(33.6913 0.0777408 0)
(33.8236 0.0808122 0)
(33.931 0.0818317 0)
(34.0309 0.0834713 0)
(34.1146 0.0843698 0)
(34.1925 0.0854454 0)
(34.2588 0.0860368 0)
(34.3204 0.0866618 0)
(34.3731 0.0869209 0)
(34.422 0.0871581 0)
(34.4636 0.0870874 0)
(34.5017 0.0869614 0)
(34.5336 0.086557 0)
(34.562 0.0860779 0)
(34.5848 0.085326 0)
(34.6037 0.0844856 0)
(34.6171 0.0833561 0)
(34.6258 0.0821243 0)
(34.6285 0.0805522 0)
(34.6249 0.0788782 0)
(34.6142 0.0767488 0)
(34.5938 0.07464 0)
(34.5641 0.0718723 1.08369e-19)
(34.5186 0.069328 -1.09611e-19)
(34.46 0.0662451 -8.98556e-19)
(34.3759 0.0642381 9.19375e-19)
(34.276 0.0606177 0)
(34.1349 0.0613937 -8.05408e-18)
(33.9955 0.0583843 8.65133e-18)
(33.818 0.0258869 2.5762e-17)
(33.5984 0.00993168 -6.84392e-17)
(33.3072 0.011588 -1.96173e-17)
(33.1666 0.0284221 0)
(32.7414 0.0240938 6.87998e-18)
(31.7388 -0.0121971 -2.0127e-18)
(29.8078 -0.0288652 4.09431e-18)
(25.6383 -0.0198016 0)
(21.0432 -0.018222 -4.28483e-19)
(11.6177 -0.00885972 0)
(11.5257 -0.0197761 0)
(20.98 -0.0273898 3.98019e-19)
(25.6175 -0.0245313 0)
(25.4016 -0.0286142 1.33182e-18)
(20.7275 -0.0202836 2.45799e-18)
(11.2794 -0.0124839 -1.27553e-18)
(11.1052 -0.0125736 4.33317e-19)
(20.6825 -0.0207892 1.43465e-18)
(25.2894 -0.0238375 -1.20579e-18)
(25.3077 -0.0173606 -1.23528e-18)
(20.6174 -0.00988692 1.52766e-18)
(11.0824 -0.00122191 -2.34237e-19)
(11.0728 -0.00217006 -2.14713e-19)
(20.6011 -0.000629929 -1.44777e-18)
(25.2595 -0.00486672 -1.80983e-24)
(25.2201 -0.00141583 0)
(20.5166 0.000721592 0)
(11.0731 -0.0095134 5.26385e-25)
(10.8701 -0.0144009 2.29843e-19)
(20.5226 -0.0113627 0)
(25.1863 -0.00642971 0)
(25.1975 -0.00497072 1.28874e-18)
(20.5361 -0.0105303 -1.55518e-18)
(10.8579 -0.00504889 0)
(10.8301 0.00394637 2.37076e-19)
(20.466 -0.00235042 0)
(25.2014 -0.00199055 0)
(25.2144 0.0039357 0)
(20.4788 0.00187546 0)
(10.85 0.000630805 -2.38947e-19)
(10.8553 0.000801769 0)
(20.4879 0.00348642 0)
(25.2239 0.00701275 0)
(25.236 0.00585375 0)
(20.5 0.0029926 0)
(10.8656 0.000617191 0)
(10.8756 0.00110742 0)
(20.5117 0.00410806 0)
(25.2464 0.00802702 0)
(25.2594 0.00639925 0)
(20.5252 0.0032891 0)
(10.8868 0.000702048 0)
(10.8974 0.00112374 0)
(20.5375 0.0042292 0)
(25.2703 0.0082476 0)
(25.2837 0.00675743 0)
(20.5515 0.00349667 0)
(10.9091 0.000767302 0)
(10.9204 0.00121717 0)
(20.5645 0.00449357 0)
(25.2952 0.00871501 0)
(25.3092 0.00703089 0)
(20.5791 0.00364274 0)
(10.9327 0.000809375 0)
(10.9443 0.00121323 0)
(20.5925 0.00453384 0)
(25.3209 0.00879332 0)
(25.335 0.00723826 0)