/*--------------------------------*- C++ -*----------------------------------*\
| =========                 |                                                 |
| \\      /  F ield         | OpenFOAM: The Open Source CFD Toolbox           |
|  \\    /   O peration     | Version:  v2006                                 |
|   \\  /    A nd           | Website:  www.openfoam.com                      |
|    \\/     M anipulation  |                                                 |
\*---------------------------------------------------------------------------*/
FoamFile
{
    version     2.0;
    format      ascii;
    class       volScalarField;
    location    "0.056";
    object      Ma;
}
// * * * * * * * * * * * * * * * * * * * * * * * * * * * * * * * * * * * * * //

dimensions      [0 0 0 0 0 0 0];


internalField   nonuniform List<scalar> 
9148
(
0.179185
0.179186
0.179185
0.179183
0.179173
0.179128
0.178995
0.178721
0.178316
0.177859
0.177384
0.176902
0.176405
0.175886
0.17534
0.174763
0.174154
0.173513
0.172843
0.172143
0.171414
0.170658
0.169876
0.169068
0.168237
0.167384
0.16651
0.165617
0.164707
0.163781
0.162842
0.16189
0.160929
0.15996
0.158986
0.158007
0.157027
0.156048
0.155073
0.154103
0.15314
0.152188
0.151249
0.150324
0.149416
0.148527
0.147659
0.146815
0.145997
0.145206
0.144445
0.143715
0.143019
0.142358
0.141731
0.141136
0.140567
0.140026
0.139529
0.139123
0.138869
0.138776
0.138779
0.138813
0.138838
0.138833
0.138778
0.138626
0.138337
0.137781
0.13707
0.13434
0.132623
0.137132
0.137973
0.138089
0.136983
0.130836
0.129028
0.136723
0.138137
0.138085
0.136372
0.127421
0.125839
0.135901
0.137939
0.137722
0.135404
0.124407
0.123048
0.134845
0.137468
0.137181
0.134311
0.121777
0.120606
0.133762
0.136867
0.136524
0.133198
0.11949
0.11844
0.132619
0.136168
0.135769
0.132029
0.117412
0.116444
0.131433
0.135371
0.134936
0.13083
0.11549
0.11458
0.13022
0.134504
0.134032
0.1296
0.113674
0.112803
0.128974
0.133567
0.133062
0.128337
0.111931
0.111086
0.127694
0.132567
0.13203
0.12704
0.110237
0.109411
0.126381
0.131506
0.13094
0.125709
0.108577
0.107761
0.125032
0.130389
0.129794
0.124342
0.106937
0.106126
0.123646
0.129215
0.12859
0.122936
0.105304
0.104493
0.122218
0.127982
0.127325
0.121484
0.103667
0.102848
0.120739
0.126684
0.125991
0.119976
0.10201
0.101176
0.1192
0.125312
0.124579
0.118402
0.10032
0.0994635
0.11759
0.123858
0.123081
0.116754
0.0985833
0.0977015
0.115902
0.122317
0.121493
0.115026
0.0967942
0.0958843
0.114133
0.120684
0.119815
0.113215
0.094948
0.0940084
0.11228
0.11896
0.118044
0.111319
0.0930409
0.0920684
0.110339
0.117141
0.116174
0.109332
0.0910649
0.0900528
0.108301
0.115218
0.114192
0.107237
0.0890046
0.0879425
0.106145
0.113173
0.112077
0.105014
0.0868376
0.0857127
0.103849
0.110983
0.109805
0.102638
0.0845382
0.0833386
0.101386
0.108624
0.107355
0.100085
0.082084
0.0808005
0.0987383
0.106078
0.104708
0.0973381
0.0794576
0.078083
0.0958883
0.103329
0.101853
0.0943818
0.076645
0.0751718
0.0928213
0.100365
0.0987748
0.0911998
0.0736301
0.0720497
0.0895198
0.0971695
0.0954545
0.0877709
0.0703923
0.0686855
0.0859518
0.0937146
0.0918501
0.0840485
0.0668853
0.0650184
0.0820569
0.0899448
0.0878932
0.079958
0.0630338
0.0609567
0.0777438
0.0857774
0.0834841
0.0753892
0.0587266
0.0563664
0.0728808
0.0810938
0.0784824
0.0701839
0.0538045
0.051052
0.0672783
0.0757286
0.0726885
0.0641102
0.0480275
0.0447134
0.0606446
0.0694365
0.0657952
0.0567969
0.0410097
0.0368385
0.0524904
0.0618249
0.0572891
0.0475859
0.0320608
0.0264281
0.0419043
0.0522247
0.0462337
0.0350848
0.0193563
0.0124993
0.0272719
0.039634
0.032056
0.0163906
0.00712493
0.0141449
0.00513843
0.0235831
0.0114414
0.0110755
0.0179944
0.0210158
0.0160386
0.00374568
0.00955252
0.0194704
0.0230458
0.0222763
0.0197028
0.0121526
0.0121842
0.0175546
0.0183667
0.0117975
0.0147353
0.0138089
0.0153405
0.0130095
0.0072398
0.00556367
0.0126851
0.0157762
0.0163974
0.0128458
0.00453139
0.00697302
0.0146767
0.0180474
0.0198039
0.0166649
0.00918416
0.0118229
0.0190845
0.0217634
0.0229431
0.0204949
0.0134196
0.0145862
0.0215524
0.0237965
0.0235432
0.0213116
0.0144081
0.0136232
0.0206176
0.0229973
0.0223808
0.0197287
0.012218
0.0111343
0.0192093
0.0221424
0.0221941
0.0190518
0.0104061
0.0105967
0.0193374
0.022549
0.0231474
0.0199731
0.0113283
0.012381
0.0209209
0.0239403
0.0248718
0.0220431
0.0136413
0.0150094
0.0232586
0.025842
0.026828
0.0244823
0.0164181
0.0178102
0.0256773
0.0277674
0.0286537
0.0267982
0.0191547
0.0204071
0.0278166
0.0294394
0.030123
0.0287053
0.021551
0.0225674
0.0294604
0.0306824
0.0311141
0.0300642
0.0234531
0.0241889
0.0305138
0.0314036
0.031543
0.0307953
0.0247731
0.0251883
0.0308997
0.0315175
0.0313134
0.0308135
0.0254306
0.0254831
0.0305211
0.0309281
0.0303401
0.0300075
0.0253332
0.0249467
0.029277
0.029558
0.0285558
0.0283226
0.0243271
0.0234497
0.0271282
0.0273366
0.0258653
0.0256825
0.0223202
0.0209009
0.0239607
0.0241463
0.0221353
0.0219569
0.0192129
0.0171747
0.0196247
0.0198274
0.0172507
0.0170489
0.0149487
0.0123443
0.0141481
0.0144069
0.011462
0.0111937
0.00979428
0.00659701
0.00774384
0.0081972
0.00490562
0.00435271
0.00353422
0.000893393
0.0016169
0.0024852
0.00410093
0.00714875
0.0101149
0.0132737
0.0160799
0.0186067
0.020651
0.022264
0.0234084
0.0240851
0.0242955
0.0240267
0.0232542
0.0219457
0.020082
0.0176555
0.0146938
0.0112809
0.00757723
0.00542587
0.00372874
0.0028131
0.00420697
0.00396703
0.00269801
0.00222975
0.00175057
0.00213593
0.00311337
0.00334475
0.00427951
0.00448403
0.00287619
0.00366428
0.00606897
0.00584413
0.0061444
0.00622958
0.00321544
0.00327898
0.00662562
0.00676709
0.00660866
0.00619175
0.00271076
0.00252335
0.00594327
0.00631831
0.00590997
0.00586413
0.00273209
0.00405763
0.00613545
0.00437637
0.00471093
0.00741196
0.00544995
0.00549632
0.00770782
0.00383846
0.00303435
0.00731456
0.00499347
0.00389693
0.00570527
0.00202123
0.00643702
0.00363276
0.00319304
0.00257592
0.00266661
0.0114121
0.0153042
0.00663446
0.00219206
0.000727872
0.0103926
0.0188302
0.0217355
0.0137573
0.00148034
0.00358307
0.0169344
0.0244085
0.0265958
0.0195459
0.00561077
0.00771382
0.0221319
0.0286636
0.0303598
0.0242179
0.00957807
0.0114603
0.0262453
0.0319826
0.0333138
0.0279371
0.0131744
0.0149566
0.0296845
0.0346319
0.0357201
0.0311013
0.0165683
0.0182773
0.032558
0.0367938
0.0376954
0.0337824
0.0198937
0.0216498
0.035119
0.0385962
0.0393729
0.0362111
0.0233551
0.0253241
0.0375081
0.0401804
0.0409849
0.0387074
0.0274648
0.029714
0.0399614
0.0416883
0.0420351
0.0406713
0.0313566
0.0325087
0.0408509
0.0418921
0.0414446
0.0406118
0.033139
0.0336708
0.04008
0.0406778
0.0396601
0.039228
0.0337342
0.0334898
0.0380474
0.0382991
0.0366929
0.0365799
0.0327826
0.0317276
0.0347186
0.0346545
0.0323087
0.0325843
0.0303569
0.0284641
0.0298314
0.0294967
0.0279716
0.027654
0.0240902
0.0235024
0.0252761
0.025272
0.021857
0.0220007
0.0208727
0.0173231
0.0177998
0.0176545
0.0128933
0.0131142
0.01318
0.00743699
0.00647729
0.00690351
0.00432531
0.00322027
0.00332551
0.00639216
0.00846782
0.0101437
0.021752
0.0203013
0.019501
0.0282986
0.0301881
0.0326374
0.0475118
0.0473331
0.0462932
0.0715707
0.0706952
0.0685367
0.0950927
0.0953577
0.094822
0.123843
0.121941
0.121087
0.15027
0.158891
0.173878
0.212489
0.196272
0.187673
0.208392
0.219503
0.224298
0.201427
0.205449
0.198722
0.198566
0.195795
0.171469
0.160409
0.185155
0.191083
0.17559
0.168837
0.149053
0.132934
0.152242
0.160571
0.159895
0.150141
0.127644
0.116832
0.136935
0.146762
0.149756
0.139897
0.119075
0.111239
0.129899
0.13945
0.142891
0.133464
0.113759
0.109169
0.126924
0.136099
0.127452
0.118414
0.102181
0.106102
0.123311
0.131553
0.12476
0.116637
0.100673
0.10541
0.121519
0.128974
0.124939
0.117502
0.102705
0.0973839
0.111211
0.118653
0.122994
0.116331
0.101453
0.097378
0.111349
0.118149
0.12269
0.11645
0.10221
0.0988818
0.112056
0.118441
0.122717
0.11684
0.103608
0.10214
0.114451
0.12048
0.116007
0.109822
0.0980617
0.101745
0.11473
0.120165
0.116874
0.11111
0.0986065
0.103614
0.116193
0.121128
0.117994
0.112682
0.100858
0.105104
0.117045
0.121671
0.118857
0.113839
0.102806
0.106547
0.118037
0.122623
0.120255
0.115349
0.104654
0.108846
0.119762
0.124176
0.123389
0.118526
0.108026
0.105111
0.115414
0.120423
0.124454
0.120272
0.108823
0.106378
0.117583
0.122345
0.126477
0.122536
0.111241
0.109417
0.120054
0.124551
0.128349
0.124384
0.113178
0.111464
0.122027
0.126575
0.130474
0.126811
0.116062
0.114152
0.124319
0.128613
0.132175
0.128495
0.117823
0.116813
0.126739
0.130899
0.134684
0.131259
0.120924
0.118943
0.128848
0.132991
0.136512
0.133101
0.12286
0.121936
0.131451
0.135433
0.139108
0.135852
0.125782
0.124013
0.133687
0.137668
0.141145
0.137901
0.12783
0.1269
0.136329
0.140187
0.143799
0.140692
0.130696
0.128972
0.13858
0.142463
0.14593
0.142834
0.132799
0.13193
0.141373
0.145151
0.148786
0.145861
0.135919
0.134173
0.143749
0.147513
0.150881
0.14786
0.137688
0.136628
0.146274
0.150059
0.15374
0.150848
0.140456
0.138819
0.148667
0.152515
0.155131
0.151611
0.140463
0.145181
0.156026
0.158905
0.158093
0.154467
0.145023
0.148593
0.158372
0.161354
0.16025
0.156509
0.147308
0.150917
0.160628
0.163598
0.163073
0.159391
0.150271
0.154608
0.164137
0.166863
0.166141
0.162638
0.153551
0.156668
0.166559
0.169383
0.168564
0.164819
0.155264
0.159508
0.16952
0.172276
0.171755
0.168131
0.15862
0.16222
0.172615
0.175295
0.174136
0.17041
0.160321
0.162336
0.173577
0.176822
0.180779
0.178342
0.167318
0.166946
0.176787
0.180254
0.183659
0.180914
0.170911
0.169948
0.179299
0.182939
0.186511
0.183717
0.173898
0.173139
0.18243
0.18608
0.189868
0.187302
0.177676
0.176775
0.185907
0.189396
0.192762
0.19015
0.180126
0.178752
0.188373
0.191991
0.194828
0.191902
0.181166
0.185819
0.196522
0.198677
0.19826
0.19495
0.185371
0.188977
0.198808
0.20131
0.200725
0.197221
0.187877
0.191615
0.201461
0.204018
0.203761
0.200246
0.19078
0.195131
0.205074
0.20749
0.207092
0.203605
0.193986
0.197714
0.20818
0.210594
0.210085
0.206562
0.196511
0.198883
0.210104
0.212984
0.216961
0.214852
0.203599
0.203133
0.213334
0.216711
0.220242
0.217732
0.207375
0.206614
0.216444
0.220017
0.223807
0.22129
0.211008
0.210049
0.219945
0.22356
0.227352
0.224913
0.214542
0.213432
0.223393
0.226929
0.229835
0.227009
0.215999
0.220752
0.231832
0.233874
0.233764
0.23042
0.220335
0.224551
0.234825
0.237088
0.236914
0.233496
0.223629
0.228038
0.238233
0.24051
0.240399
0.236928
0.227003
0.231317
0.241717
0.244045
0.244034
0.240481
0.230271
0.235246
0.245881
0.248092
0.247876
0.244422
0.234108
0.236536
0.24806
0.25081
0.255148
0.253134
0.241507
0.241127
0.251765
0.255252
0.258986
0.256691
0.245998
0.245429
0.255693
0.259219
0.26325
0.261077
0.250527
0.249323
0.25968
0.263179
0.266824
0.264433
0.25346
0.252325
0.263134
0.26686
0.271147
0.268824
0.257437
0.256319
0.267415
0.271137
0.274593
0.271836
0.259792
0.265444
0.27759
0.279329
0.279406
0.275987
0.264798
0.269083
0.280596
0.283004
0.283234
0.27935
0.268155
0.274023
0.285492
0.287843
0.288823
0.285097
0.273931
0.280086
0.291503
0.293578
0.29337
0.289678
0.278231
0.28251
0.294818
0.297385
0.297558
0.293457
0.281424
0.285906
0.298867
0.301823
0.307793
0.306175
0.293749
0.294254
0.305434
0.30878
0.31303
0.310808
0.299129
0.298085
0.30954
0.313382
0.317988
0.31554
0.30371
0.303454
0.315095
0.319126
0.324791
0.322794
0.311598
0.31199
0.322891
0.326331
0.331371
0.329343
0.3178
0.316014
0.327802
0.331581
0.336111
0.333711
0.321325
0.320678
0.333086
0.337221
0.343301
0.341224
0.329112
0.32991
0.341758
0.345417
0.351171
0.349262
0.33691
0.334913
0.347614
0.351489
0.356371
0.353888
0.340466
0.339828
0.35335
0.357796
0.364686
0.362743
0.349658
0.350883
0.363576
0.367305
0.373689
0.371645
0.357858
0.355399
0.36937
0.373704
0.378172
0.374892
0.359793
0.369062
0.383854
0.385429
0.388843
0.385066
0.371697
0.382883
0.395013
0.396118
0.39786
0.394618
0.382494
0.388118
0.400712
0.403
0.407957
0.403432
0.389788
0.390402
0.404536
0.410094
0.419261
0.41786
0.405785
0.407184
0.419334
0.422544
0.42901
0.426722
0.412598
0.411168
0.426093
0.430761
0.439303
0.437269
0.422719
0.427355
0.441503
0.445439
0.456073
0.455282
0.441502
0.439006
0.453771
0.457667
0.464185
0.461766
0.44661
0.448672
0.464141
0.468882
0.481062
0.481463
0.470544
0.474822
0.485341
0.487025
0.493898
0.492657
0.479955
0.48187
0.496934
0.501416
0.508416
0.503367
0.487449
0.510398
0.52369
0.523443
0.528153
0.525124
0.510078
0.521686
0.536515
0.537754
0.547478
0.544673
0.529357
0.555216
0.56578
0.563298
0.575689
0.574341
0.560646
0.564066
0.57988
0.58385
0.598957
0.60218
0.593692
0.605326
0.615842
0.614769
0.624687
0.62263
0.607218
0.638362
0.644825
0.63938
0.656584
0.659804
0.649204
0.662166
0.676565
0.674171
0.680494
0.680326
0.662345
0.681708
0.690702
0.686407
0.685976
0.690365
0.681081
0.659725
0.680374
0.679828
0.661353
0.655645
0.616634
0.547506
0.608179
0.620883
0.569563
0.550228
0.472439
0.422546
0.507993
0.531357
0.507124
0.479924
0.389071
0.363157
0.456977
0.488222
0.471625
0.436734
0.339933
0.319436
0.417618
0.456012
0.442421
0.400982
0.301424
0.28605
0.385462
0.429532
0.418232
0.371944
0.272406
0.26029
0.358814
0.406963
0.397023
0.347333
0.249164
0.239199
0.335998
0.386804
0.377926
0.326237
0.230097
0.222019
0.316533
0.368779
0.361028
0.308396
0.214745
0.208349
0.300197
0.352878
0.346117
0.293461
0.202649
0.197688
0.286547
0.338958
0.333128
0.280984
0.193342
0.189595
0.275144
0.326764
0.321688
0.270548
0.186351
0.183583
0.265611
0.316106
0.311799
0.261867
0.181248
0.179285
0.257749
0.306896
0.303207
0.254592
0.17789
0.176496
0.251161
0.298967
0.295868
0.24871
0.175826
0.174876
0.245889
0.292216
0.289862
0.243998
0.174665
0.173994
0.241677
0.286739
0.285081
0.240387
0.17413
0.173719
0.238548
0.28242
0.28135
0.237699
0.174103
0.173855
0.236244
0.279099
0.278537
0.23585
0.17442
0.174349
0.234769
0.276641
0.276495
0.234691
0.175067
0.175085
0.233872
0.274882
0.275084
0.23412
0.175903
0.176054
0.233579
0.273732
0.274212
0.234039
0.176985
0.177194
0.233675
0.273061
0.273756
0.234355
0.178189
0.178503
0.234193
0.2728
0.273661
0.234998
0.179582
0.179925
0.234942
0.27284
0.273821
0.235888
0.181036
0.181458
0.235973
0.273142
0.274214
0.236982
0.182624
0.183049
0.23712
0.273624
0.274754
0.238212
0.184217
0.184699
0.238449
0.274271
0.275444
0.23956
0.185896
0.186359
0.239814
0.275018
0.276211
0.240969
0.187533
0.188032
0.241289
0.275865
0.277073
0.242437
0.189216
0.189682
0.24275
0.276762
0.277968
0.243915
0.190826
0.191311
0.24427
0.277712
0.278916
0.24541
0.192449
0.192897
0.245746
0.278684
0.279872
0.246891
0.193989
0.194442
0.24725
0.279677
0.280856
0.248359
0.195521
0.19594
0.248699
0.280681
0.281837
0.249807
0.19697
0.197379
0.250149
0.281678
0.282814
0.251208
0.198384
0.198754
0.251509
0.282663
0.283773
0.252567
0.199711
0.200072
0.252858
0.28363
0.28472
0.253867
0.201
0.201317
0.254114
0.284579
0.28567
0.255124
0.202194
0.202493
0.255359
0.285526
0.286557
0.256311
0.20334
0.203602
0.256509
0.286416
0.287419
0.257449
0.204404
0.204647
0.257632
0.287274
0.288259
0.258519
0.20542
0.205628
0.258671
0.288118
0.289074
0.259551
0.206356
0.206542
0.259688
0.288924
0.289862
0.260517
0.207241
0.207395
0.260625
0.289714
0.290625
0.261451
0.208054
0.208189
0.261546
0.290467
0.291363
0.262325
0.208823
0.20893
0.262395
0.291207
0.292078
0.263174
0.20953
0.209621
0.263231
0.291909
0.292767
0.263966
0.210201
0.210269
0.264002
0.292601
0.293435
0.26474
0.21082
0.210873
0.264764
0.293255
0.294078
0.26546
0.211408
0.211441
0.265464
0.2939
0.2947
0.266165
0.21195
0.211972
0.266159
0.294508
0.295298
0.26682
0.21247
0.212474
0.266795
0.295108
0.295877
0.267464
0.21295
0.212945
0.26743
0.295672
0.296431
0.268061
0.21341
0.21339
0.268009
0.296229
0.296968
0.268648
0.213837
0.213809
0.268588
0.296752
0.297483
0.269192
0.214249
0.214208
0.269116
0.29727
0.297984
0.269731
0.214633
0.214587
0.269649
0.297756
0.298463
0.270229
0.215007
0.214948
0.270133
0.298239
0.298929
0.270725
0.215353
0.215291
0.270623
0.29869
0.299375
0.271182
0.215693
0.215619
0.271067
0.29914
0.29981
0.271639
0.216008
0.215932
0.271521
0.299561
0.300226
0.272061
0.216319
0.216233
0.27193
0.299982
0.300634
0.272485
0.216608
0.216521
0.272351
0.300375
0.301023
0.272874
0.216894
0.216798
0.27273
0.300771
0.301405
0.273269
0.217161
0.217064
0.273121
0.301138
0.30177
0.27363
0.217426
0.217321
0.273472
0.30151
0.302128
0.273998
0.217673
0.217567
0.273837
0.301853
0.302471
0.274333
0.217919
0.217805
0.274162
0.302203
0.302807
0.274675
0.218148
0.218033
0.274503
0.302524
0.303129
0.274987
0.218377
0.218255
0.274806
0.302854
0.303446
0.275308
0.21859
0.218468
0.275125
0.303156
0.303749
0.275599
0.218804
0.218676
0.275408
0.303467
0.304048
0.275901
0.219004
0.218876
0.275708
0.303752
0.304334
0.276173
0.219206
0.219072
0.275973
0.304046
0.304616
0.276457
0.219393
0.21926
0.276256
0.304315
0.304886
0.276712
0.219583
0.219444
0.276505
0.304593
0.305154
0.27698
0.21976
0.219622
0.276772
0.304847
0.30541
0.27722
0.21994
0.219797
0.277006
0.305112
0.305665
0.277474
0.220108
0.219965
0.277259
0.305353
0.305908
0.2777
0.220279
0.220132
0.27748
0.305605
0.306151
0.277942
0.220439
0.220292
0.277721
0.305835
0.306382
0.278156
0.220602
0.220451
0.27793
0.306075
0.306614
0.278387
0.220755
0.220605
0.278161
0.306294
0.306836
0.278591
0.220912
0.220759
0.278361
0.306526
0.30706
0.278814
0.22106
0.220909
0.278584
0.306738
0.307276
0.279012
0.221215
0.221061
0.278779
0.306964
0.307496
0.27923
0.221362
0.221211
0.278999
0.307172
0.307709
0.279425
0.221518
0.221364
0.279192
0.307397
0.307928
0.279643
0.221668
0.221518
0.279413
0.307605
0.308141
0.27984
0.221827
0.221675
0.279607
0.307831
0.308361
0.280059
0.221981
0.221832
0.279829
0.308039
0.308575
0.280256
0.222142
0.22199
0.280022
0.308264
0.308792
0.280472
0.222294
0.222143
0.280239
0.308468
0.308999
0.280661
0.222448
0.22229
0.280421
0.308683
0.309203
0.280863
0.222586
0.222425
0.280619
0.308871
0.30939
0.281052
0.222718
0.222544
0.280798
0.309064
0.309591
0.281197
0.222883
0.222701
0.280941
0.30927
0.309806
0.281363
0.222951
0.222731
0.281109
0.309464
0.310066
0.281556
0.223049
0.222782
0.281331
0.309741
0.310562
0.281922
0.223256
0.222969
0.281838
0.310373
0.311445
0.282619
0.223682
0.223827
0.282901
0.31186
0.314639
0.284732
0.225601
0.228555
0.287815
0.318401
0.321271
0.290902
0.231786
0.352662
0.372552
0.379426
0.382744
0.394375
0.401325
0.40601
0.410028
0.420085
0.426273
0.433761
0.43979
0.444248
0.447656
0.450077
0.45176
0.452909
0.453701
0.45426
0.454665
0.454966
0.455195
0.455374
0.455515
0.455629
0.455721
0.455795
0.455852
0.455895
0.455924
0.45594
0.455948
0.455959
0.455963
0.455969
0.455974
0.455977
0.455977
0.455973
0.455961
0.455942
0.455913
0.455874
0.455826
0.455773
0.455722
0.455666
0.455583
0.455461
0.455304
0.455119
0.45491
0.454676
0.454414
0.45412
0.45379
0.45342
0.453005
0.452537
0.45201
0.451416
0.450746
0.449991
0.449142
0.448186
0.447114
0.445913
0.444568
0.443067
0.441394
0.439535
0.437473
0.435193
0.432682
0.429924
0.426909
0.423625
0.420067
0.416231
0.412117
0.40773
0.403079
0.398177
0.393042
0.387694
0.382158
0.376459
0.370627
0.364688
0.358673
0.352609
0.346523
0.340441
0.334387
0.328382
0.322445
0.316594
0.310843
0.305206
0.299693
0.294313
0.289072
0.283976
0.27903
0.274235
0.269593
0.265104
0.260769
0.256587
0.252555
0.248672
0.244935
0.241342
0.237889
0.234573
0.23139
0.228338
0.225413
0.222611
0.219928
0.217361
0.214906
0.212561
0.21032
0.208182
0.206142
0.204198
0.202347
0.200585
0.198909
0.197318
0.195808
0.194376
0.193021
0.19174
0.190531
0.189392
0.188321
0.187316
0.186375
0.185497
0.184679
0.183921
0.183221
0.182579
0.181993
0.181463
0.180989
0.18057
0.180204
0.179894
0.179639
0.179448
0.179321
0.179249
0.179211
0.179193
0.179193
0.179188
0.179163
0.179071
0.178844
0.178472
0.178021
0.177543
0.177053
0.17655
0.176026
0.175474
0.174892
0.174277
0.173632
0.172956
0.172251
0.171518
0.170758
0.169971
0.16916
0.168324
0.167466
0.166587
0.16569
0.164774
0.163843
0.162897
0.16194
0.160973
0.159997
0.159016
0.15803
0.157044
0.156058
0.155075
0.154097
0.153127
0.152168
0.151221
0.150288
0.149371
0.148474
0.147597
0.146744
0.145916
0.145115
0.144344
0.143604
0.142897
0.142224
0.141583
0.140968
0.140372
0.139798
0.139279
0.13889
0.138703
0.138699
0.138778
0.138857
0.138893
0.138893
0.138783
0.138746
0.138668
0.138557
0.138418
0.138252
0.138058
0.137836
0.137594
0.137329
0.137043
0.136734
0.136407
0.136058
0.135691
0.135304
0.134901
0.134477
0.134039
0.133581
0.133109
0.132616
0.132108
0.131579
0.131033
0.130464
0.129876
0.129263
0.128629
0.127969
0.127288
0.12658
0.125851
0.125095
0.124318
0.123514
0.122688
0.121832
0.120951
0.120037
0.119092
0.11811
0.11709
0.116028
0.114923
0.113772
0.112575
0.111328
0.110032
0.108685
0.107285
0.105831
0.104323
0.102756
0.101125
0.0994243
0.0976447
0.0957789
0.0938141
0.09174
0.08954
0.0872005
0.0847001
0.0820203
0.0791329
0.0760109
0.0726213
0.0689333
0.0649417
0.0606595
0.0562919
0.0519468
0.0473108
0.0414136
0.0343025
0.0259634
0.0164626
0.0068265
0.0047469
0.0122395
0.0162816
0.0181354
0.019425
0.0208829
0.0224559
0.0234917
0.0243809
0.0241778
0.0236865
0.023071
0.0228976
0.0229868
0.0233926
0.0239551
0.0246695
0.025446
0.0262607
0.0270642
0.0278514
0.0285792
0.0292438
0.0298077
0.0302805
0.0306286
0.0308616
0.0309484
0.0308984
0.0306698
0.0302955
0.0297112
0.0289663
0.0279937
0.0268376
0.0254243
0.0238024
0.021884
0.0197144
0.0172373
0.0145443
0.011781
0.00887999
0.00598956
0.00841815
0.0110851
0.0122599
0.0104014
0.0124759
0.0134642
0.0151098
0.0146834
0.016954
0.0167414
0.0165236
0.0146655
0.0143834
0.0139363
0.016567
0.0165279
0.0163291
0.0174216
0.0183161
0.0188606
0.0207525
0.0199659
0.0188834
0.0172286
0.0168115
0.0183691
0.0186147
0.0192195
0.0210227
0.0198738
0.0215977
0.0228105
0.0241502
0.0224271
0.020399
0.0220478
0.0238397
0.0255025
0.0264456
0.0243492
0.02544
0.0274057
0.0279815
0.0256491
0.0232928
0.0240959
0.0264169
0.0285881
0.0288309
0.0263574
0.0268431
0.0290851
0.0290536
0.0265305
0.0244519
0.0242127
0.0267631
0.0290154
0.0287512
0.0262106
0.026222
0.0284613
0.0279696
0.0254779
0.0235155
0.0224372
0.0252839
0.0274726
0.0267989
0.0243785
0.0240205
0.0261449
0.0253571
0.0230091
0.0210884
0.0196123
0.0225513
0.0246221
0.0238061
0.0214895
0.0210045
0.023076
0.0223522
0.019933
0.0182883
0.0155582
0.0195793
0.0217991
0.0212195
0.0182794
0.0183089
0.021097
0.020922
0.0170296
0.0103177
0.00576725
0.0180797
0.021575
0.0217998
0.0153696
0.0150454
0.0223279
0.0215125
0.0108766
0.0221099
0.035985
0.00795809
0.0200557
0.0181406
0.00890541
0.0125358
0.0129117
0.00968742
0.0200308
0.046892
0.0558357
0.0275799
0.00643943
0.0148513
0.0337784
0.039781
0.0231928
0.0308369
0.0461734
0.0631506
0.0691603
0.0516387
0.0383902
0.0453406
0.0572486
0.0612991
0.0511206
0.0559475
0.0651616
0.0738682
0.0775194
0.0679975
0.0598378
0.0631693
0.0707275
0.0731805
0.0662616
0.0695225
0.075789
0.0809004
0.0845751
0.0784515
0.0727765
0.0760279
0.0810549
0.0836739
0.0790782
0.0819962
0.0860954
0.088497
0.0924405
0.0885469
0.0847097
0.0872816
0.090741
0.0929862
0.089679
0.0919516
0.0949617
0.0962344
0.099799
0.0970075
0.0940823
0.0961064
0.0987873
0.100655
0.0980175
0.0998392
0.102268
0.103112
0.106184
0.103983
0.101572
0.10323
0.105456
0.107042
0.104819
0.106344
0.108401
0.109043
0.111709
0.109874
0.107813
0.109226
0.111133
0.112503
0.110594
0.111909
0.113667
0.114197
0.116513
0.114947
0.113175
0.114388
0.116027
0.117213
0.115563
0.11668
0.118208
0.11866
0.120642
0.119304
0.117766
0.118793
0.120218
0.12123
0.119794
0.120738
0.122069
0.122467
0.124151
0.123004
0.121664
0.122535
0.123778
0.124645
0.123394
0.124202
0.125362
0.125714
0.127169
0.126171
0.125004
0.12576
0.126841
0.127596
0.126511
0.127218
0.128223
0.128527
0.129792
0.128927
0.127921
0.12858
0.129511
0.130164
0.129235
0.129846
0.130704
0.130962
0.132037
0.131306
0.130453
0.131017
0.131801
0.132353
0.131576
0.132093
0.132806
0.133018
0.13391
0.13331
0.132607
0.133083
0.133725
0.134184
0.133555
0.133993
0.134564
0.134721
0.135458
0.134982
0.134427
0.13483
0.135331
0.135711
0.135228
0.135597
0.13603
0.136124
0.136722
0.13637
0.135959
0.136294
0.136658
0.136959
0.136618
0.136916
0.137214
0.137247
0.137699
0.137474
0.137201
0.137462
0.137695
0.137913
0.137705
0.137926
0.138098
0.138075
0.138376
0.138273
0.138127
0.138306
0.138421
0.138553
0.138464
0.1386
0.138664
0.1386
0.13875
0.138753
0.13871
0.138797
0.138822
0.138867
0.138857
0.138892
0.138892
0.138832
0.138733
0.138641
0.138499
0.138296
0.138028
0.137692
0.137287
0.136814
0.136273
0.135665
0.134987
0.134235
0.133403
0.132484
0.131473
0.130368
0.129172
0.127884
0.126504
0.125025
0.123441
0.121736
0.119886
0.117883
0.115723
0.113408
0.110938
0.108307
0.105503
0.102515
0.0993372
0.095995
0.0925587
0.0891537
0.0859206
0.0829003
0.0798839
0.0765117
0.0725627
0.0677879
0.0617314
0.0540907
0.044756
0.0340733
0.0220259
0.0109803
0.00930214
0.0128317
0.0153774
0.0168435
0.0178153
0.0183625
0.0185625
0.0184185
0.0180927
0.0176378
0.017168
0.0145485
0.0160162
0.0182286
0.0196145
0.0211982
0.0222342
0.023311
0.0222321
0.0206534
0.0208582
0.0228218
0.0239592
0.0242006
0.0231614
0.0214701
0.0190966
0.0157966
0.0160269
0.0193789
0.021178
0.0230355
0.0240045
0.0233879
0.0227024
0.0213888
0.0206187
0.0218624
0.0223057
0.0207976
0.0208924
0.0204682
0.0192673
0.0169957
0.0147396
0.0127853
0.0129093
0.0103248
0.0135338
0.0129223
0.0125971
0.00660907
0.00815419
0.00649193
0.00963429
0.0127997
0.011105
0.00985098
0.00335442
0.00141877
0.0059945
0.0124712
0.0123681
0.00638249
0.00755618
0.0121944
0.0116622
0.00953059
0.0158132
0.00912173
0.00446754
0.0113851
0.0096954
0.0183936
0.0185342
0.0186473
0.0186524
0.0186767
0.0190305
0.0193191
0.0195149
0.0194777
0.0188155
0.0164358
0.017978
0.0189616
0.0183742
0.0162942
0.0137245
0.010616
0.0142217
0.0172305
0.0201866
0.0223057
0.0238765
0.0221901
0.0195691
0.0165607
0.0126818
0.00819407
0.00366024
0.00265647
0.00251898
0.00350285
0.00346894
0.00465617
0.00251985
0.00155816
0.00451677
0.00522179
0.000963943
0.00907772
0.0141384
0.00401646
0.00172547
0.00468021
0.00360931
0.00186637
0.00697775
0.00999268
0.0183014
0.0220163
0.0247897
0.0270574
0.0256692
0.0268797
0.0239339
0.0256803
0.0270519
0.0276945
0.0325286
0.0325324
0.0313414
0.030834
0.0293784
0.0284601
0.0310144
0.0290479
0.0281179
0.026645
0.0250452
0.0233096
0.0213787
0.0190139
0.0163202
0.0133155
0.00528104
0.00215616
0.00926102
0.0125412
0.0160088
0.018793
0.0214554
0.0238877
0.0261041
0.0280365
0.0295739
0.0307248
0.031964
0.0312639
0.0297327
0.032627
0.0329049
0.0327143
0.0343106
0.0347783
0.0340518
0.0338806
0.0349595
0.0359762
0.0357411
0.0363081
0.0355529
0.0366666
0.0373991
0.0379573
0.0333096
0.0325979
0.0272291
0.025585
0.0188963
0.0216061
0.0157224
0.0233455
0.0336592
0.0249945
0.0149528
0.0106698
0.0115393
0.0237781
0.0341672
0.0195342
0.0297706
0.0443837
0.0559767
0.0462386
0.0355532
0.0451384
0.0560541
0.0653974
0.0737579
0.0643871
0.0526076
0.039503
0.0285619
0.0296997
0.0247401
0.0271654
0.0297485
0.0307909
0.0325965
0.0372826
0.0379246
0.0398217
0.0398842
0.0393718
0.0392375
0.0385823
0.0383168
0.0375997
0.0371983
0.0377067
0.0368599
0.0383927
0.0390782
0.0396291
0.0402115
0.0406565
0.0411853
0.0414859
0.0416398
0.0400297
0.0394901
0.0391351
0.0408149
0.041307
0.0399294
0.0381003
0.0356228
0.0333688
0.0358133
0.0372836
0.0389096
0.0374871
0.035911
0.0344481
0.0324703
0.0300629
0.0263341
0.0260301
0.0258907
0.0286928
0.0242887
0.0229916
0.0226064
0.0252639
0.0279023
0.0304433
0.0314223
0.0338509
0.0285582
0.0252868
0.0251358
0.0280667
0.0216797
0.0221166
0.0189305
0.0203689
0.0198516
0.0218342
0.0174025
0.0167329
0.013835
0.0178068
0.012067
0.00719438
0.0130224
0.0186921
0.0238343
0.0282254
0.0340521
0.0366092
0.0429535
0.0585103
0.0723249
0.0821441
0.0921502
0.0829014
0.0654486
0.0417311
0.045193
0.0451395
0.0320641
0.029966
0.0277706
0.0242463
0.0410912
0.0424653
0.0512349
0.0559529
0.0762104
0.0697426
0.068677
0.0771282
0.0928766
0.0758077
0.0859046
0.0984869
0.0853728
0.0639468
0.0454832
0.105948
0.119237
0.117491
0.101837
0.102505
0.117295
0.117192
0.131307
0.138825
0.147589
0.134588
0.17435
0.161271
0.148109
0.138735
0.131411
0.116981
0.104842
0.0922256
0.0881084
0.100107
0.107167
0.125484
0.14267
0.144611
0.157591
0.161992
0.177558
0.191701
0.200603
0.19977
0.195891
0.19717
0.191385
0.190214
0.180588
0.167828
0.168428
0.157686
0.160078
0.150661
0.153629
0.146622
0.138184
0.141985
0.135
0.139756
0.134575
0.128267
0.132998
0.127578
0.132343
0.127473
0.132264
0.128717
0.124265
0.128797
0.12485
0.128882
0.125131
0.12969
0.126181
0.130539
0.127501
0.132439
0.130465
0.127496
0.131824
0.129252
0.133663
0.131141
0.135199
0.132956
0.137074
0.134783
0.138763
0.136906
0.140833
0.138857
0.142734
0.141133
0.144976
0.143274
0.147062
0.145671
0.149425
0.147911
0.151658
0.150468
0.154157
0.152746
0.156401
0.15527
0.158861
0.157208
0.160478
0.162477
0.164479
0.160541
0.16244
0.158203
0.160219
0.156003
0.158117
0.153632
0.155894
0.151532
0.153916
0.149324
0.151926
0.14739
0.15011
0.145317
0.148238
0.143569
0.146625
0.141739
0.14504
0.14022
0.143646
0.138545
0.142136
0.137142
0.140692
0.135266
0.138405
0.144871
0.151391
0.149175
0.153657
0.145272
0.14767
0.151763
0.15608
0.150305
0.154348
0.158955
0.1509
0.15345
0.157482
0.162024
0.15691
0.160772
0.165542
0.157928
0.160785
0.164567
0.169208
0.164831
0.168393
0.173112
0.166083
0.168839
0.166473
0.164318
0.16311
0.166527
0.165353
0.169097
0.168323
0.17183
0.170933
0.174534
0.173727
0.177304
0.176581
0.180009
0.178683
0.181969
0.183429
0.184395
0.181161
0.18269
0.178408
0.179401
0.175875
0.177659
0.173092
0.174332
0.17064
0.172801
0.168345
0.170077
0.177018
0.176422
0.18136
0.181112
0.185961
0.185878
0.190779
0.187526
0.185909
0.185151
0.188673
0.188016
0.191538
0.191096
0.19443
0.19396
0.197179
0.196345
0.199522
0.202895
0.202474
0.205536
0.20517
0.208605
0.208468
0.211797
0.211561
0.214964
0.214373
0.217621
0.218078
0.218052
0.215279
0.215746
0.21197
0.212038
0.209052
0.209797
0.206044
0.206354
0.203592
0.200272
0.200926
0.197777
0.198341
0.194903
0.195517
0.192292
0.193109
0.18968
0.190822
0.194002
0.195922
0.196522
0.201376
0.195838
0.199155
0.201913
0.206479
0.201178
0.20439