/*--------------------------------*- C++ -*----------------------------------*\
| =========                 |                                                 |
| \\      /  F ield         | OpenFOAM: The Open Source CFD Toolbox           |
|  \\    /   O peration     | Version:  v2006                                 |
|   \\  /    A nd           | Website:  www.openfoam.com                      |
|    \\/     M anipulation  |                                                 |
\*---------------------------------------------------------------------------*/
FoamFile
{
    version     2.0;
    format      ascii;
    class       volScalarField;
    location    "0.056";
    object      yPlus;
}
// * * * * * * * * * * * * * * * * * * * * * * * * * * * * * * * * * * * * * //

dimensions      [0 0 0 0 0 0 0];


internalField   uniform 0;

boundaryField
{
    bottomEmptyFaces
    {
        type            empty;
    }
    topEmptyFaces
    {
        type            empty;
    }
    inlet
    {
        type            calculated;
        value           uniform 0;
    }
    outlet
    {
        type            calculated;
        value           uniform 0;
    }
    walls
    {
        type            calculated;
        value           nonuniform List<scalar> 
599
(
21.3676
21.4307
21.4193
21.479
21.4674
21.5235
21.5116
21.5643
21.5522
21.6016
21.5894
21.636
21.6237
21.6677
21.6554
21.6973
21.685
21.725
21.7128
21.7511
21.739
21.7759
21.7639
21.7994
21.7876
21.8221
21.8103
21.8438
21.8321
21.8647
21.8531
21.8849
21.8734
21.9045
21.8931
21.9235
21.9122
21.9421
21.9309
21.96
21.9489
21.9777
21.9666
21.9949
21.9839
22.0117
22.0007
22.0282
22.0172
22.0443
22.0334
22.0601
22.0492
22.0756
22.0648
22.0907
22.0799
22.1056
22.0948
22.12
22.1093
22.1343
22.1236
22.1482
22.1375
22.162
22.1513
22.1753
22.1647
22.1886
22.1779
22.2015
22.1909
22.2143
22.2037
22.2268
22.2162
22.2391
22.2285
22.2512
22.2407
22.2633
22.2527
22.275
22.2644
22.2867
22.2761
22.2981
22.2876
22.3095
22.299
22.3207
22.3102
22.3319
22.3214
22.3431
22.3326
22.3544
22.344
22.3657
22.3554
22.3772
22.367
22.3888
22.3786
22.4006
22.3905
22.4123
22.4022
22.4239
22.4137
22.4351
22.4248
22.4456
22.4348
22.4707
22.4717
22.4902
22.4903
22.556
22.5803
22.7269
22.8294
23.0908
23.3064
24.0972
25.3023
11.9152
13.3854
12.4124
14.5139
10.9237
12.1734
14.3272
10.5747
11.3107
10.4822
11.9386
11.6577
13.7412
11.181
12.4999
13.6828
10.1127
10.8754
10.824
8.26213
8.66301
7.7677
7.87326
8.99359
9.31226
8.46132
8.63826
8.75584
9.08721
9.70993
9.66236
9.70647
10.7178
10.1365
11.8333
9.855
10.8322
8.70161
9.81205
8.9554
9.86649
11.9335
8.82638
9.46098
9.99627
11.2788
10.3009
11.4654
10.5556
11.7141
11.0077
12.8508
12.8121
9.47455
10.1613
9.60786
10.7202
9.28957
10.4999
9.78565
10.6764
8.91579
9.74922
8.93693
9.68981
8.69232
9.38573
8.66108
9.31999
8.81496
9.60957
8.83397
9.55601
8.94034
9.81849
8.96356
9.79679
8.53018
9.21664
8.49595
9.0391
21.8423
22.8669
25.071
17.4358
18.8314
23.3604
17.2309
18.2458
16.4932
18.7561
20.4909
23.9481
16.6888
18.6396
16.6996
18.6027
16.4828
18.456
16.7194
18.6395
16.7054
18.4967
16.4972
18.3674
16.8408
18.9113
16.942
18.7865
29.6276
25.4807
25.1755
32.9331
28.8406
27.4584
19.7063
21.0293
20.7128
22.6993
19.8186
22.0864
23.532
24.1393
20.9385
23.4429
25.3107
26.042
30.0854
24.3476
24.339
22.3611
23.493
33.968
34.6018
35.3346
26.868
24.79
37.9436
39.1782
39.3682
37.9995
36.3154
34.4552
32.73
31.0858
29.6043
28.2539
27.0793
26.0118
19.6945
21.6147
18.9034
20.3498
13.4711
12.4414
12.885
12.1462
21.4828
13.8686
16.4161
20.21
21.1423
13.0015
12.6072
18.915
9.58628
14.2774
15.6913
16.6804
8.5393
8.71328
11.9875
11.0642
10.1603
9.86641
9.35965
9.1745
8.69157
8.42754
14.287
9.99625
9.35993
11.2219
10.2366
7.98759
7.90918
12.8763
8.34397
7.3411
4.41034
25.0718
24.2245
9.26631
8.0269
6.45754
23.4742
22.8142
22.227
21.7282
5.45213
6.45259
3.51462
21.2828
20.9263
7.28022
6.48925
20.6004
20.3679
5.83276
5.51403
20.1316
5.09507
20.0071
4.87714
19.8201
4.57764
4.43296
19.8133
4.1963
19.6805
4.04905
19.7185
19.6419
19.6979
19.6482
3.7722
19.7159
3.53506
19.6812
3.26196
3.0605
19.756
2.82063
19.7265
2.63196
19.8119
2.40029
2.21002
19.7844
19.8742
1.96528
1.75663
19.8482
1.49117
19.9427
1.25719
19.919
0.955915
0.695887
20.0176
0.409801
19.9962
0.314851
20.0993
20.0803
20.1859
20.1688
0.406272
20.2765
0.418488
20.2612
0.469456
0.573382
20.3693
0.738296
20.3553
0.796072
20.4631
0.781156
0.5724
20.4502
20.5563
0.387205
0.362959
20.544
0.393714
20.6479
0.461166
20.6361
0.455267
0.468604
20.7369
0.355456
0.314665
20.7253
20.8227
20.8114
20.9051
20.8938
20.984
20.9728
21.0592
21.0481
21.1307
21.1199
21.1987
21.1879
21.2629
21.252
21.323
21.3118
21.3788
14.2533
16.1821
17.7372
14.8193
16.6911
14.5468
16.3478
15.343
18.0631
14.2309
16.7881
16.4441
12.0124
13.7344
12.115
13.0483
13.1587
14.2306
13.086
14.9229
13.5486
15.1816
13.7581
15.474
17.0964
20.0068
19.5773
14.5242
15.5242
12.7297
14.3052
15.3835
13.2516
15.65
12.4916
13.9896
11.3623
12.2666
11.3407
12.9589
0.688202
26.5363
41.3757
38.5786
36.2767
34.9056
33.5637
32.5573
31.7025
30.9335
30.4227
29.8884
29.5147
29.0838
28.789
28.4311
28.1854
27.8781
27.6642
27.3917
27.1996
26.9513
26.774
26.5427
26.3753
26.1557
25.9951
25.7836
25.6272
25.421
25.2672
25.064
24.9111
24.7091
24.5556
24.353
24.1978
23.9929
23.8347
23.6261
23.4638
23.2502
23.0828
22.8628
22.6894
22.4615
22.2808
22.0435
21.8541
21.6054
21.4056
21.1435
20.9317
20.6539
20.428
20.1321
19.8898
19.5726
19.3112
18.9693
18.6854
18.3138
18.0022
17.5946
17.2472
16.7954
16.3976
15.8932
15.4183
14.8426
14.2536
13.5679
12.7973
11.9076
10.8362
9.70795
7.64858
4.71466
6.24589
7.79128
8.36828
8.50555
7.60172
4.81814
3.0036
2.29709
2.02604
1.95208
2.8244
3.50966
4.08995
4.32007
4.39552
4.23606
3.99457
3.66865
3.4977
3.42634
3.56006
3.83628
4.16599
4.53083
4.89471
5.24569
5.56711
5.85922
6.11114
6.32834
6.50449
6.6486
6.75129
6.80783
6.82908
6.82646
6.76169
6.6642
6.51143
6.32298
6.07381
5.78928
5.43099
5.04043
4.56564
4.10119
3.53381
3.04494
2.27976
1.78432
44.9208
1.587
)
;
    }
    rightWall
    {
        type            calculated;
        value           nonuniform List<scalar> 
30
(
5.96167
5.41549
4.10375
13.5736
27.556
29.2103
30.3593
32.1453
33.4919
34.324
34.8242
34.9808
34.9045
34.6739
34.3444
33.8055
33.2041
32.2661
31.3079
29.7063
28.2371
25.4626
22.9795
18.9641
6.44749
12.963
15.5444
1.9895
4.15
5.30777
)
;
    }
    symmetryLine
    {
        type            symmetryPlane;
    }
}


// ************************************************************************* //
