/*--------------------------------*- C++ -*----------------------------------*\
| =========                 |                                                 |
| \\      /  F ield         | OpenFOAM: The Open Source CFD Toolbox           |
|  \\    /   O peration     | Version:  v2006                                 |
|   \\  /    A nd           | Website:  www.openfoam.com                      |
|    \\/     M anipulation  |                                                 |
\*---------------------------------------------------------------------------*/
FoamFile
{
    version     2.0;
    format      ascii;
    class       volScalarField;
    location    "0.147";
    object      alphat;
}
// * * * * * * * * * * * * * * * * * * * * * * * * * * * * * * * * * * * * * //

dimensions      [1 -1 -1 0 0 0 0];


internalField   nonuniform List<scalar> 
16277
(
38.6004
26.5082
91.1585
19.0525
27.9682
15.5395
6.35795
2.6128
1.41258
0.95413
0.75034
0.646948
0.585158
0.540321
0.502568
0.468585
0.437654
0.409835
0.385161
0.363459
0.344397
0.327575
0.312612
0.299183
0.287029
0.275953
0.265805
0.256469
0.247851
0.239878
0.232484
0.225617
0.21923
0.213283
0.207742
0.202576
0.19776
0.193272
0.189089
0.185195
0.181574
0.178211
0.175094
0.172213
0.169558
0.16712
0.164893
0.162871
0.161049
0.159425
0.157995
0.156759
0.155717
0.154868
0.154213
0.153759
0.153509
0.15347
0.15365
0.154052
0.15469
0.155576
0.156727
0.158161
0.159899
0.161968
0.164398
0.167226
0.1705
0.17428
0.178647
0.183708
0.189598
0.196477
0.204502
0.213783
0.224324
0.236046
0.249057
0.264494
0.286351
0.325966
0.412462
0.621688
1.15788
2.43425
4.29775
4.59598
2.72364
1.79924
0.885936
0.403975
0.219664
0.10364
0.0245577
0.00441852
0.000146401
0.000127054
0.00207673
0.00956443
0.00527018
0.00134568
0.00011128
9.96373e-05
0.00122689
0.00443179
0.0035362
0.00105454
9.20693e-05
8.61346e-05
0.00102198
0.00335345
0.00290158
0.000920537
8.10803e-05
7.76731e-05
0.0009047
0.00282633
0.00257244
0.000843076
7.43146e-05
7.24987e-05
0.000848155
0.00254625
0.00238183
0.000803042
7.02802e-05
6.90876e-05
0.00081025
0.00236723
0.00224242
0.000773925
6.74509e-05
6.66266e-05
0.000781078
0.00223589
0.00213273
0.000750269
6.5348e-05
6.47501e-05
0.000757219
0.0021307
0.00204133
0.000730108
6.37118e-05
6.32626e-05
0.000737033
0.00204219
0.00196266
0.000712411
6.23847e-05
6.20307e-05
0.000719366
0.00196542
0.00189328
0.000696439
6.12596e-05
6.09712e-05
0.000703313
0.0018973
0.00183098
0.000681711
6.02782e-05
6.00359e-05
0.000688501
0.00183591
0.0017744
0.000668008
5.93998e-05
5.919e-05
0.000674728
0.00178
0.00172256
0.000655201
5.8597e-05
5.8411e-05
0.00066186
0.00172874
0.0016747
0.00064318
5.78519e-05
5.76841e-05
0.000649775
0.00168141
0.00163038
0.000631842
5.71521e-05
5.69984e-05
0.000638372
0.00163754
0.0015892
0.00062111
5.64884e-05
5.6346e-05
0.000627576
0.00159675
0.00155086
0.000610928
5.58545e-05
5.57209e-05
0.000617343
0.00155875
0.00151509
0.000601271
5.52451e-05
5.51191e-05
0.000607639
0.00152327
0.00148162
0.000592099
5.46568e-05
5.45375e-05
0.000598416
0.00149002
0.00145016
0.000583358
5.40868e-05
5.39732e-05
0.000589619
0.00145871
0.00142047
0.000575001
5.35321e-05
5.34234e-05
0.000581202
0.00142913
0.00139234
0.000566978
5.29901e-05
5.28855e-05
0.000573114
0.00140106
0.00136557
0.000559246
5.24583e-05
5.23569e-05
0.00056531
0.00137432
0.00134001
0.000551758
5.19343e-05
5.18353e-05
0.000557746
0.00134875
0.00131551
0.000544475
5.14156e-05
5.13185e-05
0.00055038
0.00132422
0.00129195
0.000537361
5.09003e-05
5.08042e-05
0.000543181
0.0013006
0.00126922
0.000530388
5.03862e-05
5.02905e-05
0.00053612
0.0012778
0.00124722
0.000523529
4.98713e-05
4.97754e-05
0.00052917
0.00125571
0.00122588
0.000516762
4.93539e-05
4.92573e-05
0.000522313
0.00123427
0.00120514
0.000510072
4.88323e-05
4.87345e-05
0.000515533
0.00121344
0.00118495
0.000503446
4.83049e-05
4.82057e-05
0.000508821
0.00119315
0.00116528
0.00049688
4.77704e-05
4.76696e-05
0.000502188
0.0011734
0.00114612
0.000490376
4.72277e-05
4.71253e-05
0.000495674
0.00115417
0.00112746
0.000483958
4.66762e-05
4.65724e-05
0.000489228
0.00113544
0.00110929
0.0004776
4.61154e-05
4.601e-05
0.000482865
0.00111723
0.00109163
0.000471326
4.55447e-05
4.5438e-05
0.000476608
0.00109955
0.0010745
0.000465163
4.49641e-05
4.48566e-05
0.000470488
0.00108244
0.00105795
0.000459148
4.43742e-05
4.42664e-05
0.000464548
0.00106597
0.00104208
0.000453328
4.37759e-05
4.36688e-05
0.000458849
0.00105037
0.00102705
0.000447773
4.31712e-05
4.30663e-05
0.000453468
0.0010358
0.001013
0.00044257
4.25633e-05
4.24626e-05
0.000448493
0.00102226
0.00100004
0.000437811
4.19566e-05
4.18625e-05
0.000444029
0.00100999
0.000988432
0.000433609
4.13563e-05
4.12721e-05
0.000440204
0.000999274
0.000978479
0.000430107
4.07692e-05
4.06997e-05
0.000437166
0.00099042
0.000970514
0.000427484
4.02034e-05
4.01567e-05
0.000434986
0.000983771
0.000964924
0.000425862
3.96766e-05
3.96458e-05
0.00043349
0.000979578
0.000961826
0.000424852
3.92097e-05
3.91835e-05
0.000432716
0.000978328
0.000961699
0.000424685
3.88014e-05
3.8779e-05
0.000432784
0.000980043
0.000964502
0.000425428
3.84856e-05
3.8447e-05
0.000433666
0.000984535
0.000970123
0.000427056
3.82588e-05
3.8208e-05
0.000435244
0.000991421
0.000978031
0.000429159
3.80408e-05
3.80636e-05
0.00043721
0.00100051
0.000988105
0.000431379
3.78988e-05
3.79844e-05
0.000439146
0.00101146
0.000999858
0.000433632
3.7838e-05
3.79996e-05
0.000440765
0.00102299
0.00101182
0.000435577
3.78784e-05
3.80927e-05
0.000442093
0.00103403
0.00102308
0.000436978
3.79962e-05
3.82515e-05
0.000443359
0.00104408
0.00103333
0.000438089
3.81805e-05
3.84721e-05
0.000444359
0.00105291
0.00104241
0.000439105
3.84256e-05
3.87462e-05
0.000445261
0.00106045
0.00105014
0.000439652
3.87202e-05
3.9058e-05
0.000445922
0.00106681
0.00105628
0.000439995
3.9051e-05
3.93972e-05
0.000446358
0.00107175
0.00106057
0.000440157
3.94065e-05
3.9752e-05
0.000446564
0.00107589
0.00106352
0.000440197
3.97745e-05
4.01107e-05
0.00044663
0.00107839
0.00106482
0.000439898
4.01439e-05
4.0464e-05
0.000446558
0.00107914
0.00106359
0.00043914
4.05047e-05
4.08021e-05
0.000445833
0.00107773
0.00106104
0.000438156
4.08452e-05
4.11133e-05
0.000444864
0.00107489
0.00105743
0.000437062
4.11554e-05
4.13908e-05
0.000443758
0.00107084
0.00105281
0.000435936
4.14296e-05
4.16305e-05
0.000442551
0.00106564
0.0010473
0.000434815
4.16643e-05
4.1831e-05
0.000441309
0.00105949
0.00104107
0.000433731
4.18585e-05
4.19931e-05
0.000440064
0.00105258
0.00103423
0.000432684
4.20136e-05
4.21182e-05
0.000438814
0.00104502
0.00102693
0.000431656
4.2132e-05
4.22058e-05
0.000437559
0.00103704
0.00101918
0.000430615
4.22162e-05
4.22663e-05
0.000436278
0.00102884
0.00101128
0.000429567
4.22742e-05
4.2304e-05
0.000434992
0.00102058
0.00100332
0.000428466
4.23087e-05
4.23267e-05
0.000433655
0.00101235
0.000995257
0.000427245
4.23215e-05
4.23311e-05
0.00043227
0.00100411
0.000987149
0.000425878
4.23076e-05
4.23162e-05
0.000430842
0.000995842
0.000979061
0.000424499
4.22831e-05
4.22888e-05
0.000429413
0.000987633
0.000971016
0.000423086
4.2246e-05
4.22514e-05
0.000427941
0.000979441
0.000962987
0.000421623
4.22e-05
4.22024e-05
0.000426406
0.000971273
0.000954934
0.000420129
4.21471e-05
4.21472e-05
0.000424835
0.000963131
0.000946786
0.00041854
4.20838e-05
4.20835e-05
0.000423148
0.000954888
0.000938605
0.000416859
4.20177e-05
4.20154e-05
0.000421424
0.000946666
0.000930535
0.000415144
4.19459e-05
4.19408e-05
0.000419686
0.000938572
0.000922562
0.000413381
4.18494e-05
4.18821e-05
0.000417944
0.000930631
0.000914031
0.000411575
4.17502e-05
4.17983e-05
0.000415732
0.000923072
0.000906837
0.000408622
4.15936e-05
4.18476e-05
0.00041595
0.000920503
0.000909304
0.000415408
4.17395e-05
4.24233e-05
0.000416158
0.000919442
0.000963021
0.000437599
4.27406e-05
4.55319e-05
0.000410375
0.000936241
0.00142977
0.00059659
5.13524e-05
5.54198e-05
0.000309274
0.000709984
0.00175153
0.00401385
0.00750356
0.0106977
0.0128832
0.0169341
0.0195203
0.0218409
0.0231475
0.0237723
0.0235967
0.0225468
0.0210522
0.0186549
0.0163046
0.0127413
0.0111328
0.00810078
0.00606083
0.00411682
0.00234023
0.00107419
0.00039223
0.00016257
3.13311e-05
2.03574e-05
0.000150254
0.000354995
0.000335179
0.000142864
1.96153e-05
1.88975e-05
0.000138026
0.000317723
0.000318877
0.000136229
1.87336e-05
1.86225e-05
0.000135433
0.000314089
0.000314019
0.000134057
1.84281e-05
1.84067e-05
0.000134022
0.000313705
0.000314567
0.000134106
1.84361e-05
1.84373e-05
0.000134293
0.0003153
0.000315742
0.000134509
1.84669e-05
1.84796e-05
0.000134697
0.000316694
0.000317144
0.000134922
1.84964e-05
1.85272e-05
0.000135175
0.000318176
0.000318729
0.000135411
1.85181e-05
1.85487e-05
0.000135702
0.00031975
0.000320301
0.000135892
1.85644e-05
1.85978e-05
0.000136207
0.000321342
0.000321897
0.000136358
1.86005e-05
1.86096e-05
0.000136791
0.000323036
0.000323561
0.000136885
1.86503e-05
1.86582e-05
0.000137295
0.000324735
0.000325284
0.000137462
1.86757e-05
1.86827e-05
0.000137881
0.000326509
0.000327069
0.000138032
1.87263e-05
1.87337e-05
0.000138445
0.000328289
0.000328851
0.000138634
1.87518e-05
1.87576e-05
0.000139037
0.000330083
0.000330648
0.000139182
1.88012e-05
1.88088e-05
0.000139602
0.000331924
0.000332555
0.00013983
1.88301e-05
1.88398e-05
0.000140279
0.000333911
0.000334531
0.000140449
1.88842e-05
1.88933e-05
0.000140913
0.00033585
0.000336449
0.00014113
1.8912e-05
1.89209e-05
0.000141588
0.000337815
0.000338471
0.000141854
1.89563e-05
1.89918e-05
0.000142195
0.00033983
0.000340464
0.000142425
1.89976e-05
1.90087e-05
0.000142949
0.000341888
0.000342598
0.000143229
1.90444e-05
1.90838e-05
0.000143634
0.000344015
0.00034468
0.000143882
1.90898e-05
1.91004e-05
0.000144435
0.000346158
0.000346834
0.000144703
1.91347e-05
1.91708e-05
0.000145092
0.000348247
0.000348932
0.000145343
1.9176e-05
1.91896e-05
0.000145929
0.000350402
0.000351065
0.000146182
1.92229e-05
1.92608e-05
0.000146593
0.000352484
0.00035315
0.000146838
1.92669e-05
1.92803e-05
0.000147413
0.000354642
0.00035533
0.000147671
1.93148e-05
1.93553e-05
0.000148126
0.000356775
0.000357428
0.000148369
1.9361e-05
1.93736e-05
0.000148942
0.00035887
0.000359453
0.000149136
1.94027e-05
1.94395e-05
0.000149522
0.000360738
0.000361354
0.000149709
1.94442e-05
1.94552e-05
0.000150225
0.000362694
0.000363187
0.000150359
1.94847e-05
1.95162e-05
0.000150669
0.000364451
0.000364928
0.000150774
1.95144e-05
1.95184e-05
0.000151191
0.000366038
0.000366478
0.00015118
1.95577e-05
1.95598e-05
0.00015147
0.000367438
0.000367651
0.000151389
1.95656e-05
1.95571e-05
0.000151505
0.000368433
0.000368547
0.000151271
1.95836e-05
1.95708e-05
0.000151242
0.000368976
0.000369102
0.000150962
1.95714e-05
1.95563e-05
0.000150803
0.000369398
0.000369281
0.00015035
1.95623e-05
1.95644e-05
0.000149874
0.000369308
0.00036881
0.000149256
1.95369e-05
1.95047e-05
0.00014866
0.000368609
0.00036776
0.00014777
1.94958e-05
1.94821e-05
0.000146798
0.000367413
0.000366288
0.000145715
1.94461e-05
1.94215e-05
0.000144904
0.000366266
0.000364893
0.000143577
1.94314e-05
1.93964e-05
0.000142412
0.000364353
0.000362541
0.000140846
1.93731e-05
1.93404e-05
0.000139483
0.000361818
0.000359896
0.000137866
1.93474e-05
1.93801e-05
0.000136533
0.00035994
0.000358289
0.000134986
1.93986e-05
1.94448e-05
0.000133697
0.000358314
0.000357064
0.000132167
1.94942e-05
1.95833e-05
0.000131024
0.000357692
0.000356677
0.000129683
1.96858e-05
1.98575e-05
0.000129129
0.00035902
0.000361659
0.000128035
2.00613e-05
2.02387e-05
0.000126997
0.000365111
0.000370509
0.00012844
2.04394e-05
2.06382e-05
0.000129015
0.000375285
0.000378164
0.000128289
2.06925e-05
2.08383e-05
0.000125895
0.000383552
0.000389701
0.000132609
2.11327e-05
2.13389e-05
0.000128663
0.000394858
0.000400026
0.000131858
2.16968e-05
2.19601e-05
0.000133614
0.000409728
0.00041272
0.00013649
2.23252e-05
2.28261e-05
0.000143601
0.000425931
0.000428408
0.000147349
2.33324e-05
2.3778e-05
0.000153363
0.000438711
0.000441354
0.000158367
2.46406e-05
2.64361e-05
0.000183343
0.000460615
0.000459396
0.000194598
1.98731e-05
1.52681e-05
4.75096e-05
0.000129109
0.000359761
0.000111232
1.79993e-05
1.88993e-05
0.000100087
0.000330663
0.0003483
0.000103992
1.93657e-05
1.96833e-05
9.80877e-05
0.000332652
0.000357669
0.00010557
2.02471e-05
2.08321e-05
0.000104025
0.000352735
0.000388453
0.000118724
2.15279e-05
2.2317e-05
0.00011831
0.000381196
0.000418546
0.000139187
2.3359e-05
2.47026e-05
0.000143224
0.000421018
0.000471201
0.000172579
2.72254e-05
2.07127e-05
0.000189721
0.000481643
0.000129517
4.53736e-05
1.66193e-05
1.96397e-05
0.000121168
0.00040415
0.000394998
0.000112507
2.13561e-05
2.26267e-05
0.000146992
0.000487073
0.00049696
0.000148811
2.36114e-05
2.4994e-05
0.000174179
0.00055339
0.000568874
0.000186506
2.67981e-05
2.98919e-05
0.000221741
0.000622496
0.000605584
0.00023988
2.32408e-05
1.75729e-05
5.45238e-05
0.000159993
0.000493904
0.000146012
2.09624e-05
2.26941e-05
0.000136017
0.000483891
0.000554834
0.00016801
2.42883e-05
2.6007e-05
0.000168082
0.000546259
0.000621796
0.000213328
2.98794e-05
2.38562e-05
0.000246917
0.000623324
0.000168801
5.41506e-05
1.76092e-05
2.19179e-05
0.000152697
0.000556998
0.000574176
0.000160183
2.47058e-05
2.86934e-05
0.0002271
0.000740741
0.000775898
0.00026809
3.35898e-05
2.75945e-05
0.000310697
0.000783843
0.000217999
6.39292e-05
1.85847e-05
2.40201e-05
0.000205269
0.0006953
0.000691091
0.000198866
2.80058e-05
3.51711e-05
0.000296663
0.0008748
0.000888882
0.000346102
2.92083e-05
1.9474e-05
7.18473e-05
0.000270295
0.000898451
0.000264463
2.78961e-05
3.52377e-05
0.000279635
0.00096706
0.00134335
0.00047285
4.82743e-05
4.02263e-05
0.000504225
0.00129185
0.000456512
0.000120023
2.62783e-05
4.68371e-05
0.000490501
0.00140901
0.00140984
0.000524379
4.36627e-05
2.97878e-05
0.000135334
0.000554457
0.00194988
0.000648102
6.50312e-05
6.40638e-05
0.000747131
0.00211759
0.000964394
0.000266383
4.0754e-05
6.49197e-05
0.00086759
0.00252808
0.00167004
0.000553897
4.32311e-05
8.0287e-05
0.000976799
0.00196957
0.00168931
0.000817161
6.60142e-05
6.67802e-05
0.000778178
0.00185146
0.0023724
0.000857637
7.64767e-05
0.000105535
0.00159896
0.0039492
0.000879072
0.000273264
5.99309e-05
6.13444e-05
0.00076602
0.00175548
0.000542676
0.000193917
4.27551e-05
4.63393e-05
0.00047342
0.00113764
0.00097114
0.00034881
4.65518e-05
2.52571e-05
8.87208e-05
0.000278188
0.000654792
0.000359525
3.0641e-05
2.8931e-05
0.000116085
0.000297815
0.000723705
0.000315834
3.30852e-05
3.5314e-05
0.000256112
0.000654648
0.000212055
7.95073e-05
2.33361e-05
2.75732e-05
0.000250069
0.000566034
0.000520693
0.000211026
3.15541e-05
2.19442e-05
6.95418e-05
0.000175478
0.000481388
0.000216861
2.55427e-05
2.91029e-05
0.00018666
0.000442284
0.00015169
6.30798e-05
2.10328e-05
2.36165e-05
0.000188003
0.00042532
0.000384693
0.000166956
2.80443e-05
2.09281e-05
5.98014e-05
0.000138447
0.000374215
0.000172911
2.27413e-05
2.69113e-05
0.000151197
0.000339996
0.000121997
5.50045e-05
2.0296e-05
2.1726e-05
0.000157614
0.000338208
0.000304817
0.000139656
2.6348e-05
2.02802e-05
5.31972e-05
0.000116647
0.000310555
0.00014904
2.11347e-05
2.57232e-05
0.000131739
0.000283078
0.000110392
5.21032e-05
2.01609e-05
2.11223e-05
0.000149686
0.000300403
0.000255059
0.000120535
2.64029e-05
2.20251e-05
9.50535e-05
0.000206776
8.14093e-05
3.71687e-05
1.78698e-05
1.75494e-05
0.000100291
0.000204004
0.000193942
9.29381e-05
2.24797e-05
1.8228e-05
3.80661e-05
7.96821e-05
0.000190442
9.69822e-05
1.7379e-05
2.23474e-05
8.96585e-05
0.000177522
7.46882e-05
3.71606e-05
1.80419e-05
1.69016e-05
9.04509e-05
0.000169758
0.000162291
8.56232e-05
2.16989e-05
1.78141e-05
3.56632e-05
7.03626e-05
0.00016007
8.64589e-05
1.67165e-05
2.15808e-05
8.15397e-05
0.000150413
6.7167e-05
3.47229e-05
1.76612e-05
1.63447e-05
8.01846e-05
0.000146161
0.000140592
7.85386e-05
2.13141e-05
1.76453e-05
3.3486e-05
6.35302e-05
0.000138347
7.78016e-05
1.60665e-05
2.0977e-05
7.31242e-05
0.000131031
6.04086e-05
3.29273e-05
1.72068e-05
1.55325e-05
7.20755e-05
0.000123825
0.000119808
6.76732e-05
2.04852e-05
1.68258e-05
3.02656e-05
5.40707e-05
0.000107283
7.92566e-05
1.49369e-05
1.92854e-05
3.83503e-05
6.25765e-05
0.000143316
8.24336e-05
1.72566e-05
2.17884e-05
7.62866e-05
0.000133433
6.46465e-05
3.71885e-05
1.78564e-05
1.63458e-05
7.97294e-05
0.00013355
0.000126346
7.38052e-05
2.14949e-05
1.78411e-05
3.68262e-05
6.23973e-05
0.000130643
7.82348e-05
1.6194e-05
2.12536e-05
7.3065e-05
0.000123074
6.14449e-05
3.73329e-05
1.78684e-05
1.6141e-05
7.4087e-05
0.000118852
0.000111913
6.72128e-05
2.15012e-05
1.79515e-05
3.64505e-05
5.73164e-05
0.000109558
6.92035e-05
1.58032e-05
2.07235e-05
6.2605e-05
0.000102937
5.05267e-05
3.28153e-05
1.67814e-05
1.44426e-05
6.79517e-05
9.10175e-05
5.53486e-05
3.80024e-05
1.89534e-05
1.68192e-05
6.76357e-05
0.000108635
0.000100094
6.12921e-05
2.14524e-05
1.75046e-05
3.66501e-05
5.34074e-05
9.9647e-05
6.50753e-05
1.55961e-05
2.06452e-05
6.00251e-05
9.04081e-05
4.84803e-05
3.44332e-05
1.71193e-05
1.46191e-05
6.4242e-05
8.24985e-05
5.21538e-05
3.79376e-05
1.92208e-05
1.6711e-05
6.48843e-05
0.000100055
9.03772e-05
5.87582e-05
2.12269e-05
1.74676e-05
3.70907e-05
5.06561e-05
9.35221e-05
6.25374e-05
1.56055e-05
2.06456e-05
5.68845e-05
8.55533e-05
4.65088e-05
3.43511e-05
1.69386e-05
1.4507e-05
5.99096e-05
7.57306e-05
4.89505e-05
3.72633e-05
1.91724e-05
1.64929e-05
6.04962e-05
9.23379e-05
8.30137e-05
5.52841e-05
2.11009e-05
1.74044e-05
3.69756e-05
4.71898e-05
8.44551e-05
5.75929e-05
1.55359e-05
2.06209e-05
5.27897e-05
7.66165e-05
4.32908e-05
3.44416e-05
1.72748e-05
1.46089e-05
5.52716e-05
6.79067e-05
4.51905e-05
3.62919e-05
1.93124e-05
1.63062e-05
5.52074e-05
8.24069e-05
7.40985e-05
5.04826e-05
2.08484e-05
1.67596e-05
3.45805e-05
4.23404e-05
6.60364e-05
5.48769e-05
1.40416e-05
1.88873e-05
3.69681e-05
4.47033e-05
8.09199e-05
5.37908e-05
1.60502e-05
2.09554e-05
4.96471e-05
7.30523e-05
4.25289e-05
3.56006e-05
1.70522e-05
1.43731e-05
5.36457e-05
6.54361e-05
4.49067e-05
3.77803e-05
1.90298e-05
1.58782e-05
5.45075e-05
8.07805e-05
7.17315e-05
5.00874e-05
2.08271e-05
1.71836e-05
3.61295e-05
4.22616e-05
6.48419e-05
5.46787e-05
1.42887e-05
1.92153e-05
3.80294e-05
4.45175e-05
7.85903e-05
5.3039e-05
1.62424e-05
2.10623e-05
4.92743e-05
7.1186e-05
4.21391e-05
3.64087e-05
1.71343e-05
1.43204e-05
5.42106e-05
6.34993e-05
4.42684e-05
3.86863e-05
1.90796e-05
1.61049e-05
5.26266e-05
7.75123e-05
6.93458e-05
4.85618e-05
2.08531e-05
1.72982e-05
3.63751e-05
4.13504e-05
6.13508e-05
5.38728e-05
1.42903e-05
1.8911e-05
3.96624e-05
4.41402e-05
6.70561e-05
5.14754e-05
1.51857e-05
1.96763e-05
3.98985e-05
4.64488e-05
7.91103e-05
5.27973e-05
1.64925e-05
2.09513e-05
4.90962e-05
7.05581e-05
4.26387e-05
3.76898e-05
1.70842e-05
1.4241e-05
5.41883e-05
6.30416e-05
4.4511e-05
4.02257e-05
1.92743e-05
1.61872e-05
5.21721e-05
7.61929e-05
6.83266e-05
4.8695e-05
2.10577e-05
1.74504e-05
3.75819e-05
4.15936e-05
6.06993e-05
5.33859e-05
1.45497e-05
1.92582e-05
4.04765e-05
4.43483e-05
6.59234e-05
5.10086e-05
1.5561e-05
1.96335e-05
4.09246e-05
4.63689e-05
7.76473e-05
5.23207e-05
1.62375e-05
2.10067e-05
4.89515e-05
6.93201e-05
4.26902e-05
3.90396e-05
1.7264e-05
1.43024e-05
5.44264e-05
6.1879e-05
4.58106e-05
4.22071e-05
1.92568e-05
1.54555e-05
5.25921e-05
6.75293e-05
4.78202e-05
4.31907e-05
1.97884e-05
1.65102e-05
5.28157e-05
7.91013e-05
7.05679e-05
4.97786e-05
2.13819e-05
1.73978e-05
4.00917e-05
4.37565e-05
6.28215e-05
5.59744e-05
1.44302e-05
1.9264e-05
4.2941e-05
4.65965e-05
6.78114e-05
5.34857e-05
1.54945e-05
1.9839e-05
4.36736e-05
4.83779e-05
7.93855e-05
5.36839e-05
1.65285e-05
2.12757e-05
5.06471e-05
7.10135e-05
4.46137e-05
4.1366e-05
1.75096e-05
1.46248e-05
5.64854e-05
6.36803e-05
4.77002e-05
4.43925e-05
1.9564e-05
1.58388e-05
5.44984e-05
6.89504e-05
4.95413e-05
4.50797e-05
1.98939e-05
1.64552e-05
5.39802e-05
7.99181e-05
7.13035e-05
5.08816e-05
2.11228e-05
1.73593e-05
4.10147e-05
4.4479e-05
6.27762e-05
5.62562e-05
1.45946e-05
1.95347e-05
4.37507e-05
4.69946e-05
6.71015e-05
5.34051e-05
1.5742e-05
2.00049e-05
4.4725e-05
4.8507e-05
7.73092e-05
5.27875e-05
1.65807e-05
2.1403e-05
5.01426e-05
6.91254e-05
4.41783e-05
4.15732e-05
1.76249e-05
1.4686e-05
5.60855e-05
6.22741e-05
4.71102e-05
4.41057e-05
1.94241e-05
1.53788e-05
5.26838e-05
6.6475e-05
4.94488e-05
4.50892e-05
1.96312e-05
1.56417e-05
5.39786e-05
6.91844e-05
5.08851e-05
4.78552e-05
1.9959e-05
1.66299e-05
5.51008e-05
7.94698e-05
7.09382e-05
5.23314e-05
2.13225e-05
1.75741e-05
4.33877e-05
4.57179e-05
6.38451e-05
5.80548e-05
1.47228e-05
1.96551e-05
4.54545e-05
4.84553e-05
6.70953e-05
5.36681e-05
1.58406e-05
1.9931e-05
4.59365e-05
5.03672e-05
6.94258e-05
5.45534e-05
1.57736e-05
1.99985e-05
4.85638e-05
5.14845e-05
7.93874e-05
5.54847e-05
1.65999e-05
2.1326e-05
5.27831e-05
7.11969e-05
4.65608e-05
4.42924e-05
1.76505e-05
1.46588e-05
5.88603e-05
6.43099e-05
4.93308e-05
4.6668e-05
1.97206e-05
1.58168e-05
5.43491e-05
6.84959e-05
5.16696e-05
4.75567e-05
2.00366e-05
1.60124e-05
5.617e-05
7.09241e-05
5.30785e-05
5.04785e-05
2.02794e-05
1.68888e-05
5.71574e-05
8.08425e-05
7.25981e-05
5.43204e-05
2.1555e-05
1.76204e-05
4.52886e-05
4.79831e-05
6.51174e-05
6.00181e-05
1.47352e-05
1.98077e-05
4.75402e-05
5.03928e-05
6.85733e-05
5.50239e-05
1.57492e-05
2.00311e-05
4.77594e-05
5.19571e-05
7.03588e-05
5.58034e-05
1.59318e-05
2.03737e-05
5.05853e-05
5.31234e-05
7.95135e-05
5.64752e-05
1.68482e-05
2.16777e-05
5.4288e-05
7.19128e-05
4.83466e-05
4.64792e-05
1.80676e-05
1.51748e-05
5.94912e-05
6.48474e-05
5.0963e-05
4.86829e-05
2.0086e-05
1.59142e-05
5.61332e-05
6.89828e-05
5.28293e-05
4.896e-05
2.00628e-05
1.5789e-05
5.59826e-05
7.06198e-05
5.41527e-05
5.01937e-05
2.00373e-05
1.60593e-05
5.85566e-05
7.24347e-05
5.50441e-05
5.31141e-05
2.02654e-05
1.68441e-05
5.89606e-05
8.16342e-05
7.38918e-05
5.63113e-05
2.15692e-05
1.76811e-05
4.68433e-05
4.98987e-05
6.54337e-05
6.10346e-05
1.48139e-05
2.00682e-05
4.91143e-05
5.19258e-05
6.8649e-05
5.57785e-05
1.6043e-05
2.03012e-05
4.96645e-05
5.34272e-05
7.04069e-05
5.61878e-05
1.59651e-05
2.01946e-05
5.14519e-05
5.4726e-05
7.29087e-05
5.92855e-05
1.61645e-05
2.04205e-05
5.43355e-05
5.5943e-05
8.27594e-05
6.01375e-05
1.69533e-05
2.18207e-05
5.77583e-05
7.51949e-05
5.17643e-05
4.95402e-05
1.80396e-05
1.49457e-05
6.38768e-05
6.80337e-05
5.4094e-05
5.17422e-05
2.00028e-05
1.58235e-05
5.88444e-05
7.20695e-05
5.59828e-05
5.19138e-05
2.02368e-05
1.61107e-05
5.9202e-05
7.37428e-05
5.73151e-05
5.37262e-05
2.02656e-05
1.61519e-05
6.20878e-05
7.58523e-05
5.84019e-05
5.64813e-05
2.04932e-05
1.7153e-05
6.21691e-05
8.48843e-05
7.72961e-05
5.95503e-05
2.18355e-05
1.79739e-05
5.05498e-05
5.35071e-05
6.86447e-05
6.43038e-05
1.51985e-05
2.02879e-05
5.27192e-05
5.55842e-05
7.21008e-05
5.95091e-05
1.61941e-05
2.05651e-05
5.26762e-05
5.71341e-05
7.33283e-05
5.8775e-05
1.62811e-05
2.05578e-05
5.45022e-05
5.80061e-05
7.55609e-05
6.19733e-05
1.64898e-05
2.0727e-05
5.7787e-05
5.89491e-05
8.47191e-05
6.31581e-05
1.71722e-05
2.21127e-05
6.08971e-05
7.7824e-05
5.47715e-05
5.2465e-05
1.82247e-05
1.52238e-05
6.64931e-05
7.03009e-05
5.71252e-05
5.45651e-05
2.03322e-05
1.61885e-05
6.12012e-05
7.39657e-05
5.89747e-05
5.47169e-05
2.06016e-05
1.6348e-05
6.11501e-05
7.5836e-05
6.0298e-05
5.63646e-05
2.05227e-05
1.64519e-05
6.42358e-05
7.77313e-05
6.09442e-05
5.92205e-05
2.06874e-05
1.71861e-05
6.437e-05
8.63916e-05
7.90981e-05
6.20542e-05
2.21686e-05
1.82005e-05
5.30882e-05
5.59401e-05
6.99463e-05
6.68172e-05
1.5297e-05
2.05145e-05
5.51745e-05
5.78643e-05
7.2514e-05
6.07221e-05
1.62781e-05
2.07406e-05
5.52393e-05
5.90579e-05
7.40761e-05
6.04821e-05
1.64397e-05
2.06361e-05
5.68105e-05
6.01238e-05
7.61607e-05
6.32116e-05
1.64366e-05
2.05632e-05
5.87595e-05
6.17299e-05
7.89872e-05
6.62328e-05
1.64304e-05
2.07658e-05
6.17138e-05
6.26877e-05
8.88347e-05
6.67962e-05
1.72851e-05
2.24532e-05
6.47002e-05
8.18095e-05
5.87369e-05
5.69144e-05
1.85779e-05
1.54849e-05
7.04829e-05
7.40165e-05
6.13443e-05
5.9223e-05
2.06428e-05
1.64689e-05
6.55545e-05
7.78469e-05
6.31874e-05
5.93644e-05
2.08193e-05
1.65022e-05
6.60615e-05
8.00748e-05
6.47561e-05
6.10086e-05
2.0662e-05
1.65225e-05
6.90813e-05
8.28607e-05
6.60807e-05
6.41223e-05
2.09053e-05
1.74886e-05
6.93946e-05
9.18171e-05
8.41755e-05
6.70477e-05
2.26442e-05
1.86982e-05
5.85875e-05
6.08572e-05
7.55754e-05
7.2586e-05
1.55827e-05
2.07958e-05
6.07199e-05
6.34132e-05
7.81895e-05
6.68456e-05
1.66288e-05
2.09575e-05
6.02697e-05
6.4448e-05
7.92462e-05
6.59954e-05
1.67419e-05
2.08615e-05
6.18418e-05
6.53656e-05
8.13219e-05
6.86481e-05
1.66706e-05
2.11279e-05
6.49766e-05
6.60764e-05
9.0416e-05
6.92671e-05
1.75882e-05
2.30361e-05
6.76243e-05
8.35157e-05
6.18146e-05
6.04945e-05
1.89778e-05
1.56911e-05
7.33549e-05
7.59697e-05
6.44545e-05
6.27754e-05
2.09719e-05
1.67654e-05
6.86234e-05
7.96075e-05
6.63005e-05
6.28645e-05
2.10987e-05
1.6696e-05
6.87003e-05
8.14865e-05
6.74593e-05
6.43592e-05
2.09686e-05
1.68457e-05
7.09605e-05
8.42402e-05
6.89e-05
6.78268e-05
2.14207e-05
1.78165e-05
7.21163e-05
9.33533e-05
8.59453e-05
7.02822e-05
2.31492e-05
1.908e-05
6.26587e-05
6.41953e-05
7.82884e-05
7.64723e-05
1.58195e-05
2.10085e-05
6.43609e-05
6.67185e-05
8.07592e-05
6.99798e-05
1.67903e-05
2.13057e-05
6.42656e-05
6.7923e-05
8.1955e-05
6.96547e-05
1.68714e-05
2.13566e-05
6.61434e-05
6.90116e-05
8.41831e-05
7.20212e-05
1.70078e-05
2.18371e-05
6.98075e-05
6.9929e-05
9.34724e-05
7.32051e-05
1.82909e-05
2.38544e-05
7.19603e-05
8.67273e-05
6.63924e-05
6.59126e-05
1.96109e-05
1.63371e-05
7.84945e-05
8.03974e-05
6.91546e-05
6.78957e-05
2.13883e-05
1.7047e-05
7.43216e-05
8.42507e-05
7.112e-05
6.82034e-05
2.16746e-05
1.70424e-05
7.41541e-05
8.66393e-05
7.19914e-05
7.08996e-05
2.2012e-05
1.84922e-05
7.41282e-05
9.48741e-05
8.76685e-05
7.2848e-05
2.42824e-05
1.9793e-05
6.62271e-05
6.73349e-05
7.97511e-05
7.86766e-05
1.64571e-05
2.17529e-05
6.83497e-05
6.97275e-05
8.2595e-05
7.37789e-05
1.73739e-05
2.2087e-05
6.85069e-05
7.10366e-05
8.45851e-05
7.28659e-05
1.74207e-05
2.25337e-05
7.19214e-05
7.1813e-05
9.29121e-05
7.4108e-05
1.8665e-05
2.45644e-05
7.34329e-05
8.64925e-05
6.81362e-05
6.84405e-05
2.01315e-05
1.65791e-05
7.97332e-05
8.04643e-05
7.07395e-05
7.03718e-05
2.19478e-05
1.7303e-05
7.43778e-05
8.41971e-05
7.28472e-05
7.10769e-05
2.23986e-05
1.77881e-05
7.5418e-05
8.67174e-05
7.40358e-05
7.42093e-05
2.28294e-05
1.88995e-05
7.59837e-05
9.45135e-05
8.81124e-05
7.53626e-05
2.50901e-05
2.02266e-05
6.94411e-05
7.03133e-05
8.09169e-05
8.12516e-05
1.66803e-05
2.23952e-05
7.19351e-05
7.2366e-05
8.4091e-05
7.604e-05
1.78008e-05
2.2738e-05
7.24292e-05
7.38321e-05
8.65063e-05
7.54809e-05
1.79291e-05
2.33419e-05
7.61652e-05
7.48742e-05
9.52027e-05
7.72801e-05
1.94299e-05
2.5562e-05
7.69561e-05
8.90216e-05
7.21134e-05
7.29642e-05
2.07098e-05
1.70354e-05
8.38904e-05
8.3653e-05
7.4871e-05
7.5624e-05
2.28977e-05
1.82037e-05
7.9655e-05
8.80369e-05
7.73227e-05
7.64428e-05
2.34605e-05
1.86667e-05
7.93133e-05
9.11422e-05
7.91041e-05
8.04019e-05
2.42022e-05
2.01064e-05
8.14978e-05
9.97322e-05
9.34272e-05
8.13792e-05
2.65589e-05
2.15563e-05
7.67014e-05
7.64873e-05
8.71943e-05
8.79684e-05
1.76805e-05
2.34941e-05
7.91193e-05
7.86696e-05
9.12734e-05
8.25414e-05
1.87287e-05
2.46487e-05
8.1765e-05
8.03513e-05
9.94257e-05
8.18324e-05
2.04941e-05
2.69696e-05
8.11569e-05
9.35739e-05
7.69673e-05
7.81213e-05
2.20032e-05
1.79287e-05
8.83718e-05
8.77441e-05
7.99866e-05
8.12253e-05
2.41308e-05
1.92353e-05
8.43847e-05
9.26277e-05
8.26125e-05
8.27458e-05
2.49138e-05
1.98079e-05
8.46308e-05
9.64791e-05
8.50072e-05
8.75058e-05
2.57779e-05
2.14437e-05
8.7889e-05
0.000106015
9.94003e-05
8.80811e-05
2.83335e-05
2.31155e-05
8.49364e-05
8.32141e-05
9.41873e-05
9.56398e-05
1.87453e-05
2.5126e-05
8.73767e-05
8.61814e-05
9.92445e-05
8.99856e-05
2.01007e-05
2.63932e-05
9.04408e-05
8.81158e-05
0.000108453
8.99568e-05
2.15819e-05
2.88087e-05
9.0198e-05
0.000102443
8.64949e-05
8.8743e-05
2.42575e-05
1.99398e-05
9.78124e-05
9.72567e-05
8.93925e-05
9.18848e-05
2.65005e-05
2.12381e-05
9.37643e-05
0.000103203
9.22594e-05
9.55865e-05
2.78818e-05
2.32553e-05
9.44668e-05
0.000113011
0.000106747
9.49597e-05
3.07369e-05
2.5112e-05
9.29469e-05
9.07317e-05
0.000101952
0.000102579
2.03554e-05
2.77e-05
9.75995e-05
9.34782e-05
0.000112427
9.57535e-05
2.31002e-05
3.08355e-05
9.56441e-05
0.000106974
9.0939e-05
9.22155e-05
2.50695e-05
2.00106e-05
0.000103264
0.000101303
9.35565e-05
9.5183e-05
2.72446e-05
2.18503e-05
9.62575e-05
0.000105765
9.56377e-05
9.90013e-05
2.90068e-05
2.41677e-05
9.68223e-05
0.000114757
0.000109184
9.81014e-05
3.21224e-05
2.62711e-05
9.71175e-05
9.47101e-05
0.000104444
0.00010517
2.15824e-05
2.92631e-05
0.000102585
9.72185e-05
0.000114599
9.94395e-05
2.45367e-05
3.27337e-05
9.96673e-05
0.000109519
9.59789e-05
9.88722e-05
2.69383e-05
2.17874e-05
0.000106779
0.000105285
9.78518e-05
0.000103442
2.93497e-05
2.39479e-05
9.94064e-05
0.000114953
0.000110053
0.000100251
3.265e-05
2.72894e-05
9.9209e-05
9.65646e-05
0.000105665
0.000106236
2.23822e-05
3.04694e-05
0.00010533
9.93235e-05
0.000115098
0.000100895
2.52899e-05
3.40627e-05
0.0001017
0.000110409
9.84747e-05
0.000102038
2.79382e-05
2.26835e-05
0.000108522
0.000106744
0.000100786
0.000107304
3.07288e-05
2.53786e-05
0.000102477
0.000116711
0.000112008
0.000103024
3.41226e-05
2.79594e-05
0.000102982
9.96716e-05
0.000108108
0.000111565
2.18855e-05
3.04502e-05
0.000108249
0.000101943
0.000117412
0.000102555
2.57546e-05
3.51772e-05
0.000103721
0.000112865
0.000102013
0.000107526
2.93968e-05
2.40083e-05
0.000111595
0.000110345
0.000105382
0.000114221
3.25768e-05
2.71242e-05
0.000108084
0.000121728
0.000117129
0.000109292
3.6319e-05
2.9915e-05
0.00011165
0.000106519
0.0001148
0.000116651
2.42871e-05
3.30711e-05
0.000118623
0.000109543
0.000126893
0.000113009
2.72404e-05
3.61585e-05
0.000112587
0.000122153
0.000110578
0.000119963
3.14261e-05
2.71861e-05
0.000119557
0.000125009
0.000121037
0.000119171
3.77161e-05
3.20012e-05
0.000118882
0.000112421
0.000121766
0.000122537
2.62484e-05
3.54807e-05
0.000125516
0.000116649
0.000132755
0.000118175
2.96205e-05
3.94612e-05
0.000119822
0.000127949
0.000117663
0.000127795
3.32605e-05
2.82765e-05
0.000127176