/*--------------------------------*- C++ -*----------------------------------*\
| =========                 |                                                 |
| \\      /  F ield         | OpenFOAM: The Open Source CFD Toolbox           |
|  \\    /   O peration     | Version:  v2006                                 |
|   \\  /    A nd           | Website:  www.openfoam.com                      |
|    \\/     M anipulation  |                                                 |
\*---------------------------------------------------------------------------*/
FoamFile
{
    version     2.0;
    format      ascii;
    class       volScalarField;
    location    "0.147";
    object      nut;
}
// * * * * * * * * * * * * * * * * * * * * * * * * * * * * * * * * * * * * * //

dimensions      [0 2 -1 0 0 0 0];


internalField   nonuniform List<scalar> 
16277
(
22.3793
15.368
52.8478
11.0464
16.2146
9.00918
3.68606
1.51477
0.818924
0.553129
0.434976
0.375029
0.3392
0.3132
0.291308
0.271601
0.253665
0.237533
0.223224
0.210639
0.199584
0.189828
0.181149
0.17336
0.16631
0.159885
0.153998
0.148582
0.143583
0.138957
0.134667
0.130682
0.126976
0.123525
0.120309
0.11731
0.114515
0.111909
0.109481
0.10722
0.105117
0.103164
0.101354
0.0996799
0.0981368
0.09672
0.0954252
0.0942493
0.0931894
0.0922438
0.091411
0.0906903
0.0900817
0.0895854
0.0892013
0.0889332
0.0887833
0.0887556
0.0888544
0.089082
0.0894459
0.0899535
0.0906139
0.0914381
0.0924385
0.0936296
0.0950296
0.0966597
0.0985473
0.100728
0.103247
0.106167
0.109567
0.113538
0.118171
0.123529
0.129615
0.136384
0.143897
0.152812
0.165435
0.188317
0.238282
0.359147
0.668895
1.40622
2.48273
2.65501
1.5734
1.03938
0.511788
0.233362
0.126889
0.0598647
0.0141837
0.00255185
8.45544e-05
7.33876e-05
0.00119942
0.00552393
0.00304385
0.000777232
6.4281e-05
5.75595e-05
0.000708652
0.0025597
0.0020425
0.000609133
5.31905e-05
4.97642e-05
0.000590345
0.00193701
0.00167605
0.000531767
4.68456e-05
4.48784e-05
0.000522633
0.00163263
0.001486
0.000487046
4.29388e-05
4.18903e-05
0.00048999
0.0014709
0.00137594
0.000463936
4.0609e-05
3.99202e-05
0.000468107
0.00136752
0.00129544
0.000447126
3.89748e-05
3.84986e-05
0.000451263
0.00129168
0.00123209
0.000433466
3.77598e-05
3.74143e-05
0.000437484
0.00123093
0.0011793
0.000421822
3.68143e-05
3.65546e-05
0.000425823
0.0011798
0.00113386
0.000411598
3.60471e-05
3.58423e-05
0.000415615
0.00113545
0.00109377
0.000402367
3.53964e-05
3.52294e-05
0.000406336
0.00109609
0.00105777
0.000393854
3.48287e-05
3.46883e-05
0.000397773
0.00106061
0.00102507
0.000385931
3.43203e-05
3.41986e-05
0.000389809
0.00102829
0.0009951
0.000378524
3.38556e-05
3.37476e-05
0.000382366
0.000998659
0.000967435
0.000371569
3.3424e-05
3.33265e-05
0.000375374
0.000971294
0.000941808
0.000365009
3.30185e-05
3.29291e-05
0.000368775
0.000945925
0.000917991
0.000358797
3.26339e-05
3.25509e-05
0.000362526
0.000922334
0.000895813
0.000352903
3.22663e-05
3.21884e-05
0.000356601
0.000900355
0.000875121
0.00034731
3.19128e-05
3.18393e-05
0.000350981
0.000879826
0.000855752
0.000341998
3.15715e-05
3.15018e-05
0.000345638
0.000860582
0.000837545
0.000336933
3.12406e-05
3.11742e-05
0.000340541
0.000842463
0.000820359
0.00033209
3.09186e-05
3.0855e-05
0.000335662
0.000825336
0.000804069
0.000327439
3.06038e-05
3.05425e-05
0.000330973
0.000809083
0.00078857
0.000322955
3.02948e-05
3.02353e-05
0.000326448
0.000793597
0.000773764
0.000318612
2.99903e-05
2.99322e-05
0.000322059
0.000778787
0.00075957
0.000314386
2.96888e-05
2.96317e-05
0.000317786
0.000764574
0.000745918
0.000310258
2.93892e-05
2.93327e-05
0.000313608
0.000750889
0.000732744
0.000306211
2.90902e-05
2.90339e-05
0.000309509
0.00073767
0.000719993
0.000302228
2.87908e-05
2.87343e-05
0.000305474
0.000724868
0.000707619
0.000298299
2.84898e-05
2.84329e-05
0.000301492
0.00071244
0.000695593
0.000294414
2.81864e-05
2.81288e-05
0.000297554
0.000700356
0.000683886
0.000290565
2.78796e-05
2.78211e-05
0.000293656
0.000688594
0.00067248
0.000286751
2.75686e-05
2.75092e-05
0.000289802
0.000677136
0.000661363
0.000282972
2.72529e-05
2.71926e-05
0.000286017
0.000665977
0.000650536
0.000279243
2.69321e-05
2.68709e-05
0.000282271
0.000655115
0.000639995
0.000275548
2.66059e-05
2.65439e-05
0.000278573
0.000644548
0.000629744
0.000271902
2.6274e-05
2.62112e-05
0.000274937
0.000634285
0.000619801
0.00026832
2.59365e-05
2.58732e-05
0.000271379
0.000624353
0.000610199
0.000264824
2.55935e-05
2.55301e-05
0.000267926
0.000614791
0.000600985
0.000261441
2.52458e-05
2.51829e-05
0.000264612
0.000605738
0.000592257
0.000258211
2.48946e-05
2.48329e-05
0.000261483
0.000597274
0.000584095
0.000255185
2.45415e-05
2.44823e-05
0.000258589
0.00058941
0.000576568
0.000252416
2.41893e-05
2.41339e-05
0.00025599
0.000582282
0.000569823
0.00024997
2.38409e-05
2.37913e-05
0.000253761
0.000576049
0.000564036
0.000247929
2.35003e-05
2.34593e-05
0.000251988
0.000570897
0.000559399
0.000246396
2.31722e-05
2.31444e-05
0.000250711
0.00056702
0.000556136
0.000245443
2.28669e-05
2.28484e-05
0.000249832
0.000564564
0.000554316
0.000244846
2.25963e-05
2.25806e-05
0.000249371
0.000563811
0.000554215
0.000244737
2.23599e-05
2.23465e-05
0.000249399
0.000564774
0.00055581
0.000245156
2.2177e-05
2.21545e-05
0.0002499
0.000567346
0.000559037
0.000246089
2.20459e-05
2.20165e-05
0.000250805
0.000571306
0.00056359
0.000247299
2.19201e-05
2.19334e-05
0.000251939
0.000576548
0.000569401
0.00024858
2.18386e-05
2.18882e-05
0.00025306
0.000582869
0.000576192
0.000249887
2.18043e-05
2.18979e-05
0.000254003
0.000589535
0.000583111
0.000251019
2.18286e-05
2.19528e-05
0.000254782
0.000595927
0.000589631
0.000251841
2.18978e-05
2.20458e-05
0.000255527
0.000601756
0.00059558
0.000252498
2.20056e-05
2.21746e-05
0.000256122
0.00060689
0.000600857
0.000253103
2.21487e-05
2.23344e-05
0.000256662
0.000611278
0.000605358
0.000253439
2.23204e-05
2.25162e-05
0.000257065
0.000614996
0.00060895
0.000253658
2.25131e-05
2.27137e-05
0.000257337
0.00061789
0.000611469
0.000253772
2.272e-05
2.29203e-05
0.000257477
0.000620331
0.000613221
0.000253816
2.29342e-05
2.31291e-05
0.000257535
0.000621817
0.000614011
0.000253663
2.31491e-05
2.33346e-05
0.000257513
0.000622296
0.000613349
0.000253244
2.33589e-05
2.35313e-05
0.000257113
0.000621522
0.000611913
0.000252693
2.35568e-05
2.37122e-05
0.00025657
0.00061992
0.000609866
0.000252077
2.37372e-05
2.38736e-05
0.000255945
0.000617613
0.000607232
0.00025144
2.38967e-05
2.40131e-05
0.000255261
0.000614645
0.000604079
0.000250804
2.40331e-05
2.41298e-05
0.000254555
0.000611117
0.000600504
0.000250188
2.41461e-05
2.42242e-05
0.000253845
0.00060715
0.000596578
0.000249591
2.42364e-05
2.4297e-05
0.000253131
0.000602806
0.000592377
0.000249005
2.43052e-05
2.4348e-05
0.000252413
0.000598217
0.000587924
0.000248411
2.43545e-05
2.43836e-05
0.00025168
0.000593502
0.000583378
0.000247811
2.43884e-05
2.44059e-05
0.000250943
0.000588749
0.000578797
0.000247181
2.44087e-05
2.44192e-05
0.000250176
0.000584009
0.000574155
0.00024648
2.44163e-05
2.4422e-05
0.00024938
0.000579265
0.000569485
0.000245694
2.44085e-05
2.44137e-05
0.00024856
0.000574502
0.000564825
0.000244902
2.43948e-05
2.4398e-05
0.000247737
0.000569772
0.00056019
0.000244089
2.43736e-05
2.43768e-05
0.000246891
0.000565053
0.000555563
0.000243247
2.43473e-05
2.43489e-05
0.000246008
0.000560346
0.000550923
0.000242387
2.43168e-05
2.43169e-05
0.000245103
0.000555654
0.000546227
0.000241473
2.42805e-05
2.42805e-05
0.000244132
0.000550904
0.000541513
0.000240505
2.42428e-05
2.42414e-05
0.000243139
0.000546163
0.000536862
0.000239517
2.42015e-05
2.41986e-05
0.000242139
0.000541499
0.000532267
0.000238503
2.41461e-05
2.41645e-05
0.000241135
0.000536924
0.00052735
0.000237461
2.40885e-05
2.4116e-05
0.00023986
0.000532568
0.000523204
0.000235758
2.39978e-05
2.41448e-05
0.00023999
0.000531093
0.000524634
0.000239678
2.40825e-05
2.44771e-05
0.000240111
0.000530484
0.000555633
0.000252485
2.46609e-05
2.62705e-05
0.00023677
0.00054017
0.00082489
0.000344202
2.96276e-05
3.1979e-05
0.000178467
0.000409692
0.00101067
0.0023159
0.00432917
0.00617192
0.00743287
0.00976998
0.0112621
0.012601
0.0133548
0.0137154
0.0136141
0.0130084
0.0121462
0.0107631
0.00940713
0.00735129
0.00642323
0.00467393
0.00349698
0.00237536
0.00135031
0.000619822
0.000226331
9.38016e-05
1.80794e-05
1.1745e-05
8.6696e-05
0.000204879
0.000193431
8.24353e-05
1.13183e-05
1.09033e-05
7.96448e-05
0.000183356
0.000184013
7.86115e-05
1.08094e-05
1.07465e-05
7.8153e-05
0.000181231
0.000181197
7.73577e-05
1.06344e-05
1.06216e-05
7.73372e-05
0.000181021
0.000181516
7.7385e-05
1.06386e-05
1.06392e-05
7.74925e-05
0.000181938
0.000182193
7.7617e-05
1.06562e-05
1.06634e-05
7.7725e-05
0.000182742
0.000183002
7.78549e-05
1.06731e-05
1.06909e-05
7.80008e-05
0.000183597
0.000183915
7.81371e-05
1.06857e-05
1.07033e-05
7.83047e-05
0.000184505
0.000184822
7.84145e-05
1.07124e-05
1.07317e-05
7.85959e-05
0.000185422
0.000185742
7.8683e-05
1.07332e-05
1.07384e-05
7.89324e-05
0.000186398
0.0001867
7.89864e-05
1.07619e-05
1.07664e-05
7.9223e-05
0.000187378
0.000187694
7.93195e-05
1.07765e-05
1.07806e-05
7.95613e-05
0.000188401
0.000188724
7.96486e-05
1.08058e-05
1.081e-05
7.98866e-05
0.000189427
0.000189752
7.99954e-05
1.08204e-05
1.08237e-05
8.02276e-05
0.000190463
0.000190789
8.03111e-05
1.08487e-05
1.08531e-05
8.05532e-05
0.000191526
0.000191889
8.06847e-05
1.08654e-05
1.08711e-05
8.09441e-05
0.00019267
0.000193029
8.10424e-05
1.08967e-05
1.0902e-05
8.13101e-05
0.00019379
0.000194135
8.14347e-05
1.09128e-05
1.09178e-05
8.1699e-05
0.000194923
0.000195301
8.18517e-05
1.09381e-05
1.09586e-05
8.20483e-05
0.000196084
0.00019645
8.21809e-05
1.0962e-05
1.09684e-05
8.24838e-05
0.000197272
0.000197682
8.26457e-05
1.0989e-05
1.10119e-05
8.28793e-05
0.000198498
0.000198881
8.30228e-05
1.10154e-05
1.10213e-05
8.33417e-05
0.000199736
0.000200125
8.3496e-05
1.10411e-05
1.1062e-05
8.37207e-05
0.000200941
0.000201338
8.38652e-05
1.10648e-05
1.10727e-05
8.42032e-05
0.000202186
0.000202568
8.43495e-05
1.1092e-05
1.11138e-05
8.45863e-05
0.000203387
0.000203771
8.47275e-05
1.11174e-05
1.11251e-05
8.50599e-05
0.000204632
0.000205028
8.52086e-05
1.11452e-05
1.11686e-05
8.5471e-05
0.00020586
0.000206236
8.56111e-05
1.11719e-05
1.11791e-05
8.59413e-05
0.000207067
0.000207403
8.60528e-05
1.11958e-05
1.12168e-05
8.62747e-05
0.000208145
0.000208499
8.63828e-05
1.12196e-05
1.1226e-05
8.66807e-05
0.000209271
0.000209556
8.67587e-05
1.12431e-05
1.12612e-05
8.69379e-05
0.000210287
0.000210563
8.69985e-05
1.12602e-05
1.12625e-05
8.72389e-05
0.000211203
0.000211457
8.72327e-05
1.12851e-05
1.12864e-05
8.74005e-05
0.00021201
0.000212133
8.7354e-05
1.12898e-05
1.12848e-05
8.74208e-05
0.000212587
0.000212655
8.72861e-05
1.13e-05
1.12927e-05
8.72695e-05
0.000212903
0.000212976
8.71089e-05
1.12931e-05
1.12845e-05
8.70183e-05
0.000213147
0.00021308
8.6758e-05
1.12884e-05
1.12899e-05
8.64844e-05
0.000213097
0.000212812
8.61282e-05
1.12741e-05
1.12554e-05
8.5785e-05
0.000212698
0.000212208
8.52709e-05
1.12502e-05
1.12422e-05
8.47097e-05
0.000212009
0.000211362
8.40853e-05
1.12215e-05
1.12077e-05
8.36178e-05
0.000211345
0.000210549
8.28532e-05
1.12141e-05
1.11938e-05
8.21812e-05
0.000210241
0.000209195
8.12767e-05
1.11802e-05
1.11608e-05
8.04885e-05
0.000208782
0.000207675
7.9554e-05
1.1164e-05
1.11829e-05
7.87854e-05
0.000207699
0.000206742
7.78946e-05
1.11945e-05
1.1222e-05
7.71546e-05
0.000206759
0.000206052
7.62743e-05
1.12502e-05
1.13023e-05
7.56163e-05
0.000206418
0.000205838
7.48445e-05
1.13619e-05
1.14613e-05
7.45279e-05
0.000207199
0.000208719
7.39007e-05
1.15803e-05
1.16835e-05
7.33041e-05
0.000210718
0.000213838
7.4138e-05
1.17993e-05
1.19141e-05
7.44698e-05
0.000216599
0.000218254
7.40487e-05
1.19452e-05
1.20291e-05
7.26656e-05
0.000221354
0.000224897
7.65404e-05
1.21994e-05
1.23193e-05
7.42638e-05
0.000227868
0.000230845
7.6109e-05
1.25274e-05
1.26797e-05
7.71212e-05
0.000236434
0.00023815
7.87752e-05
1.28897e-05
1.3177e-05
8.2872e-05
0.000245768
0.000247195
8.50325e-05
1.34678e-05
1.37235e-05
8.85032e-05
0.000253139
0.000254673
9.13857e-05
1.4218e-05
1.52491e-05
0.000105779
0.000265782
0.000265003
0.000112271
1.14616e-05
8.79852e-06
2.74495e-05
7.44839e-05
0.000207568
6.41716e-05
1.03879e-05
1.09045e-05
5.7738e-05
0.000190736
0.000200904
5.99922e-05
1.11744e-05
1.13575e-05
5.65872e-05
0.000191873
0.000206315
6.09024e-05
1.16807e-05
1.20186e-05
6.00109e-05
0.000203459
0.000224043
6.8489e-05
1.24212e-05
1.28754e-05
6.82507e-05
0.000219876
0.000241363
8.0287e-05
1.34766e-05
1.42557e-05
8.26145e-05
0.000242685
0.000271561
9.95412e-05
1.57122e-05
1.19514e-05
0.000109391
0.000277611
7.46993e-05
2.61471e-05
9.59928e-06
1.13261e-05
6.98756e-05
0.000233051
0.00022778
6.48827e-05
1.23167e-05
1.30446e-05
8.47536e-05
0.000280906
0.000286532
8.57954e-05
1.36143e-05
1.44118e-05
0.000100411
0.000319026
0.000327864
0.000107519
1.54583e-05
1.72412e-05
0.000127823
0.000358798
0.000349059
0.000138255
1.34039e-05
1.01483e-05
3.14145e-05
9.2245e-05
0.00028467
8.41979e-05
1.209e-05
1.30879e-05
7.84082e-05
0.000278842
0.000319721
9.68466e-05
1.40055e-05
1.49973e-05
9.68816e-05
0.000314711
0.000358174
0.000122946
1.72275e-05
1.37484e-05
0.000142286
0.000359028
9.72304e-05
3.12624e-05
1.0141e-05
1.2645e-05
8.79997e-05
0.000320857
0.000330757
9.23001e-05
1.42379e-05
1.65305e-05
0.000130842
0.000426814
0.000446848
0.000154419
1.93492e-05
1.58941e-05
0.000178957
0.00045131
0.000125525
3.68849e-05
1.06952e-05
1.38392e-05
0.000118198
0.00040039
0.000397919
0.000114503
1.61264e-05
2.02494e-05
0.000170786
0.000503575
0.000511538
0.000199236
1.68093e-05
1.11951e-05
4.14249e-05
0.000155536
0.000517041
0.000152187
1.60609e-05
2.02758e-05
0.000160892
0.000556433
0.000772708
0.000272008
2.7774e-05
2.31384e-05
0.000289998
0.000742963
0.000262533
6.90246e-05
1.51139e-05
2.69264e-05
0.00028196
0.000809971
0.000810257
0.000301361
2.51016e-05
1.71464e-05
7.7669e-05
0.000318582
0.00111987
0.000372261
3.73544e-05
3.67787e-05
0.000428891
0.00121574
0.000553347
0.000152836
2.3383e-05
3.72117e-05
0.000497397
0.00144982
0.000957697
0.00031753
2.47806e-05
4.59958e-05
0.00055982
0.00112923
0.000968626
0.00046834
3.78195e-05
3.83144e-05
0.000446472
0.00106251
0.00136339
0.000492836
4.39662e-05
6.07774e-05
0.000920463
0.00227327
0.000506517
0.000157506
3.45652e-05
3.53779e-05
0.000441697
0.00101216
0.00031305
0.000111896
2.46836e-05
2.67392e-05
0.000273169
0.000656419
0.000560551
0.000201329
2.68902e-05
1.45476e-05
5.13455e-05
0.000160554
0.000378031
0.000207453
1.76953e-05
1.67094e-05
6.70453e-05
0.000171948
0.000417804
0.000182347
1.91059e-05
2.03937e-05
0.000147895
0.000378058
0.000122478
4.59158e-05
1.34767e-05
1.5924e-05
0.000144379
0.000326802
0.000300518
0.000121936
1.82398e-05
1.26779e-05
4.01788e-05
0.000101364
0.000278063
0.000125294
1.47577e-05
1.68024e-05
0.00010778
0.000255549
8.75974e-05
3.64368e-05
1.21552e-05
1.36409e-05
0.000108503
0.000245488
0.000221974
9.64504e-05
1.62103e-05
1.20878e-05
3.45471e-05
7.99749e-05
0.00021617
9.98763e-05
1.31346e-05
1.55327e-05
8.7301e-05
0.000196493
7.04658e-05
3.17742e-05
1.17261e-05
1.25454e-05
9.09638e-05
0.000195205
0.000175839
8.06665e-05
1.52328e-05
1.17189e-05
3.07302e-05
6.73587e-05
0.000179324
8.60771e-05
1.22062e-05
1.48588e-05
7.60879e-05
0.000163475
6.37571e-05
3.00978e-05
1.16487e-05
1.21993e-05
8.64394e-05
0.000173461
0.000147312
6.95899e-05
1.52409e-05
1.27403e-05
5.49017e-05
0.00011939
4.69823e-05
2.15302e-05
1.03062e-05
1.01304e-05
5.78887e-05
0.000117736
0.000111832
5.36941e-05
1.29961e-05
1.0567e-05
2.19558e-05
4.59756e-05
0.000109905
5.59962e-05
1.00452e-05
1.29129e-05
5.17675e-05
0.000102519
4.31277e-05
2.1501e-05
1.04031e-05
9.75515e-06
5.2221e-05
9.79973e-05
9.36798e-05
4.94548e-05
1.25305e-05
1.03073e-05
2.05654e-05
4.06281e-05
9.24097e-05
4.99084e-05
9.65765e-06
1.24613e-05
4.70882e-05
8.68486e-05
3.88057e-05
2.00223e-05
1.02215e-05
9.44123e-06
4.62899e-05
8.43856e-05
8.11809e-05
4.53353e-05
1.23101e-05
1.01713e-05
1.93662e-05
3.66777e-05
7.98551e-05
4.49158e-05
9.27067e-06
1.21157e-05
4.22106e-05
7.56289e-05
3.48636e-05
1.90498e-05
9.91891e-06
8.96026e-06
4.1604e-05
7.14608e-05
6.91405e-05
3.90731e-05
1.18463e-05
9.69998e-06
1.75279e-05
3.11971e-05
6.19092e-05
4.5743e-05
8.62409e-06
1.11318e-05
2.21465e-05
3.61253e-05
8.27187e-05
4.75782e-05
9.96176e-06
1.25819e-05
4.40571e-05
7.70441e-05
3.73492e-05
2.14813e-05
1.03128e-05
9.43913e-06
4.60436e-05
7.7129e-05
7.29672e-05
4.26243e-05
1.24129e-05
1.03014e-05
2.12646e-05
3.60331e-05
7.54005e-05
4.5151e-05
9.34837e-06
1.22863e-05
4.22059e-05
7.10022e-05
3.54848e-05
2.15617e-05
1.03234e-05
9.32161e-06
4.27702e-05
6.86078e-05
6.46072e-05
3.88355e-05
1.24248e-05
1.03644e-05
2.10508e-05
3.31201e-05
6.32708e-05
3.99577e-05
9.12204e-06
1.1976e-05
3.61494e-05
5.94454e-05
2.91633e-05
1.90026e-05
9.67343e-06
8.33817e-06
3.92127e-05
5.25249e-05
3.19475e-05
2.19484e-05
1.0944e-05
9.71082e-06
3.90427e-05
6.27133e-05
5.78113e-05
3.53866e-05
1.23837e-05
1.0108e-05
2.11657e-05
3.08533e-05
5.75473e-05
3.75815e-05
9.00488e-06
1.19261e-05
3.46694e-05
5.22319e-05
2.80018e-05
1.99299e-05
9.86791e-06
8.44085e-06
3.70945e-05
4.7639e-05
3.01159e-05
2.19148e-05
1.10981e-05
9.64798e-06
3.74584e-05
5.7765e-05
5.21881e-05
3.39333e-05
1.22585e-05
1.00911e-05
2.14277e-05
2.92652e-05
5.4027e-05
3.61204e-05
9.01156e-06
1.19355e-05
3.28583e-05
4.94257e-05
2.68569e-05
1.98898e-05
9.77152e-06
8.37881e-06
3.45917e-05
4.37281e-05
2.82732e-05
2.15319e-05
1.10752e-05
9.52351e-06
3.49311e-05
5.33194e-05
4.79458e-05
3.1932e-05
1.21889e-05
1.00573e-05
2.13653e-05
2.72669e-05
4.87816e-05
3.32675e-05
8.97849e-06
1.19162e-05
3.05052e-05
4.42547e-05
2.50216e-05
1.98564e-05
1.00167e-05
8.44764e-06
3.19529e-05
3.92231e-05
2.6109e-05
2.09721e-05
1.11693e-05
9.41899e-06
3.18925e-05
4.76088e-05
4.2828e-05
2.91604e-05
1.20456e-05
9.66726e-06
2.00084e-05
2.44624e-05
3.81517e-05
3.16955e-05
8.11084e-06
1.09148e-05
2.13676e-05
2.58288e-05
4.67661e-05
3.10836e-05
9.27507e-06
1.21004e-05
2.86825e-05
4.22376e-05
2.45883e-05
2.05558e-05
9.8643e-06
8.30618e-06
3.09941e-05
3.78077e-05
2.59539e-05
2.18325e-05
1.09995e-05
9.1766e-06
3.14849e-05
4.66662e-05
4.14292e-05
2.8966e-05
1.2049e-05
9.95151e-06
2.08624e-05
2.44291e-05
3.74689e-05
3.16066e-05
8.2584e-06
1.1112e-05
2.19826e-05
2.57368e-05
4.54349e-05
3.06626e-05
9.38743e-06
1.21714e-05
2.8473e-05
4.11759e-05
2.43624e-05
2.10743e-05
9.889e-06
8.27396e-06
3.13152e-05
3.66991e-05
2.5585e-05
2.23683e-05
1.10304e-05
9.31189e-06
3.04165e-05
4.48076e-05
4.0087e-05
2.80736e-05
1.2056e-05
1.00433e-05
2.09813e-05
2.39102e-05
3.54436e-05
3.11752e-05
8.26261e-06
1.09428e-05
2.29331e-05
2.55216e-05
3.87686e-05
2.97622e-05
8.78173e-06
1.13815e-05
2.30769e-05
2.68597e-05
4.57352e-05
3.05223e-05
9.53556e-06
1.21158e-05
2.83896e-05
4.0799e-05
2.46612e-05
2.17989e-05
9.88294e-06
8.23677e-06
3.13364e-05
3.64556e-05
2.57467e-05
2.32704e-05
1.11512e-05
9.36633e-06
3.01749e-05
4.4067e-05
3.9511e-05
2.81759e-05
1.21869e-05
1.01423e-05
2.16913e-05
2.4063e-05
3.50808e-05
3.09154e-05
8.41699e-06
1.11511e-05
2.34168e-05
2.56552e-05
3.81269e-05
2.9505e-05
9.00219e-06
1.13612e-05
2.36801e-05
2.68247e-05
4.49139e-05
3.02644e-05
9.39346e-06
1.21588e-05
2.83207e-05
4.01086e-05
2.46986e-05
2.26298e-05
9.97141e-06
8.27743e-06
3.14862e-05
3.58074e-05
2.65119e-05
2.44351e-05
1.11457e-05
8.9447e-06
3.04318e-05
3.90728e-05
2.76762e-05
2.50019e-05
1.14573e-05
9.55632e-06
3.05602e-05
4.57715e-05
4.08418e-05
2.88182e-05
1.23791e-05
1.00884e-05
2.31791e-05
2.53322e-05
3.63495e-05
3.24064e-05
8.35229e-06
1.11559e-05
2.48559e-05
2.69737e-05
3.9252e-05
3.09592e-05
8.97051e-06
1.14893e-05
2.52895e-05
2.80106e-05
4.59558e-05
3.10773e-05
9.56915e-06
1.23236e-05
2.93258e-05
4.11199e-05
2.58338e-05
2.39818e-05
1.01285e-05
8.46812e-06
3.26994e-05
3.68743e-05
2.76248e-05
2.5717e-05
1.13322e-05
9.17256e-06
3.15551e-05
3.99218e-05
2.86906e-05
2.61097e-05
1.15247e-05
9.52961e-06
3.12572e-05
4.62769e-05
4.13009e-05
2.94712e-05
1.22415e-05
1.0032e-05
2.38204e-05
2.57618e-05
3.63785e-05
3.2552e-05
8.46265e-06
1.13208e-05
2.53564e-05
2.72253e-05
3.88657e-05
3.09316e-05
9.12074e-06
1.15957e-05
2.59164e-05
2.81038e-05
4.47829e-05
3.05785e-05
9.60715e-06
1.24098e-05
2.90548e-05
4.00526e-05
2.55958e-05
2.41582e-05
1.019e-05
8.51674e-06
3.24618e-05
3.60962e-05
2.73011e-05
2.55689e-05
1.12597e-05
8.91328e-06
3.05251e-05
3.85171e-05
2.86605e-05
2.61371e-05
1.13832e-05
9.06832e-06
3.12835e-05
4.00964e-05
2.94995e-05
2.77474e-05
1.15748e-05
9.64191e-06
3.19353e-05
4.60607e-05
4.11197e-05
3.03527e-05
1.23683e-05
1.02284e-05
2.51047e-05
2.65164e-05
3.69947e-05
3.36955e-05
8.53385e-06
1.14066e-05
2.63567e-05
2.80995e-05
3.8902e-05
3.11197e-05
9.18779e-06
1.15619e-05
2.6646e-05
2.92108e-05
4.02565e-05
3.16346e-05
9.14892e-06
1.16032e-05
2.81715e-05
2.98609e-05
4.6039e-05
3.21768e-05
9.62828e-06
1.23783e-05
3.06178e-05
4.13024e-05
2.7008e-05
2.57581e-05
1.02181e-05
8.51034e-06
3.41212e-05
3.73227e-05
2.8626e-05
2.70911e-05
1.14465e-05
9.1794e-06
3.15316e-05
3.97398e-05
2.99842e-05
2.76023e-05
1.16333e-05
9.29482e-06
3.25923e-05
4.11529e-05
3.0808e-05
2.93036e-05
1.17756e-05
9.80217e-06
3.31687e-05
4.69134e-05
4.21412e-05
3.15285e-05
1.25184e-05
1.02048e-05
2.63603e-05
2.78495e-05
3.78201e-05
3.47952e-05
8.5639e-06
1.15038e-05
2.76131e-05
2.92582e-05
3.98079e-05
3.19369e-05
9.14519e-06
1.16382e-05
2.7737e-05
3.01706e-05
4.08505e-05
3.23996e-05
9.25375e-06
1.18374e-05
2.93843e-05
3.0853e-05
4.61702e-05
3.2791e-05
9.78643e-06
1.25992e-05
3.15488e-05
4.17604e-05
2.80949e-05
2.69293e-05
1.05447e-05
8.81034e-06
3.46087e-05
3.76394e-05
2.96084e-05
2.82826e-05
1.16779e-05
9.24805e-06
3.26093e-05
4.00707e-05
3.07013e-05
2.8458e-05
1.16628e-05
9.17725e-06
3.25306e-05
4.10329e-05
3.14722e-05
2.91776e-05
1.16504e-05
9.33548e-06
3.40282e-05
4.20918e-05
3.19944e-05
3.08779e-05
1.17843e-05
9.7925e-06
3.42697e-05
4.74458e-05
4.29598e-05
3.27342e-05
1.25475e-05
1.02526e-05
2.73296e-05
2.90045e-05
3.80781e-05
3.54111e-05
8.62889e-06
1.16735e-05
2.85759e-05
3.01987e-05
3.99173e-05
3.24266e-05
9.33088e-06
1.18129e-05
2.8884e-05
3.10715e-05
4.09419e-05
3.26714e-05
9.28721e-06
1.17522e-05
2.99344e-05
3.1835e-05
4.24085e-05
3.44854e-05
9.40535e-06
1.1886e-05
3.16209e-05
3.25505e-05
4.81479e-05
3.49872e-05
9.86496e-06
1.27064e-05
3.3613e-05
4.37613e-05
3.01245e-05
2.88905e-05
1.04816e-05
8.70389e-06
3.71507e-05
3.96057e-05
3.14901e-05
3.0131e-05
1.16467e-05
9.21333e-06
3.42513e-05
4.19499e-05
3.25937e-05
3.02318e-05
1.17883e-05
9.38275e-06
3.44646e-05
4.293e-05
3.33762e-05
3.12924e-05
1.18068e-05
9.40817e-06
3.61519e-05
4.41656e-05
3.40161e-05
3.29034e-05
1.19415e-05
9.99226e-06
3.62072e-05
4.94346e-05
4.50294e-05
3.46884e-05
1.27286e-05
1.04469e-05
2.95499e-05
3.11652e-05
4.00206e-05
3.73962e-05
8.86873e-06
1.18256e-05
3.07353e-05
3.23935e-05
4.20134e-05
3.46688e-05
9.43905e-06
1.19937e-05
3.07075e-05
3.32999e-05
4.27326e-05
3.42494e-05
9.49263e-06
1.19915e-05
3.17795e-05
3.38157e-05
4.40449e-05
3.61263e-05
9.61624e-06
1.20913e-05
3.37027e-05
3.43743e-05
4.93946e-05
3.68244e-05
1.00146e-05
1.29047e-05
3.5518e-05
4.53914e-05
3.19434e-05
3.06724e-05
1.06119e-05
8.88581e-06
3.87505e-05
4.10196e-05
3.33309e-05
3.18468e-05
1.18651e-05
9.44794e-06
3.57052e-05
4.31527e-05
3.44149e-05
3.19392e-05
1.20287e-05
9.54251e-06
3.56788e-05
4.42488e-05
3.51955e-05
3.29072e-05
1.19859e-05
9.60648e-06
3.74923e-05
4.53675e-05
3.55831e-05
3.45834e-05
1.20845e-05
1.00363e-05
3.75802e-05
5.04335e-05
4.61919e-05
3.62389e-05
1.29565e-05
1.05997e-05
3.11149e-05
3.26613e-05
4.08932e-05
3.89244e-05
8.95272e-06
1.19864e-05
3.22477e-05
3.38063e-05
4.23614e-05
3.54627e-05
9.51137e-06
1.21251e-05
3.22808e-05
3.45062e-05
4.3277e-05
3.53328e-05
9.60972e-06
1.20675e-05
3.32085e-05
3.5139e-05
4.45093e-05
3.69427e-05
9.61057e-06
1.20277e-05
3.43595e-05
3.60894e-05
4.61726e-05
3.87185e-05
9.60862e-06
1.21494e-05
3.60968e-05
3.66595e-05
5.19387e-05
3.90526e-05
1.01095e-05
1.3141e-05
3.78542e-05
4.78472e-05
3.43711e-05
3.32846e-05
1.08852e-05
9.05661e-06
4.12453e-05
4.32889e-05
3.58982e-05
3.46556e-05
1.20867e-05
9.64128e-06
3.83604e-05
4.55498e-05
3.69895e-05
3.4758e-05
1.21947e-05
9.6641e-06
3.86679e-05
4.68683e-05
3.79171e-05
3.57309e-05
1.21052e-05
9.67817e-06
4.0446e-05
4.85106e-05
3.87023e-05
3.7563e-05
1.22504e-05
1.02448e-05
4.0636e-05
5.3765e-05
4.93083e-05
3.92823e-05
1.32758e-05
1.09457e-05
3.43901e-05
3.5653e-05
4.42929e-05
4.24976e-05
9.13968e-06
1.2193e-05
3.56026e-05
3.71688e-05
4.58223e-05
3.91724e-05
9.74902e-06
1.22946e-05
3.53437e-05
3.77838e-05
4.64535e-05
3.86865e-05
9.81936e-06
1.22412e-05
3.62741e-05
3.83327e-05
4.76865e-05
4.02559e-05
9.78111e-06
1.24023e-05
3.81269e-05
3.87653e-05
5.3035e-05
4.06306e-05
1.0322e-05
1.35258e-05
3.96958e-05
4.90055e-05
3.62929e-05
3.54785e-05
1.11616e-05
9.21184e-06
4.30788e-05
4.45748e-05
3.78408e-05
3.68575e-05
1.23229e-05
9.84679e-06
4.02855e-05
4.6731e-05
3.89401e-05
3.6928e-05
1.23997e-05
9.81029e-06
4.03441e-05
4.7851e-05
3.96342e-05
3.78222e-05
1.23279e-05
9.90111e-06
4.16862e-05
4.94842e-05
4.04923e-05
3.98703e-05
1.25963e-05
1.04731e-05
4.23747e-05
5.48523e-05
5.0521e-05
4.13268e-05
1.36199e-05
1.12158e-05
3.68969e-05
3.77462e-05
4.6049e-05
4.49392e-05
9.31192e-06
1.23639e-05
3.78792e-05
3.92518e-05
4.75077e-05
4.11641e-05
9.88174e-06
1.25465e-05
3.78328e-05
3.99728e-05
4.82216e-05
4.09866e-05
9.93323e-06
1.25802e-05
3.8946e-05
4.0624e-05
4.95478e-05
4.23917e-05
1.00168e-05
1.28688e-05
4.11186e-05
4.11804e-05
5.50323e-05
4.31004e-05
1.07745e-05
1.40619e-05
4.2397e-05
5.10789e-05
3.91242e-05
3.88777e-05
1.15591e-05
9.63044e-06
4.62282e-05
4.73743e-05
4.07659e-05
4.00378e-05
1.26125e-05
1.00539e-05
4.38057e-05
4.96592e-05
4.19415e-05
4.02351e-05
1.27906e-05
1.00574e-05
4.373e-05
5.10894e-05
4.248e-05
4.18522e-05
1.3001e-05
1.09167e-05
4.37347e-05
5.59687e-05
5.17371e-05
4.29956e-05
1.43453e-05
1.16648e-05
3.92195e-05
3.97356e-05
4.70969e-05
4.63861e-05
9.7293e-06
1.28526e-05
4.03806e-05
4.11788e-05
4.87734e-05
4.35664e-05
1.0265e-05
1.30582e-05
4.04899e-05
4.19702e-05
4.99645e-05
4.30445e-05
1.02973e-05
1.33273e-05
4.252e-05
4.24422e-05
5.49031e-05
4.37893e-05
1.10347e-05
1.45324e-05
4.34362e-05
5.11341e-05
4.03326e-05
4.04089e-05
1.19501e-05
9.80976e-06
4.72112e-05
4.75692e-05
4.18611e-05
4.16475e-05
1.30048e-05
1.02508e-05
4.40288e-05
4.9826e-05
4.3145e-05
4.21071e-05
1.32819e-05
1.05404e-05
4.46586e-05
5.13461e-05
4.38602e-05
4.39739e-05
1.35357e-05
1.12011e-05
4.50053e-05
5.59778e-05
5.221e-05
4.46631e-05
1.48853e-05
1.19624e-05
4.13257e-05
4.16585e-05
4.79871e-05
4.80912e-05
9.90475e-06
1.32896e-05
4.26802e-05
4.29208e-05
4.98664e-05
4.50912e-05
1.05611e-05
1.35011e-05
4.29901e-05
4.38107e-05
5.1324e-05
4.47854e-05
1.06457e-05
1.38687e-05
4.52349e-05
4.44516e-05
5.65132e-05
4.58712e-05
1.15391e-05
1.52004e-05
4.57292e-05
5.28768e-05
4.28557e-05
4.3461e-05
1.23022e-05
1.01395e-05
4.98639e-05
4.97373e-05
4.45374e-05
4.50039e-05
1.36287e-05
1.08314e-05
4.73662e-05
5.23497e-05
4.60053e-05
4.54967e-05
1.39704e-05
1.1113e-05
4.71822e-05
5.42139e-05
4.70814e-05
4.78743e-05
1.44187e-05
1.19733e-05
4.84993e-05
5.93483e-05
5.56247e-05
4.84756e-05
1.58318e-05
1.28429e-05
4.57677e-05
4.55623e-05
5.19533e-05
5.23669e-05
1.05426e-05
1.40112e-05
4.71822e-05
4.68945e-05
5.44094e-05
4.92032e-05
1.11745e-05
1.47174e-05
4.88013e-05
4.79357e-05
5.93066e-05
4.88102e-05
1.22335e-05
1.61182e-05
4.84685e-05
5.58533e-05
4.59701e-05
4.68182e-05
1.31405e-05
1.07225e-05
5.27638e-05
5.2425e-05
4.78124e-05
4.85737e-05
1.44326e-05
1.15032e-05
5.04275e-05
5.53466e-05
4.93985e-05
4.95013e-05
1.4912e-05
1.18538e-05
5.06001e-05
5.76755e-05
5.08572e-05
5.23788e-05
1.54399e-05
1.28394e-05
5.25774e-05
6.34158e-05
5.94919e-05
5.27439e-05
1.69782e-05
1.3871e-05
5.09004e-05
4.98685e-05
5.64012e-05
5.73042e-05
1.12315e-05
1.50772e-05
5.23821e-05
5.16584e-05
5.94912e-05
5.39532e-05
1.20621e-05
1.58561e-05
5.42853e-05
5.28692e-05
6.50806e-05
5.39886e-05
1.29624e-05
1.73377e-05
5.42117e-05
6.15298e-05
5.2019e-05
5.34024e-05
1.46091e-05
1.19942e-05
5.87799e-05
5.84358e-05
5.37458e-05
5.52705e-05
1.59525e-05
1.27814e-05
5.63658e-05
6.20304e-05
5.55006e-05
5.75283e-05
1.67943e-05
1.4003e-05
5.68241e-05
6.7972e-05
6.42413e-05
5.71766e-05
1.85241e-05
1.51501e-05
5.60468e-05
5.46832e-05
6.14077e-05
6.17921e-05
1.2274e-05
1.67198e-05
5.88654e-05
5.63518e-05
6.77754e-05
5.77278e-05
1.39415e-05
1.86296e-05
5.77348e-05
6.45433e-05
5.49684e-05
5.57663e-05
1.51694e-05
1.21135e-05
6.24355e-05
6.1225e-05
5.66142e-05
5.76436e-05
1.65183e-05
1.32354e-05
5.82297e-05
6.39637e-05
5.78764e-05
5.99463e-05
1.758e-05
1.46377e-05
5.85765e-05
6.9419e-05
6.60836e-05
5.94171e-05
1.94762e-05
1.59399e-05
5.89241e-05
5.74033e-05
6.32758e-05
6.36926e-05
1.30896e-05
1.77655e-05
6.22419e-05
5.89519e-05
6.94872e-05
6.02992e-05
1.48965e-05
1.98973e-05
6.05261e-05
6.64654e-05
5.83593e-05
6.01572e-05
1.63973e-05
1.32593e-05
6.48719e-05
6.39853e-05
5.95272e-05
6.29658e-05
1.78771e-05
1.4605e-05
6.05397e-05
6.99766e-05
6.70678e-05
6.11572e-05
1.99513e-05
1.66924e-05
6.05876e-05
5.89403e-05
6.44109e-05
6.47779e-05
1.36634e-05
1.86202e-05
6.43018e-05
6.05939e-05
7.01954e-05
6.15388e-05
1.54438e-05
2.08326e-05
6.21217e-05
6.73916e-05
6.02013e-05
6.24727e-05
1.7095e-05
1.38889e-05
6.62974e-05
6.52482e-05
6.16659e-05
6.5703e-05
1.88227e-05
1.55544e-05
6.2709e-05
7.14177e-05
6.86178e-05
6.31672e-05
2.09461e-05
1.71903e-05
6.32891e-05
6.1204e-05
6.64134e-05
6.84684e-05
1.34788e-05
1.87964e-05
6.67177e-05
6.27181e-05
7.22071e-05
6.30936e-05
1.58736e-05
2.16983e-05
6.38863e-05
6.94561e-05
6.28732e-05
6.62249e-05
1.8159e-05
1.47934e-05
6.87389e-05
6.79051e-05
6.49381e-05
7.04206e-05
2.01145e-05
1.67389e-05
6.66096e-05
7.50014e-05
7.22437e-05
6.7465e-05
2.24523e-05
1.85189e-05
6.91093e-05
6.5841e-05
7.09566e-05
7.2049e-05
1.50377e-05
2.04966e-05
7.34718e-05
6.77926e-05
7.85946e-05
7.00098e-05
1.68996e-05
2.25003e-05
6.99215e-05
7.57809e-05
6.88549e-05
7.48357e-05
1.96457e-05
1.69439e-05
7.43811e-05
7.77298e-05
7.52763e-05
7.4198e-05
2.3517e-05
1.99964e-05
7.40092e-05
7.0049e-05
7.57686e-05
7.63212e-05
1.63594e-05
2.2167e-05