/*--------------------------------*- C++ -*----------------------------------*\
| =========                 |                                                 |
| \\      /  F ield         | OpenFOAM: The Open Source CFD Toolbox           |
|  \\    /   O peration     | Version:  v2006                                 |
|   \\  /    A nd           | Website:  www.openfoam.com                      |
|    \\/     M anipulation  |                                                 |
\*---------------------------------------------------------------------------*/
FoamFile
{
    version     2.0;
    format      ascii;
    class       volScalarField;
    location    "0.036";
    object      k;
}
// * * * * * * * * * * * * * * * * * * * * * * * * * * * * * * * * * * * * * //

dimensions      [0 2 -2 0 0 0 0];


internalField   nonuniform List<scalar> 
16277
(
78.7433
78.7466
78.7529
78.7548
78.7602
78.7532
78.7388
78.6922
78.5839
78.4096
78.1848
77.9341
77.6737
77.4106
77.1451
76.8749
76.5973
76.3099
76.0114
75.7013
75.3794
75.046
74.7013
74.3457
73.9793
73.6023
73.215
72.8177
72.4105
71.9939
71.5682
71.1338
70.6911
70.2405
69.7825
69.3176
68.8463
68.369
67.8863
67.3987
66.9067
66.411
65.912
65.4103
64.9065
64.4012
63.8949
63.3881
62.8816
62.3758
61.8714
61.3688
60.8688
60.3719
59.8786
59.3896
58.9053
58.4263
57.9532
57.4865
57.0268
56.5746
56.1304
55.6947
55.268
54.8507
54.4433
54.0463
53.6599
53.2847
52.921
52.5691
52.2295
51.9027
51.5889
51.2884
51.0005
50.7237
50.4554
50.193
49.9364
49.6931
49.4846
49.3408
49.2759
49.2669
49.2814
49.3003
49.3117
49.3103
49.3
49.2342
49.0834
48.8311
48.3138
47.4606
43.1284
38.6745
45.3901
47.7089
46.0097
41.1588
34.5212
31.6309
38.8947
44.7113
42.2858
35.3585
28.9144
27.2012
33.937
41.2535
39.0119
31.2891
25.4403
24.3752
30.4051
38.2074
36.3855
28.5304
23.185
22.488
28.0189
35.8027
34.3492
26.7486
21.6554
21.1712
26.414
33.8991
32.7032
25.4671
20.5451
20.1881
25.235
32.3541
31.3396
24.4862
19.69
19.4144
24.3178
31.0602
30.1765
23.6973
19.0003
18.7774
23.5704
29.9471
29.1618
23.0369
18.4196
18.2318
22.9376
28.9691
28.2594
22.4645
17.9139
17.7513
22.3835
28.0942
27.4441
21.9535
17.4622
17.3172
21.885
27.3001
26.6984
21.4874
17.0496
16.9174
21.4281
26.571
26.0101
21.056
16.6662
16.5435
21.0038
25.8961
25.3693
20.6527
16.3054
16.19
20.606
25.2661
24.7687
20.2722
15.9624
15.8525
20.2298
24.6749
24.2037
19.9109
15.6335
15.528
19.8722
24.1184
23.6713
19.5662
15.3162
15.2141
19.5308
23.5938
23.169
19.2367
15.0084
14.9091
19.2042
23.0985
22.6938
18.9208
14.7086
14.6117
18.8908
22.6295
22.2429
18.6169
14.4156
14.3204
18.5889
22.1838
21.8133
18.3232
14.1281
14.0344
18.2968
21.7587
21.4025
18.038
13.8451
13.7523
18.0128
21.3516
21.008
17.7599
13.5655
13.4734
17.7355
20.9602
20.6279
17.4874
13.2884
13.1965
17.4633
20.5827
20.2603
17.2191
13.0129
12.921
17.1951
20.2172
19.9037
16.9538
12.7382
12.646
16.9296
19.8623
19.5566
16.6906
12.4636
12.3708
16.666
19.5165
19.2176
16.4286
12.1884
12.0948
16.4033
19.1785
18.8855
16.1669
11.9122
11.8175
16.1407
18.8471
18.5594
15.9049
11.6344
11.5386
15.8778
18.5216
18.2386
15.6422
11.3547
11.2577
15.6141
18.2012
17.9223
15.3783
11.0729
10.9748
15.3492
17.8851
17.6099
15.113
10.7889
10.6899
15.0831
17.5728
17.301
14.8468
10.5032
10.4034
14.8159
17.2638
16.9951
14.579
10.216
10.1157
14.5473
16.9579
16.6918
14.3098
9.92781
9.82741
14.2775
16.6546
16.3911
14.0396
9.63957
9.53964
14.0068
16.3538
16.093
13.769
9.3524
9.25368
13.7361
16.0557
15.7974
13.4988
9.06785
8.97126
13.4662
15.7605
15.5053
13.2304
8.78789
8.69459
13.1988
15.4691
15.2174
12.9655
8.515
8.4264
12.9356
15.1823
14.9347
12.7061
8.25214
8.16993
12.6787
14.9011
14.6585
12.4545
8.00282
7.929
12.4306
14.6271
14.3909
12.2138
7.7711
7.70812
12.1945
14.3624
14.1342
11.9877
7.56155
7.51264
11.9732
14.1098
13.8917
11.7799
7.38066
7.34716
11.7666
13.8718
13.6644
11.5834
7.23602
7.21744
11.5729
13.6495
13.4543
11.4032
7.12973
7.12707
11.3966
13.445
13.2631
11.2433
7.06959
7.07952
11.2412
13.2597
13.0933
11.1071
7.05249
7.07706
11.1089
13.0949
12.9442
10.9911
7.06965
7.12065
10.9965
12.9506
12.8159
10.8916
7.12868
7.20711
10.9007
12.8277
12.7102
10.8105
7.23105
7.33303
10.8232
12.7265
12.6245
10.749
7.369
7.48777
10.766
12.645
12.5577
10.708
7.53278
7.66368
10.7306
12.5825
12.5103
10.6901
7.71569
7.85605
10.7192
12.5397
12.4828
10.6946
7.91302
8.05962
10.7336
12.517
12.4746
10.716
8.1189
8.26766
10.7704
12.5167
12.4838
10.7591
8.32735
8.47492
10.827
12.5336
12.5053
10.8209
8.53314
8.67626
10.9006
12.5663
12.5419
10.8991
8.73132
8.86705
10.9883
12.6122
12.5909
10.9903
8.91767
9.04368
11.0871
12.6683
12.6488
11.0894
9.08902
9.20316
11.1877
12.7296
12.7109
11.19
9.24204
9.3426
11.2886
12.7922
12.7733
11.2903
9.37443
9.46076
11.3878
12.8526
12.8329
11.3882
9.48542
9.55757
11.4825
12.9077
12.8864
11.4813
9.57528
9.63403
11.5708
12.955
12.9316
11.5678
9.64536
9.69202
11.6513
12.9927
12.9666
11.646
9.69771
9.73382
11.7222
13.0187
12.99
11.7145
9.73466
9.76064
11.7825
13.0331
13
11.7721
9.75827
9.77635
11.8318
13.0367
12.9989
11.8188
9.77144
9.78313
11.8702
13.0296
12.9875
11.8547
9.77606
9.78366
11.8986
13.0139
12.9659
11.8798
9.77349
9.77855
11.9175
12.9892
12.9349
11.8941
9.76351
9.76747
11.9274
12.9552
12.8954
11.9001
9.7494
9.75252
11.9295
12.9131
12.8484
11.8987
9.73209
9.73458
11.9244
12.8635
12.7944
11.8903
9.71218
9.71411
11.9126
12.8071
12.734
11.8755
9.69021
9.69173
11.8946
12.7445
12.6679
11.8549
9.6666
9.66785
11.8714
12.6764
12.597
11.8295
9.64158
9.64243
11.844
12.6037
12.5221
11.7996
9.61528
9.61623
11.8124
12.5271
12.4427
11.7647
9.58865
9.58987
11.777
12.4464
12.36
11.7284
9.56179
9.56315
11.7379
12.3647
12.275
11.6846
9.53331
9.54495
11.6969
12.2824
12.2044
11.6848
9.53201
9.55511
11.6556
12.192
12.1736
11.6942
9.59485
9.70195
11.4818
12.125
12.8036
12.1944
10.2313
10.2156
10.8426
11.5251
13.768
16.2899
18.9319
21.1619
22.7027
24.7439
26.0383
27.1442
27.8923
28.4159
28.6632
28.6584
28.3878
27.7848
26.9086
25.3777
24.2873
22.1012
20.1173
18.014
15.8428
14.2313
12.5876
12.522
8.18415
7.94149
12.4864
12.5467
12.5195
12.4844
7.73301
7.57996
12.4955
12.5189
12.5765
12.5346
7.48338
7.48639
12.5596
12.5951
12.6347
12.566
7.41487
7.41721
12.5841
12.6655
12.6902
12.6022
7.42592
7.43458
12.612
12.7192
12.7378
12.6308
7.44674
7.45859
12.6471
12.7707
12.7866
12.6623
7.47138
7.48522
12.6837
12.822
12.8384
12.6958
7.49818
7.513
12.721
12.8754
12.8926
12.7332
7.52648
7.54227
12.7585
12.9299
12.9475
12.771
7.55603
7.57199
12.7951
12.9862
13.0041
12.8117
7.58628
7.60263
12.8326
13.0436
13.0622
12.8521
7.61824
7.63413
12.8736
13.103
13.122
12.8943
7.64997
7.66634
12.9141
13.1637
13.1834
12.9364
7.6833
7.69976
12.9581
13.2265
13.2467
12.9803
7.71651
7.73355
13.0016
13.2909
13.3119
13.025
7.75107
7.76818
13.0479
13.3574
13.3788
13.0712
7.78556
7.80328
13.0939
13.4252
13.4472
13.1181
7.82134
7.83924
13.1426
13.495
13.5176
13.1666
7.85728
7.87602
13.1954
13.5662
13.5894
13.2154
7.89404
7.91341
13.2451
13.64
13.6637
13.2685
7.93168
7.95155
13.3006
13.7149
13.7393
13.3211
7.96986
7.99032
13.3543
13.7922
13.8172
13.3789
8.0088
8.02941
13.4142
13.8706
13.896
13.4367
8.04821
8.06902
13.4726
13.9508
13.9767
13.4983
8.08742
8.10815
13.536
14.0315
14.0575
13.5581
8.12626
8.14666
13.5957
14.1138
14.1402
13.6236
8.16486
8.18551
13.6639
14.1953
14.2212
13.6878
8.20356
8.2244
13.7282
14.2767
14.3027
13.7575
8.24227
8.26334
13.801
14.3572
14.3826
13.8262
8.28129
8.30173
13.8682
14.4369
14.4619
13.8991
8.31915
8.33974
13.9446
14.5121
14.535
13.9716
8.35718
8.37583
14.011
14.5813
14.6016
14.039
8.3909
8.40734
14.0728
14.6421
14.6597
14.1044
8.42275
8.43694
14.1325
14.6923
14.7054
14.1597
8.45004
8.46221
14.1791
14.7274
14.735
14.1998
8.47441
8.48456
14.2116
14.7457
14.747
14.2201
8.49476
8.5044
14.2238
14.7497
14.7357
14.2183
8.51372
8.52234
14.2039
14.7302
14.6984
14.1852
8.5319
8.54283
14.1579
14.6833
14.6331
14.1105
8.55424
8.56834
14.0586
14.6091
14.5426
13.9819
8.58297
8.60265
13.9019
14.51
14.429
13.8113
8.62869
8.66577
13.7119
14.3861
14.2866
13.5807
8.70752
8.76011
13.4436
14.2366
14.1326
13.2715
8.82197
8.90292
13.1263
14.0831
13.9811
12.9473
9.00238
9.13289
12.7862
13.9346
13.837
12.5759
9.28356
9.4704
12.3721
13.7904
13.7259
12.1288
9.68981
9.94359
11.9639
13.7058
13.6833
11.8559
10.1693
10.3829
11.6347
13.6763
13.6614
11.4204
10.6032
10.7611
11.2822
13.7608
13.758
11.2341
10.9254
11.0762
10.9981
13.9172
13.9643
10.9278
11.2363
11.3835
10.89
14.2213
14.3435
10.9052
11.4893
11.61
11.089
14.7436
14.9147
11.1804
11.7741
11.9588
11.5491
15.4244
15.7372
11.9494
12.0943
12.317
12.8762
16.6358
16.9629
13.4802
12.5659
11.0704
9.6594
10.4871
14.4067
11.4869
11.1082
11.017
10.79
14.1974
14.3999
10.592
11.2944
11.4993
10.298
14.1855
14.6254
10.3553
11.7648
11.9939
10.2928
14.6264
15.3898
10.6721
12.1984
12.3887
10.7753
15.4456
16.4903
11.5079
12.6093
12.8306
11.8774
16.869
18.5901
13.2283
13.212
13.5915
14.0353
19.2734
10.8672
9.40257
12.8049
12.5413
11.5686
16.6312
16.8858
11.4794
12.4475
12.5863
12.3374
18.7244
19.2431
12.5929
12.6774
12.9046
13.6054
20.7832
21.5145
14.2087
13.2103
13.8076
15.9049
23.3516
23.7311
17.0669
14.4496
12.9459
10.744
13.0432
20.6391
13.1662
13.0772
13.0373
13.1592
21.0997
23.075
14.445
13.421
13.7094
14.8673
23.4476
26.3632
17.3447
14.5171
15.6216
19.2142
27.2973
15.0529
11.3837
13.8553
13.7731
15.2814
25.2751
26.5021
16.1326
13.8911
14.629
19.2893
30.5911
32.1999
21.2085
15.5078
17.2295
24.4246
33.9983
19.3121
13.5113
14.301
14.5783
19.3013
32.2502
33.2311
20.2024
15.0134
16.7613
26.0343
39.1224
40.9585
29.2017
18.4602
14.8945
16.0266
25.1595
41.8637
25.7868
16.1871
17.0802
28.054
44.7011
53.3273
37.4146
20.1754
21.6855
40.3973
55.0127
39.0476
23.6346
16.519
21.2515
43.0866
60.4295
63.2048
47.197
23.4136
17.3528
28.5948
48.7939
74.4148
56.0129
25.496
29.1681
62.7664
79.3507
70.9009
44.0764
19.5002
37.6868
81.3794
94.1017
87.6695
63.0777
20.0566
38.0457
89.8544
105.752
107.527
89.6271
37.57
39.4138
87.8773
105.515
101.697
86.3176
42.8104
56.0176
95.7916
102.214
77.8043
53.7635
38.869
45.1896
71.1058
82.5139
58.2448
41.9129
31.8263
33.5239
51.7762
65.2462
59.31
43.2949
29.2798
25.0533
24.7491
36.1517
48.1941
37.2525
27.3329
22.7952
25.0651
32.965
43.243
32.2358
24.039
21.7075
27.7611
39.5802
23.6885
18.0928
20.1503
21.2331
24.8791
35.0694
32.0371
21.9833
19.459
18.9212
15.4654
19.1213
29.5483
20.8312
19.4172
18.1794
18.8642
26.8949
16.4664
14.052
18.0463
18.0309
18.0097
25.4948
22.8828
16.5453
17.3121
17.5545
12.94
14.3675
22.1131
16.0169
16.9631
16.5755
14.7639
19.954
12.8061
11.9283
17.1333
16.097
14.4982
19.6149
17.6531
13.3744
15.8318
16.6803
11.0896
11.6278
17.5433
13.1568
15.3035
15.2389
12.1681
15.8755
10.7249
10.3855
16.1511
14.7398
12.4873
16.3818
14.0673
11.3519
14.6144
15.0058
10.3556
12.2303
8.9894
9.07104
16.6412
14.201
9.87481
12.5619
11.5437
9.45297
14.4992
15.5922
8.69554
8.52194
11.2216
9.16751
13.1837
13.8234
8.88025
10.404
7.82928
8.18544
15.5175
13.1152
8.40051
10.1863
9.52473
8.30306
13.7208
15.1067
7.95291
7.39342
9.28789
7.97728
12.5311
13.2837
7.95167
8.76511
7.11947
7.82257
14.9084
12.3636
7.52703
8.60035
8.23081
7.58837
13.1853
15.1595
7.47079
6.68909
8.23671
7.17057
12.3988
13.1675
7.3084
7.7962
6.40015
7.26029
15.0616
12.2888
6.61052
7.41606
7.222
7.05271
13.2983
15.5611
7.02576
6.14613
7.00127
6.76574
12.8321
14.4097
7.08199
6.00309
7.71404
6.77562
11.809
12.6099
6.76926
7.25527
6.28083
7.43424
14.4623
11.928
6.78395
7.37848
7.0324
6.70859
12.8561
14.6958
7.45485
6.15683
7.2582
6.74576
12.0299
13.017
6.59388
6.85289
6.10405
7.7405
15.0686
12.2818
6.51121
6.67158
6.36324
6.29557
13.2644
15.1967
7.81434
5.88443
6.36451
6.34516
12.2851
13.4699
6.34181
6.02115
5.6732
7.71413
15.9963
12.8974
5.65883
5.9896
5.49286
7.16847
14.8221
12.063
5.98298
6.11313
5.71315
5.83305
13.0532
15.0786
7.76133
5.53054
5.86891
5.95737
12.3482
13.5465
5.79057
5.34227
5.39918
8.09609
16.0365
12.8266
5.26294
5.41458
5.09882
7.06896
14.9501
11.9774
5.57465
5.52782
5.13055
5.51735
13.0986
15.3297
7.81432
5.19705
5.5118
5.71059
12.4672
13.8215
5.65133
5.06809
5.2787
8.27001
16.535
13.1584
5.06496
5.07729
4.93571
7.16983
15.4401
12.3058
5.42302
5.29925
4.85919
5.4107
13.5505
15.8966
8.01774
5.02462
5.14178
5.47083
12.8265
14.2618
5.46348
4.72095
5.12906
8.70622
16.6742
13.3069
5.05848
4.73649
4.70384
7.12022
15.8387
12.4827
5.08203
4.89556
4.52346
5.22369
13.9651
16.7826
8.44774
4.95126
4.60982
4.76342
13.3471
16.108
7.26803
4.66433
4.86298
5.09412
12.7087
14.1705
5.15825
4.47504
4.97364
8.71173
16.7804
13.3927
4.95361
4.58645
4.6542
7.31153
16.1457
12.7008
5.04733
4.80729
4.46101
5.22187
14.2996
17.0854
8.95882
5.01022
4.61103
4.97066
13.6488
16.7293
7.48342
4.70291
4.82279
5.07217
13.1154
14.7441
5.27903
4.46602
5.05382
8.98518
17.7116
14.0524
4.8561
4.59213
4.72894
7.64237
16.9915
13.4582
5.11849
4.82298
4.46225
5.2981
15.1672
18.0493
9.469
5.13986
4.63981
5.02291
14.4735
17.9085
8.40687
5.01487
4.62429
4.66983
13.9916
16.6981
7.59465
4.76693
4.86192
5.11185
13.2686
14.9793
5.3765
4.51605
5.18134
9.41451
18.2194
14.4814
5.03485
4.66096
4.85613
8.024
17.8122
14.0426
5.21108
4.88538
4.54056
5.50275
15.8899
18.9737
9.93216
5.30996
4.73012
5.20094
15.3304
18.8116
8.75204
5.17226
4.69312
4.79307
14.842
17.677
7.92644
4.87935
4.9142
5.2339
13.9575
15.8153
5.47428
4.56852
5.36883
9.96295
19.49
15.5051
5.08899
4.75996
5.21532
8.74839
19.0647
15.0551
4.81282
4.77058
5.03298
8.33371
18.0884
14.3962
5.36829
5.03592
4.71698
5.75037
16.3039
19.5833
10.3413
5.54826
4.91612
5.40319
15.7251
19.7101
9.16333
5.42383
4.89048
4.98137
15.5079
18.638
8.52288
5.15864
5.11989
5.47561
14.7117
16.673
5.82267
4.79556
5.69275
10.6536
20.4954
16.3227
5.44212
5.02077
5.54661
9.34308
20.1101
15.9809
5.13811
5.01451
5.34283
8.90216
19.142
15.1856
5.64916
5.2492
4.92486
6.0383
17.3471
21.655
11.0161
5.90522
5.13767
5.47872
17.3873
21.4151
9.68125
5.71902
5.10088
5.15552
16.7888
20.1803
9.30085
5.50015
5.3134
5.76849
15.8276
17.9714
6.13885
4.97432
6.01197
11.3895
22.2432
17.6896
5.62574
5.21554
5.83913
10.0228
21.7615
16.9548
5.26904
5.17793
5.76579
9.57768
20.7214
16.5232
5.34502
5.17522
5.63261
9.51811
20.0528
15.8891
5.87113
5.42311
5.13665
6.38803
18.1255
22.2099
11.8289
6.23585
5.4568
6.15994
18.0391
22.8293
10.569
6.17422
5.39983
5.60987
18.0136
21.7468
10.0262
6.00079
5.34146
5.52363
17.144
20.7523
9.89557
5.83287
5.57139
6.08337
16.4981
18.8616
6.51615
5.25975
6.46917
12.3033
23.6399
18.9292
6.07854
5.59118
6.29692
10.7559
23.5731
18.4411
5.64525
5.53858
6.20395
10.2989
22.4021
17.7751
5.72238
5.52047
6.07168
10.3738
21.4893
17.1296
6.34688
5.74759
5.45815
6.82838
19.5117
24.4409
12.8449
6.78286
5.78623
6.34741
19.6891
24.5494
11.1902
6.56891
5.72138
5.82409
19.2949
23.6802
10.8694
6.47325
5.71061
5.97899
18.7391
22.7266
10.8457
6.31187
5.88848
6.53784
17.937
20.4766
7.11598
5.60673
7.03788
13.1871
25.0464
20.1654
6.80649
5.94154
6.8902
11.8172
25.4896
19.9606
6.10955
5.9182
6.73796
11.3017
24.4019
19.4176
6.14667
5.87918
6.64951
11.1013
23.8658
19.0364
6.19465
5.88563
6.55631
11.131
23.1362
18.5687
6.88679
6.10563
5.85276
7.47689
21.3112
27.0908
14.1892
7.46204
6.18801
6.81376
21.6758
26.9812
12.2638
7.19176
6.11667
6.29054
21.0515
25.6666
11.807
7.02908
6.1058
6.39197
20.3193
24.9541
11.7145
6.9549
6.1243
6.53943
19.9986
24.293
11.7041
6.81642
6.34369
7.12471
19.3065
22.0519
7.67475
6.06306
7.75587
14.5614
27.6326
21.9279
7.18903
6.46694
7.57426
12.8794
27.5343
21.5528
6.70697
6.45024
7.40986
12.3026
26.5624
21.0612
6.72229
6.4333
7.36329
12.2785
25.8265
20.699
6.93773
6.47792
7.22992
12.2057
25.1709
20.1777
7.52003
6.66959
6.41895
8.19407
23.1161
29.2681
15.4986
8.25178
6.75088
7.53248
23.6037
29.3815
13.4236
7.92666
6.67858
6.93263
23.1901
28.4382
12.9133
7.80886
6.66245
6.95305
22.519
27.5778
12.8819
7.71522
6.6848
7.15293
21.9333
26.4704
12.9027
7.55494
6.91145
7.82055
20.9957
24.1086
8.52078
6.65422
8.60091
16.1339
30.3637
24.3474
7.93737
7.03469
8.34857
14.1069
30.5092
23.9075
7.28107
6.9835
8.15399
13.4154
29.2841
23.2503
7.28865
6.96638
8.11873
13.3896
28.5394
22.8553
7.5239
7.00481
7.97348
13.5072
27.7544
22.1445
8.2295
7.20006
6.97228
9.0505
25.6261
32.6956
17.2958
9.16853
7.34173
8.21795
26.1556
32.5079
14.9453
8.81046
7.2044
7.58548
25.3354
31.0502
14.1796
8.57675
7.19044
7.59163
24.6938
30.3624
14.1342
8.51648
7.25031
7.78391
24.2381
29.6532
14.1489
8.51247
7.31892
7.94827
23.7348
28.861
14.1309
8.33101
7.53559
8.59259
22.8515
26.4291
9.40791
7.2941
9.53494
17.6721
33.1263
26.3675
8.9567
7.72984
9.31602
15.6599
33.2419
26.0592
8.15416
7.66762
9.09027
14.9545
31.904
25.2515
8.17976
7.68251
9.02939
14.8537
30.8691
24.72
8.43628
7.75617
8.89146
14.7479
30.0158
23.9775
9.05273
7.9191
7.69132
9.95598
27.8603
35.193
18.8245
10.1786
8.15566
9.36894
28.0813
35.1276
16.551
9.8907
8.00066
8.593
27.7354
33.9759
15.766
9.59123
7.94835
8.5112
26.9265
32.8577
15.5976
9.49365
7.97859
8.7186
26.2767
32.0904
15.6225
9.29291
8.14815
9.42825
25.3441
29.4416
10.3481
7.90529
10.6105
19.7274
36.849
29.1659
9.98136
8.42142
10.3225
17.3949
36.6449
28.7218
9.02935
8.31234
10.0315
16.5407
35.0212
27.7707
8.97294
8.27003
9.88664
16.2804
34.0825
27.185
9.11935
8.32191
9.72883
16.2852
33.3671
26.5071
9.85952
8.49755
8.28289
10.9522
30.9541
39.0269
20.9667
11.2206
8.87085
10.403
31.1068
39.0032
18.4642
10.9564
8.72261
9.52855
30.5217
37.4145
17.625
10.6356
8.67027
9.50362
29.532
36.3857
17.3723
10.5271
8.69727
9.64276
28.9213
35.6906
17.3853
10.2967
8.86464
10.3712
28.256
32.9573
11.452
8.63003
11.7695
22.0276
41.1051
32.6599
11.0114
9.27715
11.4822
19.3587
40.5473
31.6728
10.0542
9.16255
11.1739
18.4056
39.0378
30.7415
10.0348
9.13999
10.9803
18.4394
38.2321
30.4219
11.0101
9.25708
9.04881
12.2519
35.6704
44.6833
24.023
12.7256
9.76723
11.6035
35.4683
43.805
20.5893
12.2066
9.5068
10.4695
34.1349
41.9715
19.6071
11.7752
9.40715
10.4535
32.6746
40.3889
19.4507
11.4608
9.49472
11.3875
31.8375
37.3076
12.6609
9.26498
13.1241
24.6834
46.1972
36.3002
12.2876
10.0131
12.668
21.5247
45.7362
35.2793
10.9192
9.8686
12.3599
20.6441
44.1016
34.6555
11.0614
9.84963
12.1466
20.6944
42.989
33.886
12.0588
9.91476
9.74486
13.5411
39.8919
49.731
26.8956
14.1123
10.5697
12.7549
39.2486
48.8922
22.9053
13.455
10.2799
11.4258
37.6709
46.5545
21.7035
12.9258
10.1704
11.4819
36.3503
45.3233
21.611
12.5876
10.2616
12.4818
35.8185
42.2126
13.8932
10.0564
14.5985
27.7285
52.4056
40.9071
13.3157
10.9888
14.1264
24.282
51.4182
39.7074
12.2063
10.8455
13.6927
22.9708
49.3644
38.6731
12.1813
10.8265
13.5084
23.0862
48.2443
38.2105
13.4344
10.9287
10.7764
15.1121
45.0186
55.7768
29.948
15.8589
11.7551
14.5006
43.4694
54.2786
25.8247
15.1261
11.4746
13.1004
41.9474
52.2479
24.6676
14.3948
11.3481
13.9286
40.9224
47.9527
15.2507
11.1578
16.6249
32.152
60.129
46.3062
15.1178
12.2646
15.9226
27.3584
57.8351
44.6991
13.6716
12.0051
15.3306
25.9468
55.682
43.4566
13.5924
11.9528
15.0412
25.9307
54.2448
42.6981
14.867
12.018
11.909
16.7864
50.1897
62.3126
33.6065
17.7821
13.0352
16.5316
48.3364
60.8618
29.1445
17.0477
12.866
14.8372
47.2123
59.0916
27.9776
16.2825
12.7493
15.7628
45.8502
54.0602
17.6084
12.5847
18.9161
35.8601
67.7872
52.4883
17.3462
13.7895
18.1407
31.2751
65.7365
50.7877
15.8559
13.6032
17.3154
29.8966
63.1123
49.3497
16.7585
13.4734
13.3759
18.8799
57.7252
71.3132
38.3835
20.1844
14.5922
18.7212
54.8865
68.7842
33.4692
19.0919
14.2355
17.7705
53.0963
62.1425
19.6993
14.0534
21.2826
40.2528
77.0612
58.4317
19.1143
15.2705
20.4829
35.4482
74.1142
57.0325
17.7591
14.9511
19.4111
33.7274
71.0252
55.4896
18.6358
14.7029
14.611
21.1034
64.9918
80.3437
42.8004
22.4947
15.9618
20.5578
62.1088
77.5027
37.0625
21.0968
15.3305
19.3258
59.6595
69.5846
21.3876
15.1603
23.4481
44.8501
85.9409
65.6551
21.1193
16.5177
22.0482
38.9422
82.1591
62.7784
20.4876
15.9354
15.8003
23.0401
73.9903
92.4293
48.4133
25.1021
17.3617
22.4203
69.8767
86.9824
41.5696
23.3895
16.4889
21.1939
66.2434
77.2165
23.5584
16.3371
25.8358
49.9449
95.2765
72.7196
23.0875
17.8713
24.2088
42.9062
90.4907
69.4097
22.0768
17.1142
16.992
24.6324
81.2248
100.835
52.4016
27.0434
18.5963
23.3203
74.6741
95.2407
45.5695
25.4475
17.6798
23.2243
72.8394
84.9674
25.6072
17.5305
28.1283
54.4801
105.333
79.7738
25.2457
19.2016
26.1954
46.8376
99.3407
75.9107
23.916
18.4002
18.3028
26.6591
88.3636
109.191
57.2729
29.3619
20.088
26.2886
82.9893
103.539
49.0814
27.3353
19.0827
24.9095
78.3391
90.5661
26.5522
18.8383
29.8772
59.7674
114.496
86.6971
28.1236
20.2895
20.0364
30.2597
100.332
123.917
64.0245
32.8712
22.0217
29.1724
93.3183
115.638
54.1943
30.2715
20.6841
27.0282
87.6109
101.25
30.0449
20.606
32.7938
65.2104
124.378
94.5194
31.0539
22.0552
21.6225
31.7103
108.357
136.298
69.4456
34.9452
22.8531
32.4363
101.973
117.533
34.0081
22.4253
37.5311
73.9851
144.866
107.478
32.6797
24.5882
34.1533
61.8087
131.695
98.842
30.1863
22.9177
22.8324
33.4351
113.529
138.921
73.0357
36.4869
24.2557
34.3943
104.703
119.477
34.6446
23.7809
38.3153
76.197
150.479
112.357
35.469
25.0508
24.6568
37.4923
129.034
158.825
81.8636
40.4077
26.1168
37.4179
117.804
133.882
38.8196
25.7003
41.7747
83.5727
162.929
121.38
38.2797
26.8591
26.5076
39.8337
138.573
170.329
86.0559
42.9601
27.4012
38.9511
126.248
142.455
46.0884
27.8515
28.0861
50.258
165.213
199.892
102.179
49.3977
29.757
43.92
145.411
163.389
44.516
28.9805
47.8233
97.1005
196.952
142.951
42.4806
29.198
29.0534
46.6504
158.582
182.561
51.9575
29.1976
52.8588
112.812
224.051
160.904
46.503
30.8734
31.1786
53.2296
177.3
201.962
57.3383
31.4953
56.0263
120.379
236.622
167.422
48.246
32.3616
32.0405
53.5303
188.342
215.587
58.3983
31.8668
57.4165
125.072
259.2
182.908
50.2278
32.5336
31.2521
48.8611
200.238
224.068
68.8837
33.3863
32.2517
57.9696
239.24
295.048
140.81
64.1389
34.4861
55.1981
201.878
219.994
56.5251
33.463
33.6945
68.9464
246.331
265.369
61.8676
31.9291
33.8451
78.844
286.883
301.651
75.4534
31.8716
64.9583
151.548
337.145
209.961
54.6716
32.5607
31.0861
53.9665
222.057
244.334
65.7043
30.8956
30.1035
65.088
259.694
271.959
66.7907
29.6088
29.4603
72.1141
274.806
271.976
75.5527
29.3688
29.3458
78.6248
265.223
252.847
82.4102
29.4667
29.606
85.3193
239.228
225.599
89.1046
29.9989
30.3866
92.8311
212.52
200.283
97.6722
31.227
31.8911
102.346
189.146
179.092
106.903
33.1836
34.1841
111.309
170.058
161.971
115.654
35.8617
37.2154
119.869
154.746
148.356
123.866
39.2405
41.1359
127.192
142.672
137.653
130.305
43.6392
45.8925
132.937
133.201
129.292
135.553
48.7163
51.0846
138.012
125.852
122.852
140.419
54.0276
56.4759
142.613
120.217
117.932
144.711
59.4795
61.9666
146.58
115.937
114.231
148.367
65.0055
67.5278
149.935
112.756
111.509
151.422
70.5971
73.1559
152.67
110.434
109.534
153.83
76.2734
78.8763
154.76
108.762
108.125
155.613
82.0562
84.6198
156.285
107.58
107.138
156.895
87.6875
90.1149
157.33
106.76
106.454
157.707
93.0078
95.2517
157.92
106.192
105.989
158.094
97.937
99.9601
158.122
105.816
105.681
158.094
102.4
104.169
157.998
105.565
105.487
157.869
106.35
107.863
157.594
105.408
105.354
157.392
109.781
111.053
157.003
105.31
105.277
156.706
112.72
113.764
156.234
105.25
105.222
155.848
115.186
116.01
155.313
105.201
105.168
154.861
117.197
117.827
154.287
105.144
105.102
153.791
118.8
119.26
153.2
105.071
105.016
152.675
120.044
120.367
152.082
104.976
104.907
151.536
120.975
121.187
150.95
104.858
104.775
150.393
121.635
121.761
149.818
104.717
104.625
149.259
122.065
122.128
148.703
104.561
104.462
148.153
122.313
122.325
147.62
104.39
104.287
147.087
122.396
122.376
146.573
104.209
104.103
146.065
122.381
122.313
145.568
104.018
103.911
145.088
122.288
122.172
144.612
103.825
103.717
144.162
122.111
121.93
143.707
103.629
103.522
143.279
121.843
121.621
142.845
103.437
103.33
142.437
121.52
121.272
142.025
103.244
103.138
141.632
121.163
120.905
141.245
103.054
102.95
140.868
120.792
120.535
140.506
102.868
102.765
140.144
120.418
120.172
139.81
102.685
102.586
139.463
120.054
119.831
139.155
102.509
102.412
138.828
119.711
119.509
138.548
102.339
102.247
138.24
119.399
119.218
137.987
102.178
102.09
137.702
119.119
118.96
137.475
102.027
101.944
137.214
118.875
118.741
137.012
101.888
101.81
136.775
118.671
118.559
136.598
101.761
101.689
136.386
118.504
118.418
136.232
101.647
101.582
136.043
118.377
118.314
135.911
101.548
101.489
135.745
118.288
118.247
135.635
101.462
101.411
135.488
118.234
118.213
135.398
101.39
101.349
135.269
118.213
118.211
135.196
101.333
101.3
135.085
118.225
118.238
135.028
101.289
101.266
134.932
118.26
118.292
134.89
101.26
101.246
134.81
118.322
118.368
134.778
101.244
101.24
134.714
118.405
118.466
134.691
101.243
101.245
134.642
118.508
118.58
134.626
101.254
101.26
134.592
118.628
118.711
134.583
101.277
101.288
134.561
118.762
118.854
134.559
101.311
101.326
134.551
118.91
119.01
134.555
101.356
101.376
134.556
119.069
119.177
134.567
101.411
101.434
134.573
119.238
119.353
134.593
101.474
101.501
134.604
119.416
119.536
134.633
101.544
101.575
134.648
119.601
119.725
134.685
101.622
101.655
134.703
119.791
119.918
134.746
101.706
101.742
134.767
119.985
120.113
134.816
101.795
101.833
134.84
120.18
120.31
134.894
101.889
101.93
134.92
120.377
120.506
134.978
101.988
102.03
135.006
120.573
120.702
135.068
102.09
102.135
135.097
120.768
120.896
135.162
102.197
102.243
135.193
120.96
121.087
135.26
102.307
102.355
135.292
121.15
121.274
135.361
102.42
102.47
135.394
121.336
121.458
135.465
102.536
102.587
135.498
121.518
121.637
135.57
102.654
102.706
135.604
121.695
121.811
135.677
102.774
102.827
135.711
121.867
121.98
135.785
102.895
102.949
135.819
122.034
122.144
135.893
103.018
103.072
135.928
122.196
122.302
136.003
103.141
103.196
136.037
122.353
122.455
136.112
103.265
103.32
136.147
122.504
122.603
136.221
103.389
103.444
136.256
122.65
122.746
136.33
103.512
103.567
136.364
122.79
122.882
136.438
103.636
103.691
136.472
122.925
123.013
136.544
103.759
103.814
136.578
123.054
123.138
136.65
103.882
103.937
136.683
123.177
123.258
136.754
104.006
104.06
136.787
123.294
123.371
136.857
104.129
104.183
136.89
123.406
123.48
136.959
104.252
104.307
136.991
123.512
123.583
137.059
104.376
104.431
137.09
123.613
123.68
137.157
104.501
104.555
137.188
123.709
123.773
137.254
104.626
104.681
137.284
123.8
123.86
137.349
104.752
104.807
137.379
123.885
123.943
137.444
104.879
104.933
137.474
123.966
124.02
137.538
105.005
105.059
137.567
124.042
124.093
137.631
105.13
105.183
137.66
124.114
124.161
137.723
105.254
105.305
137.753
124.18
124.227
137.815
105.375
105.423
137.843
124.242
124.294
137.91
105.495
105.543
137.939
124.311
124.353
137.998
105.612
105.654
138.027
124.369
124.408
138.096
105.729
105.764
138.114
124.423
124.457
138.174
105.878
105.91
138.19
124.463
124.48
138.251
106.002
106.031
138.271
124.523
124.536
138.127
106.14
106.039
137.849
124.695
124.462
137.431
106.317
107.013
137.236
124.34
124.396
137.615
107.425
116.129
72.1853
43.2573
40.4701
41.4077
45.6261
49.1727
54.8002
56.937
63.8849
67.7107
68.8294
68.9908
68.4569
67.9186
67.6039
67.5001
67.5352
67.6407
67.7736
67.9103
68.0398
68.1573
68.2612
68.3515
68.4289
68.4937
68.547
68.5884
68.619
68.6394
68.6515
68.657
68.6639
68.6766
68.6955
68.7203
68.7499
68.7841
68.8221
68.8645
68.9112
68.9633
69.0217
69.0875
69.1782
69.3258
69.5432
69.807
70.0822
70.3466
70.5918
70.8168
71.0227
71.2112
71.3833
71.5398
71.6816
71.8092
71.9235
72.0255
72.1165
72.198
72.2715
72.3383
72.3997
72.4569
72.5108
72.5622
72.612
72.6608
72.7093
72.7582
72.808
72.8591
72.9122
72.9676
73.0257
73.0869
73.1514
73.2193
73.2909
73.3661
73.4449
73.5271
73.6127
73.7012
73.7924
73.886
73.9815
74.0786
74.1768
74.2757
74.3748
74.4739
74.5726
74.6705
74.7674
74.8628
74.9568
75.049
75.1393
75.2275
75.3135
75.3973
75.4789
75.558
75.6349
75.7094
75.7816
75.8515
75.9191
75.9845
76.0478
76.109
76.1681
76.2253
76.2805
76.3339
76.3855
76.4354
76.4837
76.5304
76.5756
76.6194
76.6617
76.7028
76.7426
76.7812
76.8187
76.8551
76.8904
76.9248
76.9582
76.9907
77.0224
77.0533
77.0833
77.1127
77.1413
77.1692
77.1965
77.2232
77.2492
77.2747
77.2997
77.3241
77.3481
77.3715
77.3946
77.4172
77.4393
77.4611
77.4826
77.5037
77.5245
77.545
77.5652
77.5853
77.6051
77.6247
77.6442
77.6635
77.6828
77.702
77.7211
77.7403
77.7594
77.7786
77.7979
77.8173
77.8368
77.8565
77.8764
77.8965
77.9169
77.9376
77.9587
77.9801
78.0019
78.0242
78.047
78.0703
78.0942
78.1186
78.1437
78.1695
78.1961
78.2234
78.2516
78.2806
78.3105
78.3413
78.3732
78.4061
78.44
78.4749
78.5105
78.5467
78.5828
78.618
78.6509
78.6799
78.702
78.7162
78.7228
78.728
78.7347
78.7333
78.7327
78.729
78.7132
78.6704
78.5782
78.4249
78.2183
77.9781
77.7218
77.4586
77.1908
76.9173
76.6362
76.3454
76.0439
75.731
75.4066
75.071
74.7242
74.3666
73.9984
73.6198
73.231
72.8323
72.4239
72.0062
71.5795
71.1442
70.7007
70.2494
69.7908
69.3253
68.8534
68.3757
67.8925
67.4045
66.9122
66.4161
65.9167
65.4147
64.9106
64.4049
63.8983
63.3914
62.8846
62.3786
61.8739
61.3712
60.871
60.3739
59.8804
59.3912
58.9068
58.4277
57.9545
57.4877
57.0279
56.5756
56.1312
55.6954
55.2685
54.8511
54.4436
54.0464
53.6599
53.2845
52.9206
52.5688
52.2293
51.9027
51.5893
51.2893
51.0021
50.7265
50.4607
50.2035
49.9566
49.7287
49.5382
49.4042
49.33
49.296
49.2783
49.2606
49.2159
49.049
48.1931
46.6614
45.5428
45.1329
43.9766
43.6532
42.515
42.2568
41.1665
40.9671
39.9164
39.7668
38.7554
38.6479
37.6741
37.6021
36.6637
36.6215
35.7155
35.6985
34.8238
34.8271
33.9853
34.0021
33.1878
33.2167
32.4289
32.4692
31.7075
31.7594
31.0235
31.086
30.3741
30.4457
29.7558
29.8351
29.1651
29.251
28.5992
28.6905
28.0555
28.1514
27.5317
27.6314
27.0258
27.1288
26.5363
26.642
26.0616
26.1693
25.5999
25.7091
25.1498
25.2601
24.7104
24.8213
24.2805
24.3919
23.8592
23.9707
23.4457
23.5568
23.0389
23.1494
22.6382
22.7479
22.2429
22.3514
21.8524
21.9597
21.4663
21.5721
21.0843
21.1884
20.7059
20.8082
20.3313
20.4316
19.9606
20.0592
19.5947
19.6917
19.2344
19.3302
18.8814
18.9763
18.5375
18.6323
18.2056
18.3013
17.8894
17.987
17.5922
17.6925
17.3168
17.4208
17.0664
17.1747
16.8415
16.9556
16.6476
16.7702
16.4911
16.6234
16.3699
16.5119
16.2812
16.4323
16.2226
16.3829
16.1926
16.3617
16.1884
16.3656
16.2068
16.3911