/*--------------------------------*- C++ -*----------------------------------*\
| =========                 |                                                 |
| \\      /  F ield         | OpenFOAM: The Open Source CFD Toolbox           |
|  \\    /   O peration     | Version:  v2006                                 |
|   \\  /    A nd           | Website:  www.openfoam.com                      |
|    \\/     M anipulation  |                                                 |
\*---------------------------------------------------------------------------*/
FoamFile
{
    version     2.0;
    format      ascii;
    class       volScalarField;
    location    "0.036";
    object      Ma;
}
// * * * * * * * * * * * * * * * * * * * * * * * * * * * * * * * * * * * * * //

dimensions      [0 0 0 0 0 0 0];


internalField   nonuniform List<scalar> 
16277
(
0.13939
0.139391
0.13939
0.139388
0.139388
0.139381
0.139366
0.13932
0.139217
0.139054
0.138848
0.138622
0.138389
0.138155
0.137919
0.137678
0.13743
0.137172
0.136904
0.136624
0.136333
0.136031
0.135717
0.135393
0.135058
0.134713
0.134357
0.133991
0.133615
0.133229
0.132833
0.132428
0.132014
0.131591
0.13116
0.130721
0.130274
0.129821
0.12936
0.128893
0.12842
0.127942
0.127459
0.126972
0.12648
0.125985
0.125488
0.124987
0.124486
0.123982
0.123479
0.122975
0.122471
0.121969
0.121468
0.120969
0.120474
0.119982
0.119493
0.11901
0.118532
0.11806
0.117594
0.117136
0.116685
0.116242
0.115809
0.115385
0.114971
0.114567
0.114174
0.113793
0.113424
0.113068
0.112725
0.112396
0.11208
0.111775
0.111479
0.111189
0.110902
0.110625
0.110383
0.110212
0.110136
0.110135
0.110164
0.110199
0.110227
0.110225
0.110203
0.110133
0.109955
0.109657
0.109172
0.108615
0.106564
0.105249
0.10864
0.109309
0.109378
0.108491
0.103765
0.102297
0.108316
0.109442
0.109435
0.108046
0.100948
0.0997035
0.107759
0.109394
0.109281
0.107389
0.0985423
0.0974929
0.107053
0.109162
0.10899
0.10667
0.0965002
0.0956303
0.106339
0.108838
0.108631
0.105938
0.0947877
0.0940356
0.1056
0.108445
0.108208
0.105191
0.0932934
0.092623
0.104851
0.108001
0.107746
0.104441
0.0919575
0.0913559
0.104109
0.107531
0.107256
0.103695
0.0907421
0.0901834
0.103364
0.107026
0.106734
0.102945
0.0896063
0.0890836
0.102616
0.106495
0.106196
0.102202
0.0885441
0.0880515
0.101878
0.105952
0.105644
0.101464
0.0875372
0.0870663
0.101142
0.105393
0.105076
0.100727
0.0865714
0.0861174
0.100406
0.104819
0.104494
0.0999893
0.0856377
0.0851967
0.0996682
0.10423
0.103897
0.0992492
0.0847285
0.0842972
0.0989265
0.103626
0.103284
0.098504
0.0838374
0.0834131
0.0981785
0.103006
0.102655
0.0977515
0.0829593
0.0825398
0.0974222
0.102369
0.102008
0.09699
0.08209
0.0816734
0.096656
0.101714
0.101343
0.0962181
0.0812261
0.0808108
0.0958783
0.101041
0.100659
0.0954338
0.0803645
0.0799493
0.0950873
0.100347
0.0999549
0.0946355
0.0795026
0.0790861
0.0942814
0.0996329
0.0992291
0.0938217
0.078638
0.078219
0.0934595
0.0988962
0.0984803
0.0929908
0.077768
0.0773455
0.0926198
0.0981361
0.0977075
0.0921414
0.0768906
0.0764635
0.0917605
0.0973513
0.0969094
0.0912716
0.0760036
0.0755708
0.0908802
0.0965404
0.0960845
0.09038
0.075105
0.0746654
0.089977
0.0957022
0.0952316
0.0894647
0.0741925
0.0737452
0.0890493
0.0948351
0.0943493
0.0885243
0.0732644
0.0728084
0.0880957
0.093938
0.0934363
0.0875571
0.0723187
0.0718533
0.0871147
0.0930094
0.0924913
0.086562
0.071354
0.0708784
0.0861049
0.0920484
0.0915134
0.0855375
0.0703687
0.0698824
0.0850654
0.0910539
0.0905017
0.084483
0.069362
0.0688647
0.0839956
0.0900255
0.0894559
0.083398
0.0683333
0.067825
0.0828952
0.0889629
0.0883763
0.0822829
0.0672831
0.0667644
0.0817651
0.0878668
0.0872637
0.0811386
0.0662125
0.0656844
0.0806068
0.0867385
0.0861199
0.0799674
0.0651237
0.0645876
0.0794229
0.0855803
0.0849478
0.0787723
0.0640197
0.0634778
0.0782171
0.0843956
0.0837516
0.0775577
0.0629053
0.0623603
0.0769947
0.0831894
0.0825368
0.07633
0.0617866
0.0612427
0.0757632
0.0819683
0.0813114
0.0750977
0.0606723
0.0601347
0.0745322
0.0807413
0.0800856
0.0738718
0.0595734
0.0590489
0.0733144
0.07952
0.0788724
0.0726665
0.0585042
0.058001
0.0721254
0.0783191
0.0776882
0.0714992
0.057482
0.0570102
0.0709847
0.0771569
0.0765532
0.0703914
0.056528
0.0560998
0.0699157
0.0760553
0.0754916
0.0693686
0.0556674
0.0552968
0.0689461
0.0750408
0.0745312
0.0684603
0.0549288
0.0546346
0.0681051
0.0741425
0.0737033
0.0676982
0.054346
0.0541582
0.0674273
0.0733909
0.07304
0.0671173
0.0539607
0.0538925
0.0669519
0.0728277
0.0725773
0.066753
0.0537959
0.0538589
0.0667069
0.0724793
0.0723409
0.06663
0.053871
0.0540689
0.0667105
0.0723652
0.0723465
0.0667614
0.0541927
0.0545115
0.0669601
0.0724866
0.0725799
0.0671267
0.0547429
0.0551963
0.0674607
0.0728535
0.0730744
0.0677601
0.055558
0.0561387
0.0682319
0.0734863
0.0738282
0.0686508
0.0566031
0.0572483
0.06921
0.0743305
0.0747558
0.0697065
0.0577667
0.0584495
0.0703287
0.0753276
0.0758127
0.0708769
0.058994
0.0596901
0.0715363
0.076431
0.0769561
0.0721143
0.0602396
0.0609311
0.0727913
0.0776022
0.0781487
0.0733798
0.0614682
0.0621382
0.0740554
0.0788042
0.0793541
0.0746362
0.062646
0.0632801
0.0752939
0.080002
0.0805394
0.0758511
0.0637451
0.064332
0.0764768
0.081165
0.0816763
0.0769973
0.0647442
0.0652755
0.0775801
0.0822677
0.0827416
0.0780537
0.0656277
0.0660982
0.0785849
0.0832893
0.0837172
0.0790022
0.0663891
0.066796
0.0794767
0.0842144
0.0845887
0.0798316
0.0670296
0.0673698
0.0802473
0.0850313
0.0853515
0.0805417
0.0675466
0.0678224
0.0808987
0.0857384
0.0860048
0.081134
0.0679455
0.0681618
0.0814344
0.0863367
0.086551
0.0816139
0.0682365
0.0684
0.081862
0.0868308
0.0869969
0.0819909
0.0684329
0.0685522
0.0821927
0.0872301
0.0873534
0.0822777
0.0685511
0.068635
0.0824399
0.0875463
0.0876328
0.0824879
0.0686071
0.0686636
0.0826174
0.0877915
0.0878473
0.0826352
0.0686155
0.0686517
0.0827382
0.087978
0.0880085
0.0827316
0.0685889
0.0686103
0.0828136
0.0881165
0.0881264
0.0827879
0.068537
0.0685475
0.082853
0.0882156
0.0882089
0.0828123
0.0684668
0.0684705
0.082865
0.0882841
0.0882646
0.0828132
0.0683852
0.0683842
0.0828564
0.0883284
0.0882989
0.0827964
0.0682959
0.0682919
0.0828323
0.0883539
0.0883164
0.0827661
0.068202
0.0681973
0.0827973
0.0883652
0.0883217
0.0827266
0.0681071
0.0681021
0.0827539
0.0883653
0.0883166
0.0826795
0.0680116
0.0680076
0.0827047
0.0883569
0.0883049
0.0826283
0.0679179
0.0679137
0.0826512
0.0883418
0.0882869
0.082573
0.0678243
0.0678228
0.0825964
0.0883231
0.088266
0.0825167
0.0677334
0.0677302
0.0825375
0.0882992
0.0882405
0.0824576
0.0676419
0.067643
0.0824807
0.0882752
0.08822
0.082406
0.0675617
0.067565
0.082431
0.0882564
0.0881975
0.0823526
0.0674802
0.0674924
0.0823865
0.0882532
0.0882129
0.0823251
0.0674109
0.067509
0.0823972
0.0882959
0.0882834
0.0824065
0.0674901
0.0677119
0.0826161
0.0884745
0.0886368
0.0828521
0.0681318
0.0689703
0.0834231
0.0891687
0.0907097
0.0857207
0.0722819
0.0715726
0.0829873
0.0881941
0.0916081
0.0941173
0.0955786
0.0960789
0.0963844
0.0969887
0.0972313
0.0974973
0.097617
0.0977193
0.0977419
0.0977101
0.0976363
0.0974418
0.09724
0.0967341
0.0964461
0.0961242
0.0957318
0.0950534
0.0933202
0.0895835
0.0817832
0.0717834
0.0512142
0.0496113
0.0707478
0.0809566
0.0800796
0.0697913
0.0483672
0.0475629
0.0691557
0.0795404
0.0792974
0.0688979
0.0469574
0.0468568
0.06877
0.0791971
0.0790849
0.0686598
0.0465298
0.0465138
0.0685861
0.0790872
0.0790997
0.0685988
0.0465306
0.0465601
0.0686249
0.0791241
0.0791515
0.06866
0.0466
0.0466453
0.0687031
0.0791873
0.0792205
0.0687466
0.0466937
0.0467454
0.0687951
0.0792606
0.0793
0.0688443
0.0467993
0.0468548
0.0688966
0.0793432
0.0793836
0.0689483
0.0469112
0.04697
0.0690026
0.0794286
0.0794716
0.0690571
0.0470292
0.0470899
0.0691138
0.0795187
0.0795617
0.0691683
0.0471494
0.0472127
0.0692265
0.0796096
0.0796561
0.0692849
0.0472773
0.0473401
0.0693437
0.0797048
0.0797499
0.0694004
0.0474025
0.0474677
0.0694608
0.0797996
0.0798477
0.0695212
0.047535
0.0476014
0.0695831
0.0798989
0.0799459
0.0696422
0.0476671
0.0477348
0.0697045
0.0799972
0.0800467
0.0697665
0.0478041
0.0478727
0.0698301
0.0800995
0.0801483
0.0698912
0.0479408
0.0480105
0.0699553
0.0802013
0.0802525
0.070019
0.0480816
0.0481525
0.0700846
0.0803073
0.0803582
0.0701477
0.0482226
0.0482941
0.0702137
0.0804134
0.080467
0.0702798
0.048367
0.0484403
0.0703474
0.0805241
0.0805771
0.0704124
0.048512
0.0485861
0.070481
0.0806351
0.0806912
0.0705494
0.0486608
0.0487359
0.0706193
0.080751
0.0808076
0.0706873
0.0488091
0.0488839
0.0707579
0.0808686
0.0809281
0.0708288
0.0489591
0.0490347
0.0709012
0.0809917
0.0810516
0.0709711
0.0491072
0.0491813
0.0710443
0.0811169
0.0811816
0.0711181
0.0492552
0.0493283
0.0711929
0.0812503
0.0813157
0.0712666
0.0493996
0.0494727
0.0713439
0.0813864
0.081457
0.0714218
0.049544
0.049616
0.0715025
0.0815332
0.0816079
0.0715832
0.0496861
0.0497578
0.0716677
0.0816888
0.0817709
0.0717542
0.0498283
0.0498979
0.0718429
0.0818587
0.0819451
0.071932
0.0499655
0.0500359
0.0720263
0.082038
0.0821327
0.0721226
0.0501036
0.0501686
0.0722218
0.082234
0.0823358
0.0723225
0.0502305
0.0502932
0.0724285
0.0824448
0.0825568
0.0725382
0.0503546
0.0504135
0.072653
0.0826771
0.0827994
0.0727709
0.0504703
0.0505277
0.0728964
0.0829318
0.083069
0.0730279
0.0505853
0.0506412
0.0731661
0.0832155
0.0833666
0.0733103
0.0506973
0.0507561
0.0734652
0.0835303
0.0837017
0.073631
0.0508202
0.0508887
0.0738079
0.0838852
0.084075
0.0739939
0.0509623
0.0510492
0.0741978
0.0842811
0.0844989
0.0744184
0.0511523
0.0512709
0.0746569
0.0847316
0.0849762
0.0749097
0.0514032
0.0515593
0.0751836
0.0852376
0.0855088
0.075481
0.0517515
0.0519831
0.0758071
0.0858005
0.0861099
0.0761613
0.0522524
0.052573
0.0765542
0.0864498
0.0868085
0.0769758
0.0529452
0.0533867
0.0774357
0.0871853
0.0875827
0.0779467
0.0539216
0.0545532
0.078515
0.0880144
0.088479
0.0791386
0.0552755
0.0561291
0.0798448
0.0889985
0.0896014
0.0806688
0.0571873
0.0585169
0.0816182
0.0902744
0.0909424
0.0826008
0.0598517
0.0611181
0.0835463
0.0915431
0.0920267
0.0843296
0.0623466
0.0634205
0.0847747
0.0923496
0.0926084
0.0854193
0.0644771
0.065454
0.085793
0.0928159
0.0929602
0.0862049
0.0665433
0.0676962
0.0866122
0.0931135
0.0931285
0.0868968
0.0687387
0.0696404
0.0871627
0.0931234
0.0931224
0.0874502
0.0706172
0.0716781
0.0877341
0.0931273
0.0930861
0.08797
0.0727616
0.0733546
0.0881549
0.0928769
0.0922902
0.0877163
0.0732882
0.0583034
0.0809525
0.0891606
0.0915742
0.0839663
0.0620283
0.0620759
0.0843306
0.0917657
0.0916467
0.0845248
0.0630544
0.0643138
0.0845956
0.09144
0.0915139
0.0850764
0.0658255
0.0674943
0.0854378
0.0915118
0.0915664
0.0859512
0.0690799
0.070555
0.0862008
0.0914387
0.0914297
0.0866329
0.072035
0.0734216
0.0869566
0.0913492
0.0912453
0.0872528
0.0746359
0.0750538
0.0870479
0.0907455
0.088262
0.0819714
0.0644947
0.0686242
0.0847583
0.0902562
0.090391
0.085158
0.0695818
0.0711679
0.0857602
0.090416
0.0903734
0.0860757
0.0724202
0.0735665
0.0862833
0.0902472
0.0901815
0.0865779
0.0747594
0.0753622
0.0865842
0.0899153
0.0892283
0.0862708
0.075624
0.0667961
0.0816932
0.0871749
0.0886373
0.0841854
0.0701645
0.0710081
0.0844203
0.0884469
0.0881125
0.0844779
0.0721566
0.0732599
0.0844062
0.0877411
0.0873697
0.0845242
0.0744896
0.0748954
0.0840902
0.0865584
0.0845949
0.0803797
0.0670959
0.0710616
0.0822869
0.0858127
0.0855854
0.0824889
0.0721694
0.0732134
0.0824201
0.0851038
0.0845617
0.0823328
0.0738441
0.0738215
0.0815028
0.083574
0.0818471
0.0785136
0.0672253
0.0703119
0.0798036
0.0824232
0.08163
0.0792925
0.0707414
0.071571
0.0788604
0.0807135
0.0793953
0.0778543
0.0714379
0.0660517
0.0752105
0.0776867
0.0776933
0.0757706
0.0687917
0.0689008
0.0747891
0.0763792
0.0747666
0.0736492
0.0688171
0.0677171
0.0717619
0.0724626
0.0701345
0.0686876
0.0631016
0.0635621
0.0675637
0.0684392
0.0650022
0.064759
0.0615664
0.0568605
0.0607611
0.0618939
0.0587052
0.0581162
0.0559324
0.0517535
0.0526332
0.0525294
0.0452002
0.0449147
0.0437137
0.0348551
0.0347504
0.035179
0.0239804
0.0220381
0.0206161
0.00593427
0.00913394
0.0150058
0.029558
0.0279357
0.0283279
0.0536048
0.0519362
0.0512202
0.0693116
0.070769
0.0721981
0.0833214
0.0831529
0.0822552
0.0866935
0.0866247
0.0854352
0.0890263
0.0917165
0.091758
0.0932166
0.0924386
0.0889878
0.0909268
0.0952361
0.0958733
0.0967899
0.0954791
0.0903789
0.0873109
0.0945823
0.09646
0.0984584
0.0966992
0.0896946
0.0867075
0.0950055
0.0974529
0.0993923
0.0977011
0.0904793
0.0893645
0.0969669
0.0994181
0.0981999
0.0950305
0.0864124
0.0896424
0.0976893
0.0999749
0.0995965
0.0967459
0.0881684
0.0852139
0.0945336
0.0979838
0.0997925
0.0976073
0.0889257
0.0873012
0.0964594
0.0995099
0.0977247
0.0939439
0.0838789
0.087928
0.096977
0.0993542
0.0992424
0.096062
0.0866936
0.0831024
0.0933977
0.0974683
0.0992293
0.0964471
0.0874188
0.0866474
0.0959708
0.0991585
0.0972188
0.0932637
0.0830884
0.0866696
0.0961012
0.0990746
0.0988795
0.095613
0.0859048
0.0827462
0.0929596
0.0969054
0.0988557
0.0959968
0.0865769
0.0856019
0.0953705
0.0987323
0.0967915
0.0927889
0.0823351
0.0865264
0.0958535
0.0986432
0.0986468
0.0953398
0.0854892
0.0837522
0.0941107
0.0978857
0.0954991
0.0911846
0.0791042
0.0839087
0.0945774
0.097748
0.0978284
0.0940157
0.082836
0.0790629
0.0908415
0.0957261
0.0977427
0.0946377
0.0837253
0.0823724
0.093665
0.0975678
0.0953289
0.0909256
0.078458
0.0836356
0.0945101
0.097656
0.0977674
0.0939246
0.0826477
0.078954
0.0907773
0.0956169
0.0976584
0.0945004
0.0833675
0.0822765
0.0935555
0.0976542
0.0956271
0.0906064
0.0788622
0.083691
0.0946837
0.0978773
0.0978595
0.0939492
0.0825567
0.0788135
0.0909616
0.0955439
0.0979128
0.0945392
0.0836849
0.082417
0.0939122
0.0978331
0.0957417
0.0912525
0.0789301
0.0841418
0.0950185
0.0983382
0.0982429
0.094398
0.0828603
0.0786471
0.0913651
0.095783
0.0983422
0.0949454
0.0835246
0.0810496
0.0930799
0.0971654
0.0997025
0.0966686
0.0863294
0.0858619
0.0961898
0.0996808
0.0975858
0.0934347
0.082778
0.0869175
0.0969089
0.0998023
0.0997294
0.0959843
0.0855434
0.082316
0.0934395
0.0979725
0.100526
0.0973986
0.0873184
0.0867158
0.097133
0.100686
0.0985804
0.0943497
0.0835685
0.0877329
0.0979722
0.100875
0.100739
0.0969967
0.0863062
0.0826995
0.0940488
0.0986989
0.101091
0.097953
0.087651
0.0869698
0.0977158
0.101359
0.0992387
0.0951931
0.0834122
0.0877286
0.0986486
0.101785
0.100366
0.0965557
0.0850622
0.0890387
0.0996817
0.102489
0.102458
0.0987485
0.0879049
0.0851347
0.0962967
0.100707
0.103078
0.100194
0.089942
0.0889689
0.0997631
0.103249
0.101168
0.0970997
0.0855087
0.0898155
0.100627
0.103643
0.102179
0.098324
0.0869694
0.0911056
0.101407
0.104373
0.104613
0.101077
0.0907715
0.0881327
0.0987522
0.102933
0.105209
0.102349
0.0923994
0.0913852
0.101832
0.105297
0.103254
0.0992783
0.08789
0.0919234
0.10269
0.105697
0.104154
0.100295
0.088934
0.0931778
0.103427
0.106173
0.106558
0.103043
0.0927861
0.0899791
0.100805
0.104988
0.107205
0.104449
0.0943008
0.0934216
0.103741
0.107448
0.105485
0.100714
0.0899587
0.0934281
0.104718
0.107593
0.106162
0.102129
0.0908075
0.0950488
0.105473
0.108377
0.108591
0.105005
0.0944858
0.0913744
0.102639
0.106727
0.109322
0.106384
0.0956267
0.0933839
0.104548
0.108275
0.1106
0.107922
0.0977724
0.0966305
0.106956
0.11048
0.108329
0.103835
0.0931927
0.096453
0.107402
0.110435
0.10936
0.105361
0.0943102
0.0993847
0.109266
0.111901
0.11211
0.108544
0.098592
0.0953629
0.105705
0.11028
0.112569
0.109748
0.0991421
0.0969224
0.10767
0.111447
0.11362
0.110976
0.100969
0.0997138
0.109937
0.113399
0.111125
0.106989
0.0958122
0.0998361
0.110523
0.113407
0.112667
0.109066
0.0980515
0.102436
0.112613
0.115188
0.115443
0.111949
0.101784
0.0984591
0.108938
0.113541
0.115683
0.112985
0.101681
0.0995783
0.110501
0.114493
0.116751
0.114028
0.103339
0.10068
0.11149
0.115271
0.117185
0.114441
0.104344
0.103965
0.11403
0.117472
0.115817
0.111724
0.101174
0.104987
0.115483
0.118272
0.117276
0.113602
0.102791
0.106799
0.116964
0.119531
0.11955
0.115959
0.105808
0.102429
0.11295
0.117603
0.119711
0.11698
0.105402
0.102795
0.114134
0.118237
0.120391
0.117585
0.106422
0.104722
0.115808
0.11953
0.121997
0.119369
0.109302
0.108467
0.118797
0.122096
0.120209
0.11634
0.105408
0.109056
0.119857
0.122676
0.121402
0.117692
0.10637
0.11032
0.121148
0.123758
0.122579
0.119026
0.108265
0.111694
0.121875
0.124513
0.124309
0.120709
0.110454
0.107285
0.117932
0.122477
0.124918
0.122219
0.111205
0.10927
0.120213
0.124012
0.126395
0.123855
0.113179
0.111224
0.121872
0.125404
0.127569
0.125056
0.115182
0.114315
0.124324
0.127587
0.125702
0.121784
0.111106
0.114398
0.125124
0.127929
0.126518
0.122753
0.111621
0.115
0.125975
0.128723
0.127757
0.124025
0.113133
0.117358
0.127392
0.130012
0.13013
0.126846
0.11657
0.113283
0.124515
0.128245
0.130672
0.127902
0.116932
0.114246
0.126033
0.129545
0.13186
0.129402
0.118214
0.116066
0.127204
0.130743
0.13281
0.130231
0.120022
0.118887
0.129359
0.13263
0.130404
0.126536
0.115145
0.11873
0.12973
0.132742
0.131795
0.128012
0.116405
0.120896
0.131874
0.134505
0.13348
0.129822
0.118974
0.122705
0.133303
0.135813
0.134751
0.131295
0.120741
0.124477
0.134359
0.136804
0.136848
0.13343
0.123679
0.120565
0.130565
0.135069
0.137172
0.134558
0.123194
0.120817
0.131984
0.135933
0.138106
0.13535
0.123974
0.121671
0.132988
0.136873
0.139224
0.136605
0.125868
0.124088
0.13471
0.138324
0.140574
0.138084
0.128193
0.127329
0.13749
0.140664
0.138811
0.135062
0.124069
0.127629
0.138467
0.141255
0.140118
0.136463
0.124946
0.128731
0.139905
0.142517
0.141284
0.137601
0.126513
0.130183
0.140921
0.143454
0.14225
0.138645
0.128038
0.131529
0.141592
0.14423
0.144277
0.140999
0.130701
0.127629
0.138663
0.142484
0.144985
0.142112
0.131282
0.128572
0.140258
0.143923
0.146445
0.143891
0.132627
0.130513
0.141668
0.145329
0.147484
0.144947
0.134108
0.132015
0.142801
0.146393
0.148459
0.14596
0.13595
0.135181
0.145031
0.148558
0.146738
0.142101
0.131879
0.134362
0.146226
0.148805
0.147655
0.143571
0.132075
0.136136
0.147518
0.150177
0.149139
0.145337
0.134229
0.13799
0.148997
0.151588
0.150481
0.146829
0.135911
0.139404
0.15014
0.152708
0.151669
0.148103
0.137495
0.141272
0.151325
0.153812
0.153842
0.150609
0.140227
0.136765
0.148183
0.151958
0.154398
0.151353
0.140503
0.137332
0.149418
0.153059
0.155458
0.152751
0.141102
0.138737
0.15029
0.154202
0.156631
0.153944
0.142776
0.140939
0.151869
0.155616
0.157941
0.15536
0.144584
0.142773
0.153449
0.157032
0.159324
0.156849
0.146912
0.145985
0.156161
0.159432
0.157599
0.153675
0.142633
0.146292
0.157206
0.160037
0.158895
0.15511
0.143739
0.147719
0.158882
0.161504
0.160333
0.156596
0.145483
0.148962
0.159984
0.162606
0.161343
0.157601
0.146744
0.150331
0.160987
0.163598
0.162674
0.159127
0.148564
0.152379
0.162416
0.164878
0.165018
0.161791
0.151474
0.148114
0.159483
0.163231
0.165667
0.162662
0.151626
0.14878
0.160795
0.164527
0.167138
0.164533
0.152802
0.15046
0.162206
0.165979
0.168343
0.165759
0.154342
0.152326
0.163532
0.167212
0.169421
0.166834
0.155838
0.153952
0.164776
0.168404
0.170681
0.168208
0.158082
0.157138
0.167512
0.170844
0.169057
0.165107
0.153814
0.157482
0.168668
0.171583
0.170546
0.166761
0.154988
0.159078
0.170639
0.173255
0.172098
0.168304
0.156724
0.160612
0.171912
0.174518
0.173436
0.16976
0.158682
0.162212
0.173177
0.175773
0.174792
0.171158
0.160334
0.164359
0.174556
0.177038
0.177157
0.173859
0.163274
0.159689
0.171565
0.175343
0.177938
0.174787
0.163721
0.160656
0.172969
0.176727
0.179432
0.176729
0.164843
0.162506
0.174402
0.178297
0.180849
0.178179
0.16644
0.1644
0.175914
0.179741
0.182149
0.179499
0.168094
0.166086
0.177266
0.181059
0.183542
0.180955
0.170029
0.168217
0.17903
0.182656
0.184987
0.182461
0.172387
0.171626
0.181824
0.185319
0.183682
0.179317
0.168632
0.171991
0.18339
0.186145
0.185179
0.181223
0.169826
0.173876
0.185285
0.187879
0.186825
0.183034
0.171817
0.17557
0.186696
0.189307
0.188251
0.184503
0.173639
0.17732
0.188071
0.190661
0.189717
0.186129
0.175439
0.179403
0.189552
0.192038
0.192233
0.188837
0.178359
0.17527
0.186545
0.190572
0.193141
0.190293
0.179006
0.176236
0.188083
0.191962
0.194651
0.191979
0.180293
0.178225
0.189831
0.193651
0.196131
0.193525
0.182027
0.180166
0.19142
0.195191
0.197818
0.195291
0.184233
0.182525
0.193479
0.197057
0.199434
0.197005
0.186755
0.185579
0.19611
0.199659
0.198012
0.193496
0.182605
0.186147
0.197775
0.200603
0.199531
0.195408
0.183767
0.187853
0.199545
0.202271
0.201198
0.197229
0.185746
0.189836
0.201177
0.203855
0.202914
0.199133
0.188014
0.191867
0.202869
0.205485
0.204693
0.201001
0.19004
0.194406
0.204708
0.20724
0.207726
0.204247
0.193612
0.190714
0.202023
0.206227
0.208958
0.206151
0.194781
0.192346
0.204165
0.207962
0.210698
0.207985
0.19627
0.193849
0.205565
0.209517
0.211999
0.209264
0.197703
0.195598
0.207041
0.210944
0.213644
0.21101
0.199809
0.197869
0.209096
0.212824
0.215332
0.212761
0.202187
0.201448
0.212325
0.21588
0.214321
0.210043
0.198596
0.202404
0.214101
0.217037
0.216123
0.212084
0.200175
0.204771
0.216473
0.219183
0.218458
0.214562
0.202902
0.207897
0.219007
0.22148
0.220734
0.217188
0.206107
0.209678
0.220493
0.223
0.223019
0.219487
0.208106
0.204628
0.217068
0.221187
0.22405
0.220933
0.20893
0.206153
0.218887
0.222935
0.225917
0.223122
0.210778
0.208432
0.220846
0.224903
0.227767
0.224987
0.213108
0.210957
0.222912
0.2269
0.229667
0.226974
0.215836
0.215195
0.22658
0.230453
0.229023
0.224045
0.212586
0.216571
0.229087
0.231998
0.231399
0.227089
0.214724
0.220238
0.232303
0.23485
0.233848
0.229912
0.21793
0.221531
0.233552
0.236332
0.235181
0.231174
0.219102
0.223645
0.235068
0.23783
0.238049
0.234236
0.222151
0.218737
0.231986
0.236313
0.239603
0.236286
0.22399
0.22098
0.234282
0.238485
0.241689
0.238759
0.226063
0.223901
0.236642
0.240869
0.244183
0.241335
0.229008
0.226902
0.239415
0.243537
0.246617
0.243875
0.23218
0.231714
0.24393
0.247741
0.246587
0.242287
0.229455
0.234407
0.247033
0.24996
0.248472
0.244227
0.230912
0.235338
0.248242
0.251264
0.250046
0.245751
0.232804
0.23745
0.250119
0.253075
0.252115
0.247846
0.235118
0.240081
0.252108
0.255041
0.255633
0.251571
0.239048
0.235981
0.249167
0.25396
0.25719
0.253957
0.241092
0.238554
0.252041
0.256405
0.260095
0.257215
0.244383
0.242242
0.255449
0.259659
0.263143
0.260392
0.248222
0.248389
0.261041
0.264694
0.263125
0.258917
0.245585
0.249788
0.262782
0.266087
0.264488
0.259989
0.246174
0.251086
0.264488
0.267699
0.266568
0.26201
0.248516
0.25375
0.266851
0.269907
0.269151
0.264748
0.251589
0.25703
0.269424
0.272442
0.273368
0.269088
0.256243
0.253573
0.266586
0.271853
0.275243
0.271921
0.258685
0.256424
0.269949
0.274634
0.278752
0.275876
0.26272
0.26111
0.274445
0.27877
0.282605
0.280281
0.268807
0.268589
0.280372
0.283839
0.281751
0.276984
0.264151
0.267581
0.28111
0.284463
0.283166
0.278418
0.264419
0.269921
0.283568
0.28675
0.285994
0.281417
0.267493
0.273355
0.286379
0.289447
0.29045
0.286005
0.272408
0.26953
0.283431
0.288927
0.292507
0.289033
0.275339
0.272803
0.287071
0.291934
0.296161
0.293072
0.279744
0.279644
0.293754
0.298298
0.297625
0.292242
0.277916
0.285281
0.299051
0.30199
0.300741
0.296177
0.281967
0.285967
0.30039
0.303801
0.302269
0.297279
0.282428
0.28812
0.302122
0.305552
0.306255
0.301394
0.28683
0.283523
0.298753
0.304559
0.308521
0.304733
0.289773
0.287044
0.302723
0.307872
0.312326
0.30903
0.294589
0.294092
0.309345
0.314196
0.312893
0.306951
0.291235
0.298484
0.313685
0.317366
0.317709
0.312698
0.297054
0.306659
0.320371
0.323025
0.323951
0.31967
0.305111
0.299561
0.315325
0.321209
0.324445
0.320431
0.304493
0.300802
0.317394
0.323038
0.327227
0.323525
0.308168
0.307141
0.323343
0.328638
0.32704
0.320735
0.303788
0.311182
0.327571
0.331717
0.331169
0.325529
0.308308
0.317213
0.332844
0.336373
0.339012
0.333727
0.317084
0.31496
0.331959
0.338407
0.344201
0.341173
0.326498
0.324075
0.33954
0.343992
0.347754
0.344241
0.32884
0.325647
0.342313
0.34757
0.345059
0.338221
0.321066
0.327815
0.345064
0.349441
0.348413
0.342305
0.324624
0.33298
0.349416
0.353285
0.355357
0.349701
0.332464
0.329396
0.347348
0.354112
0.359421
0.355301
0.338382
0.336566
0.354409
0.360088
0.366637
0.3638
0.349054
0.352165
0.367274
0.371053
0.369724
0.364477
0.348817
0.352363
0.368814
0.372951
0.372485
0.366661
0.348671
0.343944
0.362565
0.370027
0.375191
0.370669
0.352157
0.349214
0.368151
0.374558
0.380255
0.376299
0.358904
0.359175
0.377418
0.38325
0.382687
0.375675
0.356738
0.367248
0.384518
0.388537
0.393193
0.387829
0.369325
0.369438
0.387409
0.393901
0.399712
0.395905
0.377922
0.372934
0.393105
0.399335
0.395905
0.387669
0.366692
0.375208
0.395611
0.400853
0.399592
0.392446
0.371472
0.382467
0.401283
0.405802
0.409082
0.402675
0.382918
0.381093
0.401267
0.408912
0.415647
0.411503
0.393694
0.397277
0.41622
0.421457
0.422816
0.416655
0.398366
0.407035
0.425254
0.42892
0.428218
0.42208
0.401364
0.394494
0.416577
0.424837
0.42993
0.424549
0.404289
0.40268
0.424536
0.431603
0.430761
0.42214
0.399648
0.413626
0.433723
0.438633
0.444321
0.437667
0.415908
0.418322
0.439882
0.446997
0.45632
0.453569
0.436046
0.432584
0.452984
0.457959
0.45673
0.44902
0.425286
0.416053
0.442957
0.452734
0.458745
0.452535
0.428568
0.42707
0.453347
0.46139
0.461758
0.451649
0.425324
0.446072
0.467675
0.4722
0.482413
0.477973
0.455684
0.459089
0.481999
0.487786
0.483684
0.474428
0.44762
0.455405
0.480863
0.487657
0.486748
0.478465
0.449432
0.446415
0.477401
0.487751
0.487478
0.476354
0.442809
0.472012
0.495347
0.500002
0.511316
0.507007
0.481964
0.481375
0.508234
0.515261
0.50915
0.498229
0.465352
0.476615
0.505419
0.513229
0.513687
0.505282
0.472428
0.472227
0.507908
0.518098
0.528847
0.519322
0.48263
0.483744
0.516291
0.529397
0.535938
0.527185
0.493459
0.481835
0.520728
0.532491
0.532121
0.519172
0.475714
0.478626
0.524968
0.536974
0.542225
0.528725
0.48016
0.469143
0.523328
0.540914
0.529653
0.507089
0.451948
0.482905
0.523607
0.535964
0.533442
0.521608
0.480805
0.47012
0.516651
0.530704
0.5244
0.507816
0.451962
0.43415
0.49567
0.514287
0.502218
0.481206
0.414148
0.391194
0.465816
0.490089
0.478921
0.451746
0.371239
0.355198
0.440052
0.46962
0.461814
0.429983
0.341541
0.329424
0.420824
0.454859
0.448453
0.412275
0.318493
0.308655
0.404256
0.442482
0.436875
0.396725
0.29969
0.291495
0.38963
0.43156
0.426494
0.382931
0.284011
0.277175
0.376588
0.421636
0.416984
0.370598
0.270956
0.2653
0.364957
0.412531
0.408266
0.359646
0.26015
0.25548
0.354647
0.404164
0.400212
0.349943
0.251257
0.247449
0.345523
0.396395
0.392709
0.34137
0.244013
0.240914
0.337476
0.38915
0.385715
0.33382
0.238122
0.235618
0.330393
0.382396
0.37919
0.327178
0.233381
0.231395
0.324168
0.376092
0.373098
0.321348
0.229635
0.228079
0.31871
0.370201
0.367402
0.31624
0.226703
0.225493
0.313931
0.364698
0.36209
0.311772
0.224431
0.223507
0.309752
0.359576
0.357153
0.307854
0.222706
0.222016
0.306077
0.354821
0.352579
0.304407
0.221424
0.22092
0.302844
0.350427
0.348358
0.301377
0.220495
0.220139
0.300002
0.346379
0.344482
0.298711
0.219842
0.219598
0.297501
0.342674
0.340945
0.296363
0.2194
0.219242
0.295294
0.339299
0.33773
0.29429
0.219117
0.219026
0.293347
0.33624
0.33482
0.292455
0.218969
0.218932
0.291617
0.333472
0.33219
0.290824
0.218923
0.218926
0.290083
0.330977
0.329825
0.289381
0.218946
0.218967
0.288725
0.328734
0.327699
0.288102
0.218999
0.21903
0.287522
0.326722
0.325794
0.286972
0.219068
0.219099
0.286457
0.324918
0.324085
0.285969
0.219134
0.219164
0.285515
0.323303
0.322558
0.285083
0.219198
0.219222
0.284681
0.321857
0.321189
0.284298
0.219251
0.219275
0.283946
0.320565
0.319971
0.283613
0.219304
0.219322
0.283302
0.319411
0.318876
0.283006
0.219342
0.219356
0.282733
0.318375
0.317897
0.282475
0.219373
0.219379
0.282235
0.317447
0.317016
0.282005
0.219388
0.219392
0.281794
0.316613
0.316228
0.281594
0.219399
0.219398
0.281404
0.315864
0.315514
0.281221
0.2194
0.219398
0.281051
0.315186
0.314871
0.280889
0.219398
0.21939
0.280735
0.314573
0.314285
0.280587
0.219385
0.219376
0.280449
0.314016
0.313756
0.280317
0.21937
0.219357
0.280191
0.31351
0.313271
0.280069
0.219346
0.219333
0.279957
0.313048
0.312832
0.279849
0.219323
0.219308
0.279746
0.312627
0.312428
0.279646
0.219294
0.219279
0.279555
0.312242
0.312062
0.279468
0.219267
0.219251
0.279384
0.311891
0.311728
0.279304
0.219236
0.21922
0.27923
0.311572
0.31143
0.279162
0.219209
0.219196
0.279098
0.311289
0.31116
0.279038
0.219184
0.219171
0.27898
0.311029
0.310916
0.278927
0.219161
0.219151
0.278879
0.310798
0.310697
0.278834
0.219144
0.219135
0.278793
0.310589
0.3105
0.278755
0.219132
0.219127
0.278721
0.310403
0.310324
0.27869
0.219127
0.219124
0.278662
0.310235
0.310167
0.278638
0.219128
0.219131
0.278615
0.310086
0.310027
0.278598
0.219139
0.219146
0.278581
0.309954
0.309905
0.27857
0.219159
0.219172
0.27856
0.30984
0.3098
0.278556
0.21919
0.219208
0.278552
0.309742
0.309711
0.278554
0.219231
0.219255
0.278557
0.30966
0.309637
0.278565
0.219283
0.219311
0.278572
0.309593
0.309578
0.278586
0.219344
0.219377
0.2786
0.309541
0.309533
0.278619
0.219415
0.219452
0.278636
0.309501
0.309502
0.278661
0.219494
0.219537
0.278684
0.309476
0.309484
0.278714
0.219583
0.219629
0.278741
0.309462
0.309478
0.278775
0.219679
0.219729
0.278807
0.309462
0.309483
0.278845
0.219782
0.219835
0.278881
0.309471
0.309498
0.278923
0.219891
0.219948
0.278963
0.309493
0.309524
0.279009
0.220007
0.220066
0.279052
0.309523
0.30956
0.279101
0.220128
0.22019
0.279149
0.309564
0.309605
0.279201
0.220254
0.220317
0.279251
0.309612
0.309658
0.279306
0.220383
0.220449
0.279359
0.30967
0.309719
0.279416
0.220517
0.220585
0.279472
0.309734
0.309789
0.279533
0.220655
0.220725
0.279592
0.309808
0.309866
0.279655
0.220796
0.220869
0.279716
0.309888
0.30995
0.279782
0.220942
0.221016
0.279847
0.309976
0.310042
0.279915
0.221091
0.221167
0.279981
0.31007
0.310139
0.280052
0.221243
0.22132
0.280121
0.310171
0.310243
0.280193
0.221397
0.221475
0.280264
0.310276
0.310352
0.280338
0.221554
0.221633
0.280411
0.310388
0.310466
0.280487
0.221712
0.221792
0.280561
0.310504
0.310585
0.280638
0.221871
0.221952
0.280714
0.310625
0.310707
0.280792
0.222031
0.222112
0.280869
0.310749
0.310834
0.280949
0.222192
0.222272
0.281026
0.310877
0.310963
0.281107
0.222352