/*--------------------------------*- C++ -*----------------------------------*\
| =========                 |                                                 |
| \\      /  F ield         | OpenFOAM: The Open Source CFD Toolbox           |
|  \\    /   O peration     | Version:  v2006                                 |
|   \\  /    A nd           | Website:  www.openfoam.com                      |
|    \\/     M anipulation  |                                                 |
\*---------------------------------------------------------------------------*/
FoamFile
{
    version     2.0;
    format      ascii;
    class       volScalarField;
    location    "0.036";
    object      nut;
}
// * * * * * * * * * * * * * * * * * * * * * * * * * * * * * * * * * * * * * //

dimensions      [0 2 -1 0 0 0 0];


internalField   nonuniform List<scalar> 
16277
(
10.6761
7.32665
54.2544
5.73083
8.7351
7.37615
3.4583
1.4712
0.805772
0.547881
0.432499
0.373656
0.338285
0.31249
0.290715
0.271101
0.25325
0.237195
0.222953
0.210422
0.19941
0.189688
0.181035
0.173265
0.166229
0.159816
0.153938
0.148528
0.143535
0.138914
0.134629
0.130649
0.126946
0.123499
0.120286
0.117291
0.114499
0.111896
0.10947
0.107211
0.10511
0.103158
0.101349
0.0996761
0.0981338
0.0967175
0.0954229
0.094247
0.0931871
0.0922412
0.0914079
0.0906865
0.0900772
0.08958
0.0891948
0.0889256
0.0887745
0.0887453
0.0888425
0.0890685
0.0894306
0.0899365
0.0905953
0.0914179
0.0924165
0.0936059
0.0950039
0.096632
0.0985176
0.100696
0.103213
0.10613
0.109527
0.113494
0.118124
0.123478
0.12956
0.136323
0.14383
0.152739
0.165355
0.188212
0.238103
0.358757
0.667939
1.40405
2.47955
2.65276
1.57268
1.03928
0.511706
0.233338
0.126881
0.0598612
0.0141827
0.00255166
8.45485e-05
7.33826e-05
0.00119933
0.00552352
0.00304361
0.000777172
6.42767e-05
5.75556e-05
0.000708595
0.00255949
0.00204232
0.000609081
5.31869e-05
4.97608e-05
0.000590293
0.00193684
0.0016759
0.00053172
4.68426e-05
4.48755e-05
0.000522587
0.00163248
0.00148587
0.000487005
4.29361e-05
4.18878e-05
0.000489949
0.00147077
0.00137583
0.000463901
4.06067e-05
3.99181e-05
0.000468072
0.00136742
0.00129535
0.000447098
3.89728e-05
3.84968e-05
0.000451235
0.00129159
0.00123202
0.000433444
3.77582e-05
3.74128e-05
0.000437462
0.00123086
0.00117925
0.000421805
3.6813e-05
3.65533e-05
0.000425808
0.00117975
0.00113382
0.000411586
3.6046e-05
3.58413e-05
0.000415604
0.00113542
0.00109375
0.000402361
3.53957e-05
3.52288e-05
0.000406331
0.00109607
0.00105776
0.000393853
3.48282e-05
3.4688e-05
0.000397774
0.00106061
0.00102508
0.000385936
3.43202e-05
3.41987e-05
0.000389816
0.00102831
0.000995135
0.000378536
3.38557e-05
3.37479e-05
0.00038238
0.000998699
0.000967488
0.000371588
3.34245e-05
3.33271e-05
0.000375395
0.000971351
0.000941877
0.000365033
3.30193e-05
3.293e-05
0.000368802
0.000945999
0.000918074
0.000358827
3.26349e-05
3.2552e-05
0.000362557
0.000922422
0.00089591
0.000352936
3.22674e-05
3.21896e-05
0.000356637
0.000900458
0.000875232
0.000347348
3.19141e-05
3.18406e-05
0.000351021
0.000879942
0.000855874
0.000342038
3.15728e-05
3.15032e-05
0.000345681
0.000860708
0.000837675
0.000336976
3.1242e-05
3.11757e-05
0.000340585
0.000842597
0.000820494
0.000332133
3.092e-05
3.08564e-05
0.000335707
0.000825475
0.000804207
0.000327482
3.06052e-05
3.05439e-05
0.000331018
0.000809224
0.000788709
0.000322998
3.02962e-05
3.02368e-05
0.000326492
0.000793738
0.000773901
0.000318654
2.99916e-05
2.99336e-05
0.000322103
0.000778926
0.000759705
0.000314427
2.96901e-05
2.96331e-05
0.000317828
0.00076471
0.000746049
0.000310298
2.93904e-05
2.93339e-05
0.000313648
0.00075102
0.00073287
0.000306249
2.90914e-05
2.9035e-05
0.000309547
0.000737797
0.000720113
0.000302265
2.87918e-05
2.87353e-05
0.000305511
0.000724988
0.000707734
0.000298333
2.84907e-05
2.84338e-05
0.000301526
0.000712554
0.000695702
0.000294446
2.81872e-05
2.81296e-05
0.000297587
0.000700464
0.000683988
0.000290596
2.78803e-05
2.78219e-05
0.000293686
0.000688695
0.000672575
0.000286779
2.75693e-05
2.75099e-05
0.00028983
0.00067723
0.000661451
0.000282998
2.72535e-05
2.71932e-05
0.000286042
0.000666064
0.000650617
0.000279266
2.69326e-05
2.68714e-05
0.000282294
0.000655194
0.000640068
0.000275569
2.66062e-05
2.65441e-05
0.000278594
0.000644618
0.000629808
0.00027192
2.62741e-05
2.62113e-05
0.000274954
0.000634347
0.000619855
0.000268336
2.59363e-05
2.58729e-05
0.000271394
0.000624405
0.000610244
0.000264836
2.55931e-05
2.55296e-05
0.000267938
0.000614834
0.000601021
0.00026145
2.52452e-05
2.51822e-05
0.000264621
0.000605771
0.000592284
0.000258218
2.48937e-05
2.4832e-05
0.000261489
0.000597298
0.000584112
0.000255189
2.45405e-05
2.44812e-05
0.000258591
0.000589424
0.000576575
0.000252417
2.4188e-05
2.41325e-05
0.000255989
0.000582285
0.00056982
0.000249967
2.38392e-05
2.37895e-05
0.000253758
0.000576042
0.000564022
0.000247923
2.34982e-05
2.3457e-05
0.000251981
0.000570878
0.000559373
0.000246387
2.31698e-05
2.31418e-05
0.000250702
0.00056699
0.000556099
0.000245432
2.28641e-05
2.28455e-05
0.00024982
0.000564522
0.000554267
0.000244831
2.25932e-05
2.25775e-05
0.000249356
0.000563758
0.000554154
0.00024472
2.23565e-05
2.23431e-05
0.00024938
0.000564708
0.000555736
0.000245135
2.21734e-05
2.21508e-05
0.000249877
0.000567266
0.000558947
0.000246063
2.2042e-05
2.20126e-05
0.000250778
0.00057121
0.000563483
0.000247268
2.19162e-05
2.19292e-05
0.000251908
0.000576438
0.000569282
0.000248546
2.18344e-05
2.1884e-05
0.000253025
0.000582746
0.000576058
0.000249848
2.18e-05
2.18935e-05
0.000253962
0.000589394
0.000582957
0.000250973
2.18241e-05
2.19481e-05
0.000254734
0.000595766
0.000589455
0.000251789
2.18931e-05
2.20409e-05
0.000255473
0.000601574
0.000595383
0.000252439
2.20006e-05
2.21694e-05
0.00025606
0.000606687
0.000600639
0.00025304
2.21433e-05
2.2329e-05
0.000256593
0.000611054
0.000605119
0.000253369
2.23149e-05
2.25105e-05
0.000256988
0.000614746
0.000608697
0.000253581
2.25074e-05
2.27079e-05
0.000257253
0.000617617
0.000611197
0.000253689
2.27142e-05
2.29144e-05
0.000257388
0.000620041
0.000612933
0.000253727
2.29283e-05
2.31231e-05
0.000257441
0.000621512
0.000613708
0.000253569
2.31432e-05
2.33286e-05
0.000257414
0.000621976
0.000613033
0.000253145
2.33529e-05
2.35252e-05
0.000257008
0.000621189
0.000611584
0.000252589
2.35508e-05
2.37061e-05
0.000256461
0.000619574
0.000609525
0.000251969
2.37311e-05
2.38675e-05
0.000255833
0.000617258
0.000606883
0.000251329
2.38905e-05
2.4007e-05
0.000255146
0.000614283
0.000603723
0.000250691
2.4027e-05
2.41236e-05
0.000254438
0.000610752
0.000600145
0.000250072
2.41399e-05
2.42179e-05
0.000253726
0.000606786
0.000596221
0.000249474
2.42302e-05
2.42913e-05
0.000253013
0.000602448
0.000592024
0.000248887
2.42995e-05
2.43426e-05
0.000252294
0.000597862
0.000587575
0.000248294
2.4349e-05
2.43781e-05
0.000251561
0.000593157
0.000583028
0.000247685
2.43828e-05
2.44004e-05
0.000250811
0.000588386
0.000578442
0.000247055
2.44032e-05
2.44136e-05
0.000250052
0.000583656
0.000573826
0.000246363
2.44112e-05
2.44175e-05
0.000249268
0.00057894
0.000569187
0.000245589
2.44046e-05
2.44098e-05
0.000248459
0.000574214
0.000564557
0.000244804
2.43906e-05
2.43945e-05
0.000247643
0.0005695
0.00055994
0.000244005
2.437e-05
2.43729e-05
0.000246807
0.000564802
0.000555333
0.000243176
2.4344e-05
2.43457e-05
0.000245934
0.000560113
0.000550688
0.000242309
2.43132e-05
2.43142e-05
0.000245022
0.000555413
0.000546013
0.0002414
2.42787e-05
2.42786e-05
0.000244074
0.000550717
0.000541377
0.000240458
2.42403e-05
2.42398e-05
0.000243099
0.000546051
0.00053676
0.000239473
2.41991e-05
2.41977e-05
0.000242081
0.000541372
0.000532113
0.000238436
2.41438e-05
2.41626e-05
0.000241068
0.000536766
0.000527217
0.000237411
2.40883e-05
2.41149e-05
0.000239818
0.000532448
0.000523118
0.000235721
2.39967e-05
2.41442e-05
0.000239966
0.000531049
0.000524604
0.000239644
2.40817e-05
2.44759e-05
0.000240058
0.000530411
0.000555506
0.000252427
2.46574e-05
2.6266e-05
0.000236718
0.000540053
0.000824752
0.000344081
2.96162e-05
3.197e-05
0.000178413
0.000409592
0.00101046
0.00231558
0.00432866
0.00617104
0.00743168
0.00976822
0.0112599
0.0125984
0.0133519
0.0137124
0.0136112
0.0130057
0.0121437
0.010761
0.00940548
0.00735009
0.0064223
0.00467336
0.0034966
0.00237514
0.00134999
0.000619857
0.000225909
9.37559e-05
1.81507e-05
1.18301e-05
8.69617e-05
0.000204915
0.000193502
8.28508e-05
1.13729e-05
1.09237e-05
7.98837e-05
0.000183337
0.000184024
7.86209e-05
1.08076e-05
1.07383e-05
7.80997e-05
0.000181075
0.000181154
7.73232e-05
1.06305e-05
1.06224e-05
7.73155e-05
0.000181009
0.000181509
7.7361e-05
1.06384e-05
1.06385e-05
7.7469e-05
0.00018189
0.000182174
7.76015e-05
1.0656e-05
1.06645e-05
7.77202e-05
0.000182728
0.000182988
7.78471e-05
1.0674e-05
1.06916e-05
7.79926e-05
0.000183564
0.000183874
7.81224e-05
1.06855e-05
1.07038e-05
7.82911e-05
0.000184463
0.000184784
7.84012e-05
1.07127e-05
1.07318e-05
7.85802e-05
0.000185411
0.00018571
7.86677e-05
1.07328e-05
1.07375e-05
7.89191e-05
0.000186375
0.000186679
7.89762e-05
1.07611e-05
1.07659e-05
7.92131e-05
0.00018735
0.000187664
7.93085e-05
1.07756e-05
1.07796e-05
7.95461e-05
0.000188364
0.000188684
7.96304e-05
1.0805e-05
1.08093e-05
7.98626e-05
0.000189391
0.000189722
7.99767e-05
1.08203e-05
1.08244e-05
8.022e-05
0.000190458
0.000190797
8.0317e-05
1.08505e-05
1.08552e-05
8.05622e-05
0.00019154
0.000191888
8.06852e-05
1.08666e-05
1.0871e-05
8.09389e-05
0.000192654
0.000193006
8.10438e-05
1.08976e-05
1.09027e-05
8.12997e-05
0.000193774
0.000194133
8.14279e-05
1.09144e-05
1.09193e-05
8.16933e-05
0.000194926
0.000195291
8.18455e-05
1.09391e-05
1.09598e-05
8.20539e-05
0.00019609
0.000196465
8.21978e-05
1.09636e-05
1.097e-05
8.2498e-05
0.000197284
0.000197663
8.26459e-05
1.09897e-05
1.10113e-05
8.28754e-05
0.000198487
0.000198873
8.30205e-05
1.1015e-05
1.10224e-05
8.33419e-05
0.000199717
0.000200107
8.3492e-05
1.10418e-05
1.10642e-05
8.37362e-05
0.000200949
0.000201341
8.38854e-05
1.10681e-05
1.10755e-05
8.42178e-05
0.000202182
0.000202567
8.43641e-05
1.10948e-05
1.11171e-05
8.46105e-05
0.000203387
0.000203764
8.47404e-05
1.11197e-05
1.11264e-05
8.50605e-05
0.000204599
0.000204974
8.51996e-05
1.11451e-05
1.11671e-05
8.54474e-05
0.000205783
0.000206144
8.55677e-05
1.11694e-05
1.11761e-05
8.58871e-05
0.000206953
0.000207306
8.60083e-05
1.11939e-05
1.12158e-05
8.62437e-05
0.000208089
0.000208402
8.63374e-05
1.12172e-05
1.12228e-05
8.66251e-05
0.000209177
0.000209505
8.67127e-05
1.12394e-05
1.126e-05
8.6921e-05
0.000210227
0.000210486
8.69836e-05
1.126e-05
1.12626e-05
8.72098e-05
0.00021112
0.000211321
8.71757e-05
1.12833e-05
1.12828e-05
8.73343e-05
0.000211874
0.000212051
8.73071e-05
1.12873e-05
1.12834e-05
8.73882e-05
0.000212497
0.000212594
8.7274e-05
1.13007e-05
1.12934e-05
8.72635e-05
0.000212877
0.000212901
8.70887e-05
1.12922e-05
1.12813e-05
8.69892e-05
0.000213031
0.000212977
8.67261e-05
1.12848e-05
1.12868e-05
8.64459e-05
0.000213001
0.000212761
8.60834e-05
1.12707e-05
1.12534e-05
8.57617e-05
0.00021269
0.000212234
8.52831e-05
1.1251e-05
1.1248e-05
8.47843e-05
0.000212144
0.000211462
8.41613e-05
1.12267e-05
1.12069e-05
8.36358e-05
0.000211243
0.000210337
8.2784e-05
1.12073e-05
1.11879e-05
8.20906e-05
0.000210091
0.0002092
8.12553e-05
1.1178e-05
1.11697e-05
8.05885e-05
0.000209049
0.00020791
7.96707e-05
1.1176e-05
1.11884e-05
7.88015e-05
0.000207614
0.000206394
7.77803e-05
1.11894e-05
1.12124e-05
7.70165e-05
0.000206449
0.000205841
7.62239e-05
1.12458e-05
1.13032e-05
7.56959e-05
0.000206447
0.00020621
7.50074e-05
1.13712e-05
1.14623e-05
7.45295e-05
0.000207056
0.000207881
7.35594e-05
1.15621e-05
1.16674e-05
7.30876e-05
0.000210172
0.00021347
7.39899e-05
1.1791e-05
1.19091e-05
7.42806e-05
0.000216193
0.000217843
7.3897e-05
1.19426e-05
1.20308e-05
7.25694e-05
0.000221169
0.00022489
7.64936e-05
1.22045e-05
1.23244e-05
7.42819e-05
0.00022816
0.000231111
7.61587e-05
1.25275e-05
1.26745e-05
7.71644e-05
0.00023682
0.000238605
7.88877e-05
1.28835e-05
1.3181e-05
8.31631e-05
0.000246408
0.000247668
8.53875e-05
1.34792e-05
1.37406e-05
8.88282e-05
0.000253424
0.000254662
9.16833e-05
1.42424e-05
1.53007e-05
0.000106333
0.000266268
0.000265057
0.000112867
1.15093e-05
8.9436e-06
2.79027e-05
7.42239e-05
0.000207514
6.41715e-05
1.03723e-05
1.09068e-05
5.7676e-05
0.000190618
0.000200662
5.99151e-05
1.1177e-05
1.13518e-05
5.65863e-05
0.000191713
0.000206486
6.10104e-05
1.16836e-05
1.20143e-05
6.01554e-05
0.000203809
0.000224552
6.87349e-05
1.2419e-05
1.28606e-05
6.83573e-05
0.000220243
0.000241067
7.96531e-05
1.33896e-05
1.41144e-05
8.17734e-05
0.000242717
0.000270695
9.8761e-05
1.55867e-05
1.19654e-05
0.000110788
0.000276835
7.43715e-05
2.64943e-05
9.70594e-06
1.12989e-05
6.9949e-05
0.000232708
0.000227368
6.49851e-05
1.23219e-05
1.30875e-05
8.48546e-05
0.000280542
0.000286086
8.5666e-05
1.36092e-05
1.43973e-05
9.99609e-05
0.000319029
0.000328217
0.000106924
1.5387e-05
1.72591e-05
0.000127949
0.000358906
0.000348902
0.000137494
1.33486e-05
1.00495e-05
3.11206e-05
9.25243e-05
0.000285029
8.43647e-05
1.20911e-05
1.30746e-05
7.8456e-05
0.000279384
0.00031993
9.6467e-05
1.39585e-05
1.4902e-05
9.63915e-05
0.000315221
0.000358055
0.000123022
1.71858e-05
1.38608e-05
0.000145489
0.000361627
9.83733e-05
3.22645e-05
1.03874e-05
1.26378e-05
8.87089e-05
0.000323627
0.000333411
9.33631e-05
1.43173e-05
1.66149e-05
0.000132348
0.000429519
0.000449329
0.00015515
1.9378e-05
1.59965e-05
0.000182398
0.00045357
0.000126639
3.80223e-05
1.09604e-05
1.37479e-05
0.000118411
0.000401158
0.000398003
0.000114735
1.61664e-05
2.02785e-05
0.000171526
0.00050439
0.000513674
0.000203355
1.69647e-05
1.15183e-05
4.33179e-05
0.000157013
0.000517583
0.000152495
1.60266e-05
2.02938e-05
0.000160924
0.000556291
0.000771461
0.000271441
2.77134e-05
2.31069e-05
0.000289581
0.000741627
0.000262091
6.88685e-05
1.50909e-05
2.68773e-05
0.000280556
0.000808204
0.000807775
0.000299226
2.50209e-05
1.69015e-05
7.62206e-05
0.000315472
0.00111847
0.000371315
3.733e-05
3.68015e-05
0.000429055
0.0012156
0.000553325
0.000152832
2.33825e-05
3.7211e-05
0.000497373
0.00144976
0.000957641
0.000317504
2.47785e-05
4.59944e-05
0.00055981
0.0011292
0.000968611
0.000468321
3.7817e-05
3.83115e-05
0.000446449
0.00106242
0.00136294
0.000492808
4.39628e-05
6.07667e-05
0.000920429
0.00227233
0.000506485
0.000157495
3.45599e-05
3.53813e-05
0.000441672
0.0010121
0.000313015
0.000111885
2.4686e-05
2.68375e-05
0.000272775
0.000656139
0.000560749
0.00020186
2.65784e-05
1.51893e-05
5.24749e-05
0.000160637
0.000379063
0.000219677
1.79483e-05
1.67899e-05
6.88913e-05
0.000173455
0.000418525
0.000183487
1.91442e-05
2.04502e-05
0.000148614
0.000378508
0.00012285
4.60075e-05
1.35195e-05
1.60958e-05
0.000145253
0.000327262
0.000300781
0.000121735
1.80779e-05
1.2604e-05
3.96087e-05
0.000100605
0.000278744
0.000124109
1.46293e-05
1.68639e-05
0.000107902
0.000256384
8.88831e-05
3.7058e-05
1.22291e-05
1.37554e-05
0.000109993
0.000245582
0.00022201
9.68023e-05
1.61465e-05
1.19811e-05
3.41338e-05
7.89016e-05
0.000216217
9.8834e-05
1.30257e-05
1.56033e-05
8.72967e-05
0.000197223
7.16246e-05
3.22387e-05
1.18349e-05
1.26779e-05
9.19877e-05
0.000194934
0.000176152
8.08475e-05
1.51334e-05
1.16177e-05
3.03267e-05
6.61305e-05
0.000177594
8.47852e-05
1.21142e-05
1.4817e-05
7.53036e-05
0.000162071
6.38058e-05
3.00961e-05
1.16464e-05
1.21661e-05
8.64159e-05
0.000173526
0.00014794
6.98703e-05
1.53383e-05
1.2764e-05
5.57151e-05
0.000120744
4.76256e-05
2.2436e-05
1.07346e-05
1.03942e-05
5.91981e-05
0.000120124
0.000112612
5.47607e-05
1.31242e-05
1.0391e-05
2.15982e-05
4.56614e-05
0.000108687
5.53154e-05
9.88065e-06
1.27445e-05
5.08907e-05
0.000101358
4.27634e-05
2.16781e-05
1.04839e-05
9.86999e-06
5.2496e-05
9.85887e-05
9.32938e-05
4.95817e-05
1.26335e-05
1.02301e-05
2.03158e-05
4.03988e-05
9.11889e-05
4.93111e-05
9.53461e-06
1.23508e-05
4.65068e-05
8.60618e-05
3.87291e-05
1.98713e-05
1.00456e-05
9.32088e-06
4.58194e-05
8.40248e-05
8.11282e-05
4.50773e-05
1.22239e-05
1.0279e-05
1.94989e-05
3.66986e-05
8.07697e-05
4.51116e-05
9.38388e-06
1.21953e-05
4.32093e-05
7.63043e-05
3.50129e-05
1.89973e-05
1.01031e-05
9.06662e-06
4.10401e-05
7.17738e-05
7.01272e-05
4.10854e-05
1.19265e-05
1.0043e-05
1.71675e-05
3.20448e-05
6.24528e-05
4.90575e-05
8.86898e-06
1.12659e-05
2.22529e-05
3.63589e-05
8.33031e-05
4.68903e-05
1.00003e-05
1.25431e-05
4.35441e-05
7.73036e-05
3.73775e-05
2.14437e-05
1.02634e-05
9.41052e-06
4.60404e-05
7.71938e-05
7.30073e-05
4.26658e-05
1.24149e-05
1.03157e-05
2.13007e-05
3.60989e-05
7.558e-05
4.54444e-05
9.38669e-06
1.22727e-05
4.22882e-05
7.14303e-05
3.51509e-05
2.12681e-05
1.02553e-05
9.28879e-06
4.26179e-05
6.81147e-05
6.44769e-05
3.85943e-05
1.23185e-05
1.02347e-05
2.08861e-05
3.29456e-05
6.35671e-05
4.00841e-05
9.06218e-06
1.19292e-05
3.75826e-05
5.9719e-05
2.95262e-05
1.8851e-05
9.98588e-06
8.58843e-06
4.12052e-05
5.23874e-05
3.20067e-05
2.21325e-05
1.10668e-05
9.73538e-06
3.86662e-05
6.31792e-05
5.79429e-05
3.52276e-05
1.23715e-05
1.01056e-05
2.1256e-05
3.09477e-05
5.77324e-05
3.76627e-05
9.04151e-06
1.19568e-05
3.47822e-05
5.23529e-05
2.82635e-05
2.01496e-05
1.00678e-05
8.53156e-06
3.77939e-05
4.7881e-05
3.01307e-05
2.20055e-05
1.11526e-05
9.67149e-06
3.71075e-05
5.76774e-05
5.22102e-05
3.37018e-05
1.22479e-05
1.00668e-05
2.14222e-05
2.92624e-05
5.42258e-05
3.61584e-05
9.00255e-06
1.1948e-05
3.29651e-05
4.93604e-05
2.71442e-05
2.0201e-05
1.00364e-05
8.5124e-06
3.5377e-05
4.38972e-05
2.84034e-05
2.17618e-05
1.11664e-05
9.55143e-06
3.47709e-05
5.34971e-05
4.80362e-05
3.18165e-05
1.21796e-05
1.00241e-05
2.13291e-05
2.72587e-05
4.87004e-05
3.3285e-05
8.96367e-06
1.19068e-05
3.04359e-05
4.43533e-05
2.47745e-05
1.96175e-05
9.72369e-06
8.29724e-06
3.13064e-05
3.91864e-05
2.59622e-05
2.06397e-05
1.10573e-05
9.35491e-06
3.19973e-05
4.7552e-05
4.2562e-05
2.93162e-05
1.20338e-05
9.86557e-06
2.02442e-05
2.45968e-05
3.82354e-05
3.2093e-05
8.24218e-06
1.09547e-05
2.15363e-05
2.58827e-05
4.69581e-05
3.10405e-05
9.25989e-06
1.21296e-05
2.86618e-05
4.20786e-05
2.45387e-05
2.06212e-05
9.89416e-06
8.33489e-06
3.09339e-05
3.78122e-05
2.59434e-05
2.1788e-05
1.10246e-05
9.19591e-06
3.14891e-05
4.64607e-05
4.1612e-05
2.89135e-05
1.20237e-05
9.76381e-06
2.07139e-05
2.43571e-05
3.74093e-05
3.13327e-05
8.15173e-06
1.10512e-05
2.17853e-05
2.56626e-05
4.55356e-05
3.06247e-05
9.32518e-06
1.21658e-05
2.85497e-05
4.09202e-05
2.44791e-05
2.13197e-05
1.00747e-05
8.41951e-06
3.16303e-05
3.67856e-05
2.56494e-05
2.25537e-05
1.10889e-05
9.31364e-06
3.03722e-05
4.4904e-05
4.00621e-05
2.79975e-05
1.20525e-05
9.77498e-06
2.1031e-05
2.37662e-05
3.55771e-05
3.04864e-05
8.20068e-06
1.09362e-05
2.2591e-05
2.5453e-05
3.8756e-05
2.94108e-05
8.76682e-06
1.13687e-05
2.30124e-05
2.68679e-05
4.57526e-05
3.0667e-05
9.52933e-06
1.2112e-05
2.84891e-05
4.07511e-05
2.46592e-05
2.177e-05
9.90387e-06
8.24476e-06
3.13044e-05
3.63683e-05
2.57093e-05
2.33047e-05
1.11506e-05
9.35263e-06
3.01335e-05
4.39231e-05
3.94258e-05
2.80673e-05
1.21611e-05
9.81444e-06
2.16032e-05
2.38642e-05
3.50635e-05
3.02047e-05
8.33869e-06
1.11077e-05
2.30759e-05
2.55536e-05
3.81103e-05
2.92283e-05
8.97328e-06
1.13443e-05
2.36237e-05
2.68368e-05
4.48643e-05
3.03928e-05
9.39286e-06
1.21568e-05
2.84306e-05
4.01e-05
2.47576e-05
2.25043e-05
1.01107e-05
8.35082e-06
3.16003e-05
3.55487e-05
2.6478e-05
2.46278e-05
1.1161e-05
8.95471e-06
3.06216e-05
3.90148e-05
2.76669e-05
2.5104e-05
1.14627e-05
9.56487e-06
3.05689e-05
4.57627e-05
4.08076e-05
2.88008e-05
1.23782e-05
9.99708e-06
2.31552e-05
2.52752e-05
3.63426e-05
3.22273e-05
8.29254e-06
1.11565e-05
2.47734e-05
2.69516e-05
3.9263e-05
3.0835e-05
8.9736e-06
1.14869e-05
2.52526e-05
2.80171e-05
4.59148e-05
3.10968e-05
9.56999e-06
1.23206e-05
2.93441e-05
4.10852e-05
2.58535e-05
2.39835e-05
1.02117e-05
8.51997e-06
3.27337e-05
3.68532e-05
2.76485e-05
2.57743e-05
1.13449e-05
9.17999e-06
3.17125e-05
3.9931e-05
2.86996e-05
2.61893e-05
1.1527e-05
9.5381e-06
3.12429e-05
4.63531e-05
4.12941e-05
2.94676e-05
1.22491e-05
1.02612e-05
2.37974e-05
2.58846e-05
3.58696e-05
3.2881e-05
8.56484e-06
1.13302e-05
2.56168e-05
2.71221e-05
3.88337e-05
3.10967e-05
9.13305e-06
1.15996e-05
2.60622e-05
2.81219e-05
4.48579e-05
3.06198e-05
9.61771e-06
1.24187e-05
2.91147e-05
4.01053e-05
2.57651e-05
2.41986e-05
1.04257e-05
8.63285e-06
3.27963e-05
3.57696e-05
2.72108e-05
2.57629e-05
1.12634e-05
8.9203e-06
3.05529e-05
3.84647e-05
2.86515e-05
2.61996e-05
1.1386e-05
9.07378e-06
3.1362e-05
4.01088e-05
2.9515e-05
2.77988e-05
1.15758e-05
9.64698e-06
3.19795e-05
4.60962e-05
4.11928e-05
3.02989e-05
1.23528e-05
1.00081e-05
2.4896e-05
2.63488e-05
3.69767e-05
3.3337e-05
8.441e-06
1.13889e-05
2.62188e-05
2.80673e-05
3.89421e-05
3.10817e-05
9.18185e-06
1.15538e-05
2.6658e-05
2.92509e-05
4.02963e-05
3.17341e-05
9.14736e-06
1.16007e-05
2.81607e-05
2.98626e-05
4.60729e-05
3.211e-05
9.63132e-06
1.23828e-05
3.0618e-05
4.13e-05
2.71407e-05
2.58898e-05
1.04015e-05
8.60567e-06
3.42879e-05
3.69953e-05
2.85581e-05
2.72246e-05
1.14568e-05
9.18346e-06
3.16443e-05
3.97075e-05
3.00006e-05
2.76857e-05
1.16333e-05
9.29775e-06
3.26469e-05
4.11664e-05
3.08279e-05
2.93469e-05
1.17786e-05
9.80899e-06
3.32111e-05
4.69739e-05
4.21257e-05
3.15733e-05
1.25216e-05
1.04103e-05
2.65155e-05
2.79905e-05
3.77162e-05
3.50057e-05
8.66537e-06
1.15106e-05
2.77425e-05
2.92721e-05
3.98261e-05
3.20579e-05
9.14739e-06
1.16353e-05
2.78103e-05
3.02025e-05
4.08814e-05
3.24557e-05
9.2556e-06
1.18399e-05
2.94375e-05
3.08856e-05
4.61786e-05
3.28698e-05
9.79469e-06
1.25789e-05
3.15099e-05
4.18478e-05
2.79059e-05
2.66335e-05
1.02456e-05
8.66125e-06
3.41627e-05
3.74755e-05
2.94829e-05
2.81152e-05
1.16638e-05
9.25393e-06
3.25348e-05
4.00412e-05
3.07303e-05
2.84405e-05
1.16591e-05
9.17583e-06
3.26346e-05
4.10539e-05
3.14619e-05
2.91756e-05
1.16446e-05
9.32843e-06
3.39092e-05
4.20663e-05
3.19685e-05
3.08145e-05
1.17838e-05
9.79599e-06
3.42613e-05
4.74328e-05
4.29204e-05
3.2776e-05
1.25513e-05
1.0545e-05
2.75099e-05
2.9174e-05
3.79689e-05
3.57441e-05
8.75103e-06
1.16635e-05
2.87927e-05
3.02435e-05
3.99073e-05
3.25906e-05
9.32952e-06
1.18078e-05
2.89813e-05
3.10939e-05
4.09651e-05
3.2728e-05
9.28667e-06
1.17558e-05
2.99906e-05
3.18714e-05
4.24389e-05
3.45867e-05
9.41121e-06
1.18871e-05
3.16506e-05
3.25634e-05
4.82223e-05
3.49714e-05
9.86665e-06
1.271e-05
3.36522e-05
4.37798e-05
3.02932e-05
2.90475e-05
1.06096e-05
8.77794e-06
3.73354e-05
3.93704e-05
3.1419e-05
3.02397e-05
1.16601e-05
9.21195e-06
3.42629e-05
4.18884e-05
3.2566e-05
3.0243e-05
1.17859e-05
9.38117e-06
3.44375e-05
4.29316e-05
3.33957e-05
3.13087e-05
1.1813e-05
9.4155e-06
3.62223e-05
4.41915e-05
3.40307e-05
3.29491e-05
1.19451e-05
9.99675e-06
3.62204e-05
4.95217e-05
4.50511e-05
3.4748e-05
1.27397e-05
1.07002e-05
2.98086e-05
3.13831e-05
4.0055e-05
3.76834e-05
8.99655e-06
1.18253e-05
3.08362e-05
3.24187e-05
4.19659e-05
3.46285e-05
9.43268e-06
1.19872e-05
3.07403e-05
3.3278e-05
4.27147e-05
3.4266e-05
9.49021e-06
1.19978e-05
3.18214e-05
3.38474e-05
4.4083e-05
3.62317e-05
9.6262e-06
1.2095e-05
3.37634e-05
3.439e-05
4.95048e-05
3.68488e-05
1.00172e-05
1.29134e-05
3.55775e-05
4.54304e-05
3.21314e-05
3.08642e-05
1.07671e-05
8.97862e-06
3.89257e-05
4.10347e-05
3.33126e-05
3.19253e-05
1.18845e-05
9.44934e-06
3.56851e-05
4.31743e-05
3.44167e-05
3.1947e-05
1.20263e-05
9.53959e-06
3.566e-05
4.4245e-05
3.52174e-05
3.2914e-05
1.19924e-05
9.61576e-06
3.75475e-05
4.5398e-05
3.56057e-05
3.46387e-05
1.20903e-05
1.00401e-05
3.75936e-05
5.04802e-05
4.62477e-05
3.63015e-05
1.29766e-05
1.08954e-05
3.14329e-05
3.29223e-05
4.09179e-05
3.92399e-05
9.10159e-06
1.19746e-05
3.23625e-05
3.37915e-05
4.24253e-05
3.54259e-05
9.49602e-06
1.21134e-05
3.23097e-05
3.45323e-05
4.33248e-05
3.53801e-05
9.60237e-06
1.20729e-05
3.32315e-05
3.51926e-05
4.45681e-05
3.70262e-05
9.62188e-06
1.20335e-05
3.44507e-05
3.61303e-05
4.6213e-05
3.88081e-05
9.60987e-06
1.21501e-05
3.60803e-05
3.66716e-05
5.20169e-05
3.90595e-05
1.01188e-05
1.31373e-05
3.78761e-05
4.79039e-05
3.43704e-05
3.32643e-05
1.08593e-05
9.03245e-06
4.12203e-05
4.32664e-05
3.58787e-05
3.4629e-05
1.20851e-05
9.64269e-06
3.83475e-05
4.55322e-05
3.69886e-05
3.47581e-05
1.21999e-05
9.66658e-06
3.86812e-05
4.68655e-05
3.79156e-05
3.57379e-05
1.21059e-05
9.67721e-06
4.04371e-05
4.85105e-05
3.86998e-05
3.755e-05
1.22514e-05
1.02493e-05
4.06386e-05
5.37908e-05
4.93255e-05
3.93244e-05
1.328e-05
1.10326e-05
3.45163e-05
3.5742e-05
4.43505e-05
4.26056e-05
9.19241e-06
1.22023e-05
3.56429e-05
3.71941e-05
4.58486e-05
3.91463e-05
9.7502e-06
1.22923e-05
3.53467e-05
3.77843e-05
4.64588e-05
3.86805e-05
9.81613e-06
1.22452e-05
3.62634e-05
3.83431e-05
4.7697e-05
4.02631e-05
9.78637e-06
1.24085e-05
3.8166e-05
3.87803e-05
5.30542e-05
4.06845e-05
1.03302e-05
1.3523e-05
3.96861e-05
4.90159e-05
3.62551e-05
3.54283e-05
1.11213e-05
9.17732e-06
4.30284e-05
4.45494e-05
3.78282e-05
3.68323e-05
1.2322e-05
9.84687e-06
4.03119e-05
4.67203e-05
3.89388e-05
3.692e-05
1.24015e-05
9.81294e-06
4.03255e-05
4.78505e-05
3.96349e-05
3.78349e-05
1.23287e-05
9.89928e-06
4.17022e-05
4.94814e-05
4.04812e-05
3.98552e-05
1.2594e-05
1.04773e-05
4.23551e-05
5.48668e-05
5.05248e-05
4.13418e-05
1.36271e-05
1.12798e-05
3.69955e-05
3.78101e-05
4.60691e-05
4.49966e-05
9.34616e-06
1.23657e-05
3.79125e-05
3.926e-05
4.75102e-05
4.11361e-05
9.88621e-06
1.2546e-05
3.78351e-05
3.99629e-05
4.82132e-05
4.09866e-05
9.93165e-06
1.25836e-05
3.89359e-05
4.0624e-05
4.95478e-05
4.23807e-05
1.002e-05
1.28732e-05
4.11394e-05
4.11885e-05
5.50398e-05
4.3138e-05
1.07812e-05
1.40624e-05
4.24155e-05
5.1087e-05
3.91613e-05
3.89217e-05
1.15927e-05
9.65894e-06
4.62483e-05
4.73943e-05
4.07866e-05
4.00683e-05
1.26283e-05
1.00618e-05
4.38114e-05
4.96726e-05
4.19445e-05
4.02449e-05
1.27912e-05
1.0055e-05
4.37386e-05
5.10933e-05
4.24807e-05
4.18488e-05
1.30015e-05
1.09184e-05
4.37241e-05
5.59886e-05
5.17542e-05
4.30621e-05
1.43539e-05
1.18244e-05
3.94263e-05
3.99005e-05
4.71891e-05
4.65367e-05
9.82664e-06
1.28715e-05
4.04377e-05
4.1224e-05
4.88168e-05
4.35351e-05
1.02655e-05
1.30482e-05
4.0487e-05
4.19719e-05
4.99711e-05
4.3077e-05
1.02887e-05
1.33254e-05
4.25171e-05
4.24419e-05
5.49468e-05
4.38207e-05
1.1044e-05
1.45449e-05
4.34234e-05
5.11578e-05
4.02427e-05
4.0327e-05
1.18517e-05
9.73399e-06
4.70898e-05
4.74622e-05
4.17616e-05
4.15462e-05
1.29777e-05
1.02344e-05
4.40525e-05
4.97839e-05
4.31163e-05
4.20508e-05
1.32753e-05
1.05354e-05
4.45648e-05
5.13506e-05
4.38781e-05
4.3957e-05
1.35396e-05
1.12031e-05
4.5027e-05
5.59773e-05
5.22185e-05
4.4742e-05
1.48864e-05
1.21666e-05
4.15816e-05
4.18578e-05
4.82044e-05
4.83371e-05
1.00362e-05
1.33192e-05
4.28116e-05
4.30124e-05
4.99175e-05
4.51758e-05
1.05636e-05
1.34844e-05
4.29838e-05
4.38069e-05
5.13128e-05
4.47845e-05
1.06327e-05
1.38549e-05
4.51986e-05
4.44157e-05
5.65318e-05
4.58406e-05
1.15399e-05
1.52203e-05
4.57591e-05
5.2918e-05
4.29692e-05
4.36754e-05
1.24181e-05
1.02155e-05
5.004e-05
4.98364e-05
4.4606e-05
4.50941e-05
1.36663e-05
1.08496e-05
4.73069e-05
5.23956e-05
4.60315e-05
4.55002e-05
1.39862e-05
1.11226e-05
4.72367e-05
5.42359e-05
4.70993e-05
4.79219e-05
1.44256e-05
1.19833e-05
4.85332e-05
5.94019e-05
5.56875e-05
4.85286e-05
1.58507e-05
1.29326e-05
4.59371e-05
4.56692e-05
5.2058e-05
5.25084e-05
1.06004e-05
1.40246e-05
4.72636e-05
4.69296e-05
5.4438e-05
4.92402e-05
1.11801e-05
1.47227e-05
4.88144e-05
4.79435e-05
5.93443e-05
4.87963e-05
1.22452e-05
1.61155e-05
4.85134e-05
5.58804e-05
4.61231e-05
4.71178e-05
1.33009e-05
1.0861e-05
5.31073e-05
5.27632e-05
4.79569e-05
4.88107e-05
1.45168e-05
1.15468e-05
5.05284e-05
5.53964e-05
4.94148e-05
4.95152e-05
1.49263e-05
1.1862e-05
5.05865e-05
5.76791e-05
5.08346e-05
5.23568e-05
1.54318e-05
1.28313e-05
5.25615e-05
6.34031e-05
5.9521e-05
5.27379e-05
1.69757e-05
1.38762e-05
5.09179e-05
4.9904e-05
5.63509e-05
5.72933e-05
1.12385e-05
1.50631e-05
5.23439e-05
5.1644e-05
5.94825e-05
5.39205e-05
1.20479e-05
1.58504e-05
5.4252e-05
5.28522e-05
6.50767e-05
5.39797e-05
1.29555e-05
1.73406e-05
5.42155e-05
6.15439e-05
5.20407e-05
5.34213e-05
1.46165e-05
1.20009e-05
5.88096e-05
5.84597e-05
5.37813e-05
5.52965e-05
1.5959e-05
1.27875e-05
5.64054e-05
6.20664e-05
5.55283e-05
5.75528e-05
1.68013e-05
1.40085e-05
5.68432e-05
6.79971e-05
6.42591e-05
5.71865e-05
1.85285e-05
1.51511e-05
5.60483e-05
5.46857e-05
6.14186e-05
6.17947e-05
1.22761e-05
1.6719e-05
5.88705e-05
5.63531e-05
6.77807e-05
5.7732e-05
1.39431e-05
1.86301e-05
5.77366e-05
6.4547e-05
5.49679e-05
5.57656e-05
1.51693e-05
1.2113e-05
6.2435e-05
6.12262e-05
5.66144e-05
5.76433e-05
1.65181e-05
1.32351e-05
5.82296e-05
6.3965e-05
5.78763e-05
5.99483e-05
1.75808e-05
1.46395e-05
5.85794e-05
6.94222e-05
6.60933e-05
5.94283e-05
1.94758e-05
1.59683e-05
5.89679e-05
5.74218e-05
6.33269e-05
6.37529e-05
1.31257e-05
1.77778e-05
6.23004e-05
5.89938e-05
6.94941e-05
6.03221e-05
1.49038e-05
1.99052e-05
6.05471e-05
6.64762e-05
5.83762e-05
6.01785e-05
1.64122e-05
1.32717e-05
6.48927e-05
6.40112e-05
5.95238e-05
6.29924e-05
1.78701e-05
1.46071e-05
6.05547e-05
6.99831e-05
6.70797e-05
6.11494e-05
1.99582e-05
1.66901e-05
6.05786e-05
5.89456e-05
6.44008e-05
6.4761e-05
1.36572e-05
1.86125e-05
6.4278e-05
6.05703e-05
7.01928e-05
6.15208e-05
1.54381e-05
2.08203e-05
6.21208e-05
6.739e-05
6.02329e-05
6.25707e-05
1.71487e-05
1.39307e-05
6.64011e-05
6.53496e-05
6.17532e-05
6.58351e-05
1.88434e-05
1.55723e-05
6.27764e-05
7.14538e-05
6.8637e-05
6.32155e-05
2.09706e-05
1.72245e-05
6.33108e-05
6.12254e-05
6.64023e-05
6.8437e-05
1.34699e-05
1.87968e-05
6.67722e-05
6.27056e-05
7.22144e-05
6.31437e-05
1.58921e-05
2.16871e-05
6.38683e-05
6.94657e-05
6.28529e-05
6.61708e-05
1.81389e-05
1.47574e-05
6.86492e-05
6.78142e-05
6.48362e-05
7.02692e-05
2.00791e-05
1.6706e-05
6.65309e-05
7.49678e-05
7.22099e-05
6.73892e-05
2.24178e-05
1.85343e-05
6.9114e-05
6.58001e-05
7.09749e-05
7.20303e-05
1.50454e-05
2.04935e-05
7.35346e-05
6.78376e-05
7.86237e-05
7.00819e-05
1.69097e-05
2.25183e-05
6.99881e-05
7.58019e-05
6.88709e-05
7.48727e-05
1.96574e-05
1.69452e-05
7.43719e-05
7.77354e-05
7.52684e-05
7.41063e-05
2.35317e-05
1.99525e-05
7.39215e-05
7.00048e-05
7.56495e-05
7.62064e-05
1.62978e-05
2.21567e-05
7.81098e-05
7.25987e-05