/*--------------------------------*- C++ -*----------------------------------*\
| =========                 |                                                 |
| \\      /  F ield         | OpenFOAM: The Open Source CFD Toolbox           |
|  \\    /   O peration     | Version:  v2006                                 |
|   \\  /    A nd           | Website:  www.openfoam.com                      |
|    \\/     M anipulation  |                                                 |
\*---------------------------------------------------------------------------*/
FoamFile
{
    version     2.0;
    format      ascii;
    class       surfaceScalarField;
    location    "0.036";
    object      phi;
}
// * * * * * * * * * * * * * * * * * * * * * * * * * * * * * * * * * * * * * //

dimensions      [1 0 -1 0 0 0 0];
oriented        oriented;


internalField   nonuniform List<scalar> 
32242
(
-2.61162e-05
-0.00135437
0.00133511
4.55168e-05
-0.00127012
0.0012439
8.34757e-06
7.76403e-05
-3.50406e-06
0.00146283
3.80132e-05
0.0015999
-3.29174e-05
0.00165134
-3.6785e-06
0.00169134
-1.63834e-05
0.00168399
-2.3388e-06
0.00167994
-2.43861e-06
0.00166938
-4.54623e-07
0.00166248
-1.02159e-06
0.00165667
-1.15849e-06
0.00165301
-1.2838e-06
0.00164966
-1.48376e-06
0.00164684
-1.51388e-06
0.00164377
-1.62199e-06
0.00164083
-1.72612e-06
0.00163769
-1.82625e-06
0.00163441
-1.92244e-06
0.001631
-2.01488e-06
0.00162746
-2.10392e-06
0.00162379
-2.18994e-06
0.00161999
-2.27331e-06
0.00161607
-2.35431e-06
0.00161202
-2.43311e-06
0.00160786
-2.50984e-06
0.00160356
-2.58452e-06
0.00159916
-2.65712e-06
0.00159463
-2.72757e-06
0.00158999
-2.79578e-06
0.00158524
-2.86164e-06
0.00158038
-2.92503e-06
0.00157542
-2.98581e-06
0.00157037
-3.04386e-06
0.00156521
-3.09904e-06
0.00155997
-3.15121e-06
0.00155464
-3.20022e-06
0.00154923
-3.24597e-06
0.00154375
-3.28831e-06
0.00153819
-3.32713e-06
0.00153257
-3.36232e-06
0.0015269
-3.39377e-06
0.00152116
-3.42137e-06
0.00151538
-3.44503e-06
0.00150956
-3.46464e-06
0.00150371
-3.48013e-06
0.00149782
-3.49139e-06
0.00149191
-3.49836e-06
0.00148599
-3.50095e-06
0.00148006
-3.49911e-06
0.00147412
-3.4928e-06
0.00146819
-3.48207e-06
0.00146227
-3.46673e-06
0.00145636
-3.44523e-06
0.00145048
-3.4201e-06
0.00144464
-3.39063e-06
0.00143883
-3.35634e-06
0.00143308
-3.31728e-06
0.00142737
-3.27346e-06
0.00142173
-3.22489e-06
0.00141615
-3.17161e-06
0.00141066
-3.11363e-06
0.00140524
-3.05097e-06
0.00139991
-2.98367e-06
0.00139469
-2.91171e-06
0.00138956
-2.83504e-06
0.00138455
-2.75352e-06
0.00137965
-2.66696e-06
0.00137488
-2.57506e-06
0.00137024
-2.47745e-06
0.00136573
-2.3738e-06
0.00136136
-2.2639e-06
0.00135715
-2.14764e-06
0.00135309
-2.02475e-06
0.00134919
-1.89401e-06
0.00134544
-1.75194e-06
0.00134183
-9.22693e-07
0.00133764
-1.40059e-06
0.00133418
-1.17043e-06
0.00132808
-2.89587e-06
0.00131947
-4.61674e-06
0.00130734
-1.96285e-05
0.00128687
-3.00935e-05
0.00126097
-8.36179e-05
0.00122465
-0.000143167
0.00120254
-0.00032848
0.0012142
-0.000736147
0.00140173
-0.000202549
0.000361172
2.04311e-05
0.000599501
4.4463e-06
0.000786354
-3.8596e-05
0.000695991
-1.24929e-05
0.000609953
-7.50873e-06
0.000220524
-4.58093e-06
0.000183613
0.000148425
8.52585e-06
0.000139899
1.73463e-05
0.000174792
0.000210929
2.69411e-05
-1.36284e-05
0.000203702
2.08554e-05
-6.80478e-06
0.000167968
0.000133094
2.50436e-06
0.00013059
4.12768e-06
0.000166345
0.000202467
5.36297e-06
-4.65144e-06
0.000200382
6.73643e-06
-2.8714e-06
0.000164565
0.000127719
1.54676e-06
0.000126172
2.02873e-06
0.000164083
0.000200267
2.14376e-06
-4.45885e-06
0.000198703
6.0225e-06
-2.60018e-06
0.000162224
0.000123572
1.2691e-06
0.000122303
1.14662e-06
0.000162347
0.000198468
1.38172e-06
-3.62725e-06
0.000197485
4.61054e-06
-1.77604e-06
0.000160496
0.000120527
4.7197e-07
0.000120055
3.54703e-07
0.000160613
0.000197846
-6.04592e-09
-2.83708e-06
0.000196146
4.53623e-06
-1.60631e-06
0.000159382
0.000118448
3.4248e-07
0.000118106
2.39794e-07
0.000159485
0.000196447
-6.0509e-08
-2.71686e-06
0.00019536
3.80379e-06
-1.48139e-06
0.000158249
0.000116625
2.51208e-07
0.000116373
1.48115e-07
0.000158353
0.000195626
-1.18229e-07
-2.62286e-06
0.000194509
3.74025e-06
-1.388e-06
0.000157118
0.000114985
1.834e-07
0.000114802
8.27964e-08
0.000157218
0.000194745
-1.53262e-07
-2.54958e-06
0.000193604
3.6907e-06
-1.31732e-06
0.000155986
0.000113485
1.32316e-07
0.000113352
2.75221e-08
0.000156091
0.000193819
-1.87328e-07
-2.48675e-06
0.000192662
3.64346e-06
-1.26182e-06
0.000154866
0.00011209
9.26307e-08
0.000111998
-1.25446e-08
0.000154971
0.000192858
-2.08811e-07
-2.43702e-06
0.000191689
3.60582e-06
-1.22106e-06
0.000153755
0.000110777
6.1148e-08
0.000110716
-4.19655e-08
0.000153858
0.000191869
-2.21769e-07
-2.39756e-06
0.000190687
3.57973e-06
-1.18737e-06
0.000152648
0.000109528
3.88836e-08
0.000109489
-6.14142e-08
0.000152748
0.000190853
-2.27104e-07
-2.36736e-06
0.000189658
3.56142e-06
-1.16008e-06
0.000151541
0.000108329
2.29244e-08
0.000108306
-7.45006e-08
0.000151638
0.00018981
-2.25994e-07
-2.3431e-06
0.000188605
3.54842e-06
-1.13777e-06
0.000150433
0.000107168
1.17074e-08
0.000107157
-8.0935e-08
0.000150526
0.000188741
-2.17601e-07
-2.32502e-06
0.000187524
3.54205e-06
-1.11991e-06
0.000149321
0.000106037
4.47626e-09
0.000106032
-8.14775e-08
0.000149406
0.000187645
-2.0239e-07
-2.31224e-06
0.000186416
3.5416e-06
-1.10574e-06
0.0001482
0.000104927
5.80757e-10
0.000104926
-7.69047e-08
0.000148278
0.00018652
-1.81028e-07
-2.30395e-06
0.000185278
3.54644e-06
-1.09462e-06
0.000147068
0.000103832
-1.02426e-09
0.000103833
-6.85747e-08
0.000147136
0.000185364
-1.55316e-07
-2.29912e-06
0.000184108
3.55528e-06
-1.086e-06
0.000145923
0.000102747
-3.02083e-10
0.000102747
-5.66686e-08
0.000145979
0.000184177
-1.25129e-07
-2.29741e-06
0.000182906
3.56803e-06
-1.07932e-06
0.000144761
0.000101668
2.23277e-09
0.000101666
-4.14044e-08
0.000144805
0.000182956
-9.04613e-08
-2.29867e-06
0.00018167
3.58472e-06
-1.07445e-06
0.000143581
0.000100591
6.51136e-09
0.000100585
-2.2899e-08
0.000143611
0.000181698
-5.1309e-08
-2.30281e-06
0.000180396
3.60548e-06
-1.07126e-06
0.000142379
9.95139e-05
1.21329e-08
9.95019e-05
-2.00939e-09
0.000142394
0.000180403
-9.03919e-09
-2.30872e-06
0.000179084
3.62838e-06
-1.06932e-06
0.000141154
9.84327e-05
2.00659e-08
9.84128e-05
2.3038e-08
0.000141151
0.000179067
4.00369e-08
-2.31654e-06
0.00017773
3.65337e-06
-1.06844e-06
0.000139904
9.73445e-05
2.9438e-08
9.73152e-05
5.08879e-08
0.000139882
0.000177688
9.32464e-08
-2.32689e-06
0.000176333
3.68198e-06
-1.06889e-06
0.000138624
9.62465e-05
4.02296e-08
9.62064e-05
8.15644e-08
0.000138583
0.000176264
1.50595e-07
-2.33968e-06
0.00017489
3.71413e-06
-1.07063e-06
0.000137314
9.51359e-05
5.24718e-08
9.50837e-05
1.1513e-07
0.000137252
0.000174793
2.12277e-07
-2.3548e-06
0.000173399
3.74965e-06
-1.07359e-06
0.000135971
9.40103e-05
6.6129e-08
9.39444e-05
1.51528e-07
0.000135886
0.000173272
2.78273e-07
-2.37211e-06
0.000171856
3.7884e-06
-1.07768e-06
0.000134592
9.28669e-05
8.11366e-08
9.2786e-05
1.90655e-07
0.000134483
0.000171699
3.48474e-07
-2.39145e-06
0.000170261
3.83013e-06
-1.08282e-06
0.000133174
9.17034e-05
9.7406e-08
9.16063e-05
2.32352e-07
0.00013304
0.000170071
4.22674e-07
-2.41261e-06
0.000168609
3.87454e-06
-1.08888e-06
0.000131716
9.05176e-05
1.14825e-07
9.0403e-05
2.76412e-07
0.000131555
0.000168385
5.00579e-07
-2.43533e-06
0.000166899
3.92126e-06
-1.09573e-06
0.000130215
8.93075e-05
1.33269e-07
8.91744e-05
3.22603e-07
0.000130026
0.000166641
5.81758e-07
-2.45917e-06
0.00016513
3.96968e-06
-1.10316e-06
0.00012867
8.80714e-05
1.525e-07
8.7919e-05
3.70455e-07
0.000128453
0.000164835
6.65558e-07
-2.48365e-06
0.0001633
4.0191e-06
-1.11094e-06
0.00012708
8.68082e-05
1.72235e-07
8.66361e-05
4.19379e-07
0.000126833
0.000162969
7.51071e-07
-2.50796e-06
0.000161408
4.06828e-06
-1.11864e-06
0.000125444
8.55175e-05
1.91985e-07
8.53257e-05
4.68401e-07
0.000125168
0.00016104
8.3684e-07
-2.531e-06
0.000159456
4.11558e-06
-1.12572e-06
0.000123763
8.42002e-05
2.111e-07
8.39893e-05
5.16235e-07
0.000123458
0.000159051
9.20865e-07
-2.55154e-06
0.000157444
4.15894e-06
-1.13165e-06
0.000122038
8.28578e-05
2.29087e-07
8.2629e-05
5.61578e-07
0.000121706
0.000157005
1.00096e-06
-2.56821e-06
0.000155378
4.19616e-06
-1.13585e-06
0.000120274
8.14934e-05
2.45199e-07
8.12485e-05
6.02859e-07
0.000119917
0.000154906
1.07461e-06
-2.57936e-06
0.000153261
4.2246e-06
-1.13753e-06
0.000118475
8.01112e-05
2.58524e-07
7.98529e-05
6.38115e-07
0.000118096
0.000152761
1.13869e-06
-2.5829e-06
0.000151104
4.24089e-06
-1.13575e-06
0.000116649
7.87174e-05
2.67922e-07
7.84497e-05
6.64854e-07
0.000116252
0.000150579
1.1892e-06
-2.57623e-06
0.000148915
4.24085e-06
-1.12931e-06
0.000114805
7.73206e-05
2.71978e-07
7.70489e-05
6.79971e-07
0.000114398
0.000148374
1.22116e-06
-2.55614e-06
0.000146711
4.21936e-06
-1.11682e-06
0.000112959
7.59322e-05
2.69007e-07
7.56635e-05
6.79724e-07
0.000112548
0.000146163
1.22858e-06
-2.51895e-06
0.000144512
4.17044e-06
-1.09658e-06
0.000111126
7.45671e-05
2.57057e-07
7.43104e-05
6.59856e-07
0.000110724
0.000143967
1.20453e-06
-2.46053e-06
0.000142341
4.08726e-06
-1.06673e-06
0.00010933
7.3244e-05
2.33927e-07
7.30105e-05
6.15539e-07
0.000108949
0.000141816
1.14108e-06
-2.37603e-06
0.000140231
3.96193e-06
-1.02515e-06
0.000107599
7.19859e-05
1.97057e-07
7.17893e-05
5.41036e-07
0.000107256
0.000139744
1.02889e-06
-2.26003e-06
0.000138219
3.78553e-06
-9.69488e-07
0.000105966
7.08204e-05
1.43599e-07
7.06773e-05
4.30036e-07
0.00010568
0.000137792
8.57521e-07
-2.10723e-06
0.000136351
3.54925e-06
-8.97476e-07
0.000104471
6.97804e-05
7.13444e-08
6.97096e-05
2.77465e-07
0.000104265
0.000136011
6.18572e-07
-1.91316e-06
0.000134678
3.24662e-06
-8.05464e-07
0.000103158
6.89047e-05
-2.40738e-08
6.89292e-05
7.63844e-08
0.000103058
0.000134455
3.00697e-07
-1.66836e-06
0.000133257
2.86675e-06
-6.87199e-07
0.000102078
6.82424e-05
-1.47501e-07
6.83903e-05
-1.81119e-07
0.000102112
0.000133179
-1.02555e-07
-1.37976e-06
0.000132155
2.40401e-06
-5.53539e-07
0.000101286
6.78372e-05
-2.84478e-07
6.8122e-05
-4.78738e-07
0.000101481
0.000132253
-5.7581e-07
-1.05662e-06
0.000131427
1.88228e-06
-4.06367e-07
0.000100831
6.77159e-05
-4.35439e-07
6.81516e-05
-8.10984e-07
0.000101207
0.000131727
-1.11062e-06
-7.17125e-07
0.000131114
1.33113e-06
-2.53864e-07
0.000100744
6.7898e-05
-5.90716e-07
6.84889e-05
-1.15849e-06
0.000101312
0.000131632
-1.6765e-06
-3.74042e-07
0.000131239
7.67859e-07
-1.01592e-07
0.00010104
6.83875e-05
-7.34395e-07
6.91222e-05
-1.48527e-06
0.000101791
0.00013197
-2.21621e-06
-4.11968e-08
0.000131789
2.22612e-07
5.02368e-08
0.0001017
6.91726e-05
-8.96302e-07
7.00692e-05
-1.84934e-06
0.000102653
0.000132756
-2.81657e-06
3.00859e-07
0.000132799
-3.4326e-07
2.00417e-07
0.000102754
7.02699e-05
-1.05486e-06
7.1325e-05
-2.2023e-06
0.000103901
0.000134002
-3.40461e-06
5.40887e-07
0.000134229
-7.67806e-07
2.89814e-07
0.000104153
7.16151e-05
-1.14251e-06
7.27578e-05
-2.42845e-06
0.000105439
0.000135607
-3.80581e-06
6.93487e-07
0.000135966
-1.05233e-06
3.41903e-07
0.000105791
7.30999e-05
-1.18857e-06
7.42887e-05
-2.56649e-06
0.000107169
0.000137466
-4.06587e-06
7.67744e-07
0.000137912
-1.21433e-06
3.57707e-07
0.000107579
7.46466e-05
-1.2079e-06
7.58548e-05
-2.64419e-06
0.000109016
0.000139498
-4.22923e-06
7.87321e-07
0.000139998
-1.28729e-06
3.49839e-07
0.000109454
7.62048e-05
-1.20426e-06
7.74092e-05
-2.669e-06
0.000110918
0.000141635
-4.30561e-06
7.56617e-07
0.000142155
-1.27648e-06
3.20642e-07
0.000111355
7.773e-05
-1.1789e-06
7.8909e-05
-2.64389e-06
0.00011282
0.00014381
-4.29861e-06
6.81251e-07
0.000144319
-1.19019e-06
2.72394e-07
0.000113229
7.91814e-05
-1.13539e-06
8.03169e-05
-2.5756e-06
0.000114669
0.000145962
-4.21805e-06
5.69196e-07
0.000146433
-1.04023e-06
2.09434e-07
0.000115029
8.05264e-05
-1.07781e-06
8.16042e-05
-2.47242e-06
0.000116424
0.000148037
-4.07665e-06
4.28988e-07
0.000148448
-8.39661e-07
1.35716e-07
0.000116717
8.174e-05
-1.0097e-06
8.27498e-05
-2.34211e-06
0.000118049
0.000149992
-3.8864e-06
2.68538e-07
0.000150325
-6.01157e-07
5.5318e-08
0.000118263
8.28052e-05
-9.36688e-07
8.3742e-05
-2.19265e-06
0.000119519
0.000151793
-3.66e-06
9.62934e-08
0.000152034
-3.37418e-07
-2.69489e-08
0.000119642
8.37151e-05
-8.64167e-07
8.45794e-05
-2.03414e-06
0.000120812
0.000153411
-3.41112e-06
-7.97201e-08
0.000153551
-6.04419e-08
-1.08188e-07
0.000120841
8.44714e-05
-7.89369e-07
8.52609e-05
-1.87237e-06
0.000121924
0.000154833
-3.15336e-06
-2.50039e-07
0.000154873
2.09927e-07
-1.86422e-07
0.000121861
8.50745e-05
-7.17246e-07
8.57919e-05
-1.71365e-06
0.000122857
0.000156056
-2.89664e-06
-4.11656e-07
0.000155997
4.70703e-07
-2.59049e-07
0.000122705
8.55329e-05
-6.51061e-07
8.6184e-05
-1.56492e-06
0.000123619
0.000157085
-2.65251e-06
-5.59039e-07
0.000156931
7.12842e-07
-3.23468e-07
0.000123383
8.58606e-05
-5.92646e-07
8.64533e-05
-1.4305e-06
0.000124221
0.000157929
-2.42842e-06
-6.86817e-07
0.00015769
9.26361e-07
-3.77486e-07
0.000123912
8.60757e-05
-5.44243e-07
8.66198e-05
-1.31563e-06
0.000124683
0.000158608
-2.23378e-06
-7.94024e-07
0.000158293
1.10863e-06
-4.21165e-07
0.00012431
8.61984e-05
-5.05555e-07
8.67038e-05
-1.2206e-06
0.000125025
0.000159142
-2.07024e-06
-8.81103e-07
0.000158763
1.25986e-06
-4.55066e-07
0.000124598
8.62485e-05
-4.75767e-07
8.67241e-05
-1.14422e-06
0.000125266
0.000159554
-1.93628e-06
-9.49574e-07
0.000159121
1.38175e-06
-4.80269e-07
0.000124797
8.62436e-05
-4.53746e-07
8.66973e-05
-1.08458e-06
0.000125427
0.000159865
-1.82899e-06
-1.00224e-06
0.000159389
1.47827e-06
-4.9843e-07
0.000124923
8.61988e-05
-4.37886e-07
8.66364e-05
-1.0388e-06
0.000125524
0.000160094
-1.74379e-06
-1.04144e-06
0.000159583
1.55314e-06
-5.10782e-07
0.000124993
8.61253e-05
-4.2577e-07
8.65503e-05
-1.00237e-06
0.000125569
0.000160254
-1.67393e-06
-1.06791e-06
0.000159717
1.60578e-06
-5.17878e-07
0.000125019
8.60316e-05
-4.18167e-07
8.64486e-05
-9.76855e-07
0.000125577
0.000160364
-1.62294e-06
-1.08749e-06
0.000159805
1.64585e-06
-5.22636e-07
0.000125011
8.59249e-05
-4.11917e-07
8.63359e-05
-9.56875e-07
0.000125555
0.000160434
-1.58515e-06
-1.10044e-06
0.000159859
1.67555e-06
-5.24915e-07
0.000124979
8.58103e-05
-4.06598e-07
8.62161e-05
-9.43657e-07
0.000125515
0.000160474
-1.5594e-06
-1.11018e-06
0.000159884
1.69895e-06
-5.24459e-07
0.000124929
8.56916e-05
-4.04105e-07
8.60961e-05
-9.34027e-07
0.00012546
0.000160489
-1.53907e-06
-1.11575e-06
0.000159888
1.71519e-06
-5.23343e-07
0.000124866
8.5572e-05
-4.04438e-07
8.59754e-05
-9.29416e-07
0.000125389
0.000160482
-1.52615e-06
-1.11948e-06
0.000159874
1.72678e-06
-5.22983e-07
0.000124792
8.54523e-05
-4.04171e-07
8.58579e-05
-9.25358e-07
0.000125315
0.000160465
-1.51503e-06
-1.12221e-06
0.000159849
1.73698e-06
-5.21867e-07
0.000124713
8.53344e-05
-4.06482e-07
8.57374e-05
-9.25382e-07
0.000125229
0.000160431
-1.50866e-06
-1.12389e-06
0.000159814
1.74387e-06
-5.21316e-07
0.000124629
8.52182e-05
-4.0538e-07
8.56269e-05
-9.2123e-07
0.000125147
0.000160396
-1.50224e-06
-1.11742e-06
0.000159772
1.73608e-06
-5.17049e-07
0.00012454
8.51032e-05
-4.03921e-07
8.55177e-05
-9.19159e-07
0.000125066
0.000160361
-1.50115e-06
-1.11609e-06
0.000159729
1.74381e-06
-5.1426e-07
0.000124456
8.49941e-05
-4.06875e-07
8.53994e-05
-9.2282e-07
0.000124969
0.000160303
-1.50354e-06
-1.11718e-06
0.00015969
1.73749e-06
-5.15812e-07
0.000124377
8.48939e-05
-4.17739e-07
8.53011e-05
-9.45176e-07
0.000124893
0.000160271
-1.53684e-06
-1.10206e-06
0.000159664
1.70862e-06
-5.08481e-07
0.000124301
8.47945e-05
-4.19934e-07
8.5228e-05
-9.60963e-07
0.000124857
0.000160832
-2.11162e-06
-5.28437e-07
0.000159713
1.6348e-06
-4.62304e-07
0.00012478
8.47573e-05
-9.36382e-07
8.56859e-05
-1.57551e-06
0.000125412
0.000161453
-3.32025e-06
1.66515e-07
0.000161532
-2.30491e-07
7.55159e-08
0.000125517
8.57734e-05
-1.66038e-06
8.74317e-05
-4.54471e-06
0.000128397
0.000164072
-7.09304e-06
6.1147e-06
0.000168387
-1.04355e-05
2.96187e-06
0.000131552
9.03998e-05
-8.64432e-06
9.90745e-05
-1.9649e-05
0.000142567
0.00018198
-3.32688e-05
4.32404e-05
0.000211487
-7.28094e-05
1.94038e-05
0.000166405
0.000118523
3.93518e-05
9.49913e-05
0.000165949
3.99821e-05
-0.000288149
-5.72983e-05
-0.000326061
-6.18107e-05
-0.000510406
-2.49755e-05
-0.000550447
-1.59401e-05
-0.000577032
-3.11896e-06
-0.000579708
-2.56316e-06
-0.000584646
-2.0361e-07
-0.000585118
-8.03936e-07
-0.000585808
9.64604e-07
-0.000585265
1.5491e-06
-0.00058304
5.07443e-06
-0.000576977
9.78048e-06
-0.000568916
2.14741e-05
-0.000554856
3.83957e-05
-0.000540833
8.52392e-05
-0.000536035
0.000189243
-0.00054476
8.52751e-05
-0.000335912
4.86824e-05
-0.000332971
2.72064e-05
-0.000323176
2.72255e-05
-0.00027555
7.97048e-06
-0.000237133
4.50445e-06
-8.36105e-05
1.82839e-06
-5.64672e-05
-3.04858e-05
-2.47017e-06
-2.82642e-05
-6.2346e-06
-5.27905e-05
-7.84081e-05
-1.09385e-05
4.34164e-06
-7.53478e-05
-6.96238e-06
1.61856e-06
-5.01415e-05
-2.68438e-05
-1.00565e-06
-2.5861e-05
-1.76278e-06
-4.9396e-05
-7.35492e-05
-3.48741e-06
6.18959e-07
-7.29248e-05
-1.37534e-06
1.01918e-07
-4.88625e-05
-2.56877e-05
-3.83764e-07
-2.52507e-05
-4.8879e-07
-4.87417e-05
-7.23238e-05
-1.20113e-06
5.21743e-07
-7.27612e-05
-8.54942e-08
6.42831e-08
-4.82808e-05
-2.51834e-05
-7.28891e-09
-2.51769e-05
-2.75997e-08
-4.82576e-05
-7.27645e-05
-1.65298e-08
-2.21767e-08
-7.27833e-05
3.64074e-08
-1.15248e-08
-4.82698e-05
-2.51889e-05
1.96238e-08
-2.52064e-05
3.97087e-08
-4.82894e-05
-7.28031e-05
5.30126e-08
-5.74829e-08
-7.28369e-05
8.17351e-08
-2.75149e-08
-4.83196e-05
-2.52315e-05
2.49248e-08
-2.52563e-05
5.3082e-08
-4.83495e-05
-7.28664e-05
7.42636e-08
-5.99402e-08
-7.29011e-05
8.89684e-08
-2.82194e-08
-4.83811e-05
-2.52828e-05
2.66125e-08
-2.53109e-05
5.74599e-08
-4.84149e-05
-7.29352e-05
8.43316e-08
-6.7159e-08
-7.29767e-05
1.01335e-07
-3.12519e-08
-4.84522e-05
-2.53418e-05
2.84644e-08
-2.53707e-05
6.16897e-08
-4.84871e-05
-7.30122e-05
9.08038e-08
-6.67171e-08
-7.30542e-05
1.0059e-07
-3.10457e-08
-4.85256e-05
-2.54028e-05
3.04521e-08
-2.54332e-05
6.57119e-08
-4.85622e-05
-7.30911e-05
9.64831e-08
-7.37753e-08
-7.31367e-05
1.11003e-07
-3.44203e-08
-4.86036e-05
-2.54678e-05
3.10766e-08
-2.54996e-05
6.73615e-08
-4.86421e-05
-7.31764e-05
9.97658e-08
-7.32927e-08
-7.32198e-05
1.08533e-07
-3.44038e-08
-4.8682e-05
-2.5533e-05
3.36999e-08
-2.55666e-05
7.15289e-08
-4.8722e-05
-7.32606e-05
1.02564e-07
-8.09113e-08
-7.33074e-05
1.17781e-07
-3.84488e-08
-4.87647e-05
-2.56025e-05
3.5018e-08
-2.56355e-05
7.45294e-08
-4.88045e-05
-7.33486e-05
1.06582e-07
-7.87732e-08
-7.33947e-05
1.14708e-07
-3.73509e-08
-4.88468e-05
-2.56709e-05
3.54183e-08
-2.57053e-05
7.52756e-08
-4.88877e-05
-7.34365e-05
1.08041e-07
-8.22882e-08
-7.34855e-05
1.20701e-07
-3.90735e-08
-4.89323e-05
-2.5743e-05
3.47712e-08
-2.57776e-05
7.45202e-08
-4.89738e-05
-7.35284e-05
1.0903e-07
-7.89254e-08
-7.3576e-05
1.1723e-07
-3.72551e-08
-4.90174e-05
-2.58146e-05
3.55257e-08
-2.58506e-05
7.60021e-08
-4.90602e-05
-7.36198e-05
1.11147e-07
-8.43426e-08
-7.367e-05
1.24453e-07
-4.0036e-08
-4.91059e-05
-2.58894e-05
3.66964e-08
-2.59253e-05
7.81339e-08
-4.91488e-05
-7.37144e-05
1.13324e-07
-8.37541e-08
-7.37635e-05
1.21912e-07
-3.99188e-08
-4.91938e-05
-2.59635e-05
3.88177e-08
-2.60006e-05
8.18224e-08
-4.92378e-05
-7.38091e-05
1.16537e-07
-8.97262e-08
-7.38608e-05
1.29629e-07
-4.30026e-08
-4.92847e-05
-2.60404e-05
3.9265e-08
-2.60778e-05
8.29721e-08
-4.93293e-05
-7.39076e-05
1.18701e-07
-8.72203e-08
-7.39584e-05
1.26863e-07
-4.14949e-08
-4.93756e-05
-2.61168e-05
4.00692e-08
-2.61549e-05
8.45513e-08
-4.9421e-05
-7.40061e-05
1.21113e-07
-9.11025e-08
-7.40606e-05
1.33177e-07
-4.34547e-08
-4.94698e-05
-2.61961e-05
4.00087e-08
-2.62341e-05
8.49052e-08
-4.95152e-05
-7.41086e-05
1.23081e-07
-8.90468e-08
-7.41616e-05
1.30877e-07
-4.21599e-08
-4.95631e-05
-2.62742e-05
4.08447e-08
-2.6314e-05
8.65898e-08
-4.96108e-05
-7.42125e-05
1.25584e-07
-9.34236e-08
-7.42686e-05
1.37876e-07
-4.42119e-08
-4.96606e-05
-2.63557e-05
4.08582e-08
-2.63951e-05
8.72883e-08
-4.97084e-05
-7.43203e-05
1.27711e-07
-9.09292e-08
-7.43777e-05
1.35432e-07
-4.2408e-08
-4.9759e-05
-2.64362e-05
4.15126e-08
-2.64755e-05
8.92015e-08
-4.9807e-05
-7.44296e-05
1.31267e-07
-9.38265e-08
-7.44887e-05
1.41308e-07
-4.37353e-08
-4.98584e-05
-2.65175e-05
3.9782e-08
-2.6557e-05
8.70163e-08
-4.99082e-05
-7.45445e-05
1.31101e-07
-9.26374e-08
-7.46032e-05
1.39417e-07
-4.25822e-08
-4.99591e-05
-2.65971e-05
4.26001e-08
-2.66365e-05
9.23318e-08
-5.00096e-05
-7.46605e-05
1.35465e-07
-1.01518e-07
-7.47248e-05
1.48388e-07
-4.69797e-08
-5.00636e-05
-2.66778e-05
4.14501e-08
-2.67152e-05
9.34312e-08
-5.01146e-05
-7.47839e-05
1.42971e-07
-8.35733e-08
-7.4848e-05
1.58427e-07
-3.31542e-08
-5.01681e-05
-2.67554e-05
2.85004e-08
-2.67939e-05
7.94575e-08
-5.02221e-05
-7.49116e-05
1.63245e-07
-8.69261e-08
-7.4981e-05
1.78222e-07
-3.13616e-08
-5.02787e-05
-2.68335e-05
3.05753e-08
-2.68713e-05
8.52119e-08
-5.03347e-05
-7.50488e-05
1.71747e-07
-9.12939e-08
-7.51213e-05
1.82253e-07
-3.26595e-08
-5.03935e-05
-2.69099e-05
3.51988e-08
-2.69478e-05
9.50796e-08
-5.04526e-05
-7.5194e-05
1.79243e-07
-1.08516e-07
-7.52753e-05
1.85708e-07
-4.32617e-08
-5.05155e-05
-2.69867e-05
4.31723e-08
-2.70226e-05
1.08107e-07
-5.05772e-05
-7.5354e-05
1.76511e-07
-9.8421e-08
-7.54373e-05
1.89672e-07
-3.41304e-08
-5.06421e-05
-2.70605e-05
2.50249e-08
-2.70971e-05
8.71327e-08
-5.07079e-05
-7.55212e-05
1.92418e-07
-9.08079e-08
-7.56138e-05
2.02267e-07
-2.55138e-08
-5.07775e-05
-2.71337e-05
2.2697e-08
-2.71668e-05
8.72465e-08
-5.08468e-05
-7.57054e-05
1.95605e-07
-9.23294e-08
-7.58035e-05
2.08482e-07
-2.32875e-08
-5.09201e-05
-2.72011e-05
2.12759e-08
-2.72337e-05
9.25064e-08
-5.09946e-05
-7.59025e-05
2.11937e-07
-9.94949e-08
-7.60118e-05
2.30483e-07
-2.19629e-08
-5.10753e-05
-2.7268e-05
1.94035e-08
-2.72988e-05
9.78735e-08
-5.11565e-05
-7.61218e-05
2.28814e-07
-1.03415e-07
-7.62401e-05
2.44151e-07
-1.96875e-08
-5.12426e-05
-2.73303e-05
1.91087e-08
-2.73609e-05
1.06368e-07
-5.13325e-05
-7.63623e-05
2.5003e-07
-1.18255e-07
-7.64949e-05
2.73382e-07
-2.27446e-08
-5.14286e-05
-2.73932e-05
2.41756e-08
-2.74223e-05
1.24823e-07
-5.15265e-05
-7.66294e-05
2.80126e-07
-1.37209e-07
-7.67754e-05
3.03129e-07
-2.78508e-08
-5.16322e-05
-2.7454e-05
2.78929e-08
-2.74855e-05
1.42584e-07
-5.17432e-05
-7.69267e-05
3.13575e-07
-1.52797e-07
-7.7092e-05
3.38751e-07
-3.01032e-08
-5.18648e-05
-2.75227e-05
2.93774e-08
-2.75603e-05
1.57972e-07
-5.19917e-05
-7.7262e-05
3.54253e-07
-1.68217e-07
-7.74445e-05
3.86417e-07
-3.06139e-08
-5.21291e-05
-2.76039e-05
3.01356e-08
-2.76533e-05
1.74038e-07
-5.22775e-05
-7.7637e-05
4.03929e-07
-1.91296e-07
-7.78464e-05
4.4009e-07
-3.68389e-08
-5.24399e-05
-2.77146e-05
5.46406e-08
-2.77814e-05
2.22694e-07
-5.26124e-05
-7.80604e-05
4.57028e-07
-2.96898e-07
-7.82971e-05
4.82712e-07
-1.05758e-07
-5.27974e-05
-2.786e-05
1.06155e-07
-2.79544e-05
3.09319e-07
-5.29961e-05
-7.85452e-05
5.35062e-07
-2.96104e-07
-7.87976e-05
6.2081e-07
-8.17473e-08
-5.32144e-05
-2.80683e-05
9.42657e-08
-2.8198e-05
3.24939e-07
-5.34516e-05
-7.90672e-05
6.76585e-07
-3.7512e-07
-7.93686e-05
7.43273e-07
-1.27555e-07
-5.37126e-05
-2.83611e-05
2.08715e-07
-2.85425e-05
5.05048e-07
-5.40017e-05
-7.96847e-05
7.61489e-07
-6.07824e-07
-8.00284e-05
8.29725e-07
-2.82357e-07
-5.43102e-05
-2.87659e-05
2.86274e-07
-2.90318e-05
6.29123e-07
-5.46483e-05
-8.03942e-05
9.36601e-07
-5.99736e-07
-8.07619e-05
1.09719e-06
-2.45069e-07
-5.50282e-05
-2.93462e-05
2.84001e-07
-2.97134e-05
6.71961e-07
-5.54512e-05
-8.11706e-05
1.232e-06
-7.85957e-07
-8.16294e-05
1.39248e-06
-3.54647e-07
-5.59198e-05
-3.01497e-05
4.97372e-07
-3.06492e-05
1.0222e-06
-5.64458e-05
-8.21155e-05
1.50325e-06
-1.31969e-06
-8.27064e-05
1.70432e-06
-6.98718e-07
-5.70354e-05
-3.12352e-05
9.09074e-07
-3.20693e-05
1.66971e-06
-5.77763e-05
-8.28072e-05
1.65183e-06
-1.57861e-06
-8.3316e-05
2.04238e-06
-9.76593e-07
-5.83646e-05
-3.30114e-05
7.42732e-07
-3.37533e-05
1.40358e-06
-5.90202e-05
-8.38517e-05
1.94885e-06
-1.24048e-06
-8.53406e-05
2.73642e-06
-2.9342e-07
-5.99633e-05
-3.40442e-05
1.28239e-06
-3.53305e-05
1.67032e-06
-6.03527e-05
-8.6138e-05
2.47554e-06
-1.96886e-06
-8.69256e-05
2.76621e-06
-5.84302e-07
-6.17412e-05
-3.59238e-05
8.91851e-07
-3.68525e-05
1.65681e-06
-6.25149e-05
-8.81916e-05
2.98308e-06
-2.30825e-06
-8.88868e-05
3.06539e-06
-9.95114e-07
-6.38366e-05
-3.7887e-05
1.08055e-06
-3.89985e-05
1.90411e-06
-6.46712e-05
-9.06924e-05
3.74865e-06
-2.61805e-06
-9.18791e-05
3.87563e-06
-1.3648e-06
-6.59388e-05
-4.04117e-05
1.39688e-06
-4.17467e-05
2.6598e-06
-6.71918e-05
-9.29874e-05
3.65546e-06
-2.53834e-06
-9.47789e-05
4.34699e-06
-1.11358e-06
-6.86183e-05
-4.28626e-05
1.04096e-06
-4.39069e-05
2.83656e-06
-7.04289e-05
-9.66213e-05
4.66421e-06
-4.29799e-06
-9.96286e-05
7.31477e-06
-2.39905e-06
-7.23174e-05
-4.63182e-05
2.44045e-06
-4.87792e-05
6.45482e-06
-7.62113e-05
-0.000103732
1.05165e-05
6.77801e-05
-5.0556e-05
-0.000121101
2.72108e-05
-3.54978e-05
-2.15794e-05
6.62954e-06
-2.5982e-05
1.35437e-05
-4.60273e-05
-6.59605e-05
3.05487e-05
-8.68606e-06
-7.31131e-05
1.56695e-05
-3.09441e-06
-5.1489e-05
-2.91185e-05
9.97211e-07
-3.01519e-05
2.32119e-06
-5.28047e-05
-7.43238e-05
3.58721e-06
-1.06924e-07
-7.44625e-05
2.77254e-07
-2.98468e-07
-5.26065e-05
-3.04821e-05
1.45965e-06
-3.19884e-05
3.22027e-06
-5.43959e-05
-7.61629e-05
4.97233e-06
-2.36522e-06
-7.73897e-05
3.63215e-06
-1.12472e-06
-5.56578e-05
-3.31492e-05
2.11834e-06
-3.5347e-05
4.1789e-06
-5.77373e-05
-7.98077e-05
6.76365e-06
-2.50847e-06
-8.19131e-05
4.94137e-06
-1.36164e-06
-5.894e-05
-3.68639e-05
2.12614e-06
-3.92367e-05
4.63203e-06
-6.15258e-05
-8.44546e-05
7.69956e-06
-4.16066e-06
-8.71801e-05
7.29096e-06
-1.82277e-06
-6.39088e-05
-4.12299e-05
2.6475e-06
-4.39341e-05
6.36498e-06
-6.76139e-05
-9.22143e-05
1.15137e-05
-9.77524e-06
-9.91878e-05
1.63524e-05
-4.39665e-06
-7.29266e-05
-4.81585e-05
-2.57732e-05
-2.24227e-05
-6.29403e-05
-3.55711e-05
-4.95547e-05
-0.000112759
-1.54153e-05
-6.55814e-05
3.37079e-05
-9.34257e-06
-4.66011e-05
-2.88379e-05
4.22451e-06
-3.34777e-05
1.20114e-05
-5.41961e-05
-7.42711e-05
2.08727e-05
-6.69396e-06
-8.07143e-05
1.40549e-05
-3.13425e-06
-5.79146e-05
-3.71096e-05
2.07357e-06
-3.96388e-05
5.7792e-06
-6.18083e-05
-8.45121e-05
1.04951e-05
-5.03989e-06
-8.80343e-05
9.2435e-06
-2.13679e-06
-6.48359e-05
-4.20893e-05
2.63361e-06
-4.47705e-05
5.67013e-06
-6.78895e-05
-9.17534e-05
9.49821e-06
-7.31786e-06
-9.69583e-05
1.204e-05
-3.23043e-06
-7.19475e-05
-4.77494e-05
3.11448e-06
-5.0919e-05
6.7609e-06
-7.56973e-05
-0.000101474
1.15686e-05
6.58381e-05
-5.03529e-05
-0.000116697
2.68836e-05
-3.68847e-05
-2.4118e-05
4.60834e-06
-3.08799e-05
1.90497e-05
-4.78769e-05
-6.62852e-05
3.34734e-05
-1.15645e-05
-7.56171e-05
2.08413e-05
-4.45495e-06
-5.50853e-05
-3.51974e-05
3.02315e-06
-3.79973e-05
6.31009e-06
-5.83361e-05
-7.89755e-05
9.27944e-06
-4.21344e-06
-8.0986e-05
5.69019e-06
-2.05876e-06
-6.04217e-05
-3.97788e-05
3.39659e-06
-4.29471e-05
6.87173e-06
-6.38349e-05
-8.67688e-05
1.21687e-05
-9.20719e-06
-9.27272e-05
1.55402e-05
-4.17241e-06
-6.89308e-05
-4.72944e-05
-2.44826e-05
-2.30366e-05
-5.88158e-05
-3.43725e-05
-4.68815e-05
-0.000104673
-1.65994e-05
-6.22548e-05
3.43417e-05
-9.91548e-06
-4.63541e-05
-2.97174e-05
5.84934e-06
-3.60451e-05
1.36562e-05
-5.39565e-05
-7.23745e-05
2.41119e-05
-9.09687e-06
-8.06611e-05
1.83639e-05
-3.65999e-06
-5.95769e-05
-4.02142e-05
4.36969e-06
-4.47826e-05
9.31892e-06
-6.45804e-05
-8.72914e-05
1.63647e-05
-7.8278e-06
-9.16917e-05
1.18945e-05
-3.48708e-06
-6.88619e-05
-4.81258e-05
-2.51496e-05
-2.30169e-05
-5.9354e-05
-3.4407e-05
-4.61521e-05
-0.000105184
-1.59505e-05
-6.05361e-05
3.26004e-05
-1.07155e-05
-4.52082e-05
-3.01399e-05
5.33835e-06
-3.55027e-05
1.23146e-05
-5.18651e-05
-6.97182e-05
2.11261e-05
-9.62852e-06
-7.60617e-05
1.50677e-05
-4.4347e-06
-5.69548e-05
-3.95084e-05
4.7634e-06
-4.41028e-05
1.05171e-05
-6.28132e-05
-8.28861e-05
1.71732e-05
5.31936e-05
-4.25675e-05
-9.35514e-05
2.24718e-05
-3.1874e-05
-2.1803e-05
1.07739e-05
-2.90682e-05
1.62476e-05
-4.30128e-05
-5.65693e-05
3.27398e-05
-1.45977e-05
-6.82451e-05
2.63515e-05
-6.41959e-06
-5.09086e-05
-3.57938e-05
5.39895e-06
-4.11889e-05
1.24641e-05
-5.79724e-05
-7.68253e-05
2.1069e-05
-7.68857e-06
-8.14433e-05
1.22865e-05
-4.00395e-06
-6.16661e-05
-4.51988e-05
-2.26002e-05
-2.26003e-05
-5.25712e-05
-3.16955e-05
-4.18903e-05
-9.21327e-05
-1.88006e-05
-5.59965e-05
3.29673e-05
-7.57596e-06
-4.29416e-05
-3.01915e-05
6.83089e-06
-3.70032e-05
1.40908e-05
-5.01213e-05
-6.5441e-05
2.34236e-05
4.24917e-05
-3.41249e-05
-7.36738e-05
1.78247e-05
-2.57595e-05
-1.90224e-05
4.90597e-06
-2.60582e-05
1.85092e-05
-3.57785e-05
-4.73925e-05
3.00517e-05
-1.36599e-05
-5.55218e-05
2.20296e-05
-6.62836e-06
-4.30704e-05
-3.25872e-05
-1.63814e-05
-1.62268e-05
-3.78617e-05
-2.15687e-05
-2.7839e-05
-6.55411e-05
-1.08083e-05
-3.52711e-05
1.82454e-05
-5.07664e-06
-2.73013e-05
-2.13014e-05
-1.27094e-05
-8.59378e-06
-2.85018e-05
-1.15099e-05
-1.5205e-05
-4.85676e-05
7.86755e-07
-1.65243e-05
5.31047e-07
5.63849e-07
-1.12881e-05
-8.03085e-06
-1.36065e-05
5.57462e-06
-3.24092e-05
7.5137e-06
9.60561e-06
-5.85391e-05
2.53892e-05
2.64192e-05
-4.22028e-05
1.17345e-05
2.11682e-05
1.73088e-05
-1.08397e-05
2.81485e-05
-2.39426e-05
3.42711e-05
4.28869e-05
-4.04101e-05
2.75711e-05
6.34869e-05
-4.81706e-05
1.1537e-05
5.03055e-05
3.96857e-05
-1.34835e-05
5.31683e-05
-3.2887e-05
6.97076e-05
8.96936e-05
-5.90959e-05
-4.88742e-05
5.56681e-05
8.28982e-05
-2.1311e-05
4.21423e-05
3.18554e-05
-1.91382e-05
5.09919e-05
-4.37064e-05
6.67088e-05
8.72895e-05
-7.53273e-05
-4.04009e-05
5.92618e-05
6.84374e-05
-1.83964e-05
4.47171e-05
3.25956e-05
-2.41435e-05
5.66933e-05
-5.58872e-05
7.6383e-05
9.96471e-05
-9.61102e-05
-3.73313e-05
7.50108e-05
6.22381e-05
-1.63896e-05
5.60687e-05
3.9474e-05
1.94702e-05
2.63279e-05
2.92262e-05
3.67067e-05
4.90996e-05
5.87989e-05
4.70323e-05
8.61623e-05
-8.52203e-05
2.13921e-05
6.48462e-05
4.62751e-05
1.41744e-05
3.2298e-05
3.30738e-05
4.57024e-05
6.01745e-05
5.91288e-05
6.01373e-05
0.000107284
-0.000106975
2.4996e-05
8.08132e-05