/*--------------------------------*- C++ -*----------------------------------*\
| =========                 |                                                 |
| \\      /  F ield         | OpenFOAM: The Open Source CFD Toolbox           |
|  \\    /   O peration     | Version:  v2006                                 |
|   \\  /    A nd           | Website:  www.openfoam.com                      |
|    \\/     M anipulation  |                                                 |
\*---------------------------------------------------------------------------*/
FoamFile
{
    version     2.0;
    format      ascii;
    class       volScalarField;
    location    "0.036";
    object      turbulenceProperties:L;
}
// * * * * * * * * * * * * * * * * * * * * * * * * * * * * * * * * * * * * * //

dimensions      [0 1 0 0 0 0 0];


internalField   nonuniform List<scalar> 
16277
(
1998.33
1998.45
1998.81
1998.93
1999.33
1999.29
1999.35
1999.19
1998.74
1998.08
1997.34
1996.65
1996.07
1995.57
1995.12
1994.7
1994.31
1993.92
1993.54
1993.16
1992.8
1992.44
1992.1
1991.76
1991.44
1991.11
1990.8
1990.49
1990.18
1989.88
1989.59
1989.3
1989.02
1988.75
1988.48
1988.23
1987.98
1987.74
1987.51
1987.29
1987.08
1986.88
1986.69
1986.52
1986.36
1986.21
1986.07
1985.95
1985.85
1985.76
1985.69
1985.63
1985.59
1985.57
1985.57
1985.58
1985.62
1985.67
1985.75
1985.84
1985.94
1986.06
1986.18
1986.25
1986.18
1985.76
1984.41
1980.78
1971.26
1947.63
1896.97
1794.94
1608.59
1317.5
955.873
612.804
357.027
195.716
103.653
54.3127
28.4691
15.3018
9.15585
7.01717
5.13043
4.27453
3.52174
1.9337
1.11755
0.885783
0.988198
0.374119
0.12135
0.0320747
0.0037253
0.000676232
4.70416e-05
4.51107e-05
0.000325011
0.00146001
0.000819226
0.00022117
4.31572e-05
4.1866e-05
0.00020744
0.000698851
0.00057341
0.000187011
4.15214e-05
4.104e-05
0.000184999
0.000550556
0.000489878
0.000173551
4.07293e-05
4.03713e-05
0.000173032
0.000482183
0.000449733
0.000166463
4.01591e-05
4.00754e-05
0.000168991
0.000448772
0.000428593
0.000163763
3.99805e-05
3.99171e-05
0.000166278
0.000428792
0.000413553
0.000161753
3.9836e-05
3.97861e-05
0.000163999
0.000414573
0.000401801
0.000159923
3.97149e-05
3.96741e-05
0.000161964
0.000403224
0.000391931
0.000158198
3.96109e-05
3.95759e-05
0.000160129
0.000393599
0.000383333
0.000156563
3.9518e-05
3.94869e-05
0.000158433
0.000385148
0.000375643
0.000154991
3.94329e-05
3.94046e-05
0.000156804
0.000377547
0.00036864
0.000153469
3.93532e-05
3.93268e-05
0.00015524
0.000370606
0.000362205
0.000152007
3.92772e-05
3.92521e-05
0.000153747
0.000364218
0.000356246
0.000150611
3.92036e-05
3.91795e-05
0.00015233
0.000358308
0.000350696
0.000149284
3.91317e-05
3.91081e-05
0.000150984
0.000352814
0.000345527
0.00014802
3.90606e-05
3.90374e-05
0.000149705
0.000347698
0.000340703
0.000146818
3.89901e-05
3.89669e-05
0.000148489
0.000342922
0.000336196
0.000145674
3.89195e-05
3.88963e-05
0.000147335
0.000338457
0.000331978
0.00014459
3.88486e-05
3.88252e-05
0.000146243
0.000334273
0.000328016
0.000143563
3.87771e-05
3.87535e-05
0.000145207
0.000330337
0.00032428
0.000142588
3.87048e-05
3.86808e-05
0.000144224
0.000326619
0.000320741
0.000141661
3.86314e-05
3.86069e-05
0.000143289
0.000323092
0.000317377
0.000140777
3.85566e-05
3.85315e-05
0.000142397
0.000319737
0.000314169
0.000139933
3.84801e-05
3.84543e-05
0.000141544
0.000316533
0.000311098
0.000139122
3.84016e-05
3.8375e-05
0.000140725
0.000313462
0.000308149
0.000138342
3.83208e-05
3.82932e-05
0.000139936
0.00031051
0.000305309
0.000137589
3.82373e-05
3.82086e-05
0.000139174
0.000307663
0.000302566
0.00013686
3.81507e-05
3.81208e-05
0.000138437
0.000304912
0.00029991
0.000136153
3.80607e-05
3.80294e-05
0.000137721
0.000302248
0.000297335
0.000135465
3.79669e-05
3.79339e-05
0.000137026
0.000299664
0.000294836
0.000134797
3.78688e-05
3.78341e-05
0.000136351
0.000297157
0.00029241
0.000134147
3.7766e-05
3.77294e-05
0.000135695
0.000294725
0.000290057
0.000133516
3.76581e-05
3.76195e-05
0.000135064
0.000292368
0.000287779
0.000132907
3.75448e-05
3.75041e-05
0.00013447
0.000290092
0.000285581
0.000132325
3.74256e-05
3.73827e-05
0.000133899
0.000287899
0.000283468
0.000131767
3.73003e-05
3.72553e-05
0.000133358
0.000285796
0.000281446
0.000131239
3.71688e-05
3.71215e-05
0.000132854
0.000283792
0.000279528
0.00013075
3.70308e-05
3.69815e-05
0.000132394
0.000281901
0.000277732
0.000130306
3.68866e-05
3.68355e-05
0.00013199
0.000280145
0.000276081
0.000129921
3.67366e-05
3.66839e-05
0.000131656
0.000278588
0.000274618
0.00012961
3.65814e-05
3.65279e-05
0.000131409
0.000277267
0.000273379
0.000129392
3.64224e-05
3.6369e-05
0.000131268
0.000276185
0.000272394
0.000129286
3.62614e-05
3.62094e-05
0.000131258
0.000275402
0.000271727
0.000129318
3.61011e-05
3.60522e-05
0.000131405
0.000274989
0.000271451
0.000129519
3.5945e-05
3.59014e-05
0.000131743
0.000275023
0.000271647
0.000129924
3.57975e-05
3.57622e-05
0.00013228
0.000275585
0.000272404
0.000130557
3.5665e-05
3.564e-05
0.000132966
0.000276729
0.000273756
0.000131337
3.55554e-05
3.55413e-05
0.000133825
0.000278595
0.000275828
0.000132311
3.54728e-05
3.54709e-05
0.000134869
0.000281179
0.000278603
0.000133474
3.54253e-05
3.54334e-05
0.000136069
0.000284419
0.000282024
0.000134799
3.54196e-05
3.54315e-05
0.00013737
0.000288193
0.000285946
0.000136171
3.54257e-05
3.54662e-05
0.000138693
0.000292447
0.00029033
0.000137499
3.54726e-05
3.55339e-05
0.000139919
0.00029706
0.000295005
0.000138737
3.55525e-05
3.56302e-05
0.000140939
0.000301641
0.00029955
0.00013976
3.56573e-05
3.57451e-05
0.000141742
0.000305883
0.000303693
0.000140482
3.57778e-05
3.58713e-05
0.000142388
0.000309631
0.000307328
0.000140963
3.59078e-05
3.60042e-05
0.000142791
0.000312795
0.000310382
0.000141269
3.60426e-05
3.61394e-05
0.000142992
0.000315333
0.0003128
0.000141311
3.61778e-05
3.62722e-05
0.000142967
0.000317242
0.000314534
0.000141146
3.63093e-05
3.63993e-05
0.00014274
0.000318509
0.000315555
0.000140802
3.64341e-05
3.65182e-05
0.000142332
0.000319342
0.000315988
0.000140317
3.65499e-05
3.66268e-05
0.000141792
0.000319517
0.000315771
0.000139646
3.6655e-05
3.67241e-05
0.000141144
0.000319046
0.000314701
0.000138789
3.67486e-05
3.68094e-05
0.000140286
0.000317874
0.00031319
0.00013786
3.68298e-05
3.6882e-05
0.000139361
0.000316272
0.000311372
0.00013691
3.68984e-05
3.69422e-05
0.000138413
0.000314348
0.000309302
0.000135974
3.69546e-05
3.69906e-05
0.000137471
0.000312164
0.000307052
0.000135077
3.69993e-05
3.70282e-05
0.000136565
0.000309803
0.000304697
0.000134239
3.70338e-05
3.70564e-05
0.000135712
0.000307344
0.000302297
0.000133468
3.70591e-05
3.70765e-05
0.00013492
0.000304842
0.000299898
0.000132764
3.70769e-05
3.70893e-05
0.000134192
0.000302354
0.00029753
0.000132123
3.70881e-05
3.70967e-05
0.000133523
0.000299934
0.00029524
0.000131538
3.70944e-05
3.70999e-05
0.00013291
0.000297602
0.000293047
0.000131005
3.70965e-05
3.71e-05
0.000132349
0.000295388
0.00029095
0.0001305
3.70951e-05
3.70975e-05
0.00013183
0.00029328
0.000288944
0.000130011
3.70902e-05
3.7092e-05
0.000131347
0.000291267
0.000287031
0.000129563
3.70833e-05
3.70846e-05
0.000130904
0.000289347
0.000285204
0.000129148
3.70747e-05
3.70758e-05
0.00013049
0.000287512
0.000283455
0.000128755
3.70649e-05
3.70657e-05
0.000130094
0.000285752
0.000281749
0.000128376
3.70541e-05
3.70547e-05
0.000129709
0.000284049
0.000280086
0.000128005
3.70424e-05
3.70429e-05
0.000129333
0.000282404
0.000278488
0.000127642
3.703e-05
3.70303e-05
0.000128965
0.000280817
0.000276936
0.000127281
3.70169e-05
3.7017e-05
0.000128597
0.000279261
0.000275414
0.000126917
3.69956e-05
3.70116e-05
0.000128251
0.000277781
0.000273792
0.000126567
3.69745e-05
3.69983e-05
0.000127799
0.000276455
0.000272602
0.000125901
3.69307e-05
3.71159e-05
0.000128101
0.000276652
0.000274165
0.000127996
3.7222e-05
3.7741e-05
0.000128377
0.000277342
0.000290682
0.000134769
3.84454e-05
4.11127e-05
0.000127546
0.000283162
0.000420821
0.000235551
4.70769e-05
4.18559e-05
9.89235e-05
0.000220277
0.000497189
0.00104746
0.00181633
0.00244918
0.00284766
0.00358526
0.00402871
0.00441484
0.00461573
0.00469647
0.00464165
0.00443554
0.00416125
0.00372726
0.00331036
0.00266383
0.00237926
0.00181493
0.00142332
0.0010217
0.000619232
0.000299991
0.000116252
5.02412e-05
1.28678e-05
1.18243e-05
4.63183e-05
0.00010562
9.98461e-05
4.38551e-05
1.10162e-05
1.04046e-05
4.19902e-05
9.46036e-05
9.47402e-05
4.16862e-05
1.02048e-05
1.00859e-05
4.13949e-05
9.31529e-05
9.30478e-05
4.09883e-05
9.9635e-06
9.95299e-06
4.09232e-05
9.286e-05
9.30255e-05
4.09452e-05
9.96278e-06
9.96125e-06
4.09527e-05
9.3115e-05
9.31921e-05
4.09767e-05
9.9727e-06
9.97832e-06
4.10058e-05
9.33546e-05
9.34294e-05
4.103e-05
9.98435e-06
9.9965e-06
4.10673e-05
9.35941e-05
9.36925e-05
4.10859e-05
9.99127e-06
1.0004e-05
4.11347e-05
9.38576e-05
9.39578e-05
4.11558e-05
1.00104e-05
1.00235e-05
4.12009e-05
9.41407e-05
9.42283e-05
4.12205e-05
1.00242e-05
1.00261e-05
4.12795e-05
9.44245e-05
9.45138e-05
4.12962e-05
1.00442e-05
1.00461e-05
4.1349e-05
9.47095e-05
9.48008e-05
4.13671e-05
1.00533e-05
1.0055e-05
4.14307e-05
9.50061e-05
9.50989e-05
4.14492e-05
1.00737e-05
1.00756e-05
4.15046e-05
9.53038e-05
9.53988e-05
4.15247e-05
1.00834e-05
1.00853e-05
4.15905e-05
9.56129e-05
9.57097e-05
4.16108e-05
1.01045e-05
1.01066e-05
4.16692e-05
9.59227e-05
9.60211e-05
4.16911e-05
1.01146e-05
1.01167e-05
4.17587e-05
9.624e-05
9.63387e-05
4.17804e-05
1.01361e-05
1.01384e-05
4.18409e-05
9.6555e-05
9.66549e-05
4.18641e-05
1.01467e-05
1.0149e-05
4.1934e-05
9.68773e-05
9.69777e-05
4.19583e-05
1.0163e-05
1.01772e-05
4.2014e-05
9.72e-05
9.73025e-05
4.20457e-05
1.01795e-05
1.01824e-05
4.21132e-05
9.75271e-05
9.76293e-05
4.21403e-05
1.01964e-05
1.0211e-05
4.21988e-05
9.78533e-05
9.79565e-05
4.223e-05
1.02134e-05
1.02168e-05
4.23009e-05
9.8183e-05
9.82861e-05
4.23292e-05
1.02308e-05
1.02457e-05
4.23909e-05
9.85092e-05
9.86112e-05
4.24212e-05
1.02482e-05
1.02517e-05
4.24936e-05
9.88288e-05
9.89252e-05
4.2518e-05
1.02656e-05
1.02805e-05
4.25803e-05
9.91313e-05
9.92229e-05
4.26013e-05
1.02826e-05
1.02858e-05
4.26693e-05
9.94305e-05
9.952e-05
4.26906e-05
1.02996e-05
1.03145e-05
4.27529e-05
9.97189e-05
9.98024e-05
4.27669e-05
1.03164e-05
1.03194e-05
4.28311e-05
9.99996e-05
0.000100079
4.28467e-05
1.0333e-05
1.03479e-05
4.29057e-05
0.000100266
0.000100328
4.29106e-05
1.03497e-05
1.03525e-05
4.29704e-05
0.000100512
0.000100582
4.29746e-05
1.03658e-05
1.03805e-05
4.30273e-05
0.000100754
0.000100799
4.30266e-05
1.03819e-05
1.03835e-05
4.30654e-05
0.000100942
0.000100967
4.30497e-05
1.04014e-05
1.04027e-05
4.30692e-05
0.000101092
0.000101116
4.30509e-05
1.04093e-05
1.04097e-05
4.30595e-05
0.000101215
0.000101217
4.30233e-05
1.04273e-05
1.04268e-05
4.30011e-05
0.000101276
0.000101261
4.29417e-05
1.04321e-05
1.04305e-05
4.29041e-05
0.000101286
0.000101256
4.28162e-05
1.04406e-05
1.04504e-05
4.27447e-05
0.000101258
0.000101192
4.26295e-05
1.04482e-05
1.04459e-05
4.25283e-05
0.000101177
0.00010107
4.23819e-05
1.04557e-05
1.04661e-05
4.2249e-05
0.000101078
0.000100926
4.20588e-05
1.04653e-05
1.04654e-05
4.18974e-05
0.000100904
0.000100701
4.16508e-05
1.04827e-05
1.04848e-05
4.14382e-05
0.000100696
0.00010055
4.11879e-05
1.04956e-05
1.05042e-05
4.09779e-05
0.000100627
0.000100427
4.06784e-05
1.05257e-05
1.05517e-05
4.04068e-05
0.00010046
0.000100236
4.00618e-05
1.05702e-05
1.06031e-05
3.98057e-05
0.000100439
0.000100508
3.95189e-05
1.06443e-05
1.06958e-05
3.92745e-05
0.000100972
0.000101211
3.90048e-05
1.07535e-05
1.08224e-05
3.87851e-05
0.000101798
0.000102444
3.85628e-05
1.0903e-05
1.09956e-05
3.85787e-05
0.000103648
0.000105361
3.92324e-05
1.11762e-05
1.13508e-05
3.97592e-05
0.000106732
0.000107606
3.99232e-05
1.13294e-05
1.14687e-05
3.94453e-05
0.000108853
0.000110696
4.16673e-05
1.17289e-05
1.18784e-05
4.08943e-05
0.000111661
0.000112915
4.20623e-05
1.2156e-05
1.24068e-05
4.26915e-05
0.000114654
0.000115025
4.36146e-05
1.27665e-05
1.32362e-05
4.55957e-05
0.000117164
0.000117085
4.66235e-05
1.36309e-05
1.39401e-05
4.77218e-05
0.00011781
0.000117203
4.84235e-05
1.45969e-05
1.57503e-05
5.41021e-05
0.000119189
0.000117498
5.61253e-05
1.08481e-05
6.20468e-06
1.63912e-05
4.18461e-05
9.98169e-05
3.58118e-05
8.35327e-06
9.21783e-06
3.20571e-05
9.23631e-05
9.65442e-05
3.36113e-05
9.44198e-06
9.63128e-06
3.21939e-05
9.29326e-05
9.8577e-05
3.46148e-05
1.00361e-05
1.05075e-05
3.42331e-05
9.72957e-05
0.000104505
3.84142e-05
1.10946e-05
1.17171e-05
3.80198e-05
0.000102315
0.000108383
4.2869e-05
1.24607e-05
1.33655e-05
4.33202e-05
0.000107893
0.000114625
4.95761e-05
1.48828e-05
1.05525e-05
5.39907e-05
0.000115128
4.11894e-05
1.5775e-05
6.48131e-06
9.01036e-06
3.75475e-05
0.000104181
0.00010102
3.50182e-05
1.06404e-05
1.18186e-05
4.41066e-05
0.000118368
0.000119069
4.40743e-05
1.26712e-05
1.37119e-05
4.94782e-05
0.000127766
0.000129192
5.17889e-05
1.4854e-05
1.64362e-05
5.85745e-05
0.000135601
0.000130763
6.07641e-05
1.16289e-05
7.02245e-06
1.73342e-05
4.67739e-05
0.000114547
4.24492e-05
9.65202e-06
1.10923e-05
3.94868e-05
0.000111046
0.000121597
4.63404e-05
1.20056e-05
1.30509e-05
4.56417e-05
0.000118851
0.000127318
5.3931e-05
1.4863e-05
1.08086e-05
6.05981e-05
0.000126369
4.62921e-05
1.74591e-05
6.68488e-06
9.61645e-06
4.14309e-05
0.000117527
0.000118244
4.24387e-05
1.17556e-05
1.39046e-05
5.50173e-05
0.000141783
0.000144569
6.15087e-05
1.59421e-05
1.15562e-05
6.73824e-05
0.000142022
5.26129e-05
1.88855e-05
6.88399e-06
9.90192e-06
4.92082e-05
0.00012897
0.000126053
4.6605e-05
1.21741e-05
1.45981e-05
6.13756e-05
0.000147229
0.00014654
6.87051e-05
1.08911e-05
6.72788e-06
1.97554e-05
5.7151e-05
0.00014605
5.48271e-05
1.04231e-05
1.36752e-05
5.54706e-05
0.000151909
0.000192876
8.10204e-05
1.68762e-05
1.2792e-05
8.31828e-05
0.000182555
7.65762e-05
2.58634e-05
8.22441e-06
1.34994e-05
7.80348e-05
0.000189817
0.000185505
7.95209e-05
1.12053e-05
7.73804e-06
2.60237e-05
8.24551e-05
0.00023672
9.05811e-05
1.40443e-05
1.24409e-05
9.88756e-05
0.000249147
0.000119976
4.20291e-05
9.66742e-06
1.10667e-05
0.000100662
0.000272857
0.000186732
7.29879e-05
1.01015e-05
1.36142e-05
0.000107823
0.000319911
0.000266172
9.03157e-05
1.12644e-05
1.11415e-05
8.69507e-05
0.000256869
0.000280048
9.68428e-05
1.3047e-05
1.70709e-05
0.000171698
0.000472463
0.000104834
3.92158e-05
1.41116e-05
1.31156e-05
9.56283e-05
0.000203422
7.48817e-05
3.15527e-05
1.21623e-05
1.352e-05
6.92116e-05
0.000148306
0.000132936
5.60108e-05
1.47357e-05
8.12696e-06
1.9258e-05
4.87776e-05
9.96905e-05
6.57123e-05
9.9401e-06
1.05168e-05
2.51229e-05
5.5157e-05
0.000116199
5.90032e-05
1.28493e-05
1.47708e-05
5.14967e-05
0.000109844
4.60834e-05
1.97476e-05
8.94109e-06
1.1732e-05
5.31677e-05
0.000100895
9.70205e-05
4.74033e-05
1.39951e-05
8.54987e-06
1.83886e-05
4.20051e-05
9.36222e-05
4.96463e-05
1.12603e-05
1.36217e-05
4.53577e-05
9.02599e-05
3.99908e-05
1.8049e-05
8.5122e-06
1.10981e-05
4.73208e-05
8.87995e-05
8.47339e-05
4.34498e-05
1.3467e-05
8.43458e-06
1.73243e-05
3.80045e-05
8.39467e-05
4.50876e-05
1.09747e-05
1.34701e-05
4.14798e-05
8.06087e-05
3.65421e-05
1.70423e-05
8.52088e-06
1.11157e-05
4.41075e-05
8.03587e-05
7.65451e-05
4.03616e-05
1.35459e-05
8.49663e-06
1.66267e-05
3.54073e-05
7.74129e-05
4.2676e-05
1.10384e-05
1.36934e-05
3.94134e-05
7.42644e-05
3.55716e-05
1.70504e-05
8.84708e-06
1.16385e-05
4.46478e-05
7.8275e-05
7.20143e-05
3.78615e-05
1.50594e-05
1.11134e-05
3.16101e-05
6.30357e-05
2.90011e-05
1.36006e-05
7.0809e-06
9.16519e-06
3.4394e-05
6.1879e-05
6.05138e-05
3.25181e-05
1.16051e-05
7.33785e-06
1.33724e-05
2.85574e-05
5.92366e-05
3.33549e-05
9.28539e-06
1.17577e-05
3.11792e-05
5.73716e-05
2.7903e-05
1.38338e-05
7.38439e-06
9.28976e-06
3.30684e-05
5.63973e-05
5.51907e-05
3.14154e-05
1.17096e-05
7.41984e-06
1.31526e-05
2.7126e-05
5.46289e-05
3.18755e-05
9.32156e-06
1.17513e-05
3.01111e-05
5.30727e-05
2.65004e-05
1.29716e-05
7.33638e-06
9.16554e-06
3.04914e-05
5.23105e-05
5.16285e-05
2.9876e-05
1.17643e-05
7.4257e-06
1.30247e-05
2.59063e-05
5.1382e-05
3.07574e-05
9.23345e-06
1.17538e-05
2.91813e-05
4.98938e-05
2.52681e-05
1.28723e-05
7.2754e-06
8.85264e-06
2.91427e-05
4.81192e-05
4.76428e-05
2.82455e-05
1.12293e-05
6.87605e-06
1.1825e-05
2.35992e-05
4.30926e-05
3.4434e-05
7.97676e-06
9.42924e-06
1.52668e-05
2.70933e-05
5.47595e-05
3.28888e-05
1.12259e-05
1.36029e-05
3.05561e-05
5.23977e-05
2.72296e-05
1.43589e-05
8.41952e-06
1.02626e-05
3.22729e-05
5.18846e-05
5.02636e-05
3.00749e-05
1.30443e-05
8.30618e-06
1.42434e-05
2.65616e-05
5.12191e-05
3.19451e-05
1.01889e-05
1.2842e-05
3.00668e-05
4.98179e-05
2.59757e-05
1.39567e-05
8.09689e-06
9.81877e-06
3.04931e-05
4.81466e-05
4.66664e-05
2.80831e-05
1.25339e-05
7.9151e-06
1.36411e-05
2.47962e-05
4.60033e-05
2.90529e-05
9.43606e-06
1.18381e-05
2.72471e-05
4.44337e-05
2.26326e-05
1.23917e-05
7.15177e-06
8.08095e-06
3.16248e-05
3.90812e-05
2.49334e-05
1.50924e-05
9.47346e-06
1.09607e-05
2.8861e-05
4.66532e-05
4.4259e-05
2.66302e-05
1.32854e-05
8.16528e-06
1.393e-05
2.40261e-05
4.35091e-05
2.81724e-05
9.68162e-06
1.22006e-05
2.63898e-05
4.1354e-05
2.22076e-05
1.29291e-05
7.5294e-06
8.3409e-06
3.00778e-05
3.75682e-05
2.4362e-05
1.5111e-05
9.802e-06
1.13214e-05
2.86941e-05
4.47887e-05
4.20836e-05
2.61955e-05
1.35933e-05
8.32809e-06
1.39913e-05
2.34353e-05
4.21695e-05
2.76254e-05
9.88395e-06
1.23361e-05
2.53174e-05
4.00309e-05
2.15702e-05
1.28251e-05
7.49698e-06
8.31631e-06
2.86993e-05
3.5568e-05
2.33418e-05
1.48382e-05
9.75488e-06
1.1078e-05
2.72605e-05
4.2429e-05
3.97856e-05
2.49727e-05
1.32932e-05
8.16297e-06
1.37526e-05
2.2202e-05
3.92116e-05
2.59813e-05
9.77404e-06
1.21213e-05
2.37734e-05
3.72693e-05
1.99722e-05
1.21386e-05
7.34504e-06
8.10774e-06
2.54134e-05
3.28736e-05
2.18552e-05
1.4122e-05
9.56434e-06
1.08722e-05
2.5914e-05
3.9238e-05
3.65365e-05
2.34185e-05
1.29579e-05
7.58908e-06
1.27166e-05
2.01818e-05
3.25134e-05
2.68466e-05
8.24947e-06
9.61535e-06
1.45848e-05
2.18804e-05
3.88775e-05
2.51092e-05
1.08672e-05
1.32186e-05
2.30405e-05
3.63164e-05
2.00888e-05
1.27556e-05
7.90778e-06
8.50497e-06
2.53754e-05
3.22354e-05
2.19556e-05
1.47113e-05
9.87871e-06
1.10097e-05
2.55899e-05
3.86879e-05
3.597e-05
2.31008e-05
1.32703e-05
7.82695e-06
1.2635e-05
1.98672e-05
3.18068e-05
2.56584e-05
8.31537e-06
9.80189e-06
1.45396e-05
2.16052e-05
3.78565e-05
2.48265e-05
1.10542e-05
1.32617e-05
2.26863e-05
3.53523e-05
1.98804e-05
1.29854e-05
7.91227e-06
8.51683e-06
2.62059e-05
3.13408e-05
2.15345e-05
1.48951e-05
9.85456e-06
1.08908e-05
2.45101e-05
3.73307e-05
3.46255e-05
2.22075e-05
1.29232e-05
7.67865e-06
1.2478e-05
1.91392e-05
3.01551e-05
2.48352e-05
8.10795e-06
9.24621e-06
1.42252e-05
2.07515e-05
3.29045e-05
2.48482e-05
9.55236e-06
1.09026e-05
1.52457e-05
2.24674e-05
3.78836e-05
2.4764e-05
1.18134e-05
1.3745e-05
2.2432e-05
3.50106e-05
1.97787e-05
1.29538e-05
8.04475e-06
8.57256e-06
2.54713e-05
3.07556e-05
2.13003e-05
1.50206e-05
1.00327e-05
1.10661e-05
2.41004e-05
3.62813e-05
3.37805e-05
2.18449e-05
1.30777e-05
7.70696e-06
1.25151e-05
1.89078e-05
2.94347e-05
2.41809e-05
8.16474e-06
9.35058e-06
1.42411e-05
2.05141e-05
3.21182e-05
2.43745e-05
9.62031e-06
1.0727e-05
1.53196e-05
2.21814e-05
3.69499e-05
2.42548e-05
1.16112e-05
1.37235e-05
2.21851e-05
3.42528e-05
1.95078e-05
1.3017e-05
8.10761e-06
8.49082e-06
2.55749e-05
2.97483e-05
2.11682e-05
1.5202e-05
9.74891e-06
9.91103e-06
2.5484e-05
3.26124e-05
2.25158e-05
1.58768e-05
1.10604e-05
1.18676e-05
2.4088e-05
3.72316e-05
3.43043e-05
2.19279e-05
1.38761e-05
8.18382e-06
1.31462e-05
1.9591e-05
2.99257e-05
2.53127e-05
8.49174e-06
9.69707e-06
1.49416e-05
2.11286e-05
3.24151e-05
2.52237e-05
9.95463e-06
1.11444e-05
1.57926e-05
2.25214e-05
3.70478e-05
2.42627e-05
1.20544e-05
1.40874e-05
2.22024e-05
3.42535e-05
1.97833e-05
1.34154e-05
8.373e-06
8.81151e-06
2.56183e-05
3.00282e-05
2.14337e-05
1.5395e-05
1.00334e-05
1.01687e-05
2.55428e-05
3.25563e-05
2.26689e-05
1.60257e-05
1.11509e-05
1.18346e-05
2.39993e-05
3.69379e-05
3.39728e-05
2.18941e-05
1.3713e-05
8.07925e-06
1.30904e-05
1.94474e-05
2.88924e-05
2.56474e-05
8.46208e-06
9.58939e-06
1.50314e-05
2.07063e-05
3.13924e-05
2.50045e-05
9.87495e-06
1.09208e-05
1.56023e-05
2.18926e-05
3.55297e-05
2.32761e-05
1.17776e-05
1.38047e-05
2.1454e-05
3.28302e-05
1.9185e-05
1.30912e-05
8.21775e-06
8.60307e-06
2.52449e-05
2.85959e-05
2.05592e-05
1.48573e-05
9.60794e-06
9.72447e-06
2.43011e-05
3.0862e-05
2.1785e-05
1.54562e-05
1.0678e-05
1.05074e-05
2.47667e-05
3.21895e-05
2.27053e-05
1.64509e-05
1.16001e-05
1.23858e-05
2.40963e-05
3.61394e-05
3.31834e-05
2.18868e-05
1.42272e-05
8.33149e-06
1.32159e-05
1.92643e-05
2.89e-05
2.45232e-05
8.53691e-06
9.65342e-06
1.47243e-05
2.06229e-05
3.05963e-05
2.3959e-05
9.80517e-06
1.06608e-05
1.53709e-05
2.18009e-05
3.18328e-05
2.46521e-05
1.05646e-05
1.16333e-05
1.63442e-05
2.25749e-05
3.56372e-05
2.37688e-05
1.22812e-05
1.42313e-05
2.18988e-05
3.28781e-05
1.94821e-05
1.34759e-05
8.4728e-06
8.75394e-06
2.53911e-05
2.8565e-05
2.0778e-05
1.51558e-05
9.86383e-06
1.00302e-05
2.43161e-05
3.08044e-05
2.19905e-05
1.57507e-05
1.09538e-05
1.08659e-05
2.49168e-05
3.19885e-05
2.28417e-05
1.66354e-05
1.18894e-05
1.25379e-05
2.40682e-05
3.57728e-05
3.29203e-05
2.20597e-05
1.4405e-05
8.50563e-06
1.35075e-05
1.9622e-05
2.86266e-05
2.53677e-05
8.76856e-06
9.83667e-06
1.51414e-05
2.0852e-05
3.03988e-05
2.42527e-05
9.84218e-06
1.06724e-05
1.54008e-05
2.16731e-05
3.12338e-05
2.42335e-05
1.05766e-05
1.16685e-05
1.63197e-05
2.24448e-05
3.47439e-05
2.34703e-05
1.23898e-05
1.42359e-05
2.15659e-05
3.22669e-05
1.9205e-05
1.33904e-05
8.49132e-06
8.82581e-06
2.39073e-05
2.80697e-05
2.05066e-05
1.49322e-05
9.94952e-06
1.0014e-05
2.40316e-05
3.00505e-05
2.16144e-05
1.54456e-05
1.07718e-05
1.03826e-05
2.40324e-05
3.09126e-05
2.22756e-05
1.59872e-05
1.12224e-05
1.10792e-05
2.48741e-05
3.16576e-05
2.27946e-05
1.68627e-05
1.2039e-05
1.25354e-05
2.38361e-05
3.50472e-05
3.23908e-05
2.18844e-05
1.4319e-05
8.41849e-06
1.33337e-05
1.94987e-05
2.78671e-05
2.50006e-05
8.74262e-06
9.83711e-06
1.5011e-05
2.05899e-05
2.94601e-05
2.3724e-05
1.00009e-05
1.08111e-05
1.53988e-05
2.14124e-05
3.02679e-05
2.36342e-05
1.05128e-05
1.1346e-05
1.59978e-05
2.20645e-05
3.13094e-05
2.46932e-05
1.11319e-05
1.20908e-05
1.68909e-05
2.27715e-05
3.49555e-05
2.39204e-05
1.27587e-05
1.47295e-05
2.21779e-05
3.24614e-05
1.98595e-05
1.38978e-05
8.85318e-06
9.20785e-06
2.54229e-05
2.82657e-05
2.08431e-05
1.53839e-05
1.02342e-05
1.01633e-05
2.41546e-05
3.01124e-05
2.18423e-05
1.57422e-05
1.10459e-05
1.08447e-05
2.425e-05
3.09029e-05
2.24695e-05
1.63129e-05
1.16119e-05
1.13046e-05
2.51077e-05
3.17001e-05
2.3107e-05
1.72188e-05
1.2326e-05
1.29585e-05
2.41148e-05
3.50095e-05
3.24648e-05
2.21625e-05
1.47169e-05
8.79285e-06
1.3824e-05
1.99462e-05
2.81459e-05
2.50681e-05
9.16627e-06
1.01451e-05
1.53662e-05
2.10228e-05
2.96479e-05
2.40117e-05
1.00968e-05
1.09065e-05
1.56182e-05
2.17421e-05
3.02134e-05
2.37255e-05
1.07034e-05
1.15228e-05
1.61871e-05
2.2248e-05
3.11291e-05
2.47336e-05
1.14706e-05
1.24125e-05
1.71611e-05
2.28431e-05
3.43797e-05
2.40571e-05
1.30883e-05
1.49797e-05
2.22523e-05
3.21542e-05
2.00031e-05
1.40289e-05
8.97185e-06
9.30741e-06
2.52254e-05
2.82467e-05
2.10495e-05
1.55188e-05
1.03188e-05
1.03479e-05
2.41451e-05
2.98283e-05
2.20051e-05
1.59246e-05
1.12099e-05
1.09527e-05
2.41155e-05
3.06055e-05
2.25659e-05
1.64224e-05
1.17027e-05
1.15023e-05
2.49919e-05
3.13168e-05
2.30215e-05
1.72075e-05
1.23989e-05
1.29737e-05
2.39258e-05
3.43473e-05
3.19773e-05
2.20307e-05
1.47591e-05
8.78228e-06
1.37992e-05
1.98509e-05
2.75711e-05
2.49911e-05
9.21231e-06
1.0179e-05
1.52837e-05
2.07849e-05
2.88579e-05
2.34838e-05
1.0233e-05
1.11008e-05
1.56653e-05
2.1528e-05
2.94984e-05
2.3444e-05
1.08267e-05
1.15336e-05
1.61382e-05
2.20171e-05
3.02194e-05
2.42298e-05
1.12725e-05
1.19755e-05
1.67216e-05
2.26091e-05
3.11875e-05
2.51319e-05
1.17265e-05
1.27023e-05
1.75236e-05
2.31964e-05
3.4596e-05
2.43279e-05
1.35111e-05
1.54271e-05
2.25454e-05
3.23835e-05
2.03219e-05
1.44469e-05
9.33897e-06
9.6918e-06
2.51464e-05
2.84122e-05
2.14615e-05
1.59766e-05
1.07987e-05
1.08803e-05
2.45181e-05
3.00212e-05
2.23985e-05
1.641e-05
1.16969e-05
1.14858e-05
2.46927e-05
3.08703e-05
2.30371e-05
1.69297e-05
1.22103e-05
1.19681e-05
2.54182e-05
3.18018e-05
2.36952e-05
1.78519e-05
1.29847e-05
1.36895e-05
2.46597e-05
3.48987e-05
3.24721e-05
2.27541e-05
1.55129e-05
9.36112e-06
1.45245e-05
2.04538e-05
2.83536e-05
2.54133e-05
9.74919e-06
1.08057e-05
1.59956e-05
2.15923e-05
2.95939e-05
2.43813e-05
1.07567e-05
1.1534e-05
1.62528e-05
2.22748e-05
3.00863e-05
2.42068e-05
1.14186e-05
1.21175e-05
1.67641e-05
2.27201e-05
3.08295e-05
2.48956e-05
1.19047e-05
1.28704e-05
1.76295e-05
2.3226e-05
3.39336e-05
2.4191e-05
1.37107e-05
1.56628e-05
2.25241e-05
3.18286e-05
2.03208e-05
1.45631e-05
9.50843e-06
9.84492e-06
2.48656e-05
2.80278e-05
2.14962e-05
1.61235e-05
1.10053e-05
1.11157e-05
2.44931e-05
2.95858e-05
2.24461e-05
1.65739e-05
1.19097e-05
1.1649e-05
2.45783e-05
3.03789e-05
2.3014e-05
1.71199e-05
1.24028e-05
1.22807e-05
2.52125e-05
3.13162e-05
2.36953e-05
1.80313e-05
1.32503e-05
1.39697e-05
2.46273e-05
3.43639e-05
3.20518e-05
2.28075e-05
1.57924e-05
9.60234e-06
1.47511e-05
2.06082e-05
2.82401e-05
2.54706e-05
9.91927e-06
1.09179e-05
1.61085e-05
2.16549e-05
2.93699e-05
2.43304e-05
1.1041e-05
1.18442e-05
1.64539e-05
2.23725e-05
2.98943e-05
2.42737e-05
1.1668e-05
1.24504e-05
1.70554e-05
2.28595e-05
3.06741e-05
2.49177e-05
1.2271e-05
1.33072e-05
1.80139e-05
2.34351e-05
3.37509e-05
2.4456e-05
1.42126e-05
1.61023e-05
2.28835e-05
3.175e-05
2.08409e-05
1.51407e-05
9.93727e-06
1.03569e-05
2.54457e-05
2.84091e-05
2.19757e-05
1.66266e-05
1.13402e-05
1.14772e-05
2.52262e-05
2.99605e-05
2.29093e-05
1.71268e-05
1.22948e-05
1.20919e-05
2.52087e-05
3.08553e-05
2.34059e-05
1.7793e-05
1.31008e-05
1.39146e-05
2.40583e-05
3.35971e-05
3.14115e-05
2.24612e-05
1.57437e-05
9.61456e-06
1.46863e-05
2.04211e-05
2.75674e-05
2.49425e-05
1.00592e-05
1.10695e-05
1.62707e-05
2.15423e-05
2.89062e-05
2.45649e-05
1.12336e-05
1.20306e-05
1.66936e-05
2.23313e-05
2.97461e-05
2.4325e-05
1.20628e-05
1.31191e-05
1.76009e-05
2.2889e-05
3.25567e-05
2.37085e-05
1.39453e-05
1.58395e-05
2.22808e-05
3.06852e-05
2.02811e-05
1.48195e-05
9.80776e-06
1.0149e-05
2.45264e-05
2.73843e-05
2.14221e-05
1.63494e-05
1.12088e-05
1.14102e-05
2.43397e-05
2.89335e-05
2.2391e-05
1.68972e-05
1.23028e-05
1.22036e-05
2.44639e-05
2.98727e-05
2.29858e-05
1.76417e-05
1.3094e-05
1.38785e-05
2.36733e-05
3.24571e-05
3.05405e-05
2.21987e-05
1.57856e-05
9.6453e-06
1.46386e-05
2.03431e-05
2.70704e-05
2.47105e-05
1.01101e-05
1.1184e-05
1.63317e-05
2.14087e-05
2.84248e-05
2.44007e-05
1.14398e-05
1.22375e-05
1.68453e-05
2.22461e-05
2.93762e-05
2.41301e-05
1.22451e-05
1.32911e-05
1.77512e-05
2.28562e-05
3.22199e-05
2.36892e-05
1.4175e-05
1.60298e-05
2.24138e-05
3.04664e-05
2.05326e-05
1.5143e-05
9.95852e-06
1.04864e-05
2.50366e-05
2.7448e-05
2.16679e-05
1.67077e-05
1.15475e-05
1.17667e-05
2.47214e-05
2.90475e-05
2.27117e-05
1.73326e-05
1.26299e-05
1.27037e-05
2.471e-05
3.00941e-05
2.33966e-05
1.82095e-05
1.36541e-05
1.44635e-05
2.41751e-05
3.28062e-05
3.09713e-05
2.27916e-05
1.63114e-05
1.0172e-05
1.53257e-05
2.09376e-05
2.77214e-05
2.51753e-05
1.06886e-05
1.17116e-05
1.69804e-05
2.20304e-05
2.93409e-05
2.48381e-05
1.21169e-05
1.327e-05
1.79442e-05
2.3071e-05
3.2163e-05
2.38711e-05
1.43573e-05
1.62302e-05
2.26807e-05
3.05429e-05
2.06528e-05
1.51712e-05
1.01622e-05
1.07684e-05
2.49373e-05
2.7507e-05
2.19424e-05
1.70376e-05
1.18642e-05
1.21514e-05
2.49497e-05
2.91902e-05
2.30418e-05
1.77474e-05
1.30169e-05
1.31914e-05
2.5051e-05
3.04596e-05
2.39308e-05
1.87718e-05
1.41757e-05
1.52045e-05
2.48883e-05
3.33913e-05
3.149e-05
2.35008e-05
1.71351e-05
1.08098e-05
1.60361e-05
2.16064e-05
2.84958e-05
2.57268e-05
1.12415e-05
1.23545e-05
1.77022e-05
2.28363e-05
3.02766e-05
2.55574e-05
1.2816e-05
1.3913e-05
1.87262e-05
2.39134e-05
3.32753e-05
2.48229e-05
1.49492e-05
1.70204e-05
2.35886e-05
3.1674e-05
2.18458e-05
1.62873e-05
1.10591e-05
1.16399e-05
2.57802e-05
2.87423e-05
2.30539e-05
1.80525e-05
1.26783e-05
1.32036e-05
2.58621e-05
3.07239e-05
2.43634e-05
1.92174e-05
1.43437e-05
1.55846e-05
2.53513e-05
3.38214e-05
3.20784e-05
2.40289e-05
1.75666e-05
1.12363e-05
1.65169e-05
2.22231e-05
2.93548e-05
2.60749e-05
1.18803e-05
1.32396e-05
1.85786e-05
2.35468e-05
3.27988e-05
2.50038e-05
1.4706e-05
1.67534e-05
2.37501e-05
3.14358e-05
2.17538e-05
1.60475e-05
1.06962e-05
1.13346e-05
2.60728e-05
2.86055e-05
2.28387e-05
1.76763e-05
1.24685e-05
1.30289e-05
2.52274e-05
3.02026e-05
2.39837e-05
1.88463e-05
1.41978e-05
1.54108e-05
2.47748e-05
3.3055e-05
3.15687e-05
2.36187e-05
1.73531e-05
1.11941e-05
1.64562e-05
2.21043e-05
2.89392e-05
2.56715e-05
1.19894e-05
1.33228e-05
1.86837e-05
2.34497e-05
3.24048e-05
2.50523e-05
1.49372e-05
1.70178e-05
2.39029e-05
3.11711e-05
2.20101e-05
1.64059e-05
1.11117e-05
1.18707e-05
2.57807e-05
2.87555e-05
2.31442e-05
1.84296e-05
1.30749e-05
1.44374e-05
2.44254e-05
3.20074e-05
3.08104e-05
2.32589e-05
1.65352e-05
1.08073e-05
1.58956e-05
2.14801e-05
2.82185e-05
2.49708e-05
1.17741e-05
1.3105e-05
1.82018e-05
2.28659e-05
3.156e-05
2.43981e-05
1.46975e-05
1.68305e-05
2.3367e-05
3.04402e-05
2.16353e-05
1.61646e-05
1.10121e-05
1.18632e-05
2.52305e-05
2.82231e-05
2.29146e-05
1.835e-05
1.3128e-05
1.45926e-05
2.43931e-05
3.15345e-05
3.04002e-05
2.32546e-05
1.66366e-05
1.08459e-05
1.59678e-05
2.14951e-05
2.81131e-05
2.5874e-05
1.16546e-05
1.29981e-05
1.80592e-05
2.26946e-05
3.13563e-05
2.39221e-05
1.47782e-05
1.69748e-05
2.30433e-05
3.02909e-05
2.16368e-05
1.63677e-05
1.1299e-05
1.22524e-05
2.49449e-05
2.82547e-05
2.31283e-05
1.87459e-05
1.35882e-05
1.52436e-05
2.48381e-05
3.19082e-05
3.08161e-05
2.38291e-05
1.73398e-05
1.14738e-05
1.66736e-05
2.21704e-05
2.89119e-05
2.5649e-05
1.24762e-05
1.38548e-05
1.91634e-05
2.36891e-05
3.28604e-05
2.56368e-05
1.57505e-05
1.79866e-05
2.47978e-05
3.18859e-05
2.30041e-05
1.7682e-05
1.24164e-05
1.44399e-05
2.56043e-05
3.15082e-05
3.07003e-05
2.45959e-05
1.68535e-05
1.15175e-05
1.6867e-05
2.22925e-05
2.9432e-05
2.57599e-05
1.26657e-05
1.40641e-05
1.93717e-05
2.40908e-05
3.32088e-05