/*--------------------------------*- C++ -*----------------------------------*\
| =========                 |                                                 |
| \\      /  F ield         | OpenFOAM: The Open Source CFD Toolbox           |
|  \\    /   O peration     | Version:  v2006                                 |
|   \\  /    A nd           | Website:  www.openfoam.com                      |
|    \\/     M anipulation  |                                                 |
\*---------------------------------------------------------------------------*/
FoamFile
{
    version     2.0;
    format      ascii;
    class       volVectorField;
    location    "0.036";
    object      U;
}
// * * * * * * * * * * * * * * * * * * * * * * * * * * * * * * * * * * * * * //

dimensions      [0 1 -1 0 0 0 0];


internalField   nonuniform List<vector> 
16277
(
(48.3128 0.00135599 -5.24913e-19)
(48.3134 -0.00684035 0)
(48.3129 0.00778035 0)
(48.3122 -0.00772534 0)
(48.3121 0.000226554 -8.53768e-21)
(48.3098 -0.00207138 -9.35739e-19)
(48.3046 -0.00193401 9.6176e-19)
(48.2888 -0.00416449 0)
(48.253 -0.00847166 0)
(48.1968 -0.0144418 0)
(48.1257 -0.021104 -3.43176e-21)
(48.0476 -0.0274387 -6.9926e-21)
(47.9672 -0.0331168 1.77033e-21)
(47.8863 -0.0381356 0)
(47.8047 -0.0426702 0)
(47.7216 -0.0468793 0)
(47.636 -0.0508724 0)
(47.5471 -0.0547077 0)
(47.4544 -0.0584027 0)
(47.3578 -0.0619599 0)
(47.2572 -0.065378 0)
(47.1528 -0.0686607 0)
(47.0446 -0.0718178 0)
(46.9327 -0.0748625 0)
(46.817 -0.0778085 0)
(46.6977 -0.080667 0)
(46.5748 -0.0834466 0)
(46.4483 -0.0861522 0)
(46.3184 -0.0887859 0)
(46.185 -0.0913477 0)
(46.0483 -0.0938358 0)
(45.9083 -0.0962473 0)
(45.7653 -0.0985786 0)
(45.6192 -0.100826 0)
(45.4703 -0.102984 0)
(45.3186 -0.105049 0)
(45.1643 -0.107016 0)
(45.0075 -0.10888 0)
(44.8483 -0.110637 0)
(44.687 -0.112282 0)
(44.5236 -0.11381 0)
(44.3584 -0.115217 0)
(44.1915 -0.116499 0)
(44.023 -0.117653 0)
(43.8531 -0.118675 0)
(43.6821 -0.11956 0)
(43.51 -0.120307 0)
(43.3372 -0.120911 0)
(43.1637 -0.12137 0)
(42.9898 -0.12168 0)
(42.8156 -0.121839 0)
(42.6414 -0.121845 0)
(42.4673 -0.121696 0)
(42.2936 -0.121394 0)
(42.1205 -0.120934 0)
(41.9482 -0.120286 0)
(41.7768 -0.119466 0)
(41.6066 -0.118508 0)
(41.4378 -0.117393 0)
(41.2706 -0.116112 0)
(41.1053 -0.114664 0)
(40.942 -0.113051 0)
(40.781 -0.111274 0)
(40.6224 -0.109333 0)
(40.4665 -0.10723 0)
(40.3135 -0.104965 0)
(40.1635 -0.102538 0)
(40.0169 -0.0999503 0)
(39.8736 -0.097197 0)
(39.734 -0.094273 0)
(39.5982 -0.0911692 0)
(39.4664 -0.087874 0)
(39.3387 -0.0843748 0)
(39.2155 -0.080662 0)
(39.0969 -0.0767314 0)
(38.983 -0.0725811 0)
(38.8737 -0.0681939 0)
(38.7683 -0.063499 0)
(38.666 -0.0583041 -3.00506e-20)
(38.5654 -0.0522933 2.99857e-20)
(38.4661 -0.0450065 0)
(38.3705 -0.0362308 8.95556e-20)
(38.2865 -0.0265976 -5.91691e-20)
(38.2274 -0.0182121 0)
(38.2012 -0.0128961 -1.71908e-18)
(38.2007 -0.0105448 1.11748e-18)
(38.2109 -0.00964701 0)
(38.2231 -0.00944226 0)
(38.2328 -0.00936384 0)
(38.2318 -0.00739068 1.73948e-17)
(38.2245 -0.00459891 -1.02963e-17)
(38.2001 -0.0102886 -1.26067e-17)
(38.1384 -0.0202401 -3.78906e-18)
(38.0353 -0.0398372 2.12398e-18)
(37.8675 -0.0576734 0)
(37.6746 -0.0669703 0)
(36.9647 -0.102498 -2.76465e-19)
(36.5089 -0.0930256 2.32499e-18)
(37.683 -0.11357 1.73395e-18)
(37.9146 -0.0967215 -5.82544e-18)
(37.9387 -0.119278 0)
(37.6316 -0.133693 1.79674e-18)
(35.9947 -0.0920212 1.93173e-18)
(35.4861 -0.0845092 7.19748e-19)
(37.5708 -0.133342 4.01158e-19)
(37.9609 -0.124084 1.33773e-18)
(37.9585 -0.121246 1.33869e-18)
(37.4774 -0.122898 0)
(35.0183 -0.0739622 -1.25577e-18)
(34.5871 -0.0643152 1.1691e-19)
(37.3783 -0.112508 0)
(37.9444 -0.11801 0)
(37.9052 -0.113529 1.65975e-19)
(37.2503 -0.103542 0)
(34.1845 -0.0571958 2.47542e-24)
(33.8206 -0.051837 1.35719e-19)
(37.1337 -0.0967162 0)
(37.8643 -0.111149 -1.6682e-19)
(37.8047 -0.107658 1.05546e-20)
(37.0013 -0.091256 3.94187e-19)
(33.4763 -0.0475945 -5.06992e-19)
(33.1747 -0.0430709 4.92638e-19)
(36.8865 -0.085803 3.96121e-19)
(37.7519 -0.107186 -6.88764e-19)
(37.6805 -0.103013 -6.81606e-19)
(36.7477 -0.0811024 -7.95291e-19)
(32.8825 -0.0400383 0)
(32.6216 -0.0364101 4.9506e-19)
(36.6306 -0.0770814 -4.10799e-19)
(37.616 -0.102237 -1.06783e-20)
(37.5339 -0.0979798 6.94614e-19)
(36.4887 -0.0731232 -4.11038e-19)
(32.3642 -0.0343516 -4.95343e-19)
(32.1316 -0.0316039 0)
(36.3709 -0.0703013 0)
(37.4623 -0.0973924 0)
(37.374 -0.0938566 6.84302e-19)
(36.2288 -0.0671163 0)
(31.9008 -0.0301967 0)
(31.6921 -0.0279249 0)
(36.114 -0.0651635 0)
(37.2994 -0.0940006 0)
(37.2042 -0.090741 0)
(35.9705 -0.0625682 0)
(31.4792 -0.0270651 0)
(31.2854 -0.0251968 0)
(35.8555 -0.0610086 0)
(37.1246 -0.0907433 0)
(37.0234 -0.0878995 0)
(35.7104 -0.058937 0)
(31.0852 -0.0247451 0)
(30.9039 -0.0229768 0)
(35.5964 -0.0577722 0)
(36.9408 -0.0884163 0)
(36.8372 -0.0857755 0)
(35.4528 -0.0562208 0)
(30.7168 -0.0230557 0)
(30.5459 -0.0211418 0)
(35.3406 -0.0551529 0)
(36.7526 -0.0866412 0)
(36.6459 -0.0843192 0)
(35.197 -0.0540783 0)
(30.3675 -0.0216443 0)
(30.2042 -0.0197293 0)
(35.0854 -0.0532148 0)
(36.559 -0.0853629 0)
(36.4492 -0.0833606 0)
(34.9416 -0.0524879 0)
(30.0326 -0.0205119 0)
(29.8751 -0.018642 0)
(34.8304 -0.0517009 0)
(36.3602 -0.0844483 0)
(36.2475 -0.0827384 0)
(34.686 -0.0512572 0)
(29.7087 -0.0196267 0)
(29.5558 -0.0177687 0)
(34.5747 -0.0505521 0)
(36.1563 -0.0839478 0)
(36.0407 -0.0825126 0)
(34.4295 -0.0503689 0)
(29.3934 -0.0189303 0)
(29.2438 -0.0170656 0)
(34.3177 -0.0497174 0)
(35.9471 -0.0838237 0)
(35.8284 -0.0826359 0)
(34.1712 -0.0497688 0)
(29.0844 -0.0183854 0)
(28.9372 -0.0164963 0)
(34.0584 -0.0491467 0)
(35.7323 -0.0840322 0)
(35.6103 -0.0830666 0)
(33.9104 -0.0494113 0)
(28.7798 -0.0179627 0)
(28.6344 -0.0161165 0)
(33.7963 -0.0487937 0)
(35.5115 -0.0844757 0)
(35.3863 -0.0837344 0)
(33.6464 -0.0492406 0)
(28.4784 -0.0176813 0)
(28.334 -0.0158158 0)
(33.5307 -0.0485973 0)
(35.2847 -0.0851741 0)
(35.156 -0.0846399 0)
(33.3789 -0.0492272 0)
(28.1788 -0.0174771 0)
(28.0349 -0.0156451 0)
(33.2612 -0.0485643 0)
(35.0513 -0.0861099 0)
(34.9191 -0.0857731 6.86121e-19)
(33.107 -0.0493588 0)
(27.8801 -0.0173727 0)
(27.7361 -0.0155686 0)
(32.987 -0.0486661 0)
(34.8111 -0.0872912 0)
(34.675 -0.0871386 0)
(32.8304 -0.0496246 0)
(27.5812 -0.0173502 0)
(27.4369 -0.0155533 0)
(32.7077 -0.0488428 0)
(34.5635 -0.0887008 0)
(34.4235 -0.0886491 0)
(32.5483 -0.0499699 0)
(27.2814 -0.0173888 0)
(27.1362 -0.0156075 0)
(32.4229 -0.0492294 0)
(34.3083 -0.0901425 0)
(34.1641 -0.0902651 0)
(32.2604 -0.0504603 0)
(26.9798 -0.0174648 0)
(26.8334 -0.0156883 0)
(32.1318 -0.0497532 0)
(34.0449 -0.0917788 0)
(33.8963 -0.0920861 6.86555e-19)
(31.9659 -0.0510837 0)
(26.6756 -0.0175763 0)
(26.5276 -0.0158097 0)
(31.8341 -0.0503938 0)
(33.773 -0.0936323 0)
(33.6198 -0.0941132 0)
(31.6645 -0.0518254 0)
(26.3681 -0.0177325 0)
(26.2181 -0.0159746 0)
(31.5289 -0.0511523 0)
(33.4921 -0.0956959 0)
(33.334 -0.0963381 0)
(31.3555 -0.0526818 0)
(26.0565 -0.0179327 0)
(25.9042 -0.0161807 0)
(31.2159 -0.0520261 0)
(33.2016 -0.0979618 0)
(33.0385 -0.098753 0)
(31.0383 -0.053648 0)
(25.7402 -0.0181738 0)
(25.5852 -0.0164242 0)
(30.8944 -0.0530107 0)
(32.9012 -0.100421 0)
(32.7328 -0.101347 6.86982e-19)
(30.7123 -0.0547176 0)
(25.4184 -0.0184517 0)
(25.2604 -0.0167 0)
(30.5639 -0.0541001 0)
(32.5903 -0.103061 0)
(32.4164 -0.104105 0)
(30.3771 -0.0558822 0)
(25.0906 -0.0187612 0)
(24.9293 -0.017003 0)
(30.2239 -0.0552844 0)
(32.2686 -0.105866 0)
(32.089 -0.107009 0)
(30.0322 -0.0571312 0)
(24.7561 -0.0190979 0)
(24.5913 -0.0173353 0)
(29.8739 -0.056543 0)
(31.9356 -0.108803 0)
(31.7501 -0.110029 0)
(29.6772 -0.0584425 0)
(24.4145 -0.0194586 0)
(24.246 -0.0176895 0)
(29.5136 -0.0578528 0)
(31.591 -0.111846 0)
(31.3995 -0.11313 6.87424e-19)
(29.3117 -0.0597947 0)
(24.0655 -0.0198367 0)
(23.8932 -0.0180562 0)
(29.1428 -0.0591879 0)
(31.2346 -0.114944 0)
(31.0371 -0.116251 0)
(28.9356 -0.0611532 0)
(23.7089 -0.0202174 0)
(23.5328 -0.0184175 0)
(28.7615 -0.0605066 0)
(30.8664 -0.118027 0)
(30.663 -0.119312 0)
(28.5491 -0.06247 0)
(23.3448 -0.0205798 0)
(23.165 -0.01875 0)
(28.3697 -0.0617534 0)
(30.4865 -0.120999 0)
(30.2774 -0.122213 0)
(28.1525 -0.0636904 0)
(22.9736 -0.0209094 0)
(22.7906 -0.0190443 0)
(27.9682 -0.0628761 0)
(30.0955 -0.123758 0)
(29.881 -0.124848 0)
(27.7465 -0.0647596 0)
(22.5961 -0.0211886 0)
(22.4104 -0.0192752 0)
(27.5578 -0.0638109 0)
(29.6941 -0.126184 0)
(29.4748 -0.127085 0)
(27.3322 -0.0656067 0)
(22.2134 -0.0213902 0)
(22.0256 -0.0194137 0)
(27.1399 -0.0644772 0)
(29.2835 -0.128129 0)
(29.0601 -0.12876 0)
(26.9112 -0.0661418 0)
(21.827 -0.0214825 0)
(21.6381 -0.0194249 0)
(26.7161 -0.0647734 0)
(28.8654 -0.129404 0)
(28.6391 -0.129663 0)
(26.4856 -0.0662529 0)
(21.4391 -0.0214264 0)
(21.2506 -0.0192659 0)
(26.2892 -0.0645732 0)
(28.4421 -0.129774 0)
(28.2143 -0.129542 0)
(26.0584 -0.0658019 0)
(21.0528 -0.0211756 0)
(20.8664 -0.0188867 0)
(25.8624 -0.0637253 0)
(28.0168 -0.128959 0)
(27.7894 -0.128098 0)
(25.6334 -0.0646301 0)
(20.6718 -0.0206743 0)
(20.4899 -0.0182273 0)
(25.4402 -0.0620589 0)
(27.5935 -0.126633 0)
(27.3689 -0.124989 0)
(25.2155 -0.0625604 0)
(20.301 -0.0198571 0)
(20.1266 -0.0172199 0)
(25.028 -0.0593822 0)
(27.1772 -0.122427 0)
(26.9584 -0.119827 0)
(24.8108 -0.0593823 0)
(19.9466 -0.0186489 0)
(19.7831 -0.0157906 0)
(24.6325 -0.0554638 0)
(26.7743 -0.115916 0)
(26.5649 -0.112169 0)
(24.4267 -0.0548547 0)
(19.6158 -0.0169591 0)
(19.4674 -0.0138537 0)
(24.2619 -0.0500484 0)
(26.3924 -0.106622 0)
(26.1969 -0.101576 0)
(24.0721 -0.0487356 0)
(19.3174 -0.0146833 0)
(19.1889 -0.0113409 0)
(23.9257 -0.0429298 0)
(26.0407 -0.0941501 0)
(25.864 -0.0876837 0)
(23.7572 -0.0408253 0)
(19.0613 -0.0117957 0)
(18.9593 -0.00824215 0)
(23.6341 -0.0336994 0)
(25.7293 -0.0780192 0)
(25.577 -0.0698902 0)
(23.493 -0.0305645 0)
(18.8592 -0.00810498 0)
(18.7942 -0.00431104 0)
(23.3991 -0.0225326 0)
(25.4688 -0.0579145 0)
(25.3471 -0.0480626 0)
(23.2916 -0.0187058 0)
(18.7256 -0.00396929 0)
(18.7021 0.000143409 0)
(23.2343 -0.0103029 0)
(25.2736 -0.0338273 0)
(25.1867 -0.0231284 0)
(23.1653 -0.00563028 0)
(18.6686 0.000620789 0)
(18.6905 0.00493242 0)
(23.1494 0.00352908 0)
(25.1528 -0.00734594 0)
(25.1048 0.00333375 0)
(23.1227 0.00823592 0)
(18.6947 0.00515844 0)
(18.7634 0.00978844 0)
(23.1507 0.0180013 0)
(25.1133 0.0200225 0)
(25.1068 0.0304363 0)
(23.1683 0.0223139 0)
(18.8064 0.00944401 0)
(18.917 0.0139259 6.21955e-20)
(23.2373 0.03135 0)
(25.1553 0.0453531 0)
(25.1876 0.0568888 0)
(23.295 0.0364553 0)
(18.9973 0.0138699 -6.21955e-20)
(19.1546 0.0187309 6.21908e-20)
(23.4109 0.0461655 0)
(25.2825 0.0734145 0)
(25.359 0.0840674 0)
(23.5147 0.0505015 0)
(19.28 0.0190026 -6.21907e-20)
(19.4815 0.0236997 6.21845e-20)
(23.6783 0.0601243 0)
(25.5018 0.100663 0)
(25.6203 0.104504 0)
(23.8235 0.05982 0)
(19.6426 0.0216328 -6.21846e-20)
(19.8664 0.0257864 6.21773e-20)
(24.0175 0.0681601 0)
(25.7945 0.118449 0)
(25.9419 0.118484 0)
(24.1896 0.0657755 0)
(20.0462 0.0230215 -6.21776e-20)
(20.2831 0.0264569 6.21695e-20)
(24.4054 0.072431 0)
(26.1402 0.129491 0)
(26.3082 0.12665 0)
(24.5955 0.0685251 0)
(20.4718 0.0232038 -6.21701e-20)
(20.7133 0.0262784 6.21614e-20)
(24.8242 0.0741622 0)
(26.5226 0.135694 0)
(26.7046 0.130544 0)
(25.0245 0.0691041 0)
(20.9039 0.0226559 -6.21623e-20)
(21.1437 0.0253994 6.21533e-20)
(25.2593 0.0737252 0)
(26.9286 0.137664 0)
(27.118 0.130455 0)
(25.4633 0.067647 0)
(21.3299 0.0214897 -6.21545e-20)
(21.5623 0.023874 6.21454e-20)
(25.6976 0.0712651 0)
(27.3453 0.135662 0)
(27.5359 0.126792 0)
(25.8989 0.0643818 0)
(21.7384 0.0197437 -6.21471e-20)
(21.9583 0.0218347 6.2138e-20)
(26.127 0.0670905 0)
(27.7605 0.130224 0)
(27.9467 0.120123 0)
(26.3201 0.0596493 0)
(22.1195 0.0175761 -6.21399e-20)
(22.3231 0.0194267 6.21311e-20)
(26.5371 0.0615802 0)
(28.1637 0.121987 0)
(28.3408 0.111046 0)
(26.7174 0.0538028 0)
(22.4659 0.0150966 -6.21333e-20)
(22.6501 0.0167531 6.21249e-20)
(26.9195 0.0550865 0)
(28.5458 0.111543 0)
(28.71 0.100168 0)
(27.0836 0.04717 0)
(22.7722 0.0124152 -6.21273e-20)
(22.9354 0.0140226 6.21194e-20)
(27.2678 0.0480087 0)
(28.8999 0.0995171 0)
(29.0482 0.0880688 0)
(27.4124 0.0401933 0)
(23.0361 0.00988709 -6.2122e-20)
(23.1773 0.0114622 5.59044e-19)
(27.5769 0.0407817 4.12946e-19)
(29.2205 0.0866111 -1.37622e-18)
(29.3502 0.0753949 0)
(27.6998 0.0332809 0)
(23.2581 0.00776194 -6.21171e-20)
(23.3761 0.00896931 6.21108e-20)
(27.844 0.0334751 0)
(29.5036 0.0734479 -6.8805e-19)
(29.6145 0.0627501 0)
(27.9459 0.0266454 0)
(23.4373 0.00552415 -6.21131e-20)
(23.5329 0.00652583 6.21077e-20)
(28.0697 0.0265123 0)
(29.7487 0.0604979 0)
(29.8409 0.0505573 0)
(28.1512 0.0203197 0)
(23.5755 0.00345094 -6.21098e-20)
(23.6505 0.00440148 6.21054e-20)
(28.2553 0.0201205 0)
(29.956 0.0483043 0)
(30.0301 0.0393131 0)
(28.3175 0.0145854 0)
(23.6763 0.0016465 -6.21072e-20)
(23.733 0.00261912 6.21036e-20)
(28.4035 0.0144559 0)
(30.1272 0.0372294 0)
(30.1846 0.029471 0)
(28.4481 0.00966983 0)
(23.7444 0.000179021 -6.21053e-20)
(23.7857 0.00122643 6.21024e-20)
(28.518 0.00971159 0)
(30.2655 0.0276882 0)
(30.3082 0.0211314 0)
(28.5474 0.00559833 0)
(23.7852 -0.000954636 -6.21039e-20)
(23.8143 0.000189449 6.21016e-20)
(28.6037 0.00586723 0)
(30.375 0.0197276 0)
(30.4049 0.0142684 0)
(28.6203 0.00234601 0)
(23.8046 -0.00178069 -6.2103e-20)
(23.8242 -0.000540489 6.21013e-20)
(28.6652 0.00285117 0)
(30.46 0.0132627 0)
(30.4792 0.00876316 0)
(28.6712 -0.000155273 0)
(23.8074 -0.00234008 -6.21026e-20)
(23.82 -0.00101631 6.21013e-20)
(28.707 0.000568184 0)
(30.5246 0.00813864 0)
(30.5351 0.00443376 0)
(28.7046 -0.00202478 0)
(23.7981 -0.00269751 -6.21023e-20)
(23.8055 -0.00131024 6.21013e-20)
(28.733 -0.00111681 0)
(30.5725 0.00411845 0)
(30.5759 0.00110315 0)
(28.7241 -0.00335985 0)
(23.78 -0.0029007 -6.2102e-20)
(23.7837 -0.00150773 6.21012e-20)
(28.7467 -0.00241626 0)
(30.6069 0.000850564 0)
(30.6045 -0.00123093 0)
(28.7325 -0.00419007 0)
(23.7556 -0.00297077 -6.2102e-20)
(23.7569 -0.00158735 6.21015e-20)
(28.7508 -0.00326315 0)
(30.6306 -0.00146556 0)
(30.6238 -0.00297733 0)
(28.7328 -0.00478931 0)
(23.7272 -0.00299492 -6.21022e-20)
(23.7269 -0.00165036 6.21018e-20)
(28.7478 -0.00393442 0)
(30.646 -0.00320089 0)
(30.6357 -0.0042219 0)
(28.7269 -0.00515441 0)
(23.6962 -0.00295785 -6.21025e-20)
(23.6948 -0.00175576 6.21024e-20)
(28.7394 -0.00439022 0)
(30.6548 -0.0043419 0)
(30.6418 -0.00519261 0)
(28.7164 -0.00535817 0)
(23.6636 -0.00283823 -6.21031e-20)
(23.662 -0.00171926 6.2103e-20)
(28.7272 -0.00465442 0)
(30.6587 -0.00523138 0)
(30.6436 -0.00584582 0)
(28.7027 -0.00544043 0)
(23.6308 -0.00272057 -6.21038e-20)
(23.629 -0.0016046 6.21038e-20)
(28.7122 -0.0046907 0)
(30.6588 -0.00574545 0)
(30.6419 -0.00630713 0)
(28.6864 -0.00550015 0)
(23.5976 -0.00264781 -6.21044e-20)
(23.5962 -0.00153998 6.21044e-20)
(28.6952 -0.00473486 0)
(30.6559 -0.00617775 0)
(30.6378 -0.00670186 0)
(28.6686 -0.00551973 0)
(23.5651 -0.0025705 -6.21049e-20)
(23.5636 -0.00140655 6.21048e-20)
(28.6766 -0.00459444 0)
(30.6507 -0.006347 -6.88014e-19)
(30.6316 -0.00697503 0)
(28.6495 -0.00553301 0)
(23.5326 -0.00252085 -6.21055e-20)
(23.5321 -0.00135187 6.21054e-20)
(28.6576 -0.00467044 0)
(30.6442 -0.0066301 0)
(30.6244 -0.00658424 0)
(28.63 -0.00522208 0)
(23.5011 -0.00238988 -6.21062e-20)
(23.5 -0.00138856 6.21063e-20)
(28.6373 -0.00472632 0)
(30.636 -0.00668549 0)
(30.6156 -0.00680486 0)
(28.6095 -0.00508941 0)
(23.4694 -0.00228376 -6.2107e-20)
(23.4699 -0.00126571 6.21078e-20)
(28.6176 -0.00447034 0)
(30.6277 -0.0065212 0)
(30.6085 -0.00664214 0)
(28.5917 -0.00516844 0)
(23.4417 -0.00231739 -6.20774e-20)
(23.4428 -0.000915126 6.20154e-20)
(28.6004 -0.0034886 0)
(30.6212 -0.00482236 -6.86723e-19)
(30.6007 -0.00531439 -6.83709e-19)
(28.5731 -0.00453806 3.07392e-19)
(23.4133 -0.00212433 -5.54018e-19)
(23.4175 -0.000972141 0)
(28.585 -0.00291261 5.18274e-25)
(30.6201 -0.00326283 0)
(30.6062 -0.00120307 -6.67809e-19)
(28.5637 -0.00118783 9.95195e-20)
(23.3893 -0.000438246 0)
(23.4233 0.00176822 -9.6775e-19)
(28.5887 0.00199251 -4.42053e-25)
(30.635 0.00365275 -6.6593e-19)
(30.6307 0.0116026 0)
(28.5919 0.00651538 0)
(23.4168 0.00219337 9.04798e-19)
(23.4936 0.0121921 -2.4502e-19)
(28.6646 0.0226397 -4.01912e-18)
(30.697 0.0311936 -4.43546e-24)
(30.7533 0.0650195 5.11487e-18)
(28.7465 0.0495739 0)
(23.6392 0.0266656 -1.55983e-18)
(23.9297 0.0666248 -2.01068e-18)
(28.9442 0.0958346 1.59564e-17)
(30.9377 0.101786 4.13926e-23)
(31.4728 0.0674743 -3.71586e-17)
(29.7417 0.12901 1.04361e-18)
(25.0784 0.123931 0)
(24.8323 0.0639679 0)
(28.7929 0.127667 -8.8191e-19)
(30.5993 0.190905 7.39145e-19)
(31.7832 0.284045 -7.49172e-18)
(32.6543 0.13587 -4.2765e-22)
(33.1612 0.0309946 1.31345e-17)
(33.3346 0.00814248 -1.91336e-19)
(33.4406 0.0184676 -2.83227e-18)
(33.6502 0.0240338 2.83651e-18)
(33.7344 0.0193025 0)
(33.8267 0.0213259 0)
(33.8683 0.0199909 6.10558e-19)
(33.9038 0.021776 7.87785e-19)
(33.9117 0.0204003 -1.75606e-19)
(33.9007 0.0217221 8.90337e-19)
(33.8752 0.0197516 -1.44761e-18)
(33.8078 0.0198247 7.45406e-19)
(33.7379 0.0127209 0)
(33.5625 0.0114302 -1.27936e-17)
(33.4627 0.00543164 -1.48606e-17)
(33.3512 0.00616069 0)
(33.2153 0.018599 -5.28991e-19)
(32.9802 0.0103906 0)
(32.3792 -0.0279408 0)
(31.0831 -0.0704539 2.67815e-18)
(28.3752 -0.0667421 -6.93509e-18)
(24.9075 -0.0651822 0)
(17.7733 -0.0675951 -3.65636e-19)
(17.2137 -0.0665497 3.45057e-19)
(24.548 -0.125434 -8.53591e-18)
(28.0903 -0.0980577 2.00774e-17)
(27.786 -0.0977896 8.11793e-19)
(24.216 -0.0993168 2.6891e-18)
(16.7814 -0.0594618 -2.84061e-18)
(16.5033 -0.0305191 0)
(23.9955 -0.04837 -1.4399e-18)
(27.5981 -0.0655748 -3.70405e-18)
(27.5138 -0.0370138 0)
(23.9061 -0.0173311 9.46311e-19)
(16.2937 -0.0113764 0)
(16.2588 -0.00639784 0)
(23.8617 -0.00498158 2.22531e-19)
(27.4791 -0.0157188 -1.20503e-18)
(27.4407 -0.0099803 1.24547e-24)
(23.8235 -0.00968606 -2.22593e-19)
(16.1449 -0.00535631 0)
(16.1395 0.000586354 0)
(23.798 -0.0025548 0)
(27.4414 -0.00303486 -1.68568e-19)
(27.4457 0.00347928 0)
(23.8024 0.00196203 0)
(16.1453 0.000743687 0)
(16.1556 0.0011601 0)
(23.8114 0.00348218 0)
(27.4541 0.00570597 0)
(27.4637 0.00855321 0)
(23.8236 0.00494901 0)
(16.1694 0.0016343 0)
(16.1852 0.00144819 0)
(23.8386 0.0046235 0)
(27.4761 0.00786586 0)
(27.4876 0.00913654 0)
(23.8537 0.0052089 0)
(16.202 0.00168852 0)
(16.22 0.00154567 0)
(23.8705 0.00501131 0)
(27.5015 0.00866864 -1.68221e-19)
(27.5152 0.0102262 1.6855e-19)
(23.8876 0.00585127 0)
(16.2386 0.00186299 0)
(16.2579 0.0016739 0)
(23.9057 0.00537245 0)
(27.5301 0.00928793 0)
(27.5441 0.0102031 0)
(23.9236 0.00580843 0)
(16.2774 0.00186539 0)
(16.2978 0.00181197 0)
(23.9425 0.00570888 0)
(27.5597 0.00988201 0)
(27.5746 0.0112223 0)
(23.9614 0.00640705 0)
(16.3184 0.00209094 0)
(16.3394 0.00189624 0)
(23.981 0.00581791 0)
(27.5909 0.0101718 0)
(27.6059 0.0110774 0)
(23.9999 0.00633672 0)
(16.36 0.00210683 0)
(16.382 0.002063 0)
(24.0201 0.0062076 0)
(27.6225 0.0105945 0)
(27.6386 0.0120689 0)
(24.0404 0.0070091 0)
(16.4044 0.00236834 0)
(16.4262 0.00213843 0)
(24.0608 0.00643984 0)
(27.6555 0.0110132 0)
(27.6711 0.0117794 0)
(24.0805 0.00680413 0)
(16.4479 0.00229124 0)
(16.4705 0.00216424 0)
(24.1014 0.00652322 0)
(27.6883 0.0111396 0)
(27.705 0.0123201 0)
(24.1223 0.00714943 0)
(16.4938 0.00241188 0)
(16.5169 0.00213472 0)
(24.1438 0.0064607 0)
(27.7228 0.01114 0)
(27.7391 0.0119252 0)
(24.1643 0.00684616 0)
(16.5397 0.00230027 0)
(16.5631 0.00217651 0)
(24.1859 0.00659526 0)
(27.7568 0.0113507 0)
(27.774 0.0126547 0)
(24.2074 0.00733326 0)
(16.5872 0.00248614 0)
(16.611 0.00226689 0)
(24.2295 0.00677148 0)
(27.7923 0.0116026 0)
(27.8092 0.0124821 0)
(24.2506 0.00725426 0)
(16.6346 0.00247308 0)
(16.6588 0.00237985 0)
(24.2729 0.00709155 0)
(27.8276 0.0120116 0)
(27.8454 0.0132712 0)
(24.2949 0.00778603 0)
(16.6834 0.00265789 0)
(16.708 0.00240632 0)
(24.3177 0.00718717 0)
(27.8644 0.0122006 0)
(27.882 0.0129658 0)
(24.3396 0.00753879 0)
(16.7323 0.00255884 -1.44082e-19)
(16.7571 0.00242979 1.43937e-19)
(24.3625 0.0073245 0)
(27.9012 0.0124208 0)
(27.9198 0.0135366 0)
(24.3854 0.00790893 0)
(16.7824 0.00266837 0)
(16.8079 0.00245804 0)
(24.4089 0.00734328 0)
(27.9395 0.0125541 0)
(27.9579 0.0132948 0)
(24.4314 0.00768615 0)
(16.8327 0.00260147 0)
(16.8585 0.00248171 0)
(24.4552 0.00748355 0)
(27.978 0.0127859 0)
(27.9975 0.0139328 0)
(24.4789 0.00807508 0)
(16.8844 0.00270804 0)
(16.9104 0.00250105 0)
(24.5031 0.00751016 0)
(28.0182 0.0129586 0)
(28.0378 0.013665 0)
(24.5267 0.00777603 0)
(16.9358 0.0025861 0)
(16.9617 0.00249578 0)
(24.5512 0.0076465 0)
(28.059 0.0132525 0)
(28.0796 0.0141088 0)
(24.5758 0.00803938 0)
(16.9878 0.00264763 0)
(17.014 0.00239746 0)
(24.6009 0.00737369 0)
(28.1017 0.0130835 0)
(28.1225 0.0139479 0)
(24.6251 0.00780991 0)
(17.0391 0.00256082 0)
(17.0648 0.00249939 0)
(24.6505 0.00776474 0)
(28.1451 0.0136477 0)
(28.1676 0.0149852 0)
(24.6762 0.00848776 0)
(17.0904 0.00272919 0)
(17.1157 0.00242483 0)
(24.7021 0.00769852 0)
(28.1916 0.0141541 0)
(28.2145 0.0144771 0)
(24.7278 0.00661754 0)
(17.1404 0.00196755 0)
(17.1657 0.00146793 0)
(24.7547 0.00606038 0)
(28.2391 0.0144451 0)
(28.2636 0.0157154 0)
(24.7817 0.00664491 0)
(17.1905 0.00158858 0)
(17.2156 0.00154569 0)
(24.8098 0.00647179 0)
(28.29 0.0152169 0)
(28.316 0.0162025 0)
(24.8377 0.00687916 0)
(17.2399 0.0016569 0)
(17.2648 0.00179616 0)
(24.867 0.00726812 0)
(28.344 0.0162039 0)
(28.3723 0.0175115 0)
(24.897 0.00854695 0)
(17.2893 0.00227738 0)
(17.3135 0.00214352 0)
(24.9278 0.00837133 0)
(28.4027 0.0168933 0)
(28.4328 0.0172256 0)
(24.9588 0.00731548 0)
(17.3369 0.00162419 0)
(17.3613 0.000767966 0)
(24.9915 0.00605372 0)
(28.4652 0.0166106 0)
(28.498 0.0174261 0)
(25.025 0.00628459 0)
(17.3849 0.0007627 0)
(17.4078 0.000518668 0)
(25.0596 0.00584007 0)
(28.5331 0.0168519 0)
(28.5684 0.0179517 0)
(25.0945 0.00611635 0)
(17.4293 0.000426669 0)
(17.451 9.92496e-05 0)
(25.1313 0.00600207 0)
(28.6064 0.0180982 0)
(28.6453 0.0196579 0)
(25.1693 0.00637685 0)
(17.4722 -5.41533e-05 0)
(17.4924 -0.000339158 0)
(25.209 0.00607374 0)
(28.687 0.0194094 0)
(28.7294 0.0206433 0)
(25.2498 0.00633458 0)
(17.5119 -0.000475177 0)
(17.5316 -0.000705715 0)
(25.2933 0.00647081 0)
(28.7753 0.0210766 0)
(28.8229 0.023172 0)
(25.3389 0.00731516 0)
(17.5515 -0.000629316 0)
(17.5708 -0.000702128 0)
(25.3868 0.00769707 0)
(28.8738 0.0239286 0)
(28.9263 0.0261454 0)
(25.437 0.00852872 0)
(17.5903 -0.000620916 0)
(17.6107 -0.000901892 0)
(25.4908 0.00887913 0)
(28.9832 0.0270228 0)
(29.0427 0.0292291 0)
(25.5484 0.00964024 0)
(17.6331 -0.00096916 0)
(17.6569 -0.00115387 0)
(25.6098 0.00982813 0)
(29.1063 0.0304949 0)
(29.1722 0.033109 0)
(25.6743 0.0104455 0)
(17.6824 -0.00120303 0)
(17.7125 -0.00152862 0)
(25.7449 0.0108687 0)
(29.2435 0.0344462 0)
(29.3187 0.0377994 0)
(25.821 0.0123583 0)
(17.748 -0.00123353 0)
(17.7891 -7.41161e-05 0)
(25.9036 0.0153436 0)
(29.3988 0.0407753 0)
(29.4835 0.0466628 0)
(25.9913 0.0223311 0)
(17.8353 0.0025525 0)
(17.8895 0.00292992 0)
(26.0866 0.0237064 0)
(29.5747 0.0505056 0)
(29.6698 0.0550266 0)
(26.1904 0.0216047 0)
(17.9561 0.00118016 0)
(18.0369 0.00208244 0)
(26.3041 0.0240931 0)
(29.7712 0.0600616 0)
(29.8781 0.0670451 0)
(26.4271 0.0290535 0)
(18.1313 0.00481868 0)
(18.2434 0.00978747 0)
(26.5633 0.0420391 0)
(29.9948 0.0758447 1.67899e-19)
(30.119 0.0863355 -1.6822e-19)
(26.7094 0.0514726 0)
(18.3729 0.0139943 0)
(18.5256 0.0156273 0)
(26.8689 0.0543588 0)
(30.2504 0.0943176 0)
(30.3893 0.10226 0)
(27.0462 0.050697 0)
(18.7099 0.0137321 0)
(18.9286 0.0171943 0)
(27.2433 0.0572599 0)
(30.5391 0.114854 0)
(30.6991 0.1318 0)
(27.4592 0.0674976 0)
(19.1793 0.0236961 0)
(19.4767 0.0359796 0)
(27.7039 0.0888063 0)
(30.8773 0.153905 0)
(31.0857 0.184706 1.68086e-19)
(27.9894 0.114673 0)
(19.8441 0.0511949 0)
(20.3044 0.0810708 0)
(28.3181 0.146801 0)
(31.319 0.237332 -1.68615e-19)
(31.5498 0.350017 -2.70884e-18)
(28.658 0.260501 6.8204e-24)
(20.7666 0.178534 2.29269e-18)
(21.2055 0.245535 -9.11913e-18)
(28.9853 0.349806 -4.29593e-23)
(31.7568 0.465355 2.53664e-18)
(31.9219 0.628689 -2.52221e-18)
(29.2553 0.515213 -7.02524e-18)
(21.6306 0.38183 9.03381e-18)
(22.0013 0.545375 1.42577e-19)
(29.4069 0.699856 -7.00088e-18)
(32.0307 0.799571 5.33355e-18)
(32.1166 0.965757 -5.46452e-18)
(29.627 0.850497 0)
(22.3656 0.658035 0)
(22.7001 0.798659 1.80062e-17)
(29.7519 1.00841 -1.37491e-17)
(32.1838 1.12273 -5.09349e-18)
(32.2285 1.26968 0)
(29.8898 1.14632 -1.3605e-17)
(23.0731 0.918667 1.78739e-17)
(23.4663 1.04548 1.77415e-17)
(30.0248 1.29089 -4.22003e-19)
(32.2754 1.42173 0)
(32.2729 1.58401 0)
(30.1146 1.46989 4.226e-19)
(23.8187 1.20388 -5.53712e-19)
(24.1251 1.32031 -1.63593e-17)
(30.1986 1.6123 0)
(32.263 1.71912 0)
(32.2559 1.821 -1.02939e-17)
(30.2924 1.69825 1.35184e-17)
(24.4597 1.40292 -1.82872e-17)
(24.8222 1.51965 0)
(30.3823 1.819 1.65814e-18)
(32.2496 1.92861 0)
(32.2267 2.05387 -9.74354e-18)
(30.4555 1.94319 -1.64226e-18)
(25.1937 1.62658 -4.44141e-18)
(25.3971 1.70778 2.04831e-17)
(30.5086 2.11336 -3.46766e-17)
(32.1431 2.21914 2.41315e-17)
(31.9454 2.14 2.98727e-17)
(30.361 2.04187 -5.54754e-17)
(25.3836 1.58982 -2.03548e-17)
(20.2105 1.34354 -3.17191e-17)
(28.0133 1.65276 -3.11889e-18)
(30.898 1.54544 -1.59574e-17)
(31.6928 2.25271 -3.52845e-18)
(29.058 2.12956 4.69745e-18)
(21.4635 1.60638 -3.10596e-18)
(21.4752 1.71555 1.39671e-18)
(29.1677 2.3229 -2.11693e-18)
(31.7383 2.50699 -1.61018e-18)
(31.6894 2.63288 5.26096e-17)
(29.229 2.42476 -2.22848e-22)
(21.807 1.8137 -4.46599e-17)
(22.2237 1.9763 3.3342e-19)
(29.2395 2.56634 6.49097e-17)
(31.6073 2.75627 1.05874e-22)
(31.6238 2.85704 2.46422e-17)
(29.3966 2.65523 -3.1821e-17)
(22.7383 2.08371 4.17842e-17)
(23.3079 2.20673 -3.18287e-19)
(29.5136 2.74512 1.20806e-19)
(31.6129 2.95736 2.33431e-17)
(31.618 3.08893 -2.38859e-17)
(29.6783 2.89342 3.02548e-17)
(23.8469 2.36873 -3.09429e-19)
(24.3534 2.47682 6.17233e-19)
(29.7585 2.96234 2.82883e-17)
(31.5647 3.17434 -2.36277e-17)
(31.5498 3.28705 -1.80487e-17)
(29.8944 3.11388 -2.7238e-17)
(24.8569 2.64079 4.048e-17)
(25.3349 2.74337 -2.37167e-18)
(29.9977 3.20285 0)
(31.5106 3.37441 -2.62617e-18)
(31.458 3.52152 0)
(30.0819 3.37523 2.41249e-17)
(25.7457 2.86992 -6.88822e-17)
(25.8935 2.84095 5.08877e-17)
(30.0067 3.39601 0)
(31.2867 3.50629 -1.26532e-16)
(30.485 2.96768 1.06696e-17)
(28.2497 2.95936 -3.12985e-18)
(22.2793 2.49853 -3.7843e-18)
(23.6358 2.85297 0)
(29.212 3.42797 -2.30834e-18)
(31.1103 3.61148 -6.95439e-18)
(31.1302 3.81879 0)
(29.3306 3.57535 -3.20588e-17)
(23.9581 2.99501 4.23474e-17)
(24.4994 3.10797 6.33238e-19)
(29.532 3.66357 -9.6238e-19)
(31.1262 3.92748 0)
(31.092 4.07788 1.01631e-21)
(29.6146 3.87902 2.80075e-17)
(24.906 3.33291 -3.89016e-17)
(25.289 3.46842 3.45869e-17)
(29.6713 4.00108 3.49218e-18)
(31.0336 4.17584 0)
(30.9933 4.30662 1.98571e-17)
(29.7516 4.16468 -1.66705e-18)
(25.6811 3.61998 -2.24889e-18)
(25.8721 3.74844 4.10788e-18)
(29.7321 4.31347 0)
(30.8793 4.45437 -3.21895e-17)
(30.6442 4.40753 -3.70447e-18)
(29.6323 4.25034 2.28304e-18)
(25.9715 3.69551 4.60173e-17)
(22.9201 3.24875 0)
(28.0953 3.92215 -3.08505e-18)
(29.9444 4.23497 7.91401e-18)
(30.4035 4.62504 3.78705e-17)
(28.868 4.44706 -7.44967e-17)
(24.0539 3.77257 9.69574e-17)
(24.3172 3.9652 -4.36804e-17)
(28.9202 4.64326 -3.19073e-17)
(30.3051 4.82636 1.54642e-18)
(30.1607 4.98386 -2.38912e-17)
(28.9084 4.8366 -3.15671e-17)
(24.6872 4.19861 8.4146e-17)
(25.0486 4.36349 0)
(28.8668 4.9326 3.72964e-18)
(30.0116 5.10259 0)
(29.8555 5.25952 0)
(28.8858 5.0512 9.54671e-18)
(25.4516 4.52838 0)
(25.5691 4.66669 0)
(28.6954 5.25221 -1.97918e-17)
(29.5494 5.36858 0)
(28.9251 5.01391 -2.50618e-17)
(27.4047 4.95731 2.58426e-17)
(22.9123 4.35528 0)
(24.2047 4.69515 1.00945e-16)
(28.0641 5.27383 2.94753e-19)
(29.2638 5.50847 -1.78743e-18)
(29.1277 5.78476 -2.4452e-17)
(28.068 5.59835 3.24107e-17)
(24.5342 5.03353 -8.72389e-17)
(24.8683 5.21713 8.10364e-17)
(28.0173 5.73132 -5.99957e-17)
(28.9299 5.92195 -2.18095e-17)
(28.6907 6.14275 -3.46702e-17)
(27.9254 6.01273 8.85523e-17)
(25.0407 5.45883 -1.52758e-16)
(25.0114 5.54953 2.11411e-16)
(27.6041 6.12604 9.80101e-17)
(28.3244 6.21653 -2.57425e-21)
(27.7701 5.96244 -7.07708e-19)
(26.5564 5.8964 -8.23841e-19)
(22.7599 5.29538 -1.00532e-18)
(23.6856 5.85326 1.02197e-16)
(26.9245 6.48055 6.00168e-19)
(27.833 6.58029 0)
(27.4968 6.78705 9.76655e-17)
(26.6924 6.66976 -6.65132e-17)
(23.7874 6.09337 -2.45673e-18)
(24.0015 6.40275 2.48625e-18)
(26.4831 6.88396 0)
(27.1154 7.01516 -5.61217e-17)
(26.6015 7.17001 -3.37755e-17)
(26.0534 7.12736 0)
(23.8964 6.61038 3.31452e-18)
(22.0757 6.33591 -1.40228e-16)
(25.1259 6.90122 1.10001e-16)
(26.0314 7.02462 0)
(25.8639 7.62162 -5.78714e-17)
(25.188 7.56084 7.73123e-17)
(22.7928 7.09518 2.02165e-19)
(22.7569 7.34377 8.84987e-17)
(24.7977 7.6605 0)
(25.3416 7.76692 0)
(24.6762 8.0221 0)
(24.2559 8.05884 -5.40324e-17)
(22.5644 7.82534 1.55649e-16)
(22.0962 8.00366 0)
(23.5184 8.19427 0)
(23.8157 8.07724 -8.03629e-18)
(22.8318 8.4369 1.09652e-17)
(22.3497 8.29131 0)
(20.3949 7.97529 -1.32072e-16)
(20.3062 8.61839 -1.20731e-17)
(21.7481 8.77167 -1.32772e-16)
(22.1212 8.65318 1.86591e-21)
(20.8638 8.58538 -4.65491e-18)
(20.6514 8.87765 5.91884e-18)
(19.4616 8.82497 1.87923e-17)
(17.6963 8.69627 -4.51064e-18)
(19.1134 8.9649 -1.47314e-17)
(19.4443 9.12593 1.79538e-17)
(18.3461 8.86773 -8.52743e-17)
(17.9416 9.21892 1.22602e-16)
(16.974 9.42757 -1.2424e-17)
(15.3065 9.40339 2.46759e-16)
(15.998 8.82488 -1.52633e-16)
(16.3258 8.12253 0)
(13.3838 8.18993 -7.22806e-17)
(12.9514 8.68102 -1.20296e-17)
(12.1199 9.13118 0)
(9.31008 7.72812 0)
(9.92495 6.85748 1.78629e-17)
(10.7044 5.87934 -9.02984e-18)
(7.33286 3.94285 -1.32499e-16)
(5.87131 4.90623 3.63381e-16)
(4.96416 5.15663 -2.44743e-16)
(1.89493 0.808849 1.99182e-16)
(3.16372 -0.219018 -2.70651e-16)
(5.08247 -1.14581 1.83597e-16)
(3.76976 -9.54411 0)
(1.55797 -9.57211 -4.39412e-17)
(-0.182543 -9.83212 1.27279e-16)
(3.37766 -18.2984 -9.60436e-19)
(5.06813 -17.3012 4.64732e-17)
(6.51329 -16.544 -3.20315e-17)