/*--------------------------------*- C++ -*----------------------------------*\
| =========                 |                                                 |
| \\      /  F ield         | OpenFOAM: The Open Source CFD Toolbox           |
|  \\    /   O peration     | Version:  v2006                                 |
|   \\  /    A nd           | Website:  www.openfoam.com                      |
|    \\/     M anipulation  |                                                 |
\*---------------------------------------------------------------------------*/
FoamFile
{
    version     2.0;
    format      ascii;
    class       volScalarField;
    location    "0.036";
    object      yPlus;
}
// * * * * * * * * * * * * * * * * * * * * * * * * * * * * * * * * * * * * * //

dimensions      [0 0 0 0 0 0 0];


internalField   uniform 0;

boundaryField
{
    bottomEmptyFaces
    {
        type            empty;
    }
    topEmptyFaces
    {
        type            empty;
    }
    inlet
    {
        type            calculated;
        value           uniform 0;
    }
    outlet
    {
        type            calculated;
        value           uniform 0;
    }
    walls
    {
        type            calculated;
        value           nonuniform List<scalar> 
1055
(
30.3972
29.651
28.97
28.3494
27.7863
27.2707
26.8082
26.3958
26.0335
25.7117
25.4269
25.1727
24.9511
24.7575
24.5935
24.4524
24.334
24.2318
24.1467
24.074
24.0157
23.9674
23.9305
23.9004
23.8784
23.8615
23.8503
23.8415
23.8361
23.8319
23.8312
23.8301
23.8315
23.8342
23.8376
23.8421
23.8466
23.8515
23.8552
23.8592
23.8612
23.8637
23.8634
23.8643
23.8619
23.8613
23.8569
23.855
23.8496
23.8468
23.8407
23.837
23.8303
23.8257
23.8182
23.8128
23.805
23.7991
23.7912
23.7849
23.7769
23.7705
23.7622
23.7555
23.7471
23.7404
23.7318
23.725
23.7164
23.7098
23.7014
23.695
23.6869
23.6808
23.6731
23.6675
23.6601
23.6549
23.6481
23.6435
23.6371
23.6333
23.6274
23.6243
23.6189
23.6166
23.612
23.6104
23.6065
23.6056
23.6027
23.6023
23.6004
23.6006
23.5999
23.6006
23.6009
23.6022
23.6036
23.6053
23.6075
23.6099
23.6126
23.6158
23.619
23.6231
23.6268
23.6315
23.6357
23.6411
23.6458
23.6516
23.6567
23.663
23.6686
23.6753
23.6811
23.6882
23.6944
23.7018
23.7082
23.7159
23.7226
23.7305
23.7374
23.7456
23.7527
23.761
23.7684
23.7769
23.7844
23.7931
23.8008
23.8095
23.8174
23.8262
23.8342
23.8431
23.8512
23.8602
23.8684
23.8774
23.8856
23.8947
23.9029
23.912
23.9202
23.9293
23.9375
23.9465
23.9547
23.9637
23.9719
23.9809
23.9891
23.998
24.0061
24.015
24.0231
24.0321
24.0401
24.0491
24.0571
24.0661
24.0741
24.0831
24.0911
24.1001
24.1081
24.1172
24.1252
24.1343
24.1422
24.1512
24.1591
24.168
24.1757
24.1846
24.1921
24.2008
24.2079
24.2249
24.2238
24.2244
24.2389
24.2481
24.2536
24.2797
24.2887
24.3164
24.2758
24.2158
23.9991
24.1581
24.5676
8.48271
7.18236
6.57273
11.4012
10.5783
9.67804
7.9906
18.2612
13.3591
11.5839
11.4897
12.6722
9.4233
8.01773
12.5082
11.3844
13.6563
13.6324
10.723
9.20643
9.77015
9.65288
8.53812
7.37202
10.1499
9.91587
8.84936
7.49848
9.13946
7.61251
8.62283
7.39804
9.59952
10.0814
8.54718
7.40992
8.35993
7.29265
8.34887
7.28382
6.51757
10.4447
10.9369
9.73593
10.6124
9.4798
10.3974
9.21919
9.97274
9.24523
10.1095
10.1259
10.5474
9.32772
10.2179
11.5833
8.50685
8.82673
8.98804
9.74437
10.3264
10.7764
11.8966
8.6646
9.05651
9.59307
10.386
8.35254
9.01605
10.025
7.37558
7.63441
8.80246
9.06321
10.189
7.48947
7.77693
8.01935
8.49467
9.16291
9.53115
8.16244
8.71069
8.42109
9.14438
8.66779
9.38832
8.3348
8.91548
10.7785
9.39872
9.77622
7.82779
8.18153
10.5689
7.7231
8.08085
10.4209
9.1036
9.40817
8.29629
9.00836
7.9673
8.55025
7.48722
7.8935
9.88016
10.292
11.4047
8.33313
8.72476
8.84915
9.72451
11.0575
8.05018
8.37863
8.66889
9.29292
9.13656
9.95056
9.6434
10.0993
8.9672
9.73767
8.65738
9.55197
8.53686
9.1935
9.46557
9.83413
10.8579
7.90072
8.29137
8.6623
9.39582
9.12949
9.97446
8.82172
9.59676
8.69791
9.09481
7.87164
7.70541
7.33372
7.03641
9.57026
7.4383
7.86443
8.34635
8.53171
9.43634
6.94325
7.18277
8.38711
8.59839
9.73213
7.13721
7.42099
7.60541
8.04051
8.15334
8.25809
7.03647
7.25134
7.97851
7.98965
7.81549
7.7928
9.1586
6.84484
7.01748
9.21209
7.88138
7.93882
6.79299
7.02109
9.06661
7.35235
7.03389
9.00633
7.77765
7.7364
8.68426
6.6383
6.72061
7.83252
7.76023
6.71564
6.73654
6.71258
6.82262
9.22088
7.96593
8.0462
9.30386
6.94903
7.11106
6.79786
7.05836
8.99229
8.8075
7.40338
6.95972
8.32025
7.02251
6.53693
8.38557
7.09319
6.55393
8.43893
7.17087
6.55666
8.32704
6.99404
6.49419
8.08641
6.49906
6.27158
8.30105
6.82346
6.43225
7.79703
7.43577
8.4058
7.73397
7.52561
6.56253
6.47968
8.7517
8.66742
7.26375
6.8735
7.39342
6.94269
7.10193
6.81598
8.95534
7.22407
6.9254
8.58181
6.67584
6.69196
8.73302
8.95855
10.0776
7.414
7.69208
9.89506
7.1685
7.50726
8.58478
8.82462
7.77405
8.27871
7.86966
8.34633
8.71471
9.03269
8.04498
8.57431
13.2261
11.3561
8.65242
11.2578
8.33552
11.6863
9.72172
7.01645
10.6687
10.3516
7.15826
12.2452
9.98681
26.1643
24.629
8.22991
8.82024
6.13767
25.2564
21.1907
21.2026
20.3896
10.3646
20.1333
8.86127
25.4124
7.71186
20.6709
8.95906
6.14826
20.1434
21.4345
20.8958
10.7152
9.58116
8.45268
7.44203
8.3171
5.98707
28.062
26.4974
21.8313
21.3806
22.113
21.5509
25.1049
22.0475
20.8909
27.1442
23.3091
22.4547
9.9887
8.99702
8.47085
7.98871
7.33759
8.50534
6.07055
10.5208
9.68166
9.11136
8.60948
8.21654
7.67044
6.95209
7.83811
5.74529
9.6808
8.93642
8.49997
8.13327
7.82522
7.52908
7.27781
7.04838
6.92189
6.77178
6.40653
7.78125
5.38089
9.82235
9.28681
8.98086
8.80802
8.60477
13.9786
8.38059
8.20486
8.06584
7.91419
7.8187
10.968
12.0079
7.6753
12.0619
12.5066
10.3966
11.223
13.4741
11.6611
12.1852
9.74055
10.2669
10.6727
11.7076
7.58424
7.54491
7.42661
7.30299
7.20836
7.12682
7.05794
7.00076
14.755
10.6244
11.1167
12.6159
13.185
11.6015
12.7155
6.95023
6.91011
6.87821
6.85685
6.83518
6.81782
6.80621
6.79593
13.5542
14.1584
12.3814
13.4754
6.79055
6.78065
6.77725
6.77467
6.76804
6.76202
6.76094
6.75968
13.8106
14.2632
13.2408
14.3794
12.6052
13.6056
16.1183
11.6993
12.2902
6.75371
15.8062
6.74742
6.74559
11.4098
12.0109
6.74062
6.73771
12.3092
13.1902
6.72766
6.72402
6.71768
15.232
11.8141
12.9067
13.0582
13.5756
11.836
12.807
11.0284
11.5822
11.4102
12.3165
11.2862
12.3061
12.1827
12.6613
11.0775
12.192
14.1451
10.2528
10.7178
10.91
11.7818
14.43
11.138
12.0539
10.3855
11.0359
12.3948
12.9195
10.8
11.6711
10.18
10.6889
19.208
14.3605
14.9445
6.71323
6.70287
6.69803
6.69344
20.6778
6.68287
6.6736
6.6677
20.0202
6.6628
14.5581
15.4464
17.3297
17.3923
19.8409
16.8879
17.2516
14.6375
15.3196
16.708
16.9816
6.65204
6.64257
6.63649
6.63147
6.62083
6.61113
6.60496
6.59977
6.58911
6.57935
6.57294
6.56744
6.55679
6.54701
6.54079
15.4339
6.53541
15.7248
16.253
16.7826
14.4225
15.4046
18.2113
13.1208
13.9298
6.52505
6.51536
6.50953
6.50426
6.49434
6.48468
6.47941
6.47188
17.4727
13.9979
14.9654
12.9096
13.6465
13.3446
14.2776
17.0985
14.6292
15.1881
12.2408
13.0447
14.8149
15.4487
18.3953
15.7153
16.2081
13.3043
14.0613
19.2502
19.0516
13.9765
14.6093
16.2964
16.5022
16.1417
16.6128
6.46665
14.1452
6.45511
14.8861
6.45013
6.44279
6.4378
6.42651
6.42176
6.41466
21.3898
6.40991
6.39899
15.9164
16.5824
6.39446
6.38789
6.38314
6.37284
6.36817
22.2077
6.36449
21.8977
18.1242
17.8986
18.7308
18.9082
19.8164
19.9332
23.5249
6.35569
18.8469
6.34997
18.6741
6.34152
6.34024
6.33232
22.7339
6.32692
6.32188
18.7668
18.4734
6.31461
22.9522
17.8706
18.4412
16.7972
17.4254
18.0606
18.3386
15.4914
16.1966
6.31301
6.30722
6.31064
6.37347
6.41675
6.51525
6.78026
7.13052
29.3105
25.9518
30.2224
23.7603
22.1004
29.9654
27.2215
26.9689
23.3658
22.1354
9.91031
10.7681
33.2274
32.0719
30.8721
33.1191
25.6106
23.4529
30.8397
26.7005
25.3963
23.1919
12.5338
30.3846
9.97991
10.9175
10.8472
11.2653
28.853
35.3683
27.3718
25.6465
10.2487
11.2118
10.0414
11.0094
35.6534
12.8196
11.1196
11.589
9.328
9.76203
36.2179
9.78838
10.5703
9.10781
9.58606
36.6237
36.6806
36.8378
36.564
35.8133
13.1565
34.8747
10.7549
11.7144
10.4505
11.4966
10.2416
11.0534
9.49363
10.0357
10.4158
11.3866
11.3381
11.7806
10.2111
11.1313
33.9178
32.9705
32.0595
31.2014
9.58975
10.5279
12.0228
8.81364
9.12447
9.322
10.0933
9.78924
10.7262
25.0501
7.57391
36.4686
33.1907
30.9991
29.529
28.4194
27.3869
26.6551
25.9449
25.5482
25.0728
24.7893
24.4206
24.207
23.9065
23.7385
23.4841
23.3459
23.1226
23.0046
22.8033
22.6997
22.5143
22.4209
22.2472
22.161
21.9962
21.9154
21.7574
21.6805
21.5279
21.454
21.3057
21.234
21.0891
21.0191
20.8769
20.8081
20.6682
20.6003
20.4621
20.3949
20.258
20.191
20.055
19.9881
19.8524
19.7853
19.6496
19.582
19.4459
19.3776
19.2407
19.1714
19.0333
18.9627
18.8231
18.7512
18.6098
18.5362
18.3927
18.3174
18.1715
18.0943
17.9459
17.8668
17.7156
17.6347
17.4808
17.398
17.2414
17.1571
16.9979
16.9122
16.7506
16.6641
16.5006
16.4138
16.249
16.1627
15.9975
15.9129
15.7484
15.6668
15.5047
15.4277
15.2698
15.1997
15.0482
14.9876
14.845
14.7973
14.6672
14.6342
14.5235
14.5052
14.4171
14.4146
14.3566
14.3668
14.3419
14.3645
14.3571
14.4087
14.4168
14.4957
14.5196
14.6214
14.657
14.7742
14.8183
14.946
14.9963
15.1316
15.186
15.3254
15.3812
15.5208
15.5763
15.7131
15.7665
15.8975
15.9475
16.0703
16.1157
16.2286
16.2688
16.3701
16.4043
16.4928
16.5206
16.596
16.6173
16.68
16.6952
16.7461
16.7557
16.7959
16.8006
16.8316
16.8322
16.8544
16.8522
16.8677
16.8634
16.8734
16.8672
16.8736
16.8648
16.8691
16.856
16.8593
16.8436
16.8461
16.8283
16.8303
16.8109
16.8124
16.7917
16.7929
16.7711
16.772
16.7491
16.7497
16.7259
16.7263
16.6996
16.706
16.6733
16.6827
16.6377
16.7121
16.741
16.9432
17.2245
18.2683
20.9047
18.9341
39.937
)
;
    }
    rightWall
    {
        type            calculated;
        value           uniform 0;
    }
    symmetryLine
    {
        type            symmetryPlane;
    }
}


// ************************************************************************* //
