/*--------------------------------*- C++ -*----------------------------------*\
| =========                 |                                                 |
| \\      /  F ield         | OpenFOAM: The Open Source CFD Toolbox           |
|  \\    /   O peration     | Version:  v2006                                 |
|   \\  /    A nd           | Website:  www.openfoam.com                      |
|    \\/     M anipulation  |                                                 |
\*---------------------------------------------------------------------------*/
FoamFile
{
    version     2.0;
    format      ascii;
    class       volScalarField;
    location    "0.026";
    object      nut;
}
// * * * * * * * * * * * * * * * * * * * * * * * * * * * * * * * * * * * * * //

dimensions      [0 2 -1 0 0 0 0];


internalField   nonuniform List<scalar> 
10108
(
30.8438
70.3495
58.4083
41.6496
37.8845
14.1745
3.5855
1.39254
0.776897
0.553728
0.454657
0.401507
0.366295
0.33833
0.314037
0.292495
0.273541
0.25707
0.242856
0.230594
0.21996
0.210667
0.202481
0.195224
0.188758
0.182981
0.177818
0.173204
0.169091
0.165446
0.162226
0.159396
0.156952
0.154886
0.153165
0.151792
0.150793
0.150148
0.149846
0.149906
0.150345
0.15118
0.152435
0.154146
0.156364
0.159159
0.162622
0.166867
0.172014
0.178172
0.185402
0.193697
0.203057
0.213865
0.227735
0.249762
0.293343
0.392644
0.640335
1.29451
2.81118
4.39471
3.5499
4.50491
1.46824
0.662841
0.343593
0.189215
0.0881049
0.0181048
0.0033426
0.00011213
9.69769e-05
0.00164143
0.00718886
0.00458115
0.00120194
8.69843e-05
7.82059e-05
0.00104914
0.00368676
0.00314791
0.000954919
7.35224e-05
6.84922e-05
0.00087118
0.00280883
0.00253909
0.000821978
6.51531e-05
6.23633e-05
0.000778934
0.00238858
0.00222812
0.000744871
5.99827e-05
5.84368e-05
0.000730486
0.00215084
0.00203344
0.000702193
5.68083e-05
5.57912e-05
0.000694413
0.00199053
0.0019035
0.000671613
5.45597e-05
5.38357e-05
0.000666696
0.00187248
0.00180207
0.00064764
5.28735e-05
5.23258e-05
0.000643988
0.0017783
0.00171852
0.000627754
5.15534e-05
5.11184e-05
0.000624597
0.00169976
0.00164752
0.000610566
5.04697e-05
5.01095e-05
0.000607754
0.00163236
0.00158579
0.000595334
4.95511e-05
4.9245e-05
0.000592814
0.00157325
0.00153127
0.000581633
4.87526e-05
4.84855e-05
0.00057933
0.00152044
0.00148241
0.00056911
4.80421e-05
4.78037e-05
0.000567008
0.0014729
0.0014381
0.000557567
4.7398e-05
4.71815e-05
0.000555648
0.00142965
0.00139753
0.000546844
4.68052e-05
4.66057e-05
0.000545091
0.00138996
0.00136011
0.000536815
4.62528e-05
4.6067e-05
0.000535209
0.00135326
0.00132532
0.000527373
4.57329e-05
4.5558e-05
0.000525896
0.00131912
0.00129278
0.000518428
4.52391e-05
4.5073e-05
0.000517064
0.00128715
0.00126224
0.000509907
4.47664e-05
4.46073e-05
0.00050865
0.00125712
0.00123347
0.000501761
4.43105e-05
4.41569e-05
0.000500601
0.00122879
0.00120627
0.000493943
4.38678e-05
4.37188e-05
0.00049287
0.00120196
0.00118043
0.000486408
4.34358e-05
4.32902e-05
0.000485414
0.00117644
0.00115579
0.000479116
4.30117e-05
4.28689e-05
0.000478192
0.00115207
0.0011322
0.000472026
4.25934e-05
4.24525e-05
0.000471162
0.00112869
0.00110951
0.000465102
4.21788e-05
4.20392e-05
0.000464287
0.00110618
0.0010876
0.000458304
4.17657e-05
4.16267e-05
0.000457529
0.00108442
0.00106636
0.000451599
4.13524e-05
4.12133e-05
0.000450857
0.00106329
0.00104568
0.000444955
4.09368e-05
4.07969e-05
0.000444237
0.00104269
0.00102547
0.00043834
4.0517e-05
4.03758e-05
0.00043764
0.00102252
0.00100562
0.000431726
4.0091e-05
3.99478e-05
0.000431039
0.0010027
0.000986068
0.000425089
3.9657e-05
3.9511e-05
0.000424414
0.000983142
0.000966734
0.000418409
3.92127e-05
3.90633e-05
0.000417738
0.00096379
0.000947562
0.000411667
3.87564e-05
3.8603e-05
0.000410985
0.000944581
0.000928491
0.000404842
3.82862e-05
3.81284e-05
0.000404155
0.000925459
0.000909474
0.000397926
3.78004e-05
3.76379e-05
0.000397231
0.000906379
0.000890466
0.000390902
3.72975e-05
3.71298e-05
0.000390197
0.000887299
0.000871432
0.000383756
3.67756e-05
3.66022e-05
0.000383045
0.00086819
0.000852352
0.000376483
3.6233e-05
3.60536e-05
0.000375776
0.00084904
0.000833224
0.000369089
3.5668e-05
3.54824e-05
0.000368403
0.00082996
0.000814113
0.000361599
3.50793e-05
3.48875e-05
0.000360958
0.000810927
0.000795046
0.00035405
3.44664e-05
3.42681e-05
0.000353466
0.000791999
0.000776113
0.000346523
3.38292e-05
3.36245e-05
0.000346002
0.000773329
0.000757507
0.000339105
3.31683e-05
3.29584e-05
0.000338672
0.000755131
0.000739457
0.000331883
3.24865e-05
3.22733e-05
0.000331602
0.000737669
0.000722279
0.000325013
3.17882e-05
3.15746e-05
0.000324958
0.000721067
0.000706264
0.000318663
3.10804e-05
3.08702e-05
0.000318941
0.000706004
0.000691995
0.000313068
3.03731e-05
3.01715e-05
0.000313791
0.000692955
0.000679911
0.000308475
2.96798e-05
2.94928e-05
0.000309744
0.000682358
0.000670508
0.000305105
2.9016e-05
2.88501e-05
0.000307004
0.000674689
0.000664204
0.000303127
2.83979e-05
2.82575e-05
0.00030571
0.000670327
0.000661335
0.000302644
2.78388e-05
2.77269e-05
0.000305873
0.000669389
0.000662185
0.000303559
2.73484e-05
2.72648e-05
0.000307292
0.000671805
0.000666257
0.000305565
2.69294e-05
2.68664e-05
0.000309582
0.000677114
0.000673027
0.000308309
2.65772e-05
2.65174e-05
0.000312276
0.000684516
0.000681412
0.000310309
2.63048e-05
2.62267e-05
0.000313689
0.000692546
0.000689597
0.00031084
2.60447e-05
2.59395e-05
0.000313877
0.000700593
0.000697343
0.000310732
2.57705e-05
2.56539e-05
0.000313441
0.000707754
0.000703783
0.000310099
2.54885e-05
2.53729e-05
0.000312417
0.000713258
0.000708467
0.000308961
2.52175e-05
2.51074e-05
0.000310807
0.000716875
0.000711237
0.000307267
2.49628e-05
2.48588e-05
0.000308699
0.000718658
0.000712347
0.000305163
2.47241e-05
2.46255e-05
0.000306288
0.000718938
0.000712026
0.00030277
2.44999e-05
2.44124e-05
0.000303618
0.000717829
0.000710553
0.000300167
2.42977e-05
2.42161e-05
0.000300785
0.000715494
0.000708151
0.000297437
2.41103e-05
2.40451e-05
0.000297878
0.00071228
0.000704867
0.000294671
2.39269e-05
2.38759e-05
0.000294992
0.000708432
0.000701003
0.000291886
2.37547e-05
2.37187e-05
0.000292127
0.000704063
0.000696694
0.000289454
2.35683e-05
2.36796e-05
0.00029023
0.000700134
0.000699471
0.000288801
2.3593e-05
2.41448e-05
0.000293644
0.000709584
0.000717947
0.000296091
2.41021e-05
2.45123e-05
0.000293025
0.000710808
0.000737862
0.000305831
2.45838e-05
3.14596e-05
0.000304955
0.000743697
0.00203644
0.00388786
0.00604303
0.00847587
0.0108101
0.0135121
0.0160161
0.0183793
0.0203884
0.0220316
0.0231838
0.0237906
0.0237775
0.023107
0.0218203
0.0199335
0.0176578
0.0150499
0.0125687
0.00977188
0.00678327
0.00448012
0.00318245
0.0014789
0.000417724
0.000177989
2.147e-05
1.47318e-05
0.000165974
0.000358807
0.000107388
4.18938e-05
9.84757e-06
1.16296e-05
0.000105269
0.000276706
0.000256022
9.47692e-05
1.22925e-05
1.23828e-05
0.000106293
0.000284309
0.000264595
9.7284e-05
1.22555e-05
1.22708e-05
0.000101887
0.000275323
0.000263078
9.61488e-05
1.21679e-05
1.22358e-05
0.000101793
0.000275177
0.000266368
9.71035e-05
1.21068e-05
1.22273e-05
0.00010208
0.000280482
0.000271544
9.80018e-05
1.22101e-05
1.23423e-05
0.000103755
0.000286432
0.000278265
0.000100104
1.23137e-05
1.2438e-05
0.000105631
0.000293129
0.00028476
0.000101907
1.24185e-05
1.25486e-05
0.000107617
0.000300114
0.000291576
0.000103815
1.25286e-05
1.26644e-05
0.000109721
0.000307508
0.000298779
0.00010583
1.2644e-05
1.27861e-05
0.000111934
0.000315216
0.000306277
0.000107955
1.27651e-05
1.29135e-05
0.000114282
0.000323398
0.000314165
0.000110204
1.28918e-05
1.30472e-05
0.000116747
0.000331935
0.000322504
0.000112563
1.30255e-05
1.31879e-05
0.000119357
0.000340929
0.000331227
0.000115062
1.31659e-05
1.33356e-05
0.000122094
0.000350372
0.000340448
0.000117676
1.33132e-05
1.34905e-05
0.000124975
0.000360329
0.000350105
0.000120424
1.34674e-05
1.36524e-05
0.000127968
0.000370774
0.000360274
0.000123264
1.36282e-05
1.38213e-05
0.000131056
0.000381717
0.00037091
0.000126171
1.37956e-05
1.39982e-05
0.000134168
0.000393042
0.000381728
0.000129058
1.39713e-05
1.41882e-05
0.000137235
0.000404817
0.000392995
0.000131818
1.41617e-05
1.4409e-05
0.000140183
0.00041723
0.00040513
0.00013442
1.43927e-05
1.46843e-05
0.000143342
0.000431937
0.000420717
0.000137484
1.47182e-05
1.50753e-05
0.00014807
0.000452107
0.000443408
0.000143182
1.51377e-05
1.55055e-05
0.00015824
0.000484025
0.000474913
0.000153286
1.54636e-05
1.57939e-05
0.000170658
0.000522172
0.000509996
0.000163997
1.57707e-05
1.637e-05
0.00018296
0.000563054
0.00055341
0.000181071
1.65311e-05
1.71044e-05
0.00019523
0.000605126
0.000603388
0.000201006
1.75257e-05
1.82641e-05
0.000217752
0.000656664
0.000652816
0.000215694
1.87821e-05
2.01491e-05
0.000240409
0.000718815
0.000713147
0.000234064
2.15077e-05
2.4869e-05
0.000264722
0.000780642
0.000795716
0.000269458
2.8085e-05
3.52044e-05
0.000329112
0.000889523
0.000888942
0.000395268
2.78225e-05
1.5385e-05
8.70309e-05
0.000291755
0.000810833
0.000274357
2.22102e-05
2.60375e-05
0.00026812
0.000823324
0.00102743
0.000352259
3.22345e-05
3.64542e-05
0.00037055
0.00107255
0.00122412
0.00043278
4.52543e-05
5.56192e-05
0.000496878
0.00135091
0.00135427
0.00057865
4.7166e-05
2.30463e-05
0.000141557
0.000483258
0.00120539
0.000440659
4.0425e-05
5.10033e-05
0.000433497
0.00125963
0.00153599
0.000546472
7.37114e-05
6.22234e-05
0.000649608
0.00162651
0.000678802
0.000211252
3.04526e-05
6.5176e-05
0.000625565
0.00169299
0.00216276
0.000794993
9.17077e-05
9.14826e-05
0.000942091
0.00236616
0.00181717
0.000799059
7.43534e-05
8.96275e-05
0.000905895
0.00127276
0.00107388
0.000684042
7.06548e-05
5.62467e-05
0.000710621
0.00156559
0.00289253
0.00141196
8.74953e-05
6.11415e-05
0.00026796
0.000747221
0.00131674
0.000565247
6.3472e-05
6.68314e-05
0.000445775
0.00111432
0.000340905
0.000126918
3.44943e-05
4.0673e-05
0.000375767
0.000760452
0.000709179
0.000321515
4.61881e-05
2.60995e-05
0.000103839
0.000257307
0.000615973
0.000316472
3.21827e-05
3.71115e-05
0.000267032
0.000573083
0.000212174
9.13103e-05
2.24918e-05
2.74939e-05
0.000276823
0.000529024
0.000493836
0.000235444
3.24094e-05
2.00445e-05
8.16976e-05
0.000184682
0.00046662
0.000245614
2.44138e-05
2.88483e-05
0.000207463
0.000432389
0.000162566
7.37147e-05
1.84652e-05
2.21839e-05
0.000220545
0.000417982
0.000386552
0.000187814
2.66124e-05
1.7497e-05
6.81869e-05
0.000146908
0.000378536
0.000199493
2.04807e-05
2.4754e-05
0.000169531
0.000344326
0.000132957
6.36289e-05
1.66543e-05
1.91318e-05
0.000181139
0.000342745
0.000310883
0.000156152
2.32606e-05
1.59156e-05
5.98224e-05
0.000121404
0.000309621
0.000164703
1.79391e-05
2.19585e-05
0.000142333
0.000279325
0.000111243
5.58827e-05
1.5336e-05
1.68258e-05
0.000149801
0.000278722
0.00025299
0.000129495
2.05501e-05
1.47884e-05
5.14655e-05
0.000101634
0.000247722
0.000136181
1.54426e-05
1.8923e-05
0.000115182
0.000222328
8.86664e-05
4.42308e-05
1.40458e-05
1.36959e-05
0.000136982
0.000194357
0.000103419
5.76742e-05
1.56251e-05
1.62848e-05
0.000134609
0.000251015
0.000216806
0.00011307
1.94234e-05
1.41305e-05
4.71786e-05
9.05059e-05
0.000204193
0.000115843
1.42026e-05
1.76362e-05
0.000101049
0.00018399
7.90759e-05
4.0694e-05
1.33509e-05
1.26006e-05
0.000115116
0.000161944
8.97163e-05
5.20681e-05
1.50274e-05
1.48738e-05
0.000117936
0.000211847
0.000182283
9.95229e-05
1.78415e-05
1.31971e-05
4.23928e-05
8.0844e-05
0.000160271
0.00010883
1.26419e-05
1.47651e-05
5.31533e-05
9.03276e-05
0.000207118
0.000115789
1.43866e-05
1.74524e-05
9.7385e-05
0.000176525
7.86256e-05
4.14701e-05
1.30646e-05
1.23189e-05
0.00010685
0.000152006
8.80645e-05
5.19635e-05
1.45116e-05
1.39602e-05
0.000108121
0.00018746
0.00016321
9.3331e-05
1.72113e-05
1.30165e-05
4.11407e-05
7.43877e-05
0.000140161
0.000104101
1.1944e-05
1.422e-05
5.10176e-05
8.21909e-05
0.000173415
0.000100744
1.35299e-05
1.67857e-05
8.64175e-05
0.000150252
7.01469e-05
4.06476e-05
1.27189e-05
1.15944e-05
9.65186e-05
0.00012715
7.71729e-05
4.90316e-05
1.39674e-05
1.30081e-05
9.15486e-05
0.000150432
0.000131551
7.87862e-05
1.62975e-05
1.22639e-05
4.07599e-05
6.5108e-05
0.000112968
8.81226e-05
1.10942e-05
1.3346e-05
4.75869e-05
7.01152e-05
0.000126282
9.35742e-05
1.17916e-05
1.41206e-05
4.99066e-05
7.71204e-05
0.000144804
8.61516e-05
1.30631e-05
1.62509e-05
7.37913e-05
0.00012354
6.2703e-05
4.07248e-05
1.24811e-05
1.08255e-05
8.42022e-05
0.00010403
6.69841e-05
4.81884e-05
1.33678e-05
1.16873e-05
8.69372e-05
0.00011605
7.30692e-05
4.95406e-05
1.40444e-05
1.27237e-05
8.23759e-05
0.000132263
0.000114705
7.1396e-05
1.59862e-05
1.24812e-05
4.12981e-05
6.07884e-05
9.52681e-05
7.9434e-05
1.06969e-05
1.32837e-05
4.83722e-05
6.37152e-05
0.00010297
8.29518e-05
1.12759e-05
1.35361e-05
5.03264e-05
6.80559e-05
0.000112634
8.36656e-05
1.15705e-05
1.3955e-05
5.03904e-05
7.18433e-05
0.000127399
7.95807e-05
1.25294e-05
1.59398e-05
6.87792e-05
0.000109071
6.0207e-05
4.24353e-05
1.24944e-05
1.05025e-05
7.54662e-05
8.8089e-05
6.11126e-05
4.89328e-05
1.32486e-05
1.11031e-05
7.71444e-05
9.32412e-05
6.42441e-05
5.04873e-05
1.36067e-05
1.15779e-05
7.68595e-05
0.000101454
6.76117e-05
5.05144e-05
1.41128e-05
1.24708e-05
7.63606e-05
0.000115861
0.000101343
6.77752e-05
1.59107e-05
1.25119e-05
4.46196e-05
5.82975e-05
8.46566e-05
7.39142e-05
1.04906e-05
1.34779e-05
5.02181e-05
6.00572e-05
9.04763e-05
7.54229e-05
1.12034e-05
1.36793e-05
5.15172e-05
6.34187e-05
9.58638e-05
7.56024e-05
1.12742e-05
1.38353e-05
5.27472e-05
6.64933e-05
0.000100923
7.73314e-05
1.15769e-05
1.43785e-05
5.40659e-05
6.9396e-05
0.000115753
7.74513e-05
1.26756e-05
1.62036e-05
6.91175e-05
0.000101019
5.94398e-05
4.77952e-05
1.26871e-05
1.06387e-05
7.54061e-05
8.53154e-05
6.16057e-05
5.23183e-05
1.37411e-05
1.13383e-05
7.5635e-05
8.93251e-05
6.38052e-05
5.30664e-05
1.40706e-05
1.1634e-05
7.45531e-05
9.252e-05
6.6013e-05
5.45969e-05
1.4365e-05
1.1922e-05
7.59449e-05
9.5899e-05
6.8034e-05
5.70536e-05
1.494e-05
1.31246e-05
7.62558e-05
0.000110198
9.7779e-05
6.94881e-05
1.68203e-05
1.31737e-05
5.15611e-05
5.99084e-05
8.5818e-05
7.59638e-05
1.12236e-05
1.43195e-05
5.48775e-05
6.28711e-05
9.06959e-05
7.63563e-05
1.18266e-05
1.47465e-05
5.6015e-05
6.56378e-05
9.37848e-05
7.65319e-05
1.20545e-05
1.50429e-05
5.79696e-05
6.80308e-05
9.74531e-05
7.78361e-05
1.25527e-05
1.57111e-05
6.14903e-05
7.03156e-05
0.000111429
7.82832e-05
1.36505e-05
1.75391e-05
7.17313e-05
9.87607e-05
6.15714e-05
5.42518e-05
1.39707e-05
1.15088e-05
7.82667e-05
8.62178e-05
6.42038e-05
5.72676e-05
1.50023e-05
1.21866e-05
7.68905e-05
9.01491e-05
6.65585e-05
5.79047e-05
1.53997e-05
1.24993e-05
7.63235e-05
9.20361e-05
6.81284e-05
5.96452e-05
1.56151e-05
1.28083e-05
7.7217e-05
9.49248e-05
6.95668e-05
6.32412e-05
1.62782e-05
1.40899e-05
7.78341e-05
0.00010878
9.76457e-05
7.25141e-05
1.8239e-05
1.42821e-05
5.74766e-05
6.26783e-05
8.75398e-05
7.98664e-05
1.20604e-05
1.55685e-05
6.05261e-05
6.59343e-05
9.2742e-05
7.87067e-05
1.27894e-05
1.62179e-05
6.17747e-05
6.92858e-05
9.57179e-05
7.92258e-05
1.31934e-05
1.65346e-05
6.40598e-05
7.16486e-05
9.93843e-05
8.1419e-05
1.35361e-05
1.71264e-05
6.7914e-05
7.36626e-05
0.000113128
8.20521e-05
1.47028e-05
1.90227e-05
7.66119e-05
0.000101753
6.59989e-05
6.15785e-05
1.50236e-05
1.27575e-05
8.35975e-05
9.17173e-05
6.99469e-05
6.48285e-05
1.65573e-05
1.35951e-05
8.25268e-05
9.61595e-05
7.27219e-05
6.56684e-05
1.70902e-05
1.36944e-05
8.28074e-05
9.82828e-05
7.46337e-05
6.7737e-05
1.73063e-05
1.41895e-05
8.36552e-05
0.000101663
7.65246e-05
7.21585e-05
1.8173e-05
1.5655e-05
8.52866e-05
0.00011595
0.000105344
8.06789e-05
2.02972e-05
1.62462e-05
6.70677e-05
7.04822e-05
9.71086e-05
8.87412e-05
1.35885e-05
1.77192e-05
7.07164e-05
7.50499e-05
0.000103447
8.85821e-05
1.44519e-05
1.84688e-05
7.26e-05
7.89993e-05
0.000107669
8.90608e-05
1.51284e-05
1.91872e-05
7.64691e-05
8.09974e-05
0.000121031
8.94363e-05
1.63718e-05
2.12489e-05
8.45999e-05
0.000110036
7.4401e-05
7.02448e-05
1.69767e-05
1.40129e-05
9.28547e-05
0.000100078
7.81179e-05
7.39195e-05
1.86188e-05
1.51517e-05
9.10132e-05
0.00010627
8.19988e-05
7.59941e-05
1.93847e-05
1.57498e-05
9.17919e-05
0.000110854
8.45919e-05
8.10224e-05
2.02081e-05
1.73576e-05
9.41675e-05
0.000126104
0.000115222
8.97027e-05
2.23628e-05
1.79877e-05
7.62999e-05
7.95563e-05
0.000107281
9.81415e-05
1.50938e-05
1.99783e-05
8.12787e-05
8.42412e-05
0.000116634
9.879e-05
1.64535e-05
2.11123e-05
8.56608e-05
8.92171e-05
0.000132124
9.87587e-05
1.80242e-05
2.32979e-05
9.41073e-05
0.000120815
8.37356e-05
7.96699e-05
1.85841e-05
1.5551e-05
0.000102162
0.000111098
8.82656e-05
8.41755e-05
2.07498e-05
1.71308e-05
0.000101126
0.000119738
9.2263e-05
8.90063e-05
2.20564e-05
1.87814e-05
0.000102252
0.000136144
0.000125275
9.81483e-05
2.45463e-05
1.96416e-05
8.48261e-05
8.84785e-05
0.000116456
0.00010662
1.63123e-05
2.21317e-05
9.11337e-05
9.21199e-05
0.000134908
0.000103053
1.90461e-05
2.52978e-05
9.93451e-05
0.000124808
8.93816e-05
8.58614e-05
2.02024e-05
1.70152e-05
0.000106217
0.000115636
9.30509e-05
9.24932e-05
2.24652e-05
1.91423e-05
0.000103344
0.000133575
0.000124411
0.000100385
2.57475e-05
2.13258e-05
8.88856e-05
9.07364e-05
0.000116718
0.000107686
1.7663e-05
2.37287e-05
9.56207e-05
9.51864e-05
0.000134683
0.000105888
1.98512e-05
2.60664e-05
0.000102776
0.000125388
9.22185e-05
9.08837e-05
2.13051e-05
1.80663e-05
0.000108357
0.000117598
9.67602e-05
9.83557e-05
2.44612e-05
2.08178e-05
0.000108469
0.000136895
0.000128417
0.000106433
2.77099e-05
2.24555e-05
9.69143e-05
9.64922e-05
0.000123279
0.000115131
1.83631e-05
2.53904e-05
0.00010482
0.000101751
0.000144927
0.000113899
2.183e-05
2.92928e-05
0.000112071
0.000136555
0.000102261
0.000105044
2.43264e-05
2.06962e-05
0.000120052
0.000140155
0.000133888
0.000117744
2.83916e-05
2.50732e-05
0.000106821
0.000103188
0.000140188
0.000121552
2.1989e-05
3.05805e-05
0.000118408
0.000134584
0.000104942
0.000109169
2.55844e-05
2.19863e-05
0.000121182
0.000141279
0.000135426
0.000119097
3.04966e-05
2.68714e-05
0.000111809
0.000106381
0.000142667
0.000123715
2.34362e-05
3.19992e-05
0.000120723
0.000137594
0.000108992
0.000114465
2.81778e-05
2.38252e-05
0.000125881
0.000145769
0.00014033
0.000123937
3.39215e-05
2.96596e-05
0.000122384
0.000112472
0.000154778
0.000134284
2.48955e-05
3.5565e-05
0.000140655
0.000148313
0.000139518
0.000136056
3.42334e-05
3.13524e-05
0.000128251
0.000117986
0.000160037
0.000138086
2.72418e-05
3.92189e-05
0.000137621
0.000156249
0.000144696
0.000146924
4.09398e-05
3.64901e-05
0.000138462
0.000140246
0.000120856
0.000129904
3.49232e-05
3.08707e-05
0.000137066
0.000157957
0.000154821
0.000134725
4.60968e-05
4.68122e-05
0.000144698
0.000145771
0.000144899
0.000139579
4.97997e-05
5.33817e-05
0.000142422
0.000140024
0.000138913
0.000138158
5.86025e-05
6.27411e-05
0.000142869
0.000138412
0.000138427
0.000143756
6.54916e-05
6.52408e-05
0.000151932
0.000138377
0.000139051
0.000156693
6.29051e-05
6.03985e-05
0.00016428
0.000140676
0.000143052
0.00017205
5.76443e-05
5.50693e-05
0.000180167
0.000147145
0.000150118
0.000188085
5.24793e-05
5.02718e-05
0.000196205
0.000156882
0.00016024
0.000195516
4.82285e-05
4.65225e-05
0.000201222
0.000169203
0.000173755
0.000203292
4.49859e-05
4.36754e-05
0.000206252
0.000187186
0.000193024
0.000208502
4.24848e-05
4.14672e-05
0.000211264
0.000209004
0.000215517
0.000213684
4.05512e-05
3.97737e-05
0.000216993
0.000231931
0.000239136
0.000219895
3.90925e-05
3.85086e-05
0.000223488
0.00025576
0.000263345
0.000226854
3.80363e-05
3.75998e-05
0.000230843
0.000280078
0.000282789
0.000234572
3.73181e-05
3.69629e-05
0.000238738
0.000300066
0.000301321
0.000242993
3.68806e-05
3.6584e-05
0.00024738
0.000318364
0.000319689
0.000251735
3.66559e-05
3.643e-05
0.000256053
0.000335953
0.0003371
0.000260363
3.65519e-05
3.64181e-05
0.000264491
0.000352756
0.00035363
0.000268517
3.65585e-05
3.64964e-05
0.000272428
0.000368327
0.000368993
0.00027619
3.6631e-05
3.66029e-05
0.000279944
0.000382999
0.000383427
0.000283263
3.67302e-05
3.67226e-05
0.000286705
0.000396386
0.000396728
0.000289689
3.68378e-05
3.68407e-05
0.000292929
0.000408989
0.000409186
0.000295424
3.69449e-05
3.6944e-05
0.000298337
0.000420586
0.000420778
0.00030055
3.70471e-05
3.70393e-05
0.0003032
0.000431613
0.000431675
0.000305032
3.71446e-05
3.71279e-05
0.000307324
0.000441841
0.000441871
0.000308903
3.72276e-05
3.7201e-05
0.000310999
0.000451685
0.000451597
0.000312248
3.72963e-05
3.72644e-05
0.000314048
0.000460811
0.000460745
0.000315115
3.73551e-05
3.73161e-05
0.000316796
0.000469723
0.000469483
0.000317587
3.74034e-05
3.73624e-05
0.000318926
0.000478132
0.000477719
0.000319707
3.74152e-05
3.74293e-05
0.00032094
0.000486129
0.000485837
0.000321417
3.74804e-05
3.74341e-05
0.000322631
0.000494016
0.000493691
0.000323006
3.7514e-05
3.74643e-05
0.000324182
0.000501683
0.000501102
0.000324386
3.75424e-05
3.74932e-05
0.000325399
0.000509053
0.000508297
0.000325545
3.75692e-05
3.75187e-05
0.000326537
0.000516107
0.000515047
0.000326547
3.75931e-05
3.75437e-05
0.000327393
0.000522721
0.000521446
0.000327365
3.76158e-05
3.75654e-05
0.00032818
0.000528877
0.000527214
0.000328027
3.7635e-05
3.75863e-05
0.000328704
0.000534708
0.000532874
0.00032854
3.76537e-05
3.76053e-05
0.00032917
0.000539176
0.000537878
0.000328883
3.76685e-05
3.76213e-05
0.000329403
0.000542037
0.00054259
0.000329119
3.76815e-05
3.76362e-05
0.000329592
0.000544435
0.000546638
0.000329173
3.76917e-05
3.76477e-05
0.000329532
0.0005465
0.000550455
0.000329121
3.76987e-05
3.76558e-05
0.000329454
0.000548208
0.000552966
0.000328921
3.77024e-05
3.76615e-05
0.000329163
0.000549623
0.000554245
0.000328645
3.77043e-05
3.76642e-05
0.000328867
0.000550656
0.000555064
0.000328232
3.77027e-05
3.76647e-05
0.000328363
0.000551453
0.000555807
0.000327749
3.76992e-05
3.76623e-05
0.000327881
0.000551982
0.000556185
0.000327161
3.76926e-05
3.76573e-05
0.000327221
0.000552371
0.000556567
0.000326537
3.76843e-05
3.76502e-05
0.000326621
0.000552561
0.000556637
0.000325844
3.76741e-05
3.76418e-05
0.000325874
0.000552663
0.000556817
0.000325145
3.76632e-05
3.76321e-05
0.000325218
0.000552632
0.000556609
0.000324408
3.76512e-05
3.7622e-05
0.000324437
0.000552502
0.000556726
0.000323685
3.76391e-05
3.76111e-05
0.000323774
0.000552347
0.000556363
0.000322945
3.76267e-05
3.76005e-05
0.00032299
0.000552064
0.000556324
0.000322228
3.76146e-05
3.75896e-05
0.000322352
0.000551766
0.000555819
0.000321517
3.76026e-05
3.75792e-05
0.000321591
0.00055136
0.000555664
0.000320842
3.75912e-05
3.75689e-05
0.000320981
0.000550963
0.000555063
0.000320163
3.75799e-05
3.75591e-05
0.000320247
0.000550479
0.000554836
0.000319528
3.75694e-05
3.75495e-05
0.000319671
0.000550023
0.000554182
0.000318886
3.7559e-05
3.75404e-05
0.000318976
0.000549493
0.000553905
0.000318291
3.75493e-05
3.75316e-05
0.000318439
0.000548997
0.000553212
0.000317687
3.75399e-05
3.75233e-05
0.000317783
0.00054844
0.000552909
0.000317126
3.75307e-05
3.75148e-05
0.000317286
0.000547924
0.000552194
0.000316562
3.75218e-05
3.7507e-05
0.000316669
0.000547347
0.000551882
0.000316039
3.75133e-05
3.74991e-05
0.000316211
0.00054683
0.000551148
0.000315515
3.75049e-05
3.74917e-05
0.000315633
0.00054624
0.000550834
0.000315031
3.74969e-05
3.74842e-05
0.000315214
0.000545728
0.000550116
0.000314545
3.74891e-05
3.74773e-05
0.000314676
0.000545152
0.000549815
0.0003141
3.74817e-05
3.74702e-05
0.000314297
0.000544658
0.000549111
0.000313654
3.74745e-05
3.74639e-05
0.000313799
0.000544103
0.000548828
0.000313249
3.74677e-05
3.74575e-05
0.000313459
0.000543631
0.000548144
0.000312841
3.74613e-05
3.74518e-05
0.000313
0.000543119
0.000547847
0.00031247
3.74553e-05
3.74462e-05
0.000312695
0.000542667
0.000547188
0.000312098
3.74497e-05
3.74412e-05
0.00031227
0.000542185
0.000546912
0.000311761
3.74444e-05
3.74361e-05
0.000311997
0.000541742
0.000546273
0.000311418
3.74393e-05
3.74317e-05
0.000311602
0.000541275
0.000546019
0.00031111
3.74346e-05
3.74273e-05
0.000311357
0.000540856
0.000545404
0.000310796
3.74301e-05
3.74233e-05
0.000310991
0.000540415
0.000545176
0.000310516
3.74261e-05
3.74194e-05
0.000310774
0.000540024
0.000544588
0.000310229
3.74221e-05
3.74159e-05
0.000310433
0.00053961
0.000544384
0.000309974
3.74186e-05
3.74124e-05
0.000310241
0.000539242
0.000543819
0.000309711
3.74149e-05
3.74092e-05
0.000309926
0.000538851
0.000543636
0.000309479
3.74117e-05
3.7406e-05
0.000309757
0.000538503
0.00054309
0.00030924
3.74084e-05
3.7403e-05
0.000309464
0.000538133
0.000542929
0.000309031
3.74055e-05
3.74001e-05
0.000309317
0.00053781
0.000542408
0.000308812
3.74024e-05
3.73974e-05
0.000309045
0.000537464
0.000542271
0.000308623
3.73997e-05
3.73946e-05
0.000308918
0.000537164
0.000541772
0.000308426
3.73969e-05
3.73923e-05
0.000308667
0.000536842
0.000541659
0.000308257
3.73945e-05
3.73899e-05
0.00030856
0.000536567
0.000541186
0.00030808
3.73921e-05
3.7388e-05
0.000308328
0.000536271
0.000541099
0.00030793
3.73903e-05
3.73862e-05
0.00030824
0.000536023
0.000540654
0.00030777
3.73886e-05
3.7385e-05
0.000308025
0.000535753
0.00054059
0.000307636
3.73878e-05
3.73842e-05
0.000307953
0.000535525
0.000540162
0.000307492
3.73875e-05
3.73842e-05
0.000307753
0.000535272
0.000540111
0.000307372
3.73876e-05
3.73844e-05
0.000307693
0.000535056
0.000539692
0.000307236
3.73883e-05
3.73855e-05
0.0003075
0.000534806
0.000539641
0.000307121
3.73893e-05
3.73867e-05
0.000307444
0.000534584
0.000539215
0.000306988
3.73905e-05
3.73883e-05
0.000307253
0.00053433
0.000539159
0.000306877
3.73918e-05
3.73896e-05
0.000307191
0.000534056
0.000538789
0.000306759
3.73919e-05
3.73897e-05
0.000307085
0.000533957
0.000538509
0.00030691
3.7418e-05
3.74344e-05
0.000307163
0.000533786
0.000538555
0.000306697
3.74371e-05
3.74533e-05
0.000307104
0.000533641
0.000538836
0.00030704
3.7516e-05
3.75902e-05
0.000307702
0.000534199
0.000541386
0.000308084
3.77547e-05
3.77572e-05
0.000309261
0.000536795
0.000545528
0.000310206
3.81555e-05
3.82178e-05
0.000311352
0.000541088
0.000559712
0.000317166
3.94934e-05
4.10633e-05
0.000327081
0.000591032
0.000623524
0.00034274
4.30962e-05
0.00102775
0.00164648
0.00244698
0.00274625
0.00437571
0.00739726
0.0100053
0.0111099
0.0152868
0.0239067
0.0311381
0.0405411
0.0536214
0.0717388
0.0970097
0.130843
0.174691
0.229154
0.294476
0.37028
0.455697
0.549293
0.649274
0.753216
0.858735
0.96169
1.05905
1.144
1.21365
1.2637
1.29493
1.30964
1.32236
1.34545
1.37808
1.41906
1.46661
1.52034
1.57913
1.6438
1.71477
1.79346
1.88133
1.98046
2.0935
2.22422
2.37801
2.56329
1.80147
1.18721
0.887483
0.74191
0.659751
0.599427
0.545235
0.493821
0.445776
0.401607
0.36114
0.32396
0.289797
0.258592
0.230369
0.205094
0.182657
0.162805
0.145291
0.129842
0.116221
0.104198
0.0935926
0.084247
0.0760083
0.0687743
0.0624205
0.0568505
0.0519899
0.047744
0.0440518
0.0408512
0.0380768
0.0356893
0.0336378
0.0318854
0.0303973
0.0291421
0.0280946
0.0272301
0.0265303
0.0259764
0.0255558
0.0252537
0.0250622
0.0249695
0.0249688
0.0250536
0.0252186
0.0254593
0.0257721
0.0261542
0.0266032
0.0271157
0.0276947
0.0283359
0.0290392
0.0298053
0.0306337
0.031526
0.0324824
0.0335054
0.0345943
0.0357549
0.0369819
0.0382857
0.0396649
0.0411229
0.0426627
0.0442896
0.0460091
0.0478241
0.0497413
0.0517616
0.0538969
0.0561499
0.0585287
0.0610417
0.0636979
0.0665063
0.0694779
0.072624
0.0759567
0.0794904
0.0832408
0.0872251
0.0914623
0.0959737
0.100783
0.105918
0.111407
0.117287
0.123595
0.130377
0.137683
0.145575
0.154122
0.163406
0.173522
0.18459
0.196752
0.210183
0.2251
0.241782
0.260586
0.281981
0.306597
0.335306
0.36936
0.410647
0.46217
0.528996
0.620478
0.754816
0.965898
1.31519
1.93469
3.32229
7.24265
21.0209
31.5281
37.9441
17.7259
9.06991
3.21605
1.48407
0.869511
0.629726
0.528184
0.47936
0.448257
0.421125
0.394244
0.367937
0.343375
0.32133
0.301997
0.285192
0.270585
0.257834
0.246645
0.236785
0.228067
0.220334
0.213465
0.207407
0.202091
0.197418
0.193367
0.189929
0.187
0.184512
0.182483
0.180897
0.179714
0.178957
0.178662
0.178836
0.179494
0.180659
0.182367
0.18467
0.187629
0.191328
0.195871
0.20138
0.207975
0.215699
0.224413
0.233683
0.242788
0.251261
0.260526
0.276994
0.316817
0.416169
0.657655
1.19496
2.02819
1.70706
0.987443
0.3717
0.0899611
0.0385878
0.01295
0.0110555
0.0101627
0.00910279
0.00862142
0.00793394
0.00763519
0.00713796
0.00693341
0.00655255
0.00639977
0.00609718
0.00597881
0.0057297
0.0056349
0.00542375
0.00534615
0.00516314
0.00509844
0.00493706
0.00488196
0.00473799
0.00468997
0.00456029
0.0045179
0.00439984
0.00436201
0.00425354
0.00421947
0.00411909
0.0040882
0.00399475
0.00396657
0.00387911
0.00385323
0.00377096
0.00374702
0.00366923
0.00364694
0.00357305
0.00355214
0.00348162
0.00346188
0.0033943
0.00337553
0.00331056
0.0032926
0.00322989
0.00321259
0.00315182
0.00313505
0.0030759
0.00305953
0.00300173
0.00298565
0.00292902
0.00291311
0.00285742
0.00284159
0.00278668
0.00277085
0.00271656
0.00270066
0.00264684
0.0026308
0.00257734
0.00256113
0.00250794
0.00249151
0.00243854
0.00242188
0.00236912
0.00235227
0.00229977
0.00228278
0.00223065
0.0022136
0.00216199
0.00214507
0.00209431
0.00207774
0.00202823
0.00201228
0.00196498
0.0019497
0.00190511
0.00189081
0.00184978
0.00183711
0.00179853
0.00179017
0.00175436
0.00175061
0.00171822
0.00171989
0.00169134
0.00169909
0.00167481
0.00168867
0.0016687
0.00168816
0.00167222
0.00169657
0.00168378
0.00171195
0.00170163
0.00173125
0.00172248
0.00175231
0.00174389
0.00177336
0.00176468
0.00179326
0.00178364
0.00181116
0.0018009
0.00182667
0.00181608
0.00183986
0.00182869
0.0018506
0.00183882
0.00185891
0.00184652
0.00186514
0.00185206
0.00187064
0.00185273
0.00187539
0.00186648
0.00190165
0.00192312
0.00193937
0.00195342
0.00379583
0.00598437
0.0059248
0.00374649
0.00371701
0.00583856
0.00562728
0.00363805
0.00351424
0.00525443
0.00919929
0.00858564
0.00852331
0.00849711
0.0107685
0.0106705
0.0104978
0.0138213
0.0136943
0.0135909
0.0160795
0.0161279
0.0160928
0.0150951
0.0148796
0.00907104
0.00567413
0.00358846
0.00348764
0.00520779
0.00562242
0.00356034
0.00347047
0.00518245
0.0090357
0.00900653
0.00559111
0.00354096
0.00344914
0.00515298
0.00555776
0.00351851
0.00342533
0.00512014
0.0089843
0.00894609
0.00552174