/*--------------------------------*- C++ -*----------------------------------*\
| =========                 |                                                 |
| \\      /  F ield         | OpenFOAM: The Open Source CFD Toolbox           |
|  \\    /   O peration     | Version:  v2006                                 |
|   \\  /    A nd           | Website:  www.openfoam.com                      |
|    \\/     M anipulation  |                                                 |
\*---------------------------------------------------------------------------*/
FoamFile
{
    version     2.0;
    format      ascii;
    class       volScalarField;
    location    "0.026";
    object      p;
}
// * * * * * * * * * * * * * * * * * * * * * * * * * * * * * * * * * * * * * //

dimensions      [1 -1 -2 0 0 0 0];


internalField   nonuniform List<scalar> 
10108
(
146280
146281
146278
146283
146278
146281
146282
146288
146298
146309
146322
146335
146348
146362
146377
146391
146407
146423
146439
146457
146475
146493
146512
146532
146552
146572
146593
146614
146636
146657
146679
146701
146724
146746
146768
146791
146813
146835
146857
146879
146901
146922
146943
146963
146983
147003
147022
147041
147059
147076
147092
147108
147124
147138
147153
147166
147178
147189
147197
147202
147203
147204
147204
147203
147200
147205
147211
147220
147243
147279
147301
147316
147291
147290
147284
147277
147279
147280
147267
147267
147267
147256
147255
147255
147245
147245
147246
147239
147238
147238
147232
147232
147233
147229
147228
147228
147224
147225
147225
147222
147222
147222
147220
147220
147221
147220
147219
147219
147218
147219
147219
147220
147219
147219
147219
147220
147220
147222
147221
147221
147223
147224
147224
147227
147226
147226
147229
147230
147230
147234
147233
147233
147237
147237
147238
147242
147242
147241
147247
147247
147247
147253
147252
147252
147258
147258
147259
147265
147265
147264
147271
147271
147272
147279
147279
147278
147286
147286
147287
147295
147294
147294
147302
147303
147303
147312
147311
147311
147321
147321
147321
147331
147330
147330
147340
147341
147341
147352
147351
147351
147362
147362
147363
147374
147373
147373
147385
147385
147386
147398
147397
147397
147410
147410
147411
147424
147423
147423
147437
147437
147438
147451
147451
147451
147465
147466
147466
147481
147480
147480
147496
147496
147496
147512
147512
147511
147528
147528
147529
147546
147545
147545
147562
147563
147563
147581
147580
147580
147599
147599
147599
147618
147618
147617
147637
147637
147638
147658
147657
147657
147678
147678
147679
147700
147699
147699
147721
147721
147722
147744
147743
147743
147766
147766
147767
147790
147790
147789
147814
147814
147815
147839
147839
147838
147864
147864
147865
147891
147890
147889
147916
147917
147917
147944
147943
147943
147971
147971
147972
148000
147999
147999
148028
148028
148029
148058
148057
148057
148087
148087
148088
148118
148118
148117
148148
148149
148149
148180
148180
148179
148211
148212
148212
148244
148244
148243
148276
148276
148277
148310
148309
148308
148341
148342
148343
148376
148375
148375
148408
148409
148409
148443
148442
148441
148475
148475
148476
148509
148508
148508
148541
148541
148542
148575
148574
148573
148606
148606
148607
148639
148638
148637
148668
148669
148670
148700
148699
148698
148728
148728
148729
148757
148757
148756
148783
148784
148785
148811
148810
148809
148834
148835
148835
148858
148858
148857
148879
148880
148880
148901
148900
148900
148918
148919
148919
148936
148936
148936
148951
148952
148952
148966
148966
148965
148978
148978
148979
148990
148989
148989
148999
148999
148999
149008
149007
149007
149015
149015
149015
149021
149021
149021
149026
149026
149026
149030
149030
149030
149033
149033
149033
149035
149035
149035
149037
149037
149037
149038
149038
149038
149039
149039
149039
149039
149039
149039
149039
149039
149039
149039
149039
149039
149038
149038
149038
149037
149037
149037
149036
149036
149035
149034
149034
149034
149033
149033
149032
149031
149031
149031
149029
149029
149029
149027
149027
149027
149025
149025
149025
149023
149023
149023
149021
149021
149021
149019
149019
149019
149017
149017
149017
149015
149015
149015
149013
149013
149013
149011
149011
149011
149008
149008
149008
149006
149006
149006
149004
149003
149003
149003
149003
149002
149002
149002
149002
149001
149002
149001
149001
149001
149001
149001
149000
149000
149000
149000
148999
149000
149000
148998
148998
148998
149000
149008
149010
149014
149027
149023
149019
148922
149031
148913
148997
148980
148990
148995
148995
148995
149000
149000
149000
149000
149000
149000
149003
149003
149003
149003
149003
149003
149006
149006
149006
149006
149006
149006
149008
149008
149008
149008
149008
149008
149011
149011
149011
149011
149011
149011
149013
149013
149013
149013
149013
149013
149016
149016
149016
149016
149016
149016
149018
149018
149018
149018
149018
149018
149020
149021
149021
149021
149021
149021
149023
149023
149023
149023
149023
149023
149025
149025
149025
149025
149025
149025
149027
149027
149027
149027
149027
149027
149029
149029
149030
149029
149029
149029
149031
149032
149032
149031
149031
149031
149033
149033
149033
149033
149033
149033
149035
149035
149035
149035
149035
149034
149036
149036
149036
149036
149035
149035
149036
149037
149037
149036
149035
149035
149036
149036
149036
149035
149034
149034
149034
149034
149034
149031
149030
149030
149026
149027
149027
149018
149016
149014
149007
149012
149014
149014
149010
149005
149013
149019
149022
149041
149038
149035
149054
149058
149060
149081
149079
149075
149098
149102
149104
149128
149127
149124
149149
149153
149154
149179
149178
149176
149199
149203
149205
149233
149232
149229
149259
149262
149264
149295
149293
149289
149323
149329
149334
149365
149369
149355
149442
149279
149423
149418
149423
149412
149456
149457
149456
149497
149499
149498
149540
149542
149541
149593
149593
149589
149646
149654
149652
149706
149707
149709
149713
149830
149734
149826
149833
149845
149907
149909
149901
149982
149993
149990
150071
150076
150052
150186
150110
150217
150280
150270
150230
150285
150345
150371
150596
150519
150419
150387
150508
150607
150593
150387
150237
149635
149419
149952
146896
147536
147706
146237
145964
145314
144893
145414
145737
145704
145549
145332
145489
145646
145767
145738
145661
145559
145873
145931
145968
146047
146006
145949
146083
145889
146103
146221
146240
146187
146244
146246
146279
146233
146396
146167
146417
146413
146432
146460
146457
146445
146504
146391
146491
146590
146607
146586
146606
146605
146610
146595
146617
146589
146726
146727
146720
146723
146723
146724
146722
146707
146717
146812
146824
146819
146818
146816
146815
146807
146808
146819
146899
146902
146891
146884
146888
146892
146880
146869
146867
146943
146954
146950
146947
146940
146935
146913
146915
146925
146995
146997
146985
146973
146979
146985
146973
146952
146952
147011
147025
147018
147017
146985
146994
146875
147219
146817
147075
146967
147051
146972
146992
146973
147054
147048
147034
147010
147021
147033
146980
146953
146968
147019
147033
147026
147050
147003
147003
146867
147205
146800
147046
146944
147027
146949
146968
146952
147039
147027
147007
146968
146976
146985
146915
146899
146908
146961
146974
146971
146953
146935
146925
146946
146962
146965
146914
146908
146902
146842
146846
146846
146929
146922
146904
146856
146863
146874
146873
146874
146862
146817
146823
146827
146777
146767
146764
146817
146838
146846
146765
146760
146757
146759
146770
146768
146726
146721
146715
146662
146669
146681
146729
146722
146705
146643
146645
146648
146655
146654
146643
146595
146607
146589
146717
146346
146610
146517
146729
146511
146541
146469
146527
146496
146520
146500
146439
146428
146438
146453
146471
146471
146464
146414
146411
146249
146611
146170
146474
146179
146425
146255
146334
146246
146308
146292
146292
146232
146245
146248
146258
146252
146234
146171
146169
146208
145886
146367
145991
146206
145886
146267
145997
146121
146007
146062
146054
146098
145970
145989
145972
145964
145967
145978
145887
145893
145887
145886
145899
145897
145870
145829
145835
145663
146089
145574
145974
145508
145892
145648
145794
145627
145700
145661
145689
145595
145617
145594
145620
145614
145605
145539
145549
145560
145537
145534
145519
145441
145440
145472
145165
145608
145262
145458
145129
145515
145236
145359
145246
145292
145281
145321
145208
145219
145199
145174
145174
145188
145070
145082
145074
145063
145070
145076
144989
144988
144983
144964
144976
144975
144923
144892
144892
144717
145026
144645
144956
144597
144892
144673
144789
144667
144715
144672
144701
144588
144613
144585
144594
144578
144581
144488
144503
144495
144489
144476
144468
144368
144373
144364
144358
144353
144340
144251
144262
144255
144218
144037
144161
144095
144255
144079
144089
144022
144068
144020
144061
144022
143938
143906
143925
143877
143901
143877
143769
143753
143771
143753
143774
143765
143672
143662
143664
143626
143643
143638
143550
143520
143523
143317
143666
143220
143603
143157
143528
143253
143410
143241
143305
143243
143289
143146
143181
143143
143145
143111
143123
142987
143003
142967
142977
142957
142961
142841
142850
142831
142832
142821
142809
142698
142716
142689
142766
142314
142635
142439
142818
142392
142467
142313
142452
142354
142414
142340
142261
142219
142255
142202
142241
142207
142080
142052
142077
142022
142054
142033
141884
141869
141887
141823
141842
141831
141672
141684
141685
141582
141331
141662
141399
141768
141436
141448
141317
141466
141355
141432
141353
141233
141188
141241
141123
141161
141124
140950
140911
140924
140873
140911
140891
140755
140738
140754
140731
140740
140715
140586
140597
140608
140395
140343
140366
140324
140420
140311
140219
140143
140197
140055
140070
140025
139828
139839
139871
139858
139873
139863
139739
139737
139737
139666
139687
139686
139512
139504
139493
139233
139256
139241
139249
139104
139214
139002
139041
138939
138965
138926
138962
138771
138799
138748
138754
138717
138726
138532
138549
138515
138448
138433
138421
138197
138214
138212
137834
137791
137861
137802
137852
137750
137669
137625
137669
137607
137657
137602
137440
137402
137427
137291
137326
137308
137068
137046
137043
136672
136662
136659
136506
136549
136568
136365
136329
136299
136376
136381
136361
136202
136205
136206
136053
136059
136033
135743
135750
135758
135369
135342
135347
135164
135133
135072
134834
134878
134930
134915
134918
134906
134759
134779
134752
134537
134216
134666
134195
134486
134235
133998
133836
134011
133440
133583
133601
133310
133249
133180
132893
133049
132973
133042
132942
133112
132755
132852
132781
132526
132506
132563
131992
132074
132080
131477
131123
131323
131266
131416
131355
131186
131132
131184
131025
131090
131031
130700
130676
130754
130038
130224
130029
129560
129442
129301
128978
129090
129200
129186
129165
129127
128981
129012
128981
128550
128459
128612
128034
128066
128043
127380
127193
126947
126418
126598
126742
126749
126718
126699
126462
126561
126488
126113
125576
126213
125093
125337
125308
124544
124301
123978
123627
123749
123901
123828
123874
123754
123551
123361
123526
122415
123003
122090
121201
121477
121884
121300
121142
120993
120623
120605
120715
120204
120159
120050
118172
118868
119274
118436
118207
117813
117627
117730
117887
117428
117360
117073
115191
116088
116556
115804
115552
115071
114909
115047
115235
114085
113684
112880
113360
113722
114078
114093
113689
113166
112365
113287
113786
113594
113299
112551
112638
113430
113721
114266
114080
113453
115457
115716
115728
118080
118163
118086
119676
119707
119659
120650
120675
120648
121414
121432
121426
122141
122143
122128
122721
122731
122731
123260
123258
123248
123680
123685
123686
124099
124095
124089
124437
124440
124442
124791
124787
124782
125075
125077
125080
125381
125376
125371
125616
125618
125621
125876
125871
125867
126072
126073
126076
126297
126291
126287
126461
126462
126464
126657
126652
126648
126798
126799
126801
126973
126967
126964
127095
127095
127097
127251
127245
127243
127356
127356
127357
127497
127492
127489
127590
127590
127590
127717
127713
127710
127799
127799
127799
127915
127911
127908
127987
127987
127987
128093
128089
128087
128157
128157
128156
128254
128251
128249
128312
128311
128310
128400
128397
128395
128451
128451
128450
128532
128529
128528
128578
128578
128577
128653
128650
128649
128694
128693
128693
128762
128760
128759
128800
128799
128798
128864
128861
128860
128897
128896
128895
128955
128953
128952
128986
128985
128984
129040
129039
129038
129067
129066
129066
129117
129116
129115
129142
129141
129140
129189
129188
129187
129212
129211
129210
129254
129253
129253
129275
129274
129273
129316
129315
129314
129334
129333
129333
129371
129370
129370
129388
129387
129386
129423
129422
129422
129438
129438
129437
129470
129470
129469
129484
129483
129483
129515
129514
129514
129527
129527
129526
129555
129555
129554
129566
129566
129565
129593
129592
129592
129604
129603
129602
129628
129627
129627
129637
129636
129635
129660
129659
129659
129668
129668
129667
129690
129689
129689
129697
129696
129696
129717
129717
129716
129724
129723
129723
129742
129742
129742
129749
129748
129747
129766
129766
129765
129772
129771
129770
129788
129787
129787
129792
129792
129791
129808
129808
129807
129812
129812
129811
129826
129826
129826
129830
129829
129829
129844
129843
129843
129847
129846
129845
129859
129859
129859
129862
129861
129861
129874
129874
129873
129876
129876
129875
129887
129887
129887
129889
129889
129888
129900
129900
129899
129901
129901
129900
129911
129911
129911
129912
129912
129911
129922
129922
129921
129923
129922
129922
129932
129931
129931
129932
129932
129931
129941
129941
129940
129941
129940
129940
129949
129949
129948
129949
129948
129948
129957
129956
129956
129956
129956
129955
129964
129963
129963
129963
129963
129962
129970
129970
129970
129969
129969
129968
129976
129976
129975
129975
129974
129974
129982
129981
129981
129980
129980
129979
129987
129986
129986
129985
129985
129984
129992
129991
129991
129990
129989
129988
129996
129995
129995
129994
129993
129992
130000
129999
129999
129997
129997
129996
130003
130003
130002
130001
130000
130000
130006
130006
130005
130004
130003
130003
130009
130009
130008
130006
130006
130005
130012
130011
130011
130009
130008
130008
130014
130013
130013
130011
130010
130009
130016
130015
130015
130012
130012
130011
130017
130017
130016
130014
130013
130013
130019
130018
130018
130015
130014
130014
130019
130019
130019
130016
130015
130015
130020
130020
130019
130017
130016
130016
130021
130020
130020
130017
130017
130016
130021
130021
130020
130017
130017
130016
130021
130021
130021
130017
130017
130016
130022
130021
130021
130017
130017
130016
130021
130021
130021
130017
130017
130016
130021
130021
130020
130017
130017
130016
130021
130020
130020
130017
130016
130015
130020
130020
130019
130016
130015
130015
130020
130019
130019
130015
130015
130014
130019
130018
130018
130014
130014
130013
130018
130017
130017
130013
130012
130012
130016
130016
130015
130012
130011
130011
130015
130014
130014
130010
130009
130009
130013
130012
130012
130008
130007
130007
130010
130010
130010
130005
130005
130004
130008
130007
130007
130002
130002
130001
130005
130004
130004
129999
129999
129998
130001
130001
130000
129996
129995
129995
129998
129997
129997
129992
129991
129991
129994
129993
129993
129988
129987
129987
129990
129989
129989
129984
129983
129983
129986
129986
129985
129980
129979
129979
129982
129981
129981
129976
129975
129975
129978
129977
129977
129972
129971
129971
129973
129973
129973
129967
129967
129966
129970
129969
129969
129964
129964
129964
129968
129967
129967
129962
129962
129961
129964
129963
129962
129960
129960
129960
129982
129982
129980
130037
130041
130044
130070
130071
130069
130067
130071
130023
129983
130049
130094
130036
130004
130040
130076
130062
130037
130025
130018
130014
130012
130012
130011
130011
130011
130010
130010
130009
130008
130007
130006
130004
130002
130000
129999
129998
129998
130004
130008
130012
130017
130023
130030
130039
130049
130062
130077
130094
130113
130134
130155
130173
130185
130191
130194
130199
130206
130217
130230
130245
130262
130281
130303
130327
130355
130386
130422
130463
130510
130564
130624
130693
130771
130859
130958
131068
131192
131329
131481
131649
131833
132034
132253
132490
132745
133016
133305
133609
133927
134259
134601
134953
135312
135677
136046
136416
136785
137153
137518
137877
138231
138577
138916
139245
139566
139876
140176
140466
140746
141015
141273
141521
141759
141987
142206
142414
142614
142804
142986
143160
143325
143483
143633
143777
143913
144044
144167
144285
144398
144505
144606
144703
144795
144883
144967
145046
145121
145193
145262
145326
145388
145447
145503
145556
145606
145654
145699
145742
145783
145821
145858
145892
145925
145956
145985
146012
146038
146062
146085
146106
146125
146144
146161
146176
146190
146203
146214
146225
146235
146248
146265
146274
146278
146279
146281
146278
146286
146302
146316
146325
146334
146343
146354
146365
146377
146389
146402
146416
146431
146446
146463
146480
146497
146516
146535
146554
146574
146594
146615
146636
146658
146679
146701
146723
146746
146768
146790
146812
146834
146856
146877
146899
146920
146940
146960
146980
146999
147018
147036
147053
147070
147086
147101
147115
147129
147142
147154
147166
147176
147186
147193
147196
147198
147204
147221
147235
147242
147245
147238
147233
147229
147225
147223
147221
147220
147220
147220
147221
147223
147225
147228
147231
147235
147239
147243
147248
147254
147260
147266
147273
147280
147288
147296
147304
147313
147322
147332
147342
147353
147364
147375
147387
147399
147412
147425
147439
147453
147467
147482
147498
147514
147530
147547
147564
147582
147601
147620
147639
147659
147680
147701
147723
147746
147769
147792
147816
147841
147866
147892
147919
147946
147974
148002
148031
148060
148090
148120
148151
148183
148214
148247
148279
148312
148345
148378
148412
148445
148478
148512
148545
148577
148610
148641
148672
148702
148732
148760
148787
148813
148838
148861
148883
148903
148922
148939
148954
148968
148981
148991
149001
149009
149016
149022
149027
149030
149033
149036
149037
149038
149039
149039
149039
149038
149038
149036
149035
149034
149032
149030
149029
149027
149025
149023
149021
149018
149016
149014
149013
149010
149008
149005
149005
149005
149008
149008
149011
149012
149013
149013
149014
149013
149010
149011
149009
149005
149002
149003
149005
149013
149010
149006
149001
149003
149007
149013
149017
149015
149017
149017
149018
149017
149021
149021
149022
149021
149020
149025
149025
149025
149026
149026
149029
149029
149030
149029
149029
149033
149033
149032
149033
149033
149036
149035
149036
149036
149036
149040
149039
149038
149038
149039
149041
149039
149039
149040
149042
149043
149042
149040
149038
149040
149041
149038
149036
149038
149044
149042
149039
149035
149031
149034
149034
149028
149023
149027
149038
149030
149025
149018
149010
149015
149011
149003
148993
148999
149017
148998
148993
148983
148970
148977
148968
148957
148941
148949
148972
148939
148936
148925
148906
148914
148898
148886
148864
148872
148899
148851
148853
148841
148816
148823
148803
148790
148763
148770
148798
148741
148747
148734
148705
148712
148687
148675
148643
148650
148679
148615
148624
148612
148579
148586
148559
148547
148514
148519
148548
148481
148492
148480
148447
148453
148425
148413
148380
148385
148413
148346
148359
148347
148314
148319
148292
148281
148248
148253
148280
148215
148227
148216
148184
148189
148164
148153
148122
148127
148152
148091
148102
148092
148062
148066
148043
148033
148004
148008
148032
147975
147985
147976
147948
147952
147930
147921
147894
147898
147921
147869
147877
147869
147843
147847
147827
147819
147794
147798
147819
147771
147779
147771
147747
147751
147733
147725
147703
147707
147726
147684
147690
147682
147661
147665
147649
147642
147621
147625
147643
147605
147610
147603
147584
147587
147573
147567
147549
147552
147569
147535
147539
147532
147515
147518
147506
147500
147484
147487
147503
147472
147475
147469
147454
147457
147447
147441
147427
147430
147444
147417
147420
147414
147401
147404
147394
147389
147377
147380
147392
147369
147371
147366
147354
147357
147349
147344
147334
147336
147348
147328
147329
147325
147315
147317
147311
147306
147297
147300
147310
147294
147294
147290
147282
147284
147279
147275
147268
147270
147279
147266
147265
147262
147255
147258
147254
147250
147245
147247
147255
147245
147244
147241
147236
147238
147235
147233
147229
147231
147237
147230
147229
147227
147224
147225
147224
147222
147221
147223
147226
147224
147222
147221
147221
147222
147223
147222
147223
147223
147223
147223
147225
147226
147228
147227
147230
147232
147237
147233
147223
147210
147217
147222
147225
147229
147234
147242
147250
147260
147272
147285
147300
147316
147334
147354
147375
147398
147423
147449
147478
147508
147539
147573
147609
147647
147687
147729
147774
147821
147870
147921
147975
148031
148090
148150
148213
148278
148344
148411
148480
148549
148617
148685
148750
148811
148867
148916
148958
148992
149017
149034
149045
149050
149052
149051
149049
149046
149043
149039
149035
149030
149026
149022
149022
149017
149012
149011
149008
149004
149002
149004
149006
149010
149007
149004
149002
149004
149006
149011
149017
149016
149011
149009
149007
149003
149002
149004
149005
149009
149006
149003
149002
149003
149005
149010
149016
149021
149021
149022
149027
149026
149031
149036
149037
149032
149032
149027
149026
149032
149038
149038
149044
149043
149041
149046
149049
149056
149051
149057
149064
149071
149060
149052
149053
149045
149043
149037
149031
149025
149020
149015
149010
149007
149005
149002
149001
149003
149004
149006
149004
149001
149001
149003
149005
149009
149015
149012
149010
149007
149005
149002
149001
148999
148996
148996
148993
148991
148992
148997
148997
148996
149000
149001
149001
149004
149004
149001
149001
149003
149003
149004
149006
149006
149009
149012
149014
149015
149017
149020
149025
149030
149035
149032
149030
149027
149025
149022
149020
149019
149017
149017
149014
149014
149011
149012
149009
149009
149006
149006
149006
149008
149009
149011
149011
149014
149014
149016
149016
149016
149019
149019
149018
149018
149021
149021
149022
149024
149024
149021
149021
149023
149023
149023
149026
149026
149029
149031
149033
149034
149036
149041
149048
149051
149062
149063
149076
149094
149084
149073
149063
149068
149084
149094
149071
149071
149099
149137
149121
149101
149118
149150
149184
149243
149184
149137
149103
149078
149072
149056
149045
149044
149041
149039
149037
149035
149035
149032
149033
149030
149031
149028
149028
149026
149025
149025
149028
149028
149030
149030
149032
149032
149034
149034
149034
149036
149036
149035
149035
149037
149038
149039
149041
149039
149037
149036
149037
149037
149038
149039
149042
149042
149048
149051
149064
149050
149043
149034
149036
149038
149038
149036
149037
149035
149032
149029
149023
149031
149031
149035
149023
149022
149033
149043
149068
149078
149101
149148
149214
149293
149307
149260
149211
149175
149134
149108
149097
149133
149175
149157
149138
149112
149095
149073
149060
149049
149067
149087
149109
149133
149157
149182
149185
149208
149222
149274
149332
149389
149355
149403
149357
149272
149199
149143
149100
149065
149051
149091
149069
149028
148993
149029
149065
149116
149141
149201
149171
149105
149020
148996
148973
148947
148891
148907
148835
148828
148760
148759
148751
148835
148918
148927
148830
148736
148645
148668
148683
148689
148617
148606
148531
148545
148474
148457
148431
148507
148586
148558
148475
148397
148324
148358
148385
148404
148336
148316
148249
148269
148205
148184
148157
148221
148288
148254
148188
148125
148086
148147
148212
148281
148355
148434
148519
148610
148710
148817
148930
149049
149163
149249
149278
149384
149387
149251
149355
149588
149476
149462
149435
149504
149449
149461
149428
149392
149359
149326
149296
149262
149237
149236
149208
149266
149298
149334
149367
149405
149442
149452
149414
149378
149492
149480
149519
149496
149530
149554
149598
149561
149586
149536
149639
149685
149640
149591
149587
149672
149760
149621
149698
149749
149799
149738
149873
149813
149862
149942
149975
149919
149819
149760
149973
149939
150034
150075
150042
149901
149844
149635
149353
149058
149425
149631
149749
149926
149984
150121
150197
150142
150084
150423
150083
149831
149770
149433
148905
149147
149753
150018
149403
149199
148497
148121
146938
147669
148404
148220
147741
147307
146650
146079
146305
146031
145962
146197
146161
146176
146307
146333
146371
146442
146487
146531
146579
146622
146657
146683
146725
146757
146773
146812
146838
146841
146874
146895
146893
146923
146938
146931
146957
146970
146958
146978
146986
146971
146987
146966
146984
146982
146965
146976
146972
146952
146962
146934
146937
146926
146906
146914
146873
146873
146863
146836
146839
146796
146789
146778
146742
146741
146695
146687
146673
146634
146627
146582
146566
146546
146504
146486
146442
146428
146377
146367
146340
146297
146273
146231
146216
146156
146131
146090
146051
146032
145979
145955
145895
145873
145820
145798
145759
145710
145677
145628
145592
145536
145511
145439
145401
145345
145300
145270
145210
145174
145097
145057
144992
144959
144884
144847
144790
144738
144692
144628
144578
144510
144464
144387
144340
144260
144204
144133
144077
144026
143949
143891
143809
143752
143679
143630
143540
143480
143401
143346
143283
143206
143132
143045
142969
142884
142816
142722
142645
142547
142471
142382
142305
142217
142122
142038
141932
141848
141735
141640
141534
141470
141375
141283
141171
141047
140924
140831
140728
140617
140506
140356
140255
140132
140008
139869
139792
139690
139552
139420
139235
139153
138999
138899
138753
138622
138476
138304
138118
137875
137811
137640
137518
137356
137161
136954
136678
136609
136384
136307
136119
135897
135646
135321
135229
134962
134896
134682
134378
134207
133858
133701
133330
133043
132952
132691
132430
132023
131522
131488
131145
130982
130566
129990
129845
129337
129312
128930
128392
128191
127509
126943
126951
126483
125824
125613
124740
124102
124140
123526
122636
122606
121596
120839
120890
119798
118901
118118
118419
117337
116537
115839
114902
115891
115116
114827
114816
114931
115437
116463
118337
119740
120748
121500
122212
122767
123294
123701
124118
124449
124804
125085
125394
125625
125886
126078
126307
126465
126665
126800
126980
127095
127256
127356
127504
127589
127724
127797
127923
127984
128101
128154
128262
128309
128407
128449
128539
128576
128659
128692
128768
128797
128869
128895
128960
128983
129045
129065
129122
129140
129194
129210
129258
129273
129320
129332
129375
129385
129427
129436
129473
129482
129519
129525
129558
129564
129597
129601
129630
129634
129663
129666
129692
129694
129720
129721
129745
129745
129769
129768
129790
129789
129810
129809
129828
129827
129846
129843
129861
129858
129876
129873
129889
129886
129902
129898
129913
129909
129924
129919
129934
129929
129943
129938
129951
129945
129959
129953
129966
129960
129972
129966
129978
129972
129984
129977
129988
129982
129993
129986
129997
129990
130001
129994
130005
129997
130008
130001
130011
130003
130013
130006
130015
130007
130017
130009
130019
130011
130020
130012
130021
130013
130022
130014
130022
130014
130023
130015
130023
130014
130023
130015
130023
130014
130023
130014
130022
130014
130022
130013
130021
130012
130020
130012
130019
130010
130018
130009
130016
130007
130014
130005
130012
130002
130009
130000
130006
129996
130003
129993
129999
129989
129995
129985
129991
129981
129988
129977
129983
129973
129979
129969
129975
129964
129972
129962
129971
129962
129974
129973
130003
130065
130083
130021
130004
129973
129977
129972
129957
129971
129961
129958
129972
129965
129961
129976
129969
129968
129982
129976
129972
129986
129978
129977
129990
129983
129980
129994
129985
129984
129998
129991
129988
130001
129993
129992
130006
129998
129995
130009
130000
129999
130012
130005
130001
130014
130006
130004
130017
130010
130006
130019
130009
130008
130021
130013
130009
130022
130012
130011
130023
130016
130011
130024
130014
130012
130025
130017
130012
130025
130015
130013
130026
130018
130013
130026
130016
130014
130026
130018
130013
130026
130016
130014
130026
130018
130013
130025
130015
130013
130025
130017
130012
130024
130013
130011
130023
130015
130010
130021
130011
130009
130021
130012
130006
130018
130007
130005
130017
130008
130002
130014
130002
130000
130012
130003
129996
130008
129996
129994
130005
129997
129989
130000
129988
129986
129997
129989
129981
129992
129979
129976
129988
129979
129971
129981
129968
129965
129976
129968
129959
129969
129956
129952
129963
129954
129945
129954
129941
129937
129947
129938
129928
129937
129923
129919
129929
129920
129908
129917
129902
129898
129907
129898
129885
129893
129878
129872
129881
129872
129858
129865
129849
129843
129851
129842
129826
129832
129816
129809
129816
129806
129789
129794
129777
129768
129774
129765
129745
129749
129731
129721
129726
129715
129694
129696
129677
129666
129669
129658
129634
129634
129615
129602
129603
129591
129564
129561
129541
129526
129526
129512
129483
129477
129456
129438
129435
129420
129387
129379
129355
129334
129328
129311
129274
129263
129238
129212
129203
129184
129142
129128
129099
129069
129054
129033
128987
128968
128936
128899
128879
128856
128802
128777
128742
128697
128671
128644
128582
128550
128511
128455
128420
128390
128317
128276
128231
128163
128115
128081
127997
127940
127890
127810
127742
127703
127605
127527
127468
127373
127278
127230
127115
127008
126932
126819
126688
126622
126486
126334
126251
126097
125907
125844
125646
125424
125329
125097
124819
124757
124454
124142
124078
123698
123330
123335
122778
122278
122276
121502
120666
120489
119578
118341
118906
116916
116607
118437
116166
116124
118322
116225
116480
118717
117077
117676
116755
117500
118466
119644
121264
123326
120492
120179