/*--------------------------------*- C++ -*----------------------------------*\
| =========                 |                                                 |
| \\      /  F ield         | OpenFOAM: The Open Source CFD Toolbox           |
|  \\    /   O peration     | Version:  v2006                                 |
|   \\  /    A nd           | Website:  www.openfoam.com                      |
|    \\/     M anipulation  |                                                 |
\*---------------------------------------------------------------------------*/
FoamFile
{
    version     2.0;
    format      ascii;
    class       volScalarField;
    location    "0.005";
    object      omega;
}
// * * * * * * * * * * * * * * * * * * * * * * * * * * * * * * * * * * * * * //

dimensions      [0 0 -1 0 0 0 0];


internalField   nonuniform List<scalar> 
23013
(
0.538613
0.506415
0.0253188
0.0147939
0.0288863
0.0284304
0.033538
0.0268869
0.0232744
0.0485987
0.0412447
0.0600563
0.100308
0.149403
0.205421
0.284081
0.386856
0.513342
0.636079
0.71104
0.748952
0.673643
0.843907
1.16642
1.56813
1.8663
1.90234
1.80625
1.70669
1.62595
1.56806
1.53512
1.52837
1.65777
1.70306
1.73584
1.7825
1.8399
1.89969
1.95196
1.99041
2.01573
2.0449
2.10725
2.2328
2.43221
2.68817
2.95728
3.16087
3.1736
2.79212
1.59515
0.227643
0.145082
0.187778
0.216242
0.212452
0.212674
0.221029
0.237189
0.248232
0.241148
0.313721
1.84147
4.2977
6.42921
8.31751
10.0983
11.8435
13.5793
15.4392
17.4323
19.5458
21.7929
24.207
26.8287
29.6434
32.4278
34.8286
36.6718
37.8124
38.3927
39.1973
41.0773
44.0451
47.5914
51.3624
55.1841
58.9493
62.5637
65.9073
68.8615
71.3754
73.4435
75.1403
76.5373
77.6362
78.2733
78.4046
77.5346
75.1953
72.4261
69.4031
65.9499
61.879
57.165
51.5516
44.5817
36.3348
29.318
24.3421
21.7341
21.2748
26.6385
40.9759
20.1486
3.81659
8.46552
18.745
158.857
1879.47
11425.3
153231
136412
17546.7
3650.87
6685.75
25425.7
129005
129508
25608.2
7790.75
10655.4
28994.9
130852
134806
28799.7
11451.8
13851.8
31269.7
138054
141720
30901.1
14237.4
15641.7
32985.6
142976
144576
32356.7
15612.1
16421.5
34218.9
144725
145435
33432.9
16271.4
16719.4
34778.2
145404
145756
33824.1
16484.7
16796.5
34945.4
145612
145810
33816.3
16514
16849.9
34834.1
145596
145899
33777.6
16672.6
17328.4
35013.8
145846
146812
34330.7
17280.9
18141.8
35996.7
147005
148272
35369.1
18093.2
18827.1
36889
148326
149261
36146.3
18700.8
19270.9
37516.6
149183
149815
36676.3
19090.6
19551.7
37945.9
149618
149961
36986.7
19328.5
19699.5
38162.5
149577
149726
37106.9
19440.8
19755.6
38206.2
149000
149053
37082.5
19456.7
19728.2
38131.8
148077
147981
36951.1
19385.7
19625.5
37943.2
146682
146400
36689.2
19243.5
19462
37607.5
144769
144336
36290.9
19045.1
19248.9
37169.4
142505
141995
35862.5
18821.8
19023.2
36731.6
140098
139544
35453.2
18604.5
18807.7
36332.1
137633
137027
35090.7
18388.2
18581.5
35959
135091
134396
34694
18122
18291.1
35490.1
132464
131685
34120.9
17785.9
17947.3
34889.2
129926
129179
33519.6
17480.4
17676.4
34321.5
127789
127181
33087.6
17343
17622
33985.3
126174
125752
32945.6
17428.1
17909.7
34062.8
125035
124722
33241.9
17771.3
18385
34589.3
124150
123877
33821.3
18287.8
18998.7
35223.5
123382
123159
34445.5
18914.1
19615.1
35720
122747
122625
34871.8
19503.5
20117.9
35986.8
122286
122221
35131.3
19978.1
20539.6
36258.7
121874
121720
35437.6
20382.3
20864.4
36491.6
121247
120839
35483.3
20658.6
20984.4
36091
120122
119532
34446.1
20734.9
21007.4
34786.3
118920
118501
32884.1
20803.3
21082.1
33246.8
118147
117902
31627.9
20861.4
21019.1
32070.1
117671
117493
30775.6
20686.2
20795.6
31238.2
117304
117148
30150.2
20433.4
20502
30537.4
116976
116834
29566.8
20100.8
20096.2
29790.6
116685
116565
28888.6
19627.2
19505.8
28913.3
116438
116346
28092.4
18931.1
18667.2
27948.7
116254
116227
27190.4
17970.9
17638
26964.6
116210
116247
26210.8
16830.1
16391.3
25954.6
116272
116345
25130.3
15428
14853.2
24894.7
116413
116523
24012.2
13768.7
13152.2
23860.6
116636
116772
23010.3
12044.5
11511.4
22995
116930
117085
22186
10487.1
10111.1
22314.1
117286
117458
21689.9
9243.49
9085.69
22412.7
117690
117874
22074.9
8390.71
8353.16
22873
118124
118313
22533.6
7876.85
7888.96
23308.5
118562
118748
22991.4
7604.1
7655.67
23701.2
118984
119158
23473.8
7503.09
7620.6
24122.2
119391
119566
23953.1
7541.53
7732.18
24570.3
119808
120004
24497.4
7710.97
7894.71
25101.3
120270
120478
25156.4
7892.07
8053.98
25730.9
120749
120944
25893.1
8067.53
8194.43
26400
121202
121376
26630.1
8210.64
8307.58
27062.1
121619
121775
27336.4
8317.55
8384.21
27694.5
122005
122149
27992.2
8388
8434.06
28292.7
122370
122506
28601.4
8433.75
8472.45
28862.9
122719
122849
29175.8
8474.77
8519.5
29414.2
123053
123179
29718.4
8523.65
8578.54
29945.8
123376
123497
30224.2
8577.83
8646.58
30452.1
123689
123811
30688.9
8635.33
8724.52
30932.3
124000
124126
31114
8700.33
8819.94
31393
124316
124446
31509.4
8782.79
8940.3
31844.5
124638
124771
31882.9
8886.28
9080.58
32290.7
124965
125095
32234.3
8997.48
9224.82
32734.8
125290
125413
32577.7
9103.57
9363.88
33200.7
125599
125713
32910.6
9203.46
9492.53
33662
125890
125985
33248.8
9300.54
9611.33
34069.8
126136
126204
33549.4
9403.1
9733.12
34441.8
126348
126399
33808.2
9508.42
9837.37
34743.6
126538
126574
34046.7
9591.83
9918.07
35009.1
126709
126730
34292.3
9665.09
9997.25
35255.8
126856
126855
34544.2
9743.19
10073.4
35460.5
126954
126943
34768.1
9819.77
10141.5
35610.9
127046
127020
34964.5
9886.76
10205.2
35769.5
127105
127059
35186.5
9972.45
10278
35941.7
127118
127051
35394
10063.5
10349.3
36107.1
127084
126997
35589.3
10164.1
10434.3
36266.8
127005
126894
35778.8
10270.8
10528.2
36419.9
126878
126746
35961.8
10375.9
10621.7
36562
126701
126551
36136.5
10477.4
10716.6
36692.9
126479
126310
36300.9
10577.9
10816
36811.1
126210
126023
36452.5
10677.7
10921.4
36916.1
125899
125697
36591.3
10776.5
11029.8
37013.1
125551
125336
36719.8
10874.4
11139.2
37109.2
125170
124943
36840.1
10972.1
11246.2
37194
124760
124522
36955.8
11071.5
11344.7
37264.7
124326
124083
37070
11176.7
11432.9
37332.2
123885
123625
37225.2
11298.5
11507.8
37370.5
123419
123152
37409
11441.9
11574.7
37386.9
122950
122681
37560.7
11577.2
11631.1
37411
122494
122223
37715.2
11710.8
11684.6
37456.1
122062
121830
37871.1
11840.8
11736.1
37505.4
121705
121565
38048.2
11967.9
11777.8
37545
121478
121478
38272.9
12088
11795.9
37571.1
121428
121578
38559.9
12187.2
11777.6
37581.8
121537
121788
38898.8
12261.8
11741.4
37591.5
121723
122010
39250.1
12329.2
11727.3
37641.6
121931
122217
39540.2
12367.5
11738.6
37752.1
122174
122359
39737.8
12367.3
11627.7
37595.7
121872
120566
39110.8
11948.6
10858.2
36341
118524
112748
37653.4
11272.4
9870.48
34301.4
107099
102024
33458.3
9733.14
9276.41
32268.1
99378.5
95856
32205.8
9101.49
3203.96
2062.37
1769.09
1704.39
1594.74
1584.87
1623
1694.78
1885.16
2072.21
2357.26
2490.86
2485.9
2450.04
2640.4
2257.85
2619.1
2856.07
5735.87
14333.5
49705.4
303061
321411
74365.9
23945.6
28251.8
85890.9
341702
357881
79793.4
26157.1
28868.2
86981.3
362126
371891
82776.2
27068.4
30141.2
90718
378391
383403
86360.3
28330.1
32898.8
97414.3
386272
389927
91000.3
29805.1
31127.8
96128.5
389625
389013
84724.8
27213.7
32559.1
95432.6
389721
389421
91320.3
30119
31795.3
97564.5
389005
388879
85968.3
27757.1
33400
97364
389295
388921
92416.3
30834.8
32580.3
99028.4
388489
388344
86808.7
28443.6
34158.8
98985.8
388731
388283
93080.1
31308.3
32763.4
99631.6
387896
387786
87363.2
28836.1
34273.3
100072
388153
387655
93437.8
31469.2
32560.1
99678.5
387330
387272
87969.5
29142.7
34006.1
100570
387602
387076
93758.7
31538.9
32212.9
98996.6
386823
386815
88968.3
29554.9
33578.3
100356
387060
386559
94093.6
31582.3
31906.9
98001.1
386357
386386
90271.8
30010.3
33088.6
99603.5
386517
386074
94415.5
31572.4
31645.7
96831.3
385908
385941
91679.9
30424.7
32627.7
98589.7
385945
385567
94648.8
31508.3
31436.5
95880.1
385421
385432
92841.2
30712.5
32225.6
97698.5
385352
385052
94784.1
31411.4
31216.3
95292.6
384920
384921
93695.6
30882.4
31815.8
97040.3
384796
384590
94839.9
31266.9
30981.7
94945.2
384491
384496
94271.4
30951.2
31389.4
96518.9
384384
384264
94829.4
31097.1
30761.2
94743.3
384209
384230
94631.8
30939.4
30965.6
96126.1
384161
384119
94800
30925.8
30537
94643
384115
384163
94774.1
30808.9
30533.5
95739.4
384153
384176
94678.3
30695.6
30277
94523
384214
384284
94766.5
30586.3
30122.5
95375.3
384320
384384
94506.6
30433.6
30005
94360.6
384452
384539
94708.5
30332.1
29755.6
95102
384611
384703
94359.2
30169.6
29724.3
94215.7
384791
384889
94598.5
30043.5
29377.1
94802.3
384986
385099
94173.6
29872.5
29423.2
94042.5
385198
385304
94441.2
29733.1
28995.7
94497.2
385421
385547
93965.5
29549.3
29102.4
93835.6
385652
385761
94246.5
29406.8
28621.8
94182.1
385891
386028
93727.7
29214
28767.7
93600
386138
386247
94023.8
29068
28247.1
93850.8
386389
386532
93477.2
28867.8
28414.3
93336.8
386643
386749
93765
28713
27869.2
93496.9
386900
387045
93188.8
28511.8
28046.5
93040.5
387152
387254
93465.8
28347.6
27493.4
93114.9
387407
387551
92866.5
28151.5
27670
92713.5
387653
387749
93135.4
27979.3
27125.2
92706.4
387901
388043
92518.7
27790.3
27287.6
92365.2
388137
388225
92777.3
27607
26754.2
92284.4
388377
388510
92144.1
27414.3
26888.4
91992.6
388590
388672
92394.4
27222.5
26370.3
91827.5
388807
388924
91752.7
27021.2
26483.6
91584.8
388987
389059
91980.9
26832.6
25976.8
91338.8
389175
389274
91325.7
26614.9
26067.4
91123.4
389321
389381
91510.7
26419.7
25547.3
90790.3
389477
389559
90830.9
26172.9
25616.2
90570.3
389592
389637
90942.8
25965.1
25075.2
90143.7
389715
389776
90245.7
25700.4
25153.6
89937.5
389795
389825
90325.8
25511.4
24593.2
89528.9
389885
389929
89667.2
25189.1
24616.1
89306.7
389938
389955
89682.6
24958.3
23957.1
88866.8
389998
390027
89075
24532.7
24001.4
88634.9
390026
390026
89002.9
24464
23722.3
88263.4
390048
390058
88646.5
24502.6
24166.6
88206
390043
390020
88618.1
25078.8
24733.4
88190.7
390016
390017
88817.3
25813.8
25695
88404.2
389999
389977
89146.8
27149
26939.7
89235.1
389997
390045
90241
28300.7
28153.8
90066.8
393946
394276
90927.1
29157
29123.5
90836.9
394424
394314
91037.8
29754
29517.5
89596
390653
385827
89745.3
30194.7
30169.7
88453
378255
364120
84223.5
29608.9
26892.4
74979.7
329301
526919
62509.7
23974.9
62296.8
175315
955883
672937
121341
31256.7
35915.9
117967
581780
537386
111836
32223.5
32650.7
109636
524441
511505
107732
31270.7
30907.3
103532
493809
476933
100915
30096.3
29714.8
97978.1
460216
440184
95477.1
29034.6
28818.4
92304
420749
407574
89760.4
28194.8
27411.7
86241.3
390437
378088
85239
27478.4
26574
81955.5
365494
346611
78058
26193.9
25236
72126.5
321959
294887
65272
24011.5
22263.2
60452.1
482458
879184
154261
53055.5
28384.2
109002
605710
539206
109104
33354.1
33374.1
108788
528682
514200
106478
33575.6
32848.4
102985
494488
471062
99437.9
32561.5
32067.3
96584.6
442711
416676
91426.5
31277
29743
82447.4
379471
326951
71377.4
28146.6
25957.6
68825.6
511749
909299
158800
58331.9
30568.6
112450
619960
509207
103659
34039.2
29185.7
94637.7
454255
418114
90829.8
29511.4
26999.6
83127.1
385619
356849
78617.6
27007.8
25682.6
70879.3
322165
288999
63499.4
25218.7
24275.3
62989.7
465682
829029
144982
52744.1
29476.4
104927
563252
488047
101459
32890.7
31043.5
95994.4
459735
424352
89785.6
30826.8
29765.9
82058.1
382685
335297
71598.4
28994.2
28118.4
72615.4
525610
907477
157380
59553.6
32278.1
114130
595605
470051
99200.2
34170.4
28343.3
85034.2
404599
352773
76396
28386.1
25952.8
65152.4
309898
499635
68791.3
26356.3
57706.2
154244
882320
605263
114783
31586.5
35832.7
106830
504081
448226
94554.2
31956.2
30347.2
83585.8
389741
325599
68369.6
28324.2
28540.5
70888.3
497000
829567
151988
60330.9
31189.5
106247
534975
407775
84988.5
32038.5
26902.7
67390.8
330437
516376
71888.6
28315.5
60641.8
157201
886990
573498
108198
31778.2
34034.9
93805.1
453940
371901
75151.1
29590
30519.5
77925.8
558737
912375
162593
63903.4
31610.3
109048
557483
410412
83484.8
31311.8
25396.4
62614.4
331640
501955
70133.2
27852.3
58087.5
148217
811484
502248
90719.6
29160.3
29902.3
71957.1
360095
525410
74033.4
29840.1
57001.3
144518
805031
461007
75477
27781.8
29879.2
84866
622607
947186
157987
58116.1
21307.5
79128.1
527571
343855
51112.8
18095.6
19399.2
62878.6
471889
642600
95860.6
32869.5
28038.9
123049
753854
925589
119251
32725.8
17229.6
48980.3
424409
473439
81861.5
23321.3
14592.2
40174.6
454149
362973
46285.4
15833.5
18558.6
56561.8
516507
670680
73769.7
22604.6
24622.3
81572.4
700507
625411
78722.8
24249
22695.1
69481
524027
383420
13858.1
18652.6
70748.7
193843
490497
595888
71572.4
37267.2
94711.7
226065
616503
617421
88161.4
52740.6
100876
233933
579953
496048
99783.1
54515.1
57814.1
116416
434969
859958
307358
126804
70810.5
94220.4
723348
655768
242420
107127
58254.6
99199.1
500870
409038
110642
58751.3
110440
260775
791454
593859
106305
60178.7
59155.2
113015
457031
831410
261791
108874
58769.5
104837
621865
482284
112308
58016
108491
265206
864039
635322
107780
58690.7
57678.6
113104
499325
950492
272301
109784
59868.6
93390
743852
635478
191126
84059.4
47930
80670.9
464250
345850
94093.2
49618
52394.3
126080
528886
955787
250012
98884.8
51061.9
98546.1
649634
476846
103981
49218
86078.2
217355
858429
623615
89927
44950
43434.5
99064.9
473130
848799
206123
77890.3
40185.4
84617.5
605226
460667
93149
39077.6
72349.3
194025
837997
593900
79697.6
37302.6
36361.4
88521.9
451265
825125
190437
70115.4
35688.3
77951.8
586053
440564
84820.4
35084.3
68121.9
187856
803012
579979
75547.6
34630.5
33948
82562.7
438431
793644
187025
67915.2
33896.3
73453.1
563333
428044
80526.2
33594.7
68487.9
187884
773344
552782
73534.1
34095.2
33677.1
78010.7
418174
748856
185274
68431.7
33934.1
72074.5
540767
414655
77235.6
33795.4
69615.3
188926
755076
542944
72933.1
34534.5
34156.9
78100.1
414093
745465
189049
70517.2
34579.3
72376.7
534616
411196
78592.7
34399.6
72666.9
192983
744718
530091
74126
35812.9
35544.6
79503.3
405119
731521
197070
74633.5
36541.7
74580.7
524736
406288
83142.5
36647.5
77025.3
199876
745819
539102
77278.6
37955.7
37738.7
83601.8
417715
754270
204743
78587
38567.6
78394.6
534009
410079
84766.1
38544.7
80351.1
209283
740765
538763
80956
39717.8
39457.5
85743.4
413198
753161
213581
81858.3
40356.6
80799
540030
416719
88920.2
40327.8
84323.2
217438
755808
550436
84189.2
41905.8
41587.9
91510.5
429529
771858
221048
85775.1
42463.7
84862.6
551022
430207
93103
42323.9
88267.7
226641
784472
573866
88114.8
43844.4
43346.7
94120.6
443729
795110
232551
90661.5
44550.1
89193
577175
448259
97526.6
44353.1
93703.5
241109
819858
599437
93610.4
46359.9
45768.2
99459.7
462143
845243
248890
96773.1
47371.5
95482.5
620304
486041
103393
46845.7
104674
272810
919732
725000
80187.1
53541.5
86630.4
206879
635023
489668
81043.2
42815.3
43894.9
94608.8
398725
747681
233677
93016.8
46370.2
90187.8
555422
436149
99369
46229
99722.8
251408
804940
594212
96823.1
49130.2
49332.7
108094
470080
896339
283688
111019
56954.3
83387.5
726833
637651
216934
92456
45919.8
85262.1
486093
402131
100116
47308.3
99673.6
244179
756415
568711
96281.3
50194.5
50105.3
106086
453222
825276
265263
106672
52754.8
103593
611865
487064
113558
52425
118672
299201
917574
743606
86509.9
61401.1
100372
232806
660876
501132
91989.3
49865.5
51361.9
107805
413846
793090
263207
108709
54562.3
103607
596077
482103
116055
55254
125243
311655
926711
758583
90854
65377.8
107301
244169
672566
524441
98541.8
54090.6
55708.8
116596
447677
893989
306480
125179
66400.4
91049.3
724600
636946
237725
106774
54156.1
96269.3
484004
409518
109612
55334.1
114385
267663
763406
583119
108509
58743.1
59803.8
121403
479080
906348
321284
133246
70702.2
93795.8
747722
674498
255822
115344
58764.5
105032
524107
439688
119927
60431.6
131605
312113
848229
705209
92871.2
71154.7
114442
250588
636778
500074
103098
59038.6
60962.8
118923
425829
817193
295510
126616
65551.9
119432
617822
500673
134504
66447.5
146082
347151
952987
776108
103299
78934.6
127881
277601
702726
565541
117795
66649.6
68600.5
136029
483149
946112
349852
147809
81123
107413
784760
706520
279303
128687
67567.2
115614
545420
470255
134663
69441.5
148743
348664
937229
792487
105386
82434.3
132746
288018
729564
575571
123130
70381.5
72583.9
143102
493302
974710
364820
156730
87358.5
111008
819636
770865
300756
141116
78773.7
106112
653063
612041
260417
125310
68564.3
117871
500185
437517
135058
71294.7
147323
332738
851981
722759
103380
83666.7
130935
271370
670415
528921
120764
70388
73357.6
139872
458433
891102
350519
154207
86868.3
109969
756711
698763
284798
136818
73788.3
126024
547564
473955
145166
76171.6
159651
360583
924162
765167
113438
90273.9
140991
291576
697826
554201
128395
76629.3
79801.4
150246
489804
975959
380820
167580
95948.1
117883
824724
785427
315148
152473
87301.9
118912
683055
648592
281177
137737
77170.4
131342
536527
475047
151504
80567.2
167117
372094
929422
794186
117674
97573.1
151903
304880
757325
648577
118675
87390
135197
269878
614074
501827
129230
76620
80625.4
150413
451524
903168
365683
165039
95696.9
118291
761431
709135
297824
147842
82037.6
136566
559825
491585
158656
85238.1
175734
393227
971805
823246
125187
102239
159971
320713
787054
690894
126384
93248.9
146099
292848
667006
560417
141511
82870.1
87414.2
164165
498409
976441
399948
179860
105617
129163
826842
790668
330269
164099
96142.5
127259
679008
653441
292259
147800
84797.4
141342
539761
478259
162746
88931.3
180562
394504
944386
827029
126855
107925
165771
327231
797754
691594
131468
97635.9
151081
297846
666080
559693
146269
86751.5
91522.6
169016
500072
981239
408410
187037
110909
134972
845913
809198
333936
169651
100682
134692
701104
669407
301910
153928
89814.2
147012
552432
497225
168710
93748.1
187022
407883
972676
841723
133906
112153
171887
337231
813221
717195
137136
102459
159258
312869
715902
648700
131602
97607.7
149918
291512
641602
535800
145992
87787.2
93479.9
171080
486080
970861
410086
189612
114318
136898
840654
808660
337412
173285
104227
138459
699147
679525
309035
158845
93181.3
153968
560775
501690
176528
97673
193880
415746
979729
843476
140553
116926
176482
337704
811339
720556
141446
106954
164362
319161
725489
663375
138423
102436
156457
300865
656802
563259
153778
92802.6
98710.1
179405
514142
1.00899e+06
431074
198937
120102
146241
874899
847089
354590
182742
111593
148334
743963
738904
328516
169897
106094
142547
661129
647472
300793
158979
95136.5
155040
546683
496101
176979
100153
196337
416059
959217
838838
142896
120759
182149
346787
822364
719517
148659
111037
168450
321582
713126
650701
141580
106025
160620
303849
651924
558469
158140
96368.6
102436
183589
512733
1.01365e+06
437160
205735
125765
150839
875984
845865
358745
188604
116171
153791
748549
749585
334882
175611
110930
147905
671715
662944
310270
166005
100355
161263
553528
501809
184950
105563
204464
427782
973126
847602
149812
126555
189632
356550
833059
744408
154368
116674
176532
333896
743242
677480
148953
111946
168617
315908
678651
580628
166290
102015
108571
193278
533894
1.05048e+06
459785
215678
131874
160757
902586
869823
372666
197417
122564
159672
769227
776233
352306
185003
117516
156505
707090
698108
327128
174852
106118
170876
591052
540861
197114
111913
217618
456466
1.0456e+06
898865
162136
133581
199038
373355
873286
778539
160631
123627
187200
356556
793011
733680
161217
119675
179325
337403
740718
679945
153157
115747
172159
319709
682174
573008
168257
105691
112582
196666
531575
1.04282e+06
458761
220627
135903
163979
904371
880209
377518
201668
126717
165106
792652
807560
363401
191723
123923
164525
738436
750124
345864
184982
119962
158406
688833
688597
325918
176999
109054
172666
573317
526671
196959
114935
218654
447419
1.01116e+06
883797
161750
136753
203092
375476
870898
775950
165921
127009
190584
355302
786420
711945
162631
123005
183138
338512
725143
664883
157046
119038
175229
320890
670051
572825
172515
108402
115404
200895
533660
1.03776e+06
459160
223302
140140
165332
896658
889603
388686
208586
131594
172362
798950
809672
370133
197048
128001
170558
740299
752490
352208
189994
123999
163179
688619
690343
332734
181648
112892
177530
579069
533852
202244
118855
224660
455753
1.02197e+06
902665
168603
140495
207032
382666
889587
777126
169278
130902
195945
366974
794084
730124
168603
127322
189234
349853
745182
681487
162915
123912
181733
329580
683565
578754
177698
113650
120628
206977
540664
1.04838e+06
466651
228939
143441
172803
912756
906881
395410
212868
135454
176292
796980
809460
378042
202028
132309
175104
759859
774230
361467
194949
128404
168841
702865
702562
336931
186882
117034
182358
591031
548503
209278
123128
233057
475894
1.06051e+06
913377
175686
146017
215660
394983
896717
796892
175720
136668
203128
376413
813878
748750
175372
132529
195894
360345
763635
692448
169518
128755
187777
340124
695602
592940
184365
117673
124959
213367
553635
1.07893e+06
481298
237956
149744
178061
937122
925152
406798
220505
140850
183859
820627
833499
386032
208260
137217
180031
774298
799250
372506
202288
134521
175812
736084
760826
359987
197176
130799
172075
701064
700677
340668
189334
119361
185155
589011
545513
210704
125747
234042
471802
1.04199e+06
904478
180501
147762
216087
394753
890322
788922
177632
138174
204341
375614
804439
739920
175142
134461
198247
362183
765600
699191
173393
131814
192073
345093
703899
606070
189457
120942
128253
216747
563043
1.06912e+06
487502
241030
152769
183114
940015
944351
413674
224435
144337
186310
827070
836284
390638
212492
140425
184244
768011
785051
372920
205287
135949
176587
716988
724924
353696
196870
124340
192828
606304
562629
220223
130602
243403
486735
1.0743e+06
933282
184529
153667
224392
405135
919823
808077
182346
143732
211834
384946
829708
761549
183183
139627
204757
373108
783622
720849
177882
136548
198591
357063
730179
621738
196032
125644
133015
226357
582024
1.11589e+06
504694
250554
158852
190417
966818
959281
422612
232212
149701
191052
850075
865725
400898
219157
145198
187541
786712
815059
387502
213296
141631
185595
749047
749696
367337
204667
129642
199649
621971
579350
226512
135928
251158
498489
1.09878e+06
945241
190003
159404
233130
422959
947297
838653
192600
149522
219289
398361
851632
779526
189747
145021
211727
383398
804038
732874
183379
141482
206133
367808
748173
641365
203692
130627
138201
231918
595670
1.12683e+06
514394
257308
163964
196446
980184
976191
433942
238979
154693
196713
853809
872862
410664
225747
150098
196700
792165
812653
389859
218270
145640
188010
740870
752082
371520
210017
133364
204951
627669
586582
233086
140123
256945
504253
1.10415e+06
943607
197355
163575
237570
424379
943471
833757
193540
153348
224767
403470
854880
774829
192789
149065
218082
391411
806256
733057
190192
145804
210610
370250
742632
631488
207795
134136
141830
237342
593238
1.13227e+06
523329
263469
168417
204145
975666
971646
439653
244613
158635
199921
848368
864971
412778
230406
152819
198385
772317
775190
385480
219719
139003
214126
651548
604609
241578
146085
268944
529047
1.1295e+06
984193
207065
171763
251743
449502
987294
861607
207278
161777
234795
417997
873803
791078
201886
156096
226060
400989
819887
743376
197147
151458
216939
378498
752538
629373
211257
138644
146653
241311
594633
1.12451e+06
520695
268784
172263
207310
967909
976753
443551
250160
162946
205799
857060
873971
420297
236658
157695
203987
776432
782908
394401
226114
144248
220669
658310
615375
247517
151457
276478
536685
1.14515e+06
982122
209183
177351
257613
454611
987350
860938
213120
166192
241715
427288
877882
778657
208870
159941
229716
398745
785863
658769
222831
146274
154516
253846
621971
1.17051e+06
547894
282557
181081
219661
996757
1.0008e+06
461309
261821
170766
214935
876138
894974
433684
246459
164599
213984
798765
805935
407049
235296
150774
228265
670910
629138
255162
157941
284018
544100
1.1536e+06
990004
222873
182480
263350
458851
996066
868028
214195
171004
246951
430183
888315
791120
211879
164123
235773
405433
809900
673227
230082
149689
158485
259933
631152
1.16885e+06
555500
290203
186231
227772
994718
995355
466962
268324
174447
221345
864995
863593
430567
249161
158377
239603
703037
657328
267802
165242
298666
572669
1.20306e+06
1.02978e+06
233547
192103
276950
480838
1.03665e+06
895726
226158
179813
258861
450722
917091
818601
225206
172854
248391
426318
834920
697428
241362
158640
166794
271778
657598
1.21489e+06
577409
302244
195102
238934
1.0309e+06
1.03257e+06
483284
279737
181802
227035
881474
887500
443717
260007
164279
250079
727312
682255
280188
171808
310910
591454
1.24283e+06
1.04456e+06
244336
199025
285335
490155
1.04626e+06
895619
233199
184948
265753
455330
907182
749510
256415
168382
176219
288284
702320
1.28463e+06
616494
320164
205948
253522
1.08689e+06
1.08862e+06
509181
294568
192681
239365
941978
969102
475616
276233
184417
239170
848376
861602
444210
262002
167276
251901
706347
664735
279060
174635
309958
583117
1.199e+06
1.01889e+06
245753
200660
286709
487698
1.02533e+06
869484
230386
185829
266535
451134
882215
716873
255813
168151
176941
286383
677804
1.21147e+06
591037
315911
202555
255988
1.00542e+06
994934
487536
287548
178817
262230
785021
730804
291461
185037
329873
625148
1.30642e+06
1.09436e+06
260157
211603
304192
519189
1.09889e+06
927705
250465
197156
281503
476230
937959
771801
269693
178759
186814
301753
730679
1.31859e+06
639397
336275
217001
269432
1.11036e+06
1.11078e+06
529780
309753
201415
255817
932385
944320
482825
285830
181303
270832
764869
722668
296407
188223
335669
630191
1.28713e+06
1.05089e+06
273944
214888
305107
512133
1.03471e+06
811436
275657
188424
196016
308815
762106
1.35775e+06
655756
348898
223131
277359
1.12545e+06
1.1276e+06
539060
318766
206995
263644
948669
963747
493924
293398
186364
276495
771355
729117
306896
193611
338213
625599
1.2809e+06
1.04802e+06
276010
218925
310743
516133
1.04783e+06
835000
281721
192804
199444
313200
785318
1.37802e+06
667589
353594
226302
285950
1.12607e+06
1.12138e+06
544226
323204
198626
290906
872888
813847
323468
204742
366734
690716
1.4162e+06
1.14738e+06
298448
233705
333988
559640
1.13646e+06
898861
302390
205240
212025
335356
840820
1.46294e+06
713205
377255
241542
301946
1.19076e+06
1.19646e+06
580546
343791
221713
284249
992303
1.0076e+06
521162
313716
197689
292149
806143
760782
321676
205283
352605
641422
1.28554e+06
989475
309843
216649
220443
336564
902151
1.53627e+06
741871
389177
244813
313972
1.23381e+06
1.22348e+06
595819
350876
213009
313020
939692
876548
346594
219136
394314
739254
1.49919e+06
1.20433e+06
321696
249417
357135
594490
1.1998e+06
938446
319600
217416
224165
353101
879606
1.50163e+06
742156
395600
250961
323883
1.19931e+06
1.18716e+06
590507
355398
216557
314314
916798
859204
344031
223044
387793
717139
1.45083e+06
1.17236e+06
318029
247453
352091
583385
1.1702e+06
904677
313711
213988
220127
342873
847206
1.40283e+06
697876
378973
229583
335297
1.05778e+06
968384
348023
231810
416627
790488
1.62486e+06
1.25509e+06
340920
259257
371284
620229
1.23784e+06
940954
327431
222840
229807
358238
878218
1.43522e+06
718351
395078
237171
342993
1.07398e+06
979578
369053
240986
422089
790654
1.61543e+06
1.26948e+06
344013
264927
378692
627855
1.2589e+06
970354
334249
227479
233362
363211
905508
1.46731e+06
732241
399254
240828
349402
1.10003e+06
999324
373024
244379
423253
788599
1.61168e+06
1.2122e+06
369379
252924
254867
399021
1.10172e+06
1.79339e+06
881646
462984
283949
377144
1.37925e+06
1.35648e+06
679657
406592
240146
351308
1.01105e+06
933008
377204
245590
414505
747691
1.48485e+06
1.09643e+06
358298
247342
250461
380289
994407
1.56929e+06
774953
425616
249356
365706
1.14075e+06
1.02564e+06
386187
251520
432422
800356
1.61677e+06
1.19128e+06
375202
254734
257536
398412
1.07746e+06
1.7194e+06
836260
448990
259929
386992
1.24612e+06
1.10866e+06
409547
260982
459503
856877
1.7291e+06
1.24868e+06
396832
266920
269634
419406
1.11527e+06
1.72975e+06
857729
465188
268298
397807
1.24079e+06
1.11049e+06
419718
269982
464630
853555
1.72512e+06
1.24952e+06
398317
270268
272564
419774
1.12283e+06
1.74471e+06
859441
467918
269160
399199
1.25048e+06
1.12734e+06
419588
270250
468026
862947
1.78607e+06
1.28594e+06
405228
270849
272852
428201
1.14463e+06
1.74961e+06
865408
469888
269919
406491
1.23008e+06
1.04428e+06
427529
274255
285881
484309
1.38177e+06
2.0682e+06
1.00283e+06
513622
289735
445643
1.41848e+06
1.24812e+06
459419
288114
499277
926710
1.89078e+06
1.33818e+06
427670
285037
284190
442461
1.19432e+06
1.82758e+06
884874
483212
271072
407923
1.25872e+06
1.05969e+06
429451
273170
287542
487501
1.37186e+06
2.02842e+06
991248
511941
286314
442159
1.37122e+06
1.14548e+06
463480
290420
297370
507002
1.46281e+06
2.1066e+06
1.02129e+06
523191
286470
444964
1.3962e+06
1.16398e+06
469604
289194
299196
502793
1.51561e+06
2.27306e+06
1.09086e+06
549533
298706
472813
1.50651e+06
1.24004e+06
491823
302063
304585
529062
1.53205e+06
2.1383e+06
1.03465e+06
534123
283244
448712
1.36577e+06
1.1107e+06
437613
274205
296286
520078
1.31563e+06
1.66123e+06
562267
300469
555690
1.12403e+06
2.38262e+06
1.5304e+06
471575
291889
293378
496121
1.24003e+06
1.39977e+06
505310
289736
304082
588279
1.55944e+06
1.80453e+06
604237
297071
552939
1.13865e+06
2.39799e+06
1.47573e+06
477039
281027
265728
416178
1.18148e+06
1.33993e+06
529378
279040
278589
536270
1.45379e+06
1.555e+06
579185
283171
283017
612655
1.65174e+06
1.7453e+06
651100
291939
286820
662067
1.85029e+06
1.90048e+06
743157
314071
313011
738185
1.89993e+06
1.90013e+06
756324
324148
322045
749626
1.89013e+06
1.87944e+06
767556
339514
339148
757497
1.82931e+06
1.77005e+06
764887
345717
350096
767021
1.70763e+06
1.65132e+06
771685
357749
361410
770789
1.60247e+06
1.5591e+06
771198
367536
370682
768187
1.52225e+06
1.48883e+06
766942
374983
376151
760771
1.4607e+06
1.43511e+06
757926
378518
378670
749528
1.41396e+06
1.39468e+06
745240
378792
376851
734483
1.37912e+06
1.36508e+06
728714
376179
373083
717164
1.35397e+06
1.34389e+06
710027
372255
368600
697183
1.3359e+06
1.32873e+06
689470
367741
364343
676616
1.32298e+06
1.31773e+06
668913