/*--------------------------------*- C++ -*----------------------------------*\
| =========                 |                                                 |
| \\      /  F ield         | OpenFOAM: The Open Source CFD Toolbox           |
|  \\    /   O peration     | Version:  v2006                                 |
|   \\  /    A nd           | Website:  www.openfoam.com                      |
|    \\/     M anipulation  |                                                 |
\*---------------------------------------------------------------------------*/
FoamFile
{
    version     2.0;
    format      ascii;
    class       surfaceScalarField;
    location    "0.005";
    object      phi;
}
// * * * * * * * * * * * * * * * * * * * * * * * * * * * * * * * * * * * * * //

dimensions      [1 0 -1 0 0 0 0];
oriented        oriented;


internalField   nonuniform List<scalar> 
45630
(
-1.41243e-05
-0.000592053
0.000582847
2.47035e-05
-0.000553635
0.000540828
5.75202e-06
3.63015e-05
5.52868e-06
0.000646644
2.21523e-05
0.000713318
-6.52743e-06
0.000749297
1.30853e-06
0.000775878
-4.07682e-06
0.000782136
-6.35233e-07
0.000785673
-3.81488e-07
0.000785644
-4.81109e-08
0.000785466
-6.21278e-08
0.000785149
-3.68959e-08
0.000785141
-2.15434e-08
0.000785036
-2.13331e-08
0.000784952
-3.32544e-08
0.000784787
-5.63383e-08
0.000784556
-9.69567e-08
0.000784236
-1.52389e-07
0.00078368
-2.42069e-07
0.00078282
-3.56641e-07
0.000781825
-4.63157e-07
0.000780704
-5.58075e-07
0.000779534
-6.73268e-07
0.000778275
-8.04395e-07
0.000776742
-9.35667e-07
0.000774746
-1.06197e-06
0.000772397
-1.1842e-06
0.000769896
-1.2605e-06
0.000767254
-1.36058e-06
0.000764604
-1.4406e-06
0.000761877
-1.53417e-06
0.000759208
-1.561e-06
0.000756543
-1.5539e-06
0.000754058
-1.526e-06
0.000751788
-1.4775e-06
0.000749735
-1.40182e-06
0.000747957
-1.31866e-06
0.000746462
-1.21987e-06
0.000745239
-1.11207e-06
0.000744288
-9.99476e-07
0.000743601
-8.85989e-07
0.000743155
-7.79366e-07
0.000742915
-6.80406e-07
0.000742858
-5.86603e-07
0.000742975
-4.99869e-07
0.000743262
-4.24241e-07
0.000743708
-3.61407e-07
0.000744294
-3.12376e-07
0.000744989
-2.79956e-07
0.00074574
-2.67661e-07
0.000746463
-2.71576e-07
0.000747129
-2.78012e-07
0.000747925
-2.84466e-07
0.000748778
-2.89112e-07
0.000749645
-2.90844e-07
0.000750509
-2.89176e-07
0.000751366
-2.82351e-07
0.000752215
-2.71677e-07
0.000753033
-2.57782e-07
0.00075382
-2.43543e-07
0.000754568
-2.35238e-07
0.000755288
-2.37519e-07
0.000756069
-2.51751e-07
0.000756794
-2.74255e-07
0.000757412
-3.02632e-07
0.000757947
-3.36617e-07
0.000758408
-3.77034e-07
0.000758793
-4.25627e-07
0.000759098
-4.84877e-07
0.000759309
-5.56962e-07
0.000759406
-6.4288e-07
0.00075937
-7.42275e-07
0.000759178
-8.53164e-07
0.000758806
-9.72749e-07
0.000758233
-1.09927e-06
0.000757443
-1.23029e-06
0.000756419
-1.3658e-06
0.000755129
-1.50491e-06
0.000753543
-1.64655e-06
0.000751645
-1.79093e-06
0.000749411
-1.933e-06
0.000746841
-2.06929e-06
0.000743959
-2.19569e-06
0.000740804
-2.31007e-06
0.000737412
-2.41086e-06
0.000733807
-2.49658e-06
0.000730013
-2.56567e-06
0.000726054
-2.61667e-06
0.000721958
-2.64825e-06
0.000717753
-2.65964e-06
0.000713474
-2.65112e-06
0.000709152
-2.62342e-06
0.000704809
-2.57749e-06
0.000700477
-2.51442e-06
0.000696187
-2.43563e-06
0.000691973
-2.34312e-06
0.000687862
-2.23889e-06
0.000683878
-2.12343e-06
0.000680048
-1.99634e-06
0.000676412
-1.85795e-06
0.000672998
-1.70878e-06
0.000669818
-1.55027e-06
0.000666884
-1.05285e-06
0.000663876
-1.21269e-06
0.000661469
-1.03874e-06
0.000658011
-1.85492e-06
0.000653521
-2.67964e-06
0.000647359
-1.00659e-05
0.000636587
-1.48436e-05
0.000622508
-4.28216e-05
0.000602797
-7.01499e-05
0.000588187
-0.00016163
0.000587695
-0.000345885
0.000664554
-9.77256e-05
0.000170059
9.41613e-06
0.000280753
-3.51985e-07
0.000355664
-1.53297e-05
0.000313092
-7.24005e-06
0.000268312
-4.44874e-06
9.5967e-05
-2.35807e-06
8.00049e-05
6.44527e-05
4.16477e-06
6.02953e-05
9.07258e-06
7.51052e-05
9.05731e-05
1.4473e-05
-7.59366e-06
8.66422e-05
1.15291e-05
-3.83303e-06
7.13479e-05
5.64635e-05
1.73117e-06
5.47277e-05
2.68259e-06
7.03917e-05
8.57957e-05
3.52576e-06
-4.15704e-06
8.34794e-05
6.45837e-06
-2.08631e-06
6.83082e-05
5.26315e-05
8.89082e-07
5.17252e-05
1.25742e-06
6.79184e-05
8.28749e-05
1.83613e-06
-2.67375e-06
8.12376e-05
4.27693e-06
-1.32764e-06
6.6544e-05
5.03748e-05
-2.66104e-08
5.0372e-05
-6.17052e-08
6.65432e-05
8.09715e-05
1.61851e-07
-1.83514e-06
7.99868e-05
2.76958e-06
-8.71463e-07
6.55372e-05
4.94657e-05
-3.71827e-07
4.97969e-05
-4.3532e-07
6.55519e-05
8.03477e-05
-8.54166e-07
-1.81933e-06
7.9338e-05
2.76379e-06
-8.72412e-07
6.45502e-05
4.88789e-05
-3.49501e-07
4.91782e-05
-4.17356e-07
6.45576e-05
7.96734e-05
-8.24938e-07
-1.50148e-06
7.86503e-05
2.44579e-06
-8.75038e-07
6.38655e-05
4.82487e-05
-3.52573e-07
4.85426e-05
-4.28171e-07
6.38702e-05
7.89619e-05
-8.24914e-07
-1.45948e-06
7.79199e-05
2.40999e-06
-8.43931e-07
6.31787e-05
4.76361e-05
-3.94021e-07
4.79636e-05
-4.82964e-07
6.31868e-05
7.82079e-05
-8.68326e-07
-1.383e-06
7.71457e-05
2.34214e-06
-7.823e-07
6.25007e-05
4.71111e-05
-4.5294e-07
4.74901e-05
-5.55593e-07
6.25136e-05
7.74101e-05
-9.28484e-07
-1.31285e-06
7.63322e-05
2.27719e-06
-7.25317e-07
6.1832e-05
4.66872e-05
-4.83744e-07
4.70899e-05
-5.92831e-07
6.1843e-05
7.65785e-05
-9.57553e-07
-1.29965e-06
7.54928e-05
2.26198e-06
-7.16268e-07
6.11574e-05
4.6289e-05
-4.64275e-07
4.66653e-05
-5.66771e-07
6.11539e-05
7.57234e-05
-9.25024e-07
-1.3369e-06
7.4628e-05
2.30037e-06
-7.45076e-07
6.04525e-05
4.58292e-05
-4.22008e-07
4.61576e-05
-5.06927e-07
6.04249e-05
7.48367e-05
-8.51008e-07
-1.39108e-06
7.3725e-05
2.36437e-06
-7.80908e-07
5.96997e-05
4.5281e-05
-3.7686e-07
4.55607e-05
-4.362e-07
5.96424e-05
7.39055e-05
-7.56958e-07
-1.45199e-06
7.27741e-05
2.4419e-06
-8.17281e-07
5.88901e-05
4.46455e-05
-3.28589e-07
4.48762e-05
-3.57262e-07
5.88012e-05
7.29241e-05
-6.48644e-07
-1.51975e-06
7.17731e-05
2.53024e-06
-8.56078e-07
5.80207e-05
4.39229e-05
-2.75624e-07
4.41027e-05
-2.69528e-07
5.78996e-05
7.1893e-05
-5.27666e-07
-1.59683e-06
7.07235e-05
2.63112e-06
-8.99169e-07
5.70895e-05
4.31099e-05
-2.15162e-07
4.32343e-05
-1.69293e-07
5.69347e-05
7.08139e-05
-3.9051e-07
-1.68756e-06
6.96278e-05
2.74783e-06
-9.50397e-07
5.60929e-05
4.21967e-05
-1.43686e-07
4.22575e-05
-5.25704e-08
5.59021e-05
6.96888e-05
-2.33193e-07
-1.78996e-06
6.84872e-05
2.8785e-06
-1.00879e-06
5.50269e-05
4.11704e-05
-6.77305e-08
4.1165e-05
7.15431e-08
5.47998e-05
6.85197e-05
-6.64637e-08
-1.8887e-06
6.73029e-05
3.00778e-06
-1.06309e-06
5.38929e-05
4.00344e-05
-2.66004e-09
3.99755e-05
1.79684e-07
5.36363e-05
6.73164e-05
7.68411e-08
-1.9706e-06
6.6086e-05
3.12011e-06
-1.1037e-06
5.27023e-05
3.88164e-05
4.81603e-08
3.8719e-05
2.65694e-07
5.2425e-05
6.60882e-05
1.91502e-07
-2.03531e-06
6.48477e-05
3.2123e-06
-1.13335e-06
5.14706e-05
3.75426e-05
9.42205e-08
3.74111e-05
3.42077e-07
5.11772e-05
6.48414e-05
2.93164e-07
-2.09334e-06
6.35949e-05
3.29239e-06
-1.16024e-06
5.02049e-05
3.62189e-05
1.38513e-07
3.60532e-05
4.11717e-07
4.98984e-05
6.35834e-05
3.82817e-07
-2.13711e-06
6.23329e-05
3.35325e-06
-1.17868e-06
4.89116e-05
3.48514e-05
1.65686e-07
3.46659e-05
4.56812e-07
4.85963e-05
6.2315e-05
4.45397e-07
-2.14544e-06
6.10552e-05
3.37952e-06
-1.16882e-06
4.75984e-05
3.34795e-05
1.5818e-07
3.3305e-05
4.60814e-07
4.72764e-05
6.10209e-05
4.71907e-07
-2.11683e-06
5.97371e-05
3.37818e-06
-1.12482e-06
4.62655e-05
3.2164e-05
1.23405e-07
3.20231e-05
4.37474e-07
4.59316e-05
5.96681e-05
4.83388e-07
-2.08171e-06
5.83396e-05
3.38456e-06
-1.07007e-06
4.48978e-05
3.09329e-05
9.50314e-08
3.08136e-05
4.2664e-07
4.45399e-05
5.8216e-05
5.20433e-07
-2.08155e-06
5.68237e-05
3.43776e-06
-1.04103e-06
4.34672e-05
2.97428e-05
1.09077e-07
2.95973e-05
4.72402e-07
4.30647e-05
5.66297e-05
6.22317e-07
-2.15538e-06
5.51581e-05
3.57229e-06
-1.0648e-06
4.1925e-05
2.84864e-05
1.81601e-07
2.82489e-05
6.08125e-07
4.14392e-05
5.48753e-05
8.25177e-07
-2.30863e-06
5.33033e-05
3.79889e-06
-1.1364e-06
4.01942e-05
2.70458e-05
2.82561e-07
2.6685e-05
8.01703e-07
3.9588e-05
5.29055e-05
1.10217e-06
-2.47003e-06
5.12178e-05
4.04215e-06
-1.20586e-06
3.82221e-05
2.539e-05
3.55071e-07
2.49351e-05
9.56797e-07
3.75029e-05
5.06944e-05
1.34502e-06
-2.54647e-06
4.89035e-05
4.18317e-06
-1.2217e-06
3.60468e-05
2.36032e-05
3.7295e-07
2.31083e-05
1.01133e-06
3.52605e-05
4.82782e-05
1.46126e-06
-2.52667e-06
4.64258e-05
4.18382e-06
-1.19478e-06
3.37656e-05
2.1779e-05
3.79945e-07
2.12506e-05
1.00997e-06
3.29543e-05
4.57445e-05
1.47327e-06
-2.48943e-06
4.38817e-05
4.11325e-06
-1.18279e-06
3.14499e-05
1.99053e-05
4.15762e-07
1.93125e-05
1.0323e-06
3.06165e-05
4.31807e-05
1.47082e-06
-2.47528e-06
4.13311e-05
4.04118e-06
-1.1759e-06
2.90831e-05
1.79452e-05
4.30419e-07
1.73091e-05
1.0841e-06
2.81767e-05
4.06111e-05
1.49707e-06
-2.45902e-06
3.87506e-05
3.99136e-06
-1.09483e-06
2.65426e-05
1.59944e-05
3.35384e-07
1.54249e-05
1.07563e-06
2.5515e-05
3.79644e-05
1.51116e-06
-2.26371e-06
3.60383e-05
3.81871e-06
-8.91874e-07
2.38399e-05
1.42844e-05
1.6786e-07
1.38532e-05
8.24053e-07
2.2864e-05
3.5162e-05
1.30856e-06
-1.8412e-06
3.32263e-05
3.368e-06
-6.97005e-07
2.13847e-05
1.28787e-05
5.72691e-08
1.25305e-05
4.60379e-07
2.06312e-05
3.23795e-05
8.81272e-07
-1.44431e-06
3.06218e-05
2.75896e-06
-5.82559e-07
1.9404e-05
1.16432e-05
9.11435e-09
1.13163e-05
2.17478e-07
1.88141e-05
2.99327e-05
4.45571e-07
-1.19115e-06
2.83931e-05
2.25344e-06
-5.03442e-07
1.77305e-05
1.04825e-05
-1.56781e-08
1.01567e-05
1.02739e-07
1.72032e-05
2.78204e-05
1.82864e-07
-1.02392e-06
2.64133e-05
1.9209e-06
-4.33348e-07
1.61892e-05
9.3698e-06
-3.96158e-08
9.04253e-06
3.84996e-08
1.56727e-05
2.58735e-05
5.21201e-08
-8.75862e-07
2.45457e-05
1.66765e-06
-3.62278e-07
1.47138e-05
8.30832e-06
-6.70863e-08
7.99667e-06
-2.14845e-08
1.42147e-05
2.40193e-05
-3.96793e-08
-6.94494e-07
2.27696e-05
1.39034e-06
-2.78383e-07
1.33383e-05
7.33366e-06
-1.14797e-07
7.05946e-06
-1.35414e-07
1.28933e-05
2.22628e-05
-1.88417e-07
-4.69027e-07
2.11124e-05
1.05582e-06
-1.78696e-07
1.21344e-05
6.48926e-06
-1.72798e-07
6.26955e-06
-2.83448e-07
1.17753e-05
2.06607e-05
-3.96677e-07
-2.20954e-07
1.9643e-05
6.74468e-07
-7.35434e-08
1.11588e-05
5.80415e-06
-2.36181e-07
5.65019e-06
-4.53854e-07
1.09095e-05
1.92694e-05
-6.41873e-07
2.70271e-08
1.83829e-05
3.01902e-07
2.74783e-08
1.04453e-05
5.2903e-06
-2.93436e-07
5.20006e-06
-6.14749e-07
1.03074e-05
1.80707e-05
-8.54837e-07
2.21006e-07
1.72853e-05
1.65915e-08
1.03324e-07
9.97164e-06
4.92462e-06
-3.36724e-07
4.88698e-06
-7.3762e-07
9.92464e-06
1.70218e-05
-1.01281e-06
3.87637e-07
1.63519e-05
-2.47855e-07
1.67119e-07
9.70446e-06
4.68562e-06
-3.61586e-07
4.68515e-06
-8.1529e-07
9.72533e-06
1.61435e-05
-1.1274e-06
5.18823e-07
1.55986e-05
-4.82654e-07
2.15259e-07
9.60539e-06
4.54612e-06
-3.70288e-07
4.57151e-06
-8.54354e-07
9.67703e-06
1.54498e-05
-1.20079e-06
6.57341e-07
1.50601e-05
-7.47304e-07
2.66281e-07
9.66859e-06
4.50391e-06
-3.55648e-07
4.53717e-06
-8.34641e-07
9.76166e-06
1.49396e-05
-1.17761e-06
7.88724e-07
1.47077e-05
-1.00381e-06
3.13483e-07
9.86534e-06
4.54036e-06
-3.12628e-07
4.5551e-06
-7.39718e-07
9.93568e-06
1.45657e-05
-1.02713e-06
8.78225e-07
1.44615e-05
-1.18462e-06
3.40673e-07
1.01321e-05
4.61091e-06
-2.54352e-07
4.59431e-06
-5.99809e-07
1.01532e-05
1.42712e-05
-7.99731e-07
9.27156e-07
1.42721e-05
-1.29311e-06
3.52121e-07
1.04239e-05
4.6917e-06
-1.91219e-07
4.64426e-06
-4.4369e-07
1.03908e-05
1.40319e-05
-5.46711e-07
9.37321e-07
1.41163e-05
-1.33877e-06
3.48214e-07
1.07162e-05
4.77196e-06
-1.27484e-07
4.69563e-06
-2.85084e-07
1.06302e-05
1.38356e-05
-2.96848e-07
9.27825e-07
1.39952e-05
-1.35316e-06
3.37657e-07
1.09992e-05
4.84813e-06
-6.76475e-08
4.74758e-06
-1.33237e-07
1.08638e-05
1.36868e-05
-6.62153e-08
9.03613e-07
1.39206e-05
-1.35154e-06
3.2352e-07
1.12661e-05
4.92242e-06
-1.25145e-08
4.80336e-06
1.07749e-08
1.10855e-05
1.3597e-05
1.44578e-07
8.72391e-07
1.39051e-05
-1.34347e-06
3.08739e-07
1.15136e-05
4.99901e-06
3.60726e-08
4.86723e-06
1.32491e-07
1.13027e-05
1.35841e-05
3.15817e-07
8.34854e-07
1.3963e-05
-1.3219e-06
2.90893e-07
1.17567e-05
5.08303e-06
7.58206e-08
4.95133e-06
2.29673e-07
1.15361e-05
1.36715e-05
4.40946e-07
7.97521e-07
1.41183e-05
-1.2942e-06
2.72227e-07
1.20198e-05
5.18882e-06
1.03995e-07
5.06883e-06
2.96638e-07
1.18088e-05
1.38722e-05
5.21782e-07
7.65316e-07
1.43863e-05
-1.26761e-06
2.55975e-07
1.23272e-05
5.3322e-06
1.2306e-07
5.23799e-06
3.38409e-07
1.21471e-05
1.42038e-05
5.64332e-07
7.31459e-07
1.47811e-05
-1.23187e-06
2.39327e-07
1.27028e-05
5.53025e-06
1.33653e-07
5.47207e-06
3.57526e-07
1.25698e-05
1.46739e-05
5.73533e-07
6.98714e-07
1.53063e-05
-1.1907e-06
2.23587e-07
1.31614e-05
5.79275e-06
1.34161e-07
5.77549e-06
3.51159e-07
1.30851e-05
1.52801e-05
5.47001e-07
6.6369e-07
1.59572e-05
-1.13965e-06
2.07414e-07
1.37083e-05
6.12187e-06
1.31676e-07
6.14979e-06
3.36174e-07
1.36955e-05
1.60156e-05
5.08659e-07
6.17941e-07
1.6723e-05
-1.0665e-06
1.87326e-07
1.43414e-05
6.51654e-06
1.25418e-07
6.58887e-06
3.13399e-07
1.4391e-05
1.68614e-05
4.60971e-07
5.64036e-07
1.7583e-05
-9.75545e-07
1.64625e-07
1.50482e-05
6.96831e-06
1.1582e-07
7.08275e-06
2.83913e-07
1.51565e-05
1.77951e-05
4.04511e-07
5.02782e-07
1.85147e-05
-8.69948e-07
1.39113e-07
1.58133e-05
7.46622e-06
1.03442e-07
7.61952e-06
2.48651e-07
1.5976e-05
1.87934e-05
3.40133e-07
4.35967e-07
1.94954e-05
-7.53428e-07
1.11191e-07
1.66208e-05
7.9976e-06
8.70421e-08
8.18564e-06
2.05143e-07
1.68324e-05
1.98332e-05
2.63896e-07
3.70335e-07
2.05067e-05
-6.39692e-07
8.37659e-08
1.74555e-05
8.55024e-06
6.82055e-08
8.76645e-06
1.57651e-07
1.77067e-05
2.08929e-05
1.81029e-07
3.02862e-07
2.15264e-05
-5.24444e-07
5.51997e-08
1.82971e-05
9.1078e-06
5.00452e-08
9.34346e-06
1.11364e-07
1.85779e-05
2.19508e-05
9.84091e-08
2.29336e-07
2.25303e-05
-4.00151e-07
2.47703e-08
1.91223e-05
9.65203e-06
3.25106e-08
9.89802e-06
6.81029e-08
1.94203e-05
2.29801e-05
1.96562e-08
1.56558e-07
2.3493e-05
-2.78855e-07
-3.85475e-09
1.99051e-05
1.0165e-05
1.41159e-08
1.0412e-05
3.00407e-08
2.0202e-05
2.39489e-05
-4.92476e-08
8.46468e-08
2.4384e-05
-1.59443e-07
-3.25581e-08
2.06183e-05
1.0629e-05
-3.80893e-09
1.08702e-05
-7.07062e-09
2.09058e-05
2.48337e-05
-1.14635e-07
1.72414e-08
2.51847e-05
-4.60138e-08
-6.00604e-08
2.12507e-05
1.10333e-05
-1.7251e-08
1.12588e-05
-4.1444e-08
2.15247e-05
2.56169e-05
-1.72861e-07
-3.92092e-08
2.58851e-05
4.81599e-08
-8.28086e-08
2.17984e-05
1.13679e-05
-3.02335e-08
1.15724e-05
-6.71266e-08
2.20445e-05
2.62798e-05
-2.10097e-07
-9.12223e-08
2.64564e-05
1.3858e-07
-1.00872e-07
2.22403e-05
1.16267e-05
-4.51247e-08
1.18071e-05
-9.66963e-08
2.24544e-05
2.68057e-05
-2.50619e-07
-1.23602e-07
2.68992e-05
1.9525e-07
-1.12304e-07
2.25803e-05
1.18091e-05
-5.51868e-08
1.19576e-05
-1.18344e-07
2.27558e-05
2.71974e-05
-2.81505e-07
-1.42897e-07
2.72156e-05
2.28179e-07
-1.19174e-07
2.28181e-05
1.191e-05
-5.95826e-08
1.20197e-05
-1.27682e-07
2.29468e-05
2.74551e-05
-2.94458e-07
-1.50878e-07
2.74049e-05
2.41939e-07
-1.22515e-07
2.29523e-05
1.19251e-05
-5.43759e-08
1.1986e-05
-1.23782e-07
2.30301e-05
2.75792e-05
-2.88223e-07
-1.4358e-07
2.74658e-05
2.34986e-07
-1.15525e-07
2.29836e-05
1.18548e-05
-5.13796e-08
1.18696e-05
-1.05767e-07
2.29949e-05
2.75622e-05
-2.54313e-07
-1.1722e-07
2.74003e-05
1.96178e-07
-1.03425e-07
2.2912e-05
1.17082e-05
-5.13487e-08
1.16809e-05
-1.08334e-07
2.28755e-05
2.74411e-05
-2.61892e-07
-8.86016e-08
2.72315e-05
1.5331e-07
-9.10868e-08
2.27572e-05
1.14886e-05
-3.8305e-08
1.14034e-05
-7.62709e-08
2.26482e-05
2.71904e-05
-2.12599e-07
-6.34737e-08
2.69219e-05
1.19402e-07
-7.81283e-08
2.24855e-05
1.1177e-05
-2.6963e-08
1.10319e-05
-4.67136e-08
2.23004e-05
2.67936e-05
-1.66148e-07
-2.97807e-08
2.64664e-05
7.46317e-08
-6.18941e-08
2.20963e-05
1.07727e-05
-1.50399e-08
1.05686e-05
-1.51856e-08
2.18362e-05
2.62555e-05
-1.2107e-07
6.02081e-09
2.58776e-05
2.49404e-08
-4.53613e-08
2.16012e-05
1.02838e-05
-4.05083e-09
1.00275e-05
1.34112e-08
2.12729e-05
2.55934e-05
-7.38666e-08
6.21772e-08
2.51831e-05
-6.63725e-08
-1.97602e-08
2.10161e-05
9.72477e-06
1.22113e-08
9.41973e-06
5.11758e-08
2.06255e-05
2.48234e-05
-9.51043e-09
1.10408e-07
2.44045e-05
-1.3385e-07
5.65909e-09
2.03588e-05
9.11145e-06
4.28739e-08
8.75332e-06
1.22967e-07
1.99021e-05
2.39577e-05
1.19754e-07
1.46699e-07
2.3537e-05
-2.08731e-07
2.21828e-08
1.96306e-05
8.44556e-06
6.50766e-08
8.03102e-06
1.72708e-07
1.91043e-05
2.29952e-05
2.0628e-07
2.39286e-07
2.25772e-05
-3.60179e-07
6.67668e-08
1.8828e-05
7.7224e-06
7.45232e-08
7.25577e-06
1.99251e-07
1.8236e-05
2.19458e-05
2.72847e-07
3.26765e-07
2.15384e-05
-5.08411e-07
1.07919e-07
1.79628e-05
6.95176e-06
1.0417e-07
6.43907e-06
2.69723e-07
1.73095e-05
2.08214e-05
4.01983e-07
3.76202e-07
2.04434e-05
-5.94071e-07
1.30697e-07
1.70571e-05
6.15242e-06
1.34727e-07
5.6008e-06
3.41991e-07
1.63488e-05
1.96524e-05
5.22939e-07
4.31735e-07
1.93059e-05
-7.03227e-07
1.51933e-07
1.6121e-05
5.33022e-06
1.37326e-07
4.74942e-06
3.62965e-07
1.53665e-05
1.84559e-05
5.80775e-07
5.4595e-07
1.81369e-05
-8.931e-07
1.99702e-07
1.51545e-05
4.48084e-06
1.5522e-07
3.87474e-06
4.2179e-07
1.43485e-05
1.72194e-05
6.90475e-07
6.03529e-07
1.69627e-05
-1.00938e-06
2.16486e-07
1.4185e-05
3.63114e-06
1.66633e-07
3.00967e-06
4.84426e-07
1.33232e-05
1.5979e-05
8.14132e-07
6.73112e-07
1.57907e-05
-1.15155e-06
2.29568e-07
1.32121e-05
2.77535e-06
1.72436e-07
2.14449e-06
5.44856e-07
1.2291e-05
1.47365e-05
9.38757e-07
7.40381e-07
1.46085e-05
-1.29493e-06
2.36527e-07
1.22264e-05
1.90531e-06
1.59379e-07
1.28392e-06
5.92776e-07
1.124e-05
1.34778e-05
1.0581e-06
7.89051e-07
1.34269e-05
-1.41913e-06
2.23238e-07
1.12391e-05
1.03287e-06
1.12053e-07
4.66013e-07
6.01238e-07
1.02052e-05
1.22428e-05
1.12929e-06
8.06303e-07
1.2295e-05
-1.53232e-06
1.60922e-07
1.02883e-05
1.5348e-07
2.71146e-08
-3.30729e-07
5.69402e-07
9.20207e-06
1.10477e-05
1.17072e-06
8.48167e-07
1.12225e-05
-1.65909e-06
1.5336e-07
9.37508e-06
-6.14899e-07
1.14314e-07
-1.16562e-06
6.84626e-07
8.28311e-06
9.95288e-06
1.32571e-06
1.05404e-06
1.02013e-05
-1.95014e-06
2.97572e-07
8.49959e-06
-1.31988e-06
2.20987e-07
-1.97538e-06
8.23555e-07
7.37832e-06
8.89392e-06
1.50936e-06
1.2087e-06
9.23003e-06
-2.16377e-06
4.10813e-07
7.66139e-06
-1.99471e-06
3.19957e-07
-2.72903e-06
9.4127e-07
6.54574e-06
7.93326e-06
1.64468e-06
1.37194e-06
8.36832e-06
-2.39208e-06
5.29872e-07
6.90047e-06
-2.60641e-06
4.07398e-07
-3.41904e-06
1.02865e-06
5.79658e-06
7.08862e-06
1.72931e-06
1.52485e-06
7.60959e-06
-2.59577e-06
6.52442e-07
6.21104e-06
-3.14997e-06
4.79472e-07
-4.00944e-06
1.07355e-06
5.16501e-06
6.39975e-06
1.74267e-06
1.64037e-06
7.01401e-06
-2.74155e-06
7.51882e-07
5.6479e-06
-3.59778e-06
5.03513e-07
-4.43616e-06
1.03052e-06
4.72351e-06
5.94916e-06
1.62028e-06
1.60082e-06
6.54553e-06
-2.62858e-06
7.6754e-07
5.19766e-06
-3.97022e-06
4.69061e-07
-4.73901e-06
8.85299e-07
4.42662e-06
5.66935e-06
1.33796e-06
1.56606e-06
6.27173e-06
-2.54528e-06
7.69959e-07
4.90797e-06
-4.23414e-06
3.95054e-07
-4.89367e-06
6.92277e-07
4.29742e-06
5.5258e-06
1.06547e-06
1.82216e-06
6.27934e-06
-2.91053e-06
8.65484e-07
4.97246e-06
-4.26585e-06
2.00674e-07
-4.6801e-06
4.34034e-07
4.48545e-06
5.73274e-06
6.78062e-07
2.92044e-06
7.40321e-06
-4.82978e-06
1.41652e-06
5.78892e-06
-3.43351e-06
6.53703e-07
-4.22358e-06
1.06087e-06
5.21876e-06
6.84571e-06
1.4185e-06
5.56912e-07
6.83953e-06
-7.11536e-07
2.35273e-07
5.406e-06
-4.10382e-06
-3.6023e-07
-3.83037e-06
-9.53991e-07
5.89562e-06
7.31499e-06
-1.55617e-06
6.2341e-07
7.64668e-06
-1.03675e-06
1.36146e-07
6.31204e-06
-3.7575e-06
-3.01608e-07
-7.29009e-07
-1.1518e-06
-3.75362e-06
-1.7552e-05
-4.96445e-06
-1.26415e-05
-6.42532e-06
-1.96612e-05
-6.88477e-06
-1.4279e-05
-8.55047e-06
-1.72733e-05
-9.60347e-06
-1.48212e-05
-1.07092e-05
-1.20827e-05
-1.15314e-05
-9.29744e-06
-1.18795e-05
-1.4957e-06
-1.22415e-05
4.46223e-06
-1.3519e-05
2.04525e-05
-1.54053e-05
2.60415e-05
-2.28627e-05
4.95615e-05
-3.89528e-05
5.24646e-05
-1.52148e-05
1.28088e-05
-3.35152e-06
3.12285e-05
-1.49054e-06
3.5234e-05
-2.94002e-06
3.67013e-05
-1.28561e-06
2.78503e-05
-7.25111e-07
7.89745e-06
-3.42216e-07
7.94489e-06
1.14878e-05
6.14154e-07
1.086e-05
1.0852e-06
7.4612e-06
6.90131e-06
2.06812e-06
-1.41593e-06
5.68378e-06
2.61376e-06
-6.91351e-07
6.72078e-06
1.0155e-05
8.18115e-08
1.0054e-05
1.39961e-07
6.63834e-06
5.08117e-06
7.12354e-07
-9.02076e-07
4.38648e-06
1.55887e-06
-3.56295e-07
6.0635e-06
9.67576e-06
-5.99044e-08
9.70651e-06
-1.60184e-07
6.12583e-06
4.27767e-06
-9.99482e-08
-6.50096e-07
3.67869e-06
1.19887e-06
-2.85199e-07
5.72183e-06
9.39164e-06
-1.67512e-07
9.52539e-06
-1.8814e-07
5.69872e-06
3.41099e-06
2.44586e-08
-1.12414e-06
2.32235e-06
2.15376e-06
-4.65037e-07
4.99326e-06
9.02451e-06
4.02066e-08
8.94526e-06
3.32958e-07
4.64974e-06
1.59461e-06
9.96469e-07
-6.79882e-07
1.82284e-06
3.80223e-07
-4.04963e-07
4.31851e-06
8.49692e-06
-4.17622e-07
8.86661e-06
-1.09302e-06
4.93107e-06
2.46806e-06
-1.81862e-06
-6.41315e-07
1.44477e-06
1.57561e-06
-1.81127e-07
4.40145e-06
8.63184e-06
-9.83986e-08
8.6721e-06
1.22992e-07
4.10498e-06
6.94567e-07
7.76386e-07
-6.30884e-07
9.14057e-07
3.06667e-07
-3.79224e-07
3.77258e-06
8.23022e-06
-4.60773e-07
8.62374e-06
-1.15522e-06
4.37945e-06
1.42409e-06
-1.77872e-06
-6.96723e-07
4.15518e-07
1.58726e-06
-2.16453e-07
3.8071e-06
8.33609e-06
-1.25481e-07
8.38863e-06
9.80534e-08
3.48938e-06
-3.78747e-07
7.70624e-07
-6.35246e-07
-7.24177e-08
1.9944e-07
-4.07993e-07
3.16229e-06
7.90327e-06
-5.23232e-07
8.35165e-06
-1.24582e-06
3.78764e-06
3.56382e-07
-1.80096e-06
-7.60567e-07
-6.12086e-07
1.59575e-06
-2.64976e-07
3.188e-06
8.00618e-06
-1.57313e-07
8.08002e-06
5.61069e-08
2.86686e-06
-1.29007e-06
5.94883e-07
-5.77594e-07
-1.04027e-06
1.81927e-07
-4.13877e-07
2.59086e-06
7.57893e-06
-5.89476e-07
8.07933e-06
-1.33038e-06
3.21573e-06
-5.57031e-07
-1.96422e-06
-8.33762e-07
-1.56336e-06
1.68812e-06
-3.19524e-07
2.5829e-06
7.66809e-06
-2.01239e-07
7.7776e-06
3.47216e-09
2.26009e-06
-2.09534e-06
3.81314e-07
-5.44153e-07
-1.93668e-06
2.27964e-07
-4.32384e-07
2.02711e-06
7.25114e-06
-6.6339e-07
7.82021e-06
-1.40706e-06
2.64804e-06
-1.37903e-06
-2.12423e-06
-9.25715e-07
-2.46404e-06
1.84937e-06
-3.87543e-07
1.98395e-06
7.3353e-06
-2.34679e-07
7.47142e-06
-2.36742e-08
1.64593e-06
-2.86229e-06
2.09926e-07
-4.68558e-07
-2.82915e-06
2.64574e-07
-4.28467e-07
1.47443e-06
6.94098e-06
-7.11582e-07
7.54952e-06
-1.40436e-06
2.03338e-06
-2.22578e-06
-2.18169e-06
-9.75335e-07
-3.36968e-06
1.9453e-06
-4.47825e-07
1.37012e-06
6.99668e-06
-2.62411e-07
7.15432e-06
-5.37635e-08
1.0266e-06
-3.62357e-06
2.47329e-08
-3.82225e-07
-3.73965e-06
3.20501e-07
-4.04756e-07
9.12132e-07
6.64318e-06
-7.04809e-07
7.23893e-06
-1.2798e-06
1.34598e-06
-3.1174e-06
-2.08487e-06
-9.13804e-07
-4.25909e-06
1.8711e-06
-4.61999e-07
7.50465e-07
6.66581e-06
-2.44011e-07
6.79687e-06
-1.22704e-08
3.73265e-07
-4.42344e-06
-3.90152e-08
-2.29613e-07
-4.64938e-06
2.63749e-07
-3.3516e-07
3.31486e-07
6.34746e-06
-6.16438e-07
6.84825e-06
-1.00152e-06
5.67129e-07
-4.10115e-06
-1.74343e-06
-7.19131e-07
-5.1456e-06
1.56978e-06
-4.1419e-07
1.11491e-07
6.31795e-06
-1.93885e-07
6.40139e-06
2.25732e-08
-2.47484e-07
-5.26464e-06
-4.71825e-08
-1.44608e-07
-5.51902e-06
2.0314e-07
-2.30339e-07
-3.10868e-07
6.05543e-06
-4.80192e-07
6.41268e-06
-7.55164e-07
-1.95252e-07
-5.11044e-06
-1.36989e-06
-6.10412e-07
-6.02535e-06
1.32022e-06
-3.30557e-07
-6.33288e-07
5.95957e-06
-1.35412e-07
5.9691e-06
-6.21416e-08
-8.68903e-07
-6.15234e-06
-1.46213e-07
-1.16075e-07
-6.41773e-06
1.70609e-07
-1.29208e-07
-1.01743e-06
5.71431e-06
-3.65647e-07
5.9515e-06
-6.31675e-07
-9.17817e-07
-6.12643e-06
-1.13841e-06
-5.38343e-07
-6.9223e-06
1.11747e-06
-2.62475e-07
-1.36109e-06
5.55944e-06
-1.02841e-07
5.52817e-06
-1.02658e-07
-1.53415e-06
-7.05156e-06
-1.98167e-07
-9.59794e-08
-7.33323e-06
1.53102e-07
-7.21419e-08
-1.73087e-06
5.32148e-06
-2.78568e-07
5.46899e-06
-5.05419e-07
-1.6735e-06
-7.13571e-06
-9.21327e-07
-4.68115e-07
-7.82966e-06
9.48077e-07
-2.16977e-07
-2.09037e-06
5.1236e-06
-7.63434e-08
5.07164e-06
-1.06659e-07
-2.22551e-06
-7.96259e-06
-1.89069e-07
-8.47069e-08
-8.224e-06
1.32675e-07
-3.89319e-08
-2.43469e-06
4.90578e-06
-2.08172e-07
4.98725e-06
-3.86255e-07
-2.42085e-06
-8.10638e-06
-7.17168e-07
-4.0909e-07
-8.71999e-06
8.12456e-07
-1.86056e-07
-2.80579e-06
4.67601e-06
-5.80282e-08
4.60713e-06
-9.73928e-08
-2.93024e-06
-8.87121e-06
-1.60419e-07
-7.53369e-08
-9.11557e-06
1.0567e-07
-2.0663e-08
-3.14835e-06
4.45962e-06
-1.59342e-07
4.49246e-06
-2.96807e-07
-3.17487e-06
-9.05645e-06
-5.6906e-07
-3.44612e-07
-9.6001e-06
6.79567e-07
-1.58874e-07
-3.52128e-06
4.20938e-06
-4.79637e-08
4.13306e-06
-9.11835e-08
-3.63838e-06
-9.76211e-06
-1.3855e-07
-6.2635e-08
-9.98096e-06
7.43545e-08
-9.34782e-09
-3.85019e-06
4.0007e-06
-1.26302e-07
4.00394e-06
-2.29431e-07
-3.9065e-06
-9.95843e-06
-4.58958e-07
-2.9535e-07
-1.04511e-05
5.83243e-07
-1.41101e-07
-4.21823e-06
3.74115e-06
-3.86889e-08
3.65767e-06
-8.05198e-08
-4.33417e-06
-1.06272e-05
-1.10956e-07
-4.83537e-08
-1.08291e-05
4.361e-08
-1.12471e-09
-4.53898e-06
3.53489e-06
-1.06231e-07
3.51837e-06
-1.82811e-07
-4.6215e-06
-1.08359e-05
-3.82876e-07
-2.51597e-07
-1.12888e-05
5.01645e-07
-1.26159e-07
-4.90297e-06
3.27162e-06
-3.18426e-08
3.18299e-06
-6.96385e-08
-5.02061e-06
-1.14744e-05
-8.71209e-08
-3.46529e-08
-1.16556e-05
1.43214e-08
5.43936e-09
-5.21462e-06
3.06899e-06
-8.91823e-08
3.0397e-06
-1.42193e-07
-5.31508e-06
-1.1676e-05
-3.21261e-07
-2.14641e-07
-1.20944e-05
4.35476e-07
-1.14598e-07
-5.56758e-06
2.80714e-06
-2.42945e-08
2.71667e-06
-5.43745e-08
-5.68541e-06
-1.22868e-05
-5.49075e-08
-3.04796e-08
-1.24472e-05
2.73247e-09
6.3156e-09
-5.86637e-06
2.61106e-06
-7.2552e-08
2.57088e-06
-1.01701e-07
-5.98294e-06
-1.24775e-05
-2.60046e-07
-1.87799e-07
-1.28609e-05
3.86735e-07
-1.07761e-07
-6.20459e-06
2.35373e-06
-1.31973e-08
2.25733e-06
-3.20337e-08
-6.32695e-06
-1.30644e-05
-1.41214e-08
-2.73565e-08
-1.32111e-05
-6.90328e-09
6.52472e-09
-6.49933e-06
2.1564e-06
-5.5348e-08
2.10836e-06
-5.97348e-08
-6.62947e-06
-1.32487e-05
-1.99108e-07
-1.59973e-07
-1.36018e-05
3.39049e-07
-1.00847e-07
-6.8224e-06
1.9042e-06
-8.41632e-09
1.80944e-06
-1.97235e-08
-6.94408e-06
-1.38043e-05
8.60971e-09
-1.65513e-08
-1.3937e-05
-2.67465e-08
9.38102e-09
-7.10454e-06
1.71433e-06
-4.83685e-08
1.65716e-06
-4.05255e-08
-7.24849e-06
-1.39794e-05
-1.73188e-07
-1.21295e-07
-1.4306e-05
2.77517e-07
-8.8146e-08
-7.414e-06
1.46639e-06
-3.98098e-09
1.37002e-06
-9.91753e-09
-7.53722e-06
-1.45065e-05
2.28478e-08
-6.94708e-09
-1.46153e-05
-4.53537e-08
1.09502e-08
-7.67833e-06
1.28533e-06
-3.32232e-08
1.22412e-06
-8.6175e-10
-7.83247e-06
-1.46599e-05
-1.15061e-07
-1.0204e-07
-1.49596e-05
2.46819e-07
-8.47517e-08
-7.96811e-06
1.04805e-06
2.77034e-09
9.55519e-07
9.65963e-09
-8.09068e-06
-1.5151e-05
5.04956e-08
1.85271e-09
-1.5242e-05
-6.01618e-08
9.96935e-09
-8.21325e-06
8.76674e-07
-1.96207e-08
8.11282e-07
3.48653e-08
-8.37803e-06
-1.52873e-05
-6.40831e-08
-6.88469e-08
-1.55534e-05
1.9482e-07
-7.57468e-08
-8.47907e-06
6.52107e-07
7.40567e-09
5.6187e-07
2.46036e-08
-8.60316e-06
-1.57399e-05
7.17e-08
1.42062e-08
-1.58094e-05
-7.79766e-08
1.24956e-08
-8.70292e-06
4.95399e-07
-7.45578e-09
4.23309e-07
6.32394e-08
-8.87687e-06
-1.58543e-05
-2.63648e-08
-3.40662e-08
-1.60912e-05
1.4076e-07
-6.27158e-08
-8.94859e-06
2.83077e-07
1.32852e-08
1.98237e-07
3.96433e-08
-9.06705e-06
-1.62685e-05
9.57211e-08
2.71767e-08
-1.63185e-05
-9.7724e-08
1.43608e-08
-9.14911e-06
1.37315e-07
5.28615e-09
6.28197e-08
9.35861e-08
-9.32971e-06
-1.63613e-05
1.61915e-08
-1.35134e-08
-1.65626e-05
1.02871e-07
-6.20198e-08
-9.36605e-06
-6.552e-08
2.08725e-09
-1.33798e-07
4.04412e-08
-9.48905e-06
-1.67398e-05
1.07099e-07
2.51006e-08
-1.67629e-05
-1.08742e-07
-1.56185e-09
-9.54393e-06
-1.98674e-07
-5.40482e-09
-2.54671e-07
1.05022e-07
-9.73368e-06
-1.68022e-05
4.14438e-08
5.80884e-09
-1.69709e-05
6.48521e-08
-6.77205e-08
-9.7351e-06
-3.80305e-07
1.14201e-09
-4.37247e-07
4.85648e-08
-9.85434e-06
-1.71369e-05
1.20798e-07
3.34589e-08
-1.71338e-05
-1.25064e-07
-4.48171e-09
-9.88409e-06
-4.94336e-07
-2.51776e-10
-5.43563e-07
1.2545e-07
-1.00737e-05
-1.7161e-05
6.96913e-08
2.93084e-08
-1.72953e-05
2.72922e-08
-6.3207e-08
-1.00408e-05
-6.52728e-07
2.85209e-09
-6.98679e-07
5.73824e-08
-1.01508e-05
-1.7443e-05
1.32482e-07
4.31744e-08
-1.74097e-05
-1.43986e-07
-5.60567e-09
-1.01537e-05
-7.44452e-07
4.30154e-09
-7.85967e-07
1.41059e-07
-1.03386e-05
-1.74201e-05
8.90002e-08
5.31731e-08
-1.75194e-05
-1.10819e-08
-5.73442e-08
-1.0272e-05
-8.77375e-07
4.09348e-09
-9.12543e-07
6.16941e-08
-1.03696e-05
-1.76441e-05
1.343e-07
5.64212e-08
-1.75782e-05
-1.69426e-07
-4.54155e-09
-1.03446e-05
-9.45157e-07
6.99009e-09
-9.77387e-07
1.49718e-07
-1.052e-05
-1.75683e-05
9.7594e-08
7.67772e-08
-1.7634e-05
-4.84244e-08
-5.11456e-08
-1.04209e-05
-1.05086e-06
3.88988e-09
-1.07435e-06
5.92992e-08
-1.05014e-05
-1.77339e-05
1.26498e-07
7.46956e-08
-1.76379e-05
-1.98786e-07
-2.27774e-10
-1.04481e-05
-1.09141e-06
8.07488e-09
-1.1136e-06
1.53571e-07
-1.06117e-05
-1.7613e-05
1.05135e-07
9.4054e-08
-1.76526e-05
-7.33117e-08
-4.65275e-08
-1.04857e-05
-1.17144e-06
5.20016e-09
-1.18523e-06
6.06688e-08
-1.05522e-05
-1.7734e-05
1.27981e-07
8.7678e-08
-1.7614e-05
-2.17252e-07
1.92136e-09
-1.04738e-05
-1.18911e-06
9.01205e-09
-1.20112e-06
1.55401e-07
-1.06239e-05
-1.75777e-05
1.14316e-07
1.10679e-07
-1.75964e-05
-9.18134e-08
-4.1691e-08
-1.04716e-05
-1.24292e-06
6.29422e-09
-1.24646e-06
5.80024e-08
-1.05197e-05
-1.7665e-05
1.31596e-07
1.07138e-07
-1.75287e-05
-2.3361e-07
8.01887e-09
-1.04131e-05
-1.23278e-06
4.76465e-09
-1.22899e-06
1.44307e-07
-1.05415e-05
-1.74913e-05
1.21651e-07
1.36271e-07
-1.75022e-05
-1.05543e-07
-3.34258e-08
-1.03567e-05
-1.2509e-06
2.90003e-09
-1.23935e-06
3.84973e-08
-1.03736e-05
-1.75691e-05
1.30358e-07
1.46329e-07
-1.7422e-05
-2.63491e-07
2.17463e-08
-1.02263e-05
-1.20021e-06
-1.26553e-08
-1.16724e-06
1.05825e-07
-1.03182e-05
-1.73837e-05
1.02551e-07
1.75445e-07
-1.73783e-05
-1.40767e-07
-1.96374e-08
-1.00926e-05
-1.16357e-06
-4.09277e-09