/*--------------------------------*- C++ -*----------------------------------*\
| =========                 |                                                 |
| \\      /  F ield         | OpenFOAM: The Open Source CFD Toolbox           |
|  \\    /   O peration     | Version:  v2006                                 |
|   \\  /    A nd           | Website:  www.openfoam.com                      |
|    \\/     M anipulation  |                                                 |
\*---------------------------------------------------------------------------*/
FoamFile
{
    version     2.0;
    format      ascii;
    class       volScalarField;
    location    "0.014";
    object      Ma;
}
// * * * * * * * * * * * * * * * * * * * * * * * * * * * * * * * * * * * * * //

dimensions      [0 0 0 0 0 0 0];


internalField   nonuniform List<scalar> 
16277
(
0.136318
0.136323
0.136328
0.136326
0.13631
0.136271
0.136197
0.136083
0.135928
0.135742
0.135537
0.13532
0.135096
0.134866
0.13463
0.134386
0.134133
0.13387
0.133595
0.133309
0.133011
0.132701
0.132381
0.132049
0.131705
0.131351
0.130986
0.13061
0.130224
0.129827
0.129421
0.129005
0.12858
0.128145
0.127703
0.127252
0.126794
0.126329
0.125857
0.125379
0.124895
0.124406
0.123913
0.123415
0.122914
0.122411
0.121904
0.121396
0.120887
0.120377
0.119867
0.119357
0.118849
0.118342
0.117837
0.117335
0.116836
0.11634
0.11585
0.115364
0.114883
0.114409
0.113942
0.113481
0.113028
0.112584
0.112148
0.111722
0.111305
0.110899
0.110503
0.110119
0.109747
0.109387
0.10904
0.108706
0.108386
0.108079
0.107783
0.107495
0.107209
0.106928
0.106672
0.106484
0.106396
0.106387
0.106414
0.106447
0.106473
0.106465
0.106442
0.106374
0.106202
0.105914
0.105445
0.104906
0.102918
0.101645
0.104931
0.10558
0.105657
0.104801
0.100217
0.0988048
0.104644
0.105733
0.105734
0.104389
0.0974978
0.0962881
0.104114
0.105699
0.105594
0.103756
0.0951566
0.0941331
0.103429
0.105483
0.105319
0.103056
0.0931654
0.0923143
0.102731
0.105172
0.104971
0.102337
0.0914908
0.0907541
0.102003
0.104789
0.104555
0.101598
0.0900281
0.0893742
0.101263
0.104352
0.104096
0.100854
0.0887222
0.088132
0.100522
0.103879
0.103607
0.100112
0.0875367
0.0869963
0.0997846
0.103379
0.103094
0.0993766
0.0864446
0.0859417
0.0990528
0.102859
0.102563
0.0986457
0.0854222
0.0849465
0.0983246
0.10232
0.102014
0.0979172
0.0844493
0.0839917
0.097597
0.101764
0.10145
0.0971886
0.0835094
0.0830604
0.0968651
0.101191
0.10087
0.0964563
0.0825892
0.0821527
0.0961367
0.10061
0.100281
0.0957236
0.0816854
0.0812479
0.0953964
0.10001
0.099661
0.094967
0.0807719
0.0803327
0.0946309
0.0993773
0.0990185
0.0941958
0.0798604
0.0794228
0.0938545
0.0987258
0.0983586
0.0934147
0.0789543
0.0785185
0.0930679
0.0980572
0.0976788
0.0926204
0.078051
0.0776154
0.0922664
0.097367
0.0969767
0.0918107
0.0771482
0.0767117
0.0914486
0.0966539
0.0962502
0.090983
0.0762427
0.0758032
0.0906115
0.0959152
0.0954976
0.0901352
0.0753307
0.0748863
0.0897529
0.0951495
0.0947168
0.0892643
0.0744079
0.0739557
0.088869
0.0943537
0.093904
0.0883658
0.0734685
0.0730066
0.0879559
0.0935247
0.0930578
0.0874378
0.07251
0.0720381
0.0870131
0.0926622
0.0921774
0.0864791
0.071531
0.0710473
0.0860379
0.091764
0.0912595
0.0854863
0.0705279
0.0700308
0.085027
0.0908267
0.0903015
0.0844568
0.0694979
0.0689869
0.0839788
0.0898486
0.0893023
0.0833897
0.0684402
0.0679155
0.082893
0.0888291
0.0882617
0.0822852
0.0673552
0.0668171
0.08177
0.0877683
0.08718
0.0811438
0.0662438
0.0656927
0.0806101
0.0866663
0.0860568
0.0799654
0.0651065
0.0645422
0.0794127
0.0855222
0.0848909
0.078749
0.063943
0.0633655
0.0781767
0.0843346
0.0836807
0.0774935
0.0627529
0.062162
0.0769008
0.0831016
0.0824242
0.0761976
0.0615364
0.0609326
0.0755841
0.0818215
0.0811202
0.0748608
0.0602943
0.0596778
0.0742266
0.0804937
0.0797689
0.0734837
0.0590271
0.0583981
0.0728293
0.0791193
0.0783718
0.0720677
0.0577352
0.0570944
0.0713941
0.0777001
0.0769316
0.0706152
0.0564206
0.05577
0.0699246
0.07624
0.0754532
0.0691313
0.0550878
0.0544308
0.0684272
0.0747452
0.0739445
0.067624
0.0537442
0.0530858
0.0669118
0.0732252
0.0724168
0.0661051
0.0524007
0.051748
0.0653926
0.0716935
0.0708857
0.0645911
0.0510728
0.050436
0.0638882
0.070168
0.0693715
0.0631031
0.049782
0.049174
0.0624229
0.0686717
0.0679001
0.0616688
0.0485557
0.0479926
0.0610274
0.0672333
0.0665029
0.0603217
0.0474273
0.0469279
0.0597378
0.0658867
0.0652159
0.0591
0.0464349
0.0460195
0.0585949
0.0646701
0.0640799
0.0580472
0.0456206
0.0453109
0.057643
0.0636263
0.0631377
0.0572072
0.0450259
0.0448579
0.0569182
0.0627941
0.0624287
0.0566157
0.0446956
0.0446874
0.0564684
0.0622179
0.0619819
0.0563086
0.0446541
0.0448039
0.0563063
0.061911
0.0618112
0.0562948
0.0449013
0.0452172
0.0564533
0.0618984
0.061939
0.0565861
0.045457
0.0459177
0.0569029
0.0621832
0.062361
0.0571788
0.0462835
0.0468448
0.0576189
0.0627306
0.0630263
0.0580082
0.0472988
0.0479265
0.0585417
0.0634944
0.063877
0.0590107
0.0484329
0.0490913
0.0596038
0.0644129
0.0648528
0.0601201
0.0496178
0.0502826
0.0607457
0.0654307
0.0659061
0.0612864
0.0508082
0.0514606
0.0619228
0.0665054
0.066997
0.0624675
0.0519655
0.0525872
0.0630951
0.067599
0.0680882
0.0636247
0.0530546
0.0536305
0.0642262
0.0686757
0.0691463
0.0647245
0.0540471
0.0545667
0.0652861
0.069705
0.070144
0.0657409
0.0549239
0.0553811
0.0662527
0.0706629
0.0710603
0.0666555
0.0556742
0.0560672
0.0671112
0.0715316
0.07188
0.0674522
0.0563028
0.0566296
0.0678502
0.0722989
0.0725946
0.0681324
0.0568091
0.0570711
0.0684719
0.0729602
0.0732054
0.0686958
0.0571972
0.0573994
0.068979
0.0735178
0.0737133
0.0691481
0.0574776
0.0576272
0.0693794
0.0739753
0.0741245
0.0694987
0.0576642
0.0577697
0.069684
0.0743408
0.0744485
0.0697599
0.0577727
0.0578423
0.0699054
0.0746248
0.0746963
0.0699441
0.0578178
0.0578582
0.0700561
0.0748383
0.074879
0.0700633
0.0578115
0.0578282
0.0701474
0.0749922
0.0750068
0.0701285
0.0577634
0.0577607
0.0701894
0.0750962
0.0750891
0.0701489
0.0576815
0.057663
0.0701906
0.0751589
0.0751338
0.070132
0.0575718
0.0575401
0.070158
0.0751874
0.0751473
0.0700843
0.0574388
0.0573958
0.0700969
0.0751875
0.0751346
0.0700102
0.0572851
0.0572316
0.0700112
0.0751633
0.0750992
0.0699128
0.0571119
0.0570471
0.0699033
0.075118
0.0750438
0.0697937
0.056918
0.0568378
0.0697759
0.0750548
0.0749711
0.0696552
0.0566998
0.0566031
0.0696289
0.0749742
0.074881
0.0694969
0.0564555
0.0563415
0.0694622
0.0748762
0.0747759
0.0693224
0.0561824
0.0560576
0.0692821
0.074766
0.0746594
0.0691359
0.0558907
0.0557597
0.0690909
0.0746449
0.0745321
0.0689389
0.0555882
0.0554549
0.0688899
0.0745132
0.0743952
0.0687338
0.0552827
0.0551519
0.0686832
0.0743741
0.074253
0.0685256
0.054983
0.0548604
0.0684775
0.0742469
0.0741363
0.0683272
0.0546939
0.0546604
0.0683198
0.074163
0.0740786
0.0682403
0.05453
0.054637
0.0683666
0.0742194
0.074348
0.068531
0.0548963
0.0555834
0.0689798
0.0748439
0.0765663
0.0713934
0.0587737
0.058098
0.0687357
0.0739407
0.0775738
0.0803456
0.0822269
0.082877
0.0834058
0.0848874
0.0854059
0.086213
0.0865582
0.0870485
0.0872618
0.0875267
0.0876256
0.0876846
0.0876486
0.0873885
0.0872425
0.0870322
0.0867726
0.0862768
0.0848451
0.0815246
0.0742199
0.0645592
0.0445768
0.0429553
0.0635252
0.0734165
0.0725964
0.0625633
0.0416681
0.0408475
0.0619205
0.0720674
0.0718027
0.0616454
0.0402378
0.0401165
0.0614947
0.0716739
0.0715452
0.0613648
0.0397643
0.0397249
0.0612744
0.071535
0.0715282
0.0612685
0.0397196
0.0397356
0.0612761
0.0715322
0.0715416
0.0612958
0.0397649
0.0397994
0.0613242
0.0715599
0.0715767
0.0613537
0.0398378
0.0398805
0.0613891
0.0716005
0.0716238
0.0614255
0.0399262
0.039975
0.0614666
0.0716522
0.0716776
0.0615062
0.0400232
0.0400752
0.0615492
0.0717074
0.0717358
0.0615928
0.0401283
0.0401837
0.0616392
0.0717683
0.0717974
0.0616835
0.0402381
0.0402952
0.061731
0.0718302
0.0718617
0.0617785
0.0403541
0.040414
0.0618289
0.0718969
0.0719286
0.0618767
0.0404734
0.0405351
0.0619278
0.071964
0.0719978
0.0619786
0.0405986
0.0406625
0.0620319
0.0720349
0.0720684
0.0620825
0.0407259
0.0407915
0.0621364
0.0721057
0.0721413
0.0621899
0.0408588
0.0409264
0.0622457
0.0721802
0.0722154
0.0622988
0.0409935
0.0410627
0.0623553
0.0722545
0.0722921
0.0624115
0.0411338
0.0412052
0.0624701
0.072333
0.0723701
0.0625258
0.0412757
0.0413486
0.0625849
0.0724115
0.0724512
0.0626438
0.0414225
0.0414975
0.0627047
0.072494
0.0725332
0.0627627
0.0415705
0.0416462
0.0628239
0.0725765
0.0726183
0.062885
0.0417223
0.0417995
0.0629479
0.0726632
0.0727041
0.0630076
0.0418739
0.041951
0.0630704
0.0727492
0.0727931
0.0631333
0.0420282
0.0421066
0.0631979
0.0728403
0.0728837
0.0632596
0.0421818
0.0422595
0.0633242
0.0729313
0.0729779
0.063389
0.042337
0.0424156
0.0634556
0.0730281
0.0730748
0.0635194
0.0424907
0.0425679
0.0635862
0.0731259
0.0731764
0.0636534
0.0426446
0.042722
0.0637226
0.073231
0.0732826
0.0637894
0.0427957
0.0428709
0.0638593
0.0733389
0.0733952
0.0639297
0.0429449
0.043019
0.0640026
0.0734561
0.0735149
0.0640737
0.0430889
0.0431593
0.0641481
0.0735791
0.073644
0.0642236
0.0432276
0.0432952
0.064302
0.0737144
0.073784
0.0643795
0.0433575
0.0434194
0.0644609
0.0738597
0.0739377
0.0645444
0.0434786
0.043535
0.0646317
0.0740224
0.0741078
0.0647194
0.0435865
0.0436361
0.0648125
0.0742011
0.0742986
0.0649093
0.0436834
0.0437273
0.0650118
0.0744046
0.0745139
0.0651176
0.0437678
0.0438072
0.0652316
0.074634
0.0747604
0.0653528
0.0438469
0.0438872
0.0654828
0.074898
0.075042
0.0656209
0.0439296
0.0439773
0.0657721
0.0751999
0.0753673
0.0659356
0.0440336
0.0441011
0.0661142
0.0755489
0.075741
0.0663076
0.0441828
0.0442847
0.066522
0.0759501
0.0761732
0.0667565
0.0444115
0.0445686
0.067016
0.0764139
0.0766703
0.0673003
0.0447622
0.0450011
0.0676175
0.0769486
0.0772455
0.0679674
0.0452917
0.0456474
0.0683575
0.077567
0.077912
0.0687907
0.0460749
0.0465885
0.0692752
0.0782877
0.0786931
0.069814
0.0471947
0.0479345
0.0704334
0.079149
0.0796829
0.0711783
0.0488848
0.0500792
0.0720343
0.0802777
0.0808682
0.072916
0.0512697
0.0524128
0.0737745
0.0814075
0.0818579
0.0745098
0.0535486
0.0545622
0.0749377
0.0821637
0.0824042
0.0755475
0.0555558
0.0564793
0.0759079
0.0825998
0.0827396
0.0763087
0.0575158
0.0586217
0.0767114
0.0828922
0.0829252
0.077005
0.0596395
0.060535
0.0772768
0.0829232
0.0829239
0.0775679
0.0615034
0.0625527
0.0778502
0.0829324
0.0829012
0.0780876
0.0636398
0.0642575
0.0782774
0.0827195
0.0821524
0.0778781
0.064171
0.0499768
0.0714465
0.0793884
0.0816704
0.0744565
0.0535797
0.0535377
0.0747352
0.0817856
0.0816903
0.0749401
0.054451
0.0556607
0.075045
0.0815313
0.0816121
0.0755174
0.0571121
0.0587289
0.0758856
0.0816207
0.081688
0.0764059
0.0602927
0.0617467
0.0766756
0.08159
0.0816011
0.0771087
0.063212
0.0645944
0.0774361
0.0815454
0.0814368
0.0777103
0.0657983
0.0661744
0.0775304
0.0809097
0.0787901
0.0727031
0.0563582
0.0602844
0.0755463
0.0806321
0.0806831
0.0758723
0.0611455
0.0626663
0.0764513
0.0807183
0.0806835
0.0767435
0.0638439
0.064945
0.0769334
0.0805686
0.0804663
0.0772019
0.0660978
0.0666585
0.07717
0.0801622
0.0795177
0.0767843
0.0668616
0.0584647
0.072803
0.0777088
0.0789985
0.0749847
0.0617392
0.0624997
0.0751155
0.0787814
0.0784119
0.0751345
0.0636114
0.0646433
0.0750192
0.0780044
0.0775969
0.0750256
0.0657308
0.0659913
0.0745536
0.0767482
0.075073
0.0710563
0.0588455
0.0625764
0.0729671
0.0761071
0.0757877
0.0730481
0.0634994
0.0643952
0.0728669
0.0752669
0.0746601
0.0726701
0.064922
0.0647823
0.0718398
0.0735902
0.0721651
0.069019
0.0587846
0.0616055
0.0702
0.0725466
0.0715878
0.0695778
0.0618326
0.0625231
0.0690334
0.0705936
0.0691768
0.0679537
0.0622256
0.0573722
0.0654577
0.06774
0.0674975
0.0658614
0.0597367
0.0595582
0.0647032
0.0659986
0.0642751
0.063419
0.0593197
0.0579361
0.0613232
0.0618339
0.0595826
0.0583604
0.0533916
0.0535745
0.0569482
0.0575992
0.0539546
0.0537942
0.0513459
0.0465152
0.0499284
0.0507604
0.0472183
0.0469161
0.045246
0.0406683
0.0409149
0.0406887
0.0339212
0.0341127
0.0335924
0.0241875
0.0230192
0.0231876
0.0160355
0.0142097
0.0140637
0.0150464
0.0155895
0.0186171
0.03907
0.0388336
0.0400874
0.063712
0.0616431
0.0604034
0.0765671
0.078109
0.0796157
0.0883699
0.0884499
0.0876168
0.0905433
0.0904054
0.0888011
0.0910817
0.0944827
0.0947867
0.0951841
0.0941231
0.090083
0.0914405
0.0964679
0.097483
0.0976908
0.0959562
0.0904054
0.0870186
0.0942862
0.0967873
0.0985591
0.0965912
0.088819
0.0855133
0.0941777
0.0970536
0.0989416
0.0968276
0.0890356
0.0877147
0.0957922
0.0985509
0.0968762
0.0934837
0.0845187
0.0876979
0.0961781
0.098622
0.0980105
0.094855
0.0859203
0.082699
0.0923964
0.0961753
0.0980467
0.0954516
0.0863665
0.0846547
0.0941701
0.0974655
0.0953816
0.0914001
0.0810738
0.0849862
0.0944355
0.0972105
0.0968697
0.0934995
0.083768
0.0801228
0.0905902
0.0947595
0.0966029
0.0937253
0.0843857
0.0834639
0.0930273
0.0964327
0.0943043
0.0902008
0.0798182
0.0835431
0.0931508
0.0960789
0.0958853
0.0923967
0.0825727
0.0792846
0.0897204
0.0938787
0.095785
0.0928306
0.0832364
0.0821031
0.092011
0.0955366
0.0934863
0.0893057
0.078686
0.0829056
0.0924362
0.0954085
0.0952869
0.0918441
0.0818285
0.0801094
0.090522
0.0945159
0.0920087
0.0871733
0.0754991
0.0800344
0.0909394
0.0942148
0.0942567
0.0902913
0.0789674
0.0750817
0.0872452
0.091996
0.0941494
0.0908384
0.0798031
0.0784458
0.089816
0.0938786
0.0915505
0.0867889
0.07454
0.0794889
0.0905977
0.0938412
0.0938903
0.0899516
0.0785555
0.0747529
0.0869006
0.0916265
0.0938424
0.0904559
0.0792147
0.0780667
0.0896038
0.0936997
0.0915398
0.0867278
0.0745741
0.0795155
0.09061
0.0939654
0.0939151
0.0898816
0.0784146
0.0746943
0.0866337
0.0915486
0.0938992
0.0904294
0.0793712
0.0782964
0.0896799
0.0938294
0.0916984
0.0868071
0.074878
0.0798172
0.0908665
0.0942335
0.09419
0.0900789
0.0786938
0.074592
0.0867646
0.0916989
0.0942493
0.09082
0.0792119
0.076863
0.0887462
0.0929913
0.095571
0.0925398
0.0821324
0.0815605
0.0919433
0.0956192
0.0935365
0.0891818
0.0783731
0.0824889
0.0926612
0.0958437
0.0957119
0.0918779
0.0812851
0.0781909
0.0893099
0.0937926
0.0963532
0.093299
0.0831339
0.082434
0.0928884
0.0965771
0.0945941
0.0902169
0.0792968
0.0834486
0.0937611
0.096881
0.0967028
0.0928862
0.0821186
0.0786016
0.0899425
0.0946127
0.0970916
0.0939016
0.0834912
0.0829182
0.0935982
0.0974336
0.095313
0.0907923
0.0794678
0.0835254
0.0946326
0.0977616
0.0963373
0.0923551
0.0809895
0.0848619
0.0955409
0.0985884
0.0985068
0.0947644
0.0838685
0.081142
0.0922723
0.0966603
0.0991613
0.0961973
0.0858362
0.0849945
0.0957225
0.0993642
0.0972747
0.0928382
0.0816141
0.0857006
0.0966801
0.0996994
0.0982417
0.094266
0.0829962
0.0871737
0.0974872
0.10053
0.100772
0.0971764
0.0868692
0.0841794
0.0948152
0.0990478
0.101378
0.0984434
0.0884135
0.0875558
0.0979121
0.101537
0.0995112
0.0951549
0.0841327
0.087934
0.0988761
0.101879
0.10036
0.0963567
0.085069
0.0892542
0.0995443
0.102506
0.102878
0.0993337
0.0890281
0.0862614
0.0970691
0.101216
0.103528
0.100657
0.0904145
0.0895316
0.100101
0.103742
0.101675
0.0973115
0.0860643
0.0898003
0.100974
0.103978
0.102518
0.0985336
0.0870251
0.091348
0.101843
0.104827
0.105105
0.101437
0.0909706
0.0879529
0.0989339
0.103246
0.105758
0.102835
0.0919606
0.0898402
0.100904
0.104726
0.107143
0.10439
0.0942411
0.0931737
0.103525
0.107038
0.104852
0.100495
0.0897236
0.0930332
0.103956
0.107044
0.105952
0.101941
0.0908295
0.0958238
0.105785
0.108589
0.108767
0.105226
0.095146
0.0919824
0.102538
0.106872
0.109281
0.106399
0.0958152
0.0935085
0.10437
0.108147
0.110399
0.107663
0.0976092
0.0965439
0.106713
0.110245
0.107997
0.103683
0.0927747
0.0965777
0.107375
0.110233
0.109485
0.105797
0.094884
0.0992562
0.109431
0.112068
0.112313
0.108905
0.0985941
0.0952365
0.106146
0.110352
0.112613
0.109776
0.0986984
0.0963562
0.107494
0.111383
0.113734
0.110967
0.100238
0.097618
0.10846
0.112256
0.114216
0.111449
0.101346
0.101024
0.111073
0.114537
0.112886
0.108733
0.0982678
0.102016
0.11255
0.115353
0.11435
0.110632
0.0998494
0.103864
0.11404
0.11667
0.116701
0.11321
0.102878
0.0994626
0.110445
0.114684
0.116895
0.114017
0.102689
0.099834
0.111405
0.115392
0.117644
0.114813
0.103613
0.101932
0.113046
0.116767
0.119236
0.116631
0.106549
0.105843
0.116039
0.119459
0.117657
0.113475
0.102862
0.106279
0.1172
0.119989
0.118712
0.11492
0.103742
0.107695
0.118482
0.121122
0.119949
0.116381
0.105667
0.109088
0.119253
0.121925
0.121742
0.118185
0.107883
0.104664
0.115533
0.119874
0.122366
0.119592
0.108653
0.106612
0.117676
0.12143
0.123887
0.121336
0.110643
0.108697
0.119361
0.122898
0.125088
0.122559
0.112663
0.111906
0.121847
0.125181
0.123333
0.119228
0.108766
0.111888
0.122699
0.125489
0.124088
0.120261
0.109231
0.112636
0.123579
0.126346
0.125366
0.121641
0.110804
0.115006
0.125023
0.127613
0.127873
0.124447
0.114376
0.111176
0.121949
0.126073
0.12835
0.125681
0.114465
0.112067
0.12356
0.127225
0.129534
0.127061
0.115927
0.113794
0.124867
0.128409
0.130495
0.127933
0.117738
0.116773
0.127034
0.13045
0.128321
0.124024
0.113122
0.116346
0.127599
0.130507
0.129558
0.125627
0.114313
0.118696
0.12963
0.132281
0.131257
0.127578
0.116788
0.120515
0.131098
0.133619
0.132559
0.129095
0.118547
0.122265
0.132165
0.134647
0.134711
0.131373
0.121474
0.118291
0.128717
0.132863
0.135046
0.132266
0.121139
0.118539
0.12991
0.133757
0.136015
0.133243
0.121833
0.119537
0.130889
0.134781
0.137148
0.134523
0.123773
0.122006
0.132623
0.136233
0.13849
0.136017
0.126115
0.125409
0.1354
0.13871
0.136945
0.132811
0.122251
0.125464
0.136524
0.139227
0.138083
0.134302
0.123024
0.126744
0.137876
0.1405
0.139263
0.135574
0.124545
0.128199
0.138909
0.141453
0.140241
0.13664
0.126055
0.129527
0.1396
0.142232
0.142415
0.139
0.128885
0.125918
0.136486
0.140696
0.143043
0.1403
0.129159
0.126772
0.138163
0.141991
0.144496
0.141932
0.130709
0.128607
0.139695
0.143371
0.145547
0.143005
0.13219
0.130081
0.140853
0.144451
0.146552
0.144013
0.133984
0.133196
0.143243
0.146657
0.144758
0.140577
0.129789
0.132613
0.144123
0.146929
0.145699
0.141738
0.130007
0.134207
0.145644
0.148325
0.147288
0.143467
0.132298
0.136107
0.147149
0.149755
0.148626
0.144969
0.134041
0.137562
0.148298
0.15087
0.14982
0.146254
0.135652
0.139384
0.149462
0.151966
0.152142
0.148738
0.138581
0.135315
0.146068
0.150326
0.15259
0.149766
0.138419
0.13574
0.147388
0.151299
0.153628
0.150927
0.13933
0.13698
0.148439
0.152361
0.154816
0.152124
0.140989
0.139137
0.150053
0.153796
0.156158
0.153569
0.14279
0.140981
0.151657
0.155243
0.157542
0.155049
0.145101
0.144271
0.15434
0.157699
0.155901
0.151698
0.141009
0.144393
0.155495
0.158259
0.157118
0.153221
0.142026
0.145951
0.157103
0.159735
0.158564
0.154808
0.143746
0.147232
0.158237
0.160864
0.159596
0.155853
0.145014
0.148599
0.15925
0.161866
0.160935
0.157384
0.146825
0.150583
0.160649
0.163148
0.163415
0.160032
0.149913
0.146755
0.157466
0.161678
0.163927
0.161142
0.149661
0.147225
0.158901
0.162835
0.165397
0.162782
0.151098
0.148783
0.160429
0.164224
0.166615
0.164025
0.152644
0.150612
0.161798
0.165474
0.16771
0.165117
0.154122
0.15223
0.163054
0.166689
0.168975
0.166461
0.156307
0.155547
0.165792
0.169233
0.16748
0.163212
0.152385
0.155608
0.167023
0.169851
0.168818
0.164899
0.153333
0.157361
0.168914
0.171538
0.170381
0.166565
0.155046
0.158938
0.170216
0.172828
0.171737
0.168061
0.157003
0.160526
0.171485
0.174086
0.173098
0.169456
0.158637
0.162588
0.172823
0.175347
0.175604
0.172125
0.161774
0.158463
0.16953
0.173852
0.176242
0.173396
0.161695
0.159171
0.17106
0.175091
0.177718
0.175008
0.163167
0.160868
0.172636
0.176564
0.179147
0.176473
0.164768
0.162713
0.174204
0.17803
0.180469
0.177813
0.166406
0.164396
0.175579
0.179373
0.181874
0.179276
0.16834
0.166527
0.177343
0.180976
0.183315
0.180776
0.170689
0.169948
0.180187
0.183663
0.181993
0.177747
0.166918
0.170304
0.18165
0.184463
0.183444
0.179523
0.16804
0.172184
0.183594
0.18621
0.185154
0.181363
0.170114
0.173903
0.185036
0.187654
0.186584
0.182837
0.171964
0.175649
0.186405
0.189001
0.18805
0.184456
0.173776
0.177706
0.187863
0.190377
0.190658
0.187185
0.176818
0.173839
0.184753
0.189005
0.191447
0.188667
0.177184
0.17462
0.186294
0.190289
0.19298
0.190317
0.178633
0.176592
0.188151
0.191976
0.19448
0.191867
0.180395
0.178534
0.189761
0.193532
0.196152
0.193619
0.182574
0.180866
0.191801
0.195379
0.197763
0.195321
0.18507
0.183927
0.194494
0.198013
0.196331
0.191972
0.180903
0.184482
0.19603
0.198922
0.197791
0.193728
0.181996
0.186172
0.197853
0.200598
0.199528
0.195562
0.184052
0.188177
0.199526
0.202211
0.201258
0.197477
0.186358
0.19021
0.201207
0.203825
0.20302
0.199333
0.188392
0.192735
0.203028
0.205564
0.206117
0.202586
0.192054
0.189226
0.200277
0.204626
0.20727
0.204492
0.192947
0.190684
0.202339
0.206277
0.209021
0.206321
0.194581
0.192218
0.203871
0.207854
0.210348
0.207613
0.196071
0.193987
0.205389
0.209288
0.211982
0.209347
0.198174
0.196238
0.207428
0.211151
0.213657
0.211091
0.20054
0.19985
0.210667
0.21424
0.212693
0.208315
0.197061
0.200698
0.212453
0.215362
0.214433
0.210361
0.198523
0.203102
0.214792
0.217499
0.216771
0.212868
0.201268
0.206226
0.217316
0.219792
0.219039
0.215484
0.204441
0.207959
0.218754
0.221309
0.22146
0.217802
0.206596
0.203426
0.215134
0.219694
0.222356
0.219378
0.207088
0.204565
0.21705
0.221256
0.224228
0.221444
0.20909
0.206823
0.219138
0.223229
0.226105
0.223322
0.211476
0.209354
0.221243
0.225237
0.227994
0.225281
0.214171
0.213569
0.225004
0.228807
0.227313
0.222653
0.210784
0.214871
0.227245
0.230274
0.229603
0.225385
0.212857
0.218624
0.230644
0.233188
0.232188
0.228306
0.21631
0.219869
0.23186
0.23465
0.233486
0.229471
0.21742
0.221888
0.233314
0.236131
0.236537
0.232545
0.220671
0.217684
0.229968
0.234872
0.237879
0.234744
0.222069
0.219376
0.232372
0.236779
0.239979
0.237055
0.224334
0.222253
0.234909
0.239173
0.242532
0.239683
0.227401
0.225336
0.237758
0.241878
0.244918
0.242178
0.230522
0.230219
0.24226
0.246152
0.245013
0.240416
0.228145
0.23263
0.245313
0.248212
0.246758
0.24242
0.229344
0.233684
0.246546
0.249553
0.248348
0.244069
0.231197
0.235858
0.248457
0.251405
0.250451
0.246206
0.233557
0.238458
0.250428
0.253346
0.25403
0.249925
0.237544
0.234634
0.247413
0.252389
0.2555
0.252279
0.239261
0.236877
0.250185
0.254695
0.258436
0.255583
0.242787
0.240736
0.2538
0.258013
0.261427
0.258691
0.24655
0.246901
0.259336
0.26313
0.261631
0.256944
0.244462
0.248023
0.261109
0.26437
0.262784
0.258124
0.244606
0.249447
0.262801
0.26601
0.264904
0.260346
0.246934
0.252189
0.265218
0.268261
0.267514
0.263136
0.250059
0.255457
0.267769
0.270774
0.271705
0.267441
0.254671
0.251967
0.264992
0.270191
0.273602
0.270249
0.257095
0.254767
0.268281
0.272953
0.277094
0.27422
0.261144
0.259533
0.27284
0.277109
0.28093
0.278613
0.267207
0.266979
0.278717
0.282161
0.280092
0.275344
0.262582
0.26601
0.279469
0.282806
0.281522
0.276797
0.262877
0.268365
0.281936
0.285104
0.284358
0.279803
0.265961
0.271802
0.284751
0.287806
0.28881
0.28439
0.270873
0.268015
0.281833
0.287299
0.290874
0.287417
0.273802
0.2713
0.285469
0.290312
0.294528
0.291456
0.278205
0.278118
0.29214
0.29666
0.295991
0.290642
0.276394
0.283726
0.297419
0.300341
0.299102
0.294565
0.280435
0.284425
0.298767
0.302161
0.300643
0.29568
0.280915
0.286587
0.300513
0.303919
0.304665
0.299828
0.285329
0.282136
0.297112
0.302984
0.306935
0.30317
0.288232
0.285535
0.301078
0.30628
0.310727
0.307455
0.293097
0.292645
0.307794
0.312617
0.311313
0.30539
0.289779
0.296906
0.312128
0.315768
0.316114
0.311079
0.295569
0.30513
0.31879
0.321417
0.322348
0.318095
0.303623
0.298059
0.3138
0.319617
0.322854
0.318877
0.303016
0.299342
0.31587
0.321466
0.325647
0.321956
0.306668
0.30572
0.321824
0.327131
0.325544
0.319116
0.30254
0.309536
0.32598
0.330129
0.329566
0.323777
0.30675
0.31582
0.331373
0.334861
0.337547
0.332305
0.315805
0.313546
0.330511
0.336904
0.342678
0.339749
0.324948
0.322833
0.337991
0.342492
0.346165
0.342719
0.327401
0.32424
0.340805
0.346036
0.343546
0.336884
0.319555
0.326373
0.34354
0.347918
0.34684
0.340804
0.323012
0.33155
0.347943
0.35181
0.354034
0.348412
0.331162
0.328257
0.345925
0.352771
0.357902
0.353748
0.33671
0.334978
0.352657
0.358512
0.365203
0.362414
0.347749
0.351002
0.365955
0.369673
0.368315
0.363119
0.34753
0.351024
0.367381
0.371492
0.371041
0.365287
0.347352
0.342492
0.361293
0.368583
0.373729
0.369165
0.350753
0.34762
0.366738
0.373076
0.3789
0.374963
0.357664
0.357967
0.376214
0.381951
0.381374
0.3744
0.355544
0.365956
0.38314
0.387166
0.391833
0.386472
0.36803
0.368004
0.386255
0.39247
0.398391
0.394579
0.376635
0.371673
0.391862
0.398008
0.394568
0.386498
0.365301
0.373998
0.394341
0.399563
0.398301
0.391217
0.370253
0.38128
0.400033
0.404535
0.407839
0.401464
0.381758
0.379941
0.400064
0.407687
0.414413
0.41027
0.392542
0.396144
0.41502
0.420268
0.421551
0.415601
0.397122
0.405885
0.424059
0.42772
0.427033
0.420926
0.400254
0.393455
0.41544
0.423687
0.428787
0.423421
0.403225
0.401652
0.423427
0.430485
0.429667
0.421091
0.398662
0.412636
0.432656
0.437548
0.443298
0.436655
0.414965
0.417434
0.438832
0.445981
0.455269
0.452538
0.435051
0.431639
0.451914
0.456902
0.455766
0.448122
0.424302
0.415402
0.441737
0.451792
0.457841
0.451631
0.427811
0.426362
0.452354
0.460492
0.460763
0.450903
0.424327
0.445406
0.466821
0.471328
0.481602
0.477528
0.455197
0.458557
0.481274
0.486975
0.482836
0.473625
0.446907
0.454704
0.480078
0.486833
0.485951
0.477659
0.448796
0.445726
0.476588
0.48702
0.486909
0.474639
0.442832
0.472218
0.495199
0.499748
0.510979
0.506875
0.482803
0.481328
0.507784
0.514691
0.508603
0.497549
0.465431
0.476358
0.504925
0.512624
0.513206
0.504716
0.47237
0.472188
0.507624
0.517676
0.528686
0.519064
0.483296
0.48314
0.51741
0.528773
0.535878
0.527087
0.493448
0.48138
0.520893
0.532345
0.5321
0.519336
0.4757
0.478757
0.52518
0.537047
0.542415
0.529037
0.480427
0.469547
0.523992
0.541328
0.529568
0.508124
0.451155
0.483174
0.523657
0.535775
0.533686
0.522292
0.481101
0.470685
0.517247
0.531121
0.524982
0.508549
0.452622
0.434948
0.496486
0.515001
0.502926
0.482041
0.414906
0.391888
0.466695
0.490786
0.479658
0.452704
0.372001
0.356088
0.441075
0.470427
0.462693
0.431045
0.342522
0.330461
0.421926
0.455804
0.449466
0.413435
0.319571
0.30977
0.405485
0.443558
0.438012
0.398026
0.300848
0.292716
0.391006
0.432761
0.427768
0.384385
0.2853
0.278522
0.37812
0.42299
0.418418
0.372204
0.272351
0.266755
0.366632
0.414037
0.409836
0.361385
0.261678
0.257079
0.356449
0.405793
0.401903
0.351806
0.252909
0.249139
0.347444
0.39815
0.394529
0.343343
0.245733
0.242667
0.339493
0.39103
0.387648
0.335874
0.23991
0.23744
0.332479
0.384374
0.381209
0.329291
0.23523
0.233265
0.326305
0.378147
0.375187
0.323506
0.231518
0.229974
0.320888
0.372324
0.369558
0.318436
0.228611
0.227413
0.316145
0.366886
0.364308
0.314003
0.226364
0.225449
0.312003
0.361822
0.359429
0.310128
0.224655
0.223969
0.308373
0.357128
0.354917
0.306726
0.22338
0.222878
0.305184
0.352796
0.350761
0.303736
0.222452
0.222094
0.302379
0.348812
0.346943
0.301104
0.221796
0.221552
0.299911
0.345161
0.343455
0.298789
0.221354
0.221197
0.297735
0.34183
0.340279
0.296744
0.221073
0.220983
0.295814
0.338805
0.337401
0.294937
0.22092
0.220879
0.294112
0.336067
0.334798
0.293329
0.220865
0.220865
0.292597
0.333596
0.332453
0.291902
0.220881
0.220902
0.291252
0.33137
0.330341
0.290634
0.220933
0.220966
0.290059
0.329371
0.328448
0.289512
0.221005
0.221039
0.289002
0.327576
0.326746
0.288516
0.221078
0.221113
0.288067
0.325968
0.325226
0.287639
0.221152
0.221182
0.287241
0.324528
0.323862
0.286862
0.221214
0.221241
0.286512
0.323239
0.322645
0.28618
0.221271
0.22129
0.28587
0.322085
0.32155
0.285575
0.22131
0.221324
0.285302
0.321049
0.320571
0.285043
0.22134
0.221346
0.284801
0.320119
0.319687
0.28457
0.221354
0.221357
0.284357
0.319282
0.318894
0.284153
0.221362
0.221359
0.28396
0.318527
0.318173
0.283773
0.221358
0.221353
0.283599
0.317842
0.317522
0.283432
0.221351
0.22134
0.283273
0.317219
0.316926
0.283119
0.221331
0.221319
0.282975
0.316651
0.316386
0.282838
0.221308
0.221292
0.282705
0.316132
0.315887
0.282576
0.221274
0.221257
0.282456
0.315657
0.315433
0.282342
0.221239
0.221218
0.282231
0.315222
0.315015
0.282124
0.221195
0.221172
0.282023
0.314821
0.314632
0.281927
0.22115
0.221128
0.281836
0.314455
0.314281
0.281748
0.221104
0.221079
0.281663
0.314116
0.313959
0.281583
0.221054
0.221031
0.281507
0.313809
0.313666
0.281435
0.221007
0.220984
0.281365
0.313527
0.313399
0.2813
0.22096
0.220939
0.281238
0.313271
0.313155
0.28118
0.220917
0.220897
0.281124
0.313036
0.312933
0.281073
0.220877
0.220859
0.281023
0.312823
0.31273
0.280978
0.220843
0.220827
0.280935
0.31263
0.312548
0.280896
0.220815
0.220804
0.28086
0.312456
0.312384
0.280828
0.220796
0.220789
0.280797
0.3123
0.312237
0.280771
0.220786
0.220783
0.280748
0.312161
0.312107
0.280728
0.220786
0.220788
0.280709
0.312038
0.311992
0.280696
0.220796
0.220803
0.280682
0.311931
0.311892
0.280675
0.220815
0.220828
0.280667
0.311836
0.311806
0.280665
0.220845
0.220863
0.280662
0.311757
0.311734
0.280666
0.220884
0.220906
0.280667
0.311689
0.311674
0.280676
0.220932
0.220959
0.280683
0.311635
0.311626
0.280696
0.220989
0.22102
0.280707
0.311592
0.31159
0.280725
0.221055
0.22109
0.28074
0.311561
0.311565
0.280762
0.221128
0.221167
0.280782
0.31154
0.311551
0.280808
0.22121
0.221253
0.280832
0.311531
0.311546
0.280862
0.221299
0.221346
0.28089
0.31153
0.311552
0.280924
0.221396
0.221446
0.280956
0.311542
0.311568
0.280994
0.221499
0.221552
0.28103
0.311562
0.311594
0.281071
0.221607
0.221664
0.281112
0.311592
0.311628
0.281156
0.221721
0.221779
0.281199
0.311631
0.311672
0.281248
0.221839
0.221899
0.281294
0.311679
0.311724
0.281345
0.221961
0.222022
0.281394
0.311735
0.311784
0.281448
0.222086
0.222149
0.281501
0.311799
0.311852
0.281557
0.222213
0.222277
0.281611
0.311869
0.311926
0.28167
0.222343
0.222409
0.281727
0.311947
0.312007
0.281787
0.222475
0.222542
0.281845
0.31203
0.312093
0.281907
0.222609
0.222677
0.281967
0.312118
0.312183
0.28203
0.222745
0.222813
0.282091
0.31221
0.312278
0.282156
0.222881
0.22295
0.282219
0.312307
0.312376
0.282284
0.22302
0.223089
0.282348
0.312407
0.312478
0.282415
0.223159
0.223229