/*--------------------------------*- C++ -*----------------------------------*\
| =========                 |                                                 |
| \\      /  F ield         | OpenFOAM: The Open Source CFD Toolbox           |
|  \\    /   O peration     | Version:  v2006                                 |
|   \\  /    A nd           | Website:  www.openfoam.com                      |
|    \\/     M anipulation  |                                                 |
\*---------------------------------------------------------------------------*/
FoamFile
{
    version     2.0;
    format      ascii;
    class       volScalarField;
    location    "0.014";
    object      T;
}
// * * * * * * * * * * * * * * * * * * * * * * * * * * * * * * * * * * * * * //

dimensions      [0 0 0 1 0 0 0];


internalField   nonuniform List<scalar> 
16277
(
298.89
298.89
298.889
298.889
298.89
298.89
298.892
298.893
298.896
298.899
298.902
298.905
298.909
298.913
298.916
298.92
298.924
298.928
298.933
298.937
298.942
298.947
298.952
298.957
298.962
298.968
298.974
298.979
298.985
298.991
298.998
299.004
299.011
299.017
299.024
299.031
299.038
299.045
299.052
299.059
299.066
299.073
299.081
299.088
299.095
299.103
299.11
299.117
299.125
299.132
299.139
299.146
299.154
299.161
299.168
299.175
299.182
299.189
299.196
299.202
299.209
299.215
299.222
299.228
299.234
299.24
299.246
299.252
299.257
299.263
299.268
299.273
299.278
299.282
299.287
299.291
299.295
299.299
299.303
299.307
299.31
299.314
299.317
299.319
299.32
299.32
299.321
299.32
299.32
299.321
299.321
299.322
299.324
299.327
299.333
299.338
299.362
299.366
299.337
299.328
299.327
299.338
299.374
299.38
299.337
299.325
299.322
299.336
299.382
299.381
299.335
299.319
299.316
299.332
299.379
299.376
299.33
299.312
299.309
299.327
299.372
299.37
299.324
299.305
299.302
299.321
299.365
299.362
299.319
299.299
299.296
299.315
299.355
299.352
299.313
299.293
299.29
299.309
299.344
299.34
299.306
299.287
299.283
299.301
299.333
299.33
299.299
299.281
299.277
299.294
299.324
299.322
299.293
299.275
299.273
299.29
299.318
299.317
299.289
299.272
299.271
299.288
299.316
299.317
299.289
299.271
299.272
299.29
299.318
299.321
299.292
299.273
299.276
299.294
299.323
299.326
299.298
299.279
299.281
299.3
299.328
299.331
299.304
299.285
299.288
299.306
299.332
299.336
299.311
299.292
299.295
299.313
299.338
299.342
299.318
299.3
299.304
299.321
299.344
299.348
299.326
299.309
299.312
299.329
299.35
299.354
299.334
299.318
299.321
299.337
299.356
299.361
299.342
299.327
299.331
299.345
299.363
299.367
299.351
299.337
299.34
299.353
299.369
299.374
299.359
299.346
299.35
299.362
299.376
299.381
299.368
299.356
299.36
299.371
299.384
299.39
299.378
299.366
299.37
299.381
299.393
299.399
299.388
299.377
299.382
299.392
299.403
299.41
299.399
299.389
299.394
299.403
299.413
299.42
299.411
299.402
299.406
299.415
299.424
299.43
299.423
299.415
299.419
299.427
299.432
299.438
299.434
299.427
299.431
299.437
299.44
299.445
299.444
299.439
299.443
299.447
299.447
299.451
299.453
299.45
299.454
299.456
299.453
299.458
299.462
299.461
299.464
299.465
299.46
299.465
299.471
299.471
299.475
299.474
299.468
299.474
299.48
299.482
299.486
299.484
299.477
299.483
299.491
299.493
299.497
299.494
299.487
299.495
299.502
299.505
299.509
299.506
299.499
299.507
299.514
299.518
299.522
299.518
299.511
299.52
299.528
299.531
299.536
299.532
299.525
299.534
299.542
299.545
299.55
299.546
299.539
299.548
299.556
299.56
299.565
299.561
299.553
299.563
299.571
299.575
299.579
299.575
299.567
299.577
299.585
299.589
299.594
299.589
299.581
299.591
299.599
299.604
299.608
299.603
299.595
299.604
299.612
299.617
299.621
299.616
299.608
299.617
299.625
299.63
299.634
299.629
299.621
299.63
299.637
299.642
299.645
299.64
299.633
299.64
299.648
299.653
299.655
299.65
299.643
299.65
299.657
299.662
299.664
299.659
299.652
299.657
299.664
299.669
299.671
299.666
299.658
299.661
299.669
299.675
299.675
299.67
299.662
299.664
299.672
299.677
299.678
299.672
299.664
299.664
299.672
299.678
299.677
299.671
299.662
299.661
299.67
299.676
299.673
299.667
299.658
299.656
299.665
299.671
299.667
299.661
299.652
299.649
299.658
299.665
299.66
299.653
299.644
299.64
299.65
299.657
299.651
299.644
299.634
299.631
299.64
299.648
299.641
299.633
299.624
299.62
299.629
299.637
299.629
299.622
299.613
299.609
299.618
299.625
299.617
299.61
299.603
299.599
299.607
299.613
299.605
299.599
299.592
299.589
299.595
299.602
299.594
299.588
299.583
299.579
299.585
299.591
299.583
299.578
299.574
299.57
299.575
299.58
299.573
299.568
299.565
299.562
299.565
299.569
299.563
299.559
299.557
299.555
299.557
299.56
299.554
299.551
299.55
299.548
299.549
299.551
299.546
299.544
299.543
299.54
299.542
299.543
299.538
299.537
299.536
299.534
299.535
299.536
299.532
299.531
299.53
299.529
299.529
299.53
299.526
299.526
299.527
299.528
299.525
299.525
299.523
299.524
299.528
299.53
299.524
299.522
299.521
299.524
299.531
299.534
299.525
299.521
299.521
299.526
299.536
299.541
299.529
299.522
299.523
299.53
299.544
299.549
299.534
299.526
299.527
299.536
299.552
299.558
299.541
299.53
299.532
299.543
299.561
299.567
299.548
299.536
299.539
299.551
299.571
299.577
299.556
299.543
299.546
299.56
299.582
299.588
299.566
299.55
299.554
299.57
299.594
299.601
299.576
299.559
299.564
299.582
299.608
299.617
299.589
299.569
299.575
299.595
299.624
299.635
299.602
299.581
299.587
299.61
299.643
299.655
299.618
299.593
299.601
299.626
299.664
299.678
299.635
299.607
299.615
299.645
299.687
299.703
299.654
299.622
299.632
299.665
299.713
299.732
299.676
299.639
299.65
299.688
299.743
299.765
299.7
299.658
299.67
299.714
299.779
299.803
299.727
299.679
299.69
299.74
299.816
299.842
299.755
299.699
299.683
299.729
299.831
299.859
299.792
299.737
299.688
299.64
299.602
299.582
299.572
299.562
299.555
299.549
299.544
299.541
299.538
299.536
299.534
299.533
299.533
299.533
299.534
299.535
299.536
299.539
299.544
299.543
299.54
299.533
299.52
299.519
299.531
299.537
299.537
299.531
299.522
299.523
299.531
299.536
299.537
299.532
299.524
299.524
299.532
299.537
299.537
299.532
299.524
299.525
299.532
299.537
299.537
299.532
299.525
299.525
299.532
299.537
299.536
299.532
299.525
299.525
299.532
299.536
299.536
299.532
299.525
299.525
299.532
299.536
299.535
299.532
299.525
299.525
299.532
299.535
299.534
299.532
299.525
299.526
299.531
299.534
299.534
299.531
299.525
299.526
299.531
299.533
299.533
299.531
299.525
299.526
299.53
299.532
299.532
299.53
299.525
299.526
299.53
299.531
299.53
299.53
299.525
299.526
299.529
299.53
299.529
299.529
299.525
299.525
299.528
299.529
299.528
299.528
299.525
299.525
299.528
299.527
299.526
299.527
299.525
299.525
299.526
299.525
299.525
299.526
299.524
299.524
299.525
299.524
299.523
299.525
299.524
299.523
299.524
299.522
299.521
299.523
299.523
299.522
299.522
299.52
299.519
299.521
299.522
299.521
299.521
299.518
299.517
299.52
299.52
299.52
299.519
299.516
299.515
299.518
299.519
299.519
299.518
299.515
299.514
299.517
299.518
299.518
299.516
299.513
299.513
299.516
299.517
299.516
299.515
299.512
299.512
299.514
299.516
299.515
299.514
299.511
299.511
299.514
299.515
299.514
299.513
299.511
299.51
299.513
299.514
299.513
299.513
299.51
299.51
299.512
299.513
299.513
299.512
299.51
299.51
299.512
299.513
299.512
299.512
299.51
299.51
299.512
299.512
299.512
299.512
299.511
299.511
299.512
299.512
299.512
299.513
299.512
299.512
299.513
299.512
299.512
299.514
299.513
299.513
299.514
299.513
299.513
299.515
299.514
299.515
299.516
299.514
299.514
299.517
299.516
299.517
299.518
299.515
299.516
299.519
299.519
299.52
299.521
299.517
299.518
299.522
299.521
299.523
299.523
299.519
299.521
299.525
299.524
299.526
299.527
299.522
299.524
299.529
299.527
299.529
299.531
299.526
299.528
299.533
299.531
299.532
299.534
299.53
299.533
299.537
299.534
299.535
299.538
299.535
299.538
299.541
299.536
299.538
299.543
299.54
299.543
299.545
299.539
299.54
299.547
299.546
299.549
299.549
299.541
299.542
299.551
299.552
299.555
299.552
299.543
299.543
299.554
299.558
299.561
299.555
299.543
299.543
299.555
299.564
299.566
299.556
299.542
299.54
299.555
299.568
299.569
299.554
299.538
299.535
299.551
299.569
299.571
299.551
299.534
299.532
299.548
299.571
299.573
299.548
299.531
299.531
299.549
299.576
299.578
299.549
299.532
299.533
299.551
299.581
299.582
299.552
299.534
299.536
299.554
299.583
299.586
299.556
299.538
299.54
299.558
299.586
299.586
299.559
299.541
299.543
299.56
299.584
299.585
299.563
299.547
299.553
299.566
299.584
299.582
299.573
299.561
299.563
299.587
299.619
299.62
299.581
299.556
299.56
299.585
299.628
299.63
299.586
299.562
299.563
299.588
299.631
299.63
299.587
299.564
299.565
299.588
299.629
299.625
299.587
299.566
299.567
299.587
299.623
299.618
299.586
299.568
299.571
299.587
299.615
299.609
299.586
299.575
299.585
299.601
299.625
299.641
299.604
299.583
299.578
299.598
299.636
299.638
299.6
299.58
299.582
299.599
299.635
299.634
299.6
299.584
299.585
299.6
299.632
299.632
299.602
299.589
299.594
299.604
299.629
299.638
299.615
299.6
299.602
299.621
299.658
299.653
299.616
299.6
299.605
299.62
299.655
299.653
299.623
299.608
299.613
299.625
299.651
299.644
299.625
299.619
299.627
299.639
299.665
299.675
299.643
299.627
299.628
299.639
299.667
299.67
299.645
299.635
299.639
299.648
299.67
299.667
299.652
299.647
299.653
299.663
299.689
299.694
299.667
299.657
299.662
299.673
299.695
299.698
299.678
299.671
299.682
299.684
299.694
299.715
299.693
299.686
299.698
299.702
299.717
299.729
299.71
299.705
299.722
299.723
299.734
299.747
299.737
299.735
299.749
299.75
299.759
299.78
299.773
299.772
299.789
299.786
299.788
299.821
299.81
299.806
299.832
299.83
299.832
299.85
299.858
299.865
299.879
299.874
299.865
299.861
299.88
299.897
299.927
299.925
299.929
299.916
299.919
299.924
299.805
299.773
299.775
299.734
299.735
299.748
299.631
299.616
299.624
299.516
299.541
299.552
299.517
299.513
299.53
299.477
299.476
299.474
299.465
299.483
299.523
299.489
299.461
299.451
299.452
299.475
299.513
299.527
299.478
299.458
299.449
299.47
299.512
299.545
299.494
299.463
299.446
299.466
299.514
299.533
299.485
299.452
299.474
299.502
299.542
299.524
299.482
299.456
299.458
299.49
299.549
299.552
299.517
299.484
299.462
299.489
299.535
299.56
299.498
299.466
299.495
299.53
299.569
299.544
299.493
299.471
299.474
299.508
299.567
299.573
299.538
299.504
299.477
299.498
299.545
299.566
299.51
299.48
299.507
299.539
299.574
299.556
299.506
299.485
299.486
299.514
299.567
299.578
299.543
299.51
299.491
299.511
299.558
299.578
299.522
299.492
299.517
299.552
299.587
299.566
299.518
299.497
299.5
299.526
299.577
299.598
299.543
299.508
299.537
299.573
299.608
299.581
299.531
299.51
299.511
299.545
299.607
299.609
299.573
299.536
299.515
299.536
299.584
299.61
299.551
299.517
299.542
299.577
299.611
299.584
299.536
299.515
299.515
299.547
299.605
299.608
299.574
299.539
299.516
299.537
299.589
299.601
299.547
299.515
299.537
299.572
299.606
299.582
299.532
299.511
299.511
299.545
299.606
299.607
299.574
299.536
299.511
299.533
299.584
299.599
299.544
299.51
299.532
299.568
299.602
299.575
299.525
299.504
299.505
299.541
299.599
299.602
299.566
299.529
299.503
299.525
299.575
299.584
299.545
299.514
299.491
299.509
299.56
299.577
299.521
299.49
299.512
299.545
299.578
299.553
299.507
299.486
299.487
299.52
299.576
299.571
299.538
299.504
299.476
299.496
299.544
299.561
299.503
299.473
299.491
299.528
299.561
299.537
299.49
299.47
299.471
299.505
299.564
299.563
299.528
299.493
299.464
299.484
299.534
299.552
299.496
299.459
299.48
299.519
299.553
299.527
299.478
299.458
299.472
299.503
299.545
299.54
299.474
299.452
299.45
299.48
299.544
299.547
299.509
299.468
299.444
299.464
299.519
299.543
299.479
299.442
299.466
299.503
299.543
299.512
299.46
299.438
299.455
299.49
299.537
299.511
299.451
299.432
299.427
299.463
299.522
299.522
299.487
299.448
299.42
299.441
299.493
299.516
299.455
299.418
299.439
299.479
299.517
299.49
299.438
299.417
299.435
299.469
299.518
299.488
299.429
299.411
299.405
299.441
299.503
299.501
299.465
299.424
299.4
299.421
299.475
299.494
299.434
299.397
299.421
299.459
299.5
299.471
299.416
299.395
299.411
299.447
299.498
299.468
299.405
299.387
299.383
299.423
299.484
299.483
299.443
299.405
299.373
299.395
299.452
299.462
299.417
299.381
299.362
299.38
299.439
299.467
299.4
299.363
299.391
299.427
299.471
299.447
299.383
299.359
299.365
299.406
299.453
299.423
299.362
299.344
299.342
299.382
299.445
299.443
299.401
299.366
299.332
299.354
299.411
299.428
299.378
299.344
299.321
299.34
299.401
299.429
299.361
299.323
299.353
299.39
299.436
299.397
299.336
299.314
299.318
299.358
299.407
299.379
299.316
299.3
299.296
299.334
299.402
299.404
299.357
299.321
299.287
299.308
299.376
299.387
299.334
299.297
299.277
299.298
299.361
299.39
299.332
299.295
299.268
299.287
299.357
299.372
299.308
299.262
299.282
299.323
299.365
299.335
299.273
299.25
299.258
299.296
299.347
299.322
299.254
299.235
299.235
299.275
299.347
299.352
299.3
299.26
299.228
299.251
299.322
299.346
299.284
299.245
299.213
299.235
299.315
299.321
299.263
299.218
299.199
299.217
299.288
299.311
299.24
299.195
299.22
299.256
299.305
299.275
299.207
299.183
299.195
299.233
299.293
299.266
299.187
299.167
299.183
299.219
299.282
299.252
299.178
299.156
299.158
299.207
299.284
299.28
299.229
299.183
299.144
299.169
299.24
299.253
299.193
299.153
299.127
299.147
299.222
299.237
299.176
299.138
299.112
299.131
299.206
299.233
299.155
299.11
299.138
299.181
299.234
299.2
299.128
299.102
299.117
299.161
299.226
299.195
299.112
299.089
299.097
299.142
299.205
299.17
299.094
299.074
299.069
299.119
299.196
299.192
299.14
299.097
299.058
299.081
299.167
299.181
299.11
299.072
299.043
299.062
299.151
299.166
299.098
299.055
299.032
299.053
299.132
299.163
299.08
299.032
299.068
299.113
299.171
299.131
299.05
299.022
299.027
299.077
299.142
299.109
299.023
299.001
299.012
299.052
299.122
299.089
299.005
298.983
298.995
299.038
299.106
299.073
298.99
298.97
298.968
299.019
299.102
299.102
299.045
299
298.959
298.985
299.078
299.095
299.021
298.973
298.946
298.973
299.075
299.086
299.007
298.959
298.926
298.952
299.047
299.059
298.987
298.936
298.912
298.933
299.019
299.05
298.962
298.908
298.942
298.986
299.049
299.01
298.923
298.895
298.906
298.955
299.03
299
298.902
298.879
298.894
298.939
299.018
298.99
298.887
298.863
298.881
298.931
299.009
298.97
298.877
298.853
298.849
298.908
298.998
298.994
298.933
298.883
298.835
298.865
298.955
298.973
298.897
298.846
298.816
298.837
298.955
298.965
298.877
298.833
298.801
298.827
298.923
298.942
298.867
298.815
298.788
298.812
298.903
298.937
298.844
298.786
298.825
298.876
298.943
298.907
298.81
298.779
298.79
298.846
298.927
298.904
298.78
298.756
298.77
298.819
298.906
298.877
298.76
298.734
298.749
298.802
298.889
298.851
298.747
298.719
298.734
298.786
298.866
298.827
298.728
298.701
298.698
298.762
298.862
298.861
298.793
298.737
298.688
298.72
298.83
298.852
298.761
298.707
298.672
298.7
298.819
298.837
298.745
298.687
298.651
298.678
298.807
298.815
298.722
298.668
298.63
298.66
298.768
298.782
298.7
298.643
298.609
298.636
298.736
298.777
298.673
298.607
298.65
298.701
298.776
298.728
298.626
298.592
298.603
298.664
298.749
298.717
298.598
298.572
298.589
298.641
298.737
298.71
298.582
298.553
298.571
298.63
298.726
298.678
298.566
298.534
298.55
298.607
298.695
298.652
298.542
298.514
298.508
298.574
298.684
298.688
298.613
298.548
298.497
298.531
298.657
298.667
298.572
298.509
298.474
298.499
298.654
298.66
298.549
298.494
298.453
298.48
298.622
298.635
298.53
298.475
298.434
298.466
298.588
298.603
298.512
298.447
298.415
298.444
298.556
298.592
298.479
298.41
298.455
298.514
298.597
298.547
298.429
298.392
298.402
298.469
298.566
298.526
298.396
298.365
298.388
298.44
298.55
298.516
298.367
298.339
298.357
298.419
298.529
298.478
298.353
298.32
298.337
298.398
298.495
298.445
298.328
298.297
298.292
298.367
298.489
298.488
298.403
298.339
298.277
298.315
298.441
298.464
298.359
298.291
298.252
298.283
298.427
298.443
298.332
298.267
298.225
298.255
298.428
298.428
298.307
298.246
298.197
298.234
298.382
298.397
298.284
298.216
298.169
298.206
298.344
298.361
298.254
298.19
298.143
298.176
298.304
298.345
298.213
298.135
298.18
298.254
298.345
298.284
298.159
298.117
298.13
298.2
298.307
298.267
298.115
298.084
298.103
298.166
298.286
298.247
298.09
298.057
298.077
298.141
298.259
298.207
298.065
298.028
298.045
298.115
298.224
298.169
298.036
298.002
297.997
298.078
298.213
298.21
298.113
298.045
297.976
298.019
298.151
298.181
298.066
297.994
297.943
297.973
298.157
298.158
298.028
297.963
297.913
297.947
298.12
298.122
297.998
297.929
297.879
297.914
298.072
298.082
297.962
297.897
297.848
297.881
298.023
298.072
297.931
297.844
297.893
297.961
298.063
298.006
297.864
297.819
297.838
297.911
298.033
297.983
297.817
297.778
297.798
297.873
298.006
297.962
297.778
297.744
297.766
297.834
297.971
297.902
297.748
297.708
297.726
297.797
297.919
297.853
297.706
297.672
297.66
297.753
297.897
297.873
297.776
297.71
297.624
297.663
297.841
297.854
297.716
297.641
297.591
297.63
297.795
297.822
297.687
297.613
297.556
297.599
297.769
297.79
297.653
297.577
297.514
297.555
297.728
297.749
297.612
297.537
297.481
297.517
297.677
297.718
297.559
297.46
297.519
297.602
297.718
297.639
297.481
297.428
297.447
297.527
297.662
297.608
297.417
297.377
297.394
297.463
297.61
297.556
297.356
297.321
297.35
297.416
297.569
297.498
297.328
297.288
297.281
297.37
297.544
297.555
297.428
297.338
297.254
297.307
297.48
297.511
297.364
297.271
297.21
297.253
297.451
297.476
297.314
297.234
297.16
297.204
297.396
297.421
297.267
297.182
297.119
297.157
297.334
297.382
297.203
297.094
297.151
297.24
297.364
297.289
297.1
297.045
297.057
297.14
297.291
297.245
297.023
296.979
297.007
297.088
297.267
297.187
296.983
296.936
296.962
297.053
297.216
297.134
296.941
296.895
296.882
296.998
297.196
297.185
297.045
296.939
296.841
296.903
297.09
297.127
296.961
296.867
296.784
296.831
297.043
297.067
296.888
296.806
296.714
296.763
296.989
297.006
296.825
296.734
296.66
296.697
296.903
296.936
296.751
296.624
296.654
296.738
296.88
296.828
296.623
296.562
296.605
296.697
296.88
296.814
296.567
296.514
296.544
296.646
296.841
296.747
296.515
296.458
296.485
296.592
296.777
296.68
296.463
296.413
296.386
296.518
296.739
296.726
296.571
296.459
296.336
296.406
296.617
296.641
296.456
296.359
296.256
296.309
296.569
296.569
296.368
296.266
296.175
296.225
296.468
296.45
296.225
296.105
296.178
296.305
296.467
296.373
296.159
296.083
296.13
296.236
296.433
296.342
296.084
296.016
296.047
296.166
296.377
296.281
296.011
295.95
295.976
296.09
296.303
296.193
295.945
295.893
295.855
296.004
296.241
296.216
296.051
295.928
295.778
295.86
296.093
296.116
295.912
295.8
295.69
295.746
296.032
296.015
295.798
295.675
295.569
295.618
295.845
295.893
295.637
295.511
295.621
295.74
295.927
295.831
295.572
295.487
295.522
295.656
295.874
295.789
295.477
295.406
295.438
295.564
295.811
295.683
295.396
295.336
295.298
295.463
295.744
295.7
295.512
295.367
295.212
295.299
295.565
295.59
295.359
295.235
295.114
295.172
295.477
295.49
295.205
295.043
295.054
295.173
295.382
295.275
294.984
294.893
294.947
295.078
295.339
295.248
294.912
294.833
294.873
295.034
295.304
295.168
294.85
294.774
294.735
294.919
295.253
295.23
295.002
294.831
294.65
294.755
295.067
295.096
294.83
294.678
294.543
294.613
294.943
294.997
294.66
294.477
294.54
294.684
294.923
294.766
294.41
294.324
294.322
294.436
294.727
294.548
294.224
294.148
294.085
294.264
294.638
294.683
294.412
294.241
294.071
294.18
294.529
294.585
294.3
294.108
293.986
294.064
294.417
294.515
294.155
293.919
294.015
294.185
294.433
294.294
293.901
293.788
293.812
293.983
294.296
294.14
293.724
293.639
293.537
293.752
294.15
293.995
293.715
293.548
293.317
293.404
293.771
293.817
293.499
293.31
293.192
293.294
293.665
293.829
293.388
293.188
293.324
293.529
293.847
293.652
293.221
293.078
293.118
293.35
293.693
293.514
293.064
292.962
292.862
293.115
293.559
293.463
293.165
292.94
292.677
292.796
293.245
293.2
292.833
292.652
292.416
292.521
292.923
292.816
292.341
292.197
292.321
292.535
292.874
292.711
292.305
292.135
292.122
292.34
292.911
292.92
292.545
292.255
292.009
292.164
292.673
292.702
292.29
292.058
291.824
291.945
292.463
292.486
291.971
291.695
291.715
291.955
292.344
292.078
291.616
291.461
291.203
291.468
292.011
291.839
291.475
291.241
290.943
291.126
291.614
291.924
291.242
290.959
291.171
291.499
291.955
291.661
291.061
290.864
290.941
291.227
291.704
291.42
290.817
290.661
290.517
290.841
291.442
291.245
290.81
290.504
290.205
290.401
290.919
290.796
290.158
289.877
289.859
290.126
290.553
290.297
289.762
289.571
289.598
289.881
290.699
290.718
290.217
289.807
289.537
289.749
290.378
290.491
289.797
289.392
289.52
289.881
290.357
289.982
289.356
289.11
288.814
289.194
289.948
289.475
289.034
288.706
288.211
288.35
288.984
289.164
288.407
288.116
288.169
288.574
289.542
289.561
288.979
288.424
288.112
288.378
289.158
289.244
288.353
287.88
288.01
288.435
289.011
288.414
287.621
287.373
286.944
287.089
287.856
287.88
286.809
286.519
286.902
287.388
288.104
287.773
286.964
286.628
286.607
287.036
288.136
288.204
287.086
286.498
286.639
287.208
287.893
287.025
286.132
285.871
285.358
285.486
286.419
286.797
285.446
285.008
285.512
286.134
286.928
286.737
285.611
285.222
285.143
285.57
286.801
286.888
285.527
284.89
284.199
284.641
285.74
285.994
285.009
284.373
283.959
284.517
285.551
286.533
284.856
284.053
284.084
284.937
286.597
286.043
284.527
283.611
283.509
284.424
286.187
287.109
284.74
283.566
284.436
285.862
286.953
285.975
284.649
283.938
283.986
284.687
286.169
287.112
285.195
284.191
284.717
285.608
287.551
288.337
286.216
285.128
285.805
287.006
289.168
290.087
287.823
286.48
287.087
288.553
290.821
291.339
289.141
287.589
288.004
289.637
291.746
292.072
290.071
288.376
288.714
290.466
292.348
292.57
290.818
289.031
289.326
291.138
292.761
292.918
291.423
289.605
289.867
291.684
293.054
293.166
291.916
290.119
290.355
292.128
293.265
293.343
292.313
290.581
290.795
292.483
293.413
293.468
292.629
290.999
291.191
292.763
293.518
293.556
292.877
291.374
291.546
292.982
293.592
293.618
293.07
291.71
291.864
293.152
293.643
293.66
293.22
292.009
292.146
293.283
293.677
293.687
293.335
292.273
292.392
293.384
293.698
293.703
293.423
292.502
292.605
293.46
293.709
293.712
293.49
292.697
292.784
293.518
293.714
293.715
293.54
292.86
292.932
293.562
293.714
293.713
293.578
292.993
293.05
293.595
293.712
293.709
293.606
293.097
293.141
293.619
293.707
293.704
293.626
293.176
293.21
293.634
293.701
293.697
293.638
293.234
293.259
293.642
293.694
293.689
293.644
293.275
293.291
293.644
293.687
293.681
293.643
293.301
293.311
293.641
293.678
293.672
293.637
293.315
293.32
293.634
293.668
293.661
293.627
293.321
293.32
293.622
293.657
293.649
293.612
293.319
293.316
293.606
293.645
293.637
293.595
293.312
293.308
293.588
293.632
293.623
293.575
293.301
293.297
293.567
293.618
293.608
293.553
293.288
293.284
293.544
293.603
293.592
293.53
293.274
293.269
293.521
293.587
293.575
293.506
293.259
293.255
293.496
293.569
293.558
293.481
293.245
293.24
293.472
293.551
293.539
293.457
293.23
293.226
293.448
293.532
293.52
293.433
293.216
293.212
293.424
293.513
293.501
293.41
293.203
293.199
293.402
293.493
293.481
293.388
293.191
293.187
293.38
293.474
293.461
293.367
293.179
293.176
293.36
293.454
293.442
293.348
293.169
293.166
293.34
293.435
293.423
293.329
293.159
293.156
293.322
293.416
293.404
293.311
293.15
293.147
293.305
293.398
293.386
293.295
293.141
293.138
293.289
293.38
293.369
293.279
293.132
293.129
293.273
293.363
293.352
293.264
293.123
293.121
293.259
293.346
293.336
293.249
293.115
293.112
293.244
293.33
293.32
293.236
293.106
293.103
293.231
293.315
293.305
293.222
293.097
293.094
293.218
293.3
293.291
293.209
293.087
293.084
293.205
293.286
293.276
293.196
293.078
293.075
293.192
293.272
293.263
293.184
293.068
293.064
293.179
293.258
293.249
293.171
293.057
293.054
293.167
293.244
293.236
293.158
293.046
293.043
293.154
293.231
293.222
293.146
293.035
293.031
293.141
293.218
293.209
293.133
293.023
293.019
293.128
293.204
293.196
293.12
293.011
293.007
293.115
293.191
293.182
293.107
292.998
292.994
293.102
293.178
293.169
293.093
292.985
292.981
293.089
293.164
293.155
293.08
292.972
292.967
293.075
293.151
293.142
293.066
292.958
292.953
293.061
293.137
293.128
293.052
292.944
292.939
293.047
293.124
293.114
293.038
292.929
292.924
293.033
293.11
293.101
293.024
292.915
292.909
293.018
293.096
293.087
293.01
292.9
292.894
293.004
293.082
293.073
292.995
292.886
292.879
292.989
293.068
293.058
292.98
292.871
292.863
292.974
293.053
293.043
292.965
292.856
292.848
292.959
293.038
293.028
292.949
292.84
292.832
292.943
293.022
293.012
292.933
292.823
292.816
292.927
293.006
292.996
292.916
292.806
292.8
292.91
292.99
292.979
292.9
292.789
292.784
292.894
292.974
292.963
292.883
292.773
292.767
292.877
292.957
292.946
292.865
292.755
292.75
292.859
292.94
292.929
292.848
292.738
292.732
292.842
292.924
292.913
292.831
292.721
292.715
292.825
292.907
292.896
292.813
292.704
292.698
292.807
292.891
292.88
292.796
292.687
292.681
292.791
292.874
292.864
292.78
292.67
292.664
292.774
292.858
292.847
292.763
292.654
292.648
292.758
292.842
292.831
292.747
292.637
292.632
292.741
292.826
292.815
292.731
292.622
292.616
292.725
292.809
292.798
292.714
292.606
292.601
292.709
292.793
292.782
292.698
292.59
292.585
292.692
292.776
292.765
292.682
292.575
292.57
292.676
292.759
292.748
292.665
292.559
292.554
292.659
292.743
292.732
292.649
292.544
292.539
292.643
292.726
292.715
292.633
292.528
292.523
292.627
292.709
292.698
292.616
292.513
292.508
292.61
292.692
292.681
292.6
292.497
292.492
292.594
292.675
292.665
292.584
292.482
292.477
292.578
292.658
292.648
292.568
292.467
292.462
292.561
292.641
292.631
292.552
292.452
292.447
292.545
292.625
292.615
292.535
292.437
292.432
292.529
292.608
292.598
292.519
292.422
292.417
292.513
292.591
292.581
292.503
292.407
292.402
292.497
292.575
292.565
292.488
292.392
292.387
292.481
292.558
292.548
292.472
292.378
292.373
292.465
292.542
292.532
292.456
292.363
292.358
292.45
292.525
292.515
292.44
292.348
292.344
292.434
292.509
292.499
292.425
292.334
292.329
292.419
292.492
292.482
292.409
292.32
292.314
292.403
292.476
292.466
292.394
292.306
292.3
292.388
292.459
292.45
292.379
292.292
292.287
292.372
292.442
292.435
292.366
292.28
292.274
292.356
292.419
292.415
292.351
292.265
292.238
292.336
292.404
292.396
292.327
292.211
292.193
292.311
292.381
291.977
291.636
290.583
290.115
290.02
289.597
289.34
289.19
289.11
288.975
288.911
288.763
288.65
288.564
288.496
288.443
288.402
288.369
288.341
288.318
288.299
288.281
288.267
288.253
288.242
288.232
288.224
288.217
288.212
288.208
288.205
288.204
288.203
288.197
288.189
288.179
288.168
288.157
288.147
288.137
288.128
288.119
288.112
288.104
288.098
288.092
288.087
288.083
288.08
288.077
288.076
288.076
288.076
288.077
288.08
288.086
288.095
288.106
288.12
288.138
288.157
288.18
288.206
288.236
288.269
288.306
288.347
288.392
288.443
288.499
288.561
288.629
288.704
288.786
288.876
288.975
289.083
289.199
289.326
289.463
289.609
289.766
289.933
290.11
290.296
290.491
290.694
290.904
291.12
291.341
291.567
291.795
292.026
292.257
292.489
292.719
292.947
293.173
293.395
293.613
293.826
294.034
294.236
294.433
294.624
294.809
294.987
295.159
295.325
295.484
295.637
295.784
295.925
296.06
296.189
296.312
296.43
296.542
296.65
296.752
296.85
296.943
297.032
297.117
297.198
297.275
297.349
297.419
297.486
297.55
297.611
297.669
297.724
297.777
297.828
297.876
297.922
297.966
298.009
298.05
298.089
298.126
298.162
298.197
298.231
298.263
298.294
298.325
298.354
298.382
298.41
298.437
298.463
298.488
298.513
298.536
298.559
298.582
298.603
298.624
298.644
298.663
298.682
298.699
298.716
298.733
298.748
298.763
298.777
298.79
298.802
298.814
298.826
298.836
298.847
298.856
298.865
298.874
298.881
298.888
298.895
298.901
298.905
298.91
298.913
298.916
298.918
298.919
298.92
298.92
298.919
298.917
298.916
298.914
298.913
298.911
298.909
298.907
298.905
298.903
298.902
298.9
298.899
298.897
298.896
298.894
298.893
298.891
298.891
298.892
298.893
298.894
298.896
298.898
298.9
298.903
298.906
298.91
298.913
298.917
298.92
298.924
298.928
298.932
298.937
298.941
298.946
298.951
298.956
298.961
298.966
298.971
298.977
298.983
298.989
298.994
299.001
299.007
299.013
299.02
299.026
299.033
299.04
299.047
299.054
299.061
299.068
299.075
299.082
299.089
299.096
299.104
299.111
299.118
299.125
299.133
299.14
299.147
299.154
299.161
299.168
299.175
299.182
299.188
299.195
299.202
299.208
299.214
299.22
299.226
299.232
299.238
299.244
299.249
299.254
299.259
299.264
299.269
299.274
299.278
299.282
299.286
299.29
299.294
299.297
299.3
299.303
299.306
299.308
299.31
299.311
299.313
299.314
299.314
299.314
299.311
299.312
299.307
299.302
299.298
299.294
299.289
299.285
299.281
299.278
299.274
299.271
299.268
299.265
299.262
299.259
299.257
299.255
299.254
299.254
299.254
299.255
299.257
299.258
299.262
299.264
299.268
299.272
299.276
299.28
299.284
299.289
299.293
299.298
299.303
299.308
299.313
299.319
299.323
299.329
299.334
299.34
299.345
299.351
299.356
299.363
299.368
299.376
299.381
299.389
299.394
299.403
299.408
299.416
299.421
299.43
299.435
299.443
299.448
299.456
299.46
299.468
299.473
299.481
299.485
299.493
299.497
299.506
299.51
299.519
299.524
299.533
299.538
299.548
299.552
299.563
299.567
299.578
299.582
299.593
299.597
299.607
299.612
299.622
299.626
299.635
299.638
299.647
299.65
299.658
299.66
299.667
299.669
299.675
299.676
299.68
299.681
299.683
299.683
299.684
299.683
299.683
299.68
299.678
299.674
299.672
299.667
299.665
299.658
299.656
299.648
299.645
299.637
299.633
299.625
299.621