/*--------------------------------*- C++ -*----------------------------------*\
| =========                 |                                                 |
| \\      /  F ield         | OpenFOAM: The Open Source CFD Toolbox           |
|  \\    /   O peration     | Version:  v2006                                 |
|   \\  /    A nd           | Website:  www.openfoam.com                      |
|    \\/     M anipulation  |                                                 |
\*---------------------------------------------------------------------------*/
FoamFile
{
    version     2.0;
    format      ascii;
    class       volScalarField;
    location    "0.007";
    object      alphat;
}
// * * * * * * * * * * * * * * * * * * * * * * * * * * * * * * * * * * * * * //

dimensions      [1 -1 -1 0 0 0 0];


internalField   nonuniform List<scalar> 
31566
(
0.16735
0.179254
0.484659
0.303996
0.177059
0.110399
0.0774108
0.0597065
0.0490214
0.0421325
0.0370881
0.033239
0.0301744
0.0277923
0.0259539
0.02456
0.0235247
0.0227938
0.0223416
0.0221751
0.0223297
0.0228416
0.0236992
0.0248059
0.0259959
0.0271354
0.028266
0.0296522
0.0316509
0.034541
0.0385145
0.0438229
0.0509207
0.0605779
0.0743421
0.0957642
0.13135
0.191541
0.285035
0.469563
1.04236
2.56575
4.09767
7.3416
7.34284
4.10787
2.76521
1.28766
0.546076
0.329419
0.231139
0.164957
0.122311
0.0959522
0.0798246
0.0706838
0.0664664
0.0657679
0.0669745
0.06816
0.0690744
0.0725319
0.0823887
0.102872
0.144764
0.263404
0.870017
2.03323
0.979076
0.54256
0.378179
0.313501
0.30456
0.312956
0.305659
0.333211
0.461466
0.593959
0.624744
1.02479
1.28433
0.825312
0.540989
0.378969
0.267607
0.20701
0.169582
0.135227
0.106781
0.0879746
0.0767307
0.0695452
0.063069
0.056091
0.0496717
0.0451655
0.0422125
0.040733
0.0386513
0.0369753
0.0579771
0.0154423
0.0121907
0.0157324
0.00989646
0.00770415
0.00490936
0.00221531
0.000355471
2.0394e-05
1.95875e-05
0.000149722
0.000826859
0.000530413
0.000109095
1.78237e-05
1.50319e-05
7.54751e-05
0.000407647
0.000277089
4.89575e-05
1.31848e-05
1.17279e-05
3.75695e-05
0.0001995
0.000157179
3.04871e-05
1.05511e-05
9.43607e-06
2.63488e-05
0.000136346
0.000118491
2.24681e-05
8.4407e-06
7.6079e-06
2.05198e-05
0.000107204
9.76253e-05
1.97603e-05
6.97815e-06
6.43671e-06
1.96478e-05
9.42337e-05
9.2028e-05
1.97741e-05
5.96534e-06
5.55954e-06
2.02517e-05
9.42151e-05
9.53828e-05
2.04061e-05
5.21448e-06
4.93574e-06
2.03212e-05
9.63706e-05
9.55605e-05
1.96739e-05
4.71876e-06
4.56647e-06
1.91656e-05
9.33107e-05
8.75244e-05
1.88219e-05
4.46093e-06
4.39465e-06
1.87202e-05
8.50977e-05
8.1933e-05
1.88094e-05
4.35181e-06
4.332e-06
1.92383e-05
8.13509e-05
8.0271e-05
1.96165e-05
4.31673e-06
4.31442e-06
2.01444e-05
8.05108e-05
8.01649e-05
2.05491e-05
4.31119e-06
4.31715e-06
2.12508e-05
8.107e-05
8.12236e-05
2.18621e-05
4.31817e-06
4.31847e-06
2.28173e-05
8.39085e-05
8.56049e-05
2.34761e-05
4.30701e-06
4.29149e-06
2.42237e-05
8.98253e-05
9.1399e-05
2.46254e-05
4.26572e-06
4.23758e-06
2.50001e-05
9.43608e-05
9.50808e-05
2.51042e-05
4.2003e-06
4.16361e-06
2.51648e-05
9.66605e-05
9.66471e-05
2.50989e-05
4.11893e-06
4.07933e-06
2.49686e-05
9.73973e-05
9.6802e-05
2.45386e-05
4.03208e-06
3.9966e-06
2.43071e-05
9.69175e-05
9.49023e-05
2.37619e-05
3.95942e-06
3.93507e-06
2.35401e-05
9.46962e-05
9.24634e-05
2.31061e-05
3.9092e-06
3.89489e-06
2.29549e-05
9.24315e-05
9.06698e-05
2.26891e-05
3.88085e-06
3.87537e-06
2.26382e-05
9.08696e-05
8.96904e-05
2.25424e-05
3.86823e-06
3.86861e-06
2.25825e-05
9.01344e-05
8.95761e-05
2.2625e-05
3.86809e-06
3.87684e-06
2.27886e-05
9.02123e-05
9.01616e-05
2.29779e-05
3.88326e-06
3.89703e-06
2.34258e-05
9.17414e-05
9.23533e-05
2.37198e-05
3.9069e-06
3.92434e-06
2.43504e-05
9.51305e-05
9.60692e-05
2.46896e-05
3.93543e-06
3.95557e-06
2.53992e-05
9.9382e-05
0.00010043
2.5762e-05
3.96803e-06
3.98956e-06
2.65185e-05
0.000103985
0.000105097
2.68944e-05
3.99819e-06
4.01453e-06
2.76797e-05
0.000108857
0.000109991
2.80524e-05
4.02245e-06
4.03917e-06
2.88321e-05
0.000113845
0.000114948
2.92068e-05
4.0463e-06
4.06165e-06
3.00057e-05
0.000118872
0.000119959
3.03801e-05
4.06575e-06
4.0781e-06
3.11725e-05
0.000123953
0.000124956
3.15278e-05
4.08031e-06
4.08897e-06
3.2289e-05
0.000128907
0.000129777
3.26191e-05
4.08732e-06
4.09096e-06
3.33242e-05
0.000133584
0.000134283
3.36219e-05
4.08549e-06
4.08476e-06
3.42708e-05
0.00013789
0.000138413
3.45396e-05
4.07519e-06
4.06974e-06
3.51333e-05
0.000141795
0.000142141
3.53768e-05
4.0543e-06
4.04503e-06
3.59349e-05
0.000145366
0.000145578
3.61624e-05
4.02368e-06
4.00872e-06
3.66902e-05
0.000148706
0.000148785
3.68912e-05
3.98056e-06
3.96015e-06
3.73683e-05
0.000151796
0.000151692
3.75195e-05
3.92432e-06
3.89128e-06
3.78843e-05
0.000154406
0.000154015
3.79522e-05
3.84532e-06
3.80134e-06
3.81649e-05
0.000156294
0.000155631
3.81513e-05
3.74624e-06
3.6915e-06
3.82107e-05
0.000157469
0.00015652
3.81111e-05
3.62962e-06
3.56673e-06
3.80685e-05
0.000157788
0.000156595
3.78178e-05
3.49215e-06
3.41946e-06
3.76573e-05
0.000157262
0.000155856
3.72459e-05
3.33455e-06
3.25379e-06
3.70136e-05
0.000156083
0.000154259
3.64531e-05
3.15864e-06
3.07254e-06
3.61528e-05
0.000154235
0.000151951
3.5477e-05
2.97158e-06
2.88219e-06
3.51098e-05
0.000151641
0.000148868
3.4289e-05
2.77787e-06
2.68988e-06
3.38904e-05
0.000148325
0.00014526
3.29845e-05
2.58685e-06
2.50257e-06
3.25862e-05
0.000144614
0.000141422
3.16387e-05
2.40338e-06
2.32414e-06
3.12824e-05
0.00014091
0.000137661
3.03135e-05
2.23089e-06
2.1646e-06
3.00019e-05
0.000137309
0.000133756
2.89839e-05
2.08318e-06
2.02702e-06
2.86545e-05
0.000133539
0.000129624
2.76132e-05
1.95962e-06
1.91903e-06
2.731e-05
0.000129669
0.00012564
2.63632e-05
1.86958e-06
1.84328e-06
2.60716e-05
0.00012594
0.000122223
2.53755e-05
1.81186e-06
1.803e-06
2.53491e-05
0.000123047
0.000120657
2.50619e-05
1.78955e-06
1.78829e-06
2.51871e-05
0.000122128
0.000121234
2.52412e-05
1.78799e-06
1.79868e-06
2.55563e-05
0.00012314
0.000123189
2.57959e-05
1.80491e-06
1.82403e-06
2.64104e-05
0.000125915
0.000126675
2.67643e-05
1.83451e-06
1.86224e-06
2.76283e-05
0.000130664
0.000131805
2.8048e-05
1.87646e-06
1.90694e-06
2.89851e-05
0.000136337
0.000137665
2.94347e-05
1.92264e-06
1.95877e-06
3.04721e-05
0.000142693
0.000144079
3.09127e-05
1.97612e-06
2.01058e-06
3.18744e-05
0.000149038
0.000150204
3.22741e-05
2.02996e-06
2.06843e-06
3.31944e-05
0.000154872
0.000155802
3.35425e-05
2.08768e-06
2.12532e-06
3.43795e-05
0.000160057
0.00016075
3.4677e-05
2.14646e-06
2.18451e-06
3.54372e-05
0.00016464
0.000165079
3.56832e-05
2.20586e-06
2.24176e-06
3.633e-05
0.000168501
0.00016861
3.64873e-05
2.26324e-06
2.30002e-06
3.70542e-05
0.000171633
0.000171472
3.7151e-05
2.32041e-06
2.35252e-06
3.75298e-05
0.000173733
0.000173179
3.74914e-05
2.36808e-06
2.39291e-06
3.76413e-05
0.000174608
0.000173628
3.74857e-05
2.41014e-06
2.43353e-06
3.74776e-05
0.000174585
0.000172641
3.71141e-05
2.43922e-06
2.45186e-06
3.68419e-05
0.000172761
0.000169189
3.60601e-05
2.44542e-06
2.45306e-06
3.56269e-05
0.000168619
0.000163964
3.46231e-05
2.44819e-06
2.45181e-06
3.40409e-05
0.000162977
0.000156989
3.26301e-05
2.43048e-06
2.42413e-06
3.17842e-05
0.000155181
0.000147692
2.9952e-05
2.39057e-06
2.38139e-06
2.89237e-05
0.000145023
0.000136203
2.67832e-05
2.35277e-06
2.3436e-06
2.5478e-05
0.000132602
0.000122278
2.32044e-05
2.32392e-06
2.31634e-06
2.16914e-05
0.000117322
0.000105723
1.95094e-05
2.29066e-06
2.30018e-06
1.81936e-05
0.000100073
8.86691e-05
1.64935e-05
2.30967e-06
2.32244e-06
1.5333e-05
8.20964e-05
7.17854e-05
1.41595e-05
2.33807e-06
2.35796e-06
1.33769e-05
6.57058e-05
5.71983e-05
1.27147e-05
2.37003e-06
2.39924e-06
1.23545e-05
5.16477e-05
4.61728e-05
1.21189e-05
2.4301e-06
2.46665e-06
1.1989e-05
4.23738e-05
3.89892e-05
1.19176e-05
2.48159e-06
2.48816e-06
1.19785e-05
3.71234e-05
3.55985e-05
1.20939e-05
2.49923e-06
2.51716e-06
1.23342e-05
3.46735e-05
3.39333e-05
1.24499e-05
2.53074e-06
2.55133e-06
1.27135e-05
3.33918e-05
3.30602e-05
1.28637e-05
2.56075e-06
2.57078e-06
1.31596e-05
3.29229e-05
3.30185e-05
1.33736e-05
2.57043e-06
2.57983e-06
1.36676e-05
3.31879e-05
3.32984e-05
1.38946e-05
2.58633e-06
2.5947e-06
1.41972e-05
3.34743e-05
3.383e-05
1.4448e-05
2.5943e-06
2.60123e-06
1.47398e-05
3.399e-05
3.44028e-05
1.50149e-05
2.60353e-06
2.60254e-06
1.53103e-05
3.46866e-05
3.51309e-05
1.55595e-05
2.59475e-06
2.58635e-06
1.58387e-05
3.53904e-05
3.5828e-05
1.6071e-05
2.56603e-06
2.53464e-06
1.6289e-05
3.60477e-05
3.64477e-05
1.64104e-05
2.48619e-06
2.42859e-06
1.64322e-05
3.67388e-05
3.69837e-05
1.64242e-05
2.35878e-06
2.29998e-06
1.64929e-05
3.71495e-05
3.7508e-05
1.66757e-05
2.29289e-06
2.32844e-06
1.69173e-05
3.78449e-05
3.8385e-05
1.726e-05
2.4123e-06
2.52679e-06
1.76479e-05
3.91674e-05
4.0755e-05
1.83834e-05
2.71712e-06
2.93465e-06
1.90109e-05
4.22938e-05
4.41683e-05
1.97609e-05
3.22507e-06
3.53486e-06
2.03337e-05
4.6196e-05
4.8677e-05
2.11949e-05
3.9578e-06
4.40635e-06
2.16943e-05
5.10906e-05
5.30512e-05
2.26391e-05
4.98288e-06
5.58391e-06
2.32217e-05
5.53095e-05
5.82877e-05
2.39258e-05
6.28038e-06
6.94716e-06
2.41965e-05
6.16813e-05
6.50756e-05
2.45049e-05
7.66187e-06
8.281e-06
2.4515e-05
6.83752e-05
7.56876e-05
2.47317e-05
8.90449e-06
9.38384e-06
2.52397e-05
9.27774e-05
0.000142404
2.81e-05
9.99982e-06
1.04585e-05
3.26058e-05
0.00018663
0.000277581
4.64884e-05
1.13742e-05
1.20012e-05
5.797e-05
0.000317564
0.000401272
8.50445e-05
1.3329e-05
1.40174e-05
9.61978e-05
0.000408203
0.000454122
0.000117844
1.52686e-05
1.56739e-05
0.000120189
0.000442432
0.000468311
0.000131779
1.64782e-05
1.66568e-05
0.000130467
0.000454929
0.000469251
0.000136958
1.71122e-05
1.71688e-05
0.000133943
0.000456317
0.000463915
0.00013789
1.74332e-05
1.74224e-05
0.000133396
0.000451612
0.000459373
0.00013735
1.76001e-05
1.75533e-05
0.00013198
0.000445631
0.000454551
0.000136358
1.77293e-05
1.76977e-05
0.00013106
0.000441162
0.000452435
0.000136246
1.79162e-05
1.79443e-05
0.000131784
0.000440486
0.000454466
0.000137776
1.82595e-05
1.83877e-05
0.000134485
0.000444258
0.000459094
0.000140618
1.88446e-05
1.88211e-05
0.000138398
0.000450355
0.000463581
0.000143735
1.9145e-05
1.90556e-05
0.000140913
0.000454054
0.000462569
0.000144564
1.93323e-05
1.92267e-05
0.000139319
0.000448484
0.000448253
0.000139173
1.92887e-05
1.91637e-05
0.000129861
0.000428312
0.000420895
0.000127905
1.90585e-05
1.88482e-05
0.000112015
0.000384902
0.000359544
0.000102681
1.85316e-05
1.80389e-05
8.66198e-05
0.000313821
0.000262577
6.91895e-05
1.6272e-05
1.5241e-05
6.30493e-05
0.000243511
0.000206737
5.22583e-05
1.2594e-05
0.000630809
0.000629398
0.000173425
8.28027e-05
4.34092e-05
3.84378e-05
3.75513e-05
3.96027e-05
4.54437e-05
4.62133e-05
4.92524e-05
4.87927e-05
5.00777e-05
4.92471e-05
4.89577e-05
4.75181e-05
4.59478e-05
4.422e-05
4.25803e-05
4.10435e-05
3.95338e-05
3.807e-05
3.65714e-05
3.51423e-05
3.37068e-05
3.24237e-05
3.11043e-05
2.99965e-05
2.8672e-05
2.77307e-05
2.62838e-05
2.5577e-05
2.08191e-05
1.8576e-05
3.97247e-06
3.33971e-06
1.43823e-05
0.000458088
0.000608703
0.0008649
0.00086493
0.000864948
0.000864947
0.000864957
0.000864951
0.000864939
0.000864954
0.000674174
0.000542074
0.000424173
6.23917e-06
1.71906e-06
9.74996e-07
1.15873e-06
2.26828e-06
2.1172e-06
3.67752e-06
5.43967e-06
2.84303e-06
2.25576e-06
2.33755e-06
4.73898e-06
9.05925e-06
1.12166e-05
6.63966e-06
3.15317e-06
1.20121e-05
1.20592e-05
1.1986e-05
1.18685e-05
1.68399e-05
2.23342e-05
3.58923e-05
2.14754e-05
1.1351e-05
1.07255e-05
2.41167e-05
4.89428e-05
6.15591e-05
3.02477e-05
1.03356e-05
1.02146e-05
3.65702e-05
7.57686e-05
9.19794e-05
5.16919e-05
1.08289e-05
1.15547e-05
6.3642e-05
0.000110368
0.000130483
9.06019e-05
1.74521e-05
3.03825e-05
0.000118827
0.000149575
0.000164412
0.000148666
3.79095e-05
4.19733e-05
0.000178671
0.000179094
0.000199348
0.000207576
4.48451e-05
4.6765e-05
0.000234267
0.000225293
0.000252081
0.000258482
4.82002e-05
4.93958e-05
0.000281517
0.000275458
0.000298718
0.000303399
5.04746e-05
5.14625e-05
0.000324625
0.000323517
0.00034833
0.000344428
5.23578e-05
5.32596e-05
0.000363394
0.000372448
0.000396023
0.000381042
5.40912e-05
5.49124e-05
0.000397755
0.000420371
0.000444958
0.000413822
5.56476e-05
5.63371e-05
0.000428666
0.000469867
0.000491725
0.000441592
5.70062e-05
5.76605e-05
0.000453885
0.000511571
0.000530747
0.000464957
5.82448e-05
5.88391e-05
0.000475498
0.00054878
0.000566451
0.000485417
5.93807e-05
5.99082e-05
0.000494249
0.000584015
0.000600916
0.000502458
6.04003e-05
6.08768e-05
0.000509893
0.000617191
0.000632976
0.00051643
6.13017e-05
6.1716e-05
0.000521876
0.000646202
0.000658979
0.000527066
6.21094e-05
6.24526e-05
0.000531099
0.000669128
0.000678554
0.000534686
6.27922e-05
6.30593e-05
0.000537731
0.000687105
0.00069506
0.000540175
6.33321e-05
6.3447e-05
0.000541591
0.000701139
0.000708668
0.000542819
6.36212e-05
6.34823e-05
0.000543117
0.000712938
0.000719687
0.000544545
6.34717e-05
6.26565e-05
0.000545922
0.000724864
0.000734431
0.000547175
6.23741e-05
6.15856e-05
0.000542594
0.000736131
0.000732703
0.000536096
6.24593e-05
6.24953e-05
0.000525292
0.000723251
0.00070802
0.000513411
6.47501e-05
6.51627e-05
0.000503286
0.000692056
0.000689809
0.000504347
6.96621e-05
6.97446e-05
0.000449099
0.000561835
0.000476699
0.000321121
5.41813e-05
4.14189e-05
0.000332935
0.000506909
0.000513179
0.000369365
5.29672e-05
5.93896e-05
0.00038669
0.000515619
0.000514425
0.000397752
6.32557e-05
6.48225e-05
0.000398965
0.000510229
0.000499755
0.000393069
6.68723e-05
6.75448e-05
0.000393092
0.000490797
0.000486353
0.000401303
7.11863e-05
6.95331e-05
0.000300449
0.000444347
0.000330636
0.000262303
5.4906e-05
4.12796e-05
0.000279949
0.000348914
0.000351041
0.000293782
5.15347e-05
5.72804e-05
0.000296759
0.00034956
0.000340101
0.000292541
6.1009e-05
6.4256e-05
0.000291173
0.000336321
0.000332211
0.000212101
6.17012e-05
4.88121e-05
0.000207449
0.000240663
0.000234596
0.0001987
3.53671e-05
4.43729e-05
0.000199431
0.000236629
0.000226451
0.000189773
4.41939e-05
3.53928e-05
0.000152565
0.000172369
0.000164288
0.000143008
2.56314e-05
2.93112e-05
0.000125559
0.000153268
0.000122999
0.000107345
2.49177e-05
2.79426e-05
7.23788e-05
4.90711e-05
0.000121117
9.75217e-05
3.85179e-05
1.25668e-05
3.42375e-05
4.61495e-05
2.72737e-05
2.19377e-05
1.46493e-05
1.95777e-05
3.47358e-05
5.03883e-05
5.82015e-05
3.48873e-05
1.8863e-05
1.45264e-05
2.70495e-05
3.88164e-05
3.43609e-05
2.67934e-05
1.75097e-05
1.73842e-05
3.8167e-05
5.1553e-05
4.32477e-05
2.91322e-05
1.44693e-05
1.75871e-05
2.83943e-05
3.5694e-05
5.47638e-05
3.9453e-05
1.78193e-05
1.46928e-05
3.07505e-05
4.56739e-05
3.75733e-05
2.9723e-05
1.7726e-05
1.8151e-05
4.09517e-05
5.7762e-05
4.763e-05
3.21132e-05
1.48973e-05
1.78544e-05
3.10884e-05
3.93227e-05
6.01477e-05
4.21842e-05
1.84504e-05
1.51213e-05
3.32577e-05
4.92194e-05
4.07809e-05
3.2174e-05
1.80893e-05
1.87091e-05
4.34067e-05
6.18308e-05
5.03469e-05
3.43764e-05
1.53182e-05
1.82855e-05
3.3281e-05
4.17438e-05
6.27313e-05
4.38303e-05
1.89304e-05
1.54233e-05
3.51223e-05
5.09817e-05
4.2334e-05
3.39651e-05
1.83785e-05
1.91138e-05
4.39928e-05
6.314e-05
5.12524e-05
3.56423e-05
1.55522e-05
1.8598e-05
3.42188e-05
4.25313e-05
6.29116e-05
4.35614e-05
1.919e-05
1.56243e-05
3.56291e-05
5.09616e-05
4.22864e-05
3.37945e-05
1.86888e-05
1.91087e-05
4.11334e-05
6.32031e-05
4.98827e-05
3.38586e-05
1.53348e-05
1.72526e-05
3.2965e-05
4.0319e-05
6.06363e-05
6.24834e-05
1.50544e-05
2.02293e-05
4.10002e-05
5.17888e-05
7.22733e-05
4.91888e-05
2.01625e-05
1.64469e-05
4.0116e-05
5.54882e-05
4.69394e-05
3.83581e-05
1.94808e-05
1.99374e-05
4.60252e-05
6.69243e-05
5.34458e-05
3.85394e-05
1.62352e-05
1.92695e-05
3.64571e-05
4.46802e-05
6.49716e-05
4.2092e-05
1.97996e-05
1.58857e-05
3.57831e-05
5.10001e-05
4.13321e-05
3.48393e-05
1.77291e-05
1.52466e-05
6.16314e-05
6.04458e-05
5.16054e-05
4.16786e-05
2.05835e-05
2.04049e-05
4.5154e-05
7.09163e-05
5.34022e-05
3.81182e-05
1.62202e-05
1.79852e-05
3.69295e-05
4.38883e-05
6.2883e-05
6.43445e-05
1.56169e-05
2.11265e-05
4.43348e-05
5.36779e-05
7.2251e-05
4.85215e-05
2.0739e-05
1.67356e-05
4.15609e-05
5.55064e-05
4.72133e-05
3.89472e-05
1.99683e-05
2.05622e-05
4.16228e-05
6.67159e-05
5.21319e-05
3.6669e-05
1.6359e-05
1.82709e-05
3.60476e-05
4.26332e-05
6.17778e-05
5.84587e-05
1.50438e-05
1.89592e-05
4.1775e-05
5.00825e-05
6.88973e-05
6.47123e-05
1.63132e-05
2.15764e-05
4.66801e-05
5.64091e-05
7.66807e-05
4.89526e-05
2.09513e-05
1.68285e-05
4.17409e-05
5.72982e-05
4.7759e-05
4.07917e-05
1.87394e-05
1.63196e-05
6.27126e-05
6.62933e-05
5.52038e-05
4.57263e-05
2.16619e-05
2.10427e-05
4.58152e-05
7.46129e-05
5.60229e-05
4.00636e-05
1.68079e-05
1.88154e-05
3.98522e-05
4.64849e-05
6.47759e-05
6.0491e-05
1.55768e-05
1.92616e-05
4.45466e-05
5.21168e-05
7.034e-05
6.62358e-05
1.63547e-05
2.1876e-05
4.81117e-05
5.79948e-05
7.8042e-05
4.79928e-05
2.14203e-05
1.71207e-05
4.17074e-05
5.75387e-05
4.78103e-05
4.14073e-05
1.90347e-05
1.54988e-05
6.3046e-05
6.63702e-05
5.35872e-05
4.6352e-05
1.93824e-05
1.66331e-05
6.82395e-05
7.15421e-05
5.9053e-05
5.00592e-05
2.24149e-05
2.18103e-05
4.83287e-05
7.81468e-05
5.80885e-05
4.2921e-05
1.72739e-05
1.91546e-05
4.22786e-05
4.83082e-05
6.65365e-05
6.33024e-05
1.56213e-05
1.95911e-05
4.71891e-05
5.38583e-05
7.12216e-05
6.71994e-05
1.68094e-05
2.2473e-05
5.03668e-05
5.8606e-05
7.74988e-05
4.73408e-05
2.17012e-05
1.73158e-05
4.26372e-05
5.76091e-05
4.82782e-05
4.23501e-05
1.93474e-05
1.58846e-05
6.12087e-05
6.63081e-05
5.35959e-05
4.68963e-05
1.99346e-05
1.61133e-05
6.47851e-05
7.12304e-05
5.6647e-05
5.04355e-05
1.98356e-05
1.68007e-05
6.9437e-05
7.39161e-05
6.08321e-05
5.21917e-05
2.2561e-05
2.19765e-05
4.89024e-05
8.01699e-05
5.92973e-05
4.38804e-05
1.73997e-05
1.94071e-05
4.3528e-05
4.96132e-05
6.81189e-05
6.2208e-05
1.60268e-05
2.00929e-05
4.78011e-05
5.52404e-05
7.35237e-05
6.42153e-05
1.61957e-05
2.0062e-05
5.08984e-05
5.82625e-05
7.70405e-05
7.11058e-05
1.63873e-05
2.02222e-05
5.44208e-05
6.09026e-05
7.89628e-05
7.29524e-05
1.71945e-05
2.28694e-05
5.54718e-05
6.43374e-05
8.45373e-05
5.18111e-05
2.21308e-05
1.76015e-05
4.64849e-05
6.24277e-05
5.24033e-05
4.60123e-05
1.95965e-05
1.61618e-05
6.49401e-05
7.12441e-05
5.74836e-05
5.01865e-05
2.0213e-05
1.63621e-05
6.81548e-05
7.62289e-05
6.03841e-05
5.3364e-05
2.02106e-05
1.64706e-05
7.34976e-05
7.94414e-05
6.30245e-05
5.65703e-05
2.0372e-05
1.73683e-05
7.44666e-05
8.1373e-05
6.61004e-05
5.71195e-05
2.30546e-05
2.23547e-05
5.3418e-05
8.65706e-05
6.40202e-05
4.79864e-05
1.76968e-05
1.96022e-05
4.74653e-05
5.37469e-05
7.25655e-05
6.61414e-05
1.61128e-05
2.01841e-05
5.13545e-05
5.87741e-05
7.78862e-05
6.98866e-05
1.63324e-05
2.02489e-05
5.46914e-05
6.18317e-05
8.1036e-05
7.43849e-05
1.64002e-05
2.0246e-05
5.76047e-05
6.4113e-05
8.27196e-05
7.61279e-05
1.72124e-05
2.2891e-05
5.83954e-05
6.72845e-05
8.81713e-05
5.4865e-05
2.22885e-05
1.78338e-05
4.93263e-05
6.55882e-05
5.5254e-05
4.87803e-05
1.98066e-05
1.61165e-05
6.72322e-05
7.41633e-05
6.00234e-05
5.23513e-05
2.02153e-05
1.63626e-05
7.11765e-05
7.9417e-05
6.30567e-05
5.59447e-05
2.02547e-05
1.63658e-05
7.56957e-05
8.22737e-05
6.52614e-05
5.88149e-05
2.02887e-05
1.72465e-05
7.70436e-05
8.39812e-05
6.82158e-05
5.95177e-05
2.29446e-05
2.23759e-05
5.53243e-05
8.91702e-05
6.68052e-05
5.01509e-05
1.78077e-05
1.97488e-05
4.95769e-05
5.61222e-05
7.53701e-05
6.88962e-05
1.61401e-05
2.0238e-05
5.34853e-05
6.11455e-05
8.05461e-05
7.21487e-05
1.63504e-05
2.02096e-05
5.69377e-05
6.4087e-05
8.37346e-05
7.71612e-05
1.62455e-05
2.02231e-05
6.00152e-05
6.65271e-05
8.56782e-05
7.92107e-05
1.74473e-05
2.31808e-05
6.12647e-05
7.00595e-05
9.11653e-05
5.67623e-05
2.2526e-05
1.7779e-05
5.13442e-05
6.83354e-05
5.74209e-05
5.04099e-05
1.95565e-05
1.61038e-05
7.13605e-05
7.74802e-05
6.2896e-05
5.46609e-05
2.03082e-05
1.64578e-05
7.53934e-05
8.34061e-05
6.63471e-05
5.86071e-05
2.03474e-05
1.64575e-05
7.9711e-05
8.67482e-05
6.87066e-05
6.17217e-05
2.02439e-05
1.74144e-05
8.26898e-05
8.88978e-05
7.28735e-05
6.34162e-05
2.31414e-05
2.2398e-05
5.95669e-05
9.52955e-05
7.1144e-05
5.31819e-05
1.78218e-05
1.96756e-05
5.24283e-05
5.97083e-05
8.08321e-05
7.53667e-05
1.59395e-05
2.00288e-05
5.71727e-05
6.55969e-05
8.65766e-05
7.99763e-05
1.63339e-05
2.02016e-05
6.124e-05
6.88148e-05
8.98099e-05
8.36224e-05
1.72901e-05
2.29888e-05
6.35464e-05
7.40117e-05
9.73007e-05
6.15491e-05
2.23569e-05
1.78169e-05
5.44009e-05
7.27938e-05
6.09995e-05
5.33741e-05
1.96699e-05
1.61011e-05
7.77063e-05
8.31078e-05
6.73791e-05
5.85222e-05
2.02548e-05
1.64377e-05
8.29855e-05
8.95728e-05
7.13399e-05
6.27938e-05
2.03231e-05
1.7498e-05
8.78653e-05
9.35061e-05
7.70576e-05
6.61625e-05
2.34092e-05
2.27607e-05
6.46404e-05
0.000101355
7.51957e-05
5.66431e-05
1.79289e-05
1.96591e-05
5.55083e-05
6.28301e-05
8.5281e-05
8.23775e-05
1.60029e-05
2.00609e-05
6.07674e-05
6.9824e-05
9.28975e-05
9.03067e-05
1.72293e-05
2.3233e-05
6.61635e-05
7.84476e-05
0.000103665
6.65077e-05
2.27776e-05
1.7872e-05
5.76231e-05
7.73355e-05
6.45008e-05
5.61691e-05
1.96451e-05
1.62007e-05
8.53802e-05
8.86365e-05
7.26037e-05
6.20893e-05
2.02963e-05
1.74718e-05
9.32695e-05
9.75864e-05
8.1966e-05
6.80865e-05
2.34069e-05
2.30402e-05
7.07307e-05
0.000109315
8.14108e-05
6.00031e-05
1.82181e-05
2.00406e-05
5.78744e-05
6.77866e-05
9.42046e-05
8.93855e-05
1.64931e-05
2.0566e-05
6.40541e-05
7.65927e-05
0.000104544
0.000100631
1.77501e-05
2.37147e-05
7.2454e-05
8.8253e-05
0.000117867
7.92272e-05
2.3461e-05
1.83573e-05
6.53371e-05
8.84734e-05
7.30983e-05
6.18649e-05
2.02476e-05
1.76296e-05
0.000100565
0.000101973
8.77758e-05
7.14136e-05
2.34196e-05
2.30569e-05
8.22104e-05
0.00011865
9.19036e-05
6.67367e-05
1.82015e-05
2.02408e-05
6.27206e-05
7.52382e-05
0.000106604
0.000105839
1.80038e-05
2.39858e-05
7.36337e-05
9.14602e-05
0.000124036
8.47627e-05
2.3727e-05
1.83642e-05
6.80459e-05
9.53752e-05
7.84199e-05
6.3378e-05
2.00794e-05
1.81008e-05
0.00011798
0.000114205
9.93393e-05
7.77622e-05
2.44643e-05
2.45979e-05
9.58126e-05
0.000136985
0.00010526
7.34513e-05
1.88156e-05
2.07985e-05
6.79376e-05
8.56731e-05
0.000126866
0.000132206
1.86123e-05
2.504e-05
8.5659e-05
0.000111116
0.000153965
0.000118698
2.57854e-05
2.00573e-05
8.71949e-05
0.00012361
0.000102643
8.12334e-05
2.43907e-05
2.5203e-05
0.000118732
0.000149674
0.000127402
8.76227e-05
2.00012e-05
2.42575e-05
8.23074e-05
0.000105601
0.000154624
0.000125012
2.6104e-05
2.02431e-05
8.94726e-05
0.000130715
0.000106227
8.26882e-05
2.47164e-05
2.55583e-05
0.000131442
0.000159048
0.000138261
9.28993e-05
2.0246e-05
2.49867e-05
8.55361e-05
0.000111895
0.000170505
0.000136965
2.67546e-05
2.0683e-05
9.4794e-05
0.000144302
0.000117389
8.73534e-05
2.49573e-05
2.65618e-05
0.000164549
0.000189901
0.000164226
0.000102987
2.13209e-05
2.64007e-05
9.24573e-05
0.000127926
0.000223024
0.000163262
2.71371e-05
2.16032e-05
0.000105462
0.00017566
0.000145188
9.91732e-05
2.81216e-05
3.12543e-05
0.000178215
0.000293475
0.000224216
0.000121992
2.77214e-05
2.0902e-05
0.000111602
0.000194905
0.000164154
9.97194e-05
2.88043e-05
3.31737e-05
0.000216663
0.000452622
0.000379553
0.000161589
3.24068e-05
2.83277e-05
0.000163267
0.000346304
0.000344864
0.000159288
2.72347e-05
2.40454e-05
0.000173499
0.000347801
0.000345514
0.000171172
2.32781e-05
1.89052e-05
0.000167144
0.000334871
0.000295866
0.000141772
2.72332e-05
3.71504e-05
0.000419124
0.00095199
0.000889133
0.00037665
3.91655e-05
3.83443e-05
0.000368947
0.00086214
0.000867587
0.00037241
3.92754e-05
3.9293e-05
0.000371939
0.000858823
0.000859447
0.000372925
3.96629e-05
3.97731e-05
0.000371344
0.000852593
0.000852507
0.000371932
4.00051e-05
3.99497e-05
0.000371452
0.000846023
0.000845001
0.000371884
4.01062e-05
4.00301e-05
0.000371048
0.000840239
0.000839314
0.000371234
4.01178e-05
4.0052e-05
0.000371214
0.000835592
0.00083482
0.000371037
4.01029e-05
4.00464e-05
0.000371101
0.000831882
0.000831207
0.000370909
4.0077e-05
4.00286e-05
0.000371074
0.000828875
0.000828288
0.000370867
4.00469e-05
4.00046e-05
0.000371135
0.000826431
0.000825914
0.000371195
4.00174e-05
3.99779e-05
0.000370912
0.000824628
0.00082393
0.00037099
3.99863e-05
3.99545e-05
0.000371438
0.000823021
0.000822496
0.000371194
3.99605e-05
3.99334e-05
0.000371685
0.000821757
0.000821372
0.000371721
3.99408e-05
3.99155e-05
0.000371647
0.000820987
0.000820446
0.000371689
3.99228e-05
3.99045e-05
0.000372317
0.000820268
0.000819949
0.000372374
3.9913e-05
3.98947e-05
0.000372037
0.000819799
0.00081963
0.000373028
3.99082e-05
3.98955e-05
0.000372827
0.000819541
0.000819753
0.000373119
3.99056e-05
3.98976e-05
0.000372968
0.000819317
0.000819713
0.000373848
3.99106e-05
3.99067e-05
0.000373503
0.000819532
0.000819846
0.000374332
3.9919e-05
3.99199e-05
0.000374003
0.000819783
0.000820064
0.000374858
3.99327e-05
3.99385e-05
0.000374828
0.000820168
0.000820555
0.00037508
3.99497e-05
3.99577e-05
0.000375056
0.000820591
0.00082101
0.00037596
3.9973e-05
3.9982e-05
0.000375628
0.000821197
0.000821608
0.000376147
3.99971e-05
4.00117e-05
0.000376488
0.000821875
0.000822294
0.000376747
4.00278e-05
4.00456e-05
0.000377406
0.000822668
0.000823079
0.000377098
4.00617e-05
4.00815e-05
0.000378044
0.000823515
0.000824017
0.000377757
4.0101e-05
4.01222e-05
0.000378726
0.000824522
0.00082509
0.000378789
4.01458e-05
4.01659e-05
0.000379108
0.00082566
0.000826315
0.000379514
4.01926e-05
4.02142e-05
0.000379831
0.000826953
0.000827647
0.000380285
4.02416e-05
4.02645e-05
0.000380594
0.000828258
0.000829087
0.000381023
4.02923e-05
4.03152e-05
0.000381028
0.000829727
0.000830536
0.000381819
4.03463e-05
4.03699e-05
0.000381818
0.000831301
0.00083217
0.000382399
4.03992e-05
4.04298e-05
0.000382619
0.000832922
0.000833793
0.000382982
4.04591e-05
4.04872e-05
0.000383317
0.000834708
0.000835505
0.000383645
4.0519e-05
4.05483e-05
0.000383986
0.000836422
0.000837399
0.000384321
4.05809e-05
4.06098e-05
0.000384646
0.000838251
0.000839235
0.00038504
4.06451e-05
4.06779e-05
0.000385321
0.000840193
0.000841192
0.000385773
4.07104e-05
4.07441e-05
0.000386118
0.000842163
0.000843179
0.000386513
4.07779e-05
4.08101e-05
0.000386844
0.000844169
0.000845202
0.000387259
4.08487e-05
4.08828e-05
0.000387596
0.00084619
0.000847347
0.000388053
4.09182e-05
4.09535e-05
0.000388457
0.000848253
0.000849459
0.000388842
4.09892e-05
4.10234e-05
0.000389209
0.000850351
0.000851503
0.000389647
4.10616e-05
4.10972e-05
0.000389976
0.000852546
0.000853646
0.000390484
4.1133e-05
4.11737e-05
0.000390826
0.000854696
0.000855816
0.000391248
4.12076e-05
4.12469e-05
0.000391707
0.000856888
0.000857983
0.000392042
4.12836e-05
4.13201e-05
0.000392579
0.000859156
0.000860172
0.000392906
4.13601e-05
4.13968e-05
0.000393369
0.00086134
0.000862388
0.000393755
4.14377e-05
4.14735e-05
0.000394173
0.000863479
0.000864643
0.000394636
4.1514e-05
4.1554e-05
0.000395036
0.00086557
0.000867003
0.000395524
4.15905e-05
4.16306e-05
0.000395957
0.000867719
0.000869052
0.000396408
4.16677e-05
4.17052e-05
0.000396764
0.000870004
0.000871291
0.000397229
4.17446e-05
4.17868e-05
0.000397596
0.00087229
0.000873369
0.000398102
4.18251e-05
4.1863e-05
0.000398562
0.000874527
0.000875519
0.000398995
4.19026e-05
4.19408e-05
0.000399445
0.000876728
0.000877733
0.000399805
4.19782e-05
4.20195e-05
0.000400269
0.000878868
0.000879872
0.000400689
4.20598e-05
4.20963e-05
0.000401156
0.000881101
0.000882015
0.000401547
4.21352e-05
4.21734e-05
0.000402
0.000883162
0.000884216
0.0004024
4.22169e-05
4.22541e-05
0.000402889
0.000885251
0.00088644
0.000403325
4.22929e-05
4.233e-05
0.000403711
0.000887352
0.000888473
0.000404165
4.23696e-05
4.24118e-05
0.000404562
0.000889504
0.000890575
0.000404982
4.2448e-05
4.24896e-05
0.000405445
0.000891623
0.000892673
0.000405861
4.25302e-05
4.25671e-05
0.000406342
0.000893732
0.00089475
0.000406772
4.26081e-05
4.26459e-05
0.000407206
0.000895744
0.000896867
0.000407613
4.26863e-05
4.27249e-05
0.000408077
0.000897769
0.000898915
0.000408461
4.27643e-05
4.28038e-05
0.000408931
0.000899767
0.000900943
0.000409318
4.28425e-05
4.28826e-05
0.000409789
0.000901679
0.00090305
0.000410177
4.29209e-05
4.29612e-05
0.000410639
0.000903608
0.000905058
0.000411032
4.29991e-05
4.30394e-05
0.000411492
0.000905532
0.000906758
0.000411912
4.3077e-05
4.31167e-05
0.000412345
0.000907675
0.000908628
0.000412767
4.31542e-05
4.31914e-05
0.00041313
0.00090956
0.000910473
0.000413552
4.32318e-05
4.32698e-05
0.000413897
0.000911411
0.000912321
0.000414411
4.33085e-05
4.33473e-05
0.000414688
0.000913212
0.00091411
0.000415228
4.33836e-05
4.34268e-05
0.000415548
0.000914975
0.000915861
0.000415938
4.34611e-05
4.35029e-05
0.00041636
0.000916739
0.000917593
0.000416738
4.35419e-05
4.35785e-05
0.000417182
0.000918388
0.000919237
0.000417585
4.36179e-05
4.36551e-05
0.000417971
0.000920029
0.000920841
0.000418369
4.36939e-05
4.37312e-05
0.000418751
0.000921674
0.000922448
0.000419136
4.37695e-05
4.38068e-05
0.000419516
0.000923211
0.000923902
0.000419897
4.38445e-05
4.38816e-05
0.00042028
0.00092465
0.000925414
0.000420654
4.39188e-05
4.39556e-05
0.000421026
0.000926098
0.000926783
0.0004214
4.3992e-05
4.40263e-05
0.000421711
0.00092744
0.000928068
0.000422043
4.4065e-05
4.41005e-05
0.000422343
0.000928715
0.000929322
0.000422772
4.4137e-05
4.41734e-05
0.00042299
0.000929903
0.000930503
0.000423453
4.42091e-05
4.42476e-05
0.000423701
0.000930991
0.000931651
0.000424097
4.42791e-05
4.43148e-05
0.000424384
0.000931999
0.000932596
0.000424683
4.43493e-05
4.43848e-05
0.000424942
0.000933009
0.0009335
0.000425326
4.4416e-05
4.44537e-05
0.000425569
0.000933857
0.00093427
0.000425841
4.44843e-05
4.45204e-05
0.000426122
0.000934617
0.000934971
0.000426401
4.45531e-05
4.45857e-05
0.000426625
0.00093523
0.000935573
0.000426934
4.46179e-05
4.46516e-05
0.00042709
0.000935738
0.000936064
0.000427441
4.46822e-05
4.47158e-05
0.00042754
0.000936157
0.000936448
0.000427894
4.4744e-05
4.47818e-05
0.000428084
0.000936434
0.000936608
0.000428253
4.48093e-05
4.4842e-05
0.000428541
0.000936817
0.00093658
0.000428689
4.4871e-05
4.49029e-05
0.000428904
0.000936876
0.000936572
0.000429078
4.49317e-05
4.49628e-05
0.000429253
0.000936801
0.000936442
0.000429429
4.49917e-05
4.50218e-05
0.000429584
0.000936608
0.000936187