/*--------------------------------*- C++ -*----------------------------------*\
| =========                 |                                                 |
| \\      /  F ield         | OpenFOAM: The Open Source CFD Toolbox           |
|  \\    /   O peration     | Version:  v2006                                 |
|   \\  /    A nd           | Website:  www.openfoam.com                      |
|    \\/     M anipulation  |                                                 |
\*---------------------------------------------------------------------------*/
FoamFile
{
    version     2.0;
    format      ascii;
    class       volScalarField;
    location    "0.007";
    object      k;
}
// * * * * * * * * * * * * * * * * * * * * * * * * * * * * * * * * * * * * * //

dimensions      [0 2 -2 0 0 0 0];


internalField   nonuniform List<scalar> 
31566
(
5.07227
5.06866
5.04643
5.05325
5.06097
5.06498
5.06284
5.05446
5.04277
5.02897
5.01387
4.99705
4.97831
4.95741
4.93447
4.90971
4.8834
4.85549
4.8258
4.79464
4.76235
4.72928
4.69583
4.66231
4.62886
4.59537
4.56147
4.52687
4.49148
4.45579
4.42075
4.3867
4.35371
4.32175
4.29053
4.25904
4.22472
4.18426
4.14451
4.11727
4.10477
4.10159
4.10271
4.10397
4.10486
4.10549
4.10601
4.10811
4.11384
4.12214
4.13244
4.14569
4.16051
4.17526
4.19008
4.2052
4.22008
4.23399
4.24777
4.26278
4.28047
4.30012
4.31875
4.33386
4.34344
4.34219
4.32426
4.31301
4.31351
4.31566
4.31808
4.31996
4.32043
4.31965
4.31942
4.31877
4.31724
4.31775
4.32061
4.32113
4.32479
4.33192
4.34093
4.35119
4.36148
4.36945
4.37673
4.38778
4.40384
4.42496
4.44991
4.47623
4.50343
4.53093
4.55725
4.57898
4.59378
4.60103
4.60068
4.55787
4.42967
4.47246
4.20106
4.37964
4.45949
4.49975
4.49697
4.45694
4.41294
3.87559
3.8909
4.53967
4.94388
4.87623
4.24891
3.63652
3.05841
3.20513
4.23407
3.20426
2.22702
2.6343
2.30835
1.73694
2.56139
2.19418
1.44889
2.03718
1.80998
1.25795
1.96646
1.76995
1.09972
1.62294
1.46901
1.0054
1.64115
1.5617
0.970702
1.34184
1.23341
0.969602
1.55069
1.55648
0.980189
1.13954
1.05916
1.00487
1.60412
1.63034
1.01191
0.991127
0.936378
1.00441
1.63963
1.61687
0.966388
0.893863
0.864048
0.934103
1.55402
1.45394
0.911899
0.843386
0.830382
0.906303
1.40309
1.35231
0.907241
0.821922
0.817927
0.922578
1.33921
1.32557
0.934124
0.814807
0.814183
0.951974
1.32786
1.3282
0.963357
0.813349
0.814307
0.989367
1.34247
1.35596
1.01511
0.814288
0.814124
1.05614
1.40281
1.44476
1.08495
0.811666
0.80842
1.11703
1.51561
1.54993
1.1345
0.803206
0.797551
1.15003
1.5978
1.61396
1.15425
0.79013
0.782837
1.15591
1.63677
1.63854
1.15231
0.774015
0.766201
1.14484
1.64357
1.63447
1.12404
0.756936
0.749969
1.11103
1.62637
1.59293
1.08439
0.742689
0.73788
1.0718
1.5793
1.54286
1.05036
0.732774
0.729848
1.04077
1.53281
1.50468
1.02684
0.727016
0.725811
1.02193
1.49913
1.48109
1.01569
0.724305
0.724189
1.01487
1.48037
1.47296
1.01459
0.72397
0.725531
1.01937
1.47607
1.47736
1.02578
0.726617
0.729173
1.04338
1.49673
1.50936
1.05456
0.730944
0.734224
1.08026
1.54888
1.56728
1.09363
0.73629
0.74005
1.12285
1.61599
1.63662
1.1373
0.742374
0.746372
1.16871
1.68979
1.71208
1.18404
0.747929
0.751024
1.21684
1.76892
1.79208
1.23205
0.752386
0.75547
1.2644
1.85052
1.87374
1.27966
0.756736
0.759614
1.31275
1.93324
1.95684
1.32814
0.760372
0.762647
1.36102
2.01767
2.04089
1.37568
0.762935
0.764512
1.40713
2.10117
2.12313
1.42077
0.764149
0.764719
1.44997
2.18134
2.2015
1.46224
0.763556
0.763306
1.48891
2.25664
2.2747
1.49993
0.76137
0.760273
1.52432
2.32648
2.34292
1.53445
0.757203
0.755308
1.55746
2.39268
2.40814
1.56695
0.75118
0.748247
1.58889
2.4569
2.47147
1.59748
0.742711
0.738697
1.61741
2.51895
2.53158
1.62407
0.731753
0.725362
1.63954
2.57482
2.58395
1.64305
0.716456
0.707996
1.65206
2.62056
2.62608
1.65232
0.69745
0.686896
1.65502
2.65607
2.65761
1.65233
0.674978
0.662944
1.6508
2.67857
2.67634
1.64213
0.648762
0.63497
1.63584
2.68764
2.68119
1.62011
0.618929
0.603704
1.61065
2.68527
2.67062
1.58824
0.585808
0.569684
1.57523
2.67012
2.64478
1.54627
0.550859
0.534253
1.52978
2.63832
2.60116
1.49365
0.514877
0.498593
1.4745
2.58951
2.54361
1.43389
0.479487
0.463902
1.41336
2.52883
2.47735
1.36985
0.445581
0.430972
1.34905
2.46038
2.40446
1.30383
0.413629
0.401328
1.28218
2.38395
2.31884
1.2336
0.386262
0.375825
1.21045
2.29338
2.21888
1.16026
0.363262
0.355707
1.13803
2.19107
2.11336
1.09197
0.346491
0.341598
1.07142
2.08696
2.01697
1.03732
0.335717
0.333997
1.02782
2.0002
1.95418
1.01114
0.331478
0.331265
1.0096
1.95007
1.93147
1.00759
0.331188
0.333119
1.01471
1.93741
1.9362
1.02132
0.334304
0.33801
1.04215
1.96027
1.97282
1.05463
0.340036
0.345216
1.0859
2.02045
2.03996
1.10142
0.347957
0.353899
1.13706
2.09859
2.1226
1.15471
0.356948
0.363796
1.19465
2.19054
2.21591
1.21223
0.367212
0.373918
1.25005
2.28332
2.30604
1.26648
0.377649
0.38507
1.30286
2.36905
2.38897
1.31819
0.389003
0.396253
1.35209
2.44669
2.46358
1.3661
0.400411
0.407748
1.39726
2.51533
2.52864
1.40975
0.411963
0.419187
1.43768
2.57396
2.58383
1.44843
0.423466
0.430452
1.47289
2.62184
2.62625
1.48097
0.434453
0.440742
1.49892
2.65171
2.65109
1.50344
0.443963
0.44918
1.51398
2.66496
2.65799
1.51445
0.45248
0.456821
1.51777
2.66156
2.63789
1.51036
0.458125
0.460842
1.50476
2.62812
2.58053
1.48248
0.459877
0.461744
1.47113
2.56173
2.49699
1.43864
0.46069
0.461174
1.42046
2.46799
2.38155
1.3714
0.457359
0.456501
1.3435
2.3407
2.23321
1.27737
0.450292
0.448898
1.24073
2.18221
2.05522
1.15915
0.443664
0.441519
1.10983
1.99164
1.84131
1.01829
0.437487
0.436516
0.958975
1.76048
1.59736
0.872875
0.432227
0.434154
0.819778
1.51094
1.3542
0.750087
0.435331
0.43749
0.703943
1.25504
1.11458
0.657133
0.440641
0.44467
0.628412
1.02426
0.912116
0.60343
0.447662
0.453344
0.592239
0.844033
0.771472
0.585353
0.458071
0.464317
0.584064
0.724636
0.678854
0.58476
0.467814
0.470498
0.593022
0.658933
0.642208
0.602934
0.473206
0.476498
0.619616
0.637449
0.633356
0.628615
0.478407
0.482238
0.645632
0.6339
0.635413
0.655923
0.484135
0.486337
0.675072
0.642239
0.651195
0.688895
0.486407
0.488124
0.707473
0.663993
0.673183
0.720998
0.489315
0.491151
0.739935
0.685686
0.699716
0.754834
0.491211
0.492605
0.773119
0.712168
0.727369
0.788845
0.493378
0.493467
0.807939
0.742876
0.759981
0.823038
0.491904
0.489914
0.841239
0.776297
0.794352
0.855179
0.485987
0.480228
0.869969
0.81028
0.828873
0.878784
0.471063
0.460072
0.882757
0.847513
0.861645
0.884324
0.447102
0.436083
0.889622
0.874133
0.888982
0.894002
0.43455
0.441016
0.896562
0.898966
0.903652
0.898837
0.457505
0.480206
0.904509
0.909781
0.922763
0.921187
0.517014
0.558794
0.934411
0.92767
0.927685
0.948888
0.615458
0.67669
0.960448
0.921876
0.912312
0.975031
0.760032
0.848685
0.980563
0.890665
0.866195
0.994563
0.96308
1.08327
1.00301
0.840671
0.817546
1.00811
1.22448
1.36223
1.01591
0.813563
0.816123
1.02488
1.51061
1.63914
1.03497
0.836134
0.920629
1.05189
1.76969
1.87218
1.08845
1.13704
1.79351
1.2003
2.0044
2.10219
1.38723
2.49566
3.98582
1.92939
2.29812
2.43559
2.40454
5.02668
6.88427
3.53117
2.73159
2.88747
4.0796
7.72094
9.01858
5.06026
3.17012
3.25825
5.31138
9.42264
10.2027
5.84831
3.44109
3.48391
5.93167
10.3824
10.8184
6.20741
3.59262
3.60729
6.19341
10.8394
11.0259
6.3047
3.66688
3.66279
6.21433
10.9355
11.088
6.29679
3.7038
3.69447
6.17308
10.9479
11.1077
6.25786
3.7352
3.72811
6.13198
10.9552
11.1603
6.24298
3.77783
3.7861
6.14121
11.0216
11.2976
6.29372
3.86049
3.89299
6.2285
11.1797
11.5012
6.40763
4.00107
4.05295
6.37259
11.3986
11.715
6.5477
4.18924
4.24854
6.50183
11.5855
11.813
6.62347
4.38407
4.42925
6.51766
11.5872
11.6019
6.49465
4.50197
4.48931
6.30572
11.259
11.064
6.17616
4.44815
4.33652
5.78415
10.3703
9.80402
5.40174
4.09727
3.8425
4.92916
8.83334
7.59577
4.13424
3.35417
3.02615
3.80438
7.08025
5.90514
3.08382
2.33838
12.9781
17.2797
4.44794
1.14258
1.01932
1.01542
1.00686
1.00883
1.00423
1.00669
1.00628
1.00548
1.00446
1.00459
1.00437
1.00395
1.00378
1.0034
1.00312
1.00299
1.0029
1.00262
1.00257
1.00175
1.00146
1.00146
1.00124
1.00151
1.00129
1.00103
1.00086
1.00084
1.00086
1.00059
1.00136
1.0002
1.00135
0.999971
0.999975
0.999931
0.99992
0.999955
0.999956
0.999967
0.999969
0.999959
0.999975
1
0.999985
1.00002
1.00026
1.00006
1.00047
1.00166
1.00232
1.03491
2.49744
7.21525
1.43573
1.03626
1.18583
2.44763
11.4774
13.2147
3.38104
1.56275
3.22348
5.37129
12.9422
12.0565
7.13847
7.18234
15.4723
10.979
11.0232
10.0077
14.8932
28.3755
43.6338
23.1946
9.3286
9.02059
33.1273
63.5531
85.0691
55.1137
9.69724
10.6178
77.9012
108.047
133.468
122.221
17.7842
36.7569
163.053
156.789
172.43
203.423
52.9779
67.2334
239.131
185.735
203.71
270.51
80.7737
93.2423
296.883
226.346
247.669
318.289
104.985
116.306
337.269
264.005
279.199
353.938
127.338
138.194
369.347
294.741
309.598
382.544
148.731
159.347
394.753
323.051
335.839
405.478
169.472
179.377
415.625
348.653
361.238
424.593
188.99
199.025
432.307
372.97
382.684
438.934
209.301
219.526
445.194
391.236
398.564
450.579
229.444
239.483
456.229
405.047
411.398
461.298
249.345
259.364
466.482
417.655
423.482
471.18
269.376
279.584
476.043
429.37
434.613
480.253
289.855
300.39
484.385
438.793
442.45
488.394
311.317
322.418
492.286
445.098
446.921
495.998
334.291
346.386
500.239
448.954
450.485
504.176
359.763
373.17
508.35
451.656
453.6
512.511
388.944
404.359
516.399
453.788
452.718
519.591
423.954
442.721
521.206
450.526
446.752
520.717
466.801
488.502
519.376
441.948
435.948
518.357
517.795
538.963
518.203
430.49
422.774
518.102
572.355
589.668
521.626
418.413
411.692
522.092
629.824
628.868
481.473
344.242
458.532
573.188
681.802
720.366
537.393
434.774
408.215
517.241
754.391
786.676
513.066
390.53
374.612
510.968
813.001
833.385
508.901
361.146
345.023
501.744
856.338
871.021
498.911
331.359
318.958
487.977
899.02
861.05
368.161
263.479
405.943
631.054
950.842
973.452
539.808
366.607
338.249
483.016
989.859
1014.18
448.555
311.228
289.733
431.509
1037.87
1059.01
406.242
270.727
239.387
248.594
993.856
1125.49
621.092
360.161
314.53
495.541
1132.72
1126.72
425.558
281.269
236.569
217.043
1012.92
1180.8
620.532
364.981
303.127
484.495
1197.01
1060.96
200.842
252.099
393.392
687.634
1228.95
1458.38
439.552
260.908
704.106
918.557
1134.81
193.102
85.3024
70.608
32.7304
23.5927
79.6943
94.5084
38.1472
31.3167
33.3249
27.0417
78.3071
104.387
41.3304
31.9539
35.9496
52.9324
112.186
97.1852
27.6064
32.8544
36.2124
47.6122
114.819
119.871
57.4258
38.2237
34.8931
29.9936
104.419
121.485
50.2127
38.3833
40.2102
60.2097
125.69
109.92
31.9009
36.7369
40.1261
52.3338
126.861
128.822
62.459
41.9823
38.3599
33.2465
113.148
131
54.0013
41.562
43.4003
64.2078
133.186
117.087
34.6128
39.8037
42.9798
55.5615
134.201
136.699
66.5034
44.9216
41.0797
35.6721
120.347
138.698
57.252
44.2845
46.3578
68.525
140.438
123.513
36.4467
42.3463
45.5979
58.6398
142.261
146.385
70.8606
47.8564
43.8281
37.5262
128.32
147.664
60.5142
47.3383
50.0004
74.0451
152.622
133.555
39.4232
45.8004
49.6755
64.4493
155.839
157.085
83.9448
52.7807
47.0003
49.2018
129.618
151.957
73.602
52.5183
48.6403
42.181
133.302
155.792
64.9788
50.4764
53.4398
77.7175
160.318
141.467
41.9273
49.0071
52.3244
67.537
164.787
170.286
81.9323
55.5456
50.8089
43.43
149.522
175.085
71.6441
55.0711
58.9146
94.2036
178.465
146.541
54.3455
52.0785
58.8962
83.393
172.878
151.41
47.0434
54.3896
57.3103
74.9526
180.695
184.218
98.1618
61.6482
54.532
56.8185
152.585
181.92
86.6049
61.1863
56.3328
48.3801
159.511
187.971
76.4183
59.1376
63.6277
93.7352
196.084
173.453
49.2628
58.1322
63.1974
82.3545
205.744
212.318
111.307
68.6767
60.3154
64.4969
169.619
199.207
104.753
68.7675
61.7596
64.06
167.753
201.178
97.1566
68.9568
63.8794
54.4771
176.388
212.099
87.0848
66.8446
72.4112
114.528
217.772
182.701
66.8237
64.101
72.4553
101.972
216.376
189.475
55.9561
66.978
70.7823
91.5072
228.898
237.238
124.625
77.2988
68.0977
74.0656
192.059
223.683
118.581
77.3347
69.2307
70.8943
186.955
227.563
108.257
77.6663
72.3514
60.7445
200.582
243.469
97.7763
75.7479
83.0653
133.954
253.571
203.207
78.3165
72.6373
82.5909
126.901
238.659
200.749
75.7551
73.6438
82.6247
117.08
244.743
216.342
64.7979
76.3533
80.4905
104.639
262.185
273.41
142.461
88.3202
77.1041
83.0956
219.064
257.815
135.637
87.9565
78.1296
80.6415
217.28
264.569
125.52
88.0833
80.9408
67.3968
232.664
285.095
111.78
85.65
94.88
152.851
296.411
238.534
88.1086
82.8307
95.3124
148.541
283.749
231.782
90.5871
84.1589
95.1031
146.714
276.369
232.351
86.9565
84.8337
95.5239
134.738
283.72
250.537
73.6949
88.1864
93.3251
120.959
306.329
322.998
167.075
103.596
90.112
95.3042
259.604
309.149
161.09
103.885
92.3589
98.5871
252.424
305.34
162.414
104.828
93.5955
100.174
250.06
297.424
159.927
104.921
93.8199
96.4104
252.534
306.957
147.438
104.943
96.9745
81.3916
271.567
334.354
132.911
101.979
112.793
180.848
346.362
278.941
104.651
98.7323
113.393
175.291
334.705
273.243
107.263
100.549
113.849
175.652
327.539
268.276
108.32
101.224
113.269
171.953
318.635
271.703
103.635
101.361
113.216
159.049
333.776
295.551
88.6759
104.722
110.361
143.889
359.576
374.602
195.712
122.018
106.446
112.698
300.519
360.889
189.052
122.366
108.15
114.829
293.081
352.244
189.184
122.512
108.937
117.41
287.975
343.299
186.5
121.982
108.828
111.907
290.897
359.125
172.456
121.728
111.843
94.5944
317.339
389.117
154.885
118.537
131.022
209.635
401.136
321.52
120.963
114.018
131.114
202.746
386.522
313.948
123.865
115.567
130.923
204.315
377.18
307.211
125.56
116.03
130.074
199.96
367.104
310.855
119.72
115.77
129.603
184.77
384.03
339.271
100.769
118.725
126.746
165.531
415.956
433.137
224.651
140.074
121.259
128.377
345.436
410.953
214.913
139.46
122.993
132.494
333.636
399.452
217.012
139.42
123.389
132.594
324.766
392.763
211.941
138.459
123.153
126.958
332.897
405.527
195.108
137.861
126.417
108.212
359.044
437.157
176.552
135.044
149.3
239.87
456.804
363.124
135.315
128.919
148.145
226.303
435.197
353.155
139.266
130.84
147.951
226.504
419.549
343.519
142.184
131.732
147.449
224.318
411.332
347.299
135.259
131.315
146.67
205.842
421.076
370.843
114.224
134.475
142.714
185.573
455.215
470.643
251.279
157.151
136.18
146.032
373.186
446.645
240.21
155.394
137.104
148.093
360.987
428.421
233.25
154.012
137.207
140.271
360.533
441.92
214.505
153.482
141.214
120.714
389.524
474.723
194.644
150.023
165.036
261.048
486.176
386.795
152.521
143.19
163.246
249.273
460.651
373.479
154.322
144.107
161.586
242.073
444.101
375.472
148.909
144.937
161.571
224.594
456.155
401.066
127.916
148.746
156.347
203.605
487.747
498.101
271.226
171.096
149.265
160.879
394.363
463.623
253.838
169.378
150.511
152.976
386.515
473.95
233.27
168.692
155.664
134.601
417.056
504.839
212.83
164.499
179.752
282.232
513.885
408.484
168.533
157.258
178.211
264.638
479.851
401.414
162.419
159.076
177.975
242.832
487.863
429.508
142.155
165.159
173.416
221.683
519.129
530.666
290.319
188.482
166.901
178.606
426.293
497.153
275.326
187.998
169.425
172.88
416.681
498.611
252.8
188.644
176.302
154.684
439.709
523.924
233.164
184.495
197.89
296.811
532.632
442.718
181.949
177.481
199.389
267.258
522.925
456.284
161.908
185.192
196.133
245.919
540.146
546.346
310.636
209.478
189.414
194.849
457.826
542.148
282.331
212.408
198.455
177.314
476.764
563.491
263.346
211.282
225.499
326.618
562.686
471.876
211.135
206.065
231.091
301.299
561.969
496.122
195.79
217.381
230.254
281.266
582.447
588.283
350.05
244.2
224.253
231.311
496.205
581.922
322.193
250.859
237.009
216.058
517.744
596.109
299.771
250.319
261.994
351.395
635.355
558.423
224.769
245.37
266.874
319.534
636.23
649.783
365.557
277.41
263.264
244.801
586.079
663.472
340.055
286.88
297.627
398.08
708.229
621.536
260.65
280.115
309.314
365.543
700.441
736.332
421.748
320.617
304.207
288.796
659.649
739.242
395.546
334.408
347.612
458.652
777.579
686.1
303.546
326.539
354.372
421.395
783.183
845.356
481.052
360.399
336.109
312.526
739.649
831.355
430.029
355.395
362.789
486.598
888.696
779.495
280.436
333.486
344.364
388.587
845.009
857.357
406.71
347.101
361.721
486.253
918.736
793.21
237.653
328.411
338.606
319.965
830.441
766.203
329.306
337.256
352.83
344.607
775.542
683.608
359.277
364.498
387.907
393.441
692.122
638.537
420.698
404.29
421.812
468.397
606.81
557.723
432.69
427.195
428.37
435.697
559.657
532.425
436.103
424.809
424.057
435.784
520.553
503.273
433.32
421.577
420.54
432.322
493.14
479.655
429.903
418.285
417.262
428.725
471.104
460.431
426.333
415.178
414.182
425.182
453.078
444.539
423.015
412.38
411.495
421.935
438.225
431.251
419.926
409.913
409.11
418.96
425.836
420.045
417.095
407.718
406.979
416.201
415.381
410.497
414.497
405.762
405.079
413.678
406.45
402.267
412.136
404.015
403.378
411.391
398.743
395.126
410.025
402.432
401.872
409.303
392.04
388.891
408.059
401.058
400.516
407.446
386.181
383.419
406.305
399.814
399.309
405.749
381.033
378.599
404.75
398.678
398.244
404.204
376.487
374.336
403.29
397.707
397.286
402.835
372.464
370.552
402.035
396.819
396.459
401.493
368.885
367.2
400.936
396.036
395.693
400.393
365.695
364.206
399.883
395.341
395.058
399.313
362.852
361.542
398.983
394.726
394.493
398.408
360.312
359.158
398.122
394.183
393.971
397.6
358.045
357.024
397.343
393.718
393.495
396.9
356.023
355.113
396.645
393.313
393.118
396.232
354.216
353.405
396.028
392.94
392.795
395.6
352.6
351.887
395.384
392.65
392.513
395.065
351.176
350.545
394.84
392.408
392.27
394.666
349.925
349.358
394.375
392.2
392.107
394.233
348.829
348.327
393.966
392.06
392
393.84
347.875
347.435
393.629
391.969
391.959
393.493
347.046
346.661
393.32
391.95
391.943
393.189
346.32
345.985
393.063
391.958
391.977
392.932
345.686
345.398
392.838
392.031
392.077
392.72
345.138
344.898
392.68
392.126
392.219
392.511
344.666
344.476
392.445
392.277
392.371
392.468
344.297
344.125
392.394
392.444
392.565
392.37
343.981
343.842
392.335
392.665
392.767
392.318
343.728
343.62
392.318
392.908
393.032
392.224
343.526
343.469
392.299
393.176
393.312
392.327
343.395
343.351
392.339
393.46
393.609
392.377
343.306
343.278
392.394
393.761
393.93
392.339
343.263
343.262
392.474
394.092
394.244
392.525
343.261
343.27
392.6
394.427
394.57
392.643
343.285
343.309
392.701
394.76
394.93
392.682
343.332
343.389
392.822
395.106
395.287
392.822
343.416
343.486
392.907
395.47
395.645
393.039
343.542
343.597
393.039
395.832
396.007
393.193
343.683
343.734
393.219
396.216
396.384
393.302
343.83
343.902
393.382
396.583
396.76
393.442
343.999
344.096
393.583
396.931
397.152
393.585
344.181
344.305
393.798
397.292
397.522
393.884
344.387
344.503
394.002
397.655
397.881
394.109
344.595
344.705
394.164
398.016
398.265
394.186
344.805
344.933
394.285
398.423
398.598
394.493
345.054
345.161
394.585
398.794
398.947
394.7
345.281
345.392
394.815
399.157
399.309
394.873
345.508
345.622
394.895
399.513
399.677
395.124
345.763
345.863
395.218
399.842
400.021
395.301
345.994
346.098
395.325
400.2
400.379
395.448
346.24
346.362
395.651
400.549
400.699
395.74
346.478
346.599
395.827
400.878
401.046
395.852
346.712
346.848
395.977
401.22
401.38
396.11
346.972
347.089
396.133
401.56
401.723
396.361
347.236
347.341
396.457
401.886
402.048
396.571
347.476
347.588
396.676
402.208
402.354
396.767
347.716
347.835
396.904
402.527
402.658
396.97
347.955
348.08
397.118
402.832
402.96
397.185
348.194
348.322
397.335
403.111
403.279
397.406
348.432
348.561
397.554
403.396
403.57
397.626
348.669
348.796
397.777
403.668
403.842
397.87
348.901
349.021
397.998
403.962
404.092
398.107
349.125
349.236
398.176
404.217
404.346
398.199
349.338
349.468
398.367
404.47
404.595
398.409
349.556
349.691
398.562
404.709
404.833
398.606
349.773
349.904
398.692
404.946
405.059
398.832
350.008
350.115
398.836
405.178
405.288
399.054
350.244
350.337
399.142
405.372
405.484
399.251
350.455
350.551
399.342
405.572
405.672
399.449
350.664
350.762
399.542
405.774
405.859
399.642
350.871
350.971
399.738
405.943
406.008
399.837
351.075
351.174
399.941
406.089
406.173
400.042
351.274
351.37
400.144
406.237
406.298
400.248
351.465
351.556
400.302
406.352
406.412
400.301
351.646
351.759
400.463
406.464
406.518
400.481
351.834
351.956
400.624
406.559
406.61
400.645
352.027
352.154
400.847
406.633
406.662
400.934
352.219
352.325
401
406.682
406.71
401.003
352.394
352.511
401.164
406.72
406.736
401.19
352.569
352.68
401.275
406.737
406.734
401.34
352.751
352.852
401.414
406.73
406.722
401.478
352.931
353.033
401.606
406.69
406.679
401.602
353.099
353.213
401.744
406.632
406.613
401.746
353.271
353.387
401.88
406.553
406.527
401.882
353.444
353.558
401.939
406.455
406.401
402.093
353.64
353.731
402.153
406.32
406.24
402.233
353.815
353.903
402.285
406.153
406.061
402.376
353.992
354.077
402.418
405.952
405.849
402.515
354.169
354.252
402.559
405.717
405.6
402.616
354.346
354.429
402.587
405.478
405.329
402.763
354.548
354.624
402.831
405.189
405.017
402.86
354.73
354.819
402.834
404.877
404.692
403.001
354.949
355.036
403.064
404.509
404.319
403.131
355.157
355.259
403.208
404.133
403.889
403.244
355.378
355.495
403.309
403.695
403.473
403.275
355.612
355.762
403.444
403.233
402.983
403.51
355.88
356.026
403.575
402.727
402.477
403.664
356.16
356.306
403.704
402.158
401.894
403.779
356.455
356.601
403.759
401.594
401.284
403.824
356.774
356.944
403.932
400.973
400.646
403.922
357.112
357.311
404.048
400.305
399.963
404.043
357.486
357.7
404.089
399.623
399.21
404.242
357.905
358.112
404.311
398.871
398.42
404.339
358.324
358.542
404.361
398.039
397.571
404.36
358.752
358.972
404.36
397.155
396.629
404.345
359.189
359.416
404.347
396.181
395.667
404.28
359.638
359.872
404.296
395.133
394.614
404.233
360.095
360.338
404.239
394.027
393.474
404.207
360.567
360.814
404.159
392.84
392.272
404.139
361.054
361.303
404.068
391.603
390.992
404.003
361.553
361.81
403.977
390.286
389.608
403.93
362.063
362.32
403.85
388.891
388.176
403.717
362.579
362.847
403.648
387.406
386.632
403.613
363.108
363.369
403.448
385.823
384.989
403.386
363.636
363.894
403.245
384.126
383.236
403.101
364.158
364.415
402.959
382.313
381.341
402.767
364.669
364.922
402.606
380.367
379.332
402.375
365.165
365.409
402.177
378.282
377.178
401.911
365.639
365.871
401.666
376.047
374.866
401.363
366.084
366.299
401.071
373.651
372.397
400.721
366.493
366.687
400.374
371.083
369.732
399.981
366.859
367.025
399.58
368.311
366.892
399.024
367.171
367.321
398.712
365.359
363.813
398.015
367.422
367.55
397.678
362.181
360.502
396.88
367.608
367.685
396.495
358.75
356.902
395.683
367.708
367.718
395.115
355.023
353.063
394.196
367.706
367.686
393.541
351.02
348.866
392.607
367.61
367.52
391.786
346.653
344.286
390.887
367.373
367.197
389.758
341.898
339.336
388.858
366.996
366.723
387.599
336.677
333.947
386.457
366.443
366.077
385.07
331.006
328.049
383.729
365.699
365.232
382.055
324.868
321.59
380.677
364.755
364.152
378.793
318.086
314.472
377.064
363.534
362.761
374.814
310.54
306.352
372.794
361.933
360.875
369.902
301.756
296.752
367.305
359.727
358.238
363.499
291.165
285.008
359.815
356.606
354.53
354.92
278.06
270.469
349.869
352.23
349.435
343.436
262.06
252.962
337.146
346.404
342.888
329.648
243.039
232.697
322.461
339.219
335.19
314.552
221.766
210.604
307.573
331.167
326.978
300.151
198.705
186.337
294.227
322.969
318.87
288.119
173.604
161.482
283.96
315.181
311.601
280.042
150.206
140.408
277.755
308.398
305.213
274.876
131.26
122.264
272.759
302.311
299.355
269.366
112.68
103.559
267.024
296.684
293.996
263.832
95.8144
89.8294
261.944
291.631
289.217
258.78
84.0442
77.913
256.458
287.06
284.804
252.866
71.8496
67.3119
250.721
282.844
280.844
247.651
64.1259
61.571
245.659
279.155
277.332
241.829
58.5286
55.5523
238.459
275.692
273.857
233.709
52.6641
50.5628
230.114
272.225
270.489
225.711
48.1819
46.0962
222.217
268.985
267.364
217.422
43.6032
41.6662
213.203
265.905
264.324
207.897
39.3107
37.3833
203.549
262.908
261.403
198.142
35.1084
33.3673
193.353
260.049
258.593
187.522
31.3333
29.7091
182.493
257.274
255.901
176.833
27.8041
26.2697
171.599
254.66
253.356
165.555
24.4985
23.1741
160.071
252.145
250.904
154.16
21.6601
20.4773
148.965
249.776
248.614
143.093
19.0315
17.9505
137.654
247.532
246.413
131.718
16.6985
15.7872
126.381
245.357
244.271
120.791
14.712
13.904
115.72
243.238
242.168
110.329
12.9241
12.2223
105.291
241.116
240.013
100.18
11.4147
10.8306
95.6059
238.911
237.77
90.8016
10.0895
9.58955
86.4827
236.635
235.45
82.0514
8.9553
8.51036
78.0809
234.247
232.972
73.8895
7.9474
7.58017
70.1724
231.654
230.254
66.4168
7.09617
6.77581
62.9762
228.775
227.192
59.4648
6.35183
6.07785
56.2584
225.502
223.696
52.9828
5.71382
5.48768
50.0361
221.757
219.679
47.0267
5.18642
4.98723
44.2912
217.447
215.05
41.488
4.73561
4.56367
38.9121
212.485
209.738
36.2856
4.3548
4.22768
33.9829
206.781
203.592
31.6441
4.05194
3.95838
29.6786
200.147
196.447
27.5947
3.81163
3.73931
25.895
192.463
188.201
24.0964
3.62677
3.56226
22.5845
183.64
178.778
21.0392
3.48783
3.42347
19.6571
173.619
168.15
18.3677
3.38225
3.32252
17.1209
162.41
156.365
16.0076
3.29322
3.25096
14.9117
150.083
143.552
13.9433
3.23085
3.20079
13.0054
136.834
129.958
12.1618
3.18463
3.16723
11.3534
122.986
115.981
10.6545
3.15769
3.14548
9.9694
109.005
102.164
9.37664
3.1398
3.13337
8.83946
95.508
89.1847
8.33224
3.12714
3.12246
7.92027
83.2213
77.7715
7.49653
3.11936
3.11865
7.17492
72.8897
68.752
6.80541
3.11876
3.12313
6.53381
64.3984
59.9439
6.17903
3.1253
3.13057
5.94615
55.4573
50.7816
5.61763
3.13294
3.13733
5.40965
46.1545
41.3554
5.11955
3.1389
3.14446
4.93967
36.6205
31.8268
4.67752
3.14676
3.15207
4.52526
27.1212
22.5122
4.28587
3.15412
3.15676
4.13004
18.0962
13.9438
3.95909
3.15735
3.15519
3.86563
10.1643
6.84711
3.81682
3.14268
3.12446
3.8193
4.1154
2.44898
3.89237
3.09538
3.09875
4.02743
1.85516
3.37452
4.38078
3.30302
3.31184
4.25466
6.74628
9.95469
4.33915
3.48402
3.47454
4.46014
16.2848
19.3777
4.6559
3.56661
3.46228
4.73531
30.1288
2.16519
1.2285
1.05079
1.01606
1.00731
1.00478
1.00347
1.00256
1.00216
1.00199
1.00159
1.00136
1.00156
1.00147
1.00097
1.00126
1.00116
0.999235
0.998883
1.00048
1.0054
1.05734
1.5992
5.42149
28.323
134.432
535.853
1116
1861.02
2645.66
3106.43
3211.26
3235.31
3214.67
3157.5
3068.45
2944.49
2780.26
2568.76
2290.52
1933.2
1499.42
1016.03
657.77
541.407
543.722
656.901
778.928
873.426
948.009
1006.15
1050.67
1083.65
1107.42
1123.71
1133.85
1139.04
1140.35
1139.65
1136.98
1134.96
1132.31
1131.64
1130.76
1126.58
1128.11
1134.98
1140.17
1146.67
1153.52
1160.69
1168.22
1176.01
1184.09
1192.37
1200.8
1209.32
1217.87
1226.39
1234.85
1243.22
1251.49
1259.64
1267.66
1275.5
1283.12
1290.47
1297.52
1304.19
1310.47
1316.32
1321.77
1326.84
1331.59
1336.1
1340.48
1344.82
1349.25
1353.88
1358.82
1364.15
1369.97
1376.33
1383.28
1390.83
1398.97
1407.67
1416.89
1426.59
1436.71
1447.2
1458.03
1469.13
1480.45
1491.96
1503.6
1515.34
1527.15
1538.98
1550.81
1562.61
1574.4
1586.2
1598.09
1610.27
1623.34
1637.42
1651.93
1666.7
1681.77
1697.13
1713.19
1730.26
1748.1
1766.83
1786.45
1806.88
1828.16
1850.26
1873.11
1896.68
1920.9
1945.7
1971.01
1996.48
2020.37
2042.82
2065.44
2088.44
2112.04
2134.34
2149.32
2155.23
2145.61
2088.55
1960.6
1842.81
1762.06
1715.14
1691.59
1680.41
1678.74
1686.93
1698.57
1711.52
1724.89
1738.8
1752.88
1771.31
1792.54
1814.48
1838.86
1864.28
1891.36
1919.66
1949.28
1980.1
2012.1
2045.2
2079.37
2114.52
2150.6
2187.53
2225.23
2263.59
2302.48
2341.82
2381.42
2421.13
2460.74
2500.03
2538.76
2576.63
2613.34
2648.51
2681.75
2712.62
2740.64
2765.32
2786.12
2802.46
2812.89
2817.33
2817.96
2810.93
2795.85
2772.71
2740.99
2700.22
2650.05
2590.21
2520.54
2441.01
2351.71
2252.9
2144.95
2028.37
1903.8
1771.95
1633.74
1490.47
1343.79
1195.24
1045.66
896.358
750.574
612.4
484.854
370.99
274.755
199.766
146.555
111.818
90.123
76.484
67.5458
61.3676
56.8743
53.4641
50.782
48.6036
46.7788
45.2045
43.8091
42.5426
41.37
40.2667
39.2151
38.2025
37.2197
36.2603
35.3193
34.3934
33.4799
32.5774
31.6864
30.8093
29.9465
29.0972
28.2566
27.4146
26.5641
25.7063
24.8466
23.9904
23.1421
22.3055
21.4841
20.6797
19.8931
19.1239
18.3718
17.6377
16.923
16.2282
15.553
14.8964
14.2573
13.634
13.0243
12.4255
11.8355
11.2541
10.6815
10.1192
9.56966
9.03443
8.51495
8.01255
7.52874
7.06545
6.6253
6.21205
5.83177
5.49397
5.21081
4.9951
4.86409
4.81835
4.83595
4.91026
4.99731
5.05704
5.05398
5.0445
5.0256
4.99931
4.9735
4.95393
4.94145
4.934
4.92925
4.92559
4.92247
4.91961
4.91649
4.91242
4.9068
4.89879
4.88759
4.8728
4.85422
4.83098
4.80136
4.76358
4.71733
4.66543
4.61404
4.56923
4.53324
4.50512
4.48305
4.4656
4.4516
4.4399
4.42958
4.41781
4.38977
4.31988
4.24166
4.19128
4.16319
4.14697
4.13807
4.13563
4.13791
4.14313
4.15174
4.16446
4.18092
4.20031
4.2177
4.22794
4.23229
4.23471
4.23699
4.23855
4.23834
4.237
4.23631
4.2379
4.24078
4.24248
4.24217
4.24024
4.23685
4.23159
4.2241
4.21524
4.21039
4.20997
4.21247
4.21757
4.2247
4.23175
4.23874
4.24535
4.25082
4.25852
4.27245
4.2913
4.31304
4.33769
4.36259
4.38751
4.41276
4.44016
4.47159
4.50628
4.54312
4.58206
4.62417
4.67128
4.72469
4.78186
4.83462
4.87248
4.88622
4.86924
4.81996
4.75377
4.72621
4.34259
4.04755
3.47727
3.04272
2.81797
2.65025
2.55874
2.49633
2.49028
2.49714
2.55135
2.5765
2.5855
2.56637
2.51305
2.37598
2.29154
2.1799
2.12823
2.06425
2.04592
2.02148
2.02162
2.01961
2.04307
2.08372
2.17779
2.2287
2.30228
2.33316
2.37518
2.38491
2.40005
2.39645
2.39456
2.36344
2.34675
2.29947
2.28529
2.24577
2.23689
2.20867
2.2064
2.19356
2.19714
2.19635
2.21775
2.23415
2.28987
2.31931
2.39562
2.43008
2.51511
2.55268
2.64452
2.6842
2.77988
2.82013
2.9177
2.95841
3.05806
3.09862
3.19847
3.23759
3.33538
3.37216
3.46612
3.49966
3.58864
3.61926
3.70441
3.7331
3.81631
3.84338
3.92469
3.94932
4.02567
4.04592
4.11431
4.12972
4.18987
4.19996
4.24955
4.25249
4.28706
4.28411
4.30452
4.29509
4.30251
4.27946
4.27951
4.23822
4.22903
4.17193
4.15683
4.08976
4.06968
3.99304
3.9666
3.87587
3.83928
3.72922
3.68471
3.56246
3.51642
3.39734
3.36109
3.2683
3.25059
3.19943
3.19975
3.18499
3.202
3.21205
3.26849
3.29359
3.37249
3.40651
3.50359
3.54303
3.6459
3.68203
3.77795
3.80853
3.89501
3.92003
3.99638
4.01535
4.08113
4.09406