/*--------------------------------*- C++ -*----------------------------------*\
| =========                 |                                                 |
| \\      /  F ield         | OpenFOAM: The Open Source CFD Toolbox           |
|  \\    /   O peration     | Version:  v2006                                 |
|   \\  /    A nd           | Website:  www.openfoam.com                      |
|    \\/     M anipulation  |                                                 |
\*---------------------------------------------------------------------------*/
FoamFile
{
    version     2.0;
    format      ascii;
    class       volScalarField;
    location    "0.007";
    object      turbulenceProperties:I;
}
// * * * * * * * * * * * * * * * * * * * * * * * * * * * * * * * * * * * * * //

dimensions      [0 0 0 0 0 0 0];


internalField   nonuniform List<scalar> 
31566
(
0.150641
0.150591
0.150197
0.150289
0.150418
0.150549
0.150679
0.150796
0.15094
0.151104
0.151301
0.151519
0.151759
0.152015
0.152283
0.152562
0.152846
0.153129
0.153397
0.153648
0.153872
0.154062
0.154211
0.154315
0.154376
0.154401
0.154395
0.154357
0.154278
0.154153
0.153988
0.153783
0.153539
0.153258
0.152937
0.152561
0.152091
0.151474
0.150827
0.150358
0.150121
0.150035
0.150028
0.150028
0.150026
0.150024
0.150024
0.150057
0.150143
0.150248
0.150359
0.150487
0.150601
0.150674
0.150708
0.150711
0.150685
0.150638
0.150601
0.150596
0.150636
0.150703
0.150764
0.150801
0.150789
0.150641
0.150261
0.150028
0.150002
0.150014
0.150044
0.150075
0.150089
0.150077
0.150068
0.150058
0.150032
0.150017
0.150034
0.150033
0.150071
0.150171
0.150311
0.150481
0.150669
0.150843
0.151025
0.151292
0.151674
0.152172
0.152761
0.153392
0.154056
0.154756
0.155483
0.156175
0.156769
0.157232
0.157537
0.1571
0.155112
0.155656
0.151677
0.15517
0.157143
0.158555
0.159535
0.160249
0.160954
0.158842
0.167306
0.163965
0.168386
0.166967
0.159586
0.170858
0.167586
0.139677
0.155197
0.13476
0.117624
0.16689
0.168319
0.105178
0.120496
0.111732
0.0975586
0.169901
0.171681
0.0923887
0.106085
0.101024
0.0879662
0.173674
0.175766
0.0854691
0.0976974
0.0957592
0.0852936
0.177561
0.179045
0.0865058
0.0958861
0.0965186
0.0881581
0.180209
0.181077
0.0903052
0.0983866
0.0995235
0.0915157
0.181607
0.181849
0.0919115
0.100066
0.0995773
0.0907871
0.18179
0.181532
0.0898109
0.0977898
0.0947543
0.0892408
0.181031
0.180364
0.089379
0.0932402
0.0917111
0.0897798
0.179435
0.178359
0.0908177
0.0914259
0.091127
0.0916165
0.177084
0.175789
0.0926558
0.0913406
0.0914908
0.0933375
0.174408
0.173084
0.0946565
0.092084
0.0926519
0.0959084
0.171748
0.170408
0.0977723
0.0942911
0.0957291
0.0990065
0.169001
0.167555
0.100298
0.0980021
0.0990428
0.100906
0.166026
0.164476
0.101371
0.100414
0.100773
0.101339
0.16284
0.161223
0.101162
0.101263
0.101118
0.100766
0.159514
0.15787
0.100185
0.101015
0.100532
0.0990596
0.156176
0.154605
0.098264
0.100036
0.0987931
0.0968599
0.152929
0.151372
0.0960437
0.0981021
0.0967715
0.0948537
0.149832
0.148439
0.0941758
0.0962178
0.0951778
0.0933247
0.147103
0.1459
0.0928658
0.0948003
0.0941204
0.0923764
0.14476
0.143735
0.0921238
0.0939386
0.0936266
0.0919061
0.142722
0.141785
0.0918799
0.0935715
0.0935509
0.0919488
0.140908
0.140242
0.0925296
0.0940573
0.0944738
0.0928832
0.13972
0.139344
0.093865
0.0956602
0.096288
0.0943417
0.138994
0.138795
0.0954897
0.097764
0.0984949
0.0960563
0.138636
0.138672
0.0973386
0.100128
0.100956
0.0980066
0.138689
0.138843
0.0993935
0.102722
0.103614
0.100107
0.138977
0.139246
0.101507
0.105442
0.106367
0.102264
0.139484
0.139839
0.103717
0.108231
0.109192
0.104514
0.14014
0.140536
0.105981
0.111097
0.112068
0.106781
0.140878
0.141283
0.108211
0.113958
0.114912
0.109002
0.141645
0.142063
0.110378
0.116757
0.117695
0.111164
0.142455
0.142898
0.112488
0.119482
0.120401
0.113276
0.143317
0.143797
0.114565
0.122133
0.123062
0.115389
0.144256
0.144812
0.116701
0.124796
0.125762
0.117579
0.14532
0.145965
0.118935
0.127536
0.128548
0.119869
0.146517
0.147212
0.121233
0.130351
0.131373
0.122178
0.147803
0.148459
0.123456
0.133121
0.134106
0.124366
0.149021
0.149629
0.125491
0.13575
0.136694
0.126355
0.150142
0.150667
0.127323
0.138226
0.139097
0.128133
0.151053
0.151427
0.128981
0.14042
0.141231
0.129631
0.151664
0.151894
0.130354
0.142342
0.143022
0.130724
0.151856
0.15183
0.131323
0.143935
0.144366
0.131409
0.151453
0.151109
0.131831
0.145128
0.145226
0.131595
0.150372
0.149771
0.131858
0.14582
0.145596
0.131299
0.148774
0.148036
0.131459
0.14608
0.145663
0.130719
0.146947
0.146282
0.130905
0.146177
0.145718
0.130093
0.145293
0.144782
0.13035
0.146307
0.145824
0.129494
0.143889
0.14354
0.129729
0.146421
0.145687
0.128615
0.142735
0.142485
0.128723
0.146167
0.145113
0.127386
0.141816
0.141696
0.127454
0.145517
0.14429
0.126159
0.141261
0.141286
0.126153
0.144676
0.143609
0.125321
0.141206
0.141599
0.12577
0.144245
0.143885
0.125717
0.141881
0.142292
0.126371
0.144748
0.145174
0.126941
0.142703
0.143191
0.127873
0.146149
0.146968
0.128716
0.143572
0.144129
0.130231
0.148335
0.149405
0.131202
0.144444
0.145091
0.133151
0.151429
0.15256
0.134137
0.145415
0.14615
0.136164
0.154779
0.155895
0.137137
0.146492
0.14729
0.139263
0.158272
0.159299
0.140126
0.147682
0.14849
0.142004
0.161496
0.162313
0.142716
0.148916
0.149791
0.144396
0.16421
0.164804
0.144946
0.150241
0.151053
0.146354
0.166357
0.166702
0.146715
0.151468
0.152174
0.147817
0.167868
0.167907
0.147937
0.152461
0.153024
0.148696
0.168658
0.168429
0.148597
0.153244
0.153711
0.149057
0.168797
0.16827
0.148733
0.153906
0.154251
0.148744
0.168084
0.167255
0.148137
0.154361
0.154532
0.147681
0.166562
0.165355
0.146719
0.154458
0.154496
0.1458
0.164197
0.162403
0.14445
0.154343
0.154143
0.143028
0.160721
0.158049
0.140873
0.153671
0.153178
0.139083
0.155958
0.152576
0.136279
0.152324
0.151608
0.134066
0.150045
0.145956
0.130498
0.150564
0.149566
0.127802
0.143002
0.138158
0.123361
0.148074
0.146801
0.120255
0.134849
0.129303
0.114989
0.144983
0.143354
0.111232
0.12555
0.119213
0.105453
0.141593
0.140229
0.101269
0.114972
0.10822
0.095787
0.138761
0.137635
0.0920216
0.10391
0.0972316
0.0873339
0.136591
0.135782
0.0839668
0.0924525
0.0862518
0.0806372
0.135278
0.134762
0.0783301
0.0817596
0.0764007
0.0762632
0.134087
0.133355
0.0749972
0.0726871
0.0688551
0.0740381
0.132597
0.132168
0.0734466
0.0660732
0.0634894
0.0730751
0.131842
0.131413
0.0731793
0.0620542
0.0608957
0.0734309
0.131075
0.130638
0.0740547
0.0602262
0.059663
0.0741868
0.129908
0.129393
0.0747966
0.0592672
0.0590438
0.0750574
0.128904
0.128253
0.0757548
0.0589582
0.0590954
0.0762041
0.127588
0.12735
0.0770266
0.0594006
0.059723
0.0777093
0.12754
0.127922
0.0787083
0.060129
0.060734
0.0795563
0.128354
0.12883
0.0805697
0.0611726
0.0618277
0.0814444
0.129266
0.129607
0.082464
0.062375
0.063116
0.0833528
0.129993
0.130478
0.0844658
0.0637597
0.0645999
0.0854562
0.130956
0.13138
0.0865463
0.0653162
0.0662599
0.0874713
0.131717
0.131915
0.0882152
0.0671992
0.0680506
0.088944
0.132097
0.132552
0.089921
0.0688672
0.0698894
0.0909895
0.133344
0.134045
0.0918296
0.0706997
0.0714148
0.0923869
0.135273
0.136329
0.0927376
0.071914
0.0726693
0.0931621
0.137593
0.138415
0.0929366
0.0727621
0.072556
0.0922409
0.139359
0.139722
0.0910316
0.0718135
0.0707407
0.0894004
0.139961
0.139707
0.0870827
0.0689309
0.066769
0.0846608
0.139306
0.138837
0.0819148
0.0643822
0.0619133
0.0787808
0.138244
0.137912
0.0759938
0.0601799
0.0586768
0.0732785
0.137423
0.137231
0.0710107
0.0579571
0.0595436
0.0691873
0.137009
0.137091
0.0684972
0.0652219
0.0813277
0.0702302
0.137273
0.137151
0.0743475
0.0959327
0.122091
0.0868889
0.138506
0.139252
0.0969424
0.138631
0.164593
0.118082
0.142878
0.144744
0.128169
0.177053
0.194263
0.144268
0.148717
0.150005
0.14943
0.201452
0.212204
0.158133
0.152332
0.15316
0.160616
0.21643
0.222926
0.165123
0.154251
0.154729
0.165854
0.224773
0.228131
0.167656
0.154915
0.155067
0.16688
0.228014
0.230522
0.167866
0.154791
0.154827
0.166256
0.229169
0.231461
0.167018
0.15444
0.15433
0.164984
0.229228
0.231662
0.16582
0.153793
0.153328
0.163394
0.228341
0.230941
0.164344
0.15267
0.151697
0.161472
0.226279
0.228727
0.162342
0.151201
0.149797
0.159117
0.222996
0.224433
0.159352
0.149286
0.147735
0.155693
0.217978
0.217725
0.154887
0.147177
0.146024
0.150875
0.210714
0.208569
0.148709
0.145548
0.145357
0.145219
0.202349
0.199852
0.143275
0.145968
0.147498
0.139823
0.193441
0.191526
0.138416
0.150377
0.154241
0.136617
0.185462
0.181658
0.133078
0.160316
0.167454
0.134529
0.183204
0.18068
0.132629
0.176609
0.324844
0.845868
0.429134
0.096207
0.0706552
0.037943
0.0313642
0.0226357
0.0205172
0.0170359
0.0158902
0.013873
0.0130791
0.011735
0.0111366
0.0101375
0.00964908
0.00885395
0.00843763
0.0077902
0.00743377
0.00689758
0.0065884
0.00613581
0.00586397
0.00548104
0.00524162
0.00491367
0.00470262
0.00441636
0.00423114
0.00397812
0.00381765
0.00353762
0.00336919
0.00225885
0.00205663
0.00205554
0.0020586
0.00205936
0.00205954
0.00205974
0.00205981
0.00205978
0.00205956
0.00205907
0.00205862
0.00205789
0.00205655
0.00205666
0.0020541
0.00230498
0.00329515
0.00774867
0.0127407
0.0165327
0.0424749
0.0757141
0.0199419
0.0131562
0.0143981
0.0270138
0.102971
0.123392
0.0333862
0.0170016
0.0249194
0.0441138
0.135855
0.142897
0.052829
0.0374563
0.051602
0.0673028
0.145808
0.149762
0.080109
0.0635388
0.071131
0.101033
0.157039
0.168771
0.119883
0.0774573
0.0816724
0.145848
0.192799
0.250546
0.155048
0.0846455
0.0876108
0.168852
0.329579
0.320954
0.174078
0.0897575
0.0899787
0.177048
0.28441
0.244123
0.176245
0.0899107
0.0910358
0.17356
0.216395
0.196026
0.169677
0.0931234
0.0947456
0.165066
0.180681
0.169006
0.160684
0.0953596
0.0957396
0.156356
0.159808
0.152469
0.152418
0.0961875
0.0964896
0.14851
0.146357
0.141364
0.144943
0.0965786
0.0965988
0.141606
0.137213
0.133839
0.138691
0.0966906
0.0967107
0.135812
0.130734
0.127768
0.132787
0.0964967
0.0959067
0.129708
0.125036
0.122663
0.126833
0.0951969
0.0943875
0.124087
0.120505
0.118607
0.121581
0.093512
0.0926213
0.119137
0.116836
0.115219
0.116852
0.091735
0.0907842
0.114599
0.113689
0.112252
0.112451
0.0898414
0.0888051
0.110292
0.11086
0.109523
0.108178
0.0876562
0.0864285
0.106083
0.108238
0.106929
0.10399
0.0850758
0.0836073
0.10187
0.10567
0.104327
0.0997727
0.0821098
0.0804997
0.0975891
0.103027
0.10152
0.0953421
0.0787741
0.077008
0.0929896
0.100076
0.0982317
0.0904227
0.0749727
0.0726782
0.0875584
0.0963454
0.0939017
0.084393
0.0701814
0.0675439
0.081013
0.0917642
0.0896148
0.0777805
0.0649209
0.0624463
0.0749622
0.0885802
0.0872512
0.0725384
0.0602178
0.0580777
0.0704904
0.0873932
0.0864958
0.0689049
0.0563039
0.0544256
0.0672487
0.0873029
0.0838967
0.0621607
0.0479348
0.0576063
0.0697934
0.0864769
0.0858681
0.0645335
0.0538902
0.0511891
0.0619694
0.0867191
0.0880098
0.0609149
0.0494663
0.0478101
0.0598719
0.0883949
0.0877181
0.0585057
0.0460654
0.0440688
0.0567875
0.0869727
0.0858067
0.0554245
0.0423088
0.0406892
0.0537079
0.085303
0.0808409
0.0452196
0.0359128
0.0459044
0.0608558
0.0842019
0.0823236
0.0542832
0.0423995
0.039937
0.0501895
0.0813693
0.0809886
0.0474276
0.0376292
0.0356256
0.0455997
0.0805239
0.079684
0.0433488
0.0337813
0.0308332
0.0328084
0.0746057
0.0780839
0.0526708
0.0383562
0.0346708
0.0451301
0.0750019
0.0725994
0.0406277
0.0319675
0.0283901
0.0279492
0.0662534
0.0700116
0.0474869
0.0353739
0.0311129
0.0401425
0.06731
0.0610142
0.0249401
0.0276002
0.0353443
0.0474489
0.0659372
0.0784601
0.0407378
0.0302021
0.0787016
0.103019
0.14377
0.0605589
0.0433328
0.0435282
0.090149
0.0757952
0.158451
0.0952225
0.0574301
0.0526453
0.057126
0.0524876
0.105117
0.115296
0.0617267
0.0525345
0.0551489
0.069665
0.117399
0.105322
0.0473731
0.0501431
0.0521969
0.0624248
0.115532
0.115764
0.0689028
0.053607
0.0490646
0.0471336
0.104384
0.113587
0.0614669
0.0514407
0.0528735
0.0679577
0.114036
0.103308
0.0470457
0.0486578
0.0510407
0.0608983
0.112032
0.111853
0.0673544
0.0525602
0.0484952
0.0468605
0.101832
0.110824
0.0604204
0.0507347
0.0522315
0.0667178
0.110932
0.101193
0.0468257
0.0483812
0.0505725
0.0600433
0.109323
0.109681
0.0665228
0.0520859
0.0481864
0.0465938
0.100112
0.108404
0.0596867
0.050309
0.0518681
0.0661483
0.108466
0.0990535
0.0461748
0.0479961
0.0500987
0.0592691
0.107281
0.108465
0.0659667
0.0516976
0.0479226
0.0459568
0.0988034
0.106883
0.0590332
0.0500864
0.0518324
0.0660629
0.108146
0.0983437
0.0461629
0.0480705
0.0503863
0.0597624
0.10739
0.107126
0.0691698
0.0523891
0.047868
0.0507569
0.093825
0.102865
0.0633148
0.0511911
0.047911
0.0462049
0.0944389
0.103069
0.0578288
0.0489783
0.050696
0.0638476
0.103742
0.0953291
0.0451321
0.0471644
0.0489134
0.0577729
0.10372
0.104862
0.064333
0.0507452
0.0471851
0.0450658
0.0960025
0.104757
0.0584495
0.0493471
0.0513832
0.0677576
0.104803
0.0916538
0.0494647
0.0468458
0.05038
0.0624748
0.100733
0.0924428
0.0453081
0.0471724
0.0485798
0.0576546
0.101925
0.102005
0.0666679
0.0507433
0.046363
0.0488724
0.0900543
0.0993989
0.0612727
0.0495173
0.0462223
0.0441469
0.0908465
0.0995049
0.0559736
0.0475321
0.0497027
0.0628408
0.101946
0.0939531
0.0439765
0.0463019
0.0483841
0.0572242
0.1028
0.10319
0.0671798
0.0507778
0.0463131
0.0492929
0.0892234
0.0976712
0.0639554
0.0499542
0.0460765
0.0483228
0.0870159
0.0960773
0.060366
0.0490837
0.0461388
0.0437619
0.088168
0.0982363
0.0559384
0.0474453
0.0497028
0.0648898
0.0995396
0.0880862
0.047774
0.0454461
0.0486537
0.0597393
0.0960274
0.0880245
0.0428517
0.0456972
0.0472506
0.0554502
0.0982849
0.100142
0.0655014
0.0497154
0.0453608
0.0486465
0.0868632
0.0938009
0.0623501
0.0486833
0.044967
0.0467219
0.083577
0.093689
0.0587553
0.0481279
0.0454951
0.0427998
0.086598
0.0965277
0.0547087
0.0466731
0.0491291
0.0645501
0.0977301
0.0847406
0.0477145
0.0447803
0.0481625
0.0616717
0.0924534
0.0827878
0.0462288
0.0444137
0.0474464
0.0583828
0.0927618
0.085632
0.0421733
0.0446425
0.0459081
0.0538769
0.0949528
0.0966435
0.0634876
0.0483938
0.044198
0.0470213
0.0840559
0.091933
0.0610234
0.047621
0.0438138
0.0456365
0.0822554
0.0915786
0.0576793
0.0468473
0.0439674
0.0410396
0.0842537
0.0943747
0.0532684
0.0453736
0.0481333
0.0630625
0.0962543
0.084083
0.0464951
0.0440241
0.0476053
0.0612542
0.0923401
0.0810071
0.0463573
0.0436515
0.0467336
0.0597496
0.0890222
0.0798314
0.0447735
0.0432384
0.0463135
0.0566516
0.0895481
0.0829107
0.0408417
0.0436784
0.0450368
0.0526722
0.0925742
0.0949018
0.0625083
0.0477405
0.0435528
0.0458187
0.0827413
0.0907929
0.0604273
0.0471364
0.0435218
0.0459547
0.0799089
0.0888075
0.0598527
0.0467701
0.043346
0.0458112
0.0786026
0.0864811
0.058643
0.0462263
0.042808
0.0443281
0.0778645
0.0867447
0.0555515
0.0456035
0.0430704
0.040269
0.0803681
0.0902421
0.0518473
0.0443071
0.0469432
0.0612009
0.0919368
0.0805332
0.0453158
0.0430746
0.0465177
0.059438
0.0888094
0.0781753
0.0452285
0.0429112
0.046019
0.0586556
0.0862656
0.0764396
0.0449446
0.042589
0.0453909
0.0573941
0.0840939
0.0761339
0.0434937
0.0421501
0.0449054
0.0546485
0.0855219
0.0793578
0.0398788
0.0424784
0.0437053
0.0511199
0.088294
0.0900667
0.060193
0.0462422
0.0423729
0.044479
0.0787103
0.0868701
0.0584189
0.045808
0.0422989
0.0444306
0.0765957
0.0848414
0.0578688
0.0454001
0.0420521
0.0445246
0.0751145
0.0827769
0.0568549
0.0448354
0.0416055
0.0430154
0.074729
0.0841619
0.0541574
0.0443619
0.0418565
0.0392229
0.0780636
0.0874182
0.0505602
0.0432242
0.0457429
0.0594412
0.0887156
0.0775637
0.0440171
0.0419031
0.0453122
0.0577931
0.0857042
0.0755857
0.0441086
0.0417924
0.0448447
0.0574432
0.0835803
0.0739356
0.0440027
0.0414976
0.0442822
0.0562901
0.0816602
0.0737552
0.0425739
0.0410789
0.0438206
0.0536399
0.0830773
0.0770854
0.0387562
0.041304
0.0428191
0.0500382
0.0862901
0.0882206
0.0589168
0.0453254
0.0414412
0.0434511
0.0769838
0.0845499
0.0570124
0.0448151
0.0413686
0.0437421
0.074563
0.0822419
0.0567456
0.0444073
0.0411156
0.0433918
0.0727793
0.0811231
0.0556666
0.0439333
0.0407886
0.0421769
0.0734185
0.0819543
0.0530013
0.0434964
0.0410259
0.0386378
0.0761133
0.0847096
0.0496844
0.0425311
0.0450479
0.0585574
0.086846
0.0757985
0.0429453
0.0411848
0.0445685
0.0563887
0.0837824
0.0740744
0.0433182
0.0412513
0.0442307
0.0560123
0.0814521
0.0722493
0.0434329
0.0410766
0.0438073
0.0552716
0.079816
0.0721308
0.0420445
0.0407194
0.0433848
0.0525724
0.0802565
0.0743922
0.0383662
0.0409414
0.0423655
0.049329
0.0834434
0.0851533
0.0580748
0.0447958
0.0410167
0.0432594
0.0742511
0.0819258
0.0562372
0.0441704
0.0408386
0.0431859
0.0721727
0.079303
0.0549472
0.0436602
0.0406158
0.0417614
0.0716123
0.080337
0.0523945
0.0433391
0.0409987
0.0385404
0.0745607
0.0832909
0.0493575
0.0424572
0.0448792
0.0578278
0.0844744
0.0738183
0.0432025
0.0411252
0.0442902
0.0559938
0.0812077
0.0717399
0.0431257
0.0409759
0.0438071
0.0548317
0.0790873
0.0716822
0.0422004
0.0409188
0.0435889
0.0525811
0.0800536
0.0741623
0.0388874
0.0412196
0.0423896
0.0493757
0.0825149
0.0833629
0.0575511
0.0446398
0.0410324
0.0433408
0.0726667
0.0794049
0.0552466
0.0441278
0.0410086
0.0420473
0.0714428
0.0803503
0.0527418
0.043828
0.0415084
0.0392713
0.0744829
0.0826805
0.0497203
0.0428215
0.0450662
0.0578367
0.083453
0.0728594
0.043672
0.0414644
0.0445552
0.0555151
0.0795068
0.0716414
0.0426446
0.0415031
0.0443368
0.0529897
0.0802072
0.0744437
0.0397487
0.0421212
0.0433068
0.0499747
0.0826489
0.0835268
0.0577051
0.0454156
0.0420175
0.0442243
0.0732442
0.0794832
0.0556187
0.0449695
0.0421139
0.0432342
0.0716988
0.0797472
0.0531897
0.0449139
0.0428325
0.0408178
0.0741295
0.0816241
0.0504357
0.0439588
0.0457881
0.0574221
0.0823052
0.0734952
0.0439247
0.042631
0.0455317
0.0538647
0.0802711
0.0739941
0.0410309
0.043217
0.0447612
0.0511123
0.0815262
0.082657
0.0582469
0.0466613
0.0436157
0.0450831
0.0742825
0.0813167
0.0548658
0.0464853
0.0441442
0.0424428
0.074996
0.0820549
0.0520928
0.0457367
0.0476685
0.0587594
0.0822678
0.0741559
0.0462273
0.044825
0.047843
0.0560017
0.0819044
0.075923
0.0441074
0.0455649
0.0468579
0.0529397
0.0823419
0.0821251
0.0594142
0.0484785
0.0456863
0.0472182
0.07413
0.0815902
0.0567144
0.048813
0.0466596
0.0454621
0.076255
0.0818975
0.0535559
0.047852
0.0489885
0.058111
0.0839379
0.0773122
0.0452241
0.0464625
0.0486828
0.0543545
0.0829783
0.0845781
0.0589426
0.0500348
0.0478486
0.0471196
0.0794575
0.0841085
0.0553929
0.0497312
0.0505979
0.05991
0.0858047
0.0787431
0.0470822
0.0480253
0.050541
0.0560327
0.0838049
0.0864216
0.0607029
0.051614
0.0491708
0.0488523
0.0804116
0.0842272
0.056901
0.0512487
0.0521896
0.0612787
0.0851661
0.078779
0.0484389
0.0494732
0.051152
0.0569388
0.0842972
0.0863794
0.0604096
0.0511283
0.0480125
0.0469421
0.0785058
0.0826859
0.0548231
0.0490064
0.0493843
0.0584515
0.0855408
0.078875
0.043028
0.0463032
0.0469707
0.0506272
0.0817389
0.0821289
0.0518537
0.047168
0.048261
0.0571045
0.0856566
0.0788116
0.0388224
0.0452268
0.0464433
0.0456547
0.0811072
0.0784785
0.0467695
0.0467864
0.0485361
0.0485499
0.079588
0.0759921
0.050873
0.0505579
0.0538622
0.0551486
0.0793466
0.0794904
0.0596227
0.0572042
0.0612165
0.0671699
0.0837787
0.0835046
0.0647363
0.062227
0.0652912
0.0684052
0.0893577
0.0905146
0.0706239
0.0669445
0.0685863
0.0725582
0.0925243
0.093499
0.0740289
0.0698467
0.0710668
0.0754526
0.0948288
0.0955247
0.076589
0.0720387
0.0730054
0.0777114
0.0964978
0.0970065
0.0786038
0.0737845
0.074577
0.0795217
0.0977244
0.0981575
0.0802561
0.0752207
0.0758842
0.0810192
0.0987042
0.099063
0.0816261
0.0764245
0.0769916
0.0822778
0.0994986
0.0998017
0.0827866
0.0774541
0.0779424
0.0833464
0.100158
0.100418
0.0837807
0.0783447
0.0787689
0.0842672
0.100716
0.100939
0.0846432
0.0791227
0.0794937
0.0850696
0.101191
0.101384
0.0854009
0.0798056
0.0801341
0.0857712
0.101599
0.101767
0.0860609
0.0804134
0.0807021
0.0863942
0.101955
0.102102
0.0866487
0.0809539
0.0812102
0.0869456
0.102266
0.102395
0.0871754
0.0814352
0.0816666
0.0874358
0.102539
0.102654
0.0876395
0.0818718
0.0820771
0.0878776
0.102782
0.102883
0.0880631
0.0822641
0.0824504
0.0882636
0.102998
0.103091
0.0884488
0.08262
0.0827862
0.0886237
0.103191
0.103276
0.0887899
0.0829426
0.0830961
0.0889391
0.103364
0.103443
0.0891043
0.0832363
0.0833777
0.0892325
0.10352
0.103595
0.0893834
0.0835041
0.0836327
0.0894995
0.103663
0.103732
0.0896363
0.0837503
0.0838632
0.0897445
0.103792
0.103855
0.0898657
0.0839748
0.0840783
0.0899621
0.103909
0.103967
0.0900748
0.084178
0.0842748
0.0901559
0.104016
0.104069
0.0902545
0.0843666
0.0844543
0.0903351
0.104114
0.104162
0.0904204
0.0845404
0.0846183
0.0905054
0.104203
0.104245
0.0905723
0.0846987
0.0847724
0.0906504
0.104285
0.104322
0.0907099
0.0848467
0.0849157
0.0907799
0.104359
0.104392
0.0908359
0.0849841
0.085051
0.0908965
0.104426
0.104455
0.0909488
0.0851146
0.0851748
0.0910023
0.104486
0.104513
0.0910518
0.0852346
0.085291
0.0910977
0.104541
0.104567
0.0911434
0.0853488
0.0854027
0.0911842
0.104592
0.104616
0.0912299
0.0854542
0.0855078
0.0912584
0.104639
0.104664
0.0912956
0.0855556
0.085605
0.0913403
0.104685
0.104705
0.0913715
0.0856492
0.0856971
0.0914052
0.104726
0.104745
0.0914356
0.0857404
0.0857816
0.0914661
0.104764
0.104781
0.0914954
0.0858255
0.0858658
0.0915125
0.104799
0.104818
0.0915469
0.0859066
0.0859448
0.0915741
0.104832
0.104848
0.0915975
0.0859827
0.0860191
0.0916221
0.104863
0.104877
0.0916425
0.0860545
0.0860905
0.0916534
0.104893
0.104906
0.0916846
0.0861246
0.086156
0.0917051
0.104919
0.104931
0.0917261
0.0861899
0.0862178
0.0917427
0.104943
0.104954
0.0917591
0.0862501
0.0862792
0.0917659
0.104964
0.104976
0.0917898
0.0863077
0.0863362
0.0917966
0.104985
0.104998
0.0918123
0.0863639
0.0863898
0.0918322
0.105005
0.105014
0.0918361
0.0864164
0.0864406
0.0918568
0.105025
0.105031
0.0918621
0.0864678
0.0864898
0.0918732
0.105042
0.105048
0.0918831
0.0865148
0.0865366
0.0918901
0.105058
0.105065
0.0919055
0.0865575
0.0865831
0.0919047
0.105072
0.105081
0.0919276
0.0865998
0.0866248
0.0919355
0.105085
0.105094
0.091946
0.0866399
0.0866639
0.0919548
0.105098
0.105104
0.0919574
0.0866779
0.0867036
0.091956
0.10511
0.105118
0.0919631
0.0867191
0.0867368
0.0919821
0.105123
0.105128
0.0919874
0.0867558
0.0867703
0.0919952
0.105133
0.105138
0.0920027
0.0867902
0.0868037
0.0920033
0.105142
0.105148
0.092
0.086823
0.0868375
0.09202
0.105155
0.105157
0.0920246
0.0868517
0.0868675
0.092027
0.105162
0.105165
0.0920231
0.0868831
0.0868988
0.0920305
0.105173
0.105177
0.092047
0.0869132
0.0869251
0.0920504
0.10518
0.105184
0.0920527
0.0869403
0.0869542
0.0920484
0.105188
0.105195
0.0920556
0.0869687
0.0869814
0.0920634
0.105198
0.105203
0.0920588
0.0869965
0.0870095
0.0920776
0.10521
0.105212
0.0920813
0.0870226
0.0870355
0.0920871
0.105219
0.105222
0.0920919
0.0870482
0.0870591
0.0920954
0.105227
0.105231
0.0921036
0.0870734
0.0870826
0.0921042
0.105236
0.105241
0.0921137
0.0870968
0.0871057
0.0921145
0.105245
0.105251
0.0921245
0.0871179
0.0871306
0.0921257
0.105255
0.105261
0.0921355
0.0871391
0.0871524
0.0921369
0.105265
0.105271
0.0921471
0.0871588
0.0871726
0.0921506
0.105274
0.10528
0.0921585
0.0871807
0.0871899
0.0921641
0.105284
0.105289
0.0921651
0.0871985
0.0872077
0.0921612
0.105293
0.1053
0.0921736
0.0872162
0.0872249
0.0921721
0.105303
0.10531
0.0921827
0.0872321
0.0872406
0.0921815
0.105312
0.105321
0.0921848
0.0872481
0.0872551
0.0921941
0.105325
0.105331
0.0921884
0.0872632
0.08727
0.0922068
0.105338
0.105341
0.0922104
0.0872743
0.0872814
0.0922165
0.105348
0.105352
0.0922204
0.0872857
0.0872914
0.0922264
0.105359
0.105364
0.0922307
0.087297
0.0873008
0.0922358
0.10537
0.105375
0.0922404
0.0873045
0.0873062
0.0922453
0.105381
0.105386
0.0922507
0.0873094
0.0873127
0.0922558
0.105392
0.105397
0.0922611
0.0873139
0.0873145
0.0922665
0.105403
0.105407
0.092266
0.0873142
0.0873147
0.0922595
0.105413
0.10542
0.0922711
0.0873139
0.0873135
0.0922667
0.105423
0.105432
0.0922761
0.0873113
0.0873103
0.092272
0.105435
0.105444
0.092288
0.087306
0.0873019
0.0922912
0.105445
0.105453
0.0922912
0.0872969
0.0872926
0.0922844
0.105456
0.105464
0.0922951
0.0872858
0.0872793
0.0922908
0.105466
0.105474
0.0922929
0.0872712
0.0872624
0.0922925
0.105477
0.105484
0.0922929
0.0872533
0.0872435
0.0922921
0.105488
0.105494
0.092298
0.087231
0.0872201
0.0922891
0.105497
0.105505
0.0922963
0.0872052
0.0871928
0.0922877
0.105507
0.105515
0.0922933
0.0871757
0.0871618
0.0922842
0.105516
0.105525
0.0922809
0.087143
0.0871254
0.0922881
0.105528
0.105533
0.0922849
0.0871044
0.0870833
0.0922829
0.105538
0.105542
0.092278
0.0870607
0.0870374
0.0922765
0.105547
0.105551
0.0922697
0.0870114
0.086986
0.0922682
0.105556
0.105559
0.0922606
0.0869564
0.0869282
0.0922535
0.105563
0.105567
0.0922366
0.0868991
0.086866
0.0922424
0.105574
0.105575
0.0922353
0.0868335
0.0867968
0.0922232
0.10558
0.105584
0.0922047
0.0867633
0.0867238
0.0922069
0.105591
0.105592
0.0921973
0.0866838
0.0866425
0.0921868
0.105598
0.1056
0.0921768
0.0866008
0.0865516
0.0921618
0.105604
0.105607
0.0921486
0.0865073
0.0864593
0.092124
0.10561
0.105616
0.092121
0.0864082
0.0863551
0.0921061
0.105617
0.105621
0.0920895
0.0863005
0.0862457
0.0920747
0.105623
0.105625
0.0920539
0.0861821
0.0861236
0.0920355
0.105627
0.105628
0.0920058
0.0860605
0.0859951
0.0919846
0.105632
0.105633
0.0919666
0.0859283
0.0858592
0.091935
0.105635
0.105637
0.0919169
0.0857872
0.0857145
0.0918837
0.105637
0.105641
0.0918545
0.0856403
0.0855578
0.0918363
0.105642
0.105642
0.0918073
0.0854817
0.0853928
0.0917725
0.105643
0.105644
0.0917356
0.0853097
0.0852163
0.0916943
0.105643
0.105644
0.0916516
0.0851272
0.0850248
0.0916064
0.105643
0.105643
0.0915611
0.0849297
0.0848269
0.0915076
0.105641
0.10564
0.0914609
0.0847198
0.0846143
0.0914054
0.105637
0.105636
0.0913551
0.0844994
0.0843874
0.0912997
0.105633
0.105631
0.0912414
0.0842658
0.0841499
0.0911851
0.105627
0.105623
0.0911219
0.0840222
0.0839003
0.0910589
0.105619
0.105615
0.0909978
0.0837663
0.0836352
0.090934
0.10561
0.105604
0.0908654
0.0834984
0.0833615
0.0907906
0.105598
0.105592
0.0907215
0.0832177
0.0830721
0.0906545
0.105585
0.105577
0.0905736
0.0829231
0.0827697
0.0905021
0.10557
0.105561
0.0904217
0.082613
0.0824528
0.0903402
0.105553
0.105543
0.0902583
0.0822885
0.0821185
0.0901701
0.105532
0.105521
0.0900849
0.0819476
0.0817698
0.0899915
0.105508
0.105496
0.0899012
0.0815899
0.0814037
0.089803
0.105481
0.105467
0.0897068
0.0812145
0.0810193
0.0896037
0.105451
0.105435
0.0895018
0.0808205
0.0806168
0.0893933
0.105416
0.105398
0.0892849
0.0804066
0.080192
0.0891711
0.105377
0.105356
0.0890563
0.07997
0.079748
0.0889251
0.105333
0.105312
0.0888197
0.0795128
0.079277
0.0886728
0.105284
0.105262
0.0885647
0.0790306
0.0787799
0.0884068
0.105231
0.105205
0.0882938
0.0785204
0.07825
0.0881342
0.105173
0.10514
0.0880016
0.0779761
0.0776934
0.0878302
0.105107
0.105075
0.0876883
0.0774009
0.0770956
0.0875154
0.105038
0.105001
0.0873552
0.0767834
0.076453
0.0871855
0.10496
0.104918
0.0869919
0.0761203
0.0757665
0.0868225
0.104876
0.104827
0.0866141
0.0754011
0.0750265
0.0864181
0.10478
0.104725
0.0861949
0.0746267
0.0742235
0.0859759
0.104672
0.104612
0.0857204
0.0737938
0.0733502
0.0854969
0.104555
0.104487
0.0852169
0.0728795
0.0723938
0.0849552
0.104425
0.10435
0.0846366
0.07187
0.0713132
0.084345
0.104279
0.104192
0.0839589
0.0707075
0.0700506
0.0836096
0.10411
0.104003
0.0831288
0.0693224
0.0685228
0.082668
0.103902
0.103771
0.0820746
0.0676235
0.0666395
0.0814706
0.103644
0.103485
0.0807164
0.0655461
0.064353
0.0799908
0.103336
0.10316
0.0791361
0.0630378
0.0616461
0.078333
0.103002
0.102831
0.0774574
0.0601505
0.0585925
0.0767135
0.102693
0.102551
0.0759315
0.0568939
0.0550816
0.0753586
0.102456
0.102356
0.0747791
0.0531599
0.0512709
0.0744651
0.102311
0.102271
0.0741901
0.0494564
0.0478323
0.0741337
0.102273
0.102259
0.0739952
0.0462717
0.0446889
0.0739537
0.102268
0.102247
0.0737301
0.0429379
0.041206
0.0736392
0.102245
0.102215
0.0734153
0.0396839
0.0384799
0.0733555
0.10221
0.102168
0.0730977
0.0372805
0.0359574
0.0729411
0.102139
0.102067
0.072584
0.0345912
0.0335411
0.0724135
0.102019
0.101941
0.0720876
0.0327948
0.0321886
0.0718977
0.101895
0.101811
0.071419
0.0314317
0.030666
0.0709886
0.101745
0.101636
0.0703337
0.0298976
0.0293322
0.0698358
0.101551
0.101438
0.0692016
0.0286678
0.028074
0.0686956
0.101355
0.101245
0.0679777
0.0273367
0.0267554
0.0673394
0.101157
0.101043
0.0665195
0.0260213
0.02541
0.0658427
0.100953
0.100842
0.0649859
0.0246605
0.024079
0.064221
0.100754
0.100645
0.0632724
0.0233731
0.0228009
0.0624486
0.100556
0.100453
0.0615065
0.0221014
0.0215285
0.0606282
0.10037
0.100273
0.0595938
0.0208377
0.0203167
0.0586462
0.10019
0.100099
0.0576076
0.0196935
0.0192023
0.0566893
0.100025
0.0999425
0.0556277
0.0185678
0.0180902
0.0546337
0.0998715
0.0997911
0.0535229
0.0175071
0.0170834
0.0525149
0.0997192
0.0996396
0.0514352
0.0165539
0.0161571
0.050447
0.0995679
0.0994886
0.0493685
0.0156431
0.0152797
0.0483463
0.099411
0.0993232
0.047284
0.0148351
0.0145209
0.0463257
0.0992349
0.0991419
0.0452884
0.0140869
0.0138067
0.0443478
0.099052
0.0989555
0.0433536
0.0134169
0.0131553
0.0424563
0.098859
0.0987551
0.0414732
0.0127902
0.0125702
0.0405964
0.0986495
0.0985352
0.0396828
0.012243
0.0120456
0.0388361
0.0984121
0.0982779
0.0379398
0.0117464
0.011576
0.0371123
0.0981335
0.0979786
0.036232
0.0113108
0.0111746
0.0354345
0.097809
0.097625
0.0345829
0.0109544
0.0108363
0.0338009
0.0974241
0.0972067
0.0329587
0.0106551
0.010559
0.0321718
0.0969722
0.0967175
0.031326
0.0104162
0.0103688
0.0305829
0.0964358
0.0961221
0.0297852
0.0102591
0.0102534
0.0291286
0.0957696
0.0953809
0.0283768
0.010178
0.0102036
0.0277892
0.0949473
0.0944718
0.0271139
0.0101754
0.010218
0.0265679
0.0939468
0.0933715
0.0259693
0.0102494
0.0103012
0.0254402
0.092745
0.0920617
0.0249398
0.0103927
0.0104629
0.0244387
0.0913279
0.0905278
0.0240045
0.0105894
0.0107026
0.0235534
0.0896781
0.0887679
0.0231775
0.0108641
0.0110189
0.0227998
0.08781
0.0868056
0.0224827
0.0112126
0.0114173
0.0221742
0.0857681
0.0847124
0.0219561
0.0116551
0.0119051
0.0217348
0.0836554
0.0826347
0.0216045
0.0121915
0.0124989
0.021531
0.0816742
0.0808443
0.0214944
0.0128361
0.0132086