/*--------------------------------*- C++ -*----------------------------------*\
| =========                 |                                                 |
| \\      /  F ield         | OpenFOAM: The Open Source CFD Toolbox           |
|  \\    /   O peration     | Version:  v2006                                 |
|   \\  /    A nd           | Website:  www.openfoam.com                      |
|    \\/     M anipulation  |                                                 |
\*---------------------------------------------------------------------------*/
FoamFile
{
    version     2.0;
    format      ascii;
    class       volScalarField;
    location    "0.018";
    object      yPlus;
}
// * * * * * * * * * * * * * * * * * * * * * * * * * * * * * * * * * * * * * //

dimensions      [0 0 0 0 0 0 0];


internalField   uniform 0;

boundaryField
{
    bottomEmptyFaces
    {
        type            empty;
    }
    topEmptyFaces
    {
        type            empty;
    }
    inlet
    {
        type            calculated;
        value           uniform 0;
    }
    outlet
    {
        type            calculated;
        value           uniform 0;
    }
    walls
    {
        type            calculated;
        value           nonuniform List<scalar> 
599
(
21.3515
21.4147
21.4033
21.463
21.4515
21.5075
21.4957
21.5484
21.5365
21.5859
21.5738
21.6204
21.6082
21.6523
21.6401
21.682
21.6699
21.7099
21.6978
21.7362
21.7242
21.7612
21.7492
21.7849
21.7731
21.8077
21.796
21.8296
21.8181
21.8507
21.8392
21.8711
21.8598
21.8909
21.8797
21.9102
21.8991
21.9291
21.918
21.9473
21.9364
21.9653
21.9543
21.9827
21.9718
21.9999
21.989
22.0166
22.0058
22.0331
22.0223
22.0491
22.0385
22.065
22.0543
22.0804
22.0698
22.0956
22.085
22.1104
22.0998
22.125
22.1144
22.1392
22.1286
22.1532
22.1427
22.1669
22.1564
22.1804
22.1699
22.1936
22.1831
22.2066
22.1961
22.2193
22.2088
22.2319
22.2214
22.2442
22.2337
22.2564
22.2459
22.2682
22.2578
22.2801
22.2696
22.2916
22.2811
22.3031
22.2926
22.3143
22.3039
22.3256
22.3152
22.3367
22.3263
22.348
22.3376
22.3592
22.3488
22.3705
22.3602
22.3818
22.3716
22.3932
22.383
22.4045
22.3942
22.4156
22.4053
22.4263
22.4159
22.4363
22.4254
22.4609
22.4617
22.4799
22.4798
22.545
22.569
22.7151
22.817
23.0782
23.2933
24.0835
25.2878
11.9024
13.3708
12.4003
14.4979
10.9113
12.1586
14.3125
10.5631
11.2978
10.4702
11.9243
11.641
13.723
11.1659
12.4817
13.6664
10.1006
10.8632
10.799
8.25112
8.64726
7.7473
7.85613
8.98334
9.29224
8.44081
8.62159
8.72722
9.05718
9.69279
9.6505
9.69572
10.7025
10.1256
11.812
9.84486
10.8178
8.6965
9.80207
8.9487
9.85664
11.9158
8.81103
9.44996
9.98446
11.2676
10.2892
11.4536
10.5401
11.6951
10.9909
12.8364
12.7962
9.46245
10.1501
9.59667
10.7076
9.27696
10.4879
9.77346
10.6627
8.90907
9.74018
8.93045
9.68088
8.68551
9.37643
8.65482
9.31308
8.80882
9.60035
8.82739
9.54638
8.93268
9.80899
8.95641
9.78758
8.52446
9.20873
8.48737
9.02744
21.8393
22.8633
25.0655
17.4312
18.8242
23.3513
17.2235
18.2406
16.4891
18.7501
20.4882
23.9361
16.6836
18.6331
16.6944
18.5961
16.4772
18.4486
16.7131
18.6314
16.6999
18.4902
16.4917
18.3607
16.8358
18.9049
16.9368
18.78
29.6206
25.4711
25.1678
32.9212
28.8324
27.4575
19.6943
21.0283
20.7121
22.6992
19.8194
22.0833
23.5262
24.1316
20.9339
23.4393
25.3003
26.039
30.0822
24.3446
24.3332
22.3564
23.4967
33.9611
34.5949
35.3275
26.8642
24.783
37.9363
39.1649
39.3511
37.9821
36.2985
34.4469
32.7302
31.0872
29.6023
28.2512
27.0777
26.0154
19.6926
21.6106
18.9001
20.3424
13.3792
12.3498
12.8067
12.0712
21.3875
13.8099
16.3457
20.1169
21.0458
12.9421
12.5435
18.8314
9.53534
14.2059
15.5554
16.5293
8.5294
8.6163
11.9277
11.0291
10.1258
9.8288
9.32415
9.13632
8.65666
8.38469
14.1846
9.9506
9.29972
11.1749
10.1871
7.96085
7.88234
12.818
8.28209
7.134
4.3644
25.0774
24.2328
9.08518
7.89491
6.3401
23.4801
22.814
22.2235
21.7206
5.33665
6.32929
3.42077
21.2741
20.9173
7.13244
6.36079
20.5912
20.3587
5.71401
5.39974
20.1227
4.98282
19.9987
4.76494
19.8121
4.46481
4.31825
19.8058
4.07999
19.673
3.92956
19.7112
19.6344
19.6903
19.6404
3.65065
19.708
3.4123
19.6731
3.14021
2.93952
19.7476
2.70312
19.718
2.51925
19.803
2.29335
2.10857
19.7752
19.8647
1.87257
1.67639
19.8385
1.42604
19.9327
1.2103
19.9088
0.932144
0.696499
20.0071
0.430034
19.9856
0.282217
20.0883
20.0691
20.1743
20.1571
0.379669
20.2644
0.397464
20.249
0.442318
0.517787
20.3567
0.652633
20.3426
0.744615
20.4501
0.770609
0.614561
20.437
20.5429
0.428456
0.361998
20.5303
0.372467
20.634
0.433993
20.622
0.421557
0.442365
20.7225
0.37418
0.311531
20.7107
20.8079
20.7964
20.89
20.8786
20.9686
20.9573
21.0435
21.0324
21.1148
21.104
21.1827
21.1719
21.2468
21.2359
21.3068
21.2957
21.3627
14.2478
16.1755
17.7275
14.8123
16.6813
14.5414
16.3403
15.3341
18.0526
14.2206
16.774
16.4294
12.0016
13.7231
12.0989
13.0348
13.1517
14.2237
13.0815
14.9175
13.5444
15.174
13.7502
15.4629
17.0893
19.9975
19.5685
14.5171
15.5172
12.7199
14.292
15.3692
13.2394
15.6348
12.4832
13.9785
11.3488
12.2529
11.3288
12.9441
0.728132
26.5206
41.4335
38.6297
36.323
34.9468
33.5989
32.5862
31.725
30.9508
30.4348
29.8968
29.5195
29.0866
28.7899
28.4309
28.1837
27.8759
27.6611
27.3888
27.1962
26.9489
26.7717
26.5421
26.3755
26.1581
25.9984
25.7887
25.633
25.4278
25.2738
25.0705
24.9167
24.7136
24.5586
24.3542
24.1971
23.9902
23.8301
23.6196
23.4556
23.2403
23.0715
22.8502
22.6754
22.4465
22.2646
22.0263
21.8357
21.5862
21.3854
21.1225
20.9098
20.6313
20.4047
20.1081
19.8653
19.5474
19.2856
18.9427
18.6583
18.2856
17.9734
17.5645
17.2162
16.7632
16.3644
15.8592
15.3836
14.8078
14.2183
13.5328
12.7613
11.8725
10.8056
9.67496
7.6098
4.6967
6.25339
7.79194
8.36857
8.50483
7.59552
4.69923
2.80954
2.06956
1.71257
1.51041
2.39348
3.13565
3.77347
4.02192
4.09759
3.89978
3.60389
3.20118
2.87936
2.55499
2.4213
2.49814
2.90835
3.38679
3.88549
4.37069
4.79997
5.18251
5.5055
5.78279
6.0054
6.18725
6.32107
6.40894
6.44828
6.45873
6.42065
6.33372
6.19872
6.01927
5.78492
5.50981
5.16841
4.79234
4.33635
3.87557
3.32152
2.83313
2.07262
1.54585
44.9877
1.22255
)
;
    }
    rightWall
    {
        type            calculated;
        value           nonuniform List<scalar> 
30
(
6.17446
5.47237
4.01317
12.6801
26.9609
28.5893
29.6961
31.4335
32.7472
33.5774
34.0791
34.2491
34.1813
33.9703
33.6616
33.1408
32.5564
31.6336
30.6948
29.1078
27.6535
24.8933
22.3883
18.3018
4.96683
11.1951
14.4064
2.10493
4.33941
5.51996
)
;
    }
    symmetryLine
    {
        type            symmetryPlane;
    }
}


// ************************************************************************* //
