/*--------------------------------*- C++ -*----------------------------------*\
| =========                 |                                                 |
| \\      /  F ield         | OpenFOAM: The Open Source CFD Toolbox           |
|  \\    /   O peration     | Version:  v2006                                 |
|   \\  /    A nd           | Website:  www.openfoam.com                      |
|    \\/     M anipulation  |                                                 |
\*---------------------------------------------------------------------------*/
FoamFile
{
    version     2.0;
    format      ascii;
    class       volScalarField;
    location    "0.015";
    object      rho;
}
// * * * * * * * * * * * * * * * * * * * * * * * * * * * * * * * * * * * * * //

dimensions      [1 -3 0 0 0 0 0];


internalField   nonuniform List<scalar> 
23013
(
1.73233
1.73233
1.73232
1.73232
1.73232
1.73232
1.73232
1.73232
1.73232
1.73234
1.73236
1.73238
1.7324
1.73242
1.73245
1.73247
1.7325
1.73253
1.73256
1.73259
1.73262
1.73266
1.73269
1.73273
1.73277
1.73281
1.73285
1.73289
1.73293
1.73298
1.73302
1.73307
1.73311
1.73316
1.73321
1.73326
1.73331
1.73337
1.73342
1.73347
1.73353
1.73358
1.73364
1.73369
1.73375
1.73381
1.73387
1.73392
1.73398
1.73404
1.7341
1.73415
1.73421
1.73427
1.73433
1.73439
1.73445
1.7345
1.73456
1.73462
1.73468
1.73474
1.7348
1.73485
1.73491
1.73497
1.73502
1.73508
1.73514
1.73519
1.73525
1.7353
1.73536
1.73541
1.73547
1.73552
1.73557
1.73562
1.73567
1.73572
1.73577
1.73582
1.73587
1.73591
1.73596
1.736
1.73604
1.73608
1.73612
1.73616
1.7362
1.73623
1.73627
1.7363
1.73634
1.73637
1.7364
1.73643
1.73645
1.73648
1.7365
1.73653
1.73655
1.73657
1.73659
1.73661
1.73663
1.73665
1.73666
1.73667
1.73667
1.73667
1.73667
1.73667
1.73667
1.73666
1.73663
1.73667
1.7367
1.73675
1.73684
1.73688
1.73683
1.73686
1.73695
1.73696
1.73704
1.73701
1.73689
1.73693
1.73707
1.73712
1.7372
1.73715
1.73701
1.7371
1.73725
1.7373
1.73741
1.73737
1.73722
1.73735
1.7375
1.73754
1.73768
1.73763
1.73749
1.73763
1.73777
1.73783
1.73797
1.73791
1.73777
1.73791
1.73805
1.73811
1.73825
1.73819
1.73805
1.73818
1.73832
1.73839
1.73852
1.73845
1.73832
1.73845
1.73858
1.73866
1.73878
1.73871
1.73859
1.73872
1.73883
1.73891
1.73902
1.73895
1.73886
1.73898
1.73908
1.73915
1.73926
1.7392
1.73911
1.73923
1.73932
1.73938
1.7395
1.73944
1.73936
1.73947
1.73955
1.73961
1.73972
1.73967
1.73959
1.7397
1.73977
1.73983
1.73993
1.73988
1.73981
1.73991
1.73998
1.74004
1.74014
1.74009
1.74002
1.74012
1.74018
1.74023
1.74033
1.74028
1.74022
1.74031
1.74037
1.74042
1.7405
1.74046
1.74041
1.74049
1.74054
1.74059
1.74067
1.74063
1.74059
1.74067
1.74071
1.74075
1.74083
1.74079
1.74075
1.74083
1.74087
1.7409
1.74098
1.74094
1.74091
1.74097
1.74101
1.74104
1.7411
1.74107
1.74104
1.74109
1.74113
1.74116
1.74121
1.74118
1.74115
1.74119
1.74123
1.74126
1.7413
1.74127
1.74123
1.74126
1.7413
1.74133
1.74136
1.74133
1.74129
1.7413
1.74134
1.74138
1.74139
1.74136
1.74132
1.74133
1.74137
1.7414
1.7414
1.74137
1.74134
1.74134
1.74137
1.7414
1.74139
1.74136
1.74134
1.74133
1.74136
1.74138
1.74137
1.74135
1.74133
1.74132
1.74134
1.74136
1.74135
1.74133
1.74132
1.74131
1.74132
1.74133
1.74131
1.7413
1.74129
1.74128
1.74128
1.74129
1.74127
1.74126
1.74126
1.74124
1.74123
1.74124
1.74121
1.74121
1.74121
1.74118
1.74118
1.74118
1.74115
1.74115
1.74116
1.74113
1.74112
1.74112
1.74108
1.74108
1.7411
1.74106
1.74105
1.74105
1.74101
1.74102
1.74103
1.741
1.74098
1.74098
1.74094
1.74095
1.74097
1.74093
1.74091
1.7409
1.74087
1.74088
1.7409
1.74086
1.74084
1.74083
1.7408
1.74081
1.74083
1.7408
1.74077
1.74076
1.74073
1.74074
1.74077
1.74073
1.74071
1.74069
1.74066
1.74068
1.7407
1.74067
1.74064
1.74063
1.7406
1.74062
1.74064
1.74061
1.74059
1.74057
1.74055
1.74056
1.74058
1.74055
1.74053
1.74052
1.7405
1.74051
1.74053
1.7405
1.74048
1.74047
1.74045
1.74046
1.74047
1.74045
1.74044
1.74043
1.74041
1.74041
1.74042
1.7404
1.74039
1.74039
1.74037
1.74037
1.74038
1.74036
1.74036
1.74035
1.74033
1.74034
1.74034
1.74032
1.74032
1.74032
1.7403
1.7403
1.7403
1.74029
1.74029
1.74029
1.74027
1.74028
1.74028
1.74027
1.74027
1.74026
1.74025
1.74026
1.74026
1.74025
1.74025
1.74025
1.74024
1.74024
1.74024
1.74023
1.74023
1.74023
1.74022
1.74022
1.74022
1.74021
1.74022
1.74021
1.7402
1.7402
1.7402
1.74019
1.7402
1.74019
1.74017
1.74018
1.74018
1.74017
1.74017
1.74017
1.74015
1.74015
1.74015
1.74014
1.74014
1.74014
1.74012
1.74012
1.74012
1.7401
1.74011
1.74011
1.74009
1.74009
1.74008
1.74007
1.74008
1.74007
1.74005
1.74006
1.74004
1.74002
1.74004
1.74004
1.74002
1.74002
1.74
1.73998
1.74
1.74
1.73998
1.73998
1.73995
1.73993
1.73996
1.73996
1.73994
1.73993
1.7399
1.73987
1.73991
1.73993
1.7399
1.73989
1.73985
1.73982
1.73987
1.73989
1.73986
1.73984
1.73979
1.73977
1.73983
1.73985
1.73982
1.7398
1.73974
1.73972
1.73978
1.73981
1.73978
1.73975
1.73969
1.73967
1.73974
1.73977
1.73975
1.73971
1.73964
1.73962
1.7397
1.73973
1.73971
1.73967
1.7396
1.73958
1.73966
1.7397
1.73968
1.73963
1.73955
1.73954
1.73962
1.73967
1.73964
1.7396
1.73951
1.7395
1.73958
1.73963
1.73961
1.73956
1.73948
1.73946
1.73955
1.7396
1.73959
1.73953
1.73945
1.73943
1.73952
1.73958
1.73956
1.7395
1.73942
1.73941
1.73949
1.73955
1.73953
1.73948
1.73939
1.73938
1.73947
1.73953
1.73951
1.73945
1.73937
1.73936
1.73944
1.7395
1.73948
1.73942
1.73934
1.73933
1.73941
1.73947
1.73945
1.73939
1.73931
1.7393
1.73938
1.73943
1.73941
1.73935
1.73928
1.73926
1.73934
1.73939
1.73936
1.73931
1.73924
1.73922
1.73929
1.73934
1.73931
1.73926
1.73919
1.73916
1.73923
1.73928
1.73924
1.73919
1.73912
1.73909
1.73916
1.73921
1.73916
1.73911
1.73904
1.739
1.73907
1.73913
1.73907
1.73902
1.73895
1.7389
1.73897
1.73903
1.73897
1.73891
1.73884
1.73879
1.73886
1.73892
1.73885
1.73879
1.73872
1.73865
1.73873
1.73879
1.73871
1.73865
1.73857
1.7385
1.73858
1.73865
1.73856
1.7385
1.73841
1.73833
1.73842
1.73849
1.7384
1.73833
1.73823
1.73814
1.73824
1.73832
1.73822
1.73814
1.73803
1.73793
1.73805
1.73813
1.73803
1.73794
1.73782
1.73771
1.73784
1.73794
1.73783
1.73773
1.73759
1.73748
1.73764
1.73774
1.73763
1.73752
1.73736
1.73725
1.73742
1.73754
1.73744
1.73731
1.73713
1.73699
1.73719
1.73733
1.73718
1.73703
1.73683
1.73666
1.73688
1.73704
1.73683
1.73666
1.73643
1.7362
1.73646
1.73664
1.73644
1.73625
1.73598
1.73579
1.73608
1.73628
1.73608
1.73587
1.73557
1.73538
1.7357
1.73593
1.73573
1.73549
1.73515
1.73488
1.73525
1.73551
1.73529
1.735
1.7346
1.73459
1.73501
1.73531
1.73556
1.73525
1.73481
1.73503
1.73548
1.7358
1.73569
1.73535
1.73486
1.73426
1.73479
1.73517
1.73465
1.73424
1.73368
1.73327
1.73385
1.73428
1.73393
1.73348
1.73286
1.73255
1.73321
1.73368
1.73338
1.73288
1.73222
1.73189
1.73263
1.73316
1.73286
1.73231
1.73158
1.73124
1.73206
1.73264
1.73233
1.73172
1.73091
1.73055
1.73144
1.73209
1.73178
1.73111
1.73021
1.72986
1.73085
1.73158
1.73135
1.7306
1.72958
1.72918
1.73027
1.73106
1.73084
1.73005
1.72893
1.72853
1.72971
1.73056
1.73155
1.73209
1.73234
1.73249
1.73265
1.73274
1.73281
1.73286
1.73289
1.73292
1.73293
1.73294
1.73295
1.73295
1.73291
1.73284
1.73285
1.7328
1.73263
1.73232
1.73206
1.73173
1.73186
1.73218
1.73243
1.73249
1.73224
1.73193
1.73204
1.73232
1.73255
1.73267
1.73245
1.73218
1.73231
1.73257
1.73277
1.73288
1.73269
1.73245
1.73257
1.7328
1.73298
1.73308
1.73291
1.7327
1.73282
1.73302
1.73318
1.73328
1.73313
1.73294
1.73307
1.73324
1.73338
1.73348
1.73335
1.73319
1.73331
1.73345
1.73358
1.73367
1.73356
1.73342
1.73353
1.73367
1.73377
1.73387
1.73377
1.73365
1.73376
1.73387
1.73396
1.73405
1.73397
1.73387
1.73397
1.73407
1.73414
1.73424
1.73417
1.73408
1.73418
1.73426
1.73433
1.73441
1.73436
1.73429
1.73439
1.73446
1.73451
1.7346
1.73455
1.7345
1.7346
1.73465
1.7347
1.73479
1.73475
1.73471
1.73482
1.73486
1.7349
1.73501
1.73497
1.73494
1.73507
1.7351
1.73513
1.73527
1.73524
1.73522
1.73538
1.73541
1.73543
1.73561
1.73559
1.73557
1.73578
1.7358
1.73582
1.73602
1.736
1.73599
1.7362
1.73621
1.73622
1.73637
1.73637
1.73637
1.73648
1.73648
1.73648
1.73647
1.73647
1.73647
1.7364
1.7364
1.7364
1.73629
1.73629
1.73629
1.73617
1.73617
1.73617
1.73606
1.73606
1.73607
1.73601
1.73601
1.73601
1.73599
1.73599
1.736
1.73604
1.73603
1.73603
1.73608
1.73608
1.7361
1.73617
1.73616
1.73615
1.73623
1.73623
1.73625
1.73635
1.73633
1.73633
1.73643
1.73643
1.73646
1.73656
1.73654
1.73654
1.73662
1.73663
1.73665
1.73672
1.7367
1.7367
1.73673
1.73674
1.73676
1.73679
1.73677
1.73676
1.73677
1.73677
1.73679
1.7368
1.73678
1.73678
1.7368
1.7368
1.73682
1.73685
1.73683
1.73683
1.73687
1.73687
1.7369
1.73695
1.73693
1.73693
1.73698
1.73698
1.737
1.73707
1.73705
1.73705
1.73712
1.73712
1.73714
1.73721
1.73719
1.73719
1.73726
1.73726
1.73728
1.73735
1.73733
1.73733
1.73739
1.73739
1.73741
1.73746
1.73744
1.73745
1.73749
1.73749
1.73751
1.73756
1.73755
1.73755
1.7376
1.7376
1.73761
1.73767
1.73765
1.73766
1.73771
1.7377
1.73772
1.73777
1.73776
1.73776
1.73781
1.73781
1.73782
1.73787
1.73786
1.73787
1.73791
1.7379
1.73791
1.73796
1.73795
1.73796
1.73801
1.73799
1.738
1.73804
1.73804
1.73805
1.73809
1.73808
1.73809
1.73813
1.73813
1.73814
1.73818
1.73816
1.73817
1.7382
1.7382
1.73822
1.73826
1.73824
1.73824
1.73828
1.73828
1.73829
1.73833
1.73831
1.73831
1.73834
1.73835
1.73837
1.7384
1.73838
1.73838
1.73841
1.73842
1.73844
1.73847
1.73845
1.73844
1.73847
1.73848
1.7385
1.73853
1.73851
1.7385
1.73853
1.73854
1.73856
1.73859
1.73857
1.73856
1.73858
1.73859
1.73862
1.73865
1.73862
1.73861
1.73863
1.73864
1.73867
1.7387
1.73866
1.73865
1.73867
1.73868
1.73872
1.73874
1.73871
1.73869
1.73871
1.73873
1.73876
1.73878
1.73875
1.73873
1.73874
1.73876
1.7388
1.73882
1.73878
1.73876
1.73877
1.7388
1.73884
1.73886
1.73881
1.73879
1.7388
1.73882
1.73887
1.73889
1.73884
1.73881
1.73882
1.73885
1.7389
1.73892
1.73886
1.73883
1.73884
1.73887
1.73893
1.73894
1.73888
1.73885
1.73885
1.73888
1.73895
1.73896
1.73889
1.73886
1.73885
1.73889
1.73896
1.73897
1.73889
1.73885
1.73885
1.73889
1.73897
1.73898
1.73889
1.73885
1.73884
1.73889
1.73898
1.73899
1.73889
1.73883
1.73882
1.73888
1.73898
1.73899
1.73888
1.73881
1.73879
1.73887
1.73899
1.73899
1.73887
1.73878
1.73876
1.73886
1.73899
1.73899
1.73886
1.73876
1.73874
1.73885
1.73898
1.73898
1.73884
1.73873
1.73871
1.73883
1.73897
1.73897
1.73882
1.7387
1.73868
1.7388
1.73895
1.73894
1.73879
1.73866
1.73864
1.73877
1.73893
1.73892
1.73875
1.73862
1.73858
1.73873
1.73889
1.73887
1.7387
1.73855
1.73854
1.73869
1.73886
1.73884
1.73867
1.73851
1.73851
1.73866
1.73883
1.73884
1.73866
1.7385
1.73855
1.7387
1.73885
1.73885
1.7387
1.73856
1.73858
1.7387
1.73886
1.73893
1.73881
1.73871
1.73891
1.73901
1.73902
1.73835
1.73824
1.73822
1.73836
1.73845
1.73861
1.73873
1.73855
1.73843
1.73843
1.73857
1.73875
1.73879
1.7386
1.73844
1.73846
1.73862
1.73881
1.73885
1.73866
1.73849
1.73852
1.73869
1.73888
1.73891
1.73871
1.73852
1.73857
1.73876
1.73894
1.73895
1.73876
1.73855
1.7386
1.7388
1.73899
1.73902
1.73885
1.73865
1.73865
1.73886
1.73903
1.73907
1.7389
1.73871
1.73876
1.73894
1.73909
1.7391
1.73894
1.73877
1.73889
1.73905
1.73917
1.73927
1.73927
1.73913
1.73839
1.73843
1.73862
1.73891
1.73869
1.73853
1.73863
1.73883
1.73903
1.73905
1.73886
1.73865
1.73864
1.73885
1.73905
1.73908
1.73889
1.73869
1.73875
1.73894
1.73911
1.73913
1.73897
1.73878
1.73876
1.73895
1.73912
1.73916
1.73901
1.73884
1.73895
1.7391
1.73922
1.7393
1.73931
1.73914
1.73848
1.73854
1.73873
1.73904
1.73886
1.73869
1.73874
1.73892
1.7391
1.73913
1.73894
1.73874
1.73875
1.73897
1.73916
1.7392
1.73904
1.73883
1.73887
1.73907
1.73922
1.73923
1.73907
1.73886
1.73895
1.73917
1.73929
1.7394
1.73938
1.73919
1.73857
1.73866
1.73888
1.73916
1.73896
1.73873
1.73875
1.73901
1.73922
1.7393
1.73912
1.73888
1.73893
1.73915
1.73931
1.73934
1.73918
1.73895
1.73903
1.73926
1.73938
1.73951
1.73949
1.73929
1.73875
1.73886
1.73906
1.73932
1.73914
1.73892
1.73897
1.73918
1.73936
1.73942
1.73927
1.73903
1.7391
1.73931
1.73946
1.73952
1.73941
1.73919
1.73934
1.73954
1.73957
1.73915
1.73894
1.73881
1.73907
1.7393
1.73945
1.73949
1.73934
1.73913
1.73911
1.73934
1.73949
1.73953
1.7394
1.73919
1.73933
1.7395
1.73961
1.73966
1.73966
1.73949
1.73896
1.73909
1.73927
1.7395
1.73935
1.73913
1.73927
1.73945
1.73958
1.73965
1.73954
1.73936
1.73943
1.73964
1.73967
1.73937
1.7392
1.73907
1.73932
1.73951
1.73962
1.73963
1.73951
1.7393
1.73936
1.73957
1.73969
1.73978
1.73976
1.73959
1.73926
1.73939
1.73953
1.73969
1.73958
1.73938
1.73934
1.73957
1.73972
1.73989
1.7398
1.73964
1.73971
1.73988
1.73991
1.73964
1.73949
1.73933
1.7396
1.7398
1.73992
1.74004
1.73995
1.7398
1.73979
1.74
1.74005
1.73993
1.73979
1.73962
1.74004
1.74017
1.74025
1.74028
1.74024
1.74005
1.73987
1.74003
1.74018
1.7405
1.74047
1.74038
1.74033
1.74053
1.74062
1.74075
1.74071
1.74057
1.74064
1.74077
1.74086
1.74098
1.74094
1.74078
1.7412
1.74129
1.74133
1.74157
1.74157
1.74145
1.7421
1.74205
1.74189
1.74215
1.74218
1.7421
1.743
1.74277
1.74247
1.74259
1.74292
1.74311
1.74297
1.74277
1.74247
1.74214
1.74243
1.74258
1.74185
1.74181
1.74159
1.74076
1.74094
1.74088
1.73947
1.73962
1.73953
1.73898
1.73897
1.73889
1.7378
1.73796
1.738
1.73762
1.73757
1.73746
1.73695
1.73712
1.73716
1.73675
1.73661
1.7364
1.73659
1.7366
1.73658
1.73621
1.7361
1.73583
1.73546
1.73562
1.73573
1.73576
1.73579
1.7357
1.73509
1.73525
1.7354
1.73525
1.73517
1.73496
1.73481
1.73494
1.73504
1.7347
1.7346
1.73446
1.73435
1.73457
1.73466
1.73445
1.73433
1.73413
1.73388
1.73398
1.73411
1.73429
1.73428
1.73413
1.73364
1.73385
1.734
1.73358
1.73346
1.73333
1.73369
1.73386
1.73387
1.73365
1.73353
1.73338
1.73297
1.73308
1.73321
1.73346
1.73341
1.73323
1.73287
1.73302
1.73313
1.73332
1.73328
1.73309
1.73287
1.73303
1.73312
1.73288
1.73275
1.73259
1.73232
1.73243
1.73257
1.73292
1.73289
1.73271
1.73241
1.73259
1.73272
1.73235
1.73223
1.73213
1.73249
1.73267
1.73268
1.73248
1.73234
1.73216
1.73188
1.73199
1.73212
1.73248
1.73247
1.7323
1.73204
1.73219
1.7323
1.73196
1.73184
1.73175
1.73214
1.7323
1.73231
1.73213
1.73202
1.73187
1.73162
1.7317
1.73181
1.73216
1.73215
1.73199
1.73175
1.73189
1.732
1.73169
1.73158
1.7315
1.73187
1.73203
1.73204
1.73188
1.73177
1.73164
1.73139
1.73146
1.73158
1.73192
1.73192
1.73176
1.73154
1.73167
1.73177
1.73149
1.73138
1.73131
1.73167
1.73182
1.73183
1.7317
1.73161
1.73148
1.73123
1.7313
1.73142
1.73176
1.73176
1.73161
1.73139
1.73152
1.73162
1.73133
1.7312
1.73113
1.73152
1.73167
1.73168
1.73154
1.73144
1.73129
1.73104
1.73112
1.73125
1.73161
1.73162
1.73147
1.73122
1.73137
1.73147
1.73116
1.73102
1.73093
1.73134
1.7315
1.73151
1.73137
1.73126
1.73109
1.73081
1.73091
1.73106
1.73142
1.7314
1.73123
1.73101
1.73117
1.73128
1.73097
1.73083
1.73074
1.73111
1.73129
1.73131
1.73116
1.73104
1.73086
1.73057
1.73068
1.73083
1.73119
1.73117
1.73098
1.73073
1.73092
1.73105
1.73073
1.73058
1.73048
1.73092
1.7311
1.73112
1.73099
1.73087
1.7307
1.73041
1.7305
1.73065
1.73101
1.73098
1.7308
1.73057
1.73075
1.73087
1.73055
1.7304
1.73029
1.73074
1.73092
1.73093
1.7308
1.73068
1.7305
1.73023
1.73034
1.73049
1.73093
1.73093
1.73077
1.73051
1.73066
1.73078
1.73047
1.73034
1.73026
1.73066
1.73082
1.73084
1.7307
1.73059
1.73042
1.7302
1.73029
1.73042
1.73081
1.7308
1.73063
1.73041
1.73057
1.73069
1.73042
1.73028
1.7302
1.73071
1.73086
1.73085
1.73074
1.73063
1.7305
1.73022
1.73029
1.73043
1.73082
1.73082
1.73066
1.73044
1.73057
1.73069
1.73039
1.73025
1.73016
1.73063
1.73079
1.73081
1.73054
1.73043
1.73031
1.73066
1.73083
1.73084
1.73073
1.73062
1.73046
1.73035
1.73042
1.73053
1.73091
1.73093
1.73079
1.73052
1.73066
1.73079
1.73051
1.73037
1.73031
1.7307
1.73086
1.73087
1.73075
1.73063
1.73048
1.73025
1.73034
1.73048
1.73088
1.73086
1.73069
1.73034
1.73048
1.73061
1.73091
1.73091
1.73073
1.73056
1.73072
1.73081
1.7306
1.73046
1.73039
1.73081
1.73097
1.73096
1.73083
1.7307
1.73053
1.73029
1.73038
1.73054
1.73092
1.73091
1.73074
1.73047
1.73065
1.73078
1.73048
1.73033
1.73023
1.73069
1.73088
1.7309
1.73062
1.73048
1.73033
1.7307
1.73091
1.73092
1.73083
1.73071
1.73055
1.73036
1.73044
1.73059
1.73096
1.73096
1.73077
1.73049
1.73067
1.73081
1.73048
1.73032
1.73021
1.73067
1.73088
1.73089
1.73059
1.73044
1.73027
1.73066
1.73087
1.73087
1.73075
1.73061
1.73043
1.73017
1.73029
1.73045
1.73088
1.73086
1.73065
1.73026
1.73044
1.73059
1.73095
1.73098
1.7308
1.73055
1.73071
1.73083
1.73051
1.73034
1.73023
1.73071
1.73089
1.7309
1.73076
1.73062
1.73043
1.73014
1.73026
1.73043
1.73084
1.73083
1.73062
1.73023
1.7304
1.73055
1.73083
1.73082
1.73061
1.73036
1.73057
1.73071
1.73043
1.73027
1.73016
1.73065
1.73086
1.73088
1.73063
1.73049
1.73036
1.73075
1.73094
1.73093
1.73078
1.73065
1.73046
1.7302
1.7303
1.73047
1.73085
1.73083
1.73064
1.73037
1.73057
1.73071
1.7304
1.73024
1.73013
1.73056
1.73078
1.73081
1.73053
1.73038
1.73022
1.73056
1.73079
1.73081
1.73068
1.73054
1.73033
1.73008
1.73021
1.73038
1.73084
1.73081
1.73058
1.73029
1.73044
1.73059
1.73089
1.7309
1.73068
1.73041
1.73059
1.73073
1.73037
1.73019
1.73007
1.73053
1.73078
1.7308
1.73049
1.73032
1.73014
1.73051
1.73075
1.73076
1.73061
1.73046
1.73024
1.72999
1.73011
1.73029
1.73074
1.73073
1.73045
1.73004
1.73024
1.73042
1.7307
1.73068
1.73043
1.73009
1.73027
1.73042
1.73077
1.73076
1.73049
1.73039
1.73055
1.73066
1.73032
1.73014
1.73003
1.73048
1.73072
1.73073
1.7304
1.73022
1.73002
1.73036
1.73061
1.73063
1.73047
1.73033
1.73011
1.72983
1.72996
1.73014
1.73055
1.73053
1.73029
1.72987
1.73007
1.73024
1.73048
1.73047
1.73021
1.72996
1.73019
1.73034
1.73
1.72981
1.72967
1.73016
1.73041
1.73044
1.73011
1.72993
1.72971
1.73029
1.73051
1.73048
1.73029
1.73014
1.72994
1.72957
1.72968
1.72988
1.73027
1.73024
1.72996
1.72955
1.72975
1.72992
1.73016
1.73014
1.72987
1.72946
1.72967
1.72984
1.73009
1.73007
1.7298
1.72951
1.72975
1.72991
1.72953
1.72934
1.72919
1.72964
1.72995
1.72997
1.72961
1.72943
1.7292
1.72954
1.72983
1.72986
1.72956
1.7294
1.7292
1.72952
1.72985
1.72988
1.72975
1.72963
1.72945
1.72901
1.72915
1.72935
1.72974
1.72971
1.72943
1.72894
1.72916
1.72937
1.72958
1.72956
1.72927
1.72899
1.72924
1.72939
1.72897
1.72877
1.72861
1.72906
1.72936
1.7294
1.72904
1.72886
1.72864
1.72892
1.72924
1.72928
1.72893
1.72875
1.72852
1.72888
1.72917
1.7292
1.72901
1.72883
1.72856
1.72823
1.7284
1.72861
1.72908
1.72904
1.72873
1.72831
1.72853
1.72872
1.72902
1.72901
1.72873
1.7283
1.72849
1.72867
1.72886
1.72883
1.72853
1.72822
1.72847
1.72864
1.72821
1.72803
1.72789
1.72826
1.72861
1.72863
1.72824
1.72805
1.72779
1.72815
1.72847
1.7285
1.72813
1.72795
1.72772
1.72806
1.72837
1.72839
1.72818
1.728
1.72772
1.72741
1.72757
1.72776
1.7282
1.72815
1.72782
1.7274
1.72764
1.72784
1.72809
1.72805
1.72772
1.72728
1.72753
1.72772
1.72809
1.7281
1.7278
1.72744
1.72769
1.72786
1.72735
1.72713
1.72697
1.72746
1.72779
1.72782
1.72737
1.72716
1.72689
1.7272
1.7276
1.72762
1.72723
1.72705
1.72678
1.72709
1.72744
1.72749
1.72712
1.72693
1.7267
1.72699
1.72732
1.72737
1.72716
1.72697
1.72671
1.72631
1.72648
1.7267
1.72716
1.72713
1.72675
1.72624
1.72653
1.72674
1.72703
1.727
1.72663
1.7262
1.72646
1.72666
1.72695
1.72691
1.72654
1.72634
1.72659
1.72676
1.7263
1.72611
1.72595
1.72634
1.72669
1.72674
1.72631
1.7261
1.72583
1.72606
1.72652
1.72655
1.72613
1.72592
1.72562
1.72594
1.72634
1.72639
1.726
1.72579
1.72552
1.72592
1.72626
1.72629
1.72605
1.72583
1.72551
1.72515
1.72532
1.72555
1.72604
1.726
1.72558
1.72511
1.7254
1.72562
1.72588
1.72584
1.72539
1.72494
1.72525
1.72547
1.72578
1.72574
1.72535
1.72493
1.7252
1.72541
1.72574
1.72571
1.72536
1.72505
1.72533
1.72553
1.72505
1.72485
1.72471
1.72506
1.72545
1.72549
1.72505
1.72484
1.72455
1.72484
1.72525
1.72529
1.72488
1.72468
1.72439
1.72475
1.72517
1.72519
1.72478
1.72456
1.72426
1.72468
1.72503
1.72507
1.72484
1.72462
1.72431
1.72393
1.72411
1.72433
1.7248
1.72476
1.72435
1.72385
1.72416
1.72438
1.72466
1.72462
1.72415
1.72373
1.72405
1.72426
1.72457
1.72451
1.72411
1.72371
1.72398
1.7242
1.72451
1.72447
1.72408
1.72378
1.7241
1.72431
1.72384
1.72364
1.72347
1.72389
1.7243
1.72433
1.72387
1.72365
1.72334
1.72362
1.7241
1.72413
1.72369
1.72347
1.72313
1.72352
1.72398
1.72401
1.72358
1.72336
1.72304
1.72346
1.72384
1.72389
1.72365
1.72343
1.7231
1.72265
1.72286
1.72311
1.72362
1.72356
1.72317
1.72267
1.72297
1.7232
1.7235
1.72347
1.72295
1.72248
1.72283
1.72306
1.72338
1.72332
1.72288
1.72242
1.72273
1.72297
1.72332
1.72328
1.72289
1.72247
1.72284
1.72308
1.72257
1.72232
1.7221
1.7227
1.7231
1.72315
1.72269
1.72245
1.72215
1.72237
1.72292
1.72296
1.72249
1.72226
1.72192
1.7222
1.72273
1.72278
1.72234
1.7221
1.72174
1.72217
1.72264
1.72268
1.72222
1.72196
1.7216
1.72213
1.72253
1.72255
1.7223
1.72207
1.72172
1.72125
1.72147
1.72173
1.72226
1.7222
1.72176
1.72125
1.72159
1.72182
1.72214
1.72212
1.72156
1.72102
1.72141
1.72166
1.722
1.72196
1.72141
1.72092
1.72129
1.72155
1.72188
1.72183
1.72132
1.72084
1.7212
1.72146
1.7218
1.72175
1.7213
1.72104
1.72137
1.72158
1.72101
1.72077
1.72054
1.72104
1.72153
1.72157
1.72104
1.72078
1.72039
1.72078
1.72135
1.72138
1.72091
1.72065
1.72029
1.72056
1.72114
1.72119
1.72074
1.72048
1.7201
1.72054
1.72104
1.72108
1.72066
1.7204
1.72007
1.72049
1.72091
1.72096
1.72069
1.72041
1.72002
1.71963
1.71986
1.72012
1.72071
1.72069
1.72015
1.71959
1.71995
1.72022
1.72051
1.72046
1.71983
1.7194
1.71979
1.72006
1.72038
1.72032
1.71974
1.71929
1.71967
1.71994
1.72029
1.72023
1.71972
1.71923
1.71958
1.71986
1.72021
1.72017
1.71972
1.71931
1.7197
1.71995
1.71932
1.71902
1.71877
1.71935
1.71989
1.71992
1.71941
1.71912
1.71872
1.71903
1.71967
1.71972
1.71924
1.71897
1.71859
1.71887
1.7195
1.71955
1.71908
1.7188
1.71839
1.71883
1.71939
1.71944
1.71896
1.71867
1.71826
1.71886
1.71931
1.71934
1.71907
1.71878
1.71837
1.71794
1.71818
1.71846
1.71905
1.719
1.71843
1.71787
1.71827
1.71856
1.71886
1.71877
1.71818
1.71771
1.71811
1.71838
1.71875
1.7187
1.71811
1.71748
1.71793
1.71824
1.71864
1.71859
1.71806
1.71754
1.71792
1.7182
1.71853
1.71849
1.718
1.71752
1.71797
1.71826
1.71761
1.71731
1.71703
1.71767
1.71815
1.71823
1.71774
1.71745
1.71707
1.71733
1.718
1.71807
1.71758
1.71729
1.71686
1.7172
1.71787
1.71793
1.71743
1.71711
1.71667
1.71713
1.71768
1.71777
1.71733
1.71703
1.71666
1.71717
1.71766
1.71772
1.71744
1.71713
1.71667
1.71624
1.7165
1.71679
1.71743
1.71738
1.71673
1.7161
1.71657
1.71689
1.71724
1.71717
1.71647
1.71602
1.71646
1.71676
1.71712
1.71704
1.71629
1.71582
1.71628
1.7166
1.71699
1.71691
1.7162
1.71573
1.71618
1.71651
1.71682
1.71672
1.71614
1.71558
1.71601
1.71634
1.71675
1.7167
1.71618
1.71569
1.71619
1.71648
1.71583
1.71552
1.71525
1.71572
1.71627
1.71639
1.71592
1.71561
1.7152
1.71549
1.71624
1.71629
1.71574
1.71543
1.71494
1.71535
1.71607
1.71613
1.71562
1.71528
1.7148
1.71533
1.7159
1.71598
1.71551
1.71518
1.71478
1.71527
1.71581
1.71587
1.71559
1.71526
1.71474
1.71423
1.71454
1.71488
1.71559
1.71555
1.71486
1.71421
1.71471
1.71505
1.71536
1.71526
1.71464
1.71404
1.7145
1.71484
1.71517
1.71508
1.71432
1.71379
1.7143
1.71464
1.71507
1.71501
1.71432
1.71373
1.71421
1.71456
1.71496
1.71488
1.7143
1.71381
1.71433
1.71468
1.71396
1.71363
1.71332
1.71394
1.71459
1.71466
1.71411
1.71375
1.71326
1.71363
1.71445
1.7145
1.71397
1.71364
1.71316
1.71341
1.71424
1.71431
1.71377
1.71342
1.7129
1.71341
1.71412
1.71418
1.71362
1.71327
1.71274
1.71347
1.71404
1.71409
1.71378
1.71341
1.71287
1.71237
1.71266
1.71303
1.71371
1.71365
1.7129
1.71223
1.71277
1.71313
1.71352
1.71347
1.71262
1.71201
1.71258
1.71294
1.71336
1.71331
1.71253
1.71179
1.71235
1.71275
1.71309
1.713
1.71226
1.71162
1.71217
1.71257
1.71308
1.71303
1.71243
1.71189
1.71245
1.71281
1.71202
1.71162
1.71129
1.71197
1.71271
1.71276
1.71217
1.71176
1.71121
1.71169
1.71243
1.71253
1.71196
1.7116
1.71107
1.71148
1.71231
1.71238
1.7118
1.7114
1.71082
1.71141
1.71214
1.71222
1.71168
1.7113
1.71081
1.71137
1.71199
1.71206
1.71172
1.71132
1.7107
1.71019
1.71055
1.71093
1.7117
1.71165
1.71088
1.71004
1.71064
1.71105
1.71147
1.71142
1.71057
1.70985
1.71045
1.71085
1.71117
1.71106
1.71034
1.70965
1.7102
1.71058
1.71087
1.71072
1.70994
1.70937
1.70993
1.71031
1.71084
1.71076
1.71005
1.70961
1.71021
1.71057
1.70972
1.70927
1.70882
1.70965
1.71044
1.71052
1.70992
1.70947
1.70886
1.70943
1.71028
1.71033
1.70966
1.70923
1.70859
1.70921
1.71006
1.71012
1.70952
1.70909
1.70851
1.70906
1.70976
1.70988
1.70931
1.70893
1.70843
1.70899
1.70967
1.70975
1.70943
1.70906
1.70846
1.70768
1.70808
1.70854
1.70922
1.70908
1.7084
1.70759
1.70817
1.70861
1.70902
1.70896
1.70807
1.70728
1.70793
1.70835
1.70874
1.70865
1.70789
1.70711
1.70769
1.7081
1.70842
1.70834
1.70765
1.70671
1.70751
1.70798
1.70714
1.7067
1.70625
1.707
1.70773
1.70787
1.70725
1.7068
1.70619
1.70675
1.70759
1.70769
1.70708
1.70666
1.70605
1.70644
1.70742
1.7075
1.70683
1.7064
1.70573
1.70636
1.70714
1.70726
1.70663
1.70619
1.7056
1.70628
1.707
1.70707
1.70668
1.70628
1.70559
1.70475
1.70522
1.70569
1.7065
1.70638
1.70567
1.70479
1.70538
1.70584
1.70615
1.70605
1.70519
1.70436
1.70502
1.70544
1.70581
1.70571
1.70486
1.70409
1.70471
1.70515
1.7055
1.70547
1.70472
1.7039
1.70463
1.70506
1.70391
1.70347
1.70301
1.70373
1.70455
1.70464
1.7038
1.70327
1.70248
1.70309
1.704
1.70418
1.70353
1.70311
1.70243
1.70303
1.70394
1.70406
1.70344
1.70298
1.70233
1.70304
1.70384
1.70392
1.7035
1.70306
1.70227
1.70136
1.70189
1.7024
1.70328
1.70315
1.70237
1.70145
1.70209
1.70259
1.70292
1.70279
1.70186
1.701
1.70171
1.70217
1.70253
1.70241
1.70148
1.70069
1.70137
1.70184
1.70221
1.70216
1.70133
1.70049
1.70131
1.70174
1.70051
1.70003
1.69947
1.70043
1.70125
1.70138
1.70061
1.70013
1.69945
1.69982
1.70085
1.70093
1.69998
1.69956
1.69872
1.69938
1.70029
1.70036
1.69954
1.6991
1.69836
1.6982
1.69924
1.69953
1.69903
1.6985
1.69752
1.69704
1.69764
1.69815
1.69908
1.69891
1.69799
1.69716
1.69786
1.69837
1.69881
1.69869
1.69774
1.69669
1.69749
1.698
1.69845
1.69838
1.69746
1.69661
1.69753
1.698
1.69673
1.69619
1.6956
1.6966
1.69749
1.69763
1.6968
1.69626
1.69551
1.69601
1.69703
1.69716
1.69627
1.69578
1.69497
1.69552
1.69655
1.69667
1.69585
1.69538
1.69464
1.69506
1.69605
1.69616
1.69563
1.6951
1.69424
1.69323
1.69378
1.69426
1.69505
1.69488
1.6939
1.69288
1.69367
1.69418
1.69435
1.69424
1.69314
1.69177
1.69274
1.69327
1.69345
1.69314
1.69196
1.69115
1.6923
1.69292
1.6918
1.69113
1.69037
1.69172
1.69273
1.6929
1.69208
1.69149
1.69063
1.69137
1.69248
1.69261
1.69174
1.69115
1.69029
1.69095
1.692
1.69212
1.69158
1.69102
1.68997
1.68883
1.68951
1.69012
1.6911
1.69094
1.68994
1.68876
1.6896
1.69021
1.69058
1.69045
1.68931
1.68809
1.68902
1.68954
1.68992
1.68979
1.68863
1.68751
1.6884
1.68892
1.68921
1.68913
1.68806
1.68708
1.68803
1.68861
1.68693
1.6864
1.68581
1.68664
1.68765
1.68782
1.68676
1.68623
1.68534
1.68564
1.68671
1.68682
1.68534
1.68447
1.6831
1.68447
1.68566
1.68591
1.68554
1.68497
1.68378
1.68296
1.68373
1.68438
1.68536
1.68518
1.68411
1.68302
1.6839
1.68453
1.685
1.68489
1.68375
1.68274
1.68387
1.68444
1.68275
1.68206
1.68127
1.68248
1.68358
1.68377
1.68273
1.68208
1.6811
1.68185
1.68309
1.68323
1.68217
1.68157
1.68058
1.68114
1.68236
1.68244
1.68174
1.68106
1.67995
1.67867
1.67937
1.67994
1.68082
1.68061
1.67944
1.67809
1.67908
1.67967
1.68
1.67988
1.67853
1.67699
1.67809
1.67869
1.67866
1.67852
1.6773
1.67567
1.67697
1.67767
1.67513
1.67391
1.67265
1.67478
1.67601
1.67639
1.67559
1.67496
1.67388
1.67513
1.67643
1.67658
1.67603
1.67532
1.67398
1.67261
1.67344
1.67426
1.67532
1.67505
1.6738
1.67247
1.67351
1.67424
1.67473
1.67455
1.67308
1.67172
1.67286
1.67354
1.67383
1.67371
1.67231
1.6712
1.67241
1.67311
1.6709
1.67017
1.66928
1.67063
1.67191
1.67214
1.67098
1.67027
1.66923
1.66951
1.67097
1.67112
1.67014
1.6694
1.66803
1.66597
1.66688
1.66768
1.66877
1.66859
1.66722
1.66557
1.6668
1.66745
1.66672
1.66645
1.66495
1.66132
1.66372
1.66507
1.66326
1.66225
1.66079
1.66302
1.66466
1.66496
1.66412
1.6633
1.66208
1.66312
1.66468
1.66487
1.66412
1.66323
1.66153
1.66
1.66103
1.66189
1.66318
1.66287
1.66136
1.65971
1.66099
1.66181
1.66234
1.66211
1.66033
1.65868
1.66003
1.66081
1.66114
1.66102
1.65943
1.65766
1.65925
1.66008
1.65767
1.6568
1.65579
1.65701
1.65844
1.65862
1.65787
1.6569
1.65552
1.65326
1.65417
1.655
1.65579
1.6555
1.65377
1.65161
1.65308
1.65397
1.65322
1.65292
1.6513
1.64645
1.64944
1.65113
1.64872
1.64738
1.64553
1.64849
1.65046
1.65083
1.64994
1.64897
1.64755
1.64855
1.65046
1.65074
1.64993
1.64895
1.64694
1.64491
1.64622
1.64725
1.64882
1.64846
1.64668
1.64479
1.64628
1.64734
1.64768
1.6475
1.64567
1.64366
1.64553
1.64652
1.64328
1.6423
1.64111
1.64275
1.64448
1.64483
1.64319
1.64216
1.64058
1.64114
1.64306
1.64323
1.64173
1.64082
1.63908
1.63591
1.63726
1.63822
1.63877
1.63843
1.63676
1.63478
1.63657
1.63752
1.6322
1.62979
1.62736
1.63015
1.63256
1.63359
1.63244
1.63126
1.62936
1.63152
1.6338
1.6343
1.63366
1.63263
1.63003
1.6281
1.62964
1.63114
1.63256
1.63212
1.63
1.62824
1.6305
1.63173
1.62839
1.62708
1.62572
1.62718
1.62941
1.62994
1.62804
1.62682
1.62504
1.62572
1.62799
1.62829
1.62658
1.62536
1.62305
1.62017
1.6217
1.62291
1.62388
1.62358
1.62147
1.61926
1.62138
1.6226
1.61816
1.61697
1.61561
1.61483
1.61699
1.61765
1.61461
1.61186
1.60724
1.60632
1.60916
1.61122
1.61442
1.61379
1.61096
1.60972
1.61189
1.6133
1.6147
1.61423
1.61155
1.60973
1.61269
1.61393
1.6105
1.60871
1.60695
1.60888
1.61136
1.61191
1.61098
1.6096
1.60695
1.60349
1.60516
1.60696
1.60807
1.60753
1.60509
1.6028
1.60522
1.60679
1.60219
1.60069
1.59908
1.59972
1.60225
1.60288
1.60068
1.59923
1.59637
1.59052
1.59293
1.59497
1.59262
1.59005
1.58579
1.58298
1.58809
1.59086
1.58858
1.5862
1.58347
1.58844
1.59138
1.59219
1.59184
1.59033
1.58659
1.58439
1.58662
1.58869
1.59056
1.58983
1.58683
1.58446
1.58758
1.5895
1.58486
1.58299
1.58108
1.58254
1.58552
1.58623
1.5846
1.58263
1.57965
1.57519
1.5772
1.57912
1.57994
1.57915
1.5763
1.57272
1.57574
1.57781
1.57031
1.56794
1.56494
1.55679
1.56263
1.56627
1.56449
1.5608
1.55514
1.55699
1.55982
1.56251
1.56755
1.56666
1.56296
1.562
1.56598
1.56757
1.56596
1.56351
1.55932
1.55613
1.55877
1.56141
1.56328
1.5623
1.55859
1.55569
1.55937
1.56174
1.55538
1.55318
1.55064
1.55162
1.55519
1.55634
1.55375
1.5512
1.54712
1.53864
1.54214
1.54521
1.54038
1.53612
1.52934
1.52655
1.53351
1.5378
1.53693