/*--------------------------------*- C++ -*----------------------------------*\
| =========                 |                                                 |
| \\      /  F ield         | OpenFOAM: The Open Source CFD Toolbox           |
|  \\    /   O peration     | Version:  v2006                                 |
|   \\  /    A nd           | Website:  www.openfoam.com                      |
|    \\/     M anipulation  |                                                 |
\*---------------------------------------------------------------------------*/
FoamFile
{
    version     2.0;
    format      ascii;
    class       volScalarField;
    location    "0.015";
    object      turbulenceProperties:L;
}
// * * * * * * * * * * * * * * * * * * * * * * * * * * * * * * * * * * * * * //

dimensions      [0 1 0 0 0 0 0];


internalField   nonuniform List<scalar> 
23013
(
814.32
760.651
1449.98
1503.18
1597.68
1729.85
1884.78
1694.82
976.618
366.92
160.976
83.5572
49.3644
32.267
23.1618
18.0139
14.852
12.7313
11.2035
10.0476
9.14423
8.42227
7.83545
7.3527
6.95243
6.61918
6.34099
6.10833
5.91366
5.75079
5.61443
5.5002
5.40451
5.32454
5.25801
5.20297
5.15787
5.12146
5.09281
5.07123
5.05634
5.04803
5.04655
5.05181
5.06364
5.08222
5.10879
5.14514
5.19364
5.25638
5.33615
5.43525
5.5599
5.71032
5.8984
6.10869
6.37075
6.65133
6.73744
6.34313
6.40543
6.70342
7.46382
8.48203
8.54161
8.50103
8.44818
8.40382
8.37826
8.37741
8.40712
8.47112
8.57519
8.72561
8.92668
9.18208
9.49557
9.87031
10.309
10.8183
11.4198
12.1501
13.044
14.1831
15.663
17.773
19.7022
21.4972
23.3407
25.1435
26.8355
28.1383
28.4658
27.8035
26.6089
25.2936
24.1838
23.4609
23.2064
23.4749
24.2883
25.5269
26.7331
26.9419
25.3305
22.5561
20.7432
21.6143
25.067
26.4523
23.5746
17.778
11.9223
6.93006
3.25047
2.40145
2.39416
0.508843
0.146565
0.0252284
0.00286742
0.000526161
3.94334e-05
3.71832e-05
0.00025677
0.00114362
0.000600766
0.000166923
3.47697e-05
3.29928e-05
0.000159742
0.000542839
0.000425713
0.000137934
3.19676e-05
3.08979e-05
0.000135557
0.000411899
0.000358282
0.00012376
3.00811e-05
2.95498e-05
0.000125623
0.000355615
0.00032604
0.000118258
2.91563e-05
2.89865e-05
0.000122563
0.000329387
0.000310616
0.00011745
2.87828e-05
2.8685e-05
0.000121312
0.000315121
0.000302957
0.00011699
2.85179e-05
2.84546e-05
0.000120798
0.000308001
0.000297975
0.000116702
2.83078e-05
2.82616e-05
0.000120414
0.000303164
0.000293845
0.000116314
2.81281e-05
2.80902e-05
0.000119858
0.000298852
0.000289525
0.00011566
2.79659e-05
2.79334e-05
0.000119045
0.000294273
0.000284982
0.000114828
2.78151e-05
2.77868e-05
0.000118127
0.000289577
0.000280636
0.000113994
2.76728e-05
2.76473e-05
0.000117255
0.000285193
0.000276707
0.00011322
2.7534e-05
2.75089e-05
0.00011645
0.000281268
0.000273083
0.000112466
2.7392e-05
2.73664e-05
0.000115652
0.000277693
0.000269742
0.00011168
2.72527e-05
2.7236e-05
0.000114794
0.00027437
0.000266556
0.000110816
2.71428e-05
2.713e-05
0.000113846
0.000271136
0.000263375
0.000109875
2.70372e-05
2.70226e-05
0.000112845
0.00026788
0.000260132
0.000108892
2.69261e-05
2.69105e-05
0.00011181
0.000264563
0.000256843
0.000107885
2.68113e-05
2.6795e-05
0.000110751
0.000261213
0.000253569
0.000106874
2.6694e-05
2.66773e-05
0.000109693
0.000257871
0.000250321
0.000105875
2.65751e-05
2.6558e-05
0.000108642
0.000254514
0.000247052
0.000104881
2.64545e-05
2.64367e-05
0.000107591
0.00025111
0.000243731
0.000103882
2.6331e-05
2.6312e-05
0.000106531
0.000247655
0.000240352
0.000102867
2.6203e-05
2.61823e-05
0.000105454
0.000244157
0.000236929
0.000101832
2.60692e-05
2.60466e-05
0.00010436
0.000240641
0.000233494
0.000100783
2.5929e-05
2.59046e-05
0.000103257
0.000237134
0.000230068
9.97246e-05
2.57823e-05
2.57564e-05
0.000102143
0.00023364
0.000226641
9.86466e-05
2.56291e-05
2.56017e-05
0.000101007
0.000230123
0.00022316
9.75438e-05
2.54696e-05
2.54411e-05
9.98537e-05
0.000226545
0.000219621
9.64342e-05
2.53053e-05
2.52767e-05
9.87024e-05
0.000222904
0.000216049
9.53471e-05
2.51391e-05
2.51113e-05
9.75858e-05
0.000219253
0.000212558
9.43192e-05
2.49733e-05
2.49468e-05
9.65421e-05
0.000215743
0.000209307
9.3377e-05
2.48091e-05
2.4784e-05
9.55936e-05
0.000212524
0.000206363
9.25239e-05
2.46468e-05
2.46233e-05
9.47366e-05
0.000209594
0.000203644
9.17543e-05
2.44873e-05
2.44661e-05
9.39654e-05
0.000206835
0.000201083
9.10824e-05
2.43324e-05
2.43139e-05
9.33013e-05
0.00020424
0.000198803
9.0534e-05
2.41831e-05
2.41672e-05
9.27715e-05
0.00020201
0.000196997
9.01175e-05
2.40386e-05
2.40249e-05
9.23809e-05
0.000200352
0.000195724
8.98155e-05
2.38974e-05
2.38861e-05
9.20987e-05
0.000199175
0.000194755
8.95918e-05
2.37594e-05
2.37509e-05
9.18908e-05
0.000198221
0.000193941
8.94375e-05
2.36258e-05
2.36212e-05
9.17604e-05
0.000197448
0.000193356
8.93688e-05
2.34992e-05
2.34996e-05
9.17248e-05
0.000196978
0.000193098
8.9397e-05
2.33836e-05
2.33894e-05
9.17897e-05
0.000196858
0.000193147
8.95266e-05
2.32822e-05
2.32955e-05
9.19613e-05
0.000197035
0.000193485
8.97733e-05
2.32012e-05
2.32242e-05
9.22621e-05
0.000197567
0.000194224
9.0165e-05
2.31478e-05
2.31827e-05
9.27227e-05
0.000198706
0.00019548
9.07263e-05
2.31291e-05
2.31778e-05
9.33558e-05
0.000200324
0.000197213
9.14568e-05
2.31438e-05
2.32251e-05
9.41547e-05
0.000202465
0.00019946
9.23558e-05
2.32032e-05
2.33149e-05
9.51071e-05
0.000205133
0.00020218
9.33855e-05
2.33055e-05
2.34449e-05
9.61368e-05
0.000208256
0.00020522
9.44248e-05
2.34485e-05
2.3608e-05
9.71494e-05
0.000211634
0.000208451
9.52356e-05
2.36276e-05
2.38013e-05
9.79523e-05
0.000215064
0.000211594
9.58514e-05
2.38328e-05
2.40131e-05
9.85537e-05
0.000218227
0.000214405
9.62776e-05
2.40542e-05
2.42365e-05
9.89367e-05
0.000220925
0.000216777
9.65242e-05
2.42848e-05
2.44654e-05
9.91048e-05
0.000223072
0.000218664
9.65751e-05
2.45181e-05
2.46933e-05
9.90651e-05
0.000224648
0.000220038
9.64384e-05
2.47479e-05
2.49148e-05
9.88475e-05
0.000225671
0.000220896
9.61352e-05
2.49691e-05
2.51253e-05
9.84634e-05
0.000226167
0.000221255
9.57058e-05
2.51786e-05
2.53241e-05
9.79553e-05
0.000226263
0.000221165
9.51807e-05
2.53755e-05
2.55103e-05
9.73583e-05
0.000225983
0.000220699
9.4514e-05
2.55594e-05
2.56833e-05
9.66506e-05
0.000225336
0.00021996
9.37753e-05
2.57292e-05
2.58428e-05
9.59e-05
0.000224463
0.000219047
9.30269e-05
2.58856e-05
2.59898e-05
9.51538e-05
0.000223456
0.000217942
9.23036e-05
2.60295e-05
2.61251e-05
9.4445e-05
0.000222255
0.000216672
9.16387e-05
2.61615e-05
2.62486e-05
9.38015e-05
0.000220933
0.000215246
9.10458e-05
2.62818e-05
2.63614e-05
9.32412e-05
0.000219617
0.000213878
9.05485e-05
2.63915e-05
2.64648e-05
9.28004e-05
0.000218451
0.000212769
9.01778e-05
2.64919e-05
2.65594e-05
9.24995e-05
0.000217597
0.000211883
8.99278e-05
2.6583e-05
2.66442e-05
9.22864e-05
0.000216797
0.000210996
8.97412e-05
2.66637e-05
2.67179e-05
9.21069e-05
0.000215899
0.000210012
8.95774e-05
2.67329e-05
2.67797e-05
9.19325e-05
0.000214839
0.000208886
8.94148e-05
2.67898e-05
2.68289e-05
9.17467e-05
0.000213593
0.000207632
8.92405e-05
2.6834e-05
2.68649e-05
9.15392e-05
0.000212196
0.000206262
8.90446e-05
2.68651e-05
2.68871e-05
9.13009e-05
0.000210654
0.000204758
8.88177e-05
2.68837e-05
2.68979e-05
9.10228e-05
0.000208943
0.000203095
8.85496e-05
2.6891e-05
2.68988e-05
9.06924e-05
0.000207033
0.000201268
8.8229e-05
2.68854e-05
2.68899e-05
9.03017e-05
0.000204986
0.000199359
8.78622e-05
2.68694e-05
2.68718e-05
8.98753e-05
0.000202889
0.000197371
8.74636e-05
2.68454e-05
2.68456e-05
8.94063e-05
0.000200645
0.000195186
8.70107e-05
2.68133e-05
2.68115e-05
8.88857e-05
0.000198306
0.000192966
8.65147e-05
2.67749e-05
2.67722e-05
8.83597e-05
0.000196002
0.000190804
8.6027e-05
2.6733e-05
2.673e-05
8.78511e-05
0.000193787
0.000188707
8.55579e-05
2.66889e-05
2.66858e-05
8.73598e-05
0.000191638
0.000186652
8.50982e-05
2.66431e-05
2.664e-05
8.687e-05
0.000189523
0.000184618
8.46313e-05
2.65958e-05
2.65926e-05
8.63653e-05
0.000187407
0.000182537
8.41428e-05
2.6547e-05
2.6544e-05
8.58406e-05
0.000185218
0.000180335
8.363e-05
2.64975e-05
2.64947e-05
8.53029e-05
0.000182949
0.0001781
8.30948e-05
2.64478e-05
2.64459e-05
8.47543e-05
0.000180686
0.000175935
8.25741e-05
2.63998e-05
2.63991e-05
8.42327e-05
0.000178531
0.000173933
8.21014e-05
2.63553e-05
2.63558e-05
8.37656e-05
0.000176557
0.000172139
8.1691e-05
2.63147e-05
2.63164e-05
8.33634e-05
0.000174792
0.000170554
8.13459e-05
2.6278e-05
2.62807e-05
8.30245e-05
0.000173229
0.000169161
8.10591e-05
2.62446e-05
2.62479e-05
8.2743e-05
0.000171847
0.000167933
8.08246e-05
2.62138e-05
2.62178e-05
8.25153e-05
0.000170624
0.000166861
8.06444e-05
2.61862e-05
2.61913e-05
8.23453e-05
0.000169565
0.00016596
8.05188e-05
2.61614e-05
2.61674e-05
8.22327e-05
0.000168714
0.000165231
8.04258e-05
2.61385e-05
2.61445e-05
8.21494e-05
0.000168024
0.000164616
8.0354e-05
2.6116e-05
2.61242e-05
8.2089e-05
0.000167439
0.000164109
8.03154e-05
2.60988e-05
2.61083e-05
8.20458e-05
0.000166948
0.000163635
8.02758e-05
2.60783e-05
2.60812e-05
8.19862e-05
0.000166433
0.000163144
8.02094e-05
2.60476e-05
2.60522e-05
8.19241e-05
0.000165932
0.000162684
8.01488e-05
2.60202e-05
2.60257e-05
8.18588e-05
0.000165462
0.000162229
8.00823e-05
2.59937e-05
2.59991e-05
8.17888e-05
0.000165017
0.00016151
7.98931e-05
2.59601e-05
2.59764e-05
8.15198e-05
0.000164551
0.000160969
8.00884e-05
2.60111e-05
2.62877e-05
8.26832e-05
0.000166409
0.000162778
8.17937e-05
2.66079e-05
2.77774e-05
8.56199e-05
0.000173588
0.000187467
9.10781e-05
2.91505e-05
3.02496e-05
9.15144e-05
0.000186905
0.000195333
9.60406e-05
3.09914e-05
3.17926e-05
9.70593e-05
0.000197506
0.000482297
0.000902302
0.00132808
0.00156826
0.00227927
0.00262401
0.00293014
0.00303817
0.00301764
0.00290558
0.00262661
0.00234124
0.00173709
0.00150096
0.00113398
0.000836629
0.000765864
0.000473726
0.000230626
9.65064e-05
4.47218e-05
1.22445e-05
1.15841e-05
4.37888e-05
9.3989e-05
8.63966e-05
4.05371e-05
1.08144e-05
1.03025e-05
3.97256e-05
8.45413e-05
8.46394e-05
3.96604e-05
1.01746e-05
9.88956e-06
3.8345e-05
8.14562e-05
8.23063e-05
3.84911e-05
9.71428e-06
9.56727e-06
3.76734e-05
8.01345e-05
8.06092e-05
3.78164e-05
9.50791e-06
9.38395e-06
3.71866e-05
7.91058e-05
8.00805e-05
3.75014e-05
9.38626e-06
9.4001e-06
3.73439e-05
7.95234e-05
8.05281e-05
3.74982e-05
9.40075e-06
9.40345e-06
3.71726e-05
7.93189e-05
8.03433e-05
3.74595e-05
9.4097e-06
9.41152e-06
3.7346e-05
7.95055e-05
8.09243e-05
3.75653e-05
9.4165e-06
9.41785e-06
3.72305e-05
7.96243e-05
8.06423e-05
3.75161e-05
9.42417e-06
9.42583e-06
3.74021e-05
7.9795e-05
8.12222e-05
3.76217e-05
9.43053e-06
9.43168e-06
3.72859e-05
7.99097e-05
8.09325e-05
3.75717e-05
9.43767e-06
9.43908e-06
3.74574e-05
8.00763e-05
8.15116e-05
3.76768e-05
9.44351e-06
9.44446e-06
3.734e-05
8.0187e-05
8.12146e-05
3.76258e-05
9.45019e-06
9.45144e-06
3.75117e-05
8.03501e-05
8.17937e-05
3.77307e-05
9.45577e-06
9.45669e-06
3.73936e-05
8.04582e-05
8.14917e-05
3.76791e-05
9.46257e-06
9.46401e-06
3.75671e-05
8.06207e-05
8.20753e-05
3.77852e-05
9.46893e-06
9.47024e-06
3.74504e-05
8.07304e-05
8.1772e-05
3.77352e-05
9.477e-06
9.47872e-06
3.7628e-05
8.08972e-05
8.23639e-05
3.78433e-05
9.48418e-06
9.48489e-06
3.75104e-05
8.10087e-05
8.20541e-05
3.7792e-05
9.49065e-06
9.49054e-06
3.7682e-05
8.11708e-05
8.26382e-05
3.78954e-05
9.4937e-06
9.49256e-06
3.75543e-05
8.12694e-05
8.23187e-05
3.78386e-05
9.49625e-06
9.49527e-06
3.77253e-05
8.14356e-05
8.29119e-05
3.79456e-05
9.49756e-06
9.49681e-06
3.76027e-05
8.15402e-05
8.26029e-05
3.78929e-05
9.50067e-06
9.50042e-06
3.77819e-05
8.17282e-05
8.32165e-05
3.80052e-05
9.50325e-06
9.50317e-06
3.76654e-05
8.18471e-05
8.29237e-05
3.7958e-05
9.50763e-06
9.50804e-06
3.78505e-05
8.20551e-05
8.35556e-05
3.80752e-05
9.51153e-06
9.51181e-06
3.77383e-05
8.21907e-05
8.32845e-05
3.80326e-05
9.5165e-06
9.51685e-06
3.79284e-05
8.24115e-05
8.39271e-05
3.8154e-05
9.52014e-06
9.52027e-06
3.78182e-05
8.25663e-05
8.36762e-05
3.81164e-05
9.52492e-06
9.52546e-06
3.80157e-05
8.27997e-05
8.43335e-05
3.82435e-05
9.52902e-06
9.52968e-06
3.79118e-05
8.29758e-05
8.41035e-05
3.82142e-05
9.53484e-06
9.5359e-06
3.81153e-05
8.3222e-05
8.47841e-05
3.83468e-05
9.54029e-06
9.54166e-06
3.80206e-05
8.34197e-05
8.45716e-05
3.83267e-05
9.54746e-06
9.54899e-06
3.82297e-05
8.36851e-05
8.52783e-05
3.84642e-05
9.55417e-06
9.55603e-06
3.81425e-05
8.39046e-05
8.50804e-05
3.84519e-05
9.56226e-06
9.56409e-06
3.83554e-05
8.41869e-05
8.58042e-05
3.85937e-05
9.56982e-06
9.57206e-06
3.82727e-05
8.44151e-05
8.56094e-05
3.8585e-05
9.57865e-06
9.58076e-06
3.84883e-05
8.47023e-05
8.63404e-05
3.87301e-05
9.58693e-06
9.58942e-06
3.84083e-05
8.49296e-05
8.61432e-05
3.87238e-05
9.59627e-06
9.59851e-06
3.86269e-05
8.52211e-05
8.68789e-05
3.88706e-05
9.60486e-06
9.60739e-06
3.8546e-05
8.5447e-05
8.66698e-05
3.88621e-05
9.61419e-06
9.61636e-06
3.87637e-05
8.57277e-05
8.73906e-05
3.90071e-05
9.62265e-06
9.62506e-06
3.86782e-05
8.59315e-05
8.71511e-05
3.89944e-05
9.63175e-06
9.63376e-06
3.88944e-05
8.61845e-05
8.78441e-05
3.91368e-05
9.63985e-06
9.642e-06
3.88018e-05
8.63577e-05
8.75638e-05
3.91163e-05
9.64832e-06
9.64997e-06
3.90143e-05
8.65717e-05
8.82275e-05
3.92527e-05
9.65553e-06
9.65716e-06
3.89096e-05
8.6706e-05
8.78968e-05
3.92196e-05
9.66264e-06
9.66354e-06
3.91146e-05
8.68797e-05
8.85216e-05
3.93449e-05
9.66787e-06
9.66833e-06
3.8988e-05
8.69581e-05
8.81184e-05
3.92875e-05
9.67219e-06
9.67112e-06
3.91773e-05
8.70572e-05
8.86659e-05
3.93905e-05
9.67346e-06
9.67115e-06
3.90053e-05
8.70478e-05
8.81587e-05
3.92815e-05
9.67304e-06
9.66839e-06
3.91601e-05
8.70365e-05
8.85848e-05
3.93409e-05
9.66822e-06
9.66164e-06
3.8914e-05
8.68996e-05
8.79469e-05
3.91552e-05
9.66105e-06
9.65012e-06
3.90083e-05
8.67547e-05
8.82301e-05
3.91401e-05
9.6473e-06
9.63442e-06
3.86499e-05
8.64586e-05
8.74268e-05
3.88305e-05
9.63112e-06
9.61189e-06
3.86401e-05
8.61271e-05
8.75044e-05
3.86941e-05
9.60397e-06
9.58226e-06
3.81199e-05
8.55756e-05
8.64587e-05
3.82478e-05
9.57341e-06
9.5435e-06
3.79352e-05
8.49868e-05
8.62799e-05
3.79342e-05
9.52966e-06
9.49675e-06
3.72376e-05
8.41648e-05
8.49665e-05
3.72973e-05
9.48181e-06
9.44182e-06
3.684e-05
8.33083e-05
8.45359e-05
3.67705e-05
9.42292e-06
9.38364e-06
3.59447e-05
8.22497e-05
8.30161e-05
3.59252e-05
9.36677e-06
9.33275e-06
3.53393e-05
8.12283e-05
8.24736e-05
3.52015e-05
9.32057e-06
9.30455e-06
3.43078e-05
8.00893e-05
8.09034e-05
3.42419e-05
9.30199e-06
9.29831e-06
3.35911e-05
7.90332e-05
8.0385e-05
3.34456e-05
9.31188e-06
9.3245e-06
3.25753e-05
7.79276e-05
7.87904e-05
3.25218e-05
9.3598e-06
9.39076e-06
3.18612e-05
7.68417e-05
7.84526e-05
3.18476e-05
9.44885e-06
9.50962e-06
3.10903e-05
7.603e-05
7.71394e-05
3.11212e-05
9.59803e-06
9.6911e-06
3.05606e-05
7.53647e-05
7.7287e-05
3.08097e-05
9.81318e-06
9.94428e-06
3.02229e-05
7.51231e-05
7.63844e-05
3.07256e-05
1.00111e-05
1.01478e-05
3.01136e-05
7.53222e-05
7.7088e-05
3.11615e-05
1.0302e-05
1.04523e-05
3.04832e-05
7.54546e-05
7.65777e-05
3.19389e-05
1.067e-05
1.08778e-05
3.1779e-05
7.50408e-05
7.60915e-05
3.34266e-05
1.11184e-05
1.15073e-05
3.38201e-05
7.48211e-05
7.74339e-05
3.75328e-05
1.23823e-05
8.08552e-06
3.95767e-05
7.85838e-05
3.12793e-05
1.27821e-05
4.20616e-06
6.03725e-06
2.51609e-05
6.54598e-05
5.9408e-05
2.32976e-05
6.85323e-06
7.41919e-06
2.54411e-05
6.59603e-05
6.45792e-05
2.53094e-05
7.64649e-06
7.90064e-06
2.54745e-05
6.81775e-05
6.80967e-05
2.64845e-05
8.22684e-06
8.56499e-06
2.64075e-05
7.05536e-05
7.17387e-05
2.75133e-05
8.9343e-06
9.37687e-06
2.78186e-05
7.45757e-05
7.50071e-05
2.92502e-05
9.85508e-06
1.02246e-05
2.94702e-05
7.70669e-05
7.88181e-05
3.12998e-05
1.06893e-05
1.10695e-05
3.15584e-05
7.96809e-05
8.10542e-05
3.29243e-05
1.14299e-05
1.1965e-05
3.42698e-05
8.17361e-05
8.25573e-05
3.61685e-05
1.26597e-05
1.34405e-05
3.92081e-05
8.45393e-05
8.35769e-05
4.01624e-05
8.60359e-06
4.72387e-06
1.2129e-05
3.05198e-05
6.8076e-05
2.50862e-05
6.83938e-06
7.58954e-06
2.27221e-05
6.17163e-05
6.44276e-05
2.3501e-05
7.864e-06
8.19747e-06
2.29763e-05
6.22363e-05
6.58904e-05
2.50209e-05
8.62526e-06
9.10518e-06
2.49671e-05
6.5241e-05
6.9375e-05
2.76045e-05
9.70531e-06
1.02666e-05
2.78297e-05
6.89299e-05
7.31888e-05
3.17822e-05
1.10987e-05
1.23888e-05
3.42206e-05
7.44322e-05
7.82173e-05
3.72306e-05
8.25705e-06
4.84678e-06
1.12838e-05
2.84517e-05
6.75925e-05
2.52453e-05
7.05607e-06
8.42009e-06
2.30106e-05
6.3671e-05
7.49549e-05
2.81446e-05
9.43308e-06
1.02032e-05
2.79141e-05
7.49558e-05
8.18631e-05
3.2406e-05
1.09691e-05
1.1732e-05
3.2637e-05
8.23556e-05
8.70406e-05
3.66526e-05
1.27561e-05
1.3838e-05
3.97326e-05
8.92486e-05
8.90024e-05
4.14542e-05
9.08749e-06
5.37083e-06
1.21776e-05
3.09242e-05
7.26927e-05
2.68383e-05
7.80551e-06
8.88866e-06
2.51303e-05
6.87359e-05
7.47634e-05
2.81112e-05
9.45649e-06
1.01843e-05
2.84023e-05
7.25158e-05
7.78073e-05
3.2825e-05
1.11387e-05
1.23895e-05
3.51531e-05
7.96236e-05
8.43639e-05
3.9151e-05
8.33114e-06
5.05893e-06
1.15176e-05
2.9462e-05
7.24955e-05
2.61294e-05
7.57089e-06
9.32133e-06
2.57757e-05
7.12509e-05
8.60977e-05
3.41543e-05
1.06362e-05
1.19493e-05
3.47202e-05
8.7593e-05
9.46206e-05
4.21739e-05
1.32887e-05
8.83172e-06
4.17432e-05
9.23914e-05
3.09921e-05
1.19695e-05
5.22973e-06
7.50157e-06
2.81444e-05
7.6481e-05
7.18384e-05
2.55859e-05
8.84625e-06
9.91053e-06
3.0475e-05
8.04483e-05
8.46562e-05
3.37169e-05
1.12008e-05
1.30292e-05
4.10294e-05
9.30213e-05
9.51708e-05
4.3499e-05
9.12987e-06
5.74084e-06
1.31325e-05
3.3619e-05
8.2777e-05
3.14314e-05
8.57277e-06
1.0816e-05
3.27247e-05
8.51349e-05
0.000101559
4.3937e-05
1.29612e-05
8.93028e-06
4.38447e-05
9.79061e-05
3.38576e-05
1.26858e-05
5.38575e-06
8.08278e-06
3.2342e-05
8.40589e-05
8.30001e-05
3.13059e-05
9.94219e-06
1.19263e-05
4.05658e-05
9.78622e-05
9.87813e-05
4.5463e-05
8.48486e-06
5.29933e-06
1.31597e-05
3.54685e-05
9.19544e-05
3.28576e-05
8.40799e-06
1.10037e-05
3.65965e-05
9.73235e-05
0.000119767
5.22167e-05
1.33042e-05
9.55957e-06
5.19372e-05
0.000113102
4.16092e-05
1.52134e-05
6.01069e-06
9.40621e-06
4.21956e-05
0.000104637
0.000108796
4.42284e-05
1.2565e-05
9.50067e-06
5.71927e-05
0.000118825
4.682e-05
1.66164e-05
6.12396e-06
1.03489e-05
5.17558e-05
0.000121144
0.000118678
5.15183e-05
8.1569e-06
5.26825e-06
1.49927e-05
4.61962e-05
0.000129571
5.01959e-05
9.35045e-06
1.36284e-05
5.42754e-05
0.00014392
0.000163875
7.81707e-05
1.11343e-05
7.76885e-06
2.51099e-05
7.01494e-05
0.000153951
7.06843e-05
7.58129e-06
5.4979e-06
1.98631e-05
6.57887e-05
0.000205735
7.37204e-05
1.21796e-05
1.17982e-05
9.30847e-05
0.000230048
0.000126244
4.45601e-05
1.13028e-05
1.60501e-05
0.000142747
0.000437512
0.00027532
9.74084e-05
1.12435e-05
8.71339e-06
8.35605e-05
0.000238783
0.000230754
8.09064e-05
8.79992e-06
9.95365e-06
8.48828e-05
0.000240522
0.000270808
9.61735e-05
1.19986e-05
1.63599e-05
0.000162561
0.000423856
0.000113011
3.98094e-05
1.22076e-05
1.08977e-05
9.30198e-05
0.000219184
7.74833e-05
3.0811e-05
9.41295e-06
1.00283e-05
8.07204e-05
0.000164143
6.96096e-05
2.62641e-05
9.62939e-06
1.12759e-05
6.74927e-05
0.000146037
0.000130935
5.29204e-05
1.22447e-05
6.29739e-06
1.55356e-05
4.4728e-05
9.64807e-05
6.13341e-05
7.72842e-06
7.99492e-06
1.98272e-05
4.9166e-05
0.00011078
5.24194e-05
1.02835e-05
1.19096e-05
4.37184e-05
0.00010259
3.89634e-05
1.5016e-05
6.43256e-06
8.44788e-06
4.33594e-05
9.13349e-05
8.81758e-05
3.90395e-05
1.044e-05
5.93786e-06
1.3785e-05
3.4934e-05
8.37612e-05
4.00595e-05
7.8168e-06
9.75196e-06
3.61538e-05
7.97777e-05
3.1513e-05
1.27175e-05
5.67771e-06
7.44879e-06
3.58387e-05
7.46198e-05
7.10644e-05
3.26396e-05
9.21103e-06
5.11329e-06
1.09761e-05
2.72764e-05
6.15457e-05
4.36664e-05
6.40093e-06
7.33916e-06
1.50512e-05
3.39933e-05
7.96453e-05
4.21182e-05
9.58263e-06
1.22866e-05
3.29018e-05
6.93856e-05
6.09622e-05
2.71419e-05
8.54386e-06
5.00682e-06
1.01671e-05
2.48844e-05
5.9675e-05
2.92283e-05
6.81469e-06
9.08313e-06
2.71942e-05
5.83259e-05
2.47982e-05
1.08727e-05
5.41851e-06
6.94199e-06
2.94475e-05
5.75215e-05
5.59596e-05
2.74139e-05
9.03735e-06
5.46169e-06
1.07615e-05
2.45823e-05
5.66202e-05
2.89326e-05
7.02635e-06
9.15113e-06
2.68455e-05
5.45724e-05
2.40637e-05
1.07406e-05
5.49911e-06
7.05923e-06
2.81198e-05
5.37571e-05
5.26097e-05
2.65101e-05
9.24838e-06
5.57213e-06
1.06571e-05
2.35232e-05
5.25897e-05
2.75841e-05
7.08776e-06
9.39241e-06
2.63304e-05
5.09729e-05
2.32247e-05
1.05982e-05
5.70286e-06
7.11429e-06
2.69243e-05
4.99708e-05
4.913e-05
2.57909e-05
9.4106e-06
5.75835e-06
1.06488e-05
2.28606e-05
4.93298e-05
2.69927e-05
7.27293e-06
9.58865e-06
2.57865e-05
4.812e-05
2.2784e-05
1.07693e-05
5.88827e-06
7.36868e-06
2.62778e-05
4.74449e-05
4.69039e-05
2.57474e-05
9.75557e-06
6.05227e-06
1.09109e-05
2.28023e-05
4.73916e-05
2.6373e-05
7.4836e-06
9.82454e-06
2.56906e-05
4.64923e-05
2.26484e-05
1.08311e-05
6.02622e-06
7.45157e-06
2.5314e-05
4.53139e-05
4.50135e-05
2.47243e-05
9.85449e-06
6.11142e-06
1.08595e-05
2.22291e-05
4.49103e-05
2.52385e-05
7.54697e-06
9.92858e-06
2.44004e-05
4.43462e-05
2.18642e-05
1.09598e-05
6.1349e-06
7.62794e-06
2.47096e-05
4.26401e-05
4.26184e-05
2.37303e-05
1.0099e-05
6.26396e-06
1.09878e-05
2.13489e-05
4.20499e-05
2.45372e-05
7.70487e-06
1.0107e-05
2.30502e-05
4.16696e-05
2.10138e-05
1.10231e-05
6.16643e-06
7.56017e-06
2.36339e-05
4.02383e-05
4.02172e-05
2.24705e-05
9.93558e-06
6.15859e-06
1.09237e-05
2.04458e-05
3.96976e-05
2.33449e-05
7.66242e-06
1.01407e-05
2.19763e-05
3.88649e-05
2.00229e-05
1.0989e-05
6.27958e-06
7.61222e-06
2.27114e-05
3.84733e-05
3.76951e-05
2.15436e-05
1.00968e-05
6.20616e-06
1.08714e-05
1.96274e-05
3.80874e-05
2.27095e-05
7.61617e-06
1.00858e-05
2.1139e-05
3.67528e-05
1.92937e-05
1.09406e-05
6.22597e-06
7.56525e-06
2.19684e-05
3.67696e-05
3.55478e-05
2.05847e-05
9.89546e-06
6.13724e-06
1.07769e-05
1.88647e-05
3.63075e-05
2.172e-05
7.51646e-06
9.86843e-06
2.00722e-05
3.46466e-05
1.836e-05
1.07102e-05
6.04667e-06
7.33022e-06
2.08465e-05
3.46993e-05
3.33887e-05
1.95054e-05
9.6902e-06
6.01506e-06
1.05524e-05
1.77786e-05
3.39881e-05
2.05577e-05
7.29808e-06
9.62349e-06
1.90255e-05
3.23972e-05
1.71726e-05
1.03128e-05
5.85544e-06
7.02474e-06
1.94889e-05
3.22038e-05
3.09564e-05
1.83284e-05
9.3561e-06
5.70348e-06
1.00404e-05
1.64989e-05
3.11582e-05
1.89939e-05
6.85515e-06
9.03184e-06
1.76175e-05
2.98956e-05
1.55004e-05
9.3464e-06
5.32162e-06
5.98892e-06
2.11905e-05
2.66513e-05
1.73943e-05
1.0908e-05
7.28893e-06
8.4196e-06
2.06938e-05
3.36551e-05
3.17374e-05
1.88561e-05
1.07239e-05
6.43129e-06
1.10599e-05
1.75002e-05
3.27577e-05
2.05597e-05
7.63216e-06
1.00559e-05
1.90599e-05
3.13704e-05
1.70133e-05
1.0652e-05
6.11866e-06
7.31675e-06
1.95216e-05
3.12882e-05
2.98621e-05
1.78923e-05
9.56887e-06
5.60537e-06
9.69252e-06
1.57016e-05
2.66974e-05
2.13662e-05
6.15656e-06
7.4814e-06
1.11684e-05
1.75377e-05
3.28862e-05
2.06315e-05
8.68573e-06
1.09059e-05
1.88029e-05
3.07596e-05
1.73192e-05
1.1297e-05
6.51949e-06
7.68436e-06
1.99181e-05
3.09626e-05
2.97888e-05
1.84955e-05
9.98795e-06
6.13621e-06
1.0656e-05
1.6586e-05
2.98696e-05
1.88467e-05
7.29164e-06
9.49636e-06
1.74667e-05
2.88113e-05
1.53363e-05
9.67697e-06
5.61747e-06
6.14762e-06
2.07746e-05
2.55481e-05
1.68841e-05
1.10381e-05
7.40814e-06
8.60618e-06
1.97492e-05
3.13915e-05
2.94648e-05
1.81222e-05
1.08655e-05
6.38531e-06
1.10398e-05
1.66356e-05
2.96372e-05
1.9244e-05
7.52002e-06
9.70191e-06
1.76952e-05
2.83434e-05
1.52909e-05
9.74281e-06
5.66477e-06
6.159e-06
2.08075e-05
2.52088e-05
1.67802e-05
1.12038e-05
7.47537e-06
8.49995e-06
1.92141e-05
3.05807e-05
2.86897e-05
1.75258e-05
1.0456e-05
5.90195e-06
1.01578e-05
1.56077e-05
2.54748e-05
2.10255e-05
6.48644e-06
7.92332e-06
1.15343e-05
1.71626e-05
3.12361e-05
2.04213e-05
9.13813e-06
1.13149e-05
1.89226e-05
2.94763e-05
1.71801e-05
1.16581e-05
6.84444e-06
7.98798e-06
1.96766e-05
2.96532e-05
2.83864e-05
1.81307e-05
1.01417e-05
5.99305e-06
1.02029e-05
1.56211e-05
2.55121e-05
2.12289e-05
6.46831e-06
7.7285e-06
1.1546e-05
1.71089e-05
3.07189e-05
1.96124e-05
8.79412e-06
1.09778e-05
1.81082e-05
2.87866e-05
1.6096e-05
1.06743e-05
6.38384e-06
6.84371e-06
2.10878e-05
2.5898e-05
1.76076e-05
1.19976e-05
8.16542e-06
9.16847e-06
2.05862e-05
3.14072e-05
2.94181e-05
1.89138e-05
1.13407e-05
6.66816e-06
1.1371e-05
1.69024e-05
2.90226e-05
1.91815e-05
7.823e-06
1.0107e-05
1.76631e-05
2.78492e-05
1.53896e-05
1.00611e-05
5.9171e-06
6.4408e-06
2.06614e-05
2.47248e-05
1.67749e-05
1.14807e-05
7.69026e-06
8.50569e-06
1.86933e-05
2.9326e-05
2.74917e-05
1.71751e-05
1.04781e-05
5.97408e-06
1.01158e-05
1.53453e-05
2.43678e-05
1.98348e-05
6.42652e-06
7.69119e-06
1.12922e-05
1.66939e-05
2.89407e-05
1.92584e-05
8.72276e-06
1.07248e-05
1.76481e-05
2.72629e-05
1.5475e-05
1.03008e-05
6.05719e-06
6.44283e-06
2.07617e-05
2.43912e-05
1.66698e-05
1.14085e-05
7.61321e-06
8.5221e-06
1.85143e-05
2.87026e-05
2.69808e-05
1.70251e-05
1.05235e-05
5.95339e-06
1.01023e-05
1.51519e-05
2.35393e-05
2.04385e-05
6.32178e-06
7.33633e-06
1.14862e-05
1.6438e-05
2.59973e-05
1.97165e-05
7.62191e-06
8.91168e-06
1.24583e-05
1.7871e-05
3.03272e-05
1.96146e-05
9.65943e-06
1.17024e-05
1.81751e-05
2.83105e-05
1.64159e-05
1.11802e-05
6.74787e-06
7.12139e-06
2.19571e-05
2.57065e-05
1.79187e-05
1.25517e-05
8.43554e-06
9.42462e-06
2.01417e-05
3.066e-05
2.86366e-05
1.84604e-05
1.15207e-05
6.63648e-06
1.10291e-05
1.63676e-05
2.56689e-05
2.16928e-05
7.00482e-06
8.27916e-06
1.2315e-05
1.77514e-05
3.02103e-05
1.98479e-05
9.28516e-06
1.13583e-05
1.82572e-05
2.83951e-05
1.61971e-05
1.09025e-05
6.49714e-06
6.99771e-06
2.14352e-05
2.52727e-05
1.75684e-05
1.219e-05
8.33494e-06
9.22388e-06
1.97562e-05
2.96222e-05
2.76671e-05
1.79933e-05
1.11051e-05
6.24192e-06
1.0505e-05
1.58045e-05
2.39844e-05
2.13885e-05
6.59152e-06
7.62042e-06
1.19005e-05
1.69271e-05
2.62708e-05
1.98673e-05
7.72012e-06
8.97416e-06
1.26594e-05
1.81531e-05
2.99395e-05
1.94109e-05
9.61666e-06
1.15738e-05
1.79142e-05
2.78815e-05
1.61183e-05
1.09469e-05
6.63042e-06
6.93575e-06
2.16461e-05
2.43128e-05
1.74003e-05
1.24733e-05
8.009e-06
8.23768e-06
2.06301e-05
2.69756e-05
1.89474e-05
1.34102e-05
9.53455e-06
1.03136e-05
2.02242e-05
3.09739e-05
2.87513e-05
1.86024e-05
1.22024e-05
6.83988e-06
1.13261e-05
1.671e-05
2.55543e-05
2.21194e-05
7.22793e-06
8.58541e-06
1.26899e-05
1.79774e-05
2.97384e-05
1.98396e-05
9.53999e-06
1.15766e-05
1.81911e-05
2.78855e-05
1.61998e-05
1.08518e-05
6.55791e-06
6.89746e-06
2.1438e-05
2.44711e-05
1.74112e-05
1.23356e-05
7.9569e-06
7.99517e-06
2.03092e-05
2.65867e-05
1.84989e-05
1.30294e-05
9.14581e-06
9.66571e-06
1.94196e-05
3.00803e-05
2.78313e-05
1.78287e-05
1.15917e-05
6.60938e-06
1.08511e-05
1.61591e-05
2.41833e-05
2.10833e-05
6.95211e-06
8.00059e-06
1.22219e-05
1.73328e-05
2.62942e-05
2.06238e-05
8.16502e-06
9.36793e-06
1.31657e-05
1.85553e-05
2.9872e-05
1.96395e-05
1.00046e-05
1.20816e-05
1.8161e-05
2.77896e-05
1.63729e-05
1.11387e-05
6.8826e-06
7.03674e-06
2.18588e-05
2.41563e-05
1.75004e-05
1.25446e-05
8.10061e-06
8.20625e-06
2.03895e-05
2.64709e-05
1.86646e-05
1.33241e-05
9.42297e-06
9.94983e-06
1.95705e-05
3.00166e-05
2.78123e-05
1.80399e-05
1.18976e-05
6.77999e-06
1.10513e-05
1.63091e-05
2.40362e-05
2.11746e-05
7.03377e-06
8.11126e-06
1.24824e-05
1.75096e-05
2.61866e-05
2.03497e-05
8.23958e-06
9.48726e-06
1.32343e-05
1.86045e-05
2.94668e-05
1.96927e-05
1.01388e-05
1.2037e-05
1.8199e-05
2.75289e-05
1.64657e-05
1.11618e-05
6.89291e-06
7.1008e-06
2.16674e-05
2.39845e-05
1.7531e-05
1.25697e-05
8.18265e-06
8.18272e-06
2.00815e-05
2.61291e-05
1.86336e-05
1.3153e-05
9.10326e-06
8.89864e-06
2.09933e-05
2.74176e-05
1.95521e-05
1.41335e-05
9.98364e-06
1.05557e-05
2.03926e-05
3.08982e-05
2.85731e-05
1.87047e-05
1.24934e-05
7.04162e-06
1.14166e-05
1.68206e-05
2.44845e-05
2.19531e-05
7.26525e-06
8.40491e-06
1.2898e-05
1.80086e-05
2.66298e-05
2.08371e-05
8.54759e-06
9.70449e-06
1.36381e-05
1.90762e-05
2.99578e-05
1.98065e-05
1.03682e-05
1.23816e-05
1.83611e-05
2.79476e-05
1.67454e-05
1.14004e-05
7.07062e-06
7.31572e-06
2.16867e-05
2.42601e-05
1.79672e-05
1.29813e-05
8.46549e-06
8.42497e-06
2.04672e-05
2.62632e-05
1.89986e-05
1.34188e-05
9.29395e-06
9.01969e-06
2.10051e-05
2.73687e-05
1.97019e-05
1.42709e-05
1.01099e-05
1.05002e-05
2.03459e-05
3.05794e-05
2.83095e-05
1.86306e-05
1.23396e-05
7.05316e-06
1.13472e-05
1.68083e-05
2.41737e-05
2.15568e-05
7.25825e-06
8.34287e-06
1.2768e-05
1.78705e-05
2.57633e-05
2.00228e-05
8.35101e-06
9.33089e-06
1.33493e-05
1.88298e-05
2.70218e-05
2.08332e-05
9.20959e-06
1.03922e-05
1.44863e-05
1.97785e-05
3.04235e-05
2.04967e-05
1.09373e-05
1.28844e-05
1.901e-05
2.83759e-05
1.7287e-05
1.187e-05
7.44271e-06
7.57264e-06
2.23738e-05
2.45383e-05
1.82609e-05
1.32258e-05
8.66145e-06
8.67465e-06
2.04308e-05
2.6414e-05
1.93695e-05
1.38333e-05
9.73986e-06
9.45614e-06
2.1462e-05
2.76832e-05
2.0176e-05
1.46929e-05
1.04972e-05
1.09013e-05
2.07033e-05
3.0776e-05
2.85302e-05
1.90783e-05
1.27579e-05
7.25398e-06
1.16712e-05
1.71254e-05
2.42401e-05
2.19452e-05
7.47132e-06
8.64492e-06
1.3125e-05
1.81945e-05
2.58125e-05
2.02472e-05
8.62448e-06
9.54683e-06
1.36227e-05
1.90849e-05
2.68977e-05
2.09556e-05
9.40799e-06
1.0538e-05
1.46414e-05
1.98651e-05
3.00234e-05
2.05096e-05
1.1151e-05
1.31709e-05
1.90954e-05
2.80881e-05
1.73955e-05
1.20383e-05
7.58826e-06
7.73891e-06
2.24008e-05
2.43928e-05
1.83769e-05
1.34114e-05
8.85102e-06
8.73489e-06
2.05769e-05
2.61297e-05
1.93427e-05
1.38765e-05
9.74118e-06
9.47984e-06
2.12177e-05
2.71443e-05
2.00279e-05
1.46737e-05
1.05058e-05
1.0928e-05
2.04243e-05
3.00367e-05
2.78293e-05
1.88281e-05
1.27556e-05
7.27347e-06
1.15737e-05
1.69743e-05
2.3841e-05
2.14853e-05
7.52007e-06
8.71053e-06
1.3133e-05
1.80882e-05
2.52356e-05
2.01597e-05
8.66898e-06
9.54861e-06
1.35228e-05
1.88864e-05
2.61142e-05
2.05913e-05
9.26767e-06
1.04134e-05
1.44455e-05
1.95919e-05
2.90424e-05
2.00085e-05
1.09029e-05
1.27823e-05
1.86122e-05
2.71225e-05
1.69506e-05
1.17471e-05
7.38947e-06
7.63417e-06
2.14735e-05
2.36742e-05
1.80922e-05
1.32501e-05
8.78187e-06
8.68966e-06
2.02505e-05
2.52156e-05
1.88865e-05
1.35274e-05
9.49822e-06
9.10097e-06
2.01795e-05
2.59188e-05
1.95389e-05
1.41586e-05
1.00472e-05
9.73247e-06
2.13477e-05
2.6829e-05
2.02062e-05
1.49985e-05
1.07801e-05
1.13508e-05
2.06975e-05
2.96557e-05
2.75173e-05
1.91307e-05
1.31592e-05
7.54027e-06