/*--------------------------------*- C++ -*----------------------------------*\
| =========                 |                                                 |
| \\      /  F ield         | OpenFOAM: The Open Source CFD Toolbox           |
|  \\    /   O peration     | Version:  v2006                                 |
|   \\  /    A nd           | Website:  www.openfoam.com                      |
|    \\/     M anipulation  |                                                 |
\*---------------------------------------------------------------------------*/
FoamFile
{
    version     2.0;
    format      ascii;
    class       surfaceScalarField;
    location    "0.022";
    object      phi;
}
// * * * * * * * * * * * * * * * * * * * * * * * * * * * * * * * * * * * * * //

dimensions      [1 0 -1 0 0 0 0];
oriented        oriented;


internalField   nonuniform List<scalar> 
19982
(
-2.81363e-05
-0.00192967
0.00190952
4.83052e-05
-0.00181381
0.00178578
4.38745e-06
0.000100129
-2.93647e-05
0.002061
3.39447e-05
0.00223672
-7.16123e-05
0.00227039
-1.50468e-05
0.00230386
-3.24781e-05
0.00226933
-4.41776e-06
0.00225182
-5.328e-06
0.002227
-5.90061e-07
0.00221247
-1.86763e-06
0.00220129
-1.90419e-06
0.00219447
-2.3557e-06
0.00218877
-2.57154e-06
0.00218358
-2.77384e-06
0.00217852
-2.9637e-06
0.00217324
-3.14141e-06
0.00216772
-3.30728e-06
0.00216198
-3.46181e-06
0.00215601
-3.60561e-06
0.00214984
-3.73981e-06
0.00214346
-3.86447e-06
0.0021369
-3.98144e-06
0.00213015
-4.09098e-06
0.00212323
-4.19227e-06
0.00211615
-4.28506e-06
0.00210892
-4.3693e-06
0.00210155
-4.44518e-06
0.00209407
-4.5132e-06
0.00208647
-4.56831e-06
0.00207878
-4.61169e-06
0.00207101
-4.64335e-06
0.00206317
-4.66343e-06
0.00205528
-4.6728e-06
0.00204737
-4.67114e-06
0.00203945
-4.65813e-06
0.00203152
-4.63351e-06
0.00202362
-4.59704e-06
0.00201576
-4.54853e-06
0.00200795
-4.48748e-06
0.00200022
-4.41469e-06
0.00199258
-4.33009e-06
0.00198506
-4.23323e-06
0.00197765
-4.12365e-06
0.0019704
-4.00094e-06
0.0019633
-3.86461e-06
0.00195639
-3.71426e-06
0.00194967
-3.54964e-06
0.00194316
-3.37039e-06
0.00193689
-3.0786e-06
0.00193075
-1.99733e-06
0.00192416
-2.71073e-06
0.00191842
-2.41367e-06
0.00190905
-4.90687e-06
0.00189598
-7.31454e-06
0.00187743
-2.86695e-05
0.00184534
-4.24768e-05
0.00180426
-0.000122721
0.00174703
-0.000203113
0.00170723
-0.000471185
0.00170964
-0.00100652
0.0019489
-0.00029666
0.000507741
6.53066e-05
0.00085572
-7.72361e-06
0.00108298
-2.1579e-06
0.00102923
-5.71625e-05
0.000868057
-5.67022e-06
0.000786056
-4.16368e-06
0.000285924
-3.75431e-06
0.000237923
0.000191615
7.41058e-06
0.000184207
1.54079e-05
0.000229929
0.000277854
2.3482e-05
-9.00747e-06
0.000274039
1.2827e-05
-4.90802e-06
0.000225833
0.000179302
2.35686e-06
0.000176948
2.79451e-06
0.000225399
0.000274118
2.71947e-06
-3.5883e-06
0.000273945
3.76597e-06
-2.0245e-06
0.000223839
0.000174927
2.8636e-06
0.000172067
3.56793e-06
0.000223139
0.000272764
4.75456e-06
-3.40807e-06
0.000271473
4.70408e-06
-1.7466e-06
0.000221482
0.000170324
2.52097e-06
0.000167806
2.36713e-06
0.00022164
0.000271076
2.76908e-06
-2.26964e-06
0.000269681
3.66901e-06
-1.51593e-06
0.00022089
0.000166294
1.41964e-06
0.000164878
2.19482e-06
0.00022012
0.000269185
2.69659e-06
-3.04005e-06
0.000269579
2.65062e-06
-1.33369e-06
0.000218418
0.000163548
1.25585e-06
0.000162296
1.1374e-06
0.000218541
0.000268088
2.63377e-06
-2.91274e-06
0.000268415
2.59111e-06
-1.20219e-06
0.000216835
0.000161098
1.14303e-06
0.000159959
1.03826e-06
0.000216944
0.000266875
2.58426e-06
-2.81572e-06
0.000267146
2.55017e-06
-1.10364e-06
0.000215237
0.000158859
1.06152e-06
0.000157802
9.67209e-07
0.000215336
0.00026557
2.54946e-06
-2.73987e-06
0.000265794
2.52168e-06
-1.03032e-06
0.000213632
0.000156776
9.94882e-07
0.000155786
9.141e-07
0.000213718
0.000264183
2.53231e-06
-2.68961e-06
0.000264371
2.50761e-06
-9.80194e-07
0.000212014
0.000154811
9.48148e-07
0.000153867
8.79466e-07
0.000212089
0.000262731
2.52606e-06
-2.64809e-06
0.000262884
2.50209e-06
-9.39258e-07
0.000210385
0.000152933
9.12136e-07
0.000152026
8.56487e-07
0.000210447
0.00026122
2.52749e-06
-2.61977e-06
0.000261337
2.50918e-06
-9.09222e-07
0.000208742
0.000151121
8.86414e-07
0.00015024
8.46722e-07
0.000208788
0.00025965
2.54195e-06
-2.60323e-06
0.000259731
2.52883e-06
-8.88272e-07
0.00020708
0.000149357
8.68608e-07
0.000148494
8.47744e-07
0.000207107
0.000258019
2.56772e-06
-2.59647e-06
0.000258064
2.55952e-06
-8.74433e-07
0.000205391
0.000147625
8.57206e-07
0.000146774
8.58044e-07
0.000205397
0.000256326
2.60379e-06
-2.59819e-06
0.000256332
2.60035e-06
-8.66434e-07
0.000203672
0.000145913
8.51205e-07
0.000145067
8.76645e-07
0.000203653
0.000254567
2.64953e-06
-2.60739e-06
0.000254531
2.65064e-06
-8.63379e-07
0.000201916
0.000144209
8.49857e-07
0.000143365
9.02782e-07
0.00020187
0.000252738
2.70439e-06
-2.62353e-06
0.00025266
2.71011e-06
-8.64707e-07
0.000200118
0.000142506
8.52853e-07
0.000141659
9.36432e-07
0.000200042
0.000250836
2.76888e-06
-2.64681e-06
0.000250712
2.77956e-06
-8.70276e-07
0.000198272
0.000140795
8.60005e-07
0.000139942
9.77637e-07
0.000198162
0.000248855
2.84353e-06
-2.67693e-06
0.000248682
2.85904e-06
-8.79786e-07
0.000196373
0.000139069
8.70742e-07
0.000138204
1.02557e-06
0.000196226
0.000246789
2.92724e-06
-2.71329e-06
0.000246564
2.94783e-06
-8.92798e-07
0.000194413
0.000137319
8.85253e-07
0.00013644
1.08094e-06
0.000194226
0.000244634
3.02143e-06
-2.75698e-06
0.000244353
3.04798e-06
-9.09728e-07
0.000192387
0.000135538
9.03958e-07
0.000134641
1.14493e-06
0.000192155
0.00024238
3.12822e-06
-2.80889e-06
0.000242038
3.1612e-06
-9.30895e-07
0.000190286
0.000133718
9.26923e-07
0.000132799
1.21792e-06
0.000190004
0.000240019
3.24839e-06
-2.86924e-06
0.000239611
3.2881e-06
-9.56326e-07
0.000188101
0.000131851
9.54286e-07
0.000130904
1.30043e-06
0.000187764
0.00023754
3.38285e-06
-2.93855e-06
0.00023706
3.42972e-06
-9.86203e-07
0.000185821
0.000129926
9.86233e-07
0.000128948
1.39304e-06
0.000185424
0.000234932
3.53262e-06
-3.01717e-06
0.000234374
3.58687e-06
-1.02066e-06
0.000183438
0.000127936
1.02278e-06
0.000126922
1.49597e-06
0.000182975
0.000232184
3.69813e-06
-3.10498e-06
0.000231542
3.75949e-06
-1.05958e-06
0.00018094
0.000125871
1.06371e-06
0.000124816
1.6089e-06
0.000180405
0.000229285
3.87891e-06
-3.20153e-06
0.000228552
3.94706e-06
-1.10272e-06
0.000178317
0.000123722
1.10885e-06
0.000122622
1.73165e-06
0.000177705
0.000226222
4.0747e-06
-3.30704e-06
0.000225392
4.1501e-06
-1.15015e-06
0.000175559
0.000121481
1.15852e-06
0.000120332
1.86503e-06
0.000174864
0.000222984
4.28685e-06
-3.42253e-06
0.00022205
4.37041e-06
-1.20234e-06
0.000172655
0.00011914
1.21323e-06
0.000117936
2.01031e-06
0.00017187
0.000219556
4.51741e-06
-3.54922e-06
0.00021851
4.61009e-06
-1.25981e-06
0.000169592
0.000116686
1.27353e-06
0.000115423
2.16882e-06
0.000168709
0.000215924
4.76846e-06
-3.68828e-06
0.000214756
4.87118e-06
-1.32314e-06
0.000166356
0.00011411
1.34003e-06
0.00011278
2.3419e-06
0.000165366
0.000212071
5.0421e-06
-3.84096e-06
0.000210771
5.15582e-06
-1.39288e-06
0.000162931
0.000111398
1.41327e-06
0.000109996
2.53095e-06
0.000161826
0.000207976
5.34054e-06
-4.00857e-06
0.000206534
5.46634e-06
-1.46957e-06
0.0001593
0.000108537
1.4939e-06
0.000107054
2.73759e-06
0.000158069
0.000203621
5.66635e-06
-4.19272e-06
0.000202023
5.80556e-06
-1.55396e-06
0.000155444
0.000105511
1.58272e-06
0.000103939
2.9637e-06
0.000154076
0.00019898
6.02244e-06
-4.3952e-06
0.000197215
6.1764e-06
-1.64689e-06
0.000151341
0.000102303
1.68049e-06
0.000100634
3.21108e-06
0.000149824
0.00019403
6.41165e-06
-4.61714e-06
0.000192083
6.58092e-06
-1.7489e-06
0.000146969
9.88961e-05
1.78733e-06
9.71201e-05
3.48027e-06
0.000145289
0.000188745
6.83479e-06
-4.85791e-06
0.000186601
7.01819e-06
-1.85969e-06
0.000142305
9.52718e-05
1.90289e-06
9.33806e-05
3.77084e-06
0.000140451
0.000183097
7.29121e-06
-5.11582e-06
0.000180744
7.48563e-06
-1.97852e-06
0.000137327
9.14139e-05
2.02475e-06
8.94011e-05
4.07775e-06
0.000135288
0.000177067
7.77157e-06
-5.395e-06
0.000174489
7.98996e-06
-2.10716e-06
0.000132015
8.73063e-05
2.16013e-06
8.51588e-05
4.4162e-06
0.000129774
0.000170622
8.30042e-06
-5.70346e-06
0.000167799
8.54367e-06
-2.2494e-06
0.000126335
8.29224e-05
2.31048e-06
8.06253e-05
4.78944e-06
0.000123871
0.000163724
8.88211e-06
-6.04923e-06
0.000160634
9.1585e-06
-2.40938e-06
0.000120247
7.82296e-05
2.48151e-06
7.57623e-05
5.21027e-06
0.000117534
0.000156327
9.53553e-06
-6.4492e-06
0.000152936
9.85992e-06
-2.5954e-06
0.000113697
7.31813e-05
2.68447e-06
7.05117e-05
5.70208e-06
0.000110697
0.000148363
1.02949e-05
-6.93365e-06
0.000144622
1.06944e-05
-2.8216e-06
0.000106602
6.77054e-05
2.94006e-06
6.47809e-05
6.30749e-06
0.000103253
0.000139728
1.12228e-05
-7.56143e-06
0.000135563
1.17483e-05
-3.11695e-06
9.88273e-05
6.16799e-05
3.28559e-06
5.8411e-05
7.10559e-06
9.50265e-05
0.000130255
1.24363e-05
-8.44374e-06
0.00012554
1.31819e-05
-3.5351e-06
9.01384e-05
5.48937e-05
3.81453e-06
5.10984e-05
8.27726e-06
8.56976e-05
0.000119667
1.41752e-05
-9.8656e-06
0.000114199
1.53589e-05
-4.24706e-06
8.01006e-05
4.68673e-05
4.72297e-06
4.21441e-05
1.02074e-05
7.46335e-05
0.000107493
1.69386e-05
-1.23171e-05
0.000100838
1.89919e-05
-5.39162e-06
6.77108e-05
3.67434e-05
6.76357e-06
2.99818e-05
1.40289e-05
6.04393e-05
9.29414e-05
2.19291e-05
-1.77974e-05
8.54424e-05
2.52952e-05
-9.06605e-06
5.17093e-05
2.09228e-05
9.84289e-06
1.1085e-05
1.85136e-05
4.30423e-05
7.71586e-05
2.67967e-05
-1.56094e-05
6.84413e-05
2.43289e-05
-6.58616e-06
3.40228e-05
4.50239e-06
2.50304e-06
2.00415e-06
1.02657e-05
2.62664e-05
5.86021e-05
2.01108e-05
-6.83083e-06
4.94732e-05
1.59666e-05
-7.67254e-07
2.02092e-05
1.24261e-06
2.46927e-07
1.00136e-06
3.88979e-06
1.65726e-05
4.18433e-05
1.15262e-05
-1.89037e-06
3.65095e-05
7.23105e-06
2.39602e-07
1.44492e-05
1.24675e-06
-7.52225e-07
2.00547e-06
-2.4576e-07
1.39503e-05
3.29296e-05
3.34258e-06
1.09256e-06
3.08665e-05
9.79292e-07
9.81764e-07
1.40687e-05
2.9936e-06
-1.01574e-06
4.0157e-06
-1.58407e-06
1.46445e-05
2.9551e-05
-2.59443e-07
9.14853e-07
2.85364e-05
1.07923e-07
7.2953e-07
1.48363e-05
4.75061e-06
-5.97595e-07
5.35275e-06
-7.86638e-07
1.50309e-05
2.75254e-05
2.31519e-07
3.02206e-08
2.65292e-05
9.71316e-07
2.77776e-07
1.47862e-05
5.63243e-06
-2.50033e-07
5.88515e-06
-1.86548e-07
1.47262e-05
2.5621e-05
7.26253e-07
-1.04576e-07
2.49739e-05
7.55423e-07
1.24226e-07
1.45004e-05
6.01176e-06
-3.77693e-07
6.39189e-06
-6.42156e-07
1.47679e-05
2.47354e-05
-3.99826e-07
7.36234e-07
2.49733e-05
-9.70328e-07
4.42603e-07
1.50646e-05
6.83684e-06
-8.82071e-07
7.7218e-06
-1.86128e-06
1.60474e-05
2.57771e-05
-2.66063e-06
2.23965e-06
2.70561e-05
-3.51339e-06
1.11469e-06
1.71767e-05
8.83993e-06
-1.5211e-06
1.03649e-05
-3.2709e-06
1.89313e-05
2.87072e-05
-4.91604e-06
3.34805e-06
3.07096e-05
-5.34463e-06
1.60731e-06
2.06768e-05
1.1976e-05
-1.78353e-06
1.3763e-05
-3.92811e-06
2.28256e-05
3.28059e-05
-6.01908e-06
3.59755e-06
3.50905e-05
-5.87741e-06
1.68623e-06
2.47407e-05
1.54522e-05
-1.66713e-06
1.71218e-05
-3.79004e-06
2.68667e-05
3.71909e-05
-5.88644e-06
3.17548e-06
3.93478e-05
-5.32921e-06
1.46415e-06
2.85805e-05
1.85879e-05
-1.33381e-06
1.99232e-05
-3.15412e-06
3.04026e-05
4.11202e-05
-4.92414e-06
2.387e-06
4.2902e-05
-4.16723e-06
1.07868e-06
3.17122e-05
2.10029e-05
-9.41918e-07
2.19453e-05
-2.35114e-06
3.31219e-05
4.42197e-05
-3.66816e-06
1.59417e-06
4.55602e-05
-2.93478e-06
7.13038e-07
3.40029e-05
2.26584e-05
-6.25406e-07
2.32835e-05
-1.66211e-06
3.5039e-05
4.64528e-05
-2.55554e-06
9.9846e-07
4.74221e-05
-1.96891e-06
4.57322e-07
3.55793e-05
2.37404e-05
-4.25797e-07
2.41654e-05
-1.18995e-06
3.63421e-05
4.79848e-05
-1.75448e-06
6.41766e-07
4.8704e-05
-1.3633e-06
3.1875e-07
3.66635e-05
2.44831e-05
-3.34964e-07
2.48171e-05
-9.47469e-07
3.72742e-05
4.90689e-05
-1.31482e-06
4.81569e-07
4.966e-05
-1.0752e-06
2.66928e-07
3.74872e-05
2.5083e-05
-3.12138e-07
2.53941e-05
-8.68744e-07
3.80421e-05
4.99439e-05
-1.15522e-06
4.58417e-07
5.05065e-05
-1.02338e-06
2.6807e-07
3.82308e-05
2.56613e-05
-3.28197e-07
2.59887e-05
-8.99555e-07
3.88007e-05
5.07936e-05
-1.1889e-06
6.95797e-07
5.12274e-05
-1.13191e-06
3.10824e-07
3.91842e-05
2.62986e-05
-5.3787e-07
2.68357e-05
-1.02712e-06
3.9672e-05
5.21609e-05
-1.96295e-06
1.41869e-06
5.31016e-05
-2.36153e-06
5.71865e-07
4.05174e-05
2.74068e-05
-9.98582e-07
2.84045e-05
-2.02524e-06
4.15427e-05
5.44764e-05
-3.40224e-06
2.18691e-06
5.5848e-05
-3.5606e-06
9.43984e-07
4.27842e-05
2.93476e-05
-9.60881e-07
3.03078e-05
-2.25485e-06
4.40771e-05
5.73586e-05
-3.76705e-06
3.97251e-06
5.98725e-05
-6.48774e-06
1.91661e-06
4.61322e-05
3.22239e-05
-1.18173e-06
-2.57592e-06
-3.82081e-06
-1.53447e-05
-0.000174528
-5.00801e-06
-0.00020519
-1.26587e-05
-0.000243562
-9.39786e-07
-0.000272336
-7.42896e-06
-0.000300526
-3.01342e-06
-0.000348828
-5.72187e-06
-0.00037407
-4.0659e-06
-0.000414151
-4.03715e-06
-0.0004346
-2.38242e-06
-0.000460945
-1.73363e-06
-0.000474867
-1.05113e-06
-0.000490062
-2.32015e-07
-0.000498344
1.10421e-06
-0.000505642
7.48983e-06
-0.000506072
1.14258e-05
-0.000504625
3.29267e-05
-0.000496631
5.37947e-05
-0.000493286
0.000128397
-0.000500257
0.00027779
-0.000571333
8.04705e-05
-0.000158777
-2.91454e-05
-0.00024362
-1.47487e-05
-0.000295432
9.92317e-06
-0.000301133
5.45694e-06
-8.75326e-05
2.82182e-06
-6.95554e-05
-4.82887e-05
-2.80992e-05
-2.00747e-05
-6.65115e-05
-3.13213e-05
-4.03592e-05
-0.000113605
-1.3321e-05
-5.18798e-05
2.319e-05
-1.61158e-06
-3.92982e-05
-2.39588e-05
2.42131e-06
-2.61171e-05
5.31511e-06
-4.25539e-05
-5.69277e-05
1.0468e-05
-2.97302e-06
-5.96671e-05
5.70839e-06
-9.64387e-07
-4.45629e-05
-2.70969e-05
-8.41658e-07
-2.62579e-05
-1.39058e-06
-4.40176e-05
-5.85998e-05
-2.46185e-06
-5.07946e-07
-5.81984e-05
1.0356e-07
-3.94513e-07
-4.41337e-05
-2.66553e-05
-7.27222e-07
-2.5931e-05
-1.71421e-06
-4.31496e-05
-5.76158e-05
-2.29969e-06
-5.78262e-07
-5.82173e-05
1.17687e-06
-4.53267e-07
-4.32774e-05
-2.6387e-05
-7.04356e-07
-2.56854e-05
-7.23865e-07
-4.32605e-05
-5.71685e-05
-1.77535e-06
-1.08018e-06
-5.72958e-05
1.20495e-06
-4.57383e-07
-4.38857e-05
-2.61453e-05
-2.89516e-07
-2.58581e-05
-1.20413e-06
-4.29734e-05
-5.72632e-05
-1.23911e-06
-1.12114e-06
-5.78915e-05
1.7472e-06
-5.24817e-07
-4.35718e-05
-2.6385e-05
-2.79846e-07
-2.61071e-05
-7.15048e-07
-4.31385e-05
-5.73752e-05
-1.23343e-06
-1.13982e-06
-5.79993e-05
1.76189e-06
-5.25995e-07
-4.37541e-05
-2.66347e-05
-2.8028e-07
-2.6356e-05
-7.15395e-07
-4.33207e-05
-5.74827e-05
-1.23398e-06
-1.14517e-06
-5.81045e-05
1.76509e-06
-5.30955e-07
-4.39365e-05
-2.68884e-05
-2.79546e-07
-2.66102e-05
-7.15409e-07
-4.35023e-05
-5.75877e-05
-1.23413e-06
-1.14865e-06
-5.82065e-05
1.76561e-06
-5.35116e-07
-4.41174e-05
-2.71467e-05
-2.79448e-07
-2.68685e-05
-7.16883e-07
-4.36815e-05
-5.76882e-05
-1.23703e-06
-1.15228e-06
-5.83034e-05
1.76564e-06
-5.39544e-07
-4.42958e-05
-2.74094e-05
-2.78845e-07
-2.71319e-05
-7.17201e-07
-4.3859e-05
-5.77845e-05
-1.2379e-06
-1.15626e-06
-5.83964e-05
1.76631e-06
-5.44397e-07
-4.44724e-05
-2.76776e-05
-2.78651e-07
-2.74003e-05
-7.1752e-07
-4.40351e-05
-5.78777e-05
-1.23799e-06
-1.1611e-06
-5.84856e-05
1.76719e-06
-5.49806e-07
-4.46479e-05
-2.79514e-05
-2.77826e-07
-2.76749e-05
-7.16474e-07
-4.42108e-05
-5.79671e-05
-1.23683e-06
-1.16639e-06
-5.8574e-05
1.77141e-06
-5.55467e-07
-4.48233e-05
-2.82316e-05
-2.7611e-07
-2.79568e-05
-7.13227e-07
-4.43877e-05
-5.80564e-05
-1.23257e-06
-1.17474e-06
-5.86615e-05
1.77806e-06
-5.62014e-07
-4.50019e-05
-2.85201e-05
-2.73001e-07
-2.82483e-05
-7.08443e-07
-4.45679e-05
-5.81451e-05
-1.22652e-06
-1.18491e-06
-5.87506e-05
1.78883e-06
-5.69574e-07
-4.51846e-05
-2.88191e-05
-2.68397e-07
-2.85519e-05
-7.0014e-07
-4.47542e-05
-5.82381e-05
-1.21418e-06
-1.20005e-06
-5.88447e-05
1.80523e-06
-5.79498e-07
-4.5376e-05
-2.91325e-05
-2.6159e-07
-2.88719e-05
-6.87699e-07
-4.4951e-05
-5.83368e-05
-1.19695e-06
-1.21948e-06
-5.89477e-05
1.82904e-06
-5.91717e-07
-4.55799e-05
-2.94646e-05
-2.51105e-07
-2.92145e-05
-6.68001e-07
-4.51641e-05
-5.8448e-05
-1.16888e-06
-1.24933e-06
-5.90663e-05
1.86649e-06
-6.09474e-07
-4.5805e-05
-2.98249e-05
-2.34954e-07
-2.95908e-05
-6.3824e-07
-4.54026e-05
-5.85785e-05
-1.12716e-06
-1.29147e-06
-5.92078e-05
1.91987e-06
-6.34391e-07
-4.60605e-05
-3.0226e-05
-2.07725e-07
-3.0019e-05
-5.89891e-07
-4.56791e-05
-5.87375e-05
-1.06098e-06
-1.35999e-06
-5.93856e-05
2.00744e-06
-6.75208e-07
-4.63645e-05
-3.06947e-05
-1.62195e-07
-3.0533e-05
-5.12723e-07
-4.60145e-05
-5.89408e-05
-9.58091e-07
-1.46793e-06
-5.96175e-05
2.14405e-06
-7.411e-07
-4.67417e-05
-3.12745e-05
-7.5083e-08
-3.11998e-05
-3.71462e-07
-4.64458e-05
-5.92169e-05
-7.72519e-07
-1.66037e-06
-5.99547e-05
2.39789e-06
-8.56347e-07
-4.72501e-05
-3.20565e-05
3.98885e-08
-3.20966e-05
-1.82909e-07
-4.70275e-05
-5.96262e-05
-5.11682e-07
-2.07354e-06
-5.99604e-05
2.40769e-06
-1.10155e-06
-4.79996e-05
-3.31983e-05
2.11392e-07
-3.34097e-05
9.08392e-08
-4.7879e-05
-5.97194e-05
-1.50067e-07
-1.78059e-06
-6.09298e-05
2.99128e-06
-9.62039e-07
-4.86973e-05
-3.43715e-05
-1.1747e-08
-3.43595e-05
6.9922e-08
-4.87787e-05
-6.03621e-05
-4.97527e-07
-1.78767e-06
-6.1606e-05
3.03191e-06
-9.50567e-07
-4.96155e-05
-3.53097e-05
5.36125e-07
-3.58456e-05
3.05345e-07
-4.93845e-05
-6.12395e-05
-6.07873e-08
-1.75659e-06
-6.23244e-05
2.84184e-06
-5.42039e-07
-5.05988e-05
-3.63876e-05
8.97646e-07
-3.72852e-05
5.26149e-07
-5.0227e-05
-6.22995e-05
5.01686e-07
-1.88021e-06
-6.36792e-05
3.26054e-06
-7.97252e-07
-5.13096e-05
-3.80822e-05
3.72512e-07
-3.84541e-05
8.2852e-07
-5.17648e-05
-6.34802e-05
6.3036e-07
-2.59027e-06
-6.47583e-05
3.86937e-06
-1.17082e-06
-5.31833e-05
-3.96238e-05
3.85132e-07
-4.00077e-05
7.99765e-07
-5.3597e-05
-6.5357e-05
1.39947e-06
-2.43059e-06
-6.70041e-05
4.0787e-06
-1.59543e-06
-5.4431e-05
-4.16017e-05
1.04246e-06
-4.26426e-05
2.22701e-06
-5.56142e-05
-6.79004e-05
3.12496e-06
-4.42534e-06
-7.03769e-05
6.90434e-06
-2.30775e-06
-5.77301e-05
-4.4951e-05
3.04269e-06
-4.79751e-05
6.08135e-06
-6.07888e-05
-7.35889e-05
9.3159e-06
5.54025e-05
-3.73347e-05
-9.16819e-05
2.46419e-05
-2.98829e-05
-2.34781e-05
8.9079e-06
-2.9766e-05
1.45749e-05
-3.95052e-05
-4.80158e-05
2.66939e-05
-8.8305e-06
-5.40894e-05
1.49135e-05
-3.77825e-06
-4.44081e-05
-3.37464e-05
2.43206e-06
-3.61726e-05
4.64852e-06
-4.66221e-05
-5.73347e-05
7.90041e-06
-2.98397e-06
-5.90058e-05
4.65718e-06
-1.39051e-06
-4.82141e-05
-3.75617e-05
1.08332e-06
-3.86436e-05
2.25312e-06
-4.93822e-05
-6.02356e-05
3.48475e-06
-2.29628e-06
-6.10508e-05
3.11483e-06
-1.00983e-06
-5.06666e-05
-3.96511e-05
8.51694e-07
-4.05088e-05
-4.01382e-07
-4.93992e-05
-5.89641e-05
-2.48637e-06
4.75522e-05
-2.8933e-05
-7.75448e-05
2.19017e-05
-2.38438e-05
-1.85461e-05
2.97806e-06
-2.27749e-05
1.0297e-05
-2.9209e-05
-3.65501e-05
1.71293e-05
-2.92044e-06
-3.82593e-05
4.6275e-06
-1.21165e-06
-3.09904e-05
-2.39048e-05
-3.95441e-07
-2.35112e-05
-1.58133e-06
-2.98033e-05
-3.70468e-05
-2.79213e-06
3.29902e-06
-3.14294e-05
-8.91202e-06
5.47849e-07
-2.70521e-05
-2.29595e-05
-1.33367e-05
-9.6351e-06
-2.84322e-05
-1.19365e-05
-1.43476e-05
-4.55183e-05
-1.76548e-06
-1.66737e-05
4.24055e-06
-8.61403e-07
-1.32306e-05
-1.02421e-05
-1.61641e-06
-8.64582e-06
-4.65976e-06
-1.01691e-05
-1.26505e-05
-8.68401e-06
2.21355e-05
6.48587e-06
-4.12681e-05
8.63093e-06
3.33763e-06
-1.27936e-08
-8.5974e-06
8.58624e-06
-1.66007e-05
1.13435e-05
1.38407e-05
-2.3952e-05
4.83114e-05
4.08751e-05
-7.53579e-05
2.22804e-05
3.7355e-05
3.08848e-05
-1.83978e-05
4.85345e-05
-3.8523e-05
5.80654e-05
6.99089e-05
-6.76686e-05
3.34411e-05
8.41925e-05
-4.32388e-05
7.1629e-06
7.09513e-05
6.58076e-05
-1.60879e-05
7.97858e-05
-3.807e-05
9.40457e-05
0.00011322
-6.67309e-05
6.555e-05
0.000162377
-0.000114728
2.6082e-05
0.000133557
0.000105939
4.52148e-05
6.06864e-05
9.70088e-05
8.17721e-05
0.000100516
0.00015885
9.53889e-05
0.000167602
-0.000162479
4.20744e-05
0.000135082
0.000102757
3.12651e-05
7.1491e-05
7.01768e-05
9.61667e-05
0.000119548
0.000118225
-5.77002e-05
8.06398e-05
9.66003e-05
-2.52582e-05
6.37411e-05
4.62205e-05
-3.91973e-05
8.54339e-05
-9.13643e-05
0.000115878
0.000146908
-0.000157625
-5.0173e-05
0.000109589
8.74562e-05
-2.10581e-05
8.70477e-05
6.41631e-05
2.3489e-05
4.35312e-05
4.74187e-05
5.83895e-05
7.53674e-05
8.36685e-05
8.86146e-05
0.000138999
-0.000152693
3.7917e-05
0.00010993
8.09992e-05
1.93405e-05
6.19135e-05
4.60636e-05
8.28862e-05
0.000104799
8.03803e-05
-4.72131e-05
7.24773e-05
7.75826e-05
-1.70869e-05
5.70354e-05
4.21654e-05
-3.7174e-05
7.96579e-05
-8.79277e-05
0.000107234
0.000135532
-0.000150641
-4.38792e-05
0.000102997
7.63832e-05
-1.83909e-05
8.18121e-05
6.12257e-05
1.95948e-05
4.19319e-05
4.47216e-05
5.618e-05
7.20395e-05
7.59222e-05
8.63205e-05
0.000133336
-0.000147702
3.6895e-05
0.000105691
7.8786e-05
1.81628e-05
6.06358e-05
4.28626e-05
8.09689e-05
0.00010159
7.46194e-05
-4.38508e-05
7.10447e-05
7.4327e-05
-1.88017e-05
5.60485e-05
4.17568e-05
-3.72842e-05
7.90504e-05
-8.65706e-05
0.000105312
0.000131813
-0.000147318
-4.23255e-05
0.000101339
7.27948e-05
-1.79409e-05
8.09284e-05
6.11065e-05
1.91706e-05
4.19366e-05
4.38876e-05
5.62075e-05
7.05454e-05
7.46815e-05
8.53269e-05
0.00013086
-0.000145643
3.67757e-05
0.000104758
7.87109e-05
1.78564e-05
6.08535e-05
4.25222e-05
8.00902e-05
0.000100801
7.25785e-05
-4.31487e-05
7.00201e-05
7.39288e-05
-1.8848e-05
5.57893e-05
4.20043e-05
-3.68622e-05
7.8866e-05
-8.52814e-05
0.000104208
0.000130138
-0.000145401
-4.18981e-05
0.000100416
7.16198e-05
-1.79514e-05
8.026e-05
6.09138e-05
1.88831e-05
4.20301e-05
4.35454e-05
5.55968e-05
6.99957e-05
7.39644e-05
8.45317e-05
0.000128981
-0.000143518
3.67151e-05
0.000103412
7.87443e-05
1.82173e-05
6.05256e-05
4.23217e-05
7.93064e-05
9.95896e-05
7.17112e-05
-4.29578e-05
6.91506e-05
7.33954e-05
-1.85674e-05
5.49152e-05
4.19571e-05
-3.59466e-05
7.79035e-05
-8.35408e-05
0.000102509
0.000127624
-0.000142015
-4.18165e-05
9.8762e-05
7.06787e-05
-1.796e-05
7.86553e-05
5.99418e-05
1.87131e-05
4.12507e-05
4.33308e-05
5.39994e-05
6.80017e-05
7.41046e-05
8.1633e-05
0.000124594
-0.000138263
3.52319e-05
0.00010047
7.64263e-05
1.9261e-05
5.7799e-05
4.33925e-05
7.55903e-05
9.46682e-05
7.34516e-05
-4.77037e-05
6.3177e-05
7.50681e-05
-1.3124e-05
5.11386e-05
3.82449e-05
-2.99851e-05
6.94825e-05
-7.15676e-05
9.05261e-05
0.000112186
-0.000119502
-4.89132e-05
7.89401e-05
8.1943e-05
-2.09335e-05
6.29674e-05
4.82781e-05
-3.75199e-05
8.58261e-05
-8.66257e-05
0.000112026
0.000138637
-0.000146305
-5.04611e-05
0.000103623
8.54584e-05
-2.18437e-05
8.34361e-05
6.39547e-05
2.0581e-05
4.34957e-05
4.66569e-05
5.71617e-05
7.15621e-05
7.88106e-05
8.30684e-05
0.000128967
-0.000140507
3.6047e-05
0.000104244
7.94919e-05
1.91967e-05
6.09074e-05
4.40621e-05
7.86973e-05
9.81146e-05
7.50351e-05
-4.97074e-05
6.55257e-05
7.83161e-05
-1.4491e-05
5.32477e-05
4.01759e-05
-3.05591e-05
7.20298e-05
-7.33945e-05
9.37884e-05
0.000116029
-0.000122751
-5.03227e-05
8.18422e-05
8.42745e-05
-2.15784e-05
6.54904e-05
5.01733e-05
-3.9264e-05
8.94741e-05
-8.94692e-05
0.000115634
0.000143009
-0.00015061
-5.32487e-05
0.000106149
9.01021e-05
-2.3232e-05
8.56195e-05
6.62321e-05
2.22237e-05
4.40381e-05
5.08895e-05
5.69074e-05
7.06656e-05
8.63961e-05
7.48472e-05
0.000123093
-0.000127279
3.21421e-05
9.96247e-05
7.6175e-05
2.31285e-05
5.3048e-05
5.38398e-05
6.89099e-05
8.51742e-05
9.17596e-05
9.10094e-05
0.000147805
-0.000153642
4.00942e-05
0.000119824
9.31401e-05
2.46864e-05
6.84521e-05
5.64239e-05
8.80837e-05
0.000109327
9.48998e-05
-5.25253e-05
7.28134e-05
8.90344e-05
-2.31506e-05
5.87145e-05
4.5297e-05
-3.41249e-05
7.94223e-05
-7.77998e-05
0.000102387
0.000126548
-0.000131534
-5.53379e-05
8.79248e-05
9.39605e-05
-2.4433e-05
7.14823e-05
5.49885e-05
-4.22969e-05
9.72848e-05
-9.53537e-05
0.000124538
0.000153085
-0.000160515
-5.81763e-05
0.000113041
9.82191e-05
-2.5503e-05
9.1864e-05
7.17811e-05
2.49009e-05
4.688e-05
5.58566e-05
6.0908e-05
7.58834e-05
9.30138e-05
8.02818e-05
0.000129961
-0.00013436
3.55972e-05
0.000105592
8.24771e-05
2.55559e-05
5.69209e-05
5.85561e-05
7.25917e-05
9.03096e-05
9.82068e-05
9.57201e-05
0.000155683
-0.000161094
4.20433e-05
0.000126268
9.89635e-05
2.63699e-05
7.25926e-05
5.98016e-05
9.28344e-05
0.000114743
0.000100739
-5.62006e-05
7.64184e-05
9.45243e-05
-2.48127e-05
6.1448e-05
4.77782e-05
-3.5912e-05
8.36906e-05
-8.14467e-05
0.00010698
0.000131149
-0.000136178
-5.89814e-05
9.08929e-05
9.92345e-05
-2.61175e-05
7.41191e-05
5.75694e-05
-4.31038e-05
0.000100701
-9.78688e-05
0.00012886
0.000157624
-0.000164596
-6.11349e-05
0.000116758
0.000101937
-2.65983e-05
9.46835e-05
7.37167e-05
2.93641e-05
4.83223e-05
5.56765e-05
6.2304e-05
7.66196e-05
9.8207e-05
7.95092e-05
0.000131273
-0.000135821
3.74682e-05
0.000107771
8.38676e-05
2.89907e-05
5.54158e-05
6.4291e-05
7.14674e-05
8.74879e-05
0.000108593
8.61541e-05
0.000146506
-0.000145258
3.85479e-05
0.000119342
9.37987e-05
3.04781e-05
6.34439e-05
6.85034e-05
8.11307e-05
9.96621e-05
0.000115419
0.000101608
0.000169262
-0.000171226
4.46491e-05
0.000138149
0.000108045
3.01339e-05
7.85132e-05
6.86445e-05
9.89504e-05
0.000122015
0.00011606
-6.5002e-05
7.94972e-05
0.000103676
-2.19198e-05
6.53334e-05
5.05444e-05
-3.44737e-05
8.7936e-05
-8.53003e-05
0.00011098
0.000137198
-0.000140482
-6.77272e-05
9.09167e-05
0.000113247
-2.93341e-05
7.39698e-05
5.78491e-05
-3.88454e-05
9.68121e-05
-8.83253e-05
0.000123263
0.000151841
-0.000149182
-7.02579e-05
0.000102874
0.000119179
-3.08058e-05
8.38971e-05
6.59406e-05
-4.68673e-05
0.000112773
-0.000105688
0.000142733
0.000174299
-0.000177126
-7.03898e-05
0.000126721
0.000118119
-3.13572e-05
0.000102998
8.20598e-05
2.27751e-05
5.2617e-05
6.81476e-05
6.79656e-05
8.25048e-05
0.000108237
8.96661e-05
0.000141412
-0.000144955
3.43574e-05
0.000116028
9.10375e-05
3.0412e-05
5.94877e-05
7.1789e-05
7.67737e-05
9.35563e-05
0.000118439
9.01428e-05
0.000155094
-0.000151529
4.0121e-05
0.000126419
9.98666e-05
3.43356e-05
6.53848e-05
7.83229e-05
8.26458e-05
0.000100854
0.000132449
9.3588e-05
0.000164007
-0.000156701
4.10825e-05
0.000135045
0.00010654
3.51483e-05
7.13319e-05
7.94637e-05
9.08097e-05
0.000110829
0.000132604
0.000109356
0.000185146
-0.00018368
4.88865e-05
0.000151316
0.000120172
3.46009e-05
8.63699e-05
7.62989e-05
0.000108805
0.000133721
0.000127836
-7.14628e-05
8.65542e-05
0.000114138
-2.32636e-05
7.21585e-05
5.56503e-05
-3.48665e-05
9.60754e-05
-9.35225e-05
0.000120959
0.000148656
-0.000150802
-7.56682e-05
9.85457e-05
0.000124056
-3.15858e-05
7.99556e-05
6.28303e-05
-4.11001e-05
0.000104447
-9.47837e-05
0.000132797
0.000161106
-0.000156947
-8.22681e-05
0.000105522
0.000137552
-3.54698e-05
8.65374e-05
6.86417e-05
-4.30508e-05
0.000111738
-9.82758e-05
0.000141681
0.000172726
-0.000165441
-8.2174e-05
0.00011668
0.00013821
-3.63476e-05
9.58708e-05
7.53736e-05
-5.22739e-05
0.000127625
-0.000117688
0.000161301
0.000196086
-0.000197097
-8.02574e-05
0.000141975
0.000134453
-3.56559e-05
0.00011616
9.24502e-05
2.81265e-05
5.90673e-05
7.63104e-05
7.62091e-05
9.30708e-05
0.000121923
9.91568e-05
0.000157524
-0.000160454
3.95115e-05
0.000129345
0.000102266
3.42253e-05
6.70023e-05
8.05355e-05
8.49466e-05
0.000103988
0.000133054
9.90325e-05
0.000171007
-0.000165813
4.38678e-05
0.000139503
0.00011126
3.9043e-05
7.19426e-05
8.77903e-05
9.11657e-05
0.00011093
0.000147681
0.000101629
0.000178774
-0.000169381
4.52453e-05
0.000147279
0.000117367
4.12936e-05
7.59181e-05
9.21906e-05
9.66187e-05
0.000116984
0.000153895
0.00010645
0.000189383
-0.000178811
4.76579e-05
0.000155315
0.000123647
4.0909e-05
8.26872e-05
9.12065e-05
0.000105084
0.000127559
0.000153007
0.000125946
0.000213015
-0.000211401
5.59662e-05
0.000175055
0.000138644
3.96256e-05
9.93784e-05
8.90286e-05
0.000125294
0.000151588
0.000150507
-8.09435e-05
9.90496e-05
0.000131249
-3.19425e-05
8.17921e-05
6.38932e-05
-4.31639e-05
0.000109823
-0.000103781
0.000137655
0.000167156
-0.000169606
-8.59905e-05
0.000110319
0.00014202
-3.71794e-05
9.03914e-05
7.17315e-05
-4.53229e-05
0.000117599
-0.000104455
0.000148757
0.000179822
-0.000173644
-9.38306e-05
0.000117307
0.000156088
-4.092e-05
9.64742e-05
7.62451e-05
-4.66646e-05
0.000123153
-0.000106008
0.000155447
0.000188585
-0.000177156
-9.70175e-05
0.000123459
0.00016204
-4.26131e-05
0.000101354
8.03335e-05
-4.97125e-05
0.00013015
-0.000112738
0.000164219
0.000198165
-0.000187386
-9.56971e-05
0.000133885
0.000159929
-4.16936e-05
0.000110347
8.83695e-05
-5.91857e-05
0.000147597
-0.000133833
0.000184934
0.000224627
-0.000224552
-9.32795e-05
0.000162311
0.000155559
-4.09549e-05
0.000132789
0.000106473
3.88215e-05
6.93094e-05
8.30997e-05
8.5835e-05
0.000106534
0.000139937
0.000107907
0.000178967
-0.000181679
4.93435e-05
0.000147324
0.000117064
4.1003e-05
7.66568e-05
8.99005e-05
9.72815e-05
0.00011761
0.000151836
0.000112042
0.000192708
-0.000187422
5.01575e-05
0.000159877
0.000126388
4.49828e-05
8.17788e-05
0.000101037
0.000103214
0.000126152
0.000167859
0.000114208
0.000202251
-0.000190465
5.0626e-05
0.000167281
0.000132138
4.56574e-05
8.67372e-05
0.000104349
0.000108133
0.000131743
0.000175012
0.000119702
0.000212784
-0.000200814
5.31081e-05
0.000174924
0.000139716
4.57622e-05
9.40342e-05
0.000103056
0.000117507
0.000143098
0.000172772
0.000141393
0.000237666
-0.000235975
6.23096e-05
0.000196674
0.000156279
4.4735e-05
0.000111947
0.000101162
0.000139847
0.000169913
0.00016895
-9.05982e-05
0.000110932
0.000147004
-3.60179e-05
9.1747e-05
7.17484e-05
-4.77103e-05
0.00012284
-0.000116144
0.00015438
0.000187074
-0.000189537
-9.69069e-05
0.000122481
0.000160438
-4.1932e-05
0.000101414
7.97398e-05
-5.1674e-05
0.000132186
-0.000117017
0.000165624
0.000201085
-0.000195152
-0.000105401
0.000131058
0.000175063
-4.60135e-05
0.000107113
8.55682e-05
-5.19083e-05
0.000137981
-0.000118769
0.000173256
0.000209666
-0.000197129
-0.00010875
0.000137128
0.000181065
-4.82974e-05
0.000113446
8.92362e-05
-5.56466e-05
0.000145155
-0.000125256
0.00018266
0.000221252
-0.000209254
-0.000107281
0.00014942
0.000179012
-4.68326e-05
0.000122535
9.80961e-05
-6.62657e-05
0.000164465
-0.000149378
0.000205494
0.000249663
-0.000249582
-0.000103454
0.00018064
0.0001724