/*--------------------------------*- C++ -*----------------------------------*\
| =========                 |                                                 |
| \\      /  F ield         | OpenFOAM: The Open Source CFD Toolbox           |
|  \\    /   O peration     | Version:  v2006                                 |
|   \\  /    A nd           | Website:  www.openfoam.com                      |
|    \\/     M anipulation  |                                                 |
\*---------------------------------------------------------------------------*/
FoamFile
{
    version     2.0;
    format      ascii;
    class       volScalarField;
    location    "0.022";
    object      rho;
}
// * * * * * * * * * * * * * * * * * * * * * * * * * * * * * * * * * * * * * //

dimensions      [1 -3 0 0 0 0 0];


internalField   nonuniform List<scalar> 
10108
(
1.71186
1.71186
1.71178
1.71186
1.7118
1.71182
1.71181
1.71187
1.71195
1.71204
1.71215
1.71225
1.71236
1.71248
1.7126
1.71273
1.71286
1.713
1.71314
1.71329
1.71345
1.71361
1.71377
1.71394
1.71412
1.7143
1.71448
1.71467
1.71485
1.71504
1.71524
1.71543
1.71563
1.71583
1.71603
1.71622
1.71642
1.71662
1.71681
1.71701
1.7172
1.71739
1.71757
1.71776
1.71793
1.71811
1.71828
1.71844
1.7186
1.71875
1.7189
1.71904
1.71917
1.7193
1.71942
1.71954
1.71964
1.71974
1.71981
1.71988
1.71992
1.71993
1.71994
1.71995
1.7199
1.71995
1.72
1.72007
1.72029
1.72062
1.72079
1.72064
1.72031
1.72067
1.7207
1.72061
1.72051
1.72006
1.71983
1.72034
1.72048
1.72034
1.72017
1.71963
1.71947
1.72001
1.7202
1.72009
1.71989
1.71934
1.71924
1.71978
1.71999
1.71991
1.71969
1.71916
1.71909
1.71961
1.71984
1.71977
1.71954
1.71904
1.719
1.71949
1.71972
1.71967
1.71944
1.71897
1.71895
1.7194
1.71964
1.71961
1.71938
1.71894
1.71893
1.71935
1.71958
1.71956
1.71934
1.71894
1.71895
1.71933
1.71956
1.71956
1.71934
1.71897
1.71899
1.71934
1.71956
1.71957
1.71936
1.71902
1.71906
1.71938
1.71958
1.71961
1.71941
1.7191
1.71914
1.71943
1.71963
1.71967
1.71948
1.71919
1.71924
1.71951
1.7197
1.71975
1.71956
1.7193
1.71936
1.71961
1.71979
1.71984
1.71967
1.71943
1.71949
1.71972
1.71989
1.71995
1.71979
1.71957
1.71963
1.71984
1.72001
1.72008
1.71992
1.71972
1.7198
1.71999
1.72015
1.72023
1.72008
1.71989
1.71998
1.72015
1.7203
1.72039
1.72025
1.72008
1.72017
1.72033
1.72047
1.72057
1.72044
1.72029
1.72039
1.72053
1.72066
1.72077
1.72065
1.72051
1.72063
1.72075
1.72087
1.72099
1.72087
1.72076
1.72088
1.72098
1.7211
1.72123
1.72112
1.72102
1.72115
1.72124
1.72134
1.72148
1.72139
1.7213
1.72144
1.72151
1.72161
1.72176
1.72167
1.7216
1.72174
1.7218
1.72189
1.72205
1.72197
1.72191
1.72206
1.72211
1.72219
1.72236
1.72229
1.72225
1.72241
1.72244
1.72251
1.72269
1.72263
1.7226
1.72277
1.72279
1.72285
1.72305
1.72299
1.72298
1.72316
1.72317
1.72322
1.72342
1.72338
1.72338
1.72357
1.72356
1.7236
1.72382
1.72379
1.7238
1.724
1.72398
1.72401
1.72423
1.72421
1.72425
1.72446
1.72442
1.72444
1.72468
1.72467
1.72471
1.72494
1.72489
1.72489
1.72514
1.72514
1.7252
1.72544
1.72537
1.72537
1.72563
1.72564
1.72571
1.72597
1.72588
1.72587
1.72614
1.72616
1.72624
1.72651
1.72641
1.72639
1.72667
1.7267
1.7268
1.72708
1.72697
1.72694
1.72723
1.72727
1.72738
1.72767
1.72755
1.7275
1.7278
1.72786
1.72799
1.7283
1.72815
1.72809
1.7284
1.72847
1.72863
1.72896
1.72878
1.7287
1.72903
1.72912
1.72931
1.72965
1.72945
1.72934
1.72968
1.7298
1.73002
1.73038
1.73014
1.73001
1.73036
1.73051
1.73076
1.73114
1.73087
1.73071
1.73107
1.73125
1.73153
1.73192
1.73162
1.73143
1.7318
1.73202
1.73234
1.73282
1.73244
1.73219
1.7326
1.73288
1.73323
1.73332
1.73323
1.733
1.73331
1.73332
1.73278
1.73249
1.73297
1.73337
1.73314
1.73273
1.73251
1.73261
1.73271
1.73299
1.73288
1.7327
1.73264
1.73273
1.73278
1.7329
1.73293
1.73285
1.7328
1.73296
1.73297
1.73302
1.73307
1.73305
1.73304
1.73322
1.73319
1.73317
1.73326
1.73329
1.7333
1.73347
1.73343
1.73339
1.73347
1.7335
1.73352
1.73364
1.7336
1.73356
1.73361
1.73364
1.73366
1.73372
1.73369
1.73365
1.73366
1.73369
1.73372
1.73376
1.73372
1.73369
1.73369
1.73372
1.73375
1.73378
1.73376
1.73372
1.73374
1.73377
1.73379
1.73382
1.7338
1.73378
1.7338
1.73382
1.73383
1.73384
1.73384
1.73382
1.73381
1.73383
1.73383
1.73381
1.73382
1.7338
1.73377
1.73378
1.73377
1.73372
1.73373
1.73373
1.73367
1.73366
1.73365
1.73357
1.73358
1.73359
1.7335
1.73349
1.73347
1.73337
1.73339
1.7334
1.73328
1.73327
1.73326
1.73314
1.73315
1.73316
1.73303
1.73302
1.73302
1.73289
1.73289
1.73289
1.73275
1.73276
1.73278
1.73263
1.73262
1.73261
1.73247
1.73249
1.73253
1.73238
1.73235
1.73232
1.73219
1.73223
1.73228
1.73214
1.73209
1.73205
1.73192
1.73198
1.73205
1.73192
1.73185
1.73179
1.73168
1.73175
1.73183
1.73171
1.73163
1.73155
1.73146
1.73154
1.73163
1.73153
1.73143
1.73134
1.7312
1.73105
1.73089
1.73081
1.7307
1.7307
1.73068
1.7308
1.73086
1.731
1.73108
1.7312
1.73127
1.73137
1.73142
1.73147
1.73151
1.73153
1.73156
1.73158
1.73152
1.73151
1.73146
1.73134
1.73126
1.7313
1.73021
1.73027
1.73178
1.73149
1.73065
1.73238
1.72687
1.73103
1.73069
1.73108
1.73141
1.73116
1.73062
1.73096
1.7313
1.73156
1.73171
1.73147
1.73106
1.7313
1.73162
1.73184
1.73196
1.73176
1.73141
1.73162
1.73191
1.7321
1.7322
1.73203
1.73174
1.73191
1.73217
1.73233
1.73243
1.73228
1.73205
1.73218
1.7324
1.73254
1.73264
1.73251
1.73231
1.73242
1.73261
1.73274
1.73284
1.73272
1.73254
1.73263
1.73282
1.73294
1.73304
1.73292
1.73275
1.73284
1.73302
1.73314
1.73324
1.73313
1.73296
1.73305
1.73323
1.73334
1.73344
1.73334
1.73317
1.73327
1.73343
1.73354
1.73365
1.73354
1.73338
1.73347
1.73364
1.73374
1.73385
1.73375
1.73359
1.73368
1.73385
1.73395
1.73406
1.73396
1.7338
1.7339
1.73406
1.73416
1.73426
1.73417
1.73401
1.73411
1.73427
1.73436
1.73447
1.73438
1.73423
1.73433
1.73448
1.73457
1.73467
1.73459
1.73444
1.73454
1.73468
1.73477
1.73487
1.73479
1.73465
1.73475
1.73489
1.73497
1.73508
1.735
1.73486
1.73496
1.73509
1.73517
1.73527
1.73519
1.73506
1.73515
1.73528
1.73536
1.73545
1.73538
1.73525
1.73533
1.73547
1.73554
1.73563
1.73557
1.73543
1.73549
1.73563
1.7357
1.73575
1.73568
1.73553
1.73559
1.73576
1.73583
1.73596
1.73588
1.73571
1.73588
1.73607
1.73614
1.73639
1.73632
1.73616
1.7364
1.73657
1.73664
1.7369
1.73684
1.73666
1.73694
1.73712
1.73718
1.73747
1.73741
1.73725
1.73753
1.73771
1.73775
1.73804
1.73799
1.73779
1.73802
1.73827
1.73833
1.73864
1.73857
1.73826
1.73849
1.73891
1.73898
1.73932
1.73925
1.73866
1.73894
1.73969
1.73973
1.74005
1.7402
1.73925
1.73892
1.73999
1.74063
1.74039
1.74041
1.7406
1.74081
1.74087
1.74082
1.74117
1.74122
1.74123
1.74159
1.74164
1.74158
1.74203
1.74209
1.74203
1.74247
1.74262
1.74254
1.74302
1.74315
1.74306
1.74295
1.74416
1.74356
1.74397
1.74414
1.74435
1.74463
1.74462
1.74447
1.74484
1.74506
1.74511
1.74562
1.74553
1.7452
1.74597
1.74604
1.74617
1.74684
1.74658
1.74609
1.74534
1.74606
1.74652
1.74778
1.74702
1.74602
1.74436
1.74592
1.74724
1.74593
1.74465
1.74318
1.73374
1.7315
1.74141
1.69621
1.70494
1.70815
1.69246
1.68829
1.67845
1.67418
1.68223
1.68716
1.68926
1.68651
1.68322
1.68595
1.68835
1.69048
1.69058
1.68906
1.68735
1.69199
1.69351
1.69466
1.69595
1.6947
1.69353
1.69408
1.69347
1.69576
1.69853
1.69823
1.69705
1.69789
1.69851
1.69943
1.6985
1.69951
1.697
1.70051
1.70102
1.70165
1.70193
1.70145
1.70083
1.70096
1.70109
1.70188
1.70383
1.70358
1.70307
1.70324
1.7036
1.70397
1.70373
1.7033
1.70309
1.70504
1.70539
1.70558
1.70559
1.70531
1.70495
1.70487
1.70498
1.7054
1.70694
1.70678
1.70644
1.70627
1.70662
1.70688
1.70671
1.70636
1.70631
1.7076
1.70794
1.70804
1.70795
1.70767
1.7074
1.7073
1.70737
1.70768
1.70887
1.70877
1.70842
1.70826
1.70852
1.7088
1.70839
1.70811
1.70803
1.70914
1.70951
1.70959
1.70944
1.70918
1.70886
1.70876
1.70879
1.7091
1.71014
1.71008
1.70964
1.70959
1.70953
1.70978
1.709
1.71217
1.70653
1.71006
1.71025
1.71096
1.71011
1.7099
1.70874
1.71025
1.71098
1.711
1.7108
1.71063
1.71009
1.70944
1.70967
1.71017
1.71115
1.71104
1.71037
1.71069
1.71067
1.71092
1.70975
1.7127
1.70731
1.71061
1.71075
1.71158
1.71066
1.7104
1.7093
1.71099
1.71161
1.71156
1.71121
1.71096
1.71037
1.70958
1.70987
1.71036
1.71136
1.71123
1.71062
1.71036
1.71058
1.71086
1.7115
1.71144
1.71092
1.71028
1.71073
1.71104
1.71011
1.70978
1.70952
1.71079
1.71125
1.7113
1.71069
1.7104
1.71016
1.71054
1.71107
1.71115
1.71069
1.71036
1.70992
1.70935
1.70956
1.70983
1.71095
1.71095
1.71058
1.70964
1.70994
1.71021
1.71063
1.71055
1.71003
1.70938
1.70983
1.71014
1.70931
1.70909
1.70889
1.70985
1.71026
1.71028
1.70952
1.70924
1.7089
1.70936
1.70987
1.70992
1.7093
1.709
1.70838
1.70956
1.70697
1.70919
1.7091
1.71021
1.70866
1.7083
1.70824
1.70874
1.70893
1.7089
1.70828
1.70746
1.70779
1.7081
1.70871
1.70869
1.70804
1.70805
1.70805
1.70824
1.70661
1.70964
1.70499
1.70803
1.70668
1.70858
1.70705
1.70722
1.70609
1.70683
1.70748
1.70757
1.70684
1.70661
1.70618
1.70667
1.70726
1.70723
1.70659
1.70619
1.70608
1.7026
1.70803
1.70472
1.70711
1.70456
1.70662
1.7042
1.70572
1.7052
1.70596
1.70594
1.70549
1.70416
1.70478
1.70499
1.70519
1.7051
1.70447
1.70347
1.70401
1.70424
1.70463
1.7046
1.70392
1.70344
1.70358
1.70387
1.7024
1.70619
1.70042
1.70465
1.70156
1.70496
1.70255
1.70333
1.70154
1.70228
1.7028
1.70311
1.70204
1.70185
1.70103
1.70156
1.70232
1.70241
1.70159
1.70134
1.7009
1.70107
1.70181
1.70178
1.70103
1.70046
1.70017
1.69756
1.70175
1.69905
1.7011
1.69873
1.70066
1.69838
1.69969
1.69931
1.69998
1.69978
1.6993
1.69807
1.69878
1.69894
1.69898
1.69881
1.69811
1.69679
1.69753
1.69777
1.6981
1.698
1.69723
1.69624
1.69683
1.69711
1.69731
1.69729
1.69647
1.6957
1.69606
1.69656
1.69472
1.69649
1.6935
1.69585
1.69455
1.69638
1.69485
1.69496
1.69379
1.69419
1.69472
1.69508
1.69381
1.69362
1.69274
1.69311
1.69388
1.69411
1.69299
1.69275
1.69198
1.69232
1.69315
1.69324
1.69202
1.69172
1.69092
1.69129
1.69212
1.69215
1.6913
1.69089
1.69004
1.68934
1.68849
1.68993
1.69005
1.69088
1.68902
1.68862
1.68878
1.68946
1.68943
1.68956
1.68824
1.6872
1.68765
1.68824
1.6882
1.68822
1.68698
1.68564
1.68633
1.68688
1.68722
1.6872
1.68606
1.68492
1.68566
1.68607
1.68613
1.68612
1.68504
1.68383
1.68442
1.68501
1.68281
1.68479
1.68105
1.68408
1.68258
1.68473
1.68292
1.68305
1.68157
1.68203
1.68266
1.68314
1.68159
1.68138
1.68027
1.68056
1.68148
1.68173
1.68023
1.67987
1.67865
1.67924
1.68014
1.68038
1.67896
1.6786
1.67754
1.67809
1.6791
1.67914
1.67801
1.67748
1.67645
1.676
1.67439
1.6767
1.67619
1.6779
1.67494
1.67418
1.67446
1.67555
1.67524
1.67535
1.6737
1.67242
1.67291
1.67383
1.6739
1.67403
1.67241
1.67092
1.67172
1.67238
1.67238
1.67241
1.67102
1.66926
1.67014
1.67082
1.67065
1.6706
1.66929
1.66741
1.66854
1.66935
1.66748
1.66519
1.66634
1.66607
1.66903
1.66762
1.66693
1.66566
1.66526
1.66502
1.66696
1.66659
1.66502
1.66401
1.66358
1.66273
1.66463
1.66447
1.66252
1.66152
1.66058
1.66052
1.66242
1.66255
1.66088
1.66004
1.65903
1.65948
1.66105
1.66109
1.65991
1.65925
1.65789
1.65555
1.65599
1.65703
1.65758
1.65818
1.65574
1.65466
1.65506
1.65604
1.65527
1.65475
1.65285
1.65034
1.65188
1.6529
1.6536
1.65338
1.65164
1.65005
1.65139
1.65206
1.65195
1.65184
1.65016
1.64804
1.64965
1.65034
1.64716
1.64624
1.64529
1.64652
1.64633
1.64763
1.6453
1.64485
1.64264
1.64362
1.64489
1.64552
1.64331
1.64282
1.64092
1.64183
1.64321
1.64367
1.64147
1.64091
1.63907
1.63918
1.64074
1.64107
1.63912
1.63847
1.63654
1.63223
1.63356
1.63482
1.63554
1.63444
1.63315
1.63067
1.63276
1.63337
1.63387
1.63338
1.63178
1.62902
1.63109
1.63162
1.6312
1.63085
1.62901
1.62596
1.62812
1.6289
1.62451
1.62342
1.62226
1.62111
1.62369
1.62455
1.62186
1.62046
1.61834
1.62022
1.62262
1.62288
1.621
1.62002
1.61821
1.61757
1.61978
1.62
1.61744
1.61651
1.61427
1.61036
1.61177
1.61275
1.61216
1.61106
1.6082
1.60515
1.60753
1.60924
1.60994
1.60943
1.60679
1.60543
1.60822
1.60884
1.6056
1.60122
1.60322
1.60114
1.60581
1.60367
1.60143
1.59914
1.59886
1.59336
1.59718
1.59834
1.5956
1.59349
1.58994
1.58728
1.5895
1.59104
1.59314
1.59264
1.58989
1.58752
1.58965
1.59088
1.58869
1.58838
1.58575
1.58005
1.58331
1.58483
1.57658
1.57365
1.5703
1.57383
1.57716
1.57808
1.57581
1.57445
1.57222
1.57199
1.57502
1.57547
1.57286
1.57128
1.56835
1.56074
1.56332
1.56481
1.56185
1.55985
1.55548
1.55142
1.55484
1.55767
1.55865
1.5577
1.55405
1.55244
1.55561
1.55737
1.55141
1.54983
1.54819
1.54571
1.54811
1.54862
1.54253
1.53931
1.53294
1.52665
1.53112
1.53469
1.5362
1.53501
1.53127
1.52904
1.53384
1.53439
1.5312
1.52391
1.52667
1.51761
1.5229
1.52336
1.51622
1.51218
1.50338
1.49988
1.50471
1.50858
1.50942
1.50888
1.50362
1.50366
1.50552
1.50838
1.49693
1.50243
1.48541
1.47779
1.4868
1.4923
1.48668
1.48237
1.47493
1.47154
1.47528
1.47962
1.47651
1.47533
1.47196
1.44932
1.46259
1.46818
1.4593
1.4542
1.44395
1.44288
1.44868
1.45254
1.45004
1.44866
1.44365
1.41974
1.43624
1.44227
1.43444
1.42935
1.4174
1.41962
1.42637
1.42969
1.41515
1.40737
1.39256
1.40056
1.41144
1.41694
1.41778
1.41135
1.39809
1.38535
1.40519
1.41379
1.41076
1.40404
1.38608
1.38207
1.4026
1.41003
1.41125
1.40422
1.38383
1.40069
1.41733
1.42339
1.44437
1.43809
1.42301
1.43789
1.4514
1.45855
1.46661
1.45824
1.44535
1.45258
1.46412
1.47283
1.4783
1.46884
1.4581
1.46398
1.47355
1.48288
1.48666
1.47689
1.46827
1.4727
1.4804
1.48973
1.49244
1.48295
1.47619
1.47983
1.48592
1.49482
1.49701
1.48817
1.4829
1.48602
1.49078
1.49898
1.50083
1.49286
1.48874
1.4914
1.49511
1.50248
1.50404
1.49701
1.49378
1.49604
1.49896
1.50544
1.50681
1.50072
1.49816
1.50012
1.50243
1.50805
1.50932
1.50406
1.50201
1.50372
1.50558
1.51043
1.51167
1.50711
1.50544
1.50696
1.50847
1.51267
1.51389
1.50989
1.50853
1.50988
1.5111
1.51478
1.51598
1.51243
1.51133
1.51256
1.51354
1.51682
1.51799
1.5148
1.51389
1.515
1.51583
1.51877
1.51991
1.51701
1.51623
1.51724
1.51798
1.52068
1.52176
1.51909
1.51838
1.5193
1.52
1.52253
1.52356
1.52105
1.52036
1.5212
1.5219
1.52429
1.52525
1.52289
1.52219
1.52298
1.52369
1.52595
1.52685
1.52462
1.5239
1.52463
1.52536
1.52752
1.52836
1.52626
1.52549
1.52618
1.52695
1.529
1.52978
1.52778
1.52699
1.52763
1.52843
1.53038
1.53112
1.52922
1.52839
1.52901
1.52985
1.53167
1.53238
1.53058
1.52971
1.5303
1.53116
1.53287
1.53356
1.53186
1.53097
1.53153
1.5324
1.534
1.53466
1.53305
1.53215
1.53268
1.53357
1.53508
1.5357
1.53418
1.53327
1.53377
1.53467
1.5361
1.53666
1.53523
1.53432
1.5348
1.53569
1.53704
1.53757
1.53623
1.53533
1.53578
1.53666
1.53792
1.53841
1.53715
1.53627
1.53669
1.53756
1.53874
1.5392
1.53802
1.53716
1.53756
1.53841
1.53951
1.53994
1.53883
1.53799
1.53837
1.53919
1.54023
1.54063
1.5396
1.53878
1.53914
1.53993
1.5409
1.54127
1.54031
1.53952
1.53985
1.54062
1.54152
1.54187
1.54097
1.54021
1.54054
1.54127
1.54211
1.54244
1.5416
1.54087
1.54117
1.54187
1.54266
1.54297
1.54218
1.54148
1.54176
1.54244
1.54317
1.54347
1.54272
1.54206
1.54232
1.54296
1.54366
1.54393
1.54323
1.54259
1.54285
1.54346
1.54411
1.54437
1.54371
1.5431
1.54333
1.54392
1.54453
1.54478
1.54415
1.54357
1.54379
1.54435
1.54493
1.54516
1.54457
1.54401
1.54421
1.54475
1.54531
1.54552
1.54495
1.54442
1.54461
1.54513
1.54566
1.54587
1.54532
1.54481
1.54498
1.54548
1.54599
1.54618
1.54566
1.54517
1.54533
1.54581
1.5463
1.54649
1.54597
1.5455
1.54566
1.54612
1.5466
1.54676
1.54627
1.54582
1.54596
1.54641
1.54687
1.54703
1.54655
1.54611
1.54624
1.54669
1.54714
1.54728
1.54682
1.54639
1.54651
1.54694
1.54738
1.54751
1.54706
1.54664
1.54676
1.54718
1.54761
1.54773
1.54729
1.54688
1.54699
1.5474
1.54782
1.54794
1.54751
1.54711
1.54721
1.54761
1.54802
1.54813
1.54771
1.54732
1.54741
1.54781
1.54821
1.54831
1.5479
1.54751
1.5476
1.548
1.54839
1.54848
1.54808
1.5477
1.54778
1.54817
1.54855
1.54864
1.54824
1.54787
1.54795
1.54833
1.54871
1.54879
1.5484
1.54803
1.54811
1.54848
1.54886
1.54893
1.54855
1.54819
1.54826
1.54863
1.54899
1.54906
1.54869
1.54833
1.5484
1.54876
1.54912
1.54919
1.54882
1.54847
1.54853
1.54889
1.54925
1.5493
1.54894
1.5486
1.54865
1.54901
1.54936
1.54942
1.54905
1.54872
1.54877
1.54912
1.54947
1.54952
1.54916
1.54883
1.54888
1.54923
1.54957
1.54962
1.54927
1.54894
1.54898
1.54932
1.54967
1.54971
1.54936
1.54904
1.54908
1.54942
1.54976
1.5498
1.54945
1.54913
1.54917
1.54951
1.54984
1.54988
1.54954
1.54922
1.54926
1.54959
1.54992
1.54996
1.54961
1.5493
1.54933
1.54966
1.54999
1.55002
1.54969
1.54937
1.54941
1.54973
1.55006
1.55009
1.54976
1.54944
1.54948
1.5498
1.55013
1.55015
1.54982
1.54951
1.54954
1.54986
1.55019
1.55021
1.54988
1.54957
1.5496
1.54992
1.55024
1.55026
1.54993
1.54963
1.54966
1.54997
1.55029
1.55031
1.54998
1.54968
1.54971
1.55002
1.55034
1.55035
1.55003
1.54973
1.54976
1.55006
1.55038
1.5504
1.55007
1.54978
1.5498
1.55011
1.55042
1.55043
1.55012
1.54982
1.54984
1.55015
1.55046
1.55047
1.55015
1.54986
1.54988
1.55018
1.5505
1.5505
1.55019
1.5499
1.54992
1.55022
1.55053
1.55053
1.55022
1.54994
1.54995
1.55025
1.55056
1.55056
1.55025
1.54997
1.54998
1.55028
1.55059
1.55059
1.55028
1.55
1.55001
1.5503
1.55061
1.55061
1.5503
1.55003
1.55004
1.55033
1.55063
1.55063
1.55032
1.55005
1.55006
1.55035
1.55065
1.55064
1.55034
1.55007
1.55008
1.55036
1.55066
1.55066
1.55036
1.55008
1.55009
1.55037
1.55067
1.55066
1.55037
1.5501
1.5501
1.55038
1.55068
1.55067
1.55037
1.5501
1.5501
1.55039
1.55068
1.55067
1.55037
1.55011
1.5501
1.55039
1.55068
1.55067
1.55037
1.5501
1.5501
1.55038
1.55068
1.55066
1.55037
1.5501
1.5501
1.55038
1.55067
1.55065
1.55036
1.55009
1.55009
1.55037
1.55066
1.55064
1.55035
1.55009
1.55008
1.55036
1.55065
1.55063
1.55034
1.55008
1.55007
1.55035
1.55064
1.55062
1.55033
1.55007
1.55006
1.55034
1.55063
1.55061
1.55032
1.55006
1.55005
1.55032
1.55061
1.5506
1.5503
1.55005
1.55003
1.5503
1.5506
1.55059
1.55029
1.55003
1.55001
1.5503
1.55058
1.55059
1.55029
1.55003
1.55001
1.5503
1.55059
1.55061
1.55031
1.55004
1.55001
1.55031
1.5506
1.55066
1.55033
1.55002
1.55007
1.5504
1.55073
1.55127
1.55074
1.5504
1.55136
1.55166
1.55217
1.5524
1.552
1.55184
1.55309
1.55662
1.55765
1.55782
1.5611
1.56332
1.56391
1.56425
1.56588
1.567
1.56814
1.56889
1.56959
1.57018
1.57066
1.57101
1.57127
1.57145
1.57158
1.57166
1.57172
1.57175
1.57178
1.57179
1.5718
1.5718
1.5718
1.57179
1.57178
1.57178
1.57178
1.57177
1.57177
1.57181
1.57187
1.57193
1.57201
1.5721
1.57222
1.57235
1.57252
1.57271
1.57293
1.57317
1.5734
1.57361
1.57376
1.57383
1.57387
1.57393
1.57402
1.57412
1.57424
1.57437
1.5745
1.57465
1.57481
1.57499
1.57519
1.57542
1.57568
1.57597
1.57632
1.57671
1.57716
1.57767
1.57826
1.57892
1.57968
1.58052
1.58147
1.58253
1.58372
1.58503
1.58648
1.58807
1.58981
1.5917
1.59374
1.59594
1.59828
1.60077
1.60339
1.60613
1.60897
1.61191
1.61493
1.61801
1.62113
1.62427
1.62743
1.63058
1.63371
1.63681
1.63986
1.64287
1.6458
1.64867
1.65146
1.65417
1.6568
1.65934
1.66179
1.66415
1.66642
1.66861
1.67071
1.67272
1.67464
1.67649
1.67825
1.67994
1.68155
1.68309
1.68456
1.68596
1.6873
1.68858
1.68979
1.69095
1.69206
1.69311
1.69412
1.69507
1.69598
1.69685
1.69767
1.69846
1.69921
1.69992
1.7006
1.70125
1.70186
1.70245
1.70301
1.70354
1.70404
1.70452
1.70498
1.70541
1.70583
1.70622
1.70659
1.70694
1.70728
1.7076
1.70791
1.70819
1.70847
1.70873
1.70898
1.70921
1.70943
1.70964
1.70983
1.71002
1.71019
1.71034
1.71049
1.71063
1.71075
1.71087
1.71098
1.71109
1.71122
1.71138
1.71159
1.71177
1.71184
1.71185
1.71181
1.71183
1.71194
1.71211
1.71221
1.71229
1.71237
1.71245
1.71254
1.71263
1.71274
1.71285
1.71296
1.71308
1.71321
1.71335
1.7135
1.71365
1.71381
1.71397
1.71414
1.71431
1.71449
1.71467
1.71486
1.71505
1.71524
1.71543
1.71562
1.71581
1.71601
1.7162
1.7164
1.71659
1.71678
1.71697
1.71716
1.71734
1.71752
1.7177
1.71787
1.71804
1.7182
1.71836
1.71851
1.71866
1.71879
1.71892
1.71905
1.71916
1.71927
1.71937
1.71947
1.71957
1.71966
1.71976
1.71981
1.71984
1.71991
1.72006
1.72021
1.72028
1.72029
1.7202
1.72013
1.72006
1.72
1.71995
1.7199
1.71986
1.71983
1.71981
1.71979
1.71977
1.71977
1.71977
1.71978
1.71979
1.71981
1.71983
1.71985
1.71988
1.71992
1.71996
1.72
1.72005
1.7201
1.72016
1.72022
1.72028
1.72035
1.72042
1.7205
1.72058
1.72067
1.72075
1.72085
1.72095
1.72105
1.72116
1.72127
1.72139
1.72151
1.72163
1.72176
1.7219
1.72204
1.72219
1.72233
1.72249
1.72265
1.72281
1.72298
1.72316
1.72333
1.72352
1.72371
1.72391
1.7241
1.72432
1.72452
1.72475
1.72497
1.7252
1.72543
1.72568
1.72592
1.72618
1.72643
1.7267
1.72696
1.72724
1.72751
1.7278
1.72808
1.72838
1.72867
1.72898
1.72928
1.72961
1.72992
1.73025
1.73057
1.73091
1.73125
1.7316
1.73195
1.73231
1.73269
1.73306
1.73337
1.73356
1.73356
1.73342
1.7333
1.73319
1.73318
1.73318
1.73324
1.73332
1.73341
1.73348
1.73354
1.73358
1.73361
1.73362
1.73364
1.73364
1.73367
1.73369
1.73372
1.73375
1.73377
1.73378
1.73377
1.73375
1.73371
1.73366
1.73359
1.7335
1.7334
1.73329
1.73317
1.73303
1.73289
1.73274
1.73259
1.73244
1.73229
1.73214
1.73199
1.73185
1.73171
1.73158
1.73144
1.73133
1.73119
1.73104
1.73119
1.73131
1.73147
1.7314
1.73159
1.73163
1.73177
1.73172
1.73151
1.73135
1.73118
1.731
1.73083
1.73093
1.73108
1.73149
1.73126
1.73099
1.73084
1.73095
1.73116
1.73173
1.73215
1.7319
1.73193
1.73194
1.7321
1.73208
1.73229
1.73227
1.73243
1.73243
1.73231
1.73266
1.73264
1.7326
1.73275
1.73276
1.73297
1.73291
1.73304
1.73305
1.73296
1.73317
1.73323
1.73318
1.73329
1.73328
1.73342
1.7334
1.73348
1.73345
1.73331
1.7334
1.73356
1.73356
1.7336
1.73354
1.73362
1.73365
1.73366
1.73357
1.73342
1.73339
1.7336
1.73368
1.73365
1.73351
1.73351
1.73363
1.73358
1.73341
1.73338
1.73341
1.73343
1.73356
1.73351
1.73334
1.7334
1.73351
1.73348
1.73335
1.7335
1.73373
1.73346
1.7335
1.73349
1.73344
1.73362
1.73352
1.7335
1.73362
1.73405
1.73435
1.73382
1.73351
1.73348
1.73377
1.73399
1.73347
1.73346
1.73387
1.73446
1.73436
1.73403
1.73353
1.73358
1.7339
1.734
1.73367
1.73366
1.73387
1.73418
1.73392
1.73388
1.7337
1.7337
1.73372
1.73365
1.73365
1.73348
1.73339
1.73353
1.73303
1.73321
1.73323
1.7329
1.73283
1.73259
1.73256
1.73221
1.73221
1.73246
1.73187
1.73196
1.73188
1.73155
1.73158
1.73132
1.73121
1.7309
1.73095
1.73126
1.73066
1.7307
1.73056
1.73026
1.73033
1.73008
1.72993
1.72963
1.72973
1.73007
1.72948
1.72948
1.72931
1.72903
1.72913
1.7289
1.72872
1.72844
1.72855
1.7289
1.72834
1.72832
1.72814
1.72786
1.72798
1.72776
1.72758
1.72731
1.72743
1.72779
1.72726
1.72723
1.72703
1.72678
1.7269
1.7267
1.72651
1.72626
1.72638
1.72674
1.72624
1.7262
1.72601
1.72577
1.72589
1.72571
1.72553
1.7253
1.72542
1.72577
1.72532
1.72525
1.72507
1.72485
1.72498
1.72482
1.72464
1.72443
1.72455
1.72489
1.72448
1.7244
1.72422
1.72402
1.72415
1.72401
1.72383
1.72364
1.72377
1.72409
1.72372
1.72363
1.72346
1.72328
1.72341
1.72328
1.72311
1.72294
1.72306
1.72337
1.72304
1.72295
1.72278
1.72262
1.72274
1.72263
1.72247
1.72232
1.72244
1.72272
1.72243
1.72234
1.72218
1.72203
1.72216
1.72206
1.72191
1.72177
1.72189
1.72216
1.72191
1.72181
1.72165
1.72153
1.72165
1.72157
1.72142
1.7213
1.72142
1.72167
1.72145
1.72135
1.7212
1.72109
1.72121
1.72114
1.721
1.7209
1.72101
1.72125
1.72106
1.72096
1.72082
1.72072
1.72084
1.72078
1.72065
1.72056
1.72067
1.72089
1.72073
1.72063
1.7205
1.72042
1.72053
1.72049
1.72036
1.7203
1.7204
1.72059
1.72046
1.72036
1.72024
1.72018
1.72028
1.72025
1.72014
1.72009
1.72018
1.72035
1.72025
1.72016
1.72005
1.72001
1.7201
1.72008
1.71998
1.71995
1.72003
1.72017
1.7201
1.72002
1.71993
1.71991
1.71998
1.71998
1.7199
1.71988
1.71995
1.72005
1.72001
1.71995
1.71988
1.71988
1.71993
1.71994
1.71989
1.7199
1.71995
1.72001
1.72002
1.71996
1.71992
1.71994
1.71998
1.72
1.71997
1.72
1.72003
1.72003
1.72006
1.72006
1.72005
1.72009
1.72009
1.72014
1.72015
1.72021
1.72018
1.72007
1.71994
1.72001
1.72003
1.72004
1.72006
1.72009
1.72014
1.7202
1.72027
1.72036
1.72046
1.72058
1.72071
1.72086
1.72102
1.7212
1.72139
1.72159
1.72181
1.72205
1.7223
1.72257
1.72286
1.72317
1.7235
1.72384
1.7242
1.72458
1.72498
1.72541
1.72585
1.72631
1.72679
1.7273
1.72782
1.72836
1.72892
1.72949
1.73008
1.73067
1.73127
1.73187
1.73246
1.73304
1.73356
1.73401
1.73436
1.73463
1.73482
1.73488
1.73473
1.73443
1.7341
1.73381
1.73358
1.73341
1.73328
1.73318
1.73309
1.73301
1.73289
1.73273
1.73252
1.73248
1.73226
1.73193
1.7316
1.7314
1.73112
1.73106
1.73124
1.73149
1.73181
1.7316
1.73132
1.73129
1.73147
1.73171
1.7321
1.7324
1.73254
1.73223
1.73194
1.73174
1.73148
1.73148
1.73167
1.73188
1.73205
1.73185
1.73161
1.73163
1.73183
1.73202
1.73236
1.73269
1.73298
1.73279
1.73263
1.73283
1.73265
1.73282
1.73299
1.73327
1.73304
1.7333
1.73303
1.73325
1.73354
1.73386
1.73358
1.73389
1.73353
1.73319
1.73341
1.73382
1.73414
1.73367
1.73395
1.73447
1.73492
1.73457
1.73422
1.73454
1.73419
1.73445
1.7341
1.73376
1.73344
1.73313
1.73282
1.73248
1.73214
1.73193
1.73171
1.73174
1.73195
1.73214
1.73222
1.73201
1.73179
1.73182
1.73204
1.73225
1.73258
1.73293
1.73289
1.73273
1.73252
1.73232
1.73209
1.73185
1.73182
1.73164
1.73159
1.73143
1.73118
1.73149
1.73166
1.73178
1.73163
1.73183
1.73195
1.73208
1.7323
1.73218
1.73204
1.73192
1.73207
1.73215
1.73225
1.73238
1.7325
1.73269
1.73287
1.73305
1.73307
1.73323
1.73326
1.73359
1.73393
1.73429
1.7343
1.73414
1.73393
1.73377
1.73357
1.73341
1.73341
1.73323
1.73314
1.73303
1.73295
1.73284
1.73277
1.73265
1.73258
1.73246
1.73237
1.73229
1.73249
1.73257
1.73268
1.73277
1.73288
1.73296
1.73307
1.73316
1.73322
1.73333
1.73341
1.73335
1.73326
1.73345
1.73352
1.73359
1.73378
1.73371
1.7336
1.73355
1.73365
1.73375
1.7338
1.7339
1.73397
1.73416
1.73435
1.73454
1.73451
1.73467
1.73465
1.73502
1.73481
1.73519
1.7349
1.73528
1.73566
1.73527
1.73481
1.73427
1.73461
1.73514
1.73546
1.73492
1.73515
1.73568
1.73622
1.73597
1.73562
1.73605
1.73647
1.73685
1.7376
1.73705
1.73651
1.73602
1.73559
1.73581
1.7354
1.7354
1.73525
1.73504
1.73488
1.73493
1.73473
1.73469
1.73459
1.73449
1.73439
1.73429
1.73419
1.7341
1.73399
1.73395
1.73385
1.73405
1.73415
1.73425
1.73435
1.73445
1.73455
1.73465
1.73475
1.73478
1.73488
1.73498
1.73495
1.73485
1.73505
1.73507
1.73511
1.7353
1.73526
1.73517
1.73515
1.73524
1.73534
1.73536
1.73544
1.73548
1.73567
1.73562
1.73578
1.73607
1.7361
1.73585
1.73578
1.73571
1.73562
1.73554
1.73552
1.73543
1.7356
1.73569
1.73576
1.73584
1.73588
1.73596
1.73612
1.73606
1.73592
1.73624
1.73626
1.73642
1.73632
1.7363
1.73691
1.73761
1.73838
1.73879
1.73833
1.73788
1.7375
1.73705
1.73672
1.73682
1.73726
1.73772
1.73768
1.73747
1.73717
1.73697
1.73669
1.73652
1.73647
1.73671
1.73696
1.73722
1.7375
1.73777
1.73805
1.73799
1.73822
1.73821
1.7387
1.73922
1.73967
1.73916
1.73952
1.73881
1.73779
1.73698
1.73633
1.73579
1.7353
1.73533
1.73579
1.73563
1.7352
1.73494
1.73529
1.73562
1.7361
1.73633
1.73697
1.73664
1.73595
1.7351
1.73497
1.73481
1.73459
1.73414
1.73423
1.7336
1.73361
1.73303
1.73296
1.73281
1.73353
1.73425
1.73423
1.73338
1.73258
1.73182
1.7321
1.7323
1.73242
1.73181
1.73166
1.73102
1.7312
1.73059
1.7304
1.73014
1.73077
1.73142
1.7311
1.73043
1.72979
1.72918
1.72953
1.7298
1.72999
1.72941
1.72921
1.72865
1.72884
1.72829
1.7281
1.72785
1.72839
1.72895
1.72861
1.72806
1.72753
1.72715
1.72765
1.72818
1.72875
1.72934
1.72998
1.73067
1.73141
1.73223
1.73314
1.73414
1.73523
1.73637
1.73734
1.73774
1.73873
1.73854
1.73699
1.73759
1.74026
1.73909
1.73967
1.73959
1.74051
1.74013
1.74044
1.74017
1.73989
1.73963
1.73935
1.73909
1.73876
1.73853
1.73863
1.73833
1.73894
1.73926
1.73958
1.73984
1.74014
1.74045
1.74068
1.74033
1.74009
1.74102
1.74076
1.74105
1.74066
1.74092
1.741
1.74161
1.74137
1.7418
1.74139
1.74222
1.74246
1.74191
1.74124
1.74104
1.74165
1.74255
1.74129
1.7424
1.7429
1.74357
1.74321
1.744
1.74333
1.74335
1.74429
1.74419
1.74374
1.7426
1.74131
1.7434
1.74329
1.74418
1.74401
1.74307
1.74211
1.74151
1.74011
1.73684
1.73428
1.73707
1.7393
1.74023
1.74184
1.7417
1.74335
1.74471
1.7451
1.74524
1.74602
1.7417
1.73999
1.73997
1.73689
1.73288
1.73355
1.73988
1.74061
1.73313
1.73143
1.72421
1.71673
1.70287
1.71393
1.72727
1.72531
1.7182
1.71127
1.70203
1.69388
1.69892
1.6952
1.69441
1.69845
1.69805
1.69783
1.70027
1.70067
1.70073
1.70229
1.70281
1.70293
1.70414
1.70466
1.70468
1.70556
1.70604
1.70612
1.70685
1.70728
1.7073
1.70786
1.70823
1.70821
1.70872
1.70906
1.70897
1.70937
1.70968
1.70956
1.71002
1.71008
1.71013
1.71032
1.71037
1.71063
1.71086
1.71066
1.71092
1.71101
1.71087
1.71104
1.71097
1.71118
1.71121
1.7109
1.71117
1.71109
1.71111
1.71113
1.71076
1.71096
1.71088
1.7109
1.71084
1.71044
1.71059
1.7104
1.71034
1.71027
1.70985
1.70993
1.7097
1.70971
1.70952
1.70906
1.70912
1.70876
1.70874
1.70838
1.70832
1.70824
1.70787
1.70771
1.70733
1.70728
1.70698
1.7068
1.70654
1.70601
1.70595
1.70563
1.70541
1.70501
1.70483
1.70442
1.70426
1.70395
1.7036
1.70332
1.70301
1.70273
1.70218
1.70207
1.70167
1.70135
1.70097
1.70028
1.70014
1.69972
1.6994
1.69892
1.69856
1.698
1.69771
1.69726
1.69686
1.69651
1.69578
1.69552
1.695
1.69467
1.69405
1.69374
1.69316
1.69274
1.69225
1.69168
1.6912
1.69015
1.69007
1.68948
1.689
1.68833
1.68789
1.68718
1.68674
1.68614
1.68562
1.68506
1.684
1.68377
1.68316
1.68263
1.6819
1.68135
1.68047
1.68006
1.67924
1.67874
1.678
1.67669
1.67642
1.67559
1.675
1.67403
1.67348
1.6726
1.67193
1.67106
1.67032
1.66947
1.66799
1.66779
1.66686
1.6662
1.66514
1.66438
1.66304
1.66253
1.6614
1.66073
1.65973
1.6579
1.65745
1.65617
1.65538
1.65376
1.6535
1.65234
1.65152
1.65016
1.64818
1.64782
1.6462
1.64578
1.64409
1.64339
1.64182
1.64079
1.63894
1.63641
1.63623
1.63427
1.63379
1.63202
1.63083
1.62878
1.62592
1.62567
1.6232
1.62309
1.62101
1.61986
1.61738
1.61408
1.61357
1.61081
1.6109
1.60879
1.60569
1.6046
1.60136
1.60045
1.59693
1.59362
1.59341
1.59089
1.58908
1.58516
1.57987
1.58032
1.57707
1.57633
1.57261
1.56654
1.56611
1.56074
1.56137
1.55786
1.55259
1.55144
1.54503
1.53871
1.54004
1.53564
1.5294
1.52826
1.51978
1.51279
1.51467
1.50889
1.50051
1.50106
1.49124
1.48332
1.48555
1.47489
1.46609
1.45766
1.46279
1.45203
1.44414
1.43736
1.42715
1.43789
1.42985
1.42616
1.42538
1.42514
1.42788
1.43588
1.45286
1.46549
1.47467
1.48083
1.48736
1.49167
1.49664
1.49953
1.50354
1.50565
1.50916
1.51078
1.51393
1.51508
1.5178
1.5186
1.52103
1.52155
1.52369
1.524
1.52597
1.52613
1.52793
1.52796
1.52965
1.52956
1.53114
1.53097
1.53246
1.53222
1.53363
1.53335
1.53468
1.53437
1.53561
1.5353
1.53645
1.53615
1.53723
1.53695
1.53793
1.53768
1.53859
1.53839
1.53921
1.53901
1.53981
1.53963
1.54036
1.54019
1.54092
1.54074
1.54141
1.54126
1.5419
1.5418
1.54234
1.54229