/*--------------------------------*- C++ -*----------------------------------*\
| =========                 |                                                 |
| \\      /  F ield         | OpenFOAM: The Open Source CFD Toolbox           |
|  \\    /   O peration     | Version:  v2006                                 |
|   \\  /    A nd           | Website:  www.openfoam.com                      |
|    \\/     M anipulation  |                                                 |
\*---------------------------------------------------------------------------*/
FoamFile
{
    version     2.0;
    format      ascii;
    class       surfaceScalarField;
    location    "0.039";
    object      phi;
}
// * * * * * * * * * * * * * * * * * * * * * * * * * * * * * * * * * * * * * //

dimensions      [1 0 -1 0 0 0 0];
oriented        oriented;


internalField   nonuniform List<scalar> 
32242
(
-2.61621e-05
-0.00135448
0.0013352
4.55347e-05
-0.0012702
0.00124398
8.35e-06
7.77065e-05
-3.49424e-06
0.00146294
3.80328e-05
0.00160004
-3.29064e-05
0.00165149
-3.66588e-06
0.0016915
-1.6373e-05
0.00168418
-2.32777e-06
0.00168014
-2.42901e-06
0.00166959
-4.46267e-07
0.00166269
-1.0146e-06
0.00165688
-1.15253e-06
0.00165321
-1.27865e-06
0.00164986
-1.47927e-06
0.00164704
-1.50993e-06
0.00164397
-1.61853e-06
0.00164104
-1.7231e-06
0.00163789
-1.82363e-06
0.00163462
-1.92016e-06
0.00163121
-2.0129e-06
0.00162767
-2.10218e-06
0.001624
-2.1884e-06
0.0016202
-2.27193e-06
0.00161628
-2.35306e-06
0.00161223
-2.43197e-06
0.00160806
-2.5088e-06
0.00160377
-2.58356e-06
0.00159936
-2.65624e-06
0.00159483
-2.72676e-06
0.00159019
-2.79505e-06
0.00158544
-2.86098e-06
0.00158059
-2.92446e-06
0.00157563
-2.98532e-06
0.00157057
-3.04345e-06
0.00156542
-3.09871e-06
0.00156017
-3.15095e-06
0.00155484
-3.20003e-06
0.00154943
-3.24584e-06
0.00154395
-3.28825e-06
0.00153839
-3.32713e-06
0.00153277
-3.36237e-06
0.00152709
-3.39388e-06
0.00152136
-3.42152e-06
0.00151558
-3.4452e-06
0.00150975
-3.46485e-06
0.0015039
-3.48035e-06
0.00149801
-3.49164e-06
0.0014921
-3.49862e-06
0.00148617
-3.50123e-06
0.00148024
-3.4994e-06
0.0014743
-3.4931e-06
0.00146837
-3.48237e-06
0.00146245
-3.46699e-06
0.00145654
-3.44561e-06
0.00145066
-3.42059e-06
0.00144482
-3.39112e-06
0.00143901
-3.35684e-06
0.00143325
-3.31779e-06
0.00142755
-3.27398e-06
0.0014219
-3.22544e-06
0.00141633
-3.17218e-06
0.00141083
-3.11421e-06
0.00140541
-3.05157e-06
0.00140008
-2.98428e-06
0.00139485
-2.91232e-06
0.00138973
-2.83564e-06
0.00138471
-2.75412e-06
0.00137982
-2.66754e-06
0.00137504
-2.57562e-06
0.0013704
-2.47798e-06
0.00136589
-2.37431e-06
0.00136152
-2.26438e-06
0.0013573
-2.1481e-06
0.00135324
-2.02518e-06
0.00134934
-1.89441e-06
0.0013456
-1.75231e-06
0.00134198
-9.22958e-07
0.0013378
-1.40091e-06
0.00133433
-1.17073e-06
0.00132823
-2.89638e-06
0.00131962
-4.61742e-06
0.00130749
-1.96309e-05
0.00128702
-3.0097e-05
0.00126111
-8.36275e-05
0.00122479
-0.000143184
0.00120268
-0.000328518
0.00121433
-0.000736231
0.00140189
-0.000202572
0.000361213
2.04334e-05
0.000599569
4.44686e-06
0.000786444
-3.86003e-05
0.00069607
-1.24943e-05
0.000610023
-7.50952e-06
0.000220549
-4.58142e-06
0.000183634
0.000148442
8.52678e-06
0.000139915
1.73483e-05
0.000174812
0.000210953
2.69441e-05
-1.36298e-05
0.000203725
2.08577e-05
-6.80549e-06
0.000167988
0.00013311
2.50455e-06
0.000130605
4.12801e-06
0.000166364
0.00020249
5.3634e-06
-4.65184e-06
0.000200405
6.73704e-06
-2.87165e-06
0.000164584
0.000127734
1.54685e-06
0.000126187
2.02883e-06
0.000164102
0.00020029
2.14384e-06
-4.45926e-06
0.000198726
6.02306e-06
-2.60041e-06
0.000162243
0.000123586
1.26919e-06
0.000122317
1.14665e-06
0.000162366
0.000198491
1.38175e-06
-3.62759e-06
0.000197508
4.61096e-06
-1.7762e-06
0.000160514
0.000120541
4.71995e-07
0.000120069
3.54686e-07
0.000160632
0.000197868
-6.12556e-09
-2.83736e-06
0.000196169
4.53668e-06
-1.60647e-06
0.000159401
0.000118463
3.42506e-07
0.00011812
2.39786e-07
0.000159503
0.000196469
-6.05664e-08
-2.71715e-06
0.000195382
3.80419e-06
-1.48156e-06
0.000158268
0.000116638
2.51235e-07
0.000116387
1.48111e-07
0.000158371
0.000195649
-1.18283e-07
-2.62319e-06
0.000194531
3.7407e-06
-1.38818e-06
0.000157136
0.000114999
1.83454e-07
0.000114816
8.28341e-08
0.000157237
0.000194767
-1.53268e-07
-2.54988e-06
0.000193626
3.6911e-06
-1.31749e-06
0.000156004
0.000113498
1.32343e-07
0.000113366
2.75028e-08
0.000156109
0.000193841
-1.87403e-07
-2.48702e-06
0.000192684
3.64383e-06
-1.26198e-06
0.000154884
0.000112104
9.26532e-08
0.000112011
-1.25513e-08
0.000154989
0.00019288
-2.08856e-07
-2.43732e-06
0.000191712
3.60621e-06
-1.22121e-06
0.000153773
0.00011079
6.1192e-08
0.000110729
-4.19875e-08
0.000153876
0.000191891
-2.21835e-07
-2.39782e-06
0.000190709
3.58009e-06
-1.18754e-06
0.000152666
0.000109541
3.89161e-08
0.000109502
-6.14203e-08
0.000152766
0.000190875
-2.27164e-07
-2.36763e-06
0.000189681
3.56178e-06
-1.16025e-06
0.000151559
0.000108342
2.2968e-08
0.000108319
-7.44885e-08
0.000151657
0.000189833
-2.26034e-07
-2.34339e-06
0.000188627
3.54881e-06
-1.13795e-06
0.000150451
0.000107181
1.17462e-08
0.00010717
-8.09391e-08
0.000150544
0.000188764
-2.17678e-07
-2.3253e-06
0.000187547
3.54241e-06
-1.12009e-06
0.000149339
0.00010605
4.50898e-09
0.000106045
-8.14951e-08
0.000149425
0.000187668
-2.02492e-07
-2.3125e-06
0.000186439
3.54193e-06
-1.1059e-06
0.000148218
0.000104939
6.01011e-10
0.000104939
-7.69448e-08
0.000148296
0.000186543
-1.81163e-07
-2.3042e-06
0.000185301
3.54675e-06
-1.09477e-06
0.000147087
0.000103844
-9.91215e-10
0.000103845
-6.85938e-08
0.000147154
0.000185387
-1.55418e-07
-2.29938e-06
0.000184131
3.55561e-06
-1.08615e-06
0.000145941
0.000102759
-2.77359e-10
0.000102759
-5.66884e-08
0.000145998
0.0001842
-1.25223e-07
-2.29766e-06
0.000182929
3.56836e-06
-1.07946e-06
0.000144779
0.00010168
2.2454e-09
0.000101678
-4.14384e-08
0.000144823
0.000182979
-9.05741e-08
-2.29891e-06
0.000181692
3.58504e-06
-1.07458e-06
0.000143599
0.000100603
6.5179e-09
0.000100597
-2.29359e-08
0.000143628
0.000181721
-5.14178e-08
-2.30304e-06
0.000180418
3.6058e-06
-1.07139e-06
0.000142397
9.95253e-05
1.21352e-08
9.95132e-05
-2.04402e-09
0.000142411
0.000180425
-9.13403e-09
-2.30895e-06
0.000179106
3.62871e-06
-1.06944e-06
0.000141172
9.84438e-05
2.006e-08
9.84237e-05
2.29973e-08
0.000141169
0.000179089
3.99391e-08
-2.31677e-06
0.000177752
3.6537e-06
-1.06855e-06
0.00013992
9.73552e-05
2.94295e-08
9.73258e-05
5.08479e-08
0.000139899
0.00017771
9.31568e-08
-2.32711e-06
0.000176354
3.6823e-06
-1.069e-06
0.000138641
9.62569e-05
4.02207e-08
9.62167e-05
8.15281e-08
0.0001386
0.000176286
1.50516e-07
-2.3399e-06
0.000174911
3.71446e-06
-1.07073e-06
0.000137331
9.5146e-05
5.24657e-08
9.50936e-05
1.15104e-07
0.000137268
0.000174814
2.12218e-07
-2.35503e-06
0.000173419
3.75001e-06
-1.07369e-06
0.000135987
9.402e-05
6.6129e-08
9.39539e-05
1.5152e-07
0.000135901
0.000173293
2.78249e-07
-2.37235e-06
0.000171876
3.78878e-06
-1.07779e-06
0.000134607
9.28762e-05
8.11451e-08
9.27952e-05
1.90672e-07
0.000134498
0.000171719
3.48497e-07
-2.39171e-06
0.00017028
3.83055e-06
-1.08293e-06
0.000133189
9.17125e-05
9.74235e-08
9.16152e-05
2.32398e-07
0.000133054
0.00017009
4.22754e-07
-2.4129e-06
0.000168628
3.87501e-06
-1.089e-06
0.000131731
9.05264e-05
1.14848e-07
9.04118e-05
2.76482e-07
0.000131569
0.000168404
5.00715e-07
-2.43564e-06
0.000166918
3.92177e-06
-1.09585e-06
0.00013023
8.93162e-05
1.33293e-07
8.91832e-05
3.22686e-07
0.000130041
0.00016666
5.81931e-07
-2.45946e-06
0.000165149
3.9702e-06
-1.10328e-06
0.000128685
8.80802e-05
1.52515e-07
8.79279e-05
3.7053e-07
0.000128467
0.000164854
6.65735e-07
-2.48392e-06
0.000163319
4.01959e-06
-1.11103e-06
0.000127095
8.68171e-05
1.72233e-07
8.66452e-05
4.19425e-07
0.000126848
0.000162988
7.51214e-07
-2.50819e-06
0.000161427
4.06872e-06
-1.11872e-06
0.000125459
8.55267e-05
1.91959e-07
8.53349e-05
4.68402e-07
0.000125182
0.000161059
8.36921e-07
-2.53119e-06
0.000159475
4.11594e-06
-1.12577e-06
0.000123777
8.42093e-05
2.11052e-07
8.39984e-05
5.16189e-07
0.000123472
0.00015907
9.20878e-07
-2.55168e-06
0.000157463
4.15925e-06
-1.13168e-06
0.000122052
8.28668e-05
2.29029e-07
8.26379e-05
5.61513e-07
0.00012172
0.000157024
1.00095e-06
-2.56835e-06
0.000155396
4.19648e-06
-1.13588e-06
0.000120288
8.15021e-05
2.45147e-07
8.12571e-05
6.02813e-07
0.00011993
0.000154924
1.07464e-06
-2.57953e-06
0.000153279
4.22497e-06
-1.13757e-06
0.000118488
8.01196e-05
2.5849e-07
7.98612e-05
6.38115e-07
0.000118109
0.000152778
1.1388e-06
-2.58312e-06
0.00015112
4.24135e-06
-1.13581e-06
0.000116661
7.87255e-05
2.67911e-07
7.84577e-05
6.64911e-07
0.000116265
0.000150596
1.18942e-06
-2.5765e-06
0.000148931
4.2414e-06
-1.12939e-06
0.000114818
7.73284e-05
2.7199e-07
7.70566e-05
6.80086e-07
0.00011441
0.00014839
1.22149e-06
-2.55645e-06
0.000146726
4.21999e-06
-1.11691e-06
0.00011297
7.59398e-05
2.69037e-07
7.5671e-05
6.79884e-07
0.00011256
0.000146177
1.22899e-06
-2.51927e-06
0.000144526
4.1711e-06
-1.09668e-06
0.000111137
7.45745e-05
2.57091e-07
7.43176e-05
6.60032e-07
0.000110735
0.000143981
1.20498e-06
-2.46083e-06
0.000142355
4.0879e-06
-1.06682e-06
0.000109341
7.3251e-05
2.3395e-07
7.30173e-05
6.15689e-07
0.000108959
0.000141829
1.14149e-06
-2.37627e-06
0.000140243
3.96247e-06
-1.02521e-06
0.000107609
7.19923e-05
1.97058e-07
7.17954e-05
5.41132e-07
0.000107265
0.000139755
1.02921e-06
-2.26021e-06
0.00013823
3.78595e-06
-9.69511e-07
0.000105974
7.08261e-05
1.4358e-07
7.06827e-05
4.30088e-07
0.000105688
0.000137802
8.57763e-07
-2.10736e-06
0.00013636
3.54961e-06
-8.97483e-07
0.000104478
6.97854e-05
7.13218e-08
6.97142e-05
2.77517e-07
0.000104272
0.000136019
6.18818e-07
-1.9133e-06
0.000134686
3.247e-06
-8.05481e-07
0.000103165
6.89089e-05
-2.40683e-08
6.89332e-05
7.64958e-08
0.000103065
0.000134462
3.01052e-07
-1.66859e-06
0.000133263
2.86729e-06
-6.87248e-07
0.000102083
6.82462e-05
-1.47464e-07
6.83938e-05
-1.80912e-07
0.000102117
0.000133185
-1.02037e-07
-1.38006e-06
0.00013216
2.40468e-06
-5.53617e-07
0.000101291
6.78404e-05
-2.84394e-07
6.81249e-05
-4.78426e-07
0.000101485
0.000132257
-5.75106e-07
-1.05698e-06
0.000131431
1.88305e-06
-4.06471e-07
0.000100835
6.77186e-05
-4.35304e-07
6.8154e-05
-8.10594e-07
0.00010121
0.000131731
-1.10977e-06
-7.17517e-07
0.000131116
1.33195e-06
-2.53979e-07
0.000100747
6.79001e-05
-5.90567e-07
6.84907e-05
-1.15805e-06
0.000101314
0.000131634
-1.67562e-06
-3.74609e-07
0.00013124
7.6896e-07
-1.01797e-07
0.000101041
6.83889e-05
-7.34346e-07
6.91233e-05
-1.48498e-06
0.000101792
0.00013197
-2.21555e-06
-4.16402e-08
0.000131788
2.23516e-07
5.00946e-08
0.0001017
6.91733e-05
-8.95878e-07
7.00692e-05
-1.84847e-06
0.000102653
0.000132755
-2.81512e-06
3.00082e-07
0.000132797
-3.41844e-07
2.0014e-07
0.000102753
7.02693e-05
-1.05451e-06
7.13237e-05
-2.20143e-06
0.0001039
0.000133998
-3.40302e-06
5.40302e-07
0.000134225
-7.66738e-07
2.89608e-07
0.00010415
7.16133e-05
-1.14237e-06
7.27557e-05
-2.42797e-06
0.000105436
0.000135601
-3.80488e-06
6.9311e-07
0.00013596
-1.0516e-06
3.41798e-07
0.000105787
7.30975e-05
-1.1884e-06
7.4286e-05
-2.56597e-06
0.000107165
0.000137459
-4.06489e-06
7.67274e-07
0.000137905
-1.21348e-06
3.57546e-07
0.000107575
7.46437e-05
-1.20768e-06
7.58514e-05
-2.64357e-06
0.000109011
0.00013949
-4.2281e-06
7.86809e-07
0.00013999
-1.2864e-06
3.4965e-07
0.000109448
7.62012e-05
-1.20405e-06
7.74053e-05
-2.66842e-06
0.000110912
0.000141626
-4.30454e-06
7.56221e-07
0.000142146
-1.27578e-06
3.20503e-07
0.000111348
7.77258e-05
-1.17876e-06
7.89045e-05
-2.64345e-06
0.000112813
0.0001438
-4.29777e-06
6.81045e-07
0.000144309
-1.18979e-06
2.72349e-07
0.000113221
7.91769e-05
-1.13534e-06
8.03121e-05
-2.57535e-06
0.000114661
0.000145951
-4.21754e-06
5.69177e-07
0.000146422
-1.04014e-06
2.09476e-07
0.000115021
8.05215e-05
-1.07785e-06
8.15993e-05
-2.47235e-06
0.000116415
0.000148026
-4.07643e-06
4.29132e-07
0.000148436
-8.39826e-07
1.35833e-07
0.000116709
8.17351e-05
-1.00981e-06
8.27448e-05
-2.3422e-06
0.000118041
0.00014998
-3.88643e-06
2.68851e-07
0.000150313
-6.01598e-07
5.55113e-08
0.000118254
8.28003e-05
-9.36863e-07
8.3737e-05
-2.1929e-06
0.00011951
0.00015178
-3.66033e-06
9.67786e-08
0.000152021
-3.38132e-07
-2.66737e-08
0.000119633
8.37102e-05
-8.64417e-07
8.45745e-05
-2.03455e-06
0.000120803
0.000153398
-3.41167e-06
-7.91148e-08
0.000153538
-6.13343e-08
-1.07854e-07
0.000120832
8.44664e-05
-7.89623e-07
8.52558e-05
-1.87286e-06
0.000121915
0.000154819
-3.15401e-06
-2.49428e-07
0.000154859
2.09011e-07
-1.86097e-07
0.000121851
8.50695e-05
-7.17482e-07
8.57868e-05
-1.71407e-06
0.000122848
0.000156042
-2.89724e-06
-4.11177e-07
0.000155983
4.69928e-07
-2.58807e-07
0.000122695
8.55279e-05
-6.51248e-07
8.61791e-05
-1.56517e-06
0.000123609
0.000157071
-2.65279e-06
-5.58664e-07
0.000156917
7.12519e-07
-3.23225e-07
0.000123373
8.58558e-05
-5.92846e-07
8.64486e-05
-1.43057e-06
0.000124211
0.000157915
-2.42796e-06
-6.85959e-07
0.000157676
9.26065e-07
-3.76785e-07
0.000123902
8.60714e-05
-5.45096e-07
8.66159e-05
-1.31689e-06
0.000124674
0.000158594
-2.23381e-06
-7.9314e-07
0.00015828
1.10669e-06
-4.20926e-07
0.000124301
8.61954e-05
-5.07427e-07
8.6701e-05
-1.22389e-06
0.000125017
0.000159129
-2.07343e-06
-8.7439e-07
0.000158751
1.25009e-06
-4.52663e-07
0.000124591
8.62471e-05
-4.80306e-07
8.67225e-05
-1.15274e-06
0.00012526
0.00015954
-1.94544e-06
-9.32901e-07
0.000159111
1.36232e-06
-4.72017e-07
0.00012479
8.62433e-05
-4.64389e-07
8.66957e-05
-1.10387e-06
0.000125421
0.000159851
-1.84522e-06
-9.7766e-07
0.000159379
1.45234e-06
-4.85099e-07
0.000124917
8.61984e-05
-4.53328e-07
8.66337e-05
-1.06586e-06
0.000125518
0.000160078
-1.76211e-06
-1.01023e-06
0.000159573
1.5193e-06
-4.93528e-07
0.000124986
8.61244e-05
-4.44076e-07
8.65491e-05
-1.03416e-06
0.000125565
0.000160241
-1.69549e-06
-1.03433e-06
0.000159708
1.57077e-06
-4.99058e-07
0.000125013
8.60311e-05
-4.36123e-07
8.64486e-05
-1.00927e-06
0.000125576
0.000160352
-1.64241e-06
-1.05098e-06
0.000159798
1.60801e-06
-5.01091e-07
0.000125007
8.59255e-05
-4.35169e-07
8.63366e-05
-9.97744e-07
0.000125556
0.000160423
-1.61102e-06
-1.06842e-06
0.000159851
1.64352e-06
-5.05458e-07
0.000124976
8.58123e-05
-4.34979e-07
8.62173e-05
-9.90302e-07
0.000125514
0.000160463
-1.58877e-06
-1.07644e-06
0.000159877
1.66593e-06
-5.05309e-07
0.000124925
8.56935e-05
-4.3191e-07
8.60985e-05
-9.79266e-07
0.000125459
0.000160478
-1.56508e-06
-1.0796e-06
0.00015988
1.67924e-06
-5.02897e-07
0.000124862
8.55736e-05
-4.33109e-07
8.59782e-05
-9.76751e-07
0.00012539
0.000160474
-1.55305e-06
-1.08508e-06
0.000159867
1.69293e-06
-5.03e-07
0.000124789
8.54538e-05
-4.33715e-07
8.58563e-05
-9.73656e-07
0.000125312
0.000160455
-1.54414e-06
-1.08598e-06
0.000159842
1.70125e-06
-5.01601e-07
0.000124709
8.53357e-05
-4.34434e-07
8.57398e-05
-9.71261e-07
0.000125229
0.000160421
-1.53651e-06
-1.08542e-06
0.000159807
1.70354e-06
-5.0022e-07
0.000124625
8.52192e-05
-4.36721e-07
8.56263e-05
-9.73738e-07
0.000125147
0.000160389
-1.53484e-06
-1.08145e-06
0.000159765
1.701e-06
-4.96256e-07
0.000124538
8.51071e-05
-4.357e-07
8.55169e-05
-9.72178e-07
0.000125062
0.000160347
-1.53294e-06
-1.09181e-06
0.000159723
1.71186e-06
-5.01292e-07
0.000124454
8.49971e-05
-4.40115e-07
8.54065e-05
-9.81693e-07
0.000124975
0.000160295
-1.54288e-06
-1.07707e-06
0.000159684
1.69312e-06
-4.92351e-07
0.00012438
8.49022e-05
-4.3877e-07
8.53004e-05
-9.87473e-07
0.000124894
0.000160263
-1.57681e-06
-1.10712e-06
0.000159669
1.71443e-06
-5.10945e-07
0.000124318
8.48142e-05
-4.28136e-07
8.52233e-05
-9.82896e-07
0.000124847
0.000160797
-2.13316e-06
-5.10918e-07
0.000159703
1.61783e-06
-4.47777e-07
0.000124773
8.4755e-05
-9.27022e-07
8.56982e-05
-1.54349e-06
0.000125425
0.000161458
-3.26775e-06
1.79306e-07
0.00016152
-2.67987e-07
8.19912e-08
0.000125506
8.57757e-05
-1.65727e-06
8.74368e-05
-4.55367e-06
0.0001284
0.000164068
-7.09637e-06
6.08187e-06
0.000168384
-1.04084e-05
2.94769e-06
0.000131552
9.04051e-05
-8.65013e-06
9.90719e-05
-1.96553e-05
0.000142566
0.000181978
-3.32538e-05
4.32833e-05
0.000211486
-7.28323e-05
1.94372e-05
0.000166386
0.000118504
3.93668e-05
9.50212e-05
0.000165994
3.9965e-05
-0.000288192
-5.72884e-05
-0.000326056
-6.17993e-05
-0.000510401
-2.49793e-05
-0.000550441
-1.5939e-05
-0.000577025
-3.11722e-06
-0.000579695
-2.56218e-06
-0.000584632
-2.02901e-07
-0.000585102
-8.03362e-07
-0.000585792
9.6483e-07
-0.000585247
1.54906e-06
-0.000583021
5.07407e-06
-0.000576958
9.77977e-06
-0.000568897
2.1473e-05
-0.000554836
3.83926e-05
-0.000540814
8.52346e-05
-0.000536012
0.000189233
-0.000544738
8.52707e-05
-0.000335889
4.86764e-05
-0.000332945
2.72089e-05
-0.000323157
2.72145e-05
-0.000275533
7.97856e-06
-0.000237132
4.49288e-06
-8.35464e-05
1.83916e-06
-5.64612e-05
-3.0508e-05
-2.24665e-06
-2.82493e-05
-5.92178e-06
-5.27765e-05
-7.84128e-05
-1.11122e-05
4.10147e-06
-7.53638e-05
-7.13416e-06
1.42844e-06
-5.01359e-05
-2.6826e-05
-9.64973e-07
-2.58549e-05
-1.7193e-06
-4.9392e-05
-7.35602e-05
-3.53212e-06
6.84977e-07
-7.29224e-05
-1.3461e-06
1.55489e-07
-4.88586e-05
-2.56894e-05
-4.41584e-07
-2.52514e-05
-5.61326e-07
-4.8736e-05
-7.23098e-05
-1.16175e-06
5.30967e-07
-7.27508e-05
-8.14669e-08
7.11604e-08
-4.82754e-05
-2.51818e-05
-3.29703e-09
-2.5177e-05
-2.33457e-08
-4.8254e-05
-7.27576e-05
-1.57661e-08
-2.70115e-08
-7.27749e-05
4.76639e-08
-1.32013e-08
-4.82647e-05
-2.51878e-05
2.05532e-08
-2.52069e-05
4.45599e-08
-4.82868e-05
-7.27974e-05
6.75634e-08
-5.83009e-08
-7.28287e-05
9.40233e-08
-2.64743e-08
-4.83146e-05
-2.52307e-05
2.49875e-08
-2.52543e-05
5.53443e-08
-4.83421e-05
-7.28551e-05
8.49037e-08
-6.2031e-08
-7.28917e-05
9.84229e-08
-2.77474e-08
-4.8376e-05
-2.52824e-05
2.61741e-08
-2.531e-05
5.87829e-08
-4.84092e-05
-7.29258e-05
9.22297e-08
-6.66722e-08
-7.29684e-05
1.06974e-07
-2.98577e-08
-4.84474e-05
-2.53418e-05
2.74871e-08
-2.53711e-05
6.19939e-08
-4.84829e-05
-7.30044e-05
9.71137e-08
-6.69912e-08
-7.30449e-05
1.07102e-07
-3.00638e-08
-4.85204e-05
-2.54025e-05
2.99036e-08
-2.54334e-05
6.70684e-08
-4.85577e-05
-7.3083e-05
1.05002e-07
-7.57969e-08
-7.3128e-05
1.2211e-07
-3.38701e-08
-4.85984e-05
-2.54672e-05
3.16219e-08
-2.5499e-05
7.10298e-08
-4.8637e-05
-7.31675e-05
1.11367e-07
-7.43011e-08
-7.32107e-05
1.18987e-07
-3.33572e-08
-4.86768e-05
-2.55323e-05
3.25926e-08
-2.55657e-05
7.252e-08
-4.87167e-05
-7.3251e-05
1.13162e-07
-7.99143e-08
-7.32988e-05
1.28044e-07
-3.60351e-08
-4.87601e-05
-2.56022e-05
3.3325e-08
-2.56355e-05
7.45126e-08
-4.88001e-05
-7.33405e-05
1.17146e-07
-7.92278e-08
-7.33859e-05
1.25002e-07
-3.60506e-08
-4.88417e-05
-2.56703e-05
3.46945e-08
-2.57049e-05
7.61449e-08
-4.88831e-05
-7.34283e-05
1.19927e-07
-8.33334e-08
-7.34772e-05
1.32442e-07
-3.8601e-08
-4.89276e-05
-2.57425e-05
3.59025e-08
-2.57774e-05
7.78651e-08
-4.89697e-05
-7.35206e-05
1.19956e-07
-8.04658e-08
-7.35677e-05
1.27356e-07
-3.71808e-08
-4.90128e-05
-2.58139e-05
3.58926e-08
-2.58505e-05
7.75246e-08
-4.90563e-05
-7.36127e-05
1.19931e-07
-8.35058e-08
-7.36626e-05
1.3271e-07
-3.85679e-08
-4.91017e-05
-2.58889e-05
3.66115e-08
-2.59251e-05
7.89524e-08
-4.91447e-05
-7.37071e-05
1.22142e-07
-8.4108e-08
-7.37566e-05
1.32518e-07
-3.90305e-08
-4.919e-05
-2.59635e-05
3.86059e-08
-2.60001e-05
8.36875e-08
-4.92336e-05
-7.38019e-05
1.30184e-07
-9.00773e-08
-7.38538e-05
1.43018e-07
-4.16656e-08
-4.92805e-05
-2.60398e-05
3.8931e-08
-2.60771e-05
8.45008e-08
-4.93252e-05
-7.39006e-05
1.31656e-07
-8.61734e-08
-7.39509e-05
1.3647e-07
-3.98965e-08
-4.9371e-05
-2.61159e-05
3.87535e-08
-2.61541e-05
8.37436e-08
-4.94165e-05
-7.39987e-05
1.30458e-07
-8.88016e-08
-7.40527e-05
1.41486e-07
-4.1096e-08
-4.94652e-05
-2.61952e-05
3.81417e-08
-2.62337e-05
8.2881e-08
-4.95116e-05
-7.41019e-05
1.29872e-07
-8.62902e-08
-7.41556e-05
1.37777e-07
-3.97047e-08
-4.95598e-05
-2.62739e-05
3.97e-08
-2.6313e-05
8.63294e-08
-4.96068e-05
-7.42058e-05
1.35526e-07
-9.33421e-08
-7.4262e-05
1.49559e-07
-4.29103e-08
-4.96569e-05
-2.63548e-05
4.05006e-08
-2.63937e-05
8.88637e-08
-4.97044e-05
-7.43135e-05
1.40474e-07
-9.26788e-08
-7.43689e-05
1.49121e-07
-4.21957e-08
-4.97535e-05
-2.64339e-05
4.12158e-08
-2.64738e-05
9.06138e-08
-4.98025e-05
-7.44226e-05
1.44057e-07
-9.55742e-08
-7.44818e-05
1.55454e-07
-4.33234e-08
-4.9854e-05
-2.65157e-05
4.03866e-08
-2.65549e-05
9.00196e-08
-4.99034e-05
-7.45367e-05
1.44616e-07
-9.2183e-08
-7.45958e-05
1.50962e-07
-4.11462e-08
-4.99542e-05
-2.6595e-05
3.99029e-08
-2.66339e-05
8.97903e-08
-5.00043e-05
-7.46524e-05
1.45842e-07
-9.38555e-08
-7.47153e-05
1.55776e-07
-4.14627e-08
-5.00576e-05
-2.66754e-05
3.82449e-08
-2.67144e-05
8.86573e-08
-5.01098e-05
-7.47749e-05
1.46713e-07
-9.22319e-08
-7.48393e-05
1.55141e-07
-3.92902e-08
-5.0164e-05
-2.67545e-05
3.78356e-08
-2.67937e-05
9.10857e-08
-5.02181e-05
-7.49029e-05
1.52865e-07
-9.67159e-08
-7.4973e-05
1.67234e-07
-3.94869e-08
-5.02755e-05
-2.68346e-05
3.77747e-08
-2.68724e-05
9.49323e-08
-5.03313e-05
-7.50403e-05
1.64362e-07
-1.00723e-07
-7.51131e-05
1.7668e-07
-3.97857e-08
-5.03895e-05
-2.6911e-05
3.91868e-08
-2.69484e-05
1.01244e-07
-5.0448e-05
-7.51852e-05
1.7717e-07
-1.0496e-07
-7.52632e-05
1.87024e-07
-4.01938e-08
-5.05091e-05
-2.69866e-05
3.60429e-08
-2.70218e-05
9.85564e-08
-5.05694e-05
-7.53394e-05
1.77778e-07
-9.79176e-08
-7.54242e-05
1.81036e-07
-3.46388e-08
-5.06346e-05
-2.70591e-05
3.23425e-08
-2.70946e-05
9.53997e-08
-5.07004e-05
-7.55088e-05
1.77868e-07
-9.97296e-08
-7.56003e-05
1.89464e-07
-3.30955e-08
-5.07693e-05
-2.71304e-05
3.07089e-08
-2.71641e-05
9.77467e-08
-5.08395e-05
-7.56924e-05
1.87079e-07
-1.03985e-07
-7.57905e-05
2.01709e-07
-3.20889e-08
-5.09124e-05
-2.71977e-05
3.21386e-08
-2.72303e-05
1.08045e-07
-5.09882e-05
-7.58914e-05
2.09566e-07
-1.17524e-07
-7.6e-05
2.30706e-07
-3.46892e-08
-5.1067e-05
-2.72622e-05
3.24205e-08
-2.72921e-05
1.16631e-07
-5.11473e-05
-7.61089e-05
2.30584e-07
-1.23651e-07
-7.62268e-05
2.45856e-07
-3.3973e-08
-5.12324e-05
-2.7322e-05
3.12717e-08
-2.73511e-05
1.22363e-07
-5.13211e-05
-7.63497e-05
2.46712e-07
-1.24573e-07
-7.64799e-05
2.58221e-07
-3.00028e-08
-5.14143e-05
-2.73803e-05
2.70206e-08
-2.74116e-05
1.22357e-07
-5.15156e-05
-7.66183e-05
2.53965e-07
-1.31036e-07
-7.67666e-05
2.69095e-07
-2.93719e-08
-5.16234e-05
-2.74447e-05
3.21162e-08
-2.74786e-05
1.42705e-07
-5.17369e-05
-7.69178e-05
2.89393e-07
-1.66e-07
-7.70827e-05
3.36763e-07
-3.99821e-08
-5.18577e-05
-2.75151e-05
4.36417e-08
-2.75531e-05
1.76733e-07
-5.19846e-05
-7.7253e-05
3.51149e-07
-1.90469e-07
-7.74355e-05
3.79377e-07
-4.77258e-08
-5.21225e-05
-2.75972e-05
5.08678e-08
-2.76456e-05
2.00266e-07
-5.22695e-05
-7.76293e-05
3.96798e-07
-2.12684e-07
-7.78388e-05
4.19531e-07
-5.55712e-08
-5.24309e-05
-2.77049e-05
6.41712e-08
-2.77732e-05
2.32083e-07
-5.26043e-05
-7.80586e-05
4.4628e-07
-2.70924e-07
-7.82954e-05
5.00354e-07
-8.32044e-08
-5.27938e-05
-2.78557e-05
9.91988e-08
-2.795e-05
3.04438e-07
-5.29944e-05
-7.85387e-05
5.47309e-07
-3.40666e-07
-7.8797e-05
6.0222e-07
-1.18556e-07
-5.3214e-05
-2.80652e-05
1.37314e-07
-2.82014e-05
3.78649e-07
-5.34528e-05
-7.90715e-05
6.5899e-07
-4.44731e-07
-7.93695e-05
7.42747e-07
-1.71013e-07
-5.37142e-05
-2.83604e-05
1.93241e-07
-2.85474e-05
4.83037e-07
-5.39953e-05
-7.96859e-05
8.00305e-07
-5.31052e-07
-8.00186e-05
8.67751e-07
-2.22182e-07
-5.43062e-05
-2.87713e-05
2.66714e-07
-2.90386e-05
6.0451e-07
-5.46517e-05
-8.03747e-05
9.49976e-07
-6.86359e-07
-8.07636e-05
1.07108e-06
-3.13021e-07
-5.50351e-05
-2.93561e-05
3.66638e-07
-2.97227e-05
7.92267e-07
-5.54574e-05
-8.11804e-05
1.20071e-06
-9.00333e-07
-8.16331e-05
1.35774e-06
-4.27202e-07
-5.59247e-05
-3.01554e-05
5.04521e-07
-3.06582e-05
1.03039e-06
-5.64437e-05
-8.21269e-05
1.52713e-06
-1.18769e-06
-8.26909e-05
1.76405e-06
-5.89083e-07
-5.7036e-05
-3.12467e-05
8.35279e-07
-3.20775e-05
1.58192e-06
-5.77763e-05
-8.27917e-05
1.68473e-06
-1.53321e-06
-8.3303e-05
2.04081e-06
-9.44533e-07
-5.83629e-05
-3.30188e-05
7.36174e-07
-3.37615e-05
1.38812e-06
-5.90227e-05
-8.38453e-05
1.92161e-06
-1.225e-06
-8.5336e-05
2.70836e-06
-2.86666e-07
-5.99686e-05
-3.40545e-05
1.28162e-06
-3.53424e-05
1.66477e-06
-6.03596e-05
-8.61358e-05
2.45664e-06
-1.97277e-06
-8.6924e-05
2.75773e-06
-5.88171e-07
-6.17472e-05
-3.59329e-05
9.22759e-07
-3.68511e-05
1.69658e-06
-6.25154e-05
-8.81891e-05
2.96831e-06
-2.35567e-06
-8.88848e-05
3.06105e-06
-1.02901e-06
-6.38318e-05
-3.78718e-05
1.10132e-06
-3.89622e-05
1.94845e-06
-6.46645e-05
-9.06718e-05
3.75147e-06
-2.66814e-06
-9.18529e-05
3.87355e-06
-1.39236e-06
-6.59185e-05
-4.03412e-05
1.34068e-06
-4.16821e-05
2.57733e-06
-6.71543e-05
-9.29523e-05
3.67897e-06
-2.54647e-06
-9.47482e-05
4.34593e-06
-1.12192e-06
-6.85745e-05
-4.28033e-05
1.04768e-06
-4.38641e-05
2.83839e-06
-7.03786e-05
-9.65827e-05
4.66766e-06
-4.30277e-06
-9.95867e-05
7.3462e-06
-2.42097e-06
-7.22824e-05
-4.63143e-05
2.46895e-06
-4.87954e-05
6.31462e-06
-7.61374e-05
-0.000103702
1.06901e-05
6.79108e-05
-5.04413e-05
-0.000121092
2.71798e-05
-3.55271e-05
-2.15981e-05
3.72524e-06
-2.60916e-05
1.578e-05
-4.59148e-05
-6.59845e-05
3.01196e-05
-8.64982e-06
-7.30386e-05
1.5693e-05
-3.0639e-06
-5.14738e-05
-2.90878e-05
1.0396e-06
-3.01508e-05
2.32249e-06
-5.27952e-05
-7.43124e-05
3.58859e-06
-1.29404e-07
-7.44538e-05
2.70819e-07
-3.17538e-07
-5.2608e-05
-3.04687e-05
1.47899e-06
-3.19497e-05
3.26546e-06
-5.43936e-05
-7.61491e-05
4.94219e-06
-2.40022e-06
-7.73851e-05
3.61376e-06
-1.15821e-06
-5.56339e-05
-3.31046e-05
2.22462e-06
-3.52864e-05
4.32337e-06
-5.77106e-05
-7.97917e-05
6.68601e-06
-2.74785e-06
-8.18759e-05
4.81725e-06
-1.54458e-06
-5.8899e-05
-3.68051e-05
2.37024e-06
-3.91827e-05
4.94482e-06
-6.14781e-05
-8.44252e-05
7.51097e-06
-4.36603e-06
-8.71697e-05
7.12693e-06
-2.03517e-06
-6.38729e-05
-4.12159e-05
2.76404e-06
-4.39475e-05
6.42817e-06
-6.76031e-05
-9.22158e-05
1.15478e-05
-9.50248e-06
-9.91168e-05
1.67179e-05
-4.23371e-06
-7.28522e-05
-4.82251e-05
-2.57216e-05
-2.24628e-05
-6.31135e-05
-3.56095e-05
-4.94497e-05
-0.000112742
-1.84378e-05
-6.56485e-05
3.31613e-05
-5.13766e-06
-4.64249e-05
-2.90192e-05
4.68158e-06
-3.34501e-05
1.24737e-05
-5.41966e-05
-7.42507e-05
2.08608e-05
-7.30324e-06
-8.07244e-05
1.37599e-05
-3.6252e-06
-5.79218e-05
-3.71368e-05
2.56501e-06
-3.96605e-05
6.46583e-06
-6.18055e-05
-8.45156e-05
1.02175e-05
-5.44717e-06
-8.80565e-05
9.04672e-06
-2.44379e-06
-6.4848e-05
-4.21071e-05
2.68144e-06
-4.47602e-05
5.7528e-06
-6.79051e-05
-9.17306e-05
9.42025e-06
-7.04978e-06
-9.6867e-05
1.21518e-05
-2.9821e-06
-7.19496e-05
-4.77321e-05
3.16707e-06
-5.08679e-05
6.92262e-06
-7.57573e-05
-0.000101476
1.13764e-05
6.56821e-05
-5.04319e-05
-0.000116782
2.68254e-05
-3.68337e-05
-2.40892e-05
7.53499e-06
-3.07049e-05
1.71601e-05
-4.79875e-05
-6.62791e-05
3.37846e-05
-1.16306e-05
-7.5632e-05
2.09052e-05
-4.45586e-06
-5.50572e-05
-3.51291e-05
2.82681e-06
-3.79362e-05
6.11594e-06
-5.83147e-05
-7.89807e-05
9.43357e-06
-3.86549e-06
-8.09493e-05
5.83776e-06
-1.79226e-06
-6.03994e-05
-3.97463e-05
3.19015e-06
-4.2959e-05
6.57437e-06
-6.38246e-05
-8.66174e-05
1.23326e-05
-9.38692e-06
-9.26874e-05
1.5666e-05
-4.30467e-06
-6.88336e-05
-4.72733e-05
-2.42184e-05
-2.30091e-05
-5.88547e-05
-3.43924e-05
-4.67695e-05
-0.00010473
-1.96273e-05
-6.2324e-05
3.37719e-05
-5.41671e-06
-4.61038e-05
-2.98906e-05
6.34302e-06
-3.59763e-05
1.4153e-05
-5.39252e-05
-7.23272e-05
2.39308e-05
-9.74679e-06
-8.0664e-05
1.80117e-05
-4.18169e-06
-5.95138e-05
-4.0156e-05
4.54953e-06
-4.47339e-05
9.57099e-06
-6.45425e-05
-8.72966e-05
1.62885e-05
-7.64964e-06
-9.16681e-05
1.22181e-05
-3.36671e-06
-6.87828e-05
-4.81203e-05
-2.50661e-05
-2.29581e-05
-5.95311e-05
-3.44423e-05
-4.60108e-05
-0.000105121
-1.88451e-05
-6.05769e-05
3.21223e-05
-5.89664e-06
-4.49807e-05
-3.02751e-05
5.35983e-06
-3.54533e-05
1.21589e-05
-5.18538e-05
-6.97168e-05
2.11631e-05
-9.14726e-06
-7.59598e-05
1.53505e-05
-4.09067e-06
-5.6956e-05
-3.95409e-05
4.63066e-06
-4.41505e-05
1.0501e-05
-6.27372e-05
-8.28328e-05
1.75401e-05
5.32489e-05
-4.24165e-05
-9.3618e-05
2.22688e-05
-3.19267e-05
-2.17863e-05
5.7956e-06
-2.92464e-05
1.94635e-05
-4.27864e-05
-5.66214e-05
3.21364e-05
-1.47209e-05
-6.82391e-05
2.62968e-05
-6.70672e-06
-5.08855e-05
-3.57606e-05
5.40707e-06
-4.12027e-05
1.24538e-05
-5.79767e-05
-7.68202e-05
2.10077e-05
-7.70402e-06
-8.14252e-05
1.23534e-05
-4.00275e-06
-6.16539e-05
-4.51957e-05
-2.2597e-05
-2.25949e-05
-5.25554e-05
-3.16882e-05
-4.18762e-05
-9.20945e-05
-1.87936e-05
-5.59896e-05
3.29491e-05
-7.54418e-06
-4.29335e-05
-3.01787e-05
6.78215e-06
-3.69939e-05
1.39214e-05
-5.01536e-05
-6.54036e-05
2.33986e-05
4.22508e-05
-3.41919e-05
-7.36412e-05
1.79871e-05
-2.5665e-05
-1.90276e-05
7.89644e-06
-2.59345e-05
1.64439e-05
-3.58679e-05
-4.73177e-05
3.03721e-05
-1.38129e-05
-5.55258e-05
2.19808e-05
-6.54581e-06
-4.30589e-05
-3.25809e-05
-1.63589e-05
-1.62245e-05
-3.7861e-05
-2.15659e-05
-2.78332e-05
-6.55334e-05
-1.08097e-05
-3.52586e-05
1.8243e-05
-5.07448e-06
-2.72919e-05
-2.1295e-05
-1.27035e-05
-8.58579e-06
-2.84899e-05
-1.14986e-05
-1.51898e-05
-4.85482e-05
8.02679e-07
-1.64981e-05
5.05451e-07
5.72003e-07
-1.12668e-05
-8.01319e-06
-1.36042e-05
5.59175e-06
-3.2405e-05
7.53494e-06
9.63165e-06
-5.85331e-05
2.53842e-05
2.64435e-05
-4.21964e-05
1.17318e-05
2.11869e-05
1.73231e-05
-1.08393e-05
2.81619e-05
-2.3941e-05
3.42881e-05
4.29095e-05
-4.04078e-05
2.7571e-05
6.35099e-05
-4.81712e-05
1.15365e-05
5.03227e-05
3.96986e-05
-1.34827e-05
5.31828e-05
-3.28859e-05
6.97279e-05
8.97204e-05
-5.90934e-05
-4.8898e-05
5.56844e-05
8.29357e-05
-2.13222e-05
4.21546e-05
3.18638e-05
-1.91375e-05
5.09991e-05
-4.37088e-05
6.6721e-05
8.73056e-05
-7.53423e-05
-4.04032e-05
5.92834e-05
6.84341e-05
-1.84019e-05
4.4724e-05
3.25997e-05
-2.4099e-05
5.66392e-05
-5.57992e-05
7.63719e-05
9.96414e-05
-9.61922e-05
-3.74065e-05
7.5084e-05
6.20468e-05
-1.69564e-05
5.56398e-05
3.99715e-05
1.08917e-05
2.62648e-05
3.41437e-05
3.70001e-05
4.88964e-05
5.82018e-05
4.8296e-05
8.61652e-05
-8.51634e-05
1.94107e-05
6.46624e-05
4.63927e-05
1.40302e-05
3.23324e-05
3.32315e-05
4.57269e-05
6.01896e-05
5.924e-05
5.98264e-05
0.000107311
-0.000106973
2.47214e-05
8.08028e-05
5.70823e-05
1.41178e-05
4.2976e-05
3.33323e-05
6.16276e-05