/*--------------------------------*- C++ -*----------------------------------*\
| =========                 |                                                 |
| \\      /  F ield         | OpenFOAM: The Open Source CFD Toolbox           |
|  \\    /   O peration     | Version:  v2006                                 |
|   \\  /    A nd           | Website:  www.openfoam.com                      |
|    \\/     M anipulation  |                                                 |
\*---------------------------------------------------------------------------*/
FoamFile
{
    version     2.0;
    format      ascii;
    class       volScalarField;
    location    "0.039";
    object      yPlus;
}
// * * * * * * * * * * * * * * * * * * * * * * * * * * * * * * * * * * * * * //

dimensions      [0 0 0 0 0 0 0];


internalField   uniform 0;

boundaryField
{
    bottomEmptyFaces
    {
        type            empty;
    }
    topEmptyFaces
    {
        type            empty;
    }
    inlet
    {
        type            calculated;
        value           uniform 0;
    }
    outlet
    {
        type            calculated;
        value           uniform 0;
    }
    walls
    {
        type            calculated;
        value           nonuniform List<scalar> 
1055
(
30.3919
29.6459
28.9673
28.3482
27.7891
27.2823
26.8282
26.4179
26.0511
25.7235
25.4364
25.1838
24.9641
24.7698
24.6017
24.4558
24.3344
24.2321
24.149
24.0794
24.0239
23.9767
23.9391
23.9075
23.8832
23.8641
23.8512
23.8416
23.8359
23.8316
23.8307
23.8291
23.8303
23.8325
23.8356
23.8399
23.8438
23.8484
23.8519
23.8555
23.8575
23.86
23.86
23.8611
23.8592
23.8588
23.8549
23.8531
23.8478
23.845
23.8385
23.8345
23.8274
23.8226
23.8151
23.8096
23.8019
23.7961
23.7882
23.7821
23.7742
23.768
23.7598
23.7534
23.7451
23.7386
23.7302
23.7236
23.7151
23.7086
23.7002
23.6938
23.6856
23.6795
23.6716
23.6658
23.6582
23.653
23.646
23.6414
23.6348
23.6309
23.625
23.6218
23.6165
23.6142
23.6096
23.608
23.6042
23.6034
23.6006
23.6003
23.5986
23.5989
23.5983
23.5991
23.5995
23.6008
23.6024
23.6041
23.6064
23.6089
23.6117
23.615
23.6182
23.6223
23.6259
23.6307
23.6349
23.6403
23.6449
23.6507
23.6559
23.6621
23.6676
23.6743
23.6801
23.6871
23.6933
23.7006
23.7071
23.7147
23.7214
23.7293
23.7363
23.7444
23.7516
23.76
23.7674
23.776
23.7835
23.7922
23.7999
23.8088
23.8167
23.8256
23.8336
23.8425
23.8506
23.8595
23.8676
23.8767
23.8848
23.8939
23.902
23.9111
23.9192
23.9282
23.9364
23.9454
23.9535
23.9624
23.9706
23.9795
23.9876
23.9965
24.0046
24.0135
24.0215
24.0304
24.0385
24.0474
24.0554
24.0643
24.0723
24.0813
24.0893
24.0983
24.1063
24.1153
24.1233
24.1324
24.1403
24.1493
24.1572
24.1661
24.1738
24.1827
24.1901
24.1989
24.206
24.223
24.2219
24.2225
24.237
24.2462
24.2518
24.2779
24.2869
24.3146
24.274
24.214
23.9974
24.1564
24.5658
8.42586
7.2056
6.52166
11.4011
10.5586
9.66008
7.98358
18.2626
13.3603
11.5849
11.4901
12.732
9.37952
8.04208
12.4897
11.3857
13.6591
13.6342
10.7279
9.21065
9.79197
9.63777
8.52569
7.3856
10.1616
9.88112
8.83877
7.49241
9.13577
7.6128
8.62162
7.37787
9.62708
10.1011
8.56676
7.42599
8.38671
7.30606
8.34462
7.22532
6.54309
10.4443
10.9355
9.73248
10.612
9.48704
10.4099
9.21782
9.96356
9.25173
10.1285
10.1258
10.5462
9.32424
10.216
11.5695
8.46003
8.88472
8.99448
9.73591
10.3265
10.7736
11.8876
8.63853
9.09516
9.58575
10.3819
8.35886
9.01529
10.0217
7.34431
7.67183
8.79774
9.06633
10.1797
7.45533
7.81452
8.0211
8.49495
9.16686
9.53633
8.14906
8.70205
8.42222
9.13435
8.66764
9.39756
8.3425
8.91637
10.7691
9.39452
9.77245
7.7917
8.22019
10.5644
7.69539
8.11443
10.4289
9.10199
9.40443
8.29274
9.01326
7.96696
8.54746
7.52003
7.85342
9.8832
10.2903
11.3989
8.30904
8.75164
8.85058
9.73798
11.0474
7.99753
8.44259
8.67874
9.29221
9.1295
9.94507
9.64413
10.1038
8.97807
9.74304
8.65212
9.53417
8.52108
9.18938
9.46035
9.82898
10.8648
7.95185
8.2348
8.66177
9.40523
9.13409
9.98491
8.82357
9.59173
8.67327
9.11296
7.87878
7.7007
7.31867
7.03596
9.575
7.43443
7.85804
8.34974
8.5291
9.44221
6.97527
7.14404
8.39003
8.59603
9.7351
7.12407
7.44446
7.60393
8.03773
8.14934
8.25259
7.03153
7.25473
7.98395
7.98941
7.81927
7.79074
9.17466
6.84575
7.00661
9.20225
7.86513
7.92229
6.80804
7.00698
9.07424
7.33305
7.03346
9.01191
7.7934
7.74154
8.66128
6.66011
6.66068
7.82866
7.7498
6.69548
6.753
6.70192
6.83977
9.23207
7.96633
8.04435
9.30598
6.93812
7.12969
6.82831
7.02594
8.97882
8.77885
7.38116
6.95024
8.32871
6.9984
6.56165
8.33032
7.12351
6.51633
8.46971
7.12728
6.58073
8.36629
6.9901
6.45081
8.07879
6.44348
6.29657
8.25936
6.83782
6.46196
7.7632
7.38497
8.39842
7.73475
7.51463
6.53035
6.50471
8.74297
8.66184
7.27018
6.87425
7.38566
6.92743
7.10407
6.80685
8.96798
7.20908
6.92415
8.56095
6.65472
6.70376
8.73241
8.95459
10.0745
7.40451
7.70443
9.903
7.18387
7.49004
8.58611
8.82947
7.77395
8.27799
7.86432
8.34127
8.71585
9.03912
8.05025
8.57812
13.2242
11.3554
8.65321
11.2576
8.33456
11.6902
9.73307
6.99434
10.6778
10.3591
7.16169
12.2637
9.99592
26.1775
24.6389
8.23894
8.77893
6.14718
25.2689
21.2076
21.2192
20.3847
10.3619
20.1296
8.84618
25.4066
7.71818
20.6656
8.9105
6.1363
20.1039
21.4434
20.9052
10.6953
9.55991
8.42672
7.42565
8.27577
5.98332
28.0586
26.5054
21.8446
21.3865
22.1055
21.55
25.0922
22.0646
20.9347
27.1945
23.3001
22.3937
9.97579
8.99245
8.45392
7.97423
7.32734
8.51399
6.05313
10.5206
9.6879
9.12514
8.61889
8.21592
7.67527
6.96252
7.82038
5.75316
9.6781
8.92905
8.48361
8.11338
7.80896
7.51743
7.27103
7.04942
6.9245
6.77552
6.40815
7.77087
5.39057
9.8138
9.2728
8.96261
8.793
8.59384
13.974
8.373
8.20126
8.06536
7.91565
7.82119
10.9693
12.0117
7.67808
12.0611
12.5064
10.3948
11.2215
13.4722
11.6659
12.1887
9.72135
10.2844
10.6805
11.7175
7.58632
7.54656
7.42787
7.3055
7.21076
7.12888
7.05802
7.00102
14.7333
10.5987
11.2154
12.612
13.1751
11.5932
12.7035
6.9501
6.91095
6.87906
6.85818
6.83626
6.817
6.80495
6.79481
13.5649
14.1761
12.3967
13.4808
6.78898
6.77854
6.77594
6.77443
6.76794
6.76138
6.75939
6.75815
13.8256
14.2717
13.2484
14.371
12.5679
13.5726
16.1175
11.6816
12.3606
6.7521
15.7995
6.74592
6.74418
11.3842
12.0302
6.73967
6.73693
12.2957
13.1789
6.72693
6.72325
6.71733
15.2233
11.8327
12.925
13.0681
13.5952
11.8214
12.7926
11.0066
11.6141
11.3916
12.29
11.3022
12.325
12.1841
12.6632
11.0804
12.1969
14.129
10.2277
10.787
10.9004
11.765
14.4329
11.1504
12.0656
10.3946
10.9804
12.3946
12.9301
10.7995
11.6697
10.1727
10.7009
19.2142
14.3626
14.9391
6.71278
6.70225
6.6971
6.6929
20.701
6.68295
6.67388
6.66791
20.0076
6.66299
14.5299
15.4475
17.3346
17.4115
19.8356
16.8722
17.2518
14.6298
15.3463
16.714
16.9856
6.65245
6.64286
6.63658
6.63135
6.6205
6.61066
6.60438
6.59924
6.58862
6.57892
6.5726
6.56722
6.55661
6.54682
6.54062
15.4325
6.53528
15.7242
16.2551
16.7832
14.4231
15.4049
18.2108
13.1208
13.9298
6.52492
6.51527
6.50942
6.50416
6.49422
6.48455
6.47926
6.47176
17.4715
13.9943
14.9619
12.9066
13.6448
13.3448
14.2755
17.1124
14.6479
15.2127
12.2419
13.03
14.8153
15.4434
18.3933
15.7133
16.2056
13.3011
14.0604
19.2419
19.0461
13.9779
14.6253
16.2895
16.5045
16.1426
16.6192
6.46655
14.1368
6.45504
14.8869
6.45001
6.44277
6.43776
6.42647
6.42169
6.41465
21.3905
6.41006
6.39907
15.9056
16.6005
6.3944
6.3877
6.38294
6.37254
6.36795
22.1919
6.3643
21.9177
18.1249
17.889
18.7119
18.9086
19.8325
19.9353
23.5335
6.35552
18.8419
6.34993
18.6838
6.3415
6.34016
6.33233
22.7458
6.32679
6.32191
18.7467
18.4125
6.31457
22.9583
17.8797
18.4161
16.8188
17.3889
18.0769
18.339
15.4949
16.1595
6.31293
6.30715
6.31057
6.37353
6.4159
6.51301
6.7792
7.12762
29.2717
25.9502
30.2492
23.7623
22.1087
29.9781
27.2058
26.9346
23.3753
22.3208
9.91045
10.7635
33.1848
32.0191
30.9497
32.9556
25.5907
23.4987
30.7648
26.976
25.313
22.7259
12.5389
30.495
9.977
10.9129
10.848
11.2665
29.0134
35.3208
27.3283
25.387
10.2511
11.2113
10.0388
11.0035
35.5978
12.8126
11.1233
11.592
9.30797
9.78961
36.2488
9.7882
10.5692
9.11585
9.57102
36.753
36.7275
36.8277
36.5047
35.7549
13.1597
34.845
10.7564
11.7121
10.4449
11.4892
10.2446
11.057
9.50237
10.0142
10.415
11.3893
11.3354
11.7783
10.2194
11.1425
33.9171
32.9858
32.0734
31.2042
9.60012
10.5517
12.0068
8.75453
9.20469
9.32883
10.0811
9.78125
10.7232
25.0483
7.57878
36.4727
33.1944
31.0026
29.5323
28.4226
27.3899
26.6581
25.9478
25.551
25.0755
24.7919
24.4231
24.2095
23.9089
23.7408
23.4863
23.3481
23.1247
23.0066
22.8052
22.7016
22.5162
22.4227
22.249
22.1627
21.9978
21.9169
21.7588
21.6819
21.5293
21.4553
21.3069
21.2352
21.0902
21.0201
20.8779
20.8091
20.6691
20.6012
20.463
20.3957
20.2588
20.1918
20.0557
19.9888
19.8531
19.786
19.6503
19.5826
19.4465
19.3781
19.2412
19.1718
19.0337
18.9632
18.8236
18.7516
18.6102
18.5366
18.3931
18.3177
18.1719
18.0946
17.9462
17.8671
17.7159
17.635
17.4811
17.3984
17.2418
17.1575
16.9983
16.9126
16.7511
16.6646
16.501
16.4143
16.2494
16.1632
15.998
15.9134
15.7489
15.6673
15.5052
15.4283
15.2704
15.2003
15.0488
14.9881
14.8456
14.7978
14.6678
14.6348
14.5242
14.5058
14.4177
14.4153
14.3573
14.3675
14.3426
14.3653
14.3578
14.4094
14.4175
14.4964
14.5204
14.6221
14.6577
14.775
14.8191
14.9468
14.9971
15.1324
15.1868
15.3262
15.3821
15.5217
15.5773
15.714
15.7675
15.8985
15.9485
16.0714
16.1168
16.2297
16.27
16.3713
16.4055
16.494
16.5218
16.5973
16.6187
16.6815
16.6967
16.7476
16.7572
16.7975
16.8023
16.8335
16.8341
16.8565
16.8543
16.8698
16.8655
16.8755
16.8693
16.8758
16.867
16.8713
16.8583
16.8615
16.8458
16.8484
16.8306
16.8326
16.8131
16.8147
16.7939
16.7952
16.7732
16.7741
16.7511
16.7518
16.7281
16.7289
16.7016
16.7079
16.6752
16.6847
16.6384
16.7126
16.7418
16.9438
17.2253
18.27
20.9084
18.9373
39.9415
)
;
    }
    rightWall
    {
        type            calculated;
        value           uniform 0;
    }
    symmetryLine
    {
        type            symmetryPlane;
    }
}


// ************************************************************************* //
