/*--------------------------------*- C++ -*----------------------------------*\
| =========                 |                                                 |
| \\      /  F ield         | OpenFOAM: The Open Source CFD Toolbox           |
|  \\    /   O peration     | Version:  v2006                                 |
|   \\  /    A nd           | Website:  www.openfoam.com                      |
|    \\/     M anipulation  |                                                 |
\*---------------------------------------------------------------------------*/
FoamFile
{
    version     2.0;
    format      ascii;
    class       volScalarField;
    location    "0.06";
    object      alphat;
}
// * * * * * * * * * * * * * * * * * * * * * * * * * * * * * * * * * * * * * //

dimensions      [1 -1 -1 0 0 0 0];


internalField   nonuniform List<scalar> 
23013
(
32.8849
30.2558
65.7646
20.502
35.5892
34.7345
16.3552
5.55732
2.39027
1.32826
0.906375
0.7149
0.617753
0.560949
0.520921
0.487575
0.457179
0.428857
0.402741
0.379092
0.357979
0.339259
0.322652
0.307838
0.294513
0.282423
0.271366
0.261185
0.251762
0.243004
0.234841
0.227209
0.220056
0.213336
0.207013
0.201054
0.19543
0.190114
0.185086
0.180324
0.175811
0.171532
0.16747
0.163614
0.159951
0.15647
0.153161
0.150015
0.147023
0.144177
0.14147
0.138896
0.136448
0.13412
0.131909
0.129809
0.127816
0.125926
0.124137
0.122446
0.120849
0.119346
0.117933
0.116611
0.115376
0.114229
0.113169
0.112195
0.111307
0.110505
0.109789
0.109161
0.108622
0.108173
0.107816
0.107554
0.107389
0.107326
0.10737
0.107522
0.107788
0.108174
0.108688
0.109337
0.110129
0.111073
0.112182
0.113468
0.114945
0.11663
0.118543
0.120707
0.12315
0.125905
0.129015
0.132535
0.136539
0.141125
0.146408
0.152509
0.15952
0.167461
0.176263
0.185887
0.196769
0.210935
0.234312
0.282331
0.394093
0.671818
1.35255
2.55324
3.22996
2.59061
1.37332
0.741093
0.41969
0.211146
0.124101
0.0630686
0.013815
0.00252651
9.29449e-05
7.97976e-05
0.00119431
0.00541479
0.0027609
0.000725154
6.84036e-05
6.02911e-05
0.000670918
0.00242575
0.00182563
0.000544339
5.43544e-05
4.98866e-05
0.000528096
0.00174757
0.00148567
0.000462221
4.59674e-05
4.36754e-05
0.000465008
0.00146924
0.00132991
0.000425189
4.13263e-05
4.02044e-05
0.000439709
0.0013394
0.00124164
0.000409538
3.8704e-05
3.80748e-05
0.000421528
0.00125351
0.00117753
0.000396114
3.6954e-05
3.6587e-05
0.000407972
0.00119175
0.00112491
0.000384975
3.56896e-05
3.54676e-05
0.00039628
0.00113964
0.00107912
0.0003749
3.47081e-05
3.45578e-05
0.000385628
0.0010938
0.00103794
0.000365361
3.38987e-05
3.37752e-05
0.0003756
0.00105243
0.00100036
0.000356397
3.31893e-05
3.30904e-05
0.000366401
0.00101499
0.000966578
0.000348211
3.25523e-05
3.24675e-05
0.000357986
0.00098136
0.000936019
0.000340642
3.19658e-05
3.18946e-05
0.000350224
0.000950939
0.000908258
0.000333567
3.14194e-05
3.13578e-05
0.000342954
0.000923138
0.000882848
0.000326892
3.0896e-05
3.08375e-05
0.000335997
0.000897482
0.000858974
0.000320625
3.04089e-05
3.03597e-05
0.000329705
0.000873777
0.000837533
0.000314925
2.99339e-05
2.98909e-05
0.000323801
0.000852235
0.000817701
0.000309548
2.94851e-05
2.94535e-05
0.00031829
0.000832305
0.000799224
0.000304345
2.90538e-05
2.90202e-05
0.000312873
0.00081351
0.000781541
0.000299314
2.86526e-05
2.86426e-05
0.000307765
0.000795663
0.000765055
0.000294746
2.83785e-05
2.84226e-05
0.000303049
0.000779009
0.000749489
0.000290293
2.82056e-05
2.82519e-05
0.000298316
0.000762944
0.000734225
0.000285924
2.80517e-05
2.81035e-05
0.00029381
0.000747446
0.000719678
0.000281794
2.79108e-05
2.79683e-05
0.000289588
0.000732706
0.000705815
0.000277894
2.77802e-05
2.78371e-05
0.000285568
0.000718552
0.000692456
0.000274023
2.76383e-05
2.7693e-05
0.000281478
0.000704731
0.000679328
0.00027032
2.75065e-05
2.75675e-05
0.000277774
0.00069158
0.000667136
0.00026694
2.73782e-05
2.74405e-05
0.000274277
0.000679208
0.000655446
0.000263664
2.72522e-05
2.73201e-05
0.000270899
0.000667324
0.000644125
0.000260403
2.71317e-05
2.7193e-05
0.000267547
0.000655748
0.000633227
0.000257351
2.70016e-05
2.70757e-05
0.000264444
0.000644769
0.000622988
0.000254401
2.6879e-05
2.69482e-05
0.000261343
0.000634232
0.000612794
0.000251413
2.67546e-05
2.68227e-05
0.000258325
0.000623929
0.000603172
0.000248663
2.66255e-05
2.67042e-05
0.000255527
0.000614273
0.000594162
0.000245995
2.65005e-05
2.65744e-05
0.000252728
0.000605007
0.00058521
0.00024332
2.63738e-05
2.645e-05
0.00025006
0.000596074
0.000576989
0.000240895
2.62459e-05
2.63233e-05
0.000247562
0.000587736
0.000569101
0.000238542
2.61176e-05
2.61953e-05
0.000245172
0.000579846
0.000561757
0.000236305
2.59891e-05
2.60679e-05
0.00024291
0.000572519
0.000554983
0.0002342
2.58593e-05
2.59394e-05
0.000240796
0.000565861
0.000548911
0.000232349
2.57412e-05
2.5816e-05
0.000239008
0.000559995
0.000543717
0.000230821
2.56167e-05
2.56971e-05
0.000237494
0.00055505
0.000539449
0.000229547
2.55133e-05
2.55811e-05
0.000236238
0.000551011
0.00053601
0.000228522
2.54091e-05
2.54681e-05
0.000235279
0.000548098
0.000533852
0.000227951
2.53217e-05
2.53715e-05
0.00023484
0.000546806
0.000533104
0.00022788
2.52538e-05
2.52878e-05
0.000234882
0.000546777
0.00053364
0.00022825
2.51852e-05
2.52306e-05
0.000235353
0.00054818
0.000535598
0.000229144
2.51295e-05
2.52124e-05
0.000236416
0.000551211
0.000539328
0.000230535
2.50891e-05
2.52022e-05
0.000237967
0.000556098
0.000544756
0.000232418
2.50743e-05
2.52147e-05
0.000240026
0.000562375
0.000551582
0.000234708
2.50887e-05
2.52559e-05
0.000242465
0.000569914
0.000559526
0.000237121
2.51349e-05
2.53152e-05
0.000245028
0.000578417
0.00056841
0.000239475
2.52005e-05
2.54042e-05
0.000247557
0.000587748
0.000577699
0.000241729
2.5296e-05
2.54929e-05
0.000249955
0.000596873
0.000586568
0.000243864
2.53951e-05
2.56019e-05
0.000252296
0.000605833
0.000595113
0.000245954
2.55154e-05
2.57235e-05
0.000254582
0.000614329
0.000603164
0.000248008
2.56487e-05
2.58539e-05
0.000256839
0.000622666
0.000610812
0.000250054
2.57912e-05
2.59918e-05
0.00025904
0.000630582
0.000617777
0.000252074
2.59404e-05
2.61346e-05
0.000261168
0.00063751
0.000623735
0.000253921
2.60939e-05
2.62811e-05
0.000263012
0.000643256
0.000628576
0.0002555
2.62493e-05
2.64253e-05
0.000264536
0.000647795
0.000632303
0.000256815
2.64011e-05
2.65596e-05
0.000265801
0.000651185
0.000634872
0.0002579
2.65559e-05
2.679e-05
0.00026684
0.000653491
0.000636322
0.000258856
2.68606e-05
2.71861e-05
0.000267882
0.000654859
0.000637038
0.000259827
2.72879e-05
2.76352e-05
0.000268937
0.000655521
0.000637035
0.000260753
2.77491e-05
2.80897e-05
0.000269278
0.000655386
0.000636316
0.000261591
2.82057e-05
2.85246e-05
0.000269172
0.000654402
0.00063488
0.000262409
2.86369e-05
2.89274e-05
0.000268993
0.000652564
0.000632706
0.000263184
2.90328e-05
2.92887e-05
0.000268844
0.000649914
0.000629845
0.000263908
2.93858e-05
2.961e-05
0.000268607
0.000646423
0.000626247
0.000264545
2.96957e-05
2.9886e-05
0.000268412
0.000642097
0.000622001
0.000265065
2.99608e-05
3.01147e-05
0.000268148
0.000637197
0.000617288
0.000265387
3.01759e-05
3.02858e-05
0.000267818
0.000631692
0.000612141
0.000265733
3.03358e-05
3.04164e-05
0.000267404
0.000625843
0.000606762
0.000265937
3.04563e-05
3.04949e-05
0.000267065
0.000619767
0.000601314
0.000265793
3.053e-05
3.05514e-05
0.000266549
0.000613649
0.000595843
0.000265323
3.05645e-05
3.05768e-05
0.000265956
0.000607554
0.000590346
0.000264802
3.05579e-05
3.05673e-05
0.000265258
0.000601495
0.000584949
0.000264171
3.05301e-05
3.05378e-05
0.00026454
0.000595704
0.000579762
0.000263503
3.04832e-05
3.0486e-05
0.000263756
0.000590228
0.000574848
0.000262816
3.04195e-05
3.04248e-05
0.000263108
0.000585082
0.000570337
0.000262111
3.03576e-05
3.03595e-05
0.000262339
0.000580402
0.000565969
0.000261398
3.02821e-05
3.02835e-05
0.000261624
0.000575893
0.000561709
0.00026071
3.02045e-05
3.0206e-05
0.000260941
0.000571556
0.000557588
0.000259995
3.01279e-05
3.01327e-05
0.000260169
0.000567462
0.000553795
0.000259222
3.00495e-05
3.00537e-05
0.000259426
0.000563539
0.000550073
0.000258468
2.99698e-05
2.99744e-05
0.000258668
0.000559721
0.000546396
0.000257663
2.98921e-05
2.98959e-05
0.00025784
0.000555944
0.000542803
0.000256881
2.9811e-05
2.98156e-05
0.000257083
0.000552268
0.000539237
0.000256026
2.97385e-05
2.97412e-05
0.000256161
0.000548654
0.000535741
0.000255166
2.96605e-05
2.96634e-05
0.000255271
0.000545032
0.000532254
0.000254258
2.95839e-05
2.95868e-05
0.000254344
0.000541478
0.000528838
0.00025332
2.95071e-05
2.951e-05
0.000253381
0.00053796
0.000525423
0.000252351
2.94305e-05
2.94334e-05
0.000252391
0.00053442
0.000522005
0.00025136
2.93544e-05
2.93574e-05
0.000251385
0.0005309
0.000518636
0.000250355
2.92788e-05
2.92817e-05
0.000250367
0.000527435
0.000515308
0.000249336
2.92035e-05
2.92063e-05
0.000249332
0.000523995
0.000511988
0.000248326
2.91283e-05
2.91311e-05
0.000248305
0.000520572
0.00050862
0.000247265
2.9054e-05
2.90581e-05
0.000247214
0.000517153
0.000505469
0.000246169
2.89776e-05
2.89811e-05
0.000246139
0.00051385
0.000502334
0.000245143
2.88985e-05
2.89032e-05
0.000245164
0.000510582
0.000499052
0.000244079
2.88298e-05
2.88322e-05
0.000244043
0.000507251
0.000495862
0.000243041
2.87552e-05
2.87577e-05
0.000243009
0.000504055
0.000491935
0.000241916
2.8669e-05
2.86892e-05
0.000241753
0.000500928
0.000488132
0.00024116
2.8621e-05
2.88957e-05
0.000242698
0.000505262
0.000491984
0.000243742
2.90818e-05
3.02009e-05
0.000250794
0.000524938
0.000567335
0.000261326
3.13473e-05
3.26684e-05
0.000269479
0.000564537
0.000590523
0.000275386
3.31595e-05
4.67204e-05
0.000282175
0.000596455
0.0015244
0.00296357
0.0046573
0.0058627
0.00859953
0.0102558
0.0116225
0.0121521
0.0120175
0.0113809
0.010035
0.00861371
0.006105
0.00503585
0.00357636
0.00250113
0.00223558
0.00136059
0.000708698
0.000308946
0.000142957
3.30854e-05
2.00349e-05
0.00013718
0.000301932
0.000278453
0.000130802
1.93513e-05
1.87127e-05
0.000127734
0.000273995
0.000274328
0.000126271
1.86755e-05
1.83021e-05
0.000124154
0.000264497
0.000267664
0.000122997
1.81572e-05
1.79577e-05
0.000121526
0.000260724
0.000262617
0.000121151
1.79487e-05
1.77787e-05
0.000120318
0.000257638
0.000260909
0.000120289
1.77669e-05
1.78007e-05
0.000120381
0.000259017
0.000262311
0.000120062
1.77915e-05
1.78063e-05
0.000120229
0.00025832
0.000261783
0.000120202
1.77999e-05
1.78113e-05
0.00012066
0.000259084
0.000263878
0.000120409
1.78178e-05
1.78319e-05
0.000120554
0.000259623
0.000263077
0.000120518
1.78288e-05
1.78419e-05
0.000121032
0.000260289
0.000265074
0.000120786
1.78426e-05
1.78581e-05
0.000120881
0.000260769
0.000264223
0.000120855
1.78615e-05
1.78704e-05
0.000121369
0.000261378
0.000266221
0.000121119
1.78668e-05
1.78818e-05
0.000121228
0.000261927
0.00026545
0.000121205
1.7888e-05
1.78981e-05
0.000121727
0.000262638
0.000267558
0.000121478
1.78944e-05
1.79106e-05
0.000121615
0.000263228
0.000266783
0.00012158
1.7914e-05
1.79255e-05
0.000122095
0.000263949
0.000268905
0.000121835
1.79239e-05
1.79393e-05
0.000121992
0.000264483
0.000268042
0.00012195
1.79383e-05
1.79509e-05
0.000122437
0.000265198
0.000270211
0.000122176
1.79556e-05
1.79718e-05
0.000122352
0.000265787
0.000269424
0.000122337
1.797e-05
1.79825e-05
0.000122834
0.000266591
0.000271678
0.00012256
1.79909e-05
1.80075e-05
0.000122749
0.000267226
0.000270912
0.000122762
1.80032e-05
1.8016e-05
0.000123249
0.000268044
0.000273141
0.000122988
1.80262e-05
1.80414e-05
0.000123187
0.000268618
0.000272354
0.000123189
1.80366e-05
1.80486e-05
0.000123689
0.00026949
0.000274666
0.000123424
1.80588e-05
1.8074e-05
0.000123636
0.000270149
0.000273979
0.000123629
1.80689e-05
1.80829e-05
0.000124172
0.000271115
0.000276348
0.00012392
1.80895e-05
1.81052e-05
0.000124104
0.000271781
0.000275624
0.000124078
1.81051e-05
1.81186e-05
0.000124648
0.000272677
0.00027797
0.000124398
1.81215e-05
1.81388e-05
0.000124571
0.000273363
0.000277269
0.000124552
1.81433e-05
1.81551e-05
0.000125129
0.000274289
0.000279667
0.000124898
1.81558e-05
1.81729e-05
0.000125096
0.000275033
0.000278981
0.000125074
1.8178e-05
1.81904e-05
0.000125649
0.000275979
0.000281408
0.000125427
1.81914e-05
1.82076e-05
0.000125635
0.000276724
0.000280709
0.000125596
1.82123e-05
1.82262e-05
0.000126168
0.000277667
0.000283129
0.000125958
1.82288e-05
1.8245e-05
0.000126163
0.000278388
0.000282423
0.00012612
1.82498e-05
1.82634e-05
0.000126703
0.000279348
0.000284875
0.000126493
1.82642e-05
1.82808e-05
0.000126675
0.000280093
0.000284152
0.000126654
1.8286e-05
1.82978e-05
0.000127246
0.00028101
0.000286565
0.000127016
1.82975e-05
1.83146e-05
0.000127196
0.00028171
0.000285754
0.000127188
1.83192e-05
1.83301e-05
0.000127775
0.000282548
0.000288125
0.000127521
1.83273e-05
1.83436e-05
0.000127695
0.000283204
0.00028726
0.000127678
1.83461e-05
1.83585e-05
0.000128237
0.000283999
0.00028958
0.000127963
1.83567e-05
1.83709e-05
0.000128151
0.000284548
0.000288563
0.000128123
1.83665e-05
1.83781e-05
0.000128618
0.000285213
0.000290729
0.000128333
1.83793e-05
1.83904e-05
0.000128507
0.00028555
0.000289505
0.000128465
1.83835e-05
1.83924e-05
0.000128939
0.000286037
0.000291436
0.000128608
1.83908e-05
1.83992e-05
0.000128725
0.00028613
0.00028994
0.000128621
1.83887e-05
1.83945e-05
0.000129041
0.000286303
0.000291535
0.000128647
1.83864e-05
1.83904e-05
0.000128658
0.000286068
0.000289691
0.000128475
1.83778e-05
1.8375e-05
0.000128839
0.000285847
0.000290858
0.000128364
1.836e-05
1.83509e-05
0.000128214
0.000285209
0.000288605
0.000127913
1.83383e-05
1.83208e-05
0.000128143
0.000284498
0.000289174
0.000127529
1.82992e-05
1.82783e-05
0.000127185
0.000283159
0.000286085
0.000126695
1.82599e-05
1.82192e-05
0.000126678
0.000281503
0.000285644
0.000125751
1.81878e-05
1.81446e-05
0.000125134
0.000278961
0.000281468
0.000124355
1.81124e-05
1.80403e-05
0.00012387
0.000276186
0.000279905
0.000122555
1.79901e-05
1.79167e-05
0.000121488
0.000272388
0.000274436
0.000120395
1.78633e-05
1.7748e-05
0.000119215
0.000268201
0.000271324
0.000117534
1.76803e-05
1.75631e-05
0.000115731
0.000262674
0.000264163
0.000114253
1.74843e-05
1.73339e-05
0.000112259
0.000256803
0.000259358
0.000110218
1.72478e-05
1.71044e-05
0.000107561
0.000249786
0.000250935
0.000105785
1.70147e-05
1.68921e-05
0.000103134
0.000242817
0.000245149
0.000101022
1.68137e-05
1.67494e-05
9.80289e-05
0.000235028
0.000236039
9.6356e-05
1.66945e-05
1.66529e-05
9.36643e-05
0.000227379
0.00023005
9.18514e-05
1.66623e-05
1.66647e-05
8.91047e-05
0.000219668
0.000220763
8.78319e-05
1.67295e-05
1.67843e-05
8.55596e-05
0.000211957
0.000215187
8.44036e-05
1.69175e-05
1.70416e-05
8.22758e-05
0.000205156
0.000207005
8.16995e-05
1.72457e-05
1.74572e-05
8.03107e-05
0.000199142
0.000202912
8.01282e-05
1.77492e-05
1.80334e-05
7.92063e-05
0.000194518
0.000196604
7.99234e-05
1.83142e-05
1.86139e-05
7.95866e-05
0.000192043
0.000195503
8.14873e-05
1.89394e-05
1.92383e-05
7.89049e-05
0.000190497
0.000192908
8.23422e-05
1.95123e-05
1.96924e-05
8.14569e-05
0.000189058
0.000193908
8.59324e-05
1.97526e-05
1.99126e-05
8.7111e-05
0.00019138
0.000203086
9.87518e-05
2.02595e-05
1.44165e-05
0.000100375
0.00020857
7.98204e-05
3.30572e-05
1.16517e-05
1.41107e-05
6.43398e-05
0.000175531
0.000156778
6.46619e-05
1.49382e-05
1.55939e-05
6.72517e-05
0.000174038
0.000168176
6.66891e-05
1.58938e-05
1.62708e-05
6.82049e-05
0.000177221
0.000175176
6.88824e-05
1.66333e-05
1.70681e-05
6.8998e-05
0.000181065
0.000182669
7.14372e-05
1.75398e-05
1.8014e-05
7.08923e-05
0.00018935
0.000189349
7.41401e-05
1.85458e-05
1.89425e-05
7.33834e-05
0.000194378
0.000198638
7.77315e-05
1.94167e-05
1.97711e-05
7.74475e-05
0.000201508
0.000205839
8.08176e-05
1.99642e-05
2.01811e-05
8.42305e-05
0.000209879
0.000214197
8.96656e-05
2.03938e-05
2.06655e-05
9.84511e-05
0.000224193
0.000224443
0.000101911
1.44747e-05
1.26716e-05
2.8582e-05
7.04581e-05
0.000171057
5.91121e-05
1.52091e-05
1.60332e-05
5.52245e-05
0.000152984
0.00015953
5.72102e-05
1.67037e-05
1.72119e-05
5.4803e-05
0.000152234
0.00016155
5.95081e-05
1.7783e-05
1.83216e-05
5.86839e-05
0.000159698
0.0001717
6.53234e-05
1.89116e-05
1.92145e-05
6.56081e-05
0.000171118
0.000186387
7.62819e-05
1.95385e-05
2.02315e-05
8.29423e-05
0.000192948
0.000208661
9.15228e-05
1.452e-05
1.33891e-05
2.52946e-05
6.33183e-05
0.000167385
6.14096e-05
1.61271e-05
1.75568e-05
5.38852e-05
0.000157387
0.000189371
6.70709e-05
1.86635e-05
1.92793e-05
6.58492e-05
0.000190167
0.000211546
7.69927e-05
1.98213e-05
2.02912e-05
7.77742e-05
0.000214952
0.000232173
8.87826e-05
2.08676e-05
2.15075e-05
9.72431e-05
0.000243887
0.000246987
0.000102909
1.53522e-05
1.41755e-05
2.69292e-05
6.76107e-05
0.000180859
6.37903e-05
1.71385e-05
1.82178e-05
5.74524e-05
0.000170722
0.000189802
6.52006e-05
1.88044e-05
1.9423e-05
6.65295e-05
0.000183869
0.000204237
7.84267e-05
2.0099e-05
2.10337e-05
8.52425e-05
0.000213975
0.000235603
9.65068e-05
1.52029e-05
1.40611e-05
2.52729e-05
6.44907e-05
0.000183359
6.19301e-05
1.70988e-05
1.87673e-05
6.04368e-05
0.000181951
0.000230887
8.20312e-05
1.97631e-05
2.08217e-05
8.4595e-05
0.000240093
0.000271681
0.000105508
2.21459e-05
1.61536e-05
0.000106311
0.000268748
6.77049e-05
2.61834e-05
1.43181e-05
1.71858e-05
6.65153e-05
0.00019815
0.000186293
5.94187e-05
1.86869e-05
1.97318e-05
7.37672e-05
0.000219232
0.00023787
8.35604e-05
2.08314e-05
2.28015e-05
0.000106663
0.000277109
0.000294197
0.00011592
1.73109e-05
1.53275e-05
3.02199e-05
7.79969e-05
0.000234107
7.82656e-05
1.85043e-05
2.08121e-05
8.3703e-05
0.000250575
0.000325382
0.000118298
2.33542e-05
1.75646e-05
0.000121053
0.000319025
8.05758e-05
2.97075e-05
1.50512e-05
1.83553e-05
8.23349e-05
0.000250063
0.000253551
8.18304e-05
2.05916e-05
2.35083e-05
0.000114113
0.000329305
0.000343897
0.000132459
1.80585e-05
1.52178e-05
3.23319e-05
9.18204e-05
0.000304308
9.14226e-05
1.92795e-05
2.23311e-05
0.000106624
0.000337812
0.000460187
0.000166101
2.60058e-05
2.07687e-05
0.000167211
0.000441855
0.000121677
4.10328e-05
1.66065e-05
2.15609e-05
0.000132961
0.000398188
0.000435541
0.000145891
2.67381e-05
2.2873e-05
0.000210266
0.000511327
0.000157227
4.77388e-05
1.71889e-05
2.5048e-05
0.000186309
0.000537868
0.000539405
0.000194779
2.15926e-05
1.66157e-05
4.4869e-05
0.000164856
0.000616228
0.000190044
2.46518e-05
3.40216e-05
0.000219928
0.000718987
0.000878874
0.000368363
3.25911e-05
2.37745e-05
9.22412e-05
0.000320183
0.000848518
0.000348628
2.79412e-05
1.79198e-05
7.05914e-05
0.000308604
0.00123638
0.000374975
4.33693e-05
4.66066e-05
0.00051404
0.00143962
0.000743849
0.000204143
3.94322e-05
7.56503e-05
0.000987885
0.00213782
0.00161346
0.000608862
4.34654e-05
3.08884e-05
0.000519976
0.00136325
0.0013724
0.000501903
3.21345e-05
3.80929e-05
0.000523091
0.00157916
0.0018668
0.000594664
4.88668e-05
7.56375e-05
0.00109591
0.00295127
0.000655648
0.000187436
4.34553e-05
4.29462e-05
0.000521141
0.0013205
0.000386253
0.000129721
2.97917e-05
3.37478e-05
0.00040293
0.000880024
0.000312041
0.000100733
2.75615e-05
3.0665e-05
0.00028927
0.00071526
0.00060449
0.00020706
3.09172e-05
1.85611e-05
4.6956e-05
0.000158512
0.00040074
0.000228159
2.16715e-05
2.10902e-05
6.24819e-05
0.000168582
0.000441998
0.000179196
2.4043e-05
2.61466e-05
0.000140567
0.000383217
0.000113926
4.13772e-05
1.75466e-05
1.9379e-05
0.000130073
0.000323199
0.00029303
0.000112933
2.31673e-05
1.63717e-05
3.57931e-05
9.27148e-05
0.00026962
0.000112525
1.7734e-05
2.12972e-05
9.71837e-05
0.000241941
7.79169e-05
3.11713e-05
1.59388e-05
1.6607e-05
9.41267e-05
0.000220986
0.000198527
8.23412e-05
2.00927e-05
1.47529e-05
2.57238e-05
6.41049e-05
0.000169327
0.000105788
1.49011e-05
1.7702e-05
3.55825e-05
8.08029e-05
0.000226832
0.000106324
1.80075e-05
2.2294e-05
7.96881e-05
0.000181342
0.000149361
6.32829e-05
1.83357e-05
1.47981e-05
2.27395e-05
5.35912e-05
0.00014897
6.63222e-05
1.41784e-05
1.86029e-05
6.07494e-05
0.000139442
5.17133e-05
2.35082e-05
1.48567e-05
1.40201e-05
6.42524e-05
0.000137766
0.000129302
5.99879e-05
1.81762e-05
1.50715e-05
2.30656e-05
4.98969e-05
0.00013156
6.17269e-05
1.39117e-05
1.80503e-05
5.77829e-05
0.000122208
4.79524e-05
2.25846e-05
1.47547e-05
1.36361e-05
5.86687e-05
0.000119692
0.000113779
5.56715e-05
1.78858e-05
1.48585e-05
2.21767e-05
4.56751e-05
0.000114006
5.65859e-05
1.35434e-05
1.78725e-05
5.43948e-05
0.000107232
4.4519e-05
2.18455e-05
1.48026e-05
1.33676e-05
5.36608e-05
0.000104535
0.00010036
5.22412e-05
1.77161e-05
1.48625e-05
2.175e-05
4.29832e-05
0.000100943
5.25855e-05
1.33824e-05
1.77319e-05
5.15534e-05
9.61334e-05
4.24442e-05
2.1931e-05
1.49156e-05
1.33716e-05
5.03406e-05
9.4645e-05
9.16506e-05
5.05165e-05
1.77568e-05
1.50269e-05
2.20529e-05
4.18779e-05
9.24443e-05
5.02171e-05
1.33205e-05
1.76384e-05
4.92593e-05
8.8732e-05
4.07139e-05
2.20358e-05
1.49083e-05
1.32264e-05
4.77716e-05
8.59158e-05
8.39114e-05
4.6784e-05
1.76217e-05
1.50582e-05
2.19947e-05
3.94086e-05
8.37723e-05
4.72976e-05
1.32007e-05
1.75378e-05
4.56269e-05
8.12934e-05
3.83511e-05
2.22236e-05
1.49491e-05
1.32121e-05
4.55369e-05
7.77786e-05
7.62761e-05
4.34239e-05
1.76556e-05
1.50897e-05
2.23761e-05
3.6895e-05
7.52561e-05
4.49042e-05
1.32373e-05
1.76751e-05
4.19332e-05
7.35421e-05
3.59501e-05
2.23914e-05
1.49325e-05
1.30857e-05
4.2368e-05
7.03924e-05
6.92374e-05
4.0007e-05
1.74997e-05
1.49585e-05
2.21059e-05
3.44304e-05
6.88024e-05
4.14531e-05
1.31329e-05
1.76295e-05
3.85251e-05
6.55301e-05
3.34655e-05
2.24255e-05
1.50746e-05
1.30655e-05
4.00436e-05
6.58733e-05
6.2604e-05
3.73265e-05
1.75475e-05
1.49025e-05
2.21364e-05
3.24775e-05
6.45801e-05
3.96735e-05
1.28981e-05
1.74254e-05
3.65545e-05
6.01276e-05
3.16864e-05
2.22987e-05
1.49498e-05
1.30671e-05
3.80243e-05
6.15137e-05
5.71735e-05
3.52612e-05
1.74657e-05
1.50221e-05
2.19103e-05
3.05861e-05
5.99633e-05
3.72175e-05
1.29162e-05
1.72964e-05
3.40922e-05
5.48127e-05
2.94408e-05
2.17685e-05
1.47221e-05
1.2847e-05
3.51605e-05
5.62111e-05
5.17496e-05
3.25345e-05
1.72903e-05
1.48172e-05
2.14328e-05
2.80614e-05
5.4152e-05
3.42603e-05
1.27648e-05
1.72345e-05
3.15472e-05
4.92924e-05
2.67338e-05
2.10217e-05
1.46611e-05
1.2458e-05
3.19328e-05
5.00444e-05
4.5935e-05
2.97461e-05
1.68922e-05
1.43546e-05
2.03201e-05
2.51693e-05
4.73545e-05
3.05522e-05
1.22986e-05
1.67143e-05
2.81858e-05
4.34411e-05
2.36594e-05
1.91828e-05
1.39278e-05
1.15482e-05
3.11633e-05
3.87986e-05
2.5342e-05
2.03274e-05
1.55361e-05
1.31143e-05
3.18584e-05
5.0178e-05
4.56327e-05
2.95229e-05
1.75378e-05
1.48641e-05
2.21555e-05
2.60983e-05
4.94478e-05
3.28287e-05
1.25958e-05
1.71496e-05
3.04155e-05
4.53448e-05
2.56021e-05
2.16819e-05
1.46924e-05
1.26362e-05
3.10236e-05
4.65918e-05
4.27388e-05
2.85678e-05
1.71716e-05
1.44499e-05
2.02449e-05
2.39237e-05
3.8448e-05
3.16795e-05
1.18226e-05
1.58791e-05
2.10354e-05
2.54798e-05
4.81396e-05
3.13753e-05
1.33775e-05
1.7726e-05
2.92971e-05
4.32374e-05
2.55705e-05
2.2915e-05
1.49452e-05
1.27973e-05
3.11071e-05
4.49751e-05
4.16457e-05
2.89978e-05
1.727e-05
1.48576e-05
2.18762e-05
2.45194e-05
4.2929e-05
2.93434e-05
1.26901e-05
1.71872e-05
2.72961e-05
3.99111e-05
2.30061e-05
2.0329e-05
1.45757e-05
1.1798e-05
3.01839e-05
3.56963e-05
2.40316e-05
2.08862e-05
1.5836e-05
1.32012e-05
2.94236e-05
4.46647e-05
4.03861e-05
2.78816e-05
1.76511e-05
1.47915e-05
2.2607e-05
2.42568e-05
4.22085e-05
2.96851e-05
1.26216e-05
1.70775e-05
2.75985e-05
3.90004e-05
2.29485e-05
2.06481e-05
1.44909e-05
1.17819e-05
3.00518e-05
3.51466e-05
2.39671e-05
2.14766e-05
1.59564e-05
1.32873e-05
2.87125e-05
4.34127e-05
3.92083e-05
2.71103e-05
1.75597e-05
1.43774e-05
2.15484e-05
2.32936e-05
3.54616e-05
3.04977e-05
1.2019e-05
1.63264e-05
2.19355e-05
2.44086e-05
4.42292e-05
3.04339e-05
1.35688e-05
1.77485e-05
2.89206e-05
4.0137e-05
2.52262e-05
2.42739e-05
1.51534e-05
1.31357e-05
3.04052e-05
4.19651e-05
3.89392e-05
2.84124e-05
1.75952e-05
1.48963e-05
2.20971e-05
2.36706e-05
3.57794e-05
3.12228e-05
1.21839e-05
1.63121e-05
2.25211e-05
2.47507e-05
4.36462e-05
2.9508e-05
1.35374e-05
1.79602e-05
2.79828e-05
3.93193e-05
2.42901e-05
2.30383e-05
1.49201e-05
1.23531e-05
3.13051e-05
3.62899e-05
2.54199e-05
2.33175e-05
1.64965e-05
1.35409e-05
3.0931e-05
4.46475e-05
4.0311e-05
2.93723e-05
1.78602e-05
1.50585e-05
2.439e-05
2.52456e-05
4.12688e-05
2.99412e-05
1.29878e-05
1.77234e-05
2.81682e-05
3.84536e-05
2.37186e-05
2.22832e-05
1.49656e-05
1.21767e-05
3.06617e-05
3.49056e-05
2.47172e-05
2.30449e-05
1.63833e-05
1.35687e-05
2.84209e-05
4.17276e-05
3.76974e-05
2.70466e-05
1.79295e-05
1.49507e-05
2.24254e-05
2.35322e-05
3.42094e-05
2.99268e-05
1.23007e-05
1.64364e-05
2.23644e-05
2.43574e-05
4.06373e-05
2.8782e-05
1.34169e-05
1.77403e-05
2.75469e-05
3.69742e-05
2.3559e-05
2.28052e-05
1.4548e-05
1.21937e-05
3.06332e-05
3.41488e-05
2.44661e-05
2.299e-05
1.63246e-05
1.34515e-05
2.7929e-05
4.04521e-05
3.68341e-05
2.68781e-05
1.79461e-05
1.49237e-05
2.28121e-05
2.34789e-05
3.32307e-05
3.01289e-05
1.21294e-05
1.62203e-05
2.41558e-05
2.49078e-05
3.63534e-05
2.8044e-05
1.27328e-05
1.69359e-05
2.48019e-05
2.61913e-05
4.30492e-05
2.95188e-05
1.39177e-05
1.82165e-05
2.84699e-05
3.88513e-05
2.53265e-05
2.49632e-05
1.51438e-05
1.2442e-05
3.30507e-05
3.65528e-05
2.67389e-05
2.56106e-05
1.68613e-05
1.39197e-05
3.08787e-05
4.4023e-05
3.98842e-05
2.95768e-05
1.83951e-05
1.52195e-05
2.52677e-05
2.57882e-05
3.71442e-05
3.339e-05
1.2646e-05
1.70179e-05
2.5594e-05
2.70051e-05
4.39305e-05
3.08733e-05
1.40086e-05
1.85443e-05
2.96842e-05
4.00118e-05
2.59813e-05
2.52642e-05
1.53954e-05
1.27239e-05
3.33079e-05
3.68554e-05
2.69343e-05
2.55239e-05
1.71276e-05
1.40511e-05
3.08163e-05
4.3201e-05
3.9148e-05
2.95081e-05
1.83461e-05
1.49439e-05
2.45041e-05
2.5587e-05
3.509e-05
3.28441e-05
1.23991e-05
1.65335e-05
2.59242e-05
2.68685e-05
3.80921e-05
2.93579e-05
1.29155e-05
1.71938e-05
2.65274e-05
2.78657e-05
4.37884e-05
3.02625e-05
1.4058e-05
1.84695e-05
2.92907e-05
3.95912e-05
2.63308e-05
2.57897e-05
1.54972e-05
1.26534e-05
3.36133e-05
3.58836e-05
2.77967e-05
2.73382e-05
1.69401e-05
1.33852e-05
3.09947e-05
3.94843e-05
2.93511e-05
2.82049e-05
1.76154e-05
1.45509e-05
3.17864e-05
4.57475e-05
4.134e-05
3.08479e-05
1.88142e-05
1.53621e-05
2.6856e-05
2.75437e-05
3.80313e-05
3.51653e-05
1.25978e-05
1.72453e-05
2.745e-05
2.84562e-05
4.43888e-05
3.17464e-05
1.41455e-05
1.8705e-05
3.06455e-05
4.0467e-05
2.71524e-05
2.61981e-05
1.53323e-05
1.27407e-05
3.41756e-05
3.66542e-05
2.86172e-05
2.77004e-05
1.70044e-05
1.33068e-05
3.0841e-05
3.95824e-05
2.95026e-05
2.84122e-05
1.75286e-05
1.43027e-05
3.13098e-05
4.52412e-05
4.07973e-05
3.02866e-05
1.8771e-05
1.57432e-05
2.66017e-05
2.74911e-05
3.62892e-05
3.39942e-05
1.28088e-05
1.71296e-05
2.78454e-05
2.86883e-05
3.92612e-05
3.16885e-05
1.3352e-05
1.75066e-05
2.86574e-05
2.96203e-05
4.49648e-05
3.15762e-05
1.41894e-05
1.87698e-05
3.07646e-05
4.07017e-05
2.79134e-05
2.73425e-05
1.5492e-05
1.27551e-05
3.51643e-05
3.66136e-05
2.92126e-05
2.87261e-05
1.71899e-05
1.34334e-05
3.14243e-05
3.99317e-05
3.03282e-05
2.96915e-05
1.77596e-05
1.45006e-05
3.21001e-05
4.58444e-05
4.14799e-05
3.12523e-05
1.9045e-05
1.59206e-05
2.77718e-05
2.84914e-05
3.68157e-05
3.48631e-05
1.29591e-05
1.74075e-05
2.89356e-05
2.97215e-05
3.9843e-05
3.20544e-05
1.36839e-05
1.7995e-05
2.95182e-05
3.05699e-05
4.5e-05
3.23084e-05
1.46683e-05
1.90373e-05
3.14162e-05
4.09605e-05
2.86447e-05
2.79823e-05
1.56475e-05
1.29146e-05
3.56061e-05
3.68774e-05
2.99592e-05
2.93902e-05
1.73485e-05
1.3602e-05
3.1271e-05
3.99045e-05
3.14063e-05
2.98868e-05
1.76498e-05
1.3785e-05
3.30406e-05
4.18813e-05
3.23679e-05
3.21563e-05
1.79183e-05
1.45701e-05
3.41768e-05
4.79772e-05
4.35735e-05
3.33933e-05
1.91108e-05
1.59382e-05
2.94199e-05
3.01486e-05
3.86179e-05
3.72732e-05
1.30075e-05
1.76615e-05
3.0674e-05
3.15337e-05
4.14135e-05
3.35235e-05
1.39364e-05
1.81865e-05
3.15773e-05
3.24192e-05
4.68039e-05
3.34205e-05
1.48532e-05
1.94862e-05
3.27274e-05
4.27213e-05
3.00876e-05
2.93954e-05
1.58924e-05
1.31207e-05
3.68239e-05
3.81889e-05
3.15537e-05
3.09925e-05
1.7681e-05
1.38919e-05
3.25728e-05
4.08115e-05
3.27629e-05
3.12456e-05
1.7905e-05
1.39893e-05
3.39655e-05
4.271e-05
3.37744e-05
3.33288e-05
1.81976e-05
1.48639e-05
3.49967e-05
4.81543e-05
4.38379e-05
3.40532e-05
1.93405e-05
1.62588e-05
3.02474e-05
3.10009e-05
3.86435e-05
3.74969e-05
1.32124e-05
1.783e-05
3.12256e-05
3.21339e-05
4.05847e-05
3.26653e-05
1.39316e-05
1.81213e-05
3.16693e-05
3.30214e-05
4.23654e-05
3.38402e-05
1.42054e-05
1.84734e-05
3.40731e-05
3.40856e-05
4.81721e-05
3.54872e-05
1.52088e-05
1.97101e-05
3.46583e-05
4.41966e-05
3.18611e-05
3.14313e-05
1.62106e-05
1.32178e-05
3.90527e-05
3.9605e-05
3.31165e-05
3.26657e-05
1.78778e-05
1.39207e-05
3.37833e-05
4.2131e-05
3.44151e-05
3.31103e-05
1.82218e-05
1.42251e-05
3.54976e-05
4.40788e-05
3.55026e-05
3.52375e-05
1.83983e-05
1.50586e-05
3.66599e-05
4.95785e-05
4.5245e-05
3.59571e-05
1.96094e-05
1.63865e-05
3.19152e-05
3.2652e-05
3.99589e-05
3.94325e-05
1.32956e-05
1.81305e-05
3.30671e-05
3.38404e-05
4.18063e-05
3.42344e-05
1.43108e-05
1.84412e-05
3.33236e-05
3.46438e-05
4.31944e-05
3.50912e-05
1.44389e-05
1.86976e-05
3.5568e-05
3.53742e-05
4.86353e-05
3.65213e-05
1.52876e-05
1.99672e-05
3.61557e-05
4.4753e-05
3.32588e-05
3.30499e-05
1.65744e-05
1.33775e-05
4.06212e-05
4.04598e-05
3.44849e-05
3.41866e-05
1.81266e-05
1.41694e-05
3.52141e-05
4.28266e-05
3.55672e-05
3.43095e-05
1.84717e-05
1.44848e-05
3.60983e-05
4.42726e-05
3.63761e-05
3.62373e-05
1.86898e-05
1.533e-05
3.72077e-05
4.93216e-05
4.50576e-05
3.66116e-05
1.99122e-05
1.66657e-05
3.30049e-05
3.34171e-05
4.01892e-05
3.97321e-05
1.34935e-05
1.83941e-05
3.40789e-05
3.46936e-05
4.18216e-05
3.49523e-05
1.43768e-05
1.85636e-05
3.43031e-05
3.54068e-05
4.28802e-05
3.55675e-05
1.44249e-05
1.8856e-05
3.62639e-05
3.59969e-05
4.7832e-05
3.66456e-05
1.53938e-05
2.00509e-05
3.64026e-05
4.39751e-05
3.34004e-05
3.33597e-05
1.64858e-05
1.37193e-05
3.99854e-05
4.00885e-05
3.48453e-05
3.47894e-05
1.84495e-05
1.44125e-05
3.51069e-05
4.20308e-05
3.57543e-05
3.45955e-05
1.85508e-05
1.44115e-05
3.52814e-05
4.29965e-05
3.66562e-05
3.59532e-05
1.86484e-05
1.46687e-05
3.74029e-05
4.45063e-05
3.75869e-05
3.8115e-05
1.89494e-05
1.54868e-05
3.84532e-05
4.95328e-05
4.54312e-05