/*--------------------------------*- C++ -*----------------------------------*\
| =========                 |                                                 |
| \\      /  F ield         | OpenFOAM: The Open Source CFD Toolbox           |
|  \\    /   O peration     | Version:  v2006                                 |
|   \\  /    A nd           | Website:  www.openfoam.com                      |
|    \\/     M anipulation  |                                                 |
\*---------------------------------------------------------------------------*/
FoamFile
{
    version     2.0;
    format      ascii;
    class       volScalarField;
    location    "0.06";
    object      Co;
}
// * * * * * * * * * * * * * * * * * * * * * * * * * * * * * * * * * * * * * //

dimensions      [0 0 0 0 0 0 0];


internalField   nonuniform List<scalar> 
23013
(
0.00559843
0.00531374
0.00577231
0.00601444
0.00606057
0.00594727
0.00588646
0.00576112
0.00573253
0.00571984
0.0057
0.00569109
0.00568268
0.00567509
0.00566728
0.00565942
0.00565146
0.00564331
0.00563488
0.00562612
0.00561699
0.00560748
0.00559759
0.00558733
0.00557671
0.00556572
0.00555437
0.00554266
0.00553058
0.00551802
0.00550509
0.00549195
0.00547859
0.00546488
0.00545068
0.00543615
0.00542129
0.00540609
0.00539057
0.00537473
0.00535858
0.00534213
0.00532538
0.00530835
0.00529103
0.00527344
0.00525559
0.00523749
0.00521914
0.00520056
0.00518175
0.00516273
0.00514351
0.00512409
0.0051045
0.00508473
0.0050648
0.00504472
0.00502451
0.00500418
0.00498373
0.00496319
0.00494256
0.00492186
0.0049011
0.0048803
0.00485946
0.00483862
0.00481776
0.00479693
0.00477612
0.00475535
0.00473465
0.00471402
0.00469347
0.00467304
0.00465272
0.00463255
0.00461253
0.00459268
0.00457303
0.00455358
0.00453435
0.00451537
0.00449664
0.00447819
0.00446003
0.00444218
0.00442466
0.00440748
0.00439066
0.00437422
0.00435816
0.00434251
0.00432727
0.00431246
0.00429808
0.00428417
0.00427072
0.00425776
0.0042453
0.00423332
0.00422177
0.00421055
0.00419845
0.00418746
0.00417784
0.00417165
0.00417194
0.0042
0.00425102
0.00439367
0.00464247
0.00521799
0.00653612
0.00946447
0.0141282
0.0110876
0.00988085
0.00943915
0.00933707
0.00906039
0.00853984
0.00769148
0.00857907
0.00917843
0.00857243
0.00841908
0.00778714
0.0063348
0.00691029
0.00707572
0.00725758
0.00716675
0.00656398
0.00588079
0.00653349
0.00670824
0.00700271
0.00681505
0.00606222
0.00580615
0.00653078
0.00671427
0.00696115
0.00673887
0.00589703
0.00576488
0.0065669
0.00678882
0.00696563
0.00670621
0.00579279
0.0056876
0.00655103
0.00679145
0.00690849
0.00663305
0.00568869
0.00559848
0.00650499
0.0067659
0.00687014
0.00657317
0.00559618
0.00551677
0.00645533
0.00673509
0.00683109
0.00651545
0.00551443
0.00544308
0.00640531
0.00670216
0.00679283
0.00646435
0.00544325
0.00537194
0.00635364
0.00666633
0.00675358
0.00641197
0.00537396
0.00530792
0.00630676
0.00663178
0.00671494
0.00636151
0.00530988
0.00524775
0.00626077
0.00659653
0.0066765
0.00631298
0.00524989
0.0051915
0.00621488
0.00656186
0.00663866
0.00626055
0.00519098
0.00513798
0.0061712
0.00652508
0.00660142
0.00621762
0.00513868
0.00508174
0.00612365
0.00648571
0.00656128
0.00616697
0.00508101
0.00502929
0.00607899
0.0064482
0.00652157
0.00612056
0.00502804
0.0049779
0.00603466
0.00640895
0.00648113
0.00607297
0.00497587
0.0049293
0.00598811
0.0063709
0.00644314
0.00603027
0.00492977
0.00487722
0.00593814
0.0063281
0.00640187
0.00597938
0.00487642
0.00482554
0.00589318
0.00628452
0.00635916
0.00593273
0.00482327
0.00477436
0.00584432
0.00624312
0.0063197
0.00588902
0.00477501
0.00471727
0.0057911
0.00619524
0.00627475
0.00583964
0.00471882
0.00466134
0.00574052
0.00614998
0.00622989
0.00578988
0.00466357
0.00460774
0.00568957
0.00610571
0.00618654
0.00573364
0.00460658
0.00455206
0.00563724
0.00605762
0.00614149
0.00568672
0.00455292
0.00449047
0.00558059
0.00600458
0.00609064
0.00563248
0.0044922
0.0044317
0.00552559
0.00595462
0.00604115
0.0055774
0.00443362
0.00437276
0.00546942
0.00590301
0.00599042
0.00552171
0.00437498
0.00431499
0.00541161
0.00585194
0.00594038
0.00545979
0.00431393
0.00425434
0.0053558
0.00579559
0.00588449
0.00540158
0.00425182
0.00419561
0.00529624
0.00574276
0.00583293
0.00534717
0.00419685
0.00413356
0.00523251
0.00568503
0.00577717
0.00528215
0.00413236
0.00407222
0.00517501
0.0056267
0.00571779
0.00522136
0.00406978
0.00401294
0.0051138
0.00557177
0.00566276
0.00516444
0.00401415
0.00395189
0.00504999
0.00551328
0.00560414
0.00509765
0.00395037
0.0038935
0.00499219
0.00545689
0.00554615
0.00504042
0.00389424
0.00383563
0.00493109
0.00540112
0.00548843
0.00497863
0.00383617
0.00378032
0.00487395
0.00534678
0.0054307
0.00491959
0.00378094
0.0037278
0.0048196
0.00529421
0.00537336
0.00486451
0.00372939
0.00367933
0.0047693
0.00524569
0.00531796
0.00480568
0.00367817
0.00363656
0.00472696
0.00520202
0.00526445
0.00475651
0.00363477
0.00360181
0.00468899
0.0051677
0.00521918
0.00471475
0.00360254
0.00357503
0.00465876
0.00513986
0.00517723
0.00467748
0.00357524
0.0035589
0.00464158
0.00512287
0.00514287
0.00465051
0.00355971
0.00355672
0.00463681
0.00512067
0.00512035
0.00463221
0.00355611
0.00356746
0.00464661
0.00513075
0.00510868
0.00463212
0.00356825
0.00359451
0.00467323
0.00515776
0.00510937
0.00464396
0.00359525
0.0036406
0.0047176
0.00520462
0.00512646
0.00467437
0.00364272
0.00371063
0.00478981
0.00527184
0.00516331
0.00472448
0.00370859
0.00379183
0.00486955
0.00535551
0.00523441
0.00481025
0.00379469
0.00389736
0.00498017
0.0054568
0.00533931
0.00491707
0.00389871
0.00401187
0.00509794
0.00557233
0.00545776
0.00504041
0.00402048
0.00414314
0.00523149
0.00570284
0.00558692
0.00517268
0.004152
0.00427708
0.00537033
0.0058373
0.00572042
0.00531257
0.00428778
0.00441472
0.00551288
0.00597869
0.00585912
0.00545458
0.00442587
0.00455583
0.00566149
0.00612334
0.00599914
0.00559866
0.00456386
0.00469336
0.00580726
0.00626707
0.00613751
0.00574005
0.00469788
0.0048259
0.00594902
0.00640784
0.00627236
0.0058778
0.00482719
0.00495286
0.00608625
0.00654433
0.00640216
0.00601352
0.00495485
0.00507473
0.00621966
0.00667582
0.00652635
0.00614263
0.0050751
0.00518839
0.00634492
0.00680061
0.00664393
0.00626436
0.00518766
0.00529186
0.00645918
0.00691791
0.00675648
0.00637831
0.00529228
0.00538572
0.00656593
0.00702788
0.00688007
0.00649412
0.00538644
0.00547021
0.00666673
0.00713099
0.00699693
0.00660143
0.00546961
0.00554299
0.00675655
0.00722592
0.00710639
0.00670058
0.00554287
0.00560536
0.00683699
0.00731217
0.00720769
0.00679041
0.00560573
0.00565787
0.00690855
0.00738926
0.00729997
0.00686989
0.00565791
0.00570047
0.00697047
0.00745672
0.00738292
0.00694002
0.00570042
0.00573227
0.00702055
0.00751376
0.00745529
0.00699707
0.00573136
0.00575383
0.0070591
0.00756075
0.00751748
0.00704646
0.00575507
0.00576808
0.0070904
0.00759808
0.00756902
0.00708331
0.00576849
0.00577433
0.00710981
0.00762685
0.00761177
0.00710903
0.0057738
0.00576878
0.00711933
0.00764308
0.00764025
0.00712536
0.00576903
0.00576114
0.00712457
0.00765635
0.00766272
0.00713587
0.00576221
0.00574696
0.0071216
0.00766124
0.00767492
0.00713433
0.00574698
0.00573166
0.00711567
0.00766392
0.0076829
0.00712976
0.00573145
0.0057121
0.00710461
0.00766038
0.00768418
0.00712118
0.00571166
0.00569081
0.00709161
0.00765402
0.00768034
0.00710873
0.00569022
0.00566854
0.00707666
0.00764541
0.00767299
0.00709266
0.00566709
0.00564568
0.00706123
0.00763471
0.00766296
0.00708048
0.00564675
0.00562497
0.007043
0.00762572
0.00765299
0.00706001
0.00562543
0.00560545
0.00702696
0.00761575
0.00764276
0.00704411
0.00560612
0.00558658
0.00701137
0.00760538
0.00763153
0.00702855
0.0055877
0.00556926
0.00699867
0.00759472
0.00761925
0.00701101
0.00556722
0.00555266
0.00698503
0.00758558
0.00760843
0.00699704
0.00555238
0.00553753
0.00697089
0.00757599
0.00759793
0.00698248
0.0055369
0.00552254
0.00695699
0.00756575
0.00758715
0.00696765
0.00552158
0.00550681
0.00694178
0.00755511
0.00757579
0.00695658
0.00550888
0.00549443
0.00692965
0.00754566
0.00756511
0.0069395
0.00549424
0.00548148
0.00691658
0.00753743
0.00755606
0.00692776
0.00548207
0.00546949
0.00690519
0.00752872
0.00754667
0.00691584
0.00546992
0.00545772
0.00689405
0.00752024
0.00753748
0.00690432
0.00545813
0.00544641
0.00688335
0.00751205
0.00752875
0.00689331
0.00544685
0.00543551
0.00687308
0.0075042
0.0075203
0.00688268
0.00543592
0.0054249
0.00686308
0.00749649
0.00751211
0.00687242
0.0054253
0.00541457
0.00685338
0.00748899
0.00750426
0.00686251
0.00541496
0.00540444
0.00684386
0.00748165
0.00749664
0.00685349
0.00540524
0.00539538
0.0068368
0.00747447
0.00748887
0.00684355
0.00539369
0.00538494
0.00682806
0.00746794
0.00748191
0.00683507
0.00538478
0.00537463
0.00681794
0.00746095
0.00747458
0.00682911
0.00537681
0.0053663
0.00680954
0.00745396
0.00746721
0.00681621
0.00536614
0.00535738
0.00680078
0.0074486
0.00745394
0.00680186
0.0053525
0.0053438
0.00678662
0.00743198
0.00740274
0.00674403
0.00529922
0.00529051
0.00673996
0.00739285
0.00718479
0.00652605
0.00511269
0.00523428
0.006685
0.00733835
0.00695182
0.00627163
0.00488656
0.00550051
0.00708055
0.0077858
0.007408
0.00660568
0.00506361
0.00601005
0.00750997
0.00803959
0.00846411
0.00751891
0.00576087
0.00633456
0.00804291
0.0088114
0.00962188
0.00990968
0.00983909
0.0098575
0.00972826
0.00969389
0.00970531
0.0096893
0.00974163
0.00984889
0.0101341
0.0106634
0.0118199
0.0146387
0.02081
0.0304606
0.0237404
0.0205874
0.0184699
0.0161508
0.0138072
0.0094554
0.0085794
0.0130679
0.0158108
0.0149257
0.0129086
0.0087584
0.00714732
0.0106838
0.0126375
0.0130419
0.0113639
0.00767079
0.00693337
0.0104393
0.0122918
0.0129321
0.0110516
0.00736665
0.00713921
0.0108368
0.0127424
0.0131086
0.0112054
0.00740184
0.00732104
0.01111
0.0129623
0.0131204
0.0112
0.0073792
0.00738852
0.0112117
0.0131592
0.0131827
0.011273
0.007395
0.00740247
0.0112277
0.0131663
0.0131524
0.0112218
0.00740383
0.00741493
0.0112978
0.0132159
0.0132056
0.0112897
0.00741276
0.00741896
0.0112482
0.0131854
0.0131721
0.011242
0.0074198
0.0074271
0.0113071
0.0132222
0.0132155
0.0113048
0.00742829
0.00743778
0.01127
0.0132033
0.0131875
0.0112567
0.00743485
0.00744361
0.0113236
0.0132369
0.0132295
0.0113229
0.00744573
0.00745374
0.0112867
0.0132166
0.0132002
0.0112741
0.00745108
0.00745826
0.0113404
0.0132548
0.013248
0.0113411
0.00746114
0.00747071
0.0113063
0.0132326
0.0132145
0.0112926
0.00746776
0.00747512
0.0113614
0.0132729
0.0132654
0.0113608
0.0074771
0.0074838
0.0113189
0.0132427
0.0132277
0.0113089
0.00748304
0.00749364
0.0113833
0.0132904
0.0132804
0.0113773
0.00749312
0.00750119
0.0113356
0.0132584
0.013245
0.0113298
0.00750333
0.00751504
0.0114053
0.0133088
0.0132943
0.0113926
0.00751089
0.00751938
0.0113511
0.0132714
0.0132611
0.0113495
0.00752412
0.00753547
0.0114257
0.0133261
0.0133126
0.0114139
0.00753169
0.00753997
0.0113715
0.0132891
0.0132761
0.0113671
0.00754285
0.00755457
0.0114447
0.0133415
0.0133282
0.0114337
0.00755116
0.00755831
0.011391
0.0133067
0.0132941
0.0113871
0.00756128
0.00757209
0.0114616
0.0133553
0.0133423
0.011452
0.00756972
0.00757842
0.0114147
0.0133261
0.0133119
0.0114069
0.00757897
0.007588
0.0114751
0.0133654
0.0133564
0.0114708
0.00758878
0.00759949
0.0114363
0.0133439
0.0133262
0.0114229
0.00759727
0.00760687
0.0114925
0.0133803
0.0133736
0.0114915
0.00760955
0.00761884
0.0114544
0.0133583
0.0133388
0.0114395
0.00761564
0.00762535
0.0115104
0.0133955
0.0133914
0.0115116
0.00762888
0.00763775
0.0114727
0.0133733
0.0133511
0.0114552
0.00763328
0.00764326
0.0115274
0.0134093
0.013407
0.0115299
0.00764733
0.00765563
0.0114897
0.0133879
0.0133664
0.0114722
0.00765095
0.00766075
0.0115425
0.0134217
0.0134195
0.0115452
0.00766503
0.00767332
0.0115055
0.0134014
0.0133839
0.011491
0.00766984
0.00767859
0.011559
0.0134358
0.0134312
0.0115594
0.00768143
0.00768926
0.0115201
0.0134137
0.0133985
0.0115078
0.00768665
0.00769284
0.0115727
0.0134505
0.0134465
0.011574
0.00769522
0.00770244
0.0115333
0.0134261
0.0134123
0.0115228
0.00770032
0.00770571
0.0115889
0.0134666
0.0134629
0.0115893
0.00770688
0.00770929
0.0115379
0.0134314
0.0134231
0.0115336
0.0077099
0.00771696
0.011604
0.0134816
0.0134773
0.0115996
0.00771459
0.00771551
0.011545
0.0134416
0.0134361
0.0115451
0.00771777
0.00772103
0.0116116
0.0134926
0.01349
0.0116088
0.00771833
0.00771508
0.0115503
0.0134547
0.0134536
0.0115546
0.00771772
0.00771769
0.0116156
0.0135039
0.0135047
0.0116162
0.00771531
0.00770857
0.0115568
0.0134707
0.0134724
0.0115628
0.00770994
0.00770108
0.0116098
0.0135096
0.0135181
0.0116207
0.00770207
0.00769208
0.0115619
0.0134881
0.0134903
0.0115648
0.00768897
0.00767872
0.0116084
0.0135218
0.0135388
0.0116259
0.00767735
0.00765789
0.0115578
0.0135045
0.0135127
0.0115672
0.00765481
0.00763996
0.0116069
0.0135449
0.0135676
0.0116278
0.00763277
0.00760384
0.0115519
0.0135293
0.0135433
0.01157
0.00760072
0.00757885
0.011607
0.0135795
0.0136064
0.0116318
0.00756593
0.00753524
0.0115524
0.0135588
0.0135803
0.0115746
0.00752129
0.00748931
0.0116155
0.0136284
0.0136562
0.011644
0.00747383
0.00743961
0.011566
0.0136142
0.0136345
0.0115929
0.00742177
0.00738522
0.0116393
0.0136951
0.0137137
0.0116664
0.0073688
0.00733562
0.011604
0.0136994
0.0136986
0.0116216
0.00732295
0.00730072
0.0116955
0.0137958
0.0137763
0.0117031
0.0073
0.00730767
0.0116958
0.0138254
0.0137662
0.0116801
0.00731837
0.00735703
0.0118266
0.0139363
0.0138448
0.0117985
0.0073874
0.00745273
0.0118735
0.0139923
0.013842
0.0118233
0.00751346
0.00760277
0.0120632
0.0141336
0.0139317
0.0119945
0.00768917
0.00781603
0.0121811
0.0142163
0.0140125
0.0121639
0.00794246
0.00810428
0.0124453
0.0143944
0.0141575
0.0123734
0.00828896
0.0085
0.0126921
0.0145133
0.0144094
0.0127169
0.00870302
0.00906021
0.0130947
0.0148169
0.0146006
0.0130305
0.009259
0.00976442
0.0136107
0.0151779
0.0150991
0.0136804
0.0100702
0.0107039
0.0143747
0.015785
0.0156489
0.0143931
0.0109176
0.011791
0.015125
0.0161139
0.0142933
0.0141831
0.0116768
0.0166581
0.029977
0.0415637
0.0262291
0.0181916
0.0102529
0.00940318
0.0149481
0.0177592
0.0159731
0.0136999
0.00883556
0.00888175
0.0135786
0.0155284
0.0152316
0.0131701
0.00861802
0.00886865
0.0132503
0.0150708
0.0149445
0.0131058
0.00883731
0.00902688
0.0132208
0.0150183
0.0150358
0.0133012
0.00918206
0.00942221
0.0133337
0.0150042
0.0150702
0.0134628
0.00961373
0.00992173
0.0137407
0.0152346
0.0153919
0.0139126
0.0102411
0.0104709
0.0140481
0.0155009
0.0158215
0.0145345
0.0111398
0.0113517
0.0146691
0.0158913
0.0159308
0.0151236
0.0120419
0.0118028
0.0139651
0.0137989
0.0409085
0.0297582
0.0169111
0.0107051
0.0186435
0.02663
0.0179091
0.0154048
0.0101352
0.00935641
0.0136796
0.0154029
0.0148401
0.0135185
0.00953023
0.0096723
0.013703
0.0153425
0.0152206
0.0138136
0.0100327
0.0103257
0.0140768
0.0156044
0.0156186
0.014338
0.0108384
0.0112489
0.0146381
0.0159836
0.0160173
0.0151347
0.0119843
0.0118951
0.0141914
0.0141795
0.0395656
0.0290391
0.0166851
0.0117951
0.0193747
0.0268213
0.0183849
0.0158124
0.0109877
0.0106197
0.0146968
0.0163911
0.0160955
0.0146353
0.0108786
0.0109688
0.0145118
0.0158699
0.0160266
0.0147868
0.0114479
0.0115252
0.0146885
0.0158681
0.015832
0.0150469
0.0122241
0.0119917
0.0138912
0.013564
0.0394502
0.0289562
0.0170477
0.0121828
0.0194476
0.0267586
0.0183127
0.0161257
0.011426
0.0108779
0.0145096
0.0158748
0.0155637
0.0146674
0.0114653
0.0114924
0.01479
0.01597
0.0158554
0.0150541
0.0121286
0.0121071
0.0141826
0.0139978
0.0384668
0.0283791
0.0167856
0.0127629
0.0200334
0.0273109
0.0187084
0.0163999
0.0118612
0.0120537
0.0157109
0.0170647
0.0166391
0.0153841
0.0119989
0.0123846
0.0152967
0.0160638
0.0134653
0.0137951
0.0119876
0.016661
0.0282716
0.0383568
0.0270521
0.0200565
0.0128351
0.011734
0.0159572
0.0179441
0.0161534
0.0150426
0.0117965
0.0121173
0.0152948
0.0164019
0.0162776
0.0155831
0.0127686
0.0125711
0.0143864
0.0141354
0.0378125
0.0281941
0.0171533
0.013972
0.0209992
0.027832
0.0194657
0.0174346
0.0132633
0.0130621
0.0161486
0.017185
0.0138195
0.014392
0.012817
0.0173561
0.0285123
0.0381675
0.0281833
0.021127
0.0137195
0.0129575
0.0169767
0.0187318
0.016464
0.0155924
0.0127448
0.01296
0.0145357
0.0139314
0.0370541
0.0278453
0.0172221
0.0137757
0.0210947
0.0282641
0.0193447
0.0174869
0.0134758
0.013532
0.0163631
0.0171624
0.013606
0.0141954
0.0129675
0.0176149
0.0279967
0.0367667
0.0279765
0.0213325
0.014365
0.014159
0.0176038
0.018982
0.014066
0.0145694
0.0132152
0.0176785
0.0274074
0.035385
0.0280002
0.0221559
0.0155615
0.0138124
0.0159455
0.0159023
0.0351098
0.0269988
0.0174119
0.0148977
0.0219166
0.0286218
0.0189882
0.0176767
0.0144824
0.0135618
0.014417
0.0135105
0.0298594
0.0247226
0.0172598
0.0143627
0.0186653
0.0212854
0.0300927
0.0237058
0.0158612
0.0137103
0.0196049
0.0253494
0.0128362
0.0133776
0.0122833
0.0134879
0.0181044
0.0211138
0.0138227
0.0123581
0.0100654
0.00836125
0.00988041
0.0103058
0.00872378
0.00754161
0.00548781
0.00353685
0.00593072
0.00742445
0.0086275
0.00708428
0.00460582
0.00742619
0.00955265
0.0107769
0.0130797
0.0121741
0.0103454
0.0114432
0.0127166
0.0130224
0.0229885
0.0195696
0.0146599
0.0154441
0.0207313
0.0246086
0.0256487
0.0218744
0.0164148
0.0176098
0.0240993
0.028706
0.0258224
0.0223546
0.0170437
0.0186971
0.0258163
0.0306865
0.0193412
0.0193109
0.0165863
0.0178563
0.0253373
0.0320641
0.0344206
0.0275385
0.0187911
0.0171587
0.0229265
0.026614
0.0324027
0.0266153
0.0185119
0.0155733
0.0185073
0.0189339
0.0316249
0.0246313
0.0169756
0.0182398
0.0278254
0.035639
0.0181704
0.017831
0.0149167
0.0166143
0.0241466
0.0309461
0.0361355
0.0280163
0.0182435
0.0150397
0.0181268
0.0184869
0.0311072
0.0241332
0.0165216
0.0178166
0.0278087
0.0361242
0.0183922
0.0179569
0.0147568
0.0166334
0.0247797
0.0321689
0.0360367
0.0276689
0.0176704
0.0156883
0.0219194
0.0261278
0.0333568
0.0267095
0.0177657
0.0142393
0.0165261
0.0164226
0.0213214
0.0193207
0.014847
0.0150914
0.0232849
0.0311707
0.0365502
0.0279148
0.0174759
0.0139944
0.0171878
0.0176226
0.0304204
0.0233844
0.0156233
0.0173414
0.0276331
0.0361684
0.0178208
0.0173452
0.0141414
0.0150073
0.0231131
0.0305667
0.036275
0.0275587
0.0173032
0.0142127
0.0175384
0.0181519
0.0306635
0.0234901
0.01573
0.0174618
0.0278197
0.0364237
0.0178995
0.0173811
0.0142319
0.0151595
0.0232909
0.0307014
0.0362153
0.0277259
0.0174773
0.014186
0.0175923
0.0181961
0.0304497
0.0236712
0.0159004
0.0175241
0.0277726
0.0361564
0.0180186
0.0174256
0.0142294
0.0154227
0.0233723
0.0304523
0.0362763
0.0277628
0.0175097
0.0143033
0.0176557
0.0183025
0.0304876
0.0234555
0.0155268
0.0174216
0.0278084
0.0362077
0.0180805
0.0174518
0.0142078
0.015504
0.0233501
0.030372
0.0361111
0.0278191
0.0175247
0.0143802
0.0177144
0.018385
0.0305216
0.0234972
0.0157029
0.0175789
0.0277105
0.0360733
0.0182009
0.0176206
0.0144019
0.0156892
0.0233334
0.0303158
0.0360747
0.0277731
0.0177086
0.0145522
0.0177836
0.0184614
0.0306058
0.0234965
0.0157018
0.0177433
0.0279297
0.0361193
0.0183383
0.0177881
0.0145252
0.0158892
0.0235925
0.0305796
0.0361828
0.0278868
0.0177445
0.014632
0.0179096
0.0185626
0.0308034
0.0235601
0.0157635
0.0177408
0.0278601
0.0362609
0.0184722
0.0178872
0.0146436
0.0158281
0.0236667
0.030693
0.0363425
0.0280248
0.0178475
0.0146265
0.0180058
0.0186866
0.0309159
0.0238603
0.0159716
0.017736
0.0279318
0.0363355
0.0185196
0.0178729
0.0145828
0.0160765
0.0239178
0.0309101
0.0366752
0.0282981
0.0181023
0.0148476
0.0181932
0.0188251
0.0313047
0.0239625
0.0160418
0.017879
0.0280927
0.0365991
0.0186665
0.0180626
0.0147834
0.0159491
0.0238046
0.0310214
0.0365717
0.0280821
0.0179136
0.014825
0.0182039
0.0188585
0.0314249
0.0240867
0.0160629
0.0179642
0.0282819
0.0368486
0.018749
0.0181211
0.0147529
0.0160859
0.0242695
0.0316644
0.0370973
0.0284665
0.0180245
0.0148082
0.0183058
0.0190089
0.0317369
0.0244331
0.0164075
0.0179611
0.0283277
0.0370096
0.018888
0.0182606
0.01483
0.0166611
0.0248235
0.0321156
0.0376183
0.028928
0.0183233
0.0151618
0.018735
0.0193464
0.0336161
0.0256814
0.0170077
0.0181952
0.0287598
0.0373266
0.0278755
0.0232793
0.0164351
0.0183836
0.0277286
0.0345888
0.0200718
0.0192695
0.0155627
0.0168113
0.0250784
0.0325391
0.0377552
0.0292199
0.0188167
0.0156242
0.0190336
0.0197156
0.0331906
0.0254205
0.0170367
0.018992
0.029476
0.0380896
0.020043
0.0193523
0.0157551
0.0167257
0.0259895
0.0344912
0.0379103
0.0290492
0.0183828
0.0168016
0.0236626
0.0283382
0.0350389
0.0281396
0.0186485
0.0159701
0.019752
0.0205894
0.0333429
0.0255522
0.0171234
0.0189867
0.0296448
0.0382495
0.0200479
0.0193815
0.0159063
0.0172559
0.0257821
0.0336899
0.0387786
0.0299464
0.0192302
0.0159881
0.0195373
0.0201841
0.0353417
0.0265341
0.0170039
0.0186782
0.0295325
0.0384503
0.0290966
0.0243237
0.0172654
0.0191658
0.0286982
0.035641
0.0210637
0.0202133
0.0163855
0.0176859
0.0263492
0.03429
0.0392693
0.0304427
0.0196537
0.0164676
0.0201277
0.0209222
0.0362131
0.0271971
0.0175268
0.0191726
0.0301488
0.0391874
0.0300003
0.0250215
0.0177188
0.0195385
0.0292144
0.0362064
0.0215963
0.0209391
0.0171051
0.0188111
0.0279502
0.0363219
0.0394514
0.0305187
0.0198115
0.0176833
0.0249509
0.0298394
0.0366759
0.0298698
0.0199976
0.017062
0.0208573
0.0216675
0.0355455
0.0274596
0.0185155
0.0201451
0.0311655
0.0399592
0.0216831
0.0208729
0.0171404
0.0181365
0.0281174
0.0370959
0.0400017
0.0309755
0.0197408
0.0183607
0.0257917
0.0306783
0.0369625
0.0300934
0.0202715
0.0175179
0.021431
0.0222877
0.0373713
0.0287082
0.0193144
0.0202287
0.0310577
0.0400892
0.0307257
0.025777
0.0184103
0.0207095
0.0306146
0.0375436
0.0225432
0.0216573
0.0177451
0.0195118
0.0285275
0.036714
0.0412175
0.0322494
0.0211585
0.0177411
0.0215035
0.0222255
0.038528
0.0290807
0.0188058
0.0203553
0.031944
0.0412011
0.0321166
0.0268877
0.0190283
0.0207692
0.0308632
0.0379983
0.0227657
0.0219643
0.0179221
0.0190009
0.0292441
0.0388236
0.0411558
0.0316203
0.020288
0.018841
0.0265547
0.0318517
0.0383513
0.0312354
0.0210152
0.0183247
0.0224529
0.0231247
0.0392556
0.0303166
0.0205643
0.0212773
0.0323252
0.0415417
0.0327706
0.0274247
0.0195709
0.0214939
0.0317717
0.0388876
0.0234381
0.022635
0.0186229
0.0195371
0.0302873
0.0402226
0.0420993
0.0325793
0.0206528
0.0199068
0.0283785
0.034107
0.0386421
0.031543
0.0213279
0.0199787
0.027903
0.0329685
0.0387227
0.03169
0.021643
0.0188677
0.0231578
0.0242133
0.0401372
0.0308676
0.0207214
0.0218564
0.033318
0.0426643
0.0334764
0.0280951
0.02029
0.0222987
0.0325845
0.0400135
0.0245312
0.0235761
0.0193255
0.0215286
0.0316629
0.0409035
0.0432035
0.0336722
0.0221918
0.020631
0.0285536
0.0339963
0.040367
0.0330105
0.0225706
0.0196526
0.0237407
0.0246165
0.0417573
0.0316412
0.0208794
0.0222855
0.0341007
0.0435531
0.0341855
0.0287477
0.0206709
0.0224613
0.0329653
0.0404033
0.02503
0.0242002
0.0198515
0.0222591
0.0325144
0.042111
0.0438562
0.0346425
0.0231899
0.0214472
0.0302131
0.0362206
0.0405498
0.033105
0.0228095
0.0214481
0.0297643
0.035207
0.0408337
0.0336924
0.0232398
0.0204239
0.024703
0.0257377
0.0432375
0.0329168
0.0217179
0.0229721
0.0350138
0.0448388
0.0370367
0.0308143
0.021894
0.0231627
0.0337374
0.0413794
0.0357047
0.030048
0.0217692
0.0232737
0.0337309
0.0411364
0.0262638
0.025093
0.0205755
0.0226238
0.0333266
0.043233
0.045549
0.0356062
0.0237752
0.0220638
0.0303275
0.0358528
0.042377
0.0348266
0.0240681
0.02096
0.0253874
0.0262186
0.0440367
0.0342864
0.0237591
0.0242143
0.0360347
0.0458269
0.0381085
0.0318241
0.0226607
0.0239318
0.034673
0.0422678
0.0372094
0.0312755
0.0226892
0.0243928
0.0349962
0.0424052
0.0268691
0.0258542
0.0212885
0.0227004
0.0342305
0.0450002
0.0463605
0.0361326
0.0237571
0.0228717
0.0320823
0.0384275
0.0429362
0.0351954
0.0243258
0.0230335
0.0316069
0.0371094
0.0430703
0.0356399
0.0249179
0.0217783
0.0264422
0.0274433
0.0455154
0.0357676
0.0246684
0.0250557
0.0372483
0.0471161
0.039367
0.0328726
0.0236169
0.0249014
0.0358484
0.043536
0.0384892
0.0324812
0.0236065
0.0253221
0.0361648
0.0437306
0.0278567
0.0267236
0.0221044
0.0236861
0.0358018
0.0467989
0.0480042
0.03743
0.0245828
0.023668
0.0331855
0.0400515
0.0441953
0.0361226
0.0250283
0.0235402
0.0325572
0.0385269
0.0442534
0.0364916
0.0254069
0.0224497
0.0272461
0.0282609
0.0473068
0.0367936
0.025438
0.0261406
0.0384198
0.0483821
0.0408729
0.034132
0.0243571
0.025656
0.036994
0.0449092
0.0411332
0.0344024
0.0246548
0.0260209
0.036981
0.0448872
0.0398744
0.0336602
0.0246483
0.0267274
0.0377405
0.045344
0.0294471
0.0282239
0.0233969
0.0252776
0.0373672
0.0488398
0.049732
0.0389564
0.0261495
0.0249879
0.0345905
0.0415144
0.0456995
0.0374347
0.0262125
0.0249988
0.0341167
0.040369
0.0459319
0.0379452
0.0266115
0.0233204
0.0282385
0.0293037
0.0490301
0.0383723
0.0264994
0.0271235
0.0399561
0.0505537
0.0424078
0.0354189
0.0252962
0.0265685
0.0382024
0.046511
0.0428108
0.0358215
0.0257725
0.0270104
0.0381974
0.0462561
0.0417883
0.0350913
0.0255916
0.0276094
0.0389471
0.0470277
0.0303723
0.0292142
0.024251
0.0261417
0.0387802
0.0507295
0.0515915
0.0403359
0.0269876
0.0260033
0.0362637
0.0434317
0.0474105
0.0391464
0.0273489
0.0261973
0.0362776
0.0433641
0.0471139
0.0390201
0.027593
0.0259673
0.0355338
0.0421848
0.0477776
0.0395052
0.0278973
0.0243904
0.0294897
0.0307971
0.0511224
0.0400781
0.027717
0.0283764
0.0416166
0.0523049
0.0443449
0.0368977
0.0266619
0.028476
0.0402224
0.0483906
0.0444545
0.0371154
0.0267836
0.0286103
0.0402231
0.0481767
0.043717
0.0368021
0.0269559
0.0290877
0.0407363
0.0490516
0.0317913
0.0304981
0.0255579
0.0276652
0.040874
0.0532539
0.0538748
0.0423744
0.0284837
0.0273671
0.0379366
0.0453643
0.0493233
0.0407059
0.0285312
0.0274304
0.0379844
0.0453794
0.0491854
0.0408148
0.028977
0.0272934
0.0372834
0.0440956
0.0497543
0.0416915
0.0295536
0.0257674
0.0308937
0.032225
0.053966
0.0415506
0.0281986
0.0293173
0.0432833
0.0547494
0.0464594
0.0388546
0.0282168
0.0293518
0.0415731
0.0502955
0.0465993
0.0390454
0.0282542
0.0295862
0.0415262
0.0501122
0.0457272
0.0385158
0.0282401
0.0301805
0.0423385
0.0507648
0.0330654
0.0318751
0.0266502
0.0287426
0.0424878
0.0553928
0.0563778
0.0442397
0.0296401
0.0285014
0.0396554
0.0474315
0.0513829
0.0425249
0.0298151
0.0289651
0.0399187
0.0474493
0.0513259
0.0425406
0.0302501
0.0285945
0.0388321
0.0462051
0.0518732
0.0430772
0.0307908
0.027024
0.0323882
0.0335422
0.0559687
0.043766
0.0306871
0.0312947
0.0452709
0.0569611
0.0483186
0.0404739
0.0291635
0.0304363
0.04327
0.0523281
0.0487741
0.0409108
0.0296497
0.0309268
0.0432776
0.0519806
0.0490368
0.0407985
0.0295379
0.0312583
0.0437329
0.0528087
0.0475746
0.0400599
0.0295774
0.0319759
0.0445843
0.0533473
0.0350824
0.0337571
0.0282319
0.0303457
0.0448942
0.0584794
0.0587655
0.0464993
0.0311813
0.0301501
0.0417288
0.0501355
0.0537729
0.0442818
0.0313979
0.0304437
0.042123
0.0501479
0.0531631
0.0446265
0.0319538
0.0305442
0.0421565
0.0503552
0.054096
0.0449478
0.0321514
0.030363
0.041084
0.0486001
0.0548479
0.0458421
0.0327329
0.0286972
0.0341658
0.0356199
0.0595932
0.0459092
0.0312566
0.0323269
0.0475157
0.0601677
0.051221
0.0429994
0.0311606
0.0324397
0.0457571
0.0552935
0.0514367
0.0432647
0.0313914
0.0329036
0.0459929
0.0548615
0.0518545
0.0434988
0.0315811
0.0332276
0.0462116
0.05553
0.0503716
0.0425477
0.0315981
0.0338885
0.0469689
0.0560554
0.0369425
0.0355833
0.029907
0.0336948
0.0478867
0.0610076
0.0614323
0.049269
0.0343111
0.0325026
0.0443738
0.0527168
0.0566821
0.0469532
0.0335471
0.032445
0.0442951
0.0529141
0.0560611
0.0468797
0.0338859
0.0324742
0.0443707
0.0528714
0.0567579
0.0473905
0.034143
0.0322361
0.0434394
0.0513195
0.057769
0.048346
0.0348558
0.0305338
0.0362343
0.0376237
0.0624458
0.0490648
0.0344645
0.0348287
0.0502264
0.0632388
0.0540157
0.0451041
0.0329199
0.0344298
0.0483461
0.0580989
0.0544421
0.0458364
0.0335252
0.0349269
0.0483109
0.0579202
0.0546672
0.0459056
0.0335437
0.0353341
0.0488707
0.0586042
0.053221
0.0449886
0.0334207
0.0359054
0.0497051
0.0591099
0.0389375
0.0376211
0.0317341
0.034324
0.0498357
0.0646553
0.065265
0.0514437
0.0352524
0.0341184
0.0467445
0.0558498
0.0596412
0.0497332
0.0356448
0.0344873
0.0471935
0.0557766
0.0591975
0.0495231
0.0357646
0.0343386
0.0467829
0.0557003
0.0599621
0.0499054
0.0361229
0.0340778
0.0458881
0.0543308
0.0608358
0.0511194
0.0367539
0.0324462
0.0382889
0.0396236
0.066385
0.0520909
0.0369752
0.0374003
0.0535437
0.0671107
0.0571503
0.0481622
0.0351369
0.0365108
0.051366
0.0615664
0.0574873
0.0482556
0.0355331
0.0370809
0.051035
0.0609453
0.0577878
0.0485225
0.0356069
0.0374173
0.0515784
0.0617635
0.0559334
0.047508
0.0354858
0.0380063
0.052545
0.0625195
0.0410639
0.0395466
0.0335756
0.0362797
0.0530481
0.0687051
0.0687892
0.0545704
0.0371672
0.0362113
0.0495186
0.0586101
0.0627721
0.0523566
0.0374236
0.0363643
0.0498039
0.0589696
0.0626053
0.0523622
0.0377744
0.0365161
0.0499229
0.059482
0.0627691
0.0527766
0.0383321
0.0368428
0.0500529
0.0597022
0.0639645
0.0533658
0.0388945
0.0364326
0.0487351
0.0574765
0.0646469
0.0542056
0.0392501
0.0345293
0.0407251
0.0421447
0.0703974
0.0547202
0.0381489
0.0391871
0.0565139
0.0711235
0.0603944
0.0508181
0.0373936
0.0390723
0.0540855
0.0650322
0.0608282
0.0515275
0.0378641
0.0393082
0.0541385
0.0647205
0.0614386
0.0517227
0.0381601
0.0400943
0.0547051
0.0652002
0.0597784
0.0506411
0.0377978
0.0404903
0.0556833
0.0664171
0.0434415
0.0420055
0.0356404
0.0388125
0.0563269
0.0725595
0.0731667
0.0581017
0.0397213
0.0388215
0.0523866
0.0624266
0.0671174
0.0558534
0.0404126
0.0390344
0.0528926
0.0624537
0.0665652
0.0558847
0.0406536
0.0389436
0.0528727
0.0628906
0.0674662
0.0565019
0.0410456
0.0388712
0.0518098
0.0610067
0.0682359
0.0575501
0.0420057
0.0368124
0.0430943
0.0443819
0.0750128
0.0578826
0.0401201
0.0414547
0.0600846
0.0755052
0.0644015
0.0540351
0.039595
0.0412454
0.057719
0.0693513
0.0648892
0.0546073
0.0402472
0.0418665
0.0574983
0.0685983
0.0648286
0.0545509
0.0402652
0.0424054
0.057959
0.0691058
0.0633156
0.0535676
0.0402352
0.0431204
0.0589441
0.0702912
0.0458076
0.0444917
0.0380102
0.041127
0.0595657
0.0771119
0.0777645
0.0616918
0.0422145
0.0409613
0.0557361
0.0661123
0.0711964
0.0592293
0.0425363
0.0412598
0.0557161
0.0662019
0.0706083
0.0591792
0.0431762
0.041839
0.056381
0.0668326
0.0713644
0.0597843
0.0438027