/*--------------------------------*- C++ -*----------------------------------*\
| =========                 |                                                 |
| \\      /  F ield         | OpenFOAM: The Open Source CFD Toolbox           |
|  \\    /   O peration     | Version:  v2006                                 |
|   \\  /    A nd           | Website:  www.openfoam.com                      |
|    \\/     M anipulation  |                                                 |
\*---------------------------------------------------------------------------*/
FoamFile
{
    version     2.0;
    format      ascii;
    class       volScalarField;
    location    "0.06";
    object      omega;
}
// * * * * * * * * * * * * * * * * * * * * * * * * * * * * * * * * * * * * * //

dimensions      [0 0 -1 0 0 0 0];


internalField   nonuniform List<scalar> 
23013
(
0.00641181
0.00641192
0.00641109
0.00641082
0.00641034
0.00641045
0.00641013
0.00640973
0.00640852
0.0064059
0.00640154
0.00639561
0.00638858
0.00638094
0.00637299
0.00636486
0.00635653
0.00634796
0.00633906
0.00632979
0.00632011
0.00631
0.00629946
0.00628848
0.00627708
0.00626527
0.00625303
0.00624039
0.00622734
0.00621387
0.0062
0.00618572
0.00617104
0.00615597
0.0061405
0.00612464
0.00610839
0.00609177
0.00607478
0.00605742
0.0060397
0.00602163
0.00600322
0.00598448
0.00596541
0.00594602
0.00592633
0.00590634
0.00588606
0.00586551
0.00584469
0.00582361
0.00580229
0.00578074
0.00575897
0.005737
0.00571483
0.00569247
0.00566995
0.00564727
0.00562445
0.00560151
0.00557844
0.00555528
0.00553204
0.00550872
0.00548535
0.00546195
0.00543852
0.00541508
0.00539166
0.00536826
0.00534491
0.00532162
0.0052984
0.00527529
0.00525228
0.00522941
0.0052067
0.00518415
0.0051618
0.00513965
0.00511773
0.00509606
0.00507466
0.00505355
0.00503277
0.00501238
0.00499248
0.00497333
0.00495549
0.00494029
0.00493093
0.00493558
0.00497458
0.00508117
0.00532988
0.00587543
0.00703562
0.00942823
0.014229
0.0236464
0.0419865
0.0770789
0.143137
0.266504
0.489555
0.838178
1.1036
1.62783
2.10364
2.66499
4.4552
6.64243
11.5151
14.7639
13.1185
32.6907
97.8454
385.458
3206.76
17172.8
218186
218249
34442
8047.41
15001
49911.4
218327
218441
50794.3
16549.1
20343.2
55019
212874
211565
54224.2
20642.8
22569.6
55778.7
207684
205658
54042.5
22340.5
23250.3
54982.6
201754
199437
52601.2
22788.6
23417.3
53759.8
196270
194798
51959.4
22982.2
23489.7
53224.9
192384
191403
51575.4
23061.6
23565.8
52919.9
189418
188733
51395.5
23153.9
23661.2
52783.6
187017
186484
51337.5
23263
23771.2
52744.7
184965
184509
51347.5
23381.9
23886.8
52743.6
183138
182741
51361.3
23493.6
23986.9
52735.5
181466
181109
51366.5
23588.3
24071.3
52721.6
179911
179583
51361.7
23666.7
24141.9
52706.6
178438
178139
51355.6
23733
24201.1
52687.7
177030
176751
51356.2
23795.3
24258.9
52662
175704
175437
51321.1
23843.7
24298.2
52611.2
174409
174166
51283.5
23880.9
24329.9
52554.3
173170
172939
51234
23911.6
24357.8
52507.2
171960
171738
51202.5
23943.3
24388.2
52465.9
170817
170637
51160.5
23969.2
24409.2
52410.3
169894
169790
51127.1
23992.5
24436.7
52407.2
169117
169022
51160
24030.5
24478.9
52442.9
168383
168288
51204.7
24073.2
24522
52480.8
167655
167558
51247.7
24117
24568.3
52526.5
166924
166823
51300.6
24165.2
24620.5
52585.5
166177
166080
51376.8
24226.4
24681.9
52639.3
165451
165348
51420.8
24282
24733.7
52670.4
164710
164607
51457.9
24333.6
24784.7
52697.1
163971
163863
51488.3
24384.8
24836.8
52731
163225
163118
51520.7
24435
24883.9
52734.8
162479
162373
51522.8
24480.6
24928.3
52733.7
161717
161607
51534.5
24530.4
24977.3
52737.3
160964
160857
51527.4
24571.9
25012.1
52701.4
160210
160103
51490.2
24603.9
25040.8
52655.7
159444
159338
51454.3
24636.3
25069.2
52605.7
158694
158597
51391
24654.4
25078.9
52514.5
157947
157851
51304.4
24664.9
25083.2
52412.7
157214
157131
51197.8
24661.9
25071
52285.4
156506
156436
51065.8
24643.5
25041.3
52133.8
155830
155780
50908.5
24605
24987.9
51946.2
155205
155177
50703.8
24537.3
24904.7
51707.6
154631
154638
50458.8
24442.4
24794
51435.3
154140
154173
50181.9
24321.2
24652.7
51131
153746
153820
49864.7
24157.3
24467.5
50771.1
153474
153590
49488.6
23940.8
24239.2
50365.1
153343
153505
49073
23687.6
23975.8
49922.6
153339
153589
48626.8
23397.9
23672.3
49443
153495
153898
48137.6
23065.3
23329
48936.3
153862
154417
47628.7
22695.4
22950.8
48418.6
154457
155133
47123.9
22311.1
22570.6
47921.6
155246
156051
46656.6
21930
22187.2
47492.2
156242
157140
46255.6
21560.4
21824.3
47151.5
157403
158384
45951.3
21221.5
21498.7
46911
158696
159724
45751.1
20937.8
21229.3
46777.5
160085
161146
45656.5
20706
21015.5
46750.5
161532
162609
45669.8
20534.8
20862.4
46830.3
163013
164083
45786.9
20413.5
20768
47011
164491
165542
46000.5
20344.4
20732.7
47284.7
165947
166968
46302
20335
20757.1
47656.6
167365
168349
46697
20382.1
20835.3
48114
168731
169665
47167.6
20479.5
20961.5
48635.6
170026
170894
47693.2
20620.6
21133.1
49210
171256
172228
48277.6
20801.3
21347.2
49850.1
172692
173800
48936.2
21018.4
21594.3
50569.8
174287
175402
49672.8
21269
21878.5
51373.2
175873
176936
50474.5
21555.3
22196.9
52232.7
177371
178351
51316.5
21874.3
22544.6
53111.4
178738
179621
52178
22221.7
22918
54000.9
179951
180723
53049.2
22593.8
23312.6
54887.5
180994
181658
53915.7
22985.8
23724
55758.2
181863
182417
54767.3
23394
24144.7
56600.2
182558
182994
55590.2
23810
24569.5
57417.1
183070
183395
56381
24229.2
24990.6
58153.5
183415
183638
57094.4
24640.6
25397.6
58837.4
183610
183734
57758.1
25040
25784.4
59453.3
183674
183734
58335.3
25415.6
26146.1
59993
183612
183646
58846.9
25768.9
26484.8
60465
183456
183476
59286
26097.4
26793.6
60864.2
183244
183255
59657.4
26396.2
27072.1
61198.4
182985
182993
59967.1
26665.4
27322.9
61466.9
182705
182707
60217.3
26908.5
27540.1
61691.3
182411
182414
60425
27117.6
27738.2
61874
182104
182110
60596
27306.7
27918.2
62024.3
181800
181812
60735.7
27476.4
28078.6
62149.4
181510
181528
60847.1
27623.2
28215.5
62239.3
181213
181235
60932.8
27754.4
28339.6
62313.8
180926
180953
61006.1
27872.1
28451.8
62379.9
180650
180682
61071.3
27979.6
28553.5
62437
180381
180417
61130.6
28078
28644.7
62481.4
180124
180157
61172.1
28163.7
28727.9
62519.9
179866
179904
61213.6
28245
28805.1
62555.4
179615
179655
61248.5
28318.3
28874.3
62584.1
179369
179411
61278.6
28385
28938.7
62610.9
179127
179170
61307.9
28448.1
28999.6
62636.4
178888
178934
61334.7
28507
29055.9
62659.1
178654
178701
61359.1
28561.4
29108.4
62680.8
178424
178472
61383.6
28613.2
29158.9
62703.3
178196
178246
61408.6
28662.8
29207.9
62732
177976
178028
61434.5
28707.5
29251.4
62747
177745
177798
61450.5
28752.5
29295.1
62763.7
177521
177578
61478.1
28797.8
29337.9
62785.6
177310
177363
61498.5
28837.8
29379.5
62804.1
177096
177153
61514.1
28873.3
29461
62902
176927
176893
61644.6
28895.2
29477.7
62701.6
176177
174640
60700.2
28467.1
29052.3
61335.7
172342
166187
58526
27156
25149.9
54991.3
159524
154064
54929.9
25160.2
24020.9
52291.6
151250
148047
51986.7
23654.5
9543.01
5234.87
3673.35
3153.05
2383.33
2105.68
1926.79
1876.43
1903.75
1989.49
2196.21
2455.45
3147.77
3552.05
4538.04
5935.4
6434.64
10330.6
21714
54563.2
122926
360883
378966
125458
56186.1
61230.7
135409
398532
413958
138425
62890.3
62816.2
138946
418073
427377
143557
65405.8
64778.9
143273
433458
438109
146219
66497.4
66189.8
145799
441193
444952
148209
67500.6
66793.3
147126
445286
444789
147720
67299.6
66529.6
147227
445148
445201
148436
67547
66759.9
147500
445255
445264
147896
67460.5
66358.5
147177
445374
445402
148394
67423.9
66644.8
147454
445457
445482
147855
67357
66269.2
147158
445571
445593
148411
67346.2
66577.4
147474
445683
445707
147870
67298.8
66207
147179
445777
445789
148416
67274.9
66497.2
147483
445901
445926
147880
67207
66105.2
147157
445983
446010
148395
67175.9
66397.8
147455
446116
446137
147856
67109.8
66009.9
147128
446197
446225
148370
67089.6
66319.8
147444
446317
446337
147848
67033.6
65932.7
147137
446425
446468
148375
67009.3
66230.5
147435
446560
446583
147836
66941.2
65836
147119
446682
446727
148349
66911.8
66132.4
147401
446817
446835
147798
66849.4
65753.4
147086
446943
446991
148321
66836.5
66055.9
147374
447068
447081
147771
66768.3
65664.6
147057
447197
447241
148285
66740
65950.2
147327
447311
447337
147723
66660.7
65554.7
146988
447445
447480
148222
66633.5
65853.2
147278
447557
447590
147676
66574.7
65474.7
146964
447685
447722
148205
66556.8
65775.5
147249
447827
447858
147644
66498.7
65394.6
146923
447946
447982
148146
66473.9
65693.8
147191
448087
448116
147587
66418.1
65315.3
146864
448201
448237
148100
66398.5
65621.1
147147
448335
448363
147543
66348.4
65249.8
146825
448453
448491
148068
66337.2
65559.1
147111
448588
448616
147507
66286.9
65188.4
146791
448704
448737
148037
66277.7
65505.2
147082
448838
448864
147480
66241
65148.6
146768
448942
448969
148017
66244.2
65479.4
147075
449071
449091
147477
66218.7
65127.2
146766
449148
449173
148033
66226.4
65460.6
147096
449268
449281
147501
66201.4
65112.4
146789
449328
449347
148067
66219.8
65464.2
147151
449417
449415
147566
66216.1
65140.6
146887
449473
449485
148197
66264.5
65516.1
147296
449541
449514
147717
66277
65212.9
147066
449563
449553
148424
66349.3
65610
147554
449575
449534
147996
66388.4
65332.3
147368
449558
449511
148774
66482.9
65753.7
147930
449504
449425
148382
66550.6
65504.8
147805
449418
449301
149317
66669.9
65947.9
148537
449288
449146
149027
66766.5
65736.1
148532
449101
448910
150217
66935.2
66235.8
149548
448869
448626
150105
67082.2
66056.7
149705
448513
448223
151588
67281.5
66572.7
150998
448122
447740
151688
67421.4
66364.9
151369
447536
447120
153446
67594.8
66858.7
152929
446936
446365
153849
67700.7
66605
153601
446085
445521
155894
67838
67052.8
155443
445246
444547
156520
67868.7
66689.8
156286
444235
443614
158607
67871.1
66972.8
158130
443336
442829
159039
67695.3
66362.8
158681
442649
442442
160657
67434.6
66390.4
159952
442419
442410
160555
67008.8
65402.5
159898
442728
442998
161214
66322.7
65103.4
160094
443639
444259
160389
65623.9
63745.7
158739
445297
446354
159465
64581.6
63149.9
157631
447851
449431
157545
63569.4
61615.9
154729
451503
453729
154856
62437
61181.5
150931
460166
462857
151520
61470.8
60108.9
145590
465579
467794
147129
61210.8
60643.2
140352
466175
462397
140715
62012
62163.5
135720
455049
440262
135551
63699.4
63497
126453
402299
595446
121915
63483
147908
360434
1.00315e+06
731171
195923
74016.2
79971.4
207666
641064
598663
188863
71814.5
72263.4
186159
587349
576274
182821
68161.7
67474.2
173373
560256
545190
170877
64820.7
63206.8
162384
530455
512115
157900
60617.7
60010.9
148988
494559
482963
145785
58426.3
57263.9
136818
467036
455711
134686
56963.6
56440.2
129417
443184
423531
125308
56623
56786.6
120260
396906
366933
113246
56901
58050.6
111869
550364
934696
334776
133684
64636.4
172780
670646
605147
181671
69934.1
66806.3
174261
597905
586440
175766
68494.4
65266.5
161022
569778
548444
160844
65905.8
63272.4
146081
521759
496068
146280
64075.9
62588
131228
457255
401086
124994
62870.2
61961.8
117155
581625
973608
347242
137589
65152.1
165301
692882
583804
176037
68828.8
60410.8
145748
531591
496604
146769
60835.5
57450.3
128135
464181
434756
128537
57900.8
56737.4
117908
398385
362812
111069
57053.5
58395.1
109073
536962
896409
321289
126946
63099.2
154510
639000
565192
160747
66573.5
63370.1
146294
538483
503899
146848
65436.8
64106.8
131610
461725
412332
126343
64513.6
63899
118739
599139
977227
344637
136619
66693.8
163586
673263
548884
165666
68894.7
60982.4
129708
483411
430633
130654
61440.7
60199.3
112675
386657
575548
116618
62529.3
133215
336801
953422
683494
154309
66758.3
71311.8
168024
584016
530031
149197
67773.1
66773.7
139838
471119
406165
121702
64668.3
65735.6
119229
577798
907649
328799
134959
69144
150738
617701
489840
149933
69978.8
64101.5
119596
412138
599176
123009
67498.3
139963
340945
964428
655781
151258
71838.4
74616
160585
537469
458129
135538
69600.2
71108
125980
645372
990173
345874
145383
72531.7
162430
642216
496364
152449
71974.2
64599.6
117050
420328
595160
123867
69220
140285
326355
893747
591992
143320
73012.6
73460.4
144729
452433
627971
125245
71719.2
142344
332924
888345
556753
133742
71790.7
74853.9
141169
722694
1.0289e+06
366012
153720
70849.8
144899
625083
448378
144811
67062.2
62927.2
114272
595889
735467
288249
128505
69778.2
129230
876005
1.00626e+06
334708
142831
56158.7
133571
544604
616185
114791
51923.5
93825
204611
554442
549978
85329.8
27076.1
45905.1
120810
639716
758252
140466
53620.5
55200.3
144837
784013
717010
135677
52750.6
46901.1
119775
631989
532446
72501.7
30014.4
100048
231167
584702
718881
113550
54259.1
127597
263495
691027
725100
119829
67170.2
131090
278683
653958
589666
128936
69709.7
74588.7
149520
516887
917791
377185
165035
92568.3
121089
802170
723551
298705
144858
76811.9
134979
582035
482419
147824
79038.2
153620
333369
851732
663999
140596
84004.7
82908.5
147079
527201
889182
344268
154001
83969.5
140349
687957
550084
147305
83334.7
156222
356497
922843
697407
144724
85658.5
84858.1
150575
564218
1.00357e+06
388716
166118
93902.1
116089
798549
698135
285144
139188
76072.6
118341
526587
411126
140626
78684.6
82560.6
159647
591723
1.01212e+06
373434
161531
85775.4
146750
702085
538855
150369
83610.1
154154
347959
914388
675233
139357
84051
82551.8
144210
534141
906002
335289
150913
81863.6
136304
655869
520668
142989
81186.8
149941
337268
893271
643119
135045
82001.1
80663.7
141288
510368
880588
327837
149189
80802.4
133464
634480
498965
138639
80220.8
147636
331101
857869
626986
132903
80746
79654.6
138355
495651
848517
320155
145824
79317.7
129188
609904
484637
135866
78874.8
144299
315163
828021
598748
128708
78819.3
77921.5
133209
473701
803311
308127
141126
77090.5
125640
585985
469254
131715
76786
140841
310402
808729
587237
127309
77128.9
76321
132677
467767
798459
307191
139669
76097.5
125887
577735
463432
132111
75671
139671
304621
795867
572315
126313
76491.4
75639.5
131347
456278
781190
305844
139242
75742.2
125206
565567
455966
133962
75535.1
139722
303951
792095
577770
127217
76408.6
75767.5
133620
465614
798628
305695
139930
76110.1
127249
571364
456658
133884
75926.2
141065
307698
783520
574024
129267
76905.4
76321.4
134429
457957
793664
310654
141730
76854.2
128236
573730
460431
136711
76631.2
142807
310208
795671
583980
130881
77907.3
77375.1
139083
473059
811321
314548
143930
77996.9
131369
583214
472519
140816
78016.5
146337
318069
822255
605690
134749
79720.2
79084.1
141927
486125
833302
324152
148781
80245.7
135614
608574
490142
145359
80278.2
152500
336079
856371
628830
141284
82787.2
82181.5
148345
502413
879976
344860
155936
83999.6
142974
649119
525848
152929
83647.9
166501
378928
953539
748279
122117
93629.2
142328
286625
673919
520656
126863
76945.5
78555.5
141557
438129
783197
311267
145894
80299.8
132811
584371
474663
143055
80361.3
152104
329283
839433
623336
139394
83098.3
83741.9
152962
508821
930488
365758
167394
94158
121070
749482
675111
288409
142945
78264.1
127431
515782
439981
143388
80310.9
148355
313332
789232
596150
135762
82572.5
82701.4
146718
489972
857257
335817
155144
84872.4
143195
638892
523433
155316
84851.3
170484
371648
948978
764093
122916
96239.2
146817
296266
695258
527604
131707
80364.4
82533.6
148500
448641
821350
326695
154104
85436.9
140364
619528
514921
154419
86361.7
172595
374940
953493
776032
123912
98139.9
149531
297790
704037
548548
136387
82871.9
85106.8
155476
479753
916376
373902
169147
97768.9
125761
741246
666331
288705
146877
81478.5
129371
506900
439247
143338
83022.8
152061
317295
787083
603216
139263
85903.8
87068.7
153363
507775
927798
370970
172672
98878.1
124121
761812
700662
297879
150496
83689.4
136840
544324
467092
152261
85898.9
168030
363455
866459
718237
128808
97961.6
146930
286797
660479
518431
130960
82411.1
84799.3
147339
450699
833814
338000
159056
89223.5
145957
632537
524185
161989
90311.4
180107
386155
968490
785273
130153
103531
157716
310973
723569
581106
145829
88533
91012.3
164719
505594
959180
386356
180302
104964
137637
792176
724672
312784
157585
88888
140314
559492
490628
159771
91172.2
177973
393700
945510
797787
132607
105176
159418
314995
745393
587366
147506
90396.7
92989.5
168161
511762
983264
394549
185351
109255
133238
821531
784029
326684
167123
98881.2
129980
660485
626667
287122
149180
86818.3
141127
511487
453923
157953
89916.1
171871
362229
857533
725217
127100
102300
152194
293083
682084
538477
139503
87231.5
90506.1
158798
473422
893786
379974
176255
104524
132519
757586
708793
304596
156988
89719.1
143693
555871
487653
163140
92374.3
180835
381420
925803
764751
133421
107057
160072
310838
706022
561098
145376
91868.3
95318.9
167251
501791
973235
412635
187400
113205
135290
821511
790043
331491
171405
102552
136298
684198
655646
299565
155252
91329.8
148260
541879
485095
168171
94982.1
185770
388248
927158
789075
133227
112542
168519
320331
760444
649645
133500
101259
150728
285030
619950
507133
144358
89505
93793.7
165097
460453
897876
383411
181327
109121
134748
755726
711318
310806
162526
94304.5
149287
562187
498711
171149
97627.9
190501
416099
963190
815712
141223
114842
173551
331642
786602
688199
138399
105233
159345
305263
668739
561267
154309
94204.9
98885.4
176594
503617
968498
407479
194207
116909
142150
816479
787915
341591
176552
107126
138489
675181
653500
302381
159753
95179
152948
539671
482353
173820
99444
192543
409892
932159
815857
141346
118097
176572
335842
793128
686026
141051
107633
161881
307063
664473
557910
156656
96309.9
101126
178763
502303
969691
411049
198405
120074
145198
832047
802819
342140
179570
109767
143314
694201
666380
309132
163563
98488.7
156499
550053
498498
177599
102522
196649
421759
956549
828026
145709
121038
180778
342696
805030
708374
144916
110896
168054
319481
709919
641764
140272
105701
158371
298151
637105
531879
154063
95587.9
101217
178103
485499
954179
411379
197814
121217
144468
823898
798422
342150
180453
111270
145052
689517
672863
313433
166015
99966.5
160901
555323
499933
182682
104415
200509
424428
959555
826904
150827
123427
182734
340671
800083
709139
146438
113366
170684
322717
716273
653608
144821
108721
162712
304784
649190
556285
159691
98967.3
104750
184213
510336
989610
426070
204784
125556
151325
854632
833072
357036
188306
117039
153110
730596
727975
330387
175147
111473
147952
650333
638932
303782
164296
100474
160139
539362
491846
180914
105349
200552
417908
937052
819594
150233
125111
186204
348029
807775
705794
152202
115684
172810
322983
701663
639262
146142
110648
164912
305494
641950
549633
162135
100946
106829
186223
506733
991235
429888
209203
128944
153575
853788
829516
359000
191898
119923
157058
733272
736218
334821
178944
114689
151413
658904
651965
311075
169476
104165
164592
544331
495553
187008
109200
207115
422142
950616
826466
151968
129382
192108
355540
816126
728497
157055
119868
179174
333230
729307
663895
151687
115167
171411
315790
666554
570010
168854
105274
111647
194441
526035
1.02739e+06
447683
217739
134041
161790
878930
851902
371876
199714
125167
161812
752614
761298
350684
187114
120173
158780
692324
685371
326660
177221
108843
173181
579996
532895
198176
114470
218595
458419
1.01821e+06
877501
168136
136183
200855
371269
855711
761428
161092
126054
189254
355089
777587
718177
163388
122049
181326
336467
726762
666245
155128
118056
174126
318900
669863
562550
170047
108011
114744
197102
523576
1.02016e+06
448316
221890
137415
163353
881416
862430
375435
203258
128638
166821
775735
792344
361436
193248
125809
165926
723209
736482
344808
186644
122042
160246
675403
676813
325165
178828
111185
174372
563532
519447
197467
116939
219987
440122
989703
863071
161522
138164
204401
373217
854427
760556
167541
128810
192091
353907
772839
698671
164038
124875
184909
337763
713249
653211
158802
120966
177061
320417
659707
563760
174158
110333
117239
201407
527050
1.01404e+06
459337
224318
141772
170217
877838
874790
387682
210008
133379
172518
784156
797200
369248
198999
129890
172591
727680
741645
352249
192027
126038
165177
677690
681161
332982
183853
114937
179605
571169
528602
203371
120873
226295
457115
1.00117e+06
885391
173899
142740
209339
382903
877407
765210
169847
133104
198541
367091
784258
719678
171169
129571
191969
350942
736592
672552
165355
126160
184489
330853
676526
572449
180201
115856
122862
208594
536763
1.03329e+06
462149
231750
145660
173560
897171
896156
395647
216078
137983
179293
786598
801842
379691
205282
134852
177785
750557
767500
363762
198381
131152
172117
695509
697552
339587
190513
119688
185741
586355
546563
212037
125869
236657
481466
1.0443e+06
901097
183553
149320
219784
398624
890119
788907
177396
139882
207527
379214
808820
742158
179596
135814
200391
364252
759645
687410
173455
132011
192235
344024
692913
589972
188450
120760
128190
216785
553244
1.07052e+06
478953
243108
152938
179899
925662
919720
410078
225774
144642
188823
814560
831093
390756
213501
140980
184309
769483
797430
377784
207704
138506
180830
732307
759728
365539
202782
134832
177086
698169
700732
346300
194930
123200
190365
588482
547681
215518
129794
240422
474218
1.03616e+06
897597
185055
152263
222577
400009
889114
786170
183153
142704
210712
382106
805272
738300
180600
138971
204738
368977
766867
698380
179261
136357
198544
352015
706029
606951
195418
125241
132838
222352
566735
1.06745e+06
489452
248596
157918
186888
935000
944688
419749
232280
149555
193661
825757
839467
399074
219989
145608
190576
768008
788642
381302
212910
141187
183527
717996
729138
362164
204418
129268
199827
608961
568152
227061
135838
252024
491292
1.07419e+06
930377
190059
159626
233022
412627
922989
809157
190043
149653
220134
394282
834763
763270
190240
145436
213091
382401
788784
723136
185421
142345
206858
366397
735770
625370
203650
131060
138788
233780
588582
1.11869e+06
508454
260019
165135
195229
964882
963222
430639
241854
156221
200283
851834
872416
411758
228346
151572
195252
789552
821525
397896
222519
148039
194061
752168
756655
377824
213807
135589
208077
626889
587148
234871
142257
261376
505088
1.10184e+06
945074
196793
166563
243217
431906
952803
841331
201716
156471
228930
409512
858983
783157
197989
151766
221257
394166
811250
736954
192639
148119
215475
378454
755498
646303
212047
136855
144785
240138
603655
1.13129e+06
519840
267617
170964
202374
980011
981554
442481
249363
161833
206630
856807
880605
422435
235673
157001
205164
796051
820130
400795
228023
152438
197303
745195
759776
382340
219528
139669
213461
632992
595178
241561
146762
267186
511793
1.10798e+06
944645
204927
170825
247696
433490
949753
837136
202530
160509
234536
414470
862253
778780
201265
155987
227611
401889
813154
737017
198806
152531
219850
380437
749588
636032
216088
140295
148342
245611
601628
1.13132e+06
536410
273262
175793
216820
975085
978431
452324
254618
165629
206853
851593
871645
422354
239988
159658
207672
776073
782160
396037
229141
145293
222359
655386
613471
249815
152680
278828
535981
1.13499e+06
985241
214113
178948
261682
457547
992518
864150
216517
168881
244316
428635
880099
794242
210055
162842
235180
410566
825536
746435
206068
157884
225619
387758
758178
633368
218616
144497
152799
248808
603233
1.12571e+06
530906
277802
179151
217368
967643
981462
453833
259356
169559
213106
858979
878756
429041
245459
163977
212536
778868
787845
403214
234522
150017
227820
661220
623731
254737
157489
285479
544022
1.14868e+06
982167
216667
183712
266107
462186
990848
862217
220865
172481
250017
435920
881912
780476
216967
165948
237653
406711
790257
661724
229414
151767
160256
260822
629895
1.17232e+06
554869
291005
187336
227153
995944
1.00298e+06
468225
270134
176896
222295
876238
897629
441439
254403
170296
221571
799363
809916
414404
242778
155971
234527
673717
636701
261489
163387
291775
552408
1.15282e+06
988015
231738
188390
271075
467286
997716
867699
220378
176606
254090
436548
889849
790835
218768
169377
242741
412438
814097
676048
235825
154533
163552
266053
638374
1.16813e+06
562348
297387
191742
235395
992454
995683
473452
275482
179643
228039
863675
867659
437074
256005
163049
245156
705950
664747
273388
170109
305490
580789
1.19966e+06
1.02601e+06
242699
197490
283850
489094
1.03632e+06
893708
231117
184776
265160
455905
918694
817746
231259
177525
254769
433100
840273
701301
246745
162983
171379
277479
665536
1.21444e+06
582426
308954
200001
245043
1.02819e+06
1.03171e+06
487539
286111
186355
232839
879153
892859
450229
266200
168477
255191
731539
690813
285374
176149
317109
598919
1.24013e+06
1.04103e+06
252452
203728
291569
498110
1.04771e+06
894666
239348
189386
271687
460922
912907
753881
260971
172499
180497
293286
711084
1.28611e+06
618962
326559
210446
257461
1.08449e+06
1.08822e+06
510508
300361
196968
244455
939167
973969
482634
282258
188377
245248
849669
868025
450318
267374
170953
255991
712672
675140
283894
178408
315686
589420
1.20024e+06
1.01705e+06
252162
204817
292536
494213
1.03077e+06
871161
234754
189762
272077
457243
889008
723746
260575
171646
180672
291637
688496
1.2142e+06
597362
321789
206618
261858
1.00529e+06
1.00121e+06
493696
293288
182329
266791
791625
741709
296298
188733
335566
629241
1.30839e+06
1.09271e+06
264745
215606
309490
522718
1.10358e+06
929623
254905
200987
287078
483005
946122
779495
274650
182113
190435
306585
742179
1.32184e+06
644603
342025
220733
274597
1.10916e+06
1.11597e+06
534478
315179
204877
260266
935556
954095
489791
291191
184414
275472
773524
735042
301303
191563
341637
638610
1.29703e+06
1.0556e+06
280034
218742
311007
519969
1.0449e+06
820633
280501
191783
199604
314118
775172
1.36856e+06
663396
355441
227244
283073
1.12957e+06
1.13604e+06
544651
324588
210726
268150
955475
977623
502290
299274
189640
281702
783069
743990
312528
197125
344790
635925
1.29548e+06
1.05857e+06
282330
222980
317314
526429
1.0644e+06
848622
287460
196393
203270
319488
802276
1.39528e+06
679091
360907
230712
292829
1.13771e+06
1.13877e+06
554743
330215
202330
296813
886843
831439
329959
208637
374242
702820
1.43463e+06
1.16112e+06
305322
238114
341129
571098
1.15675e+06
914809
308673
209033
216073
342157
859867
1.47886e+06
727416
385084
246356
310497
1.20284e+06
1.21691e+06
595395
351554
225856
291634
1.00819e+06
1.02739e+06
531802
320163
201194
297358
821724
778352
327802
209061
360113
654553
1.30423e+06
1.00463e+06
316142
220826
224771
342840
920704
1.55034e+06
756345
396724
249596
322633
1.24556e+06
1.24421e+06
612201
358739
216997
320162
956199
895295
352913
223192
401407
750513
1.51773e+06
1.21834e+06
328017
253717
363941
605337
1.21912e+06
953823
325705
221080
228066
359412
897153
1.51775e+06
754305
402682
255276
330655
1.21222e+06
1.20605e+06
602732
362125
220212
320579
932296
876378
350150
226874
394620
727895
1.46873e+06
1.18631e+06
324130
251717
358489
593313
1.18833e+06
919562
319265
217591
223921
348910
863567
1.42062e+06
709572
385941
233526
341134
1.07234e+06
985263
353804
235929
423633
803958
1.63944e+06
1.2679e+06
348247
263635
378907
635584
1.25747e+06
957663
334732
226390
233423
364525
896030
1.45443e+06
730244
402165
241026
348512
1.08971e+06
997129
375244
244989
430259
802200
1.63703e+06
1.28674e+06
350199
269344
385446
637296
1.28009e+06
987043
339467
231132
237241
369568
923478
1.48857e+06
746104
407081
244850
355549
1.11783e+06
1.01898e+06
379570
248544
431490
804008
1.63366e+06
1.23015e+06
375972
257283
259229
406071
1.12203e+06
1.81729e+06
895812
471408
288644
384217
1.39811e+06
1.37958e+06
692157
414156
243986
357657
1.02931e+06
952056
384017
249593
422368
761733
1.50716e+06
1.11492e+06
364634
251510
254729
386921
1.01399e+06
1.59261e+06
788812
433545
253577
372019
1.15982e+06
1.0458e+06
392876
255889
440879
815545
1.64072e+06
1.2109e+06
381786
259173
262065
405404
1.09836e+06
1.74548e+06
850964
457663
264409
393828
1.26641e+06
1.13025e+06
416756
265553
468635
874855
1.75526e+06
1.26989e+06
404244
271588
274380
427059
1.13719e+06
1.75917e+06
871852
474090
272930
404823
1.2634e+06
1.13423e+06
426989
274829
474057
870565
1.75247e+06
1.27159e+06
405618
275207
277598
427598
1.14586e+06
1.77474e+06
875329
477501
274138
406764
1.27356e+06
1.15203e+06
427146
275370
477227
878947
1.81506e+06
1.30934e+06
413032
275806
277948
437747
1.16877e+06
1.7799e+06
885415
479953
275024
414582
1.25391e+06
1.0672e+06
436046
279401
291477
493525
1.40944e+06
2.10127e+06
1.02802e+06
525470
295686
456259
1.44369e+06
1.27329e+06
470230
293794
509658
942265
1.92679e+06
1.365e+06
435413
290207
289637
450522
1.22267e+06
1.8604e+06
904185
493964
276591
416653
1.28437e+06
1.08389e+06
438734
278766
293626
498026
1.40108e+06
2.06537e+06
1.01482e+06
523785
291949
451616
1.39868e+06
1.17129e+06
473657
296140
303463
517800
1.49405e+06
2.14674e+06
1.045e+06
535433
292266
454430
1.42534e+06
1.18953e+06
480198
294953
305376
513565
1.5467e+06
2.3144e+06
1.11738e+06
562782
304939
483611
1.53697e+06
1.26851e+06
502974
308313
311084
541409
1.56562e+06
2.18088e+06
1.05871e+06
547270
289206
458764
1.39578e+06
1.13765e+06
447420
280001
302876
532129
1.34604e+06
1.69682e+06
575035
307263
568950
1.14828e+06
2.42746e+06
1.56213e+06
481965
297906
299574
507177
1.26956e+06
1.43287e+06
516584
295874
310822
601655
1.59581e+06
1.84535e+06
618734
303783
567122
1.16657e+06
2.44765e+06
1.50894e+06
487837
286877
271185
425296
1.21004e+06
1.37229e+06
542454
285161
285001
549192
1.48809e+06
1.59281e+06
592838
289346
289580
627648
1.69178e+06
1.78897e+06
666652
298029
292319
677312
1.89561e+06
1.94868e+06
762640
321116
320017
757262
1.94922e+06
1.95197e+06
776760
331491
329271
770703
1.942e+06
1.93289e+06
790978
348178
347700
779314
1.88236e+06
1.82185e+06
787234
354644
359580
790378
1.75844e+06
1.70107e+06
797065
367982
372412
796856
1.65121e+06
1.60665e+06
798137
379320
383424
796551
1.56884e+06
1.5343e+06
795983
388470
390597
790885
1.50542e+06
1.47886e+06
788459
393595
394527
780599
1.45727e+06
1.43743e+06
776555
394948
393482
765761
1.42192e+06
1.40784e+06
760011
392884
389784
748312
1.39724e+06
1.38759e+06
741033
388973
385259
727824
1.38052e+06
1.37414e+06
719832
384432
381010
706545
1.36961e+06
1.36543e+06
698540
379999