/*--------------------------------*- C++ -*----------------------------------*\
| =========                 |                                                 |
| \\      /  F ield         | OpenFOAM: The Open Source CFD Toolbox           |
|  \\    /   O peration     | Version:  v2006                                 |
|   \\  /    A nd           | Website:  www.openfoam.com                      |
|    \\/     M anipulation  |                                                 |
\*---------------------------------------------------------------------------*/
FoamFile
{
    version     2.0;
    format      ascii;
    class       volScalarField;
    location    "0.06";
    object      turbulenceProperties:I;
}
// * * * * * * * * * * * * * * * * * * * * * * * * * * * * * * * * * * * * * //

dimensions      [0 0 0 0 0 0 0];


internalField   nonuniform List<scalar> 
23013
(
0.149983
0.149982
0.149988
0.149991
0.149993
0.149992
0.149993
0.149994
0.149997
0.150003
0.150009
0.150014
0.150017
0.150017
0.150016
0.150015
0.150013
0.150011
0.150009
0.150008
0.150007
0.150006
0.150006
0.150005
0.150004
0.150004
0.150004
0.150003
0.150003
0.150003
0.150002
0.150002
0.150002
0.150002
0.150002
0.150002
0.150002
0.150001
0.150001
0.150001
0.150001
0.150001
0.150001
0.150001
0.150001
0.150001
0.150001
0.150001
0.150001
0.150001
0.150001
0.150001
0.150001
0.150001
0.150001
0.150001
0.150001
0.150001
0.150001
0.150001
0.150001
0.150001
0.150001
0.150001
0.150001
0.150001
0.150001
0.150001
0.150001
0.150001
0.150001
0.150001
0.150001
0.150001
0.150001
0.150001
0.150001
0.150001
0.150001
0.150001
0.150001
0.150001
0.150001
0.150001
0.150001
0.150001
0.150001
0.150001
0.150001
0.150001
0.150001
0.150001
0.15
0.15
0.15
0.15
0.15
0.15
0.15
0.149999
0.149999
0.149998
0.149997
0.149996
0.149995
0.149997
0.150002
0.150013
0.150026
0.150035
0.150029
0.150012
0.149994
0.149974
0.149955
0.149963
0.149982
0.14998
0.149996
0.150007
0.149817
0.149082
0.144717
0.138808
0.145202
0.148398
0.144638
0.136553
0.132506
0.128524
0.132883
0.142374
0.137045
0.125082
0.123917
0.121411
0.122767
0.135158
0.130516
0.117038
0.118166
0.116728
0.115967
0.129308
0.125781
0.112402
0.11458
0.113844
0.112179
0.125166
0.12248
0.110008
0.112435
0.112165
0.110106
0.122148
0.120029
0.108585
0.111138
0.111107
0.108833
0.119886
0.118094
0.107632
0.110293
0.110395
0.107953
0.118065
0.116501
0.106941
0.109713
0.109875
0.107293
0.11655
0.11514
0.106385
0.109295
0.109447
0.106732
0.115228
0.11392
0.105885
0.108936
0.109102
0.106243
0.114043
0.112831
0.105461
0.108635
0.108799
0.105824
0.112982
0.111848
0.10509
0.108363
0.108533
0.105466
0.112035
0.110976
0.10478
0.108123
0.108294
0.105156
0.111173
0.11018
0.104498
0.107881
0.10803
0.104861
0.110389
0.109446
0.104242
0.107665
0.10784
0.104634
0.109686
0.108804
0.104047
0.107449
0.107613
0.104431
0.109051
0.108236
0.103887
0.107256
0.107454
0.104305
0.108523
0.107755
0.103783
0.107091
0.107261
0.104189
0.108044
0.107311
0.103692
0.106955
0.107176
0.104102
0.107595
0.106908
0.103653
0.107068
0.107427
0.104116
0.107236
0.106616
0.10374
0.107427
0.107785
0.104199
0.106943
0.106347
0.103855
0.107816
0.108208
0.104342
0.106695
0.106148
0.104046
0.108265
0.108687
0.10457
0.106527
0.106031
0.104329
0.108773
0.109212
0.104869
0.106418
0.105958
0.104639
0.109268
0.109688
0.105166
0.106343
0.105913
0.104968
0.109781
0.110248
0.105544
0.106335
0.105955
0.105392
0.110346
0.110822
0.105982
0.106391
0.106042
0.10585
0.110926
0.111438
0.106478
0.106513
0.106196
0.106368
0.111556
0.112038
0.106974
0.10664
0.106346
0.106875
0.112146
0.1127
0.10754
0.106843
0.106608
0.107482
0.112819
0.113353
0.108146
0.107114
0.106877
0.108082
0.113475
0.114008
0.108742
0.107368
0.107158
0.108692
0.114125
0.114718
0.109404
0.107694
0.10753
0.109379
0.114835
0.1154
0.110081
0.108068
0.107888
0.110038
0.115511
0.116083
0.110741
0.108412
0.108278
0.110722
0.116202
0.116778
0.111437
0.108822
0.108679
0.111403
0.116872
0.117435
0.112105
0.10921
0.109067
0.112052
0.117512
0.118057
0.112736
0.109585
0.109421
0.112647
0.11809
0.118595
0.113299
0.109918
0.109745
0.113198
0.118643
0.119074
0.113789
0.110185
0.10998
0.113633
0.11906
0.119446
0.114174
0.110384
0.110163
0.113983
0.119434
0.119688
0.11442
0.110491
0.110169
0.114115
0.119592
0.119699
0.114421
0.110393
0.110008
0.11404
0.119588
0.119541
0.114217
0.110133
0.109655
0.113738
0.119391
0.119151
0.113742
0.109638
0.109074
0.113156
0.118926
0.118556
0.11299
0.108922
0.108235
0.112283
0.118207
0.117713
0.111891
0.107903
0.107077
0.111016
0.117141
0.116509
0.110379
0.106546
0.105582
0.109371
0.115799
0.115097
0.108585
0.104918
0.103907
0.107473
0.114301
0.113532
0.10655
0.103088
0.101984
0.105335
0.112662
0.11184
0.10432
0.101076
0.0999216
0.103028
0.110901
0.110128
0.10201
0.0989962
0.0978311
0.100694
0.109197
0.108382
0.0996585
0.0968668
0.0956815
0.0983412
0.107469
0.106726
0.0973874
0.0947722
0.0936164
0.0961247
0.10587
0.105181
0.0952672
0.0927803
0.0916661
0.0940785
0.104401
0.103768
0.0933386
0.0909316
0.0898808
0.0922418
0.103071
0.102496
0.0916206
0.0892502
0.0882711
0.0906269
0.101883
0.101365
0.0901193
0.0877363
0.0868337
0.0892283
0.100824
0.100364
0.0888125
0.0863833
0.0855533
0.0880154
0.0998913
0.0994802
0.0876757
0.0851814
0.084423
0.0869666
0.0990733
0.0986971
0.0866955
0.0841203
0.0834304
0.0860708
0.0983775
0.0982217
0.0858723
0.0831899
0.0825628
0.0853413
0.0980969
0.0981745
0.0852432
0.0823831
0.0818196
0.0848081
0.0981579
0.0983299
0.0848086
0.0817059
0.0812083
0.0844604
0.0983798
0.0985942
0.084532
0.0811549
0.0807221
0.0842661
0.09869
0.0989201
0.0843919
0.0807206
0.0803504
0.084206
0.0990495
0.0992831
0.0843823
0.0803936
0.0800854
0.0842714
0.0994392
0.0996615
0.0844894
0.0801681
0.0799177
0.0844475
0.09984
0.10006
0.0847025
0.0800296
0.0798374
0.0847213
0.100252
0.100459
0.0849996
0.0799695
0.0798281
0.0850727
0.100666
0.10086
0.0853777
0.0799882
0.0798953
0.0854966
0.101077
0.101221
0.0857906
0.080049
0.0799971
0.0859466
0.101441
0.101582
0.0862575
0.0801601
0.0801408
0.0864394
0.101802
0.101885
0.0867305
0.0802954
0.0803032
0.0869272
0.102115
0.102197
0.0872163
0.0804509
0.0804833
0.0874205
0.102405
0.102475
0.0876781
0.0806082
0.0806486
0.0878734
0.102626
0.102695
0.0880945
0.0807517
0.0807999
0.0882902
0.102818
0.102885
0.0884861
0.0808884
0.0809391
0.08868
0.102981
0.10303
0.0888383
0.0810061
0.0810519
0.0890156
0.103092
0.103149
0.0891655
0.0811226
0.0811703
0.0893385
0.103219
0.10326
0.0894665
0.081222
0.0812612
0.0896196
0.103301
0.103334
0.0897305
0.0813001
0.081334
0.0898694
0.103368
0.103391
0.089961
0.0813588
0.0813766
0.090081
0.103415
0.103442
0.0901617
0.081394
0.0814184
0.090278
0.103467
0.103484
0.0903433
0.0814244
0.0814368
0.0904404
0.103495
0.103505
0.0904894
0.0814313
0.0814359
0.0905754
0.103517
0.103519
0.0906093
0.0814199
0.0814147
0.0906781
0.103513
0.103511
0.090702
0.0813946
0.0813864
0.0907724
0.103533
0.103526
0.0907879
0.0813585
0.0813416
0.0908446
0.103529
0.10352
0.0908496
0.0813046
0.0812831
0.0909005
0.103523
0.103512
0.0908977
0.0812396
0.081214
0.0909422
0.103513
0.103499
0.0909311
0.081163
0.0811328
0.0909695
0.103499
0.103482
0.0909514
0.0810741
0.081042
0.0909858
0.103482
0.103463
0.0909621
0.0809768
0.0809442
0.0909931
0.103462
0.103441
0.0909645
0.0808728
0.0808402
0.0909924
0.10344
0.103418
0.0909601
0.0807629
0.0807312
0.090985
0.103415
0.103392
0.0909486
0.0806477
0.0806052
0.0909655
0.103384
0.103365
0.0909278
0.0805164
0.0804968
0.0909558
0.103367
0.103341
0.0909119
0.0804013
0.080375
0.0909245
0.103319
0.103291
0.0908789
0.0802772
0.0802476
0.0908982
0.103302
0.103271
0.0908502
0.0801447
0.0801161
0.0908634
0.103264
0.103231
0.0908101
0.0800058
0.0799751
0.0908158
0.103225
0.10319
0.0906945
0.0798304
0.0797056
0.0906925
0.103191
0.103082
0.0905162
0.0795095
0.0792723
0.0904775
0.103162
0.102745
0.0896477
0.0786717
0.0784004
0.0892561
0.1028
0.102963
0.0889611
0.0781171
0.07782
0.0886195
0.102905
0.10345
0.0886122
0.0775456
0.0740149
0.0748262
0.0780471
0.0808764
0.0846522
0.0867276
0.0882213
0.0890352
0.0893066
0.0890164
0.0881776
0.0867362
0.083492
0.0810369
0.0775513
0.0746998
0.0737223
0.0736084
0.0804262
0.0938234
0.113277
0.130956
0.132766
0.114267
0.0945208
0.0957313
0.115777
0.134514
0.13553
0.117231
0.0970031
0.0971196
0.117469
0.136153
0.136718
0.118208
0.0977612
0.0978853
0.118558
0.137259
0.137778
0.118834
0.0982362
0.0983876
0.119014
0.137916
0.138203
0.119223
0.0986028
0.0985689
0.119143
0.138136
0.138156
0.119173
0.0986955
0.0986131
0.119059
0.138154
0.138129
0.119204
0.0987147
0.0986513
0.119117
0.138058
0.138051
0.119116
0.0987692
0.0986619
0.119013
0.138068
0.138063
0.119181
0.0987656
0.098704
0.119106
0.138023
0.138
0.119102
0.0988219
0.0987213
0.118993
0.137988
0.137997
0.119165
0.0988232
0.098757
0.119087
0.137961
0.137927
0.119073
0.098866
0.098767
0.118955
0.13789
0.137913
0.119137
0.0988686
0.0988056
0.119067
0.137895
0.137864
0.119058
0.0989185
0.0988235
0.118942
0.137836
0.137844
0.11912
0.0989216
0.0988608
0.119049
0.137827
0.137802
0.119045
0.0989811
0.0988878
0.11894
0.137794
0.137791
0.119111
0.0989839
0.0989272
0.11903
0.137751
0.137734
0.119025
0.099048
0.0989553
0.118915
0.137736
0.137719
0.119075
0.0990489
0.0989945
0.118988
0.137659
0.137639
0.118982
0.0991182
0.09903
0.118879
0.137657
0.13764
0.119038
0.0991235
0.0990712
0.118946
0.137555
0.137548
0.118947
0.0991974
0.0991105
0.118846
0.137569
0.137549
0.119007
0.0992021
0.0991543
0.118923
0.137472
0.137464
0.118928
0.099278
0.099193
0.118833
0.137493
0.137473
0.118998
0.0992883
0.0992469
0.118918
0.137406
0.137391
0.118924
0.0993745
0.0992931
0.118829
0.137407
0.137404
0.119007
0.0993953
0.0993608
0.118938
0.137366
0.137335
0.118935
0.0994877
0.0994153
0.118831
0.137326
0.137327
0.119008
0.0995149
0.0994802
0.118938
0.137296
0.13726
0.118934
0.0996042
0.0995359
0.118827
0.137235
0.137238
0.11901
0.0996363
0.099608
0.11895
0.137217
0.137191
0.118956
0.0997361
0.099674
0.118853
0.13717
0.137166
0.119035
0.0997749
0.0997536
0.118983
0.137154
0.137137
0.118994
0.0998831
0.099825
0.118897
0.137122
0.137117
0.119077
0.0999258
0.0999076
0.119026
0.137104
0.137082
0.119033
0.100034
0.0999801
0.118934
0.137056
0.137061
0.119119
0.100081
0.100065
0.119068
0.137043
0.137015
0.119077
0.100188
0.100139
0.118984
0.136993
0.137012
0.119179
0.100237
0.10022
0.119139
0.136998
0.136976
0.119155
0.100339
0.100292
0.119067
0.13696
0.136978
0.119263
0.100383
0.100368
0.119224
0.136966
0.136966
0.119254
0.10049
0.100442
0.11918
0.13697
0.13698
0.119372
0.100528
0.10051
0.119327
0.13694
0.136958
0.119364
0.100623
0.100569
0.119299
0.136977
0.136982
0.119488
0.10064
0.100611
0.119443
0.136936
0.136973
0.119497
0.10071
0.100642
0.119437
0.137001
0.137025
0.119636
0.100704
0.100661
0.119591
0.136995
0.13703
0.119638
0.100739
0.100646
0.11957
0.137056
0.137104
0.119775
0.100695
0.100629
0.119738
0.137102
0.137134
0.11978
0.100683
0.10056
0.119696
0.137159
0.137218
0.119903
0.100572
0.100466
0.119859
0.137246
0.137272
0.119885
0.100474
0.100304
0.119771
0.137305
0.137389
0.119966
0.100259
0.100083
0.119884
0.137443
0.137453
0.119879
0.100008
0.0997484
0.119683
0.137521
0.137593
0.119826
0.0995675
0.0993042
0.11967
0.137674
0.13765
0.119528
0.0990706
0.0987135
0.11922
0.137742
0.137789
0.119207
0.0983389
0.0979718
0.118934
0.137873
0.137808
0.118563
0.0975094
0.097017
0.118107
0.13792
0.137873
0.117744
0.0963591
0.0958465
0.117264
0.137906
0.137761
0.116469
0.0950885
0.0944388
0.115744
0.137804
0.137635
0.11483
0.0934846
0.0928329
0.114033
0.137526
0.137302
0.112632
0.0917843
0.0910025
0.111568
0.137103
0.136866
0.110073
0.0897804
0.0890075
0.108976
0.136516
0.136076
0.107036
0.0877001
0.0868149
0.105702
0.135754
0.135194
0.103752
0.0853363
0.0844532
0.102398
0.134755
0.134109
0.100112
0.0829614
0.0820223
0.0986131
0.133629
0.132911
0.0963569
0.0804687
0.0795871
0.0948212
0.132314
0.131537
0.0924642
0.0781105
0.0772099
0.0908655
0.130862
0.129899
0.088471
0.0758775
0.0750995
0.0867987
0.128906
0.127701
0.084629
0.074113
0.0735722
0.0831007
0.126537
0.12507
0.0814286
0.0731004
0.0729551
0.0804369
0.123407
0.121512
0.0795582
0.0729916
0.0738929
0.079706
0.119201
0.116116
0.0796024
0.0742366
0.0763259
0.0814087
0.112185
0.109807
0.082518
0.0776837
0.0778906
0.0911335
0.143346
0.135047
0.0939697
0.0786759
0.076991
0.0918802
0.134635
0.133839
0.0908601
0.076621
0.0753504
0.0882784
0.132851
0.131672
0.0870791
0.0749638
0.0740478
0.0851957
0.13031
0.129152
0.0833883
0.073707
0.0730011
0.0821565
0.127791
0.126277
0.0802203
0.0726468
0.0722092
0.0790613
0.124768
0.123131
0.0773029
0.0721132
0.0721331
0.0766502
0.121664
0.119973
0.0755362
0.0724424
0.0728845
0.075287
0.117576
0.115181
0.0753327
0.0737893
0.0747055
0.0757581
0.111844
0.108389
0.0767494
0.0766546
0.0781172
0.07813
0.106013
0.139501
0.0803041
0.0697532
0.0729487
0.0822679
0.130759
0.130489
0.0779485
0.0717033
0.0717457
0.0776839
0.130747
0.129139
0.0760335
0.0710828
0.0713829
0.0750915
0.127047
0.125029
0.0741671
0.0714056
0.0725163
0.0740406
0.122644
0.119062
0.0736845
0.0728098
0.0750642
0.0745975
0.11478
0.11054
0.0756243
0.0767077
0.0796089
0.0769443
0.107625
0.137056
0.0767329
0.0682364
0.0738573
0.0787744
0.128351
0.126344
0.0756514
0.0734582
0.0752522
0.0759506
0.124152
0.121182
0.0748657
0.0755086
0.0773497
0.0750502
0.118338
0.115895
0.0752786
0.0783451
0.0805852
0.0765409
0.112366
0.108868
0.0772842
0.0829306
0.0851533
0.0792404
0.106844
0.13515
0.0761519
0.0683418
0.0765154
0.0777122
0.127401
0.124931
0.0744823
0.0761393
0.0784752
0.0754053
0.122714
0.12042
0.076137
0.0787708
0.0821436
0.0776248
0.116713
0.112576
0.0787316
0.0844091
0.0887357
0.0813534
0.110001
0.135298
0.0771596
0.0705106
0.0807675
0.0797241
0.126432
0.122432
0.0782742
0.0814075
0.0860582
0.0797461
0.118803
0.11595
0.0807731
0.0880844
0.0929475
0.0833664
0.113662
0.112351
0.085391
0.0948769
0.0718667
0.0776172
0.134651
0.127105
0.0806137
0.0849537
0.0852997
0.0792333
0.124818
0.121531
0.0824709
0.0902144
0.0932017
0.0842215
0.117697
0.115518
0.0884514
0.099327
0.104015
0.0916241
0.115084
0.131706
0.0824033
0.0789041
0.0955067
0.0863866
0.122552
0.119562
0.0884595
0.0994037
0.10879
0.0937338
0.11799
0.117562
0.0962283
0.111421
0.0829559
0.0843404
0.133642
0.125886
0.0905734
0.102744
0.105803
0.0926
0.123562
0.121769
0.0998771
0.116777
0.121819
0.103909
0.12145
0.134634
0.0902205
0.0925949
0.11693
0.100881
0.126705
0.122882
0.104165
0.122606
0.136462
0.113856
0.123577
0.127049
0.119006
0.140607
0.107345
0.0999601
0.133723
0.128346
0.116308
0.138375
0.146835
0.123062
0.129859
0.135476
0.138356
0.159318
0.127463
0.11171
0.135054
0.135502
0.137995
0.166988
0.174509
0.147058
0.14024
0.140478
0.118499
0.141879
0.187004
0.15263
0.141293
0.147051
0.167417
0.202188
0.224288
0.197149
0.160397
0.154915
0.166035
0.2021
0.249893
0.21921
0.17469
0.162322
0.17081
0.228966
0.304933
0.26157
0.188034
0.224532
0.317754
0.358127
0.40452
0.31594
0.228971
0.378964
0.550718
0.581574
0.915343
0.845402
0.528454
1
1
1
1
1
0.617335
0.339435
0.54068
0.604394
0.427588
0.380485
0.248964
0.238788
0.330814
0.351029
0.276726
0.226171
0.187255
0.190405
0.242269
0.26586
0.213451
0.180888
0.161916
0.166649
0.202683
0.223005
0.18341
0.154928
0.149797
0.148283
0.171577
0.19636
0.182478
0.153659
0.13978
0.138055
0.118854
0.140038
0.163153
0.143342
0.139657
0.134664
0.118601
0.13204
0.152309
0.131085
0.132674
0.129933
0.122513
0.143384
0.110131
0.101847
0.132249
0.12606
0.112627
0.133937
0.126697
0.108579
0.127463
0.132635
0.0969305
0.0991701
0.121875
0.104779
0.123071
0.123454
0.0997951
0.114263
0.0909283
0.0915673
0.132403
0.121759
0.0976444
0.111195
0.104436
0.0934594
0.123298
0.132027
0.0871653
0.0849572
0.10115
0.0920741
0.120284
0.128162
0.0861438
0.0864321
0.104761
0.0924741
0.11521
0.116856
0.0877763
0.0950875
0.0887436
0.0845095
0.120954
0.134224
0.0809367
0.0765332
0.0907592
0.0823971
0.114538
0.119031
0.0804584
0.086554
0.0735361
0.0794526
0.131317
0.112545
0.0788547
0.0862342
0.0825361
0.0780393
0.117212
0.131916
0.077032
0.071304
0.0832215
0.076589
0.111758
0.11664
0.0764845
0.0797753
0.0698311
0.0766032
0.130155
0.109788
0.074261
0.0793912
0.0766258
0.0746075
0.115242
0.129954
0.0747538
0.0679171
0.076873
0.0724626
0.109008
0.114564
0.0729695
0.0742157
0.0667248
0.0746311
0.128515
0.107755
0.0704336
0.0735616
0.0714754
0.0714387
0.113637
0.128182
0.072995
0.0650461
0.0715264
0.0685594
0.106887
0.112853
0.0701969
0.0695483
0.0642444
0.0725861
0.127234
0.106481
0.0669668
0.0690257
0.0674562
0.0687901
0.112337
0.126519
0.07192
0.0630353
0.0673368
0.0659394
0.105345
0.11109
0.0672809
0.0656982
0.0619103
0.0718992
0.125681
0.104788
0.0646663
0.0648289
0.0636214
0.0657712
0.11084
0.125728
0.0714703
0.0606275
0.0635292
0.0639559
0.104145
0.109889
0.0646343
0.0622074
0.0595888
0.0711138
0.124499
0.103555
0.0625741
0.0611809
0.0601134
0.0626708
0.109549
0.124165
0.0714605
0.058269
0.0598134
0.0618616
0.103356
0.109837
0.0623247
0.0589994
0.057557
0.0711614
0.124087
0.103123
0.0603167
0.0579406
0.0570474
0.0603771
0.109443
0.124125
0.07046
0.0560822
0.0569509
0.0594363
0.102788
0.109177
0.0591999
0.0554625
0.0555406
0.0713476
0.12399
0.10301
0.0590467
0.0560899
0.0542958
0.058392
0.109175
0.123415
0.0709539
0.0546312
0.0551651
0.058087
0.101556
0.108203
0.0579229
0.0530455
0.0539623
0.0707855
0.123085
0.10282
0.0573726
0.0541218
0.0519132
0.0573393
0.109373
0.124833
0.0708493
0.053275
0.0535266
0.0570167
0.10248
0.10887
0.0567034
0.0509841
0.0524573
0.0706226
0.123564
0.102717
0.055632
0.0520374
0.0496142
0.0552614
0.109543
0.12456
0.0705317
0.0514644
0.0510944
0.0549748
0.102668
0.109922
0.055104
0.0487637
0.0510146
0.0715578
0.125497
0.103052
0.0545389
0.0500825
0.0476176
0.0540964
0.10996
0.124848
0.0709627
0.0498511
0.0487009
0.053188
0.102684
0.110149
0.0531054
0.0464413
0.0497696
0.0720489
0.125753
0.103756
0.0493612
0.0463531
0.0469678
0.0628993
0.117693
0.0976997
0.0501724
0.0472559
0.0456759
0.0516787
0.105666
0.120871
0.0690985
0.0483571
0.0480293
0.0522787
0.0991428
0.106168
0.0524018
0.0458039
0.0485208
0.0695984
0.121388
0.100738
0.0516605
0.0470789
0.0451995
0.0524101
0.108331
0.124654
0.0709663
0.0491486
0.0454324
0.0485354
0.10326
0.116904
0.0628909
0.0463244
0.04596
0.0490683
0.0973288
0.105112
0.0509006
0.0442286
0.047398
0.0690139
0.11964
0.0993514
0.0504826
0.0456584
0.043776
0.0508661
0.106396
0.121652
0.0693415
0.0471361
0.0449301
0.0500556
0.100757
0.10818
0.050676
0.0431998
0.0477849
0.0703493
0.124627
0.102885
0.046904
0.0435152
0.0448264
0.0624345
0.116687
0.0963533
0.0474688
0.0440585
0.0425738
0.0497018
0.104498
0.119191
0.0688527
0.0462421
0.0441755
0.0492363
0.0986497
0.106132
0.0500836
0.0425097
0.0473129
0.0700438
0.122796
0.101804
0.0461867
0.0429085
0.044381
0.062222
0.115687
0.0963124
0.0468083
0.043376
0.0418257
0.0490673
0.104375
0.119549
0.0706008
0.0467171
0.0426847
0.046529
0.100597
0.114771
0.0615596
0.0441627
0.0432844
0.0467812
0.0947736
0.101404
0.0481791
0.0414704
0.0454632
0.0677546
0.115517
0.0977253
0.0481725
0.0429905
0.0415482
0.0491689
0.104892
0.120717
0.0698649
0.0467565
0.0423745
0.045839
0.101067
0.11449
0.0619405
0.0440932
0.0426087
0.0462321
0.0950599
0.102702
0.0479859
0.0410378
0.0463717
0.0700274
0.117448
0.0995888
0.0466247
0.0422436
0.0439635
0.0617003
0.113076
0.0932726
0.0460858
0.0425298
0.0408685
0.0478575
0.100325
0.114812
0.0682028
0.0452563
0.042309
0.0476266
0.0966095
0.104368
0.0490967
0.0410192
0.0466083
0.0697662
0.120375
0.100425
0.0453731
0.0417629
0.0440465
0.0625818
0.114094
0.0957113
0.0457584
0.0418747
0.0404134
0.0480587
0.10363
0.119807
0.0696504
0.0461656
0.0414741
0.0460323
0.101416
0.115052
0.0618039
0.0435775
0.0412365
0.0450531
0.0940917
0.101635
0.0472903
0.0397547
0.0454077
0.0700526
0.116314
0.0995204
0.0449802
0.0408848
0.043197
0.0615804
0.113536
0.0943291
0.0446903
0.0408234
0.0395268
0.0473705
0.102342
0.118804
0.0692596
0.0457097
0.0407128
0.0442453
0.0998455
0.11426
0.0638968
0.0442919
0.0401952
0.0417317
0.0948112
0.10817
0.0600349
0.0426052
0.0407983
0.0444541
0.0914323
0.0989137
0.046586
0.0394538
0.0450142
0.0681554
0.112918
0.095605
0.0444307
0.0406476
0.0428486
0.060662
0.109148
0.0912727
0.0443047
0.0406379
0.0394256
0.0466731
0.098908
0.113087
0.0690367
0.0452715
0.040851
0.0449806
0.0967521
0.110156
0.0610963
0.0432249
0.040772
0.0445059
0.0919248
0.0995733
0.047039
0.0395384
0.0456458
0.0685887
0.114591
0.0971367
0.0447808
0.0409285
0.0434624
0.0615912
0.11056
0.0924477
0.0447422
0.0408275
0.0395148
0.0471715
0.0997218
0.113801
0.0698301
0.0457776
0.0406351
0.0443106
0.0972377
0.111575
0.0631983
0.0443579
0.0398614
0.041517
0.0930103
0.106121
0.0599423
0.0425014
0.0400343
0.0435601
0.0896384
0.0973095
0.0461114
0.038839
0.0452925
0.0678298
0.112591
0.0958453
0.0436131
0.0402353
0.0439319
0.0625776
0.109757
0.0922895
0.0415345
0.0397031
0.0424031
0.0594357
0.104666
0.089102
0.0436294
0.0400369
0.0390015
0.0464108
0.0964606
0.110099
0.0679465
0.0451788
0.040206
0.04423
0.0932857
0.106929
0.0606187
0.0428946
0.0399247
0.0436632
0.0894333
0.0970461
0.0462998
0.0388125
0.0453891
0.0690069
0.111039
0.0954467
0.0441581
0.0400335
0.0440812
0.062421
0.109457
0.0918816
0.0410242
0.039436
0.0424719
0.0599398
0.104683
0.088942
0.0433764
0.0396735
0.0386779
0.0461807
0.0966119
0.112151
0.0679049
0.045514
0.0397512
0.0437161
0.0954291
0.109422
0.0631267
0.0441197
0.0393401
0.041333
0.0912084
0.103175
0.0593031
0.0421664
0.0392222
0.042778
0.0867033
0.0943225
0.0453604
0.0381633
0.0449018
0.0677704
0.108187
0.0934388
0.0433854
0.0393479
0.0435179
0.0618649
0.107658
0.0903132
0.0405086
0.0388465
0.0420498
0.0594547
0.10276
0.0874488
0.0428334
0.0391295
0.038202
0.0456626
0.0950109
0.110183
0.0672347
0.0452858
0.0392284
0.0431741
0.0943181
0.108144
0.0620097
0.0437284
0.0387727
0.0408047
0.0910352
0.103393
0.059019
0.0420687
0.0388818
0.0426682
0.0874904
0.0944511
0.0450499
0.0378125
0.0446769
0.0675807
0.107823
0.0927504
0.0430944
0.0388758
0.0433183
0.0613431
0.106614
0.0901269
0.0397537
0.0382821
0.0423431
0.0590837
0.102805
0.0874001
0.0398578
0.0379953
0.0413661
0.0585809
0.0993204
0.084265
0.0421768
0.0384121
0.0377304
0.0452895
0.0917801
0.106518
0.0664262
0.044743
0.0388482
0.0427807
0.0914754
0.105381
0.0611692
0.0433827
0.038277
0.0403331
0.0891205
0.100959
0.0588736
0.0418966
0.0384046
0.0422394
0.0858783
0.0933828
0.0449726
0.0375888
0.0445739
0.0669082
0.106212
0.0913542
0.0429485
0.0385159
0.0430826
0.0604736
0.104927
0.0889385
0.039288
0.0377562
0.0420121
0.0584462
0.101287
0.0864742
0.0395795
0.0375356
0.0413198
0.0581211
0.0982769
0.0842692
0.0419182
0.0378164
0.0371389
0.0448195
0.0914451
0.106349
0.0660151
0.0444917
0.0381566
0.042365
0.0912563
0.104901
0.0608137
0.0431512
0.0374914
0.0394048
0.0886507
0.100997
0.0583664
0.0419144
0.0371983
0.0392334
0.0860379
0.0974605
0.0576679
0.0410163
0.0375112
0.0416372
0.0837367
0.0907524
0.0440919
0.0368347
0.0439358
0.0655792
0.103429
0.0888575
0.0422618
0.0378634
0.042696
0.0600522
0.102589
0.0863608
0.0391091
0.0371791
0.0415734
0.0576736
0.0985315
0.0842018
0.0390008
0.0369557
0.04092
0.0572901
0.095523
0.0821404
0.0414579
0.0372034
0.0365809
0.044397
0.0892375
0.10369
0.0651482
0.0442587
0.0377131
0.0419011
0.0889226
0.10245
0.0600141
0.0428465
0.0369556
0.0391582
0.0874392
0.0993404
0.057684
0.0415992
0.0365305
0.0387049
0.0847358
0.0958203
0.0570301
0.0406594
0.036779
0.040974
0.0818172
0.088788
0.0439091
0.0361926
0.043731
0.0646984
0.102145
0.0873538
0.0415598
0.0373538
0.0424566
0.0595313
0.100651
0.0856113
0.0388877
0.0366236
0.0412718
0.057091
0.0975604
0.0837015
0.0384076
0.0362547
0.0405069
0.0565917
0.0947965
0.0816651
0.0408722
0.0363702
0.0358185
0.0439153
0.0885767
0.103066
0.0648413
0.0438169
0.037024
0.0414504
0.0882329
0.10142
0.0595671
0.0425106
0.0362768
0.038562
0.0862101
0.0980561
0.0575013
0.0412923
0.0357771
0.0382977
0.0837797
0.0950987
0.0566105
0.0402549
0.0357882
0.0404055
0.0814791
0.0884931
0.0434251
0.0352599
0.0432685
0.0650743
0.101295
0.0879393
0.0417639
0.0367143
0.0419989
0.0589851
0.100781
0.0856173
0.0378249
0.035802
0.0409038
0.0569465
0.0975262
0.0835787
0.0378959
0.0353638
0.0402483
0.0560327
0.0952286
0.0818735
0.0377414
0.0351688
0.0396363
0.0556213
0.0927105
0.0794171
0.0398151
0.0352813
0.034836
0.0430978
0.0861401
0.100137
0.0636039
0.0431626
0.036333
0.0407301
0.0863615
0.0993462
0.0585423
0.0418888
0.035563
0.0380019
0.0849998
0.096789
0.0566985
0.0408334
0.03517
0.037499
0.0827747
0.0942417
0.0559338
0.0402927
0.0349454
0.0378533
0.0812559
0.0919881
0.0555626
0.0395487
0.0350441
0.0397636
0.0789809
0.0854884
0.0426016
0.0345563
0.0426402
0.0627774
0.0984367
0.0847386
0.0402203
0.0359402
0.0414515
0.0578841
0.0974943
0.0834931
0.0377311
0.0352655
0.0403415
0.055707
0.0946994
0.080995
0.0370668
0.0348393
0.0398623
0.0551236
0.091976
0.079383
0.0376611
0.0347225
0.0392546
0.0548143
0.0896201
0.0771612
0.0394912
0.0347118
0.0343429
0.0426779
0.0838288
0.0963032
0.062915
0.0426336
0.0359676
0.0407306
0.0836667
0.096559
0.0580348
0.0415652
0.0351656
0.0377782
0.082628
0.0942005
0.0559403
0.0404843
0.0347142
0.0374575
0.0808969
0.0919309
0.0552849
0.0399399
0.034439
0.0375496
0.0792383
0.0895762
0.0548431
0.0391637
0.0343527
0.0391992
0.0768335
0.0830949
0.0418913
0.0339425
0.0421722
0.0620757
0.0950467
0.0831985
0.0403219
0.0353557
0.0408198
0.0569551
0.0957689
0.0816305
0.0368581
0.0345357
0.0398779
0.0552721
0.0925231
0.0793431
0.0369334
0.0341741
0.0393782
0.0545366
0.0901528
0.0776165
0.0370019
0.0340269
0.0387939
0.0539076
0.0877294
0.0755599
0.0387087
0.0339467
0.0336794
0.0420726
0.0819219
0.0949153
0.0613774
0.0421313
0.0350942
0.0397145
0.0823346
0.0947216
0.0569368
0.0409278
0.0343718
0.0372098
0.0807551
0.0918486
0.0553435
0.0399008
0.0339614
0.0368933
0.0791693
0.0901536
0.0543801
0.0392633
0.0336855
0.0369133
0.0780477
0.0878296
0.0536273
0.0385214
0.0334861
0.0383602
0.0753966
0.08164
0.041357
0.0331726
0.0417148
0.061481
0.0932684
0.0810374
0.0398672
0.0346787
0.0404439
0.0564171
0.0934241
0.0798437
0.0364574
0.0339311
0.0393797
0.0543903
0.0907072
0.0777702
0.0363989
0.0335321
0.0388182
0.0537425
0.0883098
0.0761392
0.0366081
0.033346
0.0382529
0.0533142
0.0859647
0.0741205
0.038201
0.0331869
0.0330087
0.0414854
0.0803849
0.0933495
0.0604992
0.0417843
0.0345159
0.0390306
0.0806096
0.0927302
0.0561149
0.0404782
0.0337141
0.0368021
0.0797975
0.0904829
0.05429
0.039265
0.033221
0.0360797
0.0781758
0.0887413
0.053522
0.038746
0.0329871
0.0361039
0.0766995
0.0868942
0.0531882
0.0383841
0.0328565
0.0363445
0.0750699
0.0847875
0.0525741
0.0377785
0.032648
0.0376797
0.0732447
0.0790857
0.0404642
0.0324298
0.0408578
0.059485
0.0908276
0.0787218
0.0387271
0.0338771
0.0396331
0.0550215
0.0904917
0.0774373
0.0360782
0.033157
0.0385974
0.0532517
0.0876777
0.0756828
0.0356606
0.0328182
0.0381574
0.0525276
0.0857122
0.0739633
0.0360101
0.0326967
0.0376421
0.0521674
0.0834185
0.0724757
0.0376707
0.0324952
0.0323812
0.0404613
0.0782966
0.0905782
0.0593336
0.041047
0.0338177
0.038309
0.0788673
0.0904746
0.0549091
0.0397502
0.0329521
0.0360336
0.0771829
0.0874889
0.0531265
0.038532
0.032432
0.0354621
0.0753576
0.0854267
0.0522662
0.0378667
0.0322522
0.0355361
0.0739016
0.0832021
0.0518465
0.0372558
0.0320134
0.0370986
0.0715019
0.0773276
0.0401192
0.0318294
0.0404514
0.0585446
0.0891641
0.0773736
0.0378913
0.0333725
0.0391798
0.0539052
0.0887334
0.0762797
0.0353091
0.0326078
0.0380684
0.052223
0.0861069
0.074203
0.0351044
0.0321945
0.0375455
0.0516884
0.083974
0.0726749
0.0353585
0.0320531
0.0370665
0.0514003
0.0819571
0.0709375
0.0370175
0.0318498
0.031775
0.0401435
0.076744
0.0889374
0.0582961
0.0405499
0.0332246
0.0376351
0.0771855
0.0884129
0.0538135
0.0391874
0.0324036
0.0353669
0.0761558
0.0861402
0.0521619
0.0379675
0.0317747
0.0345711
0.0739097
0.0835289
0.0514099
0.0373171
0.0315744
0.0350433
0.0723068
0.081621
0.0510419
0.0366872
0.0313248
0.0364276
0.0703164
0.0758513
0.0392668
0.0311815
0.039808
0.0574149
0.0872738
0.0755678
0.0371515
0.032728
0.0386288
0.0532651
0.0865721
0.0743992
0.0351314
0.0319359
0.0374449
0.051429
0.0841616
0.0727132
0.0345264
0.031483
0.0368573
0.0506486
0.0821109
0.0712084
0.0346361
0.0312933
0.0364046
0.0504069
0.0800317
0.0693143
0.0363299
0.03108
0.0310427
0.0390905
0.0748671
0.0866085
0.0570526
0.0397195
0.0324871
0.0369217
0.0751501
0.0860339
0.0527572
0.0384103
0.0316766
0.0346842
0.0738188
0.0833204
0.0511191
0.0372303
0.0310511
0.0342388
0.0718162
0.080858
0.0499824
0.036462
0.0308119
0.0340741
0.070163
0.0789565
0.049742
0.0359091
0.0305878
0.035707
0.068017
0.0735131
0.0385956
0.0305181
0.0390313
0.0560449
0.0844623
0.0734756
0.0365797
0.0321001
0.0378668
0.0519069
0.083912
0.0720924
0.0342636
0.0313511
0.0368333
0.0502767
0.0813338
0.0702705
0.0339689
0.0309563
0.0363129
0.0496783
0.0791243
0.0685278
0.0342261
0.0307837
0.0357192
0.0490518
0.0769738
0.0667644
0.0356424
0.0304957
0.0304832
0.038427
0.0723669
0.0826656
0.0560592
0.0389568
0.0319943
0.0370027
0.0722129
0.0831681
0.0519211
0.0377803
0.0311491
0.0341158
0.0713107
0.0801889
0.0496888
0.0365626
0.0305324
0.0337479
0.0691054
0.0772407
0.0487638
0.0354908
0.0299925
0.0349965
0.0663949
0.0718991
0.0376234
0.0299358
0.0385313
0.0553933
0.0827661
0.0718581
0.0360677
0.0315063
0.0374484
0.0513117
0.0822409
0.0705792
0.034
0.0308759
0.0363004
0.0493974
0.0794843
0.0687368
0.033452
0.0303441
0.0356188
0.0486112
0.0772054
0.0669756
0.0335529
0.0300946
0.034948
0.04796
0.0749555
0.0647649
0.034617
0.029742
0.0297533
0.0374836
0.0702943
0.0804166
0.0544657
0.0381364
0.0314022
0.0360684
0.0703109
0.0804561
0.0505705
0.0370683
0.0305901
0.0336455
0.0691656
0.0777445
0.0486716
0.0359436
0.0300487
0.0332549
0.0670892
0.0749106
0.0478119
0.035018
0.0294145
0.034455
0.0646812
0.0700464
0.0368316
0.0293409
0.0377199
0.0540108
0.08024
0.0689818
0.0351356
0.0308409
0.0365502
0.0498716
0.078886
0.0681752
0.0333228
0.0301078
0.0355095
0.0482662
0.0767021
0.0663359
0.0330289
0.0297089
0.0346718
0.0474026
0.0740556
0.0639267
0.0341476
0.0292545
0.029305
0.0370148
0.0694875
0.0797189
0.0539309
0.0377645
0.0309148
0.0355578