/*--------------------------------*- C++ -*----------------------------------*\
| =========                 |                                                 |
| \\      /  F ield         | OpenFOAM: The Open Source CFD Toolbox           |
|  \\    /   O peration     | Version:  v2006                                 |
|   \\  /    A nd           | Website:  www.openfoam.com                      |
|    \\/     M anipulation  |                                                 |
\*---------------------------------------------------------------------------*/
FoamFile
{
    version     2.0;
    format      ascii;
    class       volScalarField;
    location    "0.164";
    object      isentropic(p);
}
// * * * * * * * * * * * * * * * * * * * * * * * * * * * * * * * * * * * * * //

dimensions      [1 -1 -2 0 0 0 0];


internalField   nonuniform List<scalar> 
16277
(
150008
150014
150016
150003
150012
150010
150011
150012
150013
150013
150013
150012
150012
150011
150011
150011
150010
150010
150010
150010
150010
150010
150010
150009
150009
150009
150009
150009
150009
150009
150009
150009
150008
150008
150008
150008
150008
150008
150008
150008
150007
150007
150007
150007
150007
150007
150007
150007
150006
150006
150006
150006
150006
150006
150006
150006
150005
150005
150005
150005
150005
150005
150005
150005
150005
150004
150004
150004
150004
150004
150004
150004
150004
150004
150004
150003
150003
150003
150003
150002
150002
150001
150001
150000
150001
150003
150004
150005
150004
150006
150005
150007
150008
150011
150017
150015
149976
149936
150011
150022
150021
150002
149897
149860
149993
150018
150013
149981
149826
149796
149971
150008
150002
149959
149768
149744
149949
149997
149991
149938
149721
149703
149929
149986
149979
149919
149684
149669
149911
149975
149968
149901
149653
149640
149893
149964
149958
149884
149627
149616
149877
149953
149947
149868
149605
149595
149862
149943
149937
149854
149585
149577
149849
149934
149928
149841
149568
149561
149836
149925
149919
149828
149553
149547
149824
149916
149911
149817
149540
149534
149813
149908
149903
149807
149528
149523
149803
149901
149896
149797
149517
149513
149794
149893
149889
149787
149508
149504
149785
149887
149882
149779
149499
149496
149776
149880
149876
149771
149492
149489
149769
149874
149870
149763
149485
149483
149761
149868
149864
149756
149479
149477
149755
149863
149859
149750
149474
149473
149748
149857
149853
149744
149470
149469
149743
149852
149848
149738
149466
149465
149737
149847
149844
149733
149463
149463
149732
149843
149839
149728
149461
149461
149727
149839
149835
149724
149459
149459
149723
149835
149831
149720
149458
149458
149719
149831
149827
149716
149457
149458
149715
149827
149824
149712
149457
149458
149712
149824
149821
149709
149458
149459
149709
149820
149817
149706
149459
149460
149706
149817
149814
149704
149460
149462
149704
149814
149811
149702
149462
149464
149702
149811
149809
149700
149465
149467
149700
149809
149806
149698
149468
149470
149699
149806
149804
149697
149471
149474
149698
149804
149802
149696
149475
149478
149697
149802
149800
149695
149480
149483
149696
149801
149799
149695
149485
149488
149696
149799
149797
149695
149490
149493
149697
149798
149796
149696
149496
149499
149697
149797
149795
149696
149502
149506
149698
149796
149795
149698
149508
149512
149700
149796
149795
149700
149515
149519
149702
149796
149795
149702
149522
149526
149704
149796
149796
149704
149530
149534
149707
149797
149797
149708
149537
149542
149711
149799
149799
149711
149545
149549
149715
149801
149801
149716
149552
149557
149719
149804
149804
149721
149560
149564
149724
149807
149807
149726
149567
149571
149729
149810
149811
149731
149573
149578
149735
149814
149815
149737
149579
149584
149741
149819
149820
149742
149585
149588
149746
149823
149824
149748
149589
149591
149751
149828
149828
149753
149591
149593
149756
149832
149832
149757
149593
149594
149760
149835
149836
149760
149592
149593
149763
149839
149839
149763
149591
149591
149765
149842
149842
149765
149589
149588
149767
149844
149844
149767
149585
149584
149768
149846
149846
149767
149581
149580
149769
149848
149847
149767
149575
149574
149768
149849
149848
149767
149570
149568
149767
149850
149849
149765
149564
149562
149766
149850
149849
149764
149558
149556
149764
149850
149849
149762
149552
149550
149762
149850
149848
149760
149546
149544
149760
149850
149848
149757
149540
149539
149758
149849
149847
149755
149535
149534
149755
149848
149846
149752
149530
149529
149752
149846
149844
149749
149525
149524
149749
149845
149843
149747
149521
149519
149747
149843
149841
149744
149516
149515
149744
149841
149839
149741
149512
149511
149741
149839
149837
149738
149509
149508
149738
149838
149835
149735
149505
149504
149736
149836
149834
149733
149502
149501
149733
149834
149831
149730
149499
149497
149730
149831
149830
149727
149495
149495
149727
149830
149827
149725
149492
149491
149725
149827
149825
149722
149490
149488
149721
149825
149823
149720
149487
149486
149719
149823
149820
149716
149483
149483
149716
149820
149818
149714
149481
149480
149713
149818
149816
149712
149479
149479
149712
149817
149816
149711
149477
149479
149714
149819
149821
149717
149484
149495
149727
149832
149867
149776
149552
149516
149698
149792
149863
149922
149955
149966
149972
149984
149989
149994
149997
149999
149999
149998
149997
149993
149989
149979
149974
149967
149959
149946
149913
149843
149696
149544
149285
149264
149526
149681
149668
149508
149244
149236
149498
149657
149651
149493
149230
149228
149491
149650
149653
149491
149224
149226
149491
149654
149653
149491
149226
149228
149494
149656
149655
149493
149228
149228
149494
149656
149658
149496
149230
149229
149495
149657
149660
149498
149231
149233
149500
149662
149661
149500
149233
149235
149502
149664
149665
149503
149236
149235
149503
149665
149667
149505
149237
149237
149505
149667
149668
149507
149239
149240
149509
149670
149671
149509
149241
149243
149511
149673
149673
149512
149243
149243
149512
149674
149676
149514
149244
149245
149514
149676
149677
149516
149246
149248
149518
149679
149679
149519
149249
149250
149521
149682
149683
149522
149251
149252
149522
149683
149684
149524
149253
149253
149524
149685
149687
149526
149254
149255
149528
149689
149690
149529
149257
149259
149531
149691
149692
149532
149259
149260
149533
149693
149695
149534
149260
149261
149534
149695
149696
149536
149262
149264
149538
149698
149699
149539
149265
149266
149541
149701
149702
149542
149267
149268
149543
149703
149704
149544
149269
149269
149545
149705
149707
149546
149269
149270
149547
149708
149710
149549
149271
149273
149551
149711
149713
149552
149274
149275
149554
149714
149716
149555
149275
149275
149556
149717
149719
149557
149275
149276
149559
149721
149722
149560
149277
149278
149562
149723
149725
149563
149278
149279
149565
149727
149729
149566
149279
149279
149567
149731
149733
149569
149279
149280
149571
149735
149737
149573
149280
149280
149575
149739
149742
149576
149279
149279
149578
149745
149748
149580
149279
149278
149582
149750
149753
149584
149278
149279
149587
149755
149758
149590
149280
149282
149594
149762
149765
149597
149282
149283
149600
149767
149770
149603
149283
149281
149606
149777
149784
149610
149281
149287
149617
149786
149786
149623
149294
149298
149629
149789
149795
149634
149301
149300
149639
149804
149810
149646
149305
149315
149655
149813
149820
149668
149328
149338
149679
149827
149835
149691
149352
149368
149700
149842
149849
149713
149383
149400
149723
149856
149861
149733
149417
149436
149744
149869
149875
149755
149457
149479
149767
149881
149885
149777
149498
149518
149786
149888
149896
149793
149534
149559
149813
149907
149895
149831
149593
149329
149678
149766
149864
149727
149398
149409
149752
149892
149898
149763
149428
149455
149771
149898
149908
149787
149481
149511
149800
149914
149924
149821
149547
149571
149830
149930
149948
149845
149594
149611
149854
149963
149965
149873
149645
149703
149897
149939
149826
149802
149507
149577
149828
149927
149956
149856
149601
149632
149874
149961
149963
149891
149669
149691
149902
149971
149980
149914
149713
149741
149931
149997
150004
149945
149755
149608
149795
149962
149989
149906
149673
149712
149925
149986
150009
149939
149733
149747
149943
150023
150029
149961
149778
149843
149984
150005
149918
149943
149707
149773
149943
149994
150046
149974
149796
149824
149986
150052
150055
150009
149861
149903
150021
150041
149961
149999
149775
149873
150004
150033
150068
150022
149882
149922
150042
150073
150069
150059
149966
149867
150061
149999
150068
150054
149966
149973
150071
150101
150117
150096
150018
150036
150102
150113
150108
150083
149998
150061
150128
150154
150142
150136
150078
150099
150091
150179
150175
150186
150153
150188
150195
150175
150211
150215
150198
150276
150252
150218
150180
150222
150234
150278
150228
150187
150215
150261
150311
150293
150272
150233
150188
150213
150180
150035
150104
150103
150006
149952
149842
149888
149965
149976
149922
149868
149742
149804
149910
149934
149892
149848
149742
149620
149923
149796
149879
149816
149718
149624
149788
149843
149895
149850
149694
149656
149817
149879
149825
149755
149589
149671
149829
149863
149835
149808
149661
149568
149742
149811
149876
149818
149635
149585
149785
149885
149815
149717
149519
149606
149812
149895
149874
149774
149573
149517
149703
149786
149848
149814
149649
149630
149786
149814
149780
149710
149527
149655
149812
149831
149817
149794
149639
149521
149711
149798
149849
149814
149644
149622
149792
149838
149793
149713
149525
149632
149813
149866
149864
149787
149592
149562
149734
149796
149697
149778
149481
149671
149804
149789
149788
149775
149591
149514
149612
149798
149872
149797
149565
149545
149744
149839
149722
149753
149440
149635
149797
149813
149800
149771
149578
149505
149617
149792
149853
149793
149575
149553
149770
149840
149805
149599
149499
149559
149795
149877
149862
149744
149528
149418
149735
149734
149833
149796
149618
149576
149754
149817
149729
149764
149438
149623
149801
149837
149777
149746
149588
149446
149780
149691
149857
149778
149612
149477
149708
149811
149875
149821
149622
149593
149787
149858
149785
149705
149514
149622
149817
149873
149879
149781
149569
149507
149709
149809
149862
149827
149643
149642
149805
149821
149792
149713
149518
149635
149821
149859
149866
149785
149577
149503
149710
149811
149885
149838
149642
149595
149786
149877
149741
149813
149455
149628
149806
149882
149819
149731
149507
149610
149830
149898
149884
149800
149591
149516
149720
149810
149889
149838
149633
149600
149790
149861
149755
149801
149456
149621
149819
149890
149831
149736
149507
149645
149851
149906
149891
149819
149620
149523
149727
149819
149892
149844
149644
149590
149790
149886
149767
149805
149450
149617
149820
149904
149842
149739
149503
149645
149859
149921
149907
149821
149609
149517
149728
149821
149859
149843
149661
149648
149833
149823
149842
149605
149570
149565
149853
149900
149863
149730
149480
149643
149859
149908
149860
149819
149641
149460
149788
149790
149912
149831
149620
149521
149757
149849
149904
149855
149640
149606
149820
149876
149822
149679
149537
149605
149848
149897
149849
149761
149538
149645
149862
149918
149896
149821
149596
149555
149667
149836
149895
149858
149608
149534
149758
149839
149932
149860
149623
149566
149797
149921
149791
149783
149437
149636
149846
149926
149860
149759
149512
149673
149866
149877
149834
149849
149651
149582
149611
149843
149876
149907
149563
149506
149739
149840
149916
149851
149598
149514
149755
149852
149925
149872
149645
149610
149827
149903
149819
149740
149480
149601
149840
149914
149854
149757
149511
149652
149861
149881
149849
149838
149618
149564
149595
149845
149873
149906
149537
149480
149727
149831
149920
149857
149591
149510
149765
149862
149924
149864
149619
149581
149809
149899
149795
149784
149411
149576
149815
149918
149846
149736
149462
149588
149853
149917
149850
149755
149498
149611
149859
149919
149896
149811
149554
149517
149653
149833
149893
149871
149567
149478
149737
149837
149912
149851
149582
149495
149755
149850
149919
149858
149606
149569
149806
149895
149797
149750
149407
149566
149818
149913
149834
149724
149444
149572
149848
149913
149851
149752
149487
149599
149858
149921
149894
149796
149561
149347
149796
149764
149918
149779
149589
149418
149722
149816
149899
149836
149547
149451
149734
149833
149908
149843
149572
149531
149776
149876
149743
149785
149319
149578
149771
149910
149812
149711
149419
149538
149828
149895
149824
149721
149442
149546
149833
149899
149831
149729
149451
149577
149838
149891
149866
149797
149524
149486
149556
149810
149852
149873
149474
149399
149685
149798
149885
149812
149497
149410
149705
149816
149891
149824
149527
149435
149719
149824
149897
149831
149552
149507
149766
149870
149739
149754
149292
149524
149754
149890
149792
149681
149362
149489
149805
149879
149803
149691
149387
149504
149810
149880
149807
149697
149401
149530
149819
149889
149865
149757
149494
149257
149745
149726
149893
149726
149523
149334
149668
149777
149867
149793
149469
149352
149671
149786
149864
149793
149475
149367
149677
149792
149847
149797
149519
149459
149756
149814
149770
149469
149411
149380
149850
149810
149758
149636
149310
149436
149779
149858
149775
149649
149323
149443
149777
149853
149773
149654
149331
149449
149778
149853
149781
149667
149354
149469
149783
149859
149825
149711
149433
149150
149728
149669
149871
149642
149476
149241
149614
149730
149828
149746
149391
149280
149621
149743
149835
149759
149415
149295
149627
149751
149835
149759
149420
149312
149641
149760
149841
149766
149448
149389
149692
149810
149678
149647
149167
149404
149686
149829
149722
149594
149239
149370
149731
149816
149728
149600
149250
149374
149733
149815
149729
149602
149261
149395
149741
149820
149744
149623
149286
149409
149745
149825
149797
149672
149371
149073
149666
149630
149831
149618
149395
149176
149565
149694
149791
149703
149318
149186
149569
149699
149793
149713
149334
149198
149569
149701
149792
149710
149339
149229
149585
149712
149798
149716
149367
149319
149643
149771
149617
149594
149049
149331
149630
149790
149670
149536
149141
149278
149678
149771
149677
149539
149147
149299
149689
149774
149679
149541
149160
149302
149686
149772
149689
149556
149184
149323
149691
149779
149745
149606
149275
148937
149618
149562
149791
149520
149318
149062
149492
149634
149739
149637
149216
149088
149502
149642
149742
149648
149230
149091
149498
149645
149740
149647
149232
149108
149503
149646
149744
149654
149252
149127
149517
149657
149743
149659
149289
149225
149596
149706
149583
149382
149073
149185
149640
149698
149609
149457
149050
149190
149623
149716
149618
149464
149052
149199
149623
149719
149621
149471
149068
149209
149623
149719
149630
149487
149088
149237
149631
149722
149685
149557
149186
148904
149454
149529
149707
149536
149170
148963
149415
149575
149689
149588
149135
148976
149423
149583
149685
149588
149138
149000
149430
149585
149686
149590
149150
149016
149443
149592
149685
149587
149169
149088
149516
149651
149518
149269
148949
149059
149565
149632
149532
149364
148913
149073
149549
149651
149545
149376
148924
149093
149556
149659
149552
149387
148938
149102
149556
149658
149564
149405
148962
149134
149563
149661
149617
149484
149075
148787
149344
149456
149638
149464
149056
148822
149325
149497
149612
149494
148998
148838
149325
149497
149614
149501
149010
148857
149331
149504
149618
149510
149030
148872
149346
149514
149620
149519
149063
148994
149439
149585
149414
149257
148724
148960
149437
149590
149467
149283
148766
148961
149470
149589
149473
149297
148792
148991
149483
149590
149468
149292
148790
148965
149460
149575
149546
149362
148893
148522
149280
149326
149558
149344
148909
148650
149208
149397
149535
149403
148850
148667
149223
149413
149541
149416
148875
148701
149237
149426
149543
149428
148921
148814
149351
149510
149340
148978
148649
148769
149417
149474
149364
149160
148600
148801
149385
149498
149344
149131
148568
148783
149356
149484
149366
149166
148601
148809
149363
149494
149459
149249
148727
148296
149179
149208
149476
149221
148755
148452
149074
149284
149447
149301
148695
148491
149104
149319
149458
149319
148720
148517
149119
149326
149456
149331
148758
148687
149239
149417
149176
149060
148288
148599
149201
149403
149222
148985
148314
148593
149245
149395
149252
149017
148372
148613
149257
149402
149265
149041
148409
148651
149264
149404
149358
149158
148560
148180
148946
149124
149363
149154
148551
148267
148959
149196
149358
149218
148561
148300
148979
149203
149357
149213
148565
148551
149146
149325
149002
148884
147952
148411
149062
149272
149094
148839
148119
148400
149116
149286
149133
148872
148159
148435
149141
149300
149150
148905
148207
148485
149156
149307
149260
149048
148364
148059
148699
149018
149227
149077
148318
148086
148805
149089
149255
149108
148361
148119
148843
149104
149253
149131
148476
148203
148924
149168
148908
148608
147873
148195
148964
149141
148986
148711
147933
148225
149008
149181
149023
148753
147973
148282
149036
149202
149155
148902
148130
147787
148557
148879
149110
148920
148131
147840
148660
148956
149151
148982
148199
148042
148856
149119
148813
148480
147662
147969
148823
149018
148781
148454
147579
147905
148793
149004
148834
148524
147646
147990
148844
149040
148993
148706
147852
147412
148346
148679
148971
148724
147844
147509
148460
148789
149009
148813
147925
147730
148665
148964
148622
148251
147302
147755
148668
148906
148751
148417
147436
147779
148708
148906
148779
148442
147449
147028
148015
148452
148763
148525
147504
147151
148200
148572
148828
148605
147613
147425
148440
148781
148401
148031
146900
147443
148461
148747
148522
148143
147031
147545
148570
148790
148739
148387
147291
146807
147906
148350
148656
148390
147490
146748
147924
148315
148590
148317
147209
147002
148161
148517
148167
147618
146578
147058
148272
148530
148318
147870
146686
147186
148343
148595
148550
148162
147004
146394
147653
148108
148495
148199
147075
146590
147850
148271
148528
148339
147279
146985
148146
148500
147918
147379
146111
146715
147950
148275
148206
147794
146473
146023
147223
147858
148238
147969
146578
146127
147492
148004
148341
148074
146764
146534
147869
148300
147822
147274
145903
146611
147898
148197
148270
147871
146451
145673
147023
147692
147961
147521
146007
145677
147291
147827
147385
146668
145157
145907
147485
147876
147610
147030
145415
146203
147682
148017
147997
147496
145961
145284
146834
147463
147875
147548
146142
145991
147546
147983
147301
146581
145032
145399
147084
147574
147424
146810
145028
144473
146263
146979
147522
147104
145429
145143
146927
147517
147014
146271
144461
145453
147133
147520
147588
147015
145197
144502
146318
147008
147245
146789
145032
144279
146349
147028
146766
145974
143812
143026
145449
146252
146959
146447
144393
144062
146327
146998
146447
145462
143297
144668
146594
146980
147250
146736
144675
142962
145527
146477
145567
144475
141822
143330
145709
146344
146350
145559
142940
142610
145244
146259
145557
144725
141502
143690
145834
146337
146546
145890
143222
141310
144426
145585
144609
143491
140121
142327
145010
145702
145773
144932
141868
141568
144788
145870
145904
145105
141403
138716
141997
144085
145015
143731
140294
139906
143669
144995
144941
143562
139421
139377
143834
145174
144764
142952
137710
136421
141909
143946
142920
140237
135527
139367
143264
144437
144439
143009
138563
137362
142354
144110
143718
141909
136608
136196
141699
143492
143350
141256
135321
134896
141018
143255
143240
140863
134623
134343
140673
143211
143144
140449
134060
133806
140218
143055
142956
139988
133586
133399
139762
142850
142740
139545
133238
133102
139336
142625
142508
139139
132987
132891
138952
142388
142267
138776
132814
132755
138611
142144
142022
138458
132709
132674
138314
141900
141780
138181
132651
132637
138058
141658
141538
137944
132631
132633
137839
141419
141302
137743
132641
132655
137655
141186
141074
137574
132674
132697
137501
140963
140856
137434
132724
132754
137374
140751
140649
137320
132788
132824
137271
140549
140454
137228
132862
132902
137189
140360
140272
137155
132943
132985
137124
140185
140104
137097
133027
133070
137073
140026
139952
137052
133114
133157
137033
139880
139814
137017
133200
133243
137003
139749
139690
136991
133285
133327
136981
139632
139579
136973
133368
133409
136965
139528
139482
136960
133449
133487
136955
139437
139397
136951
133526
133562
136948
139358
139323
136946
133599
133633
136945
139289
139258
136944
133667
133699
136944
139229
139203
136945
133731
133760
136946
139177
139155
136948
133789
133816
136950
139133
139114
136953
133843
133868
136956
139095
139079
136959
133893
133916
136963
139063
139049
136967
133938
133959
136970
139035
139023
136975
133980
133999
136979
139012
139002
136984
134017
134035
136988
138992
138984
136993
134052
134068
136998
138975
138968
137003
134084
134098
137008
138961
138955
137013
134113
134126
137018
138949
138944
137023
134140
134152
137027
138938
138934
137032
134164
134175
137036
138930
138926
137041
134186
134196
137045
138922
138919
137049
134206
134216
137053
138915
138913
137058
134225
134233
137061
138909
138907
137065
134242
134249
137069
138904
138903
137073
134257
134264
137076
138900
138899
137080
134271
134278
137083
138897
138896
137087
134284
134290
137090
138894
138893
137094
134296
134302
137097
138892
138892
137100
134308
134313
137103
138890
138890
137107
134318
134323
137110
138889
138890
137113
134328
134333
137116
138888
138889
137120
134338
134342
137123
138888
138889
137126
134347
134351
137129
138888
138890
137133
134356
134360
137136
138889
138891
137140
134364
134368
137142
138890
138892
137146
134373
134377
137149
138891
138894
137153
134381
134385
137156
138893
138896
137160
134389
134393
137163
138896
138898
137167
134398
134401
137170
138898
138901
137174
134406
134409
137177
138901
138904
137181
134414
134417
137184
138904
138907
137188
134422
134425
137191
138908
138911
137195
134430
134433
137199
138912
138915
137203
134437
134441
137206
138916
138920
137210
134445
134449
137214
138921
138924
137218
134453
134457
137222
138925
138929
137226
134461
134465
137229
138931
138935
137234
134469
134472
137237
138936
138940
137242
134476
134480
137245
138942
138946
137250
134484
134488
137253
138948
138952
137258
134492
134495
137261
138954
138958
137266
134499
134503
137270
138960
138965
137274
134507
134510
137278
138967
138972
137282
134514
134517
137286
138974
138978
137291
134521
134525
137295
138980
138985
137299
134528
134532
137303
138988
138993
137307
134536
134539
137311
138995
139000
137316
134543
134546
137320
139002
139007
137324
134550
134553
137328
139010
139015
137333
134557
134560
137337
139017
139022
137341
134563
134567
137345
139025
139030
137349
134570
134573
137353
139032
139038
137358
134576
134579
137362
139040
139045
137366
134583
134586
137370
139048
139053
137374
134589
134592
137378
139056
139061
137383
134595
134598
137386
139064
139069
137391
134601
134604
137394
139071
139077
137399
134607
134610
137403
139079
139085
137407
134613
134615
137411
139087
139093
137415
134618
134621
137418
139095
139100
137423
134624
134626
137426
139103
139108
137430
134629
134631
137434
139111
139116
137438
134634
134636
137442
139119
139124
137446
134639
134641
137449
139126
139132
137453
134644
134646
137457
139134
139140
137461
134648
134650
137464
139142
139147
137468
134652
134654
137471
139149
139154
137475
134656
134658
137478
139157
139162
137482
134660
134662
137485
139164
139169
137489
134664
134665
137491
139171
139177
137495
134667
134668
137498
139179
139185
137503
134673
134675
137506
139189
139192
137511
134678
134680
137509
139189
139176
137498
134678
134670
137482
139159
139203
137503
134685
134760
137599
139355
139448
137673
134818
142056
144691
146369
146740
146890
147546
147883
148029
148174
148587
148855
149138
149349
149505
149620
149703
149763
149805
149836
149859
149877
149890
149901
149909
149916
149922
149926
149929
149931
149933
149934
149936
149936
149932
149934
149941
149946
149954
149962
149972
149983
149994
150005
150015
150021
150023
150022
150020
150017
150015
150013
150012
150010
150008
150007
150005
150003
150000
149998
149996
149994
149992
149990
149989
149988
149987
149986
149986
149986
149986
149987
149989
149991
149993
149997
150000
150005
150010
150015
150021
150027
150033
150040
150046
150052
150058
150063
150068
150072
150075
150078
150080
150081
150082
150081
150080
150079
150077
150074
150071
150068
150064
150061
150057
150053
150048
150044
150040
150036
150032
150028
150024
150020
150016
150013
150009
150006
150002
149999
149997
149994
149991
149989
149986
149984
149982
149980
149978
149977
149975
149974
149972
149971
149970
149969
149968
149967
149966
149965
149965
149964
149964
149963
149963
149963
149962
149962
149962
149962
149962
149962
149962
149962
149962
149962
149962
149962
149963
149963
149963
149963
149964
149964
149965
149965
149965
149966
149966
149967
149968
149968
149969
149969
149970
149971
149971
149972
149973
149973
149974
149975
149976
149976
149977
149978
149979
149980
149980
149981
149982
149983
149984
149985
149986
149987
149988
149989
149990
149991
149993
149994
149996
150000
150007
150012
150015
150015
150017
150004
150012
150012
150020
150026
150029
150029
150027
150026
150024
150022
150021
150020
150019
150018
150017
150016
150016
150015
150015
150014
150014
150013
150013
150012
150012
150012
150011
150011
150011
150011
150010
150010
150010
150010
150009
150009
150009
150009
150008
150008
150008
150008
150008
150007
150007
150007
150007
150006
150006
150006
150006
150006
150005
150005
150005
150005
150005
150004
150004
150004
150004
150003
150003
150003
150003
150002
150002
150002
150001
150001
150000
150000
149999
149999
149998
149997
149995
149994
149994
149995
149997
149999
150000
150004
150009
150019
150024
150024
150021
150019
150016
150013
150010
150008
150005
150003
150000
149998
149995
149993
149990
149988
149985
149983
149980
149979
149976
149975
149971
149970
149967
149966
149963
149963
149959
149959
149956
149955
149952
149952
149949
149949
149945
149945
149942
149942
149939
149939
149936
149936
149933
149934
149930
149931
149928
149928
149925
149926
149923
149923
149920
149921
149918
149918
149915
149916
149913
149914
149911
149911
149908
149909
149906
149907
149904
149905
149902
149903
149900
149901
149899
149899
149897
149898
149895
149896
149894
149895
149893
149894
149892
149893
149891
149893
149891
149893
149891
149893
149891
149894
149892
149895
149893
149896
149895
149898
149897
149900
149899
149902
149901
149905
149903
149907
149906
149910
149909
149912
149911
149915
149914
149917
149916
149919
149918
149921
149920
149923
149922
149925
149923
149926
149924
149927
149925
149927
149925
149927
149925
149927
149925
149927
149925
149926
149924
149926
149924
149925
149923
149924
149922
149923
149921
149922
149921
149921
149919
149921
149918
149919
149917
149918
149916
149917
149914
149916
149914
149915
149914
149914
149913
149914
149912
149913
149910
149912
149910
149914
149921
149932
149956
149955
149953
149966
149949
149952
149965
149949
149952
149966
149949
149953
149967
149950
149954
149968
149951
149955
149969
149952
149955
149970
149954
149957
149971
149954
149958
149971
149955
149959
149972
149956
149960
149973
149957
149961
149974
149958
149961
149975
149958
149962
149975
149959
149963
149976
149959
149963
149976
149960
149964
149977
149960
149964
149977
149961
149964
149978
149961
149964
149978
149961
149965
149978
149960
149964
149978
149960
149964
149978
149959
149963
149977
149958
149962
149976
149957
149961
149976
149956
149960
149974
149954
149958
149973
149952
149956
149972
149950
149954
149970
149948
149953
149968
149947
149951
149967
149945
149949
149966
149943
149947
149965
149941
149945
149964
149940
149944
149964
149939
149943
149962
149938
149942
149962
149938
149942
149963
149938
149943
149964
149938
149943
149964
149939
149944
149965
149939
149945
149966
149940
149946
149967
149941
149947
149969
149942
149948
149970
149944
149950
149971
149945
149951
149972
149946
149952
149974
149948
149954
149975
149949
149955
149976
149951
149957
149977
149952
149958
149979
149954
149960
149980
149955
149961
149981
149957
149963
149982
149958
149964
149983
149960
149965
149985
149961
149967
149986
149963
149968
149987
149965
149970
149988
149966
149972
149989
149968
149973
149990
149970
149975
149992
149971
149976
149993
149973
149978
149994
149975
149980
149995
149977
149981
149996
149979
149983
149998
149981
149985
149999
149983
149987
150000
149985
149989
150002
149987
149991
150003
149989
149993
150004
149991
149995
150006
149994
149997
150007
149996
150000
150008
149999
150002
150010
150002
150004
150011
150004
150007
150013
150007
150010
150014
150010
150013
150016
150013
150015
150017
150017
150018
150019
150020
150022
150020
150023
150013
150015
150015
150015
150015
150014
150014
150013
150013
150013
150012
150012
150011
150011
150011
150011
150010
150010
150010
150009
150009
150009
150008
150008
150008
150007
150007
150006
150006
150005
150005
150004
150004
150003
150002
150001
150001
150000
149999
149997
149996
149995
149994
149993
149992
149991
149991
149990
149992
149995
149996
149997
150000
150002
150005
150007
150009
150011
150012
150012
150012
150011
150011
150010
150008
150007
150006
150005
150004
150003
150001
150000
149999
149998
149997
149996
149995
149994
149993
149992
149991
149990
149989
149988
149988
149986
149969
149966
149966
149970
149985
149989
149989
149996
149995
149997
149997
149997
149998
149999
150000
150001
150002
150003
150004
150005
150006
150007
150008
150009
150010
150011
150015
150014
150012
150011
150010
150009
150008
150007
150006
150005
150004
150003
150002
150001
150001
150000
149999
149999
150000
149999
149999
149997
149998
150000
150000
150001
149994
149993
149993
149993
149993
149990
149990
149975
149977
149972
149972
149972
149973
149974
149976
149996