/*--------------------------------*- C++ -*----------------------------------*\
| =========                 |                                                 |
| \\      /  F ield         | OpenFOAM: The Open Source CFD Toolbox           |
|  \\    /   O peration     | Version:  v2006                                 |
|   \\  /    A nd           | Website:  www.openfoam.com                      |
|    \\/     M anipulation  |                                                 |
\*---------------------------------------------------------------------------*/
FoamFile
{
    version     2.0;
    format      ascii;
    class       volScalarField;
    location    "0.164";
    object      omega;
}
// * * * * * * * * * * * * * * * * * * * * * * * * * * * * * * * * * * * * * //

dimensions      [0 0 -1 0 0 0 0];


internalField   nonuniform List<scalar> 
16277
(
0.00810599
0.00810607
0.00810491
0.0081045
0.00810339
0.00810341
0.00810273
0.00810118
0.00809758
0.00809141
0.00808288
0.00807269
0.00806155
0.0080499
0.00803787
0.00802546
0.00801256
0.00799908
0.00798496
0.00797015
0.00795464
0.00793845
0.00792157
0.00790403
0.00788583
0.00786699
0.00784751
0.00782741
0.0078067
0.00778538
0.00776347
0.007741
0.00771796
0.00769438
0.00767028
0.00764568
0.0076206
0.00759506
0.00756908
0.00754268
0.0075159
0.00748875
0.00746126
0.00743347
0.00740538
0.00737705
0.00734849
0.00731973
0.00729081
0.00726175
0.00723259
0.00720336
0.0071741
0.00714483
0.00711559
0.00708641
0.00705733
0.00702839
0.00699962
0.00697106
0.00694275
0.00691476
0.00688717
0.00686014
0.00683404
0.00680967
0.00678894
0.00677659
0.00678506
0.00684357
0.00700277
0.00737708
0.00820671
0.00999138
0.0137336
0.021364
0.0365695
0.0665321
0.125282
0.238448
0.453739
0.842348
1.40648
1.82862
2.49812
2.9971
3.6381
6.62821
11.4718
14.4741
12.9729
34.2426
105.413
397.79
3406.76
18601
254897
251708
37848.4
8637.92
15117.7
52962.6
248573
245277
54892.9
17469.8
20705.9
58055.3
236455
232034
57494.8
21300.5
23279.3
58848
226109
223288
58184.7
23405.7
24488.9
58586.4
218919
216053
57190.2
24343.9
24967.3
57662.8
212519
210463
56433.9
24791.6
25247.6
56963.6
207749
206195
55926.6
25050.7
25438.4
56494.7
204000
202775
55590.5
25235.3
25590.3
56182.9
200921
199916
55356.5
25384.8
25720.4
55972.9
198291
197433
55192.7
25514.4
25837.5
55833.6
195972
195220
55088.3
25631.9
25945.5
55741.7
193877
193199
55020
25740
26045
55677.2
191943
191319
54970.8
25839.1
26137
55626.1
190128
189543
54930.2
25929.4
26221.4
55580.7
188404
187849
54892.4
26010.8
26296.6
55536.2
186750
186217
54853.8
26082.8
26362.8
55489.7
185150
184634
54811.9
26145.9
26420.6
55439.2
183593
183090
54764.5
26201.1
26470.9
55382.5
182071
181577
54710.3
26249.1
26514.4
55318.7
180575
180089
54649.1
26290.7
26552.1
55247.9
179101
178620
54580.3
26326.9
26584.6
55169.1
177644
177165
54503.3
26358
26612.2
55081.9
176197
175719
54417.5
26384.3
26635
54985.6
174755
174278
54322.4
26406
26653.5
54879.9
173315
172835
54217.8
26423.5
26667.8
54764.4
171871
171386
54103.1
26437
26678.1
54638.5
170419
169928
53977.8
26446.4
26684.2
54501.6
168955
168457
53841.3
26451.7
26686.1
54353.1
167475
166968
53692.8
26452.8
26683.7
54192.1
165975
165458
53531.6
26449.4
26676.7
54017.9
164454
163925
53356.8
26441.3
26664.5
53829.5
162907
162367
53167.3
26427.8
26646.7
53625.7
161334
160783
52960.6
26408.5
26622.5
53404.8
159733
159171
52731.7
26382.3
26591
53164.8
158106
157533
52485.2
26348.5
26551.3
52906.2
156453
155871
52218.1
26306.1
26502.3
52626.2
154777
154189
51927.9
26253.9
26442.7
52322.2
153082
152490
51611.8
26190.3
26370.6
51991.7
151375
150783
51267
26113.1
26283.5
51631.6
149664
149078
50889.9
26016.5
26178
51238.4
147961
147389
50476.7
25897.6
26051.4
50808.5
146282
145732
50024.3
25756.9
25901.5
50338.7
144646
144130
49529
25589.7
25723.9
49825.5
143077
142609
48987
25391.4
25513.9
49265.3
141604
141200
48395.3
25157.5
25267
48655
140257
139941
47759.7
24884.4
24979.7
47997.6
139085
138866
47101.7
24571.6
24652.2
47313.1
138140
138018
46412.5
24210.8
24278.1
46598.2
137442
137423
45701
23807.9
23865
45867.1
137045
137110
44988.2
23373.9
23424.1
45140.5
136901
137093
44299.1
22924.2
22971
44451.7
137044
137381
43654.7
22466.1
22511.9
43823
137433
137949
43083.3
22012.3
22063.9
43270.2
138106
138773
42619.3
21592.5
21655.9
42831
139007
139779
42265.8
21224.9
21304.1
42530
140070
140914
42005.1
20916.3
21012.6
42349.3
141248
142145
41864.4
20669.7
20783.2
42266.9
142507
143436
41833.8
20485
20616
42296.9
143810
144744
41912.8
20361.8
20510.1
42431.4
145117
146035
42089.7
20294.6
20461.6
42657.1
146395
147278
42353.8
20268.3
20463.6
42959.2
147616
148447
42686
20294.4
20518
43345.7
148755
149521
43074.1
20369.7
20635.2
43809.8
149795
150484
43533.7
20494.3
20785.6
44304.2
150718
151321
44019.8
20648.8
20958.1
44810.6
151512
152028
44515.1
20823.9
21146.6
45313.1
152176
152607
45004.6
21013.4
21344.2
45797.7
152714
153066
45475.1
21210.4
21544.6
46254.1
153135
153414
45917.1
21409
21743.3
46676.2
153448
153663
46325.3
21605
21936.3
47060.7
153668
153821
46696.2
21794.3
22119.5
47405.2
153807
153913
47028
21973.3
22290.1
47710.1
153884
153952
47321.7
22139.6
22447.2
47977.6
153910
153955
47579.2
22292.1
22590.6
48215.4
153894
153924
47804.8
22431.1
22720.2
48425.2
153834
153858
47999.7
22556.7
22836.8
48604.7
153751
153770
48166
22669.4
22941.1
48757.8
153649
153664
48308.3
22770.2
23034.7
48890.8
153532
153543
48434.3
22860.8
23119.7
49006.5
153403
153414
48541
22941.8
23196.7
49105.2
153262
153272
48635.7
23014.3
23265
49193.7
153116
153117
48718.8
23079.4
23328.5
49272.3
152952
152948
48796.6
23140.8
23388.9
49347.9
152804
152745
48863.1
23197
23455.7
49411.9
152667
152579
48955.7
23235.1
23478.5
49581
152617
151948
48754.5
23141.1
23275.2
48766.5
151418
149521
48556.4
22994
21916.3
46327.4
147100
138334
48501.9
22449.1
15521.2
27056.7
124085
139435
60775.6
28131.6
13626.5
7036.13
4374.2
3429.57
3055.1
2533.26
2312.59
2154.66
2089.07
2072.33
2105.91
2203.59
2337.75
2582.11
2861.15
3453.01
3782.1
4729.91
5754.45
7585.53
11739.5
22969.1
55692
128546
405790
435214
139214
61209.9
64766.1
147159
460938
482953
153689
68321.6
68340.8
155104
489320
495203
156333
69540.1
69716.9
157812
498905
499532
158289
70001.2
69919
158285
499340
499670
158309
69931.8
69931.4
158343
499554
499663
158318
69885.5
69870.9
158319
499768
499671
158325
69849.7
69817.8
158301
500330
500171
158287
69808.2
69782.7
158293
500322
500134
158263
69740.3
69724.6
158271
500595
501056
158198
69682.8
69663.5
158218
500597
501072
158196
69641.3
69599.1
158198
501205
501624
158093
69565.1
69549.2
158167
501243
501638
158052
69504.5
69486.2
158125
501807
502274
158002
69435.3
69415.7
158032
501859
502337
157989
69395.3
69379.9
158026
502492
502922
157924
69349.5
69337
157997
502551
502970
157895
69304.2
69291.2
157970
503162
503630
157856
69244.2
69222.1
157883
503513
503439
157848
69182.7
69165
157840
503896
504363
157764
69146.7
69138.9
157824
504261
504125
157789
69103.8
69083.3
157789
504600
505104
157715
69054.2
69045.7
157748
505003
504931
157745
69035.9
69031.2
157772
505383
505860
157721
69019.4
69015.9
157782
505762
505655
157769
69006.9
69005
157823
506115
506603
157780
68981.4
68972.3
157840
506505
506448
157837
68961.8
68965.9
157901
506924
507415
157905
68972.5
68994.5
158029
507293
507190
158069
68998.6
69007.7
158188
507648
508140
158198
69007.2
69014
158348
508024
507945
158404
69014
69043
158571
508399
508858
158664
69062.1
69094.9
158879
508413
508849
159000
69107.9
69140.7
159255
508996
509418
159393
69155
69194
159698
508973
509380
159896
69209.3
69234.9
160245
509496
509882
160455
69238.9
69243.9
160818
509693
509510
161093
69227.2
69224.8
161471
509903
510283
161768
69212.3
69215.6
162210
510089
509907
162573
69211.4
69223.2
163076
510292
510696
163475
69215.6
69193.2
163987
510257
510758
164352
69118.5
69042.1
164838
511034
511665
165080
68870.2
68705.2
165432
511814
512080
165637
68511.3
68436.6
166019
513005
513752
166212
68252.6
67989.5
166282
514585
515811
166249
67539.3
67073.9
165967
517334
519176
165459
66509.3
65966.7
164761
521264
523599
163619
65192.6
64077.5
160167
520923
518245
156570
63244.3
62699.4
154493
524621
521976
155425
62204
61182.3
146825
514241
511270
148033
61022.6
60450
143491
503262
496447
141152
60080.7
60143
138289
484814
470084
133423
59870.1
60231.9
131019
459696
452956
129933
60821.4
61771.1
130313
435023
406646
121591
62489
64009.1
120308
596066
977230
345981
141671
69600.1
172917
728710
657030
187290
74636.1
71858.2
176920
649108
642833
182114
74089.6
70943.2
169920
624112
602245
171313
71896.1
68663.8
155568
575346
548791
157876
70246.8
68525.6
144585
520313
488797
145447
69650.2
68730.1
134609
445181
636548
128309
69542.1
146628
353627
1.00416e+06
717620
165360
71489.6
74277.7
176564
605312
548033
145297
66692.9
67194.6
146897
513179
478391
136047
65132.3
65564.7
132764
446893
412923
124042
65144.3
68171.3
123678
597194
936308
348062
140395
72584.3
156276
683630
594290
167920
75647.5
72107
149782
556712
517581
154354
74352.4
73670.3
141473
467345
665905
133923
75683.6
154001
350578
1.01343e+06
704647
172492
78385.5
79734.7
172976
578495
501844
145996
71495.2
71973.4
137564
450462
654437
135555
75224.2
153748
351700
1.00052e+06
704591
163074
80349.1
83407.8
176177
580571
511653
152559
77710.4
79967.7
145511
718879
1.04497e+06
366614
161503
80905.2
169388
705107
551877
174326
80263.1
69087.1
137797
486111
664603
139521
74185.6
149063
343299
902313
623754
153046
74792.8
78138
157070
789059
983442
379169
153139
66511.2
150565
656518
792646
146315
65266.3
128147
288409
833983
1.01282e+06
163631
64914.5
91551.7
198677
809454
827197
160513
58690.4
71130.1
191385
993485
1.02879e+06
196842
73013.7
65748.1
175161
915621
800496
104079
39070.5
153620
341372
806628
935780
160998
81530.1
186082
374615
846906
781426
189733
99413
105739
214627
671707
1.12369e+06
453851
226156
127371
171524
957180
827079
367471
191866
103841
177692
696154
575926
187164
104791
192523
392670
917002
717581
171101
107009
106473
180384
574995
926433
389700
190432
106278
167976
713135
571233
174983
105163
185464
379657
912988
698983
164137
104103
103289
171284
565172
910488
380163
181771
102008
161674
686329
551521
168607
100776
178342
369102
885290
658688
156941
100153
99892.7
164889
535348
874622
364931
176262
98940.2
155286
646749
519761
161785
98272.9
168821
344861
828459
602159
145002
94998.6
95939.9
162980
463024
636568
186882
102316
191678
397522
1.05005e+06
748504
170037
105475
102917
175706
597337
983278
410342
184369
102475
163662
715915
579770
172602
102212
185011
370302
975183
710962
161774
103793
102220
169234
575675
956099
397867
181131
101392
160434
695095
568297
169212
101615
181677
401336
963843
701970
163146
102141
101653
167219
564843
957332
376058
184603
102444
160250
694898
562103
171004
102259
185021
374178
971046
721849
162679
103497
102940
173969
591959
1.04422e+06
398786
194667
112314
140584
818055
732448
321056
165786
92762
143889
557934
476902
153504
93974.4
168001
346649
826503
615402
147594
95717.6
96445
157504
502739
844574
350363
170635
96114.6
148466
622221
512254
155830
96099.6
174133
363007
872956
651447
152653
98084.4
98798.3
163180
530376
899166
374238
178943
100490
158432
677507
565292
169218
101291
195874
397055
1.01865e+06
810398
139679
114199
172411
328064
740384
578280
154958
96849.5
98624.5
163823
497264
870399
364901
178284
101784
158331
663013
550894
167007
102266
193913
391987
970544
783392
140774
113473
169813
324255
718946
557733
150320
95719.3
98060.3
162378
486326
859171
364358
177209
101618
157864
652466
550344
171800
102742
197260
398968
989620
795625
144738
116202
174613
332514
734118
577728
156354
99052.9
101041
168973
506062
893574
375564
183862
105499
164573
669847
569316
179192
106288
203246
458557
1.01681e+06
823122
160020
120197
179975
340322
760946
593594
157657
102987
106502
179813
526549
983856
410833
203838
120991
149754
807323
760931
339368
180817
103409
164333
598783
519970
179020
106105
201259
426474
946305
786424
159660
121115
179191
334526
743233
591137
160220
103648
107398
181029
520434
966041
440133
204625
123133
158592
812556
762783
341698
182673
105837
164497
598393
529136
185332
109109
208296
414426
972597
803524
154398
125031
184907
340781
762802
614670
169026
107257
111026
188224
549896
1.00947e+06
465159
213037
130796
165146
858697
835359
368844
195781
119319
154979
715114
684510
328822
177814
106605
168259
563004
514090
189737
111136
210712
430131
968653
810374
160758
128135
189023
344926
767939
618366
173364
111099
114932
195764
556575
1.03201e+06
476725
219743
135132
172711
877988
846798
376188
200571
122859
159456
731258
715714
333363
181979
109414
173830
587396
528854
193965
114276
218898
432643
992960
845533
160055
133526
197663
357181
816371
714296
159810
122273
181781
332892
701848
583624
174948
109968
115388
199275
531173
987526
454372
218479
135526
168498
854041
836260
368977
200621
124530
159578
722258
707323
336170
184199
111473
176608
581015
529246
199040
116885
221217
438078
986831
836420
165668
136259
201314
363140
815237
717471
163667
125674
186132
341083
716210
601107
180307
113324
119164
204427
554310
1.05041e+06
446350
229628
141759
166330
898092
879632
381077
211813
131609
169593
757195
751028
358382
195735
118629
187689
616675
560475
210568
123993
235211
453544
1.04694e+06
891110
171604
144848
215809
392159
884826
772768
176162
134957
201411
366899
778615
706362
169561
129014
190788
341945
704769
587614
183757
117604
124671
210814
546395
1.0328e+06
490213
235109
148176
186232
911610
903688
402754
218508
138248
176495
790101
798579
373880
204753
132641
174687
715464
714950
351901
195474
121115
189458
603837
557070
212824
127476
239965
461256
1.0474e+06
906116
175411
150002
221070
395888
897264
781293
182283
139601
207041
374280
788949
708334
174976
134000
196780
352774
711671
602574
190884
122259
129495
216248
559747
1.06102e+06
468852
243765
152525
180009
922374
918411
403942
225787
144193
185941
814641
832765
393290
214964
139749
183755
747335
745788
367968
204306
127471
198929
624067
580415
225786
133859
250202
514698
1.07568e+06
933233
200844
159235
231697
420482
926456
814120
182740
147066
218445
394153
836857
774594
189066
143242
211547
381186
794805
719062
182756
140078
205214
361179
729443
627579
201051
128855
136464
228148
588627
1.12898e+06
492185
257178
161282
189540
970185
962636
426913
239778
154033
198623
837320
856002
410676
227013
149131
194809
783054
803816
390117
218156
144216
188914
733403
744302
369871
209257
131473
203735
628816
581955
228059
138447
257177
490290
1.08418e+06
927238
190997
163452
241386
425213
934968
833727
198602
154244
228088
408970
852208
772893
195113
149938
220468
391886
798997
734641
191474
146564
212424
370446
743073
632821
207587
134676
142475
235829
596351
1.12382e+06
499519
264185
167581
198273
965632
973813
434104
246359
160005
205210
870291
893191
423619
235899
156184
202809
809826
831986
404337
227937
151599
197205
745237
756720
382151
219652
139555
212259
639174
598306
239547
146424
268806
509065
1.12175e+06
966326
202281
171046
251542
440060
975729
862131
207082
162259
237817
422442
881731
804186
204562
157626
230555
406553
833405
758656
200220
154289
223927
389901
775672
662163
218932
142601
150749
249321
626161
1.19012e+06
524517
279873
177660
207726
1.01097e+06
1.0208e+06
459486
262520
170844
219846
897402
917179
443165
250140
166343
214924
838623
872253
424878
242105
162691
210047
797160
830142
410693
235631
158303
204835
758505
772131
391658
227086
144809
219848
645871
608335
248339
152155
276860
536130
1.1246e+06
967823
217655
178934
259352
453326
975180
856768
211685
168271
245418
429482
881395
798538
211341
163886
238142
415673
830749
758513
208681
159909
229759
392753
770355
653024
222731
147258
155991
253225
621175
1.15773e+06
535427
285616
183394
219487
991244
1.00042e+06
462636
266581
174890
221210
893359
922900
447723
254589
171248
220431
830053
863677
430107
247649
167273
216433
786078
803528
409241
239626
153568
231706
670329
632517
260805
161247
291985
563607
1.16386e+06
1.00203e+06
232866
189428
272665
474025
1.00482e+06
880562
222901
177699
257101
446936
906871
825537
222196
172699
249378
430281
859254
775136
218751
168184
240321
408623
795939
672828
232774
154901
163980
264887
643189
1.18888e+06
559103
297366
191965
231060
1.02576e+06
1.04398e+06
484721
279434
183842
232528
913181
943225
466644
266763
179972
232313
850707
884683
446298
259243
175554
227542
800160
819636
422563
250008
161062
240435
682821
650935
270046
168921
300889
562114
1.17846e+06
1.00675e+06
237843
195398
281579
481927
1.02466e+06
894805
229878
184526
266699
457604
927900
837281
229774
178968
258559
440663
861777
723690
251837
165408
174883
284598
692527
1.27187e+06
591143
320748
206016
248253
1.07948e+06
1.08936e+06
505118
296565
195282
242141
947928
983642
486497
282123
188676
244583
866026
884943
458245
270253
173054
259422
738753
703967
291249
181147
324614
625892
1.26152e+06
1.08484e+06
262626
211803
303549
522503
1.10375e+06
952196
246975
197865
285475
489504
985294
879947
246661
191398
276488
469788
913566
765504
267938
176879
186563
302921
730459
1.33909e+06
622123
339553
217853
262237
1.12954e+06
1.13837e+06
529231
313033
206602
254307
976954
1.01822e+06
507504
297112
198917
259071
900042
925958
479644
283895
181918
272062
771300
739994
303127
190153
340468
621526
1.32976e+06
1.11299e+06
264750
219881
316789
535039
1.13228e+06
976334
258437
207255
298220
505696
1.01502e+06
893686
258873
199834
286949
482414
928841
780200
276741
184060
193499
311278
750770
1.34239e+06
642438
347902
225176
275842
1.12547e+06
1.14765e+06
543309
322319
210930
265855
974964
994438
505529
300950
191287
286601
813524
779157
315285
199922
362417
662916
1.39842e+06
1.1537e+06
282284
231846
331527
555316
1.16767e+06
1.0017e+06
269548
216966
311361
524311
1.04507e+06
912000
270576
207717
296379
497330
949003
784847
283136
189801
200122
317850
754810
1.33192e+06
662247
355497
231420
288264
1.12898e+06
1.15292e+06
558192
330084
216383
275395
979419
1.00904e+06
516468
307960
195907
291791
827233
788699
324640
204369
363247
670942
1.359e+06
1.13611e+06
294804
235767
337185
565406
1.16735e+06
985239
281028
219116
311770
519367
1.01104e+06
822837
294789
198110
208128
330103
789512
1.37194e+06
684668
369064
237546
303036
1.13835e+06
1.14364e+06
568347
338791
210028
307819
904570
859048
341183
217739
387213
721851
1.49843e+06
1.23131e+06
306174
249429
361814
614977
1.26061e+06
1.05826e+06
304994
233746
335385
562588
1.0837e+06
882473
318143
211788
221061
355184
848138
1.46317e+06
722558
392231
251813
322414
1.19971e+06
1.20609e+06
593364
357410
220525
320037
943440
894373
353062
228073
401985
744736
1.52295e+06
1.24572e+06
326560
258013
370519
617508
1.26601e+06
1.00194e+06
338115
227729
235577
376780
949577
1.62294e+06
801255
425639
269706
346728
1.29583e+06
1.29952e+06
647240
386367
234963
344712
1.01131e+06
953555
379470
242455
429728
791097
1.62039e+06
1.31193e+06
347845
273149
391833
649166
1.32275e+06
1.04155e+06
351322
239406
247543
389365
988452
1.68939e+06
828013
441902
279668
344036
1.35242e+06
1.37213e+06
679956
406242
244740
367269
1.05447e+06
991363
400121
252385
446516
831473
1.6542e+06
1.32975e+06
368269
283676
404651
669758
1.33947e+06
1.0448e+06
360462
245733
253554
396773
991127
1.66595e+06
824370
446539
282562
365277
1.33335e+06
1.34118e+06
664870
402520
242472
354760
1.02516e+06
965305
378833
248351
433953
798495
1.57238e+06
1.17685e+06
378427
261177
266417
407962
1.08472e+06
1.75999e+06
875594
468346
291589
382805
1.39159e+06
1.39553e+06
697281
417334
250267
367843
1.06733e+06
1.00657e+06
402787
258159
445131
813982
1.6205e+06
1.21863e+06
390450
266386
268776
405815
1.1167e+06
1.78582e+06
890846
470561
277344
413401
1.31242e+06
1.18953e+06
438425
279833
501070
946513
1.89945e+06
1.46984e+06
409946
308224
443553
735961
1.46468e+06
1.10143e+06
383298
260127
267850
416210
1.03118e+06
1.63724e+06
830699
458707
269975
397693
1.21623e+06
1.11204e+06
408160
272292
471762
874484
1.75735e+06
1.27289e+06
409271
275910
279151
433346
1.14899e+06
1.77286e+06
885606
483267
278536
413127
1.28046e+06
1.15568e+06
434938
280934
481997
882727
1.76917e+06
1.28801e+06
413122
279961
283634
437097
1.17434e+06
1.82356e+06
898340
488375
281027
415919
1.30666e+06
1.11962e+06
453445
286455
299522
512117
1.47102e+06
2.20434e+06
1.05261e+06
544627
304489
470066
1.50801e+06
1.33476e+06
484646
302948
523781
986293
1.98709e+06
1.38482e+06
447221
295374
295449
459056
1.18212e+06
1.53871e+06
526427
308233
569592
1.11866e+06
2.26581e+06
1.50877e+06
485026
308769
311943
506594
1.26895e+06
1.63602e+06
569117
326112
594683
1.11891e+06
2.41175e+06
1.5937e+06
493807
316442
318365
511896
1.35008e+06
1.68986e+06
577745
324758
591977
1.15247e+06
2.40689e+06
1.54782e+06
497501
311621
303688
489624
1.27577e+06
1.52865e+06
609161
332893
330347
545625
1.95336e+06
2.69363e+06
1.41654e+06
647439
331721
553660
1.69973e+06
1.37152e+06
553789
327723
335189
619880
1.58956e+06
1.80294e+06
592133
317992
342198
727015
1.95889e+06
2.15988e+06
731170
326546
635713
1.40736e+06
2.75235e+06
1.62521e+06
526656
312451
303172
517535
1.28532e+06
1.39505e+06
564910
303098
296520
561530
1.46865e+06
1.52493e+06
573579
291785
289351
600159
1.53567e+06
1.51904e+06
608720
287689
284776
613655
1.49624e+06
1.46068e+06
612306
283067
280394
607308
1.42406e+06
1.38583e+06
598390
278326
276044
591546
1.34806e+06
1.31177e+06
586709
274845
273817
583521
1.27782e+06
1.24633e+06
581732
273850
274013
580861
1.21739e+06
1.19095e+06
580624
274890
275880
580562
1.16681e+06
1.14499e+06
580422
277523
278933
580069
1.12522e+06
1.1075e+06
579404
280719
282124
578237
1.09155e+06
1.0773e+06
576682
283669
284781
574553
1.06456e+06
1.0533e+06
572071
285872
286492
569024
1.0433e+06
1.03455e+06
565718
286965
286894
561880
1.02685e+06
1.0202e+06
557903
286710
286088
553456
1.01441e+06
1.00947e+06
548989
285362
283980
544086
1.00517e+06
1.00156e+06
539218
282845
281114
533957
998430
995825
528663
280049
278386
523106
993578
991740
517637
277359
275732
511971
990157
988885
506481
274716
273110
500848
987786
986920
495461
272095
270488
489975
986175
985589
484790
269452
267829
479539
985067
984697
474623
266766
265123
469671
984331
984059
465052
264028
262367
460440
983829
983639
456158
261254
259584
451888
983491
983337
447946
258467
256801
444010
983214
983041
440406
255690
254047
436799
982905
982694
433517
252947
251323
430226
982531
982264
427259
250249
248662
424270
982065
981750
421592
247611
246073
418887
981522
981157
416485
245053
243574
414041
980896
980498
411880
242582
241165
409671
980213
979785
407739
240202
238837
405748
979467
979023
404011
237885
236555
402209
978682
978226
400656
235633
234345
399024
977864
977408
397628
233453
232210
396144
977039
976580
394902
231356
230160
393561
976207
975752
392441
229341
228194
391222
975384
974927
390218
227419
226321
389107
974559
974108
388198
225584
224535
387177
973749
973303
386365
223843
222841
385428
972953
972517
384688
222188
221230
383821
972182
971762
383163
220616
219712
382366
971438
971029
381760
219128
218266
381020
970722
970331
380482
217722
216903
379799
970040
969664
379305
216392
215613
378676
969397
969046
378226
215134
214397
377649
968805
968475
377238
213949
213249
376709
968263
967958
376325
212828
212167
375842
967776
967497
375486
211772
211147
375041
967346
967095
374710
210775
210186
374298
966973
966754
373993
209837
209279
373607
966659
966477
373327
208951
208425
372966
966402
966259
372707
208117
207617
372365
966206
966101
372123
207330
206855
371801
966068
966000
371576
206588
206135
371269
965987
965960
371058
205886
205454
370770
965964
965963
370571
205222
204810
370297
965993
966010
370109
204593
204200
369852
966071
966105
369674
203998
203621
369429
966194
966244
369261
203433
203073
369032
966360
966427
368872
202898
202552
368655
966563
966647
368504
202388
202057
368302
966801
966899
368159
201906
201586
367968
967069
967180
367833
201446
201139
367655
967365
967488
367528
201009
200712
367361
967686
967821
367242
200592
200306
367088
968030
968174
366975
200195
199920
366831
968393
968545
366725
199815
199552
366593
968773
968934
366491
199453
199200
366370
969170
969340
366272
199106
198863
366162
969581
969759
366069
198774
198540
365967
970006
970191
365878
198456
198231
365787
970444
970635
365702
198151
197933
365618
970893
971089
365539
197858
197648
365464
971350
971551
365389
197576
197373
365321
971816
972021
365251
197306
197110
365192
972288
972496
365128
197046
196856
365074
972765
972974
365017
196796
196613
364969
973245
973455
364917
196556
196378
364873
973728
973938
364827
196325
196153
364790
974210
974420
364749
196103
195936
364718
974691
974901
364680
195889
195728
364656
975171
975381
364621
195683
195527
364601
975651
975860
364570
195485
195333
364554
976130
976338
364527
195294
195146
364513
976609
976816
364491
195108
194964
364479
977087
977294
364462
194929
194788
364451
977567
977773
364438
194755
194617
364429
978047
978254
364420
194585
194450
364413
978530
978738
364408
194421
194289
364404
979016
979224
364402
194261
194132
364402
979506
979715
364404
194106
193980
364407
979997
980206
364415
193956
193833
364421
980489
980696
364435
193812
193693
364445
980977
981178
364465
193674
193558
364479
981458
981653
364503
193542
193453
364527
981930
982113
364552
193389
193316
364572
982020
982579
364609
193303
193195
364630
983222
983011
364671
193203
193064
364699
983306
983437
364866
193091
192922
364495
983328
983261
364739
192882
192537
363954
982873
985039
365411
193117
193331
366401
988897
998165
371122
195202
196112
372097
993400
981198
361233
191017
188851
356487
963699
105125
57876.7
31247.8
19280.3
17992
12111
8885.31
7355.5
6959.97
5245.93
3817.36
2988.66
2263.51
1648.9
1168
815.083
573.637
411.564
303.35
229.993
179.253
143.361
117.438
98.3555
84.1039
73.327
65.1975
59.0589
54.6141
51.4836
49.472
48.3078
47.7826
47.2657
46.3376
45.0636
43.5285
41.8432
40.0492
38.212
36.3239
34.3947
32.4055
30.341
28.1722
25.4117
21.3988
16.3583
11.4285
7.47834
4.67522
2.82374
1.66671
0.986571
0.622158
0.446559
0.367803
0.334597
0.320927
0.314974
0.312013
0.309691
0.307537
0.305486
0.303496
0.30153
0.299555
0.297541
0.295461
0.293287
0.290992
0.288549
0.285934
0.283121
0.280087
0.276807
0.273264
0.269437
0.265313
0.260881
0.256134
0.251073
0.245702
0.240033
0.234084
0.227876
0.221438
0.214802
0.208004
0.20108
0.194071
0.187015
0.17995
0.172913
0.165938
0.159057
0.152296
0.145681
0.139233
0.13297
0.126902
0.121045
0.115403
0.109982
0.104784
0.0998103
0.0950585
0.0905281
0.0862114
0.082106
0.0782046
0.0745008
0.0709873
0.0676568
0.0645016
0.061514
0.0586863
0.0560108
0.0534799
0.0510862
0.0488224
0.0466825
0.0446587
0.0427455
0.0409361
0.0392254
0.0376072
0.0360768
0.0346291
0.0332589
0.0319624
0.0307349
0.0295728
0.0284719
0.0274291
0.0264411
0.0255043
0.0246161
0.023774
0.022975
0.0222167
0.021497
0.0208135
0.0201644
0.0195477
0.0189616
0.0184044
0.0178746
0.0173706
0.0168912
0.016435
0.0160007
0.0155873
0.0151935
0.0148185
0.0144612
0.0141207
0.0137962
0.0134868
0.0131919
0.0129108
0.0126426
0.0123869
0.0121429
0.0119103
0.0116883
0.0114766
0.0112746
0.011082
0.0108983
0.0107231
0.010556
0.0103967
0.0102448
0.0101001
0.00996228
0.00983101
0.00970605
0.00958716
0.00947411
0.00936668
0.00926466
0.00916786
0.0090761
0.00898921
0.00890702
0.0088294
0.00875619
0.00868728
0.00862253
0.00856185
0.00850513
0.00845229
0.00840323
0.0083579
0.00831625
0.00827824
0.00824389
0.00821322
0.00818632
0.00816326
0.00814429
0.00812956
0.00811952
0.00811361
0.00811092
0.00810906
0.00810761
0.00810763
0.00810751
0.00810766
0.00810846
0.00811016
0.00811283
0.00811565
0.00811716
0.00811646
0.00811359
0.00810909
0.00810344
0.00809695
0.00808973
0.00808182
0.00807318
0.00806376
0.00805353
0.00804247
0.00803057
0.00801785
0.00800432
0.00798998
0.00797485
0.00795895
0.00794228
0.00792485
0.00790669
0.0078878
0.0078682
0.00784791
0.00782693
0.0078053
0.00778302
0.00776012
0.00773661
0.00771252
0.00768786
0.00766266
0.00763693
0.00761071
0.00758401
0.00755686
0.00752929
0.00750132
0.00747297
0.00744428
0.00741528
0.00738598
0.00735643
0.00732666
0.00729669
0.00726658
0.00723635
0.00720606
0.00717578
0.00714567
0.00711607
0.00708772
0.00706228
0.00704363
0.00704038
0.00707205
0.00718169
0.0074627
0.00811317
0.00954248
0.0126132
0.0190713
0.0323319
0.058886
0.110745
0.209707
0.394408
0.733034
1.34722
2.45546
4.43344
7.81095
12.9514
19.3047
25.4086
30.6263
37.2027
54.6529
111.239
353.228
1710.33
5117.07
6290.93
6386.66
7291.29
7250.96
7981.89
7894.46
8501.65
8379.87
8920.41
8775
9266.55
9104.28
9558.25
9383.61
9807.91
9623.87
10024.4
9832.79
10213.9
10016.3
10381.3
10178.7
10529.7
10322.8
10661.4
10451
10779
10565.7
10884.5
10669
10980.1
10762.6
11067.2
10848.4
11147.5
10927.6
11221.7
11001.3
11291.2
11070.4
11356.6
11135.5
11418.4
11197.1
11477.1
11255.9
11533.2
11312
11587.1
11366
11638.8
11417.9
11688.7
11467.5
11737.1
11515
11782.9
11560.2
11826.5
11603.3
11868
11644.3
11907.3
11683.1
11944.1
11719.3
11978.1
11752.4
12008.5
11781.7
12034.6
11806
12054.9
11824
12067.9
11833.9
12071.1
11833
12062.4
11819
12038.8
11788.6
11996.8
11738.4
11932.8
11664.8
11843.3
11563.2
11725.1
11426
11577
11264.9
11404.9
11081.2
11210.9
10879.1
10999.2
10661.2
10775.1
10436.9
10548.1
10217.5
10328.1
10009.4
10120.7
9816.33
9929.57
9641.16
9757.35
9486
9605.94
9352.14
9476.41
9239.94
9368.92
9148.89
9282.73
9073.32
9215.47
9015.74
9168.43
8978.38
9142.82
8961.59
9137.42
8963.42
9149.5
8980.98
9175.87
9011.12
9213.3
9050.79
9259.34
9097.36
9311.97
9148.56
9366.49
9201.52
9421.5
9254.84
9475.95
9307.29
9528.79
9358.05
9579.13
9406.34
9626.92
9452.01
9672.47
9495.06
9715
9534.92
9754.41
9571.62
9790.39
9605.44
9822.9
9635.93
9852.5
9662.86
9879.09
9684.47
9911.47
9702.06
9945.1
9706.72
9955.49
9552.12
9876.51
8916.89
8756.69
7015.84
4674.7
5045.27
5504.48
3490.24
5967.07
5553.58
3508.26
6016.15
5557.13
3541.23
6029.14
5568.67
3536.58
6023.53
5562.39
3532.03
6009.27
5551.24
3522.96
5995.88
5538.41
3512.46
5981.23
5524.22
3501.62
5964.86
5508.94
3490.43