/*--------------------------------*- C++ -*----------------------------------*\
| =========                 |                                                 |
| \\      /  F ield         | OpenFOAM: The Open Source CFD Toolbox           |
|  \\    /   O peration     | Version:  v2006                                 |
|   \\  /    A nd           | Website:  www.openfoam.com                      |
|    \\/     M anipulation  |                                                 |
\*---------------------------------------------------------------------------*/
FoamFile
{
    version     2.0;
    format      ascii;
    class       surfaceScalarField;
    location    "0.164";
    object      phi;
}
// * * * * * * * * * * * * * * * * * * * * * * * * * * * * * * * * * * * * * //

dimensions      [1 0 -1 0 0 0 0];
oriented        oriented;


internalField   nonuniform List<scalar> 
32242
(
-2.61626e-05
-0.00135438
0.00133511
4.55329e-05
-0.00127011
0.0012439
8.34952e-06
7.77046e-05
-3.49294e-06
0.00146284
3.80323e-05
0.00159993
-3.2902e-05
0.00165138
-3.66375e-06
0.00169139
-1.6371e-05
0.00168406
-2.32816e-06
0.00168002
-2.43048e-06
0.00166947
-4.48286e-07
0.00166258
-1.01639e-06
0.00165677
-1.15386e-06
0.0016531
-1.27953e-06
0.00164974
-1.47982e-06
0.00164692
-1.51028e-06
0.00164385
-1.61876e-06
0.00164092
-1.72327e-06
0.00163778
-1.82377e-06
0.0016345
-1.92029e-06
0.00163109
-2.01302e-06
0.00162755
-2.1023e-06
0.00162388
-2.18851e-06
0.00162008
-2.27203e-06
0.00161616
-2.35314e-06
0.00161211
-2.43204e-06
0.00160794
-2.50885e-06
0.00160365
-2.5836e-06
0.00159924
-2.65626e-06
0.00159472
-2.72678e-06
0.00159008
-2.79505e-06
0.00158533
-2.86098e-06
0.00158047
-2.92445e-06
0.00157551
-2.98531e-06
0.00157045
-3.04344e-06
0.0015653
-3.09869e-06
0.00156006
-3.15093e-06
0.00155473
-3.20001e-06
0.00154932
-3.24582e-06
0.00154383
-3.28823e-06
0.00153828
-3.32711e-06
0.00153266
-3.36235e-06
0.00152698
-3.39386e-06
0.00152124
-3.4215e-06
0.00151546
-3.44519e-06
0.00150964
-3.46483e-06
0.00150378
-3.48033e-06
0.00149789
-3.49161e-06
0.00149199
-3.49858e-06
0.00148606
-3.50118e-06
0.00148013
-3.49933e-06
0.00147419
-3.49302e-06
0.00146825
-3.48227e-06
0.00146233
-3.46694e-06
0.00145643
-3.44554e-06
0.00145055
-3.42022e-06
0.00144471
-3.39072e-06
0.0014389
-3.35637e-06
0.00143314
-3.31728e-06
0.00142743
-3.27342e-06
0.00142179
-3.22482e-06
0.00141622
-3.1715e-06
0.00141072
-3.11348e-06
0.0014053
-3.05079e-06
0.00139998
-2.98344e-06
0.00139475
-2.91143e-06
0.00138963
-2.83471e-06
0.00138462
-2.75316e-06
0.00137972
-2.66656e-06
0.00137495
-2.57461e-06
0.0013703
-2.47696e-06
0.0013658
-2.37328e-06
0.00136143
-2.26335e-06
0.00135721
-2.14707e-06
0.00135316
-2.02416e-06
0.00134926
-1.8934e-06
0.00134551
-1.75131e-06
0.0013419
-9.22028e-07
0.00133772
-1.39997e-06
0.00133425
-1.16981e-06
0.00132816
-2.8954e-06
0.00131954
-4.61649e-06
0.00130741
-1.96294e-05
0.00128695
-3.00952e-05
0.00126104
-8.36231e-05
0.00122473
-0.000143176
0.00120262
-0.000328501
0.00121427
-0.000736193
0.00140182
-0.000202562
0.000361194
2.04324e-05
0.000599538
4.44659e-06
0.000786403
-3.85983e-05
0.000696034
-1.24937e-05
0.000609991
-7.5092e-06
0.000220538
-4.58122e-06
0.000183624
0.000148434
8.52635e-06
0.000139908
1.73474e-05
0.000174803
0.000210942
2.69427e-05
-1.36291e-05
0.000203715
2.08566e-05
-6.80515e-06
0.000167979
0.000133103
2.50444e-06
0.000130598
4.12781e-06
0.000166355
0.000202479
5.36311e-06
-4.65156e-06
0.000200394
6.73662e-06
-2.87149e-06
0.000164575
0.000127727
1.54675e-06
0.00012618
2.02867e-06
0.000164094
0.000200279
2.14361e-06
-4.45895e-06
0.000198716
6.0226e-06
-2.60025e-06
0.000162235
0.00012358
1.26908e-06
0.000122311
1.1465e-06
0.000162357
0.000198481
1.38152e-06
-3.6273e-06
0.000197498
4.61055e-06
-1.77607e-06
0.000160506
0.000120535
4.7193e-07
0.000120063
3.5457e-07
0.000160624
0.000197859
-6.28723e-09
-2.8371e-06
0.000196159
4.53627e-06
-1.60634e-06
0.000159393
0.000118457
3.4243e-07
0.000118114
2.39651e-07
0.000159496
0.00019646
-6.07613e-08
-2.71688e-06
0.000195373
3.80378e-06
-1.48142e-06
0.00015826
0.000116633
2.5114e-07
0.000116382
1.47933e-07
0.000158364
0.00019564
-1.18562e-07
-2.62296e-06
0.000194522
3.74036e-06
-1.38807e-06
0.000157129
0.000114994
1.83385e-07
0.00011481
8.27023e-08
0.000157229
0.000194758
-1.53482e-07
-2.5496e-06
0.000193617
3.69067e-06
-1.31736e-06
0.000155997
0.000113493
1.32275e-07
0.000113361
2.73492e-08
0.000156102
0.000193833
-1.8766e-07
-2.48674e-06
0.000192676
3.64343e-06
-1.26181e-06
0.000154877
0.000112099
9.26141e-08
0.000112006
-1.27177e-08
0.000154983
0.000192872
-2.09172e-07
-2.43707e-06
0.000191704
3.60574e-06
-1.22104e-06
0.000153767
0.000110785
6.11326e-08
0.000110724
-4.2231e-08
0.00015387
0.000191884
-2.22182e-07
-2.39751e-06
0.000190702
3.57959e-06
-1.18739e-06
0.00015266
0.000109537
3.88204e-08
0.000109498
-6.16295e-08
0.000152761
0.000190868
-2.27505e-07
-2.36732e-06
0.000189674
3.56128e-06
-1.16011e-06
0.000151553
0.000108338
2.28666e-08
0.000108315
-7.47105e-08
0.000151651
0.000189825
-2.26395e-07
-2.34308e-06
0.00018862
3.54831e-06
-1.13781e-06
0.000150446
0.000107177
1.1643e-08
0.000107166
-8.11674e-08
0.000150538
0.000188757
-2.18052e-07
-2.32498e-06
0.00018754
3.54188e-06
-1.11994e-06
0.000149333
0.000106046
4.40098e-09
0.000106041
-8.17369e-08
0.00014942
0.000187661
-2.02887e-07
-2.31216e-06
0.000186432
3.54139e-06
-1.10575e-06
0.000148213
0.000104936
4.83396e-10
0.000104935
-7.72015e-08
0.000148291
0.000186537
-1.81581e-07
-2.30384e-06
0.000185294
3.54619e-06
-1.09461e-06
0.000147082
0.000103841
-1.1397e-09
0.000103842
-6.88868e-08
0.000147149
0.000185381
-1.55889e-07
-2.29901e-06
0.000184125
3.55501e-06
-1.08598e-06
0.000145936
0.000102756
-4.21503e-10
0.000102756
-5.69961e-08
0.000145993
0.000184194
-1.25717e-07
-2.29728e-06
0.000182924
3.56774e-06
-1.07929e-06
0.000144775
0.000101677
2.108e-09
0.000101675
-4.17546e-08
0.000144819
0.000182973
-9.10825e-08
-2.29851e-06
0.000181687
3.5844e-06
-1.0744e-06
0.000143595
0.000100601
6.36158e-09
0.000100594
-2.32778e-08
0.000143625
0.000181716
-5.19606e-08
-2.30262e-06
0.000180413
3.60512e-06
-1.07119e-06
0.000142393
9.95232e-05
1.19694e-08
9.95112e-05
-2.39832e-09
0.000142408
0.000180421
-9.68872e-09
-2.30851e-06
0.000179101
3.62801e-06
-1.06923e-06
0.000141168
9.8442e-05
1.9863e-08
9.84222e-05
2.25878e-08
0.000141166
0.000179085
3.92897e-08
-2.31631e-06
0.000177748
3.65299e-06
-1.06833e-06
0.000139918
9.73539e-05
2.92203e-08
9.73247e-05
5.04127e-08
0.000139897
0.000177706
9.24716e-08
-2.32663e-06
0.000176351
3.68155e-06
-1.06877e-06
0.000138639
9.62559e-05
3.99971e-08
9.62159e-05
8.10626e-08
0.000138598
0.000176282
1.49786e-07
-2.3394e-06
0.000174908
3.71367e-06
-1.07049e-06
0.000137329
9.51455e-05
5.22292e-08
9.50932e-05
1.14609e-07
0.000137266
0.000174811
2.1144e-07
-2.3545e-06
0.000173417
3.74917e-06
-1.07344e-06
0.000135985
9.40198e-05
6.58812e-08
9.39539e-05
1.50997e-07
0.0001359
0.00017329
2.77421e-07
-2.3718e-06
0.000171874
3.7879e-06
-1.07753e-06
0.000134606
9.28763e-05
8.08887e-08
9.27954e-05
1.90125e-07
0.000134497
0.000171717
3.47624e-07
-2.39115e-06
0.000170278
3.82965e-06
-1.08267e-06
0.000133188
9.17127e-05
9.71631e-08
9.16155e-05
2.31837e-07
0.000133053
0.000170088
4.2185e-07
-2.41233e-06
0.000168626
3.87409e-06
-1.08874e-06
0.00013173
9.05267e-05
1.1459e-07
9.04121e-05
2.75921e-07
0.000131568
0.000168402
4.99802e-07
-2.43507e-06
0.000166916
3.92086e-06
-1.0956e-06
0.000130229
8.93164e-05
1.33042e-07
8.91834e-05
3.22136e-07
0.00013004
0.000166657
5.81032e-07
-2.45892e-06
0.000165147
3.96931e-06
-1.10303e-06
0.000128684
8.80803e-05
1.52274e-07
8.79281e-05
3.69999e-07
0.000128466
0.000164852
6.64862e-07
-2.48339e-06
0.000163317
4.01873e-06
-1.1108e-06
0.000127094
8.68173e-05
1.71999e-07
8.66453e-05
4.18909e-07
0.000126847
0.000162985
7.50363e-07
-2.50768e-06
0.000161425
4.06787e-06
-1.11849e-06
0.000125458
8.55269e-05
1.9173e-07
8.53352e-05
4.67894e-07
0.000125181
0.000161057
8.36081e-07
-2.53068e-06
0.000159473
4.1151e-06
-1.12555e-06
0.000123776
8.42097e-05
2.10826e-07
8.39989e-05
5.15685e-07
0.000123472
0.000159068
9.2004e-07
-2.55118e-06
0.000157461
4.1584e-06
-1.13146e-06
0.000122052
8.28675e-05
2.28799e-07
8.26388e-05
5.60997e-07
0.00012172
0.000157022
1.00009e-06
-2.56782e-06
0.000155395
4.19558e-06
-1.13565e-06
0.000120288
8.15032e-05
2.449e-07
8.12584e-05
6.02253e-07
0.00011993
0.000154923
1.0737e-06
-2.57894e-06
0.000153278
4.22397e-06
-1.13732e-06
0.000118489
8.01211e-05
2.5821e-07
7.98629e-05
6.37474e-07
0.00011811
0.000152778
1.13773e-06
-2.58245e-06
0.00015112
4.24021e-06
-1.13552e-06
0.000116663
7.87274e-05
2.67592e-07
7.84598e-05
6.64181e-07
0.000116266
0.000150596
1.18819e-06
-2.57575e-06
0.000148932
4.24013e-06
-1.12908e-06
0.000114819
7.73306e-05
2.71641e-07
7.7059e-05
6.79285e-07
0.000114412
0.000148391
1.22013e-06
-2.55566e-06
0.000146728
4.21865e-06
-1.11658e-06
0.000112972
7.59423e-05
2.68671e-07
7.56736e-05
6.79041e-07
0.000112562
0.000146179
1.22756e-06
-2.51847e-06
0.000144528
4.16972e-06
-1.09634e-06
0.00011114
7.45773e-05
2.56719e-07
7.43206e-05
6.59172e-07
0.000110738
0.000143984
1.20351e-06
-2.46003e-06
0.000142357
4.08652e-06
-1.06648e-06
0.000109344
7.32542e-05
2.33579e-07
7.30207e-05
6.14828e-07
0.000108963
0.000141832
1.14001e-06
-2.37548e-06
0.000140247
3.9611e-06
-1.02488e-06
0.000107612
7.19958e-05
1.96687e-07
7.17992e-05
5.40272e-07
0.000107269
0.000139759
1.02773e-06
-2.25942e-06
0.000138234
3.78458e-06
-9.69187e-07
0.000105979
7.083e-05
1.432e-07
7.06868e-05
4.29207e-07
0.000105693
0.000137807
8.56252e-07
-2.10655e-06
0.000136365
3.54819e-06
-8.97145e-07
0.000104483
6.97896e-05
7.09245e-08
6.97186e-05
2.76589e-07
0.000104277
0.000136025
6.17224e-07
-1.91243e-06
0.000134691
3.2455e-06
-8.05088e-07
0.00010317
6.89134e-05
-2.45172e-08
6.89378e-05
7.55046e-08
0.00010307
0.000134467
2.99346e-07
-1.66765e-06
0.000133269
2.86565e-06
-6.86857e-07
0.000102089
6.82508e-05
-1.47894e-07
6.83985e-05
-1.81936e-07
0.000102123
0.000133191
-1.0378e-07
-1.37915e-06
0.000132167
2.40307e-06
-5.53241e-07
0.000101296
6.78452e-05
-2.84808e-07
6.81299e-05
-4.79408e-07
0.000101491
0.000132264
-5.76802e-07
-1.05619e-06
0.000131438
1.88165e-06
-4.06152e-07
0.000100841
6.77237e-05
-4.35678e-07
6.81593e-05
-8.11452e-07
0.000101217
0.000131738
-1.11128e-06
-7.16865e-07
0.000131124
1.33077e-06
-2.53721e-07
0.000100753
6.79056e-05
-5.90875e-07
6.84965e-05
-1.15877e-06
0.000101321
0.000131642
-1.67688e-06
-3.74069e-07
0.000131248
7.67985e-07
-1.01585e-07
0.000101049
6.83949e-05
-7.34598e-07
6.91295e-05
-1.48558e-06
0.0001018
0.000131979
-2.21663e-06
-4.12595e-08
0.000131798
2.22791e-07
5.02544e-08
0.000101708
6.91798e-05
-8.96107e-07
7.00758e-05
-1.84905e-06
0.000102661
0.000132765
-2.81612e-06
3.00391e-07
0.000132807
-3.42485e-07
2.00228e-07
0.000102761
7.02761e-05
-1.05471e-06
7.13308e-05
-2.20194e-06
0.000103909
0.000134009
-3.40397e-06
5.4064e-07
0.000134236
-7.6741e-07
2.89716e-07
0.000104159
7.16204e-05
-1.14256e-06
7.27628e-05
-2.42848e-06
0.000105445
0.000135613
-3.80582e-06
6.93519e-07
0.000135972
-1.0524e-06
3.41943e-07
0.000105797
7.31046e-05
-1.18863e-06
7.42931e-05
-2.56656e-06
0.000107174
0.000137471
-4.06598e-06
7.67713e-07
0.000137917
-1.21434e-06
3.57702e-07
0.000107584
7.46507e-05
-1.20789e-06
7.58584e-05
-2.64416e-06
0.00010902
0.000139502
-4.22922e-06
7.87187e-07
0.000140002
-1.28718e-06
3.49773e-07
0.000109458
7.62081e-05
-1.20421e-06
7.74123e-05
-2.66889e-06
0.000110922
0.000141638
-4.3055e-06
7.56453e-07
0.000142158
-1.27633e-06
3.20559e-07
0.000111358
7.77328e-05
-1.17884e-06
7.89116e-05
-2.64376e-06
0.000112823
0.000143812
-4.29847e-06
6.81099e-07
0.000144321
-1.19004e-06
2.72326e-07
0.000113231
7.91839e-05
-1.13535e-06
8.03192e-05
-2.57548e-06
0.000114671
0.000145963
-4.21791e-06
5.69055e-07
0.000146434
-1.04007e-06
2.09378e-07
0.000115031
8.05285e-05
-1.07778e-06
8.16063e-05
-2.4723e-06
0.000116426
0.000148038
-4.07647e-06
4.28811e-07
0.000148449
-8.39404e-07
1.35653e-07
0.000116719
8.17419e-05
-1.00965e-06
8.27516e-05
-2.34193e-06
0.000118051
0.000149993
-3.88609e-06
2.68327e-07
0.000150326
-6.00812e-07
5.52483e-08
0.000118264
8.28069e-05
-9.3663e-07
8.37437e-05
-2.19243e-06
0.00011952
0.000151793
-3.65963e-06
9.60619e-08
0.000152034
-3.37032e-07
-2.70254e-08
0.000119643
8.37168e-05
-8.64115e-07
8.45811e-05
-2.03393e-06
0.000120813
0.000153411
-3.41072e-06
-7.99521e-08
0.000153551
-6.00526e-08
-1.08267e-07
0.000120842
8.4473e-05
-7.89286e-07
8.52625e-05
-1.87217e-06
0.000121925
0.000154832
-3.15305e-06
-2.5038e-07
0.000154873
2.09913e-07
-1.86669e-07
0.000121861
8.50761e-05
-7.16368e-07
8.57935e-05
-1.71263e-06
0.000122858
0.000156056
-2.89701e-06
-4.13946e-07
0.000155997
4.6977e-07
-2.6107e-07
0.000122705
8.55346e-05
-6.47103e-07
8.61857e-05
-1.56036e-06
0.00012362
0.000157085
-2.65425e-06
-5.66556e-07
0.000156932
7.10167e-07
-3.29967e-07
0.000123384
8.58619e-05
-5.82412e-07
8.64544e-05
-1.41794e-06
0.000124223
0.000157931
-2.43017e-06
-7.03086e-07
0.000157693
9.2113e-07
-3.90806e-07
0.000123913
8.60769e-05
-5.25746e-07
8.66209e-05
-1.29259e-06
0.000124685
0.00015861
-2.23391e-06
-8.19724e-07
0.000158298
1.10174e-06
-4.41623e-07
0.000124312
8.62007e-05
-4.8231e-07
8.67057e-05
-1.19215e-06
0.000125028
0.000159145
-2.07169e-06
-9.13635e-07
0.000158769
1.25254e-06
-4.80709e-07
0.000124601
8.62523e-05
-4.49882e-07
8.67273e-05
-1.11273e-06
0.000125271
0.000159557
-1.93822e-06
-9.83028e-07
0.000159127
1.37187e-06
-5.0718e-07
0.000124799
8.62473e-05
-4.21786e-07
8.67009e-05
-1.04306e-06
0.000125432
0.000159867
-1.82199e-06
-1.03207e-06
0.000159395
1.46304e-06
-5.23676e-07
0.000124926
8.62024e-05
-4.06303e-07
8.66387e-05
-9.98708e-07
0.000125527
0.000160095
-1.73978e-06
-1.07697e-06
0.000159589
1.54307e-06
-5.39272e-07
0.000124997
8.61303e-05
-3.99439e-07
8.65532e-05
-9.71673e-07
0.000125574
0.000160258
-1.68008e-06
-1.10968e-06
0.000159725
1.60053e-06
-5.50298e-07
0.000125023
8.6037e-05
-3.87706e-07
8.64533e-05
-9.40016e-07
0.000125584
0.000160369
-1.62465e-06
-1.12493e-06
0.000159815
1.63676e-06
-5.52379e-07
0.000125016
8.59304e-05
-3.80857e-07
8.63418e-05
-9.197e-07
0.000125566
0.00016044
-1.58724e-06
-1.13778e-06
0.000159868
1.66764e-06
-5.54025e-07
0.000124985
8.58168e-05
-3.7661e-07
8.62265e-05
-9.05284e-07
0.000125528
0.00016048
-1.55787e-06
-1.14572e-06
0.000159894
1.68856e-06
-5.53799e-07
0.000124935
8.56985e-05
-3.75316e-07
8.61048e-05
-8.95864e-07
0.000125468
0.000160492
-1.53791e-06
-1.15299e-06
0.000159896
1.70749e-06
-5.54605e-07
0.000124873
8.55804e-05
-3.86614e-07
8.59866e-05
-9.12057e-07
0.000125398
0.000160482
-1.54137e-06
-1.17531e-06
0.000159884
1.73315e-06
-5.62576e-07
0.0001248
8.54646e-05
-3.74901e-07
8.58655e-05
-8.92834e-07
0.000125323
0.000160469
-1.52439e-06
-1.15285e-06
0.000159861
1.72008e-06
-5.49564e-07
0.000124719
8.53391e-05
-3.68915e-07
8.5757e-05
-8.73649e-07
0.000125249
0.000160424
-1.4791e-06
-1.14357e-06
0.00015982
1.70997e-06
-5.39583e-07
0.000124632
8.52242e-05
-3.74379e-07
8.56293e-05
-8.85653e-07
0.000125156
0.000160402
-1.50544e-06
-1.17217e-06
0.00015979
1.75252e-06
-5.54426e-07
0.000124556
8.51138e-05
-4.14513e-07
8.55114e-05
-9.48032e-07
0.000125066
0.000160347
-1.53027e-06
-1.17191e-06
0.000159731
1.77854e-06
-5.46362e-07
0.000124475
8.50147e-05
-4.19286e-07
8.54147e-05
-9.42186e-07
0.000124987
0.00016031
-1.52381e-06
-1.09533e-06
0.000159694
1.72611e-06
-4.99313e-07
0.000124378
8.48948e-05
-4.2434e-07
8.53209e-05
-9.41033e-07
0.000124911
0.00016027
-1.4854e-06
-1.03888e-06
0.000159669
1.67893e-06
-4.64348e-07
0.000124304
8.47989e-05
-4.45138e-07
8.52306e-05
-9.88837e-07
0.000124855
0.000160808
-2.09008e-06
-4.85828e-07
0.000159716
1.62204e-06
-4.2969e-07
0.000124783
8.47644e-05
-9.51019e-07
8.5694e-05
-1.59321e-06
0.000125419
0.000161459
-3.31198e-06
1.86776e-07
0.000161534
-2.30497e-07
9.00356e-08
0.000125517
8.57726e-05
-1.67416e-06
8.74352e-05
-4.56807e-06
0.000128404
0.000164084
-7.10478e-06
6.08898e-06
0.000168405
-1.04434e-05
2.93994e-06
0.000131565
9.04101e-05
-8.62906e-06
9.90682e-05
-1.96501e-05
0.000142564
0.000181997
-3.3323e-05
4.31809e-05
0.000211493
-7.28616e-05
1.93463e-05
0.000166418
0.000118545
3.93793e-05
9.50306e-05
0.000165977
3.99806e-05
-0.000288191
-5.72942e-05
-0.000326091
-6.18074e-05
-0.000510469
-2.49797e-05
-0.000550491
-1.59405e-05
-0.000577078
-3.11797e-06
-0.00057975
-2.56256e-06
-0.000584685
-2.0322e-07
-0.000585155
-8.03793e-07
-0.000585843
9.64595e-07
-0.000585299
1.54901e-06
-0.000583072
5.07441e-06
-0.000577008
9.78041e-06
-0.000568945
2.14741e-05
-0.000554881
3.83959e-05
-0.000540856
8.52406e-05
-0.000536054
0.000189243
-0.00054478
8.52779e-05
-0.000335916
4.86811e-05
-0.000332972
2.7204e-05
-0.000323189
2.72197e-05
-0.000275563
8.01053e-06
-0.000237165
4.39795e-06
-8.35483e-05
1.73895e-06
-5.64697e-05
-3.05152e-05
-2.1515e-06
-2.82427e-05
-5.81981e-06
-5.2779e-05
-7.84245e-05
-1.11359e-05
4.04985e-06
-7.53528e-05
-7.12246e-06
1.40497e-06
-5.0136e-05
-2.68324e-05
-9.2342e-07
-2.58597e-05
-1.66264e-06
-4.93942e-05
-7.3556e-05
-3.54795e-06
5.88349e-07
-7.29216e-05
-1.37764e-06
7.98914e-08
-4.88591e-05
-2.56853e-05
-3.66184e-07
-2.52438e-05
-4.79572e-07
-4.87304e-05
-7.23137e-05
-1.2002e-06
5.55926e-07
-7.27677e-05
-9.2495e-08
8.59997e-08
-4.82889e-05
-2.51923e-05
-1.53603e-08
-2.51794e-05
-4.35997e-08
-4.8258e-05
-7.27638e-05
-3.34143e-08
-1.36848e-08
-7.27738e-05
2.68333e-08
-7.03299e-09
-4.82627e-05
-2.51866e-05
1.02134e-08
-2.52176e-05
2.60991e-08
-4.82997e-05
-7.2815e-05
4.53873e-08
-5.64046e-08
-7.28338e-05
8.75611e-08
-2.60006e-08
-4.83199e-05
-2.5235e-05
3.06346e-08
-2.52555e-05
6.12376e-08
-4.83449e-05
-7.28593e-05
7.90134e-08
-6.6584e-08
-7.29102e-05
9.6394e-08
-3.17324e-08
-4.83897e-05
-2.52909e-05
3.87771e-08
-2.5311e-05
7.66232e-08
-4.84103e-05
-7.2928e-05
1.04425e-07
-7.59538e-08
-7.29788e-05
1.19648e-07
-3.50064e-08
-4.84539e-05
-2.53454e-05
3.0581e-08
-2.53748e-05
6.62974e-08
-4.84896e-05
-7.30149e-05
9.89043e-08
-7.51105e-08
-7.30434e-05
1.05411e-07
-3.77849e-08
-4.85165e-05
-2.53985e-05
1.94299e-08
-2.54392e-05
5.14105e-08
-4.85656e-05
-7.30934e-05
9.83178e-08
-6.29761e-08
-7.31364e-05
1.13379e-07
-2.59221e-08
-4.86041e-05
-2.54704e-05
2.58572e-08
-2.54987e-05
6.04753e-08
-4.86375e-05
-7.31697e-05
1.04166e-07
-6.34233e-08
-7.32239e-05
1.16982e-07
-2.58022e-08
-4.86869e-05
-2.55394e-05
4.09785e-08
-2.55681e-05
8.45432e-08
-4.87198e-05
-7.32564e-05
1.20333e-07
-9.48865e-08
-7.33021e-05
1.34544e-07
-4.66205e-08
-4.87605e-05
-2.56016e-05
3.44382e-08
-2.5639e-05
7.65551e-08
-4.88067e-05
-7.3351e-05
1.19646e-07
-7.32685e-08
-7.33877e-05
1.26027e-07
-3.22785e-08
-4.88428e-05
-2.56715e-05
2.86686e-08
-2.5709e-05
6.81492e-08
-4.88884e-05
-7.34342e-05
1.16389e-07
-7.38236e-08
-7.34862e-05
1.2407e-07
-3.25256e-08
-4.89348e-05
-2.57478e-05
2.53253e-08
-2.57811e-05
6.34413e-08
-4.89738e-05
-7.35251e-05
1.19839e-07
-6.85216e-08
-7.35765e-05
1.30093e-07
-2.74431e-08
-4.90211e-05
-2.58209e-05
4.408e-08
-2.58533e-05
8.98708e-08
-4.90594e-05
-7.36175e-05
1.26986e-07
-9.26522e-08
-7.36666e-05
1.43611e-07
-4.34254e-08
-4.9104e-05
-2.58911e-05
4.33861e-08
-2.59274e-05
8.79694e-08
-4.91479e-05
-7.37134e-05
1.20339e-07
-9.14379e-08
-7.37577e-05
1.1897e-07
-4.78666e-08
-4.91873e-05
-2.59613e-05
2.76138e-08
-2.60017e-05
6.75055e-08
-4.92354e-05
-7.3806e-05
1.21582e-07
-6.80022e-08
-7.38584e-05
1.3012e-07
-2.67811e-08
-4.92837e-05
-2.60422e-05
3.21307e-08
-2.60785e-05
7.18603e-08
-4.93265e-05
-7.39018e-05
1.16158e-07
-8.79432e-08
-7.39583e-05
1.19208e-07
-4.3911e-08
-4.93763e-05
-2.61198e-05
4.89327e-08
-2.61561e-05
9.73366e-08
-4.94196e-05
-7.40035e-05
1.28833e-07
-9.01408e-08
-7.40579e-05
1.5203e-07
-3.98853e-08
-4.94672e-05
-2.6196e-05
3.0381e-08
-2.62356e-05
7.60507e-08
-4.9515e-05
-7.4109e-05
1.43145e-07
-7.8711e-08
-7.41545e-05
1.45521e-07
-3.23892e-08
-4.95589e-05
-2.62743e-05
4.33188e-08
-2.6314e-05
9.0847e-08
-4.96073e-05
-7.42061e-05
1.30703e-07
-9.04866e-08
-7.4265e-05
1.36035e-07
-4.32369e-08
-4.96586e-05
-2.6356e-05
3.24972e-08
-2.63948e-05
7.61035e-08
-4.97069e-05
-7.43186e-05
1.31907e-07
-6.655e-08
-7.43746e-05
1.46449e-07
-2.30851e-08
-4.97576e-05
-2.64371e-05
3.40206e-08
-2.6475e-05
8.39176e-08
-4.9804e-05
-7.4424e-05
1.50355e-07
-1.01148e-07
-7.44832e-05
1.61119e-07
-4.63161e-08
-4.98539e-05
-2.65155e-05
5.00458e-08
-2.65549e-05
1.03632e-07
-4.9904e-05
-7.45405e-05
1.46822e-07
-1.05151e-07
-7.45969e-05
1.42096e-07
-5.26404e-08
-4.99522e-05
-2.65932e-05
4.00532e-08
-2.66335e-05
8.81806e-08
-5.00042e-05
-7.46548e-05
1.35556e-07
-7.95043e-08
-7.4719e-05
1.46513e-07
-3.19799e-08
-5.00596e-05
-2.66767e-05
3.0001e-08
-2.67171e-05
7.59716e-08
-5.01131e-05
-7.47785e-05
1.36798e-07
-9.21565e-08
-7.48442e-05
1.42852e-07
-4.13773e-08
-5.01678e-05
-2.67576e-05
4.3001e-08
-2.6795e-05
9.70355e-08
-5.02214e-05
-7.49086e-05
1.489e-07
-8.9361e-08
-7.49777e-05
1.7487e-07
-3.31467e-08
-5.02787e-05
-2.6836e-05
3.52076e-08
-2.6874e-05
9.29457e-08
-5.03349e-05
-7.50466e-05
1.71886e-07
-9.83877e-08
-7.51166e-05
1.81285e-07
-3.76104e-08
-5.0392e-05
-2.69127e-05
4.92674e-08
-2.69501e-05
1.11992e-07
-5.04506e-05
-7.51891e-05
1.67953e-07
-1.16932e-07
-7.52691e-05
1.72867e-07
-5.25031e-08
-5.05127e-05
-2.69888e-05
4.32982e-08
-2.70249e-05
1.0421e-07
-5.05738e-05
-7.53455e-05
1.63246e-07
-1.00606e-07
-7.54297e-05
1.66508e-07
-3.98584e-08
-5.06389e-05
-2.70624e-05
2.98512e-08
-2.70972e-05
8.869e-08
-5.07049e-05
-7.55167e-05
1.67168e-07
-7.4187e-08
-7.56071e-05
1.94082e-07
-1.38834e-08
-5.07748e-05
-2.71346e-05
1.51252e-08
-2.71681e-05
7.73772e-08
-5.0844e-05
-7.56973e-05
1.9329e-07
-1.03477e-07
-7.57939e-05
1.98779e-07
-3.2746e-08
-5.09144e-05
-2.72001e-05
4.36122e-08
-2.72291e-05
1.20522e-07
-5.09869e-05
-7.58927e-05
1.95867e-07
-1.21175e-07
-7.60035e-05
2.07475e-07
-4.18263e-08
-5.10668e-05
-2.72616e-05
3.34624e-08
-2.72913e-05
1.1231e-07
-5.11475e-05
-7.61137e-05
2.05931e-07
-1.16285e-07
-7.62294e-05
2.19665e-07
-3.32351e-08
-5.12308e-05
-2.73198e-05
3.20455e-08
-2.73503e-05
1.19274e-07
-5.13216e-05
-7.63536e-05
2.27274e-07
-1.27681e-07
-7.64871e-05
2.51384e-07
-3.31015e-08
-5.1419e-05
-2.73833e-05
3.79062e-08
-2.74128e-05
1.38915e-07
-5.15176e-05
-7.66205e-05
2.5582e-07
-1.58342e-07
-7.67675e-05
2.70212e-07
-4.8167e-08
-5.16247e-05
-2.7445e-05
4.31564e-08
-2.74779e-05
1.56954e-07
-5.17376e-05
-7.6922e-05
2.82771e-07
-1.40554e-07
-7.70875e-05
3.20406e-07
-2.4973e-08
-5.18608e-05
-2.75173e-05
1.87586e-08
-2.75578e-05
1.40489e-07
-5.19907e-05
-7.72597e-05
3.46586e-07
-1.60561e-07
-7.74391e-05
3.83887e-07
-2.61287e-08
-5.21245e-05
-2.75989e-05
3.64874e-08
-2.76458e-05
1.82575e-07
-5.22706e-05
-7.76335e-05
4.06896e-07
-1.96525e-07
-7.78415e-05
4.43487e-07
-4.0346e-08
-5.24302e-05
-2.77047e-05
6.07696e-08
-2.77708e-05
2.29155e-07
-5.25989e-05
-7.80539e-05
4.57339e-07
-2.89023e-07
-7.82924e-05
4.73863e-07
-1.02017e-07
-5.27863e-05
-2.78509e-05
1.11216e-07
-2.79458e-05
3.11139e-07
-5.29892e-05
-7.85383e-05
5.12086e-07
-3.4063e-07
-7.87941e-05
5.72888e-07
-1.23596e-07
-5.32087e-05
-2.80609e-05
1.70467e-07
-2.81969e-05
4.1393e-07
-5.34523e-05
-7.9069e-05
6.03533e-07
-4.66701e-07
-7.93802e-05
6.63675e-07
-2.05248e-07
-5.37143e-05
-2.83567e-05
1.46225e-07
-2.85459e-05
4.13369e-07
-5.40028e-05
-7.96991e-05
7.85043e-07
-3.96922e-07
-8.00275e-05
9.2509e-07
-1.10444e-07
-5.43165e-05
-2.8779e-05
2.12652e-07
-2.90478e-05
5.39777e-07
-5.46576e-05
-8.03755e-05
9.79473e-07
-7.83537e-07
-8.0761e-05
1.01852e-06
-3.91984e-07
-5.5034e-05
-2.93574e-05
4.78987e-07
-2.97217e-05
9.12814e-07
-5.54552e-05
-8.11769e-05
1.11524e-06
-9.88503e-07
-8.16532e-05
1.27746e-06
-5.12248e-07
-5.59263e-05
-3.01516e-05
4.32317e-07
-3.06632e-05
9.29804e-07
-5.64518e-05
-8.21401e-05
1.54608e-06
-1.07947e-06
-8.27029e-05
1.80176e-06
-5.08835e-07
-5.70478e-05
-3.12567e-05
8.16257e-07
-3.2083e-05
1.55533e-06
-5.7785e-05
-8.28013e-05
1.69914e-06
-1.54378e-06
-8.33123e-05
2.05378e-06
-9.49242e-07
-5.83711e-05
-3.3022e-05
7.46923e-07
-3.37616e-05
1.40807e-06
-5.90288e-05
-8.38541e-05
1.93697e-06
-1.24063e-06
-8.53461e-05
2.72672e-06
-2.93421e-07
-5.99766e-05
-3.40558e-05
1.29179e-06
-3.53437e-05
1.68316e-06
-6.03664e-05
-8.61441e-05
2.47337e-06
-1.99556e-06
-8.69321e-05
2.76791e-06
-6.01701e-07
-6.17537e-05
-3.59346e-05
9.41001e-07
-3.68576e-05
1.72087e-06
-6.25261e-05
-8.82035e-05
2.96433e-06
-2.3655e-06
-8.88995e-05
3.03767e-06
-1.04089e-06
-6.38438e-05
-3.78807e-05
1.09698e-06
-3.89748e-05
1.93444e-06
-6.46771e-05
-9.06833e-05
3.72356e-06
-2.64011e-06
-9.18716e-05
3.85169e-06
-1.38168e-06
-6.59386e-05
-4.03688e-05
1.34831e-06
-4.17243e-05
2.59002e-06
-6.71868e-05
-9.29778e-05
3.6916e-06
-2.57011e-06
-9.47701e-05
4.34462e-06
-1.13931e-06
-6.86075e-05
-4.28496e-05
1.08943e-06
-4.38865e-05
2.89508e-06
-7.03982e-05
-9.66027e-05
4.63858e-06
-4.23615e-06
-9.96024e-05
7.31763e-06
-2.39428e-06
-7.22791e-05
-4.62973e-05
2.3956e-06
-4.88435e-05
6.27327e-06
-7.62068e-05
-0.000103667
1.05701e-05
6.75667e-05
-5.04264e-05
-0.000121407
2.6879e-05
-3.5575e-05
-2.15884e-05
3.95251e-06
-2.60282e-05
1.72727e-05
-4.58295e-05
-6.60376e-05
2.98305e-05
-8.91575e-06
-7.30725e-05
1.5484e-05
-3.29643e-06
-5.14669e-05
-2.90653e-05
9.84155e-07
-3.0144e-05
2.31568e-06
-5.27885e-05
-7.43033e-05
3.73764e-06
-1.27044e-07
-7.44407e-05
4.35006e-07
-2.95201e-07
-5.26046e-05
-3.04814e-05
1.52328e-06
-3.19678e-05
3.34183e-06
-5.43896e-05
-7.61411e-05
5.05084e-06
-2.44648e-06
-7.73767e-05
3.77064e-06
-1.16855e-06
-5.5634e-05
-3.31229e-05
2.23347e-06
-3.53088e-05
4.37178e-06
-5.77223e-05
-7.97914e-05
6.83779e-06
-2.839e-06
-8.18921e-05
4.88419e-06
-1.59676e-06
-5.89093e-05
-3.68217e-05
2.38099e-06
-3.91964e-05
4.99304e-06
-6.14968e-05
-8.44712e-05
7.61783e-06
-4.11306e-06
-8.7217e-05
7.36776e-06
-1.75443e-06
-6.3884e-05
-4.12196e-05
2.29573e-06
-4.39515e-05
5.88303e-06
-6.7566e-05
-9.22006e-05
1.18592e-05
-9.17605e-06
-9.9005e-05
1.67571e-05
-3.91272e-06
-7.29135e-05
-4.83123e-05
-2.52743e-05
-2.24895e-05
-6.26406e-05
-3.56924e-05
-4.93665e-05
-0.000113118
-2.05686e-05
-6.5721e-05
3.27059e-05
-5.61108e-06
-4.63229e-05
-2.89471e-05
4.71919e-06
-3.34723e-05
1.24644e-05
-5.41923e-05
-7.42786e-05
2.05471e-05
-7.1829e-06
-8.06969e-05
1.38314e-05
-3.50681e-06
-5.79073e-05
-3.71266e-05
2.52597e-06
-3.9645e-05
6.42631e-06
-6.18038e-05
-8.44829e-05
1.02357e-05
-5.70468e-06
-8.80699e-05
8.89796e-06
-2.62418e-06
-6.48329e-05
-4.20592e-05
2.78853e-06
-4.47273e-05
5.8946e-06
-6.7895e-05
-9.17572e-05
9.38149e-06
-7.11099e-06
-9.69003e-05
1.2158e-05
-3.0321e-06
-7.19378e-05
-4.76995e-05
3.18354e-06
-5.08625e-05
6.83452e-06
-7.57355e-05
-0.000101504
1.15372e-05
6.58234e-05
-5.04604e-05
-0.000116605
2.70141e-05
-3.67712e-05
-2.41194e-05
8.19501e-06
-3.0731e-05
1.57361e-05
-4.80411e-05
-6.62071e-05
3.4071e-05
-1.13842e-05
-7.55765e-05
2.10572e-05
-4.32123e-06
-5.50432e-05
-3.51791e-05
3.11807e-06
-3.79298e-05
6.50357e-06
-5.82989e-05
-7.90008e-05
9.26721e-06
-3.83393e-06
-8.09612e-05
5.94949e-06
-1.72892e-06
-6.04049e-05
-3.97545e-05
2.90457e-06
-4.29894e-05
6.22785e-06
-6.38131e-05
-8.66421e-05
1.25852e-05
-9.0658e-06
-9.2589e-05
1.57256e-05
-4.05425e-06
-6.89145e-05
-4.74193e-05
-2.36888e-05
-2.30487e-05
-5.83091e-05
-3.4471e-05
-4.66855e-05
-0.000105073
-2.19454e-05
-6.23669e-05
3.32765e-05
-5.87813e-06
-4.60189e-05
-2.98439e-05
6.67348e-06
-3.59826e-05
1.45639e-05
-5.39166e-05
-7.24314e-05
2.3503e-05
-9.29185e-06
-8.06557e-05
1.83027e-05
-3.76065e-06
-5.95339e-05
-4.01903e-05
4.32324e-06
-4.4752e-05
9.27259e-06
-6.45486e-05
-8.72831e-05
1.64261e-05
-7.60026e-06
-9.16268e-05
1.20744e-05
-3.25e-06
-6.88055e-05
-4.81977e-05
-2.4736e-05
-2.29972e-05
-5.92484e-05
-3.45233e-05
-4.59334e-05
-0.000105395
-2.09755e-05
-6.05885e-05
3.17276e-05
-5.65998e-06
-4.4888e-05
-3.03011e-05
5.82081e-06
-3.54538e-05
1.27631e-05
-5.18651e-05
-6.97893e-05
2.07859e-05
-9.0385e-06
-7.59594e-05
1.54515e-05
-3.96514e-06
-5.69477e-05
-3.95333e-05
4.65938e-06
-4.41916e-05
1.05498e-05
-6.2752e-05
-8.28108e-05
1.72816e-05
5.30017e-05
-4.23428e-05
-9.37921e-05
2.19581e-05
-3.19852e-05
-2.18039e-05
5.5529e-06
-2.92255e-05
2.16167e-05
-4.2665e-05
-5.66441e-05
3.18159e-05
-1.52917e-05
-6.83052e-05
2.59071e-05
-7.09567e-06
-5.08934e-05
-3.57587e-05
5.3888e-06
-4.11945e-05
1.24653e-05
-5.79732e-05
-7.68247e-05
2.10637e-05
-7.68518e-06
-8.14422e-05
1.23184e-05
-4.00046e-06
-6.16639e-05
-4.51949e-05
-2.26034e-05
-2.25981e-05
-5.25723e-05
-3.16922e-05
-4.18756e-05
-9.21104e-05
-1.89336e-05
-5.60307e-05
3.29223e-05
-7.64728e-06
-4.29244e-05
-3.0158e-05
6.61581e-06
-3.69671e-05
1.37044e-05
-5.01431e-05
-6.54124e-05
2.36405e-05
4.24793e-05
-3.42557e-05
-7.35354e-05
1.83337e-05
-2.56262e-05
-1.90624e-05
8.71924e-06
-2.59516e-05
1.52176e-05
-3.59455e-05
-4.726e-05
3.06345e-05
-1.40732e-05
-5.55381e-05
2.19335e-05
-6.60934e-06
-4.30617e-05
-3.25936e-05
-1.62198e-05
-1.62203e-05
-3.77073e-05
-2.15688e-05
-2.78501e-05
-6.55963e-05
-1.07986e-05
-3.52708e-05
1.82384e-05
-5.0711e-06
-2.73023e-05
-2.13027e-05
-1.27087e-05
-8.59344e-06
-2.8501e-05
-1.15096e-05
-1.52046e-05
-4.85632e-05
7.86034e-07
-1.65242e-05
5.31868e-07
5.63425e-07
-1.12878e-05
-8.03068e-06
-1.36059e-05
5.57473e-06
-3.24085e-05
7.514e-06
9.60612e-06
-5.85398e-05
2.53878e-05
2.64194e-05
-4.22009e-05
1.17338e-05
2.11682e-05
1.73088e-05
-1.08388e-05
2.81479e-05
-2.39405e-05
3.42704e-05
4.2886e-05
-4.04067e-05
2.75701e-05
6.34862e-05
-4.81684e-05
1.15364e-05
5.03047e-05
3.96848e-05
-1.34815e-05
5.31698e-05
-3.28839e-05
6.97092e-05
8.96956e-05
-5.9095e-05
-4.88782e-05
5.56714e-05
8.29049e-05
-2.13127e-05
4.21454e-05
3.1858e-05
-1.91394e-05
5.09917e-05
-4.37091e-05
6.67121e-05
8.72961e-05
-7.53317e-05
-4.04154e-05
5.92553e-05
6.84306e-05
-1.84094e-05
4.47012e-05
3.25814e-05
-2.41163e-05
5.66791e-05
-5.575e-05
7.64167e-05
9.97281e-05
-9.60471e-05
-3.77945e-05
7.5126e-05
6.16618e-05
-1.73274e-05
5.5445e-05
4.00073e-05
8.99728e-06
2.62135e-05
3.67398e-05
3.71514e-05
4.87787e-05
5.78946e-05
4.83245e-05
8.61758e-05
-8.52439e-05
1.80884e-05
6.46552e-05
4.64872e-05
1.39178e-05
3.22962e-05
3.32562e-05
4.57193e-05
6.015e-05
5.90624e-05
5.98634e-05
0.000107299
-0.000106977
2.47602e-05
8.07932e-05
5.70586e-05
1.40779e-05
4.29619e-05