/*--------------------------------*- C++ -*----------------------------------*\
| =========                 |                                                 |
| \\      /  F ield         | OpenFOAM: The Open Source CFD Toolbox           |
|  \\    /   O peration     | Version:  v2006                                 |
|   \\  /    A nd           | Website:  www.openfoam.com                      |
|    \\/     M anipulation  |                                                 |
\*---------------------------------------------------------------------------*/
FoamFile
{
    version     2.0;
    format      ascii;
    class       volScalarField;
    location    "0.046";
    object      turbulenceProperties:I;
}
// * * * * * * * * * * * * * * * * * * * * * * * * * * * * * * * * * * * * * //

dimensions      [0 0 0 0 0 0 0];


internalField   nonuniform List<scalar> 
12716
(
0.15
0.15
0.15
0.15
0.15
0.15
0.15
0.15
0.149999
0.149999
0.150002
0.150006
0.15001
0.150013
0.150013
0.150012
0.150011
0.150009
0.150008
0.150007
0.150006
0.150005
0.150005
0.150004
0.150004
0.150003
0.150003
0.150002
0.150002
0.150002
0.150001
0.150001
0.150001
0.150001
0.150001
0.150001
0.150001
0.150001
0.150001
0.150001
0.150001
0.150001
0.150001
0.15
0.15
0.15
0.15
0.15
0.15
0.149999
0.149998
0.149997
0.149997
0.149997
0.149999
0.150006
0.150015
0.150025
0.150026
0.150016
0.150003
0.149991
0.149978
0.149976
0.149974
0.149978
0.149991
0.150009
0.149879
0.14935
0.145132
0.138247
0.145673
0.1488
0.146607
0.14053
0.132746
0.127936
0.13512
0.143621
0.140882
0.13082
0.124244
0.121127
0.126655
0.137913
0.135608
0.123776
0.118927
0.11694
0.120789
0.133031
0.131349
0.119132
0.115733
0.114431
0.116843
0.129144
0.127925
0.115911
0.113763
0.112876
0.11416
0.126072
0.125158
0.11363
0.112507
0.111879
0.112244
0.123574
0.122878
0.111945
0.111679
0.11122
0.110833
0.121499
0.12096
0.110648
0.111118
0.110777
0.109752
0.119745
0.119329
0.109648
0.11074
0.110474
0.1089
0.11824
0.117914
0.10885
0.110477
0.110265
0.108213
0.116934
0.116671
0.108204
0.110297
0.110125
0.107653
0.115791
0.115577
0.107676
0.110177
0.110036
0.107194
0.114783
0.114609
0.107245
0.110104
0.109987
0.106819
0.113889
0.113751
0.106894
0.110068
0.109972
0.106516
0.113096
0.112991
0.106614
0.110063
0.109984
0.106277
0.112393
0.112318
0.106395
0.110086
0.110022
0.106096
0.111772
0.111725
0.106232
0.110133
0.110083
0.105966
0.111226
0.111207
0.106122
0.110203
0.110166
0.105886
0.110752
0.110759
0.106061
0.110296
0.110271
0.105854
0.110346
0.11038
0.106048
0.110411
0.110398
0.105869
0.110008
0.110069
0.106083
0.110548
0.110548
0.105931
0.109736
0.109826
0.106168
0.110711
0.110724
0.106043
0.109532
0.10965
0.106302
0.110899
0.110925
0.106204
0.109395
0.109543
0.106488
0.111115
0.111155
0.106417
0.109326
0.109506
0.106727
0.111359
0.111413
0.106683
0.109327
0.10954
0.107022
0.111634
0.111702
0.107005
0.109399
0.109647
0.107373
0.11194
0.112024
0.107384
0.109545
0.109829
0.107786
0.112281
0.11238
0.107825
0.109766
0.11009
0.108262
0.112659
0.112775
0.108331
0.110068
0.110434
0.108808
0.113077
0.113212
0.108908
0.110455
0.110867
0.109428
0.11354
0.113695
0.109562
0.110932
0.111395
0.11013
0.114051
0.114228
0.110299
0.111508
0.112027
0.110921
0.114617
0.114817
0.11113
0.11219
0.112769
0.111812
0.115242
0.11547
0.112063
0.112987
0.113635
0.112812
0.115936
0.116194
0.113111
0.113913
0.114637
0.113936
0.116708
0.117001
0.114289
0.11498
0.11579
0.115199
0.117568
0.117901
0.115613
0.116206
0.117111
0.11662
0.118529
0.118905
0.117101
0.117607
0.118617
0.118216
0.119601
0.120025
0.118771
0.1192
0.120325
0.120006
0.120795
0.121269
0.120642
0.121003
0.122254
0.122007
0.122118
0.122644
0.12273
0.123031
0.124418
0.124236
0.123576
0.124153
0.12505
0.125299
0.126824
0.1267
0.125164
0.125785
0.127608
0.127807
0.129471
0.129402
0.126871
0.127527
0.130398
0.130553
0.132348
0.132329
0.128676
0.129347
0.1334
0.133515
0.135419
0.135443
0.130536
0.131192
0.136563
0.136643
0.138622
0.138676
0.132384
0.132984
0.139803
0.139864
0.141864
0.141923
0.134127
0.134621
0.143
0.143069
0.145017
0.145038
0.135655
0.135987
0.145989
0.146115
0.147923
0.147841
0.136848
0.136964
0.148576
0.148836
0.15041
0.150131
0.137589
0.137451
0.150567
0.151066
0.152324
0.151729
0.137802
0.137405
0.151802
0.152672
0.15356
0.152517
0.137471
0.136847
0.152203
0.153575
0.154079
0.152459
0.136616
0.135847
0.15178
0.153776
0.153927
0.151524
0.135307
0.134458
0.150403
0.153279
0.153077
0.149755
0.133696
0.132763
0.148341
0.152122
0.151637
0.147451
0.131893
0.13091
0.145898
0.150473
0.149793
0.144869
0.129998
0.129023
0.143264
0.148499
0.147703
0.142177
0.128181
0.127254
0.140593
0.146353
0.145504
0.139511
0.126493
0.125633
0.137991
0.144148
0.143288
0.136951
0.124952
0.124168
0.135525
0.141966
0.141125
0.134549
0.123564
0.122859
0.133231
0.139863
0.13906
0.132331
0.122331
0.121706
0.131131
0.137875
0.137125
0.130314
0.121249
0.120698
0.12923
0.136024
0.135329
0.128495
0.120301
0.119816
0.127522
0.134312
0.133674
0.126863
0.119471
0.119043
0.125991
0.132737
0.132154
0.125402
0.118744
0.118367
0.124622
0.131293
0.130761
0.124096
0.118105
0.117771
0.123396
0.129969
0.129483
0.122927
0.117542
0.117245
0.122297
0.128752
0.128307
0.121877
0.117044
0.116778
0.121305
0.127628
0.127218
0.120925
0.116598
0.116358
0.1204
0.126581
0.1262
0.120055
0.116196
0.115979
0.119568
0.125598
0.125242
0.119253
0.11583
0.115632
0.118796
0.124667
0.124332
0.118506
0.115495
0.115316
0.118076
0.12378
0.123464
0.11781
0.115193
0.115032
0.117402
0.12293
0.122631
0.117156
0.114918
0.114771
0.116764
0.122111
0.121824
0.116535
0.114664
0.11453
0.116153
0.121311
0.121033
0.115937
0.114426
0.114302
0.115561
0.120521
0.120256
0.115359
0.114204
0.114087
0.114998
0.11975
0.119483
0.114787
0.113994
0.113865
0.114442
0.118976
0.118663
0.114219
0.11376
0.113589
0.113851
0.118229
0.118014
0.113699
0.113507
0.113374
0.113436
0.117637
0.117175
0.113005
0.113316
0.113042
0.112947
0.117048
0.116619
0.112538
0.112925
0.128586
0.139571
0.1486
0.156491
0.162789
0.167888
0.171911
0.174847
0.177089
0.17855
0.179454
0.179662
0.179304
0.178212
0.176485
0.17387
0.170403
0.16585
0.160755
0.15434
0.144791
0.134922
0.128148
0.116174
0.106528
0.105118
0.112815
0.117482
0.109394
0.109155
0.10143
0.110883
0.135789
0.131661
0.117726
0.108945
0.108551
0.116806
0.132373
0.132776
0.118281
0.10964
0.109532
0.118081
0.133573
0.133723
0.118537
0.109935
0.109966
0.11855
0.134203
0.134109
0.119055
0.110379
0.110419
0.118772
0.134606
0.134417
0.119163
0.110842
0.110828
0.119001
0.134493
0.13441
0.119452
0.111289
0.111226
0.119139
0.134367
0.134285
0.119528
0.111675
0.111602
0.119211
0.134216
0.134164
0.119615
0.112072
0.111994
0.119273
0.134095
0.134078
0.119641
0.112493
0.112373
0.119293
0.133988
0.1339
0.11969
0.11287
0.112754
0.119362
0.133843
0.13376
0.119766
0.113281
0.113167
0.119436
0.133707
0.133634
0.119857
0.113716
0.113589
0.119534
0.133577
0.133505
0.119955
0.114153
0.114017
0.119613
0.13344
0.133375
0.120039
0.114591
0.114442
0.119695
0.133305
0.133233
0.120131
0.115039
0.114885
0.119786
0.133167
0.133096
0.120227
0.115504
0.115339
0.119871
0.13303
0.132956
0.12032
0.115981
0.115805
0.119986
0.132884
0.132786
0.120509
0.116457
0.116301
0.120131
0.132719
0.132684
0.12061
0.116991
0.116815
0.120239
0.132573
0.132534
0.120734
0.117526
0.117338
0.120353
0.132397
0.132368
0.120855
0.118087
0.117898
0.120468
0.132227
0.132212
0.121002
0.118679
0.118475
0.120606
0.132062
0.132044
0.121149
0.119277
0.11906
0.120737
0.131882
0.131866
0.121284
0.119872
0.119639
0.12086
0.131693
0.131678
0.121435
0.120491
0.120257
0.121008
0.131501
0.131502
0.121615
0.12115
0.120905
0.121173
0.131312
0.131321
0.121798
0.121837
0.121583
0.12134
0.131114
0.131135
0.121992
0.122538
0.122264
0.121522
0.130906
0.130938
0.122182
0.123251
0.122968
0.121679
0.130697
0.130766
0.122292
0.123978
0.123638
0.12182
0.1305
0.130522
0.122483
0.124661
0.12431
0.121967
0.130276
0.130289
0.122616
0.125342
0.124961
0.122073
0.130025
0.130017
0.122743
0.126015
0.125606
0.122174
0.129728
0.129762
0.122789
0.12667
0.126239
0.122148
0.129424
0.129448
0.122745
0.127294
0.126823
0.122041
0.129058
0.129067
0.122588
0.127863
0.127336
0.121815
0.128622
0.128644
0.122265
0.128393
0.127818
0.121388
0.128143
0.128116
0.121732
0.128859
0.128186
0.120776
0.127505
0.127498
0.121
0.129275
0.128493
0.119888
0.126729
0.126422
0.119978
0.129577
0.128735
0.118776
0.125388
0.125168
0.119469
0.130315
0.129489
0.118401
0.124208
0.1239
0.119185
0.130991
0.130307
0.118103
0.12297
0.122854
0.119393
0.132274
0.13178
0.118448
0.122197
0.121924
0.119541
0.133755
0.133341
0.118715
0.12117
0.121054
0.119585
0.135461
0.135124
0.118681
0.120145
0.119442
0.119789
0.13727
0.137064
0.119388
0.118682
0.118421
0.120453
0.139469
0.139341
0.119739
0.117707
0.117057
0.120338
0.141494
0.141346
0.119622
0.116158
0.115445
0.120243
0.143679
0.143755
0.119699
0.114637
0.114245
0.12049
0.14647
0.146652
0.12002
0.113778
0.114057
0.121338
0.149879
0.150597
0.12165
0.114827
0.117392
0.125614
0.154719
0.156204
0.127325
0.119594
0.123001
0.136215
0.161602
0.164238
0.143089
0.12548
0.123096
0.108668
0.12332
0.157914
0.126098
0.121367
0.121828
0.127571
0.158971
0.170204
0.135979
0.127213
0.135656
0.139046
0.176657
0.201326
0.153091
0.148288
0.155004
0.177353
0.222494
0.237926
0.20611
0.167223
0.171631
0.212107
0.24716
0.261038
0.23044
0.178787
0.183786
0.238758
0.271364
0.27858
0.245146
0.187881
0.189125
0.242178
0.274117
0.29034
0.255808
0.200052
0.208739
0.268092
0.301576
0.316384
0.283362
0.218972
0.229474
0.29984
0.333254
0.350198
0.317043
0.24243
0.256713
0.346437
0.378502
0.405775
0.371412
0.268338
0.280905
0.398796
0.434598
0.447167
0.410896
0.288653
0.302845
0.438323
0.47469
0.50803
0.466018
0.317236
0.335482
0.500579
0.5451
0.565462
0.523674
0.350674
0.378686
0.569317
0.612088
0.671996
0.634129
0.419128
0.468647
0.715217
0.754336
0.846725
0.812267
0.535308
0.631251
0.92759
0.928948
1
1
0.801873
1
1
1
1
1
1
1
1
0.902389
0.67859
0.739148
0.675066
0.446839
0.531681
0.51402
0.408489
0.416039
0.321908
0.245782
0.319306
0.313122
0.262783
0.263673
0.19326
0.159941
0.227063
0.224113
0.200335
0.193209
0.139394
0.133365
0.175968
0.18621
0.176713
0.165966
0.140517
0.155133
0.161697
0.173631
0.164855
0.157592
0.176708
0.197695
0.160136
0.166509
0.169711
0.163733
0.212859
0.219313
0.161868
0.16293
0.166146
0.16715
0.223498
0.223067
0.168637
0.165006
0.166804
0.170805
0.222532
0.220723
0.169814
0.162935
0.165742
0.171637
0.217799
0.211526
0.174641
0.164081
0.165862
0.175477
0.208121
0.202789
0.175613
0.16207
0.164514
0.175286
0.195828
0.18883
0.172148
0.161873
0.167994
0.171958
0.181155
0.179472
0.172045
0.167733
0.169653
0.174316
0.180164
0.178557
0.175474
0.166788
0.169743
0.177176
0.176992
0.177922
0.180139
0.168879
0.171115
0.181456
0.17566
0.17523
0.181114
0.16944
0.170815
0.181162
0.1746
0.174201
0.183204
0.171338
0.171716
0.182478
0.170857
0.16785
0.181333
0.173662
0.170576
0.176641
0.165932
0.164895
0.177204
0.171849
0.169879
0.173428
0.160423
0.155711
0.171273
0.169522
0.160878
0.148311
0.149796
0.141394
0.149422
0.165099
0.15898
0.140342
0.137607
0.131588
0.130526
0.148241
0.147462
0.127197
0.127324
0.123325
0.112539
0.122651
0.14255
0.133712
0.123612
0.122622
0.130254
0.140117
0.131188
0.119578
0.121075
0.118315
0.115039
0.128243
0.105289
0.100519
0.117805
0.114221
0.118585
0.128262
0.123175
0.11173
0.11343
0.111757
0.10697
0.118749
0.0979543
0.0949466
0.112311
0.109095
0.110377
0.119761
0.114512
0.103751
0.108988
0.108304
0.0999549
0.10917
0.0910442
0.0902144
0.109512
0.104516
0.101485
0.111887
0.108419
0.0981179
0.104969
0.105839
0.0925029
0.100141
0.0972225
0.0902665
0.105467
0.107468
0.0841328
0.0825186
0.101914
0.0926962
0.100328
0.101158
0.0891821
0.0967294
0.0921892
0.0867247
0.101717
0.104458
0.0822482
0.0793091
0.0961936
0.0880922
0.0972158
0.0986238
0.0841356
0.0909842
0.0871637
0.0817485
0.0993188
0.102991
0.0790133
0.0755328
0.092259
0.0845296
0.0948812
0.0960643
0.0810585
0.0875492
0.083364
0.0786543
0.0973914
0.102175
0.0757375
0.073021
0.0875157
0.0803891
0.0926637
0.094206
0.0777346
0.0828829
0.0795511
0.0755382
0.0955835
0.100679
0.0732588
0.0702563
0.0840151
0.077248
0.0900303
0.0915973
0.0749381
0.079714
0.0764694
0.0734444
0.094011
0.100313
0.0717924
0.0685148
0.079725
0.0737456
0.0877353
0.0890698
0.0720494
0.0772115
0.0674925
0.0702644
0.0941447
0.0859309
0.073824
0.080259
0.076051
0.0717538
0.0880723
0.090802
0.0706218
0.0727968
0.066083
0.0691718
0.0968295
0.0853368
0.0709101
0.0760097
0.0718901
0.0685779
0.0869621
0.0898227
0.0681518
0.0693486
0.0643231
0.0690895
0.0956475
0.08389
0.0676993
0.0707919
0.0690078
0.0665934
0.0860292
0.0913918
0.0668277
0.0626983
0.0707309
0.0667714
0.0818055
0.0841732
0.0647792
0.0668894
0.0651188
0.0651617
0.0875953
0.0941675
0.0661877
0.0615114
0.0659241
0.0638187
0.0815072
0.0836715
0.0632409
0.0645616
0.0596367
0.0641899
0.0890743
0.078917
0.0628284
0.0659086
0.0630118
0.0614149
0.081374
0.0851906
0.0617533
0.0613878
0.0587521
0.0635611
0.0924057
0.0795801
0.0607428
0.0623765
0.0609736
0.0604019
0.0816057
0.0872464
0.0620015
0.0571269
0.0623612
0.0600515
0.0771369
0.079718
0.0591811
0.0595326
0.0581851
0.0590176
0.0836778
0.0907469
0.0634186
0.0564403
0.0577978
0.0578672
0.0778681
0.0803556
0.056735
0.0563419
0.0545809
0.0614728
0.0862345
0.0752175
0.056583
0.0568618
0.055163
0.0559723
0.0778998
0.0820559
0.0557334
0.0542106
0.053802
0.0616368
0.0899062
0.0768156
0.054938
0.0543824
0.0530906
0.0540497
0.0792946
0.0853826
0.0599406
0.0523234
0.0540703
0.0542905
0.0738576
0.0769539
0.0535886
0.0526512
0.0520346
0.0595921
0.0834224
0.0730155
0.0536302
0.0530667
0.0519976
0.0532285
0.0766878
0.083175
0.0594174
0.0515102
0.0529599
0.0534405
0.0727166
0.0756407
0.0532183
0.0519334
0.0500001
0.0530262
0.08003
0.0868139
0.061028
0.0506563
0.0505918
0.0519826
0.0743841
0.0778801
0.0514154
0.0488123
0.0496395
0.0600436
0.084606
0.0731094
0.051167
0.0496637
0.0480476
0.0506294
0.076493
0.0828928
0.0589808
0.0487989
0.0491408
0.0504781
0.0718073
0.0753934
0.050088
0.0475452
0.0483507
0.0585444
0.0819909
0.071263
0.0497999
0.0484775
0.0477152
0.0503039
0.0746048
0.079431
0.0508251
0.0465405
0.0480233
0.060787
0.0860813
0.0731283
0.0495193
0.0475596
0.0458756
0.0490094
0.0766714
0.0833176
0.0589351
0.0471569
0.0470715
0.0488193
0.0715526
0.0753714
0.0485518
0.045439
0.0468419
0.0586009
0.0821492
0.0711728
0.0484034
0.0465151
0.0450483
0.048357
0.0751517
0.0817362
0.0584004
0.0464566
0.0462593
0.0480873
0.0704842
0.0742436
0.0478428
0.0446084
0.0460872
0.0581005
0.0810621
0.0701329
0.0475592
0.0456076
0.0441409
0.0475226
0.0740738
0.0809441
0.0579831
0.0457029
0.0452078
0.0472436
0.0702797
0.0738908
0.0481886
0.044168
0.0432272
0.0489496
0.078675
0.0853493
0.0605475
0.0457482
0.0439305
0.0466712
0.0720955
0.0760508
0.0464111
0.042456
0.0447367
0.0585177
0.082966
0.0707499
0.0457662
0.0431948
0.0418182
0.0457864
0.074895
0.0819491
0.057952
0.0441187
0.0427255
0.0453038
0.0700659
0.0742274
0.0454484
0.0414462
0.0438512
0.057712
0.0811652
0.0694437
0.0449096
0.0423217
0.0410307
0.0449646
0.0735996
0.0807721
0.0572656
0.0434144
0.0419791
0.0445346
0.0690788
0.0732405
0.0447851
0.04077
0.0432853
0.0571945
0.0804043
0.069072
0.0444166
0.0417769
0.040599
0.0446113
0.0732542
0.0803306
0.0570909
0.0430884
0.0415739
0.0441737
0.0686887
0.0727934
0.044407
0.0404012
0.0430237
0.0570417
0.0799533
0.068629
0.0440866
0.0413781
0.0402246
0.0442023
0.07273
0.0799207
0.0567975
0.0428084
0.0412321
0.0438628
0.0684162
0.0724721
0.04414
0.0401038
0.0426006
0.0565841
0.0796344
0.0683619
0.0437397
0.0410923
0.0401445
0.0447442
0.0717303
0.0767111
0.0462552
0.039427
0.0434969
0.0597094
0.083785
0.0707814
0.0442798
0.0409416
0.0398294
0.0442912
0.0749662
0.0822223
0.0578505
0.0429546
0.0407821
0.0436988
0.0697584
0.0739615
0.0439627
0.0396214
0.0427967
0.0574917
0.0812103
0.0691351
0.0434765
0.0405884
0.0394698
0.0438399
0.0733775
0.0806827
0.0572297
0.0425976
0.0404209
0.0433049
0.0688747
0.0730233
0.0435584
0.0392897
0.0424787
0.0570754
0.0802826
0.0684359
0.0431324
0.0402121
0.039152
0.0435611
0.0726898
0.0800165
0.0569517
0.042347
0.0400688
0.0430298
0.0681921
0.0723501
0.0432875
0.0389962
0.042242
0.0567174
0.0796985
0.0681579
0.0428632
0.0399143
0.0388884
0.0432387
0.0723554
0.0796211
0.0566919
0.0421796
0.0398267
0.0427944
0.068002
0.0721638
0.0430912
0.0388046
0.0421949
0.0565971
0.0793719
0.0676813
0.0426363
0.0396609
0.0386467
0.042981
0.0717554
0.0790219
0.0564268
0.0420327
0.0394782
0.0425393
0.0675156
0.071629
0.0427851
0.0385027
0.041775
0.0560369
0.0788875
0.0673547
0.0422767
0.0392866
0.0384218
0.0437221
0.0709121
0.0759603
0.0456041
0.0379362
0.0435299
0.0596956
0.0832376
0.0703429
0.0430148
0.0389802
0.0378711
0.0429562
0.0745783
0.081985
0.0574561
0.0422662
0.038231
0.0418356
0.0691879
0.0735833
0.042398
0.0373067
0.0418512
0.0572822
0.0810272
0.0687168
0.0417528
0.0379866
0.0371018
0.0421308
0.0730763
0.0804888
0.0567114
0.0414975
0.0377448
0.0413487
0.0681314
0.0724031
0.041804
0.0368691
0.0412174
0.056331
0.0797898
0.0677282
0.0411728
0.0375577
0.0366214
0.0413659
0.0718145
0.079272
0.0558739
0.0408471
0.037355
0.0408891
0.0673205
0.0716486
0.0414815
0.0366115
0.0408786
0.0559075
0.079032
0.0672651
0.0409809
0.0373936
0.0365407
0.0412564
0.0713466
0.0786656
0.0552606
0.0404036
0.0372731
0.0406341
0.0667393
0.0701038
0.0420611
0.0363655
0.0359119
0.0439569
0.0750409
0.0822708
0.058585
0.04212
0.0370656
0.0413682
0.0689534
0.0733887
0.0415583
0.036237
0.0411613
0.05683
0.0809468
0.0682175
0.0408471
0.0369088
0.036174
0.0413656
0.0724758
0.079811
0.0564182
0.0409474
0.0368076
0.0407054
0.0674695
0.0715461
0.0410564
0.0360408
0.0406231
0.0557028
0.0788414
0.0666946
0.0403198
0.0365944
0.0358047
0.0407227
0.070592
0.0779922
0.055329
0.0403201
0.0364539
0.0402666
0.0667368
0.0703902
0.0419994
0.035634
0.0352424
0.0437369
0.07543
0.0828899
0.0586785
0.04194
0.0363398
0.0410091
0.0692734
0.0734794
0.0412778
0.035492
0.0407805
0.0565703
0.080863
0.0679613
0.0402311
0.0360299
0.0351633
0.0403248
0.0718624
0.0791103
0.0553871
0.0399005
0.0356518
0.0395814
0.0666917
0.0703341
0.0413015
0.0348089
0.0345627
0.0433316
0.075457
0.0829351
0.0587853
0.0416988
0.0358687
0.0406826
0.0692564
0.0733749
0.040804
0.035007
0.0404623
0.0563904
0.080741
0.0677018
0.0397933
0.0355134
0.0347565
0.0403984
0.071837
0.0789162
0.0555036
0.039931
0.0352446
0.039401
0.0665334
0.0704085
0.0413495
0.0344431
0.0341575
0.0431138
0.0756495
0.0832527
0.0586379
0.0415047
0.0353736
0.0403148
0.0693018
0.0735164
0.0405813
0.0345598
0.0403222
0.0563224
0.0808766
0.0677102
0.0394865
0.0350294
0.0341797
0.0396248
0.0716353
0.0787942
0.0547539
0.0391541
0.0344706
0.0385463
0.0657117
0.0690212
0.0401099
0.033602
0.0333935
0.0423357
0.074212
0.0819011
0.05789
0.0408022
0.0347678
0.0397035
0.0682622
0.0722486
0.0398836
0.0339808
0.0395349
0.0552828
0.0794618
0.0664635
0.0387212
0.0343348
0.0335499
0.0405689
0.0696946
0.0742238
0.0423233
0.0332258
0.0408059
0.0577773
0.0813442
0.068003
0.0393676
0.0343812
0.0336677
0.0394412
0.0722835
0.0798872
0.0551652
0.0394682
0.0338404
0.0383905
0.0665817
0.0698876
0.0400574
0.0330726
0.0328386
0.0421576
0.074655
0.0817804
0.0577111
0.0404407
0.033953
0.0391049
0.0679888
0.0713267
0.0408611
0.0331287
0.0326454
0.041654
0.0755019
0.0831552
0.0578005
0.0406199
0.033629
0.0389972
0.0690495
0.0731813
0.0393031
0.0329625
0.0391253
0.055268
0.0803564
0.0667069
0.0379973
0.0332503
0.0323303
0.0393734
0.0697351
0.0741869
0.0410207
0.0319596
0.0392429
0.0565725
0.0810205
0.066154
0.0377984
0.0328899
0.0321721
0.0394028
0.0693928
0.0745213
0.0414698
0.0320452
0.0399097
0.0572319
0.0821692
0.0680163
0.0383665
0.0330431
0.032272
0.0397512
0.0712657
0.0756249
0.0411677
0.0319483
0.0397334
0.057001
0.082334
0.0669838
0.0376815
0.0324294
0.0317389
0.0391474
0.0698255
0.0744802
0.0410014
0.0315454
0.0396906
0.0570747
0.082267
0.068214
0.0380006
0.0324342
0.0316257
0.0382647
0.071772
0.0758797
0.0430982
0.0318198
0.0312042
0.0430377
0.0797506
0.0860503
0.0585044
0.0402061
0.0315691
0.0373238
0.0685936
0.0721539
0.0390904
0.0309964
0.03086
0.0408663
0.0772297
0.0846628
0.0575908
0.0394124
0.0317446
0.0376709
0.0690113
0.0718269
0.0371832
0.0305789
0.0305283
0.0415157
0.0759345
0.0781621
0.0401617
0.0296974
0.0386995
0.0575845
0.0851055
0.069385
0.0370726
0.0308994
0.0301077
0.036759
0.0731273
0.0769642
0.0422383
0.0306043
0.0301818
0.0427851
0.0808131
0.0867064
0.0586009
0.0395274
0.0307835
0.0367998
0.0681768
0.0720446
0.0377087
0.0300459
0.0299468
0.0401741
0.0768379
0.0816777
0.0430423
0.0301673
0.0293519
0.0422271
0.0850286
0.0904864
0.058491
0.0386567
0.0295309
0.0356242
0.0689928
0.0724877
0.0364304
0.0288563
0.0283878
0.0373321
0.0770222
0.0813378
0.0405343
0.0283615
0.0277917
0.0401095
0.0840901
0.0863659
0.0441683
0.028806
0.0280872
0.043864
0.0892978
0.0965529
0.0618156
0.0395836
0.02964
0.0371821
0.0736643
0.0751226
0.0365936
0.0288931
0.0287422
0.0404412
0.079097
0.0841033
0.0407611
0.0284647
0.0283257
0.0416152
0.0877982
0.0907985
0.042248
0.0281974
0.0284223
0.0445102
0.0946503
0.0976507
0.0443834
0.0282995
0.029188
0.047859
0.100729
0.104031
0.0491955
0.0295624
0.0305656
0.0521081
0.106062
0.107015
0.0535859
0.030934
0.0321079
0.0567028
0.107485
0.107611
0.058234
0.0324595
0.0338961
0.0615354
0.107695
0.10766
0.0629846
0.0342948
0.0360005
0.066073
0.107653
0.10759
0.0674701
0.0364947
0.0383989
0.0701848
0.107553
0.107531
0.0718495
0.0389435
0.0411364
0.073941
0.107497
0.107527
0.0756992
0.0417793
0.0442063
0.0773225
0.107512
0.107583
0.0789331
0.0448393
0.0473585
0.0803807
0.107581
0.107701
0.0818034
0.0480195
0.0505005
0.0831162
0.107692
0.107854
0.084372
0.0511405
0.0536241
0.0855578
0.107823
0.108021
0.0866589
0.054276
0.0567382
0.0877034
0.107982
0.108195
0.0886186
0.0573209
0.0596876
0.0895507
0.108165
0.10835
0.0903381
0.0602198
0.0624428
0.0911559
0.108362
0.108505
0.0917971
0.0628814
0.0649676
0.092523
0.108557
0.10866
0.0930659
0.0653405
0.0672659
0.0936994
0.108745
0.108806
0.0941212
0.067543
0.0693201
0.0946799
0.108895
0.108923
0.0950284
0.0695277
0.0711457
0.0955123
0.109022
0.109026
0.0957697
0.0712637
0.0727281
0.0961886
0.109104
0.109109
0.0964042
0.0727923
0.0741036
0.0967448
0.109175
0.10918
0.0968968
0.0741028
0.0752943
0.0971791
0.109224
0.10922
0.097298
0.0752493
0.0763136
0.0975379
0.109255
0.109246
0.0976005
0.0762162
0.0771835
0.0978002
0.109265
0.109248
0.09784
0.0770534
0.0779191
0.0980074
0.109263
0.109242
0.098002
0.077749
0.0785388
0.0981391
0.109245
0.109218
0.0981205
0.0783466
0.0790566
0.0982339
0.10922
0.10919
0.0981803
0.0788359
0.0794895
0.0982725
0.109185
0.109148
0.0982136
0.0792554
0.079846
0.0982886
0.109144
0.109105
0.0982024
0.079593
0.0801439
0.0982636
0.109096
0.109054
0.0981782
0.0798838
0.0803841
0.0982274
0.109047
0.109002
0.0981207
0.0800948
0.0805715
0.0981604
0.10899
0.108941
0.0980585
0.0802967
0.0807286
0.0980883
0.10893
0.108879
0.0979656
0.0804434
0.0808526
0.097986
0.108862
0.108809
0.09787
0.0805669
0.0809424
0.0978834
0.108794
0.108741
0.0977502
0.0806499
0.0810122
0.0977582
0.108723
0.108668
0.0976341
0.080721
0.0810621
0.0976381
0.108653
0.108598
0.0974996
0.0807622
0.0810897
0.0975017
0.108581
0.108526
0.0973731
0.0807907
0.081096
0.0973743
0.108512
0.108458
0.0972318
0.0807896
0.0810836
0.0972328
0.108443
0.108388
0.0971001
0.0807787
0.081054
0.0970997
0.108377
0.108322
0.0969532
0.0807411
0.0810078
0.0969529
0.108311
0.108255
0.0968166
0.080697
0.0809481
0.0968155
0.108248
0.108192
0.0966668
0.0806325
0.0808792
0.0966668
0.108185
0.108129
0.0965305
0.0805658
0.0807993
0.0965299
0.108126
0.108069
0.0963833
0.0804807
0.0807124
0.0963836
0.108067
0.10801
0.0962497
0.0803973
0.0806183
0.0962495
0.108012
0.107954
0.0961056
0.0803002
0.0805221
0.096107
0.107957
0.107898
0.0959764
0.0802093
0.0804226
0.095978
0.107905
0.107847
0.0958381
0.080108
0.0803241
0.0958421
0.107854
0.107795
0.0957159
0.0800155
0.0802244
0.0957207
0.107807
0.107747
0.0955857
0.0799147
0.0801275
0.0955934
0.107759
0.1077
0.0954724
0.0798243
0.0800307
0.0954812
0.107716
0.107656
0.0953516
0.0797266
0.0799377
0.0953635
0.107673
0.107613
0.0952478
0.0796401
0.0798454
0.0952611
0.107633
0.107574
0.0951369
0.0795471
0.0797577
0.0951534
0.107594
0.107535
0.0950431
0.0794658
0.0796709
0.095061
0.107558
0.1075
0.0949423
0.0793784
0.0795893
0.0949634
0.107523
0.107465
0.0948583
0.0793031
0.0795087
0.0948807
0.107491
0.107434
0.094767
0.0792216
0.0794332
0.0947925
0.10746
0.107403
0.0946922
0.0791523
0.0793586
0.0947186
0.107432
0.107376
0.0946095
0.0790766
0.0792891
0.0946388
0.107405
0.107348
0.0945427
0.0790129
0.0792201
0.0945728
0.107379
0.107323
0.0944676
0.0789425
0.0791559
0.0945004
0.107355
0.107298
0.094408
0.0788838
0.0790919
0.0944414
0.107332
0.107277
0.0943399
0.0788183
0.0790328
0.0943759
0.10731
0.107255
0.094287
0.0787648
0.0789743
0.0943235
0.10729
0.107236
0.0942253
0.0787048
0.078921
0.0942642
0.10727
0.107216
0.0941785
0.0786571
0.0788681
0.0942177
0.107253
0.107199
0.0941224
0.0786023
0.0788197
0.0941639
0.107235
0.107181
0.0940809
0.078559
0.0787709
0.0941225
0.107219
0.107167
0.0940298
0.078508
0.0787264
0.0940736
0.107203
0.107151
0.0939931
0.0784686
0.0786817
0.0940369
0.107189
0.107138
0.0939467
0.0784219
0.0786417
0.0939926
0.107175
0.107123
0.0939144
0.078387
0.0786014
0.0939602
0.107163
0.107111
0.093872
0.0783445
0.0785654
0.0939197
0.10715
0.107098
0.0938433
0.0783131
0.0785284
0.0938907
0.107138
0.107087
0.0938041
0.0782735
0.0784951
0.0938533
0.107126
0.107075
0.0937782
0.0782448
0.0784608
0.093827
0.107115
0.107065
0.0937418
0.078208
0.0784303
0.0937921
0.107104
0.107053
0.0937183
0.0781819
0.0783986
0.0937681
0.107094
0.107043
0.0936839
0.0781474
0.0783702
0.0937352
0.107083
0.107032
0.0936623
0.0781231
0.07834
0.0937129
0.107073
0.107023
0.0936295
0.0780899
0.078313
0.0936817
0.107063
0.107012
0.0936095
0.0780672
0.0782846
0.0936611
0.107054
0.107003
0.0935785
0.0780361
0.0782601
0.0936314
0.107044
0.106992
0.0935599
0.078016
0.0782341
0.0936121
0.107035
0.106984
0.0935299
0.0779868
0.0782107
0.0935832
0.107025
0.106974
0.093512
0.0779668
0.0781841
0.0935645
0.107016
0.106966
0.0934826
0.0779365
0.0781598
0.0935362
0.107007
0.106955
0.0934653
0.0779161
0.0781337
0.0935182
0.106998
0.106947
0.0934364
0.0778872
0.0781111
0.0934903
0.106988
0.106935
0.093419
0.0778686
0.0780861
0.0934714
0.106977
0.106924
0.0933884
0.0778393
0.0780615
0.093441
0.106964
0.106909
0.0933675
0.0778169
0.0780313
0.0934178
0.10695
0.106895
0.0933317
0.0777813
0.0779998
0.0933814
0.106933
0.106875
0.0933034
0.0777513
0.0779616
0.0933497
0.106911
0.106852
0.0932572
0.0777066
0.0779195
0.0933008
0.106883
0.10682
0.0932124
0.0776652
0.0778574
0.0932484
0.106847
0.106766
0.0931378
0.0775874
0.0777706
0.093158
0.106785
0.106674
0.0929865
0.0774386
0.0774993
0.0929939
0.106687
0.10636
0.0926133
0.0769291
0.0763079
0.0922525
0.106143
0.105391
0.091106
0.0752386
0.0726463
0.0894566
0.104467
0.10298
0.087425
0.0703636
0.0670524
0.0854616
0.101494
0.0510094
0.0437165
0.0436686
0.0468892
0.0507352
0.0524963
0.0560704
0.0598443
0.0609663
0.0617954
0.0622252
0.0623852
0.0623837
0.0622972
0.0621751
0.0620465
0.0619256
0.0618185
0.0617263
0.0616484
0.0615832
0.0615291
0.0614842
0.0614478
0.0614182
0.0613957
0.0613789
0.0613678
0.0613612
0.0613582
0.0613579
0.0613565
0.0613545
0.0613516
0.0613479
0.0613435
0.0613385
0.061333
0.061327
0.0613207
0.0613141
0.0613075
0.061301
0.0612949
0.0612892
0.0612842
0.0612799
0.0612762
0.0612728
0.0612688
0.0612627
0.0612523
0.0612364
0.0612167
0.0611971
0.0611816
0.0611738
0.0611764
0.0611912
0.0612199
0.0612601
0.0613119
0.0613754
0.0614494
0.0615328
0.0616253
0.0617267
0.0618377
0.0619594
0.062093
0.0622402
0.0624025
0.0625817
0.0627797
0.0629983
0.0632394
0.0635049
0.0637966
0.0641162
0.0644654
0.0648456
0.0652581
0.065704
0.0661841
0.066699
0.067249
0.0678342
0.0684545
0.0691094
0.0697985
0.070521
0.0712759
0.0720622
0.0728787
0.0737242
0.0745974
0.0754968
0.0764211
0.0773688
0.0783386
0.0793288
0.0803382
0.0813653
0.0824088
0.0834673
0.0845394
0.085624
0.0867197
0.0878255
0.08894
0.0900622
0.0911911
0.0923255
0.0934644
0.0946069
0.095752
0.0968988
0.0980462
0.0991936
0.10034
0.101484
0.102626
0.103765
0.104899
0.106029
0.107153
0.108271
0.109383
0.110487
0.111583
0.112671
0.113751
0.114821
0.115881
0.116931
0.11797
0.118997
0.120013
0.121017
0.122008
0.122986
0.12395
0.1249
0.125835
0.126756
0.127661
0.128551
0.129424
0.130281
0.131122
0.131945
0.132752
0.133541
0.134313
0.135068
0.135804
0.136523
0.137223
0.137905
0.138569
0.139215
0.139841
0.14045
0.141039
0.14161
0.142162
0.142695
0.143209
0.143705
0.144181
0.144638
0.145077
0.145496
0.145897
0.146279
0.146642
0.146988
0.147314
0.147623
0.147914
0.148186
0.148441
0.148678
0.148896
0.149096
0.149277
0.149437
0.149575
0.149691
0.149784
0.149855
0.149909
0.149952
0.149982
0.149996
0.149999
0.15
0.15
0.15
0.15
0.149999
0.149996
0.149988
0.149977
0.149972
0.149977
0.149989
0.150001
0.150009
0.150013
0.150014
0.150013
0.150011
0.150009
0.150007
0.150005
0.150004
0.150003
0.150002
0.150001
0.15
0.149999
0.149998
0.149998
0.149997
0.149997
0.149997
0.149997
0.149998
0.149999
0.149999
0.150001
0.150002
0.150003
0.150005
0.150006
0.150008
0.15001
0.150012
0.150014
0.150017
0.150019
0.150021
0.150023
0.150027
0.150032
0.150041
0.150057
0.150083
0.150117
0.150145
0.150149
0.150117
0.15006
0.15
0.149944
0.149887
0.149819
0.149473
0.148965
0.147348
0.146064
0.144944
0.143593
0.142573
0.141237
0.140333
0.139048
0.138259
0.137035
0.136357
0.13519
0.134612
0.133509
0.13302
0.131976
0.131559
0.130571
0.13022
0.129286
0.128991
0.128112
0.127858
0.127036
0.12682
0.126049
0.125869
0.125146
0.124999
0.124321
0.124205
0.12357
0.123486
0.122893
0.12284
0.122287
0.122266
0.121753
0.121763
0.121291
0.121333
0.1209
0.120976
0.120583
0.120693
0.120339
0.120485
0.120172
0.120354
0.120081
0.120302
0.12007
0.12033
0.120141
0.120444
0.120297
0.120646
0.120544
0.120942
0.120888
0.121339
0.121335
0.121843
0.121892
0.122464
0.12257
0.12321
0.123379
0.124096
0.124331
0.125133
0.125442
0.126337
0.126726
0.127723