/*--------------------------------*- C++ -*----------------------------------*\
| =========                 |                                                 |
| \\      /  F ield         | OpenFOAM: The Open Source CFD Toolbox           |
|  \\    /   O peration     | Version:  v2006                                 |
|   \\  /    A nd           | Website:  www.openfoam.com                      |
|    \\/     M anipulation  |                                                 |
\*---------------------------------------------------------------------------*/
FoamFile
{
    version     2.0;
    format      ascii;
    class       volScalarField;
    location    "0.114";
    object      alphat;
}
// * * * * * * * * * * * * * * * * * * * * * * * * * * * * * * * * * * * * * //

dimensions      [1 -1 -1 0 0 0 0];


internalField   nonuniform List<scalar> 
16277
(
60.4551
56.6226
108.637
37.746
51.7043
19.8601
6.49629
2.56756
1.40143
0.952356
0.749199
0.646212
0.584731
0.54004
0.502373
0.468449
0.437559
0.409766
0.385111
0.363424
0.344371
0.327556
0.312596
0.299168
0.287015
0.27594
0.265793
0.256458
0.247841
0.239869
0.232477
0.22561
0.219223
0.213277
0.207736
0.202571
0.197755
0.193267
0.189085
0.185192
0.181571
0.178209
0.175093
0.172213
0.169558
0.167121
0.164894
0.162872
0.161051
0.159426
0.157996
0.15676
0.155717
0.154868
0.154212
0.153757
0.153505
0.153465
0.153644
0.154046
0.154683
0.155569
0.156719
0.158153
0.159891
0.16196
0.16439
0.167219
0.170493
0.174274
0.178642
0.183704
0.189595
0.196474
0.2045
0.213781
0.224323
0.236046
0.249056
0.264493
0.286352
0.325967
0.412459
0.621675
1.15786
2.43432
4.29819
4.59657
2.72393
1.79948
0.88598
0.403985
0.219667
0.103641
0.0245576
0.00441851
0.0001464
0.000127054
0.00207673
0.00956441
0.00527017
0.00134567
0.00011128
9.96371e-05
0.00122688
0.00443178
0.00353618
0.00105454
9.20692e-05
8.61345e-05
0.00102197
0.00335344
0.00290157
0.000920535
8.10802e-05
7.76731e-05
0.000904699
0.00282633
0.00257244
0.000843076
7.43147e-05
7.24988e-05
0.000848156
0.00254625
0.00238183
0.000803044
7.02804e-05
6.90878e-05
0.000810252
0.00236724
0.00224242
0.000773927
6.74511e-05
6.66268e-05
0.00078108
0.0022359
0.00213273
0.00075027
6.53481e-05
6.47502e-05
0.000757219
0.0021307
0.00204133
0.000730108
6.3712e-05
6.32626e-05
0.000737033
0.00204219
0.00196266
0.000712411
6.23848e-05
6.20307e-05
0.000719365
0.00196542
0.00189328
0.000696438
6.12596e-05
6.09712e-05
0.000703312
0.0018973
0.00183097
0.00068171
6.02782e-05
6.00359e-05
0.0006885
0.0018359
0.00177439
0.000668008
5.93998e-05
5.919e-05
0.000674728
0.00178
0.00172256
0.000655201
5.8597e-05
5.8411e-05
0.00066186
0.00172874
0.0016747
0.00064318
5.78518e-05
5.7684e-05
0.000649776
0.00168141
0.00163039
0.000631842
5.71519e-05
5.69982e-05
0.000638373
0.00163754
0.0015892
0.00062111
5.64881e-05
5.63456e-05
0.000627576
0.00159675
0.00155086
0.000610928
5.5854e-05
5.57204e-05
0.000617344
0.00155876
0.0015151
0.000601271
5.52445e-05
5.51185e-05
0.00060764
0.00152327
0.00148162
0.000592099
5.46562e-05
5.4537e-05
0.000598416
0.00149002
0.00145017
0.000583358
5.40862e-05
5.39727e-05
0.00058962
0.00145872
0.00142048
0.000575001
5.35316e-05
5.34231e-05
0.000581202
0.00142913
0.00139234
0.000566979
5.29899e-05
5.28853e-05
0.000573115
0.00140106
0.00136558
0.000559246
5.24583e-05
5.2357e-05
0.000565311
0.00137432
0.00134001
0.000551759
5.19344e-05
5.18356e-05
0.000557746
0.00134875
0.00131551
0.000544475
5.1416e-05
5.13189e-05
0.000550381
0.00132422
0.00129195
0.000537362
5.09008e-05
5.08047e-05
0.000543182
0.00130061
0.00126922
0.000530389
5.03867e-05
5.0291e-05
0.00053612
0.0012778
0.00124722
0.00052353
4.98718e-05
4.97759e-05
0.000529171
0.00125571
0.00122588
0.000516763
4.93544e-05
4.92578e-05
0.000522314
0.00123428
0.00120514
0.000510072
4.88327e-05
4.87349e-05
0.000515534
0.00121344
0.00118495
0.000503447
4.83053e-05
4.8206e-05
0.000508822
0.00119316
0.00116529
0.00049688
4.77707e-05
4.76699e-05
0.000502189
0.0011734
0.00114612
0.000490377
4.72279e-05
4.71255e-05
0.000495675
0.00115417
0.00112746
0.000483958
4.66764e-05
4.65725e-05
0.000489229
0.00113545
0.0011093
0.000477601
4.61155e-05
4.601e-05
0.000482866
0.00111724
0.00109163
0.000471327
4.55446e-05
4.54378e-05
0.000476608
0.00109955
0.0010745
0.000465163
4.49639e-05
4.48562e-05
0.000470488
0.00108244
0.00105795
0.000459148
4.43738e-05
4.42659e-05
0.000464548
0.00106597
0.00104208
0.000453327
4.37754e-05
4.36684e-05
0.000458849
0.00105037
0.00102705
0.000447773
4.31709e-05
4.3066e-05
0.000453468
0.0010358
0.001013
0.00044257
4.25631e-05
4.24624e-05
0.000448493
0.00102226
0.00100004
0.000437811
4.19564e-05
4.18623e-05
0.000444029
0.00100999
0.000988433
0.000433609
4.13562e-05
4.12719e-05
0.000440204
0.000999275
0.00097848
0.000430107
4.0769e-05
4.06995e-05
0.000437166
0.000990421
0.000970514
0.000427484
4.02032e-05
4.01565e-05
0.000434986
0.000983772
0.000964923
0.000425862
3.96765e-05
3.96456e-05
0.00043349
0.000979577
0.000961825
0.000424851
3.92095e-05
3.91833e-05
0.000432715
0.000978327
0.000961697
0.000424684
3.88012e-05
3.87788e-05
0.000432783
0.00098004
0.000964498
0.000425426
3.84853e-05
3.84467e-05
0.000433665
0.000984531
0.00097012
0.000427055
3.82586e-05
3.82078e-05
0.000435242
0.000991418
0.000978028
0.000429157
3.80407e-05
3.80636e-05
0.000437209
0.00100051
0.000988102
0.000431378
3.78989e-05
3.79845e-05
0.000439145
0.00101146
0.000999856
0.000433631
3.78382e-05
3.79999e-05
0.000440764
0.00102299
0.00101182
0.000435576
3.78786e-05
3.80929e-05
0.000442093
0.00103403
0.00102307
0.000436977
3.79964e-05
3.82517e-05
0.000443358
0.00104408
0.00103333
0.000438087
3.81806e-05
3.84722e-05
0.000444358
0.00105291
0.00104241
0.000439104
3.84256e-05
3.87462e-05
0.00044526
0.00106044
0.00105013
0.000439651
3.87201e-05
3.90579e-05
0.000445921
0.00106681
0.00105628
0.000439994
3.90509e-05
3.93971e-05
0.000446356
0.00107174
0.00106057
0.000440156
3.94064e-05
3.97518e-05
0.000446563
0.00107589
0.00106352
0.000440197
3.97744e-05
4.01106e-05
0.000446629
0.00107839
0.00106481
0.000439897
4.01438e-05
4.04638e-05
0.000446558
0.00107914
0.00106359
0.000439139
4.05045e-05
4.0802e-05
0.000445832
0.00107773
0.00106104
0.000438155
4.0845e-05
4.11131e-05
0.000444864
0.00107489
0.00105743
0.000437061
4.11553e-05
4.13906e-05
0.000443757
0.00107084
0.00105281
0.000435935
4.14295e-05
4.16305e-05
0.00044255
0.00106564
0.0010473
0.000434814
4.16642e-05
4.1831e-05
0.000441307
0.00105948
0.00104107
0.000433729
4.18583e-05
4.19929e-05
0.000440062
0.00105257
0.00103422
0.000432679
4.2013e-05
4.21177e-05
0.000438806
0.00104501
0.0010269
0.00043164
4.21311e-05
4.22048e-05
0.000437536
0.00103701
0.00101914
0.000430593
4.22155e-05
4.22661e-05
0.000436253
0.0010288
0.00101122
0.000429527
4.22738e-05
4.23043e-05
0.000434943
0.00102049
0.00100323
0.000428426
4.23087e-05
4.23261e-05
0.000433617
0.00101226
0.000995174
0.00042721
4.23208e-05
4.23312e-05
0.00043224
0.00100403
0.000987085
0.000425851
4.23077e-05
4.23164e-05
0.00043082
0.00099579
0.000979012
0.000424473
4.22822e-05
4.22889e-05
0.000429389
0.000987573
0.000970963
0.000423072
4.22456e-05
4.22505e-05
0.000427923
0.000979381
0.000962937
0.000421626
4.21998e-05
4.22029e-05
0.000426406
0.000971217
0.000954859
0.00042012
4.21462e-05
4.21478e-05
0.000424826
0.000963055
0.000946737
0.000418531
4.2085e-05
4.20841e-05
0.000423139
0.000954846
0.000938576
0.000416848
4.20164e-05
4.2016e-05
0.000421426
0.000946675
0.000930548
0.000415144
4.19459e-05
4.19421e-05
0.000419677
0.000938567
0.000922537
0.000413381
4.18498e-05
4.18813e-05
0.000417945
0.000930595
0.000913993
0.00041159
4.17491e-05
4.17985e-05
0.000415761
0.000923066
0.000906914
0.000408677
4.15956e-05
4.18472e-05
0.000416014
0.000920623
0.000909435
0.00041546
4.17396e-05
4.24243e-05
0.000416205
0.000919514
0.000962976
0.000437571
4.27376e-05
4.55304e-05
0.000410355
0.000936165
0.00142961
0.000596474
5.13546e-05
5.54201e-05
0.000309278
0.000709949
0.00175134
0.00401349
0.00750319
0.0106973
0.012883
0.0169339
0.0195201
0.0218408
0.0231473
0.0237722
0.0235964
0.0225466
0.0210519
0.0186546
0.0163043
0.0127409
0.0111324
0.00810038
0.00606052
0.00411644
0.0023398
0.00107423
0.000391375
0.0001628
3.1419e-05
2.0508e-05
0.00015091
0.000355137
0.000335666
0.000143351
1.97218e-05
1.89314e-05
0.000138218
0.0003176
0.000318556
0.000136186
1.87258e-05
1.86053e-05
0.00013542
0.000314446
0.000313542
0.000134036
1.84219e-05
1.8408e-05
0.000134001
0.000313991
0.000314562
0.000134081
1.84338e-05
1.8436e-05
0.000134281
0.000315295
0.000315761
0.000134514
1.84664e-05
1.84812e-05
0.000134723
0.000316724
0.000317166
0.000134938
1.84977e-05
1.85284e-05
0.000135184
0.000318162
0.0003187
0.000135408
1.85162e-05
1.8549e-05
0.000135702
0.000319732
0.000320291
0.000135886
1.85637e-05
1.85967e-05
0.000136188
0.000321354
0.000321865
0.000136338
1.85987e-05
1.86049e-05
0.000136767
0.000322991
0.000323575
0.000136889
1.86479e-05
1.86558e-05
0.000137284
0.0003247
0.000325233
0.000137451
1.86723e-05
1.86797e-05
0.000137859
0.000326445
0.000327006
0.000137999
1.87216e-05
1.87319e-05
0.000138434
0.000328262
0.000328845
0.000138615
1.87499e-05
1.87583e-05
0.00013905
0.000330121
0.000330697
0.000139201
1.88027e-05
1.881e-05
0.000139621
0.000331943
0.000332526
0.000139832
1.88303e-05
1.88358e-05
0.000140254
0.000333873
0.000334536
0.000140474
1.88847e-05
1.8893e-05
0.000140894
0.000335846
0.00033647
0.00014114
1.8915e-05
1.89215e-05
0.000141573
0.000337837
0.00033848
0.000141858
1.89563e-05
1.8993e-05
0.000142213
0.000339886
0.00034054
0.000142462
1.89984e-05
1.90118e-05
0.000142995
0.000341937
0.00034257
0.000143226
1.90432e-05
1.90816e-05
0.000143632
0.000343972
0.000344634
0.000143864
1.9085e-05
1.91001e-05
0.000144436
0.000346141
0.000346837
0.000144687
1.91334e-05
1.9174e-05
0.000145125
0.000348305
0.000348983
0.000145373
1.91809e-05
1.91922e-05
0.000145931
0.000350435
0.000351105
0.000146194
1.92261e-05
1.9264e-05
0.000146619
0.000352559
0.000353236
0.000146868
1.92691e-05
1.92842e-05
0.000147462
0.000354709
0.000355371
0.000147698
1.93172e-05
1.93544e-05
0.000148123
0.000356795
0.00035746
0.000148365
1.93609e-05
1.93728e-05
0.000148933
0.000358908
0.000359541
0.000149173
1.94077e-05
1.94424e-05
0.000149545
0.000360909
0.000361435
0.00014975
1.94463e-05
1.94549e-05
0.000150247
0.000362717
0.000363193
0.000150386
1.94823e-05
1.95141e-05
0.000150685
0.000364385
0.000364885
0.000150773
1.95121e-05
1.95177e-05
0.000151183
0.000366021
0.000366371
0.000151123
1.95539e-05
1.95544e-05
0.000151384
0.000367271
0.000367535
0.000151293
1.9558e-05
1.95526e-05
0.000151472
0.000368321
0.000368528
0.00015129
1.95858e-05
1.95736e-05
0.000151263
0.00036903
0.000369067
0.000150973
1.95733e-05
1.95528e-05
0.000150808
0.000369299
0.000369215
0.000150363
1.95613e-05
1.95645e-05
0.000149876
0.000369225
0.000368781
0.000149231
1.95346e-05
1.95023e-05
0.000148647
0.000368655
0.000367828
0.000147786
1.9494e-05
1.94911e-05
0.000146933
0.000367698
0.000366537
0.000145817
1.94544e-05
1.94235e-05
0.000144885
0.000366063
0.000364488
0.000143394
1.94174e-05
1.93853e-05
0.000142302
0.000364101
0.000362705
0.000140839
1.93717e-05
1.93595e-05
0.000139649
0.000362281
0.000360132
0.000137963
1.93666e-05
1.93802e-05
0.000136452
0.00035944
0.000357862
0.0001349
1.9379e-05
1.94352e-05
0.000133719
0.000358583
0.000357562
0.000132279
1.95012e-05
1.95992e-05
0.000131141
0.000357843
0.00035685
0.000129725
1.96954e-05
1.98503e-05
0.000129044
0.000358883
0.000360951
0.000127774
2.00365e-05
2.02313e-05
0.000127
0.00036483
0.000370033
0.000128259
2.04295e-05
2.06328e-05
0.000128911
0.000374912
0.000377501
0.000128084
2.06821e-05
2.08295e-05
0.000125733
0.000383103
0.00038936
0.000132468
2.11244e-05
2.13308e-05
0.000128623
0.000394936
0.000400129
0.000131815
2.16835e-05
2.19398e-05
0.000133512
0.000409702
0.000412214
0.00013623
2.23032e-05
2.28147e-05
0.00014327
0.000424763
0.000427221
0.000146985
2.33207e-05
2.37689e-05
0.000153157
0.000438283
0.000441415
0.000158418
2.46534e-05
2.64702e-05
0.000183154
0.000460749
0.000458424
0.000193377
1.98456e-05
1.52046e-05
4.69715e-05
0.000128825
0.000358468
0.000111142
1.79719e-05
1.88799e-05
9.96368e-05
0.000329463
0.000346439
0.00010351
1.93395e-05
1.96598e-05
9.76429e-05
0.00033093
0.000355899
0.000105051
2.02191e-05
2.07832e-05
0.000103491
0.000351088
0.000386842
0.00011807
2.14907e-05
2.22587e-05
0.00011756
0.000379767
0.000416721
0.000137393
2.31834e-05
2.4419e-05
0.000141133
0.000419707
0.000469419
0.000170242
2.69602e-05
2.05666e-05
0.000187767
0.000480765
0.00012957
4.42722e-05
1.63594e-05
1.96542e-05
0.000121257
0.00040396
0.000395462
0.000112874
2.13578e-05
2.27022e-05
0.000148046
0.000488632
0.000498428
0.000149661
2.36388e-05
2.50256e-05
0.00017433
0.000553858
0.000568818
0.000185441
2.66596e-05
2.9928e-05
0.000222553
0.000621141
0.000602298
0.000240284
2.33182e-05
1.76557e-05
5.48363e-05
0.000158651
0.000490082
0.00014459
2.08765e-05
2.26065e-05
0.000134777
0.000480475
0.000552125
0.000166216
2.41529e-05
2.58379e-05
0.000166429
0.000544405
0.00061729
0.000211854
2.9746e-05
2.36999e-05
0.000242891
0.000621944
0.000168377
5.33915e-05
1.75268e-05
2.18965e-05
0.000152503
0.000555634
0.000573417
0.000160562
2.47496e-05
2.87809e-05
0.00022775
0.000738717
0.000772983
0.000265805
3.34902e-05
2.74158e-05
0.000306882
0.000782386
0.00021728
6.27926e-05
1.84891e-05
2.4014e-05
0.000204674
0.000693041
0.000689559
0.000198522
2.80046e-05
3.51801e-05
0.000295976
0.000874573
0.000889789
0.000342635
2.91313e-05
1.94651e-05
7.09986e-05
0.000271059
0.000899979
0.000264897
2.79324e-05
3.53062e-05
0.00028026
0.000968956
0.00134387
0.000472855
4.82771e-05
4.02209e-05
0.000504327
0.00129182
0.000456705
0.000119913
2.62483e-05
4.6846e-05
0.000491319
0.00140798
0.00140991
0.000526343
4.36977e-05
2.98218e-05
0.000136572
0.000557579
0.00194866
0.00064816
6.5011e-05
6.41017e-05
0.000747323
0.00211768
0.000964484
0.000266415
4.07556e-05
6.4922e-05
0.000867573
0.00252798
0.00167001
0.000553879
4.32306e-05
8.02881e-05
0.000976806
0.00196959
0.00168941
0.000817162
6.60135e-05
6.67789e-05
0.000778174
0.0018515
0.0023719
0.000857631
7.6475e-05
0.000105522
0.00159896
0.00394794
0.000879045
0.000273253
5.99254e-05
6.13536e-05
0.000765989
0.00175542
0.000542672
0.000193916
4.27637e-05
4.63744e-05
0.000473754
0.0011374
0.000971402
0.000347535
4.6561e-05
2.528e-05
8.82915e-05
0.000278995
0.000655332
0.00035231
3.06837e-05
2.89384e-05
0.000114728
0.000297039
0.000722886
0.000314715
3.30602e-05
3.53494e-05
0.00025654
0.000654463
0.000212633
7.98163e-05
2.33777e-05
2.78044e-05
0.000251283
0.000565393
0.00051956
0.000210577
3.12714e-05
2.18052e-05
6.83605e-05
0.000174003
0.000481207
0.000213919
2.52978e-05
2.92202e-05
0.00018652
0.000442782
0.000154107
6.40664e-05
2.1226e-05
2.38921e-05
0.000190949
0.00042559
0.00038629
0.000168434
2.80731e-05
2.08336e-05
5.91459e-05
0.000138038
0.000376907
0.000172107
2.26092e-05
2.69734e-05
0.000151786
0.000342983
0.000123984
5.59776e-05
2.04766e-05
2.19132e-05
0.00015947
0.000338154
0.000304396
0.000139775
2.61414e-05
2.00344e-05
5.2469e-05
0.000113584
0.000306837
0.000146563
2.09452e-05
2.56044e-05
0.000130006
0.000279589
0.000109683
5.19745e-05
2.01055e-05
2.105e-05
0.000148961
0.00029878
0.000254876
0.0001208
2.64968e-05
2.21082e-05
9.53187e-05
0.000207002
8.20085e-05
3.69192e-05
1.78781e-05
1.74644e-05
9.94776e-05
0.000202119
0.000193047
9.21596e-05
2.24742e-05
1.83354e-05
3.83779e-05
7.8626e-05
0.00019061
9.72516e-05
1.75025e-05
2.23893e-05
8.93791e-05
0.000176253
7.42565e-05
3.65113e-05
1.79023e-05
1.66773e-05
8.89434e-05
0.000167595
0.000160284
8.46533e-05
2.15222e-05
1.79012e-05
3.59451e-05
6.97087e-05
0.000160504
8.70544e-05
1.68697e-05
2.17123e-05
8.21027e-05
0.000150924
6.71442e-05
3.47989e-05
1.76928e-05
1.64025e-05
8.1119e-05
0.00014765
0.000140414
7.7818e-05
2.13293e-05
1.75271e-05
3.35816e-05
6.32698e-05
0.000136763
7.69419e-05
1.59145e-05
2.08284e-05
7.12852e-05
0.000129534
6.0309e-05
3.33985e-05
1.71339e-05
1.55419e-05
7.20784e-05
0.000124176
0.000119471
6.59741e-05
2.04877e-05
1.681e-05
3.10025e-05
5.4059e-05
0.000107672
7.73482e-05
1.47892e-05
1.9105e-05
3.80457e-05
6.2682e-05
0.000143177
8.29308e-05
1.71983e-05
2.17865e-05
7.63784e-05
0.000132396
6.4188e-05
3.69823e-05
1.78515e-05
1.63096e-05
7.92291e-05
0.000132512
0.000125463
7.34512e-05
2.14697e-05
1.78579e-05
3.67989e-05
6.23378e-05
0.000130471
7.85753e-05
1.62641e-05
2.12502e-05
7.32393e-05
0.000123528
6.08575e-05
3.68086e-05
1.77076e-05
1.60723e-05
7.41138e-05
0.000118403
0.000112322
6.70946e-05
2.13755e-05
1.77667e-05
3.6097e-05
5.72875e-05
0.000109834
6.92287e-05
1.5712e-05
2.06421e-05
6.2621e-05
0.000102879
5.03912e-05
3.28368e-05
1.68364e-05
1.44621e-05
6.72496e-05
9.05136e-05
5.52186e-05
3.77775e-05
1.89817e-05
1.68413e-05
6.83509e-05
0.000108727
9.96371e-05
6.19522e-05
2.14781e-05
1.75334e-05
3.6694e-05
5.33842e-05
9.93309e-05
6.48603e-05
1.56219e-05
2.06448e-05
5.97369e-05
8.99434e-05
4.80346e-05
3.41853e-05
1.70557e-05
1.45273e-05
6.3104e-05
8.1714e-05
5.17325e-05
3.74104e-05
1.91819e-05
1.6724e-05
6.52047e-05
9.9632e-05
9.03822e-05
5.9114e-05
2.12525e-05
1.74641e-05
3.70914e-05
5.07029e-05
9.39855e-05
6.26974e-05
1.55637e-05
2.06401e-05
5.6936e-05
8.52073e-05
4.62893e-05
3.43134e-05
1.69605e-05
1.45376e-05
5.92299e-05
7.55857e-05
4.87352e-05
3.68001e-05
1.92246e-05
1.65219e-05
6.07348e-05
9.21144e-05
8.29519e-05
5.55614e-05
2.1124e-05
1.74021e-05
3.69671e-05
4.72257e-05
8.42901e-05
5.74884e-05
1.55425e-05
2.06306e-05
5.27785e-05
7.68186e-05
4.36495e-05
3.4667e-05
1.73139e-05
1.46198e-05
5.58939e-05
6.76672e-05
4.51303e-05
3.66541e-05
1.92489e-05
1.62536e-05
5.468e-05
8.23618e-05
7.36849e-05
4.99515e-05
2.08084e-05
1.67691e-05
3.45338e-05
4.20979e-05
6.60998e-05
5.45978e-05
1.40941e-05
1.89504e-05
3.68006e-05
4.46926e-05
8.14353e-05
5.41916e-05
1.60344e-05
2.10361e-05
5.01011e-05
7.30212e-05
4.2873e-05
3.60583e-05
1.73314e-05
1.45712e-05
5.41182e-05
6.56226e-05
4.49854e-05
3.79845e-05
1.91014e-05
1.59243e-05
5.41014e-05
8.0288e-05
7.18416e-05
4.97445e-05
2.08175e-05
1.71415e-05
3.6029e-05
4.22149e-05
6.467e-05
5.47995e-05
1.42221e-05
1.91431e-05
3.81965e-05
4.45121e-05
7.89401e-05
5.2988e-05
1.61579e-05
2.10333e-05
4.91948e-05
7.09584e-05
4.20642e-05
3.65022e-05
1.72004e-05
1.44051e-05
5.41506e-05
6.36481e-05
4.42914e-05
3.86176e-05
1.91485e-05
1.61192e-05
5.27512e-05
7.75813e-05
6.93527e-05
4.8746e-05
2.08995e-05
1.74296e-05
3.66667e-05
4.16433e-05
6.04514e-05
5.41533e-05
1.44112e-05
1.89012e-05
3.9877e-05
4.39004e-05
6.69553e-05
5.16851e-05
1.5169e-05
1.96466e-05
4.00511e-05
4.64027e-05
7.90026e-05
5.26807e-05
1.64726e-05
2.09415e-05
4.90918e-05
7.04293e-05
4.26409e-05
3.77374e-05
1.71198e-05
1.42591e-05
5.43293e-05
6.30638e-05
4.45911e-05
4.03872e-05
1.92811e-05
1.6188e-05
5.22138e-05
7.62473e-05
6.84974e-05
4.87513e-05
2.10798e-05
1.75044e-05
3.77862e-05
4.18852e-05
5.99913e-05
5.36651e-05
1.46196e-05
1.92125e-05
4.08119e-05
4.42422e-05
6.58991e-05
5.16395e-05
1.55296e-05
1.96052e-05
4.09492e-05
4.62972e-05
7.77642e-05
5.20249e-05
1.62338e-05
2.09826e-05
4.87806e-05
6.92631e-05
4.25945e-05
3.89257e-05
1.71879e-05
1.42418e-05
5.43376e-05
6.19553e-05
4.58348e-05
4.22303e-05
1.92687e-05
1.54782e-05
5.26414e-05
6.76122e-05
4.78514e-05
4.3096e-05
1.98061e-05
1.65255e-05
5.29067e-05
7.91786e-05
7.06686e-05
4.98349e-05
2.1398e-05
1.74979e-05
4.00013e-05
4.38285e-05
6.23723e-05
5.59926e-05
1.44823e-05
1.92647e-05
4.30977e-05
4.65076e-05
6.77495e-05
5.38372e-05
1.54925e-05
1.98322e-05
4.38649e-05
4.8373e-05
7.94446e-05
5.36427e-05
1.65349e-05
2.12641e-05
5.05761e-05
7.09209e-05
4.44836e-05
4.12516e-05
1.74556e-05
1.45927e-05
5.63167e-05
6.36695e-05
4.76991e-05
4.44016e-05
1.95779e-05
1.58618e-05
5.44759e-05
6.89956e-05
4.95519e-05
4.50371e-05
1.99067e-05
1.64737e-05
5.41049e-05
7.99757e-05
7.13557e-05
5.09406e-05
2.11012e-05
1.7284e-05
4.0826e-05
4.43287e-05
6.29023e-05
5.60411e-05
1.45234e-05
1.95344e-05
4.36921e-05
4.69939e-05
6.70944e-05
5.32521e-05
1.57668e-05
2.00199e-05
4.45739e-05
4.84649e-05
7.72238e-05
5.28459e-05
1.65947e-05
2.13717e-05
5.01626e-05
6.91394e-05
4.40355e-05
4.1371e-05
1.75358e-05
1.45685e-05
5.59181e-05
6.23196e-05
4.70735e-05
4.40653e-05
1.94192e-05
1.54037e-05
5.25646e-05
6.64424e-05
4.94306e-05
4.50331e-05
1.96575e-05
1.56452e-05
5.39116e-05
6.91552e-05
5.08488e-05
4.77952e-05
1.99453e-05
1.6631e-05
5.50806e-05
7.95057e-05
7.10174e-05
5.23628e-05
2.13455e-05
1.76576e-05
4.34787e-05
4.59037e-05
6.3245e-05
5.81214e-05
1.48078e-05
1.96244e-05
4.55525e-05
4.82564e-05
6.69988e-05
5.38095e-05
1.57999e-05
1.98973e-05
4.60037e-05
5.03784e-05
6.94533e-05
5.46675e-05
1.57706e-05
2.00093e-05
4.86602e-05
5.15179e-05
7.94422e-05
5.55725e-05
1.6617e-05
2.13078e-05
5.27691e-05
7.11691e-05
4.63699e-05
4.4081e-05
1.75779e-05
1.45708e-05
5.86579e-05
6.43991e-05
4.9383e-05
4.66528e-05
1.97231e-05
1.58489e-05
5.43611e-05
6.85758e-05
5.17064e-05
4.75986e-05
2.0068e-05
1.60242e-05
5.61806e-05
7.09274e-05
5.30466e-05
5.04344e-05
2.02699e-05
1.68883e-05
5.71465e-05
8.09049e-05
7.2574e-05
5.42661e-05
2.15197e-05
1.7558e-05
4.50819e-05
4.77797e-05
6.48959e-05
5.96659e-05
1.46416e-05
1.98188e-05
4.7495e-05
5.02557e-05
6.8511e-05
5.4883e-05
1.57855e-05
2.00606e-05
4.77607e-05
5.19424e-05
7.03175e-05
5.58234e-05
1.59439e-05
2.03636e-05
5.05628e-05
5.30823e-05
7.95013e-05
5.64286e-05
1.68464e-05
2.17016e-05
5.43021e-05
7.2044e-05
4.86064e-05
4.66686e-05
1.81222e-05
1.52892e-05
5.98811e-05
6.47862e-05
5.10423e-05
4.88095e-05
2.00493e-05
1.5865e-05
5.62669e-05
6.89226e-05
5.28037e-05
4.89496e-05
2.00103e-05
1.57697e-05
5.59979e-05
7.06246e-05
5.41982e-05
5.02864e-05
2.00446e-05
1.60707e-05
5.86895e-05
7.24638e-05
5.50647e-05
5.31549e-05
2.02729e-05
1.68537e-05
5.89828e-05
8.16564e-05
7.3882e-05
5.62497e-05
2.15251e-05
1.76406e-05
4.65662e-05
4.96291e-05
6.5304e-05
6.06303e-05
1.4725e-05
2.00722e-05
4.90664e-05
5.18217e-05
6.87411e-05
5.56832e-05
1.60869e-05
2.03401e-05
4.9703e-05
5.35182e-05
7.04745e-05
5.62917e-05
1.59842e-05
2.01877e-05
5.14351e-05
5.4743e-05
7.29205e-05
5.9254e-05
1.61557e-05
2.04141e-05
5.42996e-05
5.59245e-05
8.28667e-05
6.01436e-05
1.69601e-05
2.18008e-05
5.7759e-05
7.51414e-05
5.16003e-05
4.94231e-05
1.79875e-05
1.48775e-05
6.36839e-05
6.79383e-05
5.40337e-05
5.16855e-05
1.99985e-05
1.58362e-05
5.87303e-05
7.20355e-05
5.59927e-05
5.19427e-05
2.02689e-05
1.61287e-05
5.92394e-05
7.3732e-05
5.72934e-05
5.37199e-05
2.02694e-05
1.61515e-05
6.20499e-05
7.58222e-05
5.83756e-05
5.64513e-05
2.04921e-05
1.71637e-05
6.2214e-05
8.49711e-05
7.72821e-05
5.95565e-05
2.17996e-05
1.79356e-05
5.03185e-05
5.3266e-05
6.84567e-05
6.40514e-05
1.50655e-05
2.02736e-05
5.26891e-05
5.54917e-05
7.1982e-05
5.9332e-05
1.62318e-05
2.06151e-05
5.27368e-05
5.7113e-05
7.33421e-05
5.88703e-05
1.63097e-05
2.05573e-05
5.44854e-05
5.79842e-05
7.55471e-05
6.19176e-05
1.6484e-05
2.07215e-05
5.77482e-05
5.89078e-05
8.48783e-05
6.32051e-05
1.71778e-05
2.20926e-05
6.09328e-05
7.78172e-05
5.46372e-05
5.23318e-05
1.81809e-05
1.51461e-05
6.62893e-05
7.0143e-05
5.70363e-05
5.45289e-05
2.03216e-05
1.62016e-05
6.1089e-05
7.38383e-05
5.89445e-05
5.47699e-05
2.06396e-05
1.63709e-05
6.11877e-05
7.57969e-05
6.02537e-05
5.63573e-05
2.05293e-05
1.64519e-05
6.41626e-05
7.76736e-05
6.089e-05
5.91809e-05
2.0685e-05
1.71943e-05
6.43947e-05
8.64477e-05
7.91094e-05
6.20471e-05
2.21343e-05
1.81686e-05
5.28155e-05
5.56719e-05
6.973e-05
6.65709e-05
1.51615e-05
2.05038e-05
5.516e-05
5.77635e-05
7.24085e-05
6.05197e-05
1.63218e-05
2.0807e-05
5.53362e-05
5.90686e-05
7.40282e-05
6.06053e-05
1.64819e-05
2.06415e-05
5.67945e-05
6.00832e-05
7.61057e-05
6.31233e-05
1.64324e-05
2.05537e-05
5.87088e-05
6.1676e-05
7.89576e-05
6.61719e-05
1.64205e-05
2.07645e-05
6.16813e-05
6.26891e-05
8.8861e-05
6.68299e-05
1.72973e-05
2.24611e-05
6.47671e-05
8.18186e-05
5.8823e-05
5.70177e-05
1.86354e-05
1.55131e-05
7.05085e-05
7.40005e-05
6.13366e-05
5.9201e-05
2.06554e-05
1.64701e-05
6.54742e-05
7.77842e-05
6.3132e-05
5.93337e-05
2.08136e-05
1.64936e-05
6.60194e-05
7.99989e-05
6.47091e-05
6.09904e-05
2.06579e-05
1.65201e-05
6.90511e-05
8.28301e-05
6.60805e-05
6.41307e-05
2.0911e-05
1.75022e-05
6.94734e-05
9.18704e-05
8.41976e-05
6.70972e-05
2.26327e-05
1.86577e-05
5.84905e-05
6.0746e-05
7.54856e-05
7.2444e-05
1.55215e-05
2.07869e-05
6.06922e-05
6.33534e-05
7.81607e-05
6.68007e-05
1.66373e-05
2.09838e-05
6.03321e-05
6.44748e-05
7.92676e-05
6.60699e-05
1.67641e-05
2.08762e-05
6.18722e-05
6.53837e-05
8.13368e-05
6.86511e-05
1.66773e-05
2.11285e-05
6.49702e-05
6.60689e-05
9.04359e-05
6.92507e-05
1.759e-05
2.30557e-05
6.76306e-05
8.35449e-05
6.19393e-05
6.06524e-05
1.90469e-05
1.57389e-05
7.35177e-05
7.60609e-05
6.45215e-05
6.28082e-05
2.09989e-05
1.67654e-05
6.8616e-05
7.96377e-05
6.62776e-05
6.28003e-05
2.10835e-05
1.66843e-05
6.86063e-05
8.14555e-05
6.74409e-05
6.4347e-05
2.0964e-05
1.68432e-05
7.09698e-05
8.42151e-05
6.88917e-05
6.78458e-05
2.14251e-05
1.78315e-05
7.21665e-05
9.3379e-05
8.59412e-05
7.03157e-05
2.31552e-05
1.90679e-05
6.2605e-05
6.41196e-05
7.82068e-05
7.63709e-05
1.57764e-05
2.10031e-05
6.43397e-05
6.66683e-05
8.07196e-05
6.99398e-05
1.67986e-05
2.13328e-05
6.4324e-05
6.79344e-05
8.19628e-05
6.97126e-05
1.6893e-05
2.13744e-05
6.61775e-05
6.90279e-05
8.41982e-05
7.20196e-05
1.70186e-05
2.18431e-05
6.98127e-05
6.99336e-05
9.34972e-05
7.3231e-05
1.83e-05
2.38522e-05
7.19733e-05
8.67466e-05
6.63668e-05
6.58858e-05
1.96054e-05
1.63281e-05
7.84349e-05
8.03547e-05
6.91239e-05
6.7891e-05
2.13822e-05
1.70499e-05
7.43023e-05
8.4215e-05
7.11124e-05
6.82304e-05
2.16865e-05
1.7049e-05
7.41642e-05
8.66166e-05
7.19781e-05
7.09139e-05
2.20203e-05
1.85031e-05
7.41548e-05
9.48838e-05
8.76355e-05
7.28456e-05
2.42466e-05
1.97706e-05
6.60503e-05
6.71125e-05
7.94979e-05
7.83671e-05
1.63604e-05
2.16951e-05
6.8203e-05
6.95506e-05
8.25051e-05
7.36057e-05
1.73563e-05
2.21235e-05
6.85541e-05
7.10519e-05
8.45959e-05
7.29283e-05
1.74525e-05
2.25659e-05
7.20067e-05
7.18613e-05
9.28971e-05
7.41174e-05
1.86853e-05
2.46198e-05
7.34465e-05
8.65198e-05
6.83442e-05
6.86612e-05
2.01833e-05
1.66538e-05
7.99497e-05
8.05879e-05
7.08658e-05
7.04544e-05
2.19987e-05
1.7314e-05
7.44543e-05
8.42921e-05
7.28319e-05
7.10116e-05
2.23678e-05
1.77515e-05
7.536e-05
8.67042e-05
7.39944e-05
7.41337e-05
2.27985e-05
1.88888e-05
7.60301e-05
9.45646e-05
8.81082e-05
7.5407e-05
2.50368e-05
2.02508e-05
6.92838e-05
7.01245e-05
8.0494e-05
8.08138e-05
1.65811e-05
2.23152e-05
7.16919e-05
7.20722e-05
8.3946e-05
7.57149e-05
1.77673e-05
2.27639e-05
7.2386e-05
7.37909e-05
8.64992e-05
7.54636e-05
1.79626e-05
2.33876e-05
7.6273e-05
7.49333e-05
9.52131e-05
7.73924e-05
1.94739e-05
2.55877e-05
7.70419e-05
8.90653e-05
7.20303e-05
7.29255e-05
2.0707e-05
1.69762e-05
8.3755e-05
8.34979e-05
7.47425e-05
7.54578e-05
2.28438e-05
1.81738e-05
7.95199e-05
8.80166e-05
7.73451e-05
7.64436e-05
2.34692e-05
1.86861e-05
7.93751e-05
9.11823e-05
7.91622e-05
8.04987e-05
2.42309e-05
2.01353e-05
8.15693e-05
9.97823e-05
9.34773e-05
8.14216e-05
2.65777e-05
2.15784e-05
7.66944e-05
7.64303e-05
8.70669e-05
8.7862e-05
1.76422e-05
2.34729e-05
7.90387e-05
7.85602e-05
9.11893e-05
8.24085e-05
1.87158e-05
2.46621e-05
8.17423e-05
8.03005e-05
9.94139e-05
8.18569e-05
2.05225e-05
2.69418e-05
8.12053e-05
9.35257e-05
7.68332e-05
7.80347e-05
2.2033e-05
1.78609e-05
8.80806e-05
8.7404e-05
7.96894e-05
8.09439e-05
2.40144e-05
1.91674e-05
8.40924e-05
9.24844e-05
8.25186e-05
8.25975e-05
2.48712e-05
1.97941e-05
8.45624e-05
9.64502e-05
8.5042e-05
8.75521e-05
2.57902e-05
2.14541e-05
8.79548e-05
0.000105987
9.94329e-05
8.81473e-05
2.83573e-05
2.31472e-05
8.50334e-05
8.33023e-05
9.42234e-05
9.57255e-05
1.8773e-05
2.51278e-05
8.73906e-05
8.62434e-05
9.92761e-05
9.00281e-05
2.01008e-05
2.64061e-05
9.04775e-05
8.81471e-05
0.000108453
8.99735e-05
2.1589e-05
2.88188e-05
9.01912e-05
0.000102437
8.64678e-05
8.87304e-05
2.42563e-05
1.99341e-05
9.77797e-05
9.72286e-05
8.93917e-05
9.1869e-05
2.64972e-05
2.12372e-05
9.37622e-05
0.000103214
9.22755e-05
9.56019e-05
2.78875e-05
2.32603e-05
9.4484e-05
0.000113017
0.000106738
9.49614e-05
3.07387e-05
2.51073e-05
9.29326e-05
9.07078e-05
0.000101923
0.000102546
2.03501e-05
2.76924e-05
9.75774e-05
9.3449e-05
0.000112393
9.5725e-05
2.3096e-05
3.08317e-05
9.56241e-05
0.000106944
9.09252e-05
9.22116e-05
2.50685e-05
2.00095e-05
0.000103246
0.000101278
9.35399e-05
9.51775e-05
2.72436e-05
2.1849e-05
9.62466e-05
0.000105752
9.56301e-05
9.9001e-05
2.90071e-05
2.41699e-05
9.68347e-05
0.000114763
0.000109197
9.81441e-05
3.21183e-05
2.62822e-05
9.7094e-05
9.4682e-05
0.000104375
0.000105111
2.15702e-05
2.92336e-05
0.000102518
9.71585e-05
0.000114572
9.93705e-05
2.45195e-05
3.27151e-05
9.9634e-05
0.000109514
9.59785e-05
9.88548e-05
2.69396e-05
2.17773e-05
0.000106771
0.000105259
9.7854e-05
0.000103459
2.93461e-05
2.39515e-05
9.94155e-05
0.000114953
0.000110058
0.000100243
3.26646e-05
2.73054e-05
9.92828e-05
9.66137e-05
0.00010573
0.000106312
2.23999e-05
3.04941e-05
0.000105394
9.93537e-05
0.00011512
0.000100937
2.53069e-05
3.40649e-05
0.00010176
0.000110431
9.84219e-05
0.000102041
2.79739e-05
2.26556e-05
0.000108442
0.000106646
0.000100689
0.000107249
3.07004e-05
2.53525e-05
0.000102369
0.000116661
0.000111958
0.00010296
3.41015e-05
2.79846e-05
0.000102969
9.96518e-05
0.000108097
0.000111583
2.1839e-05
3.05114e-05
0.000108342
0.000101938
0.000117424
0.000102561
2.57858e-05
3.51967e-05
0.000103756
0.00011291
0.000102187
0.000107793
2.94401e-05
2.40753e-05
0.000111904
0.000110562
0.000105558
0.00011442
3.26527e-05
2.71763e-05
0.000108199
0.000121789
0.000117174
0.000109389
3.63695e-05
2.99692e-05
0.000111687
0.000106502
0.000114739
0.000116605
2.42635e-05
3.30339e-05
0.000118548
0.00010945
0.000126832
0.000112878
2.72104e-05
3.61241e-05
0.000112503
0.000122077
0.000110483
0.000119873
3.13998e-05
2.71587e-05
0.000119486
0.000124928
0.000121011
0.000119087
3.77527e-05
3.20168e-05
0.000119057
0.000112605
0.000121995
0.000122823
2.62876e-05
3.55626e-05
0.000125688
0.000116817
0.000132865
0.000118339
2.96802e-05
3.95381e-05
0.000119932
0.000128029
0.000117682
0.000127875
3.32849e-05
2.82773e-05
0.000127087
0.000132226
0.000128369
0.000124176