/*--------------------------------*- C++ -*----------------------------------*\
| =========                 |                                                 |
| \\      /  F ield         | OpenFOAM: The Open Source CFD Toolbox           |
|  \\    /   O peration     | Version:  v2006                                 |
|   \\  /    A nd           | Website:  www.openfoam.com                      |
|    \\/     M anipulation  |                                                 |
\*---------------------------------------------------------------------------*/
FoamFile
{
    version     2.0;
    format      ascii;
    class       volScalarField;
    location    "0.114";
    object      Co;
}
// * * * * * * * * * * * * * * * * * * * * * * * * * * * * * * * * * * * * * //

dimensions      [0 0 0 0 0 0 0];


internalField   nonuniform List<scalar> 
16277
(
0.00667484
0.00636252
0.00690548
0.00716986
0.00720802
0.00705693
0.00705322
0.0069342
0.00688247
0.00686854
0.00683057
0.00681616
0.00680222
0.0067923
0.00678132
0.00677023
0.00675856
0.00674623
0.00673353
0.00672025
0.0067064
0.00669199
0.00667702
0.00666151
0.00664546
0.00662888
0.00661178
0.00659417
0.00657606
0.00655745
0.00653837
0.00651881
0.00649881
0.00647837
0.0064575
0.00643624
0.00641459
0.00639258
0.00637022
0.00634754
0.00632455
0.00630129
0.00627776
0.00625401
0.00623004
0.0062059
0.00618159
0.00615715
0.0061326
0.00610797
0.00608329
0.00605859
0.00603389
0.00600923
0.00598462
0.0059601
0.00593571
0.00591146
0.0058874
0.00586355
0.00583993
0.00581659
0.00579355
0.00577084
0.00574849
0.00572652
0.00570498
0.00568387
0.00566324
0.0056431
0.00562348
0.0056044
0.00558589
0.00556798
0.0055507
0.00553406
0.00551803
0.00550255
0.00548606
0.00547116
0.00545791
0.00544846
0.00544631
0.00547931
0.00554319
0.00571686
0.00603078
0.00674859
0.00842025
0.0120064
0.0180041
0.0141645
0.0127253
0.0121901
0.0119218
0.0116573
0.0111329
0.0100957
0.0110771
0.0117166
0.0109156
0.0107992
0.0101596
0.00838799
0.00903074
0.00923719
0.00918658
0.00918415
0.00861593
0.00783846
0.00854597
0.00871891
0.00898802
0.00883059
0.00804452
0.00782526
0.00862991
0.00881563
0.00901942
0.00879764
0.00789053
0.00779125
0.0086697
0.00886291
0.00903232
0.00876962
0.00779418
0.00769346
0.00864057
0.00886364
0.0089904
0.00871178
0.00767511
0.00757924
0.00857926
0.00883211
0.00895062
0.00864644
0.00756293
0.00747273
0.00851445
0.00879246
0.00890761
0.00858131
0.0074608
0.00737516
0.00845048
0.00875071
0.00886299
0.00851729
0.00736652
0.00728446
0.00838837
0.00870792
0.00881736
0.00845444
0.0072784
0.00719897
0.00832808
0.00866457
0.00877087
0.0083923
0.00719494
0.00711769
0.0082679
0.00861947
0.00872351
0.00833063
0.00711509
0.00703961
0.0082077
0.00857288
0.00867521
0.0082692
0.00703804
0.006964
0.00814731
0.00852478
0.00862598
0.00820783
0.00696314
0.00689025
0.00808655
0.00847514
0.00857572
0.00814628
0.00688985
0.00681788
0.00802522
0.00842393
0.00852432
0.00808434
0.00681773
0.00674655
0.00796325
0.00837114
0.00847167
0.00802182
0.00674642
0.00667575
0.00790034
0.00831673
0.0084177
0.00795856
0.0066756
0.00660533
0.00783646
0.00826061
0.0083623
0.00789443
0.00660504
0.00653508
0.00777148
0.00820268
0.00830537
0.00782926
0.0065345
0.00646474
0.00770525
0.00814291
0.00824678
0.00776291
0.00646379
0.00639415
0.00763887
0.00808386
0.00818641
0.00769524
0.00639267
0.00632309
0.00757129
0.00802361
0.0081242
0.00762615
0.00632099
0.00625138
0.00750222
0.00796149
0.00806005
0.00755551
0.00624857
0.00617884
0.00743155
0.00789741
0.00799385
0.00748316
0.00617523
0.00610531
0.00735913
0.00783125
0.00792548
0.00740898
0.00610081
0.00603062
0.00728482
0.0077629
0.00785482
0.00733283
0.00602514
0.00595462
0.0072085
0.00769224
0.00778174
0.00725457
0.00594807
0.00587716
0.00713004
0.00761915
0.00770615
0.00717408
0.00586948
0.00579812
0.00704932
0.00754354
0.00762793
0.00709125
0.00578923
0.0057174
0.00696625
0.0074653
0.007547
0.007006
0.00570726
0.00563492
0.00688075
0.00738435
0.00746328
0.00691826
0.0056235
0.00555067
0.00679277
0.00730063
0.00737672
0.00682801
0.00553796
0.00546468
0.00670231
0.0072141
0.00728731
0.00673528
0.00545073
0.00537706
0.00660945
0.0071248
0.00719514
0.00664019
0.00536195
0.00528802
0.00651435
0.00703283
0.00710034
0.00654293
0.00527186
0.00519783
0.00641722
0.00693834
0.00700311
0.00644379
0.0051808
0.00510689
0.00631841
0.0068416
0.00690378
0.00634319
0.00508925
0.00501577
0.00621839
0.00674297
0.0068028
0.00624168
0.00499787
0.00492521
0.00611783
0.00664297
0.00670079
0.00614004
0.00490752
0.00483618
0.00601758
0.00654229
0.00659857
0.00603926
0.00481928
0.0047499
0.00591872
0.00644185
0.00649719
0.00594056
0.0047345
0.00466784
0.00582262
0.00634278
0.00639796
0.0058455
0.00465485
0.00459182
0.00573096
0.00624654
0.00630257
0.00575596
0.00458231
0.00452397
0.0056458
0.00615495
0.00621303
0.0056741
0.00451917
0.0044684
0.00557062
0.00607002
0.00613142
0.0056021
0.00446823
0.00443315
0.00552169
0.00600682
0.00606057
0.00554341
0.00443301
0.00441548
0.00549467
0.00597814
0.00600398
0.00550109
0.00441538
0.00441719
0.00548775
0.00596915
0.00596481
0.00547785
0.00441712
0.00443891
0.00550162
0.0059803
0.00594195
0.00547242
0.00443886
0.00447988
0.00553513
0.00601012
0.00594507
0.00549547
0.00448311
0.00454122
0.00559037
0.00606188
0.00599408
0.00555825
0.00455421
0.00462265
0.00566638
0.00613392
0.00606942
0.00563872
0.00464148
0.00471566
0.00575431
0.00621659
0.00615475
0.00573019
0.00473791
0.00481511
0.00585045
0.00630679
0.00624606
0.00582789
0.00483841
0.0049169
0.00595153
0.00640216
0.00634124
0.00592901
0.00493971
0.005018
0.00605446
0.00649995
0.00643744
0.00603049
0.00503894
0.00511561
0.0061562
0.00659724
0.006532
0.00612955
0.00513344
0.00520731
0.00625419
0.00669159
0.00662267
0.00622385
0.00522108
0.00529122
0.00634635
0.00678097
0.00670766
0.00631154
0.00530022
0.00536596
0.00643099
0.00686371
0.00678552
0.0063912
0.00536974
0.00543074
0.00650692
0.00693861
0.00685525
0.00646321
0.00543092
0.00548548
0.00657335
0.00700488
0.00691975
0.00653272
0.00548564
0.00553006
0.0066298
0.00706208
0.00698917
0.00659742
0.00553021
0.00556485
0.0066767
0.00711046
0.00705198
0.00665213
0.00556498
0.0055906
0.00671462
0.00715048
0.00710534
0.0066971
0.00559073
0.00560834
0.00674432
0.00718279
0.00714946
0.00673287
0.00560845
0.00561942
0.00676698
0.0072085
0.00718513
0.00676038
0.00561946
0.00562513
0.00678368
0.00722861
0.00721339
0.006781
0.00562517
0.00562657
0.00679522
0.00724394
0.00723523
0.00679579
0.00562676
0.00562487
0.00680276
0.00725542
0.00725179
0.00680563
0.00562513
0.00562107
0.00680733
0.0072638
0.00726406
0.00681147
0.00562115
0.00561567
0.0068094
0.00726952
0.00727267
0.00681433
0.00561557
0.00560919
0.00680955
0.00727342
0.00727864
0.0068152
0.0056091
0.00560193
0.00680812
0.00727587
0.00728252
0.00681438
0.00560195
0.00559419
0.00680572
0.00727718
0.0072848
0.00681231
0.00559428
0.00558638
0.00680258
0.0072775
0.00728585
0.00680934
0.00558653
0.00557855
0.00679884
0.00727705
0.00728591
0.00680569
0.00557875
0.00557088
0.00679479
0.00727613
0.00728512
0.00680149
0.00557104
0.00556346
0.00679056
0.00727486
0.00728418
0.00679732
0.0055637
0.00555589
0.00678587
0.00727303
0.0072823
0.00679247
0.00555613
0.00554886
0.00678184
0.00727198
0.00728043
0.00678775
0.00554888
0.00554189
0.00677723
0.0072699
0.00727832
0.00678309
0.00553927
0.00552714
0.00675966
0.00725396
0.00722912
0.00672809
0.00548625
0.00547255
0.00669755
0.00719995
0.00705864
0.00652864
0.00531253
0.00541481
0.00662364
0.00711276
0.00680998
0.006261
0.0050658
0.00559696
0.00684417
0.00730981
0.00731085
0.00661107
0.00526105
0.00650958
0.00810861
0.00880997
0.00956549
0.00847833
0.006555
0.00821741
0.0119318
0.014951
0.014023
0.0182176
0.0155645
0.0146072
0.0139312
0.013744
0.0136288
0.0136565
0.0136638
0.0136872
0.0136993
0.0137551
0.0138589
0.0140253
0.0143919
0.0152779
0.0195501
0.0278994
0.0299256
0.0272845
0.0258259
0.0235779
0.0210931
0.0180718
0.0124456
0.0110648
0.0165769
0.0198871
0.0177515
0.0154221
0.0105489
0.008778
0.0129461
0.0150975
0.0141155
0.0123652
0.00849296
0.00784409
0.0115551
0.0133556
0.0131195
0.0114429
0.00774504
0.00761667
0.011233
0.0129485
0.0129638
0.0112311
0.00761065
0.00760875
0.0112267
0.0129448
0.0129535
0.0112352
0.00762388
0.00763105
0.0112417
0.0129584
0.0129664
0.0112501
0.00763925
0.00764009
0.0112354
0.0129591
0.0129943
0.0112902
0.007665
0.0076659
0.0112751
0.0129867
0.0129947
0.0112842
0.00767523
0.00767651
0.0112697
0.012975
0.0130361
0.0113139
0.00769465
0.00771218
0.0113226
0.0130165
0.013025
0.0113097
0.0077069
0.00772443
0.0113185
0.0130055
0.0130672
0.0113517
0.00773522
0.00775318
0.0113606
0.0130474
0.0130564
0.0113485
0.00774848
0.00776662
0.0113578
0.0130373
0.0130995
0.0113915
0.00777792
0.00779591
0.0113998
0.0130798
0.0130888
0.0113876
0.00779135
0.00780997
0.0113973
0.0130701
0.0131326
0.0114319
0.00782194
0.00784078
0.0114416
0.0131134
0.0131226
0.0114295
0.00783654
0.0078553
0.0114391
0.0131041
0.0131668
0.0114731
0.00786721
0.00788653
0.0114831
0.013148
0.0131577
0.0114831
0.0078905
0.00789424
0.0114706
0.0131395
0.0132028
0.0115166
0.00791419
0.00793349
0.0115262
0.0131837
0.0131939
0.0115262
0.00793753
0.00794173
0.0115144
0.0131762
0.0132405
0.0115619
0.00796253
0.00798238
0.0115723
0.0132222
0.0132327
0.0115724
0.00798644
0.00799011
0.0115599
0.0132151
0.0132794
0.0116067
0.00801057
0.00803035
0.0116174
0.0132617
0.0132729
0.0116183
0.00803468
0.0080389
0.0116072
0.0132566
0.0133222
0.0116557
0.00805977
0.00807949
0.0116667
0.0133052
0.0133172
0.0116677
0.00808342
0.00808714
0.011657
0.0133019
0.0133686
0.0117059
0.00810766
0.0081269
0.0117179
0.0133529
0.013366
0.0117194
0.00813034
0.00813346
0.0117091
0.013352
0.0134204
0.0117589
0.00815332
0.00817243
0.0117725
0.0134066
0.0134221
0.0117761
0.00817547
0.00817803
0.0117681
0.0134104
0.0134815
0.01182
0.00819709
0.00821489
0.0118349
0.01347
0.0134878
0.0118275
0.00820797
0.00822568
0.0118441
0.0134786
0.0135534
0.0118874
0.00823604
0.00825382
0.011906
0.0135459
0.0135679
0.0119022
0.00824678
0.00826366
0.0119223
0.0135628
0.0136422
0.0119687
0.0082734
0.00829078
0.0119918
0.0136391
0.013667
0.0120052
0.00829226
0.00829348
0.0120069
0.0136678
0.0137544
0.0120721
0.00831268
0.00833285
0.0121026
0.0137586
0.0137953
0.0121255
0.00833816
0.00834467
0.0121366
0.0138046
0.0139002
0.0122113
0.00837006
0.00839856
0.0122519
0.0139137
0.0139614
0.0122752
0.00840728
0.00844562
0.0123286
0.0139828
0.0140932
0.0124094
0.00848134
0.00852924
0.0124668
0.0141191
0.0141803
0.01252
0.0085692
0.00863673
0.0125945
0.0142327
0.0143344
0.012682
0.00869833
0.00877885
0.0127708
0.0143958
0.0144768
0.0128652
0.00887082
0.00897859
0.0129695
0.0145652
0.0146672
0.0130943
0.00910948
0.00926513
0.0132395
0.0147788
0.0149242
0.0134254
0.00946359
0.00969491
0.0136244
0.0150597
0.0152082
0.0138121
0.00994238
0.0101091
0.0139186
0.0152655
0.015417
0.0139745
0.0102615
0.0105894
0.0142476
0.0155012
0.0155926
0.0142988
0.0106607
0.0108968
0.014399
0.0156433
0.0157723
0.0145691
0.0111203
0.0113613
0.0146637
0.0158732
0.0161252
0.0150374
0.0117566
0.0119689
0.0151516
0.0162284
0.0165946
0.0155785
0.0124981
0.0126709
0.015666
0.0166695
0.0167716
0.0162295
0.0135474
0.0131608
0.0150167
0.0146404
0.043612
0.0321392
0.0188078
0.0130882
0.0210619
0.0287289
0.0191651
0.0169726
0.0119035
0.0110719
0.0150737
0.0163701
0.0157573
0.014707
0.0110909
0.0112172
0.0149948
0.0162775
0.0160266
0.0148553
0.0113674
0.0118327
0.015311
0.0165095
0.0162335
0.0151159
0.0120051
0.0127519
0.0159312
0.0169699
0.0168463
0.0158177
0.0129222
0.013723
0.016417
0.0171693
0.0149948
0.0153746
0.0136657
0.0191501
0.0315016
0.0422791
0.0295529
0.0222843
0.0148422
0.0135075
0.0179404
0.0200249
0.0179143
0.0165696
0.0131399
0.0132368
0.0164048
0.0174589
0.0172754
0.0163432
0.0134766
0.0135802
0.0162838
0.0171685
0.0171051
0.0165296
0.0141502
0.0137646
0.0150202
0.0144111
0.0420911
0.0314472
0.0193729
0.0146277
0.0221816
0.0298348
0.0199552
0.0180418
0.0140056
0.0137085
0.0166622
0.0174479
0.0168055
0.0162445
0.0137903
0.0141996
0.016534
0.0170946
0.0147145
0.0153956
0.0141369
0.0194059
0.0310037
0.0410115
0.0300827
0.023035
0.0159048
0.0149917
0.0187975
0.0205648
0.0183485
0.0172012
0.0144162
0.0149217
0.0171549
0.017541
0.0142408
0.0150905
0.0142227
0.0198477
0.0309858
0.0408224
0.0296385
0.0232244
0.016471
0.0148912
0.0182262
0.0196729
0.0172536
0.016775
0.0145969
0.0144454
0.0153016
0.0144538
0.0390712
0.0298931
0.0194069
0.0168192
0.0233221
0.0295779
0.0200329
0.0184651
0.0152651
0.0149962
0.0169992
0.0174678
0.0135435
0.0146747
0.0144718
0.0193821
0.0288992
0.0366139
0.0275139
0.0221306
0.0164259
0.0147175
0.0156934
0.0149969
0.0341679
0.0271294
0.0183765
0.0150754
0.0207137
0.0260142
0.0131603
0.0139753
0.0133263
0.0156089
0.0217933
0.0260504
0.0138597
0.0128639
0.0109734
0.0110473
0.0160974
0.0195611
0.00483162
0.00459271
0.00427992
0.00562216
0.00910646
0.0111671
0.0138905
0.0120622
0.00869361
0.0142752
0.0170865
0.0185967
0.0224104
0.0213097
0.0188436
0.0206861
0.0219224
0.0215736
0.0370707
0.0321907
0.0244729
0.0252059
0.0330898
0.038303
0.037383
0.0329392
0.0255938
0.0269146
0.0364432
0.0428308
0.0266668
0.0267974
0.0235611
0.026402
0.0365308
0.0454135
0.0487994
0.0388024
0.0267437
0.023938
0.0314268
0.0366356
0.0453061
0.0371414
0.0262771
0.0221287
0.0254398
0.025774
0.0429555
0.0337944
0.0240883
0.0260449
0.0385353
0.0489179
0.0250759
0.0246599
0.0213189
0.0233041
0.0330929
0.0420086
0.0487583
0.0381721
0.0254419
0.0207596
0.0239957
0.0245135
0.0414911
0.0324404
0.0227538
0.0250951
0.0378057
0.0485383
0.0244746
0.0238948
0.0205203
0.0226758
0.0321465
0.0411209
0.0483722
0.0376759
0.0251474
0.0206325
0.0239657
0.0242822
0.0409121
0.0319533
0.0223785
0.0247568
0.0374666
0.048045
0.0243828
0.0239303
0.0204861
0.0222237
0.0315977
0.0406387
0.0480203
0.0372493
0.0246119
0.0200809
0.0233959
0.0238782
0.0395445
0.0307902
0.0217048
0.0242975
0.0368496
0.0474793
0.0211444
0.0213501
0.0191004
0.0200492
0.0253174
0.0280049
0.0403792
0.0314378
0.0219494
0.0235928
0.0366984
0.0478137
0.022778
0.0224581
0.0191962
0.0204906
0.0305577
0.0403897
0.0472954
0.0365335
0.0236785
0.0194468
0.0230378
0.0236873
0.0404785
0.0315588
0.0217836
0.0238168
0.0369287
0.0476124
0.023539
0.023102
0.0195397
0.0208667
0.0310048
0.0408913
0.047796
0.0366994
0.0237397
0.0195656
0.0233376
0.0239754
0.0409038
0.0310108
0.0208371
0.0238562
0.0367603
0.0477613
0.0237047
0.0231339
0.019431
0.0222098
0.0319565
0.0405884
0.0478422
0.0370109
0.0240731
0.0197715
0.0236089
0.0242359
0.0411928
0.0321978
0.0224496
0.0243539
0.0372643
0.0481626
0.0243911
0.023772
0.0200074
0.0231024
0.0332876
0.0425466
0.047685
0.0371537
0.0243199
0.0214979
0.0292956
0.0349642
0.0444314
0.036009
0.0244893
0.0208163
0.0246683
0.025381
0.0417835
0.032611
0.0226934
0.024887
0.0376652
0.0482478
0.0250112
0.0241305
0.0203268
0.0223783
0.032307
0.0414421
0.0485429
0.0378549
0.024867
0.020622
0.024296
0.0248675
0.0422684
0.0327913
0.0227183
0.0250139
0.0380232
0.0488263
0.025225
0.0243665
0.0205628
0.022854
0.0329713
0.0424044
0.0492248
0.0382873
0.0253552
0.0211196
0.0248972
0.025667
0.044463
0.0348274
0.0243159
0.025321
0.0382719
0.0491489
0.0370502
0.0312627
0.0228799
0.0250236
0.0366167
0.0451786
0.0263719
0.0254998
0.0213727
0.0236711
0.0342566
0.0438223
0.0499571
0.0392353
0.0259182
0.0215727
0.0254948
0.026294
0.045565
0.035692
0.0247232
0.0257425
0.038785
0.0499543
0.0376235
0.0317155
0.0234161
0.0258397
0.0374988
0.0461952
0.0273691
0.026504
0.0222983
0.0244582
0.0349796
0.0448944
0.0510146
0.0399668
0.0266796
0.0223629
0.0263415
0.0270695
0.0465715
0.0363973
0.0253855
0.0264039
0.0395193
0.050633
0.0385947
0.0325175
0.0239444
0.0264149
0.0382549
0.0468982
0.0277156
0.0269186
0.0228553
0.0249979
0.0359714
0.0462218
0.0519968
0.0410771
0.0273635
0.0230661
0.0270938
0.0277021
0.0484837
0.0365232
0.0244029
0.0266282
0.0403378
0.051876
0.0397376
0.0337203
0.0247235
0.0270928
0.0391423
0.0478113
0.0288844
0.027913
0.0235751
0.0264244
0.037939
0.0489287
0.0524845
0.0411579
0.0276452
0.0255018
0.0344305
0.0406759
0.0487865
0.0400408
0.0279425
0.0239391
0.0283773
0.0292813
0.0497364
0.0383522
0.0262783
0.0277954
0.0413718
0.0528346
0.041223
0.0348469
0.0258423
0.0284463
0.0405016
0.0493956
0.030102
0.0292603
0.0246273
0.0269055
0.0391049
0.0509298
0.0540211
0.0424059
0.0286198
0.0265372
0.0357079
0.042141
0.0501615
0.0411788
0.0288481
0.0250051
0.0294749
0.0303586
0.0511737
0.0400374
0.027654
0.0290184
0.0430419
0.054611
0.0429823
0.0363075
0.0268927
0.0292259
0.0416554
0.0509183
0.0311712
0.030331
0.0256151
0.0271374
0.0404565
0.0532494
0.0553628
0.0435427
0.0289644
0.0278086
0.0380865
0.0452373
0.0507926
0.0415906
0.0293499
0.0274614
0.0371336
0.0435518
0.0509053
0.0421565
0.0297115
0.0262084
0.0311408
0.03218
0.0538129
0.0416364
0.0289662
0.0303623
0.0447387
0.0565771
0.0450638
0.0381429
0.0283016
0.0304761
0.0434063
0.0524987
0.0322851
0.0315019
0.0267857
0.0282669
0.0419454
0.055376
0.0573122
0.0449894
0.0299699
0.0286338
0.0392589
0.0470025
0.0526284
0.0428775
0.0301501
0.0287196
0.0386021
0.0454802
0.0530221
0.0439635
0.0313224
0.0272327
0.0322704
0.0334756
0.0563297
0.0442581
0.0309821
0.0317514
0.0464217
0.0586788
0.0485158
0.0405711
0.0296641
0.0313094
0.0442905
0.0538362
0.047094
0.039936
0.0297462
0.031763
0.04473
0.053746
0.0342293
0.0330784
0.0279425
0.030444
0.0442527
0.0576462
0.0594034
0.0470056
0.0319157
0.0305364
0.0416432
0.0495884
0.0550999
0.0454249
0.0321546
0.0305901
0.0408931
0.0479154
0.0552398
0.0461189
0.0328885
0.028915
0.0341202
0.035212
0.0586862
0.0459273
0.0321375
0.0332678
0.0483269
0.0607872
0.0505548
0.0422743
0.0308945
0.0327364
0.0460829
0.0558695
0.0491625
0.041559
0.0309794
0.0337565
0.0469757
0.0562848
0.0358806
0.0346567
0.0295165
0.0334919
0.047723
0.0604164
0.0620993
0.0492201
0.0340175
0.0319195
0.0437461
0.0519889
0.0575011
0.0475243
0.0335528
0.0320795
0.0429571
0.0503517
0.0577065
0.0480987
0.0345115
0.0301347
0.0354649
0.0366333
0.0615743
0.0484274
0.0341911
0.0348976
0.0502751
0.0632764
0.053302
0.0447284
0.0329584
0.0347728
0.048606
0.0585383
0.0537452
0.0452951
0.0332367
0.0350001
0.048605
0.0585706
0.0523322
0.0444699
0.0330736
0.0357843
0.0497362
0.0591343
0.0385472
0.03737
0.0315544
0.0341624
0.0495141
0.0642396
0.0651487
0.0515124
0.0351634
0.03392
0.0461747
0.0549695
0.0594736
0.0493171
0.03534
0.0340385
0.0461046
0.0549944
0.0598864
0.0498095
0.0360827
0.0341169
0.0457108
0.0535268
0.0608354
0.0509966
0.0368309
0.0322716
0.0379743
0.0392674
0.0657004
0.0520637
0.0367114
0.0372632
0.0535377
0.0667632
0.0566309
0.0476655
0.0351551
0.0368015
0.0511678
0.0617332
0.0568094
0.0480737
0.0352886
0.0370487
0.051334
0.0614548
0.0552205
0.0470332
0.035211
0.03778
0.05207
0.0623892
0.0406315
0.0392125
0.0332138
0.0379132
0.0536085
0.0675553
0.068672
0.054756
0.0384037
0.0361956
0.048983
0.0583591
0.0631224
0.0524082
0.03786
0.0366114
0.0495296
0.0587975
0.0633759
0.0528797
0.0383413
0.0362378
0.0481359
0.0567713
0.0642271
0.0538139
0.0391945
0.0344714
0.0403604
0.0413397
0.070112
0.053911
0.0369158
0.0382892
0.0563507
0.0709402
0.0601552
0.050345
0.0370506
0.0388969
0.0542365
0.0651644
0.0608402
0.0513026
0.0379121
0.0394611
0.0541465
0.0646735
0.0612565
0.0513125
0.0378197
0.0400003
0.0547356
0.0654998
0.0597788
0.0507469
0.0379457
0.0404952
0.0556346
0.0663726
0.0431638
0.0417857
0.0357627
0.0410816
0.0572553
0.0723653
0.0729424
0.0584552
0.0416754
0.0387626
0.0524669
0.0621298
0.0671254
0.0561418
0.0404116
0.0391406
0.0526761
0.0623876
0.066705
0.0559952
0.0409171
0.0392675
0.0529698
0.0627502
0.0677238
0.0565405
0.0413905
0.0392773
0.0519423
0.0613198
0.0689572
0.0578092
0.0423875
0.0369803
0.0431452
0.0447604
0.0749659
0.0591474
0.0418812
0.0428988
0.0609524
0.0758034
0.0647697
0.0550105
0.0408448
0.0423884
0.0583852
0.0698755
0.0649367
0.0550985
0.0409276
0.0426159
0.0580725
0.0692399
0.0656187
0.0554043
0.0411257
0.0431108
0.0587676
0.0700048
0.0640625
0.054151
0.0407388
0.0437587
0.0596469
0.0709886
0.046412
0.045134
0.0386065
0.0438786
0.0615342
0.0772667
0.0783905
0.0627275
0.0444736
0.0419419
0.0564432
0.0668737
0.0723061
0.0598288
0.0435543
0.0421751
0.0567428
0.0672289
0.0714493
0.0602505
0.0441232
0.0423529
0.0569904
0.0679637
0.0728256
0.0611109
0.0446262
0.0423703
0.0561666
0.0657207
0.0738671
0.0624579
0.045561
0.0400233
0.046482
0.047865
0.0807301
0.0634756
0.0452852
0.0459622
0.0649249
0.0816655
0.0695253
0.0588837
0.0437766
0.045533
0.0626834
0.0750546
0.0699183
0.058817
0.0438944
0.0458749
0.0621707
0.0743034
0.070616
0.0594655
0.0441834
0.0463968
0.0629953
0.0749996
0.0688015
0.0584962
0.0441778
0.047284
0.0644535
0.076355
0.0496706
0.048294
0.0416357
0.0475988
0.0663251
0.0835268
0.0844625
0.0676997
0.0485017
0.0455556
0.0610504
0.0720069
0.0775651
0.0650054
0.0473444
0.0456262
0.0613213
0.0724521
0.0771937
0.0648652
0.0475626
0.0458968
0.0617596
0.0732642
0.0777757
0.0654938
0.0482405
0.0462889
0.0620075
0.0733886
0.0786978
0.066232
0.0488815
0.0461325
0.0606068
0.0711857
0.0800049
0.0674187
0.0498381
0.0437052
0.0505748
0.052019
0.0874626
0.0683708
0.0484458
0.0498191
0.0709883
0.0883375
0.0753467
0.0636846
0.0476725
0.0496259
0.0680724
0.0814494
0.0758085
0.0642566
0.0480815
0.0502616
0.068185
0.0807977
0.0763608
0.0645999
0.0485199
0.0508057
0.0685326
0.0819263
0.074141
0.0632337
0.048086
0.0514118
0.0697474
0.0827649
0.05443
0.0527734
0.0455106
0.0511767
0.0717219
0.090828
0.0916483
0.0738501
0.0521886
0.0495405
0.0661243
0.0780867
0.0839565
0.0699929
0.0514202
0.0497401
0.0664912
0.078557
0.0836585
0.0705273
0.051967
0.0502247
0.0669678
0.0789796
0.0846637
0.0713115
0.0526308
0.0500111
0.065603
0.0767637
0.0861978
0.0730153
0.0537158
0.0471004
0.0543951
0.0558465
0.0944438
0.0739317
0.0526113
0.0540218
0.0766209
0.095236
0.0811066
0.0685165
0.0514615
0.0535955
0.0732399
0.0876814
0.0815551
0.0690917
0.0518901
0.0543235
0.0733263
0.0872934
0.0821486
0.0694771
0.0521671
0.0548581
0.0740587
0.0882501
0.0798621
0.0681933
0.0520561
0.0558474
0.0755103
0.0892155
0.0586819
0.0570229
0.0493214
0.0553795
0.077309
0.0981747
0.0991199
0.0794467
0.0567443
0.0541359
0.0717771
0.0845316
0.0907045
0.076168
0.0561353
0.0542016
0.0719087
0.0847601
0.0906911
0.0762574
0.0566397
0.0543725
0.0722437
0.0851337
0.0916805
0.0772935
0.0572173
0.0539125
0.0705648
0.0825358
0.0932237
0.0789863
0.0581809
0.05115
0.0588355
0.0603911
0.101472
0.0798441
0.0571167
0.0586286
0.0825552
0.102987
0.087429
0.0741243
0.0560323
0.0585056
0.0793741
0.0950762
0.0880937
0.0748671
0.0565819
0.059262
0.0796125
0.0947805
0.0862534
0.0738195
0.0563989
0.0598502
0.0812546
0.0963546
0.0622106
0.0607327
0.0528981
0.0599463
0.08334
0.105009
0.106261
0.0856822
0.0609963
0.0576914
0.0764491
0.09016
0.0980724
0.0816491
0.0600121
0.058007
0.0766784
0.0901587
0.0980905
0.0824125
0.0609806
0.0577253
0.075381
0.0879831
0.0996088
0.0842586
0.0622266
0.0545622
0.0625639
0.0639061
0.109187
0.0850942
0.0603575
0.0624184
0.0888484
0.110587
0.0936663
0.079274
0.0598863
0.0627491
0.0854143
0.101871
0.0940668
0.0801171
0.0604786
0.062882
0.0850352
0.101428
0.091874
0.07853
0.060096
0.0643459
0.0870258
0.103228
0.0659787
0.0645368
0.0562772
0.0644144
0.0891247
0.112242
0.114124
0.0916227
0.0656521
0.0615653
0.0816541
0.0962058
0.104903
0.0880737
0.0645921
0.062263
0.0821541
0.0964453
0.105086
0.0881898
0.0652612
0.0618564
0.0806498
0.0940373
0.107005
0.0905098
0.0667411
0.0586246
0.0670008
0.0684667
0.117059
0.092513
0.066381
0.0679547
0.0960446
0.119461
0.100054
0.0850777
0.0643518
0.0672489
0.0913575
0.109614
0.100291
0.0852992
0.0644805
0.0675088
0.0914255
0.108873
0.097852
0.0837818
0.0641867
0.0688435
0.0931212
0.110449
0.0705825
0.0690218
0.0603495
0.067814
0.0943557
0.119577
0.122919
0.0982776
0.069838
0.0663482
0.087174
0.102405
0.11352
0.0946355
0.0696201
0.0660863
0.0856392
0.0993052
0.114604
0.0967494
0.071086
0.0628454
0.0714562
0.0726042
0.124398
0.0989962
0.0714973
0.0728347
0.102775
0.12782
0.106189
0.0902307
0.0684959
0.071735
0.0972013
0.116712
0.106209
0.0904621
0.0686302
0.0724122
0.0979858
0.116619
0.103405
0.0887441
0.0683868
0.0738997
0.0997982
0.118577
0.0760132
0.0741511
0.0645267
0.0725803
0.100631
0.12754
0.130793
0.105091
0.0747349
0.0709401
0.0930413
0.109263
0.121599
0.101501
0.0744733
0.0710225
0.0914513
0.105959
0.122745
0.103543
0.077101
0.0674506
0.0764716
0.0774859
0.131083
0.103438
0.0744084
0.0773185
0.109027
0.13558
0.111872
0.0951451
0.072592
0.0771691
0.104659
0.125508
0.108242
0.0931016
0.0720082
0.0780811
0.105887
0.125751
0.0797006
0.0778456
0.0679207
0.0765595
0.10567
0.133654
0.140129
0.112176
0.0798022
0.0738367
0.0950786
0.110458
0.130389
0.109261
0.0801219
0.0697801
0.0789665
0.0799343
0.138939
0.109477
0.0789846
0.082459
0.115955
0.143881
0.118979
0.101817
0.0779164
0.0811552
0.110625
0.132682
0.114838
0.0989425
0.0765666
0.0817962
0.111278
0.132539
0.0826702
0.0813234
0.0716656
0.0798618
0.110532
0.140021
0.147481
0.117787
0.0834745
0.0770121
0.0993648
0.115447
0.137422
0.115095
0.0837965
0.0724985
0.0820114
0.0830889
0.144044
0.113596
0.0818402
0.0859014
0.121773
0.152118
0.120576
0.103762
0.0804316
0.0870802
0.118767
0.142169
0.0851405
0.0847915
0.0756049
0.0832119
0.115898
0.147544
0.156753
0.12518
0.0879669
0.0810805
0.104454
0.121103
0.14481
0.121008
0.0880063
0.0759963
0.0856373
0.0865211
0.150586
0.118665
0.085501
0.0897734
0.127389
0.16017
0.125072
0.107699
0.0833012
0.0901431
0.124253
0.14856
0.0885124
0.088013
0.0781899
0.088158
0.122232
0.155266
0.166863
0.134221
0.0950973
0.087881
0.112284
0.128581
0.1539
0.128313
0.0933595
0.0802849
0.0900771
0.0907389
0.158069
0.124076
0.0891576
0.0940017
0.133824
0.168318
0.130444
0.11213
0.0870311
0.0943483
0.129939
0.156655
0.0925722
0.0919575
0.0818389
0.0919737
0.126842
0.160371
0.173026
0.138649
0.0978049
0.0896464
0.114492
0.132202
0.163224
0.136216
0.0994135
0.085741
0.0950672
0.0951102
0.161054
0.128923
0.0947342
0.100856
0.144158
0.180009
0.0949121
0.0943476
0.0846013
0.0941519
0.130739
0.166366
0.180156
0.143287
0.100068
0.0917251
0.117449
0.136027
0.167071
0.138904
0.100698
0.0864984
0.096998
0.0977853
0.164099
0.130766
0.0961712
0.10491
0.150234
0.18759
0.0964346
0.0970738
0.088234
0.0994865
0.135194
0.170011
0.194232
0.154213
0.108037
0.088858
0.0983963
0.0982982
0.176042
0.138586
0.0998147
0.107188
0.153812
0.194173
0.143675
0.124331
0.097309
0.107672
0.149143
0.179315
0.103153
0.102496
0.0916604
0.102038
0.137606
0.171789
0.200292
0.160185
0.112343
0.093698
0.102682
0.1022
0.177632
0.142123
0.105411
0.114369
0.163527
0.205474
0.103193
0.103073
0.0933244
0.103642
0.140285
0.175599
0.207613
0.164713
0.114549
0.0937785
0.103428
0.103473
0.177398
0.141616
0.104698
0.116086
0.16735
0.210378
0.105911
0.106035
0.0960644
0.107718
0.144713
0.181068
0.218036
0.173864
0.121233
0.0939307
0.0975265
0.0926729
0.123289
0.115086
0.0980386
0.105938
0.145148
0.184868
0.224899
0.175123
0.119201
0.0959562
0.10473
0.103565
0.1828
0.145103
0.107204
0.123578
0.179892
0.227964
0.092742
0.0977794
0.0957919
0.105797
0.123057
0.130191
0.19165
0.150441
0.109595
0.123575
0.183305
0.236784
0.0933681
0.0977729
0.0939177
0.100619
0.118745
0.127762
0.190576
0.150451
0.110611
0.129918
0.191649
0.243373
0.0921634
0.099059
0.09767
0.106328
0.123599
0.13
0.189854
0.148417
0.108591
0.127922
0.190536
0.246596
0.0911036
0.0965533
0.0942237
0.0988355
0.11055
0.11416
0.129977
0.121054
0.104231
0.111417
0.154622
0.19876
0.248788
0.190336
0.124998
0.0905093
0.0935579
0.0890796
0.103822
0.102205
0.0925366
0.0915967
0.100249
0.102492
0.107745
0.105608
0.0937402
0.0928078
0.111807
0.119847
0.177373
0.134168
0.0943045
0.123634
0.190181
0.249877
0.0842146
0.0895311
0.0875026
0.0868357
0.0961559
0.0967246
0.0918345
0.0881623
0.0776531
0.076456
0.0875697
0.0900359
0.0868133
0.0833834
0.0707544
0.0662422
0.0796279
0.0837035
0.0806737
0.0760771
0.0619123
0.0590337
0.0737681
0.0788253
0.0768823
0.0715971
0.0563813
0.0541945
0.0698161
0.0755592
0.0741822
0.0681643
0.0522444
0.050589
0.0667678
0.0731493
0.0721062
0.0654659
0.0490896
0.0477218
0.0642437
0.0712095
0.0703399
0.063212
0.046564
0.0453292
0.061997
0.0695295
0.0686014
0.0609587
0.0442827
0.0433323
0.0599825
0.0678615
0.0670677
0.0590599
0.042469
0.0416867
0.0581951
0.0663901
0.0656541
0.0573776
0.0409754
0.040332
0.0566128
0.06503
0.0643451
0.0558894
0.0397486
0.0392239
0.0552143
0.0637683
0.0631291
0.0545756
0.0387501
0.0383267
0.0539808
0.0625943
0.0619947
0.053417
0.0379456
0.0376077
0.052894
0.0614978
0.0609366
0.0523989
0.0373049
0.0370387
0.0519413
0.0604763
0.0599501
0.051507
0.0368008
0.0365937
0.0511071
0.0595233
0.059031
0.0507272
0.0364094
0.0362509
0.0503787
0.0586375
0.0581785
0.0500458
0.0361102
0.0359911
0.0497413
0.0578176
0.0573913
0.0494492
0.0358855
0.035798
0.049183
0.0570623
0.0566672
0.0489261
0.0357205
0.0356581
0.0486933
0.0563684
0.056003
0.0484671
0.0356027
0.0355602
0.0482635
0.0557333
0.055397
0.0480644
0.0355224
0.0354953
0.0478861
0.0551551
0.0548455
0.0477099
0.0354706
0.0354551
0.0475534
0.0546301
0.0543467
0.0474011
0.0354459
0.0354392
0.0472629
0.0541561
0.0538958
0.0471286
0.0354396
0.0354383
0.0470058
0.0537282
0.0534909
0.0468864
0.0354426
0.0354437
0.0467774
0.0533448
0.0531265
0.0466708
0.0354502
0.035453
0.0465742
0.0529994
0.0528006
0.0464798
0.0354601
0.0354627
0.0463942
0.052691
0.0525077
0.04631
0.03547
0.0354726
0.0462346
0.0524135
0.0522467
0.0461602
0.0354791
0.0354804
0.0460937
0.0521667
0.0520116
0.0460272
0.0354866
0.0354881
0.0459689
0.0519439
0.0518033
0.0459108
0.0354935
0.0354933
0.0458597
0.0517477
0.0516165
0.0458077
0.0354975
0.0354971
0.0457626
0.0515694
0.0514497
0.045717
0.0355003
0.0354984
0.0456774
0.0514118
0.0512994
0.0456366
0.0355009
0.035499
0.0456018
0.0512686
0.0511656
0.0455661
0.0355008
0.0354978
0.0455353
0.0511421
0.0510445
0.0455025
0.0354993
0.0354965
0.045475
0.0510261
0.050936
0.0454459
0.0354973
0.0354933
0.0454211
0.0509232
0.0508366
0.0453942
0.0354937
0.0354901
0.045372
0.0508276
0.0507474
0.0453481
0.03549
0.0354858
0.0453285
0.0507429
0.0506652
0.0453058
0.0354849
0.0354809
0.0452881
0.0506634
0.0505913
0.0452684