/*--------------------------------*- C++ -*----------------------------------*\
| =========                 |                                                 |
| \\      /  F ield         | OpenFOAM: The Open Source CFD Toolbox           |
|  \\    /   O peration     | Version:  v2006                                 |
|   \\  /    A nd           | Website:  www.openfoam.com                      |
|    \\/     M anipulation  |                                                 |
\*---------------------------------------------------------------------------*/
FoamFile
{
    version     2.0;
    format      ascii;
    class       volScalarField;
    location    "0.161";
    object      omega;
}
// * * * * * * * * * * * * * * * * * * * * * * * * * * * * * * * * * * * * * //

dimensions      [0 0 -1 0 0 0 0];


internalField   nonuniform List<scalar> 
16277
(
0.00810608
0.00810617
0.00810498
0.00810457
0.00810344
0.00810347
0.00810279
0.00810123
0.00809759
0.00809139
0.00808284
0.00807266
0.00806153
0.00804989
0.00803787
0.00802546
0.00801255
0.00799907
0.00798495
0.00797013
0.00795463
0.00793843
0.00792155
0.00790401
0.00788581
0.00786697
0.00784749
0.00782739
0.00780668
0.00778536
0.00776345
0.00774098
0.00771794
0.00769436
0.00767026
0.00764566
0.00762058
0.00759504
0.00756906
0.00754267
0.00751588
0.00748874
0.00746125
0.00743345
0.00740538
0.00737704
0.00734848
0.00731973
0.00729081
0.00726175
0.00723259
0.00720337
0.0071741
0.00714484
0.0071156
0.00708643
0.00705735
0.0070284
0.00699964
0.00697108
0.00694278
0.00691478
0.00688719
0.00686017
0.00683407
0.0068097
0.00678898
0.00677663
0.00678511
0.00684362
0.00700286
0.00737723
0.008207
0.009992
0.0137349
0.0213667
0.0365755
0.0665462
0.125316
0.238539
0.453999
0.843193
1.40967
1.82896
2.49794
2.99645
3.63669
6.62544
11.4684
14.4717
12.9716
34.24
105.411
397.789
3406.78
18601.1
254898
251710
37848.6
8637.96
15117.7
52962.8
248574
245279
54893.1
17469.8
20705.9
58055.5
236456
232034
57495
21300.6
23279.4
58848.1
226110
223289
58184.9
23405.7
24488.9
58586.5
218920
216054
57190.2
24344
24967.3
57662.9
212519
210464
56434
24791.6
25247.6
56963.6
207750
206195
55926.6
25050.6
25438.4
56494.7
204000
202775
55590.6
25235.3
25590.3
56182.9
200921
199916
55356.5
25384.8
25720.4
55973
198291
197433
55192.8
25514.4
25837.5
55833.6
195972
195220
55088.3
25631.9
25945.5
55741.8
193877
193200
55020
25740
26045
55677.2
191943
191319
54970.8
25839.1
26137
55626.2
190128
189544
54930.3
25929.4
26221.4
55580.7
188404
187849
54892.5
26010.8
26296.6
55536.3
186750
186217
54853.8
26082.8
26362.8
55489.8
185150
184634
54812
26146
26420.6
55439.3
183594
183090
54764.6
26201.1
26470.9
55382.6
182071
181577
54710.5
26249.1
26514.5
55318.9
180576
180089
54649.2
26290.8
26552.2
55248
179102
178620
54580.4
26327
26584.7
55169.3
177644
177166
54503.4
26358.1
26612.2
55082
176197
175720
54417.6
26384.3
26635.1
54985.7
174755
174278
54322.5
26406.1
26653.6
54880
173315
172835
54217.9
26423.6
26667.9
54764.5
171871
171386
54103.2
26437
26678.1
54638.6
170419
169928
53977.9
26446.4
26684.2
54501.7
168955
168457
53841.3
26451.7
26686.2
54353.1
167475
166968
53692.8
26452.8
26683.8
54192.2
165975
165458
53531.6
26449.5
26676.7
54017.9
164454
163925
53356.8
26441.3
26664.5
53829.5
162907
162367
53167.3
26427.9
26646.7
53625.7
161334
160782
52960.6
26408.5
26622.5
53404.8
159733
159171
52731.7
26382.3
26591
53164.8
158106
157533
52485.2
26348.5
26551.3
52906.2
156453
155871
52218.2
26306.1
26502.4
52626.2
154777
154189
51927.9
26254
26442.8
52322.3
153082
152490
51611.8
26190.3
26370.6
51991.7
151375
150783
51267
26113.1
26283.6
51631.7
149664
149078
50889.9
26016.5
26178
51238.5
147961
147389
50476.8
25897.6
26051.4
50808.6
146282
145732
50024.4
25756.9
25901.6
50338.8
144646
144130
49529.1
25589.8
25724
49825.6
143077
142609
48987.1
25391.5
25513.9
49265.4
141604
141200
48395.4
25157.6
25267
48655.1
140258
139941
47759.8
24884.5
24979.8
47997.8
139085
138866
47101.8
24571.7
24652.3
47313.2
138140
138018
46412.6
24210.8
24278.2
46598.2
137442
137424
45701
23807.9
23864.9
45867.1
137045
137110
44988.1
23373.8
23424.1
45140.5
136901
137093
44299.1
22924.2
22971
44451.7
137044
137380
43654.9
22466.1
22512
43823.2
137433
137948
43083.5
22012.3
22064
43270.2
138106
138773
42619.4
21592.5
21655.9
42831.1
139007
139779
42265.9
21224.9
21304.1
42530
140070
140914
42005.2
20916.4
21012.7
42349.4
141248
142145
41864.4
20669.8
20783.3
42267
142507
143436
41833.9
20485.1
20616
42297
143810
144744
41912.9
20361.8
20510.1
42431.5
145117
146035
42089.8
20294.7
20461.6
42657.2
146396
147279
42353.9
20268.4
20463.7
42959.4
147617
148447
42686.1
20294.5
20518
43345.8
148756
149521
43074.3
20369.8
20635.3
43810
149796
150485
43533.9
20494.4
20785.7
44304.4
150718
151322
44020.1
20648.9
20958.4
44811.1
151512
152028
44515.8
20824.4
21148.2
45315.7
152174
152601
45007.5
21015.8
21349.2
45804.9
152705
153053
45481.1
21215.6
21550.1
46259.8
153123
153406
45921.5
21413.6
21746.1
46676.4
153442
153661
46326.2
21607.3
21937.9
47059
153664
153818
46696.1
21796.2
22121.6
47404.3
153803
153906
47030
21976.7
22298.6
47720.8
153870
153925
47333.2
22150.3
22462.3
47997
153881
153924
47594.2
22306.6
22604.2
48230.7
153866
153897
47816.8
22443.7
22732
48438.8
153810
153835
48010.7
22567.4
22846
48617.3
153730
153745
48177.7
22679.2
22954.4
48774.5
153620
153635
48325.1
22783.7
23049.3
48909.5
153502
153514
48449.2
22874.4
23131.4
49019.9
153379
153397
48549.1
22949.3
23198.3
49104.3
153259
153268
48631.3
23013.1
23263.5
49187.3
153111
153117
48715.4
23078.6
23327.6
49267.8
152951
152956
48791.4
23138.5
23381.3
49333.7
152828
152770
48845.8
23185
23440.8
49391.7
152697
152610
48938.5
23220.4
23463.6
49563.5
152650
151985
48742.1
23127.6
23264.5
48757.9
151443
149536
48551.3
22987.3
21917.4
46329.4
147098
138321
48505.7
22453.8
15524.2
27062.9
124068
139436
60773.6
28131.7
13626.1
7035.99
4374.2
3429.59
3055.15
2533.26
2312.58
2154.63
2089.04
2072.29
2105.87
2203.53
2337.68
2582.02
2861.04
3452.87
3781.97
4729.69
5754.21
7585.46
11738.5
22964.5
55777.5
128684
405609
435126
139359
61238.1
64520.5
146893
461134
483256
153603
68274.5
68422
155151
489291
495133
156290
69536.5
69735.3
157873
498946
499554
158261
69984.3
69920.4
158276
499339
499711
158321
69934.8
69924.1
158340
499536
499660
158339
69900
69886.3
158338
499778
499620
158328
69860.2
69831.7
158335
500318
500173
158303
69810.1
69785.8
158302
500309
500175
158284
69752.3
69734.4
158287
500582
501038
158223
69691.3
69655.5
158221
500603
501053
158140
69618.1
69601.4
158202
501207
501637
158087
69562
69546.8
158155
501235
501675
158048
69500.8
69482.1
158110
501834
502280
157998
69440.4
69425
158049
501870
502321
157992
69401.9
69389.2
158053
502486
502933
157942
69352.5
69337.3
158000
502537
502994
157907
69292.8
69271.9
157948
503175
503646
157818
69230.7
69215.8
157872
503540
503430
157833
69177.9
69162.2
157834
503893
504366
157758
69133.3
69125.2
157803
504260
504165
157794
69113.5
69107.3
157815
504609
505085
157745
69076.5
69062.2
157781
504976
504890
157746
69026.6
69014.7
157750
505370
505858
157691
68999.5
68995.7
157753
505755
505678
157742
68978.7
68972.8
157781
506144
506632
157743
68962.7
68963.7
157818
506528
506447
157826
68964.1
68983.8
157933
506903
507377
157928
68985.4
68987.9
158032
507270
507191
158049
68980
68982.4
158142
507656
508150
158166
68991.5
69006
158321
508021
507920
158394
69009.8
69029.5
158570
508374
508830
158629
69035.8
69084.4
158868
508407
508842
159009
69105.5
69132.6
159242
508961
509398
159400
69154
69176.5
159685
508947
509340
159862
69182.1
69198.2
160185
509481
509871
160385
69202.2
69220.9
160770
509676
509491
161068
69222.4
69236.6
161463
509871
510242
161782
69243.6
69267.4
162274
510066
509865
162686
69268.5
69262.4
163148
510274
510718
163499
69221.7
69192
164001
510279
510755
164320
69073.7
68942.8
164707
511022
511683
164924
68781.2
68686
165357
511798
512062
165606
68512.3
68446.7
166034
512955
513652
166243
68258.8
67991.6
166323
514579
515782
166325
67608.1
67180.5
166098
517216
519126
165530
66533.5
65935.4
164745
521315
523646
163671
65224.6
64119.4
160232
520918
518261
156597
63249.4
62721.6
154518
524614
521977
155441
62223.6
61201.1
146845
514237
511267
148060
61046.1
60470.2
143520
503245
496388
141164
60100.7
60174.7
138329
484740
469954
133531
59926.7
60288.9
131168
459494
452704
130173
60870.8
61816.4
130512
434741
406453
121599
62535.5
64112.1
120186
595948
976557
344420
141978
69601.6
172850
728297
656821
187250
74656.5
71753
176787
649289
643000
181857
73840.8
70608
169511
624416
602390
170867
71540.6
68424.8
154979
575370
548573
157701
70084.2
68432
145010
519768
488593
145585
69522.7
68762.8
134274
445586
637184
128330
69759.6
147246
352393
1.00601e+06
718272
165865
71733.3
74532.6
177123
604946
547345
145322
66710.3
67145.2
146713
513381
478443
135799
65115.9
65566.1
132865
446798
413166
123869
65031.7
68001.7
123510
597320
937485
346673
140342
72345.7
155909
684086
594502
167605
75433.1
72155.5
149803
556958
517736
154415
74482.8
73882.9
141669
467519
666595
133885
75825.4
154465
350065
1.01453e+06
704545
172627
78393
79760.5
173054
578398
501720
146131
71617
72125.2
137717
450223
654652
135502
75305.6
153838
352013
1.00039e+06
704518
163128
80456.8
83575.8
176310
580579
511563
152595
77877.5
80090.8
145376
719450
1.04481e+06
366526
161966
80940
169382
704996
551917
174353
80265.6
69034.4
137763
486227
664892
139463
74087.5
148859
343188
902722
623886
153100
74675.7
78131.1
157091
788867
984174
377555
153719
66506.8
150636
656491
792557
146276
65259.1
128132
288378
833954
1.01281e+06
163637
64918.9
91551.7
198676
809452
827194
160513
58689.9
71129
191384
993487
1.02879e+06
196842
73012.8
65746.8
175160
915622
800499
104076
39070.1
153625
341385
806640
935781
161004
81533.6
186084
374607
846895
781464
189705
99400.4
105832
214925
671618
1.12227e+06
456325
226717
127433
172556
958653
827672
366557
191300
103762
177180
696086
575930
187356
104803
192546
392587
916851
716562
171322
107213
106115
180273
576988
930252
390106
188873
105472
167197
714815
569960
174618
104885
186302
379440
909251
697451
164266
104386
102982
171020
566269
912063
379601
180571
101660
161510
687362
549839
169034
101343
180479
369815
882601
657143
157871
101124
99903.3
165260
537590
879218
365204
174240
98061.9
154566
648094
518916
161521
97977.6
169664
345295
826232
601346
145013
94846.4
95431
162485
463091
635797
186398
101758
191759
396047
1.04906e+06
748957
169777
105420
103396
175622
598393
985406
409646
186024
103177
164233
715029
578829
173039
102316
184040
372524
974286
711304
161637
103422
102247
169068
576911
958257
396432
181956
101619
160610
695199
568623
169470
101544
181741
399042
966053
702062
162874
101947
101119
167105
564653
957115
378933
183493
102079
160135
695416
562578
170762
102205
184905
377256
970911
721886
162856
103687
103284
174068
592017
1.04434e+06
400617
195253
112778
141583
818348
732949
320090
165930
92935.8
144007
557889
476608
154126
94068.5
167732
346094
825940
614920
147341
95608
96796.6
157675
501061
841587
350627
172091
96661.8
149017
620846
510853
156744
96980.2
175873
363854
871190
649944
153251
98704
98777.2
163283
531849
904411
374460
177183
99721
157961
679948
566285
168889
100548
194986
399803
1.01809e+06
810129
140407
113774
171876
326556
740265
577996
154619
96738.4
98329.5
164287
497155
870532
364359
177565
101562
158184
663274
550467
166984
102174
193674
395411
968157
782854
141760
113525
169796
323182
719081
557806
150144
95884.9
98249
162836
486124
858906
364118
177311
101699
157939
652333
549674
171907
102949
197097
402174
987278
795052
145684
116351
174606
331328
734170
577726
156073
99230.8
101307
169427
505697
892821
375288
184193
105654
164490
669617
570061
179265
106484
204625
456286
1.01972e+06
823369
159002
120408
180018
342384
761249
594049
157749
102577
105489
178709
528475
988069
413037
201715
120196
149902
809095
761929
338790
180120
103293
164239
599073
518368
179768
106620
203081
425255
942471
784789
159759
121780
179812
334961
742502
590995
160279
103804
107043
180656
521717
969089
440063
203491
122545
157649
813643
763175
341823
182120
105467
164313
598569
530590
184763
108269
206451
416843
974809
804833
154648
124377
184250
340076
763685
614976
168664
107171
111074
188718
550399
1.01263e+06
463579
214373
130460
163104
857805
836061
369836
195804
119109
156405
715332
684591
328824
177417
106370
167543
563084
514298
189541
110891
210584
431091
968716
810584
160956
128104
188952
344629
767989
618379
173043
111052
114779
195852
557372
1.03596e+06
475577
220349
134726
170509
877628
847625
377023
200602
122651
161202
731620
716003
333800
181586
109249
172719
587579
529418
193538
113834
218453
435557
993773
846215
161442
133177
197134
356750
817082
714629
158460
122173
181791
332663
701932
583682
175263
109988
115363
199314
531415
988468
453571
218356
135314
167479
853764
836576
369257
200686
124529
160489
722424
707447
336606
184131
111507
176204
581081
529479
198855
116762
220992
440004
986793
836810
166675
136166
201024
363236
815625
717611
162848
125598
186139
340635
716247
601182
180687
113280
119187
204751
554480
1.04989e+06
451251
229748
142214
168385
898592
880130
379609
211351
131553
167459
757227
750904
357822
195729
118682
188235
616665
560512
210796
124128
235415
458673
1.04613e+06
891384
173902
144957
215170
390614
885472
772780
173687
134842
201390
366109
778304
706295
170172
129105
190850
342016
704650
587478
183642
117687
124728
210787
546418
1.03413e+06
487988
235350
147936
184015
910083
903933
402325
218865
138352
178537
790379
798693
374697
204791
132595
174131
715482
715092
351832
195432
121061
189597
603986
557248
212874
127396
239693
464046
1.04681e+06
906537
177731
149986
220704
396446
897933
781442
180280
139506
206975
373387
788863
708373
175280
134042
196814
353126
711661
602527
190862
122356
129525
216328
559757
1.06014e+06
472133
243736
152551
182536
922814
918906
404390
225207
144003
183708
814589
832524
392211
214796
139776
184273
747324
745807
368117
204334
127497
198777
624012
580504
225688
133913
250584
513028
1.07735e+06
931298
198396
159142
232302
419553
926700
814683
185510
147267
218593
395670
837311
774789
188274
143206
211549
380985
795029
719262
182951
139998
205113
361266
729577
627631
200929
128815
136375
228361
588637
1.12812e+06
496833
257693
161580
192908
970885
963485
426729
239008
153743
195360
837324
855667
409062
226752
149134
195536
782977
803762
390335
218155
144279
188822
733298
744205
369695
209331
131530
203861
628763
582020
228203
138513
257115
492520
1.08349e+06
927545
192741
163454
241247
426201
935516
833855
197077
154162
227963
407929
852049
772843
195500
149949
220485
392118
799045
734673
191375
146590
212446
370393
743075
632867
207665
134714
142501
236072
596427
1.123e+06
502529
264455
167605
201277
966150
974784
435562
245659
159673
202328
870472
892815
421557
235512
156154
203428
809667
831993
404703
227921
151632
197157
745203
756615
381897
219679
139598
212309
639111
598384
239720
146475
268857
511630
1.1209e+06
966724
204216
170740
251106
441704
976471
862317
205476
162051
237564
420987
881505
804022
204892
157615
230561
406848
833433
758679
200222
154301
223922
389716
775593
662147
218925
142656
150763
249653
626135
1.18919e+06
527156
280485
177756
211441
1.0115e+06
1.02196e+06
461483
261949
170447
216424
897642
916740
440424
249568
166272
215558
838430
872320
425487
242082
162693
209854
797194
829999
410446
235614
158378
204841
758363
772140
391750
227170
144864
219996
645932
608378
248328
152237
276890
535825
1.12476e+06
967665
217345
178926
259440
452932
975018
856781
212151
168361
245510
430086
881588
798642
211260
163904
238139
415528
830703
758429
208660
159915
229768
392838
770360
653070
222780
147261
155944
253256
621244
1.15727e+06
536818
285666
183386
220487
991548
1.00107e+06
463777
266360
174725
220310
893672
922729
446621
254338
171212
220491
829882
863720
430335
247658
167262
216491
786124
803465
409128
239598
153563
231674
670266
632499
260722
161252
291961
563711
1.16431e+06
1.00183e+06
232516
189316
272695
473238
1.00456e+06
880495
223417
177819
257292
447827
907206
825812
222170
172736
249385
430138
859341
775135
218700
168192
240352
408782
796048
672969
232847
154897
163928
264935
643279
1.1881e+06
560374
297543
192101
231910
1.02586e+06
1.04416e+06
485858
279474
183747
232312
913350
943044
466016
266574
179944
232209
850532
884685
446378
259238
175531
227558
800198
819620
422487
249971
161048
240366
682799
650964
270016
168867
301109
562230
1.17854e+06
1.00694e+06
238091
195455
281598
482436
1.02493e+06
894926
229801
184493
266612
457239
927793
837144
229674
178965
258565
440695
861788
723748
251837
165393
174882
284707
692490
1.27137e+06
591502
320730
206035
249246
1.07973e+06
1.09061e+06
507463
296625
195021
241987
948817
983240
484679
281451
188601
243392
865334
884805
458251
270396
172927
260137
738894
704045
291352
181169
324509
625776
1.26259e+06
1.08454e+06
261683
211597
303277
520301
1.10252e+06
951316
247056
198102
286100
491243
985770
880652
247765
191489
276407
469984
913743
765369
267358
176966
186535
302867
730303
1.33826e+06
623063
339669
218020
263979
1.12997e+06
1.14027e+06
532648
313381
206271
254584
978616
1.01782e+06
505267
296074
198719
257100
899021
925597
479066
284049
181709
272947
771422
740286
303719
190087
340919
622261
1.3283e+06
1.11247e+06
265268
220027
316895
536474
1.13279e+06
977082
258824
207117
297839
505087
1.01506e+06
893322
258157
199785
286998
482042
928621
780228
276999
184015
193429
311396
750979
1.34127e+06
643240
348230
225207
276550
1.12515e+06
1.14819e+06
544470
322592
210774
266634
975465
994469
505066
300547
191335
285675
813356
779163
314649
199623
362712
664511
1.39511e+06
1.15257e+06
284049
231888
332200
558303
1.16844e+06
1.00317e+06
271235
216855
310647
524221
1.04542e+06
911550
268972
207539
296339
495493
948608
784881
283380
189609
200140
318531
755004
1.33214e+06
662575
355837
231518
287989
1.12911e+06
1.15269e+06
557656
329954
216370
274946
979084
1.00879e+06
516401
308040
195907
292056
827204
788726
324851
204434
363283
670972
1.35897e+06
1.13607e+06
294767
235753
337169
565376
1.16727e+06
985185
281036
219118
311777
519385
1.01102e+06
822836
294789
198118
208133
330109
789534
1.37199e+06
684678
369072
237528
303071
1.13834e+06
1.14364e+06
568328
338786
210014
307814
904535
859017
341154
217725
387190
721827
1.49838e+06
1.23128e+06
306163
249420
361803
614966
1.26059e+06
1.05824e+06
304988
233740
335384
562600
1.0837e+06
882460
318081
211787
221020
355191
848211
1.46301e+06
721952
392278
251788
322515
1.19955e+06
1.20632e+06
593922
357591
220530
320451
943699
894638
353075
228058
401815
744192
1.52281e+06
1.24545e+06
326294
257947
370571
617529
1.2661e+06
1.00207e+06
338328
227736
235572
376749
949746
1.62327e+06
800874
425617
269656
346423
1.296e+06
1.29943e+06
647057
386237
234966
344491
1.01116e+06
953458
379431
242412
430189
789887
1.6205e+06
1.31176e+06
348054
273069
392002
649469
1.32285e+06
1.04204e+06
351994
239331
247538
389476
988568
1.68955e+06
827430
441789
279326
343822
1.35207e+06
1.37234e+06
679094
406124
244815
367336
1.05457e+06
991703
400541
252379
446276
831925
1.65499e+06
1.33094e+06
368013
283631
404135
669126
1.33912e+06
1.04387e+06
359034
245695
253587
396089
990179
1.66434e+06
824206
447062
282672
366332
1.33285e+06
1.3413e+06
665530
402760
242452
355246
1.02573e+06
965572
378977
248393
433776
797831
1.57271e+06
1.17684e+06
378248
261066
266391
408066
1.085e+06
1.76115e+06
876220
468440
291591
382804
1.39298e+06
1.39563e+06
696779
416966
250198
366698
1.06682e+06
1.00558e+06
402012
258135
445618
814073
1.61997e+06
1.21869e+06
390886
266547
268972
406329
1.11766e+06
1.7855e+06
892785
470382
277315
414028
1.31296e+06
1.19009e+06
438598
279742
500788
947345
1.89921e+06
1.46977e+06
409484
308308
443428
735863
1.46421e+06
1.10117e+06
382979
260141
267916
416015
1.03071e+06
1.63668e+06
830764
459017
270063
397919
1.21608e+06
1.11239e+06
408509
272453
471737
875551
1.75713e+06
1.27325e+06
409549
275928
279067
433590
1.1493e+06
1.77308e+06
884992
483225
278583
413148
1.28049e+06
1.15555e+06
435023
281024
482191
882264
1.76928e+06
1.28802e+06
413355
279985
283677
436925
1.17474e+06
1.82291e+06
900125
488240
281020
416373
1.30652e+06
1.11964e+06
453260
286444
299493
512156
1.47082e+06
2.20344e+06
1.05341e+06
545000
304597
470618
1.50754e+06
1.33447e+06
485422
303071
523369
989479
1.98484e+06
1.38459e+06
447206
295136
295617
458799
1.18305e+06
1.54081e+06
526110
308705
570117
1.1186e+06
2.26632e+06
1.50866e+06
485036
308956
312043
506204
1.26792e+06
1.63529e+06
568815
325748
594418
1.11493e+06
2.41026e+06
1.59405e+06
493710
316275
318281
512148
1.34655e+06
1.68778e+06
578537
324908
592458
1.14705e+06
2.41324e+06
1.55158e+06
498631
312064
304311
489824
1.27431e+06
1.53333e+06
609463
332611
330126
541842
1.94609e+06
2.67705e+06
1.43365e+06
644783
331520
554192
1.69427e+06
1.38046e+06
554601
326861
335343
620001
1.59584e+06
1.79596e+06
590228
319237
343251
726192
1.95393e+06
2.1567e+06
729940
327592
635428
1.41028e+06
2.74766e+06
1.62411e+06
525874
311901
303184
518078
1.29123e+06
1.39487e+06
563839
303424
296736
560005
1.4643e+06
1.52194e+06
572792
291890
289425
600294
1.53505e+06
1.519e+06
609106
287739
284783
613964
1.49683e+06
1.46089e+06
612569
283132
280484
607479
1.42421e+06
1.38611e+06
598606
278479
276171
591776
1.34839e+06
1.31203e+06
586870
274953
273897
583593
1.27796e+06
1.24637e+06
581762
273916
274070
580855
1.21737e+06
1.1909e+06
580624
274926
275911
580585
1.16675e+06
1.14493e+06
580476
277567
279012
580169
1.12517e+06
1.10745e+06
579527
280820
282227
578327
1.09148e+06
1.07724e+06
576747
283754
284844
574609
1.06451e+06
1.05326e+06
572127
285912
286528
569088
1.0433e+06
1.03459e+06
565791
287002
286931
561957
1.02691e+06
1.02028e+06
557969
286746
286115
553503
1.01448e+06
1.00954e+06
549012
285378
283992
544089
1.00524e+06
1.00162e+06
539207
282852
281109
533937
998502
995900
528640
280033
278363
523085
993657
991820
517625
277337
275715
511975
990237
988965
506505
274704
273103
500892
987872
986997
495527
272094
270492
490057
986243
985643
484885
269460
267841
479645
985106
984717
474734
266781
265140
469782
984328
984041
465160
264046
262386
460539
983790
983584
456247
261273
259603
451964
983428
983272
448009
258484
256816
444059
983151
982986
440440
255703
254057
436820
982856
982654
433526
252955
251328
430225
982499
982240
427248
250253
248665
424252
982047
981735
421568
247611
246072
418858
981508
981142
416452
245050
243570
414004
980880
980484
411839
242575
241156
409627
980202
979779
407693
240191
238823
405701
979466
979027
403965
237870
236539
402163
978689
978234
400613
235617
234329
398983
977871
977410
397592
233437
232195
396112
977037
976575
394875
231341
230146
393539
976200
975744
392423
229328
228182
391207
975378
974923
390206
227408
226312
389097
974559
974110
388189
225576
224528
387170
973757
973312
386358
223837
222836
385423
972964
972527
384684
222183
221226
383818
972190
971770
383162
220614
219710
382366
971445
971037
381763
219127
218266
381023
970730
970340
380487
217723
216904
379805
970052
969676
379312
216394
215615
378683
969412
969062
378233
215136
214399
377656
968822
968494
377245
213950
213250
376716
968282
967978
376333
212829
212168
375849
967797
967518
375495
211773
211148
375049
967366
967116
374718
210776
210186
374306
966995
966775
374002
209837
209280
373617
966681
966499
373338
208953
208426
372977
966426
966283
372719
208120
207619
372377
966231
966126
372137
207334
206859
371815
966094
966026
371590
206593
206140
371284
966013
965984
371072
205892
205460
370784
965987
965984
370585
205229
204817
370310
966012
966027
370122
204601
204207
369864
966085
966117
369686
204006
203629
369441
966204
966252
369272
203441
203081
369043
966365
966431
368883
202905
202560
368665
966566
966649
368514
202396
202065
368311
966802
966899
368168
201913
201593
367976
967069
967180
367841
201453
201145
367663
967365
967488
367535
201016
200718
367367
967686
967820
367247
200598
200311
367092
968029
968173
366978
200199
199924
366833
968392
968544
366725
199818
199554
366593
968771
968931
366490
199454
199201
366367
969167
969337
366269
199106
198863
366158
969579
969757
366064
198774
198539
365962
970005
970190
365873
198454
198229
365781
970444
970635
365697
198149
197931
365613
970895
971092
365533
197855
197645
365460
971354
971554
365385
197574
197371
365318
971819
972026
365248
197303
197107
365189
972293
972501
365125
197043
196854
365072
972770
972979
365015
196794
196610
364967
973249
973459
364914
196553
196376
364871
973731
973942
364825
196322
196151
364789
974214
974423
364748
196101
195935
364717
974692
974902
364679
195887
195727
364655
975171
975381
364620
195682
195525
364600
975650
975859
364569
195483
195331
364553
976128
976336
364526
195292
195144
364511
976607
976815
364490
195106
194962
364478
977086
977293
364461
194927
194786
364450
977566
977772
364437
194753
194615
364429
978047
978254
364420
194584
194449
364413
978531
978739
364408
194420
194288
364405
979018
979226
364403
194260
194131
364403
979508
979717
364406
194105
193979
364408
980000
980209
364417
193956
193833
364423
980492
980699
364438
193812
193693
364447
980980
981182
364468
193674
193559
364481
981462
981656
364506
193543
193454
364529
981933
982117
364555
193390
193317
364575
982024
982583
364612
193304
193196
364633
983226
983015
364674
193205
193065
364702
983309
983440
364869
193092
192923
364497
983331
983264
364742
192883
192539
363957
982877
985044
365414
193118
193333
366404
988901
998169
371125
195204
196114
372100
993404
981202
361235
191018
188851
356489
963703
105129
57893.9
31264.1
19286.5
17996.1
12113.4
8886.38
7355.52
6959.89
5245.88
3817.4
2988.68
2263.53
1648.92
1168.02
815.101
573.65
411.573
303.356
229.998
179.256
143.364
117.44
98.3566
84.1046
73.3274
65.1977
59.0589
54.6139
51.4834
49.4716
48.3074
47.7822
47.2652
46.3371
45.063
43.5278
41.8424
40.0483
38.2109
36.3225
34.3931
32.4037
30.3388
28.1696
25.4078
21.3923
16.3504
11.4215
7.47336
4.67206
2.82189
1.66571
0.986077
0.62194
0.446471
0.367772
0.334589
0.320927
0.314976
0.312016
0.309694
0.30754
0.30549
0.3035
0.301534
0.299559
0.297546
0.295466
0.293292
0.290996
0.288554
0.285939
0.283126
0.280092
0.276813
0.273269
0.269442
0.265318
0.260886
0.256139
0.251078
0.245707
0.240038
0.234089
0.22788
0.221443
0.214806
0.208008
0.201084
0.194075
0.187018
0.179953
0.172916
0.165941
0.159059
0.152298
0.145683
0.139235
0.132971
0.126903
0.121046
0.115404
0.109982
0.104785
0.0998106
0.0950587
0.0905281
0.0862114
0.0821059
0.0782045
0.0745006
0.070987
0.0676565
0.0645013
0.0615137
0.058686
0.0560105
0.0534796
0.051086
0.0488222
0.0466824
0.0446585
0.0427454
0.0409361
0.0392253
0.0376072
0.0360768
0.0346291
0.0332589
0.0319624
0.0307349
0.0295728
0.028472
0.0274292
0.0264411
0.0255043
0.0246161
0.023774
0.022975
0.0222167
0.021497
0.0208135
0.0201643
0.0195476
0.0189614
0.0184043
0.0178745
0.0173705
0.0168911
0.0164349
0.0160006
0.0155872
0.0151934
0.0148184
0.0144611
0.0141207
0.0137961
0.0134868
0.0131919
0.0129107
0.0126426
0.0123868
0.0121429
0.0119102
0.0116883
0.0114766
0.0112747
0.011082
0.0108983
0.0107231
0.010556
0.0103967
0.0102449
0.0101002
0.00996231
0.00983103
0.00970606
0.00958716
0.00947409
0.00936665
0.00926461
0.0091678
0.00907602
0.00898912
0.00890692
0.00882929
0.00875608
0.00868716
0.00862242
0.00856174
0.00850502
0.00845218
0.00840314
0.00835784
0.00831621
0.00827822
0.00824387
0.00821316
0.00818622
0.00816319
0.00814431
0.00812967
0.00811967
0.00811376
0.00811105
0.00810917
0.00810771
0.00810772
0.00810761
0.00810777
0.00810858
0.00811027
0.00811287
0.00811562
0.00811713
0.00811645
0.00811361
0.00810911
0.00810346
0.00809696
0.00808974
0.00808182
0.00807317
0.00806375
0.00805352
0.00804246
0.00803056
0.00801784
0.0080043
0.00798996
0.00797483
0.00795893
0.00794226
0.00792484
0.00790667
0.00788778
0.00786818
0.00784789
0.00782691
0.00780528
0.007783
0.0077601
0.00773659
0.00771249
0.00768783
0.00766263
0.00763691
0.00761069
0.00758399
0.00755684
0.00752927
0.0075013
0.00747295
0.00744426
0.00741526
0.00738597
0.00735642
0.00732664
0.00729668
0.00726657
0.00723634
0.00720605
0.00717577
0.00714566
0.00711607
0.00708772
0.00706228
0.00704364
0.00704038
0.00707206
0.00718172
0.00746275
0.00811329
0.00954275
0.0126139
0.0190728
0.0323353
0.0588934
0.110761
0.209738
0.394471
0.733161
1.34748
2.45597
4.43436
7.81226
12.9526
19.3047
25.4079
30.6251
37.1996
54.6476
111.232
353.224
1710.34
5117.1
6290.97
6386.7
7291.31
7250.98
7981.89
7894.45
8501.64
8379.85
8920.39
8774.98
9266.52
9104.26
9558.22
9383.58
9807.88
9623.84
10024.3
9832.77
10213.9
10016.3
10381.2
10178.7
10529.6
10322.8
10661.4
10451
10779
10565.7
10884.6
10669
10980.1
10762.7
11067.2
10848.5
11147.5
10927.6
11221.8
11001.3
11291.2
11070.4
11356.6
11135.5
11418.4
11197.2
11477.1
11255.9
11533.2
11312
11587.1
11366
11638.8
11417.9
11688.7
11467.5
11737.1
11515
11782.9
11560.2
11826.5
11603.3
11868
11644.3
11907.3
11683.1
11944.1
11719.3
11978.1
11752.4
12008.6
11781.7
12034.6
11806
12054.9
11824
12067.9
11833.9
12071.1
11833
12062.4
11819
12038.8
11788.6
11996.8
11738.4
11932.8
11664.9
11843.3
11563.2
11725.2
11426
11577.1
11264.9
11404.9
11081.2
11210.9
10879.1
10999.2
10661.2
10775.1
10436.9
10548.1
10217.5
10328
10009.4
10120.7
9816.31
9929.55
9641.14
9757.33
9485.98
9605.92
9352.13
9476.4
9239.94
9368.92
9148.9
9282.74
9073.33
9215.49
9015.76
9168.45
8978.4
9142.83
8961.6
9137.44
8963.44
9149.49
8980.92
9175.74
9010.94
9213.16
9050.69
9259.37
9097.38
9312.11
9148.71
9366.66
9201.55
9421.18
9254.17
9474.83
9306.02
9527.08
9356.3
9577.27
9404.53
9625.19
9450.41
9670.94
9493.39
9713.45
9533.25
9752.76
9570.44
9789.47
9604.77
9822.83
9635.44
9852.68
9663.1
9879.03
9685
9912.1
9703.2
9946.79
9708.74
9957.12
9552.3
9875.43
8917.02
8756.18
7015.88
4674.52
5045.38
5504.42
3490.27
5966.92
5553.84
3508.24
6016.5
5557.38
3541.24
6029.4
5568.66
3536.56
6023.38
5562.09
3531.98
6009.14
5550.92
3522.86
5995.54
5538.25
3512.34
5980.84
5524.04
3501.49
5964.64
5508.74