/*--------------------------------*- C++ -*----------------------------------*\
| =========                 |                                                 |
| \\      /  F ield         | OpenFOAM: The Open Source CFD Toolbox           |
|  \\    /   O peration     | Version:  v2006                                 |
|   \\  /    A nd           | Website:  www.openfoam.com                      |
|    \\/     M anipulation  |                                                 |
\*---------------------------------------------------------------------------*/
FoamFile
{
    version     2.0;
    format      ascii;
    class       volScalarField;
    location    "0.161";
    object      turbulenceProperties:I;
}
// * * * * * * * * * * * * * * * * * * * * * * * * * * * * * * * * * * * * * //

dimensions      [0 0 0 0 0 0 0];


internalField   nonuniform List<scalar> 
16277
(
0.149977
0.149976
0.149984
0.149987
0.149992
0.149991
0.149992
0.149995
0.150002
0.15001
0.150016
0.150018
0.150019
0.150017
0.150015
0.150013
0.150011
0.150009
0.150008
0.150007
0.150006
0.150005
0.150005
0.150004
0.150004
0.150003
0.150003
0.150003
0.150002
0.150002
0.150002
0.150002
0.150002
0.150002
0.150002
0.150002
0.150002
0.150002
0.150002
0.150001
0.150001
0.150001
0.150001
0.150001
0.150001
0.150001
0.150001
0.150001
0.150001
0.150001
0.150001
0.150001
0.150001
0.150001
0.150001
0.150001
0.150001
0.150001
0.150001
0.150001
0.150001
0.150001
0.150001
0.150001
0.150001
0.150001
0.150001
0.150001
0.15
0.15
0.15
0.15
0.15
0.15
0.149999
0.149999
0.149998
0.149997
0.149995
0.149995
0.149998
0.150005
0.150018
0.150031
0.150035
0.150024
0.150006
0.149987
0.149966
0.149968
0.149981
0.149977
0.149989
0.150008
0.149873
0.149304
0.14506
0.13908
0.145978
0.148746
0.14598
0.139197
0.133277
0.129404
0.135533
0.143821
0.139875
0.129547
0.125376
0.123121
0.127253
0.138208
0.13454
0.122608
0.120471
0.119191
0.121243
0.133289
0.130277
0.117866
0.11744
0.116713
0.117167
0.12941
0.126996
0.114913
0.115549
0.115164
0.114556
0.126377
0.124398
0.112922
0.11435
0.114173
0.112769
0.123969
0.122298
0.111519
0.113571
0.113516
0.111488
0.121994
0.120553
0.110494
0.113058
0.113089
0.110551
0.120351
0.119086
0.109736
0.112727
0.112809
0.10985
0.118957
0.11782
0.109151
0.112502
0.112616
0.109299
0.117745
0.116713
0.108685
0.112351
0.112489
0.10886
0.116682
0.115735
0.10831
0.112254
0.112407
0.108505
0.115741
0.114868
0.108006
0.112194
0.112358
0.108218
0.114904
0.114093
0.107762
0.112163
0.112336
0.10799
0.114157
0.113401
0.107571
0.112155
0.112336
0.107813
0.11349
0.112785
0.107426
0.112168
0.112356
0.107684
0.112899
0.112242
0.107327
0.112198
0.112394
0.107599
0.112381
0.111771
0.107272
0.112246
0.112448
0.10756
0.111934
0.111369
0.10726
0.11231
0.11252
0.107565
0.111556
0.111032
0.107292
0.11239
0.112608
0.107613
0.111242
0.110757
0.107364
0.112486
0.112712
0.107701
0.11099
0.110542
0.107476
0.112599
0.112833
0.10783
0.110797
0.110383
0.107626
0.112727
0.11297
0.107998
0.11066
0.11028
0.107814
0.112871
0.113124
0.108203
0.110579
0.11023
0.108038
0.11303
0.113293
0.108445
0.110551
0.110233
0.108298
0.113205
0.113478
0.108725
0.110578
0.110288
0.108595
0.113396
0.11368
0.109042
0.110656
0.110395
0.108928
0.113603
0.113898
0.109396
0.110788
0.110554
0.109299
0.113826
0.114132
0.109789
0.110972
0.110766
0.109707
0.114064
0.114383
0.110221
0.11121
0.11103
0.110154
0.114319
0.114651
0.110692
0.111502
0.111349
0.11064
0.114589
0.114934
0.111204
0.111848
0.111721
0.111167
0.114875
0.115233
0.111758
0.112249
0.112147
0.111735
0.115174
0.115546
0.112354
0.112704
0.112626
0.112343
0.115486
0.11587
0.112989
0.113211
0.113156
0.112989
0.115808
0.116203
0.113661
0.113768
0.113732
0.113668
0.116134
0.116539
0.114364
0.114369
0.11435
0.114376
0.116461
0.116873
0.115093
0.115009
0.115002
0.115106
0.116781
0.117195
0.115838
0.115678
0.115677
0.115846
0.117084
0.117494
0.116586
0.116362
0.11636
0.116581
0.117357
0.117757
0.11732
0.117045
0.11703
0.117293
0.117585
0.117965
0.118015
0.117703
0.117662
0.117953
0.117749
0.118099
0.118641
0.118305
0.118223
0.118529
0.117826
0.118133
0.119161
0.118815
0.118674
0.118986
0.117789
0.118039
0.119533
0.119192
0.118973
0.119278
0.11762
0.117759
0.119689
0.119394
0.119069
0.119303
0.117293
0.117291
0.119543
0.119351
0.118904
0.119017
0.116786
0.116627
0.119065
0.119024
0.118443
0.118399
0.116131
0.115787
0.118246
0.118389
0.117675
0.11745
0.115302
0.114828
0.117111
0.117456
0.11663
0.116201
0.114283
0.113753
0.115656
0.116222
0.115269
0.114596
0.113078
0.112522
0.113852
0.114677
0.113624
0.11269
0.111786
0.111303
0.111847
0.11293
0.111839
0.110671
0.110576
0.110162
0.10978
0.111082
0.109993
0.108639
0.109474
0.109134
0.107753
0.109212
0.108158
0.106689
0.108506
0.108247
0.105842
0.107385
0.106395
0.104875
0.10769
0.107512
0.104109
0.105656
0.104749
0.103216
0.107033
0.106928
0.102576
0.104078
0.103249
0.101771
0.106531
0.106491
0.101258
0.10266
0.101904
0.100547
0.106177
0.106193
0.10016
0.10142
0.100743
0.099547
0.105959
0.10602
0.0992793
0.100363
0.0997671
0.0987651
0.105857
0.105953
0.098608
0.0994843
0.0989692
0.0981813
0.105849
0.105974
0.0981058
0.0987694
0.0983276
0.0977579
0.10592
0.106062
0.0977554
0.0981978
0.0978223
0.0974798
0.106051
0.1062
0.0975397
0.0977495
0.097434
0.0973275
0.106222
0.106369
0.0974343
0.0974059
0.0971414
0.0972768
0.106416
0.106557
0.0974158
0.0971401
0.0969135
0.0973029
0.106625
0.106757
0.097461
0.0969231
0.0967273
0.0973828
0.106835
0.106948
0.0975479
0.096741
0.0965715
0.0974947
0.107028
0.107113
0.0976555
0.0965865
0.0964302
0.0976202
0.107199
0.10726
0.0977718
0.0964512
0.0963087
0.0977474
0.107341
0.10738
0.0978828
0.0963342
0.0961921
0.0978671
0.107464
0.107499
0.0979841
0.0962083
0.0960536
0.0979675
0.107576
0.10761
0.0980741
0.0960701
0.0959001
0.0980495
0.107666
0.107696
0.0981444
0.0959139
0.095727
0.0981063
0.107735
0.107758
0.0981891
0.0957394
0.0955513
0.0981471
0.107786
0.107807
0.0982196
0.0955597
0.0953547
0.0981637
0.107823
0.107843
0.0982244
0.0953572
0.0951339
0.0981609
0.107859
0.107881
0.0982128
0.0951247
0.094885
0.0981425
0.107893
0.107905
0.0981868
0.094879
0.0946396
0.0981096
0.107903
0.107906
0.0981417
0.0946271
0.0943806
0.09805
0.107892
0.107894
0.0980749
0.0943626
0.0941035
0.0979698
0.107879
0.107873
0.0979884
0.0940761
0.0938066
0.0978741
0.107846
0.107836
0.0978752
0.0937683
0.093465
0.0977214
0.107799
0.107702
0.0976842
0.0934037
0.0931252
0.0976264
0.10766
0.107437
0.0972598
0.0928854
0.092651
0.0971434
0.10699
0.106281
0.0956004
0.0919153
0.0928363
0.0958751
0.104159
0.105109
0.0933897
0.0905863
0.0953279
0.100925
0.107143
0.112689
0.11635
0.120711
0.12352
0.125771
0.127336
0.128391
0.128918
0.128949
0.128436
0.127318
0.125554
0.122569
0.120265
0.115108
0.110274
0.105092
0.100386
0.099108
0.102156
0.116028
0.131332
0.13375
0.117544
0.102954
0.103897
0.119146
0.13548
0.136239
0.120283
0.104643
0.105277
0.120931
0.137045
0.137377
0.121288
0.105505
0.105775
0.121504
0.137715
0.137772
0.121709
0.105906
0.105991
0.121775
0.137796
0.137799
0.12178
0.106087
0.106124
0.121801
0.137784
0.137761
0.12181
0.106215
0.106235
0.121804
0.137733
0.137707
0.121819
0.106328
0.106345
0.121791
0.137675
0.137639
0.121814
0.106441
0.10646
0.121784
0.137596
0.137572
0.121812
0.106556
0.106569
0.121774
0.13752
0.137498
0.121792
0.106658
0.106666
0.121768
0.137448
0.137421
0.121773
0.106765
0.106784
0.121771
0.137385
0.137334
0.121758
0.106885
0.106902
0.121763
0.137301
0.137253
0.121746
0.107002
0.107018
0.12175
0.137211
0.137176
0.121748
0.107127
0.107147
0.121742
0.137128
0.137079
0.121731
0.107261
0.107278
0.121724
0.137026
0.136982
0.121722
0.107392
0.107413
0.121728
0.136945
0.136901
0.121719
0.107523
0.10754
0.121731
0.136868
0.136831
0.121733
0.107654
0.107675
0.121734
0.13679
0.136743
0.121743
0.107791
0.10781
0.121722
0.136694
0.136658
0.121742
0.107939
0.107966
0.121736
0.136608
0.136564
0.121766
0.108099
0.108122
0.12174
0.136503
0.13647
0.121773
0.108246
0.108266
0.121769
0.136431
0.136399
0.121802
0.108384
0.108401
0.121785
0.136355
0.136318
0.121818
0.108531
0.108551
0.121817
0.136274
0.136246
0.12186
0.108672
0.108684
0.121834
0.136193
0.136164
0.121878
0.10881
0.108827
0.121878
0.136124
0.13609
0.121925
0.108957
0.10897
0.121902
0.136035
0.136002
0.121944
0.109083
0.10908
0.12194
0.135963
0.13595
0.12199
0.109168
0.109152
0.121959
0.135909
0.13589
0.122002
0.109239
0.109215
0.121976
0.135845
0.135817
0.122007
0.109278
0.109239
0.121968
0.13578
0.135749
0.121973
0.109289
0.109239
0.121933
0.1357
0.135664
0.121907
0.109252
0.109167
0.121852
0.135614
0.135592
0.1218
0.109131
0.109015
0.12171
0.135544
0.135487
0.121586
0.108912
0.108758
0.121467
0.135453
0.13539
0.12129
0.108601
0.108405
0.12109
0.13532
0.135246
0.120851
0.108198
0.107926
0.120554
0.135155
0.135035
0.120198
0.107677
0.107338
0.119798
0.134894
0.134726
0.119333
0.107028
0.106587
0.118798
0.134553
0.134362
0.118217
0.106213
0.105651
0.117507
0.134122
0.133873
0.116727
0.10517
0.104495
0.115856
0.133602
0.133296
0.114918
0.103982
0.103285
0.11385
0.132907
0.132488
0.112738
0.102734
0.10198
0.111427
0.131983
0.131427
0.110093
0.101352
0.100486
0.108575
0.130866
0.130287
0.107077
0.0998011
0.0989172
0.105374
0.129664
0.129048
0.103702
0.0981858
0.0973327
0.101687
0.128143
0.126816
0.0997369
0.0965523
0.0957651
0.0981127
0.125366
0.124071
0.0961486
0.0951113
0.0945462
0.0943202
0.12289
0.121691
0.0932338
0.0945373
0.0942577
0.0923198
0.120606
0.119635
0.0909423
0.094574
0.094607
0.0902214
0.118549
0.117304
0.0896401
0.0952999
0.0956571
0.0893967
0.116081
0.11517
0.0898272
0.0969585
0.0975366
0.0898893
0.114347
0.113492
0.0910952
0.0992569
0.100396
0.092532
0.112422
0.112471
0.0959395
0.103391
0.105062
0.0985476
0.113764
0.134289
0.0900334
0.0855092
0.0974824
0.0949545
0.126251
0.125723
0.0915472
0.0966115
0.0973268
0.0905463
0.125386
0.124229
0.0892947
0.0967932
0.0981675
0.089055
0.122802
0.12099
0.0884003
0.0981449
0.100627
0.0892753
0.119182
0.117364
0.0893743
0.101044
0.104661
0.0920548
0.115791
0.114618
0.0932895
0.105976
0.111311
0.0983329
0.114479
0.11544
0.101335
0.114023
0.0881126
0.0875838
0.130532
0.121087
0.0944955
0.106537
0.107206
0.0936082
0.119098
0.117218
0.0965208
0.112661
0.114223
0.0972086
0.115968
0.115003
0.100633
0.118815
0.121012
0.102397
0.114394
0.116177
0.108312
0.12642
0.128379
0.112612
0.118369
0.126834
0.0945587
0.0971636
0.120285
0.101145
0.121501
0.11976
0.10092
0.121846
0.128194
0.105749
0.119431
0.11883
0.107416
0.129886
0.138168
0.115882
0.120158
0.12397
0.122357
0.141914
0.107738
0.0981069
0.130649
0.12261
0.111659
0.13754
0.141269
0.114305
0.121427
0.122881
0.125152
0.152744
0.15778
0.131452
0.125248
0.13209
0.142343
0.164079
0.126105
0.109405
0.132417
0.127838
0.129666
0.161851
0.166148
0.133312
0.128697
0.134372
0.152192
0.182358
0.1898
0.163011
0.141354
0.137632
0.124348
0.152053
0.195992
0.158094
0.137488
0.141211
0.166822
0.206118
0.229872
0.195562
0.153703
0.16189
0.208505
0.240901
0.209655
0.166663
0.151662
0.170792
0.228639
0.267309
0.28782
0.249891
0.184805
0.171907
0.207735
0.265971
0.345801
0.30239
0.212796
0.245437
0.35405
0.39877
0.438215
0.347699
0.237616
0.414305
0.610647
0.648639
0.918345
0.847643
0.510938
1
1
1
0.825004
0.796956
0.508856
0.275466
0.42454
0.471696
0.342296
0.308868
0.213206
0.21138
0.276967
0.289217
0.239441
0.199198
0.171728
0.177707
0.216382
0.232993
0.19267
0.164838
0.149213
0.149827
0.177898
0.198305
0.18722
0.162708
0.140832
0.135669
0.122352
0.146759
0.165916
0.148481
0.136903
0.129312
0.123929
0.138547
0.155693
0.136627
0.127452
0.122645
0.127718
0.148905
0.116655
0.105418
0.122164
0.12056
0.120083
0.139725
0.133639
0.114297
0.11818
0.120732
0.0982767
0.104792
0.127634
0.110222
0.117124
0.114732
0.105836
0.122528
0.0976793
0.0934595
0.11863
0.113294
0.102777
0.11976
0.113328
0.0995466
0.113298
0.119363
0.09106
0.0914293
0.111297
0.0978906
0.111445
0.110254
0.0943122
0.106171
0.0868134
0.0866597
0.116406
0.108085
0.092814
0.105642
0.0998612
0.0899276
0.109282
0.116828
0.0845975
0.0825351
0.0995521
0.0892416
0.10689
0.107158
0.0864176
0.0952282
0.0799226
0.0815724
0.114308
0.104159
0.0867471
0.0968364
0.0895843
0.0830901
0.105027
0.108456
0.0805076
0.0839107
0.0737596
0.076655
0.122002
0.105451
0.0780194
0.0849468
0.0816446
0.0767769
0.107815
0.116704
0.0769259
0.0717221
0.0807241
0.075301
0.102083
0.106502
0.0750299
0.0778332
0.0691596
0.0735477
0.119098
0.101947
0.0721289
0.0766387
0.0742552
0.0721317
0.105162
0.115138
0.0735847
0.0668927
0.0737124
0.0706394
0.100181
0.105171
0.0710427
0.0717096
0.0657926
0.0732576
0.115312
0.0990172
0.0681714
0.0705024
0.0689001
0.0689806
0.103612
0.116886
0.0702866
0.063679
0.0686945
0.0667905
0.09903
0.102936
0.0676204
0.0668347
0.0624762
0.0691423
0.11586
0.0982324
0.0646761
0.0654408
0.0642472
0.0658817
0.10299
0.118419
0.067898
0.0607325
0.0633655
0.0645986
0.100573
0.109356
0.0669761
0.0592672
0.0655964
0.0631702
0.0931233
0.097245
0.0634998
0.0633456
0.0601277
0.0687082
0.108549
0.0939989
0.0631734
0.0635916
0.0624757
0.063415
0.0986645
0.109083
0.0684496
0.0596822
0.0630639
0.0626345
0.093198
0.0975023
0.0622056
0.0613705
0.0590715
0.0689466
0.108609
0.0935046
0.0613306
0.0605538
0.0589043
0.0609322
0.0993838
0.111642
0.0702119
0.0577247
0.0585642
0.0604647
0.0945479
0.0991982
0.0602253
0.0568063
0.0567012
0.0682795
0.113531
0.0963753
0.0572519
0.0566165
0.0549767
0.065404
0.106175
0.0917209
0.0578004
0.0567739
0.0546907
0.0575767
0.0968051
0.107655
0.0682244
0.0548024
0.055071
0.0571651
0.0921573
0.0971303
0.056735
0.052545
0.0540276
0.0682363
0.110519
0.0937944
0.0537384
0.0526813
0.0520068
0.0637783
0.104361
0.0893338
0.0549026
0.0530936
0.05102
0.0548059
0.0938736
0.104721
0.0667305
0.0521656
0.0525067
0.0549543
0.0900587
0.0954404
0.0550311
0.0503001
0.0523652
0.0673824
0.109159
0.092751
0.0517248
0.0502021
0.0502053
0.0628602
0.103714
0.0886344
0.0530664
0.0510094
0.0487278
0.0531456
0.0933838
0.104338
0.0661406
0.0503253
0.0498762
0.0528147
0.0895283
0.0956275
0.0529643
0.0476364
0.0505566
0.0699495
0.106116
0.0920599
0.0502545
0.047477
0.0479993
0.0614368
0.103547
0.0876196
0.0502791
0.0480834
0.0459154
0.0513566
0.09327
0.106482
0.06641
0.0489712
0.0461166
0.0483835
0.0901991
0.10117
0.0608076
0.046874
0.0467116
0.0491531
0.0860426
0.091624
0.0498417
0.0451995
0.0485911
0.0669674
0.102601
0.0890017
0.0487734
0.0457824
0.0465057
0.0602902
0.100205
0.0843136
0.04849
0.0463025
0.0442824
0.0495704
0.0905721
0.102269
0.0673697
0.0476387
0.0447839
0.0476966
0.0881236
0.099655
0.059814
0.0457038
0.045523
0.0477631
0.0845001
0.0908094
0.0493083
0.0437007
0.0475413
0.0657237
0.104431
0.0887408
0.0470003
0.0443625
0.0453604
0.0597737
0.0989977
0.0843421
0.0472243
0.0447743
0.0430245
0.0482452
0.0904453
0.100939
0.067547
0.047004
0.043868
0.0465308
0.088289
0.100259
0.0615702
0.0459403
0.0432993
0.0445012
0.0852784
0.0956003
0.0582756
0.0445751
0.0442898
0.0465162
0.0822148
0.0876589
0.047901
0.0425993
0.0463159
0.0646042
0.099444
0.0853849
0.0458424
0.0430308
0.0443016
0.0587667
0.0966608
0.0825876
0.0460042
0.0436177
0.0419704
0.0475793
0.0891127
0.0995658
0.066926
0.0461646
0.0428297
0.0458077
0.0877986
0.0996247
0.0608598
0.0451794
0.0422806
0.0437015
0.0853333
0.0945925
0.0572891
0.0434683
0.0427832
0.0450979
0.0804735
0.0862282
0.0464399
0.0411707
0.0454075
0.0634429
0.0990851
0.08504
0.0444736
0.0418819
0.0443585
0.0593213
0.0965361
0.0828076
0.0427274
0.0415988
0.0431124
0.0570835
0.0925036
0.0799819
0.0447642
0.0424617
0.0411557
0.0467352
0.0862247
0.0968734
0.0647464
0.0452836
0.0418291
0.0447855
0.0841541
0.0958636
0.0592428
0.0441787
0.0411713
0.0423278
0.0819643
0.0914226
0.0564154
0.0426392
0.0417937
0.0440852
0.0784374
0.0840825
0.0457793
0.0404151
0.0447368
0.0628753
0.0962072
0.0831636
0.0440054
0.0412448
0.0438727
0.0587242
0.0945354
0.0818537
0.0424212
0.0409826
0.0426145
0.0566492
0.0910684
0.0781987
0.0439284
0.04152
0.0401504
0.0457292
0.0839352
0.0973372
0.0620002
0.0446657
0.040844
0.0433819
0.0838683
0.0951723
0.0582996
0.0435849
0.0404038
0.041426
0.0816004
0.0911664
0.0564215
0.0422682
0.0408904
0.0434022
0.0780654
0.0837485
0.0451943
0.0395871
0.0443221
0.0619547
0.0971063
0.0833143
0.0433268
0.0405
0.0432938
0.0584169
0.0941319
0.0801802
0.0411248
0.0399245
0.0424228
0.0561965
0.0901587
0.0780512
0.0408472
0.0394754
0.0414842
0.0552928
0.0873515
0.0754154
0.0424479
0.0400985
0.0390354
0.0445451
0.0812926
0.0914965
0.0629229
0.0435704
0.0402187
0.043436
0.0815102
0.0933215
0.0579824
0.0430004
0.0395701
0.041106
0.0806634
0.0902902
0.055972
0.0420994
0.0391003
0.0404529
0.0774863
0.0865242
0.0550645
0.0411544
0.0395995
0.0421689
0.0746799
0.0802003
0.0438565
0.0383979
0.0431986
0.060472
0.0928578
0.0802268
0.0420326
0.03935
0.0422267
0.0567235
0.0913695
0.0785667
0.0401091
0.0389444
0.0415715
0.0550196
0.0881653
0.0763236
0.0400201
0.038593
0.0407989
0.0546963
0.0852775
0.0741133
0.0418613
0.0391625
0.038136
0.0437249
0.0794291
0.0918615
0.0601299
0.0431019
0.039
0.0419344
0.0794974
0.0905895
0.0562929
0.0419929
0.0385295
0.0396039
0.077999
0.0878942
0.0548997
0.0412978
0.0381958
0.0397881
0.0761013
0.0850879
0.0543266
0.0404351
0.0385129
0.0412303
0.0733858
0.0791156
0.0432218
0.03757
0.0425894
0.0613193
0.0885958
0.0790971
0.0420625
0.0387871
0.0418993
0.0564037
0.0902744
0.0773623
0.0394056
0.0381316
0.0409345
0.054395
0.0867033
0.0752234
0.0390966
0.0376822
0.0404128
0.053492
0.0847537
0.0738215
0.0391617
0.0374638
0.0398136
0.053188
0.082471
0.071899
0.0408793
0.0378947
0.0370605
0.0428972
0.0773444
0.0906376
0.0587934
0.0424442
0.037825
0.0409566
0.077896
0.0888846
0.0553396
0.0413358
0.0375563
0.0387707
0.076575
0.0861017
0.0539452
0.0405961
0.0372126
0.0387672
0.0744655
0.0835391
0.0531168
0.0399476
0.0369317
0.0387495
0.0728803
0.0813626
0.0525086
0.0391857
0.0372605
0.0401211
0.0705148
0.0757233
0.0418733
0.0363908
0.0416668
0.0580278
0.0872506
0.075355
0.0402131
0.0373825
0.0408466
0.0545433
0.0859267
0.0740594
0.0384925
0.0371067
0.0400885
0.0528917
0.0835548
0.0726773
0.0382865
0.0367984
0.039656
0.0524444
0.0816399
0.071327
0.0385467
0.036674
0.0389601
0.0517134
0.0796019
0.0695117
0.0397949
0.0369257
0.036174
0.041811
0.0746306
0.0869123
0.0572098
0.0415203
0.0368144
0.0398858
0.0753678
0.0856721
0.0537708
0.0403685
0.0365135
0.0378459
0.0742351
0.0836085
0.0523333
0.0397869
0.0362048
0.0376161
0.0725594
0.081286
0.0517818
0.0391803
0.0359871
0.0377652
0.0708304
0.0787788
0.0513368
0.038479
0.0363142
0.03919
0.0683569
0.0735591
0.041151
0.0355791
0.0409257
0.0567667
0.0849353
0.0737789
0.0394015
0.0363521
0.0399711
0.0530913
0.0838938
0.0724213
0.0373524
0.0359892
0.0391876
0.0513995
0.081464
0.0708568
0.0371267
0.0357019
0.0387588
0.0508904
0.0794009
0.0694888
0.0373516
0.0355133
0.0380871
0.0505913
0.077471
0.0675313
0.0387456
0.0357623
0.0351353
0.0409255
0.072893
0.0855249
0.0559449
0.040785
0.0356721
0.0388635
0.0734509
0.0834524
0.0527589
0.0396421
0.0353151
0.0368695
0.0719328
0.0809381
0.0510279
0.0388345
0.0350053
0.0365892
0.0705128
0.079084
0.0504848
0.0383103
0.0348687
0.0366528
0.0690706
0.0773128
0.049981
0.0379962
0.0347615
0.036696
0.06757
0.0753379
0.0495311
0.0372779
0.0349993
0.0379142
0.0654135
0.0707057
0.0397829
0.0343739
0.0396271
0.0555474
0.0803102
0.0704757
0.038495
0.0352798
0.0388986
0.0515632
0.0801428
0.0693046
0.0363458
0.0347772
0.0380601
0.0498489
0.0775542
0.067515
0.0361271
0.034544
0.0376602
0.0492673
0.075489
0.0661593
0.0364359
0.0344746
0.0370991
0.0487026
0.073692
0.0644189
0.03748
0.0345944
0.0340456
0.0394799
0.0697574
0.0802333
0.0544611
0.0395537
0.0348265
0.0380061
0.0697901
0.0792975
0.0510321
0.0386711
0.0343151
0.0360843
0.0689026
0.077197
0.049409
0.037794
0.0339505
0.0356333
0.0673105
0.0750996
0.0487502
0.0372772
0.0337135
0.0357139
0.065671
0.0732344
0.0481993
0.0365155
0.0337916
0.0367663
0.0636036
0.0690609
0.0386889
0.033253
0.0388027
0.0545207
0.0781337
0.0684942
0.0377653
0.0341978
0.03803
0.0504471
0.0777999
0.0673813
0.0355334
0.0336529
0.037145
0.0486741
0.0752013
0.0655126
0.0351253
0.0332966
0.036575
0.047803
0.0732884
0.0641528
0.0351249
0.0331495
0.03599
0.0474217
0.0717775
0.0625411
0.0362483
0.0332268
0.0327156
0.0382995
0.0678227
0.0776054
0.0532163
0.0383969
0.033603
0.0370043
0.0675332
0.0766531
0.0496607
0.0375993
0.0331188
0.0350911
0.0664402
0.0745361
0.0482555
0.0368007
0.0328234
0.0348288
0.0649354
0.0728416
0.0475828
0.0363476
0.0326144
0.0347852
0.0635712
0.071297
0.0470959
0.0356168
0.0326734
0.0357412
0.062083
0.0672935
0.0376615
0.0321462
0.037849
0.0526207
0.076426
0.0666519
0.0366133
0.0331179
0.0370298
0.0489664
0.0751023
0.0648739
0.0346152
0.0326237
0.0361638
0.0472293
0.0727396
0.0630019
0.0341878
0.0322616
0.0354843
0.046735
0.0708899
0.0621776
0.0355828
0.0322472
0.0318663
0.0377478
0.0676701
0.0778848
0.052578
0.0381854
0.0328478
0.0364036
0.0672724
0.075716
0.0488883
0.0370156
0.0322587
0.0343395
0.0653903
0.0734558
0.0474027
0.0361077
0.0318555
0.033998
0.0634007
0.0712315
0.046818
0.0353021
0.0317217
0.0351775
0.0617984
0.0671573
0.0370703
0.0312378
0.037323
0.0529656
0.074955
0.0657747
0.0362083
0.0322817
0.0364493
0.0484235
0.0745481
0.0638509
0.0336335
0.0316496
0.0355377
0.0467685
0.0720328
0.0628113
0.0336722
0.031378
0.0349945
0.0464705
0.0706835
0.0614973
0.0348694
0.0312947
0.0309907
0.037198
0.067041
0.0771647
0.0519143
0.0376985
0.0319436
0.0357375
0.0660588
0.0746603
0.048188
0.0363347
0.0313692
0.0335356
0.0640864
0.0720477
0.0465516
0.0353364
0.0309261
0.0332186
0.0622495
0.0702456
0.0459878
0.0345183
0.0307588
0.0343461
0.0610258
0.0663026
0.03621
0.0302849
0.0367064
0.0509125
0.0750442
0.0644894
0.0348827
0.0313384
0.0357822
0.0476302
0.0733771
0.063278
0.0333279
0.031019
0.0350313
0.0461448
0.071328
0.0619133
0.033026
0.0307764
0.0345111
0.0458778
0.0698722
0.0609074
0.0344216
0.0306832
0.0303757
0.0365888
0.0663743
0.0751696
0.0516161
0.0371429
0.0314876
0.0355032
0.0646248
0.0730629
0.0476327
0.0359003
0.0308171
0.0333375
0.0626691
0.070618
0.0460076
0.0345966
0.0303222
0.0339414
0.0609728
0.0659399
0.0354787
0.0298643
0.0367678
0.0511916
0.0753582
0.064456
0.0349612
0.0310932
0.0356833
0.0474992
0.0729646
0.0629099
0.0331179
0.0306407
0.0347796
0.0460012
0.0709697
0.0614222
0.0327114
0.030354
0.0341609
0.0455549
0.0693112
0.0602196
0.0339468
0.0301572
0.0299119
0.0360851
0.0655026
0.0735734
0.0516062
0.0367104
0.0310873
0.035369
0.0636345
0.0720065
0.0473974
0.0356236
0.0305136
0.0330791
0.0619883
0.0697451
0.0457198
0.0343243
0.0299577
0.0335942
0.0597112
0.0648577
0.0354846
0.0296254
0.0365687
0.0512166
0.0738224
0.064128
0.0350982
0.0309321
0.0356349
0.0475811
0.072621
0.0625389
0.0332713
0.0304831
0.0344838
0.046041
0.0703546
0.0608921
0.0338852
0.0300625
0.0298525
0.0360106
0.0660811
0.0742463
0.0518086
0.0368645
0.030963
0.0355035
0.0637621
0.0720601
0.0477752
0.0354922
0.030216
0.0341138
0.0617448
0.066826
0.0358316
0.0298124
0.0367743
0.0514957
0.0748986
0.0635487
0.0346892
0.0307075
0.0357101
0.0476922
0.0724037
0.0626346
0.0332924
0.0302073
0.0345918
0.046351
0.0707652
0.0613192
0.0339075
0.02979
0.0296236
0.0361825
0.0666558
0.0751461
0.0518337
0.0369857
0.0307372
0.0353274
0.0644697
0.0727473
0.0476871
0.0353993
0.0297597
0.0337718
0.062186
0.0672775
0.0354727
0.0294253
0.0367458
0.0517375
0.0755406
0.0643481
0.0348341
0.0304015
0.0351138
0.0473716
0.0724682
0.0613636
0.0335679
0.029368
0.029162
0.0356703
0.0669373
0.0761109
0.0524614
0.0370455
0.0305137
0.0351132
0.0651717
0.0736247
0.0482667
0.0355857
0.0295024
0.0338203
0.0627355
0.0679473
0.0357052
0.0292378
0.0370026
0.0520956
0.0766064
0.0650585
0.0349048
0.0302961
0.0352945
0.0477467
0.0733073
0.0623819
0.0335599
0.0292217
0.0289049
0.0353239
0.0674952
0.0757347
0.0517976
0.036534
0.0297518
0.0338436
0.062762
0.0717477
0.0472051
0.034905
0.0287763
0.0332788
0.0617257
0.0673546
0.0351359
0.0286725
0.0365127
0.052175
0.0756469
0.0647951
0.0346389
0.02984
0.0349942
0.0476597
0.0729862
0.0622715
0.0333055
0.028933
0.0286844
0.0351998
0.0672741
0.0756598
0.0517532
0.0364933
0.0297048
0.0344779
0.0640444
0.0720196
0.0470355
0.0345739
0.0283699
0.0326613
0.0603605
0.0643191
0.0333918
0.027867
0.0352104
0.0504884
0.0730006
0.0629
0.0342595
0.0287874
0.0286625
0.0357275
0.0684349
0.0767174
0.0528976
0.0368971
0.0298329
0.0347267
0.065393
0.0732994
0.0477644
0.0350539
0.0285494
0.0329416
0.0621807
0.0667561
0.0346699
0.0282721
0.0357297
0.0512789
0.0745737
0.0631211
0.0346276
0.0288537
0.0282473
0.0346031
0.0673442
0.0750104
0.0516196
0.0357612
0.0285575
0.0344464
0.0637051
0.0693615
0.0354573
0.0283282
0.0369381
0.0532426
0.0780333
0.0659064
0.03456
0.0295605
0.034983
0.0478975
0.0737545
0.0621042
0.0327514
0.0282167
0.0279392
0.0343446
0.0664694
0.0738983
0.0509112
0.0353314
0.0283365
0.0341008
0.0620846
0.0658313
0.0337775
0.0276911
0.0349955
0.0502816
0.0734084
0.0622636
0.0335649
0.0279342
0.0277663
0.0347517
0.0676384
0.0763792
0.0519444
0.0358387
0.0284816
0.0345036
0.0642182
0.0687242
0.0351505
0.028152
0.0359483
0.0518438
0.0764151
0.0637562
0.0341773
0.0283195
0.0277826
0.0345512
0.0677551
0.0746921
0.0505516
0.0351474
0.0275233
0.0330247
0.0617509
0.0660968
0.0359711
0.0276597
0.027847
0.0378883
0.0723679
0.0817252
0.0543895
0.037311
0.0285225
0.0351646
0.0674407
0.0718194
0.0352541
0.0280367
0.0358908
0.0527207
0.0786739
0.0642761
0.0334812
0.0275023
0.0268757
0.0343796
0.0662751
0.0707403
0.0359391
0.0266661
0.0361548
0.0537936
0.0803031
0.0669036
0.0341055
0.0274206
0.0276187
0.0366609
0.0711264
0.07624
0.0383322
0.027669
0.037174
0.0541273
0.0845519
0.0660819
0.0338078
0.0273702
0.0267069
0.0347389
0.0685932
0.0733236
0.0362739
0.026445
0.0359543
0.0534837
0.083679
0.0683533
0.0338223
0.0267551
0.0262501
0.0332676
0.0718352
0.0757543
0.0395009
0.0268868
0.0260456
0.0345061
0.0786004
0.0829119
0.0576775
0.0362005
0.026475
0.0342272
0.0689312
0.074243
0.0349533
0.0262529
0.0263633
0.0385452
0.0791635
0.0818918
0.0361376
0.0254563
0.0259742
0.0406205
0.0851293
0.0894634
0.0399709
0.0252601
0.0364601
0.0605553
0.096441
0.0722547
0.0342409
0.0257706
0.0252628
0.0339957
0.0747497
0.0799151
0.0378283
0.0252997
0.0252469
0.0382932
0.0857937
0.0914652
0.0397359
0.0255113
0.0260332
0.0424692
0.0961538
0.101089
0.0448196
0.0266105
0.0271926
0.0470349
0.104924
0.106882
0.0493849
0.0277641
0.0282799
0.0514165
0.108036
0.108724
0.0536632
0.0288825
0.0294648
0.0558714
0.109102
0.109251
0.0584107
0.030254
0.0309563
0.0609005
0.109304
0.109307
0.0633508
0.0319621
0.0328153
0.065748
0.109287
0.109268
0.0681015
0.0339775
0.0349651
0.0704071
0.10924
0.109222
0.0726551
0.0362611
0.0374978
0.074706
0.109207
0.109213
0.0766785
0.039012
0.0404016
0.0784774
0.109229
0.109265
0.0802371
0.0420137
0.0434026
0.0819184
0.109312
0.109381
0.0835562
0.0450169
0.0464098
0.0851066
0.109462
0.109564
0.086605
0.0480211
0.0494134
0.0880084
0.109674
0.109798
0.0893564
0.0510161
0.0524066
0.0906088
0.109924
0.11006
0.0918073
0.0540028
0.0553976
0.0929063
0.110192
0.110328
0.0939483
0.0569956
0.0583861
0.0948877
0.110456
0.110584
0.0957676
0.0599737
0.0613144
0.0965585
0.110699
0.110812
0.0972995
0.0628177
0.0640717
0.097958
0.110911
0.111007
0.0985738
0.0654746
0.0666351
0.0991158
0.111089
0.111164
0.0996206
0.0679386
0.0690033
0.10006
0.111225
0.111279
0.100458
0.0702037
0.0711661
0.100813
0.111318
0.111355
0.101137
0.0722595
0.0731147
0.101396
0.111374
0.111391
0.101656
0.0740932
0.07484
0.10184
0.111396
0.111397
0.102035
0.0757053
0.0763492
0.102161
0.111389
0.111376
0.102298
0.0771082
0.0776571
0.102374
0.111358
0.111332
0.102462
0.0783172
0.0787799
0.102497
0.111306
0.11127
0.102543
0.0793459
0.079729
0.102545
0.111236
0.111192
0.102555
0.0802095
0.0805252
0.102532
0.111154
0.111103
0.102513
0.0809256
0.0811843
0.102471
0.111061
0.111006
0.102428
0.0815134
0.0817263
0.102372
0.110961
0.110902
0.102309
0.0819894
0.082164
0.10224
0.110855
0.110795
0.102166
0.0823718
0.0825149
0.10209
0.110748
0.110689
0.102006
0.0826703
0.0827884
0.101923
0.110641
0.110583
0.101835
0.0829086
0.0829992
0.101746
0.110535
0.110478
0.101657
0.0830971
0.0831592
0.101563
0.11043
0.110376
0.101476
0.0832349
0.0832653
0.101382
0.11033
0.110276
0.101294
0.0833229
0.0833297
0.101199
0.110231
0.11018
0.101111
0.0833745
0.0833654
0.101019
0.110139
0.110088
0.10093
0.0833996
0.0833795
0.10084
0.110048
0.11
0.100752
0.0834065
0.0833812
0.100667
0.109963
0.109916
0.10058
0.0834005
0.0833731
0.100499
0.10988
0.109836
0.100413
0.0833875
0.0833638
0.100339
0.109803
0.109761
0.100256
0.0833731
0.083351
0.100187
0.109729
0.10969
0.100108
0.0833602
0.083341
0.100045
0.109662
0.109624
0.0999708
0.0833497
0.0833329
0.0999137
0.109598
0.109562
0.0998438
0.0833424
0.0833307
0.0997928
0.109538
0.109506
0.0997291
0.0833421
0.0833342
0.099684
0.109485
0.109453
0.0996256
0.0833474
0.0833447
0.099586
0.109435
0.109406
0.0995334
0.0833603
0.0833617
0.0994991
0.10939
0.109362
0.0994513
0.0833794
0.0833858
0.0994222
0.109349
0.109324
0.0993796
0.0834059
0.0834166
0.0993554
0.109311
0.109289
0.0993173
0.0834388
0.083454
0.0992975
0.109277
0.109258
0.0992638
0.0834792
0.0834969
0.0992474
0.109246
0.109229
0.0992172
0.0835234
0.0835458
0.0992038
0.109218
0.109203
0.0991775
0.0835733
0.0835987
0.0991659
0.109192
0.10918
0.0991433
0.0836268
0.0836552
0.0991328
0.109169
0.109158
0.0991141
0.0836837
0.0837139
0.0991044
0.109147
0.109136
0.0990888
0.0837424
0.0837746
0.0990799
0.109128
0.109117
0.0990674
0.0838032
0.0838364
0.099059
0.10911
0.109099
0.0990496
0.0838646
0.0838992
0.0990421
0.109093
0.109083
0.0990346
0.0839272
0.0839623
0.0990277
0.109078
0.109068
0.0990204
0.0839897
0.0840256
0.0990158
0.109064
0.109054
0.0990089
0.0840525
0.0840884
0.0990059
0.109051
0.109041
0.0989989
0.0841145
0.0841505
0.0989976
0.109039
0.10903
0.0989908
0.0841759
0.0842114
0.0989905
0.109028
0.109018
0.0989835
0.0842357
0.0842706
0.0989842
0.109017
0.109008
0.0989772
0.0842939
0.0843278
0.0989786
0.109006
0.108998
0.0989714
0.08435
0.0843827
0.0989735
0.108997
0.108988
0.0989659
0.0844038
0.0844351
0.0989682
0.108987
0.108978
0.0989602
0.0844548
0.0844846
0.0989628
0.108977
0.108969
0.0989544
0.0845031