/*--------------------------------*- C++ -*----------------------------------*\
| =========                 |                                                 |
| \\      /  F ield         | OpenFOAM: The Open Source CFD Toolbox           |
|  \\    /   O peration     | Version:  v2006                                 |
|   \\  /    A nd           | Website:  www.openfoam.com                      |
|    \\/     M anipulation  |                                                 |
\*---------------------------------------------------------------------------*/
FoamFile
{
    version     2.0;
    format      ascii;
    class       volScalarField;
    location    "0.117";
    object      isentropic(p);
}
// * * * * * * * * * * * * * * * * * * * * * * * * * * * * * * * * * * * * * //

dimensions      [1 -1 -2 0 0 0 0];


internalField   nonuniform List<scalar> 
16277
(
150008
150014
150017
150002
150012
150010
150011
150012
150013
150013
150013
150012
150012
150011
150011
150011
150010
150010
150010
150010
150010
150010
150010
150009
150009
150009
150009
150009
150009
150009
150009
150009
150008
150008
150008
150008
150008
150008
150008
150008
150007
150007
150007
150007
150007
150007
150007
150007
150006
150006
150006
150006
150006
150006
150006
150006
150005
150005
150005
150005
150005
150005
150005
150005
150005
150004
150004
150004
150004
150004
150004
150004
150004
150004
150004
150003
150003
150003
150003
150002
150002
150001
150001
150000
150001
150003
150004
150005
150004
150006
150005
150007
150008
150011
150017
150015
149976
149936
150011
150022
150021
150002
149897
149860
149993
150018
150013
149981
149826
149796
149971
150008
150002
149959
149768
149744
149949
149997
149991
149938
149721
149703
149929
149986
149979
149919
149684
149669
149911
149975
149968
149901
149653
149640
149893
149964
149958
149884
149627
149616
149877
149953
149947
149868
149605
149595
149862
149943
149937
149854
149585
149577
149849
149934
149928
149841
149568
149561
149836
149925
149919
149828
149553
149547
149824
149916
149911
149817
149540
149534
149813
149908
149903
149807
149528
149523
149803
149901
149896
149797
149517
149513
149794
149893
149889
149787
149508
149504
149785
149887
149882
149779
149499
149496
149776
149880
149876
149771
149492
149489
149769
149874
149870
149763
149485
149483
149761
149868
149864
149756
149479
149477
149755
149863
149859
149750
149474
149473
149748
149857
149853
149744
149470
149469
149743
149852
149848
149738
149466
149465
149737
149847
149844
149733
149463
149463
149732
149843
149839
149728
149461
149461
149727
149839
149835
149724
149459
149459
149723
149835
149831
149719
149458
149458
149719
149831
149827
149716
149457
149458
149715
149827
149824
149712
149457
149458
149712
149823
149820
149709
149458
149459
149709
149820
149817
149706
149459
149460
149706
149817
149814
149704
149460
149462
149704
149814
149811
149702
149462
149464
149702
149811
149809
149700
149465
149467
149700
149809
149806
149698
149468
149470
149699
149807
149804
149697
149471
149474
149698
149804
149802
149696
149475
149478
149697
149802
149800
149695
149480
149483
149696
149801
149799
149695
149485
149488
149696
149799
149797
149695
149490
149493
149697
149798
149796
149696
149496
149499
149697
149797
149795
149697
149502
149506
149698
149796
149795
149698
149508
149512
149700
149796
149795
149700
149515
149519
149702
149796
149795
149702
149522
149526
149704
149796
149796
149704
149530
149534
149707
149797
149797
149708
149537
149541
149710
149799
149799
149711
149545
149549
149715
149801
149801
149716
149552
149557
149719
149803
149804
149720
149560
149564
149724
149807
149807
149726
149567
149571
149729
149810
149811
149731
149573
149578
149735
149814
149815
149737
149579
149583
149741
149819
149820
149742
149585
149588
149746
149823
149824
149748
149589
149591
149751
149828
149828
149753
149591
149593
149756
149832
149832
149757
149593
149594
149760
149835
149836
149760
149592
149593
149763
149839
149839
149763
149591
149591
149766
149842
149842
149765
149589
149588
149767
149844
149844
149767
149585
149584
149768
149847
149846
149767
149581
149580
149769
149848
149847
149767
149576
149574
149768
149849
149848
149767
149570
149569
149767
149850
149849
149765
149564
149563
149766
149850
149849
149764
149558
149556
149764
149850
149849
149762
149552
149550
149762
149850
149848
149760
149547
149545
149760
149848
149846
149757
149542
149540
149757
149847
149845
149755
149537
149535
149755
149845
149844
149752
149531
149529
149752
149845
149844
149749
149524
149523
149749
149845
149843
149746
149519
149518
149746
149844
149842
149743
149515
149514
149743
149842
149840
149741
149511
149511
149741
149839
149836
149738
149509
149509
149738
149836
149833
149735
149506
149506
149735
149833
149831
149732
149503
149501
149732
149832
149830
149730
149499
149497
149729
149832
149830
149727
149494
149493
149727
149830
149828
149724
149491
149490
149724
149828
149826
149722
149488
149488
149722
149826
149824
149719
149485
149485
149719
149824
149822
149717
149483
149483
149717
149821
149818
149714
149481
149482
149714
149818
149815
149712
149479
149480
149713
149817
149815
149711
149478
149481
149714
149818
149814
149717
149490
149504
149727
149820
149861
149776
149558
149512
149696
149793
149865
149922
149955
149966
149972
149984
149989
149994
149997
149999
149999
149998
149997
149993
149989
149979
149974
149967
149959
149946
149913
149842
149703
149541
149280
149259
149525
149684
149675
149508
149237
149231
149497
149661
149652
149493
149229
149228
149492
149653
149653
149492
149226
149225
149490
149653
149654
149492
149227
149227
149492
149655
149655
149492
149227
149229
149495
149657
149657
149495
149229
149230
149496
149659
149661
149499
149233
149233
149499
149661
149663
149501
149235
149235
149502
149663
149664
149502
149235
149236
149504
149666
149666
149504
149236
149238
149506
149668
149669
149507
149239
149240
149508
149669
149671
149510
149242
149242
149511
149672
149673
149512
149243
149244
149513
149675
149675
149514
149245
149246
149515
149677
149678
149516
149246
149247
149518
149679
149680
149519
149249
149250
149520
149681
149682
149522
149251
149252
149523
149683
149685
149524
149253
149253
149525
149686
149687
149526
149254
149256
149527
149688
149689
149528
149256
149258
149530
149691
149692
149531
149259
149260
149533
149693
149695
149535
149261
149262
149535
149695
149697
149537
149263
149263
149537
149698
149699
149538
149264
149265
149540
149701
149702
149541
149266
149267
149543
149703
149705
149545
149269
149269
149545
149705
149708
149547
149270
149271
149548
149709
149710
149549
149271
149273
149551
149712
149712
149552
149273
149275
149554
149714
149717
149555
149275
149275
149556
149717
149719
149558
149276
149276
149559
149720
149721
149559
149276
149277
149562
149724
149726
149563
149278
149279
149565
149727
149730
149567
149280
149279
149568
149732
149734
149569
149279
149279
149571
149736
149737
149572
149279
149279
149574
149739
149742
149576
149279
149279
149578
149745
149747
149581
149280
149280
149583
149750
149752
149585
149280
149279
149587
149756
149759
149590
149279
149279
149593
149762
149765
149596
149281
149282
149599
149768
149773
149603
149281
149283
149608
149778
149779
149612
149287
149289
149617
149783
149790
149621
149288
149292
149627
149795
149799
149634
149298
149305
149640
149801
149805
149647
149310
149315
149655
149813
149821
149667
149327
149337
149678
149827
149835
149691
149351
149367
149699
149842
149849
149713
149382
149399
149722
149856
149861
149733
149417
149436
149744
149869
149876
149756
149458
149478
149767
149881
149886
149777
149496
149516
149786
149890
149896
149794
149536
149562
149817
149906
149908
149832
149583
149357
149597
149821
149848
149734
149414
149401
149749
149895
149897
149763
149429
149460
149771
149890
149904
149786
149481
149505
149797
149917
149926
149815
149537
149571
149828
149924
149932
149844
149603
149620
149852
149942
149950
149873
149655
149688
149897
149955
149894
149678
149564
149622
149843
149876
149958
149850
149588
149635
149876
149963
149967
149892
149669
149687
149901
149978
149986
149912
149712
149745
149926
150002
149990
149944
149771
149573
149882
149894
149983
149903
149677
149703
149921
149990
150005
149937
149734
149760
149946
150006
150018
149965
149790
149816
149985
150032
149994
149815
149768
149800
149960
149973
150041
149972
149794
149834
149989
150039
150051
150011
149865
149883
150023
150058
150039
149869
149842
149885
150015
150021
150071
150016
149871
149924
150044
150074
150092
150059
149940
149950
149910
150076
150066
150064
149972
149968
150067
150102
150116
150096
150018
150036
150102
150113
150114
150080
149993
150071
150131
150142
150134
150130
150093
150014
150191
150142
150176
150177
150154
150187
150193
150171
150211
150215
150198
150275
150251
150218
150180
150222
150233
150277
150228
150187
150215
150261
150311
150293
150272
150233
150188
150213
150180
150035
150104
150103
150006
149952
149842
149890
149966
149977
149923
149869
149743
149784
149899
149942
149902
149865
149718
149808
149643
149912
149928
149868
149595
149597
149775
149890
149894
149851
149694
149655
149815
149875
149823
149757
149592
149647
149831
149900
149835
149805
149670
149683
149759
149683
149817
149820
149691
149585
149784
149880
149873
149701
149461
149640
149817
149851
149888
149784
149564
149385
149675
149926
149884
149812
149605
149563
149778
149875
149919
149679
149396
149588
149811
149905
149827
149787
149622
149579
149715
149712
149841
149807
149645
149585
149776
149861
149821
149702
149489
149635
149815
149869
149851
149777
149604
149540
149749
149833
149807
149524
149612
149494
149801
149943
149825
149769
149588
149431
149767
149695
149798
149787
149645
149531
149761
149850
149812
149574
149543
149548
149802
149889
149836
149758
149563
149424
149753
149710
149833
149791
149612
149586
149770
149836
149726
149764
149391
149638
149786
149800
149838
149761
149538
149531
149574
149801
149848
149797
149580
149531
149755
149842
149807
149558
149563
149520
149800
149922
149829
149762
149540
149599
149525
149821
149898
149822
149513
149490
149712
149832
149874
149825
149627
149589
149783
149857
149791
149701
149503
149617
149818
149883
149839
149790
149610
149550
149720
149759
149835
149825
149669
149559
149790
149907
149922
149677
149389
149607
149819
149879
149895
149778
149534
149359
149663
149938
149948
149817
149548
149554
149783
149860
149832
149535
149615
149510
149829
149932
149865
149716
149475
149628
149837
149887
149864
149800
149602
149523
149723
149800
149918
149834
149607
149593
149805
149858
149843
149587
149594
149589
149845
149886
149831
149738
149523
149641
149851
149908
149891
149817
149616
149516
149726
149828
149932
149841
149611
149618
149817
149854
149841
149599
149621
149611
149859
149870
149829
149748
149536
149646
149858
149914
149902
149820
149608
149499
149725
149846
149888
149845
149638
149630
149807
149860
149760
149845
149345
149644
149802
149868
149803
149757
149541
149640
149852
149913
149848
149827
149642
149630
149645
149802
149851
149871
149641
149555
149763
149828
149910
149851
149629
149595
149807
149886
149779
149772
149468
149620
149832
149902
149848
149765
149538
149647
149864
149920
149892
149815
149608
149461
149796
149775
149897
149829
149638
149527
149760
149835
149924
149854
149624
149610
149818
149863
149833
149644
149570
149613
149878
149903
149856
149760
149528
149654
149862
149888
149938
149806
149566
149252
149831
149843
149954
149763
149613
149487
149753
149848
149907
149846
149603
149516
149756
149844
149924
149870
149643
149604
149827
149907
149824
149728
149496
149601
149846
149909
149851
149756
149513
149637
149856
149888
149929
149801
149560
149236
149833
149827
149946
149749
149603
149460
149744
149836
149911
149851
149595
149516
149766
149853
149928
149864
149619
149571
149818
149896
149857
149617
149544
149537
149861
149906
149849
149733
149472
149587
149854
149918
149849
149753
149496
149611
149860
149918
149895
149806
149568
149398
149782
149793
149919
149812
149596
149470
149747
149838
149909
149849
149584
149492
149753
149847
149920
149859
149606
149559
149810
149893
149836
149638
149496
149536
149852
149900
149839
149720
149450
149575
149850
149912
149848
149751
149486
149594
149857
149926
149876
149807
149551
149562
149559
149843
149874
149900
149475
149434
149710
149833
149901
149840
149545
149447
149730
149830
149917
149840
149562
149523
149790
149859
149827
149525
149532
149471
149896
149868
149828
149702
149428
149537
149832
149898
149825
149717
149439
149545
149832
149898
149832
149729
149451
149575
149841
149898
149878
149781
149532
149263
149792
149756
149899
149727
149565
149394
149707
149794
149879
149810
149506
149413
149707
149812
149891
149823
149528
149434
149718
149823
149902
149832
149551
149490
149775
149862
149816
149526
149485
149426
149856
149860
149814
149669
149362
149484
149807
149882
149801
149688
149386
149507
149812
149880
149806
149697
149401
149530
149821
149893
149854
149766
149474
149481
149502
149807
149842
149874
149384
149345
149654
149802
149873
149801
149466
149351
149666
149787
149862
149791
149473
149367
149676
149790
149857
149800
149514
149457
149731
149844
149708
149764
149125
149503
149662
149862
149740
149654
149323
149454
149777
149840
149762
149651
149328
149439
149774
149852
149770
149653
149330
149452
149779
149852
149779
149667
149353
149465
149783
149864
149815
149724
149404
149451
149401
149769
149789
149882
149266
149263
149591
149760
149833
149755
149388
149273
149614
149744
149833
149757
149413
149293
149626
149750
149835
149759
149420
149312
149641
149759
149845
149769
149450
149375
149701
149806
149735
149463
149329
149318
149781
149798
149739
149582
149241
149367
149736
149819
149726
149595
149250
149374
149732
149813
149728
149602
149262
149397
149742
149819
149742
149622
149285
149412
149748
149829
149785
149682
149342
149361
149364
149721
149757
149822
149220
149187
149553
149724
149805
149716
149308
149180
149557
149703
149789
149710
149331
149197
149567
149699
149791
149710
149338
149228
149584
149711
149803
149721
149370
149303
149652
149761
149688
149376
149245
149224
149741
149753
149697
149519
149137
149273
149688
149780
149677
149532
149146
149298
149688
149770
149677
149541
149161
149304
149687
149772
149687
149554
149182
149324
149693
149782
149729
149620
149242
149282
149258
149666
149691
149806
149086
149074
149473
149667
149755
149656
149204
149082
149486
149646
149736
149649
149227
149092
149495
149640
149739
149647
149230
149106
149502
149647
149744
149654
149252
149125
149515
149655
149750
149664
149290
149218
149587
149716
149568
149464
148999
149214
149586
149725
149619
149467
149028
149200
149621
149717
149609
149468
149049
149200
149621
149713
149619
149472
149069
149209
149623
149719
149628
149485
149086
149245
149636
149725
149688
149559
149155
149065
149297
149579
149658
149636
149083
148976
149403
149586
149693
149596
149136
148978
149421
149582
149682
149587
149138
149000
149430
149583
149686
149590
149150
149015
149442
149592
149688
149594
149177
149095
149506
149648
149486
149389
148856
149091
149500
149658
149540
149374
148895
149079
149546
149655
149540
149379
148919
149095
149554
149654
149547
149386
148937
149102
149555
149657
149560
149403
148962
149146
149571
149665
149630
149484
149048
148902
149230
149489
149594
149552
148977
148841
149305
149510
149617
149507
148993
148839
149316
149498
149609
149500
149008
148860
149330
149501
149617
149510
149030
148871
149344
149512
149624
149524
149069
148979
149439
149590
149434
149192
148780
148939
149478
149570
149469
149273
148773
148959
149482
149590
149469
149288
148795
148986
149483
149585
149465
149285
148789
148978
149466
149574
149534
149370
148860
148803
149018
149403
149492
149488
148789
148662
149192
149418
149540
149426
148847
148674
149212
149412
149537
149420
148877
148701
149232
149422
149547
149438
148931
148826
149333
149508
149289
149206
148476
148831
149298
149508
149369
149174
148578
148797
149363
149501
149342
149142
148559
148785
149355
149480
149361
149164
148599
148819
149371
149499
149427
149262
148699
148635
148843
149320
149400
149394
148595
148453
149054
149320
149458
149326
148696
148499
149095
149312
149450
149324
148719
148519
149112
149321
149461
149342
148770
148643
149233
149422
149242
148876
148467
148539
149256
149365
149239
148967
148332
148596
149252
149397
149254
149022
148379
148619
149261
149402
149263
149040
148409
148668
149274
149407
149365
149160
148533
148304
148813
149161
149322
149232
148484
148288
148935
149206
149356
149221
148527
148310
148968
149210
149361
149237
148597
148486
149137
149326
149092
148629
148213
148349
149124
149231
149110
148824
148134
148407
149128
149289
149129
148874
148170
148438
149143
149294
149147
148902
148209
148489
149161
149311
149270
149041
148362
148021
148740
149008
149237
149036
148358
148072
148823
149080
149260
149094
148384
148110
148858
149100
149253
149123
148482
148203
148929
149168
148908
148608
147877
148195
148965
149141
148986
148710
147933
148225
149008
149181
149023
148752
147973
148281
149036
149202
149155
148901
148130
147787
148555
148879
149109
148924
148126
147842
148658
148956
149151
148983
148198
148043
148855
149119
148813
148479
147662
147968
148823
149018
148781
148454
147579
147904
148792
149003
148832
148522
147645
147999
148849
149043
148990
148701
147837
147465
148301
148704
148953
148764
147824
147524
148451
148791
149008
148822
147922
147729
148657
148962
148620
148235
147310
147712
148704
148900
148754
148408
147456
147778
148707
148906
148778
148439
147450
147003
148045
148440
148764
148520
147503
147149
148199
148570
148830
148608
147620
147407
148443
148782
148427
147938
146993
147375
148516
148723
148540
148124
147057
147530
148581
148787
148745
148382
147294
146810
147904
148349
148617
148491
147378
146778
147888
148336
148593
148326
147211
146999
148132
148502
148159
147746
146506
147098
148226
148540
148313
147896
146659
147215
148338
148603
148552
148170
146978
146451
147594
148126
148459
148243
146981
146633
147836
148288
148528
148350
147277
146984
148140
148497
147913
147379
146111
146724
147958
148275
148206
147764
146476
145937
147362
147834
148257
147893
146632
146105
147536
148001
148337
148041
146793
146506
147874
148298
147820
147268
145904
146613
147913
148201
148269
147832
146467
145595
147143
147671
147959
147536
146015
145684
147277
147818
147363
146762
145098
145915
147489
147883
147610
147027
145412
146205
147682
148017
147999
147499
145958
145281
146826
147463
147876
147564
146129
146008
147509
147977
147286
146663
144990
145408
147090
147569
147414
146811
145033
144479
146261
146978
147521
147104
145430
145142
146927
147516
147014
146271
144458
145454
147132
147520
147587
147012
145192
144501
146319
147009
147247
146789
145033
144281
146352
147027
146768
145983
143805
143124
145349
146295
146938
146477
144371
144062
146266
147007
146423
145611
143213
144671
146561
146980
147260
146740
144617
143001
145519
146455
145572
144486
141849
143340
145716
146350
146359
145575
142962
142484
145290
146226
145753
144409
141824
143635
145940
146309
146547
145823
143178
141249
144430
145591
144683
143359
140198
142274
145065
145681
145796
144918
141857
141534
144903
145838
145978
144707
141546
138322
142608
144002
144998
143712
140316
139970
143686
144950
144923
143544
139466
139395
143825
145166
144779
142957
137737
136438
141834
143955
142728
140743
135217
139424
143232
144507
144433
142975
138598
137395
142333
144099
143712
141904
136617
136198
141703
143497
143347
141254
135318
134892
141015
143247
143232
140862
134620
134341
140672
143207
143144
140448
134058
133802
140215
143056
142957
139985
133579
133393
139761
142852
142744
139546
133234
133099
139340
142630
142515
139145
132986
132892
138959
142396
142275
138784
132816
132756
138618
142152
142028
138463
132709
132674
138317
141904
141781
138182
132650
132636
138058
141658
141537
137943
132630
132631
137837
141418
141301
137741
132639
132653
137652
141185
141073
137572
132672
132695
137499
140962
140855
137433
132723
132753
137372
140749
140648
137318
132787
132823
137270
140548
140453
137227
132862
132902
137189
140360
140273
137155
132943
132985
137125
140187
140106
137098
133027
133070
137073
140027
139954
137053
133114
133157
137034
139882
139815
137018
133200
133243
137004
139751
139691
136992
133285
133327
136981
139634
139580
136973
133368
133408
136965
139529
139482
136960
133448
133487
136954
139437
139397
136951
133525
133562
136947
139357
139322
136945
133598
133632
136944
139288
139257
136943
133666
133698
136943
139228
139202
136944
133730
133759
136945
139176
139153
136947
133789
133816
136949
139131
139112
136952
133843
133868
136954
139093
139077
136958
133892
133915
136961
139061
139047
136965
133938
133959
136969
139033
139022
136974
133979
133998
136978
139010
139001
136983
134017
134035
136988
138991
138983
136993
134052
134068
136998
138975
138968
137003
134084
134099
137008
138961
138955
137013
134113
134127
137018
138949
138944
137023
134140
134152
137027
138939
138935
137032
134164
134175
137037
138930
138927
137041
134187
134197
137045
138923
138920
137050
134207
134216
137054
138916
138914
137058
134225
134234
137062
138910
138908
137066
134242
134250
137070
138906
138904
137074
134258
134265
137077
138901
138900
137081
134272
134278
137084
138898
138897
137088
134285
134291
137091
138895
138895
137095
134297
134302
137098
138893
138893
137101
134308
134313
137104
138891
138891
137108
134319
134323
137111
138890
138890
137114
134329
134333
137117
138889
138890
137121
134338
134342
137123
138889
138890
137127
134347
134351
137130
138889
138890
137133
134356
134360
137136
138889
138891
137140
134365
134368
137143
138890
138892
137146
134373
134377
137149
138892
138894
137153
134381
134385
137156
138893
138896
137160
134389
134393
137163
138896
138898
137167
134398
134401
137170
138898
138901
137174
134406
134409
137177
138901
138904
137181
134414
134417
137184
138904
138907
137188
134422
134425
137191
138908
138911
137195
134429
134433
137199
138912
138915
137203
134437
134441
137206
138916
138920
137210
134445
134449
137214
138920
138924
137218
134453
134457
137221
138925
138929
137226
134461
134464
137229
138930
138934
137233
134468
134472
137237
138936
138940
137241
134476
134480
137245
138941
138946
137249
134484
134487
137253
138947
138952
137257
134491
134495
137261
138953
138958
137266
134499
134503
137269
138960
138965
137274
134506
134510
137278
138966
138971
137282
134514
134517
137286
138973
138978
137290
134521
134525
137294
138980
138985
137299
134528
134532
137303
138987
138992
137307
134536
134539
137311
138995
139000
137316
134543
134546
137320
139002
139007
137324
134550
134553
137328
139009
139015
137333
134556
134560
137337
139017
139022
137341
134563
134566
137345
139025
139030
137349
134570
134573
137353
139032
139038
137358
134576
134579
137362
139040
139045
137366
134583
134586
137370
139048
139053
137374
134589
134592
137378
139056
139061
137382
134595
134598
137386
139063
139069
137391
134601
134604
137395
139071
139077
137399
134607
134610
137403
139079
139085
137407
134613
134615
137411
139087
139093
137415
134618
134621
137419
139095
139101
137423
134624
134626
137426
139103
139108
137431
134629
134631
137434
139111
139116
137438
134634
134636
137442
139119
139124
137446
134639
134641
137449
139126
139132
137454
134644
134646
137457
139134
139140
137461
134648
134650
137464
139142
139147
137468
134652
134654
137471
139149
139155
137475
134656
134658
137478
139157
139162
137482
134660
134662
137485
139164
139169
137489
134664
134665
137492
139171
139177
137495
134667
134668
137498
139179
139185
137503
134673
134675
137506
139189
139192
137511
134678
134680
137509
139189
139176
137498
134678
134670
137482
139159
139203
137503
134685
134760
137599
139355
139448
137673
134818
142056
144691
146369
146740
146890
147546
147883
148029
148174
148587
148855
149138
149349
149505
149620
149703
149763
149805
149836
149859
149877
149890
149901
149909
149916
149922
149926
149929
149931
149933
149934
149936
149936
149932
149934
149941
149946
149954
149962
149972
149983
149994
150005
150015
150021
150023
150022
150020
150017
150015
150013
150012
150010
150008
150007
150005
150003
150000
149998
149996
149994
149992
149990
149989
149988
149987
149986
149986
149986
149986
149987
149989
149991
149993
149997
150000
150005
150010
150015
150021
150027
150033
150040
150046
150052
150058
150063
150068
150072
150075
150078
150080
150081
150082
150081
150080
150079
150077
150074
150071
150068
150064
150061
150057
150053
150048
150044
150040
150036
150032
150028
150024
150020
150016
150013
150009
150006
150003
150000
149997
149994
149991
149989
149987
149984
149982
149980
149978
149977
149975
149974
149972
149971
149970
149969
149968
149967
149966
149966
149965
149964
149964
149963
149963
149963
149962
149962
149962
149962
149962
149962
149962
149962
149962
149962
149962
149962
149963
149963
149963
149963
149964
149964
149965
149965
149965
149966
149966
149967
149967
149968
149969
149969
149970
149971
149971
149972
149973
149973
149974
149975
149975
149976
149977
149978
149979
149980
149980
149981
149982
149983
149984
149985
149986
149987
149988
149989
149990
149991
149993
149994
149996
150000
150007
150012
150015
150015
150017
150004
150012
150012
150020
150026
150029
150029
150027
150026
150024
150022
150021
150020
150019
150018
150017
150016
150016
150015
150015
150014
150014
150013
150013
150012
150012
150012
150011
150011
150011
150011
150010
150010
150010
150010
150009
150009
150009
150009
150008
150008
150008
150008
150008
150007
150007
150007
150007
150006
150006
150006
150006
150006
150005
150005
150005
150005
150005
150004
150004
150004
150004
150003
150003
150003
150003
150002
150002
150002
150001
150001
150000
150000
149999
149999
149998
149997
149995
149994
149994
149995
149997
149999
150000
150004
150009
150019
150024
150024
150021
150019
150016
150013
150010
150008
150005
150003
150000
149998
149995
149993
149990
149988
149985
149983
149980
149979
149976
149975
149971
149970
149967
149966
149963
149963
149959
149959
149956
149955
149952
149952
149949
149949
149945
149945
149942
149942
149939
149939
149936
149936
149933
149934
149930
149931
149928
149928
149925
149925
149922
149923
149920
149920
149918
149918
149915
149916
149913
149913
149911
149911
149908
149909
149906
149907
149904
149905
149902
149903
149900
149901
149899
149900
149897
149898
149895
149896
149894
149895
149893
149894
149892
149893
149891
149893
149891
149893
149891
149893
149891
149894
149892
149895
149893
149896
149895
149898
149897
149900
149899
149902
149901
149905
149903
149907
149906
149910
149909
149912
149911
149915
149914
149917
149916
149920
149918
149922
149920
149923
149922
149925
149923
149926
149924
149927
149925
149927
149925
149928
149926
149928
149926
149927
149925
149927
149925
149926
149924
149926
149924
149925
149923
149924
149922
149923
149921
149922
149920
149921
149919
149920
149918
149919
149917
149918
149915
149917
149915
149915
149913
149914
149912
149913
149911
149912
149910
149912
149911
149917
149925
149928
149957
149954
149953
149966
149949
149952
149965
149948
149952
149966
149950
149953
149967
149951
149954
149968
149952
149955
149969
149952
149957
149970
149954
149957
149970
149954
149958
149971
149955
149959
149972
149956
149959
149973
149957
149960
149974
149957
149961
149975
149958
149962
149975
149959
149963
149976
149960
149963
149976
149960
149963
149977
149960
149964
149977
149960
149964
149978
149960
149964
149978
149960
149964
149978
149960
149964
149978
149960
149964
149978
149959
149963
149977
149959
149963
149977
149957
149961
149976
149956
149960
149975
149954
149958
149973
149953
149957
149972
149951
149955
149970
149949
149953
149968
149947
149951
149967
149945
149949
149966
149943
149947
149965
149941
149945
149964
149940
149944
149964
149939
149943
149962
149938
149942
149962
149938
149942
149963
149938
149943
149963
149938
149943
149964
149938
149944
149965
149939
149945
149966
149940
149946
149967
149941
149947
149969
149942
149948
149970
149944
149950
149971
149945
149951
149972
149946
149953
149974
149948
149954
149975
149949
149955
149976
149951
149957
149977
149952
149958
149979
149954
149960
149980
149955
149961
149981
149957
149962
149982
149958
149964
149983
149960
149965
149984
149961
149967
149986
149963
149968
149987
149965
149970
149988
149966
149971
149989
149968
149973
149990
149970
149975
149992
149971
149976
149993
149973
149978
149994
149975
149980
149995
149977
149981
149996
149979
149983
149998
149981
149985
149999
149983
149987
150000
149985
149989
150002
149987
149991
150003
149989
149993
150004
149991
149995
150006
149994
149997
150007
149996
150000
150008
149999
150002
150010
150002
150004
150011
150004
150007
150013
150007
150010
150014
150010
150013
150016
150013
150015
150017
150017
150018
150019
150020
150022
150020
150023
150013
150015
150015
150015
150015
150014
150014
150013
150013
150013
150012
150012
150011
150011
150011
150011
150010
150010
150010
150009
150009
150009
150008
150008
150008
150007
150007
150006
150006
150005
150005
150004
150004
150003
150002
150002
150001
150000
149999
149997
149996
149995
149994
149993
149992
149991
149991
149990
149992
149994
149996
149997
150000
150002
150005
150007
150009
150011
150012
150012
150012
150011
150011
150010
150009
150007
150006
150005
150004
150003
150001
150000
149999
149998
149997
149996
149995
149994
149993
149992
149991
149990
149989
149988
149988
149986
149969
149965
149966
149970
149985
149989
149989
149995
149995
149997
149997
149997
149998
149999
150000
150001
150002
150003
150004
150005
150006
150007
150008
150009
150010
150011
150015
150014
150013
150011
150010
150009
150008
150007
150006
150005
150004
150003
150002
150001
150001
150000
149999
149999
150000
149999
149999
149997
149998
150000
150000
150001
149994
149993
149993
149993
149993
149990
149990
149975
149977
149972
149972
149972
149973
149974
149976
149996