/*--------------------------------*- C++ -*----------------------------------*\
| =========                 |                                                 |
| \\      /  F ield         | OpenFOAM: The Open Source CFD Toolbox           |
|  \\    /   O peration     | Version:  v2006                                 |
|   \\  /    A nd           | Website:  www.openfoam.com                      |
|    \\/     M anipulation  |                                                 |
\*---------------------------------------------------------------------------*/
FoamFile
{
    version     2.0;
    format      ascii;
    class       volVectorField;
    location    "0.117";
    object      U;
}
// * * * * * * * * * * * * * * * * * * * * * * * * * * * * * * * * * * * * * //

dimensions      [0 1 -1 0 0 0 0];


internalField   nonuniform List<vector> 
16277
(
(48.313 -7.63149e-05 -1.22595e-19)
(48.3129 -0.000567242 0)
(48.3128 0.000437897 0)
(48.3129 -0.000472244 0)
(48.3127 -0.000121552 -2.94912e-21)
(48.3115 -0.000888477 -7.09161e-19)
(48.3062 -0.00211939 9.62088e-19)
(48.29 -0.00454076 0)
(48.2549 -0.00855215 0)
(48.1993 -0.0142832 0)
(48.1284 -0.0208843 -3.42946e-21)
(48.0502 -0.0272255 -6.98976e-21)
(47.9697 -0.0329259 1.7698e-21)
(47.8888 -0.0379661 0)
(47.8072 -0.0425177 0)
(47.7241 -0.0467403 0)
(47.6384 -0.0507452 0)
(47.5495 -0.0545919 0)
(47.4568 -0.0582984 0)
(47.3603 -0.0618668 0)
(47.2597 -0.0652956 0)
(47.1553 -0.068588 0)
(47.0471 -0.0717535 0)
(46.9352 -0.0748052 0)
(46.8195 -0.0777569 0)
(46.7003 -0.0806201 0)
(46.5773 -0.0834035 0)
(46.4509 -0.0861121 0)
(46.3209 -0.0887486 0)
(46.1875 -0.091313 0)
(46.0508 -0.0938036 0)
(45.9109 -0.0962177 0)
(45.7679 -0.0985517 0)
(45.6218 -0.100802 0)
(45.4729 -0.102963 0)
(45.3211 -0.105031 0)
(45.1668 -0.107001 0)
(45.01 -0.108869 0)
(44.8508 -0.110628 0)
(44.6894 -0.112275 0)
(44.5261 -0.113805 0)
(44.3608 -0.115214 0)
(44.1938 -0.116499 0)
(44.0253 -0.117654 0)
(43.8554 -0.118677 0)
(43.6843 -0.119563 0)
(43.5123 -0.12031 0)
(43.3394 -0.120914 0)
(43.1659 -0.121373 0)
(42.9919 -0.121683 0)
(42.8177 -0.121842 0)
(42.6435 -0.121847 0)
(42.4694 -0.121697 0)
(42.2957 -0.121394 0)
(42.1226 -0.120934 0)
(41.9502 -0.120286 0)
(41.7788 -0.119465 0)
(41.6086 -0.118505 0)
(41.4398 -0.117388 0)
(41.2727 -0.116106 0)
(41.1074 -0.114657 0)
(40.9441 -0.113043 0)
(40.783 -0.111265 0)
(40.6245 -0.109323 0)
(40.4686 -0.107219 0)
(40.3156 -0.104953 0)
(40.1656 -0.102526 0)
(40.019 -0.0999363 0)
(39.8757 -0.0971819 0)
(39.7361 -0.0942568 0)
(39.6004 -0.091152 0)
(39.4686 -0.0878558 0)
(39.341 -0.0843557 0)
(39.2178 -0.0806421 0)
(39.0992 -0.076711 0)
(38.9853 -0.0725602 0)
(38.876 -0.0681727 0)
(38.7707 -0.0634775 0)
(38.6684 -0.0582825 -3.00467e-20)
(38.5678 -0.0522718 2.99817e-20)
(38.4685 -0.0449853 0)
(38.3729 -0.0362102 8.9543e-20)
(38.289 -0.0265791 -5.91594e-20)
(38.2299 -0.0181987 0)
(38.2038 -0.0128887 -1.71844e-18)
(38.2033 -0.0105403 1.11684e-18)
(38.2136 -0.00964282 0)
(38.2257 -0.0094377 0)
(38.2354 -0.0093589 0)
(38.2345 -0.00738708 1.73924e-17)
(38.2271 -0.00459708 -1.02949e-17)
(38.2027 -0.0102864 -1.26053e-17)
(38.141 -0.0202395 -3.78865e-18)
(38.0379 -0.0398385 2.12375e-18)
(37.8701 -0.0576763 0)
(37.6771 -0.0669742 0)
(36.9672 -0.102504 -2.76433e-19)
(36.5114 -0.0930307 2.32472e-18)
(37.6856 -0.113576 1.73375e-18)
(37.9172 -0.0967248 -5.82478e-18)
(37.9412 -0.11928 0)
(37.6342 -0.133698 1.79654e-18)
(35.9972 -0.0920253 1.93151e-18)
(35.4885 -0.0845121 7.19665e-19)
(37.5734 -0.133344 4.01112e-19)
(37.9635 -0.124082 1.33758e-18)
(37.9611 -0.121242 1.33854e-18)
(37.48 -0.122899 0)
(35.0207 -0.0739639 -1.25562e-18)
(34.5895 -0.0643162 1.16896e-19)
(37.3809 -0.112508 0)
(37.947 -0.118005 0)
(37.9079 -0.113525 1.65956e-19)
(37.2529 -0.103543 0)
(34.1869 -0.057197 2.47746e-24)
(33.8231 -0.0518377 1.35704e-19)
(37.1364 -0.0967158 0)
(37.8669 -0.111144 -1.668e-19)
(37.8074 -0.107653 1.05534e-20)
(37.0039 -0.0912564 3.94142e-19)
(33.4788 -0.0475954 -5.06934e-19)
(33.1772 -0.0430717 4.92582e-19)
(36.8892 -0.0858039 3.96075e-19)
(37.7546 -0.107181 -6.88685e-19)
(37.6832 -0.103008 -6.81528e-19)
(36.7503 -0.0811025 -7.952e-19)
(32.8849 -0.0400388 0)
(32.6241 -0.0364106 4.95003e-19)
(36.6333 -0.0770811 -4.10751e-19)
(37.6187 -0.102233 -1.06771e-20)
(37.5367 -0.0979751 6.94534e-19)
(36.4914 -0.0731226 -4.1099e-19)
(32.3666 -0.034352 -4.95286e-19)
(32.1341 -0.0316036 0)
(36.3735 -0.0702998 0)
(37.4651 -0.0973843 0)
(37.3767 -0.0938567 6.84224e-19)
(36.2314 -0.067119 0)
(31.9032 -0.030198 0)
(31.6946 -0.0279263 0)
(36.1167 -0.0651651 0)
(37.3022 -0.0939991 0)
(37.2071 -0.0907348 0)
(35.9733 -0.0625669 0)
(31.4817 -0.0270657 0)
(31.2879 -0.025198 0)
(35.8584 -0.0610067 0)
(37.1275 -0.0907348 0)
(37.0263 -0.0878911 0)
(35.7132 -0.0589326 0)
(31.0877 -0.0247433 0)
(30.9065 -0.0229792 0)
(35.5993 -0.0577714 0)
(36.9437 -0.0884065 0)
(36.8401 -0.0857674 0)
(35.4557 -0.0562194 0)
(30.7193 -0.0230541 0)
(30.5485 -0.0211469 0)
(35.3435 -0.0551491 0)
(36.7556 -0.0866273 0)
(36.6489 -0.0843054 0)
(35.1999 -0.0540734 0)
(30.3701 -0.0216468 0)
(30.2068 -0.0197304 0)
(35.0884 -0.0532111 0)
(36.562 -0.0853523 0)
(36.4523 -0.0833481 0)
(34.9446 -0.052484 0)
(30.0351 -0.0205126 0)
(29.8777 -0.0186429 0)
(34.8334 -0.0516983 0)
(36.3632 -0.084438 0)
(36.2506 -0.0827274 0)
(34.689 -0.0512543 0)
(29.7112 -0.0196275 0)
(29.5583 -0.0177692 0)
(34.5778 -0.0505488 0)
(36.1594 -0.0839358 0)
(36.0438 -0.0824994 0)
(34.4325 -0.050365 0)
(29.3959 -0.0189306 0)
(29.2464 -0.0170653 0)
(34.3208 -0.0497129 0)
(35.9503 -0.0838099 0)
(35.8316 -0.0826207 0)
(34.1743 -0.0497636 0)
(29.0869 -0.018385 0)
(28.9398 -0.0164963 0)
(34.0615 -0.0491411 0)
(35.7355 -0.0840159 0)
(35.6136 -0.083049 0)
(33.9135 -0.0494047 0)
(28.7824 -0.0179621 0)
(28.637 -0.0161191 0)
(33.7994 -0.0487885 0)
(35.5148 -0.0844579 0)
(35.3896 -0.0837157 0)
(33.6496 -0.0492336 0)
(28.481 -0.0176817 0)
(28.3365 -0.015815 0)
(33.5339 -0.0485901 0)
(35.288 -0.0851556 0)
(35.1594 -0.08462 0)
(33.3821 -0.0492191 0)
(28.1814 -0.0174756 0)
(28.0374 -0.0156411 0)
(33.2644 -0.0485556 0)
(35.0547 -0.0860896 0)
(34.9224 -0.0857512 6.86042e-19)
(33.1103 -0.049349 0)
(27.8826 -0.0173688 0)
(27.7387 -0.015564 0)
(32.9903 -0.0486565 0)
(34.8144 -0.0872688 0)
(34.6784 -0.0871149 0)
(32.8336 -0.0496136 0)
(27.5837 -0.0173454 0)
(27.4394 -0.0155483 0)
(32.711 -0.048833 0)
(34.5669 -0.0886761 0)
(34.4269 -0.088625 0)
(32.5515 -0.0499585 0)
(27.284 -0.0173834 0)
(27.1387 -0.0156016 0)
(32.4261 -0.0492164 0)
(34.3117 -0.0901201 0)
(34.1675 -0.0902414 0)
(32.2636 -0.050447 0)
(26.9823 -0.0174592 0)
(26.8359 -0.0156823 0)
(32.1351 -0.0497393 0)
(34.0483 -0.091755 0)
(33.8997 -0.0920606 6.86476e-19)
(31.9692 -0.0510692 0)
(26.6782 -0.0175704 0)
(26.5301 -0.0158034 0)
(31.8373 -0.0503789 0)
(33.7764 -0.093607 0)
(33.6232 -0.0940862 0)
(31.6678 -0.05181 0)
(26.3707 -0.0177263 0)
(26.2207 -0.0159681 0)
(31.5322 -0.0511366 0)
(33.4955 -0.0956693 0)
(33.3375 -0.0963101 0)
(31.3588 -0.0526658 0)
(26.0591 -0.0179264 0)
(25.9068 -0.0161742 0)
(31.2192 -0.05201 0)
(33.2051 -0.0979344 0)
(33.0419 -0.0987246 0)
(31.0416 -0.0536319 0)
(25.7428 -0.0181675 0)
(25.5878 -0.0164178 0)
(30.8977 -0.0529946 0)
(32.9046 -0.100393 0)
(32.7362 -0.101319 6.86903e-19)
(30.7156 -0.0547019 0)
(25.421 -0.0184456 0)
(25.263 -0.0166936 0)
(30.5672 -0.0540842 0)
(32.5937 -0.103034 0)
(32.4198 -0.104078 0)
(30.3804 -0.0558673 0)
(25.0932 -0.0187554 0)
(24.9319 -0.0169969 0)
(30.2271 -0.0552691 0)
(32.272 -0.10584 0)
(32.0923 -0.106983 0)
(30.0354 -0.0571171 0)
(24.7587 -0.0190923 0)
(24.5939 -0.0173292 0)
(29.8771 -0.056528 0)
(31.9389 -0.108778 0)
(31.7534 -0.110003 0)
(29.6804 -0.0584285 0)
(24.4171 -0.0194531 0)
(24.2486 -0.0176831 0)
(29.5169 -0.0578371 0)
(31.5943 -0.11182 0)
(31.4029 -0.113102 6.87345e-19)
(29.3149 -0.0597796 0)
(24.0681 -0.0198307 0)
(23.8958 -0.0180492 0)
(29.146 -0.0591704 0)
(31.2379 -0.114914 0)
(31.0404 -0.116219 0)
(28.9388 -0.0611357 0)
(23.7115 -0.0202108 0)
(23.5354 -0.0184096 0)
(28.7646 -0.0604861 0)
(30.8697 -0.117992 0)
(30.6662 -0.119273 0)
(28.5523 -0.0624497 0)
(23.3474 -0.0205723 0)
(23.1676 -0.0187412 0)
(28.3729 -0.06173 0)
(30.4897 -0.120958 0)
(30.2806 -0.12217 0)
(28.1556 -0.0636679 0)
(22.9762 -0.0209013 0)
(22.7932 -0.019035 0)
(27.9713 -0.0628506 0)
(30.0986 -0.123713 0)
(29.8841 -0.124803 0)
(27.7495 -0.0647361 0)
(22.5986 -0.0211803 0)
(22.4128 -0.0192655 0)
(27.5608 -0.0637843 0)
(29.6971 -0.126137 0)
(29.4777 -0.127039 0)
(27.3351 -0.0655828 0)
(22.2159 -0.0213819 0)
(22.028 -0.0194039 0)
(27.1428 -0.0644501 0)
(29.2864 -0.128081 0)
(29.0631 -0.128712 0)
(26.9141 -0.0661179 0)
(21.8294 -0.0214742 0)
(21.6406 -0.0194151 0)
(26.719 -0.0647463 0)
(28.8683 -0.129356 0)
(28.642 -0.129617 0)
(26.4885 -0.0662297 0)
(21.4416 -0.0214184 0)
(21.2531 -0.0192563 0)
(26.2921 -0.0645473 0)
(28.445 -0.129729 0)
(28.2172 -0.129499 0)
(26.0613 -0.0657808 0)
(21.0553 -0.0211681 0)
(20.869 -0.0188779 0)
(25.8654 -0.0637021 0)
(28.0197 -0.128918 0)
(27.7924 -0.12806 0)
(25.6364 -0.0646113 0)
(20.6744 -0.0206673 0)
(20.4926 -0.0182195 0)
(25.4433 -0.062039 0)
(27.5965 -0.126599 0)
(27.3719 -0.124957 0)
(25.2186 -0.0625441 0)
(20.3037 -0.0198509 0)
(20.1293 -0.017213 0)
(25.0311 -0.0593652 0)
(27.1802 -0.122398 0)
(26.9614 -0.119797 0)
(24.8139 -0.0593671 0)
(19.9494 -0.018643 0)
(19.7858 -0.0157839 0)
(24.6356 -0.0554472 0)
(26.7773 -0.115887 0)
(26.5679 -0.112137 0)
(24.4298 -0.0548378 0)
(19.6186 -0.0169526 0)
(19.4702 -0.0138464 0)
(24.265 -0.0500297 0)
(26.3954 -0.106589 0)
(26.1999 -0.101538 0)
(24.0752 -0.0487146 0)
(19.3202 -0.0146753 0)
(19.1917 -0.0113322 0)
(23.9287 -0.0429061 0)
(26.0436 -0.0941107 0)
(25.8668 -0.0876391 0)
(23.7602 -0.0407981 0)
(19.064 -0.011785 0)
(18.962 -0.00823318 0)
(23.6371 -0.0336719 0)
(25.7321 -0.0779742 0)
(25.5798 -0.0698411 0)
(23.4959 -0.0305355 0)
(18.8619 -0.00809496 0)
(18.7969 -0.00430135 0)
(23.402 -0.0225079 0)
(25.4715 -0.0578669 0)
(25.3498 -0.0480152 0)
(23.2945 -0.0186788 0)
(18.7283 -0.00395904 0)
(18.7047 0.000152009 0)
(23.2371 -0.0102798 0)
(25.2762 -0.0337859 0)
(25.1893 -0.0230917 0)
(23.1681 -0.0056142 0)
(18.6712 0.000625981 0)
(18.693 0.00492951 0)
(23.1521 0.00352918 0)
(25.1553 -0.00731564 0)
(25.1072 0.00336093 0)
(23.1254 0.00823551 0)
(18.6972 0.00515611 0)
(18.7659 0.00977164 0)
(23.1533 0.0179712 0)
(25.1156 0.0200387 0)
(25.109 0.0304449 0)
(23.1708 0.0223094 0)
(18.8087 0.0094402 0)
(18.9193 0.0139261 6.21882e-20)
(23.2397 0.0313551 0)
(25.1575 0.0453762 0)
(25.1897 0.0568967 0)
(23.2974 0.0364588 0)
(18.9995 0.0138716 -6.21882e-20)
(19.1566 0.0187242 6.21836e-20)
(23.413 0.0461562 0)
(25.2843 0.0734007 0)
(25.3607 0.0840454 0)
(23.5166 0.0504948 0)
(19.2819 0.0190005 -6.21835e-20)
(19.4832 0.0236991 6.21773e-20)
(23.6802 0.0601225 0)
(25.5034 0.100638 0)
(25.6217 0.104486 0)
(23.8252 0.059826 0)
(19.6442 0.0216354 -6.21774e-20)
(19.8679 0.0257956 6.21701e-20)
(24.0191 0.0681795 0)
(25.7958 0.11844 0)
(25.9431 0.118475 0)
(24.1911 0.0657916 0)
(20.0476 0.0230291 -6.21703e-20)
(20.2844 0.0264661 6.21623e-20)
(24.4068 0.0724493 0)
(26.1412 0.129479 0)
(26.3092 0.126635 0)
(24.5967 0.0685411 0)
(20.4731 0.0232116 -6.21628e-20)
(20.7145 0.0262902 6.21542e-20)
(24.8253 0.0741854 0)
(26.5235 0.135679 0)
(26.7054 0.130526 0)
(25.0256 0.0691245 0)
(20.9049 0.022666 -6.21551e-20)
(21.1447 0.0254142 6.21462e-20)
(25.2603 0.073755 0)
(26.9293 0.137649 0)
(27.1186 0.13044 0)
(25.4641 0.067667 0)
(21.3308 0.0214991 -6.21474e-20)
(21.5631 0.0238862 6.21383e-20)
(25.6983 0.0712898 0)
(27.3458 0.135649 0)
(27.5363 0.126782 0)
(25.8995 0.0643976 0)
(21.739 0.0197508 -6.21399e-20)
(21.9589 0.0218442 6.21309e-20)
(26.1275 0.0671105 0)
(27.7608 0.130218 0)
(27.9469 0.12012 0)
(26.3205 0.0596616 0)
(22.12 0.0175813 -6.21327e-20)
(22.3235 0.0194339 6.21239e-20)
(26.5374 0.0615965 0)
(28.1638 0.121986 0)
(28.3408 0.111044 0)
(26.7177 0.0538112 0)
(22.4662 0.0150999 -6.21261e-20)
(22.6504 0.0167573 6.21177e-20)
(26.9197 0.0550962 0)
(28.5458 0.111541 0)
(28.7099 0.100161 0)
(27.0837 0.0471712 0)
(22.7724 0.0124159 -6.21202e-20)
(22.9356 0.0140232 6.21122e-20)
(27.2679 0.048009 0)
(28.8998 0.0995063 0)
(29.048 0.0880522 0)
(27.4124 0.0401882 0)
(23.0363 0.00988653 -6.21148e-20)
(23.1774 0.0114611 5.5898e-19)
(27.5769 0.0407759 4.12898e-19)
(29.2203 0.08659 -1.37606e-18)
(29.3499 0.0753668 0)
(27.6998 0.0332686 0)
(23.2583 0.00775945 -6.21099e-20)
(23.3763 0.00896065 6.21036e-20)
(27.8439 0.0334509 0)
(29.5034 0.0734112 -6.87969e-19)
(29.6143 0.0627109 0)
(27.9459 0.0266094 0)
(23.4376 0.00551038 -6.21058e-20)
(23.5333 0.00650513 6.21004e-20)
(28.0698 0.0264613 0)
(29.7485 0.0604487 0)
(29.8407 0.050522 0)
(28.1513 0.020415 0)
(23.576 0.00350634 -6.21025e-20)
(23.6512 0.00480345 6.20979e-20)
(28.2555 0.0208546 0)
(29.9558 0.0483626 0)
(30.0302 0.0395136 0)
(28.3178 0.0156681 0)
(23.6769 0.00212682 -6.20998e-20)
(23.7336 0.00284663 6.20962e-20)
(28.404 0.014974 0)
(30.1278 0.0374219 0)
(30.1857 0.0298288 0)
(28.4487 0.00807813 0)
(23.7451 -0.000753662 -6.20976e-20)
(23.7865 -0.000151722 6.20952e-20)
(28.5187 0.00598423 0)
(30.2662 0.0281277 0)
(30.3087 0.0228858 0)
(28.5478 0.00307549 0)
(23.7861 -0.00220081 -6.20964e-20)
(23.8145 -0.00110111 6.20945e-20)
(28.6039 0.00152552 0)
(30.3753 0.0213082 0)
(30.4048 0.0168402 0)
(28.62 -0.000206404 0)
(23.8048 -0.00292056 -6.20955e-20)
(23.8234 -0.00171591 6.20939e-20)
(28.6646 -0.00134969 0)
(30.4596 0.0150226 0)
(30.4777 0.0102856 0)
(28.6704 -0.00314574 0)
(23.8072 -0.00372912 -6.20947e-20)
(23.8197 -0.000594308 6.20928e-20)
(28.7057 0.000922597 0)
(30.5223 0.00908178 0)
(30.5335 0.0043775 0)
(28.7037 0.00186874 0)
(23.7975 -0.00127193 -6.20942e-20)
(23.8058 0.000548247 6.20928e-20)
(28.7327 0.00212157 0)
(30.5717 0.00230069 0)
(30.5756 -0.000985479 0)
(28.7244 -2.90197e-05 0)
(23.7806 -0.00193221 -6.20942e-20)
(23.7852 -6.48202e-05 6.20932e-20)
(28.7473 0.000300925 0)
(30.6067 -0.00175983 0)
(30.6046 -0.0035305 0)
(28.7335 -0.000894898 0)
(23.7571 -0.00194999 -6.20939e-20)
(23.759 -0.00020629 6.20932e-20)
(28.7519 -0.000702392 0)
(30.6307 -0.00422727 0)
(30.6246 -0.00446445 0)
(28.7345 -0.000931267 0)
(23.7294 -0.00167706 -6.20941e-20)
(23.7286 -0.000412728 6.20935e-20)
(28.7495 -0.00144365 0)
(30.6478 -0.00410817 0)
(30.6375 -0.00473061 0)
(28.7282 -0.00732901 0)
(23.6977 -0.0042205 -6.20937e-20)
(23.6959 -0.00279271 6.20944e-20)
(28.7402 -0.00792892 0)
(30.6556 -0.00376026 0)
(30.6417 -0.00329906 0)
(28.7163 -0.00877468 0)
(23.6644 -0.00476148 -6.20943e-20)
(23.6618 -0.00271637 6.20941e-20)
(28.727 -0.00799911 0)
(30.6587 -0.00344504 0)
(30.6431 -0.00413087 0)
(28.7019 -0.00904614 0)
(23.6305 -0.00460338 -6.20953e-20)
(23.6291 -0.00272458 6.20946e-20)
(28.7114 -0.0076712 0)
(30.6575 -0.00547467 0)
(30.6403 -0.00531095 0)
(28.6859 -0.00384536 0)
(23.5978 -0.00174082 -6.20945e-20)
(23.5955 0.000328463 6.20935e-20)
(28.694 -0.000712358 0)
(30.6542 -0.00588044 0)
(30.6368 -0.00869801 0)
(28.6678 -0.00191996 0)
(23.564 -0.00125044 -6.2095e-20)
(23.5646 4.84848e-06 6.20942e-20)
(28.6769 -0.00157495 0)
(30.6503 -0.00859969 -6.87917e-19)
(30.6313 -0.00784842 0)
(28.6496 -0.00122488 0)
(23.5328 -0.00100965 -6.20939e-20)
(23.5316 -0.000390784 6.20951e-20)
(28.657 -0.00269607 0)
(30.6433 -0.009948 0)
(30.6235 -0.00915446 0)
(28.6295 -0.00225563 0)
(23.5004 -0.00146324 -6.20949e-20)
(23.5007 -0.000154966 6.20948e-20)
(28.6377 -0.00230101 0)
(30.636 -0.00949987 0)
(30.6165 -0.0093951 0)
(28.6109 -0.00191257 0)
(23.4706 -0.00138332 -6.20959e-20)
(23.4707 0.000178407 6.20965e-20)
(28.6182 -0.00130123 0)
(30.6279 -0.00870985 0)
(30.6086 -0.00864503 0)
(28.5919 -0.00151845 0)
(23.4415 -0.00118439 -6.20661e-20)
(23.4435 3.37052e-05 6.20038e-20)
(28.6015 -0.00117116 0)
(30.6232 -0.00592365 -6.86612e-19)
(30.603 -0.0054482 -6.83595e-19)
(28.5744 -0.00755151 3.07339e-19)
(23.4144 -0.00358742 -5.53924e-19)
(23.4171 -0.00254213 0)
(28.5848 -0.00734378 5.46285e-25)
(30.6201 -0.00290476 0)
(30.6056 0.00162754 -6.67691e-19)
(28.5627 -0.00343203 9.95005e-20)
(23.3886 -0.00144143 0)
(23.4227 0.000332682 -9.67587e-19)
(28.588 -0.00226227 4.53324e-24)
(30.6345 0.00473842 -6.65807e-19)
(30.6297 0.0138039 0)
(28.5906 0.00718074 0)
(23.4153 0.00287086 9.04627e-19)
(23.4911 0.0104597 -2.44977e-19)
(28.6641 0.0185069 -4.01834e-18)
(30.7 0.0335623 4.73776e-24)
(30.7592 0.0681883 5.11392e-18)
(28.746 0.0324646 0)
(23.6344 0.0218529 -1.55956e-18)
(23.9255 0.0543888 -2.01024e-18)
(28.941 0.0631393 1.59533e-17)
(30.9343 0.101824 -1.16179e-22)
(31.4685 0.0716985 -3.71516e-17)
(29.7418 0.127675 1.0434e-18)
(25.0816 0.123942 0)
(24.8272 0.0684988 0)
(28.7887 0.134421 -8.8173e-19)
(30.5955 0.197622 7.3899e-19)
(31.7797 0.290145 -7.49032e-18)
(32.6585 0.137855 -3.85253e-22)
(33.1616 0.028451 1.31322e-17)
(33.3347 0.00791972 -1.91303e-19)
(33.4411 0.0183183 -2.83179e-18)
(33.6506 0.0238892 2.83603e-18)
(33.7348 0.0192032 0)
(33.8273 0.0212061 0)
(33.8688 0.0198016 6.10455e-19)
(33.9042 0.0215875 7.87653e-19)
(33.912 0.0202236 -1.75577e-19)
(33.9009 0.0215881 8.90189e-19)
(33.8753 0.0196456 -1.44737e-18)
(33.8078 0.019791 7.45283e-19)
(33.7378 0.0127295 0)
(33.5621 0.0115339 -1.27915e-17)
(33.4622 0.00568339 -1.48582e-17)
(33.3507 0.00637727 0)
(33.2138 0.0189954 -5.28907e-19)
(32.979 0.0107364 0)
(32.3786 -0.0284599 0)
(31.0807 -0.0658513 2.67766e-18)
(28.3667 -0.0715542 -6.93538e-18)
(24.9031 -0.0788988 0)
(17.7706 -0.0718322 -3.6539e-19)
(17.2269 -0.0469297 3.44948e-19)
(24.5492 -0.0830475 -8.53457e-18)
(28.0747 -0.0865904 2.00743e-17)
(27.7891 -0.0803409 8.11334e-19)
(24.2134 -0.041941 2.68895e-18)
(16.7768 -0.0362108 -2.84201e-18)
(16.4828 -0.0240333 0)
(23.9872 -0.0318904 -1.43974e-18)
(27.606 -0.0627589 -3.70443e-18)
(27.5151 -0.0426545 0)
(23.9025 -0.033694 9.46143e-19)
(16.2889 -0.0195951 0)
(16.2576 -0.0113421 0)
(23.86 -0.0177429 2.22491e-19)
(27.4751 -0.0203419 -1.20499e-18)
(27.4355 -0.00982453 1.02915e-24)
(23.821 -0.0109876 -2.22557e-19)
(16.1453 -0.00604012 0)
(16.1394 0.00129277 0)
(23.7961 -0.0013603 0)
(27.439 -0.00234782 -1.68543e-19)
(27.4448 0.00473993 0)
(23.8018 0.00250815 0)
(16.1464 0.000933615 0)
(16.1531 0.00112362 0)
(23.8075 0.00355018 0)
(27.4502 0.00632406 0)
(27.4614 0.00693798 0)
(23.8216 0.00366618 0)
(16.1692 0.00118934 0)
(16.1863 0.00121333 0)
(23.8378 0.00390262 0)
(27.4748 0.00693936 0)
(27.4849 0.00726513 0)
(23.8516 0.00379342 0)
(16.2017 0.00119396 0)
(16.2216 0.00137388 0)
(23.8703 0.00441618 0)
(27.5005 0.0082307 -1.68198e-19)
(27.5124 0.0120463 1.68528e-19)
(23.8856 0.00624635 0)
(16.2387 0.00203827 0)
(16.2588 0.00197697 0)
(23.9043 0.00607127 0)
(27.528 0.0115315 0)
(27.5434 0.0125824 0)
(23.9236 0.00687808 0)
(16.2796 0.00222899 0)
(16.2963 0.00209149 0)
(23.939 0.00645717 0)
(27.556 0.0115789 0)
(27.5723 0.0111228 0)
(23.9593 0.00639064 0)
(16.3184 0.00219215 0)
(16.3396 0.00206936 0)
(23.9791 0.00604169 0)
(27.5887 0.0102048 0)
(27.6035 0.00955482 0)
(23.998 0.00555411 0)
(16.3603 0.00190041 0)
(16.3834 0.00199574 0)
(24.0196 0.00605599 0)
(27.6215 0.0102345 0)
(27.6355 0.0127283 0)
(24.0373 0.00700987 0)
(16.4029 0.00235966 0)
(16.4258 0.00187313 0)
(24.0586 0.00572349 0)
(27.6532 0.0114805 0)
(27.6694 0.0128406 0)
(24.0794 0.00645991 0)
(16.4487 0.00215297 0)
(16.47 0.00240853 0)
(24.0988 0.00703801 0)
(27.6852 0.0123074 0)
(27.7023 0.01303 0)
(24.1199 0.0078739 0)
(16.4935 0.00274155 0)
(16.5156 0.0025137 0)
(24.1405 0.00733594 0)
(27.7194 0.0120263 0)
(27.7362 0.0122761 0)
(24.1615 0.00707595 0)
(16.5388 0.00248234 0)
(16.5628 0.00237934 0)
(24.1839 0.00695754 0)
(27.7545 0.0121235 0)
(27.7714 0.0131828 0)
(24.2051 0.00773041 0)
(16.5864 0.00268652 0)
(16.6102 0.00248469 0)
(24.2272 0.00734258 0)
(27.79 0.0119169 0)
(27.8067 0.0125155 0)
(24.2479 0.00709224 0)
(16.6334 0.00240298 0)
(16.6579 0.00195062 0)
(24.2703 0.0059864 0)
(27.8251 0.011901 0)
(27.8422 0.0137415 0)
(24.2923 0.00698695 0)
(16.6826 0.00232972 0)
(16.7076 0.00265469 0)
(24.3152 0.007683 0)
(27.8613 0.013275 0)
(27.8795 0.0145891 0)
(24.3375 0.00901783 0)
(16.7324 0.00313087 -1.44061e-19)
(16.7565 0.00277623 1.43916e-19)
(24.3598 0.00840717 0)
(27.8984 0.0138206 0)
(27.9174 0.013855 0)
(24.383 0.00769183 0)
(16.7819 0.00264359 0)
(16.806 0.00190727 0)
(24.4055 0.00581699 0)
(27.9363 0.0121922 0)
(27.9553 0.0120094 0)
(24.4291 0.0052037 0)
(16.832 0.00163481 0)
(16.859 0.00190309 0)
(24.4539 0.00593787 0)
(27.9761 0.0126026 0)
(27.9944 0.0144002 0)
(24.4764 0.00754936 0)
(16.8837 0.00249985 0)
(16.9101 0.00286838 0)
(24.5012 0.00848253 0)
(28.0159 0.0143196 0)
(28.0351 0.0157462 0)
(24.5238 0.00924317 0)
(16.9343 0.00309082 0)
(16.9598 0.00256102 0)
(24.5482 0.00780163 0)
(28.0566 0.0144322 0)
(28.078 0.0141957 0)
(24.5738 0.00691563 0)
(16.9863 0.00215422 0)
(17.0107 0.00204579 0)
(24.5974 0.00642609 0)
(28.0983 0.012952 0)
(28.1202 0.0134013 0)
(24.623 0.0074592 0)
(17.0372 0.00246098 0)
(17.0632 0.0026998 0)
(24.6487 0.00845237 0)
(28.1433 0.0141333 0)
(28.1652 0.0148867 0)
(24.6737 0.00876168 0)
(17.0884 0.00284253 0)
(17.1151 0.00251874 0)
(24.7007 0.00801707 0)
(28.1899 0.0150702 0)
(28.2115 0.0162343 0)
(24.7252 0.00747779 0)
(17.1386 0.0022214 0)
(17.1652 0.0019102 0)
(24.753 0.0068743 0)
(28.2368 0.0153201 0)
(28.2621 0.0162488 0)
(24.7813 0.00808025 0)
(17.1915 0.00241331 0)
(17.2155 0.0023643 0)
(24.808 0.00811851 0)
(28.2873 0.0149329 0)
(28.3146 0.0149803 0)
(24.8371 0.00770638 0)
(17.2411 0.00220754 0)
(17.2661 0.00151579 0)
(24.8666 0.00642461 0)
(28.3427 0.014902 0)
(28.37 0.0157975 0)
(24.8959 0.00616123 0)
(17.2905 0.00125375 0)
(17.3164 0.00162229 0)
(24.9278 0.00711292 0)
(28.4008 0.0164575 0)
(28.4295 0.0185903 0)
(24.9571 0.00924806 0)
(17.338 0.00234322 0)
(17.3606 0.00211603 0)
(24.9889 0.00910319 0)
(28.4619 0.0180256 0)
(28.4956 0.0185392 0)
(25.0229 0.00883637 0)
(17.3838 0.00185251 0)
(17.4048 0.00132135 0)
(25.056 0.00742599 0)
(28.5295 0.0168041 0)
(28.5655 0.0165855 0)
(25.0919 0.00710746 0)
(17.427 0.00100916 0)
(17.4482 0.000888642 0)
(25.1286 0.00744477 0)
(28.6036 0.0172754 0)
(28.6421 0.0192384 0)
(25.1657 0.00740484 0)
(17.4681 0.00065654 0)
(17.4899 3.35965e-05 0)
(25.2069 0.00654911 0)
(28.6849 0.0197719 0)
(28.7264 0.0225388 0)
(25.2471 0.0081742 0)
(17.5088 0.000304141 0)
(17.5277 0.000737285 0)
(25.2897 0.00981117 0)
(28.7718 0.0231357 0)
(28.8204 0.0247759 0)
(25.3358 0.0106625 0)
(17.548 0.000967549 0)
(17.5664 -8.40217e-05 0)
(25.3835 0.00878352 0)
(28.8714 0.0239201 0)
(28.9244 0.0238287 0)
(25.4345 0.00639831 0)
(17.5867 -0.00147306 0)
(17.6086 -0.00151183 0)
(25.4893 0.00674317 0)
(28.981 0.0243393 0)
(29.0402 0.0279277 0)
(25.5469 0.0104598 0)
(17.6313 -0.000291673 0)
(17.6551 0.000286991 0)
(25.6082 0.0123715 0)
(29.1045 0.0304725 0)
(29.1708 0.0339333 0)
(25.6729 0.012801 0)
(17.6807 -3.18716e-05 0)
(17.7116 -0.000820274 0)
(25.7441 0.0121038 0)
(29.2424 0.0356798 0)
(29.3164 0.0397111 0)
(25.8199 0.0152536 0)
(17.7467 0.000195757 0)
(17.7877 0.00176834 0)
(25.9021 0.0197315 0)
(29.397 0.0424015 0)
(29.4821 0.0467527 0)
(25.9898 0.0227085 0)
(17.8343 0.0027398 0)
(17.8894 0.00233889 0)
(26.0856 0.0224965 0)
(29.5731 0.0495209 0)
(29.6689 0.054297 0)
(26.1901 0.0220967 0)
(17.9563 0.00187836 0)
(18.0365 0.00389918 0)
(26.3041 0.0263314 0)
(29.7696 0.0594861 0)
(29.8778 0.0688278 0)
(26.427 0.0368298 0)
(18.1312 0.00804936 0)
(18.2431 0.0100198 0)
(26.5614 0.0418939 0)
(29.9952 0.0769923 1.67877e-19)
(30.1173 0.0852948 -1.68215e-19)
(26.7088 0.0425975 0)
(18.376 0.0100821 0)
(18.5326 0.0139709 0)
(26.8709 0.0504041 0)
(30.2458 0.0945711 0)
(30.3852 0.107861 0)
(27.0485 0.0670686 0)
(18.7161 0.0203354 0)
(18.93 0.0260467 0)
(27.2428 0.0779007 0)
(30.5385 0.12226 0)
(30.7008 0.13687 0)
(27.4566 0.0809298 0)
(19.1757 0.0293363 0)
(19.4724 0.0322026 0)
(27.7003 0.08074 0)
(30.8797 0.151906 0)
(31.0841 0.177069 1.68089e-19)
(27.9892 0.0910325 0)
(19.8455 0.0420173 0)
(20.3095 0.0774867 0)
(28.319 0.136321 0)
(31.3145 0.233661 -1.68599e-19)
(31.5468 0.349149 -2.70851e-18)
(28.658 0.260449 2.62063e-23)
(20.77 0.178911 2.29246e-18)
(21.2075 0.24628 -9.11762e-18)
(28.9842 0.351059 -5.44621e-23)
(31.7549 0.464748 2.53631e-18)
(31.9196 0.627648 -2.52182e-18)
(29.2532 0.514338 -7.02361e-18)
(21.6309 0.381395 9.03155e-18)
(21.9988 0.545281 1.4252e-19)
(29.4029 0.699315 -6.99878e-18)
(32.0272 0.799048 5.33253e-18)
(32.1123 0.965806 -5.46326e-18)
(29.6215 0.850375 0)
(22.3595 0.658017 0)
(22.6894 0.800252 1.79978e-17)
(29.745 1.01145 -1.37448e-17)
(32.1795 1.12399 -5.09229e-18)
(32.2248 1.27097 0)
(29.882 1.14909 -1.36013e-17)
(23.0574 0.91999 1.78668e-17)
(23.4485 1.04588 1.77376e-17)
(30.0177 1.29274 -4.2191e-19)
(32.2734 1.423 0)
(32.2744 1.58619 0)
(30.1079 1.47247 4.22531e-19)
(23.7986 1.20551 -5.53704e-19)
(24.1027 1.31833 -1.63605e-17)
(30.1902 1.60396 0)
(32.2625 1.72013 0)
(32.2541 1.8258 -1.02931e-17)
(30.2843 1.69786 1.35185e-17)
(24.4388 1.40402 -1.82889e-17)
(24.8042 1.52128 0)
(30.375 1.81877 1.65837e-18)
(32.2487 1.93408 0)
(32.2259 2.05766 -9.74416e-18)
(30.4482 1.94368 -1.6427e-18)
(25.1795 1.62985 -4.4403e-18)
(25.3921 1.71034 2.04719e-17)
(30.5064 2.10335 -3.46859e-17)
(32.1463 2.2179 2.41322e-17)
(31.9468 2.13518 2.98731e-17)
(30.3673 2.02963 -5.54799e-17)
(25.3866 1.59524 -2.03411e-17)
(20.2208 1.36499 -3.16549e-17)
(28.013 1.66801 -3.12145e-18)
(30.9008 1.55261 -1.59542e-17)
(31.705 2.24994 -3.52697e-18)
(29.0816 2.12601 4.696e-18)
(21.4775 1.59945 -3.10642e-18)
(21.483 1.71699 1.3961e-18)
(29.1707 2.3251 -2.11637e-18)
(31.7393 2.50798 -1.60976e-18)
(31.6858 2.63782 5.25971e-17)
(29.2243 2.43039 -6.0192e-22)
(21.8015 1.81545 -4.46373e-17)
(22.2181 1.97413 3.33941e-19)
(29.2396 2.56653 6.48983e-17)
(31.6076 2.75715 -2.27635e-22)
(31.6228 2.8558 2.46266e-17)
(29.3982 2.65414 -3.18217e-17)
(22.7326 2.08293 4.18285e-17)
(23.2973 2.21502 -3.18668e-19)
(29.5075 2.76139 1.20819e-19)
(31.6068 2.96135 2.33273e-17)
(31.6164 3.09783 -2.38853e-17)
(29.6685 2.9237 3.02555e-17)
(23.8328 2.3859 -3.09495e-19)
(24.3364 2.49409 6.16998e-19)
(29.7513 2.98737 2.82875e-17)
(31.5687 3.18101 -2.36308e-17)
(31.5524 3.2869 -1.80464e-17)
(29.8878 3.12223 -2.72412e-17)
(24.8384 2.64839 4.04639e-17)
(25.3157 2.74407 -2.36995e-18)
(29.9899 3.19964 0)
(31.5188 3.37001 -2.626e-18)
(31.4644 3.50281 0)
(30.0848 3.31539 2.41295e-17)
(25.7453 2.84995 -6.88247e-17)
(25.9151 2.84432 5.08433e-17)
(30.0183 3.36749 0)
(31.2781 3.4968 -1.26539e-16)
(30.4721 2.98182 1.06707e-17)
(28.2383 3.03611 -3.1322e-18)
(22.2898 2.58084 -3.77637e-18)
(23.6398 2.86748 0)
(29.2136 3.46004 -2.30769e-18)
(31.1002 3.62078 -6.95501e-18)
(31.1212 3.83491 0)
(29.3247 3.63402 -3.2049e-17)
(23.9716 3.02294 4.23234e-17)
(24.5055 3.14068 6.33355e-19)
(29.529 3.72677 -9.62134e-19)
(31.1231 3.94823 0)
(31.0903 4.08837 -5.63582e-23)
(29.6099 3.92021 2.79963e-17)
(24.9085 3.35233 -3.88824e-17)
(25.2925 3.47613 3.4591e-17)
(29.6724 4.02278 3.49113e-18)
(31.0419 4.1791 0)
(30.9965 4.29463 1.98529e-17)
(29.749 4.14804 -1.66647e-18)
(25.6751 3.61219 -2.24983e-18)
(25.8667 3.74522 4.11042e-18)
(29.731 4.29928 0)
(30.8743 4.44057 -3.21814e-17)
(30.6358 4.40663 -3.70431e-18)
(29.6239 4.25774 2.28309e-18)
(25.9668 3.69822 4.60274e-17)
(22.8878 3.27373 0)
(28.0759 3.93686 -3.08482e-18)
(29.9416 4.22291 7.91507e-18)
(30.4004 4.62349 3.78917e-17)
(28.85 4.43622 -7.45053e-17)
(24.0159 3.77082 9.68619e-17)
(24.2826 3.94295 -4.36795e-17)
(28.9123 4.59559 -3.19105e-17)
(30.3077 4.81375 1.54677e-18)
(30.1627 4.96896 -2.38889e-17)
(28.9083 4.78149 -3.15717e-17)
(24.6649 4.177 8.41296e-17)
(25.0407 4.3441 0)
(28.8696 4.88169 3.73028e-18)
(30.0069 5.08879 0)
(29.847 5.2594 0)
(28.8796 5.04594 9.5493e-18)
(25.4417 4.52845 0)
(25.5502 4.67774 0)
(28.6805 5.2518 -1.97964e-17)
(29.5374 5.36944 0)
(28.8991 5.03002 -2.50692e-17)
(27.3696 5.01298 2.58721e-17)
(22.8706 4.40682 0)
(24.1721 4.7073 1.00924e-16)
(28.0462 5.31078 2.94683e-19)
(29.2461 5.5199 -1.78788e-18)
(29.1212 5.80897 -2.4454e-17)
(28.0446 5.66659 3.24076e-17)
(24.5006 5.06158 -8.71583e-17)
(24.8268 5.22134 8.10058e-17)
(27.9997 5.75173 -6.00038e-17)
(28.9355 5.93444 -2.18049e-17)
(28.6938 6.14368 -3.46675e-17)
(27.9198 5.9898 8.85747e-17)
(25.0164 5.44885 -1.52687e-16)
(24.997 5.54754 2.11385e-16)
(27.6078 6.10657 9.80274e-17)
(28.3161 6.21304 -1.99363e-21)
(27.7598 5.97687 -7.07671e-19)
(26.5422 5.88371 -8.25046e-19)
(22.7308 5.27854 -1.00431e-18)
(23.6671 5.83568 1.02267e-16)
(26.9259 6.4465 6.00289e-19)
(27.8475 6.56784 0)
(27.5005 6.77006 9.76742e-17)
(26.705 6.61016 -6.65341e-17)
(23.7851 6.07622 -2.45526e-18)
(24.0052 6.40145 2.48482e-18)
(26.4864 6.87453 0)
(27.1056 7.02139 -5.61137e-17)
(26.5851 7.17356 -3.37672e-17)
(26.0449 7.13079 0)
(23.8954 6.62538 3.31527e-18)
(22.0517 6.40217 -1.40061e-16)
(25.1035 6.97314 1.10141e-16)
(26.021 7.03157 0)
(25.8705 7.61486 -5.78612e-17)
(25.1908 7.56333 7.72806e-17)
(22.7881 7.09663 2.02254e-19)
(22.763 7.34762 8.84749e-17)
(24.8013 7.66147 0)
(25.345 7.76124 0)
(24.6756 8.02223 0)
(24.2569 8.05794 -5.40235e-17)
(22.5677 7.82468 1.55635e-16)
(22.0977 8.00261 0)
(23.5176 8.19283 0)
(23.8149 8.07626 -8.03487e-18)
(22.8357 8.43567 1.09635e-17)
(22.3515 8.28936 0)
(20.3975 7.97459 -1.32084e-16)
(20.3106 8.6131 -1.20759e-17)
(21.7534 8.7605 -1.32742e-16)
(22.1231 8.64795 2.02995e-21)
(20.8635 8.59042 -4.65472e-18)
(20.6478 8.87917 5.91681e-18)
(19.4649 8.82208 1.8794e-17)
(17.6937 8.70704 -4.51361e-18)
(19.1248 8.93041 -1.47281e-17)
(19.4588 9.09614 1.79503e-17)
(18.3428 8.86512 -8.52629e-17)
(17.9499 9.21706 1.22594e-16)
(16.9788 9.42546 -1.24228e-17)
(15.3089 9.40188 2.46747e-16)
(16.0027 8.82079 -1.52608e-16)
(16.3303 8.12042 0)
(13.3833 8.18994 -7.22718e-17)
(12.9522 8.68113 -1.20281e-17)
(12.1209 9.13137 0)
(9.3104 7.72843 0)
(9.92549 6.858 1.78608e-17)
(10.7052 5.87961 -9.02882e-18)
(7.33235 3.94209 -1.32484e-16)
(5.87063 4.90563 3.6334e-16)
(4.96348 5.15595 -2.44715e-16)
(1.89429 0.808072 1.9916e-16)
(3.16294 -0.219829 -2.7062e-16)
(5.08133 -1.14639 1.83575e-16)
(3.7694 -9.54452 0)
(1.55769 -9.57261 -4.39361e-17)
(-0.182746 -9.83268 1.27264e-16)
(3.37758 -18.2979 -9.60325e-19)
(5.06789 -17.3007 4.64678e-17)
(6.51301 -16.5435 -3.20278e-17)