/*--------------------------------*- C++ -*----------------------------------*\
| =========                 |                                                 |
| \\      /  F ield         | OpenFOAM: The Open Source CFD Toolbox           |
|  \\    /   O peration     | Version:  v2006                                 |
|   \\  /    A nd           | Website:  www.openfoam.com                      |
|    \\/     M anipulation  |                                                 |
\*---------------------------------------------------------------------------*/
FoamFile
{
    version     2.0;
    format      ascii;
    class       volScalarField;
    location    "0.155";
    object      nut;
}
// * * * * * * * * * * * * * * * * * * * * * * * * * * * * * * * * * * * * * //

dimensions      [0 2 -1 0 0 0 0];


internalField   nonuniform List<scalar> 
16277
(
22.9491
15.9678
52.8001
11.4425
16.7103
9.15661
3.70516
1.51696
0.819051
0.553058
0.434968
0.37507
0.339224
0.313175
0.291244
0.271526
0.253597
0.237478
0.223184
0.210613
0.19957
0.189822
0.181149
0.173362
0.166314
0.15989
0.154003
0.148587
0.143587
0.138961
0.134671
0.130686
0.126979
0.123528
0.120311
0.117312
0.114516
0.11191
0.109482
0.107221
0.105118
0.103165
0.101354
0.0996803
0.0981374
0.0967209
0.0954263
0.0942505
0.0931908
0.0922452
0.0914124
0.0906916
0.0900828
0.0895862
0.0892016
0.088933
0.0887826
0.0887543
0.0888525
0.0890794
0.0894427
0.0899499
0.0906099
0.0914337
0.0924338
0.0936249
0.0950248
0.0966551
0.098543
0.100724
0.103244
0.106164
0.109564
0.113535
0.118169
0.123528
0.129614
0.136384
0.143897
0.152811
0.165436
0.18832
0.238289
0.359164
0.668942
1.40635
2.48303
2.65536
1.57354
1.03942
0.51181
0.233366
0.126888
0.0598642
0.0141836
0.00255184
8.45542e-05
7.33874e-05
0.00119942
0.00552392
0.00304384
0.00077723
6.42808e-05
5.75592e-05
0.00070865
0.00255969
0.00204248
0.00060913
5.31902e-05
4.97639e-05
0.000590341
0.00193699
0.00167604
0.000531764
4.68454e-05
4.48782e-05
0.00052263
0.00163261
0.00148599
0.000487043
4.29386e-05
4.18902e-05
0.000489988
0.00147089
0.00137593
0.000463935
4.06089e-05
3.99201e-05
0.000468105
0.00136752
0.00129544
0.000447126
3.89747e-05
3.84986e-05
0.000451263
0.00129167
0.00123209
0.000433467
3.77598e-05
3.74143e-05
0.000437484
0.00123093
0.0011793
0.000421822
3.68143e-05
3.65546e-05
0.000425824
0.0011798
0.00113386
0.000411599
3.60471e-05
3.58423e-05
0.000415615
0.00113545
0.00109377
0.000402368
3.53964e-05
3.52295e-05
0.000406337
0.00109609
0.00105777
0.000393854
3.48287e-05
3.46883e-05
0.000397774
0.00106061
0.00102507
0.000385931
3.43204e-05
3.41986e-05
0.000389809
0.0010283
0.000995102
0.000378524
3.38556e-05
3.37476e-05
0.000382366
0.00099866
0.000967436
0.00037157
3.3424e-05
3.33264e-05
0.000375374
0.000971295
0.000941808
0.000365009
3.30185e-05
3.29291e-05
0.000368775
0.000945925
0.00091799
0.000358797
3.26338e-05
3.25508e-05
0.000362526
0.000922333
0.000895812
0.000352902
3.22662e-05
3.21883e-05
0.000356601
0.000900354
0.00087512
0.00034731
3.19127e-05
3.18391e-05
0.000350981
0.000879825
0.000855751
0.000341997
3.15713e-05
3.15016e-05
0.000345638
0.00086058
0.000837543
0.000336933
3.12405e-05
3.11741e-05
0.000340541
0.000842461
0.000820357
0.000332089
3.09185e-05
3.08549e-05
0.000335661
0.000825334
0.000804067
0.000327438
3.06038e-05
3.05425e-05
0.000330973
0.000809081
0.000788568
0.000322954
3.02949e-05
3.02354e-05
0.000326447
0.000793596
0.000773763
0.000318612
2.99904e-05
2.99323e-05
0.000322059
0.000778787
0.00075957
0.000314386
2.9689e-05
2.96319e-05
0.000317786
0.000764574
0.000745918
0.000310258
2.93894e-05
2.93328e-05
0.000313608
0.000750889
0.000732744
0.000306211
2.90904e-05
2.90341e-05
0.000309509
0.000737671
0.000719994
0.000302229
2.8791e-05
2.87345e-05
0.000305474
0.000724869
0.00070762
0.0002983
2.849e-05
2.84331e-05
0.000301492
0.000712441
0.000695594
0.000294414
2.81865e-05
2.81289e-05
0.000297555
0.000700357
0.000683887
0.000290566
2.78797e-05
2.78213e-05
0.000293656
0.000688595
0.000672481
0.000286751
2.75688e-05
2.75094e-05
0.000289803
0.000677137
0.000661364
0.000282973
2.7253e-05
2.71927e-05
0.000286018
0.000665978
0.000650537
0.000279243
2.69323e-05
2.68711e-05
0.000282272
0.000655116
0.000639996
0.000275549
2.6606e-05
2.6544e-05
0.000278574
0.000644548
0.000629745
0.000271903
2.62741e-05
2.62113e-05
0.000274937
0.000634286
0.000619801
0.000268321
2.59364e-05
2.58731e-05
0.000271379
0.000624353
0.000610199
0.000264824
2.55934e-05
2.55299e-05
0.000267926
0.00061479
0.000600985
0.00026144
2.52456e-05
2.51826e-05
0.000264612
0.000605737
0.000592257
0.000258211
2.48944e-05
2.48327e-05
0.000261483
0.000597274
0.000584095
0.000255185
2.45414e-05
2.44822e-05
0.000258589
0.000589411
0.000576568
0.000252416
2.41892e-05
2.41339e-05
0.00025599
0.000582282
0.000569824
0.00024997
2.38409e-05
2.37913e-05
0.000253761
0.00057605
0.000564037
0.000247929
2.35003e-05
2.34593e-05
0.000251989
0.000570897
0.0005594
0.000246397
2.31723e-05
2.31445e-05
0.000250712
0.000567021
0.000556137
0.000245444
2.28669e-05
2.28485e-05
0.000249833
0.000564565
0.000554317
0.000244846
2.25964e-05
2.25807e-05
0.000249372
0.000563812
0.000554215
0.000244737
2.23599e-05
2.23465e-05
0.000249399
0.000564775
0.000555809
0.000245155
2.2177e-05
2.21545e-05
0.0002499
0.000567347
0.000559039
0.000246088
2.20456e-05
2.20165e-05
0.000250807
0.000571311
0.000563598
0.000247309
2.19202e-05
2.19343e-05
0.000251939
0.000576553
0.0005694
0.000248577
2.18384e-05
2.1888e-05
0.000253056
0.000582865
0.000576188
0.000249884
2.18039e-05
2.18977e-05
0.000254001
0.000589532
0.000583109
0.000251018
2.18284e-05
2.19526e-05
0.000254781
0.000595925
0.00058963
0.00025184
2.18977e-05
2.20457e-05
0.000255527
0.000601755
0.000595579
0.000252498
2.20056e-05
2.21746e-05
0.000256122
0.000606889
0.000600856
0.000253103
2.21486e-05
2.23344e-05
0.000256662
0.000611278
0.000605358
0.000253439
2.23204e-05
2.25162e-05
0.000257065
0.000614996
0.00060895
0.000253658
2.25131e-05
2.27137e-05
0.000257337
0.000617891
0.00061147
0.000253772
2.272e-05
2.29202e-05
0.000257478
0.000620332
0.000613222
0.000253816
2.29342e-05
2.31291e-05
0.000257536
0.000621818
0.000614012
0.000253663
2.31491e-05
2.33346e-05
0.000257514
0.000622298
0.000613351
0.000253244
2.33589e-05
2.35312e-05
0.000257113
0.000621523
0.000611915
0.000252693
2.35568e-05
2.37122e-05
0.00025657
0.000619922
0.000609868
0.000252077
2.37372e-05
2.38736e-05
0.000255946
0.000617615
0.000607234
0.000251441
2.38966e-05
2.40131e-05
0.000255262
0.000614647
0.000604081
0.000250805
2.40332e-05
2.41299e-05
0.000254555
0.00061112
0.000600507
0.000250189
2.41462e-05
2.42241e-05
0.000253846
0.000607155
0.000596584
0.000249593
2.42361e-05
2.42976e-05
0.000253135
0.000602817
0.000592385
0.000249005
2.43051e-05
2.43482e-05
0.00025241
0.000598221
0.000587962
0.000248435
2.43546e-05
2.43826e-05
0.000251687
0.000593489
0.000583366
0.000247806
2.43885e-05
2.441e-05
0.000250984
0.000588781
0.000578807
0.000247192
2.44096e-05
2.44157e-05
0.000250133
0.00058399
0.000574241
0.000246532
2.44193e-05
2.44225e-05
0.000249475
0.000579366
0.000569479
0.000245686
2.4403e-05
2.44188e-05
0.000248617
0.000574565
0.000564954
0.000244979
2.44052e-05
2.43912e-05
0.000247699
0.000569757
0.000559956
0.000243953
2.43613e-05
2.43883e-05
0.000246973
0.000565046
0.000555594
0.000243189
2.43399e-05
2.43465e-05
0.000245958
0.00056032
0.000550785
0.000242348
2.43163e-05
2.43291e-05
0.000245231
0.000555722
0.000546218
0.000241371
2.42657e-05
2.42876e-05
0.000244187
0.000550972
0.00054159
0.000240571
2.42535e-05
2.42394e-05
0.000243153
0.000546162
0.000536718
0.000239431
2.41905e-05
2.42042e-05
0.000242182
0.000541491
0.000532312
0.000238503
2.4144e-05
2.41617e-05
0.000241096
0.0005369
0.000527355
0.00023755
2.41022e-05
2.41183e-05
0.000239948
0.000532592
0.000523178
0.000235708
2.39817e-05
2.41485e-05
0.000240034
0.000531201
0.000524865
0.000239741
2.40901e-05
2.44683e-05
0.000240095
0.000530369
0.000555599
0.000252471
2.46613e-05
2.62751e-05
0.0002368
0.000540324
0.000824881
0.000344087
2.9627e-05
3.198e-05
0.00017847
0.000409662
0.00101072
0.00231568
0.00432881
0.00617173
0.00743258
0.00976968
0.0112618
0.0126007
0.0133546
0.0137152
0.0136138
0.0130082
0.0121459
0.0107629
0.00940689
0.00735106
0.006423
0.00467368
0.00349673
0.00237512
0.00135004
0.000619722
0.00022605
9.38174e-05
1.81541e-05
1.17519e-05
8.66637e-05
0.000204395
0.000193252
8.25074e-05
1.12956e-05
1.08835e-05
7.96763e-05
0.000183634
0.000184018
7.86021e-05
1.07989e-05
1.07409e-05
7.8164e-05
0.000181128
0.000181245
7.73775e-05
1.06346e-05
1.06227e-05
7.73258e-05
0.000181042
0.000181529
7.73696e-05
1.06393e-05
1.06398e-05
7.74734e-05
0.000181892
0.000182191
7.76012e-05
1.06546e-05
1.06609e-05
7.77251e-05
0.000182746
0.000183016
7.78685e-05
1.06711e-05
1.06901e-05
7.80162e-05
0.000183607
0.000183918
7.81422e-05
1.06854e-05
1.07026e-05
7.82902e-05
0.000184474
0.000184774
7.83915e-05
1.071e-05
1.07281e-05
7.85614e-05
0.000185374
0.000185671
7.86498e-05
1.07276e-05
1.07321e-05
7.89144e-05
0.000186359
0.000186682
7.89858e-05
1.07564e-05
1.07646e-05
7.9242e-05
0.000187386
0.00018773
7.9341e-05
1.07776e-05
1.07828e-05
7.95652e-05
0.000188394
0.000188694
7.96336e-05
1.08073e-05
1.08099e-05
7.98543e-05
0.00018939
0.000189727
7.99706e-05
1.08192e-05
1.08235e-05
8.02334e-05
0.000190507
0.000190865
8.03481e-05
1.08507e-05
1.08569e-05
8.05978e-05
0.000191599
0.000191937
8.06989e-05
1.08675e-05
1.087e-05
8.09317e-05
0.00019266
0.000192988
8.10278e-05
1.08952e-05
1.0899e-05
8.12768e-05
0.00019373
0.000194079
8.14043e-05
1.09095e-05
1.09139e-05
8.16752e-05
0.000194884
0.000195262
8.18413e-05
1.09339e-05
1.09558e-05
8.2062e-05
0.00019609
0.0001965
8.22216e-05
1.09626e-05
1.09722e-05
8.25225e-05
0.00019732
0.000197689
8.26559e-05
1.09928e-05
1.10131e-05
8.2866e-05
0.000198479
0.000198851
8.30041e-05
1.10152e-05
1.10215e-05
8.33298e-05
0.000199712
0.000200115
8.34905e-05
1.10411e-05
1.10645e-05
8.3745e-05
0.000200981
0.000201384
8.38966e-05
1.10694e-05
1.10776e-05
8.42222e-05
0.000202229
0.000202611
8.43618e-05
1.10972e-05
1.11191e-05
8.46008e-05
0.000203427
0.000203804
8.47423e-05
1.11218e-05
1.11285e-05
8.50773e-05
0.000204675
0.000205017
8.52104e-05
1.11458e-05
1.1166e-05
8.54584e-05
0.000205855
0.000206236
8.55953e-05
1.11683e-05
1.1176e-05
8.59302e-05
0.000207049
0.000207398
8.60515e-05
1.11949e-05
1.12156e-05
8.62662e-05
0.000208168
0.000208488
8.63651e-05
1.12161e-05
1.12211e-05
8.66653e-05
0.000209264
0.000209573
8.67586e-05
1.12376e-05
1.12574e-05
8.69544e-05
0.000210294
0.000210546
8.70103e-05
1.1257e-05
1.12603e-05
8.72451e-05
0.000211179
0.000211363
8.72072e-05
1.12809e-05
1.12801e-05
8.73558e-05
0.000211891
0.000212098
8.73171e-05
1.12833e-05
1.12816e-05
8.74239e-05
0.000212522
0.000212671
8.7328e-05
1.13029e-05
1.12978e-05
8.73049e-05
0.000212957
0.000212974
8.71215e-05
1.12967e-05
1.12856e-05
8.70218e-05
0.000213123
0.000213103
8.67668e-05
1.12894e-05
1.12912e-05
8.64908e-05
0.000213139
0.000212906
8.6142e-05
1.12754e-05
1.1257e-05
8.58028e-05
0.00021279
0.000212263
8.52765e-05
1.12485e-05
1.12408e-05
8.47487e-05
0.000212047
0.000211318
8.41099e-05
1.12175e-05
1.11976e-05
8.35844e-05
0.000211162
0.000210366
8.28219e-05
1.12027e-05
1.11952e-05
8.22201e-05
0.000210269
0.000209147
8.12967e-05
1.11892e-05
1.11764e-05
8.05287e-05
0.000208878
0.000207862
7.96067e-05
1.11814e-05
1.11989e-05
7.88403e-05
0.000207904
0.000206978
7.7958e-05
1.12075e-05
1.12361e-05
7.72112e-05
0.000206989
0.00020601
7.62256e-05
1.12618e-05
1.12909e-05
7.54539e-05
0.000205852
0.000205527
7.47317e-05
1.13385e-05
1.14416e-05
7.45102e-05
0.000207151
0.000208381
7.38219e-05
1.1569e-05
1.1683e-05
7.32752e-05
0.000210506
0.000213588
7.40505e-05
1.17973e-05
1.19082e-05
7.43529e-05
0.000216287
0.000217904
7.39257e-05
1.19382e-05
1.20247e-05
7.25794e-05
0.000221195
0.000224872
7.64908e-05
1.21973e-05
1.23183e-05
7.42938e-05
0.000228104
0.000231262
7.61955e-05
1.25248e-05
1.26745e-05
7.72504e-05
0.00023707
0.000238814
7.90336e-05
1.2886e-05
1.31807e-05
8.31238e-05
0.000246233
0.000247327
8.52504e-05
1.34781e-05
1.37289e-05
8.85878e-05
0.000253463
0.000254976
9.15156e-05
1.42228e-05
1.52351e-05
0.000105422
0.000265604
0.000264061
0.000111316
1.14284e-05
8.73312e-06
2.70907e-05
7.39321e-05
0.000207433
6.42003e-05
1.0406e-05
1.09077e-05
5.77191e-05
0.000190653
0.00020066
5.99999e-05
1.1167e-05
1.13656e-05
5.65412e-05
0.000191604
0.000205575
6.06786e-05
1.16754e-05
1.19801e-05
5.9598e-05
0.00020259
0.000222954
6.77311e-05
1.23533e-05
1.28036e-05
6.75454e-05
0.000218947
0.000240432
7.91935e-05
1.33719e-05
1.41087e-05
8.1437e-05
0.000242103
0.000270767
9.87147e-05
1.55533e-05
1.19471e-05
0.000110434
0.000278565
7.494e-05
2.63996e-05
9.7001e-06
1.12723e-05
6.96368e-05
0.0002325
0.000226952
6.4931e-05
1.23084e-05
1.31161e-05
8.50846e-05
0.000280768
0.000286447
8.59396e-05
1.36302e-05
1.43821e-05
9.99501e-05
0.000318801
0.000327926
0.000106782
1.5377e-05
1.72583e-05
0.000128274
0.000358398
0.000351467
0.000139342
1.34705e-05
1.02558e-05
3.19203e-05
9.30323e-05
0.000285249
8.46464e-05
1.21007e-05
1.31136e-05
7.86995e-05
0.000279408
0.000320528
9.66904e-05
1.39772e-05
1.48996e-05
9.64224e-05
0.000315918
0.000356379
0.000121592
1.70664e-05
1.36207e-05
0.000140257
0.000357881
9.66751e-05
3.0797e-05
1.00242e-05
1.26562e-05
8.81216e-05
0.000321523
0.000332029
9.24318e-05
1.42156e-05
1.65293e-05
0.000130962
0.000427476
0.000446567
0.000153377
1.92935e-05
1.57673e-05
0.000176904
0.000450385
0.000124511
3.62398e-05
1.05966e-05
1.38897e-05
0.000118743
0.000400327
0.000397669
0.000114767
1.61527e-05
2.02165e-05
0.000169805
0.000501732
0.000509435
0.000196326
1.67025e-05
1.11077e-05
4.07135e-05
0.000154502
0.000517379
0.000152408
1.60793e-05
2.0255e-05
0.000160862
0.000556908
0.000771949
0.000271908
2.77512e-05
2.31173e-05
0.000289566
0.000741669
0.000261917
6.87686e-05
1.50648e-05
2.69409e-05
0.000282362
0.000809449
0.000811519
0.000302422
2.51476e-05
1.72318e-05
7.84467e-05
0.000320598
0.00111959
0.000372169
3.73348e-05
3.68041e-05
0.000429039
0.00121583
0.000553396
0.00015286
2.33842e-05
3.72121e-05
0.000497368
0.00144973
0.000957692
0.000317519
2.47801e-05
4.59973e-05
0.000559837
0.00112939
0.000968722
0.000468347
3.78197e-05
3.83143e-05
0.000446474
0.00106254
0.00136312
0.000492834
4.39668e-05
6.07746e-05
0.000920466
0.00227329
0.000506518
0.000157506
3.45667e-05
3.53856e-05
0.000441699
0.00101215
0.000313057
0.000111894
2.46853e-05
2.67083e-05
0.000273242
0.000656513
0.000560329
0.000201071
2.6885e-05
1.4357e-05
5.0772e-05
0.000160131
0.000376373
0.000204017
1.75764e-05
1.66352e-05
6.62558e-05
0.000171103
0.000416198
0.000180515
1.90727e-05
2.03696e-05
0.000147243
0.000377564
0.000123241
4.61079e-05
1.34984e-05
1.60178e-05
0.000145094
0.000327618
0.000300859
0.000122443
1.82954e-05
1.27091e-05
4.01278e-05
0.000101202
0.00027881
0.000124274
1.47118e-05
1.71234e-05
0.000109035
0.000256796
8.98167e-05
3.77029e-05
1.23784e-05
1.38852e-05
0.000111055
0.000246804
0.000223922
9.82157e-05
1.63786e-05
1.21446e-05
3.45872e-05
8.00965e-05
0.000218216
0.00010009
1.31203e-05
1.54655e-05
8.75062e-05
0.000198102
7.10988e-05
3.19264e-05
1.17195e-05
1.25823e-05
9.17952e-05
0.000195046
0.000174928
7.99057e-05
1.48663e-05
1.14151e-05
2.98353e-05
6.4857e-05
0.000176747
8.42211e-05
1.19903e-05
1.45293e-05
7.41346e-05
0.000160317
6.24527e-05
2.95386e-05
1.14653e-05
1.20647e-05
8.49524e-05
0.000171712
0.000146154
6.91759e-05
1.5259e-05
1.27793e-05
5.51016e-05
0.000119403
4.71315e-05
2.14513e-05
1.02019e-05
1.00409e-05
5.71279e-05
0.000116198
0.000111139
5.30616e-05
1.28919e-05
1.05927e-05
2.21084e-05
4.56925e-05
0.000111032
5.65278e-05
1.0098e-05
1.29781e-05
5.16964e-05
0.00010194
4.23318e-05
2.11105e-05
1.03012e-05
9.63409e-06
5.1169e-05
9.6099e-05
9.24514e-05
4.86816e-05
1.23669e-05
1.03276e-05
2.0702e-05
4.08034e-05
9.38632e-05
5.06034e-05
9.74878e-06
1.26199e-05
4.77719e-05
8.80281e-05
3.91927e-05
2.01683e-05
1.03702e-05
9.46855e-06
4.64176e-05
8.47758e-05
8.03245e-05
4.47294e-05
1.22976e-05
1.00631e-05
1.93214e-05
3.6266e-05
7.89731e-05
4.46569e-05
9.20181e-06
1.20039e-05
4.11296e-05
7.45624e-05
3.47665e-05
1.91143e-05
9.73744e-06
8.89599e-06
4.17078e-05
7.16602e-05
6.86928e-05
3.82925e-05
1.17989e-05
9.5526e-06
1.75583e-05
3.10985e-05
6.21192e-05
4.52741e-05
8.51634e-06
1.09783e-05
2.20513e-05
3.64014e-05
8.33147e-05
4.7764e-05
9.87624e-06
1.2492e-05
4.41696e-05
7.73777e-05
3.72356e-05
2.14378e-05
1.02793e-05
9.45375e-06
4.59316e-05
7.71496e-05
7.26095e-05
4.28861e-05
1.25859e-05
1.05159e-05
2.16462e-05
3.66413e-05
7.62439e-05
4.59542e-05
9.53486e-06
1.24545e-05
4.28487e-05
7.20156e-05
3.58003e-05
2.16955e-05
1.0361e-05
9.39178e-06
4.32971e-05
6.92821e-05
6.53447e-05
3.91989e-05
1.25016e-05
1.03856e-05
2.11664e-05
3.33407e-05
6.37615e-05
4.01787e-05
9.12493e-06
1.19697e-05
3.62823e-05
5.93621e-05
2.91424e-05
1.89612e-05
9.59019e-06
8.33064e-06
3.90144e-05
5.23621e-05
3.18023e-05
2.20591e-05
1.09174e-05
9.67237e-06
3.87891e-05
6.24619e-05
5.77776e-05
3.52845e-05
1.23156e-05
1.00674e-05
2.11369e-05
3.07532e-05
5.72036e-05
3.74084e-05
8.97649e-06
1.18885e-05
3.44301e-05
5.19291e-05
2.77167e-05
1.9747e-05
9.74537e-06
8.3659e-06
3.6668e-05
4.73004e-05
3.00515e-05
2.18563e-05
1.10319e-05
9.6337e-06
3.7571e-05
5.80529e-05
5.25944e-05
3.41665e-05
1.2244e-05
1.00788e-05
2.15128e-05
2.94396e-05
5.43124e-05
3.62279e-05
8.98632e-06
1.19285e-05
3.28716e-05
4.92549e-05
2.66948e-05
1.98775e-05
9.71316e-06
8.3864e-06
3.44522e-05
4.37568e-05
2.82531e-05
2.14902e-05
1.10655e-05
9.51618e-06
3.48912e-05
5.34137e-05
4.83433e-05
3.19882e-05
1.21603e-05
1.00258e-05
2.14018e-05
2.74161e-05
4.89007e-05
3.33423e-05
8.96334e-06
1.18903e-05
3.05471e-05
4.43583e-05
2.51922e-05
1.98938e-05
1.00935e-05
8.43247e-06
3.21127e-05
3.91342e-05
2.61175e-05
2.10149e-05
1.11638e-05
9.42101e-06
3.20448e-05
4.76248e-05
4.27297e-05
2.91504e-05
1.20094e-05
9.5561e-06
1.98603e-05
2.42947e-05
3.80609e-05
3.14232e-05
8.07226e-06
1.08995e-05
2.13108e-05
2.57594e-05
4.70861e-05
3.11208e-05
9.23585e-06
1.21824e-05
2.88379e-05
4.19798e-05
2.4753e-05
2.09126e-05
1.0119e-05
8.45916e-06
3.12872e-05
3.78841e-05
2.59528e-05
2.18917e-05
1.10768e-05
9.22537e-06
3.13951e-05
4.64611e-05
4.13294e-05
2.88661e-05
1.20968e-05
1.00563e-05
2.09086e-05
2.44485e-05
3.74926e-05
3.17221e-05
8.29789e-06
1.11281e-05
2.20707e-05
2.57887e-05
4.58022e-05
3.08318e-05
9.37098e-06
1.2233e-05
2.85642e-05
4.08431e-05
2.428e-05
2.12448e-05
9.97166e-06
8.39603e-06
3.12088e-05
3.66596e-05
2.55289e-05
2.23972e-05
1.10985e-05
9.31314e-06
3.03461e-05
4.48269e-05
4.0028e-05
2.81089e-05
1.20976e-05
1.02469e-05
2.12091e-05
2.41229e-05
3.52771e-05
3.1322e-05
8.35938e-06
1.09821e-05
2.29834e-05
2.53651e-05
3.86011e-05
2.97293e-05
8.78567e-06
1.13509e-05
2.31278e-05
2.67927e-05
4.56887e-05
3.05037e-05
9.52263e-06
1.2101e-05
2.83911e-05
4.07086e-05
2.46331e-05
2.17772e-05
9.88341e-06
8.23613e-06
3.13113e-05
3.64503e-05
2.57697e-05
2.32827e-05
1.1158e-05
9.36308e-06
3.01795e-05
4.40464e-05
3.96267e-05
2.81875e-05
1.2172e-05
1.02174e-05
2.17266e-05
2.42119e-05
3.49669e-05
3.09953e-05
8.42123e-06
1.11315e-05
2.33865e-05
2.55467e-05
3.80112e-05
2.95337e-05
8.97767e-06
1.13215e-05
2.37619e-05
2.67739e-05
4.49224e-05
3.02403e-05
9.37634e-06
1.21406e-05
2.82401e-05
3.99848e-05
2.45742e-05
2.25538e-05
9.89016e-06
8.25182e-06
3.12365e-05
3.57207e-05
2.64593e-05
2.43806e-05
1.11394e-05
8.94735e-06
3.04088e-05
3.90849e-05
2.76882e-05
2.50369e-05
1.1473e-05
9.56892e-06
3.05528e-05
4.57559e-05
4.08353e-05
2.88145e-05
1.23898e-05
1.0183e-05
2.31538e-05
2.53918e-05
3.6213e-05
3.25302e-05
8.37695e-06
1.11707e-05
2.49046e-05
2.68937e-05
3.91541e-05
3.09538e-05
8.97424e-06
1.14798e-05
2.53559e-05
2.79876e-05
4.59591e-05
3.10945e-05
9.56864e-06
1.23223e-05
2.93214e-05
4.10893e-05
2.5786e-05
2.39532e-05
1.00771e-05
8.45933e-06
3.25985e-05
3.6838e-05
2.75841e-05
2.56861e-05
1.13262e-05
9.17253e-06
3.15281e-05
3.99289e-05
2.87077e-05
2.61155e-05
1.15359e-05
9.54152e-06
3.12451e-05
4.62752e-05
4.12204e-05
2.94829e-05
1.22591e-05
9.94639e-06
2.37746e-05
2.56785e-05
3.64045e-05
3.23802e-05
8.46796e-06
1.13133e-05
2.53264e-05
2.72079e-05
3.88958e-05
3.08644e-05
9.13185e-06
1.16195e-05
2.59239e-05
2.81277e-05
4.46855e-05
3.05054e-05
9.62162e-06
1.24272e-05
2.90182e-05
3.99271e-05
2.54998e-05
2.41147e-05
1.00983e-05
8.51049e-06
3.22602e-05
3.61085e-05
2.72749e-05
2.55296e-05
1.1256e-05
8.91959e-06
3.04956e-05
3.8556e-05
2.86996e-05
2.61797e-05
1.14062e-05
9.08517e-06
3.1366e-05
4.01081e-05
2.94727e-05
2.77515e-05
1.15761e-05
9.64291e-06
3.18603e-05
4.60423e-05
4.1202e-05
3.03124e-05
1.23669e-05
1.03311e-05
2.51196e-05
2.66197e-05
3.69218e-05
3.38705e-05
8.55699e-06
1.14096e-05
2.63973e-05
2.80428e-05
3.88097e-05
3.11086e-05
9.18588e-06
1.15332e-05
2.66423e-05
2.91629e-05
4.02441e-05
3.16396e-05
9.13437e-06
1.16011e-05
2.8201e-05
2.98728e-05
4.60696e-05
3.22439e-05
9.63238e-06
1.23786e-05
3.0638e-05
4.12883e-05
2.69412e-05
2.5687e-05
1.01211e-05
8.49411e-06
3.39576e-05
3.73186e-05
2.85844e-05
2.70478e-05
1.14385e-05
9.17728e-06
3.14941e-05
3.97781e-05
3.00212e-05
2.76086e-05
1.16492e-05
9.30887e-06
3.2633e-05
4.11861e-05
3.08274e-05
2.93276e-05
1.17806e-05
9.80257e-06
3.31238e-05
4.68572e-05
4.20909e-05
3.14732e-05
1.25106e-05
1.00989e-05
2.62667e-05
2.77505e-05
3.77134e-05
3.45513e-05
8.54947e-06
1.14924e-05
2.75578e-05
2.91602e-05
3.98236e-05
3.18871e-05
9.14714e-06
1.16596e-05
2.77564e-05
3.02199e-05
4.0903e-05
3.24902e-05
9.2733e-06
1.18425e-05
2.94228e-05
3.0877e-05
4.61657e-05
3.27568e-05
9.79069e-06
1.25996e-05
3.15251e-05
4.1859e-05
2.8188e-05
2.69609e-05
1.0651e-05
8.83226e-06
3.48791e-05
3.77703e-05
2.96659e-05
2.83495e-05
1.16735e-05
9.25402e-06
3.26667e-05
4.01046e-05
3.06812e-05
2.84464e-05
1.16349e-05
9.15552e-06
3.24705e-05
4.09807e-05
3.14426e-05
2.91733e-05
1.16417e-05
9.33434e-06
3.40739e-05
4.20711e-05
3.20022e-05
3.09004e-05
1.17868e-05
9.79292e-06
3.42523e-05
4.742e-05
4.29648e-05
3.27203e-05
1.25362e-05
1.01089e-05
2.71989e-05
2.88934e-05
3.80052e-05
3.51072e-05
8.62277e-06
1.16193e-05
2.84729e-05
3.00905e-05
3.98419e-05
3.2301e-05
9.31244e-06
1.18381e-05
2.88741e-05
3.11131e-05
4.10033e-05
3.27641e-05
9.31289e-06
1.17622e-05
3.00085e-05
3.18905e-05
4.24498e-05
3.45342e-05
9.40801e-06
1.18872e-05
3.15948e-05
3.25656e-05
4.81377e-05
3.49521e-05
9.86557e-06
1.26975e-05
3.35953e-05
4.37281e-05
3.00576e-05
2.88257e-05
1.03991e-05
8.68295e-06
3.69977e-05
3.95459e-05
3.14357e-05
3.00962e-05
1.16492e-05
9.21048e-06
3.42196e-05
4.19271e-05
3.26202e-05
3.02393e-05
1.18005e-05
9.39765e-06
3.45353e-05
4.30009e-05
3.34317e-05
3.13425e-05
1.18177e-05
9.41308e-06
3.61943e-05
4.42098e-05
3.40475e-05
3.28937e-05
1.19452e-05
9.99401e-06
3.61847e-05
4.93919e-05
4.50188e-05
3.4661e-05
1.27163e-05
1.03182e-05
2.94158e-05
3.10559e-05
3.99759e-05
3.71436e-05
8.84554e-06
1.17972e-05
3.06478e-05
3.22962e-05
4.19352e-05
3.4563e-05
9.42433e-06
1.20096e-05
3.07013e-05
3.32939e-05
4.28146e-05
3.4341e-05
9.51599e-06
1.2006e-05
3.18605e-05
3.38914e-05
4.41347e-05
3.62194e-05
9.62235e-06
1.20943e-05
3.36958e-05
3.44212e-05
4.94181e-05
3.68011e-05
1.00162e-05
1.28956e-05
3.55027e-05
4.53678e-05
3.18714e-05
3.05916e-05
1.05145e-05
8.85938e-06
3.85941e-05
4.09758e-05
3.3259e-05
3.17973e-05
1.18621e-05
9.43878e-06
3.56383e-05
4.30903e-05
3.44071e-05
3.19313e-05
1.2038e-05
9.55802e-06
3.57354e-05
4.42991e-05
3.52502e-05
3.29755e-05
1.2e-05
9.61396e-06
3.75645e-05
4.5426e-05
3.56175e-05
3.45835e-05
1.20899e-05
1.00386e-05
3.75615e-05
5.0435e-05
4.61775e-05
3.62202e-05
1.29475e-05
1.04414e-05
3.09524e-05
3.25398e-05
4.08585e-05
3.86171e-05
8.94473e-06
1.19422e-05
3.21356e-05
3.36743e-05
4.22712e-05
3.53475e-05
9.48658e-06
1.21415e-05
3.22631e-05
3.45106e-05
4.33071e-05
3.53885e-05
9.63638e-06
1.20887e-05
3.33084e-05
3.52033e-05
4.45858e-05
3.70694e-05
9.62138e-06
1.20315e-05
3.4365e-05
3.61291e-05
4.62137e-05
3.86967e-05
9.61056e-06
1.21501e-05
3.609e-05
3.66727e-05
5.19388e-05
3.90672e-05
1.01121e-05
1.31328e-05
3.78453e-05
4.78469e-05
3.43982e-05
3.32983e-05
1.09322e-05
9.06306e-06
4.1267e-05
4.32793e-05
3.59188e-05
3.46814e-05
1.20983e-05
9.65034e-06
3.83884e-05
4.5555e-05
3.69873e-05
3.47788e-05
1.21972e-05
9.65939e-06
3.86734e-05
4.68688e-05
3.79097e-05
3.5708e-05
1.21012e-05
9.67619e-06
4.04215e-05
4.85124e-05
3.87113e-05
3.75691e-05
1.22531e-05
1.02484e-05
4.0667e-05
5.37758e-05
4.93155e-05
3.93003e-05
1.32718e-05
1.0877e-05
3.43454e-05
3.56238e-05
4.43054e-05
4.24186e-05
9.12224e-06
1.21946e-05
3.55856e-05
3.71453e-05
4.58038e-05
3.91698e-05
9.74407e-06
1.22984e-05
3.5341e-05
3.77877e-05
4.64718e-05
3.8695e-05
9.82812e-06
1.22531e-05
3.63135e-05
3.8365e-05
4.772e-05
4.03142e-05
9.78861e-06
1.24068e-05
3.81447e-05
3.8789e-05
5.30568e-05
4.06283e-05
1.0327e-05
1.35321e-05
3.9694e-05
4.9027e-05
3.63251e-05
3.55268e-05
1.12176e-05
9.2172e-06
4.31327e-05
4.45783e-05
3.78641e-05
3.68627e-05
1.23261e-05
9.85089e-06
4.02785e-05
4.67469e-05
3.89412e-05
3.69373e-05
1.23991e-05
9.8053e-06
4.03431e-05
4.78388e-05
3.96143e-05
3.77981e-05
1.23217e-05
9.89665e-06
4.16493e-05
4.94661e-05
4.04841e-05
3.98622e-05
1.25966e-05
1.04765e-05
4.23862e-05
5.48429e-05
5.05086e-05
4.13312e-05
1.36216e-05
1.1178e-05
3.68729e-05
3.77331e-05
4.60475e-05
4.48708e-05
9.30488e-06
1.23699e-05
3.78752e-05
3.92361e-05
4.74858e-05
4.11764e-05
9.88669e-06
1.25538e-05
3.78446e-05
3.99726e-05
4.82198e-05
4.09912e-05
9.94112e-06
1.25937e-05
3.89702e-05
4.06386e-05
4.95596e-05
4.24107e-05
1.00256e-05
1.28751e-05
4.11357e-05
4.1194e-05
5.50441e-05
4.31092e-05
1.07797e-05
1.4063e-05
4.23913e-05
5.1082e-05
3.91081e-05
3.88601e-05
1.15361e-05
9.62648e-06
4.61934e-05
4.73612e-05
4.07457e-05
4.00211e-05
1.26059e-05
1.00508e-05
4.38051e-05
4.96305e-05
4.19262e-05
4.02271e-05
1.27915e-05
1.00599e-05
4.37105e-05
5.1078e-05
4.24874e-05
4.18641e-05
1.30079e-05
1.0921e-05
4.37527e-05
5.5966e-05
5.17287e-05
4.30062e-05
1.43356e-05
1.15576e-05
3.91095e-05
3.96593e-05
4.70818e-05
4.6285e-05
9.69083e-06
1.2832e-05
4.0331e-05
4.11289e-05
4.87177e-05
4.35026e-05
1.02365e-05
1.30331e-05
4.04161e-05
4.19074e-05
4.9951e-05
4.29682e-05
1.02888e-05
1.33445e-05
4.25236e-05
4.24753e-05
5.49124e-05
4.38447e-05
1.10523e-05
1.45593e-05
4.34962e-05
5.1181e-05
4.0461e-05
4.05304e-05
1.20426e-05
9.8335e-06
4.73244e-05
4.76227e-05
4.19408e-05
4.16928e-05
1.30188e-05
1.02675e-05
4.40408e-05
4.99012e-05
4.31826e-05
4.21627e-05
1.32907e-05
1.05352e-05
4.47169e-05
5.13595e-05
4.38282e-05
4.39225e-05
1.35101e-05
1.11768e-05
4.49172e-05
5.596e-05
5.21695e-05
4.46045e-05
1.48438e-05
1.18346e-05
4.11601e-05
4.15328e-05
4.76946e-05
4.78714e-05
9.84907e-06
1.32614e-05
4.25931e-05
4.2927e-05
4.97931e-05
4.50215e-05
1.05215e-05
1.34603e-05
4.28865e-05
4.37078e-05
5.12814e-05
4.46698e-05
1.0627e-05
1.3887e-05
4.52197e-05
4.44675e-05
5.65407e-05
4.59313e-05
1.15642e-05
1.52239e-05
4.58106e-05
5.29172e-05
4.28879e-05
4.34613e-05
1.22459e-05
1.01198e-05
4.98936e-05
4.97219e-05
4.46011e-05
4.5011e-05
1.36277e-05
1.08248e-05
4.74077e-05
5.23671e-05
4.59704e-05
4.54337e-05
1.39469e-05
1.10927e-05
4.71092e-05
5.41916e-05
4.7072e-05
4.78396e-05
1.44141e-05
1.19763e-05
4.84983e-05
5.93468e-05
5.56139e-05
4.84749e-05
1.58379e-05
1.28042e-05
4.57516e-05
4.55376e-05
5.18814e-05
5.2325e-05
1.05306e-05
1.40072e-05
4.71725e-05
4.6914e-05
5.4393e-05
4.91896e-05
1.11715e-05
1.47066e-05
4.87815e-05
4.79072e-05
5.92848e-05
4.87875e-05
1.22311e-05
1.6098e-05
4.84512e-05
5.58291e-05
4.59243e-05
4.67582e-05
1.30585e-05
1.06894e-05
5.26923e-05
5.2169e-05
4.78902e-05
4.85551e-05
1.44129e-05
1.14813e-05
5.04375e-05
5.53254e-05
4.93161e-05
4.94136e-05
1.48619e-05
1.18159e-05
5.05187e-05
5.76303e-05
5.08274e-05
5.2314e-05
1.542e-05
1.28332e-05
5.25617e-05
6.34158e-05
5.95023e-05
5.2759e-05
1.69815e-05
1.39056e-05
5.09529e-05
4.99213e-05
5.64753e-05
5.73943e-05
1.12432e-05
1.50901e-05
5.24275e-05
5.17112e-05
5.95491e-05
5.4004e-05
1.20747e-05
1.58834e-05
5.43325e-05
5.29271e-05
6.51158e-05
5.40223e-05
1.29763e-05
1.73466e-05
5.42321e-05
6.15593e-05
5.20216e-05
5.34007e-05
1.46058e-05
1.19909e-05
5.87784e-05
5.84382e-05
5.37417e-05
5.52628e-05
1.59502e-05
1.27801e-05
5.63509e-05
6.2018e-05
5.54839e-05
5.75176e-05
1.67912e-05
1.3999e-05
5.68004e-05
6.79463e-05
6.42128e-05
5.71517e-05
1.85172e-05
1.51457e-05
5.60307e-05
5.46617e-05
6.13876e-05
6.17719e-05
1.22695e-05
1.67205e-05
5.88615e-05
5.6344e-05
6.77736e-05
5.77319e-05
1.39424e-05
1.86328e-05
5.77417e-05
6.45474e-05
5.49777e-05
5.57728e-05
1.51718e-05
1.21152e-05
6.2447e-05
6.12358e-05
5.66211e-05
5.76501e-05
1.65199e-05
1.32366e-05
5.82387e-05
6.39742e-05
5.78849e-05
5.99517e-05
1.75818e-05
1.46391e-05
5.85814e-05
6.94251e-05
6.60942e-05
5.94218e-05
1.94744e-05
1.59233e-05
5.89099e-05
5.73941e-05
6.3233e-05
6.36797e-05
1.3092e-05
1.7746e-05
6.22147e-05
5.8974e-05
6.94874e-05
6.02958e-05
1.48805e-05
1.98729e-05
6.05152e-05
6.64513e-05
5.83202e-05
6.01171e-05
1.63771e-05
1.32504e-05
6.4831e-05
6.39744e-05
5.95168e-05
6.29331e-05
1.786e-05
1.45984e-05
6.05557e-05
6.99703e-05
6.70646e-05
6.11656e-05
1.99493e-05
1.67062e-05
6.06043e-05
5.89483e-05
6.44473e-05
6.4789e-05
1.36683e-05
1.86212e-05
6.42985e-05
6.05851e-05
7.01961e-05
6.15403e-05
1.54447e-05
2.08294e-05
6.21277e-05
6.73949e-05
6.01918e-05
6.24603e-05
1.70747e-05
1.38828e-05
6.62668e-05
6.51719e-05
6.16925e-05
6.56981e-05
1.88119e-05
1.55469e-05
6.27234e-05
7.14285e-05
6.86008e-05
6.31692e-05
2.09361e-05
1.7198e-05
6.32623e-05
6.11674e-05
6.63944e-05
6.83725e-05
1.34677e-05
1.87903e-05
6.66707e-05
6.2676e-05
7.21811e-05
6.30989e-05
1.58703e-05
2.16682e-05
6.39005e-05
6.94475e-05
6.29129e-05
6.62994e-05
1.82145e-05
1.48129e-05
6.88096e-05
6.80708e-05
6.4879e-05
7.04003e-05
2.01098e-05
1.67308e-05
6.65513e-05
7.49669e-05
7.2233e-05
6.74242e-05
2.24468e-05
1.85282e-05
6.91209e-05
6.58464e-05
7.09443e-05
7.20539e-05
1.50454e-05
2.04802e-05
7.34663e-05
6.78084e-05
7.86034e-05
7.00296e-05
1.68865e-05
2.24851e-05
6.99337e-05
7.57667e-05
6.8804e-05
7.47919e-05
1.9627e-05
1.69235e-05
7.43346e-05
7.76953e-05
7.52521e-05
7.41142e-05
2.35124e-05
2.00443e-05
7.40589e-05
7.00683e-05
7.5908e-05
7.63723e-05
1.63624e-05