/*--------------------------------*- C++ -*----------------------------------*\
| =========                 |                                                 |
| \\      /  F ield         | OpenFOAM: The Open Source CFD Toolbox           |
|  \\    /   O peration     | Version:  v2006                                 |
|   \\  /    A nd           | Website:  www.openfoam.com                      |
|    \\/     M anipulation  |                                                 |
\*---------------------------------------------------------------------------*/
FoamFile
{
    version     2.0;
    format      ascii;
    class       volScalarField;
    location    "0.155";
    object      yPlus;
}
// * * * * * * * * * * * * * * * * * * * * * * * * * * * * * * * * * * * * * //

dimensions      [0 0 0 0 0 0 0];


internalField   uniform 0;

boundaryField
{
    bottomEmptyFaces
    {
        type            empty;
    }
    topEmptyFaces
    {
        type            empty;
    }
    inlet
    {
        type            calculated;
        value           uniform 0;
    }
    outlet
    {
        type            calculated;
        value           uniform 0;
    }
    walls
    {
        type            calculated;
        value           nonuniform List<scalar> 
1055
(
30.3805
29.6434
28.9662
28.343
27.7814
27.2774
26.8302
26.4258
26.0612
25.7315
25.4388
25.1786
24.9534
24.7592
24.5964
24.457
24.3398
24.238
24.1527
24.0788
24.0195
23.9701
23.9326
23.9021
23.8799
23.8627
23.8514
23.8435
23.839
23.8353
23.8349
23.8339
23.8356
23.8376
23.8402
23.8442
23.848
23.8527
23.8561
23.8598
23.8617
23.8641
23.8638
23.8646
23.8622
23.8616
23.8575
23.8557
23.8506
23.848
23.842
23.8382
23.8315
23.8267
23.8191
23.8135
23.8056
23.7995
23.7914
23.785
23.7769
23.7706
23.7622
23.7555
23.747
23.7402
23.7317
23.725
23.7164
23.7098
23.7013
23.6949
23.6867
23.6807
23.6728
23.6672
23.6596
23.6545
23.6476
23.643
23.6366
23.6327
23.6269
23.6238
23.6185
23.6163
23.6117
23.6102
23.6065
23.6056
23.6029
23.6026
23.6009
23.6011
23.6005
23.6012
23.6017
23.603
23.6045
23.6063
23.6086
23.6111
23.6139
23.6173
23.6206
23.6248
23.6285
23.6333
23.6376
23.643
23.6477
23.6535
23.6586
23.6649
23.6704
23.6771
23.6829
23.6899
23.696
23.7034
23.7098
23.7174
23.724
23.7319
23.7388
23.7469
23.7541
23.7624
23.7697
23.7782
23.7857
23.7944
23.8021
23.8109
23.8187
23.8276
23.8356
23.8445
23.8526
23.8616
23.8697
23.8787
23.8869
23.8959
23.9041
23.9132
23.9214
23.9304
23.9386
23.9475
23.9557
23.9647
23.9729
23.9818
23.9899
23.9988
24.0069
24.0158
24.0239
24.0328
24.0408
24.0497
24.0578
24.0667
24.0747
24.0836
24.0916
24.1006
24.1086
24.1176
24.1256
24.1347
24.1426
24.1516
24.1594
24.1684
24.176
24.1849
24.1923
24.2011
24.2082
24.2251
24.2241
24.2247
24.2391
24.2484
24.2539
24.28
24.289
24.3167
24.2761
24.2161
23.9995
24.1585
24.568
8.42102
7.24969
6.58088
11.3827
10.6172
9.64982
7.9808
18.262
13.3597
11.5845
11.4903
12.7334
9.32585
7.89748
12.4797
11.385
13.6571
13.6332
10.7056
9.17059
9.75026
9.60431
8.52847
7.36131
10.208
9.95678
8.87608
7.52499
9.16364
7.64441
8.64323
7.42173
9.53108
10.0667
8.51301
7.35739
8.34413
7.26241
8.35421
7.17847
6.4334
10.4464
10.9367
9.7354
10.6161
9.49054
10.4051
9.21339
9.95978
9.26165
10.1279
10.1265
10.5473
9.32651
10.2199
11.5575
8.40369
8.77936
8.98564
9.7294
10.3265
10.775
11.8761
8.5938
9.02901
9.59107
10.3906
8.35329
9.00831
10.0145
7.31505
7.59667
8.80622
9.07448
10.1737
7.41681
7.73553
8.02156
8.4936
9.16454
9.53135
8.16274
8.71968
8.41534
9.13273
8.67402
9.39777
8.3338
8.9085
10.7604
9.39577
9.77634
7.75055
8.14154
10.5558
7.65922
8.048
10.4336
9.09895
9.40691
8.30199
9.02026
7.9686
8.5485
7.55786
7.93723
9.87961
10.2901
11.3886
8.2752
8.70049
8.86433
9.74482
11.0352
7.95026
8.32373
8.6642
9.27558
9.13383
9.95277
9.64393
10.1004
8.97055
9.73552
8.64587
9.53707
8.53684
9.20453
9.45923
9.83409
10.8757
8.00558
8.3462
8.6719
9.40998
9.13863
9.98247
8.82024
9.58897
8.67274
9.10011
7.85934
7.67125
7.32778
7.04161
9.56473
7.44267
7.88019
8.34233
8.52138
9.45345
7.00029
7.24321
8.37965
8.58467
9.71692
7.09412
7.39465
7.60381
8.04774
8.15475
8.25992
7.03015
7.25086
7.9974
8.01278
7.80149
7.77127
9.17064
6.88971
7.05876
9.22802
7.88615
7.95352
6.84617
7.06742
9.06071
7.33793
7.02555
9.00078
7.81128
7.77193
8.67683
6.69445
6.76196
7.81731
7.72545
6.66489
6.68217
6.64314
6.76448
9.24513
7.96572
8.04925
9.31161
6.93324
7.11059
6.88075
7.13956
8.9687
8.84115
7.40933
6.96094
8.34038
6.96779
6.51852
8.29993
7.15274
6.53038
8.50736
7.09502
6.5546
8.41772
7.041
6.54775
8.03308
6.37588
6.19334
8.2258
6.77419
6.37066
7.74819
7.34621
8.40575
7.70849
7.4805
6.47034
6.42804
8.79769
8.71285
7.30724
6.91659
7.44407
6.99993
7.11956
6.84316
8.9393
7.19482
6.90505
8.54969
6.61962
6.64893
8.73124
8.9539
10.07
7.38594
7.67781
9.90593
7.20962
7.53172
8.58654
8.83085
7.77207
8.2744
7.86931
8.34851
8.71877
9.03847
8.04248
8.56853
13.2268
11.3563
8.65277
11.2578
8.336
11.6905
9.74575
7.04831
10.6844
10.351
7.15089
12.2518
9.97823
26.1747
24.6561
8.24152
8.75853
6.07889
25.2728
21.2119
21.2303
20.3972
10.3444
20.1455
8.85669
25.42
7.74348
20.6759
8.90211
6.08487
20.134
21.4375
20.8993
10.6883
9.55712
8.42385
7.44319
8.25183
5.92236
28.0643
26.4973
21.8384
21.3846
22.1084
21.5485
25.0756
22.0081
20.8812
27.1478
23.3302
22.4346
9.95556
8.99981
8.47812
7.99724
7.34491
8.54233
6.10591
10.5202
9.67401
9.1066
8.61691
8.23108
7.66823
6.93605
7.84386
5.7655
9.68517
8.94331
8.49389
8.10952
7.79526
7.50724
7.26556
7.04666
6.91852
6.77301
6.41374
7.75794
5.34081
9.80012
9.27898
8.97714
8.8076
8.60444
13.9722
8.38154
8.20732
8.06947
7.9181
7.82287
10.9727
12.0153
7.67962
12.0629
12.5084
10.3953
11.2219
13.4645
11.6621
12.1864
9.70485
10.2607
10.6788
11.7118
7.58744
7.54758
7.42983
7.30939
7.2127
7.1222
7.04778
6.99623
14.7095
10.5163
11.1026
12.6029
13.1695
11.6023
12.7241
6.95537
6.91971
6.88606
6.86167
6.83737
6.81934
6.80852
6.79703
13.5552
14.1568
12.3664
13.4552
6.78777
6.77578
6.77243
6.7711
6.76642
6.7623
6.76153
6.7595
13.8087
14.2555
13.2168
14.3472
12.5695
13.565
16.0894
11.6243
12.2831
6.75312
15.7891
6.74679
6.74533
11.3636
12.0026
6.74075
6.73773
12.3
13.1821
6.72695
6.72282
6.71695
15.2219
11.8109
12.897
13.0795
13.5976
11.8228
12.7928
10.9781
11.5693
11.3864
12.2843
11.2881
12.3031
12.1863
12.6653
11.0798
12.1938
14.1179
10.1724
10.7052
10.8937
11.7608
14.445
11.159
12.0727
10.443
11.0414
12.4019
12.9338
10.7926
11.661
10.1598
10.687
19.2099
14.3663
14.9437
6.71272
6.70241
6.69728
6.69294
20.6892
6.6828
6.67359
6.66762
20.0044
6.66282
14.5164
15.4464
17.3216
17.3774
19.8342
16.8724
17.2431
14.6116
15.3271
16.7122
16.9843
6.65241
6.64268
6.63623
6.63128
6.62113
6.61178
6.60553
6.60019
6.58955
6.57971
6.57331
6.5677
6.55678
6.54676
6.54073
15.4345
6.53573
15.7262
16.255
16.7841
14.4237
15.4054
18.2127
13.1219
13.9302
6.52556
6.51565
6.50916
6.50338
6.49317
6.48327
6.47808
6.47077
17.4776
13.9935
14.9598
12.9027
13.6413
13.3592
14.2867
17.1031
14.6329
15.1876
12.2512
13.0397
14.8295
15.4626
18.3919
15.7111
16.2038
13.3019
14.0607
19.2342
19.0445
13.9652
14.6126
16.2817
16.4944
16.1359
16.6038
6.46575
14.1239
6.45458
14.8806
6.45031
6.44368
6.43856
6.42685
6.42187
6.41513
21.3894
6.41072
6.39984
15.9087
16.6079
6.39504
6.38807
6.38276
6.37214
6.36729
22.1963
6.36384
21.9026
18.1113
17.8865
18.7209
18.904
19.8206
19.9264
23.5249
6.35533
18.8577
6.3501
18.6924
6.34206
6.34069
6.33254
22.7698
6.32682
6.32213
18.772
18.4617
6.31543
22.9841
17.911
18.4476
16.8381
17.4097
18.0684
18.3388
15.5297
16.1912
6.31389
6.30794
6.31216
6.3751
6.41503
6.50391
6.75686
7.10682
29.381
25.9932
30.2237
23.7354
22.0895
29.8647
27.1272
26.9144
23.2774
22.1696
9.90758
10.7618
33.4193
32.0451
30.8879
32.9372
25.5499
23.4476
31.0961
26.7402
25.5087
23.0706
12.5329
30.5088
9.97983
10.9159
10.8439
11.2651
29.0762
35.6405
27.6181
25.5772
10.2483
11.2089
10.0383
11.0084
35.7437
12.8059
11.1216
11.5907
9.28086
9.75262
36.344
9.79564
10.5764
9.12981
9.58932
36.8268
36.7529
36.8585
36.5515
35.8085
13.1639
34.8774
10.7531
11.7098
10.4471
11.4956
10.2471
11.0573
9.52046
10.0401
10.4175
11.3919
11.3361
11.7792
10.2193
11.1368
33.9189
32.9647
32.0447
31.1809
9.61026
10.5512
11.9898
8.69086
9.06725
9.31834
10.072
9.78971
10.7344
25.0505
7.58116
36.471
33.1928
31.0012
29.531
28.4213
27.3887
26.6569
25.9466
25.5498
25.0744
24.7908
24.4221
24.2085
23.9079
23.7399
23.4854
23.3472
23.1238
23.0058
22.8044
22.7008
22.5154
22.4219
22.2482
22.162
21.9971
21.9162
21.7582
21.6813
21.5286
21.4547
21.3063
21.2346
21.0896
21.0196
20.8774
20.8086
20.6687
20.6008
20.4626
20.3953
20.2584
20.1915
20.0554
19.9886
19.8529
19.7858
19.6501
19.5826
19.4465
19.3781
19.2413
19.1719
19.0339
18.9634
18.8238
18.7519
18.6105
18.5369
18.3934
18.3181
18.1723
18.0951
17.9467
17.8676
17.7165
17.6355
17.4817
17.3989
17.2424
17.1581
16.9989
16.9133
16.7517
16.6652
16.5017
16.415
16.2502
16.164
15.9988
15.9142
15.7498
15.6682
15.5061
15.4292
15.2713
15.2012
15.0498
14.9892
14.8466
14.799
14.669
14.636
14.5254
14.507
14.4189
14.4165
14.3585
14.3688
14.3438
14.3667
14.3592
14.4109
14.4187
14.4977
14.5216
14.6234
14.6591
14.7763
14.8204
14.9482
14.9985
15.1338
15.1882
15.3276
15.3835
15.5231
15.5786
15.7154
15.7688
15.8999
15.9498
16.0727
16.1181
16.2309
16.2712
16.3725
16.4067
16.4952
16.523
16.5984
16.6198
16.6825
16.6977
16.7486
16.7583
16.7985
16.8032
16.8345
16.8349
16.8571
16.8555
16.8698
16.8654
16.8774
16.8697
16.8741
16.8677
16.8721
16.8557
16.8629
16.8504
16.8464
16.8253
16.8382
16.8102
16.8123
16.7933
16.8004
16.7667
16.7749
16.7552
16.7509
16.7243
16.7314
16.701
16.7061
16.6807
16.6869
16.6343
16.7153
16.7475
16.941
17.226
18.275
20.9105
18.9404
39.9396
)
;
    }
    rightWall
    {
        type            calculated;
        value           uniform 0;
    }
    symmetryLine
    {
        type            symmetryPlane;
    }
}


// ************************************************************************* //
