/*--------------------------------*- C++ -*----------------------------------*\
| =========                 |                                                 |
| \\      /  F ield         | OpenFOAM: The Open Source CFD Toolbox           |
|  \\    /   O peration     | Version:  v2006                                 |
|   \\  /    A nd           | Website:  www.openfoam.com                      |
|    \\/     M anipulation  |                                                 |
\*---------------------------------------------------------------------------*/
FoamFile
{
    version     2.0;
    format      ascii;
    class       volScalarField;
    location    "0.026";
    object      rho;
}
// * * * * * * * * * * * * * * * * * * * * * * * * * * * * * * * * * * * * * //

dimensions      [1 -3 0 0 0 0 0];


internalField   nonuniform List<scalar> 
24416
(
1.69736
1.69734
1.69774
1.69774
1.69774
1.69775
1.69775
1.69775
1.69776
1.69776
1.69777
1.69777
1.69778
1.69778
1.69779
1.69779
1.69779
1.69779
1.69779
1.69779
1.6978
1.69784
1.69791
1.69798
1.69806
1.69815
1.69825
1.69834
1.69844
1.69854
1.69864
1.69874
1.69884
1.69895
1.69905
1.69916
1.69927
1.69938
1.6995
1.69961
1.69973
1.69985
1.69997
1.70009
1.70021
1.70033
1.70045
1.70058
1.7007
1.70083
1.70095
1.70108
1.7012
1.70133
1.70145
1.70158
1.7017
1.70183
1.70195
1.70208
1.7022
1.70233
1.70245
1.70257
1.70269
1.70281
1.70293
1.70305
1.70316
1.70328
1.70339
1.7035
1.70361
1.70372
1.70382
1.70393
1.70403
1.70413
1.70423
1.70432
1.70442
1.70451
1.7046
1.70469
1.70477
1.70486
1.70495
1.70504
1.70512
1.70519
1.70525
1.70528
1.7053
1.70529
1.70527
1.70526
1.70524
1.70523
1.70521
1.7052
1.70519
1.70523
1.70525
1.70539
1.70553
1.70567
1.706
1.7066
1.70693
1.70672
1.70613
1.70674
1.70679
1.70675
1.70655
1.70577
1.7054
1.70633
1.70662
1.70646
1.70612
1.70511
1.70486
1.70592
1.70629
1.70612
1.70572
1.70467
1.70451
1.70555
1.70597
1.70582
1.70538
1.70437
1.70425
1.70526
1.7057
1.70557
1.70512
1.70414
1.70405
1.70501
1.70546
1.70534
1.7049
1.70398
1.70391
1.7048
1.70525
1.70515
1.70471
1.70386
1.70382
1.70464
1.70507
1.70499
1.70456
1.70377
1.70374
1.7045
1.70492
1.70485
1.70444
1.70371
1.7037
1.70439
1.7048
1.70474
1.70434
1.70368
1.70367
1.70431
1.7047
1.70465
1.70427
1.70366
1.70365
1.70424
1.70462
1.70458
1.70422
1.70365
1.70365
1.7042
1.70456
1.70453
1.70418
1.70366
1.70366
1.70417
1.70451
1.70449
1.70416
1.70367
1.70369
1.70415
1.70448
1.70447
1.70415
1.7037
1.70372
1.70415
1.70446
1.70446
1.70416
1.70374
1.70376
1.70416
1.70446
1.70447
1.70417
1.70379
1.70381
1.70419
1.70447
1.70448
1.7042
1.70384
1.70387
1.70422
1.70449
1.70451
1.70424
1.7039
1.70394
1.70426
1.70453
1.70455
1.70429
1.70397
1.70401
1.70432
1.70457
1.70459
1.70435
1.70405
1.70409
1.70438
1.70462
1.70465
1.70441
1.70413
1.70417
1.70444
1.70467
1.70471
1.70448
1.70421
1.70425
1.70451
1.70474
1.70478
1.70456
1.7043
1.70434
1.70459
1.70481
1.70485
1.70464
1.70439
1.70444
1.70468
1.70489
1.70493
1.70473
1.7045
1.70455
1.70477
1.70497
1.70502
1.70482
1.7046
1.70466
1.70487
1.70506
1.70512
1.70492
1.70472
1.70478
1.70497
1.70516
1.70522
1.70503
1.70484
1.7049
1.70509
1.70527
1.70533
1.70515
1.70497
1.70503
1.70521
1.70538
1.70545
1.70528
1.70511
1.70518
1.70534
1.7055
1.70557
1.70541
1.70525
1.70533
1.70548
1.70563
1.70571
1.70555
1.70541
1.70548
1.70562
1.70577
1.70585
1.7057
1.70557
1.70565
1.70577
1.70592
1.706
1.70586
1.70573
1.70582
1.70593
1.70607
1.70616
1.70602
1.70591
1.70599
1.7061
1.70623
1.70632
1.7062
1.70609
1.70618
1.70628
1.7064
1.7065
1.70638
1.70628
1.70637
1.70646
1.70658
1.70668
1.70656
1.70647
1.70656
1.70665
1.70676
1.70686
1.70676
1.70667
1.70677
1.70685
1.70695
1.70706
1.70696
1.70688
1.70698
1.70705
1.70715
1.70726
1.70717
1.7071
1.7072
1.70727
1.70736
1.70748
1.70738
1.70733
1.70743
1.70749
1.70757
1.7077
1.70761
1.70756
1.70767
1.70772
1.7078
1.70792
1.70785
1.7078
1.70792
1.70796
1.70803
1.70816
1.70809
1.70805
1.70817
1.7082
1.70827
1.70841
1.70834
1.70832
1.70844
1.70846
1.70852
1.70866
1.7086
1.70859
1.70871
1.70873
1.70878
1.70893
1.70888
1.70887
1.709
1.709
1.70905
1.70921
1.70916
1.70916
1.70929
1.70929
1.70933
1.70949
1.70945
1.70946
1.7096
1.70959
1.70962
1.70979
1.70975
1.70977
1.70991
1.70989
1.70992
1.71009
1.71006
1.71008
1.71023
1.71021
1.71023
1.71041
1.71039
1.71041
1.71057
1.71054
1.71055
1.71073
1.71072
1.71076
1.71091
1.71087
1.71089
1.71107
1.71106
1.71111
1.71127
1.71122
1.71123
1.71142
1.71142
1.71147
1.71164
1.71158
1.71158
1.71178
1.71178
1.71184
1.71202
1.71195
1.71195
1.71215
1.71216
1.71223
1.71241
1.71234
1.71233
1.71254
1.71255
1.71263
1.71281
1.71273
1.71271
1.71293
1.71295
1.71304
1.71323
1.71314
1.71312
1.71334
1.71337
1.71346
1.71366
1.71356
1.71353
1.71376
1.7138
1.7139
1.7141
1.714
1.71395
1.71419
1.71424
1.71434
1.71455
1.71444
1.71439
1.71464
1.71469
1.7148
1.71502
1.7149
1.71485
1.7151
1.71516
1.71528
1.7155
1.71537
1.71531
1.71557
1.71563
1.71577
1.71599
1.71586
1.71579
1.71606
1.71613
1.71627
1.7165
1.71636
1.71628
1.71656
1.71663
1.71678
1.71702
1.71687
1.71679
1.71707
1.71715
1.71731
1.71755
1.71739
1.7173
1.71759
1.71769
1.71785
1.7181
1.71793
1.71784
1.71813
1.71823
1.7184
1.71866
1.71849
1.71838
1.71868
1.71879
1.71897
1.71924
1.71905
1.71894
1.71925
1.71936
1.71955
1.71983
1.71963
1.71951
1.71983
1.71995
1.72015
1.72043
1.72023
1.7201
1.72042
1.72055
1.72075
1.72104
1.72083
1.7207
1.72103
1.72116
1.72136
1.72165
1.72145
1.7213
1.72164
1.72178
1.72198
1.72228
1.72207
1.72192
1.72226
1.72241
1.72261
1.72291
1.7227
1.72255
1.72289
1.72304
1.72325
1.72356
1.72334
1.72319
1.72353
1.72369
1.7239
1.72421
1.72399
1.72383
1.72418
1.72434
1.72455
1.72487
1.72465
1.72448
1.72484
1.725
1.72521
1.72553
1.72531
1.72514
1.7255
1.72566
1.72588
1.72621
1.72598
1.72581
1.72616
1.72634
1.72655
1.72688
1.72666
1.72648
1.72683
1.72701
1.72723
1.72756
1.72734
1.72715
1.72751
1.72769
1.7279
1.72824
1.72802
1.72783
1.72819
1.72837
1.72859
1.72892
1.72871
1.72852
1.72887
1.72905
1.72927
1.72961
1.7294
1.7292
1.72955
1.72974
1.72993
1.73028
1.73007
1.72987
1.73022
1.73043
1.73066
1.73097
1.73078
1.73055
1.73089
1.73106
1.73105
1.73105
1.73125
1.73118
1.73136
1.73136
1.73107
1.7311
1.73139
1.73147
1.73159
1.73144
1.73118
1.73129
1.73155
1.73174
1.73184
1.73164
1.73139
1.73148
1.73172
1.73192
1.73199
1.73178
1.73151
1.73157
1.73185
1.73208
1.73211
1.73185
1.73156
1.7316
1.73187
1.73214
1.73203
1.73177
1.73154
1.73157
1.73173
1.73196
1.73177
1.73157
1.73145
1.73146
1.73152
1.73168
1.73146
1.73133
1.73129
1.73129
1.7313
1.73141
1.7312
1.73111
1.73111
1.73112
1.73112
1.7312
1.73099
1.73091
1.73092
1.73095
1.73094
1.73102
1.73082
1.73074
1.73074
1.73079
1.73079
1.73087
1.73068
1.7306
1.73059
1.73066
1.73067
1.73075
1.73058
1.7305
1.73049
1.73057
1.73059
1.73067
1.73055
1.73047
1.73044
1.73053
1.73057
1.73065
1.73055
1.73046
1.73042
1.7305
1.73055
1.73064
1.73053
1.73044
1.73041
1.73046
1.73052
1.73061
1.73049
1.73041
1.73038
1.73042
1.73047
1.73055
1.73044
1.73038
1.73035
1.73038
1.7304
1.73046
1.73037
1.73033
1.73031
1.73031
1.73032
1.73036
1.73029
1.73027
1.73027
1.73025
1.73025
1.73027
1.73022
1.73021
1.73022
1.7302
1.73019
1.7302
1.73016
1.73017
1.73018
1.73015
1.73014
1.73014
1.73011
1.73012
1.73014
1.73011
1.7301
1.73009
1.73007
1.73008
1.7301
1.73007
1.73006
1.73005
1.73003
1.73004
1.73006
1.73004
1.73002
1.73002
1.73
1.73001
1.73002
1.73001
1.73
1.72999
1.72998
1.72998
1.72999
1.72998
1.72997
1.72997
1.72996
1.72996
1.72997
1.72994
1.72995
1.72994
1.72994
1.72995
1.72995
1.72994
1.72994
1.72993
1.72993
1.72993
1.72995
1.73
1.73024
1.73043
1.73078
1.73107
1.73147
1.73177
1.73212
1.73235
1.73258
1.73273
1.73288
1.73296
1.73306
1.73312
1.7332
1.73326
1.73334
1.7334
1.73348
1.73355
1.73364
1.73371
1.73379
1.73386
1.73395
1.73402
1.7341
1.73417
1.73425
1.73431
1.73439
1.73445
1.73452
1.73457
1.73464
1.73469
1.73473
1.73472
1.73473
1.7348
1.73488
1.73492
1.73493
1.73492
1.7349
1.73502
1.73505
1.73507
1.73518
1.73515
1.73509
1.73521
1.73528
1.73532
1.73545
1.7354
1.73531
1.73548
1.73557
1.73562
1.73577
1.73572
1.73562
1.73577
1.73587
1.73592
1.73607
1.73602
1.73593
1.73608
1.73617
1.73622
1.73636
1.73631
1.73621
1.73635
1.73644
1.73649
1.73663
1.73658
1.73649
1.73663
1.73672
1.73677
1.7369
1.73685
1.73676
1.7369
1.73699
1.73704
1.73717
1.73712
1.73704
1.73718
1.73727
1.73731
1.73744
1.7374
1.73731
1.73745
1.73753
1.73758
1.73772
1.73767
1.73759
1.73773
1.73782
1.73787
1.738
1.73796
1.73787
1.73801
1.7381
1.73814
1.73829
1.73825
1.73816
1.73831
1.7384
1.73844
1.73858
1.73854
1.73846
1.73861
1.73869
1.73873
1.73888
1.73885
1.73876
1.73892
1.73901
1.73905
1.7392
1.73916
1.73908
1.73923
1.73932
1.73935
1.73952
1.73948
1.7394
1.73957
1.73965
1.73969
1.73985
1.73982
1.73974
1.7399
1.73998
1.74002
1.74019
1.74016
1.74008
1.74026
1.74034
1.74037
1.74055
1.74052
1.74044
1.74062
1.74069
1.74072
1.74091
1.74088
1.74081
1.741
1.74107
1.7411
1.74128
1.74126
1.74118
1.74137
1.74144
1.74147
1.74167
1.74165
1.74157
1.74177
1.74185
1.74187
1.74205
1.74203
1.74194
1.74216
1.74225
1.74227
1.74255
1.74253
1.74243
1.74279
1.74288
1.7429
1.74325
1.74324
1.74313
1.7435
1.74361
1.74362
1.74399
1.74398
1.74381
1.74408
1.74435
1.74437
1.74475
1.7447
1.74425
1.74445
1.74513
1.74519
1.74563
1.74558
1.74476
1.74389
1.74558
1.74604
1.7461
1.74616
1.74637
1.74649
1.74654
1.74647
1.74679
1.74688
1.7469
1.74731
1.74725
1.74702
1.74729
1.74755
1.74775
1.74826
1.74797
1.74758
1.7478
1.74833
1.74865
1.74899
1.74854
1.7478
1.74791
1.74875
1.74933
1.74964
1.74895
1.74816
1.74786
1.74875
1.74965
1.74947
1.74821
1.7473
1.74627
1.74731
1.74906
1.74828
1.74617
1.74539
1.74291
1.74414
1.74692
1.74469
1.74214
1.74192
1.73932
1.73938
1.7418
1.73773
1.7367
1.73719
1.73375
1.7333
1.73331
1.72737
1.73002
1.73185
1.72766
1.72579
1.72141
1.7142
1.72255
1.7248
1.72221
1.71997
1.70738
1.69959
1.71408
1.71576
1.71395
1.71259
1.69252
1.6844
1.7078
1.70879
1.70397
1.70222
1.67399
1.65886
1.70072
1.70288
1.70145
1.69532
1.64064
1.61614
1.68173
1.69496
1.68604
1.66857
1.6001
1.58249
1.65302
1.67422
1.65723
1.63611
1.57226
1.56251
1.62436
1.64752
1.6351
1.60925
1.5611
1.55957
1.59612
1.61588
1.61292
1.59361
1.56646
1.57152
1.58922
1.60676
1.59683
1.58735
1.57723
1.58254
1.59074
1.60192
1.59988
1.59149
1.58697
1.5884
1.59161
1.59595
1.60185
1.59687
1.59617
1.59868
1.59966
1.60193
1.59968
1.59673
1.59746
1.60534
1.60833
1.60916
1.61022
1.60935
1.60811
1.60628
1.6068
1.60799
1.61721
1.61639
1.61503
1.61757
1.61777
1.61868
1.61676
1.6159
1.61521
1.62198
1.62342
1.62401
1.62477
1.6238
1.62363
1.62001
1.62453
1.62331
1.62922
1.62878
1.62723
1.62918
1.62861
1.62958
1.62795
1.63229
1.62008
1.63338
1.63266
1.63479
1.63272
1.63244
1.63111
1.63576
1.63728
1.63808
1.63805
1.63686
1.63659
1.63428
1.63784
1.63652
1.64211
1.64155
1.63991
1.64101
1.64053
1.64192
1.64037
1.64327
1.63618
1.6425
1.64532
1.64536
1.64455
1.64346
1.64409
1.63532
1.64734
1.64369
1.64892
1.64635
1.64744
1.64472
1.64691
1.64637
1.65016
1.64971
1.64781
1.649
1.6484
1.64922
1.64883
1.65263
1.64185
1.65065
1.65168
1.65293
1.65102
1.65037
1.64895
1.65202
1.65354
1.65426
1.65377
1.65314
1.65141
1.65324
1.65021
1.65221
1.6555
1.65485
1.65438
1.65287
1.65422
1.65473
1.65425
1.65119
1.65274
1.65561
1.65856
1.65514
1.65542
1.6588
1.65052
1.65579
1.65922
1.658
1.65721
1.65751
1.65532
1.65821
1.65969
1.65961
1.65835
1.65772
1.65821
1.65369
1.66002
1.65754
1.66118
1.65902
1.65925
1.65808
1.65869
1.65913
1.66133
1.66108
1.65965
1.66048
1.65914
1.65971
1.65929
1.66347
1.65229
1.65982
1.66105
1.66279
1.66092
1.65827
1.66213
1.66226
1.66164
1.66256
1.66072
1.6597
1.66028
1.66166
1.66219
1.66273
1.66187
1.66146
1.65995
1.66274
1.65872
1.66104
1.66168
1.66494
1.66197
1.66065
1.66155
1.66099
1.66294
1.66311
1.66215
1.66066
1.66145
1.66173
1.66384
1.66377
1.66245
1.66279
1.66211
1.66251
1.66182
1.66527
1.65639
1.66204
1.6631
1.66438
1.66251
1.65992
1.66325
1.66322
1.6627
1.66367
1.66191
1.66089
1.66177
1.6628
1.66348
1.66369
1.66235
1.66175
1.66242
1.6565
1.66414
1.66118
1.66462
1.66201
1.66338
1.66284
1.66008
1.66185
1.6632
1.6621
1.66275
1.66143
1.66046
1.66131
1.66245
1.66213
1.66166
1.65975
1.66014
1.66072
1.66234
1.66214
1.66084
1.66047
1.66013
1.66063
1.65994
1.66328
1.65517
1.66027
1.66167
1.66269
1.66044
1.65826
1.6604
1.66007
1.66073
1.66105
1.65935
1.6582
1.65913
1.65896
1.65989
1.6603
1.65863
1.65782
1.65737
1.65902
1.65999
1.66012
1.65844
1.6579
1.65719
1.65806
1.65954
1.65969
1.65825
1.65752
1.65721
1.65309
1.65797
1.65633
1.65917
1.65715
1.65696
1.65603
1.65533
1.65656
1.65777
1.6575
1.65649
1.65475
1.65487
1.65574
1.65651
1.65647
1.65461
1.65277
1.65377
1.65453
1.6558
1.65567
1.6542
1.65229
1.65329
1.65397
1.65517
1.65502
1.65346
1.65203
1.65266
1.65353
1.6514
1.65311
1.64862
1.65144
1.65253
1.65386
1.65145
1.64995
1.65012
1.65031
1.65245
1.65235
1.65024
1.64909
1.6485
1.64893
1.65082
1.65101
1.64916
1.64825
1.64711
1.64833
1.64995
1.65015
1.64822
1.6475
1.64647
1.64693
1.64887
1.64904
1.64762
1.64649
1.64579
1.64165
1.64539
1.64473
1.64774
1.64633
1.64569
1.64357
1.64403
1.64508
1.64595
1.6459
1.6435
1.6414
1.64257
1.64357
1.64434
1.64434
1.64201
1.63967
1.6412
1.64202
1.64294
1.64277
1.64069
1.63877
1.64013
1.64083
1.64151
1.64126
1.63917
1.63704
1.63918
1.63999
1.63739
1.6347
1.63626
1.63692
1.63969
1.63893
1.63701
1.63589
1.63457
1.63452
1.63745
1.63736
1.63494
1.63402
1.63262
1.63311
1.63592
1.6358
1.63332
1.63225
1.63067
1.63119
1.6338
1.63399
1.63169
1.63074
1.62916
1.63047
1.63274
1.63275
1.63119
1.6298
1.62828
1.6253
1.62676
1.62785
1.6297
1.62801
1.62847
1.62568
1.62488
1.62683
1.62763
1.62702
1.6253
1.62315
1.62355
1.62494
1.62577
1.62543
1.62319
1.62143
1.62252
1.62338
1.62412
1.62409
1.62149
1.61872
1.6204
1.62145
1.62198
1.62202
1.61952
1.61778
1.61881
1.62011
1.61583
1.61601
1.61231
1.61614
1.61846
1.61895
1.61622
1.61539
1.61272
1.61328
1.61581
1.61663
1.61372
1.61276
1.61062
1.61097
1.61344
1.61406
1.61084
1.60952
1.60686
1.60838
1.61098
1.61125
1.60931
1.60792
1.60532
1.60193
1.6037
1.60484
1.60765
1.60766
1.60472
1.60096
1.60344
1.60468
1.60546
1.60506
1.6024
1.59889
1.6014
1.60216
1.60195
1.60107
1.59794
1.59342
1.59645
1.59811
1.5995
1.59886
1.59597
1.59405
1.59699
1.5984
1.59379
1.59147
1.59142
1.59222
1.59556
1.59529
1.59207
1.59035
1.58838
1.58786
1.59154
1.59125
1.58723
1.58533
1.58288
1.58342
1.5873
1.58764
1.58598
1.58426
1.58262
1.57727
1.58081
1.5811
1.58359
1.5829
1.58037
1.57614
1.57977
1.58054
1.57975
1.57908
1.57587
1.57031
1.5738
1.5755
1.57556
1.57448
1.57033
1.56745
1.57124
1.57327
1.56784
1.5659
1.56334
1.5674
1.57054
1.57106
1.56784
1.56601
1.56336
1.56253
1.56688
1.5664
1.56187
1.55981
1.55699
1.55444
1.559
1.56048
1.55809
1.55562
1.55183
1.54902
1.55109
1.55282
1.55562
1.55515
1.55121
1.54766
1.55071
1.55225
1.55131
1.55081
1.54718
1.5414
1.54543
1.54746
1.5384
1.53469
1.53117
1.53564
1.53963
1.54065
1.53793
1.53587
1.53299
1.53409
1.53823
1.53861
1.53567
1.53339
1.53056
1.52342
1.52629
1.52741
1.5264
1.52444
1.51922
1.51208
1.51724
1.52045
1.52202
1.52068
1.51549
1.51358
1.5184
1.52064
1.51381
1.51101
1.50923
1.50744
1.51314
1.51276
1.50757
1.50448
1.50143
1.49303
1.50007
1.50276
1.49934
1.49549
1.48929
1.48693
1.49018
1.49306
1.49521
1.49426
1.49002
1.48559
1.49031
1.49307
1.48243
1.47837
1.47544
1.46625
1.47362
1.47712
1.47422
1.46995
1.46317
1.46002
1.46321
1.46714
1.46905
1.46851
1.46317
1.46055
1.46243
1.46585
1.45114
1.4483
1.43814
1.43784
1.44609
1.44947
1.44608
1.44149
1.43472
1.42879
1.43427
1.43705
1.43569
1.43487
1.43296
1.41062
1.42189
1.42741
1.41236
1.40492
1.39748
1.40648
1.41274
1.4151
1.41455
1.40946
1.40487
1.38876
1.3975
1.40123
1.39284
1.38412
1.37187
1.37046
1.38084
1.38677
1.38189
1.37669
1.369
1.35069
1.36111
1.36758
1.36324
1.35455
1.33979
1.3409
1.35301
1.36009
1.35395
1.34722
1.33222
1.30755
1.32982
1.34022
1.33594
1.32932
1.31108
1.29255
1.31664
1.32831
1.32713
1.31628
1.29463
1.28257
1.30061
1.31597
1.34116
1.3314
1.31885
1.33152
1.34661
1.35657
1.376
1.3665
1.35268
1.3708
1.38396
1.39333
1.40665
1.39678
1.38402
1.39342
1.40575
1.41618
1.42355
1.41269
1.40104
1.4077
1.41861
1.42973
1.43514
1.42385
1.41379
1.4194
1.42857
1.4399
1.44414
1.43287
1.42456
1.4293
1.43678
1.44789
1.45126
1.4404
1.43375
1.43793
1.44376
1.45428
1.45702
1.44694
1.44189
1.44557
1.44993
1.45951
1.46181
1.45279
1.44902
1.45221
1.45549
1.46394
1.46592
1.45807
1.45522
1.45802
1.46049
1.46776
1.4695
1.46282
1.46069
1.46317
1.46502
1.47114
1.47272
1.46714
1.46555
1.46779
1.46915
1.47424
1.47572
1.47111
1.46995
1.47199
1.47296
1.47715
1.47857
1.47476
1.47398
1.47586
1.47647
1.47993
1.48129
1.47815
1.47769
1.47941
1.47974
1.48262
1.48394
1.4813
1.48109
1.48268
1.48279
1.48522
1.4865
1.48426
1.48424
1.48571
1.48566
1.48774
1.48899
1.48704
1.48715
1.4885
1.48835
1.49019
1.49139
1.48966
1.48984
1.4911
1.4909
1.49254
1.49369
1.49212
1.49235
1.49354
1.4933
1.4948
1.4959
1.49446
1.4947
1.49582
1.49557
1.49696
1.49802
1.49667
1.49691
1.49795
1.49773
1.49902
1.50003
1.49877
1.49898
1.49996
1.49978
1.50099
1.50194
1.50077
1.50093
1.50186
1.50172
1.50286
1.50376
1.50266
1.50277
1.50365
1.50357
1.50463
1.50549
1.50445
1.50451
1.50535
1.50532
1.50631
1.50712
1.50616
1.50617
1.50697
1.50699
1.50791
1.50868
1.50779
1.50775
1.5085
1.50856
1.50943
1.51015
1.50932
1.50924
1.50996
1.51006
1.51086
1.51155
1.51078
1.51066
1.51135
1.51148
1.51223
1.51288
1.51217
1.51201
1.51267
1.51283
1.51352
1.51414
1.51348
1.5133
1.51392
1.51411
1.51474
1.51533
1.51472
1.51453
1.51512
1.51532
1.51591
1.51647
1.51591
1.5157
1.51626
1.51648
1.51702
1.51755
1.51704
1.51682
1.51736
1.51758
1.51809
1.5186
1.51812
1.51789
1.5184
1.51863
1.5191
1.51959
1.51914
1.51891
1.51941
1.51964
1.52008
1.52054
1.52013
1.5199
1.52037
1.5206
1.52101
1.52146
1.52107
1.52085
1.52131
1.52153
1.52191
1.52235
1.52198
1.52176
1.5222
1.52242
1.52278
1.52321
1.52285
1.52264
1.52306
1.52327
1.52363
1.52404
1.5237
1.52349
1.52389
1.5241
1.52445
1.52485
1.52451
1.5243
1.52469
1.5249
1.52525
1.52564
1.5253
1.52509
1.52546
1.52567
1.52602
1.5264
1.52606
1.52584
1.5262
1.52642
1.52677
1.52714
1.5268
1.52658
1.52692
1.52715
1.52749
1.52785
1.52751
1.52729
1.52762
1.52785
1.5282
1.52856
1.52821
1.52797
1.5283
1.52854
1.52889
1.52924
1.52888
1.52864
1.52896
1.5292
1.52957
1.52991
1.52954
1.52929
1.5296
1.52985
1.53023
1.53056
1.53019
1.52992
1.53022
1.53049
1.53087
1.53119
1.53081
1.53054
1.53083
1.53111
1.53149
1.53181
1.53142
1.53114
1.53142
1.53171
1.53211
1.53242
1.53202
1.53173
1.532
1.5323
1.5327
1.533
1.5326
1.5323
1.53257
1.53288
1.53328
1.53358
1.53317
1.53286
1.53312
1.53344
1.53385
1.53413
1.53373
1.53341
1.53366
1.53399
1.5344
1.53468
1.53427
1.53394
1.53419
1.53452
1.53494
1.53521
1.5348
1.53446
1.5347
1.53504
1.53546
1.53573
1.53531
1.53497
1.5352
1.53555
1.53597
1.53623
1.53581
1.53546
1.53569
1.53605
1.53647
1.53673
1.5363
1.53594
1.53616
1.53653
1.53695
1.5372
1.53678
1.53641
1.53663
1.537
1.53742
1.53767
1.53724
1.53687
1.53708
1.53746
1.53788
1.53811
1.53769
1.53732
1.53752
1.5379
1.53832
1.53855
1.53813
1.53775
1.53795
1.53833
1.53876
1.53898
1.53856
1.53818
1.53837
1.53876
1.53918
1.53939
1.53898
1.53859
1.53878
1.53917
1.53958
1.53979
1.53938
1.53899
1.53917
1.53956
1.53998
1.54018
1.53977
1.53938
1.53956
1.53995
1.54036
1.54056
1.54015
1.53976
1.53993
1.54033
1.54074
1.54093
1.54052
1.54013
1.5403
1.54069
1.5411
1.54129
1.54088
1.54049
1.54066
1.54105
1.54145
1.54163
1.54124
1.54084
1.541
1.54139
1.54179
1.54197
1.54158
1.54118
1.54134
1.54173
1.54212
1.5423
1.54191
1.54152
1.54167
1.54206
1.54245
1.54261
1.54223
1.54184
1.54199
1.54237
1.54276
1.54292
1.54254
1.54215
1.5423
1.54268
1.54306
1.54322
1.54284
1.54246
1.5426
1.54298
1.54336
1.54351
1.54314
1.54276
1.54289
1.54327
1.54364
1.54379
1.54343
1.54305
1.54318
1.54356
1.54392
1.54407
1.54371
1.54333
1.54345
1.54383
1.54419
1.54434
1.54398
1.5436
1.54372
1.5441
1.54446
1.5446
1.54424
1.54387
1.54399
1.54436
1.54471
1.54485
1.5445
1.54413
1.54424
1.54461
1.54496
1.54509
1.54475
1.54438
1.54449
1.54486
1.5452
1.54533
1.54499
1.54462
1.54473
1.5451
1.54544
1.54556
1.54522
1.54486
1.54497
1.54533
1.54567
1.54579
1.54545
1.5451
1.5452
1.54555
1.54589
1.54601
1.54568
1.54532
1.54542
1.54577
1.54611
1.54622
1.54589
1.54554
1.54564
1.54599
1.54632
1.54643
1.5461
1.54576
1.54585
1.5462
1.54652
1.54663
1.54631
1.54596
1.54606
1.5464
1.54672
1.54683
1.54651
1.54617
1.54626
1.5466
1.54692
1.54702
1.5467
1.54637
1.54645
1.54679
1.54711
1.54721
1.5469
1.54656
1.54664
1.54698
1.54729
1.54739
1.54708
1.54675
1.54683
1.54716
1.54747
1.54757
1.54726
1.54693
1.54701
1.54734
1.54765
1.54774
1.54744
1.54711
1.54719
1.54751
1.54782
1.54791
1.54761
1.54728
1.54736
1.54768
1.54798
1.54807
1.54777
1.54745
1.54752
1.54785
1.54815
1.54823
1.54793
1.54761
1.54769
1.54801
1.5483
1.54839
1.54809
1.54777
1.54784
1.54816
1.54846
1.54854
1.54825
1.54793
1.548
1.54831
1.54861
1.54869
1.54839
1.54808
1.54815
1.54846
1.54875
1.54883
1.54854
1.54823
1.54829
1.5486
1.5489
1.54897
1.54868
1.54837
1.54844
1.54874
1.54903
1.54911
1.54882
1.54851
1.54858
1.54888
1.54917
1.54924
1.54896
1.54865
1.54871
1.54901
1.5493
1.54937
1.54909
1.54878
1.54884
1.54914
1.54943
1.5495
1.54921
1.54891
1.54897
1.54927
1.54955
1.54962
1.54934
1.54904
1.5491
1.54939
1.54967
1.54974
1.54946
1.54917
1.54922
1.54951
1.54979
1.54986
1.54958
1.54929
1.54934
1.54963
1.54991
1.54997
1.54969
1.5494
1.54945
1.54974
1.55002
1.55008
1.54981
1.54952
1.54957
1.54986
1.55013
1.55019
1.54992
1.54963
1.54968
1.54996
1.55024
1.5503
1.55002
1.54974
1.54979
1.55007
1.55034
1.5504
1.55013
1.54985
1.54989
1.55017
1.55045
1.5505
1.55023
1.54995
1.54999
1.55028
1.55055
1.5506
1.55033
1.55005
1.55009
1.55037
1.55064
1.5507
1.55043
1.55015
1.55019
1.55047
1.55074
1.55079
1.55052
1.55025
1.55029
1.55056
1.55083
1.55088
1.55062
1.55034
1.55038
1.55066
1.55092
1.55097
1.55071
1.55043
1.55047
1.55074
1.55101
1.55106
1.55079
1.55052
1.55056
1.55083
1.5511
1.55114
1.55088
1.55061
1.55065
1.55092
1.55118
1.55123
1.55096
1.5507
1.55073
1.551
1.55126
1.55131
1.55105
1.55078
1.55082
1.55108
1.55134
1.55139
1.55113
1.55086
1.5509
1.55116
1.55142
1.55147
1.55121
1.55094
1.55098
1.55124
1.5515
1.55154
1.55128
1.55102
1.55105
1.55131
1.55157
1.55161
1.55136
1.5511
1.55113
1.55139
1.55165
1.55169
1.55143
1.55117
1.5512
1.55146
1.55172
1.55176
1.5515
1.55125
1.55128
1.55153
1.55179
1.55183
1.55157
1.55132
1.55135
1.5516
1.55185
1.55189
1.55164
1.55139
1.55142
1.55167
1.55192
1.55196
1.55171
1.55146
1.55149
1.55174
1.55199
1.55202
1.55177
1.55152
1.55155
1.5518
1.55205
1.55209
1.55184
1.55159
1.55162
1.55186
1.55211
1.55215
1.5519
1.55165
1.55168
1.55193
1.55217
1.55221
1.55196
1.55172
1.55174
1.55199
1.55223
1.55227
1.55202
1.55178
1.55181
1.55205
1.55229
1.55232
1.55208
1.55184
1.55187
1.5521
1.55235
1.55238
1.55214
1.5519
1.55192
1.55216
1.55241
1.55244
1.55219
1.55196
1.55198
1.55222
1.55246
1.55249
1.55225
1.55201
1.55204
1.55227
1.55252
1.55254
1.5523
1.55207
1.55209
1.55233
1.55257
1.5526
1.55236
1.55212
1.55215
1.55238
1.55262
1.55265
1.55241
1.55218
1.5522
1.55243
1.55267
1.5527
1.55246
1.55223
1.55226
1.55248
1.55272
1.55275
1.55251
1.55228
1.55231
1.55253
1.55277
1.5528
1.55256
1.55233
1.55236
1.55258
1.55282
1.55284
1.55261
1.55238
1.55241
1.55263
1.55287
1.55289
1.55266
1.55243
1.55246
1.55268
1.55291
1.55294
1.5527
1.55248
1.5525
1.55272
1.55296
1.55298
1.55275
1.55253
1.55255
1.55277
1.55301
1.55303
1.55279
1.55257
1.5526
1.55282
1.55305
1.55307
1.55284
1.55262
1.55264
1.55286
1.55309
1.55311
1.55288
1.55266
1.55268
1.5529
1.55314
1.55316
1.55292
1.55271
1.55273
1.55294
1.55318
1.5532
1.55297
1.55275
1.55277
1.55299
1.55322
1.55324
1.55301
1.55279
1.55281
1.55303
1.55326
1.55328
1.55305
1.55283
1.55285
1.55307
1.5533
1.55332
1.55309
1.55287
1.55289
1.5531
1.55334
1.55336
1.55313
1.55291
1.55293
1.55314
1.55337
1.55339
1.55316
1.55295
1.55296
1.55318
1.55341
1.55343
1.5532
1.55299
1.553
1.55322
1.55345
1.55347
1.55324
1.55302
1.55304
1.55325
1.55348
1.5535
1.55327
1.55306
1.55307
1.55329
1.55352
1.55354
1.55331
1.55309
1.55311
1.55332
1.55355
1.55357
1.55334
1.55313
1.55314
1.55335
1.55358
1.5536
1.55337
1.55316
1.55317
1.55338
1.55362
1.55363
1.5534
1.55319
1.5532
1.55342
1.55365
1.55366
1.55343
1.55322
1.55323
1.55345
1.55368
1.55369
1.55346
1.55325
1.55326
1.55348
1.55371
1.55372
1.55349
1.55328
1.55329
1.5535
1.55373
1.55375
1.55352
1.55331
1.55332
1.55353
1.55376
1.55378
1.55355
1.55334
1.55335
1.55356
1.55379
1.5538
1.55357
1.55337
1.55338
1.55358
1.55381
1.55383
1.5536
1.55339
1.5534
1.55361
1.55384
1.55385
1.55362
1.55342
1.55343
1.55363
1.55386
1.55388
1.55365
1.55344
1.55345
1.55366
1.55388
1.5539
1.55367
1.55346
1.55347
1.55368
1.55391
1.55392
1.55369
1.55349
1.55349
1.5537
1.55393
1.55394
1.55371
1.55351
1.55351
1.55372
1.55395
1.55395
1.55373
1.55352
1.55353
1.55373
1.55396
1.55398
1.55375
1.55354
1.55355
1.55375
1.55398
1.55399
1.55376
1.55356
1.55356
1.55377
1.55399
1.554
1.55378
1.55357
1.55358
1.55378
1.55401
1.55401
1.55379
1.55358
1.55359
1.55379
1.55402
1.55402
1.5538
1.5536
1.5536
1.5538
1.55403
1.55403
1.55381
1.55361
1.55361
1.55381
1.55404
1.55404
1.55382
1.55361
1.55362
1.55382
1.55405
1.55405
1.55383
1.55362
1.55363
1.55383
1.55405
1.55406
1.55383
1.55363
1.55364
1.55384
1.55406
1.55407
1.55384
1.55364
1.55365
1.55385
1.55407
1.55407
1.55385
1.55365
1.55366
1.55386
1.55408
1.55408
1.55386
1.55366
1.55367
1.55387
1.55409
1.55409
1.55387
1.55366
1.55368
1.55387
1.5541
1.55409
1.55387
1.55367
1.55368
1.55388
1.5541
1.55409
1.55387
1.55367
1.55367
1.55385
1.55408
1.55405
1.55383
1.55363
1.55367
1.55387
1.55415
1.55448
1.55413
1.55391
1.55453
1.55476
1.55524
1.55547
1.55504
1.55485
1.55571
1.55613
1.55744
1.55861
1.55976
1.56057
1.56118
1.56161
1.56277
1.56361
1.56441
1.56499
1.56563
1.56626
1.56686
1.5674
1.5679
1.56835
1.56875
1.56911
1.56943
1.56971
1.56995
1.57016
1.57034
1.5705
1.57063
1.57074
1.57084
1.57092
1.57099
1.57105
1.5711
1.57114
1.57118
1.57121
1.57124
1.57126
1.57127
1.57129
1.5713
1.5713
1.57131
1.57131
1.57131
1.5713
1.5713
1.57129
1.57129
1.57128
1.57127
1.57127
1.57127
1.57126
1.57126
1.57125
1.57125
1.57133
1.57136
1.57137
1.57139
1.57141
1.57144
1.57146
1.57149
1.57152
1.57155
1.57158
1.57162
1.57166
1.5717
1.57175
1.5718
1.57186
1.57193
1.57201
1.57209
1.57218
1.57228
1.57239
1.57251
1.57264
1.57278
1.57292
1.57307
1.57322
1.57337
1.57352
1.57365
1.57377
1.57385
1.57389
1.5739
1.5739
1.57389
1.57389
1.57392
1.57395
1.574
1.57405
1.57411
1.57418
1.57425
1.57432
1.57439
1.57447
1.57455
1.57464
1.57473
1.57482
1.57492
1.57502
1.57514
1.57526
1.57538
1.57552
1.57566
1.57582
1.57599
1.57617
1.57637
1.57658
1.57681
1.57705
1.57731
1.5776
1.5779
1.57822
1.57856
1.57892
1.57931
1.57973
1.58017
1.58063
1.58112
1.58165
1.5822
1.58278
1.5834
1.58405
1.58473
1.58544
1.5862
1.58698
1.58781
1.58867
1.58956
1.5905
1.59147
1.59248
1.59353
1.59461
1.59573
1.59688
1.59807
1.59929
1.60055
1.60184
1.60315
1.6045
1.60587
1.60726
1.60868
1.61012
1.61158
1.61305
1.61454
1.61604
1.61756
1.61908
1.6206
1.62213
1.62366
1.62519
1.62672
1.62824
1.62976
1.63126
1.63276
1.63425
1.63572
1.63718
1.63863
1.64006
1.64147
1.64286
1.64423
1.64558
1.64691
1.64822
1.64951
1.65077
1.65202
1.65323
1.65443
1.6556
1.65675
1.65787
1.65897
1.66004
1.6611
1.66212
1.66313
1.66411
1.66507
1.66601
1.66692
1.66781
1.66868
1.66953
1.67035
1.67116
1.67194
1.67271
1.67345
1.67418
1.67488
1.67557
1.67624
1.67689
1.67753
1.67814
1.67874
1.67933
1.6799
1.68045
1.68099
1.68151
1.68202
1.68251
1.68299
1.68346
1.68392
1.68436
1.68479
1.68521
1.68561
1.68601
1.68639
1.68676
1.68713
1.68748
1.68782
1.68815
1.68847
1.68879
1.68909
1.68939
1.68967
1.68995
1.69022
1.69049
1.69074
1.69099
1.69123
1.69146
1.69169
1.69191
1.69212
1.69233
1.69253
1.69273
1.69291
1.6931
1.69327
1.69345
1.69361
1.69377
1.69392
1.69407
1.69422
1.69435
1.69448
1.69461
1.69473
1.69484
1.69495
1.69506
1.69516
1.69525
1.69535
1.69544
1.69554
1.69564
1.69575
1.69585
1.69596
1.69608
1.69619
1.69632
1.69645
1.69658
1.69667
1.69672
1.69678
1.69694
1.69695
1.69695
1.69696
1.69698
1.69701
1.69704
1.69708
1.69712
1.69717
1.69723
1.69729
1.69736
1.69744
1.69751
1.69758
1.69767
1.69779
1.69795
1.69807
1.69814
1.69821
1.69827
1.69834
1.69842
1.69849
1.69857
1.69866
1.69874
1.69883
1.69892
1.69902
1.69912
1.69922
1.69932
1.69943
1.69953
1.69964
1.69976
1.69987
1.69999
1.7001
1.70022
1.70034
1.70046
1.70058
1.7007
1.70083
1.70095
1.70107
1.7012
1.70132
1.70144
1.70157
1.70169
1.70182
1.70194
1.70206
1.70218
1.7023
1.70242
1.70254
1.70266
1.70278
1.70289
1.70301
1.70312
1.70323
1.70334
1.70345
1.70356
1.70366
1.70376
1.70386
1.70396
1.70405
1.70415
1.70423
1.70432
1.7044
1.70448
1.70456
1.70463
1.7047
1.70477
1.70484
1.70491
1.70497
1.70504
1.70512
1.7052
1.70525
1.70525
1.70523
1.70521
1.70521
1.70524
1.70534
1.70555
1.70593
1.7063
1.70644
1.70647
1.70634
1.70623
1.70611
1.706
1.70589
1.70579
1.70569
1.7056
1.70552
1.70544
1.70537
1.7053
1.70524
1.70518
1.70513
1.70508
1.70504
1.705
1.70496
1.70494
1.70491
1.70488
1.70486
1.70485
1.70483
1.70482
1.70482
1.70481
1.70481
1.70482
1.70482
1.70483
1.70484
1.70485
1.70487
1.70488
1.70491
1.70493
1.70495
1.70498
1.70501
1.70503
1.70507
1.7051
1.70514
1.70517
1.70521
1.70525
1.70529
1.70534
1.70538
1.70543
1.70548
1.70553
1.70559
1.70564
1.7057
1.70575
1.70582
1.70587
1.70594
1.70601
1.70608
1.70614
1.70622
1.70629
1.70637
1.70644
1.70653
1.70661
1.70669
1.70677
1.70687
1.70695
1.70705
1.70714
1.70724
1.70733
1.70744
1.70753
1.70764
1.70774
1.70785
1.70796
1.70807
1.70818
1.70831
1.70842
1.70854
1.70866
1.70879
1.70891
1.70905
1.70917
1.70932
1.70945
1.7096
1.70973
1.70989
1.71002
1.71018
1.71032
1.71049
1.71064
1.71081
1.71096
1.71114
1.7113
1.71148
1.71164
1.71183
1.712
1.7122
1.71237
1.71257
1.71275
1.71296
1.71314
1.71336
1.71355
1.71377
1.71396
1.7142
1.71439
1.71463
1.71484
1.71508
1.71529
1.71555
1.71576
1.71602
1.71624
1.71651
1.71674
1.71701
1.71725
1.71753
1.71777
1.71806
1.7183
1.7186
1.71885
1.71915
1.71941
1.71972
1.71999
1.7203
1.72057
1.7209
1.72117
1.7215
1.72178
1.72211
1.7224
1.72274
1.72303
1.72337
1.72366
1.72401
1.7243
1.72465
1.72495
1.7253
1.72561
1.72596
1.72627
1.72662
1.72693
1.72729
1.7276
1.72795
1.72827
1.72862