/*--------------------------------*- C++ -*----------------------------------*\
| =========                 |                                                 |
| \\      /  F ield         | OpenFOAM: The Open Source CFD Toolbox           |
|  \\    /   O peration     | Version:  v2006                                 |
|   \\  /    A nd           | Website:  www.openfoam.com                      |
|    \\/     M anipulation  |                                                 |
\*---------------------------------------------------------------------------*/
FoamFile
{
    version     2.0;
    format      ascii;
    class       volScalarField;
    location    "0.008";
    object      alphat;
}
// * * * * * * * * * * * * * * * * * * * * * * * * * * * * * * * * * * * * * //

dimensions      [1 -1 -1 0 0 0 0];


internalField   nonuniform List<scalar> 
31566
(
0.00623082
0.00612802
0.00805412
0.00802886
0.00893466
0.0101
0.0121865
0.01229
0.0114459
0.0101297
0.00930228
0.00852489
0.00844964
0.00799844
0.00822208
0.00735051
0.00636042
0.00585862
0.00568362
0.00572368
0.00521095
0.00441481
0.00417121
0.00385401
0.00340477
0.0032064
0.00319669
0.00304971
0.00282599
0.00263032
0.00253778
0.0024515
0.00250827
0.00269706
0.00279694
0.00268851
0.00267313
0.00265184
0.00248252
0.0024857
0.00248085
0.00249669
0.00255385
0.00246363
0.0022763
0.00212754
0.00205484
0.0020505
0.00210041
0.00207549
0.00205721
0.00203786
0.00195226
0.00191269
0.00202519
0.0021048
0.00213582
0.00215413
0.00206517
0.00194081
0.00190121
0.00198886
0.00203375
0.00197564
0.00194833
0.00198764
0.0020146
0.00197
0.00194249
0.00198825
0.00198966
0.00193063
0.00194398
0.00202419
0.000710205
0.000726973
0.000767568
0.000818972
0.000850804
0.000877923
0.00093788
0.00101504
0.00105997
0.00107065
0.00109313
0.00115819
0.0012526
0.0013255
0.00137256
0.00146562
0.00165789
0.00188385
0.00198902
0.00198786
0.00203964
0.00228292
0.00275403
0.00346881
0.00434242
0.00484423
0.00623062
0.00237236
0.00230697
0.00219688
0.00410326
0.00157341
0.00116243
0.000299259
4.36591e-05
2.87846e-06
2.01012e-06
9.10737e-06
7.65365e-05
6.6347e-05
6.97364e-06
1.75005e-06
1.65113e-06
7.10977e-06
6.78904e-05
7.07885e-05
7.67515e-06
1.57428e-06
1.54299e-06
9.3928e-06
7.9009e-05
8.24e-05
9.99959e-06
1.50651e-06
1.4831e-06
1.13361e-05
8.90986e-05
9.12476e-05
1.14486e-05
1.43917e-06
1.41192e-06
1.26742e-05
9.70202e-05
9.75791e-05
1.27769e-05
1.38696e-06
1.3794e-06
1.35813e-05
0.000101864
0.00010146
1.34797e-05
1.365e-06
1.36149e-06
1.38157e-05
0.000103307
0.000101307
1.34796e-05
1.35333e-06
1.35692e-06
1.35582e-05
0.000101693
9.82741e-05
1.31148e-05
1.35707e-06
1.36753e-06
1.31652e-05
9.82578e-05
9.48491e-05
1.28214e-05
1.37442e-06
1.39127e-06
1.29504e-05
9.53808e-05
9.31225e-05
1.27072e-05
1.40139e-06
1.42163e-06
1.28749e-05
9.39612e-05
9.22665e-05
1.26583e-05
1.43312e-06
1.45428e-06
1.2804e-05
9.32275e-05
9.16607e-05
1.25678e-05
1.46726e-06
1.48959e-06
1.26631e-05
9.25423e-05
9.0803e-05
1.24054e-05
1.50561e-06
1.53153e-06
1.24942e-05
9.16344e-05
8.98901e-05
1.22541e-05
1.55214e-06
1.58286e-06
1.23596e-05
9.06936e-05
8.90902e-05
1.21564e-05
1.60867e-06
1.64477e-06
1.22929e-05
8.9943e-05
8.85699e-05
1.21352e-05
1.67613e-06
1.71757e-06
1.2315e-05
8.95645e-05
8.8566e-05
1.22365e-05
1.7552e-06
1.80207e-06
1.24772e-05
8.98456e-05
8.92939e-05
1.25012e-05
1.84603e-06
1.89846e-06
1.28815e-05
9.1488e-05
9.13879e-05
1.29479e-05
1.94703e-06
2.00308e-06
1.33625e-05
9.40631e-05
9.39675e-05
1.34158e-05
2.0554e-06
2.11434e-06
1.37918e-05
9.65105e-05
9.63862e-05
1.3838e-05
2.1703e-06
2.23245e-06
1.41901e-05
9.88363e-05
9.8696e-05
1.42309e-05
2.29198e-06
2.35747e-06
1.45539e-05
0.000101022
0.000100812
1.45827e-05
2.42072e-06
2.48965e-06
1.48614e-05
0.000102893
0.00010258
1.4877e-05
2.55635e-06
2.62899e-06
1.51185e-05
0.000104387
0.000104012
1.51339e-05
2.69997e-06
2.7764e-06
1.53679e-05
0.000105693
0.000105321
1.53942e-05
2.8516e-06
2.93265e-06
1.56428e-05
0.000106996
0.000106651
1.56814e-05
3.01169e-06
3.09628e-06
1.59486e-05
0.000108351
0.000108061
1.60072e-05
3.17904e-06
3.26821e-06
1.63233e-05
0.000109884
0.000109727
1.64222e-05
3.35451e-06
3.44963e-06
1.68408e-05
0.000111902
0.000111939
1.69967e-05
3.5398e-06
3.64079e-06
1.75366e-05
0.000114581
0.00011478
1.77359e-05
3.73364e-06
3.83909e-06
1.83727e-05
0.000117858
0.000118126
1.86048e-05
3.93362e-06
4.04307e-06
1.93214e-05
0.000121553
0.000121867
1.95829e-05
4.13901e-06
4.25239e-06
2.03781e-05
0.000125608
0.000125967
2.06675e-05
4.34898e-06
4.46474e-06
2.15356e-05
0.000129996
0.000130362
2.1847e-05
4.56078e-06
4.67753e-06
2.27753e-05
0.000134615
0.000134951
2.31035e-05
4.77254e-06
4.88917e-06
2.40782e-05
0.000139353
0.000139605
2.44137e-05
4.98215e-06
5.09686e-06
2.54189e-05
0.000144065
0.000144224
2.57584e-05
5.18659e-06
5.29792e-06
2.6785e-05
0.000148695
0.000148729
2.71212e-05
5.38329e-06
5.48995e-06
2.81521e-05
0.000153145
0.000153027
2.84774e-05
5.56986e-06
5.6706e-06
2.94965e-05
0.000157331
0.000157044
2.98064e-05
5.74427e-06
5.8382e-06
3.08037e-05
0.000161193
0.000160723
3.1093e-05
5.90482e-06
5.99096e-06
3.20574e-05
0.000164672
0.000164011
3.23224e-05
6.05032e-06
6.12839e-06
3.32453e-05
0.000167732
0.000166876
3.34824e-05
6.17958e-06
6.24871e-06
3.43558e-05
0.000170343
0.000169302
3.45667e-05
6.29228e-06
6.35235e-06
3.53878e-05
0.000172513
0.000171279
3.55664e-05
6.3862e-06
6.4352e-06
3.63286e-05
0.000174217
0.000172801
3.6476e-05
6.45956e-06
6.49837e-06
3.71776e-05
0.000175465
0.000173882
3.72933e-05
6.51329e-06
6.541e-06
3.79393e-05
0.000176289
0.000174565
3.80038e-05
6.54619e-06
6.56252e-06
3.85975e-05
0.000176716
0.000174884
3.86021e-05
6.55895e-06
6.56223e-06
3.91324e-05
0.000176757
0.000174822
3.90825e-05
6.55079e-06
6.54132e-06
3.95202e-05
0.000176365
0.000174313
3.94288e-05
6.52198e-06
6.50232e-06
3.97703e-05
0.000175502
0.000173383
3.96475e-05
6.47134e-06
6.44247e-06
3.99114e-05
0.000174252
0.000172133
3.97657e-05
6.40178e-06
6.36392e-06
3.99542e-05
0.000172676
0.000170574
3.97971e-05
6.31576e-06
6.27052e-06
3.99346e-05
0.000170848
0.000168763
3.9766e-05
6.21601e-06
6.16334e-06
3.98414e-05
0.000168804
0.000166606
3.96419e-05
6.10275e-06
6.04756e-06
3.96945e-05
0.000166641
0.000164431
3.95075e-05
5.9846e-06
5.92363e-06
3.95236e-05
0.000164448
0.000162174
3.93118e-05
5.85564e-06
5.79071e-06
3.92781e-05
0.00016216
0.000159846
3.90538e-05
5.72096e-06
5.65618e-06
3.89996e-05
0.000159753
0.00015736
3.87558e-05
5.58707e-06
5.52198e-06
3.8658e-05
0.000157165
0.000154649
3.83541e-05
5.45184e-06
5.38866e-06
3.82495e-05
0.000154372
0.00015178
3.79632e-05
5.3242e-06
5.26855e-06
3.78979e-05
0.000151489
0.000148971
3.7703e-05
5.21294e-06
5.16704e-06
3.76893e-05
0.000148818
0.00014669
3.76062e-05
5.12198e-06
5.09079e-06
3.76947e-05
0.000146835
0.000145416
3.77384e-05
5.05918e-06
5.04167e-06
3.8014e-05
0.000145816
0.000144974
3.81277e-05
5.01971e-06
5.01106e-06
3.85461e-05
0.000145748
0.000145179
3.87502e-05
4.99689e-06
4.99973e-06
3.93923e-05
0.000146713
0.000146482
3.9709e-05
4.9971e-06
5.0144e-06
4.05697e-05
0.000148901
0.000149
4.09818e-05
5.02213e-06
5.05573e-06
4.2027e-05
0.000152229
0.000152582
4.2517e-05
5.07413e-06
5.12395e-06
4.37283e-05
0.000156488
0.000157068
4.42922e-05
5.15121e-06
5.21383e-06
4.56599e-05
0.000161643
0.000162405
4.62684e-05
5.24956e-06
5.32438e-06
4.773e-05
0.000167518
0.000168339
4.83518e-05
5.36964e-06
5.4546e-06
4.98469e-05
0.000173682
0.000174447
5.04657e-05
5.50752e-06
5.60113e-06
5.19684e-05
0.000179814
0.000180476
5.25773e-05
5.66264e-06
5.76612e-06
5.40822e-05
0.000185785
0.000186331
5.4677e-05
5.83659e-06
5.94944e-06
5.61706e-05
0.000191546
0.000191939
5.67426e-05
6.02746e-06
6.14669e-06
5.82114e-05
0.000196993
0.000197176
5.87486e-05
6.22995e-06
6.35366e-06
6.01744e-05
0.000201982
0.00020189
6.06594e-05
6.44177e-06
6.56876e-06
6.20077e-05
0.000206338
0.000205912
6.24277e-05
6.66015e-06
6.78914e-06
6.36771e-05
0.000209867
0.000209069
6.40291e-05
6.88302e-06
7.01151e-06
6.51756e-05
0.000212469
0.000211298
6.54661e-05
7.10592e-06
7.2328e-06
6.65274e-05
0.000214192
0.00021269
6.67641e-05
7.32678e-06
7.4516e-06
6.77379e-05
0.000215134
0.00021336
6.79423e-05
7.54502e-06
7.66452e-06
6.8812e-05
0.000215385
0.000213352
6.89598e-05
7.75328e-06
7.86613e-06
6.9687e-05
0.000214856
0.00021254
6.97228e-05
7.94893e-06
8.05364e-06
7.02698e-05
0.000213388
0.000210756
7.01598e-05
8.12999e-06
8.22541e-06
7.05192e-05
0.000210972
0.000207818
7.02474e-05
8.29436e-06
8.38013e-06
7.03855e-05
0.000207595
0.000203655
6.99592e-05
8.44466e-06
8.52512e-06
6.98062e-05
0.000203108
0.000198734
6.89976e-05
8.59151e-06
8.67145e-06
6.8245e-05
0.000197936
0.000193181
6.73591e-05
8.74111e-06
8.82816e-06
6.64625e-05
0.000192128
0.000187008
6.55269e-05
8.90597e-06
9.00448e-06
6.45575e-05
0.00018569
0.000180145
6.34853e-05
9.09174e-06
9.20526e-06
6.24638e-05
0.000178533
0.000172519
6.12571e-05
9.30925e-06
9.44177e-06
6.02013e-05
0.00017058
0.000164033
5.88929e-05
9.5675e-06
9.72283e-06
5.78707e-05
0.000161761
0.000154865
5.66462e-05
9.87663e-06
1.00596e-05
5.56883e-05
0.000152241
0.000145533
5.46658e-05
1.02505e-05
1.047e-05
5.38767e-05
0.000142745
0.00013636
5.30942e-05
1.07011e-05
1.09571e-05
5.24589e-05
0.000133158
0.000126797
5.18689e-05
1.12252e-05
1.15125e-05
5.13562e-05
0.00012313
0.00011606
5.0933e-05
1.18084e-05
1.21154e-05
5.05065e-05
0.000110963
0.000102108
5.0283e-05
1.2428e-05
1.27424e-05
5.01968e-05
9.59976e-05
8.72464e-05
5.02892e-05
1.30542e-05
1.33585e-05
5.0403e-05
8.25824e-05
7.66944e-05
5.07063e-05
1.35024e-05
1.36395e-05
5.10452e-05
7.39048e-05
7.01863e-05
5.15228e-05
1.37713e-05
1.38933e-05
5.20505e-05
6.87228e-05
6.64053e-05
5.26446e-05
1.40039e-05
1.41044e-05
5.32652e-05
6.57112e-05
6.39763e-05
5.39254e-05
1.41936e-05
1.42694e-05
5.46301e-05
6.36272e-05
6.26509e-05
5.54051e-05
1.43337e-05
1.43904e-05
5.62005e-05
6.26318e-05
6.23648e-05
5.70422e-05
1.44355e-05
1.44716e-05
5.7829e-05
6.26845e-05
6.29027e-05
5.867e-05
1.44982e-05
1.45227e-05
5.94416e-05
6.36572e-05
6.39615e-05
6.02173e-05
1.45338e-05
1.45377e-05
6.08896e-05
6.49537e-05
6.53482e-05
6.15297e-05
1.4539e-05
1.45374e-05
6.20529e-05
6.62484e-05
6.65231e-05
6.2525e-05
1.45349e-05
1.45325e-05
6.29529e-05
6.69408e-05
6.68109e-05
6.32843e-05
1.4529e-05
1.45314e-05
6.36684e-05
6.68124e-05
6.65849e-05
6.40212e-05
1.45432e-05
1.45594e-05
6.41999e-05
6.63249e-05
6.56845e-05
6.43972e-05
1.45884e-05
1.46279e-05
6.44758e-05
6.46432e-05
6.42668e-05
6.48668e-05
1.46847e-05
1.47303e-05
6.47088e-05
6.4097e-05
6.4669e-05
6.54092e-05
1.48502e-05
1.49143e-05
6.56864e-05
6.62956e-05
6.81339e-05
6.6514e-05
1.50853e-05
1.50855e-05
6.65453e-05
7.24657e-05
7.97948e-05
6.75024e-05
1.53487e-05
1.57371e-05
6.87192e-05
9.46332e-05
0.000123318
7.22956e-05
1.84009e-05
0.000663498
0.00155312
0.002081
0.00239765
0.00178115
0.00169007
0.00161097
0.000472448
5.12196e-05
4.11321e-05
4.37558e-05
4.34099e-05
4.50344e-05
4.3839e-05
4.43169e-05
4.31236e-05
4.28197e-05
4.14576e-05
4.1182e-05
4.00881e-05
3.99553e-05
3.90299e-05
3.87234e-05
3.78511e-05
3.73094e-05
3.64487e-05
3.5714e-05
3.51122e-05
3.41194e-05
3.3985e-05
3.1605e-05
3.2303e-05
2.67166e-05
2.76342e-05
4.04048e-06
2.65011e-06
6.79144e-06
0.000143241
0.000864973
0.000864968
0.000864962
0.000864965
0.000864959
0.000864966
0.00086497
0.000864957
0.000864953
0.000864962
0.000551222
0.000467325
8.07747e-06
1.88431e-06
9.68261e-07
1.08632e-06
2.0694e-06
2.12171e-06
3.73523e-06
5.56764e-06
2.94122e-06
2.07513e-06
2.25603e-06
4.27869e-06
9.03931e-06
1.07478e-05
7.45782e-06
6.02123e-06
1.76888e-05
1.13545e-05
1.13786e-05
1.09946e-05
1.84191e-05
3.14251e-05
4.45678e-05
2.13317e-05
1.0095e-05
9.30896e-06
2.65912e-05
5.90194e-05
7.32449e-05
3.31185e-05
8.80205e-06
9.60339e-06
4.68468e-05
9.08724e-05
0.00010844
6.07951e-05
1.03915e-05
2.16542e-05
9.07282e-05
0.000124709
0.00013709
0.000122819
3.77697e-05
4.43325e-05
0.000155904
0.000151928
0.000171294
0.000186991
4.76342e-05
4.92373e-05
0.000214942
0.000192735
0.000211377
0.000239282
5.00902e-05
5.07118e-05
0.000262036
0.000226845
0.000244247
0.000283605
5.1289e-05
5.18437e-05
0.000304401
0.000267005
0.000293453
0.00032352
5.23817e-05
5.29639e-05
0.000341324
0.0003188
0.000341339
0.000358014
5.3596e-05
5.42618e-05
0.000374214
0.000364044
0.000387444
0.000389646
5.49335e-05
5.55221e-05
0.000404386
0.000411087
0.000432944
0.000418049
5.62026e-05
5.68071e-05
0.000430452
0.000453808
0.000474553
0.000442147
5.74205e-05
5.80251e-05
0.000453307
0.000495108
0.000515659
0.000463296
5.85849e-05
5.91345e-05
0.000472388
0.000534475
0.000551479
0.000480917
5.96624e-05
6.01796e-05
0.000488612
0.000567592
0.000582879
0.00049598
6.0679e-05
6.11581e-05
0.000502548
0.00059684
0.000611611
0.000509061
6.16278e-05
6.20411e-05
0.000514282
0.000624859
0.000637735
0.000519231
6.24605e-05
6.28104e-05
0.000523253
0.000649375
0.000660243
0.000526692
6.31663e-05
6.34095e-05
0.000528994
0.000668487
0.000676936
0.000531392
6.37093e-05
6.37934e-05
0.000532127
0.000681823
0.000687009
0.000533202
6.39884e-05
6.38122e-05
0.000533109
0.00069035
0.000696406
0.000534844
6.38203e-05
6.29757e-05
0.000536285
0.000700937
0.000710006
0.000537385
6.26802e-05
6.18567e-05
0.000532718
0.000711679
0.000709723
0.000526422
6.27118e-05
6.27606e-05
0.000515574
0.000700823
0.000687119
0.000503788
6.50343e-05
6.54543e-05
0.000493988
0.000672318
0.000670614
0.000494717
6.99608e-05
6.98698e-05
0.000432044
0.000541171
0.000466006
0.000318168
5.44644e-05
4.15504e-05
0.000329869
0.000492893
0.000496083
0.000364221
5.30916e-05
5.95919e-05
0.000380446
0.000496195
0.000492853
0.000390239
6.34803e-05
6.51795e-05
0.000391194
0.000487812
0.000477078
0.000385306
6.72546e-05
6.80904e-05
0.000385529
0.000468501
0.000463888
0.000393834
7.17148e-05
7.00211e-05
0.000289719
0.000418226
0.000323561
0.000260813
5.54132e-05
4.16527e-05
0.000277719
0.000339656
0.000339873
0.000290296
5.20333e-05
5.7832e-05
0.000292554
0.000337756
0.000328832
0.000288498
6.17004e-05
6.49567e-05
0.000286969
0.000324881
0.00032171
0.00020713
6.24088e-05
4.95272e-05
0.000207859
0.000238626
0.000232208
0.000199536
3.6034e-05
4.54697e-05
0.00020074
0.000233158
0.000226065
0.00018868
4.55496e-05
3.80629e-05
0.000158825
0.000177718
0.000178347
0.000158237
3.04051e-05
3.88348e-05
0.000146507
0.000182348
0.000160699
0.000146947
4.05318e-05
5.6678e-05
0.000134189
0.000165984
0.000196014
0.000102623
2.42388e-05
1.59875e-05
9.51001e-05
6.78564e-05
6.51885e-05
3.88977e-05
2.35486e-05
2.70048e-05
6.32923e-05
9.73786e-05
0.00010608
6.33705e-05
2.42207e-05
1.78125e-05
4.82322e-05
7.1934e-05
6.13149e-05
4.46482e-05
2.11345e-05
2.15961e-05
7.38839e-05
9.42482e-05
7.89646e-05
5.06877e-05
1.752e-05
2.08315e-05
4.70319e-05
6.411e-05
0.000100794
7.71209e-05
2.17983e-05
1.75969e-05
5.34888e-05
8.37623e-05
6.75333e-05
4.90308e-05
2.08192e-05
2.19777e-05
8.02656e-05
0.000106635
8.75628e-05
5.56691e-05
1.76791e-05
2.0844e-05
5.11631e-05
7.05715e-05
0.000111029
8.29342e-05
2.22254e-05
1.7829e-05
5.7476e-05
9.05608e-05
7.29973e-05
5.27793e-05
2.09792e-05
2.23649e-05
8.5168e-05
0.000113957
9.23097e-05
5.91374e-05
1.79479e-05
2.11108e-05
5.42309e-05
7.43911e-05
0.000115409
8.56213e-05
2.25195e-05
1.79649e-05
5.99861e-05
9.31362e-05
7.50846e-05
5.50169e-05
2.11246e-05
2.26444e-05
8.52033e-05
0.000115854
9.31202e-05
6.02588e-05
1.8045e-05
2.1304e-05
5.53223e-05
7.49525e-05
0.000114444
8.32905e-05
2.26339e-05
1.80663e-05
5.9695e-05
9.15006e-05
7.39237e-05
5.45065e-05
2.13291e-05
2.24264e-05
7.84192e-05
0.000113318
8.85159e-05
5.65581e-05
1.75904e-05
1.94024e-05
5.18085e-05
7.01132e-05
0.000109515
0.000108365
1.74539e-05
2.29488e-05
6.50386e-05
9.08649e-05
0.000131999
9.33396e-05
2.35271e-05
1.87109e-05
6.61151e-05
9.97716e-05
8.10232e-05
6.05043e-05
2.19825e-05
2.31325e-05
8.57715e-05
0.000119815
9.3635e-05
6.26255e-05
1.84448e-05
2.16447e-05
5.72063e-05
7.57749e-05
0.000113495
7.74964e-05
2.28237e-05
1.79073e-05
5.77876e-05
8.72933e-05
6.92796e-05
5.31923e-05
1.97066e-05
1.73986e-05
0.000102667
0.000105338
8.7842e-05
6.43287e-05
2.30191e-05
2.34248e-05
8.22467e-05
0.00012536
9.09576e-05
6.07805e-05
1.81305e-05
1.9878e-05
5.59684e-05
7.30333e-05
0.000108538
0.000106693
1.7753e-05
2.34943e-05
6.75444e-05
9.02009e-05
0.000126416
8.71845e-05
2.36659e-05
1.86779e-05
6.52706e-05
9.43312e-05
7.73862e-05
5.90333e-05
2.21521e-05
2.33275e-05
7.34079e-05
0.000113045
8.4896e-05
5.71255e-05
1.81676e-05
1.99863e-05
5.35699e-05
6.79056e-05
0.000100919
9.65415e-05
1.68347e-05
2.07286e-05
6.2184e-05
8.18503e-05
0.000116167
0.000105736
1.83642e-05
2.37511e-05
6.98244e-05
9.26995e-05
0.000130793
8.59668e-05
2.36334e-05
1.84749e-05
6.42901e-05
9.41052e-05
7.6127e-05
5.97706e-05
2.03958e-05
1.82027e-05
0.000100334
0.000109692
8.9377e-05
6.76308e-05
2.3738e-05
2.36061e-05
7.96732e-05
0.000125237
8.99579e-05
6.12e-05
1.83863e-05
2.03702e-05
5.80286e-05
7.33075e-05
0.000105544
9.5572e-05
1.72528e-05
2.094e-05
6.46817e-05
8.27542e-05
0.000116142
0.000105282
1.83923e-05
2.40768e-05
7.04716e-05
9.24393e-05
0.000129078
8.15515e-05
2.40175e-05
1.86428e-05
6.28294e-05
9.09548e-05
7.37466e-05
5.97539e-05
2.05262e-05
1.71827e-05
9.88576e-05
0.000105213
8.39217e-05
6.67036e-05
2.11115e-05
1.8751e-05
0.000106539
0.00011608
9.25177e-05
7.23162e-05
2.47535e-05
2.43274e-05
8.02849e-05
0.000127064
8.99171e-05
6.3628e-05
1.87131e-05
2.05696e-05
6.03127e-05
7.32465e-05
0.000103392
9.81147e-05
1.72394e-05
2.12574e-05
6.72507e-05
8.29304e-05
0.000113265
0.000103351
1.88435e-05
2.47306e-05
7.19732e-05
9.04267e-05
0.000123966
7.78234e-05
2.40641e-05
1.86325e-05
6.24333e-05
8.78886e-05
7.25775e-05
5.97255e-05
2.06363e-05
1.73416e-05
9.41772e-05
0.000102338
8.1302e-05
6.62594e-05
2.13381e-05
1.78e-05
0.00010048
0.000111529
8.61505e-05
7.10835e-05
2.15382e-05
1.89007e-05
0.000105633
0.000116642
9.27633e-05
7.39086e-05
2.49146e-05
2.42965e-05
7.90209e-05
0.000126657
8.9368e-05
6.35403e-05
1.86222e-05
2.05722e-05
6.07372e-05
7.38714e-05
0.000104268
9.39426e-05
1.73738e-05
2.13569e-05
6.69174e-05
8.27534e-05
0.000113582
0.000100294
1.77209e-05
2.14725e-05
7.16851e-05
8.76169e-05
0.000119197
0.000108148
1.81957e-05
2.20942e-05
7.63188e-05
9.18473e-05
0.000123246
0.000110167
1.94812e-05
2.54296e-05
7.80957e-05
9.73068e-05
0.000132265
8.29322e-05
2.44279e-05
1.87263e-05
6.67863e-05
9.36339e-05
7.76002e-05
6.37855e-05
2.07065e-05
1.75224e-05
9.79061e-05
0.000108245
8.55882e-05
7.0047e-05
2.14737e-05
1.79429e-05
0.000104326
0.000116779
9.02206e-05
7.47676e-05
2.17229e-05
1.84664e-05
0.000110758
0.000122115
9.44431e-05
7.90527e-05
2.25738e-05
1.97583e-05
0.000111621
0.00012609
9.91267e-05
7.99978e-05
2.57316e-05
2.46413e-05
8.44136e-05
0.000134113
9.51075e-05
6.83387e-05
1.87773e-05
2.06715e-05
6.54754e-05
7.90221e-05
0.000109284
9.90538e-05
1.74617e-05
2.14522e-05
7.13538e-05
8.68951e-05
0.000118366
0.000106235
1.79941e-05
2.19171e-05
7.64241e-05
9.19083e-05
0.00012364
0.000111392
1.84763e-05
2.25665e-05
8.03673e-05
9.53424e-05
0.000126715
0.000113137
1.96303e-05
2.56175e-05
8.13611e-05
0.000100315
0.000135506
8.60709e-05
2.45691e-05
1.88973e-05
6.986e-05
9.6336e-05
8.07469e-05
6.71111e-05
2.09165e-05
1.75549e-05
0.000100438
0.000110962
8.83879e-05
7.28321e-05
2.16136e-05
1.81856e-05
0.000106996
0.000119781
9.32796e-05
7.81729e-05
2.21934e-05
1.86479e-05
0.000112664
0.000124527
9.65488e-05
8.21523e-05
2.29622e-05
1.98369e-05
0.000113551
0.000127477
0.000101362
8.27428e-05
2.58637e-05
2.47555e-05
8.62599e-05
0.000136258
9.73324e-05
7.08624e-05
1.89095e-05
2.09343e-05
6.82784e-05
8.18351e-05
0.00011245
0.00010282
1.77426e-05
2.19138e-05
7.47815e-05
8.99978e-05
0.000120944
0.000107838
1.83559e-05
2.24455e-05
7.97912e-05
9.46079e-05
0.000126056
0.000115663
1.87537e-05
2.32538e-05
8.42187e-05
9.83787e-05
0.000129477
0.000116418
2.03083e-05
2.64118e-05
8.54408e-05
0.000103896
0.000138601
8.82972e-05
2.50777e-05
1.89458e-05
7.26662e-05
9.94986e-05
8.36663e-05
6.97874e-05
2.08385e-05
1.79002e-05
0.000106792
0.000114969
9.31477e-05
7.70388e-05
2.23044e-05
1.87773e-05
0.000113573
0.000125539
9.85429e-05
8.30848e-05
2.30403e-05
1.92396e-05
0.000118587
0.000130665
0.000101818
8.71813e-05
2.36309e-05
2.04742e-05
0.000121777
0.000134247
0.000108538
8.89913e-05
2.66054e-05
2.52038e-05
9.34808e-05
0.000145102
0.000104563
7.6035e-05
1.91882e-05
2.13495e-05
7.34128e-05
8.81337e-05
0.000121114
0.000113181
1.82126e-05
2.26686e-05
8.12564e-05
9.7456e-05
0.000130215
0.000119149
1.9207e-05
2.37848e-05
8.70431e-05
0.000102189
0.000135401
0.000123624
2.04957e-05
2.66375e-05
8.99367e-05
0.00011029
0.000147337
9.6662e-05
2.53608e-05
1.93341e-05
7.82502e-05
0.000107145
8.98127e-05
7.53318e-05
2.16228e-05
1.86256e-05
0.000116606
0.000123539
0.000100066
8.37916e-05
2.33252e-05
1.95912e-05
0.000123685
0.00013391
0.000105945
9.00008e-05
2.42561e-05
2.09642e-05
0.000129684
0.000139974
0.000114788
9.42873e-05
2.73957e-05
2.61424e-05
0.000101887
0.000152646
0.000111916
8.22969e-05
1.97074e-05
2.20483e-05
7.90271e-05
9.33482e-05
0.000127428
0.000122765
1.89599e-05
2.39412e-05
8.74025e-05
0.000104109
0.000139437
0.000133838
2.07953e-05
2.74364e-05
9.51559e-05
0.000117158
0.000155839
0.000105235
2.6407e-05
1.98721e-05
8.4488e-05
0.000115824
9.61824e-05
8.07805e-05
2.23854e-05
1.94987e-05
0.00012775
0.000132412
0.000108515
9.02137e-05
2.46327e-05
2.13903e-05
0.00013891
0.000145919
0.000122653
9.90331e-05
2.80505e-05
2.71833e-05
0.000112517
0.000163442
0.000122946
8.90865e-05
2.06692e-05
2.34306e-05
8.45892e-05
0.000101967
0.000141018
0.000134643
2.02893e-05
2.55383e-05
9.43306e-05
0.000115036
0.000155842
0.000149486
2.22618e-05
2.92748e-05
0.000105616
0.000131638
0.000175419
0.000124361
2.86403e-05
2.16979e-05
9.74199e-05
0.000133228
0.000110127
9.125e-05
2.47291e-05
2.20784e-05
0.000150015
0.000152341
0.000131365
0.000104839
2.90396e-05
2.82546e-05
0.000129609
0.000176617
0.000138864
9.99289e-05
2.1605e-05
2.50634e-05
9.30065e-05
0.000113835
0.000159778
0.00015826
2.29027e-05
3.00868e-05
0.000108818
0.000137519
0.000185239
0.000133759
2.9466e-05
2.2071e-05
0.00010261
0.000144912
0.000119401
9.51481e-05
2.5302e-05
2.35864e-05
0.000176234
0.000171329
0.00014963
0.000116028
3.15514e-05
3.15618e-05
0.000150395
0.000203786
0.000159908
0.000111722
2.35082e-05
2.71051e-05
0.000103109
0.000130411
0.000189269
0.000196305
2.49421e-05
3.35232e-05
0.000128412
0.000166717
0.000227866
0.000182634
3.46367e-05
2.65818e-05
0.000132067
0.00018631
0.000154622
0.000123449
3.26321e-05
3.35121e-05
0.000182737
0.000219853
0.000190536
0.000132598
2.62049e-05
3.31763e-05
0.000125245
0.000158193
0.000225997
0.000190898
3.52974e-05
2.70419e-05
0.00013518
0.000194391
0.000158388
0.000125992
3.3681e-05
3.48572e-05
0.000197797
0.000230204
0.000203365
0.000139848
2.73638e-05
3.49613e-05
0.000129241
0.000164122
0.000241253
0.000197982
3.69609e-05
2.79611e-05
0.000137634
0.000203036
0.000164489
0.000126829
3.41739e-05
3.61465e-05
0.000220961
0.000259071
0.000218083
0.00014278
2.84528e-05
3.42451e-05
0.000127868
0.00017034
0.000287707
0.000207374
3.45031e-05
2.74371e-05
0.000140501
0.000224141
0.00018659
0.000132677
3.48617e-05
3.83815e-05
0.000224422
0.000368131
0.000283759
0.000159999
3.4214e-05
2.56564e-05
0.000147445
0.000248305
0.000211979
0.000133418
3.48837e-05
4.01686e-05
0.000266523
0.000556518
0.000478421
0.000216991
3.95213e-05
3.48564e-05
0.000222304
0.000441935
0.000448651
0.000220015
3.36918e-05
2.97147e-05
0.00023993
0.000455461
0.000458091
0.000238074
2.88797e-05
2.24386e-05
0.000233817
0.000445729
0.000397997
0.000202083
3.47122e-05
4.73173e-05
0.000488343
0.0011555
0.00107887
0.000461693
4.99571e-05
4.88035e-05
0.000446028
0.00104176
0.00104489
0.00044285
5.00255e-05
5.00344e-05
0.000441318
0.00102707
0.00102385
0.000440365
5.04676e-05
5.05679e-05
0.000436917
0.00100713
0.00100225
0.000435207
5.07895e-05
5.06681e-05
0.000432292
0.000985151
0.000978607
0.000430395
5.0773e-05
5.06046e-05
0.000426675
0.000963212
0.00095597
0.000424392
5.06125e-05
5.04339e-05
0.00042123
0.000941823
0.00093396
0.000418606
5.03829e-05
5.01927e-05
0.000415304
0.000920765
0.000912387
0.000412687
5.01066e-05
4.99074e-05
0.000409328
0.000899887
0.000891132
0.000406706
4.97999e-05
4.95947e-05
0.000403327
0.000879124
0.000870077
0.000400959
4.94764e-05
4.92638e-05
0.00039708
0.000858441
0.000849274
0.000394666
4.91354e-05
4.89261e-05
0.000391431
0.000837895
0.000828626
0.000388797
4.87921e-05
4.85836e-05
0.000385571
0.000817501
0.00080817
0.000383256
4.84509e-05
4.82411e-05
0.000379642
0.000797299
0.000788029
0.000377319
4.81076e-05
4.79069e-05
0.000374387
0.000777414
0.00076818
0.000372197
4.77759e-05
4.75756e-05
0.000368599
0.000757885
0.000748808
0.00036718
4.74523e-05
4.72631e-05
0.000363939
0.000738779
0.000730041
0.000362
4.71367e-05
4.69585e-05
0.000359025
0.000720109
0.000711729
0.000357609
4.6838e-05
4.66711e-05
0.000354755
0.00070222
0.000694138
0.000353342
4.65524e-05
4.63993e-05
0.000350822
0.000685047
0.000677266
0.000349493
4.62831e-05
4.61446e-05
0.000347485
0.000668683
0.000661395
0.000345897
4.60279e-05
4.58988e-05
0.000344068
0.0006532
0.000646394
0.00034309
4.5791e-05
4.56698e-05
0.000341302
0.000639028
0.00063266
0.000340133
4.55644e-05
4.54563e-05
0.000338985
0.000625975
0.000620181
0.000337784
4.5355e-05
4.52556e-05
0.000336939
0.000614114
0.000608856
0.000335496
4.51574e-05
4.50635e-05
0.000334849
0.000603425
0.000598691
0.000333674
4.49743e-05
4.48826e-05
0.00033302
0.000593839
0.000589604
0.000332287
4.48042e-05
4.4711e-05
0.000331248
0.000585264
0.000581537
0.000330774
4.46402e-05
4.45517e-05
0.000329864
0.000577696
0.00057437
0.000329468
4.44851e-05
4.44014e-05
0.00032867
0.000571037
0.000568072
0.000328293
4.43374e-05
4.42567e-05
0.000327398
0.000565189
0.000562597
0.000327399
4.41977e-05
4.41216e-05
0.000326502
0.000560066
0.000557838
0.000326166
4.40602e-05
4.39962e-05
0.000326079
0.000555618
0.000553682
0.000325388
4.39323e-05
4.38687e-05
0.000325027
0.000551749
0.000550125
0.000324645
4.38087e-05
4.37465e-05
0.000324204
0.000548456
0.000547032
0.000323922
4.36889e-05
4.36262e-05
0.000323271
0.000545657
0.000544412
0.000323338
4.35733e-05
4.35142e-05
0.000322864
0.000543175
0.00054201
0.000322399
4.34568e-05
4.34018e-05
0.00032213
0.000540859
0.00053975
0.000321711
4.33448e-05
4.32889e-05
0.000321173
0.000538663
0.000537601
0.000321192
4.32361e-05
4.31825e-05
0.000320747
0.000536575
0.000535573
0.000320298
4.3125e-05
4.30742e-05
0.000320026
0.000534676
0.000533693
0.000319615
4.30168e-05
4.29644e-05
0.000319102
0.00053288
0.000531951
0.000319057
4.29108e-05
4.28587e-05
0.000318445
0.000531152
0.000530268
0.000318049
4.28021e-05
4.27583e-05
0.000318157
0.000529493
0.00052863
0.000317187
4.2697e-05
4.2654e-05
0.000317342
0.000527889
0.000527013
0.000316509
4.25962e-05
4.2549e-05
0.000316296
0.000526305
0.000525429
0.000315963
4.24986e-05
4.24489e-05
0.000315561
0.000524716
0.000523843
0.000315415
4.24015e-05
4.23489e-05
0.000314639
0.000523113
0.000522277
0.000314589
4.23019e-05
4.22536e-05
0.000314122
0.000521479
0.000520669
0.000313636
4.22011e-05
4.21553e-05
0.000313348
0.00051987
0.000519053
0.00031286
4.21024e-05
4.20545e-05
0.000312313
0.000518223
0.000517427
0.00031202
4.20038e-05
4.19605e-05
0.000311974
0.00051658
0.000515741
0.000311329
4.19069e-05
4.186e-05
0.000310944
0.000514905
0.00051405
0.000310535
4.18093e-05
4.17616e-05
0.000310157
0.000513209
0.000512348
0.000309506
4.17098e-05
4.16651e-05
0.000309521
0.000511492
0.000510604
0.000308978
4.16156e-05
4.15652e-05
0.000308527
0.000509735
0.000508878
0.000307956
4.15169e-05
4.14674e-05
0.000307636
0.000507982
0.00050711
0.000307591
4.14249e-05
4.1372e-05
0.000306887
0.000506174
0.000505314
0.000306557
4.13269e-05
4.12748e-05
0.000305873
0.000504392
0.000503514
0.000305637
4.12304e-05
4.11843e-05
0.0003055
0.000502572
0.000501683
0.000304662
4.1134e-05
4.10889e-05
0.000304609
0.000500749
0.000499828
0.000304108
4.10424e-05
4.0992e-05
0.000303577
0.000498895
0.000497963
0.000303244
4.09479e-05
4.08976e-05
0.000302731
0.000497019
0.000496056
0.000302413
4.08534e-05
4.08037e-05
0.000301909
0.000495088
0.000494184
0.000301555
4.07589e-05
4.07102e-05
0.000301076
0.000493194
0.000492243
0.000300698
4.06646e-05
4.06168e-05
0.000300238
0.000491259
0.000490309
0.00029984
4.05706e-05
4.05236e-05
0.00029939
0.000489291
0.000488361
0.000298982
4.04768e-05
4.04304e-05
0.000298565
0.000487324
0.000486393
0.000298103
4.03831e-05
4.0337e-05
0.000297699
0.000485339
0.000484399
0.000297244
4.02897e-05
4.0242e-05
0.000296608
0.000483339
0.000482391
0.00029653
4.01979e-05
4.01503e-05
0.000295799
0.000481324
0.000480364
0.000295613
4.01041e-05
4.00592e-05
0.000294958
0.000479292
0.000478318
0.000294484
4.00091e-05
3.99718e-05
0.000294471
0.000477249
0.00047625
0.000293494
3.99167e-05
3.98795e-05
0.000293519
0.000475211
0.000474161
0.000292892
3.98292e-05
3.97859e-05
0.00029244
0.00047313
0.000472068
0.000291999
3.97391e-05
3.96951e-05
0.000291573
0.00047104
0.000469965
0.000291116
3.96491e-05
3.9605e-05
0.000290697
0.000468944
0.000467857
0.000290234
3.95593e-05
3.95154e-05
0.000289819
0.000466825
0.000465728
0.000289357
3.94699e-05
3.94263e-05
0.000288944
0.00046469
0.000463606
0.000288481
3.9381e-05
3.93375e-05
0.000288064
0.000462552
0.000461463
0.000287606
3.92925e-05
3.92474e-05
0.000286972
0.000460406
0.000459317
0.000286876
3.92057e-05
3.91609e-05
0.000286158
0.00045825
0.000457163
0.000285959
3.91173e-05
3.90751e-05
0.000285318
0.000456088
0.000454998
0.000285055
3.90295e-05
3.89917e-05
0.000284655
0.000453911
0.000452807
0.000284042
3.8941e-05
3.89037e-05
0.000283577
0.000451768
0.000450636
0.000283327
3.88563e-05
3.88186e-05
0.00028275
0.000449594
0.000448472
0.000282225
3.87684e-05
3.87354e-05
0.000282047
0.000447428
0.000446296
0.000281404
3.8684e-05
3.86506e-05
0.000281151
0.000445258
0.000444121
0.000280776
3.86024e-05
3.85647e-05
0.000280133
0.000443072
0.000441962
0.000279884
3.85182e-05
3.84816e-05
0.000279311
0.000440894
0.000439798
0.000279034
3.84341e-05
3.83985e-05
0.000278461
0.00043872
0.000437638
0.000277956
3.8349e-05
3.83192e-05
0.000277976
0.00043656
0.000435441
0.000277197
3.82677e-05
3.8234e-05
0.000276936
0.000434412
0.000433248
0.000276369
3.81861e-05
3.81508e-05