/*--------------------------------*- C++ -*----------------------------------*\
| =========                 |                                                 |
| \\      /  F ield         | OpenFOAM: The Open Source CFD Toolbox           |
|  \\    /   O peration     | Version:  v2006                                 |
|   \\  /    A nd           | Website:  www.openfoam.com                      |
|    \\/     M anipulation  |                                                 |
\*---------------------------------------------------------------------------*/
FoamFile
{
    version     2.0;
    format      ascii;
    class       surfaceScalarField;
    location    "0.008";
    object      phi;
}
// * * * * * * * * * * * * * * * * * * * * * * * * * * * * * * * * * * * * * //

dimensions      [1 0 -1 0 0 0 0];
oriented        oriented;


internalField   nonuniform List<scalar> 
48460
(
2.95895e-06
0.000261931
-0.000259925
-4.99722e-06
0.00024585
-0.000242924
1.0801e-07
-1.27833e-05
6.81295e-06
-0.000278338
-1.54014e-06
-0.000302606
1.48261e-05
-0.00030372
6.75651e-06
-0.000307429
1.08327e-05
-0.00029998
7.21712e-06
-0.000296362
8.61638e-06
-0.000290788
8.62302e-06
-0.000286975
9.74731e-06
-0.000283159
1.05495e-05
-0.000279797
1.14034e-05
-0.000276301
1.21961e-05
-0.00027268
1.29536e-05
-0.00026885
1.36743e-05
-0.000264785
1.43567e-05
-0.000260486
1.49994e-05
-0.000255955
1.56009e-05
-0.000251193
1.61599e-05
-0.000246204
1.66749e-05
-0.00024099
1.71447e-05
-0.000235558
1.75677e-05
-0.000229912
1.79428e-05
-0.000224058
1.82689e-05
-0.000218005
1.85449e-05
-0.00021176
1.87702e-05
-0.000205331
1.89442e-05
-0.000198727
1.90667e-05
-0.000191959
1.91378e-05
-0.000185035
1.91577e-05
-0.000177966
1.91267e-05
-0.000170762
1.90456e-05
-0.000163431
1.89148e-05
-0.000155983
1.87356e-05
-0.000148425
1.85086e-05
-0.000140767
1.82348e-05
-0.000133019
1.79158e-05
-0.000125192
1.7554e-05
-0.000117292
1.71464e-05
-0.000109339
1.66987e-05
-0.000101341
1.62146e-05
-9.33049e-05
1.56963e-05
-8.52438e-05
1.51466e-05
-7.71666e-05
1.45691e-05
-6.90808e-05
1.39682e-05
-6.09936e-05
1.33489e-05
-5.29112e-05
1.27181e-05
-4.48391e-05
1.20861e-05
-3.67807e-05
1.14704e-05
-2.87377e-05
1.09012e-05
-2.07086e-05
1.04466e-05
-1.26707e-05
1.03994e-05
-4.49536e-06
1.04328e-05
3.60413e-06
1.01105e-05
1.13182e-05
9.64877e-06
1.8878e-05
9.13823e-06
2.62914e-05
8.61271e-06
3.35246e-05
8.08892e-06
4.0574e-05
7.57636e-06
4.74398e-05
7.07981e-06
5.41192e-05
6.60144e-06
6.06085e-05
6.14254e-06
6.69051e-05
5.70361e-06
7.30064e-05
5.28628e-06
7.89104e-05
4.89006e-06
8.46139e-05
4.52184e-06
9.01199e-05
4.18504e-06
9.54339e-05
3.88047e-06
0.000100554
3.60263e-06
0.00010548
3.3475e-06
0.000110214
3.11346e-06
0.000114758
2.89891e-06
0.00011911
2.70158e-06
0.000123268
2.51918e-06
0.000127232
2.34956e-06
0.000131007
2.19109e-06
0.000134596
2.0424e-06
0.000138004
1.90246e-06
0.000141237
1.77055e-06
0.000144297
1.64617e-06
0.000147191
1.52872e-06
0.000149921
1.41701e-06
0.000152496
1.30944e-06
0.000154919
1.20497e-06
0.00015719
1.1034e-06
0.000159306
1.00471e-06
0.000161267
9.0842e-07
0.000163077
8.30092e-07
0.000164692
7.35585e-07
0.000166129
6.23263e-07
0.00016724
2.20961e-07
0.000167834
-1.02984e-07
0.00016769
-2.21434e-06
0.000166162
-3.66229e-06
0.000163641
-1.08496e-05
0.000158979
-1.79877e-05
0.000155603
-4.21774e-05
0.000155822
-9.43293e-05
0.000181282
-2.80936e-05
4.51e-05
4.64271e-06
7.89133e-05
-2.37008e-06
9.94007e-05
-1.35926e-06
9.42766e-05
-6.05592e-06
7.91466e-05
-1.1304e-06
7.20228e-05
-8.81459e-07
2.60956e-05
-7.28079e-07
2.14367e-05
1.63596e-05
1.37285e-06
1.49855e-05
1.97203e-06
2.0836e-05
2.53401e-05
2.72576e-06
-1.62299e-06
2.52596e-05
1.7021e-06
-1.01883e-06
2.02308e-05
1.39657e-05
9.85584e-07
1.29795e-05
9.3776e-07
2.02779e-05
2.52184e-05
9.78071e-07
-8.81654e-07
2.5444e-05
6.5574e-07
-8.68819e-07
2.02649e-05
1.21106e-05
6.31448e-07
1.14796e-05
9.92536e-07
1.99044e-05
2.5443e-05
9.94187e-07
-7.9818e-07
2.53409e-05
9.01767e-07
-5.46948e-07
1.96545e-05
1.09337e-05
3.78171e-07
1.05571e-05
6.28615e-07
1.9406e-05
2.51898e-05
7.82043e-07
-4.52256e-07
2.50191e-05
6.26058e-07
-3.69257e-07
1.93257e-05
1.01899e-05
1.74837e-07
1.00178e-05
3.47363e-07
1.91565e-05
2.48686e-05
5.01767e-07
-2.66607e-07
2.45795e-05
5.60446e-07
-1.23562e-07
1.90175e-05
9.89747e-06
8.75347e-08
9.81373e-06
2.00548e-07
1.89091e-05
2.46525e-05
1.32993e-07
-1.57483e-07
2.44212e-05
3.95169e-07
-6.71335e-08
1.88242e-05
9.75095e-06
4.9059e-08
9.70677e-06
1.17837e-07
1.87614e-05
2.45448e-05
1.49028e-09
-9.66461e-08
2.43562e-05
2.9329e-07
-4.09212e-08
1.87124e-05
9.6713e-06
3.08071e-08
9.64652e-06
7.25277e-08
1.86781e-05
2.45133e-05
-7.5855e-08
-6.22679e-08
2.43524e-05
2.32876e-07
-2.74596e-08
1.86514e-05
9.62565e-06
1.91737e-08
9.61369e-06
4.45263e-08
1.86349e-05
2.45318e-05
-1.24366e-07
-3.72581e-08
2.43882e-05
1.92293e-07
-1.54219e-08
1.86227e-05
9.60619e-06
5.82898e-09
9.60894e-06
1.90815e-08
1.862e-05
2.45821e-05
-1.62353e-07
-1.15484e-08
2.445e-05
1.56926e-07
-2.08888e-09
1.86218e-05
9.61607e-06
-6.36321e-09
9.63242e-06
-7.20045e-09
1.86348e-05
2.46554e-05
-1.98149e-07
1.30644e-08
2.45338e-05
1.2393e-07
7.66145e-09
1.86532e-05
9.65081e-06
-1.35909e-08
9.6758e-06
-2.93781e-08
1.86829e-05
2.4752e-05
-2.31118e-07
3.18528e-08
2.46426e-05
9.50644e-08
1.26822e-08
1.87168e-05
9.70061e-06
-1.64793e-08
9.72997e-06
-4.38154e-08
1.87598e-05
2.4875e-05
-2.5767e-07
4.28263e-08
2.4778e-05
7.38827e-08
1.43124e-08
1.88049e-05
9.75794e-06
-1.74961e-08
9.78988e-06
-5.21963e-08
1.88572e-05
2.50243e-05
-2.77741e-07
4.95517e-08
2.49382e-05
5.84632e-08
1.51748e-08
1.89101e-05
9.82028e-06
-1.8713e-08
9.85502e-06
-5.87e-08
1.89696e-05
2.51975e-05
-2.94891e-07
5.61509e-08
2.51211e-05
4.45743e-08
1.68811e-08
1.90293e-05
9.88874e-06
-2.12925e-08
9.92771e-06
-6.64673e-08
1.9096e-05
2.53922e-05
-3.12161e-07
6.53719e-08
2.53243e-05
2.91861e-08
2.03091e-08
1.91635e-05
9.96653e-06
-2.5359e-08
1.00112e-05
-7.71239e-08
1.92387e-05
2.56066e-05
-3.31569e-07
7.69905e-08
2.55462e-05
1.22472e-08
2.46853e-08
1.93154e-05
1.00559e-05
-2.995e-08
1.01068e-05
-8.95394e-08
1.94004e-05
2.58396e-05
-3.52708e-07
8.95466e-08
2.57863e-05
-4.96213e-09
2.9167e-08
1.94872e-05
1.01577e-05
-3.45983e-08
1.02149e-05
-1.02805e-07
1.95828e-05
2.60908e-05
-3.74773e-07
1.02541e-07
2.60445e-05
-2.26064e-08
3.34787e-08
1.96803e-05
1.02718e-05
-3.87677e-08
1.03347e-05
-1.16046e-07
1.97869e-05
2.63604e-05
-3.97247e-07
1.1505e-07
2.63215e-05
-4.02908e-08
3.71676e-08
1.9895e-05
1.03967e-05
-4.21986e-08
1.04646e-05
-1.28232e-07
2.00122e-05
2.66495e-05
-4.19221e-07
1.26247e-07
2.66184e-05
-5.70134e-08
4.02832e-08
2.01303e-05
1.05314e-05
-4.49385e-08
1.06036e-05
-1.38496e-07
2.02571e-05
2.69588e-05
-4.39536e-07
1.35384e-07
2.69357e-05
-7.18326e-08
4.24034e-08
2.03841e-05
1.06741e-05
-4.66357e-08
1.07496e-05
-1.46767e-07
2.05193e-05
2.72886e-05
-4.58158e-07
1.42495e-07
2.72731e-05
-8.46154e-08
4.35891e-08
2.0654e-05
1.08226e-05
-4.74691e-08
1.09002e-05
-1.52924e-07
2.0796e-05
2.76383e-05
-4.74682e-07
1.47566e-07
2.76298e-05
-9.50351e-08
4.39457e-08
2.09367e-05
1.09748e-05
-4.76799e-08
1.10537e-05
-1.5712e-07
2.10841e-05
2.80062e-05
-4.88485e-07
1.53123e-07
2.80048e-05
-1.05562e-07
4.51733e-08
2.1231e-05
1.11309e-05
-4.87186e-08
1.12123e-05
-1.62057e-07
2.13839e-05
2.83927e-05
-5.02901e-07
1.57869e-07
2.83967e-05
-1.14021e-07
4.62348e-08
2.1536e-05
1.12918e-05
-4.96905e-08
1.13753e-05
-1.66388e-07
2.16937e-05
2.87946e-05
-5.15552e-07
1.61327e-07
2.88018e-05
-1.19094e-07
4.7009e-08
2.18497e-05
1.14566e-05
-5.01844e-08
1.15416e-05
-1.69029e-07
2.20108e-05
2.92073e-05
-5.24366e-07
1.62781e-07
2.92152e-05
-1.19866e-07
4.70891e-08
2.21693e-05
1.1624e-05
-5.00999e-08
1.17099e-05
-1.6986e-07
2.23326e-05
2.96262e-05
-5.29364e-07
1.63086e-07
2.96334e-05
-1.17867e-07
4.68953e-08
2.24929e-05
1.17932e-05
-4.9858e-08
1.18798e-05
-1.69826e-07
2.26575e-05
3.00486e-05
-5.32127e-07
1.62871e-07
3.00533e-05
-1.14223e-07
4.67043e-08
2.28186e-05
1.19636e-05
-4.97799e-08
1.20506e-05
-1.69594e-07
2.29836e-05
3.04712e-05
-5.33842e-07
1.62502e-07
3.04722e-05
-1.09627e-07
4.66858e-08
2.31449e-05
1.21347e-05
-4.99089e-08
1.22223e-05
-1.69309e-07
2.331e-05
3.0892e-05
-5.34892e-07
1.62153e-07
3.08888e-05
-1.04548e-07
4.69115e-08
2.34711e-05
1.2307e-05
-5.01337e-08
1.2395e-05
-1.68759e-07
2.36357e-05
3.13096e-05
-5.34997e-07
1.61255e-07
3.13014e-05
-9.82377e-08
4.70631e-08
2.3796e-05
1.24801e-05
-5.00248e-08
1.25684e-05
-1.67221e-07
2.39596e-05
3.17226e-05
-5.33313e-07
1.59036e-07
3.17088e-05
-8.99595e-08
4.66432e-08
2.41186e-05
1.26534e-05
-4.91211e-08
1.2741e-05
-1.63976e-07
2.42802e-05
3.21294e-05
-5.29164e-07
1.54903e-07
3.21091e-05
-7.91126e-08
4.53286e-08
2.44365e-05
1.28249e-05
-4.74655e-08
1.29108e-05
-1.5906e-07
2.45948e-05
3.25282e-05
-5.2282e-07
1.49419e-07
3.25008e-05
-6.67235e-08
4.34348e-08
2.47473e-05
1.29926e-05
-4.5118e-08
1.30759e-05
-1.525e-07
2.4901e-05
3.29175e-05
-5.14188e-07
1.42214e-07
3.28819e-05
-5.18685e-08
4.08518e-08
2.50485e-05
1.31547e-05
-4.22634e-08
1.32348e-05
-1.44596e-07
2.51968e-05
3.32952e-05
-5.03429e-07
1.3387e-07
3.3251e-05
-3.54346e-08
3.77994e-08
2.53386e-05
1.33103e-05
-3.87276e-08
1.33866e-05
-1.35175e-07
2.54806e-05
3.36602e-05
-4.90286e-07
1.24065e-07
3.3607e-05
-1.69196e-08
3.40819e-08
2.5616e-05
1.34581e-05
-3.44719e-08
1.35299e-05
-1.24159e-07
2.5751e-05
3.40112e-05
-4.74551e-07
1.12894e-07
3.39484e-05
3.92816e-09
2.97948e-08
2.58793e-05
1.35968e-05
-2.95642e-08
1.36634e-05
-1.11742e-07
2.60065e-05
3.43467e-05
-4.56708e-07
9.94328e-08
3.42728e-05
2.76096e-08
2.43433e-08
2.61263e-05
1.37247e-05
-2.39837e-08
1.37853e-05
-9.79485e-08
2.62447e-05
3.46644e-05
-4.3682e-07
8.48488e-08
3.45785e-05
5.3307e-08
1.8394e-08
2.63552e-05
1.384e-05
-1.7674e-08
1.38937e-05
-8.26618e-08
2.64639e-05
3.49621e-05
-4.14486e-07
6.87852e-08
3.48636e-05
8.10856e-08
1.16839e-08
2.65642e-05
1.3941e-05
-1.05487e-08
1.39869e-05
-6.58012e-08
2.66623e-05
3.52383e-05
-3.8967e-07
5.12633e-08
3.51264e-05
1.10914e-07
4.21314e-09
2.67518e-05
1.4026e-05
-2.66348e-09
1.40633e-05
-4.74048e-08
2.68385e-05
3.54912e-05
-3.62381e-07
3.23359e-08
3.53654e-05
1.42749e-07
-3.88892e-09
2.69162e-05
1.40936e-05
5.66108e-09
1.41217e-05
-2.76356e-08
2.69905e-05
3.57192e-05
-3.32769e-07
1.23552e-08
3.55789e-05
1.76184e-07
-1.22746e-08
2.70557e-05
1.41429e-05
1.45475e-08
1.41614e-05
-6.43376e-09
2.71169e-05
3.59209e-05
-3.00777e-07
-9.52865e-09
3.57649e-05
2.12559e-07
-2.15091e-08
2.71685e-05
1.41725e-05
2.37514e-08
1.41811e-05
1.53977e-08
2.72161e-05
3.6094e-05
-2.67048e-07
-3.17421e-08
3.59222e-05
2.49592e-07
-3.08901e-08
2.72541e-05
1.41821e-05
3.32144e-08
1.41803e-05
3.78986e-08
2.72877e-05
3.62373e-05
-2.31641e-07
-5.47186e-08
3.60493e-05
2.878e-07
-4.05154e-08
2.73115e-05
1.41709e-05
4.28005e-08
1.41588e-05
6.09093e-08
2.73309e-05
3.63498e-05
-1.94915e-07
-7.7995e-08
3.61453e-05
3.2654e-07
-5.01512e-08
2.73401e-05
1.41389e-05
5.2395e-08
1.41163e-05
8.41424e-08
2.73449e-05
3.64304e-05
-1.57373e-07
-1.01246e-07
3.62094e-05
3.65281e-07
-5.97104e-08
2.73394e-05
1.40858e-05
6.19786e-08
1.40527e-05
1.07467e-07
2.73295e-05
3.64787e-05
-1.19326e-07
-1.24615e-07
3.6241e-05
4.04348e-07
-6.92058e-08
2.73091e-05
1.40117e-05
7.1315e-08
1.39682e-05
1.30542e-07
2.72845e-05
3.6494e-05
-8.10835e-08
-1.47441e-07
3.62398e-05
4.42646e-07
-7.84023e-08
2.72495e-05
1.39171e-05
8.03158e-08
1.38636e-05
1.5325e-07
2.72101e-05
3.64762e-05
-4.29856e-08
-1.69534e-07
3.62054e-05
4.80085e-07
-8.70683e-08
2.71606e-05
1.38028e-05
8.83989e-08
1.37401e-05
1.74237e-07
2.71072e-05
3.64259e-05
-7.12344e-09
-1.91252e-07
3.61392e-05
5.16421e-07
-9.562e-08
2.70433e-05
1.36697e-05
9.68555e-08
1.35976e-05
1.95543e-07
2.69759e-05
3.63432e-05
2.95429e-08
-2.12037e-07
3.60418e-05
5.50788e-07
-1.03939e-07
2.68985e-05
1.35179e-05
1.04879e-07
1.34369e-05
2.15647e-07
2.68181e-05
3.62295e-05
6.48405e-08
-2.31324e-07
3.59142e-05
5.83081e-07
-1.11587e-07
2.67282e-05
1.33489e-05
1.12129e-07
1.32601e-05
2.34144e-07
2.66358e-05
3.60863e-05
9.80989e-08
-2.48907e-07
3.57581e-05
6.12749e-07
-1.18413e-07
2.65345e-05
1.31647e-05
1.18517e-07
1.30688e-05
2.50802e-07
2.64309e-05
3.59153e-05
1.2875e-07
-2.64669e-07
3.55748e-05
6.3948e-07
-1.24447e-07
2.63188e-05
1.29665e-05
1.24091e-07
1.2864e-05
2.6555e-07
2.62049e-05
3.57176e-05
1.56577e-07
-2.78462e-07
3.53661e-05
6.63011e-07
-1.29656e-07
2.60831e-05
1.27556e-05
1.28741e-07
1.26478e-05
2.78198e-07
2.59602e-05
3.54954e-05
1.81351e-07
-2.90088e-07
3.51344e-05
6.83142e-07
-1.33847e-07
2.58301e-05
1.25345e-05
1.32406e-07
1.24225e-05
2.88668e-07
2.56997e-05
3.5252e-05
2.02817e-07
-2.9944e-07
3.48834e-05
6.99419e-07
-1.37132e-07
2.5563e-05
1.23057e-05
1.35097e-07
1.21907e-05
2.96476e-07
2.5427e-05
3.49908e-05
2.20147e-07
-3.05532e-07
3.46165e-05
7.10519e-07
-1.3909e-07
2.52856e-05
1.20716e-05
1.36187e-07
1.19551e-05
3.00766e-07
2.51458e-05
3.47153e-05
2.32321e-07
-3.08032e-07
3.4337e-05
7.16224e-07
-1.39342e-07
2.50015e-05
1.18354e-05
1.35493e-07
1.17193e-05
3.01369e-07
2.48598e-05
3.44287e-05
2.39119e-07
-3.0669e-07
3.40482e-05
7.16231e-07
-1.37666e-07
2.47146e-05
1.1601e-05
1.32349e-07
1.1488e-05
2.97625e-07
2.4573e-05
3.41346e-05
2.39874e-07
-3.00497e-07
3.37538e-05
7.09693e-07
-1.33057e-07
2.4429e-05
1.13741e-05
1.2647e-07
1.12667e-05
2.89197e-07
2.42895e-05
3.38367e-05
2.34264e-07
-2.90565e-07
3.34571e-05
6.97775e-07
-1.26332e-07
2.41483e-05
1.11595e-05
1.18773e-07
1.10598e-05
2.77881e-07
2.40122e-05
3.35378e-05
2.24698e-07
-2.77919e-07
3.31603e-05
6.82587e-07
-1.17775e-07
2.38749e-05
1.0961e-05
1.09635e-07
1.08704e-05
2.64026e-07
2.37433e-05
3.32394e-05
2.12075e-07
-2.63128e-07
3.2865e-05
6.64539e-07
-1.08222e-07
2.36113e-05
1.07812e-05
9.97688e-08
1.07005e-05
2.48372e-07
2.34856e-05
3.29441e-05
1.9644e-07
-2.47189e-07
3.25745e-05
6.43919e-07
-9.83786e-08
2.33599e-05
1.06213e-05
9.01578e-08
1.05504e-05
2.32121e-07
2.32411e-05
3.26556e-05
1.78391e-07
-2.3102e-07
3.22927e-05
6.21382e-07
-8.93851e-08
2.31227e-05
1.04803e-05
8.13875e-08
1.04182e-05
2.15604e-07
2.30118e-05
3.23772e-05
1.58643e-07
-2.14577e-07
3.20219e-05
5.97439e-07
-8.09627e-08
2.29016e-05
1.03566e-05
7.28079e-08
1.03031e-05
1.9884e-07
2.2799e-05
3.21108e-05
1.37637e-07
-1.98602e-07
3.17643e-05
5.72911e-07
-7.33262e-08
2.26972e-05
1.02491e-05
6.80862e-08
1.02002e-05
1.87109e-07
2.26016e-05
3.18584e-05
1.20739e-07
-1.87693e-07
3.15196e-05
5.54216e-07
-6.87774e-08
2.25062e-05
1.01507e-05
6.28822e-08
1.0107e-05
1.7508e-07
2.24174e-05
3.16185e-05
1.03935e-07
-1.77305e-07
3.12884e-05
5.35249e-07
-6.48069e-08
2.23283e-05
1.00613e-05
5.89878e-08
1.00214e-05
1.64157e-07
2.22465e-05
3.13939e-05
8.63737e-08
-1.67251e-07
3.10739e-05
5.15062e-07
-6.16526e-08
2.21642e-05
9.97875e-06
5.63722e-08
9.94138e-06
1.54815e-07
2.2089e-05
3.11869e-05
6.94797e-08
-1.59073e-07
3.08772e-05
4.96516e-07
-5.97412e-08
2.2013e-05
9.90059e-06
5.4954e-08
9.86447e-06
1.47544e-07
2.19435e-05
3.09977e-05
5.45302e-08
-1.52877e-07
3.06978e-05
4.80229e-07
-5.88853e-08
2.18725e-05
9.82431e-06
5.44492e-08
9.78851e-06
1.42081e-07
2.18077e-05
3.08256e-05
4.15106e-08
-1.48233e-07
3.05353e-05
4.65847e-07
-5.88118e-08
2.17411e-05
9.74829e-06
5.47174e-08
9.71209e-06
1.38106e-07
2.16804e-05
3.06703e-05
3.01713e-08
-1.44972e-07
3.03891e-05
4.53223e-07
-5.95165e-08
2.16176e-05
9.67101e-06
5.55466e-08
9.63385e-06
1.35032e-07
2.15607e-05
3.05315e-05
1.9539e-08
-1.42483e-07
3.02595e-05
4.41424e-07
-6.07052e-08
2.15015e-05
9.59153e-06
5.67953e-08
9.55317e-06
1.3262e-07
2.14483e-05
3.04098e-05
9.32811e-09
-1.40312e-07
3.01476e-05
4.29727e-07
-6.21472e-08
2.13929e-05
9.50957e-06
5.8138e-08
9.47011e-06
1.30238e-07
2.13437e-05
3.03066e-05
-1.40092e-09
-1.38086e-07
3.00545e-05
4.17785e-07
-6.36104e-08
2.12923e-05
9.42531e-06
5.93299e-08
9.38489e-06
1.27477e-07
2.12473e-05
3.02229e-05
-1.3198e-08
-1.35667e-07
2.9981e-05
4.05346e-07
-6.50328e-08
2.11999e-05
9.33884e-06
6.08916e-08
9.29692e-06
1.25001e-07
2.1159e-05
3.01591e-05
-2.5353e-08
-1.33872e-07
2.99278e-05
3.92944e-07
-6.72325e-08
2.11156e-05
9.24867e-06
6.35109e-08
9.20407e-06
1.23421e-07
2.10788e-05
3.01165e-05
-3.76174e-08
-1.33309e-07
2.98963e-05
3.81098e-07
-7.07154e-08
2.10393e-05
9.15224e-06
6.74546e-08
9.10365e-06
1.23119e-07
2.10067e-05
3.00965e-05
-4.95282e-08
-1.33762e-07
2.98883e-05
3.6964e-07
-7.53263e-08
2.09714e-05
9.04727e-06
7.23094e-08
8.994e-06
1.23655e-07
2.09433e-05
3.01011e-05
-6.13467e-08
-1.34509e-07
2.99053e-05
3.58093e-07
-8.04977e-08
2.09125e-05
8.93259e-06
7.74227e-08
8.87423e-06
1.24258e-07
2.08889e-05
3.01309e-05
-7.36128e-08
-1.34985e-07
2.99474e-05
3.46125e-07
-8.54032e-08
2.08624e-05
8.80785e-06
8.1713e-08
8.74508e-06
1.24225e-07
2.08428e-05
3.0186e-05
-8.69412e-08
-1.34418e-07
3.00146e-05
3.33138e-07
-8.91053e-08
2.08204e-05
8.67493e-06
8.46633e-08
8.60924e-06
1.22231e-07
2.08058e-05
3.02667e-05
-1.02522e-07
-1.3062e-07
3.01081e-05
3.16503e-07
-9.11482e-08
2.07892e-05
8.5371e-06
8.51395e-08
8.47094e-06
1.15289e-07
2.07819e-05
3.03748e-05
-1.24226e-07
-1.19167e-07
3.02298e-05
2.91194e-07
-8.88349e-08
2.07742e-05
8.401e-06
7.80841e-08
8.34165e-06
9.76951e-08
2.0777e-05
3.05111e-05
-1.56982e-07
-9.67433e-08
3.03777e-05
2.5646e-07
-7.72551e-08
2.07797e-05
8.28305e-06
6.42097e-08
8.23749e-06
7.34633e-08
2.07926e-05
3.06726e-05
-1.95094e-07
-7.22375e-08
3.05512e-05
2.19681e-07
-6.25697e-08
2.0805e-05
8.19356e-06
4.90221e-08
8.16309e-06
4.9438e-08
2.08264e-05
3.08611e-05
-2.34523e-07
-4.73311e-08
3.07532e-05
1.80955e-07
-4.52405e-08
2.08462e-05
8.13643e-06
3.04934e-08
8.12458e-06
2.63767e-08
2.08721e-05
3.10779e-05
-2.72698e-07
-2.69373e-08
3.098e-05
1.50214e-07
-2.68299e-08
2.08936e-05
8.11623e-06
1.51434e-08
8.11915e-06
1.25321e-08
2.09172e-05
3.13132e-05
-2.96038e-07
-1.68027e-08
3.12174e-05
1.3654e-07
-1.33692e-08
2.09343e-05
8.12354e-06
5.25065e-09
8.13591e-06
8.96027e-09
2.0951e-05
3.15517e-05
-3.01629e-07
-1.76614e-08
3.14487e-05
1.44032e-07
-5.99023e-09
2.09595e-05
8.14742e-06
1.28507e-09
8.16339e-06
1.62421e-08
2.09644e-05
3.17716e-05
-2.83781e-07
-3.37914e-08
3.16397e-05
1.88125e-07
-5.99242e-09
2.09562e-05
8.17434e-06
6.34299e-09
8.18463e-06
4.34364e-08
2.09383e-05
3.1924e-05
-2.18934e-07
-7.20781e-08
3.17366e-05
2.81062e-07
-1.67779e-08
2.09021e-05
8.18432e-06
1.60114e-08
8.18454e-06
7.75384e-08
2.08594e-05
3.19681e-05
-1.3253e-07
-8.99791e-08
3.17383e-05
3.40516e-07
-2.09015e-08
2.08087e-05
8.17934e-06
3.55147e-09
8.19073e-06
5.8451e-08
2.07714e-05
3.19491e-05
-1.32425e-07
-3.02675e-08
3.17265e-05
2.72046e-07
1.11265e-08
2.07468e-05
8.21612e-06
-3.48982e-08
8.26431e-06
-2.4448e-08
2.0752e-05
3.19595e-05
-2.39537e-07
5.16206e-08
3.1765e-05
1.58967e-07
4.13213e-08
2.07764e-05
8.31749e-06
-5.05253e-08
8.37868e-06
-7.88284e-08
2.08173e-05
3.20296e-05
-3.28939e-07
7.2102e-08
3.18529e-05
1.18734e-07
4.32483e-08
2.08584e-05
8.43225e-06
-3.69736e-08
8.47989e-06
-5.76693e-08
2.08918e-05
3.21154e-05
-3.05532e-07
3.81716e-08
3.19162e-05
1.76113e-07
2.98804e-08
2.0913e-05
8.52067e-06
-2.27298e-08
8.55395e-06
-1.13564e-08
2.09143e-05
3.21278e-05
-2.08225e-07
1.75985e-08
3.18773e-05
2.46429e-07
3.23237e-08
2.09113e-05
8.59604e-06
-3.95798e-08
8.64451e-06
-1.84696e-08
2.09008e-05
3.20291e-05
-1.57694e-07
7.63168e-08
3.17526e-05
2.11662e-07
7.17836e-08
2.09152e-05
8.7245e-06
-9.24824e-08
8.82476e-06
-1.15282e-07
2.09474e-05
3.19014e-05
-2.52932e-07
2.16774e-07
3.16621e-05
3.33593e-08
1.39272e-07
2.10341e-05
8.97163e-06
-1.69299e-07
9.14855e-06
-2.85571e-07
2.11596e-05
3.18874e-05
-4.99928e-07
4.25905e-07
3.17568e-05
-2.84201e-07
2.3017e-07
2.13647e-05
9.38642e-06
-2.56803e-07
9.65083e-06
-4.99214e-07
2.16164e-05
3.20946e-05
-8.26018e-07
6.48787e-07
3.20928e-05
-6.36338e-07
3.16962e-07
2.19571e-05
9.97504e-06
-3.30445e-07
1.03122e-05
-7.04847e-07
2.23397e-05
3.25617e-05
-1.16381e-06
8.4322e-07
3.26952e-05
-9.67614e-07
3.82804e-07
2.28077e-05
1.07011e-05
-3.74802e-07
1.10814e-05
-8.56284e-07
2.32961e-05
3.32741e-05
-1.42678e-06
9.51439e-07
3.34699e-05
-1.13975e-06
4.10818e-07
2.38428e-05
1.14971e-05
-3.8322e-07
1.18846e-05
-8.98654e-07
2.43636e-05
3.40459e-05
-1.46797e-06
9.45378e-07
3.41505e-05
-1.04361e-06
4.11936e-07
2.49022e-05
1.23007e-05
-3.82051e-07
1.26865e-05
-8.52385e-07
2.53774e-05
3.45446e-05
-1.24055e-06
8.90689e-07
3.43691e-05
-7.09752e-07
4.26044e-07
2.58464e-05
1.31158e-05
-4.1043e-07
1.35289e-05
-7.7044e-07
2.621e-05
3.44239e-05
-8.20603e-07
7.53635e-07
3.39002e-05
-2.25484e-07
4.64193e-07
2.65027e-05
1.39955e-05
-4.15581e-07
1.44136e-05
-5.0315e-07
2.65935e-05
3.36261e-05
-2.24602e-07
3.49805e-07
3.28816e-05
3.99067e-07
4.02255e-07
2.65443e-05
1.48184e-05
-2.46865e-07
1.50677e-05
2.39628e-09
2.62982e-05
3.24794e-05
4.08658e-07
-3.53889e-07
3.19262e-05
9.10917e-07
1.5528e-07
2.5792e-05
1.52252e-05
2.30101e-08
1.52041e-05
2.18671e-07
2.55988e-05
3.11049e-05
1.04327e-06
-6.94953e-07
3.07821e-05
1.0205e-06
-8.80298e-08
2.49939e-05
1.51175e-05
2.47461e-07
1.48712e-05
7.3513e-07
2.45078e-05
3.01725e-05
1.34688e-06
-9.38833e-07
2.94185e-05
1.69445e-06
-2.7931e-07
2.38494e-05
1.45927e-05
3.78025e-07
1.42152e-05
6.81927e-07
2.35462e-05
2.88336e-05
1.26783e-06
-3.56229e-07
2.85817e-05
6.08595e-07
-2.45587e-07
2.34358e-05
1.39698e-05
1.20704e-08
1.39579e-05
-4.44706e-08
2.34926e-05
2.89304e-05
-3.92768e-07
-3.9824e-07
6.60028e-07
-2.12621e-07
-1.3393e-06
-7.26864e-05
4.12662e-06
-6.06749e-05
5.75001e-06
-4.25868e-05
8.83756e-06
-1.44079e-05
1.11074e-05
1.2016e-06
9.05518e-06
5.85761e-05
1.07437e-05
0.000113885
1.05309e-05
0.0002068
1.21128e-05
0.000252224
1.21509e-05
0.000325765
1.33176e-05
0.000366084
1.34641e-05
0.000435562
1.4637e-05
0.000476149
1.48084e-05
0.000547436
1.60364e-05
0.000590218
1.60726e-05
0.000665298
1.73364e-05
0.000710732
1.72663e-05
0.000790834
1.85341e-05
0.000839443
1.83629e-05
0.000925453
1.95674e-05
0.000977582
1.93206e-05
0.0010702
2.04231e-05
0.00112617
2.01263e-05
0.00122592
2.11002e-05
0.00128594
2.07752e-05
0.00139319
2.16197e-05
0.00145736
2.12806e-05
0.00157254
2.20005e-05
0.00164089
2.16334e-05
0.00176388
2.22536e-05
0.00183594
2.1811e-05
0.00196356
2.23495e-05
0.00203796
2.17868e-05
0.00216624
2.22537e-05
0.00223996
2.13419e-05
0.00236839
2.12272e-05
0.00244326
1.57822e-05
0.00256604
1.30734e-05
0.0026343
-2.29119e-06
0.00257614
-1.93252e-05
0.0022823
-6.42496e-05
0.00195359
-0.000111917
0.00187297
-0.000289764
0.00181973
-0.000656035
0.00183805
-0.000330266
0.0011394
-0.000144209
0.00112984
-0.000135233
0.000999432
-4.03605e-05
0.000890775
-2.3651e-05
0.000294709
-1.00857e-05
0.000232857
0.000174622
1.41932e-05
0.000160429
3.25274e-05
0.000214522
0.000271546
5.56903e-05
-2.74382e-05
0.00025184
4.7143e-05
-1.19633e-05
0.000199047
0.000148465
9.04003e-06
0.000139424
1.93307e-05
0.000188756
0.000239104
3.20658e-05
-7.54306e-06
0.000235344
1.13022e-05
-3.73936e-06
0.000184951
0.000135684
4.014e-06
0.000131669
7.63012e-06
0.000181333
0.000230737
1.22357e-05
-1.68907e-06
0.000231226
1.19801e-06
-1.7713e-06
0.000181414
0.000129896
2.7934e-06
0.0001271
4.45436e-06
0.000179751
0.000229608
6.06933e-06
9.92571e-08
0.000231689
-2.18333e-06
-1.01373e-06
0.000180861
0.000126084
3.1327e-06
0.000122948
4.91078e-06
0.000179079
0.000230051
6.54448e-06
-6.20202e-07
0.000231828
-1.1611e-06
-1.02556e-06
0.000179481
0.000121919
2.83517e-06
0.00011908
4.0873e-06
0.000178225
0.000230209
5.70094e-06
-4.89084e-09
0.000232733
-2.52475e-06
-6.67124e-07
0.000178882
0.000118409
2.87293e-06
0.000115531
4.51373e-06
0.000177237
0.000230711
6.53022e-06
-4.694e-07
0.000232487
-1.31283e-06
-7.47669e-07
0.000177509
0.000114778
2.44175e-06
0.000112331
3.76129e-06
0.000176184
0.000231157
5.0842e-06
3.83945e-07
0.000233737
-2.97036e-06
-2.69164e-07
0.000176831
0.000112056
2.40091e-06
0.000109649
4.05122e-06
0.000175174
0.000231663
6.1172e-06
2.49041e-08
0.000233467
-1.83711e-06
-2.9187e-07
0.000175484
0.000109351
1.92134e-06
0.000107423
3.16841e-06
0.00017423
0.000232118
4.50905e-06
1.0139e-06
0.000234741
-3.64555e-06
2.41006e-07
0.000174995
0.000107657
1.88075e-06
0.000105769
3.40812e-06
0.00017346
0.000232634
5.50485e-06
6.68927e-07
0.000234472
-2.51615e-06
1.88245e-07
0.000173932
0.00010595
1.37236e-06
0.000104569
2.4678e-06
0.000172828
0.000233135
3.7945e-06
1.72576e-06
0.000235809
-4.41044e-06
7.74223e-07
0.00017377
0.000105335
1.35957e-06
0.000103967
2.69427e-06
0.000172426
0.000233727
4.76516e-06
1.36718e-06
0.000235622
-3.27318e-06
6.85023e-07
0.000173098
0.000104643
9.002e-07
0.000103733
1.77827e-06
0.00017221
0.000234336
3.05256e-06
2.42236e-06
0.000237097
-5.19637e-06
1.23553e-06
0.000173386
0.000104959
9.27232e-07
0.000104022
2.02043e-06
0.000172282
0.000235081
4.02411e-06
2.03751e-06
0.000237079
-4.04805e-06
1.09963e-06
0.000173208
0.000105112
5.13747e-07
0.000104588
1.12563e-06
0.000172585
0.000235898
2.29265e-06
3.10805e-06
0.000238817
-6.04056e-06
1.62689e-06
0.000174054
0.000106204
5.68276e-07
0.000105625
1.36666e-06
0.000173243
0.000236937
3.23283e-06
2.70535e-06
0.000239115
-4.89747e-06
1.45605e-06
0.00017448
0.00010707
1.86039e-07
0.000106873
4.79995e-07
0.000174173
0.00023812
1.4605e-06
3.82457e-06
0.000241297
-7.0165e-06
1.98221e-06
0.000176003
0.000108844
2.32844e-07
0.0001086
6.67239e-07
0.000175555
0.000239659
2.28979e-06
3.49461e-06
0.000242129
-5.97973e-06
1.8473e-06
0.000177189
0.000110435
-1.93934e-07
0.000110617
-3.17507e-07
0.000177299
0.000241444
3.52444e-07
4.78425e-06
0.00024505
-8.40693e-06
2.4442e-06
0.000179625
0.000113049
-2.26852e-07
0.000113264
-3.21833e-07
0.000179706
0.000243859
8.53306e-07
4.7598e-06
0.000246952
-7.86876e-06
2.46308e-06
0.000181988
0.000115714
-8.66231e-07
0.000116568
-1.73289e-06
0.000182841
0.000246948
-1.74576e-06
6.67111e-06
0.000251138
-1.08783e-05
3.37974e-06
0.000186117
0.000119935
-1.3418e-06
0.000121264
-2.31542e-06
0.000187076
0.00025144
-2.6342e-06
7.86373e-06
0.000255341
-1.1782e-05
3.96938e-06
0.000190955
0.00012522
-2.16538e-06
0.000127372
-3.83782e-06
0.000192612
0.000257036
-5.55078e-06
9.71417e-06
0.000261949
-1.46461e-05
4.30788e-06
0.000198003
0.000131666
-2.06831e-06
0.00013372
-3.93554e-06
0.000199853
0.000264475
-6.47977e-06
9.43851e-06
0.000270525
-1.55082e-05
4.2419e-06
0.000205033
0.000137948
-2.52129e-06
0.000140454
-6.44197e-06
0.000208937
0.000275409
-1.13461e-05
1.2309e-05
0.000284838
-2.17573e-05
4.82873e-06
0.0002164
0.000145268
-5.12751e-06
0.00015038
-1.1955e-05
0.000223209
0.000293249
-2.03874e-05
2.26551e-05
0.000309103
-3.8531e-05
9.21266e-06
0.000236634
0.000159577
-2.02562e-05
0.000179817
-4.07658e-05
0.000257122
0.000330578
-6.22684e-05
-0.000219695
0.000164026
0.000386232
-8.92543e-05
0.000126668
9.05503e-05
-3.28203e-05
0.000123361
-7.70201e-05
0.000170857
0.000217764
-0.000130769
4.37132e-05
0.00025042
-7.63851e-05
1.75889e-05
0.000196968
0.000140939
-1.04938e-05
0.00015142
-2.55754e-05
0.000212034
0.000269344
-4.45172e-05
2.4687e-05
0.000557316
-0.000312687
9.36744e-06
0.000227338
0.000160774
-1.71394e-05
0.000177899
-0.00027878
0.000488954
0.000494988
-0.000216485
0.000167959
0.000522652
-0.000195654
0.000220096
0.000436787
0.000397975
-8.79125e-05
0.000485857
-0.000150301
0.000499145
0.000549911
-0.000177596
0.000133558
0.000580533
-0.000164217
8.68084e-05
0.000545861
0.000572629
-4.92958e-05
0.000621883
-6.64408e-05
0.000562967
0.00067108
-0.000157037
-8.78753e-05
0.00041526
0.000343669
4.32512e-07
0.000474629
0.000622275
-5.86623e-05
0.000680897
-6.42864e-05
0.00048023
0.000508353
-0.000157399
0.000129086
0.000539537
-0.000160298
9.90421e-05
0.000510245
0.000779897
-0.000115635
0.000895482
-0.000137256
0.000531835
0.000557629
-0.00015538
0.000142554
0.000575804
-0.000160763
0.000124133
0.000550223
0.00101956
-0.000135809
0.00115531
-0.000151749
0.000566135
0.000556872
-0.000132848
0.000153608
0.000713055
-0.00030983
0.000126028
0.000593685
0.00128129
-8.87964e-05
0.00137005
-3.01481e-07
0.000505171
0.00042905
0.000283685
0.00012282
0.000514464
-0.000208242
0.000124933
0.000503111
0.00149476
-0.000150777
0.00164672
-0.000185558
0.000537409
0.000559103
-0.000230264
0.000119189
0.000645118
-0.00020483
0.000115344
0.000542439
0.00175068
-4.38592e-05
0.00181678
4.35266e-05
0.000452259
0.00039267
0.000295254
5.20836e-05
0.000498242
-0.000157155
3.23413e-05
0.000474128
0.00183519
3.97994e-05
0.00179749
4.49813e-05
0.000468861
0.000530522
1.26772e-05
-0.000269746
0.000318159
0.000482135
-0.000153848
0.000352984
0.00164373
0.000265465
0.00137836
0.000299722
0.000318744
0.000475336
0.000142561
-0.000680408
0.000149613
0.00100614
-0.000490411
0.00012875
0.000887852
0.000521334
0.000366408
0.000615611
3.44543e-05
5.28103e-05
0.000712388
-0.000477721
-5.35828e-06
0.00053586
-0.000415648
-2.76407e-05
-4.93501e-05
0.000109826
-0.000159311
0.000157224
-7.50497e-05
-0.000101898
0.000253755
-2.60818e-05
-8.41961e-05
8.36506e-06
-2.69623e-05
-7.41793e-05
-0.000186314
1.01826e-05
-0.000196532
4.43657e-06
-6.84417e-05
-6.20118e-05
-1.77549e-05
-1.76968e-05
-9.90821e-05
5.47585e-05
-5.69261e-06
-8.04546e-05
-0.000202255
-5.56077e-06
-0.000196721
-6.7727e-06
-7.92533e-05
-8.51455e-05
-2.07236e-05
1.46259e-05
-6.78256e-05
-3.19528e-05
1.18308e-05
-7.64668e-05
-0.000184912
-1.11122e-05
-0.000173821
1.38216e-06
-8.89704e-05
-0.000111312
4.48591e-05
2.33945e-05
-8.82694e-05
-4.64509e-05
1.91914e-05
-8.47779e-05
-0.000154647
-1.89686e-05
-0.000135694
-2.23271e-05
-8.14281e-05
-7.14477e-05
-3.9156e-05
7.38279e-07
-0.000115833
4.36377e-05
1.25371e-05
-9.32365e-05
-0.000123171
-1.81586e-05
-0.000105026
-2.68444e-05
-8.45623e-05
-8.98949e-05
-5.27983e-05
2.37265e-05
-7.10951e-05
-4.25341e-05
1.64378e-05
-7.72827e-05
-8.86002e-05
-8.99786e-06
-7.96135e-05
-3.94576e-07
-8.58963e-05
-0.000115473
4.39727e-05
3.79675e-05
-8.23351e-05
-7.11215e-05
1.89331e-05
-6.68732e-05
-6.06906e-05
-4.19905e-05
-1.87059e-05
-3.12826e-05
-7.75899e-05
-6.7641e-05
-4.59845e-05
1.52758e-05
-0.000125254
4.23261e-05
-1.41238e-05
-4.81986e-05
-3.28341e-05
-7.43666e-06
-2.54031e-05
-1.86217e-05
-3.7021e-05
-4.69886e-05
-9.69025e-05
1.97668e-05
-3.19066e-05
-3.48537e-05
8.08655e-06
-2.53452e-05
-1.73205e-05
1.54761e-05
-3.28015e-05
3.76509e-05
-4.75257e-05
-6.01236e-05
6.58614e-05
1.8106e-05
-4.67915e-05
-3.14488e-05
7.63981e-06
-3.70674e-05
-2.51677e-05
-7.9486e-06