/*--------------------------------*- C++ -*----------------------------------*\
| =========                 |                                                 |
| \\      /  F ield         | OpenFOAM: The Open Source CFD Toolbox           |
|  \\    /   O peration     | Version:  v2006                                 |
|   \\  /    A nd           | Website:  www.openfoam.com                      |
|    \\/     M anipulation  |                                                 |
\*---------------------------------------------------------------------------*/
FoamFile
{
    version     2.0;
    format      ascii;
    class       volScalarField;
    location    "0.008";
    object      rho;
}
// * * * * * * * * * * * * * * * * * * * * * * * * * * * * * * * * * * * * * //

dimensions      [1 -3 0 0 0 0 0];


internalField   nonuniform List<scalar> 
31566
(
1.74267
1.74255
1.74252
1.74275
1.74283
1.74281
1.74268
1.74199
1.74178
1.74204
1.74221
1.74197
1.74154
1.74199
1.74204
1.74201
1.74268
1.7426
1.7424
1.74321
1.74398
1.74402
1.74386
1.74296
1.74311
1.74336
1.74322
1.74287
1.74331
1.74448
1.74539
1.74479
1.74395
1.74326
1.74335
1.7436
1.74365
1.74372
1.74343
1.74356
1.7433
1.74269
1.74261
1.74272
1.74289
1.74303
1.74296
1.74294
1.74314
1.7425
1.74202
1.74296
1.74331
1.74255
1.74223
1.74241
1.74217
1.74206
1.74246
1.74274
1.74236
1.7421
1.74208
1.74213
1.74213
1.74191
1.74178
1.74189
1.7418
1.74154
1.74157
1.74171
1.74158
1.74143
1.7415
1.74158
1.74149
1.74138
1.7414
1.74143
1.74135
1.74127
1.74128
1.74134
1.74139
1.74138
1.74136
1.74137
1.74141
1.74141
1.74133
1.74125
1.74124
1.74127
1.74129
1.74125
1.74119
1.74116
1.74116
1.74117
1.74113
1.74112
1.74129
1.74123
1.74119
1.74121
1.74121
1.74124
1.74126
1.74127
1.74092
1.74096
1.74096
1.74064
1.74062
1.74056
1.74022
1.74028
1.7403
1.73993
1.73991
1.73985
1.73946
1.73953
1.73956
1.73918
1.73912
1.73902
1.73859
1.73873
1.73881
1.73843
1.73833
1.73815
1.73773
1.73795
1.73809
1.73776
1.73757
1.73729
1.73691
1.73724
1.73747
1.73719
1.73694
1.73657
1.73628
1.73668
1.73697
1.73675
1.73644
1.73602
1.73581
1.73624
1.73658
1.73641
1.73605
1.73562
1.73546
1.73589
1.73626
1.73608
1.73571
1.7353
1.73514
1.73554
1.73591
1.73569
1.73534
1.73496
1.73476
1.73511
1.73545
1.73516
1.73484
1.73451
1.73424
1.73454
1.73484
1.73446
1.73419
1.73393
1.73359
1.73382
1.73406
1.73363
1.73341
1.73322
1.73283
1.73299
1.73317
1.7327
1.73255
1.73243
1.73203
1.73211
1.73222
1.73175
1.73167
1.73162
1.73122
1.73124
1.73128
1.73084
1.73082
1.73084
1.73047
1.73043
1.73042
1.73002
1.73006
1.73012
1.72979
1.72972
1.72966
1.72933
1.72941
1.72949
1.72921
1.72912
1.72902
1.72875
1.72886
1.72895
1.72871
1.72861
1.72849
1.72825
1.72838
1.72848
1.72826
1.72815
1.72802
1.72778
1.72792
1.72803
1.7278
1.72768
1.72755
1.72731
1.72745
1.72757
1.72733
1.7272
1.72706
1.72681
1.72695
1.72709
1.72685
1.7267
1.72655
1.72631
1.72646
1.72662
1.72639
1.72623
1.72607
1.72586
1.72602
1.72618
1.72599
1.72582
1.72566
1.72548
1.72565
1.72582
1.72568
1.7255
1.72533
1.72521
1.72538
1.72556
1.72545
1.72528
1.7251
1.72503
1.7252
1.72538
1.72531
1.72513
1.72496
1.72492
1.72509
1.72526
1.72522
1.72504
1.72487
1.72484
1.72501
1.72519
1.72516
1.72498
1.72481
1.72478
1.72495
1.72513
1.72508
1.7249
1.72474
1.72471
1.72486
1.72504
1.725
1.72482
1.72466
1.72462
1.72478
1.72497
1.72492
1.72474
1.72458
1.72455
1.7247
1.72489
1.72486
1.72467
1.72452
1.7245
1.72465
1.72484
1.72483
1.72464
1.72449
1.7245
1.72464
1.72484
1.72484
1.72464
1.7245
1.72451
1.72466
1.72485
1.72486
1.72466
1.72452
1.72454
1.72468
1.72488
1.72488
1.72468
1.72454
1.72455
1.72469
1.72489
1.72489
1.72469
1.72455
1.72455
1.72469
1.72489
1.72487
1.72468
1.72454
1.72453
1.72466
1.72486
1.72482
1.72463
1.7245
1.72447
1.7246
1.72479
1.72473
1.72455
1.72443
1.72438
1.7245
1.72467
1.72462
1.72444
1.72432
1.72426
1.72437
1.72455
1.72449
1.7243
1.72418
1.72411
1.72423
1.72441
1.72434
1.72416
1.72404
1.72398
1.72409
1.72426
1.72418
1.72402
1.72391
1.72384
1.72394
1.72409
1.72401
1.72388
1.72378
1.72371
1.7238
1.72391
1.7238
1.72373
1.72365
1.72359
1.72365
1.72369
1.72357
1.72358
1.72353
1.72349
1.72351
1.72345
1.72335
1.72346
1.72346
1.72345
1.72342
1.72324
1.72313
1.72338
1.72344
1.72344
1.72334
1.72302
1.72293
1.72331
1.72345
1.72345
1.72328
1.72283
1.72276
1.72326
1.72348
1.72349
1.72323
1.72267
1.72259
1.7232
1.72351
1.72354
1.7232
1.72255
1.7225
1.72322
1.7236
1.72364
1.72323
1.72247
1.72227
1.72307
1.72353
1.72344
1.72292
1.72207
1.72215
1.72302
1.72356
1.72373
1.72316
1.72224
1.72227
1.72322
1.72383
1.72388
1.72323
1.72226
1.72225
1.72323
1.72392
1.72394
1.72322
1.72222
1.72221
1.72322
1.72397
1.72399
1.72322
1.7222
1.72221
1.72323
1.72403
1.72403
1.72322
1.72221
1.72221
1.72322
1.72405
1.72404
1.7232
1.72221
1.7222
1.72319
1.72405
1.72402
1.72317
1.72219
1.72219
1.72317
1.72404
1.724
1.72314
1.72217
1.72215
1.72312
1.72399
1.72395
1.7231
1.72211
1.72208
1.72309
1.72396
1.72393
1.72305
1.72202
1.72198
1.72303
1.72392
1.72388
1.72298
1.72191
1.72187
1.72296
1.72387
1.7238
1.72288
1.72176
1.72163
1.72281
1.72374
1.72364
1.72268
1.72146
1.72133
1.72258
1.72356
1.7234
1.72241
1.72115
1.72101
1.72229
1.72329
1.72311
1.7221
1.72081
1.72063
1.72196
1.72299
1.7228
1.72176
1.7204
1.72023
1.72161
1.72267
1.72247
1.72141
1.72005
1.71993
1.72129
1.72236
1.72218
1.72112
1.71979
1.71966
1.72102
1.72209
1.72193
1.72087
1.71952
1.71941
1.7208
1.72186
1.72171
1.72066
1.71928
1.71921
1.72058
1.72165
1.7215
1.72044
1.71911
1.71905
1.72037
1.72142
1.72129
1.72026
1.71896
1.71886
1.72019
1.72122
1.72107
1.72005
1.7187
1.71858
1.71995
1.72099
1.72082
1.71979
1.71844
1.71833
1.71967
1.72071
1.72054
1.7195
1.7182
1.71809
1.7194
1.72044
1.72027
1.71925
1.71793
1.7178
1.71915
1.72018
1.72002
1.71899
1.71764
1.71755
1.71891
1.71994
1.71982
1.71879
1.71746
1.71741
1.71873
1.71978
1.71967
1.71863
1.71732
1.71725
1.71859
1.71963
1.71954
1.7185
1.71718
1.71716
1.71848
1.71953
1.71945
1.71842
1.71716
1.71719
1.71841
1.71945
1.71937
1.71836
1.71717
1.71715
1.71834
1.71936
1.71925
1.71825
1.71706
1.71697
1.71819
1.71921
1.71907
1.71807
1.71686
1.71676
1.71798
1.719
1.71886
1.71785
1.71665
1.71657
1.71777
1.71879
1.71866
1.71766
1.71649
1.71644
1.71759
1.71861
1.71852
1.71752
1.7164
1.7164
1.71749
1.71849
1.71842
1.71745
1.71641
1.71643
1.71744
1.71841
1.71835
1.71741
1.71645
1.71646
1.71739
1.71834
1.71827
1.71736
1.71646
1.71645
1.71735
1.71826
1.71821
1.71732
1.71643
1.71642
1.71731
1.71822
1.71821
1.71731
1.71644
1.7165
1.71734
1.71827
1.71829
1.71738
1.71659
1.71671
1.71744
1.71836
1.71838
1.7175
1.71683
1.71695
1.71758
1.71844
1.71846
1.71766
1.71708
1.7172
1.71776
1.71853
1.71856
1.71785
1.71732
1.71743
1.71795
1.71863
1.71869
1.71806
1.71755
1.71767
1.71818
1.7188
1.71889
1.7183
1.71779
1.71792
1.71843
1.71904
1.71915
1.71856
1.71803
1.71815
1.71869
1.71931
1.71943
1.7188
1.71827
1.71839
1.71893
1.71958
1.7197
1.71905
1.71852
1.71864
1.71916
1.71985
1.71995
1.71928
1.71877
1.7189
1.7194
1.72008
1.72018
1.71953
1.71905
1.7192
1.71966
1.7203
1.72041
1.7198
1.71937
1.71954
1.71995
1.72054
1.72067
1.72012
1.71972
1.71991
1.72029
1.72083
1.72099
1.72047
1.72009
1.72027
1.72064
1.72116
1.72132
1.72081
1.72045
1.72061
1.72097
1.72149
1.72165
1.72115
1.72078
1.72093
1.7213
1.72181
1.72194
1.72145
1.72109
1.72123
1.72159
1.72208
1.72221
1.72173
1.72137
1.7215
1.72188
1.72235
1.72245
1.72199
1.72161
1.72174
1.72213
1.72258
1.72267
1.72222
1.72185
1.722
1.72237
1.72282
1.72289
1.72245
1.72213
1.72232
1.72263
1.72306
1.72312
1.7227
1.72243
1.72362
1.72428
1.72508
1.72581
1.7265
1.7281
1.72924
1.72967
1.72992
1.72983
1.72989
1.72983
1.72986
1.72983
1.72983
1.72983
1.72982
1.72982
1.7298
1.72981
1.72978
1.7298
1.72975
1.72979
1.72973
1.72977
1.72971
1.72976
1.72969
1.72973
1.72967
1.72968
1.72969
1.72955
1.72981
1.73002
1.72949
1.72984
1.72991
1.72993
1.72993
1.72993
1.72993
1.72993
1.72994
1.72994
1.72994
1.72994
1.72993
1.72995
1.72979
1.72886
1.72915
1.73093
1.72954
1.72955
1.72953
1.72945
1.72949
1.72995
1.73037
1.72976
1.72989
1.73073
1.73046
1.7315
1.73262
1.73134
1.73166
1.73243
1.73217
1.73339
1.73594
1.73302
1.73305
1.73382
1.73413
1.73919
1.74323
1.73534
1.73471
1.73583
1.73704
1.74746
1.75183
1.74088
1.73776
1.74225
1.7467
1.75666
1.76375
1.75568
1.7514
1.76155
1.76589
1.77235
1.77977
1.77495
1.77106
1.77917
1.78267
1.78606
1.79114
1.78914
1.78638
1.79209
1.79429
1.79512
1.79814
1.79851
1.79721
1.80099
1.80175
1.80036
1.80187
1.80446
1.80437
1.80661
1.80629
1.80281
1.80315
1.8077
1.80863
1.8097
1.80834
1.80311
1.80296
1.80915
1.81101
1.81142
1.80916
1.80249
1.80155
1.80892
1.81155
1.81048
1.80737
1.79951
1.79769
1.80612
1.80947
1.80778
1.80403
1.79527
1.79309
1.80226
1.80609
1.80371
1.79943
1.79004
1.78732
1.79701
1.80118
1.79812
1.79342
1.7836
1.78032
1.79036
1.79474
1.79099
1.78599
1.77588
1.77197
1.78223
1.78665
1.78213
1.77694
1.76666
1.76204
1.77237
1.77664
1.77122
1.76596
1.75566
1.75005
1.76033
1.76428
1.75761
1.75239
1.74219
1.73521
1.7453
1.74866
1.74021
1.73512
1.72518
1.7161
1.72583
1.72831
1.71711
1.7122
1.70265
1.69015
1.69948
1.70057
1.68395
1.67837
1.66978
1.65054
1.65852
1.65543
1.62925
1.6284
1.62208
1.59905
1.60537
1.59989
1.57135
1.57573
1.57029
1.55025
1.55572
1.55
1.52576
1.53095
1.52557
1.51801
1.52228
1.51392
1.49161
1.48975
1.47919
1.46129
1.46447
1.46062
1.4688
1.46376
1.46493
1.46676
1.46404
1.46597
1.462
1.46225
1.46503
1.46037
1.45713
1.44935
1.42837
1.43811
1.44355
1.41964
1.41616
1.40624
1.37739
1.38738
1.39075
1.37976
1.37609
1.35994
1.33315
1.33872
1.34029
1.3045
1.30218
1.29325
1.30077
1.29731
1.30492
1.30146
1.29114
1.28936
1.26849
1.2803
1.29458
1.26973
1.25556
1.24643
1.21562
1.24442
1.25788
1.21916
1.20593
1.181
1.12503
1.14225
1.15769
1.1203
1.10017
1.08957
1.07621
1.09119
1.11147
1.08989
1.06072
1.0383
0.966632
0.987071
1.01903
1.0047
0.977182
0.940192
0.928248
0.962456
1.00464
0.983811
0.953179
0.89096
1.0436
1.10229
1.11177
1.23407
1.21683
1.22968
1.22305
1.23718
1.24077
1.24206
1.23762
1.22859
1.22894
1.23407
1.2386
1.2347
1.23241
1.2297
1.22719
1.22962
1.23148
1.23
1.22738
1.22483
1.22605
1.22813
1.22936
1.22776
1.22656
1.22468
1.22236
1.22407
1.22593
1.2267
1.22595
1.22355
1.22211
1.22395
1.22506
1.22349
1.22198
1.22053
1.2211
1.22372
1.22441
1.22297
1.22212
1.22042
1.21912
1.2203
1.22162
1.22264
1.22206
1.2195
1.21878
1.22047
1.22122
1.21992
1.21868
1.21755
1.21804
1.22053
1.22098
1.21948
1.21883
1.21714
1.21587
1.21687
1.21802
1.21905
1.21855
1.21591
1.21519
1.21689
1.21752
1.2161
1.21499
1.21404
1.21399
1.21665
1.21716
1.21567
1.21514
1.21352
1.21176
1.21285
1.21404
1.21517
1.21472
1.21195
1.21133
1.21299
1.21349
1.21175
1.21049
1.20926
1.20939
1.21242
1.21294
1.21127
1.21069
1.20897
1.20677
1.20781
1.20922
1.21003
1.2092
1.20657
1.20677
1.20771
1.20872
1.20928
1.20891
1.20662
1.20435
1.20627
1.20701
1.20537
1.20412
1.20293
1.20339
1.20612
1.20643
1.20436
1.20352
1.20141
1.20048
1.20167
1.20297
1.2041
1.20372
1.20071
1.19916
1.20108
1.20173
1.19944
1.19785
1.19636
1.19676
1.19957
1.20041
1.19897
1.19784
1.19678
1.19649
1.19921
1.19959
1.19703
1.19598
1.19373
1.1919
1.19331
1.19497
1.1954
1.19492
1.19221
1.19065
1.19191
1.19316
1.19374
1.19299
1.18933
1.18874
1.19115
1.19207
1.19066
1.18924
1.18808
1.18811
1.19145
1.19172
1.18866
1.18754
1.18496
1.18296
1.18489
1.18672
1.18768
1.18688
1.18348
1.18244
1.18368
1.18501
1.18501
1.18422
1.18096
1.17981
1.18179
1.18323
1.18403
1.18358
1.17994
1.17921
1.18164
1.18233
1.17926
1.17785
1.17649
1.17394
1.17805
1.17911
1.17732
1.17576
1.17363
1.17332
1.17758
1.17822
1.17682
1.17615
1.17364
1.17015
1.17174
1.17336
1.17318
1.17188
1.1675
1.16707
1.16899
1.17085
1.17169
1.17051
1.16697
1.16719
1.16904
1.17051
1.17105
1.17078
1.16746
1.16435
1.16694
1.16785
1.16496
1.1628
1.16053
1.1604
1.16447
1.16561
1.16311
1.16108
1.1591
1.15933
1.16285
1.16361
1.1617
1.16012
1.15832
1.15708
1.16168
1.16226
1.159
1.1577
1.1544
1.15242
1.15478
1.15702
1.15791
1.15678
1.15219
1.15102
1.15297
1.1548
1.15482
1.15394
1.14977
1.14834
1.15085
1.15277
1.15362
1.15287
1.14772
1.14646
1.14991
1.15119
1.14948
1.14707
1.14443
1.14497
1.14963
1.15044
1.14639
1.14441
1.14213
1.13989
1.14489
1.14631
1.14393
1.14151
1.13893
1.13929
1.1436
1.14478
1.14356
1.14161
1.13916
1.13912
1.14386
1.14424
1.14095
1.13951
1.13584
1.13324
1.136
1.13853
1.13928
1.13821
1.13289
1.13127
1.1339
1.13621
1.1367
1.13521
1.12981
1.12947
1.13203
1.13443
1.13461
1.13366
1.12904
1.12634
1.12884
1.13108
1.13129
1.1301
1.12506
1.12484
1.12774
1.12986
1.13065
1.1299
1.12435
1.12263
1.12665
1.12817
1.12626
1.12363
1.12095
1.12059
1.12599
1.12694
1.12329
1.12095
1.11807
1.11631
1.12203
1.12361
1.12079
1.11826
1.11561
1.11488
1.11982
1.12108
1.11836
1.11565
1.11287
1.11256
1.11776
1.11897
1.11772
1.11537
1.11219
1.11233
1.11796
1.11844
1.11493
1.11325
1.10918
1.10667
1.10956
1.11232
1.11292
1.1115
1.1054
1.10441
1.10755
1.11047
1.11121
1.10986
1.10425
1.10293
1.1057
1.10842
1.10859
1.10724
1.10187
1.09979
1.10269
1.10548
1.10599
1.10453
1.09866
1.09893
1.10235
1.10488
1.10564
1.10492
1.09878
1.09677
1.10099
1.10254
1.09991
1.09682
1.09341
1.09328
1.09935
1.10079
1.0977
1.09475
1.09147
1.0906
1.09663
1.09829
1.09528
1.09213
1.08886
1.08856
1.09423
1.09573
1.09249
1.08942
1.08623
1.08502
1.09142
1.09311
1.09194
1.08912
1.08543
1.08529
1.09192
1.09274
1.08945
1.08769
1.08305
1.07961
1.08362
1.087
1.08824
1.08679
1.0802
1.07811
1.08155
1.08445
1.08491
1.0829
1.07615
1.07495
1.0786
1.08212
1.08297
1.08117
1.07492
1.07355
1.07683
1.08015
1.08071
1.07909
1.07251
1.07215
1.07598
1.07901
1.07978
1.07895
1.07184
1.06822
1.0734
1.07573
1.07356
1.06985
1.06577
1.06608
1.07329
1.07512
1.07311
1.06954
1.06572
1.06596
1.07252
1.07387
1.06952
1.06648
1.06303
1.0601
1.0674
1.06966
1.06665
1.06312
1.05937
1.05875
1.06559
1.0675
1.06617
1.06286
1.05857
1.05859
1.06591
1.06704
1.06403
1.06211
1.05728
1.05284
1.05731
1.06118
1.06255
1.06092
1.05421
1.05028
1.05415
1.05734
1.05794
1.05517
1.04705
1.04709
1.05137
1.05532
1.0566
1.05438
1.04725
1.04764
1.05217
1.05565
1.05636
1.05544
1.04824
1.04549
1.0506
1.05276
1.0493
1.04534
1.0408
1.04192
1.04877
1.05065
1.04636
1.04245
1.038
1.03655
1.04487
1.0477
1.04536
1.04114
1.03687
1.03747
1.04419
1.04638
1.0445
1.04096
1.03689
1.03636
1.04404
1.04487
1.03973
1.03706
1.03199
1.02708
1.03167
1.03611
1.03789
1.03507
1.02718
1.02554
1.03061
1.03536
1.03708
1.03465
1.02754
1.02751
1.03194
1.03573
1.03614
1.03515
1.02703
1.02396
1.02911
1.03148
1.027
1.02275
1.01828
1.01658
1.02547
1.02872
1.02603
1.02098
1.0156
1.01696
1.02503
1.02797
1.02694
1.02301
1.01825
1.01829
1.0262
1.02723
1.02259
1.02043
1.0152
1.00776
1.01274
1.01698
1.01839
1.01498
1.00616
1.00368
1.00981
1.01556
1.01819
1.01478
1.00606
1.00884
1.01372
1.01746
1.01754
1.01608
1.00832
1.00501
1.01014
1.01233
1.00674
1.00229
0.997531
0.995103
1.00452
1.00831
1.00572
1.00096
0.994339
0.994723
1.00414
1.00703
1.00561
1.00291
0.997133
0.991038
0.996092
1.00086
1.00202
0.999121
0.991246
0.986784
0.992218
0.996454
0.997525
0.993889
0.983073
0.981367
0.989216
0.993772
0.990799
0.984969
0.980207
0.981267
0.988857
0.992716
0.987844
0.983994
0.979528
0.976468
0.984775
0.98744
0.978217
0.973273
0.967271
0.960246
0.966558
0.973728
0.978103
0.972557
0.962301
0.967976
0.972829
0.976631
0.976144
0.973666
0.967211
0.954848
0.960791
0.965075
0.957634
0.951653
0.945337
0.94177
0.954311
0.959995
0.958678
0.953393
0.944618
0.946713
0.950551
0.955011
0.955011
0.951856
0.945564
0.930771
0.936737
0.941664
0.933778
0.926866
0.918295
0.917776
0.930677
0.936397
0.93218
0.928712
0.923298
0.911675
0.914924
0.919973
0.915785
0.910748
0.903058
0.882737
0.890126
0.896868
0.887055
0.87894
0.868411
0.875436
0.88117
0.884644
0.862492
0.860645
0.856057
0.822492
0.832868
0.840842
0.836206
0.827321
0.809735
0.811771
0.823606
0.829943
0.823534
0.817177
0.808812
0.802114
0.818013
0.828029
0.829214
0.822268
0.806008
0.807789
0.82138
0.828559
0.830689
0.821664
0.811562
0.818333
0.843678
0.85263
0.865925
0.862155
0.837897
0.859813
0.874245
0.881898
0.904696
0.896537
0.868942
0.922219
0.933227
0.941581
0.969224
0.95934
0.948828
0.99346
0.999069
1.00426
1.03817
1.04145
1.04204
1.08171
1.07792
1.07267
1.1005
1.10646
1.1066
1.11869
1.1179
1.11374
1.12971
1.13415
1.13478
1.14551
1.14474
1.14052
1.15173
1.15608
1.15697
1.16528
1.16433
1.16009
1.16867
1.17306
1.17409
1.18069
1.17963
1.17543
1.18232
1.18667
1.18777
1.19313
1.19208
1.18793
1.19365
1.19792
1.19898
1.20349
1.20251
1.19845
1.20334
1.20748
1.20843
1.2123
1.21146
1.20753
1.21179
1.21577
1.21656
1.21991
1.21926
1.21549
1.21927
1.22305
1.22364
1.22659
1.22616
1.2226
1.22599
1.22954
1.22989
1.23251
1.23233
1.229
1.23207
1.23535
1.23546
1.23781
1.23788
1.23482
1.23764
1.24062
1.24047
1.24259
1.24293
1.24017
1.24276
1.24543
1.24501
1.24693
1.24753
1.2451
1.2475
1.24982
1.24915
1.2509
1.25176
1.24967
1.2519
1.25387
1.25294
1.25456
1.25566
1.25392
1.25601
1.2576
1.25645
1.25794
1.25927
1.2579
1.25985
1.26107
1.2597
1.26109
1.26262
1.26162
1.26344
1.2643
1.26274
1.26404
1.26574
1.26511
1.26682
1.26732
1.26559
1.26682
1.26867
1.26839
1.27
1.27015
1.26829
1.26945
1.27142
1.27147
1.27298
1.27281
1.27084
1.27196
1.27402
1.27437
1.27579
1.27533
1.27328
1.27435
1.27648
1.2771
1.27844
1.27772
1.27562
1.27665
1.27882
1.27969
1.28096
1.28001
1.27787
1.27887
1.28106
1.28215
1.28336
1.2822
1.28004
1.28101
1.2832
1.28448
1.28563
1.2843
1.28214
1.28308
1.28527
1.2867
1.2878
1.28632
1.28418
1.2851
1.28726
1.28882
1.28987
1.28827
1.28616
1.28706
1.28918
1.29085
1.29185
1.29016
1.28809
1.28897
1.29105
1.29279
1.29375
1.292
1.28997
1.29083
1.29287
1.29465
1.29558
1.29379
1.29181
1.29266
1.29464
1.29645
1.29735
1.29555
1.29362
1.29445
1.29638
1.29819
1.29907
1.29727
1.29538
1.2962
1.29808
1.29989
1.30074
1.29895
1.29711
1.29792
1.29975
1.30154
1.30237
1.3006
1.29881
1.29961
1.30139
1.30315
1.30397
1.30223
1.30048
1.30126
1.30301
1.30474
1.30554
1.30384
1.30212
1.3029
1.30461
1.3063
1.30709
1.30542
1.30374
1.3045
1.30617
1.30783
1.30861
1.30697
1.30533
1.30608
1.30772
1.30935
1.31012
1.30851
1.30689
1.30763
1.30925
1.31085
1.31161
1.31003
1.30843
1.30917
1.31076
1.31234
1.31309
1.31153
1.30996
1.31068
1.31226
1.31381
1.31455
1.31302
1.31146
1.31218
1.31374
1.31527
1.31601
1.31449
1.31295
1.31366
1.3152
1.31672
1.31745
1.31594
1.31442
1.31512
1.31664
1.31815
1.31887
1.31737
1.31586
1.31655
1.31806
1.31956
1.32027
1.31878
1.31728
1.31796
1.31946
1.32095
1.32165
1.32016
1.31868
1.31935
1.32084
1.32232
1.323
1.32153
1.32005
1.32071
1.32219
1.32367
1.32434
1.32287
1.3214
1.32205
1.32352
1.32499
1.32566
1.3242
1.32273
1.32338
1.32484
1.32631
1.32697
1.32551
1.32405
1.32469
1.32615
1.32761
1.32826
1.3268
1.32536
1.32599
1.32744
1.32889
1.32954
1.32809
1.32665
1.32728
1.32872
1.33017
1.33081
1.32936
1.32793
1.32855
1.32999
1.33143
1.33206
1.33062
1.3292
1.32982
1.33124
1.33268
1.33331
1.33188
1.33046
1.33107
1.33249
1.33393
1.33455
1.33312
1.33171
1.33232
1.33373
1.33516
1.33578
1.33435
1.33294
1.33355
1.33495
1.33638
1.337
1.33557
1.33417
1.33477
1.33617
1.3376
1.3382
1.33678
1.33538
1.33598
1.33737
1.3388
1.3394
1.33798
1.33659
1.33718
1.33857
1.33999
1.34058
1.33917
1.33778
1.33837
1.33975
1.34117
1.34176
1.34035
1.33897
1.33955
1.34093
1.34235
1.34293
1.34152
1.34015
1.34073
1.3421
1.34351
1.34409
1.34268
1.34131
1.34189
1.34326
1.34467
1.34525
1.34384
1.34247
1.34305
1.34441
1.34582
1.34639
1.34499
1.34363
1.34419
1.34555
1.34696
1.34753
1.34613
1.34477
1.34534
1.34669
1.34809
1.34866
1.34726
1.34591
1.34647
1.34782
1.34922
1.34979
1.34839
1.34704
1.3476
1.34894
1.35035
1.35091
1.34951
1.34816
1.34872
1.35006
1.35146
1.35202
1.35062
1.34928
1.34984
1.35117
1.35258
1.35313
1.35173
1.35039
1.35095
1.35228
1.35368
1.35424
1.35284
1.3515
1.35205
1.35338
1.35478
1.35533
1.35393
1.3526
1.35315
1.35448
1.35588
1.35643
1.35503
1.3537
1.35424
1.35557
1.35697
1.35751
1.35611
1.35479
1.35533
1.35665
1.35806
1.3586
1.3572
1.35587
1.35641
1.35773
1.35914
1.35968
1.35827
1.35695
1.35748
1.35881
1.36021
1.36075
1.35934
1.35802
1.35855
1.35988
1.36128
1.36182
1.36041
1.35909
1.35962
1.36094
1.36235
1.36288
1.36148
1.36015
1.36068
1.36201
1.36342
1.36395
1.36253
1.36121
1.36174
1.36306
1.36447
1.365
1.36359
1.36226
1.36279
1.36411
1.36553
1.36605
1.36464
1.36331
1.36383
1.36516
1.36658
1.3671
1.36568
1.36435
1.36487
1.3662
1.36763
1.36815
1.36672
1.36539
1.36591
1.36724
1.36867
1.36919
1.36776
1.36643
1.36694
1.36827
1.36971
1.37023
1.36879
1.36746
1.36797
1.3693
1.37075
1.37126
1.36982
1.36848
1.36899
1.37033
1.37178
1.3723
1.37084
1.3695
1.37001
1.37135
1.37281
1.37333
1.37186
1.37052
1.37103
1.37237
1.37384
1.37435
1.37288
1.37153
1.37204
1.37339
1.37486
1.37537
1.37389
1.37254
1.37304
1.3744
1.37588
1.37639
1.3749
1.37354
1.37405
1.3754
1.3769
1.37741
1.37591
1.37455
1.37504
1.37641
1.37792
1.37842
1.37691
1.37554
1.37604
1.37741
1.37893
1.37943
1.37791
1.37653
1.37703
1.3784
1.37994
1.38044
1.3789
1.37752
1.37801
1.37939
1.38094
1.38145
1.37989
1.3785
1.37899
1.38038
1.38195
1.38245
1.38087
1.37948
1.37997
1.38137
1.38295
1.38345
1.38186
1.38045
1.38094
1.38234
1.38394
1.38444
1.38283
1.38142
1.38191
1.38332
1.38494
1.38543
1.38381
1.38239
1.38287
1.38429
1.38593
1.38642
1.38478
1.38335
1.38383
1.38526
1.38692
1.38741
1.38574
1.38431
1.38478
1.38622
1.3879
1.38839
1.3867
1.38526
1.38573
1.38718
1.38888
1.38937
1.38766
1.38621
1.38668
1.38814
1.38986
1.39035
1.38861
1.38715
1.38762
1.38909
1.39084
1.39133
1.38956
1.38809
1.38856
1.39004
1.39181
1.3923
1.39051
1.38903
1.3895
1.39098
1.39278
1.39327
1.39145
1.38997
1.39043
1.39192
1.39376
1.39424
1.39239
1.3909
1.39137
1.39286
1.39473
1.39521
1.39333
1.39183
1.39229
1.3938
1.39569
1.39617
1.39427
1.39276
1.39322
1.39473
1.39665
1.39714
1.3952
1.39368
1.39414
1.39567
1.39762
1.3981
1.39613
1.3946
1.39507
1.3966
1.39858
1.39906
1.39706
1.39553
1.39599
1.39753
1.39954
1.40002
1.39799
1.39645
1.39691
1.39846
1.4005
1.40098
1.39892
1.39737
1.39783
1.39939
1.40146
1.40194
1.39985
1.39829
1.39875
1.40031
1.40243
1.40291
1.40078
1.39922
1.39968
1.40125
1.40339
1.40387
1.40171
1.40014
1.40061
1.40218
1.40435
1.40484
1.40265
1.40107
1.40154
1.40311
1.40532
1.40581
1.40359
1.40201
1.40248
1.40406
1.4063
1.40679
1.40453
1.40295
1.40342
1.40501
1.40728
1.40777
1.40548
1.4039
1.40438
1.40596
1.40826
1.40876
1.40645
1.40486
1.40534
1.40693
1.40926
1.40976
1.40742
1.40582
1.40631
1.40791
1.41027
1.41077
1.4084
1.4068
1.40729
1.4089
1.41129
1.4118
1.4094
1.40779
1.40829
1.4099
1.41232
1.41284
1.41041
1.40879
1.4093
1.41092
1.41337
1.4139
1.41144
1.40981
1.41032
1.41196
1.41444
1.41498
1.41249
1.41084
1.41136
1.41302
1.41553
1.41608
1.41355
1.41189
1.41242
1.41409
1.41664
1.41721
1.41464
1.41295
1.41349
1.41519
1.41778
1.41836
1.41574
1.41404
1.41459
1.41631
1.41895
1.41955
1.41688
1.41514
1.4157
1.41745
1.42016
1.42078
1.41804
1.41627
1.41684
1.41863
1.4214
1.42204
1.41922
1.41742
1.418
1.41983
1.42269
1.42334
1.42044
1.41859
1.41918
1.42106
1.424
1.42468
1.42169
1.41978
1.42038
1.42232
1.42537
1.42606
1.42297
1.42099
1.42161
1.42362
1.42677
1.42749
1.42428
1.42223
1.42286
1.42495
1.42822
1.42895
1.42562
1.42349
1.42413
1.4263
1.4297
1.43045
1.42699
1.42478
1.42543
1.42769
1.43122
1.432
1.4284
1.42609
1.42676
1.42912
1.43278
1.43358
1.42984
1.42743
1.42811
1.43057
1.43439
1.43521
1.43132
1.4288
1.4295
1.43207
1.43603
1.43687
1.43283
1.4302
1.43091
1.4336
1.43771
1.43856
1.43438
1.43163
1.43236
1.43517
1.43943
1.4403
1.43597
1.43309
1.43384
1.43678
1.44118
1.44206
1.4376
1.43459
1.43535
1.43844
1.44296
1.44386
1.43928
1.43613
1.43691
1.44014
1.44477
1.44569
1.44101
1.43771
1.43851
1.44189
1.44662
1.44755
1.44278
1.43933
1.44015
1.44368
1.44849
1.44944
1.4446
1.44099
1.44184
1.44553
1.4504
1.45136
1.44647
1.44271
1.44358
1.44742
1.45233
1.4533
1.44839
1.44447
1.44537
1.44937
1.45429
1.45528
1.45037
1.4463
1.44722
1.45138
1.45628
1.45729
1.45241
1.44818
1.44913
1.45344
1.4583
1.45932
1.45449
1.45012
1.45111
1.45556
1.46035
1.46139
1.45664
1.45213
1.45315
1.45773
1.46244
1.46349
1.45884
1.4542
1.45527
1.45996
1.46456
1.46564
1.4611
1.45636
1.45746
1.46225
1.46672
1.46782
1.46342
1.45859
1.45973
1.4646
1.46892
1.47003
1.4658
1.4609
1.46208
1.467
1.47116
1.4723
1.46823
1.4633
1.46452
1.46947
1.47345
1.47461
1.47073
1.46578
1.46704
1.47199
1.47579
1.47697
1.47328
1.46834
1.46965
1.47457
1.47817
1.47939
1.47589
1.47099
1.47234
1.47721
1.48062
1.48186
1.47856
1.47372
1.47511
1.47991
1.48311
1.48439
1.48129
1.47654
1.47797
1.48267
1.48568
1.48698
1.48408
1.47943
1.4809
1.48549
1.4883
1.48963
1.48693
1.4824
1.48391
1.48838
1.49099
1.49237
1.48986
1.48546
1.48702
1.49135
1.49376
1.49517
1.49286
1.48862
1.49023
1.49438
1.4966
1.49805
1.49593
1.49188
1.49353
1.4975
1.49953
1.50101
1.49908
1.49522
1.49692
1.50068
1.50253
1.50405
1.5023
1.49865
1.50039
1.50393
1.5056
1.50715
1.50558
1.50217
1.50395
1.50725
1.50874
1.51033
1.50892
1.50576
1.50757
1.51062
1.51194
1.51356
1.51232
1.50941
1.51125
1.51403
1.51519
1.51684
1.51575
1.51311
1.51496
1.51747
1.51849
1.52015
1.5192
1.51684
1.51869
1.52092
1.52181
1.52347
1.52265
1.52056
1.5224
1.52436
1.52512
1.52677
1.52606
1.52425
1.52606
1.52774
1.52839
1.53
1.5294
1.52786
1.52961
1.53103
1.53157
1.53312
1.53262
1.53134
1.53301
1.53418
1.53463
1.53609
1.53569
1.53464
1.5362
1.53714
1.5375
1.53885
1.53853
1.5377
1.53911
1.53985
1.54012
1.54133
1.54109
1.54045
1.54169
1.54224
1.54244
1.54347
1.54331
1.54284
1.54386
1.54426
1.54439
1.5452
1.54511
1.54479
1.54556
1.54582
1.54589
1.54646
1.54641
1.54622
1.54672
1.54687
1.54689
1.54719
1.54717
1.54707
1.54726
1.54733
1.54731
1.54719
1.54721
1.54715
1.54683
1.54685
1.54684
1.54627
1.54631
1.54637
1.54556
1.54555
1.5454
1.54445
1.54466
1.54463
1.5432
1.54326
1.54308
1.54151
1.54172
1.54161
1.53916
1.5393
1.53905
1.53643
1.5367
1.53645
1.53266
1.53287
1.53253
1.52847
1.52878
1.52841
1.52199
1.52225
1.52173
1.52034
1.52097
1.5205
1.51862
1.51732
1.51539
1.5133
1.51251
1.51187
1.51153
1.51129
1.51112
1.51087
1.51054
1.51008
1.50966
1.50936
1.5092
1.50918
1.50927
1.50926
1.5092
1.5081
1.50871
1.50848
1.50839
1.50824
1.50794
1.50809
1.50828
1.50723
1.50258
1.48247
1.4491
1.41147
1.37298
1.35315
1.34769
1.34396
1.34081
1.33814
1.33588
1.33368
1.33176
1.33031
1.32949
1.32941
1.33026
1.3322
1.33542
1.34007
1.34658
1.35552
1.36739
1.38251
1.40077
1.42133
1.44266
1.46301
1.48132
1.49695
1.50993
1.52009
1.5276
1.53287
1.53574
1.53715
1.53931
1.53766
1.53481
1.53224
1.52961
1.52692
1.52426
1.52162
1.51902
1.51645
1.51393
1.51145
1.50901
1.50662
1.50429
1.50201
1.4998
1.49765
1.49559
1.49361
1.49173
1.48994
1.48825
1.48665
1.48516
1.48376
1.48244
1.4812
1.48001
1.47888
1.47778
1.47669
1.4756
1.47449
1.47334
1.47212
1.47083
1.46944
1.46795
1.46634
1.46459
1.4627
1.46067
1.4585
1.45618
1.45373
1.45116
1.44847
1.44568
1.44281
1.43988
1.4369
1.4339
1.43089
1.4279
1.42493
1.422
1.41912
1.4163
1.41355
1.41087
1.40827
1.40575
1.40331
1.40094
1.39866
1.39646
1.39433
1.39228
1.3903
1.3884
1.38656
1.38478
1.38307
1.38141
1.37982
1.37831
1.37689
1.37557
1.37437
1.37332
1.37252
1.372
1.37174
1.37161
1.37154
1.3715
1.37146
1.37156
1.37183
1.37197
1.37198
1.37193
1.37186
1.3718
1.37148
1.37075
1.36961
1.36796
1.36574
1.3629
1.35942
1.35531
1.35061
1.34538
1.33972
1.33376
1.32761
1.32138
1.31515
1.30898
1.30286
1.29674
1.29056
1.2842
1.27758
1.27061
1.2633
1.25567
1.24787
1.24006
1.23248
1.22543
1.21939
1.21563
1.21418
1.21361
1.2134
1.21336
1.2134
1.21406
1.21679
1.22044
1.22526
1.23121
1.23824
1.24634
1.25546
1.26558
1.27666
1.28868
1.30162
1.31544
1.33012
1.34564
1.36197
1.3791
1.39699
1.41562
1.43495
1.45495
1.47557
1.49676
1.51847
1.54063
1.56316
1.58598
1.60899
1.6321
1.65516
1.67807
1.70067
1.72282
1.74435
1.76509
1.78488
1.80353
1.8209
1.83682
1.85114
1.86374
1.8745
1.88337
1.89041
1.89596
1.89862
1.89923
1.89879
1.89711
1.89321
1.88975
1.88472
1.87875
1.87202
1.86473
1.85702
1.84905
1.84097
1.8329
1.82502
1.81752
1.81064
1.80463
1.79965
1.79561
1.79201
1.78881
1.78571
1.78267
1.77996
1.77777
1.77585
1.774
1.77218
1.77041
1.76867
1.76697
1.76532
1.76372
1.76216
1.76064
1.75917
1.7578
1.75656
1.75548
1.75456
1.75372
1.75292
1.75217
1.75148
1.75084
1.75024
1.7497
1.74919
1.74885
1.74858
1.74831
1.74793
1.7475
1.74706
1.74669
1.74638
1.74568
1.7456
1.74558
1.7462
1.74412
1.74286
1.74261
1.74272
1.74291
1.74309
1.74291
1.74254
1.74218
1.74168
1.74102
1.741
1.74117
1.74116
1.74141
1.74157
1.74158
1.74241
1.74261
1.74264
1.74287
1.74307
1.74343
1.74396
1.74383
1.74391
1.74421
1.74431
1.74409
1.74377
1.74367
1.74319
1.74323
1.74264
1.74189
1.74171
1.74159
1.74156
1.74149
1.74099
1.74131
1.74148
1.7411
1.74119
1.7416
1.74188
1.74205
1.74207
1.74188
1.74198
1.74236
1.74188
1.74171
1.74213
1.74191
1.74135
1.74143
1.74138
1.74116
1.74149
1.74194
1.74181
1.7415
1.74142
1.74127
1.74115
1.741
1.74079
1.74076
1.74085
1.74072
1.74066
1.74083
1.74089
1.74087
1.74088
1.74086
1.74073
1.74065
1.74064
1.74051
1.74033
1.74034
1.74059
1.74081
1.74089
1.74093
1.74101
1.74105
1.74098
1.74077
1.74057
1.74051
1.74057
1.74056
1.74038
1.74012
1.73995
1.73991
1.73992
1.73991
1.73983
1.73956
1.73957
1.73956
1.73919
1.73883
1.73848
1.73816
1.73786
1.73759
1.73735
1.73714
1.73696
1.7368
1.73665
1.73652
1.73636
1.73619
1.73598
1.73574
1.73544
1.73511
1.73472
1.73431
1.73385
1.73338
1.73288
1.73238
1.73188
1.73139
1.73091
1.73046
1.73003
1.72965
1.72929
1.72897
1.72867
1.7284
1.72814
1.7279
1.72766
1.72742
1.72718
1.72693
1.72668
1.72642
1.72618
1.72594
1.72572
1.72552
1.72534
1.72519
1.72506
1.72496
1.72488
1.72481
1.72476
1.72472
1.72469
1.72466
1.72464
1.7246
1.72457
1.72453
1.72449
1.72445
1.72442
1.72439
1.72438
1.72437
1.72437
1.72438
1.72439
1.72441
1.72442
1.72443
1.72444
1.72444
1.72444
1.72443
1.72442
1.7244
1.72437
1.72433
1.72428
1.72422
1.72416
1.72409
1.72402
1.72395
1.72388
1.72381
1.72375
1.72369
1.72363
1.72357
1.72352
1.72347
1.72344
1.72343
1.72343
1.72345
1.72347
1.7235
1.72354
1.72359
1.72364
1.72369
1.72375
1.72386
1.72389
1.72385
1.72384
1.72395
1.72414
1.72429
1.72438
1.72447
1.72452
1.7246
1.72465
1.72472
1.72476
1.72481
1.72483
1.72486
1.72486
1.72488
1.72486
1.72486
1.72483
1.72484
1.72481
1.72482
1.72478
1.72478
1.72472
1.72467
1.72457
1.72451
1.72437
1.72427
1.72411
1.72399