/*--------------------------------*- C++ -*----------------------------------*\
| =========                 |                                                 |
| \\      /  F ield         | OpenFOAM: The Open Source CFD Toolbox           |
|  \\    /   O peration     | Version:  v2006                                 |
|   \\  /    A nd           | Website:  www.openfoam.com                      |
|    \\/     M anipulation  |                                                 |
\*---------------------------------------------------------------------------*/
FoamFile
{
    version     2.0;
    format      ascii;
    class       volScalarField;
    location    "0.038";
    object      nut;
}
// * * * * * * * * * * * * * * * * * * * * * * * * * * * * * * * * * * * * * //

dimensions      [0 2 -1 0 0 0 0];


internalField   nonuniform List<scalar> 
10108
(
18.1237
80.0032
30.9155
25.9685
21.024
8.71725
2.75899
1.21935
0.732624
0.541976
0.452612
0.402636
0.368684
0.341463
0.317762
0.296693
0.278073
0.261805
0.2477
0.235486
0.224865
0.215565
0.20736
0.200078
0.193586
0.187784
0.182596
0.177963
0.173837
0.17018
0.166959
0.164151
0.161736
0.159697
0.158026
0.156715
0.15576
0.15516
0.154928
0.155072
0.155602
0.156542
0.157918
0.159773
0.162161
0.165157
0.168857
0.173379
0.178849
0.185375
0.193002
0.201704
0.211488
0.222836
0.237709
0.262133
0.311797
0.427131
0.720979
1.51419
3.33743
4.97452
3.73835
4.59997
1.48008
0.661636
0.343291
0.189953
0.0888869
0.0182785
0.00337526
0.000113181
9.78725e-05
0.00165754
0.00725707
0.0046252
0.00121388
8.77808e-05
7.89193e-05
0.00105967
0.00372272
0.00317917
0.000964635
7.41923e-05
6.91168e-05
0.00088024
0.00283737
0.00256547
0.000830682
6.5749e-05
6.29365e-05
0.000787335
0.00241392
0.00225227
0.000753081
6.05374e-05
5.89815e-05
0.000738689
0.00217464
0.0020564
0.00071023
5.73423e-05
5.63207e-05
0.000702492
0.00201341
0.00192581
0.000679577
5.50827e-05
5.43563e-05
0.00067471
0.0018948
0.00182394
0.000655579
5.33907e-05
5.2843e-05
0.000651964
0.00180022
0.00174011
0.000635695
5.20685e-05
5.1633e-05
0.000632574
0.00172143
0.00166892
0.00061852
5.09832e-05
5.06238e-05
0.000615746
0.00165385
0.00160707
0.000603313
5.00651e-05
4.97601e-05
0.000600829
0.0015946
0.00155249
0.00058964
4.92678e-05
4.9002e-05
0.000587373
0.00154173
0.0015036
0.000577149
4.85592e-05
4.83224e-05
0.000575084
0.00149417
0.00145928
0.000565641
4.79174e-05
4.77027e-05
0.000563759
0.00145091
0.00141872
0.000554955
4.73273e-05
4.71299e-05
0.00055324
0.00141123
0.00138133
0.000544966
4.6778e-05
4.65943e-05
0.000543401
0.00137458
0.0013466
0.000535568
4.62615e-05
4.60887e-05
0.000534133
0.00134049
0.00131411
0.00052667
4.57713e-05
4.56075e-05
0.000525349
0.00130859
0.00128364
0.000518198
4.53025e-05
4.51458e-05
0.000516984
0.00127863
0.00125495
0.000510101
4.48509e-05
4.47e-05
0.000508984
0.00125038
0.00122783
0.000502333
4.44131e-05
4.42669e-05
0.000501302
0.00122364
0.00120208
0.000494848
4.39865e-05
4.38439e-05
0.000493896
0.00119821
0.00117754
0.00048761
4.35684e-05
4.34287e-05
0.000486728
0.00117394
0.00115406
0.000480581
4.31566e-05
4.30192e-05
0.000479762
0.0011507
0.00113151
0.000473728
4.27492e-05
4.26133e-05
0.000472963
0.00112834
0.00110977
0.000467015
4.23443e-05
4.22093e-05
0.000466297
0.00110676
0.00108875
0.000460413
4.194e-05
4.18053e-05
0.000459734
0.00108586
0.00106833
0.000453891
4.15347e-05
4.13998e-05
0.000453244
0.00106554
0.00104842
0.000447422
4.11266e-05
4.09909e-05
0.0004468
0.00104571
0.00102894
0.000440975
4.07141e-05
4.0577e-05
0.000440373
0.00102626
0.0010098
0.000434526
4.02953e-05
4.01563e-05
0.000433939
0.00100713
0.000990912
0.00042805
3.98683e-05
3.97267e-05
0.000427479
0.000988249
0.000972233
0.000421533
3.94315e-05
3.92866e-05
0.000420954
0.000969552
0.000953704
0.000414951
3.89827e-05
3.88341e-05
0.000414377
0.000950997
0.00093529
0.000408308
3.85205e-05
3.83679e-05
0.000407739
0.000932551
0.000916961
0.000401592
3.80436e-05
3.78867e-05
0.000401028
0.000914185
0.00089869
0.000394793
3.75505e-05
3.73891e-05
0.00039424
0.000895879
0.000880466
0.000387912
3.70401e-05
3.68738e-05
0.00038738
0.000877683
0.000862315
0.000380959
3.65109e-05
3.63398e-05
0.000380468
0.000859636
0.000844274
0.000373961
3.59623e-05
3.57865e-05
0.000373532
0.000841718
0.000826374
0.000366953
3.5394e-05
3.52136e-05
0.000366617
0.000824028
0.000808736
0.000359992
3.48061e-05
3.46213e-05
0.000359773
0.000806705
0.00079153
0.000353203
3.42001e-05
3.40117e-05
0.000353103
0.00078996
0.000774987
0.000346666
3.35784e-05
3.33878e-05
0.000346741
0.000774055
0.000759412
0.000340527
3.29449e-05
3.27548e-05
0.000340841
0.000759101
0.000745073
0.000334935
3.23061e-05
3.21198e-05
0.00033558
0.000745736
0.000732478
0.000330089
3.16706e-05
3.14923e-05
0.000331161
0.000734365
0.000722078
0.000326201
3.10494e-05
3.08838e-05
0.000327795
0.000725407
0.000714269
0.000323465
3.04548e-05
3.03068e-05
0.000325662
0.000719272
0.000709447
0.000322027
2.99002e-05
2.97739e-05
0.000324865
0.000716327
0.000707853
0.000321959
2.93976e-05
2.92959e-05
0.000325393
0.000716684
0.000709664
0.00032314
2.89566e-05
2.88792e-05
0.000327051
0.000720192
0.00071458
0.000325312
2.85823e-05
2.85215e-05
0.00032951
0.000726318
0.000722259
0.000328188
2.82759e-05
2.822e-05
0.00033213
0.000734287
0.00073099
0.000329876
2.8048e-05
2.79739e-05
0.000333381
0.000742695
0.000739818
0.000330532
2.78325e-05
2.77435e-05
0.000333742
0.000751295
0.000748183
0.000330783
2.76107e-05
2.75179e-05
0.000333614
0.00075903
0.000755373
0.000330642
2.73922e-05
2.73065e-05
0.000332995
0.000765299
0.000760967
0.000329984
2.71888e-05
2.7121e-05
0.000331891
0.000769891
0.000764937
0.000328856
2.70112e-05
2.69541e-05
0.000330387
0.000772843
0.000767448
0.000327382
2.68528e-05
2.68035e-05
0.000328619
0.000774442
0.000768705
0.000325692
2.67114e-05
2.66686e-05
0.000326672
0.000774926
0.00076909
0.000323888
2.65856e-05
2.65487e-05
0.000324681
0.000774554
0.000768828
0.000322069
2.6474e-05
2.6456e-05
0.000322761
0.000773645
0.000767971
0.000320314
2.63653e-05
2.63655e-05
0.00032091
0.00077227
0.000766742
0.000318575
2.62701e-05
2.62901e-05
0.000319131
0.000770656
0.000765265
0.00031726
2.61574e-05
2.63309e-05
0.000318541
0.000770283
0.000772359
0.000317801
2.62677e-05
2.69108e-05
0.000324027
0.000785569
0.000795991
0.000327462
2.69361e-05
2.74148e-05
0.000324353
0.000790322
0.000823172
0.000339403
2.75038e-05
3.43376e-05
0.000339175
0.000832578
0.00233361
0.00453722
0.0071214
0.0100273
0.0128026
0.0159134
0.0187891
0.021456
0.0236894
0.0254599
0.0266379
0.0271651
0.0269715
0.0260283
0.0243984
0.0221215
0.0194426
0.016451
0.0136348
0.0105201
0.00725012
0.00476149
0.00337082
0.00156251
0.000442638
0.000189603
2.23425e-05
1.53418e-05
0.000176938
0.000380374
0.000114495
4.49603e-05
1.02824e-05
1.21159e-05
0.000112769
0.000294334
0.000272614
0.000101665
1.2809e-05
1.29031e-05
0.00011396
0.000302324
0.000281501
0.000104371
1.27728e-05
1.27865e-05
0.000109233
0.000292571
0.000279597
0.000103087
1.26804e-05
1.27469e-05
0.000109043
0.000292101
0.000282759
0.000104037
1.26131e-05
1.27312e-05
0.000109254
0.000297318
0.000287847
0.000104903
1.2712e-05
1.28413e-05
0.000110917
0.000303182
0.000294524
0.000107023
1.28101e-05
1.29306e-05
0.000112783
0.000309792
0.000300931
0.000108813
1.2909e-05
1.30349e-05
0.00011475
0.000316672
0.000307645
0.000110704
1.30127e-05
1.31439e-05
0.000116831
0.000323944
0.000314726
0.000112696
1.31213e-05
1.32584e-05
0.000119014
0.000331511
0.000322085
0.00011479
1.32351e-05
1.33783e-05
0.000121324
0.00033953
0.000329809
0.000117001
1.33543e-05
1.35038e-05
0.000123742
0.000347885
0.00033797
0.000119313
1.34788e-05
1.36355e-05
0.000126292
0.000356668
0.000346483
0.000121753
1.36099e-05
1.37733e-05
0.000128956
0.000365876
0.000355471
0.000124291
1.37473e-05
1.39178e-05
0.000131746
0.000375566
0.000364861
0.00012695
1.38908e-05
1.40685e-05
0.00013463
0.00038572
0.000374744
0.00012968
1.40403e-05
1.42255e-05
0.000137592
0.000396343
0.00038507
0.000132461
1.41956e-05
1.43893e-05
0.000140562
0.000407348
0.000395587
0.000135209
1.43581e-05
1.45662e-05
0.000143479
0.000418807
0.000406564
0.000137826
1.45358e-05
1.47744e-05
0.00014629
0.000430953
0.000418514
0.000140304
1.47537e-05
1.50324e-05
0.000149294
0.000445466
0.000433907
0.000143218
1.50598e-05
1.54e-05
0.000153819
0.000465348
0.000456191
0.000148682
1.54541e-05
1.57942e-05
0.000164016
0.000497175
0.000487156
0.000158629
1.5738e-05
1.60369e-05
0.000176156
0.000534739
0.000521835
0.000169112
1.60053e-05
1.65654e-05
0.000188044
0.000574687
0.000564146
0.000185824
1.67177e-05
1.72523e-05
0.000199442
0.000614751
0.000611816
0.000204829
1.7665e-05
1.83996e-05
0.00022084
0.000663393
0.000658516
0.000218279
1.89929e-05
2.04995e-05
0.000241995
0.000722579
0.000716427
0.00023543
2.21459e-05
2.52849e-05
0.000266184
0.000783399
0.000798155
0.000271223
2.85195e-05
3.52711e-05
0.000332923
0.000891905
0.000891779
0.000399396
2.76752e-05
1.54693e-05
8.81198e-05
0.000290035
0.000810813
0.000273977
2.2232e-05
2.619e-05
0.000267221
0.000820947
0.00102516
0.000350432
3.21119e-05
3.61922e-05
0.000367407
0.00106633
0.00121953
0.000430968
4.46248e-05
5.43269e-05
0.000495846
0.00134275
0.00133769
0.000578376
4.55288e-05
2.26609e-05
0.00013972
0.000471154
0.00119251
0.000433426
3.89612e-05
4.90006e-05
0.00042494
0.00124006
0.00152457
0.000543549
7.20083e-05
6.42076e-05
0.000651197
0.00161272
0.000650729
0.000198116
3.24876e-05
6.76621e-05
0.000625938
0.00169984
0.00215355
0.000787384
9.42647e-05
9.51445e-05
0.000974707
0.00247942
0.00188704
0.00077262
7.38519e-05
9.14277e-05
0.000926105
0.00130296
0.00109182
0.000697922
7.32182e-05
5.92201e-05
0.000721531
0.00157649
0.00291363
0.00141644
9.04472e-05
6.18228e-05
0.000271978
0.000760418
0.00134921
0.000575051
6.39796e-05
6.70413e-05
0.000454469
0.00114555
0.000347761
0.00012821
3.45059e-05
4.07868e-05
0.000383641
0.000782635
0.000731429
0.000328101
4.62997e-05
2.62258e-05
0.000105074
0.000262936
0.000634165
0.000322809
3.2392e-05
3.73508e-05
0.000272129
0.000590813
0.000216768
9.25037e-05
2.26694e-05
2.77568e-05
0.000282038
0.000543519
0.000507916
0.00023963
3.27289e-05
2.0286e-05
8.29444e-05
0.000188315
0.00047885
0.000250351
2.47065e-05
2.92021e-05
0.00021127
0.000444144
0.000165801
7.48372e-05
1.86684e-05
2.24645e-05
0.000224907
0.000429053
0.000396996
0.000191504
2.69567e-05
1.76837e-05
6.94167e-05
0.000150006
0.000388759
0.000203838
2.07543e-05
2.50961e-05
0.000173143
0.000353813
0.000135917
6.48662e-05
1.68427e-05
1.94124e-05
0.000185336
0.000352247
0.000319442
0.000159679
2.36094e-05
1.61074e-05
6.10658e-05
0.000124119
0.000318255
0.000168654
1.82198e-05
2.23073e-05
0.000145661
0.000287082
0.000113824
5.71016e-05
1.55167e-05
1.71068e-05
0.000153508
0.000286638
0.000260127
0.000132643
2.0915e-05
1.49716e-05
5.26598e-05
0.000104073
0.000254962
0.000139702
1.57068e-05
1.92598e-05
0.000118099
0.000228802
9.0875e-05
4.53038e-05
1.42181e-05
1.38824e-05
0.000140477
0.000199996
0.000106101
5.90684e-05
1.57706e-05
1.65261e-05
0.000138116
0.000258381
0.000223148
0.00011594
1.97339e-05
1.43231e-05
4.83041e-05
9.26952e-05
0.000210311
0.000118892
1.43933e-05
1.78897e-05
0.000103675
0.00018945
8.10539e-05
4.16731e-05
1.3496e-05
1.27705e-05
0.000118119
0.000166834
9.21094e-05
5.33324e-05
1.5139e-05
1.50833e-05
0.000121013
0.000218114
0.000187541
0.000102063
1.81136e-05
1.33663e-05
4.34316e-05
8.28616e-05
0.000164422
0.000111505
1.2815e-05
1.49224e-05
5.43709e-05
9.24636e-05
0.000212709
0.000118608
1.45924e-05
1.77069e-05
9.95974e-05
0.000181042
8.05342e-05
4.24146e-05
1.32169e-05
1.24727e-05
0.000109229
0.000155901
9.00901e-05
5.31431e-05
1.46679e-05
1.41686e-05
0.000110817
0.000192757
0.00016752
9.54877e-05
1.74724e-05
1.3175e-05
4.20729e-05
7.62254e-05
0.000143954
0.000106376
1.20947e-05
1.43877e-05
5.21152e-05
8.42409e-05
0.000177974
0.000103188
1.37395e-05
1.70463e-05
8.85401e-05
0.000154241
7.1762e-05
4.13869e-05
1.28796e-05
1.17446e-05
9.87834e-05
0.000130261
7.89451e-05
4.99499e-05
1.41204e-05
1.31868e-05
9.35977e-05
0.000154357
0.000134812
8.05141e-05
1.65199e-05
1.24062e-05
4.15016e-05
6.65495e-05
0.0001157
9.01089e-05
1.12187e-05
1.34398e-05
4.84231e-05
7.16737e-05
0.000129239
9.56589e-05
1.19e-05
1.425e-05
5.07888e-05
7.88021e-05
0.000148159
8.79118e-05
1.32209e-05
1.64457e-05
7.52658e-05
0.000126268
6.39395e-05
4.1415e-05
1.25785e-05
1.09386e-05
8.58987e-05
0.000106467
6.83466e-05
4.88898e-05
1.34487e-05
1.17847e-05
8.86639e-05
0.000118672
7.456e-05
5.03047e-05
1.41603e-05
1.28639e-05
8.39469e-05
0.00013524
0.000117127
7.27237e-05
1.61597e-05
1.25651e-05
4.19304e-05
6.19096e-05
9.74101e-05
8.09621e-05
1.07968e-05
1.33705e-05
4.90343e-05
6.49329e-05
0.000105259
8.45595e-05
1.13723e-05
1.36448e-05
5.10319e-05
6.93678e-05
0.000115045
8.52516e-05
1.16936e-05
1.41077e-05
5.11553e-05
7.32315e-05
0.000130091
8.10249e-05
1.26882e-05
1.61317e-05
6.99648e-05
0.000111272
6.13118e-05
4.30265e-05
1.2586e-05
1.0596e-05
7.68537e-05
8.98899e-05
6.22564e-05
4.96478e-05
1.33468e-05
1.12023e-05
7.86997e-05
9.53228e-05
6.54443e-05
5.11499e-05
1.37141e-05
1.16961e-05
7.83115e-05
0.000103654
6.8892e-05
5.12197e-05
1.42572e-05
1.26206e-05
7.77555e-05
0.000118317
0.000103386
6.89233e-05
1.60904e-05
1.25907e-05
4.51905e-05
5.93451e-05
8.62557e-05
7.51877e-05
1.05793e-05
1.35689e-05
5.08999e-05
6.1082e-05
9.22105e-05
7.67436e-05
1.13079e-05
1.38062e-05
5.22048e-05
6.45519e-05
9.77246e-05
7.68825e-05
1.13962e-05
1.39778e-05
5.34348e-05
6.76837e-05
0.000103195
7.87343e-05
1.17146e-05
1.45375e-05
5.47028e-05
7.06674e-05
0.000118155
7.88577e-05
1.28311e-05
1.63863e-05
7.02681e-05
0.000102996
6.04579e-05
4.84007e-05
1.27987e-05
1.07489e-05
7.66574e-05
8.68944e-05
6.26303e-05
5.29968e-05
1.38426e-05
1.14462e-05
7.69494e-05
9.09523e-05
6.48557e-05
5.37636e-05
1.41951e-05
1.17525e-05
7.58248e-05
9.42398e-05
6.71046e-05
5.52866e-05
1.4499e-05
1.2047e-05
7.72139e-05
9.76798e-05
6.9166e-05
5.76693e-05
1.50812e-05
1.32651e-05
7.75203e-05
0.000112186
9.94779e-05
7.0547e-05
1.69869e-05
1.32962e-05
5.21397e-05
6.08326e-05
8.72159e-05
7.70935e-05
1.13358e-05
1.44545e-05
5.55335e-05
6.38076e-05
9.21602e-05
7.75525e-05
1.19452e-05
1.4879e-05
5.66914e-05
6.65934e-05
9.5361e-05
7.7738e-05
1.21747e-05
1.51771e-05
5.86361e-05
6.90565e-05
9.90502e-05
7.90196e-05
1.26759e-05
1.58484e-05
6.21699e-05
7.13729e-05
0.00011324
7.94249e-05
1.37828e-05
1.76938e-05
7.26795e-05
0.000100297
6.23815e-05
5.47866e-05
1.40531e-05
1.16133e-05
7.92917e-05
8.75219e-05
6.5053e-05
5.78452e-05
1.51066e-05
1.22896e-05
7.79706e-05
9.14622e-05
6.74262e-05
5.85033e-05
1.55164e-05
1.26052e-05
7.73987e-05
9.33944e-05
6.90177e-05
6.02486e-05
1.57321e-05
1.29156e-05
7.82806e-05
9.63352e-05
7.0506e-05
6.38523e-05
1.63991e-05
1.42082e-05
7.88663e-05
0.000110421
9.90482e-05
7.33926e-05
1.83805e-05
1.44269e-05
5.79675e-05
6.34436e-05
8.86404e-05
8.08257e-05
1.2144e-05
1.57007e-05
6.10662e-05
6.67009e-05
9.38978e-05
7.96965e-05
1.28838e-05
1.63249e-05
6.23306e-05
7.00583e-05
9.69629e-05
8.02151e-05
1.32883e-05
1.66402e-05
6.46134e-05
7.24589e-05
0.000100709
8.2416e-05
1.36326e-05
1.72349e-05
6.84931e-05
7.44897e-05
0.000114756
8.30584e-05
1.48099e-05
1.91517e-05
7.74459e-05
0.000103118
6.67354e-05
6.20457e-05
1.51523e-05
1.28356e-05
8.45533e-05
9.28135e-05
7.07099e-05
6.53536e-05
1.66825e-05
1.36865e-05
8.34872e-05
9.72688e-05
7.34558e-05
6.61943e-05
1.71905e-05
1.37821e-05
8.37486e-05
9.94586e-05
7.5395e-05
6.82565e-05
1.74047e-05
1.42802e-05
8.45818e-05
0.000102911
7.7299e-05
7.27041e-05
1.82751e-05
1.5755e-05
8.62442e-05
0.000117506
0.000106662
8.14817e-05
2.04152e-05
1.63307e-05
6.74962e-05
7.11611e-05
9.81583e-05
8.95822e-05
1.36663e-05
1.78111e-05
7.12137e-05
7.56925e-05
0.000104539
8.94817e-05
1.45327e-05
1.85608e-05
7.31003e-05
7.97112e-05
0.000108862
8.99655e-05
1.52136e-05
1.92822e-05
7.69896e-05
8.17314e-05
0.000122515
9.03443e-05
1.6464e-05
2.13568e-05
8.53594e-05
0.000111284
7.49268e-05
7.06718e-05
1.70491e-05
1.4086e-05
9.37198e-05
0.000101152
7.87609e-05
7.43958e-05
1.87e-05
1.52291e-05
9.18911e-05
0.000107365
8.26566e-05
7.64859e-05
1.94713e-05
1.58304e-05
9.26436e-05
0.000111962
8.5275e-05
8.1522e-05
2.02982e-05
1.74464e-05
9.50464e-05
0.000127544
0.000116444
9.04508e-05
2.24661e-05
1.80628e-05
7.67238e-05
8.00581e-05
0.000108371
9.90024e-05
1.51648e-05
2.00603e-05
8.1756e-05
8.48891e-05
0.000117665
9.96238e-05
1.65295e-05
2.11977e-05
8.61592e-05
8.98001e-05
0.000133441
9.95818e-05
1.81073e-05
2.33953e-05
9.4801e-05
0.000121938
8.4187e-05
8.00774e-05
1.86515e-05
1.5619e-05
0.000103117
0.000112379
8.88986e-05
8.46956e-05
2.08272e-05
1.72087e-05
0.000102175
0.000121106
9.30377e-05
8.95618e-05
2.21431e-05
1.88697e-05
0.000103226
0.00013771
0.00012661
9.89684e-05
2.46498e-05
1.97128e-05
8.52672e-05
8.90232e-05
0.00011786
0.000107616
1.63832e-05
2.22118e-05
9.16753e-05
9.27333e-05
0.000136876
0.000104176
1.91332e-05
2.53999e-05
0.000100275
0.000126427
9.0088e-05
8.62821e-05
2.02781e-05
1.70858e-05
0.000107284
0.000117137
9.37472e-05
9.30555e-05
2.25489e-05
1.92276e-05
0.00010448
0.000135675
0.000126117
0.000101323
2.58455e-05
2.1388e-05
8.92917e-05
9.14665e-05
0.000118269
0.000108758
1.7734e-05
2.38053e-05
9.61292e-05
9.58778e-05
0.000136844
0.000107103
1.99359e-05
2.6161e-05
0.00010383
0.000127177
9.30136e-05
9.13137e-05
2.13842e-05
1.81421e-05
0.000109485
0.000119184
9.74588e-05
9.87918e-05
2.45462e-05
2.09107e-05
0.000109772
0.000139071
0.000130235
0.000107527
2.78192e-05
2.25166e-05
9.73902e-05
9.73014e-05
0.000124962
0.000116331
1.84365e-05
2.54744e-05
0.000105428
0.000102531
0.000147311
0.000115211
2.19237e-05
2.94016e-05
0.000113163
0.0001386
0.000103071
0.00010541
2.4403e-05
2.07776e-05
0.000121296
0.00014216
0.000135787
0.000118842
2.84919e-05
2.51471e-05
0.000107212
0.000103916
0.000142034
0.000122678
2.20715e-05
3.06752e-05
0.000119467
0.00013628
0.000105509
0.000109626
2.56744e-05
2.20518e-05
0.000122352
0.000143202
0.000137199
0.00012011
3.05872e-05
2.69424e-05
0.000112196
0.00010688
0.000144692
0.00012486
2.351e-05
3.20899e-05
0.000121802
0.000139506
0.000109544
0.00011485
2.82312e-05
2.38945e-05
0.000127128
0.000147932
0.00014236
0.000125075
3.40098e-05
2.97249e-05
0.000122781
0.000113025
0.000157298
0.000135804
2.49721e-05
3.56658e-05
0.000141891
0.000150526
0.000141497
0.0001371
3.43184e-05
3.14222e-05
0.000128637
0.000118694
0.000162267
0.000139362
2.73144e-05
3.93212e-05
0.000138871
0.000158435
0.000146457
0.000147806
4.10308e-05
3.65662e-05
0.000139356
0.000141921
0.000121331
0.000130208
3.49763e-05
3.09357e-05
0.000138067
0.000159871
0.000156708
0.000135729
4.61833e-05
4.68908e-05
0.00014543
0.000147331
0.000146469
0.000140316
4.98748e-05
5.34532e-05
0.000142977
0.000141308
0.000140168
0.000138692
5.86737e-05
6.28154e-05
0.00014333
0.000139606
0.000139598
0.000144205
6.55724e-05
6.53239e-05
0.000152359
0.000139464
0.00014011
0.000157122
6.29857e-05
6.04769e-05
0.0001647
0.00014161
0.000144027
0.000172475
5.77207e-05
5.51437e-05
0.000180588
0.000148063
0.000151075
0.000188514
5.25519e-05
5.03429e-05
0.000196634
0.000157801
0.000161193
0.000195937
4.82986e-05
4.65917e-05
0.000201639
0.00017014
0.00017473
0.000203706
4.50546e-05
4.37436e-05
0.000206672
0.000188151
0.000194034
0.000208925
4.25528e-05
4.15347e-05
0.000211689
0.000210025
0.000216588
0.000214114
4.06185e-05
3.98405e-05
0.000217426
0.000233015
0.000240264
0.000220334
3.91593e-05
3.85751e-05
0.000223932
0.000256896
0.000264525
0.000227308
3.81031e-05
3.76662e-05
0.000231303
0.000281259
0.00028405
0.000235045
3.73853e-05
3.70294e-05
0.000239218
0.000301364
0.000302669
0.000243492
3.69486e-05
3.66515e-05
0.000247887
0.00031976
0.000321126
0.00025226
3.67249e-05
3.64992e-05
0.000256587
0.000337431
0.000338628
0.000260926
3.66219e-05
3.649e-05
0.00026507
0.000354336
0.000355263
0.000269113
3.66307e-05
3.65702e-05
0.000273042
0.000370013
0.000370734
0.000276823
3.67052e-05
3.6679e-05
0.000280595
0.000384803
0.000385291
0.000283933
3.68066e-05
3.68009e-05
0.000287394
0.000398328
0.000398729
0.0002904
3.69165e-05
3.69205e-05
0.000293658
0.00041107
0.000411332
0.000296176
3.70258e-05
3.7026e-05
0.000299104
0.000422813
0.000423077
0.000301337
3.7132e-05
3.71242e-05
0.000304021
0.000434004
0.000434144
0.000305872
3.72318e-05
3.72151e-05
0.00030819
0.000444409
0.000444523
0.000309794
3.73173e-05
3.72909e-05
0.000311927
0.000454441
0.00045444
0.0003132
3.73889e-05
3.73572e-05
0.000315033
0.000463762
0.000463789
0.000316126
3.74507e-05
3.74117e-05
0.000317842
0.000472878
0.000472733
0.00031866
3.75019e-05
3.7461e-05
0.000320032
0.000481492
0.000481177
0.000320843
3.75166e-05
3.75309e-05
0.000322106
0.000489694
0.000489499
0.000322613
3.75848e-05
3.75386e-05
0.000323854
0.000497752
0.000497543
0.00032426
3.76211e-05
3.75715e-05
0.000325461
0.000505617
0.00050515
0.000325694
3.76522e-05
3.76031e-05
0.00032673
0.000513182
0.000512539
0.000326906
3.76816e-05
3.7631e-05
0.000327919
0.000520427
0.000519473
0.000327957
3.77078e-05
3.76583e-05
0.00032882
0.00052722
0.000526062
0.000328821
3.77326e-05
3.76821e-05
0.000329651
0.000533553
0.000531982
0.000329525
3.77538e-05
3.77051e-05
0.000330212
0.000539533
0.000537785
0.000330076
3.77744e-05
3.77261e-05
0.000330716
0.000543255
0.000542823
0.00033045
3.77908e-05
3.77437e-05
0.00033097
0.000546118
0.000547579
0.000330701
3.78051e-05
3.77598e-05
0.000331169
0.000548522
0.000551668
0.000330761
3.7816e-05
3.77719e-05
0.000331114
0.000550596
0.000555528
0.000330711
3.78235e-05
3.77805e-05
0.000331035
0.000552312
0.00055711
0.000330511
3.78276e-05
3.77866e-05
0.000330739
0.000553673
0.00055835
0.000330226
3.78295e-05
3.77893e-05
0.000330427
0.00055467
0.000559142
0.000329793
3.78276e-05
3.77894e-05
0.000329905
0.000555443
0.000559867
0.000329292
3.78237e-05
3.77866e-05
0.000329405
0.000555955
0.000560232
0.000328685
3.78166e-05
3.77811e-05
0.000328729
0.000556333
0.000560607
0.000328046
3.78078e-05
3.77736e-05
0.000328115
0.000556514
0.00056067
0.00032734
3.77972e-05
3.77648e-05
0.000327357
0.000556612
0.000560856
0.000326632
3.7786e-05
3.77548e-05
0.000326693
0.000556581
0.000560646
0.000325887
3.77738e-05
3.77445e-05
0.000325907
0.00055645
0.000560764
0.000325159
3.77616e-05
3.77336e-05
0.000325242
0.000556295
0.000560399
0.000324417
3.77492e-05
3.7723e-05
0.000324455
0.000556011
0.000560363
0.000323697
3.77371e-05
3.77122e-05
0.000323816
0.000555715
0.000559857
0.000322985
3.77254e-05
3.77019e-05
0.000323054
0.00055531
0.000559708
0.000322311
3.77141e-05
3.76918e-05
0.000322445
0.000554915
0.000559105
0.000321632
3.7703e-05
3.76822e-05
0.000321711
0.000554432
0.000558882
0.000320998
3.76927e-05
3.76728e-05
0.000321135
0.000553979
0.000558228
0.000320356
3.76826e-05
3.7664e-05
0.000320441
0.000553451
0.000557956
0.000319762
3.76731e-05
3.76554e-05
0.000319906
0.000552957
0.000557261
0.00031916
3.76639e-05
3.76474e-05
0.00031925
0.000552401
0.000556964
0.000318601
3.76551e-05
3.76392e-05
0.000318755
0.000551889
0.000556248
0.000318038
3.76465e-05
3.76317e-05
0.000318139
0.000551301
0.000555943
0.000317516
3.76382e-05
3.7624e-05
0.000317683
0.000550789
0.000555209
0.000316993
3.76302e-05
3.7617e-05
0.000317106
0.000550201
0.000554901
0.000316511
3.76225e-05
3.76098e-05
0.000316689
0.000549693
0.000554182
0.000316026
3.7615e-05
3.76031e-05
0.000316152
0.000549118
0.000553885
0.000315583
3.76078e-05
3.75964e-05
0.000315774
0.000548626
0.00055318
0.000315138
3.7601e-05
3.75903e-05
0.000315278
0.000548074
0.000552896
0.000314734
3.75945e-05
3.75843e-05
0.000314939
0.000547601
0.000552215
0.000314327
3.75884e-05
3.75789e-05
0.000314481
0.000547093
0.000551917
0.000313958
3.75827e-05
3.75735e-05
0.000314178
0.000546642
0.000551256
0.000313587
3.75773e-05
3.75688e-05
0.000313754
0.000546161
0.000550984
0.000313251
3.75722e-05
3.7564e-05
0.000313482
0.000545725
0.000550345
0.00031291
3.75675e-05
3.75599e-05
0.000313089
0.000545259
0.000550094
0.000312603
3.75631e-05
3.75557e-05
0.000312847
0.000544839
0.000549475
0.000312291
3.75589e-05
3.75521e-05
0.000312481
0.000544398
0.000549249
0.000312013
3.75549e-05
3.75484e-05
0.000312266
0.000544007
0.000548658
0.000311726
3.75512e-05
3.75452e-05
0.000311926
0.000543592
0.000548457
0.000311473
3.7548e-05
3.7542e-05
0.000311736
0.000543224
0.000547888
0.000311211
3.75447e-05
3.75391e-05
0.000311421
0.000542832
0.000547707
0.00031098
3.75418e-05
3.75362e-05
0.000311254
0.000542483
0.000547156
0.000310742
3.75388e-05
3.75336e-05
0.000310961
0.000542111
0.000546996
0.000310534
3.75362e-05
3.7531e-05
0.000310815
0.000541786
0.00054647
0.000310315
3.75334e-05
3.75286e-05
0.000310543
0.000541437
0.000546332
0.000310127
3.7531e-05
3.75261e-05
0.000310417
0.000541133
0.000545826
0.00030993
3.75285e-05
3.7524e-05
0.000310165
0.000540807
0.000545711
0.000309761
3.75264e-05
3.75219e-05
0.000310059
0.000540527
0.00054523
0.000309583
3.75242e-05
3.75201e-05
0.000309826
0.000540225
0.00054514
0.000309433
3.75225e-05
3.75185e-05
0.000309737
0.000539973
0.000544686
0.000309272
3.75209e-05
3.75174e-05
0.000309522
0.000539696
0.000544619
0.000309138
3.75201e-05
3.75165e-05
0.00030945
0.000539464
0.000544184
0.000308994
3.75197e-05
3.75164e-05
0.00030925
0.000539206
0.000544133
0.000308875
3.75197e-05
3.75165e-05
0.000309191
0.000538989
0.000543711
0.00030874
3.75203e-05
3.75175e-05
0.000309
0.00053874
0.000543664
0.000308628
3.75213e-05
3.75186e-05
0.000308948
0.000538521
0.000543238
0.000308498
3.75226e-05
3.75203e-05
0.000308759
0.000538269
0.000543186
0.000308389
3.7524e-05
3.75217e-05
0.0003087
0.000537995
0.000542813
0.000308274
3.75244e-05
3.75222e-05
0.000308596
0.000537896
0.00054253
0.000308427
3.75508e-05
3.75674e-05
0.000308675
0.000537723
0.000542577
0.000308215
3.75703e-05
3.75866e-05
0.000308618
0.000537575
0.000542861
0.000308563
3.76496e-05
3.77241e-05
0.000309221
0.000538137
0.000545453
0.000309617
3.78892e-05
3.78915e-05
0.000310792
0.000540777
0.000549673
0.000311763
3.82912e-05
3.83535e-05
0.000312931
0.000545136
0.000564164
0.000318859
3.96332e-05
4.12084e-05
0.000328931
0.000596028
0.000629036
0.000344724
4.32486e-05
0.00105385
0.00170271
0.00253888
0.00285557
0.00462732
0.00773854
0.0104823
0.0116498
0.0162387
0.0250005
0.0326238
0.0425068
0.0561439
0.0748508
0.100667
0.134928
0.179028
0.233524
0.298635
0.373974
0.458671
0.551307
0.650107
0.752687
0.856706
0.958097
1.0539
1.13743
1.20587
1.25503
1.2857
1.30015
1.31265
1.33531
1.36727
1.40735
1.45377
1.50614
1.56334
1.62616
1.69496
1.77108
1.85586
1.9512
2.0595
2.18407
2.32953
2.50276
2.11951
1.37545
0.974247
0.784337
0.684986
0.61935
0.563494
0.510736
0.461041
0.415205
0.373274
0.334839
0.299553
0.267296
0.238075
0.21187
0.188592
0.167997
0.149839
0.133836
0.119739
0.107305
0.0963458
0.086693
0.0781877
0.0707229
0.0641688
0.0584253
0.0534149
0.0490395
0.0452357
0.041939
0.0390819
0.0366235
0.0345114
0.0327072
0.0311752
0.0298829
0.0288042
0.0279137
0.0271926
0.0266214
0.0261872
0.0258748
0.025676
0.0255787
0.0255759
0.025661
0.0258285
0.0260738
0.0263932
0.0267839
0.0272433
0.0277684
0.0283619
0.0290196
0.0297413
0.0305278
0.0313788
0.0322959
0.0332793
0.0343316
0.0354524
0.0366476
0.0379117
0.0392555
0.0406777
0.0421817
0.0437708
0.0454502
0.0472257
0.0491004
0.0510809
0.0531683
0.0553747
0.0577027
0.0601606
0.0627567
0.0655002
0.0684
0.0714671
0.074713
0.0781495
0.0817911
0.0856535
0.0897538
0.0941111
0.0987468
0.103685
0.108953
0.114581
0.120605
0.127065
0.134007
0.141486
0.149566
0.158321
0.16784
0.178229
0.189616
0.202162
0.216062
0.231561
0.248972
0.2687
0.291278
0.317427
0.348144
0.384875
0.429812
0.486495
0.561088
0.665312
0.822078
1.0749
1.51857
2.43122
4.86087
11.2274
31.8775
21.3357
39.9643
14.9088
7.93702
2.83174
1.38532
0.855009
0.638976
0.54331
0.494499
0.461722
0.432878
0.404721
0.37752
0.352285
0.329695
0.309895
0.29268
0.277733
0.264707
0.253299
0.243265
0.234414
0.226596
0.219689
0.213594
0.208229
0.203526
0.199429
0.195893
0.192882
0.190368
0.188333
0.186762
0.185645
0.184972
0.184759
0.185055
0.185868
0.187201
0.189096
0.191611
0.194812
0.198788
0.203653
0.209537
0.216551
0.224719
0.233848
0.243423
0.252698
0.261372
0.271228
0.28969
0.335524
0.450577
0.730929
1.35028
2.27695
1.81474
1.0255
0.379866
0.0912196
0.0390309
0.0130834
0.0111726
0.0102731
0.00920375
0.00871902
0.00802533
0.00772469
0.00722298
0.00701724
0.00663295
0.00647945
0.00617425
0.00605537
0.00580418
0.0057091
0.00549628
0.00541855
0.00523416
0.00516941
0.00500692
0.00495171
0.00480692
0.00475886
0.00462849
0.00458613
0.00446751
0.00442976
0.00432083
0.00428689
0.00418612
0.00415539
0.00406161
0.00403362
0.0039459
0.00392024
0.00383777
0.00381407
0.00373614
0.00371412
0.00364014
0.00361954
0.00354902
0.00352961
0.00346215
0.00344372
0.00337897
0.00336138
0.00329899
0.00328211
0.00322175
0.00320545
0.00314682
0.00313098
0.0030738
0.00305831
0.00300234
0.0029871
0.00293213
0.00291706
0.00286295
0.00284796
0.0027946
0.00277961
0.00272684
0.0027118
0.00265954
0.00264441
0.00259257
0.00257733
0.00252588
0.00251053
0.00245948
0.00244406
0.00239346
0.00237803
0.002328
0.00231265
0.00226339
0.00224827
0.0022002
0.00218544
0.00213904
0.0021248
0.00208064
0.00206717
0.00202591
0.00201352
0.0019749
0.00196604
0.00192955
0.0019244
0.00189083
0.00189049
0.00186035
0.00186544
0.00183923
0.00185032
0.00182838
0.00184536
0.00182765
0.00184996
0.00183617
0.00186317
0.00185243
0.00188279
0.00187426
0.00190573
0.00189882
0.00193042
0.0019241
0.00195529
0.001949
0.00197938
0.00197249
0.0020018
0.00199457
0.00202212
0.00201494
0.00204058
0.00203314
0.00205717
0.00204946
0.00207189
0.00206383
0.00208507
0.00207653
0.00209827
0.00208435
0.00211189
0.00210823
0.00215252
0.00218215
0.00220683
0.00222792
0.00441472
0.00703439
0.00695177
0.00434696
0.00429932
0.00684001
0.00656604
0.00419813
0.00404529
0.0061038
0.0108667
0.0101127
0.010057
0.0100376
0.0127471
0.0126234
0.0124184
0.0161941
0.0160765
0.015981
0.0188461
0.0188867
0.018845
0.0176579
0.0173689
0.0106636
0.00659145
0.00411995
0.00400266
0.0060293
0.00650836
0.00407393
0.00397086
0.00598206
0.0105776
0.0105048
0.00645315
0.00403978
0.00393525
0.00593177
0.00639725
0.00400307
0.00389765
0.00587809
0.0104491
0.0103745
0.00633893
0.00396465
0.00385794
0.00582183