/*--------------------------------*- C++ -*----------------------------------*\
| =========                 |                                                 |
| \\      /  F ield         | OpenFOAM: The Open Source CFD Toolbox           |
|  \\    /   O peration     | Version:  v2006                                 |
|   \\  /    A nd           | Website:  www.openfoam.com                      |
|    \\/     M anipulation  |                                                 |
\*---------------------------------------------------------------------------*/
FoamFile
{
    version     2.0;
    format      ascii;
    class       surfaceScalarField;
    location    "0.022";
    object      phi;
}
// * * * * * * * * * * * * * * * * * * * * * * * * * * * * * * * * * * * * * //

dimensions      [1 0 -1 0 0 0 0];
oriented        oriented;


internalField   nonuniform List<scalar> 
32242
(
-2.61833e-05
-0.00135616
0.00133687
4.5585e-05
-0.0012718
0.00124554
8.36111e-06
7.77882e-05
-3.5031e-06
0.00146476
3.80719e-05
0.00160203
-3.29554e-05
0.00165356
-3.67649e-06
0.00169363
-1.63951e-05
0.00168636
-2.32467e-06
0.00168245
-2.42307e-06
0.00167203
-4.38052e-07
0.00166524
-1.01009e-06
0.00165949
-1.15093e-06
0.00165584
-1.27847e-06
0.00165249
-1.47876e-06
0.00164967
-1.50735e-06
0.00164661
-1.61328e-06
0.0016437
-1.7152e-06
0.00164059
-1.8136e-06
0.00163736
-1.90873e-06
0.001634
-2.00076e-06
0.00163051
-2.08985e-06
0.00162689
-2.17623e-06
0.00162314
-2.26013e-06
0.00161926
-2.34173e-06
0.00161526
-2.42121e-06
0.00161113
-2.49863e-06
0.00160688
-2.57402e-06
0.00160251
-2.64731e-06
0.00159802
-2.71842e-06
0.00159341
-2.78725e-06
0.00158869
-2.85366e-06
0.00158387
-2.91752e-06
0.00157894
-2.97866e-06
0.00157391
-3.03691e-06
0.00156879
-3.0921e-06
0.00156357
-3.14402e-06
0.00155827
-3.1924e-06
0.00155288
-3.23703e-06
0.00154743
-3.2777e-06
0.0015419
-3.31535e-06
0.0015363
-3.35059e-06
0.00153065
-3.38434e-06
0.00152495
-3.413e-06
0.00151919
-3.43645e-06
0.00151339
-3.45576e-06
0.00150756
-3.4709e-06
0.0015017
-3.48182e-06
0.00149581
-3.48842e-06
0.00148991
-3.49061e-06
0.00148399
-3.48823e-06
0.00147808
-3.48169e-06
0.00147216
-3.4709e-06
0.00146625
-3.45572e-06
0.00146036
-3.43608e-06
0.0014545
-3.41191e-06
0.00144866
-3.38317e-06
0.00144286
-3.34982e-06
0.00143711
-3.31185e-06
0.0014314
-3.26924e-06
0.00142575
-3.22199e-06
0.00142017
-3.1701e-06
0.00141467
-3.11357e-06
0.00140924
-3.05241e-06
0.0014039
-2.98661e-06
0.00139866
-2.91611e-06
0.00139351
-2.84086e-06
0.00138847
-2.76071e-06
0.00138355
-2.67548e-06
0.00137875
-2.58482e-06
0.00137408
-2.48834e-06
0.00136954
-2.38568e-06
0.00136514
-2.27661e-06
0.00136088
-2.16106e-06
0.00135679
-2.03881e-06
0.00135285
-1.90869e-06
0.00134907
-1.76726e-06
0.00134542
-9.36875e-07
0.0013412
-1.41712e-06
0.0013377
-1.18739e-06
0.00133157
-2.91771e-06
0.00132291
-4.6411e-06
0.00131071
-1.96862e-05
0.00129014
-3.01724e-05
0.00126411
-8.38263e-05
0.00122767
-0.000143522
0.0012055
-0.000329292
0.00121718
-0.000737966
0.00140519
-0.000203051
0.000362064
2.04815e-05
0.000600987
4.45737e-06
0.000788308
-3.86922e-05
0.000697727
-1.25238e-05
0.00061148
-7.5273e-06
0.000221077
-4.5919e-06
0.000184073
0.000148799
8.54651e-06
0.000140252
1.73884e-05
0.000175231
0.000211457
2.70084e-05
-1.36621e-05
0.000204212
2.09067e-05
-6.82129e-06
0.000168389
0.000133431
2.51046e-06
0.00013092
4.13857e-06
0.00016676
0.000202971
5.37796e-06
-4.66348e-06
0.000200879
6.75466e-06
-2.87836e-06
0.000164975
0.000128041
1.55038e-06
0.000126489
2.03433e-06
0.00016449
0.000200761
2.15095e-06
-4.46984e-06
0.000199191
6.03844e-06
-2.60608e-06
0.000162625
0.000123882
1.27153e-06
0.00012261
1.14926e-06
0.000162746
0.000198953
1.38626e-06
-3.63548e-06
0.000197964
4.62231e-06
-1.77945e-06
0.000160888
0.000120829
4.71987e-07
0.000120356
3.54564e-07
0.000161004
0.000198323
-6.01865e-09
-2.84273e-06
0.000196617
4.54656e-06
-1.60911e-06
0.000159768
0.000118745
3.43588e-07
0.0001184
2.39883e-07
0.00015987
0.000196915
-6.09603e-08
-2.72421e-06
0.000195822
3.81534e-06
-1.48433e-06
0.000158628
0.000116914
2.52635e-07
0.000116659
1.51366e-07
0.000158727
0.000196083
-1.12925e-07
-2.63208e-06
0.000194958
3.75446e-06
-1.39246e-06
0.000157485
0.000115265
1.8604e-07
0.000115077
8.37192e-08
0.000157585
0.000195193
-1.53939e-07
-2.55841e-06
0.000194045
3.70243e-06
-1.32288e-06
0.000156347
0.000113752
1.35597e-07
0.000113613
3.2996e-08
0.000156446
0.000194255
-1.80054e-07
-2.49867e-06
0.000193091
3.65835e-06
-1.2713e-06
0.000155216
0.000112339
9.49449e-08
0.000112242
-5.66856e-09
0.000155313
0.000193281
-1.99273e-07
-2.44927e-06
0.000192102
3.62412e-06
-1.22891e-06
0.000154089
0.00011101
6.45187e-08
0.000110942
-3.47558e-08
0.000154185
0.000192276
-2.13327e-07
-2.40951e-06
0.000191084
3.59699e-06
-1.19366e-06
0.000152965
0.000109745
4.21614e-08
0.0001097
-5.56205e-08
0.000153059
0.000191243
-2.19174e-07
-2.37792e-06
0.000190039
3.57732e-06
-1.16532e-06
0.000151842
0.000108532
2.59293e-08
0.000108502
-6.84737e-08
0.000151933
0.000190182
-2.16933e-07
-2.35389e-06
0.000188966
3.56517e-06
-1.14281e-06
0.000150718
0.000107356
1.48146e-08
0.000107338
-7.42315e-08
0.000150803
0.000189094
-2.07059e-07
-2.33649e-06
0.000187866
3.56012e-06
-1.12514e-06
0.000149587
0.00010621
7.83858e-09
0.000106199
-7.40418e-08
0.000149665
0.000187977
-1.90641e-07
-2.32445e-06
0.000186736
3.56094e-06
-1.11133e-06
0.000148448
0.000105084
4.15074e-09
0.000105077
-6.89348e-08
0.000148517
0.000186831
-1.68588e-07
-2.31672e-06
0.000185576
3.56667e-06
-1.10053e-06
0.000147297
0.000103973
3.08624e-09
0.000103967
-5.96552e-08
0.000147356
0.000185653
-1.41481e-07
-2.31268e-06
0.000184384
3.57682e-06
-1.09221e-06
0.000146132
0.000102872
4.33916e-09
0.000102864
-4.63526e-08
0.000146178
0.000184442
-1.09015e-07
-2.31204e-06
0.000183158
3.59138e-06
-1.086e-06
0.000144948
0.000101774
7.49906e-09
0.000101763
-2.97451e-08
0.000144981
0.000183196
-7.21885e-08
-2.31426e-06
0.000181895
3.6097e-06
-1.08157e-06
0.000143745
0.000100678
1.23344e-08
0.000100662
-1.02094e-08
0.000143763
0.000181912
-3.15159e-08
-2.31897e-06
0.000180594
3.63148e-06
-1.07877e-06
0.000142518
9.95795e-05
1.87213e-08
9.95571e-05
1.21502e-08
0.000142521
0.000180588
1.31144e-08
-2.32548e-06
0.000179253
3.65509e-06
-1.07705e-06
0.000141268
9.84764e-05
2.73419e-08
9.84453e-05
3.85845e-08
0.000141252
0.000179223
6.44797e-08
-2.3341e-06
0.00017787
3.6813e-06
-1.07649e-06
0.000139991
9.73652e-05
3.72693e-08
9.73243e-05
6.7577e-08
0.000139956
0.000177813
1.19385e-07
-2.34536e-06
0.000176442
3.71132e-06
-1.07739e-06
0.000138684
9.62435e-05
4.86655e-08
9.61915e-05
9.94806e-08
0.000138629
0.000176358
1.78565e-07
-2.359e-06
0.000174968
3.74477e-06
-1.07954e-06
0.000137345
9.51086e-05
6.1478e-08
9.50438e-05
1.34237e-07
0.000137269
0.000174855
2.42061e-07
-2.37492e-06
0.000173444
3.78158e-06
-1.08285e-06
0.000135973
9.39577e-05
7.5771e-08
9.38788e-05
1.71924e-07
0.000135873
0.000173301
3.09991e-07
-2.39319e-06
0.000171868
3.82176e-06
-1.0874e-06
0.000134563
9.27883e-05
9.15517e-08
9.26939e-05
2.1257e-07
0.000134438
0.000171694
3.8243e-07
-2.41374e-06
0.000170238
3.86526e-06
-1.09315e-06
0.000133114
9.1598e-05
1.08708e-07
9.14866e-05
2.56033e-07
0.000132964
0.00017003
4.59258e-07
-2.43633e-06
0.000168551
3.91182e-06
-1.09991e-06
0.000131624
9.03841e-05
1.27094e-07
9.02546e-05
3.02087e-07
0.000131446
0.000168309
5.40165e-07
-2.46062e-06
0.000166805
3.961e-06
-1.10748e-06
0.00013009
8.91448e-05
1.46543e-07
8.89961e-05
3.50431e-07
0.000129883
0.000166527
6.24662e-07
-2.48608e-06
0.000164998
4.01206e-06
-1.11563e-06
0.00012851
8.78784e-05
1.66737e-07
8.77097e-05
4.00444e-07
0.000128274
0.000164683
7.11908e-07
-2.5121e-06
0.000163128
4.06407e-06
-1.12404e-06
0.000126883
8.65838e-05
1.87301e-07
8.63946e-05
4.51336e-07
0.000126617
0.000162776
8.00679e-07
-2.53766e-06
0.000161196
4.11552e-06
-1.13219e-06
0.000125209
8.52607e-05
2.07678e-07
8.50513e-05
5.01998e-07
0.000124913
0.000160806
8.89282e-07
-2.5617e-06
0.000159201
4.16476e-06
-1.13956e-06
0.000123489
8.391e-05
2.27358e-07
8.3681e-05
5.51364e-07
0.000123163
0.000158774
9.76044e-07
-2.5832e-06
0.000157144
4.21011e-06
-1.14574e-06
0.000121724
8.25337e-05
2.4592e-07
8.22862e-05
5.98334e-07
0.000121369
0.000156682
1.05913e-06
-2.60093e-06
0.000155031
4.24958e-06
-1.15021e-06
0.000119917
8.11346e-05
2.6266e-07
8.08705e-05
6.41416e-07
0.000119537
0.000154534
1.13614e-06
-2.61328e-06
0.000152865
4.28056e-06
-1.1522e-06
0.000118074
7.9717e-05
2.76685e-07
7.94391e-05
6.78673e-07
0.00011767
0.000152338
1.20399e-06
-2.61818e-06
0.000150655
4.29973e-06
-1.15078e-06
0.000116202
7.82871e-05
2.86862e-07
7.79993e-05
7.07625e-07
0.00011578
0.000150102
1.25867e-06
-2.61307e-06
0.000148411
4.30291e-06
-1.1448e-06
0.00011431
7.68535e-05
2.91799e-07
7.65609e-05
7.25204e-07
0.000113876
0.000147839
1.29523e-06
-2.59472e-06
0.000146148
4.28497e-06
-1.13283e-06
0.000112413
7.54274e-05
2.89791e-07
7.51371e-05
7.27608e-07
0.000111974
0.000145567
1.30759e-06
-2.55933e-06
0.000143886
4.2397e-06
-1.11316e-06
0.000110527
7.40236e-05
2.78822e-07
7.37445e-05
7.10427e-07
0.000110095
0.000143307
1.28858e-06
-2.50263e-06
0.000141649
4.16007e-06
-1.08384e-06
0.000108676
7.26605e-05
2.56641e-07
7.24038e-05
6.68736e-07
0.000108264
0.000141088
1.2301e-06
-2.41982e-06
0.000139469
4.03824e-06
-1.04277e-06
0.000106887
7.1361e-05
2.20755e-07
7.11403e-05
5.96939e-07
0.000106511
0.000138943
1.12304e-06
-2.30566e-06
0.000137383
3.86561e-06
-9.87671e-07
0.000105193
7.01527e-05
1.68424e-07
6.99844e-05
4.88951e-07
0.000104872
0.000136915
9.57363e-07
-2.15459e-06
0.000135436
3.63296e-06
-9.16205e-07
0.000103634
6.90683e-05
9.68879e-08
6.89715e-05
3.38461e-07
0.000103393
0.000135052
7.22476e-07
-1.96176e-06
0.000133682
3.33235e-06
-8.26081e-07
0.000102257
6.81455e-05
4.2974e-09
6.81412e-05
1.41043e-07
0.00010212
0.000133412
4.11289e-07
-1.71957e-06
0.000132172
2.95905e-06
-7.07168e-07
0.000101108
6.74339e-05
-1.21473e-07
6.75551e-05
-1.17198e-07
0.000101104
0.00013205
4.91952e-09
-1.42927e-06
0.000130984
2.49525e-06
-5.72398e-07
0.000100246
6.69822e-05
-2.58133e-07
6.72397e-05
-4.14197e-07
0.000100402
0.000131034
-4.64642e-07
-1.10251e-06
0.000130168
1.96706e-06
-4.23326e-07
9.97218e-05
6.68156e-05
-4.1066e-07
6.72251e-05
-7.49292e-07
0.000100059
0.00013042
-1.00245e-06
-7.5821e-07
0.000129768
1.40878e-06
-2.6842e-07
9.95683e-05
6.69554e-05
-5.67842e-07
6.75216e-05
-1.10053e-06
0.000100099
0.000130239
-1.5733e-06
-4.09106e-07
0.00012981
8.3666e-07
-1.13222e-07
9.98014e-05
6.74066e-05
-7.13341e-07
6.81179e-05
-1.43247e-06
0.000100518
0.000130496
-2.12097e-06
-6.81714e-08
0.000130282
2.79288e-07
4.23617e-08
0.000100405
6.81581e-05
-8.80736e-07
6.90364e-05
-1.80531e-06
0.000101327
0.000131207
-2.73366e-06
2.79436e-07
0.00013122
-2.96411e-07
1.94891e-07
0.000101409
6.92286e-05
-1.04021e-06
7.0266e-05
-2.16178e-06
0.000102527
0.000132383
-3.32855e-06
5.251e-07
0.000132583
-7.29299e-07
2.87114e-07
0.000102761
7.05501e-05
-1.12958e-06
7.16764e-05
-2.39134e-06
0.000104019
0.000133922
-3.73462e-06
6.82662e-07
0.000134256
-1.02134e-06
3.41519e-07
0.000104356
7.20146e-05
-1.17828e-06
7.31893e-05
-2.53483e-06
0.000105708
0.000135719
-4.00305e-06
7.63546e-07
0.000136144
-1.19368e-06
3.6046e-07
0.000106107
7.35461e-05
-1.20025e-06
7.47425e-05
-2.61839e-06
0.00010752
0.000137695
-4.17589e-06
7.88962e-07
0.000138177
-1.27648e-06
3.55017e-07
0.000107949
7.50935e-05
-1.19866e-06
7.62879e-05
-2.64812e-06
0.000109394
0.000139783
-4.26071e-06
7.63068e-07
0.000140288
-1.27417e-06
3.27807e-07
0.000109823
7.66113e-05
-1.17525e-06
7.77819e-05
-2.6276e-06
0.00011127
0.000141915
-4.2619e-06
6.91607e-07
0.000142411
-1.19507e-06
2.81092e-07
0.000111675
7.80581e-05
-1.13278e-06
7.91858e-05
-2.56218e-06
0.000113098
0.000144028
-4.18685e-06
5.81899e-07
0.000144488
-1.04988e-06
2.18903e-07
0.000113454
7.93994e-05
-1.07554e-06
8.04694e-05
-2.46022e-06
0.000114832
0.000146068
-4.04821e-06
4.43022e-07
0.000146469
-8.52293e-07
1.4555e-07
0.000115123
8.06092e-05
-1.00772e-06
8.16109e-05
-2.33091e-06
0.000116439
0.000147989
-3.86018e-06
2.84008e-07
0.000148313
-6.16853e-07
6.54197e-08
0.00011665
8.167e-05
-9.34396e-07
8.25979e-05
-2.18276e-06
0.00011789
0.000149758
-3.63651e-06
1.13603e-07
0.000149991
-3.5683e-07
-1.63098e-08
0.000118012
8.25748e-05
-8.62817e-07
8.34307e-05
-2.02571e-06
0.000119167
0.000151346
-3.39078e-06
-6.02184e-08
0.00015148
-8.40323e-08
-9.64548e-08
0.000119194
8.3327e-05
-7.88999e-07
8.41085e-05
-1.86604e-06
0.000120263
0.00015274
-3.13613e-06
-2.28687e-07
0.000152774
1.83556e-07
-1.73899e-07
0.000120199
8.39268e-05
-7.17649e-07
8.46365e-05
-1.70905e-06
0.000121181
0.000153937
-2.8828e-06
-3.88437e-07
0.000153873
4.40792e-07
-2.45876e-07
0.000121029
8.43824e-05
-6.5202e-07
8.5026e-05
-1.56186e-06
0.000121929
0.000154942
-2.64166e-06
-5.34179e-07
0.000154784
6.795e-07
-3.09857e-07
0.000121694
8.47076e-05
-5.94298e-07
8.52931e-05
-1.42956e-06
0.000122519
0.000155764
-2.42194e-06
-6.62113e-07
0.000155522
8.92503e-07
-3.64365e-07
0.000122211
8.49198e-05
-5.4544e-07
8.54561e-05
-1.31448e-06
0.000122969
0.000156422
-2.22794e-06
-7.69442e-07
0.000156105
1.07431e-06
-4.08451e-07
0.000122597
8.50383e-05
-5.06199e-07
8.5535e-05
-1.2189e-06
0.000123299
0.000156936
-2.06405e-06
-8.56806e-07
0.000156554
1.2253e-06
-4.42845e-07
0.000122874
8.50826e-05
-4.75794e-07
8.55486e-05
-1.14181e-06
0.000123528
0.000157328
-1.92946e-06
-9.26346e-07
0.000156893
1.34795e-06
-4.68922e-07
0.000123059
8.50698e-05
-4.52551e-07
8.55125e-05
-1.08048e-06
0.000123675
0.000157619
-1.82062e-06
-9.80529e-07
0.00015714
1.44565e-06
-4.88217e-07
0.000123171
8.50143e-05
-4.35251e-07
8.54397e-05
-1.03278e-06
0.000123757
0.000157828
-1.73422e-06
-1.0218e-06
0.000157313
1.52206e-06
-5.02071e-07
0.000123225
8.49279e-05
-4.22763e-07
8.53411e-05
-9.96438e-07
0.000123788
0.00015797
-1.6668e-06
-1.05297e-06
0.000157428
1.58149e-06
-5.11817e-07
0.000123235
8.48199e-05
-4.13161e-07
8.52239e-05
-9.67755e-07
0.000123779
0.000158059
-1.61248e-06
-1.07466e-06
0.000157496
1.6245e-06
-5.17707e-07
0.000123211
8.46973e-05
-4.06666e-07
8.50953e-05
-9.46591e-07
0.00012374
0.000158108
-1.57081e-06
-1.08958e-06
0.000157529
1.65574e-06
-5.20995e-07
0.000123161
8.45658e-05
-4.02528e-07
8.49601e-05
-9.31411e-07
0.00012368
0.000158126
-1.53966e-06
-1.09988e-06
0.000157535
1.67883e-06
-5.22599e-07
0.000123093
8.44296e-05
-3.99809e-07
8.48217e-05
-9.20395e-07
0.000123604
0.00015812
-1.51643e-06
-1.10654e-06
0.00015752
1.69556e-06
-5.22966e-07
0.000123012
8.42914e-05
-3.97832e-07
8.46821e-05
-9.1258e-07
0.000123518
0.000158096
-1.49986e-06
-1.11037e-06
0.000157488
1.70784e-06
-5.22116e-07
0.000122921
8.41531e-05
-3.96627e-07
8.45432e-05
-9.073e-07
0.000123424
0.00015806
-1.48827e-06
-1.11244e-06
0.000157446
1.71685e-06
-5.20621e-07
0.000122824
8.40163e-05
-3.96068e-07
8.44065e-05
-9.04079e-07
0.000123325
0.000158013
-1.48013e-06
-1.11336e-06
0.000157395
1.72282e-06
-5.18888e-07
0.000122723
8.3882e-05
-3.9607e-07
8.42728e-05
-9.02361e-07
0.000123223
0.00015796
-1.47494e-06
-1.1128e-06
0.000157339
1.72567e-06
-5.16994e-07
0.000122621
8.37509e-05
-3.96814e-07
8.41431e-05
-9.02579e-07
0.000123121
0.000157903
-1.47327e-06
-1.11004e-06
0.000157282
1.72445e-06
-5.14466e-07
0.000122521
8.36245e-05
-3.99119e-07
8.40198e-05
-9.0606e-07
0.000123023
0.000157847
-1.4769e-06
-1.10329e-06
0.000157229
1.71648e-06
-5.10367e-07
0.000122426
8.35061e-05
-4.03903e-07
8.39069e-05
-9.15053e-07
0.000122933
0.0001578
-1.49071e-06
-1.09279e-06
0.000157197
1.69098e-06
-5.05844e-07
0.000122343
8.33984e-05
-4.12454e-07
8.38085e-05
-9.41082e-07
0.000122868
0.000158324
-2.07151e-06
-5.24407e-07
0.000157235
1.60963e-06
-4.5958e-07
0.000122801
8.3347e-05
-9.13772e-07
8.42592e-05
-1.53904e-06
0.000123424
0.000158952
-3.25862e-06
1.62172e-07
0.000159017
-2.29646e-07
7.1239e-08
0.000123513
8.43292e-05
-1.64457e-06
8.59729e-05
-4.48807e-06
0.000126355
0.000161523
-6.99562e-06
6.02861e-06
0.000165779
-1.02859e-05
2.91943e-06
0.000129464
8.88919e-05
-8.53357e-06
9.74252e-05
-1.93782e-05
0.000140308
0.000179159
-3.27587e-05
4.26328e-05
0.000208241
-7.17149e-05
1.91521e-05
0.000163789
0.000116578
3.87045e-05
9.34859e-05
0.000163392
3.93501e-05
-0.000283821
-5.64355e-05
-0.000321151
-6.08898e-05
-0.000502803
-2.46104e-05
-0.00054225
-1.57095e-05
-0.000568472
-3.07945e-06
-0.000571221
-2.53503e-06
-0.000576122
-2.09943e-07
-0.000576669
-8.03599e-07
-0.000577382
9.40288e-07
-0.000576913
1.51638e-06
-0.000574753
4.99332e-06
-0.000568823
9.63257e-06
-0.000560899
2.11615e-05
-0.000547064
3.7843e-05
-0.000533263
8.4041e-05
-0.000528557
0.000186602
-0.000537183
8.40855e-05
-0.000331223
4.80008e-05
-0.000328315
2.68222e-05
-0.000318648
2.68421e-05
-0.00027166
7.85178e-06
-0.00023372
4.4332e-06
-8.22701e-05
1.80645e-06
-5.55263e-05
-2.98879e-05
-2.22618e-06
-2.76621e-05
-5.85758e-06
-5.18949e-05
-7.72054e-05
-1.09213e-05
4.0085e-06
-7.41946e-05
-7.02092e-06
1.40278e-06
-4.9289e-05
-2.62584e-05
-9.59189e-07
-2.52997e-05
-1.69709e-06
-4.85512e-05
-7.24177e-05
-3.47312e-06
6.8865e-07
-7.17846e-05
-1.32182e-06
1.63523e-07
-4.80261e-05
-2.51362e-05
-4.30887e-07
-2.47051e-05
-5.51853e-07
-4.79051e-05
-7.11869e-05
-1.15006e-06
5.21707e-07
-7.16238e-05
-8.47749e-08
6.91341e-08
-4.74527e-05
-2.46361e-05
-4.70812e-09
-2.46315e-05
-2.65682e-08
-4.7431e-05
-7.16313e-05
-1.94157e-08
-2.20447e-08
-7.1649e-05
3.93819e-08
-1.08548e-08
-4.74425e-05
-2.46425e-05
1.79294e-08
-2.46607e-05
3.84555e-08
-4.74633e-05
-7.16703e-05
5.92795e-08
-5.60561e-08
-7.17048e-05
9.00903e-08
-2.56745e-08
-4.7494e-05
-2.46866e-05
2.35887e-08
-2.47105e-05
5.23648e-08
-4.75232e-05
-7.17339e-05
8.07957e-08
-6.18822e-08
-7.17715e-05
9.88196e-08
-2.81054e-08
-4.75575e-05
-2.47389e-05
2.73559e-08
-2.47666e-05
6.05367e-08
-4.75912e-05
-7.18059e-05
9.41995e-08
-6.99305e-08
-7.18493e-05
1.12499e-07
-3.17323e-08
-4.763e-05
-2.47988e-05
2.88318e-08
-2.48281e-05
6.42819e-08
-4.76661e-05
-7.18865e-05
1.00484e-07
-6.95109e-08
-7.1929e-05
1.11049e-07
-3.14232e-08
-4.77049e-05
-2.486e-05
3.08134e-08
-2.48914e-05
6.82167e-08
-4.77431e-05
-7.19684e-05
1.06558e-07
-7.62438e-08
-7.20155e-05
1.22194e-07
-3.46347e-08
-4.77856e-05
-2.49266e-05
3.14581e-08
-2.49587e-05
6.99159e-08
-4.78249e-05
-7.20564e-05
1.09574e-07
-7.44662e-08
-7.21021e-05
1.18865e-07
-3.3802e-08
-4.78665e-05
-2.49932e-05
3.29486e-08
-2.50269e-05
7.28842e-08
-4.79075e-05
-7.21445e-05
1.1386e-07
-8.02699e-08
-7.21942e-05
1.28535e-07
-3.65384e-08
-4.79523e-05
-2.50642e-05
3.32605e-08
-2.50983e-05
7.38025e-08
-4.79939e-05
-7.22376e-05
1.1571e-07
-7.80829e-08
-7.22856e-05
1.24491e-07
-3.55413e-08
-4.80376e-05
-2.51347e-05
3.4624e-08
-2.51702e-05
7.64209e-08
-4.80806e-05
-7.23302e-05
1.1944e-07
-8.34939e-08
-7.2382e-05
1.33558e-07
-3.8092e-08
-4.81273e-05
-2.52093e-05
3.48322e-08
-2.52451e-05
7.70808e-08
-4.81709e-05
-7.24276e-05
1.2088e-07
-8.12201e-08
-7.24776e-05
1.2941e-07
-3.70574e-08
-4.82164e-05
-2.52831e-05
3.61463e-08
-2.53203e-05
7.9602e-08
-4.82612e-05
-7.25243e-05
1.24504e-07
-8.64232e-08
-7.2578e-05
1.38214e-07
-3.94958e-08
-4.83096e-05
-2.53609e-05
3.6281e-08
-2.53983e-05
8.01277e-08
-4.8355e-05
-7.26257e-05
1.25788e-07
-8.41492e-08
-7.26777e-05
1.3415e-07
-3.84432e-08
-4.84022e-05
-2.54379e-05
3.75376e-08
-2.54767e-05
8.25856e-08
-4.84488e-05
-7.27267e-05
1.29424e-07
-8.91893e-08
-7.27824e-05
1.42792e-07
-4.07767e-08
-4.84989e-05
-2.55187e-05
3.76068e-08
-2.55575e-05
8.30527e-08
-4.8546e-05
-7.28323e-05
1.30727e-07
-8.69433e-08
-7.28866e-05
1.39044e-07
-3.95797e-08
-4.85951e-05
-2.55984e-05
3.87531e-08
-2.56385e-05
8.53829e-08
-4.86435e-05
-7.2938e-05
1.34458e-07
-9.18388e-08
-7.2996e-05
1.47467e-07
-4.18879e-08
-4.86952e-05
-2.56818e-05
3.88176e-08
-2.5722e-05
8.593e-08
-4.87441e-05
-7.30484e-05
1.35962e-07
-8.97819e-08
-7.31054e-05
1.44288e-07
-4.0696e-08
-4.87951e-05
-2.57641e-05
3.98824e-08
-2.58055e-05
8.8306e-08
-4.88454e-05
-7.31596e-05
1.40005e-07
-9.45634e-08
-7.32203e-05
1.52748e-07
-4.28759e-08
-4.88991e-05
-2.58499e-05
3.98698e-08
-2.58913e-05
8.89045e-08
-4.89501e-05
-7.32758e-05
1.41851e-07
-9.27196e-08
-7.33359e-05
1.50239e-07
-4.16608e-08
-4.90032e-05
-2.59345e-05
4.07874e-08
-2.59769e-05
9.128e-08
-4.90557e-05
-7.33936e-05
1.46267e-07
-9.72682e-08
-7.34577e-05
1.5872e-07
-4.35707e-08
-4.91115e-05
-2.60221e-05
4.05653e-08
-2.60643e-05
9.18292e-08
-4.91649e-05
-7.35172e-05
1.48495e-07
-9.55722e-08
-7.35815e-05
1.57008e-07
-4.21984e-08
-4.92205e-05
-2.61082e-05
4.11682e-08
-2.61511e-05
9.41007e-08
-4.92756e-05
-7.36436e-05
1.53365e-07
-9.9716e-08
-7.37123e-05
1.6548e-07
-4.36266e-08
-4.9334e-05
-2.61965e-05
4.05028e-08
-2.62388e-05
9.43973e-08
-4.93901e-05
-7.37767e-05
1.55911e-07
-9.80014e-08
-7.38463e-05
1.64569e-07
-4.18708e-08
-4.94486e-05
-2.62825e-05
4.059e-08
-2.63249e-05
9.64595e-08
-4.95068e-05
-7.39142e-05
1.61343e-07
-1.01622e-07
-7.39888e-05
1.73108e-07
-4.26057e-08
-4.95681e-05
-2.63693e-05
3.92486e-08
-2.64104e-05
9.635e-08
-4.96276e-05
-7.40598e-05
1.64313e-07
-9.98554e-08
-7.41363e-05
1.73209e-07
-4.03011e-08
-4.96895e-05
-2.64525e-05
3.88945e-08
-2.64933e-05
9.87311e-08
-4.97518e-05
-7.42123e-05
1.71585e-07
-1.03819e-07
-7.42953e-05
1.8348e-07
-4.05866e-08
-4.98174e-05
-2.65357e-05
3.70838e-08
-2.65747e-05
9.90236e-08
-4.98818e-05
-7.43758e-05
1.76498e-07
-1.03041e-07
-7.44629e-05
1.86362e-07
-3.81108e-08
-4.99491e-05
-2.66145e-05
3.62693e-08
-2.66533e-05
1.02383e-07
-5.00179e-05
-7.45506e-05
1.8817e-07
-1.09152e-07
-7.46469e-05
1.99544e-07
-3.89905e-08
-5.00901e-05
-2.66929e-05
3.31908e-08
-2.67299e-05
1.031e-07
-5.01631e-05
-7.47407e-05
1.97579e-07
-1.10985e-07
-7.48427e-05
2.06377e-07
-3.66816e-08
-5.02395e-05
-2.67666e-05
3.28455e-08
-2.68029e-05
1.08819e-07
-5.03184e-05
-7.49461e-05
2.12051e-07
-1.16447e-07
-7.5059e-05
2.2446e-07
-3.55966e-08
-5.04015e-05
-2.68396e-05
3.18468e-08
-2.68738e-05
1.13904e-07
-5.04861e-05
-7.51724e-05
2.24956e-07
-1.20168e-07
-7.52945e-05
2.38859e-07
-3.31116e-08
-5.05755e-05
-2.69087e-05
3.18712e-08
-2.69425e-05
1.22554e-07
-5.06687e-05
-7.54206e-05
2.4547e-07
-1.3042e-07
-7.55566e-05
2.63187e-07
-3.3617e-08
-5.0768e-05
-2.69781e-05
3.15011e-08
-2.70115e-05
1.31111e-07
-5.08701e-05
-7.56954e-05
2.66419e-07
-1.40713e-07
-7.58448e-05
2.86619e-07
-3.39706e-08
-5.09795e-05
-2.70474e-05
3.48102e-08
-2.70842e-05
1.47438e-07
-5.10948e-05
-7.60005e-05
2.99442e-07
-1.6029e-07
-7.61681e-05
3.2413e-07
-3.89396e-08
-5.12189e-05
-2.71251e-05
4.0114e-08
-2.71672e-05
1.67432e-07
-5.13491e-05
-7.63413e-05
3.36794e-07
-1.83921e-07
-7.65276e-05
3.66366e-07
-4.60993e-08
-5.14899e-05
-2.72155e-05
5.11591e-08
-2.72688e-05
1.98525e-07
-5.16403e-05
-7.67228e-05
3.89904e-07
-2.2003e-07
-7.6932e-05
4.25425e-07
-6.03887e-08
-5.1803e-05
-2.73315e-05
6.7822e-08
-2.74018e-05
2.3813e-07
-5.19764e-05
-7.715e-05
4.5241e-07
-2.66737e-07
-7.73844e-05
4.97304e-07
-8.11806e-08
-5.2165e-05
-2.74855e-05
9.41573e-08
-2.75823e-05
2.94744e-07
-5.23686e-05
-7.76309e-05
5.37646e-07
-3.30919e-07
-7.78943e-05
5.91208e-07
-1.12717e-07
-5.25895e-05
-2.76976e-05
1.31244e-07
-2.7831e-05
3.6729e-07
-5.28278e-05
-7.81705e-05
6.40641e-07
-4.15697e-07
-7.8467e-05
7.09666e-07
-1.57138e-07
-5.30885e-05
-2.799e-05
1.84332e-07
-2.8176e-05
4.65676e-07
-5.33715e-05
-7.87815e-05
7.77967e-07
-5.27622e-07
-7.91152e-05
8.59133e-07
-2.18849e-07
-5.36817e-05
-2.83962e-05
2.56238e-07
-2.86535e-05
5.92971e-07
-5.40198e-05
-7.94704e-05
9.45575e-07
-6.75058e-07
-7.98543e-05
1.05596e-06
-3.03039e-07
-5.43938e-05
-2.89574e-05
3.56747e-07
-2.93148e-05
7.68936e-07
-5.48083e-05
-8.02683e-05
1.17912e-06
-8.84026e-07
-8.07208e-05
1.33195e-06
-4.22594e-07
-5.52729e-05
-2.97389e-05
4.97916e-07
-3.02389e-05
1.0135e-06
-5.57926e-05
-8.12135e-05
1.50114e-06
-1.17182e-06
-8.17778e-05
1.73332e-06
-5.83233e-07
-5.63839e-05
-3.0825e-05
8.24491e-07
-3.16515e-05
1.55957e-06
-5.71203e-05
-8.18819e-05
1.66203e-06
-1.51734e-06
-8.23922e-05
2.02639e-06
-9.33567e-07
-5.77046e-05
-3.25862e-05
7.32907e-07
-3.33189e-05
1.38455e-06
-5.83556e-05
-8.29279e-05
1.91967e-06
-1.22469e-06
-8.44045e-05
2.69981e-06
-2.89422e-07
-5.92915e-05
-3.36076e-05
1.26921e-06
-3.48787e-05
1.65502e-06
-5.96797e-05
-8.51991e-05
2.44692e-06
-1.95402e-06
-8.59847e-05
2.73551e-06
-5.81633e-07
-6.10566e-05
-3.54646e-05
9.10988e-07
-3.63845e-05
1.6751e-06
-6.18289e-05
-8.72484e-05
2.93268e-06
-2.32373e-06
-8.79444e-05
3.01233e-06
-1.01798e-06
-6.31425e-05
-3.74106e-05
1.09156e-06
-3.85026e-05
1.92038e-06
-6.3974e-05
-8.97176e-05
3.68974e-06
-2.63386e-06
-9.09003e-05
3.81462e-06
-1.38232e-06
-6.52245e-05
-3.9881e-05
1.34837e-06
-4.12228e-05
2.58109e-06
-6.64491e-05
-9.19879e-05
3.67065e-06
-2.53883e-06
-9.37686e-05
4.32424e-06
-1.1231e-06
-6.7861e-05
-4.23468e-05
1.05244e-06
-4.34042e-05
2.83156e-06
-6.96476e-05
-9.55709e-05
4.63359e-06
-4.27131e-06
-9.85268e-05
7.22454e-06
-2.40412e-06
-7.15359e-05
-4.58064e-05
2.43252e-06
-4.82503e-05
6.29288e-06
-7.54293e-05
-0.000102623
1.04305e-05
6.72009e-05
-4.99698e-05
-0.000119925
2.69096e-05
-3.52474e-05
-2.1222e-05
2.4211e-06
-2.57859e-05
1.57166e-05
-4.54853e-05
-6.52456e-05
2.99166e-05
-9.32605e-06
-7.24642e-05
1.52014e-05
-3.74487e-06
-5.09167e-05
-2.87266e-05
6.67975e-07
-2.98227e-05
1.93504e-06
-5.22736e-05
-7.35506e-05
3.70012e-06
-2.00468e-07
-7.37175e-05
2.7255e-07
-4.02663e-07
-5.20503e-05
-3.01511e-05
1.79995e-06
-3.1576e-05
3.66971e-06
-5.38291e-05
-7.54573e-05
4.67134e-06
-2.16462e-06
-7.66137e-05
3.68038e-06
-9.6756e-07
-5.5079e-05
-3.27459e-05
2.11168e-06
-3.49333e-05
4.14098e-06
-5.71305e-05
-7.90054e-05
6.70509e-06
-2.79265e-06
-8.10785e-05
4.72054e-06
-1.57801e-06
-5.83198e-05
-3.64265e-05
2.3389e-06
-3.88039e-05
4.88516e-06
-6.08734e-05
-8.35843e-05
7.46354e-06
-4.38883e-06
-8.63049e-05
7.08478e-06
-2.01696e-06
-6.32486e-05
-4.08104e-05
2.69933e-06
-4.34916e-05
6.36606e-06
-6.69286e-05
-9.13618e-05
1.13894e-05
-9.39415e-06
-9.8087e-05
1.63171e-05
-4.09982e-06
-7.22684e-05
-4.77177e-05
-2.51589e-05
-2.20229e-05
-6.21645e-05
-3.53946e-05
-4.9028e-05
-0.000111905
-1.83363e-05
-6.49366e-05
3.29444e-05
-3.31032e-06
-4.60667e-05
-2.86698e-05
5.19268e-06
-3.30347e-05
1.28935e-05
-5.36425e-05
-7.37179e-05
2.03674e-05
-6.2977e-06
-7.98206e-05
1.41784e-05
-2.80763e-06
-5.7352e-05
-3.68185e-05
2.921e-06
-3.91933e-05
6.89303e-06
-6.11753e-05
-8.38189e-05
9.85707e-06
-5.17993e-06
-8.71816e-05
8.97116e-06
-2.22403e-06
-6.4205e-05
-4.16605e-05
2.66719e-06
-4.42626e-05
5.72278e-06
-6.72381e-05
-9.08511e-05
9.27272e-06
-6.93816e-06
-9.59423e-05
1.20506e-05
-2.93289e-06
-7.12428e-05
-4.72111e-05
3.13962e-06
-5.03693e-05
6.82577e-06
-7.49496e-05
-0.000100456
1.13597e-05
6.49207e-05
-4.98863e-05
-0.000115605
2.64944e-05
-3.64104e-05
-2.39325e-05
8.56611e-06
-3.04263e-05
1.73812e-05
-4.74128e-05
-6.55277e-05
3.32398e-05
-1.28266e-05
-7.50078e-05
2.00187e-05
-5.37015e-06
-5.44716e-05
-3.46982e-05
2.61356e-06
-3.75865e-05
5.81658e-06
-5.77164e-05
-7.819e-05
9.33908e-06
-3.77383e-06
-8.00898e-05
5.83009e-06
-1.72065e-06
-5.97952e-05
-3.93729e-05
3.21074e-06
-4.25241e-05
6.59345e-06
-6.3179e-05
-8.57422e-05
1.21574e-05
-9.21038e-06
-9.16817e-05
1.52945e-05
-4.1832e-06
-6.82618e-05
-4.68027e-05
-2.37309e-05
-2.25842e-05
-5.79778e-05
-3.41768e-05
-4.63277e-05
-0.000103834
-1.97209e-05
-6.16041e-05
3.34989e-05
-3.64729e-06
-4.57301e-05
-2.95772e-05
7.11387e-06
-3.55642e-05
1.4898e-05
-5.33054e-05
-7.17767e-05
2.32954e-05
-9.0351e-06
-7.97549e-05
1.81188e-05
-3.58733e-06
-5.89006e-05
-3.98162e-05
4.64807e-06
-4.42515e-05
9.63545e-06
-6.38079e-05
-8.64918e-05
1.5969e-05
-7.41843e-06
-9.05334e-05
1.18143e-05
-3.1926e-06
-6.81482e-05
-4.76332e-05
-2.43408e-05
-2.2553e-05
-5.8428e-05
-3.4197e-05
-4.55544e-05
-0.000104308
-1.91459e-05
-5.97867e-05
3.17316e-05
-4.24865e-06
-4.45041e-05
-2.99797e-05
6.3258e-06
-3.49889e-05
1.32624e-05
-5.11999e-05
-6.90695e-05
2.03712e-05
-8.59623e-06
-7.50255e-05
1.52756e-05
-3.6616e-06
-5.62878e-05
-3.90789e-05
4.51505e-06
-4.35568e-05
1.02981e-05
-6.20219e-05
-8.17806e-05
1.69781e-05
5.26004e-05
-4.19239e-05
-9.26045e-05
2.1978e-05
-3.164e-05
-2.13391e-05
4.04954e-06
-2.88974e-05
1.94629e-05
-4.22668e-05
-5.57937e-05
3.17849e-05
-1.58095e-05
-6.749e-05
2.52764e-05
-7.65272e-06
-5.01703e-05
-3.51756e-05
5.12234e-06
-4.06239e-05
1.20123e-05
-5.7161e-05
-7.57122e-05
2.07378e-05
-7.52381e-06
-8.01961e-05
1.19227e-05
-3.92394e-06
-6.07274e-05
-4.45081e-05
-2.23296e-05
-2.22261e-05
-5.18787e-05
-3.11846e-05
-4.12083e-05
-9.07832e-05
-1.84601e-05
-5.50674e-05
3.23139e-05
-7.42551e-06
-4.22111e-05
-2.96611e-05
6.70516e-06
-3.63387e-05
1.36572e-05
-4.91848e-05
-6.41937e-05
2.2794e-05
4.16233e-05
-3.34827e-05
-7.23958e-05
1.77726e-05
-2.51222e-05
-1.87237e-05
8.32858e-06
-2.53462e-05
1.58116e-05
-3.51298e-05
-4.63274e-05
2.95225e-05
-1.32962e-05
-5.40866e-05
2.10254e-05
-6.33075e-06
-4.19708e-05
-3.17941e-05
-1.60424e-05
-1.57425e-05
-3.71162e-05
-2.09097e-05
-2.69763e-05
-6.4224e-05
-1.01764e-05
-3.39061e-05
1.71047e-05
-4.8028e-06
-2.62822e-05
-2.05469e-05
-1.23781e-05
-8.16906e-06
-2.7739e-05
-1.0922e-05
-1.44155e-05
-4.72301e-05
2.15397e-06
-1.49828e-05
-1.58731e-06
1.25348e-06
-1.0022e-05
-6.916e-06
-1.34888e-05
6.57242e-06
-3.2229e-05
8.71756e-06
1.10465e-05
-5.82597e-05
2.49526e-05
2.77183e-05
-4.16253e-05
1.15004e-05
2.21693e-05
1.80726e-05
-1.08004e-05
2.88728e-05
-2.38266e-05
3.5195e-05
4.41154e-05
-4.02246e-05
2.75748e-05
6.47396e-05
-4.81998e-05
1.15218e-05
5.12475e-05
4.03943e-05
-1.34827e-05
5.38767e-05
-3.29152e-05
7.06793e-05
9.09567e-05
-5.91336e-05
-4.97025e-05
5.63429e-05
8.43149e-05
-2.16662e-05
4.26416e-05
3.22093e-05
-1.92648e-05
5.14791e-05
-4.40036e-05
6.73836e-05
8.82087e-05
-7.5873e-05
-4.09071e-05
5.98167e-05
6.92814e-05
-1.86338e-05
4.51093e-05
3.28495e-05
-2.43078e-05
5.71144e-05
-5.61802e-05
7.70094e-05
0.000100526
-9.67945e-05
-3.78322e-05
7.56341e-05
6.27961e-05
-1.72477e-05
5.61259e-05
4.02428e-05
7.80426e-06
2.61472e-05
3.48562e-05
3.74088e-05
4.92867e-05
5.87612e-05
4.88664e-05
8.68087e-05
-8.5715e-05
1.92677e-05
6.51329e-05
4.65746e-05
1.40571e-05
3.24379e-05
3.34878e-05
4.59935e-05
6.05365e-05
5.9479e-05
6.01598e-05
0.000107929
-0.000107594
2.48406e-05
8.12517e-05
5.73596e-05
1.41684e-05
4.3187e-05
3.34952e-05
6.19259e-05