/*--------------------------------*- C++ -*----------------------------------*\
| =========                 |                                                 |
| \\      /  F ield         | OpenFOAM: The Open Source CFD Toolbox           |
|  \\    /   O peration     | Version:  v2006                                 |
|   \\  /    A nd           | Website:  www.openfoam.com                      |
|    \\/     M anipulation  |                                                 |
\*---------------------------------------------------------------------------*/
FoamFile
{
    version     2.0;
    format      ascii;
    class       volScalarField;
    location    "0.022";
    object      turbulenceProperties:L;
}
// * * * * * * * * * * * * * * * * * * * * * * * * * * * * * * * * * * * * * //

dimensions      [0 1 0 0 0 0 0];


internalField   nonuniform List<scalar> 
16277
(
1998.61
1998.61
1999
1999.13
1999.52
1999.43
1999.45
1999.27
1998.83
1998.19
1997.47
1996.78
1996.17
1995.64
1995.18
1994.75
1994.35
1993.97
1993.59
1993.23
1992.87
1992.51
1992.17
1991.83
1991.5
1991.18
1990.86
1990.54
1990.24
1989.94
1989.64
1989.35
1989.07
1988.8
1988.53
1988.27
1988.03
1987.79
1987.56
1987.35
1987.14
1986.95
1986.77
1986.59
1986.43
1986.29
1986.16
1986.04
1985.94
1985.85
1985.78
1985.73
1985.69
1985.67
1985.67
1985.68
1985.72
1985.77
1985.84
1985.93
1986.03
1986.15
1986.26
1986.33
1986.28
1985.9
1984.66
1981.26
1972.29
1949.5
1900.09
1799.66
1614.79
1324.24
961.983
617.542
360.383
198.049
105.053
55.0875
28.8497
15.4198
9.02141
7.07672
5.13199
4.23613
3.48122
1.92252
1.11736
0.88719
0.989634
0.374004
0.121436
0.0320829
0.00372625
0.00067634
4.70483e-05
4.51183e-05
0.000325066
0.00146024
0.000819386
0.000221221
4.31659e-05
4.18756e-05
0.000207486
0.000698953
0.000573531
0.000187064
4.15317e-05
4.10509e-05
0.000185055
0.000550692
0.000490048
0.000173617
4.07408e-05
4.03834e-05
0.000173104
0.000482382
0.00044999
0.000166545
4.01718e-05
4.00885e-05
0.000169089
0.000449056
0.000428923
0.000163864
3.99941e-05
3.9931e-05
0.000166387
0.000429137
0.000413909
0.000161857
3.98503e-05
3.98006e-05
0.000164101
0.000414923
0.000402119
0.000160006
3.97294e-05
3.96885e-05
0.00016204
0.000403524
0.000392167
0.000158246
3.9625e-05
3.95895e-05
0.000160162
0.000393793
0.000383436
0.000156559
3.95312e-05
3.94997e-05
0.000158416
0.000385206
0.000375611
0.000154943
3.94452e-05
3.94165e-05
0.000156745
0.000377474
0.000368493
0.00015339
3.93649e-05
3.93382e-05
0.000155152
0.000370427
0.000361972
0.000151908
3.92885e-05
3.92633e-05
0.000153642
0.000363962
0.00035596
0.000150501
3.92148e-05
3.91906e-05
0.000152214
0.000358005
0.000350378
0.000149167
3.91429e-05
3.91192e-05
0.000150861
0.000352482
0.00034519
0.000147899
3.90718e-05
3.90484e-05
0.000149579
0.00034735
0.00034036
0.000146695
3.90011e-05
3.89778e-05
0.000148363
0.000342571
0.000335852
0.000145552
3.89303e-05
3.89068e-05
0.000147209
0.000338106
0.00033163
0.000144467
3.8859e-05
3.88353e-05
0.000146114
0.000333916
0.000327656
0.000143435
3.87869e-05
3.87628e-05
0.000145072
0.000329963
0.000323894
0.000142451
3.87137e-05
3.86891e-05
0.000144079
0.000326216
0.000320319
0.000141512
3.86392e-05
3.86141e-05
0.00014313
0.000322652
0.000316914
0.000140614
3.85631e-05
3.85374e-05
0.000142223
0.000319253
0.00031366
0.000139753
3.84852e-05
3.84586e-05
0.000141352
0.000316001
0.000310538
0.000138924
3.84051e-05
3.83776e-05
0.000140514
0.000312876
0.000307533
0.000138124
3.83225e-05
3.82939e-05
0.000139704
0.000309866
0.000304631
0.000137348
3.82369e-05
3.82072e-05
0.000138918
0.000306954
0.000301817
0.000136593
3.81481e-05
3.8117e-05
0.000138152
0.000304128
0.00029908
0.000135856
3.80556e-05
3.80229e-05
0.000137405
0.000301377
0.000296411
0.000135135
3.79589e-05
3.79245e-05
0.000136674
0.000298695
0.000293809
0.000134429
3.78576e-05
3.78213e-05
0.00013596
0.00029608
0.000291272
0.000133741
3.77513e-05
3.7713e-05
0.000135265
0.000293533
0.000288804
0.00013307
3.76396e-05
3.75991e-05
0.000134597
0.00029106
0.00028641
0.000132423
3.7522e-05
3.74792e-05
0.000133963
0.000288666
0.000284097
0.000131803
3.73981e-05
3.7353e-05
0.000133354
0.000286357
0.000281869
0.000131207
3.72678e-05
3.72203e-05
0.000132775
0.000284138
0.000279735
0.000130643
3.71308e-05
3.70809e-05
0.000132235
0.00028202
0.000277708
0.000130118
3.6987e-05
3.69348e-05
0.000131741
0.000280019
0.000275805
0.000129642
3.68364e-05
3.67822e-05
0.000131304
0.000278156
0.000274051
0.000129224
3.66795e-05
3.66237e-05
0.000130938
0.000276492
0.000272488
0.000128883
3.6517e-05
3.64602e-05
0.000130662
0.000275071
0.000271155
0.000128637
3.63501e-05
3.62932e-05
0.000130495
0.000273897
0.000270085
0.000128506
3.61807e-05
3.6125e-05
0.000130462
0.000273032
0.000269343
0.000128518
3.60115e-05
3.59586e-05
0.000130591
0.000272547
0.000269002
0.0001287
3.5846e-05
3.57982e-05
0.000130914
0.000272522
0.000269146
0.000129089
3.56888e-05
3.56488e-05
0.000131467
0.000273042
0.000269867
0.000129742
3.55455e-05
3.55174e-05
0.00013217
0.000274154
0.000271198
0.000130538
3.54261e-05
3.54091e-05
0.000133046
0.00027601
0.00027327
0.000131528
3.53341e-05
3.53298e-05
0.000134113
0.000278613
0.00027607
0.000132716
3.52775e-05
3.52841e-05
0.000135346
0.000281902
0.000279532
0.000134069
3.52649e-05
3.52746e-05
0.000136687
0.000285749
0.000283538
0.000135489
3.52665e-05
3.53053e-05
0.000138072
0.000290117
0.000288032
0.000136868
3.53095e-05
3.53695e-05
0.00013935
0.000294847
0.000292821
0.000138152
3.53863e-05
3.54634e-05
0.000140418
0.000299553
0.000297492
0.000139235
3.54893e-05
3.55772e-05
0.000141242
0.000303939
0.000301787
0.000140018
3.56093e-05
3.57035e-05
0.00014194
0.000307864
0.000305607
0.000140545
3.57398e-05
3.58374e-05
0.000142391
0.000311225
0.000308868
0.000140908
3.58761e-05
3.59748e-05
0.000142656
0.000313972
0.000311508
0.000141019
3.60138e-05
3.61104e-05
0.000142694
0.000316096
0.000313469
0.000140911
3.61482e-05
3.62406e-05
0.000142524
0.000317538
0.000314691
0.000140618
3.62762e-05
3.63626e-05
0.000142182
0.000318572
0.000315341
0.000140183
3.63952e-05
3.64744e-05
0.000141665
0.000318976
0.000315348
0.00013959
3.65032e-05
3.65746e-05
0.000141103
0.000318751
0.00031458
0.000138787
3.65997e-05
3.66627e-05
0.000140305
0.000317847
0.000313267
0.000137912
3.66837e-05
3.67379e-05
0.000139434
0.000316442
0.000311635
0.00013701
3.67547e-05
3.68003e-05
0.000138533
0.000314698
0.000309734
0.000136115
3.6813e-05
3.68504e-05
0.000137631
0.00031268
0.000307637
0.00013525
3.68593e-05
3.68893e-05
0.000136754
0.000310462
0.00030541
0.000134436
3.68948e-05
3.69182e-05
0.00013592
0.000308113
0.000303106
0.000133678
3.69206e-05
3.69383e-05
0.000135137
0.000305685
0.000300762
0.000132977
3.69383e-05
3.69504e-05
0.000134402
0.000303221
0.000298392
0.000132324
3.69487e-05
3.69566e-05
0.000133715
0.000300788
0.000296074
0.000131716
3.69536e-05
3.69581e-05
0.000133075
0.000298428
0.000293827
0.00013115
3.6954e-05
3.69568e-05
0.000132478
0.000296161
0.00029165
0.000130601
3.695e-05
3.69517e-05
0.000131921
0.00029397
0.000289553
0.000130073
3.69426e-05
3.69438e-05
0.000131397
0.000291861
0.000287537
0.000129581
3.69332e-05
3.69339e-05
0.000130907
0.000289835
0.0002856
0.000129119
3.69219e-05
3.69224e-05
0.000130445
0.000287887
0.000283735
0.00012868
3.69094e-05
3.69095e-05
0.000130002
0.000286009
0.000281906
0.000128257
3.68957e-05
3.68957e-05
0.000129573
0.000284181
0.000280117
0.000127843
3.68811e-05
3.6881e-05
0.000129156
0.000282404
0.000278381
0.000127432
3.68659e-05
3.68656e-05
0.000128742
0.000280676
0.000276695
0.000127025
3.68501e-05
3.68498e-05
0.000128333
0.000278998
0.000275059
0.000126624
3.6826e-05
3.68415e-05
0.000127945
0.00027739
0.000273294
0.000126227
3.68022e-05
3.68255e-05
0.000127442
0.000275915
0.000271957
0.000125514
3.67557e-05
3.69408e-05
0.000127693
0.000275961
0.000273386
0.000127561
3.70453e-05
3.75649e-05
0.000127941
0.00027654
0.000289789
0.000134304
3.82704e-05
4.09428e-05
0.000127112
0.000282252
0.000419585
0.000234663
4.69246e-05
4.16968e-05
9.86199e-05
0.00021962
0.000495639
0.00104353
0.00180735
0.00243443
0.00282837
0.0035599
0.00399762
0.00437909
0.00457748
0.00465717
0.00460329
0.00440012
0.0041301
0.00370124
0.00328922
0.00264802
0.00236628
0.00180615
0.00141717
0.00101778
0.000616784
0.000298635
0.000115659
4.99223e-05
1.27428e-05
1.16968e-05
4.60246e-05
0.000105047
9.93042e-05
4.35515e-05
1.08903e-05
1.02823e-05
4.17247e-05
9.41436e-05
9.42612e-05
4.14064e-05
1.00836e-05
9.96572e-06
4.11255e-05
9.2695e-05
9.26057e-05
4.0721e-05
9.84321e-06
9.83299e-06
4.06483e-05
9.23691e-05
9.25569e-05
4.0675e-05
9.84272e-06
9.84149e-06
4.06808e-05
9.26488e-05
9.27279e-05
4.07059e-05
9.85321e-06
9.85889e-06
4.07358e-05
9.28912e-05
9.2965e-05
4.0759e-05
9.86518e-06
9.87751e-06
4.07972e-05
9.31345e-05
9.32344e-05
4.08165e-05
9.87274e-06
9.88572e-06
4.08669e-05
9.34046e-05
9.35065e-05
4.08881e-05
9.89212e-06
9.90554e-06
4.0934e-05
9.36902e-05
9.37799e-05
4.09534e-05
9.90666e-06
9.90889e-06
4.10144e-05
9.39798e-05
9.40706e-05
4.10308e-05
9.92723e-06
9.92945e-06
4.10854e-05
9.4271e-05
9.43643e-05
4.11032e-05
9.93712e-06
9.93928e-06
4.11689e-05
9.45744e-05
9.46691e-05
4.11868e-05
9.95833e-06
9.96067e-06
4.12439e-05
9.48784e-05
9.49757e-05
4.1264e-05
9.96884e-06
9.97123e-06
4.13316e-05
9.51942e-05
9.52929e-05
4.1352e-05
9.99071e-06
9.99333e-06
4.14113e-05
9.551e-05
9.5611e-05
4.14337e-05
1.00018e-05
1.00045e-05
4.15035e-05
9.58367e-05
9.59388e-05
4.15261e-05
1.00244e-05
1.00273e-05
4.15878e-05
9.61622e-05
9.62661e-05
4.16123e-05
1.00361e-05
1.00391e-05
4.16846e-05
9.64968e-05
9.6601e-05
4.17096e-05
1.00536e-05
1.00683e-05
4.17672e-05
9.68307e-05
9.69371e-05
4.17997e-05
1.00713e-05
1.0075e-05
4.18701e-05
9.71705e-05
9.72769e-05
4.18979e-05
1.00894e-05
1.01047e-05
4.19585e-05
9.75085e-05
9.76157e-05
4.19895e-05
1.01077e-05
1.01117e-05
4.20629e-05
9.78508e-05
9.79575e-05
4.20904e-05
1.01263e-05
1.01419e-05
4.21543e-05
9.8189e-05
9.82955e-05
4.21838e-05
1.01451e-05
1.01494e-05
4.22589e-05
9.85289e-05
9.86341e-05
4.22859e-05
1.01641e-05
1.01799e-05
4.23523e-05
9.88614e-05
9.89648e-05
4.23789e-05
1.01831e-05
1.01875e-05
4.24546e-05
9.91909e-05
9.92914e-05
4.24791e-05
1.02022e-05
1.0218e-05
4.25468e-05
9.95083e-05
9.96036e-05
4.2567e-05
1.0221e-05
1.02252e-05
4.26408e-05
9.98179e-05
9.99062e-05
4.26587e-05
1.02395e-05
1.02551e-05
4.27211e-05
0.000100107
0.000100184
4.27322e-05
1.02576e-05
1.02614e-05
4.2799e-05
0.000100378
0.000100441
4.28037e-05
1.02752e-05
1.02901e-05
4.28548e-05
0.000100619
0.000100671
4.28526e-05
1.0292e-05
1.0295e-05
4.29006e-05
0.000100835
0.000100875
4.28927e-05
1.03139e-05
1.03161e-05
4.29166e-05
0.000101013
0.000101042
4.29002e-05
1.03232e-05
1.03245e-05
4.29129e-05
0.000101156
0.000101168
4.28813e-05
1.03426e-05
1.03429e-05
4.2866e-05
0.000101247
0.000101245
4.28149e-05
1.0349e-05
1.03483e-05
4.27822e-05
0.000101289
0.000101273
4.27017e-05
1.03594e-05
1.03701e-05
4.2634e-05
0.000101285
0.000101242
4.2531e-05
1.03691e-05
1.03678e-05
4.2435e-05
0.000101239
0.000101146
4.22968e-05
1.03786e-05
1.03894e-05
4.21644e-05
0.000101147
0.000101015
4.19841e-05
1.03893e-05
1.03901e-05
4.18272e-05
0.000101028
0.000100855
4.16079e-05
1.04093e-05
1.04131e-05
4.14125e-05
0.000100882
0.00010069
4.11546e-05
1.04244e-05
1.04328e-05
4.09346e-05
0.000100746
0.000100554
4.06428e-05
1.04555e-05
1.0483e-05
4.03946e-05
0.000100661
0.000100504
4.0075e-05
1.05028e-05
1.05357e-05
3.98131e-05
0.000100708
0.000100674
3.94961e-05
1.0574e-05
1.06225e-05
3.92287e-05
0.000101025
0.00010126
3.893e-05
1.06795e-05
1.0751e-05
3.87319e-05
0.000101943
0.000102677
3.85434e-05
1.08344e-05
1.09281e-05
3.8553e-05
0.000103863
0.000105563
3.92055e-05
1.11088e-05
1.12846e-05
3.97718e-05
0.000106983
0.000107861
3.99268e-05
1.1264e-05
1.14042e-05
3.94404e-05
0.000109085
0.000110878
4.16474e-05
1.16638e-05
1.18133e-05
4.08548e-05
0.000111731
0.000112979
4.19891e-05
1.20924e-05
1.23425e-05
4.26193e-05
0.000114733
0.000115092
4.35418e-05
1.2702e-05
1.31705e-05
4.54748e-05
0.000117149
0.000117115
4.65168e-05
1.35649e-05
1.38764e-05
4.77039e-05
0.000118131
0.000117843
4.85437e-05
1.45411e-05
1.57025e-05
5.44629e-05
0.000119861
0.000118022
5.62836e-05
1.08002e-05
6.16246e-06
1.64615e-05
4.19765e-05
0.000100024
3.57404e-05
8.30039e-06
9.16957e-06
3.21063e-05
9.26307e-05
9.68198e-05
3.36122e-05
9.38848e-06
9.5729e-06
3.21846e-05
9.31415e-05
9.87494e-05
3.4568e-05
9.97665e-06
1.04456e-05
3.41687e-05
9.7388e-05
0.000104522
3.82863e-05
1.10326e-05
1.16575e-05
3.78935e-05
0.000102374
0.000108782
4.28675e-05
1.24085e-05
1.33232e-05
4.34425e-05
0.000108409
0.000115377
5.0069e-05
1.48494e-05
1.05031e-05
5.39636e-05
0.000115869
4.13768e-05
1.58695e-05
6.44359e-06
8.95744e-06
3.74638e-05
0.000104562
0.000101555
3.50946e-05
1.05943e-05
1.17661e-05
4.42162e-05
0.000118974
0.000119759
4.42418e-05
1.26226e-05
1.36625e-05
4.96239e-05
0.000128264
0.000129607
5.18459e-05
1.47971e-05
1.63716e-05
5.85111e-05
0.00013595
0.000131
6.09827e-05
1.15912e-05
6.97093e-06
1.72912e-05
4.68289e-05
0.000114545
4.22704e-05
9.59109e-06
1.10391e-05
3.94259e-05
0.000111252
0.000122174
4.64276e-05
1.19603e-05
1.30167e-05
4.5799e-05
0.000119542
0.000128005
5.43827e-05
1.48301e-05
1.07571e-05
6.05008e-05
0.000126716
4.63099e-05
1.75213e-05
6.64398e-06
9.55939e-06
4.12084e-05
0.000117449
0.000118353
4.24443e-05
1.17121e-05
1.38614e-05
5.51308e-05
0.000142079
0.000145003
6.18536e-05
1.59065e-05
1.15033e-05
6.7306e-05
0.000142544
5.27069e-05
1.89932e-05
6.84243e-06
9.85708e-06
4.91787e-05
0.00012967
0.000127081
4.69111e-05
1.21517e-05
1.45711e-05
6.19917e-05
0.000148657
0.000147847
6.88649e-05
1.08476e-05
6.68925e-06
1.99327e-05
5.75821e-05
0.00014696
5.48919e-05
1.03829e-05
1.36391e-05
5.57971e-05
0.000153063
0.000194554
8.15088e-05
1.68431e-05
1.27659e-05
8.36511e-05
0.000184149
7.72197e-05
2.59817e-05
8.1774e-06
1.34624e-05
7.8429e-05
0.000191072
0.000186792
8.00581e-05
1.1183e-05
7.68444e-06
2.62286e-05
8.35211e-05
0.000237996
9.10384e-05
1.40186e-05
1.24221e-05
9.92285e-05
0.000250716
0.000121582
4.27059e-05
9.61224e-06
1.10418e-05
9.94326e-05
0.000269084
0.00019355
7.49643e-05
1.01709e-05
1.35625e-05
0.000107474
0.000317474
0.000264312
9.00048e-05
1.12568e-05
1.11499e-05
8.67553e-05
0.00025535
0.00027819
9.66703e-05
1.30572e-05
1.70773e-05
0.000172366
0.000466747
0.000104259
3.90476e-05
1.41341e-05
1.31291e-05
9.52486e-05
0.000201782
7.4501e-05
3.14766e-05
1.21843e-05
1.3542e-05
6.88575e-05
0.000147152
0.000131778
5.55416e-05
1.47573e-05
8.18219e-06
1.95347e-05
4.82086e-05
9.87804e-05
6.44888e-05
9.92587e-06
1.05385e-05
2.49626e-05
5.48043e-05
0.000115476
5.89443e-05
1.28719e-05
1.47946e-05
5.15664e-05
0.000109172
4.59277e-05
1.97697e-05
8.95803e-06
1.17413e-05
5.29304e-05
0.00010016
9.61366e-05
4.72006e-05
1.40038e-05
8.56347e-06
1.83446e-05
4.16794e-05
9.26219e-05
4.92691e-05
1.12609e-05
1.362e-05
4.50975e-05
8.92647e-05
3.97157e-05
1.8007e-05
8.5152e-06
1.1096e-05
4.70828e-05
8.79756e-05
8.39918e-05
4.32502e-05
1.34611e-05
8.43247e-06
1.72808e-05
3.78559e-05
8.33192e-05
4.48865e-05
1.09645e-05
1.34665e-05
4.12728e-05
7.98981e-05
3.62941e-05
1.69941e-05
8.52915e-06
1.11138e-05
4.39302e-05
7.97813e-05
7.59808e-05
4.02073e-05
1.35522e-05
8.50991e-06
1.66014e-05
3.52171e-05
7.69651e-05
4.25676e-05
1.10466e-05
1.36985e-05
3.93085e-05
7.38681e-05
3.54476e-05
1.70223e-05
8.85147e-06
1.16392e-05
4.44148e-05
7.76425e-05
7.12553e-05
3.77018e-05
1.50576e-05
1.11179e-05
3.13422e-05
6.23988e-05
2.87912e-05
1.36657e-05
7.09259e-06
9.12672e-06
3.40638e-05
6.13638e-05
6.02842e-05
3.2604e-05
1.1601e-05
7.34922e-06
1.34169e-05
2.87486e-05
5.91731e-05
3.3504e-05
9.31565e-06
1.17646e-05
3.11336e-05
5.72329e-05
2.77265e-05
1.38304e-05
7.38253e-06
9.24362e-06
3.27629e-05
5.58014e-05
5.48742e-05
3.13839e-05
1.16887e-05
7.4219e-06
1.31837e-05
2.71513e-05
5.45038e-05
3.19849e-05
9.35432e-06
1.1764e-05
3.01373e-05
5.28788e-05
2.64445e-05
1.29317e-05
7.3132e-06
9.15499e-06
3.02958e-05
5.18215e-05
5.10647e-05
2.96111e-05
1.1742e-05
7.41793e-06
1.29914e-05
2.56536e-05
5.0869e-05
3.02957e-05
9.18541e-06
1.17408e-05
2.91124e-05
4.9752e-05
2.54345e-05
1.30244e-05
7.30692e-06
8.83826e-06
2.89586e-05
4.85308e-05
4.79902e-05
2.81857e-05
1.12402e-05
6.90638e-06
1.19812e-05
2.35995e-05
4.34345e-05
3.39617e-05
7.93527e-06
9.42191e-06
1.52296e-05
2.72427e-05
5.44817e-05
3.29579e-05
1.12207e-05
1.36116e-05
3.04098e-05
5.19681e-05
2.6934e-05
1.4271e-05
8.42253e-06
1.02456e-05
3.19626e-05
5.12727e-05
4.96726e-05
2.97995e-05
1.30217e-05
8.29573e-06
1.42168e-05
2.63883e-05
5.08023e-05
3.17935e-05
1.01777e-05
1.28368e-05
2.99051e-05
4.93996e-05
2.58467e-05
1.39735e-05
8.09813e-06
9.82413e-06
3.04335e-05
4.79049e-05
4.64678e-05
2.80034e-05
1.25362e-05
7.91102e-06
1.36245e-05
2.47094e-05
4.56463e-05
2.88736e-05
9.42419e-06
1.18281e-05
2.70521e-05
4.42354e-05
2.25208e-05
1.25868e-05
7.17232e-06
8.04166e-06
3.12029e-05
3.93598e-05
2.50053e-05
1.50684e-05
9.4708e-06
1.09694e-05
2.90015e-05
4.66e-05
4.40773e-05
2.66604e-05
1.33006e-05
8.16759e-06
1.3869e-05
2.38857e-05
4.31434e-05
2.79456e-05
9.66537e-06
1.21863e-05
2.61485e-05
4.09904e-05
2.1948e-05
1.29357e-05
7.53941e-06
8.31121e-06
2.96948e-05
3.73861e-05
2.43635e-05
1.50722e-05
9.79836e-06
1.133e-05
2.88884e-05
4.48451e-05
4.20934e-05
2.63106e-05
1.36104e-05
8.33493e-06
1.39776e-05
2.33892e-05
4.19921e-05
2.75145e-05
9.87553e-06
1.23257e-05
2.51622e-05
3.97873e-05
2.1367e-05
1.28412e-05
7.50898e-06
8.28439e-06
2.82903e-05
3.53516e-05
2.32748e-05
1.47685e-05
9.74833e-06
1.10802e-05
2.73597e-05
4.23419e-05
3.97481e-05
2.50304e-05
1.33008e-05
8.16671e-06
1.37443e-05
2.21682e-05
3.91096e-05
2.58927e-05
9.76785e-06
1.21106e-05
2.37521e-05
3.71122e-05
2.00246e-05
1.20401e-05
7.31023e-06
8.12879e-06
2.55367e-05
3.26611e-05
2.17612e-05
1.41667e-05
9.55942e-06
1.08609e-05
2.57341e-05
3.90174e-05
3.63766e-05
2.32402e-05
1.29454e-05
7.59247e-06
1.26637e-05
2.00618e-05
3.24827e-05
2.65401e-05
8.23089e-06
9.62205e-06
1.4539e-05
2.18684e-05
3.88916e-05
2.51967e-05
1.0875e-05
1.32299e-05
2.31154e-05
3.63312e-05
2.01383e-05
1.28106e-05
7.90759e-06
8.51535e-06
2.55266e-05
3.2211e-05
2.1933e-05
1.4736e-05
9.87463e-06
1.10018e-05
2.54852e-05
3.85923e-05
3.58906e-05
2.30343e-05
1.32671e-05
7.82137e-06
1.26671e-05
1.98922e-05
3.18072e-05
2.59385e-05
8.32157e-06
9.79789e-06
1.46332e-05
2.16341e-05
3.78785e-05
2.48395e-05
1.10551e-05
1.32573e-05
2.26265e-05
3.53562e-05
1.97852e-05
1.28886e-05
7.91697e-06
8.49894e-06
2.58591e-05
3.12979e-05
2.14976e-05
1.48264e-05
9.85627e-06
1.08942e-05
2.45623e-05
3.72864e-05
3.45884e-05
2.22912e-05
1.29321e-05
7.65975e-06
1.24083e-05
1.92323e-05
3.01345e-05
2.51737e-05
8.13435e-06
9.24519e-06
1.43077e-05
2.08014e-05
3.28682e-05
2.50151e-05
9.5499e-06
1.0899e-05
1.52261e-05
2.24085e-05
3.77956e-05
2.4586e-05
1.18117e-05
1.37427e-05
2.23393e-05
3.49496e-05
1.97609e-05
1.29573e-05
8.04693e-06
8.57022e-06
2.5426e-05
3.07824e-05
2.13078e-05
1.49967e-05
1.00356e-05
1.10697e-05
2.41028e-05
3.63374e-05
3.38264e-05
2.19007e-05
1.30838e-05
7.68166e-06
1.24379e-05
1.903e-05
2.94492e-05
2.45292e-05
8.19252e-06
9.349e-06
1.43134e-05
2.05677e-05
3.20805e-05
2.45266e-05
9.61762e-06
1.07222e-05
1.53052e-05
2.21178e-05
3.69122e-05
2.40748e-05
1.16086e-05
1.37192e-05
2.20789e-05
3.41626e-05
1.94483e-05
1.30538e-05
8.11471e-06
8.47367e-06
2.53253e-05
2.99485e-05
2.1187e-05
1.50898e-05
9.75486e-06
9.91558e-06
2.53637e-05
3.26746e-05
2.25482e-05
1.58436e-05
1.10664e-05
1.18712e-05
2.41361e-05
3.72757e-05
3.43439e-05
2.19616e-05
1.38849e-05
8.18085e-06
1.31717e-05
1.96369e-05
2.99392e-05
2.55875e-05
8.51128e-06
9.69062e-06
1.50046e-05
2.11699e-05
3.2404e-05
2.53531e-05
9.95053e-06
1.11418e-05
1.58111e-05
2.25076e-05
3.70582e-05
2.42053e-05
1.20541e-05
1.40856e-05
2.2159e-05
3.42251e-05
1.97606e-05
1.3417e-05
8.37912e-06
8.80011e-06
2.5472e-05
3.00452e-05
2.14127e-05
1.53482e-05
1.0037e-05
1.01727e-05
2.54224e-05
3.25623e-05
2.2679e-05
1.59984e-05
1.11557e-05
1.18369e-05
2.40504e-05
3.69138e-05
3.39886e-05
2.19086e-05
1.37143e-05
8.10736e-06
1.31696e-05
1.93565e-05
2.90643e-05
2.52813e-05
8.42723e-06
9.59465e-06
1.49379e-05
2.06956e-05
3.13711e-05
2.4912e-05
9.87769e-06
1.09243e-05
1.55828e-05
2.19008e-05
3.54835e-05
2.33249e-05
1.17774e-05
1.38044e-05
2.14458e-05
3.28212e-05
1.90491e-05
1.31291e-05
8.24973e-06
8.5653e-06
2.49231e-05
2.87312e-05
2.05786e-05
1.48068e-05
9.60938e-06
9.7266e-06
2.43246e-05
3.08787e-05
2.18175e-05
1.54706e-05
1.06831e-05
1.05087e-05
2.47955e-05
3.21905e-05
2.27069e-05
1.6452e-05
1.1601e-05
1.23877e-05
2.40903e-05
3.61232e-05
3.31574e-05
2.19209e-05
1.42334e-05
8.30862e-06
1.31863e-05
1.9341e-05
2.88934e-05
2.48286e-05
8.56344e-06
9.64826e-06
1.47899e-05
2.06749e-05
3.05899e-05
2.40459e-05
9.79903e-06
1.06569e-05
1.53683e-05
2.17827e-05
3.17921e-05
2.45824e-05
1.05653e-05
1.16341e-05
1.63416e-05
2.25635e-05
3.55906e-05
2.37821e-05
1.22817e-05
1.42258e-05
2.18822e-05
3.28472e-05
1.94047e-05
1.34555e-05
8.48563e-06
8.7214e-06
2.50755e-05
2.88411e-05
2.08124e-05
1.50407e-05
9.86633e-06
1.0034e-05
2.41555e-05
3.08269e-05
2.19932e-05
1.57139e-05
1.09582e-05
1.08662e-05
2.49277e-05
3.19844e-05
2.28358e-05
1.66273e-05
1.18883e-05
1.25353e-05
2.40505e-05
3.57473e-05
3.29018e-05
2.20345e-05
1.44008e-05
8.53238e-06
1.35713e-05
1.95454e-05
2.87192e-05
2.51155e-05
8.72943e-06
9.84034e-06
1.50711e-05
2.0836e-05
3.03916e-05
2.41192e-05
9.84542e-06
1.06762e-05
1.53771e-05
2.16797e-05
3.12326e-05
2.42566e-05
1.05762e-05
1.16665e-05
1.63142e-05
2.24433e-05
3.4752e-05
2.34556e-05
1.23871e-05
1.42395e-05
2.15921e-05
3.22529e-05
1.92901e-05
1.33038e-05
8.45053e-06
8.86612e-06
2.42091e-05
2.80903e-05
2.05828e-05
1.49947e-05
9.94408e-06
1.00027e-05
2.41264e-05
3.003e-05
2.1575e-05
1.54373e-05
1.07635e-05
1.0379e-05
2.39152e-05
3.08449e-05
2.22508e-05
1.59754e-05
1.12219e-05
1.10808e-05
2.48985e-05
3.16207e-05
2.2784e-05
1.68705e-05
1.20379e-05
1.25324e-05
2.38148e-05
3.49996e-05
3.23722e-05
2.18467e-05
1.43149e-05
8.47365e-06
1.34922e-05
1.94129e-05
2.79882e-05
2.47072e-05
8.68588e-06
9.84426e-06
1.49465e-05
2.05605e-05
2.94777e-05
2.35916e-05
1.00054e-05
1.08163e-05
1.53782e-05
2.14367e-05
3.02843e-05
2.36793e-05
1.05123e-05
1.13427e-05
1.59921e-05
2.20717e-05
3.12979e-05
2.46701e-05
1.11275e-05
1.20889e-05
1.68837e-05
2.27642e-05
3.49251e-05
2.39161e-05
1.27574e-05
1.47216e-05
2.21546e-05
3.24191e-05
1.97768e-05
1.3867e-05
8.86045e-06
9.17898e-06
2.51707e-05
2.84014e-05
2.08486e-05
1.5299e-05
1.02314e-05
1.01624e-05
2.40344e-05
3.00988e-05
2.18402e-05
1.57207e-05
1.10481e-05
1.08459e-05
2.42559e-05
3.08735e-05
2.24547e-05
1.63065e-05
1.16101e-05
1.13017e-05
2.50678e-05
3.16639e-05
2.30917e-05
1.72038e-05
1.23245e-05
1.29558e-05
2.41018e-05
3.49547e-05
3.24255e-05
2.21277e-05
1.47094e-05
8.83918e-06
1.39307e-05
1.98538e-05
2.8141e-05
2.47758e-05
9.11416e-06
1.01454e-05
1.53111e-05
2.09604e-05
2.96284e-05
2.38957e-05
1.00991e-05
1.09133e-05
1.56044e-05
2.17486e-05
3.02132e-05
2.37594e-05
1.07046e-05
1.15194e-05
1.61792e-05
2.22484e-05
3.11017e-05
2.46982e-05
1.14651e-05
1.24101e-05
1.71466e-05
2.28327e-05
3.4344e-05
2.4048e-05
1.30855e-05
1.4972e-05
2.22272e-05
3.21059e-05
1.99248e-05
1.40474e-05
8.99236e-06
9.27481e-06
2.49929e-05
2.82329e-05
2.10157e-05
1.54678e-05
1.03178e-05
1.0346e-05
2.40425e-05
2.97656e-05
2.19864e-05
1.59121e-05
1.12134e-05
1.09541e-05
2.41231e-05
3.05766e-05
2.25562e-05
1.64177e-05
1.17005e-05
1.14983e-05
2.49584e-05
3.12768e-05
2.30127e-05
1.71905e-05
1.2397e-05
1.29705e-05
2.39047e-05
3.42875e-05
3.19167e-05
2.19896e-05
1.47501e-05
8.84884e-06
1.39649e-05
1.97395e-05
2.76193e-05
2.46817e-05
9.14698e-06
1.0181e-05
1.52391e-05
2.07428e-05
2.88019e-05
2.33541e-05
1.0236e-05
1.11097e-05
1.5653e-05
2.15183e-05
2.94718e-05
2.34706e-05
1.08285e-05
1.15298e-05
1.61331e-05
2.20089e-05
3.01818e-05
2.41833e-05
1.12656e-05
1.19717e-05
1.66974e-05
2.25969e-05
3.1147e-05
2.50967e-05
1.17234e-05
1.27001e-05
1.7521e-05
2.31907e-05
3.45235e-05
2.43012e-05
1.35071e-05
1.54255e-05
2.252e-05
3.23132e-05
2.03145e-05
1.44432e-05
9.33005e-06
9.69907e-06
2.51893e-05
2.83665e-05
2.14598e-05
1.59847e-05
1.07947e-05
1.08778e-05
2.45121e-05
2.99703e-05
2.23797e-05
1.6406e-05
1.16924e-05
1.14824e-05
2.46531e-05
3.07985e-05
2.30068e-05
1.69195e-05
1.22079e-05
1.19664e-05
2.53849e-05
3.17424e-05
2.36775e-05
1.78435e-05
1.2983e-05
1.36869e-05
2.46298e-05
3.48227e-05
3.24018e-05
2.27155e-05
1.55064e-05
9.37814e-06
1.45331e-05
2.04063e-05
2.8299e-05
2.52255e-05
9.72536e-06
1.08063e-05
1.59644e-05
2.15392e-05
2.95209e-05
2.43107e-05
1.07545e-05
1.15355e-05
1.62412e-05
2.22506e-05
3.00321e-05
2.41856e-05
1.14196e-05
1.21164e-05
1.67589e-05
2.27016e-05
3.07627e-05
2.48567e-05
1.19017e-05
1.28674e-05
1.76119e-05
2.31953e-05
3.38514e-05
2.41425e-05
1.37067e-05
1.56639e-05
2.24989e-05
3.17507e-05
2.03203e-05
1.45578e-05
9.49734e-06
9.85468e-06
2.49265e-05
2.79857e-05
2.14972e-05
1.6132e-05
1.10013e-05
1.11133e-05
2.44868e-05
2.95384e-05
2.24279e-05
1.65673e-05
1.19048e-05
1.1645e-05
2.45377e-05
3.03092e-05
2.29866e-05
1.71071e-05
1.24e-05
1.22786e-05
2.51646e-05
3.12305e-05
2.36616e-05
1.80217e-05
1.32487e-05
1.39674e-05
2.45916e-05
3.42655e-05
3.1963e-05
2.27702e-05
1.57878e-05
9.61142e-06
1.47448e-05
2.05723e-05
2.81793e-05
2.53341e-05
9.90098e-06
1.09177e-05
1.6082e-05
2.16051e-05
2.92913e-05
2.42545e-05
1.10372e-05
1.18455e-05
1.6439e-05
2.23386e-05
2.98279e-05
2.42345e-05
1.16681e-05
1.24498e-05
1.70459e-05
2.28343e-05
3.06041e-05
2.48757e-05
1.22692e-05
1.33053e-05
1.79989e-05
2.34072e-05
3.36605e-05
2.44115e-05
1.42095e-05
1.60987e-05
2.2849e-05
3.16662e-05
2.0809e-05
1.5145e-05
9.94386e-06
1.03476e-05
2.53775e-05
2.83463e-05
2.19372e-05
1.66058e-05
1.13368e-05
1.14729e-05
2.51545e-05
2.98801e-05
2.28739e-05
1.71116e-05
1.2295e-05
1.20906e-05
2.51582e-05
3.07755e-05
2.33761e-05
1.77821e-05
1.31007e-05
1.39121e-05
2.40189e-05
3.34988e-05
3.13268e-05
2.24169e-05
1.5734e-05
9.66471e-06
1.47836e-05
2.03441e-05
2.75102e-05
2.47328e-05
1.00264e-05
1.10656e-05
1.62365e-05
2.14716e-05
2.88083e-05
2.44592e-05
1.12257e-05
1.20359e-05
1.6682e-05
2.22907e-05
2.96731e-05
2.42696e-05
1.20654e-05
1.31213e-05
1.75945e-05
2.28698e-05
3.24564e-05
2.36715e-05
1.39426e-05
1.58418e-05
2.22595e-05
3.06115e-05
2.03099e-05
1.47806e-05
9.77849e-06
1.01711e-05
2.46627e-05
2.73342e-05
2.14528e-05
1.63675e-05
1.12062e-05
1.14141e-05
2.43687e-05
2.88975e-05
2.23852e-05
1.6897e-05
1.22958e-05
1.21984e-05
2.4447e-05
2.98016e-05
2.29508e-05
1.76305e-05
1.30899e-05
1.3874e-05
2.36255e-05
3.23691e-05
3.04496e-05
2.21493e-05
1.57742e-05
9.71996e-06
1.48001e-05
2.02457e-05
2.70175e-05
2.4487e-05
1.00714e-05
1.11785e-05
1.62969e-05
2.13253e-05
2.83132e-05
2.42717e-05
1.14302e-05
1.22431e-05
1.68308e-05
2.22022e-05
2.93032e-05
2.40761e-05
1.22492e-05
1.32966e-05
1.77532e-05
2.28461e-05
3.21229e-05
2.36699e-05
1.41768e-05
1.60256e-05
2.23875e-05
3.03909e-05
2.0503e-05
1.51639e-05
9.97963e-06
1.04687e-05
2.48741e-05
2.73957e-05
2.1619e-05
1.66826e-05
1.15481e-05
1.17616e-05
2.46474e-05
2.89548e-05
2.2673e-05
1.73182e-05
1.26288e-05
1.27036e-05
2.4656e-05
3.00133e-05
2.33693e-05
1.81972e-05
1.36549e-05
1.44625e-05
2.41327e-05
3.27036e-05
3.08855e-05
2.27511e-05
1.6307e-05
1.0191e-05
1.53555e-05
2.09002e-05
2.76624e-05
2.50562e-05
1.06685e-05
1.17127e-05
1.69671e-05
2.19863e-05
2.92445e-05
2.47519e-05
1.2111e-05
1.32725e-05
1.79339e-05
2.30291e-05
3.20548e-05
2.3825e-05
1.43568e-05
1.62263e-05
2.26367e-05
3.0452e-05
2.05822e-05
1.53141e-05
1.02238e-05
1.075e-05
2.48272e-05
2.7448e-05
2.18932e-05
1.70144e-05
1.18562e-05
1.21402e-05
2.48646e-05
2.90931e-05
2.30043e-05
1.77322e-05
1.30143e-05
1.31913e-05
2.50006e-05
3.03749e-05
2.39122e-05
1.87676e-05
1.41792e-05
1.52069e-05
2.4853e-05
3.32942e-05
3.14096e-05
2.3482e-05
1.71386e-05
1.08012e-05
1.60174e-05
2.16047e-05
2.84323e-05
2.57125e-05
1.12427e-05
1.23522e-05
1.76935e-05
2.28197e-05
3.01977e-05
2.55249e-05
1.28186e-05
1.39114e-05
1.87167e-05
2.38894e-05
3.31708e-05
2.47839e-05
1.49495e-05
1.70189e-05
2.35572e-05
3.15848e-05
2.18281e-05
1.62791e-05
1.10575e-05
1.16371e-05
2.57363e-05
2.86659e-05
2.30228e-05
1.80395e-05
1.26765e-05
1.3201e-05
2.58076e-05
3.06318e-05
2.43255e-05
1.92028e-05
1.43419e-05
1.55821e-05
2.53007e-05
3.37082e-05
3.19819e-05
2.39915e-05
1.75648e-05
1.12353e-05
1.65087e-05
2.22003e-05
2.92779e-05
2.6029e-05
1.18774e-05
1.32388e-05
1.85665e-05
2.35215e-05
3.26903e-05
2.49554e-05
1.4704e-05
1.67525e-05
2.37135e-05
3.13423e-05
2.17334e-05
1.60398e-05
1.06954e-05
1.13334e-05
2.60302e-05
2.85336e-05
2.28163e-05
1.76662e-05
1.24679e-05
1.30279e-05
2.51822e-05
3.01179e-05
2.39531e-05
1.88354e-05
1.41973e-05
1.54097e-05
2.47319e-05
3.29491e-05
3.14783e-05
2.35833e-05
1.73511e-05
1.12061e-05
1.64832e-05
2.20731e-05
2.88821e-05
2.56196e-05
1.19817e-05
1.33262e-05
1.86799e-05
2.34249e-05
3.23062e-05
2.5003e-05
1.4934e-05
1.70173e-05
2.38669e-05
3.10833e-05
2.19872e-05
1.64006e-05
1.11128e-05
1.18622e-05
2.57193e-05
2.86921e-05
2.31239e-05
1.84257e-05
1.30781e-05
1.44367e-05
2.43848e-05
3.19118e-05
3.07275e-05
2.32281e-05
1.65355e-05
1.08044e-05
1.58877e-05
2.14632e-05
2.81581e-05
2.49447e-05
1.17746e-05
1.31055e-05
1.81968e-05
2.28516e-05
3.14724e-05
2.43676e-05
1.46981e-05
1.68289e-05
2.33378e-05
3.03655e-05
2.16032e-05
1.621e-05
1.10317e-05
1.18516e-05
2.51522e-05
2.81765e-05
2.28888e-05
1.83489e-05
1.31338e-05
1.45883e-05
2.43369e-05
3.14439e-05
3.03192e-05
2.32195e-05
1.66369e-05
1.08457e-05
1.5963e-05
2.14777e-05
2.80897e-05
2.5747e-05
1.16337e-05
1.30129e-05
1.80927e-05
2.26727e-05
3.12739e-05
2.38904e-05
1.47782e-05
1.69817e-05
2.30223e-05
3.0215e-05
2.16428e-05
1.6282e-05
1.12674e-05
1.22587e-05
2.49382e-05
2.81807e-05
2.3119e-05
1.87252e-05
1.35837e-05
1.52472e-05
2.48173e-05
3.18277e-05
3.07534e-05
2.38015e-05
1.73361e-05
1.14883e-05
1.67077e-05
2.21514e-05
2.88758e-05
2.55792e-05
1.24642e-05
1.38634e-05
1.91709e-05
2.36702e-05
3.27699e-05
2.55819e-05
1.57465e-05
1.79871e-05
2.47584e-05
3.18003e-05
2.2983e-05
1.76725e-05
1.2416e-05
1.44388e-05
2.5568e-05
3.14237e-05
3.06268e-05
2.45831e-05
1.68578e-05
1.14888e-05
1.67884e-05
2.23026e-05
2.93689e-05
2.57752e-05
1.26782e-05
1.40556e-05
1.93497e-05
2.40855e-05