/*--------------------------------*- C++ -*----------------------------------*\
| =========                 |                                                 |
| \\      /  F ield         | OpenFOAM: The Open Source CFD Toolbox           |
|  \\    /   O peration     | Version:  v2006                                 |
|   \\  /    A nd           | Website:  www.openfoam.com                      |
|    \\/     M anipulation  |                                                 |
\*---------------------------------------------------------------------------*/
FoamFile
{
    version     2.0;
    format      ascii;
    class       volScalarField;
    location    "0.022";
    object      turbulenceProperties:I;
}
// * * * * * * * * * * * * * * * * * * * * * * * * * * * * * * * * * * * * * //

dimensions      [0 0 0 0 0 0 0];


internalField   nonuniform List<scalar> 
16277
(
0.149978
0.149977
0.149984
0.149987
0.149992
0.149991
0.149992
0.149997
0.150005
0.150014
0.150022
0.150026
0.150029
0.150029
0.150028
0.150026
0.150025
0.150023
0.150021
0.15002
0.150019
0.150018
0.150016
0.150015
0.150014
0.150013
0.150012
0.150011
0.15001
0.150009
0.150008
0.150007
0.150006
0.150005
0.150004
0.150002
0.150001
0.15
0.149999
0.149997
0.149996
0.149995
0.149993
0.149992
0.149991
0.14999
0.149988
0.149987
0.149987
0.149986
0.149985
0.149984
0.149984
0.149983
0.149983
0.149983
0.149982
0.149982
0.149982
0.149983
0.149983
0.149983
0.149984
0.149984
0.149985
0.149985
0.149986
0.149987
0.149987
0.149988
0.149989
0.14999
0.14999
0.149991
0.149992
0.149992
0.149992
0.149992
0.149991
0.149992
0.149995
0.150003
0.150016
0.15003
0.150035
0.150025
0.150006
0.149988
0.149967
0.149968
0.149981
0.149977
0.149989
0.150009
0.149874
0.149306
0.145059
0.139077
0.145981
0.148749
0.145985
0.139202
0.133273
0.1294
0.135539
0.143827
0.139882
0.129555
0.125371
0.123117
0.127262
0.138217
0.134552
0.12262
0.120469
0.119191
0.121259
0.133304
0.130297
0.117887
0.117442
0.116718
0.117192
0.129433
0.127023
0.114941
0.115557
0.115174
0.114587
0.126406
0.124426
0.112949
0.114359
0.114179
0.112792
0.123991
0.122311
0.111531
0.113575
0.113521
0.111495
0.122003
0.120551
0.110492
0.113065
0.113092
0.110541
0.12034
0.11905
0.109703
0.112722
0.1128
0.109807
0.118909
0.117747
0.109088
0.11249
0.112603
0.109231
0.117663
0.116611
0.108604
0.112339
0.112477
0.108777
0.116575
0.115616
0.108222
0.112245
0.112401
0.108418
0.11562
0.114744
0.107922
0.112194
0.112362
0.108139
0.114783
0.113976
0.107689
0.112174
0.112352
0.107924
0.114045
0.113297
0.107513
0.112178
0.112364
0.107763
0.113393
0.112698
0.107386
0.112201
0.112394
0.10765
0.112819
0.112172
0.107303
0.112242
0.112441
0.107583
0.112318
0.111716
0.107263
0.112299
0.112506
0.107558
0.111885
0.111326
0.107265
0.112372
0.112586
0.107576
0.111517
0.110997
0.107306
0.11246
0.112681
0.107633
0.111211
0.110727
0.107387
0.112563
0.112792
0.107729
0.110962
0.110513
0.107505
0.112681
0.112919
0.107865
0.110771
0.110355
0.107661
0.112815
0.113061
0.108037
0.110633
0.110249
0.107854
0.112964
0.113219
0.108247
0.110549
0.110194
0.108081
0.113127
0.113393
0.108493
0.110516
0.110191
0.108345
0.113306
0.113582
0.108775
0.110535
0.110237
0.108643
0.1135
0.113786
0.109093
0.110604
0.110332
0.108976
0.113709
0.114006
0.109447
0.110723
0.110477
0.109345
0.113933
0.114241
0.109838
0.110892
0.110672
0.109751
0.114173
0.114493
0.110268
0.111114
0.110919
0.110195
0.114428
0.114761
0.110738
0.111388
0.11122
0.110679
0.114699
0.115045
0.111249
0.111716
0.111574
0.111205
0.114984
0.115344
0.111802
0.112099
0.111983
0.111773
0.115283
0.115657
0.112398
0.112538
0.112446
0.112381
0.115595
0.115981
0.113035
0.11303
0.112963
0.113029
0.115916
0.116313
0.11371
0.113575
0.11353
0.113714
0.116243
0.11665
0.11442
0.11417
0.114144
0.11443
0.116571
0.116985
0.115159
0.114808
0.114797
0.115171
0.116892
0.117309
0.115918
0.11548
0.115479
0.115927
0.117196
0.117611
0.116684
0.116176
0.116178
0.116682
0.117472
0.117877
0.11744
0.116878
0.116871
0.117418
0.117703
0.118089
0.118162
0.117562
0.117534
0.118108
0.11787
0.118225
0.118821
0.118199
0.118134
0.118719
0.11795
0.118263
0.119378
0.118752
0.118631
0.119211
0.117918
0.118175
0.119791
0.119179
0.118984
0.119553
0.117748
0.117907
0.120002
0.119438
0.119138
0.119631
0.117421
0.117437
0.119905
0.119455
0.119034
0.11939
0.116912
0.116769
0.119468
0.119187
0.118628
0.118806
0.116242
0.115914
0.118676
0.118602
0.117901
0.117873
0.115403
0.114929
0.117556
0.117709
0.116891
0.116636
0.114384
0.113834
0.116097
0.116497
0.115544
0.115017
0.113144
0.112574
0.114278
0.114965
0.113908
0.113092
0.111823
0.11132
0.112246
0.11322
0.112118
0.11104
0.110577
0.110145
0.110141
0.111363
0.110259
0.108967
0.10944
0.109084
0.10807
0.109478
0.10841
0.106973
0.10844
0.108166
0.106108
0.107635
0.106633
0.105122
0.107596
0.107407
0.104338
0.105891
0.104978
0.103432
0.106917
0.106806
0.102772
0.104305
0.103476
0.101957
0.1064
0.106358
0.10143
0.102887
0.102132
0.100712
0.106037
0.106054
0.100317
0.101654
0.100981
0.0996992
0.105815
0.105879
0.0994276
0.100613
0.100023
0.0989113
0.105715
0.105815
0.0987597
0.0997603
0.0992528
0.0983338
0.105711
0.105843
0.0982681
0.0990787
0.0986453
0.0979221
0.10579
0.105939
0.0979312
0.098541
0.0981738
0.0976575
0.105929
0.106086
0.0977289
0.098125
0.0978163
0.097518
0.10611
0.106265
0.0976346
0.097809
0.0975499
0.0974777
0.106314
0.10646
0.0976256
0.0975689
0.0973501
0.0975132
0.106526
0.106658
0.0976784
0.0973812
0.0971924
0.0976001
0.106735
0.106849
0.0977685
0.0972213
0.0970538
0.0977147
0.10693
0.107017
0.0978746
0.0970708
0.0969092
0.0978369
0.107105
0.107169
0.0979815
0.0969237
0.0967635
0.0979549
0.10726
0.107304
0.0980816
0.096776
0.0966107
0.0980619
0.107395
0.107433
0.0981705
0.0966248
0.0964438
0.0981444
0.107503
0.107537
0.0982439
0.0964575
0.0962622
0.0982085
0.107586
0.107618
0.0982976
0.096274
0.0960653
0.0982528
0.107653
0.107682
0.0983315
0.0960739
0.0958523
0.0982776
0.107704
0.107731
0.098346
0.0958567
0.0956226
0.0982831
0.107741
0.107764
0.0983408
0.095622
0.0953755
0.0982687
0.107765
0.107784
0.0983154
0.0953691
0.0951107
0.0982342
0.107777
0.107792
0.098274
0.0950983
0.0948286
0.0981787
0.107778
0.107789
0.0982115
0.0948098
0.0945303
0.0981029
0.107767
0.107773
0.0981284
0.0945042
0.0942152
0.0980065
0.107742
0.107744
0.0980251
0.0941811
0.0938785
0.0978916
0.107705
0.107699
0.0978901
0.093829
0.0934957
0.0977206
0.107648
0.107558
0.0976818
0.0934242
0.0931117
0.0976043
0.107505
0.107286
0.0972261
0.0928514
0.0925785
0.0971028
0.106853
0.106163
0.0955518
0.0918326
0.0927179
0.0958021
0.104051
0.104992
0.0932851
0.0904535
0.0951556
0.100729
0.106935
0.112511
0.116212
0.120651
0.123503
0.125789
0.127388
0.128455
0.128988
0.12902
0.128512
0.127389
0.125602
0.122583
0.120268
0.115099
0.110263
0.105086
0.100422
0.0992389
0.102437
0.116423
0.131994
0.134276
0.117968
0.103303
0.104289
0.119606
0.136011
0.136942
0.12077
0.105002
0.105581
0.121409
0.137795
0.138095
0.121756
0.105807
0.106132
0.121983
0.138414
0.138475
0.122197
0.106249
0.106339
0.122266
0.138505
0.138505
0.122271
0.106433
0.106476
0.122301
0.138498
0.138471
0.122303
0.106569
0.106592
0.122301
0.138448
0.138422
0.122317
0.10669
0.106706
0.12229
0.138382
0.138355
0.122319
0.106804
0.106823
0.122287
0.138312
0.138286
0.122314
0.10692
0.106934
0.122275
0.138235
0.138203
0.122292
0.107033
0.107049
0.122274
0.138158
0.138122
0.122273
0.107151
0.107165
0.122263
0.138076
0.138034
0.122261
0.107268
0.107284
0.122255
0.137992
0.13795
0.122245
0.107391
0.107406
0.122241
0.137904
0.137858
0.122236
0.107515
0.107532
0.122233
0.137816
0.137771
0.122224
0.107645
0.107662
0.122222
0.137725
0.137678
0.122219
0.107777
0.107796
0.122218
0.137634
0.137589
0.122212
0.107915
0.107933
0.12221
0.137541
0.137494
0.12221
0.108054
0.108074
0.122208
0.13745
0.137407
0.122225
0.108197
0.108216
0.122199
0.137353
0.137311
0.122219
0.108343
0.108363
0.122209
0.137262
0.137222
0.122237
0.108491
0.108509
0.122207
0.137165
0.137126
0.122235
0.10864
0.10866
0.122224
0.137075
0.137037
0.122259
0.10879
0.108806
0.122229
0.136979
0.136942
0.122265
0.108938
0.108955
0.122254
0.13689
0.136855
0.122296
0.109084
0.109097
0.122266
0.136798
0.136763
0.122308
0.109226
0.109237
0.122298
0.136713
0.13668
0.122345
0.10936
0.109364
0.122315
0.136625
0.136594
0.12236
0.109482
0.109482
0.122347
0.136547
0.136518
0.122393
0.109586
0.109574
0.122357
0.136466
0.136438
0.122396
0.109668
0.109647
0.122373
0.136393
0.136366
0.122407
0.109719
0.10968
0.122356
0.136316
0.136289
0.122371
0.10973
0.109673
0.122325
0.136242
0.136207
0.122296
0.109686
0.109603
0.122239
0.136158
0.136114
0.122172
0.109576
0.109465
0.122089
0.136064
0.136008
0.121966
0.109384
0.109234
0.12184
0.135948
0.135876
0.121659
0.109093
0.108902
0.12146
0.135802
0.135714
0.121215
0.1087
0.108444
0.120933
0.135614
0.135494
0.12058
0.108191
0.107844
0.1202
0.135365
0.135209
0.119745
0.107531
0.107093
0.119204
0.135031
0.134831
0.118617
0.106721
0.106185
0.117933
0.134597
0.134338
0.117175
0.105745
0.105114
0.116312
0.134038
0.133708
0.115377
0.10461
0.10389
0.114317
0.133329
0.13292
0.113204
0.103318
0.102525
0.111902
0.132453
0.131959
0.110606
0.101901
0.101059
0.109083
0.131393
0.130812
0.107584
0.100386
0.099538
0.105853
0.130165
0.129482
0.104126
0.0988202
0.0979738
0.102083
0.128567
0.127285
0.100211
0.0971918
0.0964043
0.0985852
0.125844
0.124541
0.0966353
0.095764
0.0952056
0.0948283
0.123372
0.122173
0.0937341
0.0951895
0.094896
0.0928102
0.121075
0.120078
0.0914037
0.0951797
0.0952025
0.0906636
0.118963
0.117704
0.0900862
0.0959112
0.0962931
0.0898719
0.116499
0.115618
0.0903433
0.0976312
0.098216
0.0904131
0.114804
0.113947
0.0916474
0.0999659
0.101128
0.0930968
0.11291
0.113092
0.0965243
0.104134
0.105789
0.0991856
0.114344
0.134757
0.090623
0.0861595
0.098284
0.0955758
0.126672
0.126275
0.0922009
0.0972743
0.0981733
0.0911103
0.125726
0.124556
0.0897624
0.0976371
0.0989745
0.0894911
0.123119
0.121196
0.0888129
0.0990051
0.101451
0.0897931
0.119418
0.11779
0.0899315
0.101768
0.105326
0.0926486
0.116375
0.115209
0.0938652
0.106648
0.11205
0.09888
0.115137
0.116107
0.101927
0.114786
0.0886571
0.0882477
0.131124
0.121642
0.0951503
0.107217
0.1079
0.0942897
0.119841
0.117692
0.097085
0.1137
0.115143
0.0977374
0.116256
0.115426
0.101233
0.119716
0.121872
0.103046
0.114885
0.116388
0.108966
0.127397
0.129397
0.113515
0.118857
0.127115
0.0948025
0.0980183
0.121554
0.101755
0.121748
0.120181
0.101587
0.122913
0.129296
0.106545
0.119829
0.11941
0.108262
0.130956
0.139355
0.116954
0.121021
0.124912
0.123408
0.143138
0.108821
0.0988356
0.131157
0.123016
0.11254
0.139024
0.142613
0.115346
0.122168
0.123565
0.126409
0.154308
0.159356
0.132861
0.126302
0.133147
0.143752
0.165822
0.127592
0.110416
0.133089
0.128172
0.130985
0.163768
0.167819
0.134968
0.129924
0.135624
0.154141
0.184469
0.192041
0.165065
0.142834
0.138437
0.126011
0.154262
0.198576
0.159944
0.138336
0.142483
0.168973
0.208597
0.233124
0.198256
0.155049
0.16369
0.211619
0.244509
0.21322
0.169035
0.152935
0.172712
0.232483
0.271865
0.293188
0.254534
0.187311
0.174193
0.211393
0.271394
0.35399
0.309555
0.21665
0.251409
0.36431
0.410236
0.453431
0.359843
0.243017
0.429924
0.638895
0.679453
0.969894
0.908586
0.551404
1
1
1
0.785756
0.750928
0.479083
0.267316
0.411049
0.457223
0.335153
0.302521
0.20933
0.208566
0.272746
0.28468
0.236463
0.197003
0.170431
0.176467
0.214099
0.230358
0.190915
0.163604
0.148547
0.149479
0.176364
0.196432
0.185539
0.161435
0.139996
0.135556
0.122022
0.145478
0.1645
0.147366
0.137079
0.129379
0.12344
0.137649
0.154474
0.135978
0.127345
0.122422
0.12725
0.147798
0.116057
0.105124
0.121952
0.120591
0.1195
0.138589
0.132862
0.113544
0.11743
0.119945
0.0974209
0.104334
0.127167
0.109275
0.116296
0.114678
0.105255
0.121566
0.0969582
0.0936085
0.119133
0.113575
0.102527
0.118538
0.112565
0.0990938
0.112765
0.118509
0.0903086
0.0910869
0.110771
0.0970305
0.110592
0.110319
0.0936642
0.105153
0.0860203
0.0866793
0.117044
0.108476
0.0926065
0.104544
0.0992506
0.0895697
0.108744
0.115957
0.0839445
0.0823008
0.0991233
0.0885433
0.106055
0.107146
0.0858192
0.094487
0.0793207
0.0814985
0.114765
0.104281
0.0863948
0.0958915
0.0889822
0.0827151
0.10495
0.108285
0.080282
0.0834259
0.0736679
0.0767057
0.122024
0.105584
0.0776508
0.0844749
0.0812091
0.0766395
0.108441
0.117601
0.0766115
0.0715005
0.0802142
0.0749435
0.102146
0.105935
0.0747602
0.0773683
0.0688898
0.0734366
0.118253
0.101559
0.0717536
0.0760844
0.0738421
0.0719246
0.105407
0.116002
0.0731464
0.0666315
0.0731625
0.0702046
0.100213
0.104601
0.0706043
0.0711213
0.0653003
0.0726218
0.114929
0.0985862
0.0675409
0.0700005
0.0684021
0.0685697
0.103134
0.11629
0.0702954
0.0633788
0.0682458
0.0658144
0.0986147
0.10312
0.0678402
0.066801
0.0627153
0.0695286
0.116182
0.0979776
0.0632908
0.0655745
0.0645382
0.0664007
0.103043
0.118856
0.0676651
0.0610398
0.0634914
0.0641529
0.100763
0.10987
0.0671713
0.0594954
0.0653114
0.0630466
0.0934724
0.0973851
0.0632877
0.063112
0.0599364
0.0685097
0.108278
0.0935087
0.0629109
0.0634183
0.0619622
0.0630427
0.0985412
0.109461
0.0685889
0.059247
0.0626883
0.0624398
0.0933798
0.0978617
0.0619469
0.0607994
0.0587219
0.0692902
0.109156
0.0940517
0.061176
0.0599576
0.0586488
0.060724
0.0994026
0.111015
0.0699256
0.0575968
0.0582788
0.0601447
0.094025
0.0988695
0.060559
0.0566838
0.0565237
0.0684633
0.113585
0.0963365
0.056627
0.0567089
0.0550321
0.0653376
0.106506
0.0920511
0.0576898
0.0566004
0.0546101
0.0573848
0.0969288
0.107392
0.067994
0.0547405
0.0550142
0.0570665
0.0918658
0.0970694
0.0566772
0.0523921
0.0538655
0.0685836
0.110449
0.0938118
0.053709
0.0525939
0.0519571
0.063642
0.104561
0.0894641
0.0548059
0.0529937
0.0508882
0.054702
0.093933
0.104626
0.0666397
0.0520416
0.0523764
0.054818
0.0898824
0.0954465
0.0549422
0.0500916
0.0522382
0.0677912
0.10912
0.0928092
0.0515688
0.0499228
0.0500346
0.0627143
0.103937
0.0887464
0.0529382
0.0508458
0.048575
0.0530408
0.0934644
0.104351
0.0661241
0.0501974
0.0497047
0.0526793
0.0894539
0.0954759
0.0528095
0.0475293
0.0503758
0.0693817
0.106227
0.0916934
0.050181
0.0473953
0.0479447
0.061444
0.103186
0.0874405
0.0502144
0.0479477
0.04597
0.0511751
0.0929244
0.105288
0.0667854
0.0490091
0.0461575
0.0484935
0.0897854
0.101178
0.060651
0.0468665
0.046809
0.0491429
0.0858973
0.0917548
0.0499069
0.0449833
0.0484045
0.0667433
0.103805
0.0895196
0.0485734
0.0455731
0.0463929
0.0604307
0.100398
0.0845175
0.0483966
0.0460518
0.0442958
0.0494973
0.0903586
0.102558
0.0663678
0.0477306
0.0448389
0.0475557
0.0878947
0.0995312
0.0599182
0.0457947
0.0454869
0.0478147
0.0845396
0.0906095
0.0492214
0.0438291
0.0476141
0.0662501
0.102877
0.0882299
0.0472403
0.0444872
0.045414
0.0596463
0.0989392
0.0843048
0.0472479
0.0448057
0.0430423
0.0482249
0.0903434
0.10123
0.0670607
0.0469805
0.0438288
0.0464986
0.0878427
0.100101
0.0616509
0.0460071
0.0433412
0.0445798
0.0852273
0.0956079
0.0581642
0.0445591
0.0442617
0.046467
0.082208
0.0876415
0.0478407
0.042564
0.0462629
0.0647501
0.0992075
0.0853253
0.0458394
0.0429907
0.0442602
0.0587298
0.096683
0.0826271
0.0459917
0.0435433
0.0419984
0.0475187
0.0889819
0.0997114
0.066394
0.046163
0.0428164
0.0457365
0.0872406
0.0994278
0.0608689
0.0452462
0.0423441
0.0437575
0.0852409
0.0945774
0.0572208
0.0434928
0.0427872
0.0450955
0.0805013
0.086244
0.0463931
0.0411808
0.0453939
0.0642353
0.0980583
0.0847985
0.0447419
0.041949
0.0443726
0.0593229
0.0965817
0.0827924
0.0426382
0.0415931
0.0431043
0.0569935
0.0924787
0.0799972
0.0447636
0.0424545
0.041165
0.0467691
0.0860995
0.0975927
0.0641558
0.0453524
0.0418095
0.0446097
0.08424
0.0957674
0.0591856
0.0442134
0.0412006
0.0423802
0.0819202
0.0914247
0.0564519
0.0426626
0.0417968
0.0440949
0.0784553
0.0840785
0.0457461
0.0404139
0.0446885
0.063228
0.095629
0.083071
0.0441725
0.0412856
0.0438975
0.0587992
0.094591
0.0818675
0.0424175
0.0409787
0.0426087
0.0565995
0.0910562
0.0781978
0.0439126
0.0415105
0.0401557
0.045732
0.0839514
0.0967892
0.0625697
0.0447118
0.0409041
0.0435064
0.0837888
0.0953311
0.058274
0.0435599
0.0403579
0.0413189
0.0816609
0.0911678
0.0563675
0.0422399
0.0408742
0.0433892
0.0780719
0.083768
0.0452167
0.0395994
0.0443632
0.0624592
0.0966894
0.0832837
0.0434368
0.0405487
0.0432664
0.0583991
0.0943505
0.0802665
0.041012
0.0398727
0.0423726
0.0561098
0.0901552
0.0780406
0.0407895
0.0394619
0.0415011
0.05532
0.0873656
0.0754552
0.0425316
0.0401043
0.0390392
0.0446039
0.0812488
0.0921339
0.0624347
0.0436107
0.040139
0.0432576
0.0812709
0.093176
0.0578703
0.0429927
0.0396263
0.041111
0.0806074
0.0903291
0.0560419
0.0421726
0.0391336
0.0405492
0.0775359
0.0865392
0.0550962
0.0411714
0.0395914
0.0421311
0.0746902
0.0802575
0.0437783
0.0383947
0.0431245
0.0611438
0.09172
0.0800325
0.0423638
0.0394508
0.0423016
0.0569081
0.0914699
0.0786278
0.0401482
0.0389372
0.0415404
0.054972
0.0881708
0.0763051
0.0399385
0.0385796
0.0408011
0.0546673
0.0852929
0.0741467
0.0418931
0.0391625
0.0381516
0.0437507
0.0794947
0.0912832
0.0605689
0.0431144
0.0390747
0.0421389
0.0794496
0.090791
0.0564085
0.0420557
0.0385324
0.0396304
0.0781214
0.0879035
0.0548659
0.0412752
0.038184
0.0397134
0.0760721
0.0850938
0.0542859
0.040432
0.0385248
0.0412861
0.0734194
0.079095
0.043268
0.0375768
0.0426209
0.0608624
0.0892129
0.0788645
0.0418453
0.0386884
0.0418392
0.0562534
0.090042
0.0772339
0.0393485
0.0381196
0.0409753
0.0544204
0.0867328
0.0752761
0.0391816
0.0377016
0.0404257
0.0535528
0.084781
0.0738232
0.0391492
0.037459
0.039809
0.0531466
0.0824908
0.0719292
0.0408443
0.0378686
0.0370656
0.0429158
0.0773885
0.0902035
0.0592353
0.04249
0.0379189
0.041129
0.0779145
0.0892089
0.0554253
0.0414014
0.0375606
0.0387799
0.076771
0.0861359
0.0539184
0.0405525
0.0371698
0.0386588
0.0744297
0.0835341
0.0530393
0.0399203
0.036917
0.0387325
0.0728917
0.0813916
0.0525537
0.0391891
0.0372515
0.0401479
0.0705375
0.0757756
0.0418308
0.0363777
0.0415692
0.0584742
0.0864846
0.0752647
0.0403999
0.037432
0.0409054
0.0547044
0.0860283
0.0741456
0.0385523
0.0371139
0.0400833
0.0528997
0.0835818
0.072669
0.0382291
0.0367675
0.0396364
0.0523969
0.0816492
0.0713433
0.0385226
0.0366612
0.0389651
0.0517388
0.0796306
0.0695367
0.0397997
0.0369093
0.036175
0.0418094
0.0746732
0.0863493
0.0575846
0.0415132
0.0369071
0.0401244
0.0753189
0.0859226
0.0539208
0.0404478
0.0365255
0.0378882
0.0744077
0.0836537
0.0523325
0.0397545
0.0361534
0.0375181
0.0725343
0.0812778
0.0516835
0.0391457
0.0359585
0.037712
0.0708347
0.0788127
0.0513694
0.0384807
0.0363019
0.0392213
0.0683845
0.0736067
0.0411274
0.0355668
0.0408558
0.0571162
0.0843284
0.0736732
0.0395966
0.0363949
0.0400317
0.0532308
0.0840478
0.0725412
0.037386
0.0359698
0.0391589
0.0514119
0.0815128
0.0708494
0.0370615
0.0356556
0.0387304
0.0508142
0.0793993
0.0694922
0.0372939
0.0354829
0.0381012
0.0506014
0.0775012
0.0675609
0.0387368
0.0357131
0.0351055
0.0409217
0.0729267
0.0849782
0.0563096
0.0407805
0.0357889
0.0390899
0.0734337
0.0838096
0.0528991
0.0397424
0.0353032
0.0368838
0.0721584
0.0809989
0.0510408
0.0387825
0.0349374
0.0364918
0.0704865
0.0790531
0.050355
0.0382492
0.0348203
0.036555
0.0690461
0.0773401
0.0499869
0.0379945
0.0347362
0.0367189
0.0675991
0.0753544
0.0495496
0.0372803
0.0349498
0.0378783
0.0654285
0.0706761
0.0397587
0.0343198
0.0396472
0.0553153
0.0806605
0.0705548
0.0384008
0.0351952
0.0388602
0.0514956
0.0801747
0.0692836
0.036286
0.034711
0.0380367
0.0498154
0.07758
0.0675292
0.0360837
0.0344858
0.037637
0.0492773
0.0755188
0.0661772
0.0364216
0.034431
0.0370834
0.0486902
0.0737014
0.0644235
0.037434
0.0345336
0.0339863
0.0394204
0.0697684
0.0797588
0.0547238
0.0394631
0.0348266
0.0381075
0.0697211
0.0793669
0.0511129
0.0386958
0.0342727
0.0360856
0.0689613
0.0772366
0.0494222
0.0377636
0.0338813
0.0355822
0.0673148
0.0750959
0.048695
0.037231
0.0336378
0.0356322
0.0656602
0.0732449
0.0481767
0.0364774
0.0337141
0.0367383
0.0636264
0.0690332
0.0386825
0.0331715
0.0388175
0.0542418
0.078574
0.0686046
0.0376096
0.0341124
0.0379809
0.0503557
0.0778081
0.0673498
0.035462
0.0335806
0.0371133
0.0486346
0.0752091
0.0655158
0.0350796
0.0332329
0.0365526
0.0478127
0.073309
0.0641627
0.0351018
0.0330749
0.0359458
0.0474023
0.0717729
0.0625381
0.0361871
0.0331419
0.0326349
0.0382332
0.0678046
0.0771753
0.053437
0.0382893
0.0336017
0.0370336
0.0675461
0.07667
0.0497501
0.0376053
0.0330677
0.0350823
0.0664763
0.0745421
0.0482707
0.0367675
0.03275
0.0347896
0.0649324
0.0728248
0.0475448
0.0363009
0.0325373
0.0347151
0.0635514
0.0712897
0.0470637
0.0355781
0.0325824
0.035697
0.0620808
0.0672774
0.0376156
0.0320644
0.0377726
0.0527083
0.0762041
0.0666444
0.0366109
0.0330824
0.0370212
0.0490085
0.0751177
0.0649047
0.0345914
0.0325677
0.0361328
0.0472406
0.0727503
0.063009
0.0341504
0.0321889
0.0354412
0.0467067
0.070874
0.0621506
0.0355191
0.0321595
0.0317917
0.0376809
0.0676907
0.077371
0.0528224
0.0381187
0.0328287
0.0366018
0.0671406
0.0758326
0.0490226
0.0370458
0.0322121
0.0343274
0.0654782
0.0735342
0.0474339
0.0360861
0.0317738
0.0339775
0.0634399
0.0712071
0.0467681
0.0352334
0.0316221
0.0350713
0.0617639
0.0670864
0.0370332
0.0311459
0.0373579
0.0525779
0.0755799
0.065994
0.0359583
0.0322501
0.0363475
0.0483071
0.0745
0.0637857
0.0335395
0.0315427
0.0354712
0.0466884
0.0719727
0.0627651
0.0335896
0.0313036
0.0349806
0.0464677
0.0707033
0.0615223
0.0348727
0.0312144
0.0309199
0.0371726
0.0670806
0.0766475
0.0521167
0.0376294
0.0319169
0.0359506
0.0658896
0.0748004
0.0483324
0.0363823
0.0313317
0.0335274
0.0641787
0.0721818
0.0466092
0.0353408
0.0308469
0.0332311
0.0623439
0.0702323
0.045958
0.0344487
0.0306465
0.0342267
0.0609829
0.0662359
0.0360981
0.0301942
0.0365977
0.0511596
0.0744434
0.0643515
0.0350529
0.0312755
0.0357807
0.0477398
0.0734067
0.063295
0.0333302
0.0309507
0.0350081
0.0461637
0.0713833
0.0619526
0.0329908
0.0306974
0.034461
0.0458555
0.0698812
0.0609043
0.0343429
0.0305819
0.0302936
0.0365175
0.0663349
0.0748553
0.0517243
0.0370636
0.0314396
0.0355322
0.064576
0.0730917
0.0476931
0.0358809
0.0307464
0.0332988
0.0626817
0.0706275
0.0460048
0.0345632
0.0302273
0.0339009
0.0610084
0.0659203
0.0354464
0.0297954
0.0367197
0.0512152
0.0750919
0.0643469
0.0350784
0.0310403
0.0356997
0.0476013
0.0730617
0.0629689
0.0330906
0.0305845
0.034786
0.0460393
0.0711093
0.0615327
0.0327044
0.0302775
0.0341159
0.0455705
0.0693646
0.060223
0.0338664
0.0300536
0.0298247
0.0360181
0.0654838
0.07366
0.0515238
0.036705
0.0310076
0.0353478
0.0636478
0.0720696
0.0473717
0.0355933
0.030418
0.0330311
0.0619605
0.0697328
0.045658
0.0342632
0.0298546
0.0335116
0.0596758
0.064834
0.0354133
0.0295403
0.0365411
0.0511853
0.0738064
0.0641117
0.0350485
0.0308572
0.0356011
0.0475598
0.0726145
0.0625254
0.0332209
0.0304025
0.0344383
0.0460129
0.0703398
0.0608693
0.0338247
0.029969
0.0297698
0.0359597
0.0660599
0.074223
0.0517811
0.0368292
0.0308912
0.0354455
0.0637446
0.0720357
0.0477442
0.0354586
0.0301232
0.0340565
0.0617226
0.0668068
0.035787
0.0297302
0.0367433
0.051471
0.0748842
0.0635291
0.0346398
0.0306354
0.0356771
0.0476628
0.0723896
0.0626152
0.033237
0.0301263
0.0345486
0.0463203
0.0707489
0.0613055
0.0338513
0.0296942
0.0295415
0.0361387
0.066632
0.0750683
0.0518218
0.0369497
0.0306505
0.035294
0.0644277
0.0727701
0.0476735
0.0353761
0.0296743
0.0337163
0.0621893
0.0672843
0.0354344
0.0293494
0.0367189
0.0517531
0.0755274
0.0643954
0.0347865
0.0303462
0.0350888
0.047354
0.0724592
0.0613426
0.0335184
0.029282
0.0290862
0.0356349
0.0669188
0.0761946
0.0524029
0.0370328
0.0304636
0.035061
0.065191
0.073625
0.0482332
0.035555
0.0294156
0.0337694
0.0627311
0.0679323
0.0356548
0.0291632
0.0369419
0.0521389
0.0764201
0.0649776
0.0348994
0.0302008
0.0352897
0.0477576
0.0733223
0.062358
0.0335164
0.0291544
0.0288461
0.0353013
0.067496
0.0757838
0.0518051
0.0365261
0.029713
0.0338158
0.0628267
0.071701
0.0471786
0.0348976
0.0287056
0.0332715
0.0616989
0.0673464
0.035118
0.0286126
0.0365057
0.0521948
0.0757014
0.0648381
0.0345699
0.0298316
0.0349543
0.0476063
0.0730137
0.0622974
0.0332813
0.0288455
0.0286064
0.0351588
0.0672765
0.0755633
0.0517234
0.036428
0.0296128
0.0344148
0.0639712
0.0719984
0.0469936
0.0345447
0.0282955
0.0326226
0.060319
0.0643106
0.0333648
0.0278075
0.0352143
0.0504965
0.0730272
0.0629267
0.0342454
0.0287319
0.0286047
0.0356971
0.0684508
0.0768529
0.0528528
0.0368817
0.0298174
0.0346441
0.0654453
0.0733225
0.0477074
0.035012
0.0284656
0.0328994
0.0621827
0.0667561
0.0346231
0.0281967
0.0356758
0.0512514
0.0745085
0.0630872
0.0345598
0.0287813
0.0281825
0.0345514
0.0672841
0.0750858
0.0515683
0.0357642
0.028513
0.0343488
0.0637271
0.0693623
0.0353769
0.0282852
0.0369228
0.053158
0.078134
0.065947
0.0345061
0.0295279
0.0349382
0.0478314
0.0737439
0.0620642
0.0326762
0.0281244
0.0278581
0.0342774
0.0664316
0.0738492
0.050875
0.0352838
0.028272
0.0340379
0.0620671
0.0657625
0.033758
0.0276315
0.0350039
0.050188
0.0735423
0.0622797
0.0334871
0.0278839
0.0277195
0.0346755
0.0676484
0.0763771
0.0519274
0.0358117
0.0284123
0.0344607
0.0642022
0.0687119
0.0350996
0.0280896
0.0359178
0.0518415
0.0763657
0.0637427
0.0341249
0.0282619
0.0277321
0.0345381
0.0677124
0.074747
0.0504806
0.0351564
0.0274792
0.032972
0.0617502
0.066102
0.0359414
0.0276173
0.0278151
0.0378617
0.0723703
0.0815442
0.0545008
0.0373052
0.0284788
0.0351576
0.067347
0.0717354
0.0352461
0.0279895
0.0358922
0.0526002
0.0787907
0.0643438
0.0334435
0.0274594
0.0268352
0.0343298
0.0663327
0.0707441
0.0359265
0.0266402
0.0361639
0.0538093
0.0803017
0.0669032
0.0340904
0.0273804
0.0275725
0.0366435
0.0711356
0.0762108
0.0383358
0.0276357
0.0372176
0.0542579
0.0843837
0.0658593
0.0338304
0.0273207
0.0266759
0.0347154
0.0684788
0.0732539
0.0362405
0.0264168
0.0359446
0.0536628
0.0833934
0.0681923
0.0338369
0.0267263
0.0262132
0.0332714
0.0717161
0.0762078
0.0395324
0.0268845
0.0260415
0.0346729
0.0782578
0.0830328
0.0577311
0.0362342
0.0264777
0.0340916
0.0692442
0.0741708
0.0347958
0.0262249
0.0263319
0.0385321
0.0792956
0.0820734
0.0361446
0.0254162
0.0259474
0.0406093
0.0851058
0.0893908
0.0399186
0.0252375
0.0363833
0.060342
0.0962154
0.0722746
0.0340956
0.0257536
0.0252261
0.0339294
0.0747009
0.0799433
0.0378266
0.0252721
0.0252211
0.0383006
0.0858448
0.0912685
0.0397009
0.025489
0.0260109
0.0424215
0.0959242
0.100861
0.0447835
0.0265871
0.0271701
0.0470331
0.104777
0.106817
0.0493952
0.0277447
0.0282607
0.0514103
0.107995
0.108699
0.0536491
0.0288629
0.0294451
0.0558698
0.109097
0.109266
0.0584185
0.0302364
0.0309349
0.060905
0.109335
0.109348
0.0633502
0.0319348
0.0327825
0.0657466
0.109327
0.109295
0.0681057
0.033946
0.0349344
0.0704101
0.109251
0.109218
0.0726493
0.0362314
0.0374621
0.07469
0.109192
0.109183
0.0766555
0.0389744
0.0403629
0.0784538
0.109204
0.109255
0.0802169
0.0419762
0.0433666
0.081904
0.109313
0.109391
0.0835468
0.0449828
0.0463772
0.0851032
0.109476
0.109578
0.0866084
0.0479918
0.0493873
0.088019
0.109686
0.109809
0.0893724
0.0509951
0.0523875
0.0906268
0.109932
0.110065
0.0918221
0.0539827
0.0553708
0.0929158
0.110194
0.11033
0.0939509
0.0569597
0.0583377
0.0948854
0.110456
0.110582
0.0957604
0.0599147
0.0612476
0.0965489
0.110696
0.110808
0.0972881
0.0627478
0.0640041
0.0979456
0.110906
0.111001
0.0985614
0.0654139
0.0665821
0.099101
0.111081
0.111157
0.0996061
0.0678935
0.0689633
0.100042
0.111217
0.111271
0.100439
0.0701668
0.0711296
0.100793
0.11131
0.111347
0.101118
0.0722227
0.0730768
0.101376
0.111369
0.111385
0.101637
0.0740554
0.0748033
0.101822
0.11139
0.11139
0.102018
0.0756709
0.0763174
0.102144
0.111383
0.111368
0.102282
0.0770783
0.077629
0.102357
0.111349
0.111324
0.102445
0.0782894
0.0787536
0.102479
0.111296
0.11126
0.102524
0.0793194
0.0797031
0.102524
0.111225
0.111181
0.102534
0.0801831
0.0804983
0.10251
0.111142
0.111091
0.102489
0.0808976
0.0811552
0.102445
0.111048
0.110993
0.102402
0.0814831
0.0816955
0.102345
0.110948
0.110889
0.102282
0.0819577
0.0821318
0.102213
0.110842
0.110782
0.102137
0.0823385
0.0824814
0.102061
0.110735
0.110676
0.101976
0.0826341
0.0827512
0.101891
0.110628
0.11057
0.101803
0.0828698
0.0829578
0.101713
0.110522
0.110466
0.101623
0.0830546
0.0831148
0.101529
0.110418
0.110364
0.101441
0.0831899
0.0832194
0.101348
0.110318
0.110264
0.10126
0.0832768
0.0832835
0.101166
0.110219
0.110168
0.101078
0.0833284
0.0833193
0.100986
0.110126
0.110076
0.100898
0.0833537
0.0833334
0.100808
0.110035
0.109988
0.10072
0.0833608
0.0833351
0.100635
0.10995
0.109903
0.100548
0.0833547
0.0833267
0.100467
0.109867
0.109823
0.100381
0.0833413
0.083317
0.100307
0.10979
0.109748
0.100224
0.0833264
0.0833035
0.100155
0.109716
0.109677
0.100075
0.0833125
0.0832926
0.100012
0.109648
0.109611
0.0999375
0.0833011
0.0832837
0.09988
0.109584
0.109549
0.09981
0.0832929
0.0832805
0.0997586
0.109525
0.109492
0.0996948
0.0832917
0.0832832
0.0996493
0.109471
0.10944
0.0995907
0.0832961
0.0832928
0.0995508
0.109421
0.109392
0.0994979
0.0833081
0.0833093
0.0994635
0.109376
0.109349
0.0994157
0.0833269
0.0833334
0.0993867
0.109335
0.10931
0.099344
0.0833536
0.0833644
0.0993199
0.109298
0.109275
0.0992817
0.0833866
0.0834021
0.0992618
0.109264
0.109244
0.0992281
0.0834275
0.0834449
0.0992115
0.109232
0.109215
0.0991812
0.0834717
0.083494
0.0991678
0.109203
0.109188
0.0991412
0.0835218
0.0835471
0.0991298
0.109177
0.109164
0.0991069
0.0835755
0.0836039
0.0990966
0.109153
0.109143
0.0990776
0.0836327
0.0836631
0.0990681
0.109132
0.109121
0.0990523
0.0836919
0.0837243
0.0990436
0.109112
0.109101
0.0990309
0.0837533
0.0837867
0.0990226
0.109094
0.109083
0.0990127
0.0838153
0.08385
0.0990054
0.109077
0.109067
0.098998
0.0838783
0.0839134
0.0989909
0.109062
0.109052
0.0989837
0.083941
0.0839767
0.0989787
0.109047
0.109038
0.0989718
0.0840037
0.0840393
0.0989683
0.109034
0.109025
0.0989615
0.0840654
0.0841012
0.0989597
0.109022
0.109013
0.0989532
0.0841266
0.0841621
0.0989527
0.109011
0.109002
0.0989461
0.0841865
0.0842214
0.0989468
0.109
0.108991
0.0989399
0.0842448
0.0842786
0.098941
0.108989
0.108981
0.0989337
0.0843007
0.0843332
0.0989353
0.108979
0.10897
0.0989276
0.0843541
0.0843851
0.0989292
0.108968
0.10896
0.098921