/*--------------------------------*- C++ -*----------------------------------*\
| =========                 |                                                 |
| \\      /  F ield         | OpenFOAM: The Open Source CFD Toolbox           |
|  \\    /   O peration     | Version:  v2006                                 |
|   \\  /    A nd           | Website:  www.openfoam.com                      |
|    \\/     M anipulation  |                                                 |
\*---------------------------------------------------------------------------*/
FoamFile
{
    version     2.0;
    format      ascii;
    class       volScalarField;
    location    "0.002";
    object      Co;
}
// * * * * * * * * * * * * * * * * * * * * * * * * * * * * * * * * * * * * * //

dimensions      [0 0 0 0 0 0 0];


internalField   nonuniform List<scalar> 
41981
(
0.02859
0.0270765
0.0294
0.0307525
0.0310769
0.0305377
0.0303015
0.0297045
0.0295643
0.0294967
0.0293744
0.0293265
0.0292729
0.0292047
0.0291312
0.0290519
0.028971
0.0288886
0.0288012
0.0287073
0.0286058
0.0284967
0.0283804
0.0282569
0.0281264
0.0279894
0.0278479
0.0277047
0.027562
0.0274202
0.0272788
0.0271376
0.0269974
0.0268595
0.0267248
0.0265931
0.0264636
0.0263357
0.0262092
0.0260841
0.0259601
0.0258367
0.0257136
0.0255903
0.0254665
0.0253419
0.0252164
0.0250895
0.0249611
0.0248312
0.0246994
0.0245657
0.02443
0.0242924
0.0241525
0.0240106
0.0238666
0.0237205
0.0235724
0.0234223
0.0232703
0.0231165
0.0229609
0.0228038
0.0226451
0.022485
0.0223235
0.0221609
0.0219971
0.0218323
0.0216667
0.0215005
0.0213336
0.0211664
0.0209988
0.020831
0.0206627
0.0204939
0.0203243
0.0201541
0.0199836
0.0198131
0.0196432
0.0194739
0.0193053
0.0191374
0.0189702
0.0188039
0.0186387
0.018475
0.0183127
0.0181517
0.0179924
0.0178347
0.0176788
0.0175245
0.0173719
0.0172209
0.0170716
0.0169239
0.0167782
0.0166346
0.0164931
0.0163537
0.0162166
0.0160816
0.0159489
0.0158184
0.0156902
0.0155642
0.0154407
0.0153195
0.0152007
0.0150845
0.0149709
0.0148599
0.0147515
0.0146457
0.0145427
0.0144429
0.0143465
0.0142535
0.0141638
0.0140776
0.0139952
0.0139168
0.0138426
0.0137725
0.0137063
0.013644
0.0135857
0.0135314
0.0134811
0.0134345
0.0133917
0.0133525
0.0133167
0.0132843
0.0132552
0.0132292
0.0132062
0.0131866
0.0131705
0.0131572
0.013144
0.0131364
0.0131516
0.0132609
0.0134096
0.0138117
0.0145302
0.0162192
0.0201475
0.0286709
0.0434775
0.0351032
0.0323119
0.031016
0.0307453
0.0296352
0.0277164
0.0249597
0.0281136
0.0300688
0.0275083
0.0269692
0.0244183
0.0197833
0.0223027
0.0228221
0.0224835
0.0221244
0.0192874
0.0171605
0.0202049
0.0207007
0.0213452
0.0205967
0.0168453
0.0158943
0.019713
0.0204188
0.0209319
0.0199315
0.0157029
0.0152337
0.0195078
0.0203384
0.0208028
0.0196501
0.0149518
0.0147146
0.0192926
0.0203049
0.0206341
0.019409
0.0145373
0.0143976
0.0191906
0.0203095
0.0204816
0.019238
0.0143022
0.0142355
0.0191077
0.020272
0.0203547
0.019112
0.0141986
0.0141789
0.0190224
0.0201955
0.020244
0.0190138
0.0141728
0.014165
0.0189356
0.0200985
0.0201406
0.0189216
0.0141531
0.014139
0.0188432
0.0199973
0.0200394
0.0188326
0.014124
0.0141052
0.0187515
0.0198932
0.0199355
0.01874
0.0140865
0.0140649
0.0186553
0.019785
0.0198274
0.0186426
0.0140449
0.0140217
0.0185545
0.0196726
0.0197178
0.0185428
0.0139997
0.0139731
0.0184491
0.0195558
0.0196081
0.0184409
0.0139473
0.0139152
0.0183396
0.0194358
0.0194975
0.0183356
0.0138843
0.0138464
0.0182258
0.0193133
0.019386
0.0182268
0.0138105
0.0137666
0.0181079
0.0191884
0.0192742
0.0181153
0.0137253
0.013675
0.0179864
0.019062
0.0191624
0.0180008
0.013628
0.0135716
0.017862
0.0189351
0.0190506
0.0178837
0.0135196
0.0134578
0.0177354
0.0188084
0.01894
0.0177651
0.013401
0.0133342
0.0176073
0.0186825
0.018832
0.0176457
0.013273
0.0132011
0.0174773
0.0185575
0.0187276
0.0175261
0.0131357
0.0130582
0.0173454
0.0184338
0.0186277
0.0174062
0.012988
0.0129043
0.0172113
0.0183119
0.0185328
0.0172854
0.0128285
0.0127383
0.0170741
0.0181921
0.018443
0.0171624
0.0126567
0.0125601
0.0169323
0.0180744
0.0183582
0.0170352
0.0124728
0.0123699
0.0167847
0.0179597
0.0182773
0.0169016
0.0122776
0.0121701
0.0166309
0.0178507
0.0181987
0.0167593
0.0120754
0.0119674
0.0164719
0.0177505
0.0181188
0.0166037
0.0118768
0.0117784
0.0163063
0.0176596
0.0180271
0.0164271
0.0117067
0.0116358
0.0161445
0.0175769
0.0179079
0.0162508
0.0115968
0.0115587
0.0160251
0.0175015
0.0177792
0.016125
0.0115487
0.0115339
0.015966
0.017445
0.0176832
0.0160676
0.0115417
0.0115405
0.0159554
0.0174215
0.0176429
0.0160626
0.0115587
0.0115659
0.015975
0.0174303
0.0176514
0.0160895
0.0115908
0.0116038
0.0160115
0.0174603
0.0176911
0.0161342
0.0116332
0.0116502
0.0160568
0.0175017
0.0177472
0.0161879
0.0116825
0.011702
0.0161065
0.0175482
0.0178102
0.0162456
0.0117361
0.0117571
0.0161578
0.017596
0.0178747
0.0163042
0.0117919
0.0118137
0.0162086
0.0176425
0.0179372
0.0163615
0.0118484
0.01187
0.0162572
0.017686
0.0179955
0.0164154
0.0119038
0.0119244
0.0163016
0.0177248
0.018048
0.0164641
0.0119563
0.0119749
0.0163397
0.0177569
0.0180925
0.0165053
0.012004
0.0120196
0.0163694
0.0177802
0.0181269
0.0165369
0.0120449
0.0120565
0.0163883
0.0177922
0.018149
0.0165567
0.0120769
0.0120835
0.0163944
0.0177908
0.0181567
0.0165625
0.0120981
0.0120989
0.0163856
0.0177742
0.0181482
0.0165525
0.0121068
0.0121011
0.0163603
0.0177405
0.0181219
0.0165254
0.0121018
0.012089
0.0163171
0.0176884
0.0180767
0.0164798
0.012082
0.0120618
0.0162554
0.0176196
0.0180121
0.0164154
0.0120469
0.0120189
0.0161743
0.0175404
0.0179274
0.0163316
0.011996
0.0119601
0.0160737
0.0174411
0.0178223
0.0162282
0.0119292
0.0118853
0.0159533
0.0173215
0.0176965
0.0161049
0.0118462
0.0117943
0.0158127
0.0171811
0.0175499
0.0159616
0.0117471
0.011687
0.0156517
0.0170198
0.0173822
0.0157978
0.0116315
0.011563
0.0154696
0.0168371
0.0171928
0.0156131
0.0114991
0.0114218
0.0152661
0.0166324
0.0169812
0.015407
0.0113493
0.011263
0.0150407
0.0164052
0.0167468
0.015179
0.0111817
0.011086
0.0147931
0.016155
0.0164889
0.0149285
0.0109955
0.0108901
0.014523
0.0158813
0.0162068
0.0146551
0.0107902
0.0106746
0.0142301
0.0155836
0.0159002
0.0143587
0.0105653
0.0104391
0.0139189
0.0152658
0.015569
0.0140386
0.01032
0.0101828
0.0135914
0.0149295
0.0152124
0.013694
0.0100535
0.00990462
0.0132389
0.0145679
0.0148294
0.0133237
0.00976469
0.0096037
0.0128604
0.0141798
0.0144186
0.0129263
0.00945276
0.0092792
0.0124548
0.0137639
0.0139788
0.0125012
0.00911709
0.0089307
0.0120216
0.0133195
0.0135093
0.0120479
0.0087574
0.00855815
0.0115607
0.0128463
0.0130101
0.0115664
0.00837395
0.00816236
0.0110726
0.0123448
0.0124819
0.0110575
0.00796748
0.00774375
0.0105582
0.0118157
0.0119253
0.0105219
0.00753847
0.00730317
0.0100184
0.0112602
0.0113414
0.0099606
0.00708772
0.00684104
0.00945347
0.0106786
0.0107303
0.0093739
0.00661579
0.00635857
0.00886499
0.0100721
0.010094
0.00876369
0.0061244
0.00585793
0.00825489
0.00944295
0.00943461
0.00813193
0.00561537
0.00534056
0.00762464
0.00879276
0.00875467
0.00748101
0.00509123
0.00481005
0.00697655
0.00812252
0.00805813
0.00681579
0.00455736
0.00427168
0.00631913
0.0074428
0.00734277
0.0061356
0.00401324
0.00372604
0.00565061
0.00674892
0.00661655
0.00544784
0.00346476
0.00317786
0.00497566
0.00604509
0.00588282
0.00475623
0.00291631
0.00263102
0.00429815
0.00533403
0.00514497
0.00406437
0.00237061
0.00208877
0.00362282
0.00462021
0.00440655
0.00337506
0.00183045
0.00155573
0.00295631
0.00391223
0.00367507
0.00269447
0.00129836
0.00102961
0.00229576
0.00320973
0.00295737
0.00202384
0.000775216
0.000509716
0.00163919
0.00251246
0.00224594
0.00135358
0.000256864
0.000249249
0.000984042
0.00181806
0.00152807
0.000685592
0.000513122
0.000750693
0.000512379
0.00110545
0.000849175
0.000779669
0.00103708
0.00124262
0.00103259
0.000776359
0.00125899
0.00145801
0.00153387
0.00174003
0.00171236
0.00152359
0.00196865
0.00210497
0.00201778
0.00224413
0.0024159
0.00230349
0.00266307
0.00274429
0.00249943
0.00274004
0.00311168
0.00307551
0.00335864
0.0033871
0.00297907
0.00322471
0.00378883
0.00382592
0.0040682
0.00403938
0.00346033
0.00370865
0.00446121
0.00456814
0.00478859
0.00470022
0.00394567
0.00419429
0.00513578
0.00531245
0.0055165
0.00536613
0.00443298
0.00468129
0.00581309
0.00606052
0.00624918
0.00603542
0.00492217
0.00517006
0.00649254
0.00681085
0.00698263
0.00670582
0.00541274
0.00565915
0.007171
0.00755865
0.00770915
0.00737168
0.00590143
0.00614377
0.00784132
0.00829532
0.00841975
0.00802512
0.00638244
0.00661939
0.00849708
0.00901344
0.00911012
0.00866318
0.00685513
0.0070889
0.00913757
0.00971029
0.00977171
0.00928083
0.00732001
0.0075468
0.00975278
0.0103733
0.0103967
0.0098694
0.00776938
0.00798765
0.0103378
0.0109999
0.0109891
0.01043
0.00820209
0.0084113
0.0108926
0.0115902
0.0115435
0.0109589
0.00861641
0.00881521
0.0114139
0.0121405
0.0120581
0.0114535
0.00900937
0.00919615
0.011899
0.0126488
0.0125356
0.011915
0.00937991
0.00955468
0.0123502
0.0131186
0.0129658
0.0123362
0.00972406
0.00988592
0.0127619
0.013544
0.0133543
0.0127196
0.0100416
0.0101904
0.0131338
0.0139249
0.0136994
0.0130636
0.0103321
0.0104676
0.0134651
0.0142604
0.0140008
0.0133678
0.0105956
0.010718
0.0137559
0.0145511
0.0142591
0.0136326
0.0108325
0.0109423
0.014007
0.0147982
0.0144759
0.013859
0.0110437
0.0111414
0.0142197
0.0150037
0.0146533
0.0140486
0.0112306
0.0113169
0.0143962
0.0151703
0.0147945
0.0142039
0.0113948
0.0114707
0.0145392
0.0153011
0.0149024
0.0143276
0.0115382
0.0116048
0.0146514
0.0153994
0.0149805
0.0144228
0.011663
0.0117212
0.0147361
0.0154688
0.0150329
0.0144929
0.0117714
0.0118224
0.0147969
0.0155134
0.0150641
0.0145416
0.011866
0.011909
0.0148334
0.015532
0.0150833
0.0145856
0.0119426
0.0119746
0.0148378
0.015515
0.015081
0.0146087
0.0119981
0.0120204
0.0148175
0.0154759
0.0150573
0.0146051
0.0120383
0.0120549
0.0147819
0.0154243
0.0150262
0.0145829
0.0120672
0.0120776
0.0147281
0.0153555
0.0149992
0.0145425
0.0120834
0.0120878
0.0146568
0.0152698
0.0149529
0.0144837
0.0120873
0.012086
0.0145692
0.0151685
0.0148879
0.0144072
0.0120791
0.0120719
0.0144655
0.0150519
0.0148033
0.0143123
0.0120573
0.0120433
0.0143446
0.0149193
0.014698
0.0141976
0.0120199
0.0119988
0.0142057
0.0147701
0.0145717
0.0140627
0.0119658
0.0119376
0.0140487
0.0146043
0.0144245
0.0139077
0.0118944
0.011859
0.0138736
0.0144214
0.0142561
0.0137322
0.011805
0.0117627
0.0136799
0.0142208
0.0140678
0.0135368
0.0116971
0.0116481
0.0134673
0.0140018
0.0138591
0.0133215
0.0115705
0.0115149
0.0132366
0.0137656
0.0136292
0.0130861
0.0114248
0.0113631
0.0129888
0.0135138
0.0133789
0.0128316
0.0112605
0.0111933
0.0127244
0.013246
0.0131102
0.0125596
0.0110785
0.0110069
0.0124453
0.0129637
0.0128246
0.0122722
0.0108805
0.0108059
0.0121535
0.0126686
0.0125251
0.0119747
0.0106719
0.0105918
0.0118502
0.0123619
0.0122146
0.0116678
0.0104524
0.0103648
0.0115356
0.012044
0.0118957
0.0113517
0.010221
0.0101252
0.0112094
0.0117149
0.0115694
0.0110266
0.00997852
0.00987529
0.0108745
0.0113777
0.0112368
0.010695
0.00972744
0.00961866
0.0105361
0.0110386
0.0109021
0.010361
0.00947141
0.0093604
0.0102002
0.0107033
0.0105696
0.0100295
0.00921521
0.00910419
0.00987063
0.0103751
0.010244
0.00970462
0.00896214
0.00885191
0.00954899
0.0100547
0.00992821
0.00938961
0.00871378
0.00860664
0.00924016
0.00974804
0.00962536
0.00908687
0.0084734
0.00837084
0.00894606
0.00945741
0.00934066
0.00880152
0.00824374
0.00814694
0.00867011
0.00918488
0.0090732
0.00853371
0.00802711
0.00793628
0.00841247
0.00893083
0.00882424
0.00828463
0.00782455
0.00774126
0.00817588
0.00869749
0.00859469
0.00805636
0.00763812
0.00756376
0.00796303
0.00848809
0.00838735
0.00785145
0.00746954
0.00740494
0.00777577
0.00830566
0.0082077
0.00767338
0.0073202
0.00726327
0.0076119
0.00814918
0.00806297
0.00752375
0.0071887
0.0071332
0.00746213
0.00800902
0.00794696
0.00739285
0.00706889
0.00700276
0.00731234
0.00786874
0.00778882
0.00721448
0.00689991
0.00690927
0.00718871
0.00772822
0.00745345
0.00690457
0.00664017
0.00675944
0.00706617
0.0076424
0.00699974
0.00646854
0.00623006
0.00703801
0.00753977
0.00821268
0.00753826
0.00688246
0.00645905
0.00767591
0.00791137
0.00827223
0.0086685
0.00787929
0.00732008
0.00808597
0.00846605
0.0090075
0.00997366
0.0105386
0.0106952
0.0108475
0.0107475
0.0106744
0.0106425
0.01059
0.0105719
0.0105466
0.010521
0.0105
0.0104754
0.0104519
0.0104209
0.0103907
0.0103489
0.0103118
0.0102668
0.0102279
0.0101712
0.0101159
0.0100349
0.00995418
0.00983706
0.00972182
0.00956161
0.00942114
0.00925895
0.00916283
0.00914256
0.00921257
0.00958345
0.0101779
0.011555
0.012911
0.0143116
0.0165111
0.0205314
0.0290616
0.0454584
0.0346195
0.0289843
0.0269718
0.0248868
0.0216211
0.0196924
0.016769
0.0152401
0.0185957
0.0212243
0.0199574
0.0183583
0.0159141
0.0131045
0.0156432
0.017448
0.0178045
0.0162439
0.0141066
0.0128784
0.0152491
0.0172746
0.017754
0.01601
0.013902
0.0134789
0.0156401
0.0175496
0.0180496
0.0162252
0.0139358
0.0138847
0.0160116
0.017913
0.017922
0.0160586
0.0139944
0.0140246
0.016099
0.0179235
0.0179177
0.0161124
0.0140522
0.0140689
0.0161205
0.0178893
0.0179087
0.0161508
0.0140965
0.0141244
0.0161816
0.017909
0.0179737
0.0162437
0.0141642
0.0141926
0.0162889
0.0180049
0.0180619
0.0163371
0.0142263
0.0142602
0.0163802
0.0180888
0.018159
0.0164431
0.0143016
0.0143319
0.0164898
0.0181944
0.018236
0.0165275
0.0143629
0.0143968
0.0165678
0.0182566
0.0183012
0.016616
0.0144341
0.0144643
0.0166558
0.01832
0.0183441
0.0166883
0.0144952
0.0145286
0.0167218
0.0183493
0.0183803
0.016767
0.0145671
0.0145979
0.0168015
0.0183843
0.0184003
0.0168337
0.0146307
0.0146653
0.016866
0.0183981
0.0184249
0.0169114
0.0147048
0.014737
0.0169465
0.0184234
0.0184417
0.0169829
0.0147712
0.0148093
0.0170213
0.0184428
0.0184779
0.0170745
0.0148514
0.0148871
0.0171161
0.0184834
0.0185153
0.0171648
0.0149278
0.0149704
0.0172162
0.0185328
0.018587
0.0172836
0.0150189
0.0150602
0.0173396
0.0186106
0.0186626
0.0174035
0.0151072
0.0151564
0.0174697
0.0186992
0.0187781
0.0175553
0.0152125
0.0152615
0.017629
0.0188242
0.0188951
0.0177084
0.0153136
0.0153682
0.0177895
0.0189512
0.0190497
0.0178897
0.0154305
0.0154845
0.0179777
0.0191156
0.0192027
0.0180695
0.0155415
0.0155993
0.018161
0.019273
0.0193876
0.0182726
0.0156653
0.0157227
0.0183719
0.0194685
0.0195675
0.018472
0.0157814
0.0158425
0.0185728
0.0196494
0.0197742
0.0186924
0.0159104
0.0159714
0.0188026
0.0198698
0.0199777
0.0189091
0.0160319
0.0160951
0.0190184
0.0200707
0.0202051
0.0191455
0.0161649
0.0162282
0.0192625
0.0203107
0.0204276
0.0193782
0.0162913
0.0163563
0.019495
0.0205328
0.0206731
0.0196283
0.0164284
0.0164936
0.0197544
0.0207892
0.0209148
0.0198767
0.0165575
0.0166246
0.0200019
0.0210317
0.021178
0.02014
0.0166975
0.0167645
0.0202735
0.0213036
0.0214371
0.0204031
0.0168297
0.0168976
0.020535
0.021564
0.021719
0.0206806
0.0169713
0.0170389
0.02082
0.0218545
0.021996
0.0209566
0.017105
0.017173
0.0210953
0.0221337
0.0222967
0.0212466
0.0172468
0.0173147
0.0213926
0.0224421
0.0225907
0.0215354
0.0173811
0.0174489
0.0216807
0.0227384
0.0229087
0.0218373
0.0175225
0.0175907
0.0219895
0.0230643
0.0232202
0.0221376
0.0176568
0.0177241
0.022289
0.0233776
0.0235539
0.0224492
0.0177963
0.0178636
0.0226061
0.0237186
0.0238808
0.0227582
0.017929
0.0179948
0.0229136
0.0240456
0.0242259
0.023076
0.0180649
0.018131
0.0232362
0.0243978
0.0245651
0.0233914
0.0181951
0.0182595
0.0235499
0.0247358
0.0249193
0.0237142
0.0183278
0.0183929
0.0238778
0.0250977
0.0252706
0.0240365
0.0184566
0.0185208
0.0241993
0.0254479
0.0256363
0.0243676
0.0185889
0.0186549
0.0245365
0.025823
0.0260052
0.0247021
0.0187205
0.0187863
0.0248716
0.026192
0.0263883
0.0250459
0.0188556
0.0189233
0.0252216
0.0265848
0.0267773
0.0253944
0.0189908
0.0190584
0.0255708
0.0269741
0.0271783
0.0257511
0.0191289
0.0191981
0.0259329
0.0273839
0.0275862
0.0261126
0.0192672
0.0193364
0.0262952
0.0277922
0.0280038
0.0264811
0.0194078
0.0194779
0.0266682
0.0282171
0.028428
0.0268538
0.0195482
0.0196183
0.027042
0.0286421
0.0288606
0.0272327
0.0196903
0.019761
0.0274245
0.0290807
0.0292993
0.0276155
0.0198321
0.019903
0.0278086
0.029521
0.0297459
0.0280039
0.0199754
0.0200466
0.0282001
0.0299722
0.030198
0.0283962
0.0201185
0.0201903
0.0285943
0.0304268
0.0306584
0.0287948
0.0202638
0.0203365
0.028996
0.0308911
0.0311252
0.0291988
0.0204107
0.0204851
0.0294031
0.031362
0.0316018
0.0296108
0.0205616
0.0206376
0.029819
0.0318427
0.0320855
0.0300298
0.0207159
0.0207948
0.0302426
0.0323319
0.0325874
0.0304588
0.0208762
0.0209583
0.0306767
0.0328507
0.0331196
0.0308979
0.0210432
0.0211302
0.0311225
0.0333929
0.0336722
0.0313519
0.0212211
0.0213149
0.0315848
0.0339591
0.0342654
0.0318374
0.0214152
0.0215218
0.032111
0.0345932
0.0349427
0.0324047
0.0216388
0.0217685
0.0327236
0.0353302
0.035773
0.0331874
0.0220656
0.0223501
0.0337165
0.036205
0.036619
0.0340447
0.022664
0.0226849
0.0340639
0.0370239
0.037111
0.0344302
0.0228483
0.02313
0.0348618
0.0376562
0.038349
0.0353273
0.0232938
0.0232711
0.0354682
0.0384689
0.039019
0.0359135
0.0235815
0.0236865
0.0363307
0.0396912
0.0398515
0.0369539
0.0242261
0.0244654
0.0373204
0.0405483
0.0409003
0.037942
0.0251567
0.0253815
0.0384318
0.0418212
0.0429319
0.0396942
0.0264719
0.0273933
0.0410005
0.0438641
0.043982
0.0419463
0.028808
0.0293139
0.0386054
0.0379398
0.117054
0.081573
0.042589
0.0309549
0.0567524
0.0797264
0.0480075
0.0426058
0.0271766
0.0250374
0.0397096
0.0425445
0.0435509
0.0389218
0.0233999
0.0220824
0.0377107
0.042227
0.0438401
0.0385978
0.0219959
0.0216155
0.0382977
0.0431406
0.0450199
0.039739
0.0228917
0.0228617
0.0391392
0.0443441
0.046189
0.0411276
0.0241066
0.0253032
0.0421446
0.047282
0.0484448
0.0432983
0.0263978
0.0287159
0.0450833
0.0493061
0.0439369
0.0431853
0.0305511
0.0430921
0.0851168
0.123022
0.0883173
0.0637086
0.0342111
0.0303173
0.048721
0.0568358
0.0510697
0.0455335
0.0286061
0.0280639
0.0449789
0.0499988
0.0499351
0.0448648
0.0273145
0.0279271
0.0455118
0.0503591
0.0513503
0.046803
0.0292906
0.0294548
0.0472186
0.0524961
0.052688
0.0487734
0.0318481
0.0324994
0.0449893
0.0448015
0.131624
0.0911937
0.046632
0.0374058
0.0682515
0.094152
0.0590266
0.0515624
0.0329402
0.0304002
0.0473005
0.0521271
0.0546872
0.0493614
0.031131
0.0307666
0.0495273
0.054553
0.0571379
0.0508885
0.0313639
0.0335155
0.0527856
0.057334
0.0510906
0.0500159
0.0351927
0.0493746
0.0976308
0.140091
0.104628
0.0748358
0.0402347
0.0385823
0.0602955
0.0691274
0.0619896
0.0553997
0.0362326
0.0383096
0.0574399
0.06256
0.0619195
0.0562691
0.037492
0.0398133
0.0581561
0.0624422
0.0534569
0.0539271
0.0399709
0.0576331
0.108589
0.154164
0.1146
0.0831649
0.0474699
0.0450473
0.0676633
0.0772128
0.0669747
0.0614306
0.0423947
0.0443204
0.0622862
0.0659425
0.058624
0.0588698
0.0449878
0.0620954
0.115142
0.162671
0.125663
0.0915141
0.0531058
0.04957
0.073097
0.0835586
0.0768011
0.0700346
0.049031
0.049176
0.0698128
0.0763442
0.0773239
0.0721065
0.0516312
0.0529263
0.0661157
0.0649373
0.18448
0.132728
0.0734593
0.0636656
0.106209
0.14304
0.0953047
0.0846237
0.0605395
0.0613902
0.0815598
0.0863484
0.0764685
0.0763563
0.0623865
0.0845743
0.145667
0.200342
0.164601
0.122992
0.076568
0.0748338
0.10184
0.113703
0.103451
0.0955167
0.0731667
0.0739503
0.0869613
0.0855028
0.230766
0.168789
0.100801
0.091897
0.143057
0.188995
0.128084
0.116091
0.0887795
0.0853071
0.0994755
0.0987611
0.258041
0.192439
0.118869
0.111124
0.169846
0.224823
0.156896
0.141619
0.108297
0.108767
0.125489
0.123997
0.295504
0.225188
0.1455
0.140002
0.206545
0.262631
0.161836
0.157904
0.134904
0.170756
0.259151
0.333031
0.316225
0.251123
0.171538
0.165232
0.192366
0.1971
0.378963
0.300604
0.20694
0.209573
0.297935
0.375425
0.245319
0.24172
0.210539
0.244285
0.327954
0.382896
0.409036
0.353771
0.27009
0.273753
0.346468
0.394806
0.497113
0.421589
0.312681
0.268709
0.264158
0.239801
0.285432
0.29214
0.268097
0.254937
0.280559
0.277967
0.252887
0.263069
0.240266
0.209463
0.238648
0.225244
0.182567
0.20484
0.165674
0.208788
0.369705
0.447413
0.273038
0.226045
0.13317
0.140048
0.260695
0.337051
0.233665
0.184638
0.103721
0.101222
0.195677
0.263648
0.192156
0.137232
0.0669832
0.0642516
0.146627
0.208354
0.167579
0.112637
0.0434224
0.0405654
0.111126
0.163491
0.151661
0.103389
0.0397531
0.0337092
0.0794135
0.104987
0.129413
0.077344
0.0230445
0.0209633
0.0744893
0.126499
0.0760514
0.0543027
0.017447
0.00991048
0.052003
0.0956483
0.0988946
0.0555579
0.0127763
0.0115794
0.0465619
0.07733
0.0922678
0.057633
0.0193257
0.0160429
0.0415024
0.0574831
0.0714688
0.0417655
0.0109704
0.0145713
0.0497041
0.0841343
0.0469219
0.0340767
0.0120998
0.0090364
0.0345193
0.0595946
0.0756672
0.046157
0.0154667
0.0124543
0.0301558
0.0407003
0.0551176
0.0331855
0.010436
0.0175383
0.0470222
0.0754651
0.0393506
0.0305016
0.014338
0.013055
0.0350575
0.0559689
0.0766234
0.0495512
0.0203375
0.0165849
0.0313074
0.0385642
0.0577633
0.037805
0.0162639
0.0240138
0.054043
0.0816945
0.0405899
0.0337835
0.0196106
0.0197446
0.041684
0.0614643
0.0861672
0.0593278
0.028391
0.0218743
0.0329878
0.0365872
0.0482595
0.0388001
0.0223667
0.0223636
0.0459308
0.0687084
0.0946993
0.0644777
0.0312738
0.0248553
0.038799
0.0438771
0.0741937
0.0516211
0.026791
0.0357852
0.0696941
0.100587
0.0482151
0.0430834
0.0288669
0.0307516
0.0571716
0.0813558
0.108725
0.0767292
0.0401
0.0325938
0.0473999
0.0526123
0.087374
0.0619688
0.0347389
0.0440852
0.0812181
0.113189
0.0548351
0.0498549
0.0352671
0.0382622
0.0669932
0.0926967
0.118768
0.0852967
0.0468649
0.0379113
0.0529753
0.0579
0.0967399
0.070249
0.041027
0.0492
0.0886044
0.122748
0.0600844
0.0549287
0.0397965
0.0428932
0.0732852
0.100133
0.124011
0.0901393
0.0507178
0.0408801
0.0565557
0.0617541
0.102334
0.0739752
0.0436649
0.052
0.0924225
0.127265
0.0625798
0.0577596
0.0426537
0.0445191
0.0760108
0.104422
0.126702
0.0931596
0.0522068
0.0428197
0.0589968
0.0642305
0.104412
0.0763446
0.0451722
0.05274
0.0935172
0.128246
0.0641117
0.0588269
0.0430393
0.0455321
0.0773291
0.105938
0.128502
0.0939528
0.0531961
0.0434114
0.0593103
0.0646938
0.105796
0.0780786
0.0462911
0.0528958
0.0943256
0.128249
0.0648904
0.0592479
0.0429369
0.0458537
0.0774526
0.105117
0.128652
0.0939959
0.0532724
0.0437382
0.0596426
0.0652937
0.106845
0.0782
0.0466887
0.0535183
0.0938902
0.128958
0.0645394
0.0587595
0.0430878
0.0466542
0.0785199
0.106974
0.127772
0.092966
0.0529568
0.0432525
0.0593998
0.0648991
0.105485
0.0775769
0.0456859
0.052965
0.0946713
0.128581
0.064337
0.059092
0.0429832
0.0462821
0.078485
0.107517
0.129295
0.0941579
0.05305
0.044021
0.0599954
0.0649306
0.108619
0.0792031
0.0461176
0.0536522
0.0952371
0.129501
0.0655584
0.060234
0.0437713
0.0466934
0.0804782
0.112589
0.127229
0.0924177
0.0522601
0.0477055
0.0748089
0.0943226
0.119626
0.0917314
0.0548492
0.0464698
0.0625224
0.0678948
0.109879
0.0801808
0.0481713
0.0547255
0.0957543
0.129912
0.0670403
0.0616752
0.0455083
0.0481164
0.0796166
0.10955
0.130111
0.0947062
0.0550273
0.0447943
0.0605321
0.0656699
0.11003
0.0805839
0.0477371
0.0553529
0.0965234
0.131387
0.0669525
0.0616017
0.0452209
0.0494839
0.0843151
0.115622
0.130503
0.0960012
0.0548927
0.0492626
0.0771939
0.0964306
0.122284
0.0942078
0.0566127
0.0474595
0.0644967
0.0701063
0.113362
0.0835137
0.0508424
0.0565641
0.0980728
0.133349
0.0688588
0.0635097
0.047515
0.0505932
0.084564
0.115378
0.136322
0.10092
0.0581736
0.0480799
0.0652566
0.0705149
0.118866
0.0865059
0.0508968
0.0562415
0.0990698
0.133642
0.100415
0.0807793
0.0517065
0.058989
0.0975407
0.125897
0.0727386
0.0671444
0.0501459
0.0529218
0.0866525
0.118124
0.137256
0.101565
0.0596665
0.0493475
0.0656284
0.0711727
0.122236
0.0889762
0.0527829
0.0581958
0.100915
0.136724
0.101414
0.0821992
0.0529665
0.0600039
0.09882
0.127683
0.0739025
0.068024
0.0511797
0.0548647
0.0895072
0.12102
0.141377
0.104435
0.0618381
0.0506842
0.0684475
0.0740796
0.125319
0.0919187
0.0548269
0.0589222
0.102648
0.139142
0.103905
0.0843149
0.0540153
0.0613356
0.101093
0.130678
0.0763114
0.070577
0.0526317
0.0571864
0.0943999
0.128341
0.141245
0.10625
0.0627816
0.0572935
0.0868018
0.107002
0.132793
0.102779
0.0634134
0.0546146
0.0725781
0.0789941
0.130879
0.0963614
0.0585409
0.0629487
0.106002
0.142939
0.109028
0.0873171
0.0575532
0.0643152
0.10367
0.133526
0.0791055
0.0729811
0.0550042
0.0593783
0.0948302
0.128549
0.147084
0.109761
0.065729
0.0546673
0.0722691
0.0773591
0.13241
0.0979308
0.0588793
0.0636266
0.109579
0.146284
0.110759
0.0891779
0.0582545
0.0649666
0.105583
0.136658
0.0802161
0.0740178
0.0556514
0.0602419
0.0992803
0.136046
0.146213
0.109051
0.0648469
0.0593877
0.0914352
0.113469
0.137526
0.106243
0.0654374
0.0564739
0.0755412
0.0819125
0.137268
0.0998784
0.0615975
0.0661265
0.110188
0.151418
0.114269
0.0922694
0.0605088
0.0679224
0.108987
0.140398
0.0837032
0.0767962
0.0586093
0.0630778
0.104203
0.141731
0.153856
0.114513
0.0679276
0.0625241
0.0954293
0.118558
0.143243
0.111041
0.0695561
0.0597209
0.0785984
0.0850956
0.142101
0.104811
0.0638767
0.0674651
0.113891
0.152552
0.119248
0.0957748
0.0626467
0.0703982
0.113307
0.143557
0.0863522
0.07952
0.0604561
0.0662378
0.10853
0.145613
0.155682
0.118225
0.070662
0.0663384
0.102034
0.126
0.144373
0.114288
0.0721348
0.0679839
0.101054
0.122888
0.146059
0.115935
0.0743029
0.0650308
0.0844259
0.0907647
0.149235
0.111169
0.0695179
0.0738436
0.121002
0.160686
0.124518
0.102
0.0689133
0.0748818
0.117868
0.149673
0.091212
0.0838753
0.064354
0.0697154
0.111787
0.15094
0.160172
0.121646
0.0742866
0.0699263
0.106199
0.131142
0.149135
0.11709
0.0746611
0.0704118
0.105369
0.129366
0.152056
0.120228
0.0766445
0.0672114
0.0867542
0.0939153
0.15658
0.115983
0.072105
0.0753732
0.124525
0.166855
0.129738
0.104583
0.0701428
0.0783974
0.122634
0.156841
0.0940004
0.0874719
0.0679021
0.0727436
0.116753
0.15979
0.167652
0.125896
0.0769334
0.0729566
0.109938
0.136976
0.155968
0.122084
0.0783966
0.0739591
0.108848
0.134209
0.155882
0.124765
0.0813816
0.0710734
0.0917314
0.0991487
0.16312
0.120843
0.0767106
0.0807942
0.130586
0.173003
0.135624
0.111215
0.0759744
0.0825855
0.127529
0.162216
0.0982341
0.0917275
0.071648
0.0765157
0.122659
0.167135
0.174445
0.1319
0.0804357
0.0766519
0.115022
0.142755
0.16045
0.127153
0.0820745
0.0771849
0.113504
0.13954
0.161768
0.126465
0.0821226
0.071866
0.0932311
0.100552
0.170023
0.126325
0.0794547
0.082398
0.134592
0.179108
0.145836
0.11644
0.0770881
0.0816556
0.128381
0.163742
0.1433
0.115836
0.0782158
0.0855292
0.131998
0.165336
0.103599
0.0958767
0.0749296
0.0813969
0.130737
0.175204
0.182151
0.138476
0.084498
0.0798106
0.120121
0.151561
0.168371
0.131426
0.0853429
0.0821406
0.122822
0.151733
0.166982
0.132341
0.0865496
0.0819355
0.120095
0.147668
0.170054
0.135693
0.0896955
0.0778715
0.0997106
0.108588
0.178148
0.133303
0.0849392
0.0882787
0.140041
0.182894
0.153722
0.124026
0.0846321
0.0890546
0.135594
0.172364
0.150416
0.122229
0.0842437
0.0915729
0.139028
0.173214
0.110412
0.102257
0.0800818
0.0886797
0.137578
0.183675
0.190275
0.144414
0.0917423
0.0859141
0.128013
0.157147
0.175484
0.138419
0.0899723
0.085518
0.125799
0.153544
0.175506
0.141884
0.093224
0.082132
0.105253
0.113063
0.186467
0.141215
0.0900957
0.0919505
0.146525
0.193193
0.159647
0.129481
0.0872416
0.0922037
0.140065
0.176699
0.162363
0.130823
0.0888816
0.0946518
0.142277
0.178623
0.157753
0.128271
0.0887038
0.0974037
0.14513
0.180213
0.115485
0.107126
0.0850215
0.0926468
0.145353
0.194598
0.198082
0.152043
0.0951958
0.091223
0.135298
0.166978
0.182649
0.145165
0.0959633
0.0924126
0.136239
0.168108
0.18192
0.146334
0.0970188
0.0923942
0.132052
0.162014
0.186325
0.149217
0.100211
0.0881468
0.111028
0.120283
0.197261
0.147148
0.0956237
0.0983434
0.154007
0.202271
0.169129
0.136931
0.0923537
0.0974546
0.14884
0.185185
0.165103
0.135293
0.094177
0.101776
0.151808
0.189528
0.119843
0.111852
0.0888382
0.0972876
0.150927
0.20209
0.208599
0.158148
0.100826
0.0958241
0.141175
0.174335
0.189774
0.151804
0.10022
0.0961562
0.142141
0.175302
0.188755
0.152746
0.101776
0.0972754
0.143155
0.176392
0.190615
0.155247
0.103746
0.0974384
0.140069
0.171253
0.194873
0.156466
0.105304
0.0931395
0.117261
0.126369
0.208448
0.157041
0.102158
0.104774
0.16348
0.21219
0.178748
0.145018
0.0986386
0.102679
0.155731
0.193972
0.178732
0.145181
0.0996203
0.105397
0.156154
0.193177
0.174156
0.142954
0.1001
0.107669
0.159215
0.19982
0.127501
0.118565
0.0941581
0.1045
0.16122
0.213452
0.218101
0.167989
0.106704
0.102153
0.149077
0.18339
0.200563
0.160445
0.106854
0.102094
0.14953
0.184095
0.199648
0.159863
0.107186
0.102436
0.146882
0.179251
0.202163
0.163966
0.110727
0.097679
0.122527
0.131705
0.218493
0.164386
0.106403
0.108448
0.170411
0.2197
0.18756
0.152118
0.103486
0.106729
0.161087
0.202791
0.188329
0.152738
0.104251
0.110305
0.162986
0.200811
0.188974
0.153418
0.105538
0.111728
0.164387
0.204851
0.183312
0.150199
0.105241
0.114495
0.168918
0.208046
0.133837
0.124635
0.0998275
0.110572
0.169091
0.224501
0.229814
0.173553
0.111705
0.106821
0.156098
0.192896
0.210496
0.166633
0.111365
0.108249
0.157378
0.193484
0.207251
0.16625
0.112913
0.10864
0.155115
0.189459
0.211697
0.17012
0.115781
0.101124
0.126864
0.136142
0.229265
0.172566
0.112247
0.114588
0.178887
0.233012
0.196126
0.158421
0.108389
0.113646
0.169077
0.212698
0.196523
0.159706
0.108939
0.113742
0.169331
0.208941
0.198014
0.160751
0.110508
0.117356
0.171959
0.212605
0.191452
0.156998
0.110172
0.119166
0.174917
0.215835
0.139758
0.13028
0.10452
0.11561
0.176579
0.234649
0.238027
0.183361
0.118738
0.111935
0.163211
0.200608
0.217671
0.175114
0.116948
0.112937
0.164586
0.202415
0.214445
0.172774
0.117444
0.11411
0.165464
0.203756
0.217854
0.176975
0.120432
0.114043
0.162619
0.198441
0.219991
0.17826
0.121948
0.107482
0.133534
0.14286
0.240001
0.180688
0.117882
0.120061
0.186581
0.242595
0.204647
0.165696
0.113925
0.119854
0.177442
0.220828
0.206003
0.168207
0.115704
0.120848
0.17894
0.219951
0.206948
0.16819
0.116218
0.122746
0.179604
0.223475
0.200708
0.164467
0.115836
0.124661
0.182168
0.226572
0.14543
0.13548
0.109271
0.120061
0.183915
0.244834
0.249392
0.19026
0.123158
0.118064
0.170736
0.210336
0.226023
0.181756
0.123469