/*--------------------------------*- C++ -*----------------------------------*\
| =========                 |                                                 |
| \\      /  F ield         | OpenFOAM: The Open Source CFD Toolbox           |
|  \\    /   O peration     | Version:  v2006                                 |
|   \\  /    A nd           | Website:  www.openfoam.com                      |
|    \\/     M anipulation  |                                                 |
\*---------------------------------------------------------------------------*/
FoamFile
{
    version     2.0;
    format      ascii;
    class       volScalarField;
    location    "0.002";
    object      Ma;
}
// * * * * * * * * * * * * * * * * * * * * * * * * * * * * * * * * * * * * * //

dimensions      [0 0 0 0 0 0 0];


internalField   nonuniform List<scalar> 
41981
(
0.165648
0.165674
0.165532
0.16548
0.165468
0.165507
0.165474
0.165365
0.165186
0.164965
0.164714
0.164429
0.164102
0.163736
0.163338
0.162912
0.162457
0.161971
0.161452
0.160893
0.160292
0.159647
0.158961
0.158236
0.157474
0.156678
0.155863
0.155044
0.154231
0.153425
0.152624
0.151826
0.151037
0.150263
0.149509
0.148772
0.148048
0.147332
0.146624
0.145924
0.14523
0.144538
0.143847
0.143154
0.142457
0.141755
0.141047
0.14033
0.139605
0.138869
0.138123
0.137366
0.136597
0.135816
0.135024
0.134219
0.133402
0.132574
0.131734
0.130883
0.130022
0.129151
0.128271
0.127381
0.126484
0.125579
0.124666
0.123748
0.122823
0.121894
0.12096
0.120023
0.119084
0.118142
0.117198
0.116253
0.115306
0.114355
0.113401
0.112443
0.111486
0.110529
0.109575
0.108626
0.107681
0.106741
0.105804
0.104873
0.103949
0.103034
0.102126
0.101227
0.100337
0.0994567
0.0985862
0.0977252
0.0968735
0.0960312
0.0951984
0.094376
0.0935647
0.0927653
0.0919782
0.0912034
0.0904409
0.089691
0.0889537
0.0882291
0.0875173
0.0868186
0.0861332
0.0854613
0.0848032
0.0841595
0.0835306
0.0829165
0.082317
0.0817324
0.0811641
0.080614
0.0800832
0.0795716
0.079079
0.0786061
0.0781546
0.0777261
0.0773207
0.0769378
0.076577
0.0762382
0.0759214
0.0756268
0.0753538
0.075102
0.0748707
0.0746591
0.0744666
0.0742926
0.0741366
0.073998
0.0738758
0.0737692
0.0736771
0.0735972
0.0735138
0.0734271
0.0733825
0.0734127
0.0733767
0.0732806
0.0732178
0.0732074
0.0732303
0.0730823
0.073055
0.0729545
0.0728081
0.0725577
0.0721467
0.071712
0.0700155
0.0687926
0.071861
0.0724041
0.072594
0.0717788
0.0670582
0.0648839
0.0716385
0.0727858
0.0728583
0.0713121
0.0627638
0.0606493
0.0709329
0.0728959
0.0728345
0.0704405
0.0586347
0.0568178
0.0701268
0.072852
0.0727963
0.0696332
0.0553209
0.0540875
0.0692697
0.0727395
0.0725715
0.0689209
0.0531273
0.052398
0.0686556
0.072479
0.0722931
0.0684051
0.0518326
0.051428
0.0682545
0.0721931
0.0720069
0.0680708
0.0511452
0.0509781
0.0679646
0.0718959
0.0716948
0.0677887
0.0508828
0.0508524
0.0676734
0.0715663
0.0713538
0.0674845
0.050827
0.0508167
0.0673655
0.0712201
0.071008
0.0671774
0.0507772
0.0507409
0.06706
0.0708764
0.0706628
0.0668706
0.0506792
0.0506259
0.0667485
0.0705265
0.0703057
0.0665531
0.0505525
0.0504934
0.0664226
0.0701616
0.0699338
0.0662196
0.050414
0.0503496
0.0660796
0.0697836
0.0695513
0.0658698
0.0502597
0.0501822
0.065722
0.0693974
0.0691617
0.0655054
0.0500746
0.0499777
0.0653498
0.0690047
0.0687658
0.0651264
0.0498505
0.049733
0.0649627
0.0686059
0.0683639
0.0647327
0.0495853
0.0494458
0.0645611
0.0682018
0.0679572
0.0643241
0.0492757
0.0491118
0.0641449
0.0677937
0.0675466
0.0639015
0.048919
0.0487324
0.0637153
0.0673821
0.0671333
0.0634668
0.0485196
0.0483136
0.063275
0.0669696
0.066721
0.0630234
0.048081
0.0478574
0.0628275
0.0665597
0.0663124
0.062573
0.0476058
0.0473645
0.0623726
0.066155
0.0659103
0.0621145
0.0470929
0.0468325
0.0619098
0.0657579
0.0655161
0.0616473
0.046539
0.0462573
0.0614376
0.0653699
0.065131
0.0611704
0.0459406
0.0456365
0.0609543
0.0649924
0.0647568
0.0606807
0.0452971
0.0449716
0.0604558
0.064627
0.0643945
0.0601738
0.0446108
0.0442655
0.0599379
0.0642747
0.0640462
0.0596463
0.0438874
0.0435294
0.0593996
0.063939
0.0637157
0.0590989
0.0431481
0.042793
0.0588458
0.0636226
0.0634024
0.0585362
0.0424383
0.0421302
0.058274
0.0633167
0.0630872
0.0579498
0.0418643
0.0416679
0.0576925
0.062986
0.0627337
0.0574084
0.0415251
0.0414422
0.0572358
0.062616
0.0623806
0.0570547
0.041395
0.0413846
0.056997
0.0623053
0.0621413
0.0569173
0.0413929
0.041424
0.0569476
0.0621497
0.0620705
0.0569358
0.0414653
0.0415229
0.0570193
0.0621543
0.0621359
0.057047
0.0415867
0.0416628
0.0571589
0.0622675
0.0622838
0.0572079
0.0417419
0.0418302
0.0573335
0.0624403
0.0624735
0.0573933
0.0419194
0.0420155
0.0575246
0.0626403
0.0626795
0.0575895
0.042111
0.0422118
0.0577215
0.0628478
0.0628865
0.0577874
0.0423105
0.0424129
0.0579163
0.0630511
0.0630852
0.0579798
0.042512
0.0426131
0.0581025
0.0632426
0.0632691
0.0581605
0.0427095
0.0428062
0.0582734
0.0634163
0.0634319
0.0583222
0.0428967
0.0429857
0.0584217
0.0635653
0.0635666
0.0584578
0.0430668
0.0431443
0.0585397
0.0636825
0.0636652
0.058559
0.0432124
0.0432749
0.0586195
0.0637596
0.0637201
0.0586182
0.0433262
0.0433702
0.0586534
0.0637894
0.0637239
0.0586278
0.0434014
0.0434237
0.0586344
0.0637647
0.0636701
0.0585817
0.043432
0.0434298
0.0585567
0.0636799
0.0635534
0.058474
0.0434129
0.0433846
0.0584154
0.0635302
0.0633697
0.0583012
0.0433408
0.043285
0.0582076
0.0633125
0.0631162
0.0580605
0.0432133
0.0431293
0.0579311
0.0630242
0.0627912
0.0577508
0.0430291
0.0429164
0.057585
0.0626638
0.0623935
0.057371
0.0427876
0.0426461
0.0571686
0.0622304
0.0619224
0.0569206
0.0424883
0.0423178
0.0566809
0.0617233
0.061377
0.0563983
0.0421307
0.0419306
0.0561207
0.0611411
0.0607557
0.0558027
0.0417136
0.0414832
0.0554859
0.0604821
0.0600565
0.0551315
0.0412355
0.0409739
0.0547747
0.0597441
0.0592774
0.0543829
0.0406946
0.040401
0.0539852
0.0589251
0.0584164
0.0535552
0.0400891
0.0397621
0.053116
0.0580229
0.0574715
0.0526468
0.0394165
0.0390553
0.0521658
0.0570356
0.0564409
0.0516566
0.038675
0.0382787
0.0511339
0.0559614
0.0553227
0.0505837
0.0378628
0.0374303
0.0500186
0.0547983
0.0541153
0.0494255
0.0369773
0.0365068
0.0488164
0.0535444
0.0528154
0.0481782
0.0360149
0.0355048
0.0475232
0.0521961
0.051419
0.0468377
0.0349721
0.0344204
0.0461344
0.0507489
0.0499218
0.0453996
0.0338456
0.0332511
0.0446467
0.0491991
0.048321
0.0438617
0.0326333
0.031995
0.0430585
0.0475447
0.0466149
0.0422228
0.0313338
0.0306525
0.0413695
0.0457848
0.0448044
0.0404842
0.0299488
0.0292252
0.0395814
0.0439211
0.0428905
0.038647
0.0284803
0.0277148
0.0376952
0.0419543
0.0408749
0.0367132
0.0269291
0.0261227
0.0357133
0.0398868
0.03876
0.034685
0.0252979
0.024451
0.0336378
0.0377203
0.0365473
0.0325643
0.0235886
0.0227041
0.0314721
0.0354583
0.0342437
0.0303586
0.021808
0.0208887
0.0292238
0.0331081
0.0318545
0.0280726
0.0199623
0.0190105
0.0268981
0.0306751
0.0293878
0.025715
0.0180596
0.0170848
0.0245097
0.0281741
0.0268683
0.0233107
0.0161235
0.0151226
0.0220711
0.0256164
0.0242912
0.0208591
0.0141531
0.0131329
0.0195924
0.0230091
0.0216773
0.0183843
0.0121709
0.0111298
0.0170882
0.0203641
0.0190415
0.0159026
0.0101936
0.00912096
0.0145626
0.0176884
0.0164058
0.0134371
0.00823854
0.00712465
0.0120355
0.0150018
0.0137796
0.01099
0.00629682
0.00517981
0.00955158
0.0123445
0.0111492
0.00853661
0.00435293
0.00328839
0.00712771
0.00973779
0.00852324
0.00607785
0.00241709
0.00142928
0.00472597
0.00715238
0.00589552
0.00360913
0.000489342
0.000439341
0.00231144
0.00455345
0.0032581
0.00114944
0.00143128
0.0022756
0.000283591
0.00197878
0.000802415
0.00142506
0.00330292
0.00409853
0.00257432
0.00090568
0.00216034
0.00378479
0.00505031
0.00592791
0.00502318
0.00348279
0.00468873
0.00612373
0.00677454
0.00771279
0.00742932
0.00610238
0.00731443
0.00854284
0.00855975
0.00945556
0.00979611
0.00868271
0.00991896
0.0109329
0.0103118
0.0111876
0.0121581
0.0112575
0.0125155
0.0133126
0.0120509
0.0129278
0.0145331
0.0138461
0.015122
0.0157016
0.0137971
0.0146738
0.0169191
0.0164473
0.0177377
0.0180972
0.015546
0.0164247
0.0193159
0.0190633
0.0203693
0.0205039
0.0173015
0.0181824
0.0217243
0.0216957
0.0230113
0.0229176
0.0190626
0.0199429
0.0241346
0.0243311
0.0256416
0.0253216
0.0208191
0.0216885
0.0265214
0.0269386
0.0282259
0.0276861
0.0225492
0.0234016
0.0288583
0.0294878
0.0307467
0.0299983
0.0242496
0.0250943
0.0311474
0.0319756
0.0331982
0.0322582
0.0259305
0.0267544
0.0333655
0.0343728
0.035536
0.0344253
0.0275612
0.0283502
0.035475
0.0366416
0.0377448
0.0364824
0.0291255
0.0298864
0.0374816
0.0387882
0.0398296
0.0384358
0.0306306
0.0313559
0.0393768
0.040804
0.041778
0.0402713
0.0320617
0.032746
0.0411503
0.0426803
0.0435894
0.041987
0.0334126
0.0340566
0.0428064
0.0444237
0.0452589
0.043576
0.034675
0.0352706
0.0443264
0.0460172
0.0467812
0.0450302
0.0358422
0.0363905
0.0457123
0.0474649
0.0481558
0.0463483
0.0369145
0.0374146
0.0469601
0.0487635
0.0493803
0.0475273
0.0378908
0.0383436
0.048069
0.0499123
0.0504555
0.0485679
0.038773
0.0391794
0.0490402
0.050913
0.0513842
0.049472
0.0395635
0.0399258
0.0498772
0.0517699
0.0521722
0.0502449
0.040267
0.0405878
0.0505862
0.0524901
0.052828
0.0508937
0.0408892
0.0411717
0.0511757
0.0530829
0.0533612
0.0514274
0.0414366
0.0416841
0.0516549
0.0535584
0.0537823
0.0518558
0.041916
0.0421321
0.0520333
0.0539273
0.054102
0.0521883
0.0423346
0.0425233
0.0523211
0.0542008
0.0543325
0.0524363
0.042701
0.0428627
0.0525255
0.0543871
0.0544711
0.0525972
0.04301
0.0431408
0.0526385
0.0544789
0.054503
0.052655
0.0432459
0.0433233
0.0526276
0.0544448
0.054425
0.052602
0.043397
0.0434616
0.0525485
0.0543445
0.0542973
0.0524954
0.0435179
0.04356
0.0524069
0.0541825
0.0541038
0.0523214
0.0435928
0.0436112
0.0521976
0.0539532
0.0538439
0.052081
0.043621
0.0436165
0.0519236
0.0536587
0.0535197
0.0517768
0.0436032
0.043574
0.0515853
0.0532993
0.053129
0.0514065
0.0435345
0.0434765
0.0511781
0.0528716
0.0526685
0.0509654
0.0434072
0.0433181
0.050699
0.0523735
0.0521374
0.0504521
0.0432171
0.0430956
0.0501476
0.0518047
0.0515351
0.0498663
0.0429623
0.0428071
0.0495232
0.051164
0.0508604
0.0492076
0.0426408
0.0424508
0.0488255
0.0504505
0.0501134
0.0484765
0.0422519
0.0420264
0.0480555
0.0496647
0.0492941
0.0476733
0.0417937
0.0415321
0.0472141
0.0488075
0.0484034
0.0467983
0.0412643
0.0409671
0.0463032
0.0478818
0.0474463
0.0458561
0.0406656
0.0403355
0.0453291
0.0468931
0.0464256
0.0448506
0.0400003
0.0396428
0.0442988
0.0458472
0.0453477
0.0437894
0.039275
0.038896
0.0432198
0.0447511
0.0442229
0.0426824
0.0384991
0.0381008
0.042099
0.0436129
0.0430598
0.0415367
0.0376784
0.0372613
0.0409426
0.0424413
0.0418657
0.0403568
0.0368153
0.0363793
0.0397535
0.0412423
0.0406447
0.0391453
0.035913
0.0354621
0.0385367
0.0400196
0.0394039
0.0379149
0.0349836
0.0345225
0.0373073
0.0387854
0.038165
0.0366844
0.034041
0.0335758
0.0360829
0.0375591
0.0369467
0.0354715
0.033101
0.0326391
0.0348841
0.0363602
0.0357576
0.0342856
0.0321726
0.0317233
0.0337226
0.0351994
0.0346003
0.0331286
0.0312573
0.0308324
0.0326019
0.0340787
0.0334922
0.0320195
0.0303715
0.0299708
0.0315269
0.0330035
0.0324441
0.0309683
0.0295243
0.0291492
0.0305097
0.0319857
0.0314603
0.02998
0.0287219
0.0283773
0.0295607
0.0310359
0.030548
0.029064
0.0279733
0.0276616
0.0286864
0.0301598
0.0297154
0.0282294
0.0272861
0.0270085
0.0278952
0.0293653
0.0289727
0.0274854
0.0266667
0.0264237
0.0271969
0.0286658
0.0283319
0.0268378
0.0261169
0.0259058
0.0265943
0.0280732
0.0277956
0.0262783
0.0256259
0.025435
0.0260633
0.0275745
0.0273326
0.025769
0.0251701
0.0250047
0.0255715
0.027133
0.0268914
0.0252957
0.0247528
0.0246499
0.0251149
0.0266776
0.0265156
0.0249346
0.0244841
0.0244397
0.0249269
0.0264501
0.0263098
0.0248143
0.0242679
0.0242211
0.0249025
0.0264071
0.0270748
0.0255214
0.0247526
0.0246668
0.0254519
0.0269905
0.0271533
0.0256783
0.0248324
0.0248719
0.025839
0.0272244
0.0294361
0.030844
0.0317829
0.0322084
0.0325026
0.0324947
0.032456
0.0323467
0.0322551
0.0321816
0.0321096
0.0320549
0.0319907
0.0319313
0.0318504
0.0317729
0.0316629
0.031556
0.0314067
0.03126
0.0310591
0.0308549
0.0305753
0.0302861
0.0298912
0.0294868
0.0289556
0.0284638
0.0279185
0.0275574
0.0274396
0.0275778
0.0285583
0.0301046
0.0337699
0.0365345
0.0384782
0.0395833
0.04018
0.037742
0.041653
0.0418191
0.0407274
0.0385563
0.0366604
0.0331609
0.0303582
0.0259208
0.0257904
0.0301213
0.0330101
0.0328522
0.0298437
0.0255401
0.0253169
0.0296016
0.0326739
0.032551
0.0293924
0.025235
0.0252097
0.0291947
0.0323765
0.0322938
0.0290322
0.0251691
0.0251095
0.0289595
0.0322424
0.0321625
0.0288809
0.0251017
0.0250798
0.0288003
0.0321134
0.0320493
0.0287776
0.0250806
0.0251019
0.0287702
0.0319752
0.0319551
0.0287896
0.025143
0.0251866
0.0288328
0.0319761
0.0320162
0.0288952
0.0252366
0.0252944
0.0289669
0.0320608
0.0321406
0.0290647
0.0253586
0.0254167
0.0291509
0.0322229
0.0323068
0.0292368
0.0254771
0.0255407
0.0293152
0.032367
0.0324468
0.0294084
0.0256068
0.0256653
0.029486
0.0325114
0.0325737
0.0295584
0.0257232
0.0257835
0.029622
0.0326041
0.0326511
0.0296976
0.0258453
0.025903
0.0297641
0.0326867
0.0327228
0.0298275
0.0259617
0.0260228
0.0298841
0.0327291
0.032752
0.029951
0.0260854
0.0261453
0.0300147
0.0327708
0.0327933
0.0300762
0.0262055
0.0262688
0.0301332
0.0327918
0.032807
0.0301986
0.0263326
0.0263966
0.0302686
0.032828
0.0328587
0.0303407
0.026462
0.0265309
0.0304106
0.0328719
0.0329036
0.0304889
0.0266006
0.0266719
0.0305773
0.0329478
0.0330061
0.0306716
0.026746
0.026826
0.0307684
0.0330548
0.0331216
0.0308735
0.026907
0.0269891
0.0309888
0.0332017
0.0332973
0.0311122
0.0270747
0.027168
0.0312413
0.0333893
0.0334966
0.0313781
0.0272627
0.0273563
0.0315214
0.0336124
0.0337423
0.0316713
0.0274523
0.0275563
0.031828
0.0338711
0.0340127
0.0319917
0.027662
0.0277636
0.0321567
0.0341569
0.0343137
0.0323278
0.027867
0.0279779
0.0325048
0.0344697
0.0346375
0.032689
0.0280909
0.0281977
0.032871
0.0348041
0.0349821
0.0330579
0.0283049
0.0284205
0.0332507
0.0351594
0.0353488
0.0334512
0.0285384
0.028649
0.033647
0.0355331
0.0357308
0.0338495
0.0287606
0.0288793
0.0340553
0.0359257
0.0361332
0.0342711
0.0290023
0.0291166
0.0344809
0.0363349
0.0365507
0.0346971
0.0292318
0.0293539
0.034916
0.0367624
0.036986
0.0351451
0.0294804
0.0295979
0.0353676
0.0372041
0.0374381
0.0355988
0.0297168
0.0298413
0.0358298
0.0376661
0.0379046
0.0360711
0.0299701
0.0300898
0.0363062
0.0381388
0.0383897
0.036551
0.0302109
0.0303367
0.0367949
0.0386361
0.0388889
0.0370462
0.0304664
0.0305886
0.0372952
0.0391412
0.0394067
0.0375514
0.0307101
0.030836
0.0378078
0.0396717
0.0399393
0.038069
0.0309656
0.0310886
0.0383295
0.0402075
0.0404865
0.0385964
0.0312104
0.0313366
0.0388653
0.0407684
0.0410513
0.0391363
0.0314657
0.0315895
0.0394075
0.0413348
0.0416271
0.0396839
0.031711
0.0318358
0.0399626
0.0419239
0.0422207
0.0402418
0.0319633
0.0320864
0.0405212
0.0425174
0.0428208
0.0408043
0.0322064
0.0323291
0.0410905
0.0431298
0.0434387
0.0413766
0.0324541
0.0325757
0.0416626
0.043747
0.0440603
0.0419512
0.0326939
0.0328146
0.0422443
0.0443807
0.044702
0.0425375
0.0329375
0.0330584
0.0428312
0.0450232
0.0453491
0.0431276
0.0331764
0.0332974
0.0434301
0.0456836
0.0460211
0.0437342
0.0334211
0.0335447
0.0440401
0.04636
0.0467033
0.0443487
0.033666
0.0337903
0.0446639
0.0470554
0.0474114
0.0449812
0.0339167
0.0340437
0.0453004
0.0477693
0.0481304
0.0456216
0.0341684
0.0342957
0.0459488
0.0484994
0.0488727
0.0462783
0.0344247
0.0345545
0.0466098
0.0492482
0.0496263
0.0469428
0.0346824
0.0348124
0.0472813
0.0500112
0.0504001
0.0476218
0.0349432
0.0350752
0.0479646
0.0507918
0.0511856
0.0483086
0.0352053
0.0353371
0.0486572
0.0515853
0.0519884
0.0490077
0.0354693
0.0356026
0.0493605
0.0523946
0.0528031
0.0497145
0.0357345
0.0358679
0.0500726
0.0532166
0.0536329
0.0504323
0.036001
0.0361355
0.0507946
0.0540526
0.0544747
0.0511583
0.0362691
0.0364045
0.0515263
0.054902
0.0553322
0.0518962
0.0365399
0.0366775
0.0522701
0.0557672
0.0562056
0.0526462
0.0368155
0.0369563
0.053028
0.0566501
0.0570977
0.053412
0.0370975
0.037242
0.0538012
0.0575508
0.0580089
0.054194
0.037388
0.0375376
0.0545931
0.0584739
0.0589435
0.054996
0.0376889
0.0378447
0.0554056
0.0594205
0.0599043
0.0558213
0.0380041
0.0381697
0.0562463
0.0603979
0.0609001
0.0566798
0.0383404
0.0385205
0.0571265
0.0614154
0.0619445
0.0575891
0.0387113
0.0389179
0.0580747
0.0624924
0.0630615
0.0585868
0.0391435
0.0394013
0.0591421
0.0636633
0.0643085
0.0597491
0.039731
0.0402536
0.0604382
0.0649848
0.0656433
0.0610723
0.0408032
0.0410152
0.061588
0.0662593
0.0668406
0.0620418
0.041235
0.0414099
0.0624659
0.0674581
0.0680896
0.0630867
0.041844
0.0418627
0.0635747
0.0686282
0.0691252
0.064031
0.0422142
0.0425177
0.0646044
0.0696652
0.0701683
0.0651736
0.043046
0.0433983
0.065604
0.0705917
0.0709859
0.065983
0.043887
0.0443019
0.0665247
0.071464
0.0719339
0.0670083
0.0445586
0.0454915
0.0674969
0.0723224
0.0725943
0.0677935
0.0457899
0.048473
0.0694804
0.0738876
0.0700709
0.0642173
0.0472813
0.0439468
0.0649805
0.0704176
0.0716471
0.0661045
0.0426847
0.0412114
0.0660632
0.0726264
0.0733232
0.0661679
0.0394759
0.0383469
0.0661577
0.0737529
0.0742644
0.066482
0.0383189
0.0380142
0.0668255
0.0747005
0.0752849
0.0675057
0.0396047
0.0397431
0.0679567
0.0758244
0.0763144
0.0686581
0.0410025
0.0419055
0.0692278
0.0767987
0.0774128
0.0701358
0.0433132
0.0445742
0.0708259
0.07793
0.0797659
0.0736519
0.0493762
0.0479981
0.0677758
0.0749087
0.0755668
0.0693368
0.0467694
0.0465371
0.071256
0.0773038
0.0787773
0.0726216
0.0467453
0.0464988
0.0734749
0.0798705
0.0807082
0.0741443
0.0460213
0.0464144
0.0746958
0.0813962
0.0821002
0.0753861
0.0475952
0.0484329
0.0762631
0.0828734
0.0835154
0.0769609
0.0497656
0.0535006
0.0794075
0.0853409
0.0802136
0.0730697
0.0520726
0.0512167
0.0745328
0.0808651
0.0826121
0.0764222
0.0509092
0.049325
0.077073
0.0839189
0.0850424
0.077929
0.0496658
0.0495165
0.0787837
0.0860112
0.0869936
0.079717
0.0501009
0.0512793
0.0805762
0.0877785
0.0902484
0.0840378
0.0563425
0.0550961
0.0777539
0.0852089
0.0862515
0.0797545
0.0543985
0.05606
0.0821695
0.08825
0.0901607
0.0840813
0.0569593
0.0583575
0.0857183
0.0917707
0.0930991
0.0869572
0.0591887
0.0603297
0.0880498
0.0942768
0.0968765
0.0913428
0.0641763
0.0628905
0.0849075
0.0920388
0.0932698
0.0869813
0.0629015
0.0641319
0.0897744
0.0955355
0.0975418
0.0917253
0.064843
0.0656546
0.0932175
0.0992207
0.102416
0.0970453
0.0702204
0.0681623
0.0902391
0.0976217
0.0991001
0.0926926
0.0679057
0.0708939
0.0964541
0.102138
0.104952
0.0994617
0.0728235
0.074128
0.101642
0.107193
0.109255
0.103703
0.0760892
0.0812275
0.107936
0.113015
0.108943
0.101888
0.0803251
0.0808983
0.10492
0.110836
0.11406
0.108699
0.0836772
0.0869976
0.112185
0.117229
0.122161
0.11771
0.0924202
0.0909267
0.111981
0.118891
0.121459
0.115889
0.0926824
0.0987097
0.121459
0.1259
0.130161
0.126049
0.102197
0.107348
0.131752
0.135607
0.133692
0.12742
0.107161
0.110798
0.132539
0.137251
0.141932
0.137827
0.115359
0.121848
0.145531
0.149117
0.149196
0.143014
0.123335
0.128074
0.149796
0.154203
0.159683
0.155926
0.134016
0.14514
0.166535
0.168541
0.17026
0.165378
0.147916
0.153706
0.172843
0.176253
0.186948
0.185894
0.167428
0.171691
0.187326
0.191347
0.199689
0.197409
0.179729
0.198075
0.213488
0.212329
0.21951
0.217321
0.204457
0.216509
0.230235
0.229897
0.245397
0.250593
0.241828
0.251773
0.259519
0.258675
0.274288
0.281426
0.279976
0.294552
0.296198
0.291593
0.305845
0.316909
0.321775
0.345434
0.339642
0.328785
0.349505
0.358495
0.355459
0.352827
0.37088
0.362739
0.361462
0.369962
0.335464
0.287599
0.345141
0.339596
0.30462
0.314717
0.242388
0.194782
0.255104
0.257358
0.236188
0.225157
0.154561
0.121654
0.182329
0.19878
0.190295
0.171
0.11175
0.0883646
0.137409
0.15844
0.155
0.130622
0.0731295
0.0525902
0.104161
0.128219
0.131427
0.107116
0.0500051
0.0282433
0.0831329
0.107397
0.11234
0.0890712
0.0402351
0.0344144
0.0757922
0.0971786
0.0764558
0.0534175
0.0113768
0.0198681
0.062743
0.0854036
0.0746746
0.0545397
0.0186608
0.000385475
0.0376848
0.0581019
0.0675502
0.0482845
0.0154433
0.0053973
0.0379822
0.0555757
0.0647391
0.0482366
0.0194738
0.0179015
0.0430628
0.0578281
0.0455893
0.0307376
0.00453407
0.0142013
0.0402216
0.0542596
0.0491738
0.0366704
0.013887
0.00437254
0.027239
0.0399063
0.0478976
0.0363052
0.015207
0.0148292
0.0341874
0.0449092
0.0373433
0.0266651
0.00667048
0.0174628
0.0364377
0.0463764
0.0442672
0.0350504
0.0172949
0.0103024
0.0288737
0.0382138
0.0459727
0.0377141
0.0203545
0.0204152
0.0370765
0.0451407
0.0401088
0.0316952
0.0142458
0.0244094
0.0409525
0.0486082
0.0480735
0.0405252
0.0243756
0.018797
0.0358901
0.0437492
0.0507182
0.0442794
0.0289907
0.0285696
0.0444115
0.0511962
0.050764
0.0434456
0.0276875
0.0213685
0.0387334
0.046821
0.0544551
0.0482634
0.0321274
0.0318525
0.048617
0.0552269
0.0519941
0.0444352
0.0266958
0.0366757
0.0526394
0.058218
0.0590529
0.0528325
0.036336
0.0309768
0.0487828
0.055874
0.0622846
0.0569102
0.0408765
0.0404558
0.0569361
0.0630174
0.059947
0.0528181
0.0351922
0.0447323
0.0603716
0.0655736
0.0664359
0.060536
0.0442632
0.038924
0.0562213
0.0631997
0.068593
0.0634425
0.0477897
0.0473539
0.0634714
0.0693308
0.0661359
0.0591201
0.0421474
0.0504209
0.0660645
0.0709696
0.0714835
0.0658151
0.0496071
0.0441439
0.0613014
0.068047
0.072813
0.06777
0.0519455
0.0507435
0.0670861
0.0729715
0.0696617
0.0627357
0.0454753
0.0535652
0.0692666
0.0741246
0.0742921
0.0684883
0.0524763
0.0467785
0.0641359
0.0707342
0.0749971
0.0702124
0.0541413
0.0528954
0.0692328
0.0749157
0.0712383
0.0643539
0.0470131
0.0543401
0.070344
0.0751407
0.07522
0.0696527
0.0532868
0.0477215
0.0651426
0.0716361
0.0756618
0.0709276
0.0551125
0.0538324
0.0699284
0.0755166
0.0718896
0.0652394
0.0482942
0.0550828
0.0710207
0.0756723
0.0753101
0.0697775
0.0534018
0.0478057
0.0649823
0.0716682
0.0756347
0.0708999
0.0551493
0.0540387
0.0700244
0.0756109
0.071973
0.0653559
0.0484719
0.0552995
0.0709563
0.0756597
0.0754808
0.0699996
0.0538094
0.0482227
0.0650561
0.071689
0.0755008
0.0706573
0.0548861
0.0532292
0.0693904
0.0751556
0.0715428
0.0647658
0.0475116
0.0548611
0.070806
0.075369
0.0753748
0.0699719
0.053549
0.0479174
0.0651612
0.0718067
0.0756051
0.0709551
0.0549371
0.0535242
0.0698426
0.0754983
0.071697
0.0650446
0.0474988
0.0545696
0.0706248
0.0753227
0.0749286
0.0690561
0.0527353
0.0466183
0.0639287
0.0709898
0.0753436
0.0705812
0.0538602
0.0503322
0.0673926
0.073201
0.0768878
0.0725593
0.0572895
0.0559087
0.0712711
0.0766191
0.073106
0.0669183
0.0503172
0.0567003
0.0722811
0.0766852
0.0765967
0.0711903
0.0553391
0.0493577
0.0663431
0.0729323
0.0764085
0.071627
0.056101
0.0546775
0.0706966
0.0764587
0.0729278
0.0662396
0.0491159
0.0563544
0.0723073
0.0769598
0.077047
0.0713948
0.0549769
0.0490547
0.0663291
0.07321
0.0773754
0.0727389
0.0562715
0.052319
0.0693301
0.0750439
0.0789334
0.074584
0.0591618
0.0578353
0.0733749
0.0786415
0.0749367
0.0684061
0.0521966
0.058324
0.0738669
0.0784395
0.0788029
0.0733516
0.057461
0.0520807
0.069027
0.0753764
0.0792302
0.0748264
0.0590658
0.0576387
0.0737345
0.0792443
0.0755115
0.0688635
0.0514397
0.058073
0.0750469
0.079505
0.0771885
0.0715517
0.0542761
0.0611851
0.0766185
0.0808528
0.0804407
0.0750652
0.059608
0.0534935
0.0700382
0.07652
0.0799655
0.0753195
0.0600095
0.0588215
0.0744692
0.080173
0.0764787
0.0698929
0.0529548
0.0597944
0.0764187
0.0808146
0.078681
0.0731628
0.056031
0.0626459
0.0781612
0.0822748
0.0820792
0.0768602
0.0611993
0.0554754
0.0720289
0.0783993
0.0822679
0.0776683
0.0621395
0.0606223
0.0765935
0.0821535
0.0780723
0.071289
0.0543704
0.0603269
0.0773027
0.0819854
0.0796776
0.0738551
0.0564906
0.0637236
0.079498
0.083607
0.0835506
0.078402
0.0624776
0.0566631
0.0734197
0.0798471
0.0837568
0.0794229
0.0634992
0.0596757
0.0758564
0.0814596
0.0852026
0.0810436
0.0659317
0.0645814
0.0798586
0.0849548
0.0812499
0.07498
0.0588379
0.0644497
0.0806202
0.0849664
0.0826352
0.0771173
0.0605876
0.0664552
0.0817012
0.0860352
0.0856543
0.0801945
0.0648567
0.0599235
0.0758453
0.0822796
0.0860424
0.0816336
0.0664528
0.0650728
0.0807247
0.0861922
0.0824861
0.0758241
0.0590163
0.0651374
0.0820878
0.0865158
0.0843362
0.0785781
0.0612827
0.0676012
0.0836864
0.0878799
0.0874771
0.0821454
0.0658832
0.0598932
0.0769449
0.0835254
0.0875588
0.0829322
0.0662207
0.062262
0.0792556
0.0850653
0.0885374
0.0840802
0.0678667
0.0664741
0.0827247
0.088262
0.0846874
0.0777875
0.0609937
0.0673289
0.0840892
0.0888041
0.0866308
0.0808339
0.0635688
0.0702474
0.0860983
0.0902485
0.0900776
0.0848195
0.0688178
0.0628936
0.0798744
0.0862321
0.0902567
0.085872
0.068996
0.065185
0.0822923
0.087929
0.0916259
0.0873658
0.0714959
0.0698615
0.0857708
0.0911931
0.0872321
0.0806947
0.0635751
0.0690658
0.0864426
0.0910188
0.0886715
0.0828155
0.0650586
0.0722065
0.0881283
0.0923336
0.0923372
0.0870468
0.0710954
0.0655063
0.0821063
0.0886386
0.092838
0.088422
0.0716074
0.0676711
0.0845279
0.0903648
0.0943248
0.0901771
0.074156
0.0708057
0.0866014
0.0920539
0.0955049
0.0914298
0.0766715
0.0752152
0.0898569
0.095078
0.0914651
0.0852207
0.0694926
0.074916
0.0908316
0.0950912
0.0928183
0.0872505
0.0712071
0.0768042
0.0921082
0.0962765
0.0957895
0.0904943
0.0749773
0.0693228
0.0857455
0.0922208
0.0961989
0.0918867
0.0754124
0.0718971
0.0884432
0.0940933
0.0979594
0.0938032
0.0775252
0.0741161
0.0903324
0.095759
0.0991261
0.0952448
0.0798859
0.0786354
0.0939311
0.0989629
0.0954322
0.0892551
0.072835
0.0776938
0.0947277
0.0989626
0.0968971
0.0912908
0.0739516
0.0802643
0.0961999
0.100249
0.0999733
0.0947025
0.0788177
0.0726937
0.0897501
0.0962456
0.0998345
0.0952558
0.0779243
0.073874
0.0911738
0.0972794
0.101119
0.0968812
0.0804696
0.0772923
0.0936339
0.0990479
0.102554
0.0985026
0.0834555
0.0824126
0.0972993
0.102452
0.0990163
0.0926952
0.0767701
0.0819293
0.0982182
0.102626
0.100581
0.0947206
0.0783944
0.084593
0.0999848
0.104119
0.103781
0.0984119
0.0829536
0.076786
0.093641
0.100142
0.103801
0.0993887
0.0819552
0.0779985
0.0952793
0.101353
0.105094
0.100676
0.0840525
0.0801547
0.0965094
0.10251
0.105692
0.101195
0.0852116
0.0835975
0.0996422
0.105315
0.101649
0.0947371
0.0779814
0.0836296
0.101018
0.105574
0.103374
0.0973358
0.0796688
0.0853127
0.102904
0.107102
0.104986
0.0993456
0.0819065
0.0880183
0.104276
0.1084
0.108151
0.102731
0.08654
0.0806773
0.0978012
0.104379
0.108106
0.103732
0.0859426
0.0819503
0.0998463
0.105808
0.109613
0.105261
0.0877986
0.0843247
0.101318
0.107183
0.110575
0.10639
0.08956
0.0859783
0.102564
0.108191
0.111254
0.107072
0.0915159
0.0898908
0.105339
0.110761
0.107164
0.100628
0.0842227
0.089628
0.106403
0.110843
0.108973
0.102981
0.086344
0.0919579
0.108542
0.112776
0.110537
0.104912
0.0882556
0.0940732
0.109692
0.11369
0.11357
0.108341
0.0928139
0.087211
0.103502
0.1101
0.113675
0.109073
0.092235
0.0882028
0.105217
0.111296
0.115022
0.110897
0.0937177
0.0899951
0.107194
0.112707
0.115814
0.111748
0.0957573
0.0943797
0.110104
0.115476
0.111733
0.104942
0.0885801
0.0930755
0.110596
0.115215
0.112598
0.106278
0.0885632
0.0945053
0.111883
0.11629
0.114121
0.108226
0.0912056
0.0970759
0.11358
0.11768
0.115559
0.109975
0.0936302
0.099175
0.114568
0.118682
0.118509
0.113112
0.0979108
0.0924416
0.108691
0.115102
0.118645
0.114326
0.0969918
0.0930331
0.110315
0.116329
0.120146
0.115905
0.0987206
0.0950037
0.111845
0.117715
0.121153
0.117045
0.100444
0.0970818
0.113376
0.119037
0.122065
0.117902
0.102419
0.100945
0.116187
0.121668
0.118057
0.11154
0.0951435
0.0994775
0.116786
0.121379
0.118835
0.112684
0.0951844
0.100762
0.118145
0.122443
0.120437
0.114491
0.0975498
0.10403
0.119748
0.123882
0.123687
0.118206
0.102481
0.0964866
0.113223
0.120073
0.123641
0.118906
0.101304
0.0972828
0.114852
0.121269
0.125227
0.120844
0.103162
0.0992247
0.116619
0.122722
0.126156
0.121895
0.104563
0.101074
0.11789
0.123775
0.127077
0.122955
0.106332
0.102955
0.119191
0.124888
0.127891
0.123773
0.108081
0.106737
0.122219
0.127597
0.124022
0.117442
0.101037
0.105517
0.122861
0.127398
0.124872
0.118658
0.101185
0.106441
0.124093
0.128433
0.126121
0.120011
0.102817
0.108527
0.125289
0.129506
0.127444
0.121632
0.10524
0.110738
0.126517
0.130622
0.130443
0.125102
0.1093
0.103712
0.12027
0.12695
0.130433
0.126015
0.108401
0.10434
0.121889
0.12809
0.131849
0.127551
0.109995
0.106101
0.123441
0.129383
0.132796
0.128697
0.111444
0.108014
0.124898
0.130592
0.133607
0.129431
0.113378
0.112002
0.127819
0.133319
0.129633
0.122952
0.106155
0.110308
0.128378
0.132993
0.130455
0.124044
0.105991
0.111127
0.129676
0.13415
0.131479
0.125152
0.10699
0.11284
0.130541
0.134922
0.132629
0.126517
0.109401
0.114794
0.13184
0.136086
0.133909
0.128118
0.111316
0.116911
0.132842
0.136997
0.136788
0.131275
0.115439
0.109923
0.126601
0.133316
0.136925
0.132307
0.114271
0.109953
0.128124
0.134447
0.13826
0.133899
0.115722
0.111833
0.129552
0.135697
0.139104
0.134744
0.117095
0.113578
0.130793
0.136787
0.139931
0.13561
0.119091
0.117177
0.133737
0.139445
0.135643
0.128516
0.111078
0.115967
0.134549
0.13926
0.13656
0.129957
0.111274
0.116818
0.135538
0.140193
0.137495
0.131065
0.112716
0.118084
0.136536
0.141039
0.138556
0.132228
0.114412
0.120292
0.137768
0.142108
0.139822
0.133852
0.116712
0.12207
0.138613
0.142961
0.14276
0.137094
0.120663
0.114844
0.132109
0.139107
0.142722
0.137912
0.119697
0.115213
0.13348
0.140082
0.143989
0.139519
0.120964
0.117133
0.135246
0.141451
0.144954
0.140516
0.122171
0.118341
0.136115
0.142304
0.145682
0.141313
0.123754
0.120042
0.137191
0.143199
0.146338
0.141998
0.125389
0.12374
0.140227
0.145969
0.142184
0.135165
0.11748
0.12199
0.14093
0.145708
0.142878
0.136124
0.117059
0.123032
0.141909
0.146581
0.143982
0.137532
0.119222
0.124822
0.143195
0.147673
0.144971
0.138651
0.120805
0.126214
0.143989
0.148407
0.146044
0.140057
0.122599
0.128167
0.14494
0.1493
0.14891
0.143175
0.126491
0.120347
0.138086
0.145067
0.148696
0.143916
0.125138
0.120785
0.139447
0.146073
0.150075
0.145465
0.126868
0.122683
0.140867
0.147293
0.150709
0.146118
0.1276
0.123882
0.141798
0.14804
0.151558
0.147222
0.129247
0.125367
0.142829
0.148862
0.152107
0.147791
0.130512
0.127006
0.143774