/*--------------------------------*- C++ -*----------------------------------*\
| =========                 |                                                 |
| \\      /  F ield         | OpenFOAM: The Open Source CFD Toolbox           |
|  \\    /   O peration     | Version:  v2006                                 |
|   \\  /    A nd           | Website:  www.openfoam.com                      |
|    \\/     M anipulation  |                                                 |
\*---------------------------------------------------------------------------*/
FoamFile
{
    version     2.0;
    format      ascii;
    class       volVectorField;
    location    "0.002";
    object      U;
}
// * * * * * * * * * * * * * * * * * * * * * * * * * * * * * * * * * * * * * //

dimensions      [0 1 -1 0 0 0 0];


internalField   nonuniform List<vector> 
41981
(
(57.366 0.00226876 3.71359e-18)
(57.3746 0.00368924 4.40293e-18)
(57.3279 0.00321125 2.11614e-19)
(57.31 0.00441278 -8.2252e-19)
(57.3062 -0.00184492 1.01742e-18)
(57.3193 -0.00035084 0)
(57.308 0.00764291 2.18993e-19)
(57.2703 0.0152575 -2.28848e-19)
(57.2089 0.0214602 2.47709e-19)
(57.1326 0.0258815 -2.46812e-19)
(57.0464 0.0292329 -1.68013e-20)
(56.948 0.0311632 2.08228e-20)
(56.835 0.028761 -2.12143e-22)
(56.7088 0.0228081 0)
(56.5715 0.014811 0)
(56.4245 0.00563072 0)
(56.2676 -0.00435317 0)
(56.1002 -0.01479 0)
(55.921 -0.025684 0)
(55.7284 -0.0373498 0)
(55.521 -0.0498924 0)
(55.2986 -0.0630222 0)
(55.062 -0.0761117 0)
(54.8122 -0.0887787 0)
(54.5492 -0.100663 0)
(54.2749 -0.111089 0)
(53.9937 -0.11927 0)
(53.7111 -0.124916 0)
(53.4306 -0.128489 0)
(53.1527 -0.130761 0)
(52.8762 -0.132205 0)
(52.6009 -0.132773 0)
(52.3286 -0.132197 0)
(52.0617 -0.130464 0)
(51.8015 -0.127973 0)
(51.5472 -0.125251 0)
(51.2972 -0.122626 0)
(51.0503 -0.120153 0)
(50.8061 -0.117798 0)
(50.5646 -0.115609 -1.96005e-22)
(50.3249 -0.11371 0)
(50.0863 -0.112205 0)
(49.8477 -0.111146 0)
(49.6086 -0.110542 0)
(49.3681 -0.110387 0)
(49.1259 -0.110668 0)
(48.8813 -0.111366 0)
(48.634 -0.112456 1.98004e-22)
(48.3836 -0.113908 0)
(48.1297 -0.115686 0)
(47.8721 -0.117747 0)
(47.6106 -0.120052 0)
(47.3451 -0.122562 0)
(47.0755 -0.12524 0)
(46.8018 -0.128051 0)
(46.5238 -0.130955 0)
(46.2417 -0.133918 0)
(45.9556 -0.136901 0)
(45.6655 -0.139871 0)
(45.3715 -0.142795 0)
(45.074 -0.14565 0)
(44.773 -0.148414 0)
(44.4687 -0.151071 0)
(44.1614 -0.153612 0)
(43.8512 -0.156024 0)
(43.5383 -0.158298 0)
(43.223 -0.160423 0)
(42.9054 -0.162381 0)
(42.5858 -0.164157 0)
(42.2645 -0.165742 0)
(41.9417 -0.167135 0)
(41.6178 -0.168347 0)
(41.2928 -0.169397 0)
(40.9672 -0.170317 0)
(40.6409 -0.171174 0)
(40.3141 -0.172052 0)
(39.9864 -0.173013 0)
(39.6575 -0.174034 0)
(39.3273 -0.174994 0)
(38.9962 -0.175719 0)
(38.6648 -0.176085 0)
(38.3338 -0.176065 0)
(38.0039 -0.175727 0)
(37.6754 -0.175173 0)
(37.3484 -0.174507 0)
(37.0229 -0.173778 0)
(36.6988 -0.172922 0)
(36.3765 -0.17182 0)
(36.0568 -0.17045 0)
(35.7399 -0.168916 0)
(35.4258 -0.167303 0)
(35.1145 -0.165583 0)
(34.8063 -0.163718 0)
(34.5015 -0.16175 0)
(34.2002 -0.159747 0)
(33.902 -0.157739 0)
(33.6071 -0.155701 0)
(33.3154 -0.153587 0)
(33.0271 -0.151344 -4.25183e-22)
(32.7422 -0.14892 0)
(32.4612 -0.146296 0)
(32.1844 -0.143506 0)
(31.9117 -0.140603 0)
(31.6434 -0.137633 0)
(31.3793 -0.134616 0)
(31.1195 -0.131556 0)
(30.8641 -0.128465 0)
(30.6131 -0.125351 0)
(30.3665 -0.122205 0)
(30.1245 -0.119013 0)
(29.887 -0.115772 0)
(29.6542 -0.112479 0)
(29.4262 -0.109116 0)
(29.2032 -0.10568 0)
(28.9853 -0.102192 0)
(28.7725 -0.0986907 0)
(28.5648 -0.0951622 0)
(28.3622 -0.091516 0)
(28.1653 -0.0876678 0)
(27.9747 -0.083615 0)
(27.7907 -0.0794406 0)
(27.6134 -0.07523 0)
(27.4427 -0.0709805 0)
(27.2789 -0.0666309 0)
(27.1224 -0.0621377 0)
(26.9739 -0.0575487 0)
(26.8335 -0.0529671 0)
(26.7008 -0.0484709 0)
(26.5758 -0.0440795 0)
(26.4584 -0.0397786 0)
(26.3486 -0.0355673 0)
(26.2466 -0.0314637 0)
(26.152 -0.0274917 -4.0774e-22)
(26.0648 -0.0236813 0)
(25.9847 -0.0200481 0)
(25.9114 -0.0166078 0)
(25.8447 -0.0133648 0)
(25.7845 -0.0103106 0)
(25.7306 -0.00742831 0)
(25.6826 -0.00471119 0)
(25.6404 -0.00215581 0)
(25.6036 0.000249619 0)
(25.5718 0.00284571 0)
(25.5443 0.0048516 0)
(25.5155 0.00860551 -3.63723e-21)
(25.4855 0.00654207 -1.56388e-20)
(25.47 -1.58162e-05 0)
(25.4805 -0.000196599 -5.23485e-20)
(25.4679 0.00715865 0)
(25.4347 0.00962478 3.87731e-18)
(25.4129 0.00335632 5.33857e-18)
(25.4094 -0.000926719 -6.24871e-18)
(25.4168 -0.000248259 0)
(25.3657 0.00382601 0)
(25.3566 0.0051203 9.30676e-20)
(25.3216 0.00743958 0)
(25.2706 0.0013527 6.25066e-18)
(25.1836 -0.0257799 0)
(25.041 -0.049421 0)
(24.8902 -0.0656096 -3.65356e-18)
(24.3016 -0.0802243 4.56304e-18)
(23.8756 -0.121728 -8.62774e-18)
(24.94 -0.115176 7.18562e-18)
(25.1286 -0.0949635 0)
(25.1925 -0.140805 1.05748e-17)
(24.9095 -0.148828 -9.3133e-19)
(23.2717 -0.178083 0)
(22.5152 -0.187773 0)
(24.8585 -0.147831 2.50297e-18)
(25.2565 -0.176153 1.38819e-18)
(25.2789 -0.182538 0)
(24.7428 -0.143538 -1.68197e-18)
(21.7777 -0.170675 0)
(21.0424 -0.13887 2.39746e-19)
(24.6089 -0.145008 3.97026e-19)
(25.2893 -0.180811 3.30991e-19)
(25.2655 -0.153385 -2.99527e-18)
(24.4357 -0.140659 2.80918e-18)
(20.3414 -0.111153 -1.82888e-19)
(19.7091 -0.0787311 1.86478e-18)
(24.3243 -0.134188 -3.21209e-18)
(25.2689 -0.147051 -1.32565e-18)
(25.247 -0.112322 -2.08561e-20)
(24.1506 -0.111544 1.61291e-18)
(19.188 -0.0649487 -1.93521e-18)
(18.7584 -0.0508734 0)
(24.0222 -0.0943224 0)
(25.2247 -0.101558 -2.66508e-18)
(25.1639 -0.0803784 -2.67854e-18)
(23.8989 -0.0767121 3.23986e-18)
(18.4237 -0.028876 0)
(18.1691 -0.0290578 0)
(23.8047 -0.0574388 -4.61398e-24)
(25.1294 -0.0661259 2.61624e-21)
(25.0625 -0.0489934 -1.91477e-24)
(23.7156 -0.0452147 -6.3195e-21)
(17.9713 -0.0136416 0)
(17.8292 -0.0154652 0)
(23.661 -0.0295275 0)
(25.0254 -0.0385491 -2.61803e-21)
(24.9582 -0.0272481 0)
(23.5949 -0.0226941 0)
(17.7293 -0.00249143 0)
(17.6694 -0.00470938 0)
(23.5555 -0.0110089 0)
(24.9171 -0.0225168 0)
(24.8448 -0.0169142 5.3577e-18)
(23.492 -0.00999751 -3.23281e-18)
(17.6345 0.00506075 0)
(17.6219 0.00159191 0)
(23.4495 -0.00193937 0)
(24.7977 -0.0163799 0)
(24.7213 -0.0139689 5.35543e-18)
(23.3815 -0.00584608 -3.23133e-18)
(17.6112 0.00741518 0)
(17.6056 0.00147701 0)
(23.3377 -0.000734693 0)
(24.6724 -0.0149791 0)
(24.5962 -0.0135992 0)
(23.27 -0.00626103 0)
(17.59 0.00602719 0)
(17.5754 0.000383628 0)
(23.2267 -0.00109057 -3.22849e-18)
(24.548 -0.0149979 -1.72986e-25)
(24.4713 -0.0139962 0)
(23.1586 -0.0066816 0)
(17.5522 0.00517235 0)
(17.5316 -0.000225017 0)
(23.1137 -0.00141701 0)
(24.4215 -0.0153417 0)
(24.3423 -0.0145676 0)
(23.0436 -0.00687279 0)
(17.5044 0.00502547 0)
(17.4818 -0.000210032 0)
(22.9957 -0.00142161 -3.22533e-18)
(24.2897 -0.0156469 -4.40482e-25)
(24.2081 -0.0151278 0)
(22.9229 -0.00701439 0)
(17.4525 0.00506089 0)
(17.4282 -0.000385085 0)
(22.8718 -0.00170176 0)
(24.1534 -0.0161089 0)
(24.0703 -0.0161557 5.3405e-18)
(22.7967 -0.00765038 -3.22328e-18)
(17.3952 0.00478127 0)
(17.3662 -0.00114564 0)
(22.7429 -0.00274029 0)
(24.0143 -0.0171543 0)
(23.9301 -0.0177425 0)
(22.6655 -0.00886282 0)
(17.3271 0.0041525 0)
(17.2915 -0.00214214 0)
(22.6088 -0.00422347 0)
(23.8729 -0.0186564 0)
(23.7876 -0.0196308 5.33504e-18)
(22.5291 -0.0103553 -3.22028e-18)
(17.2456 0.00339712 0)
(17.203 -0.00315239 0)
(22.4698 -0.00585244 0)
(23.7295 -0.0203868 0)
(23.6431 -0.0217259 0)
(22.3878 -0.0120086 0)
(17.1503 0.0025649 0)
(17.1003 -0.00426291 0)
(22.3259 -0.00770827 0)
(23.5844 -0.0224132 0)
(23.4973 -0.0240972 0)
(22.2419 -0.0139138 0)
(17.0403 0.00158624 0)
(16.9824 -0.00545175 0)
(22.1778 -0.00975094 0)
(23.4383 -0.0246775 0)
(23.3508 -0.0265997 -5.328e-18)
(22.0921 -0.0159069 3.21679e-18)
(16.9151 0.000573421 0)
(16.8499 -0.00658059 0)
(22.026 -0.0117687 0)
(23.2918 -0.0269704 0)
(23.2043 -0.0291127 0)
(21.9391 -0.0178784 0)
(16.7761 -0.000402884 0)
(16.7045 -0.00772273 0)
(21.8715 -0.0138242 0)
(23.1459 -0.0293226 0)
(23.0589 -0.0317671 0)
(21.784 -0.0199269 0)
(16.6242 -0.00143496 0)
(16.5469 -0.00887629 0)
(21.7155 -0.0160597 0)
(23.0017 -0.0319158 0)
(22.9157 -0.0346878 0)
(21.6274 -0.0221483 0)
(16.4605 -0.00247837 0)
(16.3773 -0.0100155 0)
(21.5577 -0.0185371 0)
(22.8602 -0.0348948 0)
(22.7755 -0.0380268 -5.3263e-18)
(21.4689 -0.0247331 3.21696e-18)
(16.2845 -0.00366234 0)
(16.1949 -0.011294 0)
(21.3981 -0.0213678 0)
(22.7222 -0.0383623 0)
(22.6389 -0.0418319 0)
(21.3082 -0.0277162 0)
(16.0948 -0.00502822 0)
(15.998 -0.0127106 0)
(21.236 -0.0245453 0)
(22.5881 -0.0422729 0)
(22.5063 -0.0462048 0)
(21.145 -0.0311064 0)
(15.8898 -0.0064784 0)
(15.7854 -0.0141163 0)
(21.0706 -0.0281082 0)
(22.4583 -0.0465913 0)
(22.3781 -0.0510898 0)
(20.9777 -0.0348288 0)
(15.6692 -0.00787358 0)
(15.5572 -0.0154231 0)
(20.9004 -0.0320032 0)
(22.3333 -0.0514583 0)
(22.2544 -0.0564635 -5.33398e-18)
(20.8045 -0.0388127 3.2223e-18)
(15.4332 -0.0091605 0)
(15.314 -0.0165214 0)
(20.7233 -0.0360688 0)
(22.2132 -0.0567189 0)
(22.1357 -0.0619026 0)
(20.624 -0.0426787 0)
(15.1835 -0.0101279 0)
(15.0595 -0.0170335 0)
(20.5389 -0.0396796 0)
(22.0988 -0.0617953 0)
(22.023 -0.0667673 0)
(20.4359 -0.0455994 0)
(14.9272 -0.0104875 0)
(14.8037 -0.0164076 0)
(20.3483 -0.0415255 0)
(21.9909 -0.0659347 0)
(21.9159 -0.0701707 0)
(20.2417 -0.0457558 0)
(14.6802 -0.0091601 0)
(14.5725 -0.0131002 0)
(20.1507 -0.0394213 0)
(21.8862 -0.0682362 0)
(21.8077 -0.070564 -5.34828e-18)
(20.0383 -0.0409024 3.229e-18)
(14.4794 -0.0053043 0)
(14.41 -0.00895585 0)
(19.9484 -0.0314423 0)
(21.7726 -0.0660637 0)
(21.6854 -0.0649307 0)
(19.8492 -0.0318254 0)
(14.3594 -0.00287689 0)
(14.3292 -0.00698019 0)
(19.7878 -0.0223178 0)
(21.6442 -0.0569805 0)
(21.562 -0.0532922 0)
(19.7238 -0.0248526 0)
(14.3116 -0.0022626 0)
(14.3065 -0.00600455 0)
(19.7019 -0.0177332 0)
(21.5345 -0.0442811 0)
(21.4765 -0.0414038 0)
(19.6728 -0.0224645 0)
(14.3082 -0.00174254 0)
(14.3176 -0.00518561 0)
(19.6813 -0.0168721 0)
(21.4774 -0.034435 0)
(21.4486 -0.0341856 0)
(19.6759 -0.0223388 0)
(14.3308 -0.00139491 0)
(14.3495 -0.0047991 0)
(19.7029 -0.0172487 0)
(21.4756 -0.0300979 0)
(21.4678 -0.0319737 0)
(19.7112 -0.0227413 0)
(14.3706 -0.00149783 0)
(14.3957 -0.00486121 0)
(19.7482 -0.01804 0)
(21.5115 -0.0300664 0)
(21.5159 -0.0328453 0)
(19.764 -0.023443 0)
(14.4222 -0.00192413 0)
(14.4517 -0.00514889 0)
(19.8059 -0.0191381 0)
(21.5682 -0.0321939 0)
(21.5786 -0.0350731 0)
(19.8256 -0.0244033 0)
(14.4818 -0.0024573 0)
(14.5141 -0.00549941 0)
(19.8696 -0.0204354 0)
(21.6347 -0.0351424 0)
(21.6473 -0.0378052 0)
(19.8911 -0.025513 0)
(14.5464 -0.00300132 0)
(14.5803 -0.00586073 0)
(19.9355 -0.0217966 0)
(21.7041 -0.0383298 0)
(21.7166 -0.040699 0)
(19.9575 -0.0266778 0)
(14.6138 -0.00352409 0)
(14.6484 -0.00620881 0)
(20.001 -0.0231655 0)
(21.7722 -0.0415199 0)
(21.7833 -0.0435763 0)
(20.0222 -0.0278726 0)
(14.6821 -0.00399061 0)
(14.7163 -0.00651951 0)
(20.0636 -0.024536 0)
(21.8366 -0.0445911 0)
(21.845 -0.0463724 0)
(20.083 -0.0290932 0)
(14.749 -0.00438066 0)
(14.7818 -0.00679472 0)
(20.1211 -0.0259061 0)
(21.8949 -0.0475373 0)
(21.8997 -0.0491105 0)
(20.1373 -0.0303315 0)
(14.8125 -0.0046995 0)
(14.8425 -0.00704909 0)
(20.1708 -0.0272673 0)
(21.945 -0.0504032 0)
(21.9447 -0.0518251 0)
(20.1826 -0.0315729 0)
(14.87 -0.00495634 0)
(14.8961 -0.00729794 0)
(20.2101 -0.0286121 0)
(21.984 -0.053219 0)
(21.9774 -0.0545327 0)
(20.2161 -0.0328118 0)
(14.9191 -0.00516322 0)
(14.94 -0.00755211 0)
(20.2362 -0.0299373 0)
(22.0093 -0.0559972 0)
(21.9949 -0.0572349 0)
(20.235 -0.0340374 0)
(14.9571 -0.00532751 0)
(14.9717 -0.00782031 0)
(20.2465 -0.0312345 0)
(22.0182 -0.058733 0)
(21.9948 -0.0599302 0)
(20.2369 -0.0352433 0)
(14.9819 -0.00545954 0)
(14.9889 -0.00810537 0)
(20.2384 -0.0324985 0)
(22.0083 -0.0614338 0)
(21.9748 -0.0626392 0)
(20.2194 -0.0364225 0)
(14.9912 -0.00556294 0)
(14.9899 -0.00841401 0)
(20.21 -0.0337297 0)
(21.9775 -0.0641182 0)
(21.9331 -0.0653731 0)
(20.1807 -0.0375755 0)
(14.9834 -0.00565002 0)
(14.973 -0.00874808 0)
(20.1597 -0.0349225 0)
(21.9243 -0.0667717 0)
(21.8681 -0.0681549 0)
(20.1195 -0.0387001 0)
(14.9573 -0.00572466 0)
(14.9374 -0.00910547 0)
(20.0864 -0.0360292 0)
(21.8476 -0.0694852 0)
(21.7789 -0.0710279 0)
(20.0348 -0.0398112 0)
(14.9121 -0.00580013 0)
(14.8824 -0.00948893 0)
(19.9893 -0.0370806 0)
(21.7464 -0.0722557 0)
(21.665 -0.0739819 0)
(19.9262 -0.0409223 0)
(14.8473 -0.00587051 0)
(14.8077 -0.00991036 0)
(19.8681 -0.0381125 0)
(21.6201 -0.0749967 0)
(21.5259 -0.0769991 0)
(19.7934 -0.0420268 0)
(14.7626 -0.00593909 0)
(14.7131 -0.0103642 0)
(19.7225 -0.0391182 0)
(21.4685 -0.077726 0)
(21.3612 -0.080122 0)
(19.636 -0.0431383 0)
(14.6579 -0.00600472 0)
(14.5983 -0.0108506 0)
(19.5522 -0.0401048 0)
(21.2912 -0.0804658 0)
(21.1706 -0.0834011 0)
(19.4538 -0.0442842 0)
(14.5331 -0.00607709 0)
(14.4632 -0.0113684 0)
(19.3567 -0.0410936 0)
(21.0877 -0.0832551 0)
(20.9536 -0.0868732 0)
(19.246 -0.0454814 0)
(14.3876 -0.00615811 0)
(14.3073 -0.0119194 0)
(19.1354 -0.0420984 0)
(20.8575 -0.0861056 0)
(20.7095 -0.0905462 0)
(19.0122 -0.0467416 0)
(14.2212 -0.00625631 0)
(14.1301 -0.0124988 0)
(18.8878 -0.0431251 0)
(20.6 -0.0889987 0)
(20.4378 -0.0943862 0)
(18.7517 -0.0480553 0)
(14.033 -0.00637383 0)
(13.9309 -0.013099 0)
(18.6132 -0.044173 0)
(20.3146 -0.0918831 0)
(20.1379 -0.0983304 0)
(18.4639 -0.0494111 0)
(13.8226 -0.00651186 0)
(13.7091 -0.013713 0)
(18.3112 -0.0452412 0)
(20.0005 -0.094709 0)
(19.8092 -0.102306 0)
(18.1483 -0.0507828 0)
(13.5891 -0.00667177 0)
(13.4636 -0.0143326 0)
(17.9813 -0.0463143 0)
(19.6573 -0.097426 0)
(19.4511 -0.106275 0)
(17.8046 -0.0521441 0)
(13.3316 -0.00684435 0)
(13.1941 -0.0149785 0)
(17.6231 -0.0474293 0)
(19.2842 -0.100087 0)
(19.0628 -0.110289 0)
(17.4323 -0.0535352 0)
(13.0498 -0.00703466 0)
(12.8996 -0.0157479 0)
(17.2361 -0.0483176 0)
(18.8806 -0.102518 0)
(18.6438 -0.114427 0)
(17.0304 -0.0550163 0)
(12.7424 -0.0072334 0)
(12.5791 -0.0164698 0)
(16.8191 -0.0492048 0)
(18.4456 -0.104918 0)
(18.1929 -0.118791 0)
(16.5977 -0.0566537 0)
(12.4084 -0.00743769 0)
(12.2314 -0.0171546 0)
(16.3704 -0.05024 0)
(17.978 -0.107538 0)
(17.7086 -0.123417 0)
(16.1327 -0.058432 0)
(12.0466 -0.00766002 0)
(11.8551 -0.0178087 0)
(15.8887 -0.0513696 0)
(17.4761 -0.11035 0)
(17.1895 -0.128241 0)
(15.6339 -0.0603295 0)
(11.6558 -0.00791812 0)
(11.4495 -0.0184137 0)
(15.3727 -0.0525556 0)
(16.9389 -0.113294 0)
(16.6345 -0.133111 0)
(15.1006 -0.0622627 0)
(11.2354 -0.0082157 0)
(11.0141 -0.0189782 0)
(14.8221 -0.0537293 0)
(16.3654 -0.116316 0)
(16.0431 -0.137937 0)
(14.5325 -0.0641476 0)
(10.785 -0.00861853 0)
(10.5488 -0.0195778 0)
(14.2368 -0.0548524 0)
(15.7556 -0.119401 0)
(15.4158 -0.142579 0)
(13.9301 -0.0659108 0)
(10.3052 -0.00906477 0)
(10.0547 -0.0201368 0)
(13.6175 -0.0559668 0)
(15.11 -0.122495 0)
(14.7531 -0.147056 0)
(13.294 -0.0676947 0)
(9.79695 -0.00954838 0)
(9.53215 -0.0206515 0)
(12.9647 -0.0572128 0)
(14.4291 -0.125732 0)
(14.0555 -0.151441 0)
(12.625 -0.069581 0)
(9.26062 -0.0100385 0)
(8.98194 -0.0211275 0)
(12.2794 -0.0586562 0)
(13.7139 -0.129229 0)
(13.3242 -0.155702 0)
(11.924 -0.0715545 0)
(8.69719 -0.0105709 0)
(8.4048 -0.0214971 0)
(11.5624 -0.0602071 0)
(12.9651 -0.132934 0)
(12.5597 -0.159842 0)
(11.1918 -0.0735881 0)
(8.10733 -0.011149 0)
(7.80229 -0.0218705 0)
(10.815 -0.061939 0)
(12.184 -0.13694 0)
(11.7647 -0.163821 0)
(10.431 -0.0756343 0)
(7.49346 -0.0116786 0)
(7.17665 -0.0221699 0)
(10.0399 -0.0638171 0)
(11.3733 -0.141272 0)
(10.9409 -0.16786 0)
(9.64315 -0.0778132 0)
(6.85764 -0.012291 0)
(6.52988 -0.0223847 0)
(9.23871 -0.0658162 0)
(10.5348 -0.14616 0)
(10.0912 -0.172178 0)
(8.83131 -0.0801447 0)
(6.20264 -0.0129811 0)
(5.86718 -0.0224939 0)
(8.41653 -0.0673507 0)
(9.67363 -0.151025 0)
(9.22382 -0.175839 0)
(8.00388 -0.0822056 0)
(5.53655 -0.0135405 0)
(5.1923 -0.0229317 0)
(7.5776 -0.069904 0)
(8.79342 -0.158456 0)
(8.33726 -0.17834 0)
(7.1607 -0.0839792 0)
(4.85901 -0.0139473 0)
(4.50831 -0.0233331 0)
(6.72534 -0.0720888 0)
(7.89667 -0.164368 0)
(7.43844 -0.180341 0)
(6.30991 -0.085908 0)
(4.17776 -0.0141849 0)
(3.82002 -0.0235171 0)
(5.86465 -0.0738768 0)
(6.98732 -0.169277 0)
(6.53245 -0.182092 0)
(5.45708 -0.0880252 0)
(3.49846 -0.0143775 0)
(3.13002 -0.0237597 0)
(4.997 -0.0754542 0)
(6.06775 -0.172918 0)
(5.62673 -0.183266 0)
(4.61012 -0.0901261 0)
(2.82706 -0.0143938 0)
(2.44461 -0.0240084 0)
(4.12908 -0.0769843 0)
(5.14466 -0.175323 0)
(4.72449 -0.183153 0)
(3.76977 -0.0915283 0)
(2.16052 -0.0139772 0)
(1.77706 -0.0244932 0)
(3.27624 -0.0791334 0)
(4.23168 -0.178337 0)
(3.82081 -0.183073 0)
(2.92733 -0.094771 0)
(1.49343 -0.0125451 0)
(1.12795 -0.0248105 0)
(2.4441 -0.0807317 0)
(3.33596 -0.181274 0)
(2.91822 -0.186159 0)
(2.08287 -0.098817 0)
(0.829191 -0.0120273 0)
(0.489735 -0.0250217 0)
(1.61927 -0.0832869 0)
(2.44689 -0.184407 0)
(2.01352 -0.191831 0)
(1.234 -0.102516 0)
(0.167466 -0.0119352 0)
(-0.148537 -0.0256691 0)
(0.788137 -0.088064 0)
(1.55071 -0.189388 0)
(1.10021 -0.19771 0)
(0.379689 -0.106619 0)
(-0.490893 -0.0136768 0)
(-0.780496 -0.0216668 0)
(-0.0421755 -0.0876879 0)
(0.651957 -0.189465 0)
(0.182176 -0.206431 0)
(-0.475585 -0.113615 0)
(-1.13317 -0.0181632 0)
(-1.40626 -0.0162381 0)
(-0.879715 -0.0798346 0)
(-0.254998 -0.177621 0)
(-0.707797 -0.22032 0)
(-1.29324 -0.119169 0)
(-1.73287 -0.0208886 0)
(-2.03415 -0.0163268 0)
(-1.72171 -0.0833116 0)
(-1.18228 -0.174729 0)
(-1.59388 -0.21996 0)
(-2.09823 -0.116152 0)
(-2.32471 -0.0212368 0)
(-2.64682 -0.0180917 0)
(-2.54784 -0.093718 0)
(-2.08552 -0.190025 0)
(-2.50119 -0.212311 0)
(-2.9297 -0.110949 0)
(-2.93757 -0.020405 0)
(-3.24512 -0.019706 0)
(-3.36046 -0.10248 0)
(-2.97283 -0.204381 0)
(-3.39784 -0.208415 0)
(-3.7507 -0.108119 0)
(-3.53908 -0.0202856 0)
(-3.83985 -0.0202898 0)
(-4.17154 -0.107368 0)
(-3.85787 -0.213198 0)
(-4.29055 -0.210224 0)
(-4.56809 -0.108049 0)
(-4.13634 -0.0209096 0)
(-4.43755 -0.0204025 0)
(-4.98732 -0.109943 0)
(-4.74759 -0.218786 0)
(-5.18634 -0.215407 0)
(-5.38875 -0.109405 0)
(-4.73614 -0.0218592 0)
(-5.03742 -0.0205666 0)
(-5.80702 -0.112346 0)
(-5.64159 -0.224398 0)
(-6.08537 -0.222189 0)
(-6.21192 -0.111507 0)
(-5.33716 -0.0228224 0)
(-5.6392 -0.0208863 0)
(-6.63073 -0.114663 0)
(-6.5409 -0.22984 0)
(-6.99006 -0.228895 0)
(-7.03909 -0.113774 0)
(-5.94062 -0.023723 0)
(-6.24351 -0.0213883 0)
(-7.45864 -0.116473 0)
(-7.44601 -0.23455 0)
(-7.89844 -0.234885 0)
(-7.86895 -0.115783 0)
(-6.54617 -0.024535 0)
(-6.8489 -0.0220575 0)
(-8.28737 -0.117839 0)
(-8.35217 -0.238302 0)
(-8.80274 -0.239747 0)
(-8.69545 -0.117421 0)
(-7.15016 -0.0252464 0)
(-7.44913 -0.0228685 0)
(-9.10791 -0.118864 0)
(-9.2486 -0.241048 0)
(-9.69102 -0.243426 0)
(-9.50829 -0.118719 0)
(-7.74503 -0.0258431 0)
(-8.03802 -0.0238646 0)
(-9.91112 -0.119779 0)
(-10.1247 -0.242922 0)
(-10.5571 -0.24586 0)
(-10.3028 -0.11993 0)
(-8.32939 -0.0264416 0)
(-8.61963 -0.0249154 0)
(-10.6975 -0.12042 0)
(-10.9792 -0.243226 0)
(-11.3989 -0.245054 0)
(-11.079 -0.119981 0)
(-8.90684 -0.0267349 0)
(-9.18974 -0.02574 0)
(-11.4591 -0.120058 0)
(-11.8023 -0.240892 0)
(-12.2014 -0.242302 0)
(-11.8228 -0.119239 0)
(-9.46666 -0.0267804 0)
(-9.73739 -0.0264707 0)
(-12.183 -0.119417 0)
(-12.5808 -0.238036 0)
(-12.9591 -0.239893 0)
(-12.5285 -0.118773 0)
(-10.0034 -0.0267885 0)
(-10.2643 -0.027076 0)
(-12.8712 -0.118739 0)
(-13.317 -0.234309 0)
(-13.6739 -0.236187 0)
(-13.1982 -0.118005 0)
(-10.5194 -0.0265579 0)
(-10.768 -0.0275156 0)
(-13.5208 -0.11766 0)
(-14.0081 -0.229322 0)
(-14.3419 -0.231607 0)
(-13.8272 -0.116615 0)
(-11.0098 -0.0262843 0)
(-11.2442 -0.028117 0)
(-14.1284 -0.115746 0)
(-14.6513 -0.22323 0)
(-14.9627 -0.22711 0)
(-14.4149 -0.115028 0)
(-11.4725 -0.0264422 0)
(-11.6931 -0.02871 0)
(-14.6956 -0.113562 0)
(-15.2488 -0.21656 0)
(-15.5348 -0.218744 0)
(-14.9591 -0.11213 0)
(-11.9048 -0.0258653 0)
(-12.1087 -0.0287786 0)
(-15.2161 -0.111062 0)
(-15.7948 -0.209179 0)
(-16.0564 -0.2101 0)
(-15.457 -0.109009 0)
(-12.3044 -0.0250983 0)
(-12.4921 -0.0284991 0)
(-15.6905 -0.107996 0)
(-16.2907 -0.200645 0)
(-16.5271 -0.200434 0)
(-15.9081 -0.105391 0)
(-12.6714 -0.0241472 0)
(-12.8425 -0.0279449 0)
(-16.1175 -0.104368 0)
(-16.7352 -0.190996 0)
(-16.9461 -0.189826 0)
(-16.3115 -0.101323 0)
(-13.0054 -0.0230973 0)
(-13.1604 -0.0271549 0)
(-16.4968 -0.100302 0)
(-17.1281 -0.18048 0)
(-17.3138 -0.178437 0)
(-16.6673 -0.0968768 0)
(-13.3072 -0.0219512 0)
(-13.4462 -0.0261296 0)
(-16.8288 -0.0958985 0)
(-17.4702 -0.169288 0)
(-17.6311 -0.166436 0)
(-16.9763 -0.0921471 0)
(-13.5776 -0.020722 0)
(-13.7014 -0.0248898 0)
(-17.1147 -0.0912732 0)
(-17.7628 -0.157645 0)
(-17.9 -0.154043 0)
(-17.2402 -0.0872213 0)
(-13.818 -0.0194267 0)
(-13.9275 -0.0234518 0)
(-17.3567 -0.0865172 0)
(-18.0085 -0.145769 0)
(-18.1236 -0.141462 0)
(-17.4615 -0.0821722 0)
(-14.0304 -0.0180971 0)
(-14.1268 -0.0218694 0)
(-17.5576 -0.0816834 0)
(-18.2104 -0.133842 0)
(-18.3051 -0.128837 0)
(-17.6433 -0.0769919 0)
(-14.2172 -0.0168431 0)
(-14.3017 -0.02029 0)
(-17.7208 -0.076692 0)
(-18.3722 -0.121967 0)
(-18.4483 -0.116346 0)
(-17.7891 -0.0717373 0)
(-14.3808 -0.0157607 0)
(-14.4546 -0.0186823 0)
(-17.8495 -0.0717384 0)
(-18.4976 -0.110396 0)
(-18.5569 -0.104363 0)
(-17.9022 -0.0666285 0)
(-14.5237 -0.0148416 0)
(-14.5881 -0.0170461 0)
(-17.9474 -0.0670582 0)
(-18.5905 -0.0994388 0)
(-18.6352 -0.0931523 0)
(-17.9865 -0.0618317 0)
(-14.6488 -0.0140972 0)
(-14.7041 -0.0151912 0)
(-18.0169 -0.0620164 0)
(-18.6537 -0.0880212 0)
(-18.6822 -0.0804547 0)
(-18.0413 -0.0565874 0)
(-14.7545 -0.0130037 0)
(-14.7993 -0.0129549 0)
(-18.0554 -0.0558798 0)
(-18.6849 -0.0747957 0)
(-18.6931 -0.0686154 0)
(-18.0611 -0.051309 0)
(-14.8354 -0.012082 0)
(-14.862 -0.0108677 0)
(-18.0518 -0.0505354 0)
(-18.6733 -0.0637736 0)
(-18.6666 -0.0599037 0)
(-18.0431 -0.0473935 0)
(-14.8874 -0.0117118 0)
(-14.9099 -0.00935258 0)
(-18.0252 -0.0463957 0)
(-18.6394 -0.0552818 0)
(-18.6234 -0.0509087 0)
(-18.0072 -0.0433491 0)
(-14.9294 -0.0115137 0)
(-14.9443 -0.00803931 0)
(-17.9775 -0.0420396 0)
(-18.5848 -0.0473044 0)
(-18.5581 -0.041856 0)
(-17.9486 -0.0386107 0)
(-14.956 -0.0114341 0)
(-14.963 -0.00687503 0)
(-17.9071 -0.0378875 0)
(-18.5075 -0.0401111 0)
(-18.4705 -0.0328134 0)
(-17.8676 -0.0340189 0)
(-14.9669 -0.0113107 0)
(-14.9663 -0.00568979 0)
(-17.8148 -0.0342543 0)
(-18.4082 -0.0338577 0)
(-18.3613 -0.0241082 0)
(-17.7652 -0.0297544 0)
(-14.9624 -0.0110564 0)
(-14.9535 -0.00453428 0)
(-17.7009 -0.0310767 0)
(-18.2872 -0.0286591 0)
(-18.2298 -0.0158415 5.29671e-18)
(-17.6406 -0.0257366 -3.18953e-18)
(-14.9409 -0.0107434 0)
(-14.9223 -0.00348539 0)
(-17.5639 -0.0282827 0)
(-18.1432 -0.0245983 0)
(-18.0748 -0.0080678 0)
(-17.4921 -0.0219648 0)
(-14.8996 -0.0103929 0)
(-14.8705 -0.00257538 0)
(-17.4026 -0.0258982 3.1917e-18)
(-17.9755 -0.0216643 -1.76334e-24)
(-17.896 -0.000748671 0)
(-17.3193 -0.0184495 0)
(-14.8372 -0.0100061 0)
(-14.7972 -0.0018076 0)
(-17.2169 -0.0239549 0)
(-17.784 -0.0198072 0)
(-17.6933 0.00617681 0)
(-17.122 -0.0152018 0)
(-14.7529 -0.00957952 0)
(-14.7016 -0.00120092 0)
(-17.0065 -0.0224484 0)
(-17.5682 -0.0189476 0)
(-17.4661 0.0127872 0)
(-16.9001 -0.012195 0)
(-14.6462 -0.00910585 0)
(-14.5831 -0.000716081 0)
(-16.7714 -0.0212797 0)
(-17.3279 -0.0189112 0)
(-17.2144 0.0194929 0)
(-16.6538 -0.00922427 0)
(-14.5167 -0.00851192 0)
(-14.4416 -0.000292803 0)
(-16.5119 -0.0202996 0)
(-17.0631 -0.0194158 0)
(-16.9384 0.0260427 0)
(-16.3831 -0.00629794 0)
(-14.3638 -0.00777017 0)
(-14.2765 -1.52114e-05 0)
(-16.2282 -0.0197033 0)
(-16.7742 -0.0208823 0)
(-16.6381 0.0320986 0)
(-16.088 -0.00357441 0)
(-14.1868 -0.00696952 0)
(-14.0873 3.24075e-05 0)
(-15.9208 -0.0195231 0)
(-16.4619 -0.0235907 0)
(-16.3152 0.0374923 0)
(-15.77 -0.00119626 0)
(-13.9862 -0.00612953 0)
(-13.8755 -5.22892e-05 0)
(-15.5919 -0.0196307 0)
(-16.1281 -0.0270235 0)
(-15.9704 0.0425494 0)
(-15.4304 0.000918745 0)
(-13.7629 -0.00513873 0)
(-13.6429 -0.000241411 0)
(-15.2438 -0.0201046 0)
(-15.7745 -0.0311447 0)
(-15.6056 0.0472542 0)
(-15.0715 0.00279474 0)
(-13.5191 -0.00407811 0)
(-13.3917 -0.000556987 0)
(-14.8787 -0.0209404 0)
(-15.4032 -0.0358214 0)
(-15.224 0.0519956 0)
(-14.6967 0.00437946 0)
(-13.2578 -0.00351068 0)
(-13.1236 -0.00106291 0)
(-14.4989 -0.0218017 0)
(-15.0167 -0.040787 0)
(-14.8283 0.0568404 0)
(-14.308 0.00609819 0)
(-12.9809 -0.00337979 0)
(-12.84 -0.00167162 0)
(-14.1061 -0.0223192 0)
(-14.6175 -0.0455378 0)
(-14.4209 0.06194 0)
(-13.9067 0.00827594 0)
(-12.6888 -0.00317999 0)
(-12.5411 -0.00224674 0)
(-13.7012 -0.02236 0)
(-14.208 -0.0494059 0)
(-14.0033 0.0673306 0)
(-13.4937 0.0105861 0)
(-12.3827 -0.00289159 0)
(-12.2295 -0.00266733 0)
(-13.286 -0.0223814 0)
(-13.7897 -0.0527383 0)
(-13.5791 0.0723751 0)
(-13.0736 0.0127376 0)
(-12.0665 -0.00243297 0)
(-11.9095 -0.003132 0)
(-12.8661 -0.0223244 0)
(-13.368 -0.0562859 0)
(-13.1561 0.076318 0)
(-12.6532 0.0145978 0)
(-11.7452 -0.0020414 0)
(-11.5868 -0.00365539 0)
(-12.4478 -0.0224566 0)
(-12.9495 -0.0600099 0)
(-12.7406 0.0788538 0)
(-12.2389 0.0159995 0)
(-11.4246 -0.00170648 0)
(-11.2673 -0.00401061 0)
(-12.0383 -0.0226939 0)
(-12.5407 -0.0632279 0)
(-12.3353 0.0808199 0)
(-11.8337 0.0169129 0)
(-11.1078 -0.00129971 0)
(-10.9546 -0.0041527 0)
(-11.6414 -0.022769 0)
(-12.145 -0.0657532 0)
(-11.9407 0.0830584 0)
(-11.4383 0.017629 0)
(-10.7953 -0.000599415 0)
(-10.6504 -0.00472724 0)
(-11.2584 -0.0231631 0)
(-11.7629 -0.069152 0)
(-11.5629 0.085591 0)
(-11.0592 0.0181105 0)
(-10.4927 0.000344133 0)
(-10.3562 -0.0053779 0)
(-10.8911 -0.0236856 0)
(-11.3964 -0.0732738 0)
(-11.2055 0.0891331 0)
(-10.7 0.0189672 0)
(-10.2034 0.00178358 0)
(-10.0757 -0.00635025 0)
(-10.5435 -0.0247699 0)
(-11.0494 -0.0779477 0)
(-10.8701 0.0926301 0)
(-10.3623 0.0195979 0)
(-9.92948 0.00346629 0)
(-9.81223 -0.00736469 0)
(-10.2193 -0.0255243 0)
(-10.7257 -0.082564 0)
(-10.5592 0.0956465 0)
(-10.0494 0.0197489 0)
(-9.67398 0.00513823 0)
(-9.56801 -0.00822937 0)
(-9.92072 -0.0263506 0)
(-10.4272 -0.0870623 0)
(-10.2756 0.0978206 0)
(-9.76436 0.0195203 0)
(-9.43957 0.00670171 0)
(-9.34526 -0.00889949 0)
(-9.65064 -0.0273776 0)
(-10.1567 -0.0915601 0)
(-10.0229 0.0991742 0)
(-9.51046 0.0188809 0)
(-9.2284 0.00824483 0)
(-9.14604 -0.00940215 0)
(-9.41249 -0.028344 0)
(-9.9188 -0.0959262 0)
(-9.80531 0.100078 0)
(-9.28993 0.018505 0)
(-9.04134 0.00967657 0)
(-8.97012 -0.00993375 0)
(-9.20755 -0.0282116 0)
(-9.7179 -0.0990232 0)
(-9.62395 0.102458 0)
(-9.10003 0.0199076 0)
(-8.87493 0.0106897 0)
(-8.81079 -0.0106958 0)
(-9.0276 -0.0260262 0)
(-9.54957 -0.0991615 0)
(-9.46796 0.106397 0)
(-8.92765 0.0228677 0)
(-8.72089 0.0110493 0)
(-8.66564 -0.0092023 0)
(-8.86127 -0.0276646 3.26909e-18)
(-9.40106 -0.0972863 -1.31806e-23)
(-9.31919 0.126597 2.36388e-18)
(-8.76774 0.00499959 -3.25143e-18)
(-8.58018 0.0312484 0)
(-8.5466 0.00168531 0)
(-8.70696 -0.0472919 0)
(-9.24764 -0.0908793 3.35018e-19)
(-9.19348 0.108652 6.58655e-19)
(-8.64665 -0.0141892 0)
(-8.49085 0.0626684 0)
(-8.47777 0.0243256 0)
(-8.64581 -0.0684201 -3.36184e-18)
(-9.17302 -0.100864 1.96579e-18)
(-9.12558 0.16721 2.5085e-18)
(-8.60895 -0.0486669 1.85191e-19)
(-8.41956 0.100369 1.77559e-18)
(-8.40568 0.0141193 -2.35752e-18)
(-8.64096 -0.0942512 0)
(-9.16136 -0.157541 1.96459e-17)
(-9.39611 0.0179646 1.18396e-18)
(-8.85763 -0.019987 0)
(-8.59146 -0.00285614 4.19625e-19)
(-8.56257 -0.0429937 0)
(-8.83481 0.00252831 0)
(-9.36851 -0.039417 -5.80068e-18)
(-9.4267 -0.0604417 3.24762e-19)
(-8.91485 0.00610487 -3.83103e-19)
(-8.62119 -0.0501333 0)
(-8.63662 0.0209134 -9.9987e-19)
(-8.97242 -0.0212846 1.24718e-18)
(-9.45346 0.0116597 2.42858e-18)
(-10.2213 -0.0591107 1.01788e-18)
(-10.7103 -0.0400181 0)
(-11.0364 0.00628484 0)
(-11.184 -0.0482362 0)
(-11.2863 -0.0112064 0)
(-11.2833 -0.0644399 0)
(-11.2701 -0.0256266 2.06225e-19)
(-11.2319 -0.0671981 -2.07615e-19)
(-11.2003 -0.0323088 0)
(-11.1746 -0.0623391 0)
(-11.1498 -0.0257261 0)
(-11.1307 -0.0550318 0)
(-11.1085 -0.0163053 0)
(-11.0878 -0.0452097 0)
(-11.0598 -0.00466556 0)
(-11.0328 -0.033256 0)
(-10.9947 0.010032 0)
(-10.9575 -0.0186491 0)
(-10.9057 0.0275854 0)
(-10.8548 -0.000287465 0)
(-10.7849 0.0497106 0)
(-10.7141 0.0223156 0)
(-10.6167 0.0771159 0)
(-10.5165 0.0493468 0)
(-10.3789 0.109747 0)
(-10.2387 0.0809382 0)
(-10.0535 0.149424 0)
(-9.88312 0.117048 0)
(-9.69245 0.19804 0)
(-9.56778 0.157391 0)
(-9.52477 0.2544 0)
(-9.57403 0.202991 2.10094e-19)
(-9.91245 0.28851 -2.11972e-19)
(-10.45 0.274293 -1.73406e-18)
(-11.7227 0.290035 1.76934e-18)
(-12.6833 0.276357 0)
(-13.3595 0.21912 -1.54082e-17)
(-13.7437 0.192812 1.65057e-17)
(-13.9439 0.481578 4.91424e-17)
(-13.0924 0.59834 -1.33249e-16)
(-14.4237 1.08751 -3.91786e-17)
(-14.5197 0.26561 0)
(-14.1426 0.099502 1.32719e-17)
(-13.3889 0.0604423 -3.85653e-18)
(-12.73 0.12301 7.81074e-18)
(-11.5154 -0.0212159 0)
(-10.5421 0.0407662 -8.07833e-19)
(-9.00126 -0.032145 0)
(-8.95531 0.0190647 0)
(-10.4588 0.0419226 7.37347e-19)
(-11.4619 0.0173928 0)
(-11.4059 0.0310611 2.47524e-18)
(-10.3615 0.0211947 4.55209e-18)
(-8.8675 0.036922 -2.33938e-18)
(-8.78921 0.000220642 7.95197e-19)
(-10.2764 0.0206822 2.65634e-18)
(-11.3427 0.0499093 -2.23986e-18)
(-11.2987 0.0518554 -2.29371e-18)
(-10.2027 0.000435528 2.82735e-18)
(-8.75994 0.0108308 -4.29808e-19)
(-8.75036 -0.026502 -3.93737e-19)
(-10.1331 0.0306958 -2.68125e-18)
(-11.237 0.0260642 9.42963e-22)
(-11.2072 -0.00337276 0)
(-10.0757 0.0417039 0)
(-8.73561 -0.0300897 3.39627e-22)
(-8.71442 -0.0179645 4.21569e-19)
(-10.0498 0.0253275 0)
(-11.1882 0.00912463 0)
(-11.1594 0.0225169 2.39313e-18)
(-10.0218 0.0299527 -2.8783e-18)
(-8.71115 -0.0146524 0)
(-8.70295 0.00973074 4.34274e-19)
(-9.99316 0.00295129 0)
(-11.1414 0.0185889 0)
(-11.1184 0.0315252 0)
(-9.98476 -0.0109459 0)
(-8.70279 0.0209886 -4.38004e-19)
(-8.7093 0.00789745 0)
(-9.98125 -0.00503927 0)
(-11.0918 0.023728 0)
(-11.0839 0.0150374 0)
(-9.98699 0.00297173 0)
(-8.72278 0.00328577 0)
(-8.7368 0.00215694 0)
(-10.0008 0.00228486 0)
(-11.09 0.0106033 0)
(-11.1028 0.00582417 0)
(-10.0216 0.00382401 0)
(-8.75344 0.00145009 0)
(-8.7724 0.0023233 0)
(-10.0453 0.000296639 0)