/*--------------------------------*- C++ -*----------------------------------*\
| =========                 |                                                 |
| \\      /  F ield         | OpenFOAM: The Open Source CFD Toolbox           |
|  \\    /   O peration     | Version:  v2006                                 |
|   \\  /    A nd           | Website:  www.openfoam.com                      |
|    \\/     M anipulation  |                                                 |
\*---------------------------------------------------------------------------*/
FoamFile
{
    version     2.0;
    format      ascii;
    class       volScalarField;
    location    "0.125";
    object      alphat;
}
// * * * * * * * * * * * * * * * * * * * * * * * * * * * * * * * * * * * * * //

dimensions      [1 -1 -1 0 0 0 0];


internalField   nonuniform List<scalar> 
38932
(
0.104095
0.104097
0.104125
0.104122
0.104116
0.104104
0.104087
0.104064
0.104036
0.104003
0.103965
0.103922
0.103874
0.103821
0.103763
0.1037
0.103633
0.10356
0.103483
0.103401
0.103314
0.103222
0.103126
0.103025
0.102919
0.102809
0.102694
0.102574
0.102451
0.102322
0.10219
0.102053
0.101912
0.101767
0.101617
0.101464
0.101307
0.101145
0.10098
0.100811
0.100638
0.100462
0.100282
0.100099
0.0999125
0.0997226
0.0995294
0.0993332
0.0991339
0.0989317
0.0987267
0.098519
0.0983086
0.0980958
0.0978805
0.0976629
0.0974432
0.0972213
0.0969975
0.0967719
0.0965446
0.0963157
0.0960853
0.0958536
0.0956207
0.0953867
0.0951518
0.0949161
0.0946797
0.0944428
0.0942055
0.093968
0.0937303
0.0934928
0.0932554
0.0930184
0.092782
0.0925461
0.0923111
0.0920771
0.0918442
0.0916125
0.0913823
0.0911537
0.0909269
0.0907019
0.0904791
0.0902584
0.0900401
0.0898244
0.0896114
0.0894012
0.0891941
0.08899
0.0887893
0.0885921
0.0883985
0.0882086
0.0880226
0.0878406
0.0876628
0.0874893
0.0873202
0.0871556
0.0869957
0.0868405
0.0866903
0.086545
0.0864048
0.0862697
0.0861399
0.0860154
0.0858962
0.0857826
0.0856744
0.0855718
0.085475
0.0853839
0.0852988
0.0852196
0.085146
0.0850767
0.0850046
0.0849016
0.0847676
0.0844359
0.0833972
0.0790835
0.0640922
0.0229164
0.00837926
0.000314719
0.000326267
0.00353309
0.00945244
0.00655835
0.00238174
0.000321362
0.000312768
0.00187066
0.00512713
0.00440983
0.0015792
0.000303689
0.000292128
0.00140518
0.00391117
0.00360884
0.00130692
0.000282733
0.000273348
0.00122523
0.00341635
0.0032894
0.00118314
0.000265777
0.000259827
0.00115212
0.00319457
0.00312096
0.0011285
0.000254885
0.000250652
0.00110958
0.00305953
0.00300563
0.0010936
0.000247026
0.000243885
0.00107946
0.00295635
0.00290986
0.00106647
0.000241131
0.000238687
0.00105418
0.00286534
0.00282232
0.00104234
0.000236488
0.000234484
0.00103084
0.00278058
0.00274005
0.00101962
0.000232635
0.000230911
0.00100867
0.0027007
0.00266254
0.000997987
0.000229288
0.000227746
0.000987588
0.00262557
0.0025898
0.000977482
0.000226271
0.00022485
0.000967681
0.00255523
0.00252183
0.00095819
0.000223475
0.000222138
0.000949012
0.00248957
0.00245843
0.000940145
0.000220833
0.000219554
0.000931584
0.00242836
0.00239931
0.000923322
0.000218297
0.000217059
0.000915348
0.00237124
0.0023441
0.000907654
0.000215837
0.000214626
0.000900228
0.00231785
0.00229245
0.00089306
0.000213426
0.000212232
0.000886137
0.00226785
0.00224401
0.000879451
0.000211044
0.000209858
0.00087299
0.0022209
0.00219848
0.000866745
0.000208672
0.000207485
0.000860706
0.00217671
0.00215558
0.000854864
0.000206295
0.000205099
0.000849211
0.00213504
0.00211507
0.00084374
0.000203897
0.000202685
0.000838442
0.00209565
0.00207675
0.000833312
0.000201463
0.000200228
0.000828343
0.00205834
0.00204043
0.00082353
0.000198979
0.000197715
0.000818868
0.00202297
0.00200596
0.000814353
0.000196433
0.000195131
0.000809981
0.00198938
0.00197322
0.000805749
0.000193809
0.000192464
0.000801656
0.00195747
0.00194211
0.000797699
0.000191095
0.000189699
0.000793877
0.00192715
0.00191256
0.000790189
0.000188274
0.00018682
0.000786635
0.00189836
0.00188452
0.000783215
0.000185333
0.000183812
0.00077993
0.00187104
0.00185793
0.000776781
0.000182255
0.000180658
0.000773771
0.00184518
0.00183279
0.000770901
0.000179021
0.00017734
0.000768177
0.00182077
0.00180911
0.000765602
0.000175612
0.000173837
0.000763184
0.00179783
0.00178693
0.00076093
0.00017201
0.000170129
0.000758851
0.00177643
0.00176634
0.000756956
0.000168192
0.000166196
0.000755263
0.0017567
0.0017475
0.000753782
0.000164138
0.000162015
0.000752537
0.0017388
0.00173063
0.000751548
0.000159825
0.000157565
0.000750841
0.00172301
0.00171602
0.000750442
0.000155231
0.000152824
0.000750399
0.00170973
0.00170416
0.000750738
0.000150339
0.000147777
0.000751533
0.00169945
0.00169562
0.000752808
0.000145136
0.000142417
0.000754673
0.00169288
0.00169124
0.000757163
0.000139621
0.000136752
0.000760425
0.00169102
0.00169218
0.000764519
0.000133815
0.000130818
0.000769603
0.00169512
0.00170003
0.000775814
0.000127771
0.000124693
0.000783352
0.00170721
0.00171673
0.000792298
0.000121598
0.000118514
0.000802902
0.00172926
0.00174498
0.00081533
0.000115465
0.000112488
0.000829671
0.00176396
0.00178561
0.000845572
0.000109584
0.000106786
0.000863338
0.00181129
0.00184022
0.000882507
0.000104088
0.000101472
0.00090264
0.00187268
0.00190818
0.000923539
9.89404e-05
9.62304e-05
0.000941187
0.00194518
0.00198301
0.000954063
9.4613e-05
9.41282e-05
0.000957568
0.00202148
0.00206413
0.000957654
9.30064e-05
9.09828e-05
0.000950188
0.00209636
0.00210704
0.000930077
8.78757e-05
8.38132e-05
0.000895423
0.00208908
0.00204069
0.000846972
7.89045e-05
7.33592e-05
0.000784009
0.00195737
0.0018354
0.000707259
6.76665e-05
6.2391e-05
0.00062135
0.00167531
0.00146422
0.000523628
5.78088e-05
5.52079e-05
0.000416609
0.00121219
0.00102713
0.000353621
5.44159e-05
5.44288e-05
0.000324845
0.000926915
0.000881941
0.000310099
5.50467e-05
5.57411e-05
0.000302919
0.000863368
0.000859023
0.000302797
5.65617e-05
5.73268e-05
0.000307074
0.000868371
0.00088729
0.000313977
5.79867e-05
5.85367e-05
0.000321566
0.000907859
0.000929435
0.000329984
5.89361e-05
5.91425e-05
0.000337929
0.000951223
0.000970471
0.000344834
5.92066e-05
5.91823e-05
0.000350028
0.000987446
0.0010052
0.000356101
5.90008e-05
5.86259e-05
0.000360228
0.00101806
0.00102833
0.000363928
5.81361e-05
5.7497e-05
0.000366645
0.00103568
0.00103946
0.000368364
5.67194e-05
5.58392e-05
0.000369188
0.00104017
0.00103731
0.000368844
5.48026e-05
5.36739e-05
0.000367661
0.00103136
0.001022
0.000365385
5.24304e-05
5.10609e-05
0.000362089
0.00100942
0.000993646
0.000357883
4.95905e-05
4.8021e-05
0.000352733
0.000974742
0.000952535
0.000346578
4.63173e-05
4.45262e-05
0.000339606
0.000927109
0.0008979
0.000331522
4.25608e-05
4.05581e-05
0.000322525
0.000864419
0.000825515
0.00031193
3.83063e-05
3.57504e-05
0.000299524
0.000779327
0.000720951
0.000283659
3.26785e-05
2.92573e-05
0.000262594
0.000643585
0.00053663
0.000231773
2.47506e-05
1.92663e-05
0.000184862
0.000389036
0.000196779
9.98044e-05
1.42152e-05
9.09786e-06
4.37392e-05
4.95212e-05
6.23085e-05
8.45115e-05
0.000104789
0.000126063
0.000140011
0.000153707
0.000163202
0.000172209
0.000179287
0.000185504
0.000190722
0.000195265
0.000197356
0.000199777
0.000200067
0.000221635
0.000212929
0.000204015
0.000188165
0.000119339
6.66588e-05
8.28219e-05
9.85437e-05
6.64665e-05
3.17823e-05
3.46214e-05
3.62401e-05
3.33833e-05
2.94368e-05
2.57811e-05
1.50965e-05
1.16832e-05
9.32437e-06
7.51978e-06
5.67921e-06
1.24271e-05
2.29572e-05
3.68823e-05
6.33155e-05
0.000157855
0.000110643
6.71758e-05
2.82918e-05
7.16714e-06
9.06244e-06
5.32095e-05
0.000126324
0.000196845
0.000266243
0.000349778
0.000254106
0.000161272
6.70097e-05
1.05138e-05
1.12524e-05
7.6257e-05
0.000184956
0.000295713
0.000406733
0.000441235
0.000322171
0.000199055
8.1758e-05
1.17654e-05
1.18241e-05
8.33618e-05
0.000203615
0.000330493
0.00045343
0.000453035
0.000329394
0.000202502
8.27311e-05
1.16247e-05
1.12866e-05
8.14169e-05
0.000198941
0.000323744
0.000446167
0.000435384
0.000316667
0.000194854
8.01624e-05
1.08672e-05
1.05058e-05
7.94422e-05
0.000192082
0.000311331
0.000427617
0.000425144
0.000308712
0.000190831
7.9545e-05
1.02013e-05
9.9409e-06
7.97123e-05
0.000189951
0.000307188
0.000423669
0.000422792
0.000305548
0.000188819
7.95825e-05
9.62157e-06
9.231e-06
7.82226e-05
0.000185779
0.000302138
0.000420413
0.000410918
0.000292742
0.000178617
7.4562e-05
8.62856e-06
8.03798e-06
6.73376e-05
0.000165072
0.000276246
0.000394709
0.000371265
0.0002525
0.000145602
5.72018e-05
7.18922e-06
5.79825e-06
4.31335e-05
0.000118986
0.000220663
0.000340504
0.00029832
0.000178716
8.10066e-05
2.28101e-05
3.64012e-06
2.44223e-06
1.10728e-05
5.13984e-05
0.000126978
0.000240625
0.000171399
7.64193e-05
3.47992e-05
1.01608e-05
2.48613e-06
2.90672e-06
6.40379e-06
2.3042e-05
5.80121e-05
0.00010806
8.11875e-05
3.36646e-05
1.12053e-05
5.23186e-06
5.28066e-06
4.82196e-06
5.57781e-06
1.2058e-05
3.60509e-05
8.48931e-05
8.94648e-05
4.06927e-05
1.47312e-05
5.68575e-06
4.57676e-06
5.47375e-06
5.64677e-06
1.44349e-05
3.93421e-05
8.92557e-05
7.79735e-05
2.9431e-05
1.0874e-05
6.81295e-06
7.18826e-06
6.32907e-06
7.4222e-06
1.18886e-05
3.03283e-05
7.71471e-05
7.54485e-05
3.1687e-05
1.37367e-05
8.29603e-06
6.2715e-06
6.39743e-06
7.57794e-06
1.56253e-05
3.55519e-05
8.02629e-05
8.56316e-05
3.72019e-05
1.58742e-05
7.29204e-06
7.11438e-06
7.44245e-06
7.45774e-06
1.65174e-05
3.90244e-05
8.99381e-05
8.82955e-05
3.76945e-05
1.60388e-05
8.0317e-06
8.08634e-06
8.00936e-06
9.07358e-06
1.79446e-05
4.06741e-05
9.38256e-05
0.000103711
4.90016e-05
2.09495e-05
9.22834e-06
6.42047e-06
7.19523e-06
8.6759e-06
2.21985e-05
5.07452e-05
0.00010633
0.000111515
5.2776e-05
2.24048e-05
8.90651e-06
7.39786e-06
7.26216e-06
1.01463e-05
2.3949e-05
5.40092e-05
0.000111705
0.00011426
5.68105e-05
2.55459e-05
1.11197e-05
6.70156e-06
7.39033e-06
1.03384e-05
2.8264e-05
6.0001e-05
0.00011831
0.000123346
6.18997e-05
2.72412e-05
9.7966e-06
7.85199e-06
8.21901e-06
1.10462e-05
2.90959e-05
6.26815e-05
0.000126274
0.000134223
6.97952e-05
3.03967e-05
1.15368e-05
6.88596e-06
7.64214e-06
1.08672e-05
3.315e-05
7.21557e-05
0.000135791
0.000141275
7.36339e-05
3.32312e-05
1.0637e-05
7.99433e-06
8.67361e-06
1.19723e-05
3.43908e-05
7.17239e-05
0.000140816
0.000144939
7.65185e-05
3.48508e-05
1.32468e-05
7.64655e-06
7.98705e-06
1.33751e-05
3.93034e-05
7.96903e-05
0.000148023
0.000155332
8.36299e-05
3.80416e-05
1.15422e-05
8.28982e-06
9.14493e-06
1.30232e-05
3.96515e-05
8.13732e-05
0.000155319
0.000161118
8.82106e-05
4.07607e-05
1.42431e-05
7.9248e-06
8.64369e-06
1.34348e-05
4.41496e-05
9.10335e-05
0.000163464
0.000169758
9.20644e-05
4.37109e-05
1.29919e-05
8.87048e-06
9.80492e-06
1.46786e-05
4.58284e-05
8.93907e-05
0.000169406
0.000175257
9.65386e-05
4.57905e-05
1.59742e-05
8.53445e-06
9.20219e-06
1.56821e-05
5.08362e-05
9.90854e-05
0.000178029
0.000185827
0.000102811
4.8469e-05
1.38295e-05
9.28664e-06
9.98186e-06
1.66995e-05
5.11808e-05
0.000100443
0.000184521
0.000194706
0.000111646
5.28887e-05
1.62815e-05
8.60652e-06
1.04864e-05
1.50891e-05
5.48749e-05
0.00010822
0.000195556
0.000199533
0.000111745
5.40943e-05
1.61664e-05
9.7013e-06
9.74985e-06
1.93092e-05
5.85083e-05
0.000114962
0.000199629
0.000207201
0.000116736
5.70677e-05
1.63036e-05
9.76635e-06
1.13464e-05
1.84428e-05
6.08048e-05
0.000111354
0.000203968
0.000211896
0.000121437
6.03314e-05
2.04623e-05
9.79247e-06
1.10514e-05
1.86022e-05
6.59599e-05
0.00012263
0.000217148
0.00022248
0.000125537
6.17319e-05
1.78199e-05
1.07136e-05
1.07396e-05
2.40742e-05
6.86528e-05
0.00012844
0.000222425
0.000236005
0.000136506
6.58977e-05
1.83703e-05
1.04538e-05
1.23126e-05
1.98486e-05
7.04847e-05
0.00013086
0.000235281
0.000247081
0.000145043
7.08684e-05
2.19328e-05
1.02624e-05
1.22315e-05
1.8893e-05
7.38067e-05
0.000141825
0.000248526
0.000251472
0.000145278
7.23692e-05
2.07326e-05
1.12783e-05
1.15607e-05
2.4218e-05
7.79855e-05
0.000150794
0.000253191
0.000259284
0.000148528
7.45756e-05
2.07056e-05
1.16142e-05
1.31315e-05
2.39418e-05
8.15417e-05
0.000144559
0.00025452
0.000266603
0.000157308
7.96231e-05
2.54894e-05
1.14494e-05
1.32675e-05
2.27404e-05
8.58014e-05
0.000152649
0.000270252
0.000272511
0.000158022
8.04768e-05
2.3106e-05
1.27396e-05
1.24779e-05
3.01713e-05
8.97326e-05
0.000165903
0.000277314
0.000288503
0.000169343
8.37594e-05
2.3181e-05
1.25852e-05
1.45342e-05
2.3621e-05
8.96307e-05
0.000161699
0.000285998
0.000293911
0.000170395
8.90933e-05
2.55492e-05
1.36278e-05
1.33399e-05
2.94857e-05
9.61869e-05
0.000182686
0.000302234
0.000312948
0.000179169
9.043e-05
2.51378e-05
1.3398e-05
1.54372e-05
2.57174e-05
9.8085e-05
0.000160826
0.000297347
0.000280693
0.000158873
8.86549e-05
2.54817e-05
1.54084e-05
1.47619e-05
3.39192e-05
9.51667e-05
0.000164376
0.000277037
0.000285798
0.000166784
9.14126e-05
2.99472e-05
1.53135e-05
1.45917e-05
3.33251e-05
9.2684e-05
0.000172629
0.000294748
0.000314239
0.000171684
8.96546e-05
2.72322e-05
1.66314e-05
1.65019e-05
2.85553e-05
8.84725e-05
0.000202595
0.000362555
0.000502568
0.000277483
0.000124568
4.27511e-05
2.19597e-05
2.81116e-05
7.37979e-05
0.000219546
0.000495974
0.000896019
0.00111332
0.000680743
0.000341714
0.000118267
3.53631e-05
4.30097e-05
0.000176951
0.000471467
0.000865503
0.00134407
0.00155798
0.00104595
0.000598838
0.000237642
5.01731e-05
5.62947e-05
0.000297407
0.000716791
0.00121032
0.00175508
0.00193847
0.00136357
0.000824762
0.000346857
6.12133e-05
6.61656e-05
0.000394599
0.000922565
0.00150126
0.00210227
0.00223226
0.00162219
0.00101325
0.000441516
7.09028e-05
7.51035e-05
0.000489722
0.00110552
0.00175064
0.0023925
0.00254354
0.00186545
0.00118369
0.000527597
7.87859e-05
8.30914e-05
0.000556313
0.00125669
0.00198025
0.00270201
0.00286551
0.00209967
0.00133329
0.000593541
8.84439e-05
9.73605e-05
0.000627307
0.00141001
0.00220944
0.002995
0.00312522
0.00233221
0.0015055
0.000684274
0.000106399
0.000113778
0.000746183
0.00161476
0.0024842
0.00331793
0.00351296
0.00263886
0.00172454
0.000802108
0.000120547
0.00012742
0.000866912
0.00183439
0.00279111
0.00370068
0.00389095
0.00293429
0.0019369
0.000931455
0.000131868
0.000132729
0.000964536
0.00199451
0.00302575
0.00406795
0.00392201
0.0029645
0.00195793
0.00094388
0.000130178
0.000127408
0.0009163
0.00189488
0.00284233
0.0036967
0.00388095
0.00291705
0.00192547
0.000922512
0.000129709
0.000131248
0.000963999
0.00200953
0.00305042
0.00405757
0.00423353
0.00318634
0.00210353
0.00101925
0.000134687
0.000135226
0.00104768
0.00218368
0.00331099
0.00439911
0.00455016
0.0034222
0.0022534
0.00107877
0.000139093
0.000135612
0.0010804
0.00227803
0.00348261
0.00466625
0.00464158
0.00343184
0.00224086
0.00106588
0.000133692
0.000124486
0.00100486
0.00211224
0.003208
0.00422027
0.00377257
0.002913
0.00193814
0.000922489
0.000114875
0.000105338
0.000851357
0.00180038
0.00274959
0.00370402
0.00348247
0.00260495
0.00169504
0.000792185
9.89345e-05
9.22331e-05
0.000742935
0.00159431
0.0024377
0.003213
0.00326413
0.00240905
0.00155804
0.000723687
9.13008e-05
8.96165e-05
0.00071758
0.00156117
0.00242989
0.00329931
0.00329111
0.0024313
0.00156304
0.000718925
9.01255e-05
8.95901e-05
0.000720352
0.00156268
0.00243094
0.00329398
0.00330708
0.00243773
0.00156456
0.000722926
9.08235e-05
8.91217e-05
0.000723166
0.00157192
0.00245535
0.00334047
0.00337309
0.00245053
0.00156834
0.000723161
8.92365e-05
8.59395e-05
0.000702332
0.00151836
0.00236081
0.00319309
0.00299194
0.00224776
0.00145011
0.000669092
8.28366e-05
8.36107e-05
0.000671309
0.00146701
0.00229307
0.00312853
0.00326131
0.00238973
0.0015255
0.000698994
8.69589e-05
8.9264e-05
0.000735351
0.0015925
0.00248995
0.00339196
0.00351916
0.00257908
0.00165015
0.000761255
8.96258e-05
8.80906e-05
0.000760669
0.00165986
0.00261235
0.00361226
0.00343234
0.00253118
0.00161659
0.000737473
8.46098e-05
8.03515e-05
0.000708227
0.00156096
0.00242622
0.00323294
0.00339779
0.0024868
0.00158071
0.000707771
7.91493e-05
8.29522e-05
0.000731896
0.00164401
0.00259814
0.00356405
0.00371769
0.00271242
0.00171798
0.000764716
8.61584e-05
8.83293e-05
0.000792191
0.00177505
0.00281088
0.00386122
0.00397884
0.00285703
0.00179931
0.000805039
8.92428e-05
8.80885e-05
0.000797319
0.0017663
0.00278149
0.00379039
0.00359183
0.00268953
0.00172894
0.000784406
8.7166e-05
8.77922e-05
0.000793769
0.00176505
0.00277105
0.0037858
0.00398473
0.00290853
0.00184157
0.000823615
9.04122e-05
9.49359e-05
0.000857712
0.00192583
0.00304457
0.00417555
0.00435581
0.00317182
0.00200452
0.000903041
9.79947e-05
9.9087e-05
0.000913814
0.00204116
0.00323699
0.00450963
0.0043092
0.00315909
0.00200854
0.000907465
9.77193e-05
9.59881e-05
0.000901739
0.00198218
0.0030777
0.00410613
0.00434004
0.00318104
0.00202902
0.000915204
9.669e-05
9.94065e-05
0.000951499
0.00212663
0.00335026
0.00458228
0.00482108
0.00351183
0.00221943
0.000993145
0.000104196
0.000107371
0.00102092
0.00227078
0.00360225
0.0050207
0.00481982
0.00354034
0.00225993
0.0010219
0.000107398
0.00010594
0.00101926
0.00223628
0.00347186
0.0046212
0.00490131
0.00359766
0.00229282
0.00103636
0.000107379
0.00011197
0.00107909
0.00239576
0.00378044
0.0051913
0.0054366
0.00389128
0.00245723
0.00111261
0.000115906
0.000114975
0.00111462
0.00244816
0.00383912
0.0052358
0.00504828
0.00378752
0.00244169
0.00111512
0.000115427
0.000117976
0.00114559
0.0025255
0.00395099
0.00537575
0.0057137
0.0041681
0.00264258
0.00119449
0.000122473
0.000126299
0.00123148
0.00271923
0.00431137
0.00602072
0.00582339
0.00427652
0.0027378
0.00125007
0.000128067
0.000129557
0.0012714
0.00275572
0.00424934
0.00564625
0.00603872
0.00445002
0.00286043
0.00130927
0.000131639
0.000133898
0.00135609
0.00300507
0.00472571
0.00645873
0.0068489
0.00492352
0.00311333
0.00141426
0.000142991
0.000150944
0.00146967
0.00316771
0.00492116
0.00667691
0.00653404
0.00493579
0.00322416
0.00151208
0.000158726
0.000166995
0.0015765
0.00334679
0.0051775
0.00700827
0.00748557
0.00540801
0.00347071
0.0016357
0.000174352
0.000177459
0.0016716
0.00351911
0.00541902
0.0073238
0.0071975
0.00544299
0.00356482
0.00169342
0.000174129
0.000169384
0.00169813
0.00366348
0.00570402
0.00773182
0.00828628
0.00594199
0.00374736
0.00167928
0.000156866
0.000159795
0.00168213
0.00379006
0.00597688
0.00814059
0.00807739
0.00605476
0.00389086
0.00176294
0.000175233
0.000191013
0.00185198
0.00403786
0.00632024
0.00873616
0.00869871
0.0064466
0.00416787
0.00193911
0.000205301
0.000222133
0.00204484
0.00432247
0.0066148
0.00872349
0.00948866
0.00694432
0.00451087
0.00214899
0.00023783
0.000253252
0.00225089
0.00467108
0.00711292
0.00950547
0.00957209
0.00732724
0.004864
0.00236546
0.00027008
0.000286103
0.00248679
0.00509117
0.00772076
0.0104345
0.0105066
0.00793431
0.00528543
0.00259896
0.000302883
0.000321245
0.00272382
0.00550907
0.0082037
0.0106014
0.0114977
0.00858204
0.00569552
0.00281555
0.000331276
0.000317103
0.00280371
0.00570551
0.00862587
0.0114773
0.0114006
0.00854556
0.00558601
0.002691
0.000310082
0.000331732
0.00267562
0.00551678
0.00849286
0.0114094
0.0117111
0.00869533
0.00564625
0.0027748
0.00037378
0.000389792
0.00290036
0.00588644
0.00896818
0.0119686
0.0127192
0.00949195
0.00617766
0.00297527
0.000374579
0.00034034
0.00290891
0.00624837
0.00970963
0.0132532
0.0129424
0.00962824
0.00624619
0.00296885
0.000355665
0.000431969
0.00318431
0.00634572
0.00954892
0.0126761
0.0124397
0.00944782
0.00643799
0.00339178
0.000498417
0.00052408
0.00344287
0.00629857
0.00920684
0.0121193
0.0116387
0.00871083
0.00580811
0.00298891
0.000521453
0.000499033
0.00239589
0.00503401
0.00787757
0.0108195
0.0091214
0.00663018
0.00416733
0.00188081
0.000441132
0.000377973
0.00151108
0.00351538
0.00577331
0.00809496
0.00712051
0.005048
0.00310626
0.00138279
0.000339827
0.000316361
0.00120423
0.00279202
0.00462717
0.00662992
0.00596157
0.00419344
0.00253373
0.00108003
0.000289035
0.000267416
0.000964755
0.00234856
0.00396594
0.00573731
0.00520496
0.00360918
0.00212652
0.000847614
0.00023808
0.000200495
0.000766627
0.00202989
0.0035204
0.00516686
0.00475425
0.0032948
0.00191842
0.000713469
0.000178531
0.000180406
0.000783869
0.00195648
0.00332996
0.00486698
0.00455789
0.00321856
0.0019525
0.000822689
0.000179869
0.000177099
0.000866141
0.00201144
0.00331256
0.00475044
0.00460698
0.00322468
0.00199618
0.000879485
0.000173658
0.000165696
0.000855762
0.00190452
0.00300264
0.00405871
0.00419541
0.00303887
0.00192823
0.000868986
0.000157803
0.000156215
0.00091905
0.00194628
0.00300385
0.00408285
0.00434641
0.003156
0.00203623
0.000977575
0.000160865
0.000166074
0.00100879
0.00205914
0.00314918
0.00434062
0.00396799
0.00302491
0.00203284
0.00102735
0.000170097
0.000170608
0.00102127
0.00205216
0.0030902
0.00414778
0.00414105
0.00305503
0.00203734
0.00101651
0.000169198
0.000165028
0.000979429
0.00197103
0.00292618
0.00381055
0.00397526
0.00297572
0.00196843
0.000945887
0.000158485
0.000151685
0.000934291
0.00194417
0.00293614
0.00397507
0.00366492
0.00281875
0.00188748
0.000906314
0.000145446
0.000139475
0.000909357
0.00190718
0.0028723
0.00381375
0.00380031
0.00289429
0.00194646
0.000954101
0.000138009
0.000142432
0.00100818
0.00203902
0.00305202
0.00405704
0.00411953
0.00307787
0.00207072
0.00103741
0.000146058
0.000147681
0.00103904
0.00205469
0.00300155
0.00386537
0.00405427
0.00308692
0.00208751
0.00105231
0.000148534
0.000149531
0.00106114
0.00209618
0.00309214
0.00410708
0.00385608
0.00300907
0.00206586
0.00104993
0.000149326
0.000149816
0.00106226
0.00209929
0.003089
0.00403852
0.00409053
0.00308282
0.0020901
0.00105111
0.000149188
0.000148045
0.00104172
0.00205808
0.00300067
0.00384842
0.00402382
0.0030733
0.0020785
0.00104118
0.000146778
0.000145304
0.0010272
0.00207184
0.00307308
0.00408012
0.00383919
0.00298837
0.00203653
0.00101483
0.000142965
0.000141407
0.00101631
0.00206208
0.00306238
0.00401498
0.00407508
0.0030624
0.00205804
0.00101387
0.000139671
0.000137374
0.000994371
0.00202432
0.0029865
0.00384016
0.00401958
0.00306772
0.00206392
0.00101966
0.000136907
0.000136668
0.00101451
0.00206173
0.00307056
0.00408902
0.00385948
0.00299909
0.0020331
0.00100513
0.000135494
0.000134263
0.00100256
0.00206558
0.00308328
0.00404782
0.00412541
0.00308796
0.0020536
0.00099231
0.000132041
0.000127943
0.000943479
0.00197756
0.00296785
0.00391557
0.003657
0.00283147
0.0018927
0.000898424
0.000123002
0.000119968
0.000898303
0.00190221
0.00287819
0.00380428
0.00386442
0.00287304
0.00189714
0.000901484
0.000118205
0.000117262
0.000902103
0.00187424
0.00280498
0.00364243
0.00381874
0.00288722
0.00191168
0.000914423
0.000117088
0.000116458
0.000909297
0.00191074
0.00289179
0.00388908
0.00366756
0.00282511
0.00188588
0.000903802
0.000115348
0.000115017
0.000904182
0.001915
0.00290312
0.00384352
0.00391697
0.00291019
0.00191825
0.000913462
0.000114408
0.000113942
0.000893132
0.00188864
0.00284108
0.00369021
0.00386634
0.0029177
0.00192133
0.00090667
0.00011304
0.000113009
0.000901837
0.00191679
0.0029168
0.00393399
0.00370207
0.00284503
0.00188845
0.000892852
0.00011199
0.000111753
0.00090247
0.00191758
0.00291855
0.00387473
0.0039406
0.00291898
0.00191299
0.000894536
0.00011131
0.000109986
0.000881942
0.0018805
0.00284051
0.00370331
0.00387278
0.00291064
0.00190582
0.000891135
0.000109753
0.00010917
0.000882356
0.00189829
0.00290907
0.00393802
0.00369558
0.00282747
0.00186021
0.000862584
0.000107398
0.000106199
0.000872203
0.00188616
0.00289313
0.00386131
0.00392049
0.00288562
0.00187803
0.000871921
0.000105575
0.000104473
0.000852262
0.00184151
0.00280732
0.003678
0.00384145
0.0028725
0.00186648
0.000859043
0.000103281
0.000102913
0.000857654
0.00185795
0.00286679
0.00389721
0.00365697
0.00278907
0.00182857
0.000842141
0.000101712
0.000100192
0.000842609
0.0018477
0.00285322
0.00382109
0.00387792
0.00284639
0.00184083
0.000845443
9.9299e-05
9.87249e-05
0.000826673
0.00181281
0.00277683
0.00364605
0.00382104
0.00285164
0.00184336
0.000840055
9.83815e-05
9.89e-05
0.000838597
0.00184746
0.00286153
0.00389785
0.00369617
0.00281349
0.00183917
0.000840448
9.8691e-05
0.000101033
0.000860985
0.001891
0.00292248
0.00390951
0.00402373
0.00296648
0.00192169
0.000878643
0.000102774
0.000105472
0.000898939
0.00195865
0.00297947
0.00389273
0.0041782
0.003159
0.0020628
0.000947806
0.000108441
0.000115274
0.000995836
0.00215744
0.00329527
0.00443392
0.00438991
0.00338584
0.00225122
0.00105311
0.000121765
0.000135179
0.00114865
0.00245
0.00365063
0.00468986
0.0051349
0.00402541
0.00271985
0.0012802
0.000149548
0.000169479
0.00144262
0.00308486
0.00463683
0.00604268
0.00656599
0.00495125
0.0032909
0.00154185
0.000181202
0.000189519
0.0015629
0.0033067
0.0049574
0.00652323
0.00618142
0.00482343
0.00324829
0.00154349
0.000191488
0.000195492
0.00156285
0.00330327
0.00494218
0.0064421
0.00651969
0.00502864
0.00338441
0.00160978
0.000202959
0.000210916
0.00168191
0.00353696
0.00531567
0.0069494
0.00711568
0.00537698
0.00358834
0.00171613
0.000218829
0.000224017
0.0017102
0.00354478
0.00524749
0.00672422
0.00703091
0.00538604
0.0036006
0.00172348
0.000214863
0.00021296
0.00171995
0.00358929
0.0053834
0.00714086
0.00670938
0.00522271
0.00351458
0.00168755
0.000209988
0.000209083
0.00170639
0.00356926
0.00535408
0.00700347
0.00710515
0.00535083
0.00356579
0.00171151
0.000209264
0.000208096
0.00168269
0.00349428
0.00518888
0.00667219
0.00696562
0.00531541
0.00354006
0.00169157
0.000206881
0.000206073
0.00169192
0.00353295
0.00531207
0.00706757
0.00663302
0.00514615
0.00345378
0.00164868
0.000204333
0.0002039
0.00166662
0.00350279
0.0052748
0.00692904
0.00703079
0.00527293
0.00349734
0.00166904
0.000203844
0.000201877
0.00163768
0.00342513
0.0051093
0.0065952
0.00688789
0.00523316
0.0034685
0.00164576
0.000200859
0.000199828
0.00163099
0.00344663
0.00522053
0.00697888
0.006534
0.00504694
0.00336574
0.00159587
0.000197784
0.000196205
0.0015924
0.00339423
0.00515698
0.00681762
0.00688165
0.00513071
0.0033719
0.00158222
0.000193656
0.00019207
0.00155894
0.00329462
0.00495444
0.00642882
0.0066687
0.00505313
0.00333826
0.00157471
0.000193209
0.000196296
0.00159982
0.00338697
0.00509577
0.00667891
0.00708042
0.00534626
0.00350609
0.00164367
0.000200613
0.000202637
0.00164844
0.00352028
0.00535217
0.00717316
0.00670983
0.0051687
0.00343286
0.00162205
0.000202076
0.000200886
0.00162279
0.00346315
0.00527437
0.00699093
0.00702884
0.00522578
0.0034213
0.00160219
0.000198282
0.00019559
0.00155948
0.00332742
0.00503024
0.00653847
0.00677376
0.0051125
0.00335659
0.00156798
0.000194863
0.000196927
0.00158558
0.00339342
0.00513864
0.00676054
0.00716215
0.00538168
0.00350624
0.00162575
0.000199776
0.000200902
0.001631
0.00350808
0.00537058
0.00723185
0.00673336
0.00516519
0.00340912
0.00159308
0.00019961
0.000197783
0.00159096
0.00343155
0.00526619
0.00701607
0.00703909
0.00520547
0.00338389
0.00156449
0.000195709
0.000193894
0.0015295
0.00328397
0.0049919
0.00651789
0.00675173
0.00506847
0.00330637
0.00153138
0.000193604
0.000195233
0.00154854
0.00333851
0.00508417
0.00672328
0.00712663
0.00532465
0.00344268
0.00158373
0.000198206
0.000198798
0.00158491
0.00344237
0.00530867
0.00718452
0.00665687
0.00508878
0.00334086
0.00155005
0.000197118
0.000195535
0.00154404
0.00335309
0.00517878
0.006934
0.00694521
0.00511412
0.00330256
0.00151476
0.000193495
0.000190433
0.00146201
0.0031866
0.00487857
0.00640237
0.00662975
0.00495026
0.00319983
0.0014666
0.000189571
0.000190678
0.00147924
0.00322519
0.00494666
0.00657832
0.00697599
0.00517204
0.00331451
0.00151028
0.000192639
0.000193392
0.0015105
0.003306
0.0051361
0.00700128
0.00644822
0.00490631
0.00320238
0.00147599
0.000191427
0.000191728
0.0014766
0.00321772
0.00497957
0.00667777
0.00662086
0.00497882
0.00324664
0.00149401
0.000193996
0.000196259
0.00151963
0.00332606
0.00519018
0.00701238
0.00703238
0.00515418
0.00330831
0.00151039
0.000195735
0.000193055
0.00145509
0.00319136
0.00490282
0.00645203
0.00667895
0.00496682
0.00319393
0.00145281
0.00019185
0.000192697
0.00146007
0.00320544
0.00494762
0.0066026
0.00699282
0.00515567
0.00328582
0.00148608
0.000193942
0.00019364
0.00148194
0.00326843
0.005112
0.00700069
0.0064073
0.00485756
0.00315366
0.0014442
0.000192131
0.000192
0.00143765
0.00315945
0.00492174
0.00663502
0.00655364
0.00490212
0.00317355
0.00144662
0.000193019
0.000194734
0.00147192
0.00325392
0.00511455
0.00694742
0.00695466
0.00506644
0.00323002
0.00146624
0.000194875
0.000193049
0.0014076
0.00310673
0.00480323
0.00634941
0.00657554
0.00485892
0.00310061
0.00139723
0.000191624
0.000192333
0.00141283
0.00311541
0.00483735
0.00648894
0.00687495
0.00504292
0.0031933
0.00143608
0.000193813
0.000192572
0.00142692
0.00316547
0.00498997
0.00687326
0.00625326
0.0047193
0.00303945
0.00137295
0.000189743
0.000187792
0.00136244
0.00303314
0.00477071
0.00647754
0.00637038
0.00473479
0.0030344
0.00136484
0.000187986
0.000189248
0.00138759
0.00310284
0.00492707
0.00675249
0.00674152
0.00487055
0.00307157
0.00136152
0.00018823
0.000184281
0.00129505
0.0029264
0.00458439
0.00610338
0.00632052
0.00462404
0.00291449
0.00128745
0.000181824
0.000183814
0.00130738
0.00292639
0.00459549
0.00620779
0.0065536
0.00478168
0.00302133
0.00135118
0.000188342
0.000191586
0.00137587
0.00306233
0.00478878
0.00645844
0.00686457
0.00500551
0.00314521
0.00140561
0.000194493
0.000194644
0.00139699
0.00312687
0.00495321
0.00684855
0.00619109
0.00464948
0.00297004
0.00132193
0.000191462
0.000189313
0.00131182
0.00295344
0.00469114
0.00641973
0.00628755
0.00464299
0.00294928
0.0013147
0.000189015
0.000189093
0.00133081
0.0030074
0.00482914
0.0066664
0.00663919
0.00476263
0.002974
0.00129808
0.000187161
0.000183286
0.00125025
0.00282808
0.00446216
0.00597751
0.00619749
0.00450368
0.00281441
0.00124062
0.000181898
0.000182288
0.00124578
0.00281738
0.00445815
0.0060611
0.00641221
0.00463986
0.00290228
0.00128394
0.000185273
0.000189201
0.00130664
0.00293705
0.0046347
0.00628946
0.00668739
0.0048393
0.00300729
0.00132292
0.000191108
0.00019038
0.00132025
0.00298755
0.00477871
0.00665911
0.00597499
0.00445875
0.0028129
0.00122431
0.000186509
0.000183248
0.00121585
0.00278708
0.00448043
0.00618871
0.00603633
0.00442943
0.00278548
0.00122034
0.000183913
0.000186321
0.00125734
0.00286428
0.00460976
0.00639174
0.00625225
0.00459406
0.00289704