/*--------------------------------*- C++ -*----------------------------------*\
| =========                 |                                                 |
| \\      /  F ield         | OpenFOAM: The Open Source CFD Toolbox           |
|  \\    /   O peration     | Version:  v2006                                 |
|   \\  /    A nd           | Website:  www.openfoam.com                      |
|    \\/     M anipulation  |                                                 |
\*---------------------------------------------------------------------------*/
FoamFile
{
    version     2.0;
    format      ascii;
    class       surfaceScalarField;
    location    "0.058";
    object      phi;
}
// * * * * * * * * * * * * * * * * * * * * * * * * * * * * * * * * * * * * * //

dimensions      [1 0 -1 0 0 0 0];
oriented        oriented;


internalField   nonuniform List<scalar> 
48460
(
-1.80689e-05
-0.00123311
0.00121909
3.20892e-05
-0.00115677
0.0011387
2.80854e-06
6.73019e-05
-2.15304e-05
0.00131148
2.23821e-05
0.00142809
-5.10341e-05
0.00143753
-8.07281e-06
0.00146141
-2.31395e-05
0.00143426
-1.13417e-06
0.00142687
-3.41577e-06
0.0014114
1.02319e-06
0.00140559
-1.82318e-07
0.00140079
4.26142e-08
0.0013991
-1.65173e-07
0.00139762
-2.3463e-07
0.00139647
-2.98497e-07
0.00139533
-3.53688e-07
0.00139411
-3.9995e-07
0.00139287
-4.38644e-07
0.00139164
-4.71581e-07
0.00139042
-5.00306e-07
0.0013892
-5.25993e-07
0.00138799
-5.49522e-07
0.00138677
-5.71412e-07
0.00138552
-5.91915e-07
0.00138426
-6.11138e-07
0.00138297
-6.29122e-07
0.00138164
-6.45906e-07
0.00138029
-6.61549e-07
0.00137891
-6.76132e-07
0.00137751
-6.89756e-07
0.00137608
-7.02527e-07
0.00137462
-7.14549e-07
0.00137315
-7.25913e-07
0.00137165
-7.36693e-07
0.00137013
-7.46933e-07
0.00136858
-7.56644e-07
0.00136702
-7.6585e-07
0.00136543
-7.74572e-07
0.00136383
-7.82816e-07
0.00136221
-7.90581e-07
0.00136057
-7.97862e-07
0.00135892
-8.04644e-07
0.00135725
-8.10917e-07
0.00135557
-8.16665e-07
0.00135387
-8.21872e-07
0.00135216
-8.26528e-07
0.00135044
-8.30613e-07
0.00134871
-8.34111e-07
0.00134697
-8.37012e-07
0.00134523
-8.39302e-07
0.00134347
-8.40969e-07
0.00134172
-8.42007e-07
0.00133996
-8.42403e-07
0.0013382
-8.42151e-07
0.00133643
-8.4125e-07
0.00133467
-8.39685e-07
0.00133291
-8.37506e-07
0.00133115
-8.34636e-07
0.0013294
-8.31111e-07
0.00132765
-8.26937e-07
0.00132591
-8.22111e-07
0.00132418
-8.16634e-07
0.00132246
-8.10505e-07
0.00132075
-8.03716e-07
0.00131905
-7.96253e-07
0.00131736
-7.88093e-07
0.00131569
-7.79199e-07
0.00131404
-7.69523e-07
0.0013124
-7.59005e-07
0.00131078
-7.47576e-07
0.00130918
-7.35173e-07
0.0013076
-7.2175e-07
0.00130604
-7.07299e-07
0.0013045
-6.91865e-07
0.001303
-6.75548e-07
0.00130152
-6.58488e-07
0.00130007
-6.40782e-07
0.00129866
-6.22365e-07
0.00129726
-6.02829e-07
0.00129589
-5.81166e-07
0.00129451
-5.55492e-07
0.00129312
-5.22809e-07
0.0012917
-4.79177e-07
0.00129024
-4.20524e-07
0.00128874
-3.47313e-07
0.00128725
-2.66609e-07
0.00128588
-1.92966e-07
0.00128481
-1.43039e-07
0.00128419
5.911e-09
0.00128368
9.67368e-09
0.00128326
-1.18924e-07
0.00128155
-2.43245e-06
0.00127703
-4.10422e-06
0.00126801
-1.915e-05
0.0012496
-2.90593e-05
0.00122474
-8.18162e-05
0.00118543
-0.000134467
0.00115881
-0.000314396
0.0011609
-0.000702513
0.00135084
-0.000209432
0.000336462
3.48911e-05
0.000588676
-1.72509e-05
0.000741914
-9.28477e-06
0.000704434
-4.39396e-05
0.00059275
-5.86746e-06
0.000541486
-3.59171e-06
0.00019728
-2.66872e-06
0.000163521
0.000132758
6.38068e-06
0.000126378
1.05777e-05
0.000159324
0.000191075
1.67832e-05
-6.98337e-06
0.000189799
8.25864e-06
-2.88182e-06
0.000155222
0.000123496
1.79146e-06
0.000121704
9.01019e-07
0.000156113
0.000188527
2.1731e-06
-7.70633e-07
0.000189687
-3.89369e-07
-1.5687e-06
0.000156911
0.000120136
2.86532e-07
0.000119849
2.00481e-06
0.000155193
0.000189558
2.13433e-06
-1.81538e-06
0.000189371
2.00185e-06
-1.29494e-06
0.000154672
0.000118554
1.18335e-06
0.000117371
1.69529e-06
0.00015416
0.000189178
1.88896e-06
-1.52897e-06
0.000188944
1.7624e-06
-2.25392e-06
0.000154885
0.000115117
1.00491e-06
0.000114112
1.44919e-06
0.000154441
0.000188716
1.67689e-06
-1.37611e-06
0.000187203
2.88916e-06
-9.23839e-07
0.000153989
0.000113188
8.44397e-07
0.000112344
1.2886e-06
0.000153544
0.000188218
2.73684e-07
-1.22967e-06
0.000186685
2.76323e-06
-7.85042e-07
0.0001531
0.000111559
7.26107e-07
0.000110833
1.15857e-06
0.000152667
0.000187676
1.67161e-07
-1.11485e-06
0.000186129
2.66175e-06
-6.83589e-07
0.000152236
0.000110149
6.37682e-07
0.000109512
1.05576e-06
0.000151818
0.000187104
8.13372e-08
-1.02367e-06
0.00018555
2.57779e-06
-6.06799e-07
0.000151401
0.000108905
5.69488e-07
0.000108335
9.7255e-07
0.000150998
0.000186513
9.28408e-09
-9.49907e-07
0.000184957
2.50589e-06
-5.47143e-07
0.000150595
0.000107788
5.17083e-07
0.000107271
9.06771e-07
0.000150206
0.000185911
-4.75248e-08
-8.89022e-07
0.000184357
2.44339e-06
-4.99879e-07
0.000149817
0.000106771
4.75072e-07
0.000106296
8.52068e-07
0.00014944
0.000185305
-9.59637e-08
-8.38428e-07
0.000183754
2.3894e-06
-4.61833e-07
0.000149063
0.000105834
4.40677e-07
0.000105394
8.05602e-07
0.000148698
0.000184698
-1.3832e-07
-7.9572e-07
0.000183151
2.34215e-06
-4.30642e-07
0.000148333
0.000104963
4.12373e-07
0.000104551
7.66334e-07
0.000147979
0.000184092
-1.74276e-07
-7.57658e-07
0.000182551
2.29835e-06
-4.03931e-07
0.000147625
0.000104147
3.89378e-07
0.000103757
7.3384e-07
0.000147281
0.00018349
-2.05269e-07
-7.23119e-07
0.000181954
2.25951e-06
-3.79993e-07
0.000146938
0.000103377
3.6952e-07
0.000103008
7.04679e-07
0.000146603
0.000182892
-2.33351e-07
-7.00169e-07
0.000181363
2.22927e-06
-3.63759e-07
0.000146266
0.000102644
3.51696e-07
0.000102292
6.79517e-07
0.000145938
0.000182296
-2.53011e-07
-6.8004e-07
0.00018077
2.20573e-06
-3.49493e-07
0.000145608
0.000101943
3.36849e-07
0.000101606
6.57361e-07
0.000145287
0.000181701
-2.73519e-07
-6.59914e-07
0.00018018
2.18055e-06
-3.35812e-07
0.000144963
0.00010127
3.24069e-07
0.000100946
6.38425e-07
0.000144649
0.000181108
-2.89935e-07
-6.42908e-07
0.000179593
2.15886e-06
-3.24204e-07
0.00014433
0.000100622
3.12947e-07
0.000100309
6.21922e-07
0.000144021
0.000180518
-3.03683e-07
-6.28122e-07
0.000179007
2.13968e-06
-3.14097e-07
0.000143707
9.99948e-05
3.03176e-07
9.96917e-05
6.0745e-07
0.000143403
0.000179929
-3.15141e-07
-6.15203e-07
0.000178422
2.12264e-06
-3.05225e-07
0.000143093
9.93864e-05
2.94567e-07
9.90919e-05
5.94739e-07
0.000142793
0.000179341
-3.2458e-07
-6.03711e-07
0.000177838
2.10715e-06
-2.97314e-07
0.000142486
9.87946e-05
2.87023e-07
9.85075e-05
5.83749e-07
0.00014219
0.000178753
-3.31864e-07
-5.94018e-07
0.000177253
2.09396e-06
-2.90487e-07
0.000141886
9.82171e-05
2.80389e-07
9.79367e-05
5.7424e-07
0.000141592
0.000178165
-3.37334e-07
-5.85753e-07
0.000176668
2.08253e-06
-2.84525e-07
0.000141291
9.76521e-05
2.74567e-07
9.73776e-05
5.66061e-07
0.000141
0.000177575
-3.41187e-07
-5.78532e-07
0.000176082
2.07228e-06
-2.79223e-07
0.0001407
9.70983e-05
2.69439e-07
9.68289e-05
5.59043e-07
0.000140411
0.000176984
-3.43541e-07
-5.72391e-07
0.000175493
2.06341e-06
-2.74563e-07
0.000140113
9.65543e-05
2.64835e-07
9.62895e-05
5.52905e-07
0.000139825
0.000176391
-3.44755e-07
-5.66947e-07
0.000174902
2.05541e-06
-2.70322e-07
0.000139528
9.60192e-05
2.60726e-07
9.57584e-05
5.47642e-07
0.000139241
0.000175795
-3.4473e-07
-5.62572e-07
0.000174308
2.0489e-06
-2.66668e-07
0.000138945
9.54918e-05
2.57099e-07
9.52346e-05
5.43235e-07
0.000138659
0.000175195
-3.43542e-07
-5.59136e-07
0.000173711
2.04366e-06
-2.63531e-07
0.000138363
9.49711e-05
2.53979e-07
9.47171e-05
5.39723e-07
0.000138078
0.000174591
-3.41159e-07
-5.56194e-07
0.000173109
2.03893e-06
-2.607e-07
0.000137782
9.44564e-05
2.51327e-07
9.42051e-05
5.37081e-07
0.000137496
0.000173983
-3.375e-07
-5.54319e-07
0.000172502
2.03569e-06
-2.58441e-07
0.000137201
9.39466e-05
2.49056e-07
9.36976e-05
5.35117e-07
0.000136914
0.00017337
-3.32912e-07
-5.53233e-07
0.00017189
2.03353e-06
-2.56608e-07
0.000136618
9.34409e-05
2.47247e-07
9.31937e-05
5.33996e-07
0.000136331
0.000172751
-3.27154e-07
-5.52779e-07
0.000171271
2.03212e-06
-2.55134e-07
0.000136033
9.29385e-05
2.459e-07
9.26926e-05
5.33742e-07
0.000135746
0.000172125
-3.20109e-07
-5.53162e-07
0.000170646
2.03185e-06
-2.5411e-07
0.000135446
9.24385e-05
2.44891e-07
9.21936e-05
5.34097e-07
0.000135157
0.000171493
-3.12154e-07
-5.53938e-07
0.000170014
2.0321e-06
-2.53307e-07
0.000134857
9.19403e-05
2.4418e-07
9.16961e-05
5.35048e-07
0.000134566
0.000170853
-3.03228e-07
-5.55769e-07
0.000169375
2.03394e-06
-2.53026e-07
0.000134263
9.1443e-05
2.43813e-07
9.11992e-05
5.36642e-07
0.00013397
0.000170204
-2.93361e-07
-5.57805e-07
0.000168726
2.03594e-06
-2.52864e-07
0.000133665
9.09463e-05
2.43866e-07
9.07024e-05
5.39117e-07
0.00013337
0.000169547
-2.82033e-07
-5.61182e-07
0.000168069
2.03996e-06
-2.5336e-07
0.000133062
9.0449e-05
2.44277e-07
9.02047e-05
5.42273e-07
0.000132764
0.000168881
-2.69707e-07
-5.649e-07
0.000167401
2.04436e-06
-2.54036e-07
0.000132453
8.99507e-05
2.4508e-07
8.97056e-05
5.46219e-07
0.000132152
0.000168203
-2.56084e-07
-5.69268e-07
0.000166723
2.04966e-06
-2.5504e-07
0.000131838
8.94505e-05
2.46186e-07
8.92043e-05
5.50803e-07
0.000131533
0.000167515
-2.41353e-07
-5.74491e-07
0.000166033
2.05628e-06
-2.56451e-07
0.000131215
8.89478e-05
2.47595e-07
8.87002e-05
5.56015e-07
0.000130907
0.000166815
-2.25585e-07
-5.80356e-07
0.000165331
2.06381e-06
-2.58163e-07
0.000130584
8.8442e-05
2.49407e-07
8.81926e-05
5.62076e-07
0.000130272
0.000166102
-2.08418e-07
-5.87063e-07
0.000164616
2.07253e-06
-2.60281e-07
0.000129945
8.79323e-05
2.51612e-07
8.76806e-05
5.68953e-07
0.000129627
0.000165375
-1.89909e-07
-5.94538e-07
0.000163887
2.08233e-06
-2.62768e-07
0.000129296
8.74179e-05
2.54186e-07
8.71636e-05
5.76605e-07
0.000128973
0.000164634
-1.70104e-07
-6.02772e-07
0.000163143
2.09321e-06
-2.65615e-07
0.000128636
8.6898e-05
2.57122e-07
8.66408e-05
5.85026e-07
0.000128308
0.000163877
-1.4899e-07
-6.11746e-07
0.000162384
2.10515e-06
-2.6881e-07
0.000127965
8.6372e-05
2.60398e-07
8.61116e-05
5.94177e-07
0.000127631
0.000163105
-1.26608e-07
-6.21399e-07
0.000161608
2.11805e-06
-2.72317e-07
0.000127282
8.58392e-05
2.64036e-07
8.55752e-05
6.04125e-07
0.000126942
0.000162315
-1.02833e-07
-6.32066e-07
0.000160815
2.13246e-06
-2.76294e-07
0.000126586
8.52989e-05
2.68044e-07
8.50308e-05
6.14851e-07
0.000126239
0.000161507
-7.77401e-08
-6.42987e-07
0.000160003
2.14711e-06
-2.80383e-07
0.000125877
8.47504e-05
2.72371e-07
8.4478e-05
6.26307e-07
0.000125523
0.00016068
-5.12307e-08
-6.5469e-07
0.000159172
2.16294e-06
-2.84819e-07
0.000125153
8.41931e-05
2.76986e-07
8.39161e-05
6.38448e-07
0.000124791
0.000159834
-2.34471e-08
-6.67467e-07
0.000158321
2.18031e-06
-2.89738e-07
0.000124414
8.36264e-05
2.82082e-07
8.33443e-05
6.51608e-07
0.000124044
0.000158967
5.981e-09
-6.80726e-07
0.00015745
2.19788e-06
-2.94913e-07
0.000123658
8.30493e-05
2.87385e-07
8.27619e-05
6.6516e-07
0.00012328
0.000158079
3.59742e-08
-6.94964e-07
0.000156556
2.2173e-06
-3.00526e-07
0.000122886
8.24614e-05
2.9301e-07
8.21683e-05
6.79473e-07
0.000122499
0.000157168
6.75901e-08
-7.10034e-07
0.00015564
2.23811e-06
-3.06477e-07
0.000122096
8.18618e-05
2.99073e-07
8.15627e-05
6.94824e-07
0.0001217
0.000156234
1.01175e-07
-7.25988e-07
0.000154699
2.26024e-06
-3.12801e-07
0.000121287
8.12499e-05
3.0552e-07
8.09443e-05
7.11086e-07
0.000120881
0.000155274
1.36456e-07
-7.42848e-07
0.000153733
2.28369e-06
-3.19511e-07
0.000120458
8.06248e-05
3.12366e-07
8.03124e-05
7.28275e-07
0.000120042
0.000154288
1.73441e-07
-7.60606e-07
0.00015274
2.30844e-06
-3.2661e-07
0.000119608
7.99858e-05
3.19604e-07
7.96662e-05
7.4637e-07
0.000119181
0.000153274
2.12108e-07
-7.7925e-07
0.000151719
2.33446e-06
-3.34092e-07
0.000118736
7.9332e-05
3.27231e-07
7.90048e-05
7.65364e-07
0.000118298
0.000152232
2.52459e-07
-7.98786e-07
0.000150669
2.36178e-06
-3.4196e-07
0.000117841
7.86628e-05
3.35251e-07
7.83275e-05
7.85271e-07
0.000117391
0.00015116
2.94534e-07
-8.19238e-07
0.000149588
2.39042e-06
-3.50222e-07
0.000116922
7.79773e-05
3.43674e-07
7.76336e-05
8.06118e-07
0.000116459
0.000150056
3.38389e-07
-8.40635e-07
0.000148476
2.42044e-06
-3.5889e-07
0.000115978
7.72747e-05
3.52514e-07
7.69222e-05
8.27936e-07
0.000115502
0.00014892
3.84089e-07
-8.63023e-07
0.000147331
2.45188e-06
-3.67981e-07
0.000115007
7.65542e-05
3.61811e-07
7.61923e-05
8.5083e-07
0.000114518
0.00014775
4.31816e-07
-8.86751e-07
0.000146152
2.48533e-06
-3.77661e-07
0.000114009
7.58146e-05
3.71575e-07
7.54431e-05
8.74782e-07
0.000113506
0.000146545
4.81472e-07
-9.11285e-07
0.000144936
2.51984e-06
-3.87684e-07
0.000112982
7.50554e-05
3.81797e-07
7.46735e-05
8.99808e-07
0.000112464
0.000145303
5.33197e-07
-9.36711e-07
0.000143684
2.55562e-06
-3.98078e-07
0.000111925
7.42754e-05
3.9235e-07
7.38831e-05
9.25649e-07
0.000111392
0.000144023
5.86628e-07
-9.6308e-07
0.000142393
2.59283e-06
-4.0886e-07
0.000110838
7.34742e-05
4.03291e-07
7.30709e-05
9.5244e-07
0.000110289
0.000142704
6.41997e-07
-9.9036e-07
0.000141063
2.63138e-06
-4.20007e-07
0.000109718
7.26509e-05
4.14594e-07
7.22363e-05
9.80137e-07
0.000109153
0.000141343
6.99234e-07
-1.01854e-06
0.000139691
2.67123e-06
-4.31518e-07
0.000108566
7.18048e-05
4.26268e-07
7.13785e-05
1.00875e-06
0.000107983
0.000139941
7.5835e-07
-1.04765e-06
0.000138276
2.7124e-06
-4.43404e-07
0.000107379
7.09351e-05
4.38323e-07
7.04967e-05
1.0383e-06
0.000106779
0.000138495
8.19371e-07
-1.07769e-06
0.000136818
2.75489e-06
-4.55676e-07
0.000106157
7.00411e-05
4.5077e-07
6.95903e-05
1.06879e-06
0.000105539
0.000137004
8.82323e-07
-1.10866e-06
0.000135314
2.79868e-06
-4.68333e-07
0.000104899
6.91219e-05
4.63562e-07
6.86584e-05
1.10012e-06
0.000104262
0.000135468
9.47039e-07
-1.14016e-06
0.000133765
2.84313e-06
-4.81182e-07
0.000103603
6.81772e-05
4.76705e-07
6.77005e-05
1.13234e-06
0.000102947
0.000133883
1.01371e-06
-1.17281e-06
0.000132167
2.88927e-06
-4.94513e-07
0.000102269
6.7206e-05
4.90181e-07
6.67158e-05
1.1654e-06
0.000101594
0.00013225
1.08214e-06
-1.2067e-06
0.00013052
2.93718e-06
-5.08375e-07
0.000100896
6.62074e-05
5.04053e-07
6.57034e-05
1.19937e-06
0.0001002
0.000130567
1.15233e-06
-1.24101e-06
0.000128822
2.98541e-06
-5.22398e-07
9.94817e-05
6.5181e-05
5.18215e-07
6.46628e-05
1.23402e-06
9.87659e-05
0.000128832
1.22406e-06
-1.27573e-06
0.000127074
3.03402e-06
-5.36586e-07
9.80267e-05
6.41262e-05
5.32409e-07
6.35938e-05
1.26883e-06
9.72903e-05
0.000127046
1.29652e-06
-1.31063e-06
0.000125274
3.08276e-06
-5.50817e-07
9.65305e-05
6.3043e-05
5.46599e-07
6.24964e-05
1.30373e-06
9.57734e-05
0.000125208
1.36964e-06
-1.3455e-06
0.000123422
3.13126e-06
-5.64981e-07
9.49928e-05
6.19314e-05
5.60671e-07
6.13707e-05
1.33849e-06
9.4215e-05
0.000123318
1.44305e-06
-1.38012e-06
0.000121519
3.17917e-06
-5.78982e-07
9.34139e-05
6.07917e-05
5.74498e-07
6.02172e-05
1.3728e-06
9.26156e-05
0.000121375
1.51624e-06
-1.41389e-06
0.000119564
3.22553e-06
-5.92542e-07
9.17943e-05
5.96247e-05
5.88093e-07
5.90366e-05
1.40672e-06
9.09756e-05
0.000119381
1.58941e-06
-1.44768e-06
0.000117557
3.27174e-06
-6.06097e-07
9.0134e-05
5.84305e-05
6.01172e-07
5.78293e-05
1.43957e-06
8.92956e-05
0.000117335
1.66114e-06
-1.48036e-06
0.0001155
3.31585e-06
-6.19098e-07
8.84344e-05
5.72102e-05
6.14009e-07
5.65962e-05
1.47187e-06
8.75765e-05
0.000115239
1.73238e-06
-1.51191e-06
0.000113393
3.35778e-06
-6.31601e-07
8.66962e-05
5.59646e-05
6.26192e-07
5.53384e-05
1.50273e-06
8.58197e-05
0.000113095
1.80167e-06
-1.54225e-06
0.000111239
3.39751e-06
-6.43543e-07
8.4921e-05
5.46949e-05
6.38018e-07
5.40569e-05
1.53276e-06
8.40262e-05
0.000110902
1.86989e-06
-1.57289e-06
0.000109038
3.43688e-06
-6.55658e-07
8.3109e-05
5.34012e-05
6.54527e-07
5.27467e-05
1.56776e-06
8.21958e-05
0.000108664
1.94219e-06
-1.6155e-06
0.000106795
3.48456e-06
-6.80349e-07
8.12606e-05
5.20663e-05
6.82642e-07
5.13837e-05
1.61457e-06
8.03287e-05
0.000106385
2.02383e-06
-1.66055e-06
0.000104512
3.53368e-06
-7.06361e-07
7.93745e-05
5.06773e-05
7.0583e-07
4.99715e-05
1.65638e-06
7.84239e-05
0.000104069
2.10004e-06
-1.69958e-06
0.000102193
3.57571e-06
-7.27319e-07
7.74517e-05
4.92442e-05
7.23873e-07
4.85203e-05
1.69101e-06
7.64845e-05
0.000101716
2.16741e-06
-1.73043e-06
9.98398e-05
3.60671e-06
-7.42899e-07
7.5497e-05
4.77774e-05
7.37222e-07
4.70402e-05
1.71839e-06
7.45158e-05
9.93324e-05
2.22582e-06
-1.75302e-06
9.7459e-05
3.62642e-06
-7.53538e-07
7.35164e-05
4.62866e-05
7.44985e-07
4.55417e-05
1.73592e-06
7.25254e-05
9.69243e-05
2.27061e-06
-1.76651e-06
9.50575e-05
3.6333e-06
-7.59113e-07
7.1518e-05
4.47825e-05
7.47449e-07
4.40351e-05
1.7435e-06
7.0522e-05
9.45e-05
2.30103e-06
-1.76963e-06
9.26448e-05
3.62483e-06
-7.59291e-07
6.95116e-05
4.32758e-05
7.44859e-07
4.25309e-05
1.74116e-06
6.85153e-05
9.2069e-05
2.31695e-06
-1.76169e-06
9.02309e-05
3.59973e-06
-7.5398e-07
6.75076e-05
4.1777e-05
7.36391e-07
4.10406e-05
1.72684e-06
6.65172e-05
8.9643e-05
2.31477e-06
-1.74171e-06
8.78283e-05
3.5564e-06
-7.42844e-07
6.55183e-05
4.02977e-05
7.22078e-07
3.95756e-05
1.70026e-06
6.45401e-05
8.72348e-05
2.29371e-06
-1.70925e-06
8.54501e-05
3.49396e-06
-7.25827e-07
6.35567e-05
3.88498e-05
7.01852e-07
3.81479e-05
1.66103e-06
6.25975e-05
8.48583e-05
2.25278e-06
-1.6641e-06
8.31105e-05
3.41192e-06
-7.02944e-07
6.16363e-05
3.7445e-05
6.75811e-07
3.67692e-05
1.6091e-06
6.0703e-05
8.2528e-05
2.19158e-06
-1.60639e-06
8.08242e-05
3.31027e-06
-6.74371e-07
5.9771e-05
3.60948e-05
6.4421e-07
3.54506e-05
1.54475e-06
5.88705e-05
8.02588e-05
2.11012e-06
-1.53652e-06
7.86059e-05
3.18943e-06
-6.40423e-07
5.79744e-05
3.48102e-05
6.07431e-07
3.42027e-05
1.46856e-06
5.71132e-05
7.80655e-05
2.00891e-06
-1.45523e-06
7.64704e-05
3.05035e-06
-6.01545e-07
5.62596e-05
3.36012e-05
5.65973e-07
3.30352e-05
1.38134e-06
5.54442e-05
7.59629e-05
1.88881e-06
-1.3631e-06
7.44322e-05
2.89378e-06
-5.58093e-07
5.46392e-05
3.24771e-05
5.20795e-07
3.19563e-05
1.28507e-06
5.38749e-05
7.39644e-05
1.75286e-06
-1.26395e-06
7.25026e-05
2.72579e-06
-5.11889e-07
5.31228e-05
3.14444e-05
4.72567e-07
3.09719e-05
1.18078e-06
5.24146e-05
7.20816e-05
1.60175e-06
-1.15694e-06
7.06944e-05
2.54417e-06
-4.62846e-07
5.17205e-05
3.0509e-05
4.23066e-07
3.00859e-05
1.07232e-06
5.10712e-05
7.03252e-05
1.44149e-06
-1.04719e-06
6.90188e-05
2.35359e-06
-4.13149e-07
5.04372e-05
2.96727e-05
3.7287e-07
2.92999e-05
9.60758e-07
4.98493e-05
6.87027e-05
1.27677e-06
-9.35328e-07
6.74756e-05
2.16245e-06
-3.6329e-07
4.92772e-05
2.89366e-05
3.23544e-07
2.8613e-05
8.49371e-07
4.87514e-05
6.7219e-05
1.10593e-06
-8.24473e-07
6.60713e-05
1.97216e-06
-3.14554e-07
4.82414e-05
2.82984e-05
2.75659e-07
2.80227e-05
7.39778e-07
4.77773e-05
6.58759e-05
9.35104e-07
-7.17289e-07
6.48065e-05
1.78673e-06
-2.68127e-07
4.73281e-05
2.77546e-05
2.30783e-07
2.75238e-05
6.35331e-07
4.69235e-05
6.46722e-05
7.6958e-07
-6.164e-07
6.36783e-05
1.61026e-06
-2.25237e-07
4.65324e-05
2.72986e-05
1.89368e-07
2.71092e-05
5.37119e-07
4.61846e-05
6.36044e-05
6.11055e-07
-5.22147e-07
6.26831e-05
1.44345e-06
-1.85886e-07
4.58484e-05
2.69233e-05
1.52224e-07
2.67711e-05
4.47171e-07
4.55534e-05
6.26668e-05
4.63436e-07
-4.36216e-07
6.18137e-05
1.28937e-06
-1.50726e-07
4.52679e-05
2.66204e-05
1.19417e-07
2.6501e-05
3.66026e-07
4.50213e-05
6.18519e-05
3.27855e-07
-3.59727e-07
6.10598e-05
1.15179e-06
-1.20132e-07
4.47817e-05
2.63808e-05
9.15236e-08
2.62893e-05
2.95117e-07
4.45782e-05
6.11484e-05
2.06526e-07
-2.92774e-07
6.04134e-05
1.02781e-06
-9.3856e-08
4.43793e-05
2.61955e-05
6.83639e-08
2.61271e-05
2.34629e-07
4.4213e-05
6.05459e-05
1.02127e-07
-2.37131e-07
5.98612e-05
9.21867e-07
-7.28617e-08
4.40487e-05
2.60543e-05
5.08268e-08
2.60035e-05
1.86248e-07
4.39133e-05
6.00314e-05
1.60479e-08
-1.93235e-07
5.93912e-05
8.33503e-07
-5.75931e-08
4.37777e-05
2.59459e-05
3.7322e-08
2.59086e-05
1.4668e-07
4.36684e-05
5.95961e-05
-5.82657e-08
-1.60179e-07
5.89906e-05
7.65743e-07
-4.69639e-08
4.35552e-05
2.58616e-05
2.88636e-08
2.58328e-05
1.1892e-07
4.34651e-05
5.9222e-05
-1.12514e-07
-1.38752e-07
5.86424e-05
7.18403e-07
-4.1183e-08
4.33676e-05
2.57916e-05
2.58851e-08
2.57657e-05
1.04048e-07
4.32894e-05
5.88915e-05
-1.4511e-07
-1.30661e-07
5.8329e-05
6.93179e-07
-4.11128e-08
4.31999e-05
2.57246e-05
2.93716e-08
2.56952e-05
1.03625e-07
4.31256e-05
5.85869e-05
-1.54192e-07
-1.36762e-07
5.80311e-05
6.92537e-07
-4.70724e-08
4.30359e-05
2.56482e-05
3.43975e-08
2.56138e-05
1.13918e-07
4.29564e-05
5.82798e-05
-1.34737e-07
-5.19545e-07
5.80927e-05
7.06551e-07
-6.86722e-08
4.25055e-05
2.55451e-05
5.05471e-08
2.54945e-05
-2.05793e-07
4.27618e-05
5.75541e-05
3.32792e-07
-5.69483e-07
5.77439e-05
3.79665e-07
-8.7824e-08
4.22802e-05
2.54067e-05
8.60397e-08
2.53207e-05
2.22817e-07
4.21434e-05
5.75586e-05
4.08132e-07
-6.52178e-07
5.69322e-05
1.27867e-06
-1.33802e-07
4.16251e-05
2.51869e-05
1.34658e-07
2.50522e-05
-7.53626e-08
4.18351e-05
5.68031e-05
5.36716e-08
8.63885e-07
5.7601e-05
-1.66179e-06
2.21259e-07
4.24777e-05
2.52735e-05
-8.53696e-07
2.61272e-05
-1.95672e-06
4.35807e-05
5.96621e-05
-4.01782e-06
1.21189e-06
-1.97088e-06
5.46254e-07
-1.22008e-05
-0.000183181
-1.12017e-07
-0.000212742
-3.84386e-06
-0.000249995
7.99131e-06
-0.000258753
3.27893e-06
-0.000271644
6.79563e-06
-0.000277149
4.51937e-06
-0.000281995
5.45879e-06
-0.000285398
5.3365e-06
-0.000288482
5.94044e-06
-0.000291921
6.33484e-06
-0.000294888
6.73005e-06
-0.000298027
7.12738e-06
-0.000300581
7.37755e-06
-0.000303109
7.71528e-06
-0.000305353
7.88292e-06
-0.000307424
8.15761e-06
-0.000309407
8.2461e-06
-0.000311165
8.45565e-06
-0.000312967
8.47041e-06
-0.000314517
8.61443e-06
-0.000316191
8.56118e-06
-0.000317607
8.64106e-06
-0.000319197
8.52387e-06
-0.000320532
8.54312e-06
-0.000322075
8.36739e-06
-0.00032337
8.32981e-06
-0.000324892
8.10148e-06
-0.000326178
8.00899e-06
-0.000327699
7.734e-06
-0.000329006
7.58893e-06
-0.000330539
7.2719e-06
-0.000331892
7.07574e-06
-0.000333452
6.72042e-06
-0.000334876
6.47291e-06
-0.000336409
6.08202e-06
-0.000337861
5.84919e-06
-0.000339238
5.90417e-06
-0.000340118
6.03483e-06
-0.000340225
7.92239e-06
-0.000338895
9.41404e-06
-0.000335917
1.65241e-05
-0.000330318
2.4477e-05
-0.000325933
5.59185e-05
-0.000324722
0.00012132
-0.00033125
6.17472e-05
-0.000206572
2.78256e-05
-0.000207166
2.61914e-05
-0.000186153
8.32692e-06
-0.000167304
4.94442e-06
-5.7482e-05
2.13244e-06
-4.46025e-05
-2.89254e-05
-2.9482e-06
-2.59772e-05
-6.72271e-06
-4.0828e-05
-5.28466e-05
-1.13581e-05
5.69773e-06
-4.88348e-05
-9.70948e-06
2.47551e-06
-3.76058e-05
-2.35017e-05
-1.81745e-06
-2.16842e-05
-4.02256e-06
-3.54007e-05
-4.61529e-05
-6.70457e-06
1.58174e-06
-4.52422e-05
-2.49235e-06
6.96262e-07
-3.45152e-05
-2.0988e-05
-5.96019e-07
-2.0392e-05
-1.38282e-06
-3.37284e-05
-4.42133e-05
-2.41173e-06
8.08804e-08
-4.41924e-05
-1.01782e-07
6.83179e-08
-3.37159e-05
-2.03236e-05
-1.77293e-07
-2.01463e-05
-4.98464e-07
-3.33947e-05
-4.37619e-05
-9.29038e-07
-3.97239e-07
-4.40487e-05
6.84086e-07
-1.68443e-07
-3.36235e-05
-2.03148e-05
-1.98261e-07
-2.01165e-05
-4.97247e-07
-3.33245e-05
-4.3635e-05
-9.10944e-07
-3.17033e-07
-4.38701e-05
5.5213e-07
-1.88786e-07
-3.34528e-05
-2.03053e-05
-1.1835e-07
-2.0187e-05
-2.74259e-07
-3.32969e-05
-4.34791e-05
-6.65258e-07
-4.54666e-07
-4.38531e-05
8.2866e-07
-2.51194e-07
-3.35003e-05
-2.04382e-05
-1.74082e-07
-2.02641e-05
-3.88647e-07
-3.32858e-05
-4.33955e-05
-8.46324e-07
-3.49925e-07
-4.36403e-05
5.94734e-07
-2.06412e-07
-3.34293e-05
-2.04705e-05
-1.04129e-07
-2.03664e-05
-2.47901e-07
-3.32856e-05
-4.33257e-05
-5.62519e-07
-4.72822e-07
-4.3704e-05
8.51087e-07
-2.6328e-07
-3.34951e-05
-2.06297e-05
-1.64337e-07
-2.04654e-05
-3.72734e-07
-3.32867e-05
-4.32515e-05
-8.25213e-07
-3.60398e-07
-4.34953e-05
6.04183e-07
-2.14655e-07
-3.34325e-05
-2.068e-05
-9.76405e-08
-2.05824e-05
-2.3861e-07
-3.32915e-05
-4.31824e-05
-5.51552e-07
-4.7804e-07
-4.3556e-05
8.51675e-07
-2.69456e-07
-3.35001e-05
-2.08519e-05
-1.60512e-07
-2.06914e-05
-3.68912e-07
-3.32917e-05
-4.31024e-05
-8.22529e-07
-3.61551e-07
-4.33397e-05
5.9885e-07
-2.1869e-07
-3.34346e-05
-2.09101e-05
-9.49807e-08
-2.08151e-05
-2.374e-07
-3.32922e-05
-4.30236e-05
-5.535e-07
-4.7602e-07
-4.3388e-05
8.40375e-07
-2.72378e-07
-3.34958e-05
-2.10875e-05
-1.59691e-07
-2.09278e-05
-3.715e-07
-3.3284e-05
-4.29295e-05
-8.29937e-07
-3.57349e-07
-4.31566e-05
5.84419e-07
-2.2036e-07
-3.3421e-05
-2.11481e-05
-9.42099e-08
-2.10539e-05
-2.40424e-07
-3.32748e-05
-4.28345e-05
-5.6249e-07
-4.70035e-07
-4.31865e-05
8.22021e-07
-2.73663e-07
-3.34712e-05
-2.13276e-05
-1.60097e-07
-2.11675e-05
-3.77056e-07
-3.32542e-05
-4.2721e-05
-8.42604e-07
-3.50829e-07
-4.29356e-05
5.65398e-07
-2.21191e-07
-3.33839e-05
-2.13887e-05
-9.36379e-08
-2.12951e-05
-2.44277e-07
-3.32332e-05
-4.26063e-05
-5.73574e-07
-4.63817e-07
-4.29444e-05
8.01954e-07
-2.75111e-07
-3.34219e-05
-2.15702e-05
-1.59735e-07
-2.14105e-05
-3.81388e-07
-3.32003e-05
-4.24715e-05
-8.54284e-07
-3.46738e-07
-4.26735e-05
5.48651e-07
-2.23396e-07
-3.33236e-05
-2.16339e-05
-9.04872e-08
-2.15434e-05
-2.43095e-07
-3.3171e-05
-4.23385e-05
-5.78054e-07
-4.6377e-07
-4.26641e-05
7.89378e-07
-2.79742e-07
-3.33551e-05
-2.18231e-05
-1.54758e-07
-2.16684e-05
-3.7662e-07
-3.31332e-05
-4.2187e-05
-8.53732e-07
-3.54974e-07
-4.23802e-05
5.48135e-07
-2.31935e-07
-3.32562e-05
-2.19003e-05
-7.74242e-08
-2.18229e-05
-2.23333e-07
-3.31104e-05
-4.20461e-05
-5.57448e-07
-4.8818e-07
-4.23666e-05
8.08655e-07
-2.97746e-07
-3.33008e-05
-2.21206e-05
-1.31296e-07
-2.19893e-05
-3.38621e-07
-3.30935e-05
-4.18964e-05
-8.08766e-07
-4.12384e-07
-4.20946e-05
6.10608e-07
-2.69183e-07
-3.32367e-05
-2.22585e-05
-1.84663e-08
-2.22401e-05
-1.29009e-07
-3.31261e-05
-4.17816e-05
-4.42036e-07
-6.14471e-07
-4.20633e-05
8.96085e-07
-3.77598e-07
-3.3363e-05
-2.26177e-05
-2.23195e-08
-2.25954e-05
-2.19902e-07
-3.31655e-05
-4.17031e-05
-5.80128e-07
-6.7924e-07
-4.18511e-05
8.27194e-07
-4.20579e-07
-3.34242e-05
-2.3016e-05
1.22609e-07
-2.31386e-05
-2.65946e-08
-3.3275e-05
-4.16508e-05
-2.26846e-07
-8.55722e-07
-4.18247e-05
1.02969e-06
-4.4907e-07
-3.36816e-05
-2.35876e-05
4.06591e-08
-2.36282e-05
-2.04863e-07
-3.3436e-05
-4.15877e-05
-4.41836e-07
-6.23074e-07
-4.17797e-05
8.15138e-07
-3.87021e-07
-3.3672e-05
-2.40152e-05
1.27506e-07
-2.41427e-05
9.67191e-08
-3.36412e-05
-4.17412e-05
5.82695e-08
-8.56346e-07
-4.22198e-05
1.33486e-06
-4.27774e-07
-3.40697e-05
-2.45705e-05
4.04318e-07
-2.4975e-05
5.67726e-07
-3.42332e-05
-4.23835e-05
7.31336e-07
-2.01989e-06
-4.34429e-05
3.07745e-06
-9.82028e-07
-3.52693e-05
-2.59585e-05
1.79442e-06
-2.77383e-05
3.5952e-06
-3.71039e-05
-4.52478e-05
5.41995e-06
3.37131e-05
-2.26593e-05
-5.62675e-05
1.47317e-05
-1.81522e-05
-1.29981e-05
5.14923e-06
-1.65229e-05
7.72535e-06
-2.34735e-05
-2.93071e-05
1.56794e-05
-4.58174e-06
-3.24227e-05
8.19196e-06
-2.66988e-06
-2.61904e-05
-1.88238e-05
1.1778e-06
-2.02325e-05
2.75657e-06
-2.74051e-05
-3.36739e-05
3.86083e-06
-1.77864e-06
-6.71235e-05
3.52438e-05
-1.11883e-06
-2.81131e-05
-2.13138e-05
9.93605e-07
-2.23094e-05
3.04655e-05
-5.75823e-05
-5.72715e-05
2.06128e-05
-1.54204e-05
-5.76876e-05
1.58366e-05
-2.39972e-05
-4.90056e-05
-4.63065e-05
7.55805e-06
-5.38646e-05
1.18871e-05
-5.33347e-05
-5.75624e-05
1.17618e-05
-7.48894e-06
-5.67867e-05
6.71315e-06
-6.18671e-06
-5.4637e-05
-6.00514e-05
9.87113e-07
-6.10387e-05
-2.21686e-06
-5.14332e-05
-5.70198e-05
-1.98402e-06
1.51664e-05
-3.47591e-05
-3.74272e-05
4.41533e-06
-4.06822e-05
-5.66235e-05
-4.24753e-07
-5.61988e-05
-2.08941e-06
-3.90176e-05
-4.20801e-05
5.23162e-06
1.54077e-06
-4.11295e-05
-2.49137e-06
1.2142e-07
-3.75982e-05
-5.60773e-05
-3.40284e-06
-5.26745e-05
-6.90415e-06
-3.40969e-05
-3.77024e-05
-1.03312e-05
1.43657e-05
-3.29416e-05
-1.91264e-05
9.2096e-06
-2.89407e-05
-4.34648e-05
-1.81361e-05
-2.53287e-05
-2.562e-05
-2.14568e-05
-2.47841e-05
-3.37776e-05
4.26404e-05
-3.47898e-06
-6.39455e-05
3.05489e-05
-9.36529e-06
5.22021e-06
-4.24e-05
4.76202e-05
-4.89962e-05
-2.76917e-06
-4.3823e-06
-4.80929e-05
5.07137e-05
-1.42421e-05
-4.08539e-05
5.22437e-05
-4.29915e-06
9.98639e-05
-7.13763e-05
0.00017124
-7.6512e-05
8.36585e-07
-1.10541e-05
-7.97001e-05
0.000111775
2.92525e-05
-0.000152081
9.59963e-05
1.66148e-05
0.000267236
-0.000105411
0.000372648
-0.000106183
1.73861e-05
9.49283e-06
-8.6423e-05
0.000112934
-1.24662e-05
-9.0975e-05
0.000120346
9.97382e-06
0.000492994
-0.000151003
0.000643997
-0.000172143
3.11135e-05
3.93323e-05
-0.000223941
0.000161252
2.29713e-05
-0.000144891
0.000159535
3.28304e-05
0.000803532
-0.000164515
0.000968047
-0.000174052
4.2367e-05
2.42918e-05
-0.000175372
0.000189423
8.31499e-05
-0.000248281
0.000160863
7.0927e-05
0.00112891
-9.06574e-05
0.00121957
-0.000107004
8.72741e-05
9.4085e-05
-0.00011794
5.87205e-05
0.000121185
-8.58206e-05
2.37648e-05
0.00012223
0.00124333
5.05546e-05
0.00119278
1.62221e-05
0.000156562
0.000173593
-3.6186e-05
-0.000137117
0.000132466
0.000178244
-0.000121302
0.000140747
0.00107148
0.000129369
0.000942107
0.000126664
0.000143452
0.000125608
0.000133523
-9.71139e-05
0.000226538
-3.81629e-06
-0.000127605
0.000173943
0.000814503
0.000140397
0.000674106
0.000157498
0.000156842
0.000154313
0.000229723
-0.000128942
0.000139692
0.000143563
-0.000126076
0.000153976
0.00054803
0.000104101
0.000443929
8.22149e-05
0.000175863
0.000237252
-1.53458e-05
-0.000126814
0.000159585
0.000204481
-0.000104023
0.000153072
0.000339907
7.92146e-05
0.000260692
9.00983e-05
0.000142188
0.000133912
0.000115771
-3.90637e-05
0.000215802
-4.28267e-05
-5.24927e-05
0.000155617
0.000208199
5.03322e-05
0.000157867
7.60527e-05
0.000129897
0.000147196
0.000144659
-5.51023e-05
0.000114735
8.75641e-05
-3.75477e-05
0.000112343
0.00012032
2.03088e-05
0.000100012
1.32419e-05
0.00011941
0.000183734
-5.57573e-05
-6.17717e-05
0.00011705
0.000128457
-2.82217e-05
8.58585e-05
7.17906e-05
5.0212e-05
2.15716e-05
4.41254e-05
9.19638e-05
9.16531e-05
6.95132e-05
-2.04645e-05
0.00016669
-5.45116e-05
1.70145e-05
5.43541e-05
3.86683e-05
1.00984e-05
2.77221e-05
2.58647e-05
3.9851e-05
5.75003e-05
0.0001346
-1.98161e-05
3.84575e-05
4.21249e-05
-1.39208e-05
2.69615e-05
1.78816e-05
-1.85173e-05