/*--------------------------------*- C++ -*----------------------------------*\
| =========                 |                                                 |
| \\      /  F ield         | OpenFOAM: The Open Source CFD Toolbox           |
|  \\    /   O peration     | Version:  v2006                                 |
|   \\  /    A nd           | Website:  www.openfoam.com                      |
|    \\/     M anipulation  |                                                 |
\*---------------------------------------------------------------------------*/
FoamFile
{
    version     2.0;
    format      ascii;
    class       volScalarField;
    location    "0.058";
    object      T;
}
// * * * * * * * * * * * * * * * * * * * * * * * * * * * * * * * * * * * * * //

dimensions      [0 0 0 1 0 0 0];


internalField   nonuniform List<scalar> 
24416
(
296.605
296.605
296.605
296.605
296.605
296.605
296.605
296.605
296.605
296.605
296.605
296.605
296.606
296.609
296.613
296.618
296.623
296.629
296.636
296.642
296.648
296.654
296.66
296.667
296.673
296.679
296.686
296.693
296.699
296.706
296.714
296.721
296.728
296.736
296.743
296.751
296.759
296.766
296.774
296.782
296.79
296.799
296.807
296.815
296.823
296.832
296.84
296.849
296.857
296.866
296.874
296.883
296.892
296.9
296.909
296.917
296.926
296.934
296.943
296.951
296.96
296.968
296.977
296.985
296.993
297.001
297.009
297.017
297.025
297.033
297.041
297.048
297.056
297.063
297.07
297.078
297.085
297.091
297.098
297.105
297.111
297.117
297.124
297.13
297.137
297.144
297.151
297.156
297.161
297.164
297.164
297.163
297.162
297.161
297.16
297.159
297.158
297.156
297.155
297.154
297.154
297.155
297.157
297.162
297.171
297.182
297.197
297.219
297.243
297.342
297.365
297.242
297.207
297.206
297.25
297.404
297.44
297.261
297.207
297.209
297.271
297.464
297.484
297.283
297.214
297.22
297.295
297.495
297.504
297.306
297.226
297.232
297.315
297.509
297.513
297.321
297.237
297.243
297.327
297.516
297.516
297.332
297.248
297.254
297.338
297.515
297.512
297.342
297.259
297.264
297.347
297.51
297.507
297.35
297.268
297.273
297.354
297.504
297.501
297.357
297.278
297.282
297.36
297.497
297.494
297.362
297.286
297.29
297.365
297.491
297.488
297.367
297.294
297.298
297.369
297.485
297.483
297.371
297.302
297.305
297.373
297.48
297.478
297.375
297.309
297.312
297.377
297.476
297.474
297.379
297.315
297.318
297.38
297.472
297.471
297.383
297.322
297.324
297.384
297.469
297.468
297.386
297.328
297.33
297.388
297.467
297.467
297.39
297.334
297.337
297.392
297.466
297.466
297.394
297.341
297.343
297.396
297.465
297.465
297.398
297.347
297.349
297.4
297.465
297.466
297.403
297.353
297.356
297.404
297.466
297.467
297.407
297.36
297.362
297.409
297.467
297.468
297.412
297.366
297.369
297.414
297.469
297.47
297.417
297.373
297.375
297.419
297.471
297.473
297.422
297.38
297.382
297.424
297.474
297.476
297.428
297.387
297.39
297.43
297.477
297.479
297.434
297.395
297.397
297.436
297.48
297.483
297.44
297.402
297.405
297.442
297.484
297.487
297.446
297.41
297.412
297.449
297.488
297.491
297.453
297.418
297.421
297.455
297.493
297.496
297.46
297.426
297.429
297.462
297.498
297.501
297.467
297.435
297.437
297.47
297.503
297.507
297.475
297.443
297.446
297.477
297.509
297.513
297.483
297.453
297.455
297.485
297.515
297.519
297.491
297.462
297.465
297.493
297.522
297.526
297.499
297.471
297.474
297.502
297.528
297.533
297.508
297.481
297.484
297.511
297.536
297.541
297.517
297.491
297.495
297.52
297.544
297.549
297.527
297.502
297.505
297.53
297.552
297.557
297.536
297.513
297.517
297.54
297.56
297.566
297.547
297.524
297.528
297.55
297.569
297.576
297.557
297.536
297.54
297.561
297.579
297.585
297.568
297.548
297.552
297.572
297.589
297.596
297.58
297.561
297.565
297.584
297.599
297.606
297.592
297.573
297.578
297.596
297.61
297.617
297.604
297.587
297.591
297.609
297.621
297.629
297.617
297.601
297.605
297.622
297.633
297.641
297.63
297.615
297.62
297.635
297.645
297.653
297.644
297.63
297.634
297.649
297.658
297.666
297.658
297.645
297.65
297.663
297.671
297.68
297.673
297.66
297.666
297.678
297.684
297.694
297.688
297.677
297.682
297.693
297.698
297.708
297.704
297.693
297.699
297.709
297.713
297.723
297.72
297.71
297.716
297.726
297.728
297.738
297.737
297.728
297.734
297.742
297.743
297.754
297.754
297.746
297.752
297.76
297.759
297.77
297.771
297.765
297.771
297.777
297.776
297.787
297.79
297.784
297.791
297.796
297.793
297.805
297.808
297.804
297.811
297.815
297.811
297.823
297.828
297.825
297.831
297.834
297.829
297.841
297.848
297.846
297.853
297.855
297.848
297.861
297.868
297.867
297.874
297.875
297.867
297.88
297.889
297.889
297.897
297.897
297.887
297.901
297.911
297.912
297.92
297.918
297.908
297.922
297.933
297.936
297.943
297.941
297.929
297.943
297.956
297.96
297.968
297.964
297.951
297.965
297.98
297.984
297.993
297.988
297.973
297.988
298.004
298.01
298.018
298.012
297.996
298.012
298.029
298.036
298.044
298.037
298.02
298.036
298.054
298.062
298.071
298.063
298.044
298.061
298.08
298.089
298.098
298.089
298.069
298.086
298.107
298.117
298.126
298.116
298.095
298.112
298.134
298.146
298.155
298.144
298.121
298.139
298.162
298.175
298.184
298.172
298.148
298.166
298.191
298.205
298.214
298.2
298.175
298.194
298.22
298.235
298.245
298.23
298.203
298.222
298.249
298.266
298.276
298.26
298.232
298.251
298.279
298.297
298.307
298.29
298.261
298.28
298.31
298.329
298.339
298.321
298.291
298.31
298.341
298.361
298.372
298.352
298.321
298.341
298.373
298.394
298.405
298.384
298.352
298.372
298.405
298.427
298.438
298.416
298.383
298.403
298.437
298.46
298.471
298.449
298.415
298.435
298.47
298.494
298.505
298.481
298.446
298.467
298.502
298.528
298.539
298.514
298.478
298.499
298.535
298.562
298.573
298.547
298.511
298.532
298.568
298.595
298.607
298.58
298.544
298.565
298.602
298.629
298.64
298.614
298.577
298.598
298.635
298.663
298.674
298.647
298.611
298.631
298.668
298.696
298.708
298.68
298.644
298.664
298.701
298.73
298.741
298.713
298.677
298.697
298.733
298.762
298.773
298.745
298.709
298.729
298.765
298.795
298.805
298.777
298.741
298.761
298.796
298.826
298.837
298.808
298.773
298.792
298.827
298.857
298.867
298.838
298.804
298.822
298.857
298.887
298.897
298.868
298.834
298.852
298.886
298.916
298.925
298.897
298.863
298.881
298.914
298.944
298.953
298.924
298.891
298.908
298.941
298.971
298.98
298.951
298.919
298.935
298.967
298.997
299.005
298.977
298.945
298.961
298.992
299.021
299.029
299.001
298.971
298.986
299.016
299.045
299.052
299.025
298.995
299.01
299.039
299.067
299.074
299.047
299.018
299.032
299.061
299.088
299.095
299.069
299.041
299.054
299.082
299.108
299.114
299.089
299.062
299.075
299.101
299.127
299.133
299.108
299.082
299.094
299.12
299.145
299.151
299.126
299.102
299.113
299.138
299.162
299.167
299.144
299.12
299.131
299.154
299.178
299.183
299.16
299.138
299.148
299.17
299.193
299.197
299.176
299.154
299.164
299.185
299.207
299.211
299.19
299.17
299.179
299.199
299.22
299.224
299.204
299.185
299.193
299.213
299.233
299.237
299.217
299.199
299.207
299.225
299.245
299.248
299.23
299.212
299.22
299.238
299.256
299.26
299.242
299.225
299.232
299.249
299.267
299.27
299.253
299.237
299.244
299.26
299.278
299.281
299.265
299.25
299.255
299.271
299.288
299.291
299.276
299.262
299.266
299.282
299.298
299.302
299.287
299.273
299.277
299.292
299.307
299.312
299.298
299.285
299.288
299.302
299.316
299.321
299.307
299.295
299.297
299.311
299.324
299.331
299.318
299.304
299.355
299.378
299.39
299.396
299.4
299.405
299.405
299.404
299.401
299.398
299.394
299.39
299.385
299.38
299.375
299.37
299.364
299.358
299.352
299.345
299.339
299.333
299.327
299.32
299.314
299.307
299.301
299.294
299.288
299.281
299.274
299.268
299.261
299.254
299.246
299.239
299.231
299.223
299.214
299.205
299.196
299.187
299.177
299.168
299.159
299.151
299.145
299.143
299.143
299.151
299.154
299.149
299.147
299.153
299.151
299.153
299.156
299.157
299.16
299.156
299.152
299.154
299.159
299.169
299.173
299.163
299.156
299.157
299.164
299.175
299.18
299.168
299.16
299.161
299.168
299.181
299.183
299.171
299.163
299.163
299.171
299.184
299.186
299.174
299.166
299.166
299.173
299.186
299.189
299.176
299.168
299.168
299.176
299.188
299.191
299.178
299.17
299.17
299.178
299.191
299.193
299.18
299.172
299.171
299.18
299.193
299.196
299.182
299.174
299.173
299.182
299.195
299.198
299.184
299.176
299.175
299.184
299.198
299.201
299.186
299.177
299.178
299.186
299.201
299.204
299.189
299.18
299.18
299.189
299.204
299.207
299.191
299.182
299.182
299.191
299.207
299.21
299.194
299.185
299.185
299.194
299.211
299.214
299.197
299.188
299.189
299.198
299.214
299.218
299.201
299.192
299.192
299.202
299.219
299.223
299.205
299.195
299.196
299.206
299.224
299.229
299.21
299.2
299.201
299.211
299.23
299.235
299.215
299.204
299.205
299.216
299.237
299.243
299.221
299.209
299.211
299.223
299.245
299.252
299.227
299.213
299.214
299.228
299.255
299.26
299.23
299.216
299.215
299.229
299.261
299.262
299.227
299.213
299.211
299.224
299.262
299.27
299.227
299.214
299.217
299.231
299.281
299.298
299.241
299.225
299.232
299.248
299.316
299.33
299.254
299.241
299.247
299.256
299.349
299.384
299.25
299.255
299.267
299.255
299.394
299.668
299.15
299.271
299.336
299.371
299.3
299.366
299.33
299.321
299.346
299.348
299.376
299.378
299.361
299.364
299.393
299.38
299.372
299.416
299.418
299.42
299.448
299.441
299.443
299.471
299.474
299.482
299.514
299.502
299.48
299.52
299.532
299.537
299.563
299.564
299.549
299.592
299.592
299.59
299.624
299.627
299.621
299.65
299.654
299.652
299.667
299.659
299.662
299.649
299.647
299.65
299.624
299.607
299.601
299.52
299.545
299.572
299.472
299.437
299.381
299.185
299.283
299.31
299.205
299.135
298.949
298.672
298.936
299.038
298.773
298.692
298.382
298.041
298.527
298.645
298.378
298.283
297.738
297.217
297.979
298.089
297.868
297.768
296.932
296.273
297.115
297.415
296.722
296.32
296.047
295.784
295.284
295.628
295.123
294.741
295.707
295.918
294.645
294.769
294.595
294.834
296.339
297.018
295.223
294.591
294.727
295.861
297.635
298.598
297.118
295.5
295.8
297.662
299.142
299.664
298.337
296.223
297.682
299.193
300.002
300.301
299.307
297.548
298.148
299.753
300.389
300.626
300.338
299.362
299.182
300.481
300.697
300.643
300.514
299.859
300.417
300.445
301.039
300.644
300.151
299.861
299.978
300.286
300.689
301.068
300.254
300.18
299.685
299.964
300.495
300.448
300.109
299.841
300.042
300.013
300.728
300.262
299.726
299.566
299.652
299.85
300.324
300.717
299.777
299.748
299.353
299.52
300.175
299.939
299.682
299.478
299.373
299.281
300.81
299.844
299.153
299.205
299.263
299.429
299.925
299.609
299.203
299.082
299.109
299.215
299.674
299.681
299.221
299.191
298.993
299.125
299.357
299.427
299.255
299.048
299.019
299.102
299.653
299.298
298.918
298.836
298.876
299.039
299.25
299.84
298.777
298.743
298.734
298.588
298.95
298.981
298.878
298.684
298.596
298.648
298.909
298.963
298.654
298.61
298.421
298.491
299.233
298.711
298.364
298.483
298.428
298.655
298.72
298.719
298.46
298.405
298.42
298.406
298.718
298.603
298.517
298.451
298.213
298.382
298.477
298.554
298.484
298.395
298.364
298.152
298.877
298.223
298.043
298.183
297.992
297.763
298.693
298.433
297.892
298.022
298.04
298.067
298.349
298.136
298.022
297.926
297.917
298.143
298.193
298.454
297.904
297.839
297.825
297.74
298.051
297.923
298.127
297.835
297.755
297.756
297.882
297.934
297.768
297.687
297.445
297.525
298.337
297.816
297.362
297.641
297.548
297.782
297.705
297.608
297.486
297.487
297.419
297.45
297.742
297.642
297.367
297.345
297.404
297.45
297.612
297.601
297.39
297.435
297.316
297.244
297.344
297.787
296.992
297.19
297.122
297.043
297.269
297.236
297.165
297.117
297.064
297.144
297.207
297.217
297.204
297.011
296.798
296.939
297.584
297.238
296.716
296.942
296.862
297.055
296.978
296.964
296.875
296.818
296.786
296.952
297.11
296.982
296.758
296.675
296.648
296.791
297.001
297.269
296.562
296.441
296.612
296.285
296.8
296.561
296.801
296.584
296.549
296.459
296.454
296.72
296.412
296.431
296.379
296.352
296.599
296.656
296.359
296.313
296.224
296.295
296.499
296.499
296.421
296.221
296.019
296.381
296.705
296.305
296.036
296.272
295.874
295.735
296.681
296.169
295.806
295.993
295.911
295.949
296.15
296.123
295.921
295.928
295.919
295.981
296.121
296.073
295.866
295.837
295.808
295.901
296.112
295.985
295.789
295.719
295.634
295.868
296.123
295.175
296.678
295.382
295.529
295.925
295.407
295.304
296.09
295.531
295.445
295.707
295.466
295.462
295.656
295.482
295.377
295.516
295.533
295.553
295.455
295.368
295.254
295.352
295.539
295.518
295.389
295.236
295.146
295.222
295.401
295.513
295.326
295.11
294.984
295.412
295.371
295.246
295.042
295.14
294.879
294.857
295.695
295.247
294.755
294.905
294.826
294.899
295.151
295.035
294.834
294.836
294.81
294.898
295.035
295.042
294.804
294.762
294.724
294.844
295.03
294.971
294.664
294.62
294.546
294.739
294.901
294.75
295.147
294.547
294.908
293.139
295.745
295.707
293.62
294.679
294.237
294.231
294.825
295.231
293.892
294.491
294.168
294.312
294.604
294.754
294.118
294.233
294.089
294.13
294.52
294.456
294.17
294.069
293.971
294.041
294.354
294.411
294.003
293.944
294.156
294.04
294.419
294.128
293.854
293.768
293.88
294.274
294.029
293.952
293.891
293.66
293.722
293.889
294.132
293.985
293.624
293.528
293.528
293.645
294.087
293.891
293.472
293.386
293.38
293.542
293.936
293.731
293.354
293.26
293.19
293.46
293.702
293.788
293.355
293.135
293.028
293.008
293.549
293.514
293.275
292.959
292.912
293.029
293.422
293.346
293.139
292.917
292.825
292.958
293.313
293.306
293.043
292.84
292.676
292.774
293.195
293.169
292.863
292.673
292.554
292.61
293.029
292.989
292.73
292.43
292.473
292.787
293.054
292.961
292.489
292.379
292.291
292.458
293.156
292.794
292.213
292.177
292.126
292.281
292.698
292.465
292.046
291.977
291.951
292.151
292.411
292.319
291.887
291.829
291.746
292.054
292.395
292.382
292.082
291.855
291.622
291.759
292.209
292.326
291.779
291.612
291.423
291.505
292.013
291.887
291.621
291.376
291.166
291.278
291.804
291.788
291.41
291.167
290.995
291.138
291.693
291.62
291.084
290.916
291.104
291.261
291.717
291.185
291.016
290.726
290.721
290.886
291.331
290.988
290.597
290.528
290.473
290.618
291.13
290.953
290.433
290.256
290.116
290.473
290.947
291.045
290.59
290.167
289.964
290.028
290.861
290.677
290.19
289.875
289.704
289.781
290.447
290.259
289.943
289.602
289.419
289.543
290.129
290.259
289.653
289.307
289.535
289.858
290.267
289.957
289.379
289.179
289.183
289.475
289.956
289.513
289.018
288.969
288.809
288.911
289.537
289.211
288.661
288.496
288.385
288.76
289.428
289.369
288.945
288.591
288.181
288.396
289.05
289.043
288.501
288.202
287.899
288.071
288.654
288.569
287.857
287.57
287.705
288.082
288.505
288.261
287.611
287.399
287.46
287.8
288.331
288.01
287.323
287.151
286.872
287.299
287.975
287.695
287.261
286.831
286.389
286.58
287.356
287.484
286.744
286.376
286.141
286.336
287.22
287.214
286.282
285.927
286.111
286.37
287.001
286.347
285.847
285.601
285.377
285.552
286.3
285.716
285.048
284.794
284.638
285.118
286.082
286.017
285.443
284.825
284.39
284.702
285.506
285.37
284.461
283.993
284.022
284.193
285.034
284.325
283.588
283.257
283.16
283.739
284.684
284.642
283.862
283.358
282.978
283.147
283.891
283.386
282.63
282.229
281.864
282.829
283.158
283.183
281.834
281.739
281.442
282.033
283.318
283.101
282.131
281.37
280.743
280.707
281.645
281.36
280.534
280.045
280.116
280.796
281.53
281.045
280.03
279.759
279.008
279.774
280.84
280.221
279.549
278.74
278.258
278.128
279.478
279.732
278.304
277.811
277.288
277.981
279.245
278.998
278.006
277.045
276.623
276.624
278.407
278.356
276.613
276.161
275.696
276.152
278.106
278.505
276.019
275.317
274.996
275.749
278.149
279.186
276.225
275.026
275.224
276.401
279.384
280.913
278.896
276.887
276.64
278.009
279.659
282.748
280.13
278.615
280.249
281.997
284.663
286.269
283.585
281.678
282.778
284.787
287.415
288.297
285.758
283.658
284.404
286.584
288.982
289.574
287.333
285.093
285.731
288.003
290.058
290.468
288.605
286.326
286.875
289.137
290.817
291.124
289.619
287.393
287.879
290.047
291.383
291.602
290.432
288.333
288.755
290.765
291.78
291.937
291.062
289.151
289.517
291.316
292.073
292.204
291.543
289.858
290.172
291.738
292.322
292.438
291.919
290.466
290.736
292.079
292.534
292.621
292.228
290.99
291.223
292.356
292.687
292.748
292.473
291.44
291.636
292.571
292.798
292.851
292.662
291.817
291.976
292.739
292.897
292.946
292.814
292.122
292.247
292.878
292.987
293.031
292.942
292.361
292.459
292.996
293.065
293.101
293.05
292.551
292.63
293.096
293.13
293.162
293.144
292.707
292.772
293.182
293.188
293.216
293.222
292.836
292.887
293.253
293.238
293.26
293.285
292.938
292.977
293.307
293.276
293.294
293.33
293.016
293.044
293.345
293.307
293.322
293.362
293.074
293.093
293.372
293.332
293.345
293.383
293.116
293.129
293.388
293.354
293.365
293.396
293.146
293.155
293.399
293.373
293.381
293.402
293.168
293.175
293.403
293.387
293.393
293.404
293.184
293.188
293.403
293.396
293.4
293.402
293.195
293.198
293.399
293.402
293.404
293.397
293.204
293.205
293.393
293.405
293.405
293.39
293.209
293.211
293.385
293.404
293.404
293.382
293.214
293.215
293.376
293.401
293.4
293.373
293.217
293.217
293.366
293.396
293.393
293.362
293.218
293.218
293.355
293.388
293.385
293.35
293.218
293.217
293.342
293.378
293.375
293.338
293.217
293.215
293.329
293.367
293.363
293.325
293.214
293.211
293.316
293.355
293.351
293.311
293.21
293.206
293.303
293.343
293.338
293.298
293.205
293.201
293.289
293.329
293.324
293.284
293.199
293.194
293.275
293.315
293.31
293.27
293.191
293.185
293.261
293.301
293.296
293.256
293.182
293.174
293.246
293.286
293.281
293.241
293.17
293.162
293.231
293.271
293.266
293.226
293.157
293.148
293.216
293.256
293.251
293.21
293.143
293.133
293.2
293.241
293.236
293.194
293.127
293.117
293.183
293.225
293.22
293.178
293.111
293.1
293.166
293.209
293.204
293.16
293.094
293.082
293.149
293.193
293.187
293.143
293.075
293.063
293.13
293.176
293.17
293.124
293.056
293.042
293.111
293.158
293.152
293.104
293.035
293.021
293.09
293.139
293.133
293.083
293.013
292.999
293.069
293.12
293.113
293.061
292.99
292.975
293.047
293.1
293.093
293.039
292.966
292.951
293.025
293.08
293.072
293.016
292.942
292.926
293.001
293.058
293.05
292.992
292.917
292.901
292.977
293.036
293.028
292.967
292.891
292.876
292.952
293.013
293.005
292.942
292.865
292.85
292.927
292.99
292.981
292.917
292.839
292.823
292.901
292.966
292.957
292.891
292.812
292.796
292.875
292.941
292.932
292.865
292.786
292.769
292.848
292.916
292.906
292.838
292.759
292.742
292.821
292.89
292.88
292.811
292.731
292.714
292.794
292.864
292.854
292.784
292.704
292.687
292.767
292.838
292.828
292.756
292.677
292.66
292.74
292.811
292.801
292.729
292.65
292.633
292.712
292.785
292.774
292.702
292.622
292.606
292.685
292.758
292.747
292.674
292.596
292.579
292.658
292.731
292.721
292.647
292.569
292.552
292.631
292.704
292.694
292.62
292.542
292.526
292.604
292.677
292.667
292.593
292.516
292.5
292.577
292.651
292.64
292.566
292.49
292.474
292.55
292.624
292.614
292.54
292.464
292.448
292.524
292.598
292.588
292.514
292.439
292.423
292.498
292.572
292.562
292.488
292.414
292.398
292.472
292.546
292.536
292.462
292.389
292.374
292.447
292.52
292.51
292.437
292.364
292.35
292.422
292.495
292.485
292.412
292.34
292.326
292.397
292.47
292.46
292.387
292.317
292.302
292.373
292.445
292.435
292.363
292.294
292.279
292.349
292.421
292.411
292.339
292.271
292.256
292.325
292.396
292.387
292.316
292.248
292.234
292.302
292.373
292.363
292.293
292.226
292.212
292.279
292.349
292.34
292.27
292.204
292.19
292.257
292.326
292.317
292.248
292.183
292.169
292.235
292.304
292.295
292.226
292.161
292.148
292.213
292.281
292.273
292.204
292.141
292.128
292.191
292.26
292.251
292.183
292.12
292.108
292.171
292.238
292.23
292.163
292.1
292.088
292.15
292.217
292.209
292.142
292.081
292.068
292.13
292.196
292.188
292.122
292.061
292.049
292.11
292.176
292.168
292.102
292.042
292.03
292.091
292.156
292.148
292.083
292.024
292.012
292.071
292.136
292.129
292.064
292.005
291.994
292.053
292.117
292.109
292.046
291.987
291.976
292.034
292.098
292.091
292.027
291.97
291.959
292.016
292.079
292.072
292.009
291.952
291.942
291.999
292.061
292.054
291.992
291.935
291.925
291.981
292.043
292.036
291.975
291.919
291.908
291.964
292.025
292.019
291.958
291.902
291.892
291.947
292.008
292.001
291.941
291.886
291.876
291.931
291.991
291.985
291.925
291.87
291.86
291.915
291.974
291.968
291.909
291.855
291.845
291.899
291.958
291.952
291.893
291.839
291.83
291.883
291.942
291.936
291.877
291.824
291.815
291.868
291.926
291.92
291.862
291.809
291.8
291.853
291.91
291.904
291.847
291.795
291.786
291.838
291.895
291.889
291.832
291.78
291.771
291.823
291.88
291.874
291.818
291.766
291.757
291.809
291.865
291.859
291.803
291.752
291.744
291.795
291.85
291.845
291.79
291.739
291.73
291.781
291.836
291.83
291.776
291.725
291.717
291.767
291.822
291.816
291.762
291.712
291.704
291.754
291.808
291.803
291.749
291.699
291.691
291.741
291.794
291.789
291.736
291.687
291.679
291.728
291.781
291.776
291.723
291.674
291.666
291.715
291.768
291.763
291.711
291.662
291.654
291.703
291.755
291.75
291.698
291.65
291.642
291.691
291.742
291.737
291.686
291.638
291.631
291.679
291.73
291.725
291.674
291.627
291.619
291.667
291.717
291.713
291.662
291.615
291.608
291.655
291.705
291.701
291.651
291.604
291.597
291.644
291.694
291.689
291.639
291.593
291.586
291.633
291.682
291.677
291.628
291.582
291.575
291.622
291.67
291.666
291.617
291.571
291.564
291.611
291.659
291.655
291.606
291.56
291.554
291.6
291.648
291.644
291.596
291.55
291.543
291.589
291.637
291.633
291.585
291.54
291.533
291.579
291.626
291.622
291.575
291.53
291.523
291.569
291.616
291.612
291.565
291.52
291.513
291.559
291.605
291.601
291.555
291.51
291.504
291.549
291.595
291.591
291.545
291.5
291.494
291.539
291.585
291.581
291.535
291.49
291.485
291.529
291.575
291.571
291.526
291.481
291.475
291.52
291.566
291.562
291.516
291.472
291.466
291.511
291.556
291.552
291.507
291.463
291.457
291.502
291.547
291.543
291.498
291.454
291.448
291.492
291.537
291.534
291.489
291.445
291.439
291.484
291.528
291.524
291.48
291.436
291.431
291.475
291.519
291.515
291.471
291.427
291.422
291.466
291.51
291.506
291.463
291.419
291.414
291.458
291.501
291.498
291.454
291.411
291.405
291.449
291.492
291.489
291.446
291.402
291.397
291.441
291.484
291.48
291.438
291.394
291.389
291.433
291.475
291.472
291.429
291.386
291.381
291.424
291.467
291.464
291.421
291.378
291.373
291.416
291.459
291.455
291.413
291.37
291.365
291.408
291.45
291.447
291.405
291.362
291.357
291.4
291.442
291.439
291.397
291.354
291.349
291.392
291.434
291.431
291.389
291.346
291.342
291.385
291.426
291.423
291.382
291.339
291.334
291.377
291.418
291.415
291.374
291.331
291.326
291.369
291.41
291.407
291.366
291.324
291.319
291.362
291.403
291.399
291.359
291.316
291.312
291.354
291.395
291.391
291.351
291.309
291.304
291.347
291.387
291.384
291.344
291.301
291.297
291.34
291.38
291.376
291.336
291.294
291.29
291.332
291.372
291.369
291.329
291.287
291.283
291.325
291.365
291.361
291.322
291.279
291.276
291.318
291.357
291.354
291.314
291.272
291.268
291.31
291.35
291.347
291.307
291.265
291.261
291.303
291.343
291.339
291.3
291.258
291.254
291.296
291.335
291.332
291.293
291.251
291.248
291.289
291.328
291.325
291.286
291.245
291.241
291.282
291.321
291.318
291.279
291.238
291.234
291.275
291.314
291.311
291.272
291.231
291.227
291.269
291.307
291.304
291.266
291.224
291.22
291.262
291.3
291.297
291.259
291.218
291.214
291.255
291.293
291.29
291.252
291.211
291.207
291.248
291.286
291.284
291.246
291.205
291.201
291.242
291.279
291.277
291.239
291.198
291.194
291.235
291.273
291.27
291.233
291.192
291.188
291.229
291.266
291.264
291.226
291.185
291.182
291.222
291.259
291.257
291.22
291.179
291.175
291.216
291.253
291.25
291.213
291.173
291.169
291.209
291.246
291.244
291.207
291.167
291.163
291.203
291.24
291.237
291.201
291.161
291.156
291.197
291.233
291.231
291.195
291.154
291.15
291.19
291.227
291.225
291.188
291.148
291.144
291.184
291.22
291.218
291.182
291.142
291.138
291.178
291.214
291.212
291.176
291.136
291.132
291.172
291.208
291.205
291.17
291.13
291.126
291.166
291.201
291.199
291.164
291.124
291.12
291.159
291.195
291.193
291.157
291.118
291.114
291.153
291.189
291.186
291.151
291.112
291.108
291.147
291.182
291.18
291.145
291.106
291.102
291.141
291.176
291.174
291.139
291.1
291.096
291.135
291.17
291.167
291.133
291.093
291.09
291.128
291.164
291.161
291.127
291.087
291.084
291.122
291.157
291.155
291.12
291.081
291.077
291.116
291.151
291.148
291.114
291.075
291.071
291.11
291.145
291.142
291.107
291.069
291.065
291.104
291.138
291.135
291.101
291.063
291.059
291.097
291.132
291.129
291.095
291.056
291.053
291.091
291.126
291.122
291.088
291.05
291.046
291.085
291.119
291.116
291.082
291.044
291.04
291.079
291.113
291.11
291.076
291.037
291.034
291.072
291.107
291.103
291.069
291.031
291.028
291.066
291.1
291.097
291.063
291.025
291.022
291.06
291.094
291.091
291.057
291.019
291.016
291.054
291.088
291.084
291.051
291.012
291.01
291.048
291.082
291.078
291.045
291.006
291.004
291.042
291.076
291.072
291.038
291
290.998
291.035
291.07
291.064
291.032
290.993
290.991
291.028
291.062
291.055
291.024
290.986
290.98
291.019
291.053
291.048
291.014
290.965
290.942
291.004
291.037
291.008
290.977
290.894
290.899
290.971
290.996
290.866
290.816
290.565
290.353
290.198
290.136
289.935
289.794
289.713
289.663
289.491
289.329
289.188
289.061
288.948
288.847
288.759
288.681
288.614
288.556
288.506
288.463
288.426
288.394
288.367
288.344
288.325
288.308
288.293
288.281
288.271
288.262
288.254
288.247
288.241
288.236
288.231
288.228
288.224
288.221
288.219
288.216
288.214
288.213
288.211
288.21
288.208
288.207
288.207
288.206
288.205
288.205
288.204
288.204
288.204
288.204
288.204
288.203
288.203
288.203
288.202
288.202
288.201
288.201
288.2
288.2
288.199
288.198
288.197
288.197
288.196
288.195
288.194
288.193
288.193
288.192
288.191
288.19
288.189
288.189
288.188
288.187
288.187
288.186
288.186
288.185
288.185
288.184
288.184
288.184
288.183
288.183
288.183
288.183
288.182
288.182
288.181
288.18
288.179
288.178
288.178
288.178
288.179
288.18
288.183
288.186
288.19
288.196
288.202
288.209
288.217
288.226
288.237
288.248
288.26
288.273
288.288
288.303
288.319
288.337
288.355
288.375
288.396
288.419
288.442
288.467
288.494
288.522
288.551
288.583
288.615
288.65
288.686
288.725
288.765
288.807
288.851
288.898
288.947
288.998
289.051
289.107
289.165
289.226
289.289
289.354
289.423
289.493
289.567
289.643
289.721
289.802
289.885
289.971
290.06
290.15
290.243
290.338
290.435
290.533
290.634
290.736
290.84
290.945
291.051
291.158
291.266
291.375
291.484
291.594
291.704
291.814
291.924
292.034
292.144
292.253
292.361
292.469
292.576
292.682
292.787
292.89
292.993
293.094
293.193
293.291
293.388
293.482
293.576
293.667
293.757
293.845
293.931
294.016
294.098
294.179
294.258
294.335
294.411
294.484
294.556
294.626
294.694
294.76
294.825
294.888
294.949
295.009
295.067
295.123
295.178
295.231
295.282
295.333
295.381
295.428
295.474
295.519
295.562
295.603
295.644
295.683
295.721
295.758
295.793
295.828
295.861
295.893
295.925
295.955
295.984
296.012
296.039
296.065
296.091
296.115
296.139
296.162
296.184
296.205
296.225
296.245
296.264
296.282
296.299
296.316
296.332
296.348
296.363
296.377
296.391
296.404
296.416
296.428
296.44
296.451
296.461
296.471
296.481
296.49
296.498
296.506
296.514
296.522
296.529
296.535
296.542
296.548
296.553
296.559
296.564
296.568
296.572
296.577
296.58
296.584
296.587
296.59
296.592
296.595
296.597
296.598
296.6
296.601
296.602
296.603
296.604
296.604
296.605
296.605
296.605
296.605
296.605
296.605
296.605
296.605
296.605
296.605
296.605
296.605
296.605
296.605
296.605
296.605
296.605
296.606
296.609
296.612
296.616
296.621
296.627
296.633
296.639
296.645
296.651
296.657
296.663
296.669
296.676
296.683
296.689
296.696
296.703
296.71
296.718
296.725
296.733
296.74
296.748
296.756
296.764
296.772
296.78
296.788
296.797
296.805
296.813
296.822
296.83
296.839
296.848
296.856
296.865
296.874
296.882
296.891
296.9
296.908
296.917
296.926
296.934
296.943
296.951
296.96
296.968
296.977
296.985
296.994
297.002
297.01
297.018
297.026
297.034
297.042
297.05
297.057
297.065
297.072
297.079
297.086
297.093
297.1
297.106
297.113
297.119
297.126
297.132
297.138
297.145
297.15
297.155
297.159
297.16
297.161
297.161
297.161
297.16
297.16
297.159
297.159
297.158
297.157
297.157
297.157
297.158
297.16
297.163
297.174
297.174
297.175
297.177
297.179
297.181
297.185
297.188
297.191
297.195
297.199
297.203
297.207
297.211
297.215
297.219
297.223
297.227
297.231
297.235
297.239
297.243
297.247
297.25
297.254
297.258
297.262
297.265
297.27
297.273
297.278
297.281
297.285
297.288
297.293
297.296
297.301
297.304
297.309
297.312
297.317
297.32
297.325
297.328
297.333
297.336
297.342
297.345
297.351
297.354
297.36
297.363
297.369
297.372
297.378
297.382
297.388
297.392
297.398
297.402
297.408
297.412
297.419
297.422
297.429
297.433
297.441
297.444
297.452
297.456
297.464
297.468
297.476
297.48
297.488
297.492
297.501
297.505
297.514
297.519
297.528
297.532
297.542
297.547
297.556
297.561
297.571
297.576
297.587
297.592
297.602
297.608
297.619
297.624
297.636
297.641
297.653
297.659
297.671
297.677
297.689
297.695
297.708
297.715
297.728
297.734
297.748
297.754
297.768
297.775
297.789
297.797
297.811
297.819
297.834
297.841
297.857
297.864
297.88
297.888
297.904
297.913
297.929
297.938
297.955
297.963
297.981
297.99
298.008
298.017
298.035
298.045
298.063
298.073
298.092
298.102
298.122
298.132
298.152
298.162
298.182
298.193
298.214
298.224
298.246
298.257
298.278
298.289
298.311
298.322
298.345
298.356
298.379
298.39
298.413
298.425
298.448
298.46
298.483
298.495
298.518
298.53
298.554
298.566
298.589
298.601
298.625
298.637
298.66
298.672
298.695
298.707
298.73
298.742
298.764