/*--------------------------------*- C++ -*----------------------------------*\
| =========                 |                                                 |
| \\      /  F ield         | OpenFOAM: The Open Source CFD Toolbox           |
|  \\    /   O peration     | Version:  v2006                                 |
|   \\  /    A nd           | Website:  www.openfoam.com                      |
|    \\/     M anipulation  |                                                 |
\*---------------------------------------------------------------------------*/
FoamFile
{
    version     2.0;
    format      ascii;
    class       volScalarField;
    location    "0.022";
    object      turbulenceProperties:I;
}
// * * * * * * * * * * * * * * * * * * * * * * * * * * * * * * * * * * * * * //

dimensions      [0 0 0 0 0 0 0];


internalField   nonuniform List<scalar> 
24416
(
0.149973
0.149972
0.15
0.15
0.15
0.15
0.15
0.15
0.15
0.15
0.15
0.15
0.15
0.15
0.15
0.15
0.15
0.149998
0.149993
0.149989
0.149989
0.149991
0.149994
0.149997
0.149999
0.149999
0.15
0.15
0.149999
0.149999
0.149998
0.149998
0.149997
0.149997
0.149997
0.149996
0.149996
0.149996
0.149996
0.149996
0.149995
0.149995
0.149995
0.149995
0.149995
0.149995
0.149995
0.149994
0.149994
0.149994
0.149994
0.149994
0.149994
0.149994
0.149994
0.149994
0.149994
0.149994
0.149994
0.149993
0.149993
0.149993
0.149993
0.149993
0.149993
0.149993
0.149993
0.149993
0.149993
0.149993
0.149992
0.149992
0.149992
0.149992
0.149992
0.149992
0.149992
0.149992
0.149991
0.149991
0.149991
0.149991
0.14999
0.14999
0.149989
0.149989
0.14999
0.149993
0.149998
0.150005
0.150014
0.150021
0.150023
0.15002
0.150012
0.150005
0.149999
0.149991
0.14998
0.14997
0.149958
0.14997
0.149989
0.149987
0.149998
0.150006
0.150011
0.149862
0.149317
0.145364
0.139274
0.145664
0.14874
0.146525
0.140615
0.134231
0.130298
0.136349
0.144089
0.141274
0.13171
0.126711
0.124196
0.128588
0.138871
0.136127
0.12499
0.121817
0.120266
0.12284
0.134191
0.131798
0.119982
0.118678
0.117615
0.118349
0.130298
0.128143
0.116326
0.116486
0.115814
0.115355
0.127034
0.125205
0.113854
0.115014
0.114598
0.113273
0.124391
0.12281
0.112105
0.114016
0.113758
0.111762
0.122214
0.120825
0.110828
0.113325
0.113162
0.110617
0.120378
0.119152
0.109864
0.112833
0.112729
0.109719
0.118791
0.117708
0.109101
0.11247
0.112404
0.109001
0.117409
0.116439
0.108477
0.112193
0.112153
0.108409
0.116189
0.115309
0.107955
0.111975
0.111953
0.107909
0.115098
0.114291
0.107507
0.111798
0.111786
0.107477
0.11411
0.113365
0.107117
0.111651
0.11165
0.107102
0.113212
0.11252
0.106778
0.11153
0.111535
0.106774
0.11239
0.111743
0.106476
0.111425
0.111434
0.106482
0.111632
0.111024
0.106207
0.111333
0.111346
0.106221
0.11093
0.110357
0.105966
0.111253
0.111269
0.105987
0.110279
0.109737
0.105751
0.111182
0.1112
0.105779
0.109674
0.10916
0.105559
0.11112
0.111141
0.105593
0.109111
0.108624
0.105388
0.111065
0.111088
0.105429
0.108587
0.108126
0.105238
0.111018
0.111043
0.105285
0.108101
0.107664
0.105107
0.110977
0.111004
0.10516
0.10765
0.107235
0.104994
0.110942
0.110971
0.105053
0.107233
0.10684
0.104899
0.110914
0.110945
0.104964
0.106849
0.106476
0.104822
0.110891
0.110924
0.104893
0.106496
0.106142
0.104762
0.110874
0.110909
0.104839
0.106172
0.105836
0.104718
0.110862
0.110899
0.1048
0.105875
0.105557
0.104689
0.110856
0.110895
0.104777
0.105606
0.105304
0.104675
0.110854
0.110896
0.104768
0.105362
0.105076
0.104674
0.110858
0.110902
0.104774
0.105143
0.104872
0.104688
0.110867
0.110913
0.104793
0.104949
0.104692
0.104715
0.11088
0.110928
0.104826
0.104778
0.104535
0.104755
0.110898
0.110948
0.104872
0.10463
0.1044
0.104809
0.110921
0.110973
0.104931
0.104504
0.104287
0.104875
0.110948
0.111003
0.105003
0.104401
0.104196
0.104954
0.11098
0.111037
0.105088
0.104318
0.104125
0.105045
0.111016
0.111076
0.105186
0.104257
0.104076
0.105149
0.111057
0.11112
0.105297
0.104217
0.104048
0.105266
0.111103
0.111168
0.10542
0.104198
0.10404
0.105396
0.111153
0.111222
0.105558
0.1042
0.104052
0.105539
0.111208
0.11128
0.105709
0.104222
0.104085
0.105696
0.111269
0.111344
0.105874
0.104265
0.10414
0.105867
0.111334
0.111413
0.106053
0.10433
0.104215
0.106052
0.111404
0.111487
0.106247
0.104417
0.104313
0.106252
0.11148
0.111566
0.106457
0.104526
0.104433
0.106468
0.111562
0.111652
0.106682
0.104658
0.104577
0.1067
0.111649
0.111743
0.106925
0.104814
0.104744
0.10695
0.111742
0.111841
0.107186
0.104995
0.104937
0.107217
0.111842
0.111946
0.107466
0.105201
0.105155
0.107505
0.111949
0.112058
0.107766
0.105435
0.105401
0.107812
0.112062
0.112177
0.108087
0.105696
0.105675
0.108142
0.112183
0.112304
0.108431
0.105987
0.105979
0.108494
0.112312
0.112439
0.108799
0.106309
0.106315
0.108871
0.11245
0.112583
0.109193
0.106663
0.106684
0.109275
0.112596
0.112737
0.109615
0.107053
0.107089
0.109707
0.112752
0.112901
0.110067
0.10748
0.107532
0.11017
0.112919
0.113076
0.110552
0.107947
0.108017
0.110667
0.113097
0.113263
0.111072
0.108457
0.108546
0.111201
0.113288
0.113464
0.111631
0.109014
0.109123
0.111775
0.113491
0.113679
0.112232
0.109621
0.109753
0.112392
0.11371
0.113909
0.11288
0.110283
0.110439
0.113058
0.113945
0.114157
0.113579
0.111005
0.111187
0.113777
0.114197
0.114424
0.114334
0.111793
0.112004
0.114554
0.11447
0.114712
0.115153
0.112653
0.112896
0.115397
0.114765
0.115024
0.116041
0.113593
0.113871
0.116314
0.115087
0.115363
0.117009
0.114621
0.11494
0.117313
0.115442
0.11573
0.118065
0.11575
0.116114
0.118407
0.115836
0.116129
0.119225
0.116993
0.117409
0.11961
0.116293
0.116867
0.120509
0.118364
0.11884
0.120981
0.117408
0.118228
0.121997
0.119886
0.120439
0.122579
0.118941
0.119912
0.123731
0.121594
0.122243
0.124438
0.120757
0.121868
0.125748
0.12353
0.124297
0.1266
0.122849
0.124119
0.128093
0.125741
0.12665
0.129118
0.125259
0.126719
0.130829
0.128283
0.129363
0.13206
0.128053
0.129743
0.134032
0.131226
0.132519
0.135517
0.131321
0.133311
0.137813
0.134672
0.136243
0.139625
0.135209
0.137601
0.142341
0.138768
0.140702
0.144581
0.139937
0.142894
0.147864
0.143718
0.14614
0.150676
0.145852
0.149653
0.154772
0.149832
0.152945
0.158402
0.153569
0.15873
0.163715
0.157616
0.161772
0.168607
0.164269
0.171852
0.175848
0.167938
0.173771
0.182893
0.180552
0.193219
0.193442
0.182388
0.191447
0.204811
0.20989
0.236913
0.221233
0.203664
0.21947
0.243927
0.284334
0.411427
0.259026
0.235659
0.250794
0.307616
0.361585
0.260409
0.477498
0.283135
0.365715
1
0.246709
0.242133
1
0.546745
0.984128
1
0.239884
0.23626
0.792609
1
1
0.682326
0.23403
0.238569
0.647415
1
1
0.593145
0.231619
0.220542
0.527043
1
1
0.34785
0.171871
0.157001
0.232527
0.604823
0.352757
0.169135
0.159173
0.168046
0.151559
0.282344
0.232691
0.136949
0.167469
0.174251
0.136931
0.223984
0.196532
0.126945
0.172754
0.167483
0.126008
0.190436
0.174484
0.11862
0.159568
0.150746
0.114998
0.170233
0.155659
0.105937
0.145119
0.140695
0.104274
0.154094
0.138028
0.0944107
0.137458
0.135329
0.0938418
0.135261
0.124145
0.0890733
0.132582
0.133998
0.0922234
0.125555
0.126808
0.092511
0.13488
0.139322
0.0965185
0.130689
0.132371
0.0969529
0.143245
0.146755
0.0988375
0.134228
0.134556
0.0986107
0.149045
0.151156
0.0996779
0.135292
0.136027
0.0994397
0.152416
0.153355
0.0990254
0.135557
0.136156
0.0993346
0.154286
0.154553
0.0980726
0.135127
0.135293
0.0979775
0.154921
0.154757
0.0966045
0.134036
0.134023
0.096356
0.15488
0.154739
0.0949045
0.13253
0.13232
0.0944401
0.155004
0.155188
0.0930618
0.130796
0.130458
0.0924072
0.155836
0.156127
0.091474
0.129171
0.128921
0.0908777
0.156379
0.156533
0.090272
0.127942
0.127902
0.0902034
0.156744
0.156801
0.0899267
0.127439
0.128019
0.0905298
0.156985
0.15697
0.0907725
0.12807
0.129874
0.092305
0.15716
0.157107
0.0932538
0.130763
0.133971
0.0958988
0.15733
0.157295
0.0978491
0.136056
0.141067
0.101965
0.157628
0.157662
0.105149
0.14479
0.152255
0.1112
0.158218
0.158503
0.116083
0.158535
0.169427
0.124709
0.159239
0.159942
0.132307
0.179607
0.19584
0.145789
0.16191
0.163908
0.159387
0.212971
0.239265
0.182237
0.168611
0.174232
0.207554
0.270122
0.319704
0.254461
0.189025
0.205969
0.314058
0.385804
0.53239
0.476175
0.298163
0.354785
0.66452
0.700241
1
1
0.675685
0.533959
1
1
0.835487
0.486826
0.210109
0.914774
0.374206
0.240911
0.189361
0.171499
0.163714
0.16354
0.169273
0.184449
0.227427
0.338698
0.576388
1
1
1
1
1
0.722468
0.587767
0.465751
0.40953
0.352035
0.322422
0.291152
0.274812
0.257888
0.249837
0.242022
0.239493
0.23719
0.238155
0.238905
0.24151
0.243433
0.246312
0.248153
0.250375
0.251293
0.25216
0.251418
0.250209
0.247007
0.243138
0.236794
0.230767
0.22125
0.209581
0.193676
0.172506
0.148618
0.136768
0.138572
0.140829
0.136096
0.147427
0.14719
0.136627
0.143431
0.145856
0.13605
0.14617
0.147601
0.137946
0.148301
0.149502
0.138994
0.14889
0.149671
0.13951
0.150745
0.151153
0.140803
0.151979
0.152802
0.141295
0.151559
0.151894
0.142884
0.155303
0.155896
0.143102
0.152152
0.152514
0.144827
0.158551
0.159324
0.145131
0.152542
0.152957
0.147006
0.162068
0.162709
0.1472
0.153067
0.153518
0.14919
0.165716
0.166637
0.149554
0.153492
0.154015
0.151733
0.169717
0.170497
0.152019
0.154095
0.154679
0.154378
0.173939
0.175083
0.154889
0.154684
0.155346
0.157472
0.178607
0.179601
0.157928
0.155483
0.156224
0.160762
0.183593
0.185042
0.161498
0.156329
0.157179
0.16461
0.189153
0.190477
0.165319
0.15743
0.158383
0.168749
0.195152
0.197017
0.169805
0.158645
0.159749
0.173563
0.201849
0.203621
0.174625
0.160176
0.16143
0.178832
0.20917
0.211605
0.180346
0.161921
0.163375
0.184913
0.217368
0.219753
0.186456
0.164048
0.165723
0.191668
0.226463
0.229688
0.193801
0.166521
0.16846
0.199394
0.236669
0.239893
0.20157
0.169448
0.1717
0.208052
0.248142
0.252439
0.210985
0.172855
0.175474
0.217939
0.261131
0.26553
0.220935
0.176842
0.179912
0.229121
0.275976
0.28176
0.233101
0.181397
0.185172
0.242157
0.29312
0.299143
0.245984
0.186341
0.190964
0.257603
0.313247
0.321419
0.26275
0.192082
0.199037
0.278603
0.339016
0.349951
0.286042
0.202097
0.212102
0.306927
0.373144
0.390017
0.319397
0.217759
0.228695
0.342583
0.419006
0.443191
0.358993
0.23722
0.259295
0.392297
0.481128
0.51482
0.44739
0.294364
0.224754
0.323779
0.446049
0.561672
0.462682
0.282137
0.304723
0.502914
0.617648
0.723301
0.573258
0.343607
0.399666
0.682532
0.856563
1
0.881405
0.55173
0.857272
1
1
1
1
1
1
1
1
1
1
1
1
1
1
1
1
1
1
1
1
1
1
0.779629
0.60148
0.77152
0.804941
0.613678
0.605177
0.479818
0.394228
0.504321
0.519562
0.451177
0.436128
0.334874
0.292255
0.37683
0.393795
0.327307
0.323402
0.256101
0.227514
0.286878
0.293868
0.267455
0.260498
0.205813
0.187907
0.235514
0.240221
0.222268
0.217568
0.173325
0.162058
0.205384
0.210185
0.197862
0.194749
0.151547
0.141614
0.185918
0.189372
0.181707
0.174563
0.131863
0.123223
0.155486
0.170319
0.151968
0.137991
0.116977
0.113923
0.128813
0.138607
0.132686
0.125946
0.113626
0.116473
0.126998
0.128084
0.129662
0.131879
0.122665
0.133387
0.138189
0.130288
0.132853
0.146688
0.149733
0.172554
0.160572
0.140507
0.14849
0.174671
0.20428
0.239314
0.190782
0.158672
0.168633
0.20935
0.277648
0.322676
0.234282
0.184351
0.203649
0.25499
0.357263
0.388588
0.284564
0.21334
0.246041
0.283367
0.315095
0.215323
0.793455
0.237707
0.696211
0.331098
0.160082
0.188519
0.392295
1
1
0.551204
0.210288
0.181483
0.395974
1
1
0.441458
0.20183
0.274198
1
1
1
0.62425
0.227013
0.245377
1
1
0.993031
1
0.407015
0.278529
0.997668
1
0.851231
1
0.510692
1
1
0.662659
1
1
0.36264
1
0.811529
0.582138
0.591364
0.940712
0.817513
0.845046
0.601846
0.442427
0.412072
0.477476
0.45579
1
0.481595
0.401567
0.354163
0.417061
0.441491
0.329572
0.375637
0.340488
0.307344
0.30779
0.306619
0.294397
0.319771
0.298862
0.284174
0.289689
0.243257
0.220144
0.214546
0.240577
0.250336
0.254289
0.226864
0.197625
0.208572
0.221191
0.219911
0.222703
0.201537
0.182219
0.204215
0.210382
0.171733
0.149799
0.176753
0.175728
0.185153
0.189109
0.164465
0.155894
0.166171
0.163829
0.171136
0.174304
0.166269
0.158723
0.154816
0.155653
0.126264
0.132327
0.156682
0.148571
0.151088
0.1458
0.138365
0.149784
0.119036
0.11362
0.15033
0.141622
0.130794
0.135748
0.116542
0.114314
0.145232
0.136301
0.12351
0.127174
0.110907
0.111706
0.139475
0.129226
0.114911
0.120489
0.113713
0.108937
0.127954
0.136898
0.0967745
0.0942814
0.107292
0.102357
0.126664
0.132055
0.0965114
0.0940915
0.104609
0.0975828
0.119287
0.120528
0.0938328
0.098098
0.0838207
0.0881828
0.132135
0.117707
0.0886857
0.0892869
0.0815498
0.086393
0.126908
0.111129
0.0838911
0.0866315
0.0774883
0.0821404
0.120132
0.106874
0.0825869
0.0890687
0.0831622
0.0807041
0.11061
0.122442
0.0803948
0.0750937
0.0775163
0.076922
0.107203
0.117474
0.0771895
0.0717198
0.0749953
0.0739945
0.103352
0.112841
0.0747064
0.0688944
0.0756723
0.0717953
0.0998681
0.104486
0.0725346
0.0723086
0.0666748
0.0736647
0.117358
0.102152
0.0680431
0.0666452
0.0639873
0.0742154
0.112209
0.0976402
0.0650869
0.0653323
0.0619627
0.0696663
0.108225
0.0940441
0.064455
0.0657306
0.0627042
0.0644368
0.0990694
0.111992
0.0721945
0.0608883
0.0591631
0.0594094
0.0967043
0.108419
0.0710121
0.0587532
0.0587561
0.0581343
0.0935421
0.104151
0.0679425
0.05764
0.0581383
0.056673
0.0903055
0.100325
0.0647732
0.0563289
0.0572393
0.0576034
0.0872676
0.0932562
0.0583703
0.0547967
0.0564414
0.0702668
0.106427
0.0920513
0.0537852
0.053035
0.0538521
0.0673055
0.103373
0.0894545
0.0523359
0.0517539
0.0526843
0.0651582
0.100591
0.0873211
0.0510577
0.05106
0.0518355
0.0635323
0.0983398
0.0852952
0.0504949
0.0510088
0.0507972
0.0607513
0.0948923
0.0819699
0.0520323
0.0507342
0.0486648
0.0529097
0.0874816
0.0997531
0.0674993
0.0516498
0.047927
0.0495201
0.0867346
0.0984356
0.0636095
0.0496047
0.0473922
0.0479561
0.0845874
0.0947404
0.0614682
0.0488191
0.0468267
0.0471956
0.0821895
0.0923825
0.0603707
0.0481859
0.0465257
0.0470068
0.0803267
0.0894719
0.0590001
0.0474825
0.046994
0.0485598
0.0775559
0.0832613
0.0501581
0.0453994
0.0489221
0.065242
0.095268
0.0828416
0.0470284
0.0452959
0.04744
0.0612537
0.094047
0.0814237
0.0454673
0.0444226
0.0466169
0.0596318
0.0918922
0.0797388
0.0449342
0.0438879
0.0459364
0.0586574
0.0896366
0.0780439
0.0445678
0.0434385
0.0449221
0.0577173
0.0868107
0.0750193
0.0459524
0.0440616
0.0426257
0.0475591
0.0803517
0.0918719
0.0637569
0.0467454
0.0429608
0.0451672
0.0802821
0.0911762
0.0591124
0.045385
0.0422511
0.0432057
0.0787954
0.088525
0.0571603
0.0445536
0.0417273
0.0425779
0.076818
0.0860339
0.056352
0.0439683
0.0414422
0.0425876
0.0749877
0.083392
0.0557881
0.0432099
0.0419647
0.043965
0.0721659
0.0774946
0.0461111
0.0408649
0.0451619
0.0617757
0.0886765
0.0773584
0.0443454
0.0415893
0.0443189
0.0579923
0.0885348
0.0759929
0.0419749
0.0408415
0.0433253
0.0560291
0.0854546
0.074229
0.0414609
0.0402173
0.0427127
0.0553311
0.0833649
0.0724644
0.0414428
0.0398748
0.0418999
0.0547022
0.0809539
0.0705095
0.0427644
0.040464
0.0393176
0.0443653
0.0754035
0.0856704
0.0601713
0.0438843
0.0400965
0.0425795
0.0742081
0.0847658
0.0563826
0.0428381
0.0395309
0.0408659
0.0732053
0.0824936
0.054485
0.042136
0.039144
0.0403652
0.0714752
0.0799933
0.0537134
0.0416713
0.0388534
0.0403167
0.0693959
0.0773663
0.0528719
0.0408149
0.0390917
0.0413495
0.0672064
0.0719776
0.0432791
0.0381941
0.0428202
0.0585389
0.0823908
0.0727059
0.0415616
0.0391907
0.0419452
0.0547214
0.0827229
0.071235
0.0397183
0.0385528
0.0411088
0.053131
0.0795835
0.0686912
0.0394175
0.0380535
0.0400826
0.0519803
0.0764516
0.0667897
0.0404291
0.0382016
0.0371876
0.0419866
0.0715112
0.0813557
0.0574866
0.0420213
0.0382179
0.0407985
0.0713502
0.0807539
0.0534505
0.0411192
0.0376606
0.0387261
0.069504
0.0770262
0.0514767
0.0401584
0.0370745
0.0382823
0.0666523
0.0741226
0.050719
0.0391638
0.0372416
0.0395482
0.064652
0.0695298
0.0416422
0.036556
0.0414529
0.0562323
0.078794
0.0686263
0.0400418
0.0373131
0.0402784
0.052281
0.0776995
0.0666501
0.0378126
0.0366876
0.0389129
0.0503111
0.0740356
0.0642751
0.0388729
0.0367751
0.035917
0.040711
0.0692413
0.0784799
0.0560408
0.0410706
0.0366712
0.0392802
0.0683749
0.0769867
0.0515057
0.0397341
0.0360814
0.0372585
0.0656501
0.0725562
0.0492858
0.0383168
0.035892
0.0380058
0.0630172
0.0680403
0.0399338
0.0351568
0.0403525
0.0549117
0.0773834
0.0673126
0.0387292
0.0359634
0.0392802
0.0509274
0.0756423
0.0645963
0.0365826
0.0352265
0.0375902
0.0484508
0.0714794
0.0615817
0.0371436
0.0349745
0.0342356
0.0388171
0.0665747
0.0753069
0.0537894
0.0393722
0.0350196
0.0380492
0.0653547
0.0731368
0.0495168
0.0378951
0.0345456
0.0368821
0.0621961
0.0663159
0.0379877
0.0334766
0.0390293
0.0536263
0.0751946
0.0652336
0.0374911
0.034298
0.0376137
0.0493631
0.0733881
0.062391
0.0363824
0.0339318
0.0330713
0.0378297
0.0669366
0.074673
0.0528673
0.0383719
0.0335063
0.036284
0.0634592
0.0717919
0.0485579
0.0369595
0.0332465
0.0359172
0.0618471
0.0668067
0.0376438
0.0326173
0.0381949
0.05278
0.0746495
0.0630374
0.0362569
0.0331924
0.0362059
0.047484
0.0702858
0.0596738
0.0348401
0.0323737
0.0316714
0.0361256
0.0645618
0.0725934
0.0513459
0.0366963
0.0324218
0.0362351
0.0619353
0.0660665
0.0365761
0.031563
0.0367543
0.05131
0.0732346
0.0615695
0.0356386
0.0318019
0.031142
0.0364846
0.0666665
0.0750969
0.0520452
0.037023
0.0317686
0.036045
0.0630992
0.0666342
0.0354791
0.0308126
0.0367485
0.0520843
0.0742698
0.062723
0.0353495
0.0311678
0.030455
0.0358866
0.067694
0.0756316
0.0519981
0.0365977
0.0306772
0.0346694
0.0615926
0.065031
0.0350106
0.0296271
0.0360428
0.0514283
0.0738956
0.0623658
0.0348489
0.0302436
0.0294095
0.0345525
0.0661487
0.0733506
0.0501664
0.0352686
0.0292974
0.033539
0.0605934
0.0655249
0.0360766
0.0287418
0.028253
0.0360568
0.0698174
0.0773463
0.0527543
0.0358237
0.0291226
0.0339128
0.0632481
0.068728
0.0347013
0.0282945
0.0274373
0.0356034
0.0717385
0.0777778
0.0399396
0.0275609
0.0265805
0.0368439
0.0815616
0.0875045
0.0422959
0.0273295
0.0264477
0.0378515
0.0901244
0.0982334
0.061848
0.0386543
0.029371
0.0372692
0.0773331
0.0855666
0.0399199
0.0301707
0.0309575
0.0439497
0.0947914
0.101503
0.0471881
0.0317825
0.0323596
0.0500734
0.106841
0.110627
0.0527056
0.0329585
0.0334925
0.0552946
0.112979
0.114644
0.0579005
0.0342238
0.0350167
0.0605299
0.115718
0.116382
0.063389
0.0359208
0.0370351
0.0661581
0.116702
0.1168
0.0692023
0.0381734
0.0396352
0.0721095
0.116759
0.116647
0.075076
0.0410162
0.0427519
0.0777801
0.116484
0.1163
0.0803012
0.0445962
0.0467747
0.0825363
0.1161
0.115886
0.0846964
0.0488853
0.0510747
0.0868135
0.115676
0.115478
0.0888647
0.0532091
0.0554165
0.0908746
0.115307
0.115159
0.0928151
0.0575563
0.0597737
0.0947158
0.11505
0.114969
0.0965406
0.0619036
0.0641109
0.0983282
0.114928
0.114914
0.10004
0.0661916
0.0683051
0.101714
0.114941
0.114994
0.103308
0.0702948
0.0723104
0.104861
0.115084
0.115191
0.106323
0.0741988
0.0761131
0.107736
0.115326
0.115471
0.109053
0.0778997
0.0797017
0.110322
0.115631
0.115794
0.111483
0.0813701
0.0830482
0.112583
0.115956
0.11612
0.113612
0.0845911
0.0861378
0.114559
0.116276
0.116424
0.115425
0.0875432
0.0889515
0.116214
0.116557
0.116679
0.116931
0.0902179
0.0914827
0.117575
0.11678
0.116869
0.118151
0.0926056
0.093728
0.118654
0.116933
0.116986
0.119101
0.0947129
0.0956942
0.11948
0.117013
0.11703
0.11981
0.0965416
0.0973802
0.120072
0.117019
0.117002
0.120299
0.0980986
0.0988053
0.120465
0.116959
0.11691
0.1206
0.0994076
0.0999949
0.120679
0.116837
0.116759
0.120735
0.100499
0.100971
0.120748
0.116662
0.116559
0.120734
0.101386
0.101778
0.120692
0.11644
0.11632
0.120619
0.1021
0.102429
0.120539
0.11618
0.116056
0.12042
0.102669
0.102941
0.120304
0.115899
0.115768
0.120152
0.103116
0.103338
0.120005
0.115602
0.115467
0.11983
0.103462
0.103635
0.119655
0.115294
0.115157
0.119463
0.103722
0.103856
0.119269
0.11498
0.114843
0.119069
0.103915
0.104013
0.118859
0.114664
0.114528
0.118655
0.10405
0.10412
0.118435
0.11435
0.114222
0.11823
0.104144
0.104186
0.118003
0.114072
0.113959
0.117799
0.104202
0.104222
0.117569
0.113816
0.113712
0.117371
0.104234
0.104229
0.117132
0.11357
0.113464
0.116942
0.104242
0.104219
0.116703
0.113326
0.113221
0.116524
0.104233
0.104191
0.116285
0.113087
0.112978
0.116114
0.104182
0.104115
0.11588
0.112849
0.11274
0.11571
0.104093
0.104006
0.115477
0.112612
0.112499
0.115306
0.103974
0.103879
0.115078
0.112375
0.112262
0.114909
0.103839
0.103736
0.11468
0.11214
0.112024
0.114514
0.103693
0.10359
0.114291
0.111906
0.111794
0.114128
0.103544
0.103439
0.11391
0.111676
0.111561
0.113748
0.10339
0.10329
0.113539
0.111445
0.111334
0.113381
0.10324
0.103141
0.113178
0.111222
0.111124
0.113024
0.103087
0.102995
0.112831
0.111021
0.110941
0.112683
0.102939
0.102848
0.112498
0.110842
0.110773
0.112355
0.102789
0.102704
0.112181
0.11068
0.110621
0.112045
0.102643
0.102558
0.111878
0.110532
0.110478
0.111746
0.102495
0.102414
0.111589
0.110397
0.110347
0.111462
0.102349
0.102268
0.111312
0.110272
0.110224
0.111187
0.1022
0.102122
0.111045
0.110156
0.110112
0.110924
0.102053
0.101972
0.110788
0.110048
0.110006
0.110667
0.1019
0.101821
0.110539
0.109946
0.109907
0.11042
0.101746
0.101664
0.110294
0.109852
0.109813
0.110175
0.101587
0.101504
0.110056
0.109761
0.109726
0.109938
0.101424
0.101338
0.109821
0.109676
0.109642
0.109705
0.101255
0.101168
0.109588
0.109594
0.109563
0.109475
0.101082
0.100992
0.109358
0.109516
0.109486
0.109247
0.100903
0.100811
0.109131
0.10944
0.109412
0.109022
0.10072
0.100623
0.108906
0.109368
0.10934
0.108797
0.100531
0.100433
0.108683
0.109297
0.109271
0.108576
0.100338
0.100235
0.108461
0.109228
0.109202
0.108354
0.100139
0.100035
0.108241
0.109161
0.109136
0.108135
0.0999361
0.0998278
0.10802
0.109095
0.10907
0.107916
0.099727
0.0996179
0.107802
0.10903
0.109006
0.107698
0.0995158
0.0994033
0.107585
0.108967
0.108943
0.107481
0.0992993
0.0991851
0.107369
0.108905
0.108881
0.107266
0.0990804
0.0989629
0.107154
0.108843
0.10882
0.107051
0.0988581
0.09874
0.106942
0.108783
0.10876
0.10684
0.0986335
0.0985116
0.10673
0.108724
0.108701
0.106628
0.0984056
0.0982846
0.10652
0.108665
0.108643
0.10642
0.0981772
0.0980527
0.106312
0.108607
0.108585
0.106213
0.0979463
0.0978236
0.106107
0.10855
0.108529
0.10601
0.0977161
0.097591
0.105904
0.108495
0.108473
0.105807
0.0974835
0.0973587
0.105703
0.108439
0.108419
0.105607
0.0972521
0.0971254
0.105505
0.108385
0.108364
0.105409
0.0970201
0.0968951
0.105309
0.108332
0.108312
0.105216
0.0967891
0.096663
0.105117
0.10828
0.10826
0.105025
0.0965578
0.0964335
0.104928
0.108229
0.10821
0.104838
0.0963294
0.0962044
0.104742
0.108179
0.10816
0.104653
0.0961019
0.0959791
0.104559
0.10813
0.108111
0.104472
0.0958759
0.0957521
0.10438
0.108082
0.108063
0.104294
0.0956507
0.095529
0.104203
0.108035
0.108017
0.104119
0.095429
0.0953078
0.10403
0.10799
0.107971
0.103947
0.0952088
0.0950891
0.10386
0.107945
0.107927
0.10378
0.0949917
0.0948729
0.103694
0.107902
0.107884
0.103615
0.0947765
0.0946578
0.103537
0.10786
0.107844
0.103459
0.0945639
0.0944475
0.103378
0.10782
0.107803
0.103295
0.0943565
0.0942441
0.103215
0.107778
0.107762
0.103142
0.0941517
0.0940368
0.103065
0.107738
0.107723
0.102992
0.0939474
0.0938369
0.102917
0.1077
0.107685
0.102847
0.0937476
0.0936364
0.102772
0.107663
0.107648
0.102703
0.0935501
0.093443
0.10263
0.107626
0.107613
0.102563
0.0933567
0.093249
0.102492
0.107591
0.107578
0.102426
0.0931657
0.0930622
0.102356
0.107557
0.107544
0.102292
0.0929787
0.0928748
0.102225
0.107524
0.107511
0.102161
0.0927942
0.0926945
0.102095
0.107491
0.10748
0.102035
0.0926134
0.0925141
0.10197
0.10746
0.107449
0.10191
0.0924355
0.0923403
0.101847
0.10743
0.107419
0.101789
0.0922614
0.0921665
0.101728
0.107401
0.107389
0.101671
0.0920903
0.0919995
0.101611
0.107372
0.107361
0.101556
0.0919231
0.0918323
0.101498
0.107344
0.107334
0.101443
0.0917588
0.091672
0.101387
0.107317
0.107307
0.101335
0.0915996
0.0915135
0.10128
0.107291
0.107281
0.101228
0.0914394
0.0913575
0.101174
0.107266
0.107257
0.101125
0.0912865
0.0912038
0.101072
0.107242
0.107232
0.101024
0.0911356
0.0910567
0.100973
0.107218
0.107209
0.100926
0.0909899
0.0909111
0.100877
0.107195
0.107187
0.10083
0.0908431
0.0907673
0.100782
0.107173
0.107165
0.100738
0.0907045
0.0906277
0.100691
0.107152
0.107143
0.100648
0.0905656
0.0904915
0.100601
0.107131
0.107123
0.100559
0.0904297
0.0903588
0.100515
0.107111
0.107103
0.100472
0.0902951
0.0902278
0.10043
0.107091
0.107084
0.10039
0.0901673
0.0900984
0.100347
0.107072
0.107065
0.100308
0.0900407
0.0899754
0.100268
0.107054
0.107048
0.10023
0.0899184
0.0898507
0.10019
0.107037
0.10703
0.100153
0.0897977
0.0897318
0.100114
0.10702
0.107014
0.100078
0.0896795
0.089616
0.100041
0.107003
0.106997
0.100005
0.0895629
0.0895038
0.0999692
0.106987
0.106982
0.0999351
0.0894506
0.0893908
0.0998986
0.106972
0.106967
0.0998668
0.0893423
0.0892813
0.099831
0.106958
0.106952
0.0997997
0.0892342
0.0891747
0.099765
0.106944
0.106938
0.099734
0.0891284
0.089071
0.0997006
0.10693
0.106924
0.0996697
0.0890249
0.0889704
0.0996392
0.106917
0.106911
0.0996072
0.0889221
0.0888708
0.0995772
0.106904
0.106899
0.0995476
0.0888262
0.0887748
0.0995192
0.106891
0.106887
0.0994886
0.088728
0.0886798
0.0994606
0.106879
0.106875
0.0994327
0.0886359
0.0885857
0.0994043
0.106868
0.106863
0.0993765
0.088544
0.0884977
0.0993503
0.106856
0.106852
0.0993239
0.0884556
0.0884073
0.099297
0.106846
0.106842
0.0992705
0.0883676
0.0883234
0.0992458
0.106835
0.106832
0.0992208
0.0882832
0.0882369
0.0991953
0.106825
0.106822
0.0991701
0.088199
0.0881569
0.0991468
0.106815
0.106812
0.0991229
0.0881184
0.0880742
0.0990988
0.106806
0.106803
0.0990747
0.0880381
0.0879979
0.0990528
0.106797
0.106794
0.09903
0.0879612
0.0879189
0.0990073
0.106789
0.106785
0.0989844
0.0878844
0.0878461
0.0989636
0.10678
0.106777
0.098942
0.087811
0.0877706
0.0989204
0.106772
0.106769
0.0988987
0.0877377
0.0877013
0.098879
0.106764
0.106761
0.0988587
0.0876677
0.0876291
0.098838
0.106756
0.106754
0.0988178
0.0875977
0.0875631
0.0987986
0.106749
0.106747
0.0987801
0.0875309
0.0874937
0.0987595
0.106742
0.10674
0.0987415
0.0874649
0.087429
0.0987224
0.106736
0.106733
0.0987039
0.0874
0.0873664
0.0986868
0.106729
0.106726
0.0986671
0.0873353
0.0873068
0.0986517
0.106722
0.10672
0.0986326
0.0872733
0.0872452
0.098617
0.106716
0.106714
0.0985982
0.0872134
0.0871845
0.0985824
0.10671
0.106708
0.098565
0.087156
0.0871265
0.0985501
0.106705
0.106703
0.0985321
0.0870958
0.087069
0.0985166
0.106699
0.106697
0.0985014
0.0870409
0.0870105
0.0984841
0.106693
0.106692
0.0984702
0.0869863
0.0869563
0.0984533
0.106688
0.106687
0.0984398
0.0869326
0.086903
0.0984234
0.106683
0.106682
0.0984102
0.0868796
0.0868507
0.0983941
0.106678
0.106677
0.0983813
0.0868278
0.0867994
0.0983656
0.106673
0.106672
0.0983529
0.0867769
0.0867494
0.0983376
0.106669
0.106668
0.0983254
0.0867273
0.0867005
0.0983105
0.106664
0.106663
0.0982982
0.0866785
0.0866528
0.0982841
0.10666
0.106659
0.0982719
0.086631
0.0866063
0.0982584
0.106656
0.106655
0.0982461
0.0865842
0.086561
0.0982331
0.106652
0.106651
0.0982211
0.0865384
0.086517
0.0982085
0.106648
0.106647
0.0981967
0.0864932
0.0864721
0.0981839
0.106644
0.106643
0.098173
0.0864514
0.08643
0.0981605
0.10664
0.106639
0.0981498
0.0864082
0.0863867
0.0981371
0.106636
0.106636
0.0981273
0.0863686
0.0863458
0.0981149
0.106633
0.106632
0.098105
0.0863279
0.0863057
0.0980929
0.106629
0.106629
0.0980835
0.0862884
0.0862666
0.0980716
0.106626
0.106625
0.0980622
0.0862495
0.0862283
0.0980506
0.106623
0.106622
0.0980415
0.0862117
0.0861907
0.0980304
0.10662
0.106619
0.0980209
0.0861743
0.0861541
0.0980107
0.106616
0.106616
0.0980008
0.0861379
0.0861189
0.0979917
0.106613
0.106612
0.0979808
0.086101
0.0860858
0.097973
0.10661
0.10661
0.0979625
0.0860668
0.0860487
0.0979537
0.106607
0.106607
0.0979431
0.0860316
0.0860171
0.0979357
0.106604
0.106604
0.0979255
0.0859989
0.0859813
0.097917
0.106602
0.106601
0.0979067
0.085965
0.0859509
0.0978996
0.106598
0.106598
0.0978897
0.0859335
0.0859162
0.0978814
0.106596
0.106595
0.0978715
0.0859008
0.0858867
0.0978638
0.106592
0.106592
0.0978555
0.0858702
0.0858526
0.0978456
0.106589
0.106589
0.0978379
0.0858389
0.0858219
0.0978282
0.106586
0.106586
0.0978204
0.0858084
0.0857915
0.0978111
0.106583
0.106582
0.0978024
0.0857774
0.0857625
0.0977933
0.10658
0.106579
0.097786
0.0857486
0.0857311
0.0977758
0.106577
0.106574
0.0977682
0.0857175
0.0856962
0.0977647
0.106573
0.106572
0.0977486
0.0856861
0.0856722
0.0977385
0.106568
0.106567
0.0977278
0.0856532
0.0856406
0.0977197
0.106563
0.106562
0.097709
0.0856236
0.0856074
0.0977001
0.106559
0.106557
0.0976888
0.0855916
0.0855785
0.0976808
0.106553
0.106552
0.0976698
0.0855613
0.0855447
0.0976605
0.106549
0.106547
0.097649
0.0855289
0.0855157
0.0976409
0.106544
0.106543
0.0976298
0.0854987
0.0854823
0.0976207
0.10654
0.10654
0.0976097
0.0854669
0.0854543
0.0976015
0.106536
0.106537
0.0975929
0.085438
0.0854225
0.0975829
0.106534
0.106535
0.0975755
0.0854088
0.0853934
0.0975663
0.106533
0.106533
0.0975599
0.0853813
0.0853669
0.0975514
0.106532
0.106532
0.0975452
0.085355
0.0853414
0.0975373
0.106531
0.10653
0.0975316
0.0853298
0.085316
0.0975233
0.10653
0.106526
0.0975168
0.0853064
0.0852895
0.0975083
0.106529
0.106506
0.0974946
0.085276
0.0852629
0.0974923
0.106509
0.106483
0.0974647
0.0852485
0.0852289
0.0974397
0.106492
0.106453
0.097341
0.0851026
0.0846718
0.0969625
0.106462
0.106254
0.0961835
0.0839677
0.0833764
0.0956423
0.10617
0.0743361
0.0641253
0.0597471
0.0590503
0.0604083
0.0637338
0.0658936
0.0671049
0.0703053
0.0728519
0.0738436
0.0746256
0.0752434
0.0756492
0.0758753
0.0759241
0.0758299
0.0756255
0.0753443
0.0750155
0.0746639
0.0743088
0.0739641
0.0736394
0.0733405
0.0730699
0.0728281
0.0726141
0.0724261
0.0722615
0.072118
0.0719931
0.0718843
0.0717896
0.0717071
0.0716351
0.0715722
0.0715172
0.071469
0.0714267
0.0713895
0.0713568
0.0713281
0.0713028
0.0712806
0.0712612
0.0712441
0.0712292
0.0712163
0.0712051
0.0711956
0.0711876
0.0711812
0.0711764
0.0711731
0.0711712
0.0711703
0.0711689
0.0711688
0.0711688
0.071169
0.0711693
0.0711698
0.0711702
0.0711708
0.0711714
0.071172
0.0711727
0.0711734
0.0711742
0.0711751
0.0711761
0.0711773
0.0711786
0.0711801
0.0711819
0.0711839
0.0711864
0.0711892