/*--------------------------------*- C++ -*----------------------------------*\
| =========                 |                                                 |
| \\      /  F ield         | OpenFOAM: The Open Source CFD Toolbox           |
|  \\    /   O peration     | Version:  v2006                                 |
|   \\  /    A nd           | Website:  www.openfoam.com                      |
|    \\/     M anipulation  |                                                 |
\*---------------------------------------------------------------------------*/
FoamFile
{
    version     2.0;
    format      ascii;
    class       volScalarField;
    location    "0.022";
    object      turbulenceProperties:L;
}
// * * * * * * * * * * * * * * * * * * * * * * * * * * * * * * * * * * * * * //

dimensions      [0 1 0 0 0 0 0];


internalField   nonuniform List<scalar> 
24416
(
1999.33
1999.31
2000
2000
2000
2000
2000
2000
2000
2000
2000
2000
2000
2000
2000
2000
2000
1999.95
1999.81
1999.53
1999.11
1998.63
1998.14
1997.7
1997.33
1997.02
1996.77
1996.56
1996.38
1996.22
1996.07
1995.93
1995.8
1995.67
1995.56
1995.45
1995.34
1995.25
1995.16
1995.07
1994.99
1994.91
1994.84
1994.76
1994.7
1994.63
1994.56
1994.5
1994.43
1994.36
1994.27
1994.18
1994.05
1993.89
1993.68
1993.37
1992.94
1992.32
1991.42
1990.09
1988.14
1985.26
1981.02
1974.78
1965.59
1952.12
1932.5
1904.13
1863.63
1806.77
1728.85
1625.43
1493.86
1335.09
1155.18
965.197
778.802
608.564
462.838
344.739
253.081
184.174
133.474
96.6367
70.0196
50.8095
36.9818
27.2299
21.0691
20.7699
17.1703
15.2655
15.941
19.8297
27.8974
31.2731
27.5019
12.3404
5.32374
2.44026
1.04624
0.735189
0.850925
0.328645
0.119425
0.0475022
0.0143608
0.00169511
0.000313796
2.12913e-05
2.06165e-05
0.000146925
0.000654109
0.000422957
0.000113873
2.00762e-05
1.97983e-05
0.000102697
0.000345961
0.000300583
9.50617e-05
1.97597e-05
1.97322e-05
9.32841e-05
0.000275621
0.000253856
8.89723e-05
1.9774e-05
1.96958e-05
8.72751e-05
0.000242833
0.000229487
8.34426e-05
1.95231e-05
1.93574e-05
8.25041e-05
0.000223486
0.000214488
8.13976e-05
1.93007e-05
1.92565e-05
8.10191e-05
0.000211572
0.000205488
8.00879e-05
1.92093e-05
1.91739e-05
7.98013e-05
0.000203615
0.000198935
7.89837e-05
1.9134e-05
1.91048e-05
7.87588e-05
0.000197634
0.000193743
7.80226e-05
1.90706e-05
1.90457e-05
7.78267e-05
0.000192761
0.000189374
7.71612e-05
1.90157e-05
1.89937e-05
7.69702e-05
0.000188574
0.000185573
7.63676e-05
1.89669e-05
1.8947e-05
7.61782e-05
0.000184901
0.000182197
7.56325e-05
1.89225e-05
1.89043e-05
7.5442e-05
0.000181628
0.000179163
7.49421e-05
1.88816e-05
1.88646e-05
7.47557e-05
0.000178675
0.000176404
7.42945e-05
1.88433e-05
1.88273e-05
7.41153e-05
0.000175983
0.000173874
7.36867e-05
1.8807e-05
1.87917e-05
7.35161e-05
0.000173508
0.000171531
7.31104e-05
1.87723e-05
1.87576e-05
7.29473e-05
0.000171212
0.000169355
7.2565e-05
1.87389e-05
1.87247e-05
7.24117e-05
0.000169077
0.000167324
7.20495e-05
1.87065e-05
1.86927e-05
7.19051e-05
0.000167082
0.000165423
7.15608e-05
1.86749e-05
1.86615e-05
7.1425e-05
0.000165213
0.000163637
7.10967e-05
1.86441e-05
1.86309e-05
7.09692e-05
0.000163456
0.000161955
7.06553e-05
1.86138e-05
1.86008e-05
7.05356e-05
0.000161799
0.000160368
7.02351e-05
1.85841e-05
1.85712e-05
7.0123e-05
0.000160234
0.000158866
6.98346e-05
1.85547e-05
1.85419e-05
6.97297e-05
0.000158753
0.000157441
6.94526e-05
1.85256e-05
1.8513e-05
6.93544e-05
0.000157348
0.00015609
6.90877e-05
1.84967e-05
1.84842e-05
6.89962e-05
0.000156014
0.000154801
6.87393e-05
1.84681e-05
1.84556e-05
6.86541e-05
0.000154745
0.000153574
6.84064e-05
1.84396e-05
1.84271e-05
6.83276e-05
0.000153537
0.000152405
6.80884e-05
1.84111e-05
1.83987e-05
6.80155e-05
0.000152385
0.000151289
6.77841e-05
1.83827e-05
1.83702e-05
6.77166e-05
0.000151283
0.000150221
6.74924e-05
1.83543e-05
1.83418e-05
6.74302e-05
0.000150229
0.000149197
6.72124e-05
1.83258e-05
1.83132e-05
6.71553e-05
0.000149218
0.000148214
6.69433e-05
1.82972e-05
1.82845e-05
6.68909e-05
0.000148246
0.000147269
6.66842e-05
1.82684e-05
1.82556e-05
6.66363e-05
0.000147311
0.000146359
6.64345e-05
1.82393e-05
1.82264e-05
6.6391e-05
0.000146411
0.000145482
6.61939e-05
1.821e-05
1.8197e-05
6.61548e-05
0.000145544
0.000144636
6.59616e-05
1.81804e-05
1.81672e-05
6.59266e-05
0.000144706
0.000143819
6.57369e-05
1.81503e-05
1.81369e-05
6.57059e-05
0.000143895
0.000143027
6.55192e-05
1.81199e-05
1.81062e-05
6.54916e-05
0.00014311
0.000142259
6.53075e-05
1.80889e-05
1.8075e-05
6.52835e-05
0.000142348
0.000141513
6.51017e-05
1.80573e-05
1.80431e-05
6.50813e-05
0.000141609
0.000140789
6.49013e-05
1.80251e-05
1.80106e-05
6.48842e-05
0.000140891
0.000140085
6.47059e-05
1.79921e-05
1.79773e-05
6.46919e-05
0.000140193
0.0001394
6.45147e-05
1.79584e-05
1.79431e-05
6.45038e-05
0.000139512
0.00013873
6.43272e-05
1.79237e-05
1.7908e-05
6.43193e-05
0.000138847
0.000138074
6.4143e-05
1.78881e-05
1.78719e-05
6.4138e-05
0.000138198
0.000137431
6.39617e-05
1.78513e-05
1.78346e-05
6.39596e-05
0.00013756
0.000136799
6.37829e-05
1.78134e-05
1.77961e-05
6.37835e-05
0.000136933
0.000136177
6.36059e-05
1.77742e-05
1.77563e-05
6.3609e-05
0.000136315
0.000135564
6.34304e-05
1.77335e-05
1.77149e-05
6.34363e-05
0.000135707
0.000134959
6.32564e-05
1.76913e-05
1.7672e-05
6.32649e-05
0.000135106
0.000134361
6.30831e-05
1.76474e-05
1.76273e-05
6.3094e-05
0.000134512
0.000133769
6.29102e-05
1.76016e-05
1.75807e-05
6.29237e-05
0.000133923
0.000133181
6.27375e-05
1.75539e-05
1.7532e-05
6.27536e-05
0.000133339
0.000132597
6.25646e-05
1.7504e-05
1.74811e-05
6.25831e-05
0.000132758
0.000132015
6.23914e-05
1.74518e-05
1.74278e-05
6.24115e-05
0.000132179
0.000131434
6.22178e-05
1.7397e-05
1.73718e-05
6.22386e-05
0.000131601
0.000130854
6.20426e-05
1.73395e-05
1.73129e-05
6.20639e-05
0.000131023
0.000130274
6.18652e-05
1.72789e-05
1.72508e-05
6.18869e-05
0.000130445
0.000129691
6.16851e-05
1.7215e-05
1.71853e-05
6.17072e-05
0.000129864
0.000129105
6.15019e-05
1.71474e-05
1.71161e-05
6.15241e-05
0.000129279
0.000128515
6.13149e-05
1.70759e-05
1.70426e-05
6.13372e-05
0.000128689
0.000127918
6.11236e-05
1.7e-05
1.69647e-05
6.1146e-05
0.000128092
0.000127313
6.09272e-05
1.69194e-05
1.68818e-05
6.09494e-05
0.000127488
0.0001267
6.07253e-05
1.68335e-05
1.67934e-05
6.07469e-05
0.000126874
0.000126077
6.05168e-05
1.67418e-05
1.66989e-05
6.05377e-05
0.000126249
0.00012544
6.03007e-05
1.66438e-05
1.65977e-05
6.03205e-05
0.000125609
0.000124787
6.00752e-05
1.65387e-05
1.64891e-05
6.00934e-05
0.000124951
0.000124113
5.98382e-05
1.64257e-05
1.6372e-05
5.98544e-05
0.00012427
0.000123414
5.95872e-05
1.63039e-05
1.62453e-05
5.96004e-05
0.000123561
0.000122683
5.93193e-05
1.61724e-05
1.61075e-05
5.93251e-05
0.000122812
0.000121904
5.90226e-05
1.603e-05
1.59719e-05
5.89961e-05
0.000121991
0.00012104
5.86454e-05
1.59056e-05
1.58506e-05
5.85751e-05
0.000121053
0.000120054
5.81853e-05
1.57825e-05
1.57238e-05
5.8082e-05
0.000119978
0.00011893
5.76597e-05
1.56497e-05
1.55847e-05
5.75304e-05
0.000118784
0.000117673
5.70793e-05
1.55029e-05
1.543e-05
5.69257e-05
0.000117457
0.000116243
5.64437e-05
1.53388e-05
1.52565e-05
5.62624e-05
0.000115965
0.000114629
5.57466e-05
1.51539e-05
1.506e-05
5.55331e-05
0.0001143
0.000112841
5.49787e-05
1.49434e-05
1.48351e-05
5.47207e-05
0.000112449
0.000110868
5.41164e-05
1.47006e-05
1.45736e-05
5.38017e-05
0.000110378
0.000108627
5.31304e-05
1.44156e-05
1.42637e-05
5.27324e-05
0.000108006
0.000106025
5.19646e-05
1.40731e-05
1.38867e-05
5.14694e-05
0.000105229
0.000102935
5.05468e-05
1.36489e-05
1.34114e-05
4.9917e-05
0.00010189
9.91704e-05
4.8746e-05
1.31006e-05
1.278e-05
4.78947e-05
9.76825e-05
9.43926e-05
4.63458e-05
1.23456e-05
1.18707e-05
4.50669e-05
9.21034e-05
8.80813e-05
4.29084e-05
1.12023e-05
1.03363e-05
4.06755e-05
8.395e-05
7.88717e-05
3.76538e-05
9.14147e-06
6.41774e-06
3.06947e-05
7.04475e-05
6.07761e-05
2.55183e-05
5.58998e-06
6.75441e-06
2.7118e-05
5.6603e-05
5.53663e-05
3.27599e-05
7.70905e-06
8.40197e-06
3.91206e-05
5.67109e-05
6.39212e-05
4.5476e-05
9.17115e-06
9.64131e-06
5.38924e-05
7.82431e-05
9.03803e-05
5.98349e-05
9.75506e-06
9.68763e-06
6.39508e-05
0.000102735
0.000115552
6.69916e-05
9.06066e-06
8.03848e-06
6.99627e-05
0.000129839
0.000139368
6.24271e-05
5.88039e-06
4.46658e-06
4.67766e-05
0.000127769
0.000105015
3.31464e-05
3.67384e-06
3.45654e-06
2.77109e-05
9.63847e-05
8.96209e-05
2.39203e-05
3.60046e-06
3.90499e-06
2.46632e-05
9.39989e-05
8.89685e-05
2.2472e-05
4.45404e-06
5.08577e-06
2.69161e-05
0.000110072
0.00011523
2.76598e-05
5.51742e-06
5.73762e-06
3.37405e-05
0.000144033
0.000143608
3.24843e-05
5.78638e-06
5.73222e-06
3.73602e-05
0.000167086
0.000153911
3.30299e-05
5.37106e-06
5.1663e-06
3.34222e-05
0.000159984
0.000142719
2.93133e-05
4.55909e-06
4.13207e-06
2.8207e-05
0.00013626
0.000118933
2.41559e-05
3.49947e-06
3.12335e-06
2.2673e-05
0.000110911
9.7928e-05
1.97665e-05
2.68879e-06
2.46954e-06
1.87233e-05
9.29077e-05
8.65493e-05
1.72942e-05
2.23605e-06
2.10721e-06
1.67141e-05
8.33334e-05
8.11676e-05
1.60007e-05
1.98364e-06
1.89037e-06
1.54279e-05
7.81545e-05
7.71709e-05
1.50951e-05
1.81901e-06
1.75364e-06
1.45709e-05
7.47021e-05
7.40961e-05
1.43258e-05
1.70703e-06
1.65994e-06
1.3918e-05
7.21867e-05
7.1795e-05
1.372e-05
1.62167e-06
1.58001e-06
1.33487e-05
6.99644e-05
6.95816e-05
1.3149e-05
1.54643e-06
1.51771e-06
1.28439e-05
6.80301e-05
6.77867e-05
1.2676e-05
1.5041e-06
1.50313e-06
1.24955e-05
6.67449e-05
6.68609e-05
1.23966e-05
1.51328e-06
1.53042e-06
1.23373e-05
6.63456e-05
6.69969e-05
1.23843e-05
1.55604e-06
1.58644e-06
1.24234e-05
6.693e-05
6.8187e-05
1.26081e-05
1.62472e-06
1.66553e-06
1.27645e-05
6.85476e-05
7.06239e-05
1.31208e-05
1.71354e-06
1.76127e-06
1.34093e-05
7.15996e-05
7.46229e-05
1.39627e-05
1.81501e-06
1.86479e-06
1.44265e-05
7.62102e-05
8.05162e-05
1.52298e-05
1.91837e-06
1.96273e-06
1.58949e-05
8.25177e-05
8.77782e-05
1.70327e-05
2.0079e-06
2.03694e-06
1.79128e-05
9.02647e-05
9.61112e-05
1.92959e-05
2.05942e-06
2.06402e-06
2.01628e-05
9.88617e-05
0.000105138
2.17033e-05
2.0635e-06
2.02674e-06
2.27991e-05
0.000108352
0.000115548
2.46599e-05
1.98312e-06
1.8864e-06
2.57262e-05
0.000118358
0.000124677
2.79771e-05
1.77319e-06
1.68401e-06
2.94534e-05
0.000128669
0.000133207
3.12535e-05
1.44116e-06
1.58589e-06
3.55363e-05
0.000142976
0.000149721
3.90428e-05
1.62356e-06
2.05447e-06
4.61007e-05
0.000174942
0.000177894
4.81334e-05
3.10576e-06
0.000444674
0.000731555
0.000861105
0.000902431
0.000913844
0.00091496
0.000916755
0.000922146
0.000947061
0.00106068
0.00132354
0.00158419
0.00162729
0.00148733
0.00132129
0.00125862
0.00121425
0.00119014
0.00119131
0.00119001
0.00120348
0.0012209
0.00124503
0.00127996
0.00132409
0.00138808
0.00146277
0.00155693
0.00165748
0.00177506
0.00189248
0.00201665
0.00213144
0.00223877
0.00232578
0.00239144
0.00242823
0.00242868
0.00238895
0.0022988
0.00216557
0.00197677
0.00175968
0.00148726
0.00129631
0.000990852
0.000741727
0.000494634
0.000260794
9.68215e-05
3.56068e-05
6.90175e-06
6.05636e-06
3.07693e-05
8.40769e-05
7.64057e-05
2.74257e-05
5.26182e-06
4.61453e-06
2.41673e-05
6.73501e-05
6.40396e-05
2.29036e-05
4.29542e-06
4.1306e-06
2.25071e-05
6.35286e-05
6.08885e-05
2.17853e-05
4.04879e-06
4.01804e-06
2.20682e-05
6.24589e-05
6.1561e-05
2.17673e-05
4.01758e-06
4.02413e-06
2.23909e-05
6.34415e-05
6.22219e-05
2.18803e-05
4.01008e-06
4.03112e-06
2.25985e-05
6.40887e-05
6.33818e-05
2.22695e-05
4.03759e-06
4.05947e-06
2.30774e-05
6.53751e-05
6.42214e-05
2.25683e-05
4.04733e-06
4.07249e-06
2.33508e-05
6.62479e-05
6.56067e-05
2.30196e-05
4.0803e-06
4.11023e-06
2.38981e-05
6.76999e-05
6.6529e-05
2.33736e-05
4.08811e-06
4.12099e-06
2.42306e-05
6.86862e-05
6.80499e-05
2.38927e-05
4.12883e-06
4.16046e-06
2.48405e-05
7.02451e-05
6.90362e-05
2.42974e-05
4.13771e-06
4.17222e-06
2.52246e-05
7.1316e-05
7.06705e-05
2.48787e-05
4.17959e-06
4.21248e-06
2.58976e-05
7.2971e-05
7.1722e-05
2.53337e-05
4.18843e-06
4.22432e-06
2.63308e-05
7.41172e-05
7.34547e-05
2.59766e-05
4.23068e-06
4.26458e-06
2.70617e-05
7.5842e-05
7.45379e-05
2.6475e-05
4.23868e-06
4.27626e-06
2.7543e-05
7.70468e-05
7.63627e-05
2.71841e-05
4.28122e-06
4.3162e-06
2.83274e-05
7.88258e-05
7.74469e-05
2.77154e-05
4.28791e-06
4.32792e-06
2.8849e-05
8.00488e-05
7.9338e-05
2.84864e-05
4.3312e-06
4.36786e-06
2.9676e-05
8.18624e-05
8.03378e-05
2.90602e-05
4.33679e-06
4.38056e-06
3.01992e-05
8.30046e-05
8.22446e-05
2.9842e-05
4.3824e-06
4.41813e-06
3.1019e-05
8.4846e-05
8.31049e-05
3.04501e-05
4.39706e-06
4.44504e-06
3.15086e-05
8.58685e-05
8.49397e-05
3.11925e-05
4.44997e-06
4.50606e-06
3.23723e-05
8.76999e-05
8.62261e-05
3.17629e-05
4.48988e-06
4.56208e-06
3.32046e-05
8.98916e-05
8.96162e-05
3.31653e-05
4.56999e-06
4.68004e-06
3.49343e-05
9.38623e-05
9.30615e-05
3.49125e-05
4.73098e-06
4.94289e-06
3.69644e-05
9.76365e-05
9.84029e-05
3.77185e-05
5.07271e-06
5.34811e-06
3.97878e-05
0.000103223
0.000102544
3.98907e-05
5.64997e-06
6.55033e-06
4.11656e-05
0.000105365
0.000100978
4.31032e-05
4.67913e-06
1.8211e-06
1.33569e-05
4.35236e-05
8.65282e-05
3.11065e-05
3.32356e-06
3.93489e-06
3.3925e-05
9.07982e-05
0.000119015
3.76736e-05
4.53928e-06
5.1368e-06
5.10609e-05
0.000142525
0.000194547
6.4775e-05
1.24574e-05
2.15212e-05
0.000121362
0.000260163
0.000291888
0.000138708
2.63673e-05
3.02951e-05
0.000154702
0.000324192
0.000318613
0.000158871
3.0729e-05
3.22433e-05
0.000159516
0.000301152
0.00033916
0.000178668
3.6458e-05
4.29768e-05
0.000204658
0.000387889
0.000439171
0.000231468
4.90375e-05
5.73276e-05
0.000283898
0.00052082
0.000680862
0.00036485
6.43897e-05
7.27955e-05
0.000410181
0.000695034
0.000763921
0.000513363
7.87299e-05
9.36313e-05
0.000585705
0.000814569
0.000901019
0.000662541
0.000107715
0.000124204
0.000719712
0.000922507
0.000926377
0.000782682
0.000137874
0.000163316
0.000822737
0.00101455
0.00104254
0.000887849
0.00018238
0.000206797
0.000943998
0.00112182
0.00118395
0.00096322
0.000222786
0.000226423
0.000939173
0.00113757
0.0011165
0.000747608
0.000213076
0.000190359
0.000326032
0.000744819
0.000300189
0.000204989
0.000163323
0.000130205
0.000146235
0.000172894
0.000156616
0.000127197
0.000113111
9.14682e-05
0.000102851
0.000129641
0.000101413
8.63468e-05
7.71329e-05
6.30838e-05
7.15326e-05
9.20924e-05
8.15821e-05
6.19119e-05
5.46952e-05
4.38565e-05
4.95509e-05
6.12329e-05
6.05065e-05
4.49741e-05
3.84375e-05
3.27924e-05
4.03295e-05
5.61629e-05
4.39068e-05
3.36679e-05
2.71479e-05
2.30261e-05
3.19526e-05
4.59227e-05
4.26845e-05
2.89632e-05
1.86767e-05
8.26637e-06
1.59233e-05
2.96711e-05
2.91919e-05
8.37933e-06
1.56448e-06
3.14268e-06
7.6698e-06
2.25484e-05
1.80228e-05
1.11636e-05
2.24354e-06
2.86687e-06
1.01064e-05
2.08802e-05
2.63528e-05
1.83293e-05
4.7117e-06
2.90216e-06
1.84964e-05
2.86675e-05
2.80107e-05
1.43216e-05
3.62267e-06
5.74576e-06
2.66339e-05
3.62517e-05
3.4524e-05
2.25851e-05
3.22143e-06
3.397e-06
2.32042e-05
3.93198e-05
4.17401e-05
2.6922e-05
4.57057e-06
2.53664e-06
2.05524e-05
3.67985e-05
4.6579e-05
2.76792e-05
3.51784e-06
3.48754e-06
2.62398e-05
4.52057e-05
3.7113e-05
1.80453e-05
1.80956e-06
2.74617e-06
2.76291e-05
5.16483e-05
3.95319e-05
2.07929e-05
2.34802e-06
5.25875e-06
3.73716e-05
5.95732e-05
5.65615e-05
2.94375e-05
5.08312e-06
1.32233e-06
1.41293e-05
3.41319e-05
6.00057e-05
3.51966e-05
4.58359e-06
5.06555e-06
3.07179e-05
5.8099e-05
3.19833e-05
1.22893e-05
1.86715e-06
4.31739e-06
3.34287e-05
5.94538e-05
5.66554e-05
2.85653e-05
4.84539e-06
1.91743e-06
9.09652e-06
2.61503e-05
5.23437e-05
3.16799e-05
3.4415e-06
3.12582e-06
1.21856e-05
2.9986e-05
5.64123e-05
3.22905e-05
4.83018e-06
5.38859e-06
2.59625e-05
5.22189e-05
2.18502e-05
7.74861e-06
2.41054e-06
3.51925e-06
3.0347e-05
4.52085e-05
2.56248e-05
1.06467e-05
3.54689e-06
5.09964e-06
2.9245e-05
5.07241e-05
4.74584e-05
2.41913e-05
5.87872e-06
2.9924e-06
7.95432e-06
2.01047e-05
4.5284e-05
2.47663e-05
4.20089e-06
4.97312e-06
2.01971e-05
4.24763e-05
1.66021e-05
6.31495e-06
2.48414e-06
3.23121e-06
2.64849e-05
3.52323e-05
1.88723e-05
8.30893e-06
3.39188e-06
4.0513e-06
2.75085e-05
3.81303e-05
2.10673e-05
9.77247e-06
4.32187e-06
5.29838e-06
2.36923e-05
4.14364e-05
3.74858e-05
1.93167e-05
6.07156e-06
3.20496e-06
6.76259e-06
1.53875e-05
3.15618e-05
2.4166e-05
3.83472e-06
4.18274e-06
8.68411e-06
1.79066e-05
3.69652e-05
2.08519e-05
5.03203e-06
5.89801e-06
1.73387e-05
3.33957e-05
1.38236e-05
6.19491e-06
3.14886e-06
3.63613e-06
2.18435e-05
2.60484e-05
1.51766e-05
7.74089e-06
4.01119e-06
4.28906e-06
2.17613e-05
2.85977e-05
1.64881e-05
8.49089e-06
4.76977e-06
5.50475e-06
1.92891e-05
3.44066e-05
3.04442e-05
1.59501e-05
6.48285e-06
3.55459e-06
6.12665e-06
1.32948e-05
2.32883e-05
1.99022e-05
3.84016e-06
4.3419e-06
7.81763e-06
1.41394e-05
2.61514e-05
2.05067e-05
4.5624e-06
5.06398e-06
8.49115e-06
1.5522e-05
3.0435e-05
1.74553e-05
5.6468e-06
6.53232e-06
1.50441e-05
2.74423e-05
1.22461e-05
6.04899e-06
3.58658e-06
3.92356e-06
1.91246e-05
2.04874e-05
1.28609e-05
7.66516e-06
4.39068e-06
4.5557e-06
1.7725e-05
2.31409e-05
1.40711e-05
7.97488e-06
5.14988e-06
5.69804e-06
1.59245e-05
2.65556e-05
2.40738e-05
1.37925e-05
6.68317e-06
3.71123e-06
6.18686e-06
1.14484e-05
1.90154e-05
1.65051e-05
3.9965e-06
4.52621e-06
7.5339e-06
1.2126e-05
2.11009e-05
1.61184e-05
4.62211e-06
5.09995e-06
8.02119e-06
1.32022e-05
2.23883e-05
1.66037e-05
5.0256e-06
5.56023e-06
8.33335e-06
1.39801e-05
2.47518e-05
1.53459e-05
6.03376e-06
7.01804e-06
1.29344e-05
2.20418e-05
1.10496e-05
6.35716e-06
3.89254e-06
4.101e-06
1.50797e-05
1.75282e-05
1.15716e-05
7.69353e-06
4.69063e-06
4.6926e-06
1.45656e-05
1.89324e-05
1.22124e-05
7.86078e-06
5.08906e-06
4.90311e-06
1.44945e-05
1.94853e-05
1.25798e-05
8.02966e-06
5.33919e-06
5.28014e-06
1.508e-05
2.02919e-05
1.31985e-05
8.41274e-06
5.83203e-06
6.29698e-06
1.451e-05
2.26515e-05
2.0531e-05
1.27698e-05
7.35224e-06
4.19832e-06
6.71464e-06
1.07726e-05
1.6735e-05
1.45721e-05
4.35023e-06
4.9903e-06
7.91417e-06
1.137e-05
1.82473e-05
1.41941e-05
5.03425e-06
5.48569e-06
8.17794e-06
1.2143e-05
1.89462e-05
1.4366e-05
5.29035e-06
5.73157e-06
8.46831e-06
1.26158e-05
1.96161e-05
1.50369e-05
5.66215e-06
6.16794e-06
8.84166e-06
1.30796e-05
2.18608e-05
1.42502e-05
6.52e-06
7.56288e-06
1.25308e-05
1.97307e-05
1.06939e-05
6.99108e-06
4.36043e-06
4.58085e-06
1.43542e-05
1.62643e-05
1.13009e-05
8.01199e-06
5.19378e-06
5.08294e-06
1.37792e-05
1.73928e-05
1.17462e-05
8.07466e-06
5.49226e-06
5.34895e-06
1.34976e-05
1.76776e-05
1.21259e-05
8.41952e-06
5.84815e-06
5.77924e-06
1.41639e-05
1.82357e-05
1.24905e-05
8.8931e-06
6.27417e-06
6.65099e-06
1.3693e-05
2.05179e-05
1.87629e-05
1.23036e-05
7.72025e-06
4.52274e-06
7.10327e-06
1.05112e-05
1.58497e-05
1.40142e-05
4.68606e-06
5.28992e-06
8.10691e-06
1.11474e-05
1.70302e-05
1.3552e-05
5.266e-06
5.72648e-06
8.31628e-06
1.17501e-05
1.75128e-05
1.36393e-05
5.60139e-06
6.02889e-06
8.63734e-06
1.21195e-05
1.809e-05
1.4241e-05
5.96347e-06
6.45908e-06
9.13718e-06
1.25393e-05
2.01647e-05
1.36367e-05
6.80717e-06
7.80354e-06
1.21627e-05
1.83889e-05
1.04298e-05
7.19168e-06
4.54961e-06
4.76375e-06
1.36464e-05
1.56215e-05
1.10139e-05
8.02061e-06
5.33113e-06
5.34928e-06
1.31873e-05
1.65116e-05
1.16182e-05
8.31221e-06
5.86821e-06
5.66593e-06
1.33799e-05
1.68964e-05
1.18687e-05
8.53407e-06
6.05481e-06
5.97762e-06
1.36924e-05
1.73565e-05
1.22379e-05
9.06492e-06
6.55494e-06
6.90036e-06
1.33063e-05
1.95145e-05
1.7941e-05
1.21407e-05
7.96206e-06
4.72717e-06
7.33236e-06
1.0413e-05
1.54752e-05
1.38127e-05
4.87284e-06
5.50795e-06
8.14247e-06
1.10446e-05
1.65251e-05
1.32485e-05
5.48638e-06
5.97184e-06
8.41503e-06
1.16042e-05
1.69764e-05
1.34e-05
5.90489e-06
6.35109e-06
8.81465e-06
1.20135e-05
1.75462e-05
1.40333e-05
6.19523e-06
6.76508e-06
9.33371e-06
1.25071e-05
1.96155e-05
1.35291e-05
7.1546e-06
8.16517e-06
1.22627e-05
1.80065e-05
1.06186e-05
7.51223e-06
4.84508e-06
5.03574e-06
1.38231e-05
1.55363e-05
1.12618e-05
8.3504e-06
5.59582e-06
5.71847e-06
1.35689e-05
1.65341e-05
1.18304e-05
8.66013e-06
6.19488e-06
6.08079e-06
1.36376e-05
1.70683e-05
1.2215e-05
9.19577e-06
6.70697e-06
7.10634e-06
1.32568e-05
1.90415e-05
1.75852e-05
1.21826e-05
8.14437e-06
4.9949e-06
7.61644e-06
1.06464e-05
1.55802e-05
1.36809e-05
5.1803e-06
5.78953e-06
8.54931e-06
1.14077e-05
1.67165e-05
1.37322e-05
5.97175e-06
6.41785e-06
8.96328e-06
1.20555e-05
1.73801e-05
1.39877e-05
6.3283e-06
6.89599e-06
9.43284e-06
1.2508e-05
1.93643e-05
1.35382e-05
7.43891e-06
8.48699e-06
1.23562e-05
1.792e-05
1.08343e-05
7.79791e-06
5.105e-06
5.35029e-06
1.38347e-05
1.56476e-05
1.15783e-05
8.70585e-06
5.96673e-06
6.07592e-06
1.40047e-05
1.68273e-05
1.213e-05
9.21626e-06
6.67771e-06
7.30309e-06
1.31545e-05
1.87746e-05
1.75022e-05
1.21745e-05
8.41537e-06
5.10315e-06
7.69987e-06
1.07125e-05
1.53943e-05
1.36677e-05
5.34766e-06
5.96682e-06
8.72755e-06
1.14545e-05
1.67304e-05
1.38686e-05
6.15481e-06
6.80363e-06
9.33005e-06
1.21996e-05
1.8735e-05
1.32071e-05
7.31912e-06
8.3798e-06
1.21675e-05
1.74307e-05
1.07304e-05
7.76221e-06
5.12457e-06
5.4395e-06
1.36003e-05
1.53663e-05
1.15084e-05
8.75185e-06
6.04598e-06
6.19995e-06
1.37875e-05
1.65475e-05
1.21295e-05
9.33694e-06
6.80276e-06
7.43451e-06
1.31608e-05
1.85982e-05
1.7416e-05
1.22745e-05
8.66986e-06
5.41128e-06
8.02593e-06
1.09554e-05
1.56757e-05
1.35825e-05
5.74032e-06
6.52716e-06
9.24207e-06
1.1798e-05
1.80972e-05
1.32492e-05
7.24032e-06
8.35269e-06
1.2427e-05
1.7094e-05
1.07108e-05
7.76576e-06
5.18718e-06
5.62356e-06
1.32547e-05
1.53214e-05
1.15284e-05
9.04798e-06
6.45097e-06
7.28922e-06
1.31139e-05
1.77188e-05
1.68064e-05
1.23496e-05
8.52243e-06
5.31206e-06
8.00635e-06
1.0811e-05
1.53985e-05
1.36906e-05
5.68491e-06
6.51668e-06
9.21381e-06
1.162e-05
1.77959e-05
1.29392e-05
7.35642e-06
8.58566e-06
1.2241e-05
1.69169e-05
1.08596e-05
8.05033e-06
5.39292e-06
5.89534e-06
1.35779e-05
1.54835e-05
1.18094e-05
9.48639e-06
6.72521e-06
7.6622e-06
1.34247e-05
1.82795e-05
1.74845e-05
1.2818e-05
9.14816e-06
6.16029e-06
8.88232e-06
1.15921e-05
1.76023e-05
1.3736e-05
7.12831e-06
8.59152e-06
1.31901e-05
1.70677e-05
1.13506e-05
8.59647e-06
5.76853e-06
6.88017e-06
1.3383e-05
1.73558e-05
1.69457e-05
1.28912e-05
8.48509e-06
5.79815e-06
8.58414e-06
1.13209e-05
1.71553e-05
1.32537e-05
6.88617e-06
8.30813e-06
1.29086e-05
1.6737e-05
1.10512e-05
8.30411e-06
5.65778e-06
6.8246e-06
1.29871e-05
1.68556e-05
1.6473e-05
1.25629e-05
8.42886e-06
5.83153e-06
8.553e-06
1.11765e-05
1.68963e-05
1.32055e-05
6.91143e-06
8.41856e-06
1.27282e-05
1.65391e-05
1.11736e-05
8.58629e-06
5.94177e-06
7.29282e-06
1.32455e-05
1.7154e-05
1.68996e-05
1.29751e-05
8.90152e-06
6.26633e-06
9.06517e-06
1.1631e-05
1.78421e-05
1.3817e-05
7.89155e-06
1.02198e-05
1.40259e-05
1.74685e-05
1.66366e-05
1.32475e-05
8.19013e-06
5.92175e-06
8.65314e-06
1.14924e-05
1.78251e-05
1.35636e-05
7.71408e-06
1.02771e-05
1.36917e-05
1.75242e-05
1.73593e-05
1.33996e-05
9.12328e-06
8.46624e-06
1.22171e-05
1.6468e-05
1.69755e-05
1.22482e-05
8.00301e-06
7.765e-06
1.10428e-05
1.59384e-05
1.65651e-05
1.10198e-05
7.08791e-06
5.69888e-06
7.80307e-06
1.07409e-05
1.70855e-05
1.27356e-05
8.11125e-06
1.11331e-05
1.29841e-05
1.70897e-05
1.70626e-05
1.34858e-05
1.10569e-05
1.10033e-05
1.38763e-05
1.73166e-05
1.75857e-05
1.42703e-05
1.10329e-05
1.10232e-05
1.47546e-05
1.79577e-05
1.83025e-05
1.51995e-05
1.09746e-05
1.09494e-05
1.57021e-05
1.87456e-05
1.91801e-05
1.61401e-05
1.08894e-05
1.08197e-05
1.66061e-05
1.96189e-05
2.0127e-05
1.70193e-05
1.0744e-05
1.06643e-05
1.74702e-05
2.05855e-05
2.11606e-05
1.78623e-05
1.05819e-05
1.04981e-05
1.82504e-05
2.1642e-05
2.22541e-05
1.8564e-05
1.04136e-05
1.03294e-05
1.88346e-05
2.28901e-05
2.3646e-05
1.90424e-05
1.02458e-05
1.01633e-05
1.9251e-05
2.43566e-05
2.50663e-05
1.94633e-05
1.00829e-05
1.0005e-05
1.96806e-05
2.57374e-05
2.64135e-05
1.99061e-05
9.93039e-06
9.85923e-06
2.01407e-05
2.70578e-05
2.77113e-05
2.03849e-05
9.79242e-06
9.72967e-06
2.06409e-05
2.83374e-05
2.8973e-05
2.09057e-05
9.6718e-06
9.61833e-06
2.11848e-05
2.95769e-05
3.01768e-05
2.14718e-05
9.56997e-06
9.52598e-06
2.17702e-05
3.07469e-05
3.13149e-05
2.20743e-05
9.48697e-06
9.45199e-06
2.239e-05
3.18614e-05
3.24086e-05
2.27092e-05
9.42154e-06
9.39453e-06
2.30358e-05
3.2934e-05
3.34604e-05
2.3363e-05
9.37136e-06
9.35119e-06
2.3696e-05
3.3971e-05
3.44831e-05
2.40241e-05
9.33391e-06
9.31917e-06
2.4361e-05
3.49779e-05
3.54737e-05
2.46837e-05
9.30663e-06
9.29595e-06
2.50136e-05
3.59551e-05
3.6437e-05
2.53268e-05
9.2868e-06
9.27896e-06
2.56441e-05
3.6902e-05
3.73657e-05
2.59406e-05
9.27204e-06
9.2661e-06
2.62424e-05
3.78149e-05
3.82614e-05
2.65197e-05
9.26062e-06
9.2558e-06
2.68008e-05
3.86918e-05
3.91173e-05
2.70543e-05
9.25107e-06
9.24689e-06
2.73142e-05
3.95289e-05
3.99306e-05
2.75437e-05
9.24255e-06
9.23857e-06
2.77792e-05
4.03206e-05
4.06979e-05
2.79825e-05
9.23428e-06
9.23029e-06
2.8195e-05
4.107e-05
4.14252e-05
2.83747e-05
9.22596e-06
9.22177e-06
2.85635e-05
4.17812e-05
4.21122e-05
2.87207e-05
9.2173e-06
9.21296e-06
2.88876e-05
4.24556e-05
4.27744e-05
2.90278e-05
9.20836e-06
9.20399e-06
2.91723e-05
4.30981e-05
4.34074e-05
2.92978e-05
9.19912e-06
9.19514e-06
2.94221e-05
4.37147e-05
4.40156e-05
2.95337e-05
9.19018e-06
9.1865e-06
2.96428e-05
4.43099e-05
4.46016e-05
2.97399e-05
9.18165e-06
9.17823e-06
2.98374e-05
4.48871e-05
4.51687e-05
2.99227e-05
9.17362e-06
9.17052e-06
3.00113e-05
4.54489e-05
4.5721e-05
3.00859e-05
9.16605e-06
9.16331e-06
3.01676e-05
4.59978e-05
4.62627e-05
3.02342e-05
9.15921e-06
9.1569e-06
3.03112e-05
4.65374e-05
4.67939e-05
3.03699e-05
9.1531e-06
9.15128e-06
3.04434e-05
4.7067e-05
4.73178e-05
3.04964e-05
9.14874e-06
9.14777e-06
3.05678e-05
4.75903e-05
4.78324e-05
3.06152e-05
9.14571e-06
9.14534e-06
3.06857e-05
4.81067e-05
4.83423e-05
3.073e-05
9.14378e-06
9.1438e-06
3.08e-05
4.86176e-05
4.88443e-05
3.08404e-05
9.1426e-06
9.14291e-06
3.091e-05
4.91218e-05
4.93397e-05
3.09478e-05
9.14225e-06
9.14277e-06
3.10142e-05
4.96059e-05
4.98092e-05
3.1047e-05
9.14247e-06
9.14312e-06
3.11087e-05
5.00646e-05
5.02577e-05
3.11387e-05
9.14316e-06
9.14392e-06
3.11965e-05
5.05037e-05
5.06866e-05
3.12226e-05
9.14417e-06
9.14505e-06
3.12767e-05
5.09239e-05
5.11009e-05
3.13007e-05
9.14558e-06
9.14656e-06
3.13522e-05
5.13292e-05
5.14995e-05
3.13734e-05
9.14732e-06
9.14843e-06
3.14217e-05
5.17192e-05
5.18858e-05
3.14424e-05
9.1494e-06
9.15064e-06
3.14886e-05
5.20984e-05
5.22607e-05
3.15077e-05
9.15173e-06
9.15313e-06
3.15513e-05
5.24653e-05
5.26255e-05
3.15709e-05
9.15453e-06
9.15659e-06
3.16127e-05
5.2823e-05
5.29796e-05
3.1631e-05
9.15832e-06
9.16097e-06
3.16705e-05
5.31696e-05
5.3324e-05
3.16894e-05
9.16302e-06
9.16621e-06
3.17277e-05
5.3507e-05
5.36571e-05
3.17453e-05
9.16847e-06
9.172e-06
3.17816e-05
5.38329e-05
5.39804e-05
3.17998e-05
9.1746e-06
9.17844e-06
3.18352e-05
5.41496e-05
5.42923e-05
3.1852e-05
9.18132e-06
9.18533e-06
3.18856e-05
5.44546e-05
5.45941e-05
3.1903e-05
9.18855e-06
9.19276e-06
3.19355e-05
5.47501e-05
5.48842e-05
3.19516e-05
9.19623e-06
9.20055e-06
3.19822e-05
5.50338e-05
5.51637e-05
3.19988e-05
9.20429e-06
9.20878e-06
3.20282e-05
5.53084e-05
5.54313e-05
3.20438e-05
9.21269e-06
9.21728e-06
3.20711e-05
5.55703e-05
5.56906e-05
3.20866e-05
9.22141e-06
9.22609e-06
3.21126e-05
5.58225e-05
5.59367e-05
3.21277e-05
9.23033e-06
9.23511e-06
3.21511e-05
5.6063e-05
5.61748e-05
3.21657e-05
9.23945e-06
9.24432e-06
3.21883e-05
5.62929e-05
5.64003e-05
3.22008e-05
9.2487e-06
9.25361e-06
3.22221e-05
5.65123e-05
5.66156e-05
3.22338e-05
9.25804e-06
9.263e-06
3.22541e-05
5.67228e-05
5.68207e-05
3.22638e-05
9.26744e-06
9.2724e-06
3.22827e-05
5.69233e-05
5.70163e-05
3.22917e-05
9.27686e-06
9.28183e-06
3.23093e-05
5.71157e-05
5.72015e-05
3.23172e-05
9.28625e-06
9.2912e-06
3.23328e-05
5.7297e-05
5.738e-05
3.23398e-05
9.29563e-06
9.30054e-06
3.2354e-05
5.74694e-05
5.75463e-05
3.23603e-05
9.3049e-06
9.30977e-06
3.23724e-05
5.76316e-05
5.77065e-05
3.23776e-05
9.31412e-06
9.31892e-06
3.23887e-05
5.77848e-05
5.78554e-05
3.23927e-05
9.3232e-06
9.32793e-06
3.24018e-05
5.79292e-05
5.79955e-05
3.24053e-05
9.33217e-06
9.33683e-06
3.24128e-05
5.80654e-05
5.81261e-05
3.2415e-05
9.34099e-06
9.34555e-06
3.24211e-05
5.81923e-05
5.82479e-05
3.24227e-05
9.34965e-06
9.35413e-06
3.24277e-05
5.83122e-05
5.83604e-05
3.24278e-05
9.35812e-06
9.36251e-06
3.24319e-05
5.84222e-05
5.84679e-05
3.24306e-05
9.36644e-06
9.37073e-06
3.24339e-05
5.85251e-05
5.85647e-05
3.24312e-05
9.37454e-06
9.37874e-06
3.24337e-05
5.86195e-05
5.86569e-05
3.24298e-05
9.38248e-06
9.38657e-06
3.24316e-05
5.87073e-05
5.87397e-05
3.24264e-05
9.39021e-06
9.39419e-06
3.24277e-05
5.87862e-05
5.8816e-05
3.24215e-05
9.39776e-06
9.40165e-06
3.24218e-05
5.8861e-05
5.88847e-05
3.24143e-05
9.40511e-06
9.40888e-06
3.2414e-05
5.89291e-05
5.89455e-05
3.24057e-05
9.41225e-06
9.41594e-06
3.24046e-05
5.89941e-05
5.90064e-05
3.23955e-05
9.4192e-06
9.42277e-06
3.2394e-05
5.90429e-05
5.90601e-05
3.23841e-05
9.42597e-06
9.42945e-06
3.23821e-05
5.90916e-05
5.91059e-05
3.23712e-05
9.43254e-06
9.43592e-06
3.23686e-05
5.91352e-05
5.91461e-05
3.23573e-05
9.43894e-06
9.44223e-06
3.23543e-05
5.91749e-05
5.9181e-05
3.23422e-05
9.44514e-06
9.44834e-06
3.23386e-05
5.92075e-05
5.92142e-05
3.23262e-05
9.4512e-06
9.45431e-06
3.23223e-05
5.92361e-05
5.92407e-05
3.23091e-05
9.45708e-06
9.46008e-06
3.23046e-05
5.92604e-05
5.9263e-05
3.22912e-05
9.46278e-06
9.46571e-06
3.22866e-05
5.92811e-05
5.9281e-05
3.22724e-05
9.46833e-06
9.47116e-06
3.22675e-05
5.92972e-05
5.92953e-05
3.22508e-05
9.47373e-06
9.47645e-06
3.22518e-05
5.93092e-05
5.9306e-05
3.22291e-05
9.47897e-06
9.48164e-06
3.22258e-05
5.93196e-05
5.93105e-05
3.22103e-05
9.48407e-06
9.48665e-06
3.22085e-05
5.93267e-05
5.93127e-05
3.21923e-05
9.48893e-06
9.49146e-06
3.21855e-05
5.9329e-05
5.93149e-05
3.217e-05
9.49369e-06
9.49617e-06
3.21637e-05
5.93295e-05
5.93121e-05
3.21482e-05
9.49834e-06
9.50075e-06
3.21415e-05
5.93264e-05
5.93093e-05
3.2126e-05
9.50288e-06
9.50522e-06
3.21193e-05
5.93218e-05
5.93006e-05
3.21038e-05
9.50729e-06
9.50957e-06
3.20967e-05
5.93133e-05
5.92943e-05
3.20812e-05
9.51159e-06
9.51381e-06
3.20741e-05
5.93044e-05
5.92797e-05
3.20586e-05
9.51576e-06
9.51793e-06
3.20511e-05
5.92907e-05
5.92704e-05
3.20357e-05
9.51984e-06
9.52194e-06
3.20283e-05
5.92764e-05