/*--------------------------------*- C++ -*----------------------------------*\
| =========                 |                                                 |
| \\      /  F ield         | OpenFOAM: The Open Source CFD Toolbox           |
|  \\    /   O peration     | Version:  v2006                                 |
|   \\  /    A nd           | Website:  www.openfoam.com                      |
|    \\/     M anipulation  |                                                 |
\*---------------------------------------------------------------------------*/
FoamFile
{
    version     2.0;
    format      ascii;
    class       volVectorField;
    location    "0.022";
    object      U;
}
// * * * * * * * * * * * * * * * * * * * * * * * * * * * * * * * * * * * * * //

dimensions      [0 1 -1 0 0 0 0];


internalField   nonuniform List<vector> 
24416
(
(77.1063 -0.00085921 -1.9917e-19)
(77.1066 -0.000259253 0)
(77.0958 -2.23004e-05 0)
(77.0958 -8.44319e-05 -9.92346e-21)
(77.096 -0.000126655 1.6504e-20)
(77.0964 -0.000200687 -2.92549e-21)
(77.097 -0.000271744 0)
(77.0978 -0.000338199 1.47349e-21)
(77.0988 -0.000407278 1.59424e-21)
(77.0999 -0.000470796 -3.24132e-21)
(77.1011 -0.000540052 -5.44427e-23)
(77.1026 -0.0006053 0)
(77.1041 -0.000675191 0)
(77.1058 -0.000741613 0)
(77.1077 -0.000812242 0)
(77.1098 -0.000864214 -6.46936e-25)
(77.1118 -0.000935318 0)
(77.1144 -0.00092373 0)
(77.1136 -0.00133354 0)
(77.1 -0.00356165 0)
(77.0644 -0.00839879 0)
(77.0062 -0.0149637 0)
(76.9306 -0.0220331 0)
(76.8439 -0.0287643 0)
(76.7513 -0.034697 0)
(76.6563 -0.0396952 0)
(76.5603 -0.0438341 0)
(76.464 -0.0472988 0)
(76.3669 -0.0502727 0)
(76.2686 -0.0528944 0)
(76.1688 -0.0552569 0)
(76.067 -0.057417 0)
(75.963 -0.0594074 0)
(75.8568 -0.0612478 0)
(75.7485 -0.0629496 0)
(75.6381 -0.0645179 0)
(75.5257 -0.0659618 0)
(75.4114 -0.0672954 0)
(75.2953 -0.0685301 0)
(75.1776 -0.069676 0)
(75.0583 -0.0707414 0)
(74.9375 -0.0717327 0)
(74.8152 -0.0726546 0)
(74.6916 -0.0735099 0)
(74.5668 -0.0743002 0)
(74.4408 -0.0750262 0)
(74.3137 -0.0756877 0)
(74.1856 -0.0762839 0)
(74.0567 -0.0768123 0)
(73.927 -0.0772702 0)
(73.7966 -0.0776621 0)
(73.6657 -0.0779953 0)
(73.5343 -0.0782689 0)
(73.4026 -0.0784791 0)
(73.2706 -0.078625 0)
(73.1385 -0.0787097 0)
(73.0064 -0.0787319 -1.74062e-22)
(72.8743 -0.0786784 0)
(72.7425 -0.0785442 0)
(72.611 -0.0783347 8.71192e-23)
(72.4798 -0.0780511 0)
(72.3493 -0.0776945 0)
(72.2193 -0.0772674 0)
(72.0901 -0.0767723 0)
(71.9617 -0.0762104 0)
(71.8343 -0.0755816 0)
(71.708 -0.0748863 0)
(71.5828 -0.074125 0)
(71.4589 -0.0732979 0)
(71.3364 -0.072405 0)
(71.2153 -0.0714455 0)
(71.0957 -0.0704179 0)
(70.9778 -0.0693191 0)
(70.8616 -0.0681446 0)
(70.7471 -0.0668884 0)
(70.6347 -0.0655436 0)
(70.5242 -0.0641033 0)
(70.416 -0.062563 0)
(70.31 -0.060922 0)
(70.2065 -0.0591843 0)
(70.1055 -0.0573581 0)
(70.007 -0.0554498 0)
(69.9104 -0.0534522 0)
(69.8154 -0.0513257 0)
(69.7208 -0.0489731 0)
(69.6257 -0.0462123 -1.62538e-22)
(69.5293 -0.0427577 0)
(69.4318 -0.0382347 0)
(69.3358 -0.0324344 0)
(69.2476 -0.025608 -1.48049e-22)
(69.1771 -0.0186458 -2.67431e-22)
(69.1333 -0.0129186 -8.64386e-22)
(69.1181 -0.00949245 -1.12293e-21)
(69.1236 -0.00814672 0)
(69.1388 -0.00777874 0)
(69.1569 -0.00768038 0)
(69.1753 -0.00757995 0)
(69.1926 -0.00752729 -5.59834e-21)
(69.2082 -0.00753304 0)
(69.2202 -0.00801883 0)
(69.2253 -0.00919837 0)
(69.2102 -0.00861015 0)
(69.181 -0.00626219 0)
(69.123 -0.0176934 0)
(69.0094 -0.0361359 -5.54023e-19)
(68.8571 -0.061627 7.53444e-19)
(68.6566 -0.0981425 0)
(68.3489 -0.132049 6.23013e-19)
(68.0054 -0.149251 -8.10614e-19)
(66.6895 -0.205627 0)
(65.8161 -0.18212 0)
(67.9978 -0.232356 0)
(68.4197 -0.212651 -6.38199e-18)
(68.4566 -0.247056 1.25957e-18)
(67.9049 -0.26654 -3.94646e-19)
(64.8684 -0.177698 2.45645e-19)
(63.9361 -0.161739 -1.0568e-18)
(67.77 -0.259123 3.48801e-19)
(68.4839 -0.250094 -1.14696e-18)
(68.4873 -0.23641 1.11916e-18)
(67.6097 -0.233797 8.5911e-20)
(63.0838 -0.140213 8.5354e-19)
(62.3071 -0.119825 -4.92815e-20)
(67.439 -0.213912 -8.10273e-20)
(68.464 -0.224395 -6.70458e-20)
(68.4178 -0.210258 6.72108e-20)
(67.2291 -0.192401 0)
(61.6079 -0.103788 4.95725e-20)
(60.9757 -0.092656 0)
(67.0193 -0.175921 -5.07238e-21)
(68.3582 -0.198559 0)
(68.2846 -0.184607 0)
(66.7849 -0.159374 5.0774e-21)
(60.3683 -0.0840029 0)
(59.8068 -0.0784237 -3.10865e-21)
(66.5925 -0.151021 5.06429e-21)
(68.2068 -0.176265 -4.21105e-21)
(68.1207 -0.17 4.23482e-21)
(66.3969 -0.14231 -5.0739e-21)
(59.2937 -0.0720323 1.55718e-21)
(58.8274 -0.0654704 7.33757e-26)
(66.203 -0.13225 -1.26909e-21)
(68.032 -0.163143 0)
(67.9355 -0.157341 5.43099e-19)
(66.007 -0.124784 1.26998e-21)
(58.3897 -0.0603455 1.55835e-21)
(57.9865 -0.0554523 0)
(65.8137 -0.116874 0)
(67.8356 -0.151535 0)
(67.7299 -0.146831 -5.43767e-19)
(65.6202 -0.111306 0)
(57.6034 -0.0517736 0)
(57.2478 -0.048037 0)
(65.4307 -0.104949 0)
(67.6226 -0.141869 0)
(67.5109 -0.137989 -5.44295e-19)
(65.2416 -0.100742 0)
(56.9065 -0.0453536 0)
(56.5875 -0.0423968 0)
(65.057 -0.0955021 0)
(67.3989 -0.13369 0)
(67.2834 -0.130518 0)
(64.8728 -0.0923354 0)
(56.279 -0.0404248 0)
(55.9887 -0.0380151 0)
(64.6932 -0.0879007 0)
(67.1686 -0.12677 -5.4495e-19)
(67.0509 -0.124178 0)
(64.5139 -0.0855392 0)
(55.7062 -0.0365611 0)
(55.4389 -0.0345354 0)
(64.3394 -0.0816789 0)
(66.9344 -0.120876 0)
(66.8155 -0.118667 0)
(64.1649 -0.0799164 0)
(55.1777 -0.0334608 0)
(54.929 -0.0317727 0)
(63.995 -0.0766325 0)
(66.6983 -0.115578 -5.45657e-19)
(66.5785 -0.113825 0)
(63.825 -0.0752658 0)
(54.685 -0.0309307 0)
(54.4518 -0.0294982 0)
(63.6594 -0.0724178 0)
(66.461 -0.111135 0)
(66.3414 -0.109379 0)
(63.4941 -0.0711503 0)
(54.2228 -0.0287582 0)
(54.0033 -0.0276445 0)
(63.3332 -0.0688978 0)
(66.2245 -0.107227 -5.46235e-19)
(66.1045 -0.105653 0)
(63.1714 -0.0676298 0)
(53.7861 -0.0269104 0)
(53.5767 -0.0260743 0)
(63.0132 -0.0659856 0)
(65.9871 -0.10425 0)
(65.8655 -0.103444 0)
(62.8534 -0.0654642 0)
(53.3686 -0.0257157 0)
(53.1679 -0.0246748 0)
(62.6979 -0.0632738 0)
(65.7477 -0.101386 -5.46734e-19)
(65.6264 -0.100914 0)
(62.5412 -0.0630698 0)
(52.9687 -0.0244814 0)
(52.776 -0.0235493 0)
(62.3884 -0.0610845 0)
(65.5086 -0.0990401 5.46962e-19)
(65.3868 -0.0988564 0)
(62.2339 -0.0610998 0)
(52.584 -0.0234587 0)
(52.3978 -0.0225766 0)
(62.0831 -0.0591959 0)
(65.2688 -0.0970311 0)
(65.1465 -0.0971018 0)
(61.9305 -0.0594027 0)
(52.2121 -0.022576 0)
(52.0316 -0.0217434 0)
(61.7815 -0.0575854 0)
(65.0282 -0.0953502 0)
(64.9054 -0.0956321 0)
(61.6305 -0.0579545 0)
(51.8511 -0.0218187 0)
(51.6755 -0.0210241 0)
(61.4828 -0.0562047 0)
(64.7867 -0.0939473 0)
(64.6632 -0.0944118 -5.47634e-19)
(61.333 -0.056714 0)
(51.4996 -0.0211645 0)
(51.3281 -0.020402 0)
(61.1865 -0.0550224 0)
(64.5439 -0.0927916 0)
(64.4197 -0.0934027 0)
(61.0377 -0.0556478 0)
(51.1561 -0.0205963 0)
(50.9882 -0.0198611 0)
(60.8919 -0.0540094 0)
(64.2997 -0.0918546 0)
(64.1746 -0.0926158 0)
(60.7438 -0.0547513 0)
(50.8196 -0.0201077 0)
(50.6548 -0.0193891 0)
(60.5986 -0.0531447 0)
(64.0538 -0.0911088 0)
(63.9276 -0.0920316 0)
(60.4509 -0.0540018 0)
(50.4891 -0.0196849 0)
(50.3269 -0.0189807 0)
(60.306 -0.0524212 0)
(63.8058 -0.0905462 0)
(63.6786 -0.091597 -5.48323e-19)
(60.1585 -0.0533693 0)
(50.1636 -0.0193155 0)
(50.0035 -0.0186257 0)
(60.0137 -0.051818 0)
(63.5557 -0.0901456 0)
(63.4272 -0.091309 0)
(59.8662 -0.0528487 0)
(49.8423 -0.0189963 0)
(49.6841 -0.018313 0)
(59.7213 -0.0513086 0)
(63.3031 -0.0898723 0)
(63.1733 -0.0911202 0)
(59.5736 -0.052403 0)
(49.5247 -0.0187112 0)
(49.3681 -0.0180378 0)
(59.4284 -0.0508846 0)
(63.0478 -0.0897312 0)
(62.9167 -0.0910858 0)
(59.2803 -0.052059 0)
(49.2101 -0.0184696 0)
(49.0548 -0.0177998 0)
(59.1347 -0.0505488 0)
(62.7896 -0.0897188 0)
(62.6569 -0.0912055 -5.48936e-19)
(58.986 -0.0518117 0)
(48.898 -0.0182667 0)
(48.7437 -0.017601 0)
(58.8397 -0.0503069 0)
(62.5281 -0.0898351 0)
(62.3938 -0.0914014 0)
(58.6903 -0.051625 0)
(48.5878 -0.0180899 0)
(48.4342 -0.0174376 0)
(58.5431 -0.0501508 0)
(62.2633 -0.0900886 0)
(62.1271 -0.0917505 0)
(58.3928 -0.0515416 0)
(48.2789 -0.0179566 0)
(48.1258 -0.0173065 0)
(58.2445 -0.0500732 0)
(61.9946 -0.0904564 0)
(61.8565 -0.0922475 0)
(58.093 -0.0515461 0)
(47.9708 -0.0178567 0)
(47.8179 -0.0172113 0)
(57.9435 -0.0500858 0)
(61.7219 -0.0909584 0)
(61.5817 -0.0928512 0)
(57.7907 -0.0516217 0)
(47.663 -0.0177853 0)
(47.51 -0.0171487 0)
(57.6397 -0.0501794 0)
(61.4447 -0.0915876 0)
(61.3023 -0.093567 0)
(57.4853 -0.0517734 0)
(47.3549 -0.017745 0)
(47.2017 -0.0171103 0)
(57.3328 -0.0503337 0)
(61.163 -0.0923093 0)
(61.0183 -0.0943531 0)
(57.1767 -0.051971 0)
(47.0462 -0.0177229 0)
(46.8925 -0.017099 0)
(57.0224 -0.0505579 0)
(60.8763 -0.0931525 0)
(60.7291 -0.0953254 0)
(56.8645 -0.0522765 0)
(46.7365 -0.0177426 0)
(46.582 -0.0171171 0)
(56.7081 -0.0508571 0)
(60.5843 -0.0941086 0)
(60.4345 -0.0963605 0)
(56.5481 -0.0526191 0)
(46.4251 -0.017775 0)
(46.2697 -0.0171695 0)
(56.3896 -0.0512466 0)
(60.2867 -0.0952162 0)
(60.134 -0.097602 0)
(56.2273 -0.0530891 0)
(46.1117 -0.0178564 0)
(45.955 -0.0172523 0)
(56.0662 -0.0517199 0)
(59.983 -0.0964502 0)
(59.8273 -0.0989467 0)
(55.9014 -0.0536158 0)
(45.7956 -0.0179559 0)
(45.6374 -0.0173694 0)
(55.7376 -0.0522825 0)
(59.6727 -0.0978091 0)
(59.5139 -0.100365 0)
(55.5701 -0.0542083 0)
(45.4764 -0.0180808 0)
(45.3164 -0.0175115 0)
(55.4034 -0.0529151 0)
(59.3558 -0.0992943 0)
(59.1935 -0.101955 0)
(55.2329 -0.0549034 0)
(45.1535 -0.0182451 0)
(44.9916 -0.0176773 0)
(55.0632 -0.0536148 0)
(59.0319 -0.100959 0)
(58.8659 -0.103729 0)
(54.8895 -0.0556775 0)
(44.8266 -0.0184406 0)
(44.6624 -0.0178805 0)
(54.7164 -0.0544047 0)
(58.7003 -0.102785 0)
(58.5302 -0.10565 0)
(54.5392 -0.0565321 0)
(44.495 -0.0186661 0)
(44.3283 -0.0181141 0)
(54.3625 -0.0552808 0)
(58.3605 -0.104764 0)
(58.1862 -0.107729 0)
(54.1816 -0.0574751 0)
(44.1582 -0.0189216 0)
(43.9887 -0.0183802 0)
(54.001 -0.0562518 0)
(58.0121 -0.106912 0)
(57.8332 -0.109976 0)
(53.8161 -0.0585114 0)
(43.8156 -0.019209 0)
(43.6431 -0.0186774 0)
(53.6314 -0.0573142 0)
(57.6544 -0.109225 0)
(57.4708 -0.112386 0)
(53.4421 -0.0596379 0)
(43.4667 -0.019526 0)
(43.2908 -0.0190052 0)
(53.2529 -0.0584694 0)
(57.2871 -0.111704 0)
(57.0984 -0.114968 0)
(53.059 -0.06086 0)
(43.111 -0.0198746 0)
(42.9314 -0.0193679 0)
(52.8651 -0.0597287 0)
(56.9094 -0.114373 0)
(56.7154 -0.117779 0)
(52.6663 -0.0622064 0)
(42.7477 -0.0202658 0)
(42.5641 -0.0197644 0)
(52.4673 -0.0610889 0)
(56.5209 -0.11722 0)
(56.3212 -0.120704 0)
(52.2633 -0.0636138 0)
(42.3763 -0.0206747 0)
(42.1884 -0.0201964 0)
(52.059 -0.062552 0)
(56.1209 -0.120264 0)
(55.9154 -0.123839 0)
(51.8494 -0.0651427 0)
(41.9962 -0.0211263 0)
(41.8038 -0.0206618 0)
(51.6394 -0.0641207 0)
(55.7089 -0.123504 0)
(55.497 -0.127248 0)
(51.4239 -0.0668109 0)
(41.6067 -0.0216237 0)
(41.4093 -0.0211678 0)
(51.2077 -0.0658092 0)
(55.284 -0.126961 0)
(55.0655 -0.130788 0)
(50.9861 -0.0685479 0)
(41.2071 -0.0221409 0)
(41.0045 -0.0217101 0)
(50.7635 -0.0676064 0)
(54.8456 -0.13063 0)
(54.6201 -0.134548 0)
(50.5352 -0.0704113 0)
(40.7968 -0.0227013 0)
(40.5887 -0.0222835 0)
(50.3059 -0.0695067 0)
(54.3931 -0.134492 0)
(54.1602 -0.138545 0)
(50.0706 -0.0723935 0)
(40.3752 -0.0232984 0)
(40.1611 -0.0228988 0)
(49.8341 -0.0715352 0)
(53.9256 -0.138593 0)
(53.685 -0.14277 0)
(49.5915 -0.0744983 0)
(39.9415 -0.0239347 0)
(39.7212 -0.0235537 0)
(49.3474 -0.0736901 0)
(53.4424 -0.142932 0)
(53.1936 -0.147243 0)
(49.097 -0.0767358 0)
(39.495 -0.0246124 0)
(39.268 -0.0242531 0)
(48.8449 -0.0759838 0)
(52.9426 -0.14753 0)
(52.6852 -0.151985 0)
(48.5863 -0.0791173 0)
(39.0349 -0.0253364 0)
(38.8007 -0.0250005 0)
(48.3258 -0.0784267 0)
(52.4254 -0.152409 0)
(52.1589 -0.157016 0)
(48.0584 -0.0816531 0)
(38.5602 -0.0261097 0)
(38.3184 -0.0257992 0)
(47.7889 -0.0810291 0)
(51.8897 -0.157588 0)
(51.6137 -0.162355 0)
(47.5123 -0.0843528 0)
(38.07 -0.0269352 0)
(37.8201 -0.0266514 0)
(47.2333 -0.0837997 0)
(51.3346 -0.163083 0)
(51.0484 -0.168015 0)
(46.9469 -0.0872235 0)
(37.5633 -0.0278148 0)
(37.3049 -0.0275584 0)
(46.6578 -0.0867437 0)
(50.7589 -0.168905 0)
(50.4621 -0.174005 0)
(46.3611 -0.0902693 0)
(37.0392 -0.028749 0)
(36.7716 -0.0285204 0)
(46.0614 -0.0898643 0)
(50.1615 -0.175061 0)
(49.8535 -0.180334 0)
(45.7537 -0.0934953 0)
(36.4965 -0.0297389 0)
(36.2193 -0.0295415 0)
(45.4428 -0.0931755 0)
(49.5413 -0.181578 0)
(49.2214 -0.187079 0)
(45.1235 -0.0969415 0)
(35.9341 -0.0307987 0)
(35.6466 -0.0306253 0)
(44.8008 -0.0966923 0)
(48.8969 -0.188474 0)
(48.5645 -0.194202 0)
(44.4692 -0.100583 0)
(35.3508 -0.0319154 0)
(35.0525 -0.0317838 0)
(44.1339 -0.100441 0)
(48.2271 -0.195818 0)
(47.8815 -0.201757 0)
(43.7894 -0.104459 0)
(34.7454 -0.0331082 0)
(34.4354 -0.0330181 0)
(43.4407 -0.10443 0)
(47.5304 -0.203618 0)
(47.1707 -0.209819 0)
(43.0824 -0.108604 0)
(34.1163 -0.0343863 0)
(33.7939 -0.0343479 0)
(42.7195 -0.108711 0)
(46.8051 -0.211964 0)
(46.4304 -0.218464 0)
(42.3465 -0.113063 0)
(33.4618 -0.0357662 0)
(33.1261 -0.0357891 0)
(41.9683 -0.113331 0)
(46.0492 -0.220938 0)
(45.6585 -0.227786 0)
(41.5794 -0.117889 0)
(32.7799 -0.0372652 0)
(32.4297 -0.0373625 0)
(41.1847 -0.118349 0)
(45.2605 -0.230648 0)
(44.8524 -0.237915 0)
(40.7786 -0.123155 0)
(32.0683 -0.0389073 0)
(31.7023 -0.0391021 0)
(40.3661 -0.123866 0)
(44.4363 -0.24127 0)
(44.0094 -0.249144 0)
(39.9411 -0.129036 0)
(31.3239 -0.0407547 0)
(30.9403 -0.0412965 0)
(39.5087 -0.130398 0)
(43.5735 -0.253431 0)
(43.1262 -0.262663 0)
(39.0625 -0.13672 0)
(30.5403 -0.04386 0)
(30.1286 -0.0454606 0)
(38.6076 -0.139185 0)
(42.6693 -0.268408 0)
(42.2004 -0.27866 0)
(38.1376 -0.146132 0)
(29.6969 -0.0484391 0)
(29.2537 -0.0499554 0)
(37.6574 -0.14889 0)
(41.7208 -0.285184 0)
(41.2277 -0.295986 0)
(37.1604 -0.156127 0)
(28.7898 -0.0527511 0)
(28.3141 -0.0541461 0)
(36.6517 -0.159181 0)
(40.7225 -0.303188 0)
(40.2023 -0.314764 0)
(36.1247 -0.166839 0)
(27.8172 -0.0568879 0)
(27.3078 -0.0582514 0)
(35.5846 -0.170224 0)
(39.6686 -0.322712 0)
(39.1183 -0.335298 0)
(35.0246 -0.178399 0)
(26.7761 -0.0610426 0)
(26.2309 -0.0625109 0)
(34.4496 -0.182314 0)
(38.5526 -0.344351 0)
(37.9685 -0.358027 0)
(33.8523 -0.191095 0)
(25.6616 -0.065425 0)
(25.0772 -0.0670798 0)
(33.2381 -0.19569 0)
(37.3668 -0.368461 0)
(36.7443 -0.383459 0)
(32.599 -0.205224 0)
(24.4664 -0.0701898 0)
(23.8388 -0.0720225 0)
(31.9409 -0.21052 0)
(36.1023 -0.395393 0)
(35.4364 -0.412964 0)
(31.2543 -0.22139 0)
(23.1819 -0.0755626 0)
(22.5044 -0.0778429 0)
(30.5452 -0.22797 0)
(34.7474 -0.427411 0)
(34.0305 -0.448008 0)
(29.8025 -0.240506 0)
(21.7928 -0.0819415 0)
(21.0558 -0.0847992 0)
(29.0326 -0.248783 0)
(33.2859 -0.465636 0)
(32.5081 -0.490373 0)
(28.2226 -0.263644 0)
(20.2785 -0.0896814 0)
(19.469 -0.0934279 0)
(27.3787 -0.274477 0)
(31.6965 -0.512677 0)
(30.844 -0.543407 0)
(26.4852 -0.292743 0)
(18.6097 -0.099438 0)
(17.7085 -0.104487 0)
(25.548 -0.307336 0)
(29.949 -0.57252 0)
(29.0021 -0.612368 0)
(24.5474 -0.330813 0)
(16.7429 -0.112277 0)
(15.7205 -0.119405 0)
(23.4879 -0.351343 0)
(27.9996 -0.652009 0)
(26.9289 -0.705915 0)
(22.3438 -0.38298 0)
(14.6107 -0.130023 0)
(13.4202 -0.14055 0)
(21.1168 -0.413237 0)
(25.7831 -0.762491 0)
(24.544 -0.839546 0)
(19.7715 -0.458464 0)
(12.1047 -0.155883 0)
(10.6664 -0.173086 0)
(18.3018 -0.5067 0)
(23.1986 -0.925989 0)
(21.7206 -1.04509 0)
(16.6571 -0.579162 0)
(9.03786 -0.196974 0)
(7.17825 -0.220841 0)
(14.8148 -0.662726 0)
(20.0814 -1.18795 0)
(18.2569 -1.41291 0)
(12.7176 -0.811275 0)
(5.11006 -0.291113 0)
(2.29751 -0.495742 0)
(10.2097 -1.08569 0)
(16.276 -1.69904 0)
(14.2447 -1.67395 0)
(7.39927 -1.05165 0)
(-2.28673 -0.264664 0)
(-3.93056 0.0586334 0)
(4.84919 -0.68452 0)
(12.02 -1.42641 0)
(9.23663 -1.35571 0)
(1.85038 -0.484008 0)
(-4.81751 0.128678 0)
(-5.4303 0.0128219 0)
(-1.2692 -0.310666 0)
(6.28997 -1.1457 0)
(3.70937 -0.787403 0)
(-2.75758 -0.21553 0)
(-6.0932 -0.0581679 0)
(-6.58444 -0.00223803 0)
(-3.76778 -0.120983 0)
(1.61427 -0.431848 0)
(0.0568579 -0.155012 0)
(-4.42115 -0.0813329 0)
(-6.74578 0.0527361 0)
(-6.55795 0.10404 0)
(-4.6338 0.00277486 0)
(-0.826309 0.0770327 0)
(-1.58207 0.084156 0)
(-4.76573 0.0308139 0)
(-6.21366 0.114373 0)
(-5.65382 0.141 0)
(-4.82256 0.110394 0)
(-2.16802 0.0912896 0)
(-3.10703 -0.037909 0)
(-5.26653 0.0972305 0)
(-5.10893 0.143253 0)
(-4.17121 0.193687 0)
(-5.3361 0.214233 0)
(-3.8824 0.235578 0)
(-4.80149 -0.00608256 0)
(-5.51467 0.0537748 0)
(-3.36029 0.122686 0)
(-2.99052 0.0565665 0)
(-5.62569 0.0387074 0)
(-5.31766 0.0288721 0)
(-6.01449 -0.276463 0)
(-5.98894 -0.115809 0)
(-3.13027 -0.0161807 0)
(-3.27131 -0.0136203 0)
(-6.26803 -0.0519815 0)
(-6.36752 -0.10193 0)
(-6.96836 -0.49605 0)
(-6.74203 -0.262815 0)
(-3.78359 -0.0774553 0)
(-4.48848 -0.0454743 0)
(-7.43531 -0.163661 0)
(-7.58817 -0.240112 0)
(-8.16173 -0.460075 0)
(-7.99713 -0.26604 0)
(-5.13931 -0.0820169 0)
(-5.67432 -0.0214264 0)
(-8.47705 -0.0719038 0)
(-8.55881 -0.0422009 0)
(-8.74013 -0.213867 0)
(-8.62432 -0.115723 0)
(-5.94873 -0.0584844 0)
(-6.07338 0.00992052 0)
(-8.62505 0.103733 0)
(-8.71228 0.211585 0)
(-8.47878 0.0389552 0)
(-8.30569 0.0528045 0)
(-5.79693 -0.0212377 0)
(-5.64864 0.0339006 0)
(-7.96352 0.187191 0)
(-8.1835 0.347629 0)
(-7.66077 0.277142 0)
(-7.32776 0.169912 0)
(-5.05242 0.0339659 0)
(-4.51058 0.0692472 0)
(-6.71415 0.245654 0)
(-7.12765 0.437822 0)
(-6.5549 0.313001 0)
(-6.02977 0.186986 0)
(-3.77388 0.0554145 0)
(-3.25134 0.0600538 0)
(-5.51935 0.191664 0)
(-6.13375 0.336031 0)
(-5.78233 0.20154 5.68423e-19)
(-5.06098 0.120278 0)
(-2.7147 0.0390901 0)
(-2.4307 0.0314039 0)
(-4.79436 0.0970992 0)
(-5.59076 0.175861 0)
(-5.42462 0.115962 0)
(-4.5561 0.0611513 0)
(-2.16453 0.0216124 0)
(-2.01018 0.0175696 0)
(-4.402 0.0465394 0)
(-5.32015 0.0991749 0)
(-5.2289 0.0769721 0)
(-4.26854 0.0342088 0)
(-1.87576 0.0137334 0)
(-1.77605 0.010617 0)
(-4.16452 0.0261383 0)
(-5.15783 0.0621834 5.69009e-19)
(-5.10338 0.0495629 0)
(-4.08143 0.0221682 0)
(-1.69839 0.007827 0)
(-1.6343 0.00533573 0)
(-4.01288 0.0174498 0)
(-5.05758 0.0372196 5.69203e-19)
(-5.0265 0.0285128 0)
(-3.96138 0.015553 0)
(-1.58704 0.0035315 0)
(-1.54488 0.00294458 0)
(-3.91656 0.0135467 0)
(-4.9958 0.0229782 5.69392e-19)
(-4.97297 0.0199775 0)
(-3.88056 0.0126131 0)
(-1.50812 0.00333162 0)
(-1.4708 0.00383553 0)
(-3.84794 0.0112151 0)
(-4.94809 0.0172921 5.69566e-19)
(-4.93136 0.0132768 0)
(-3.82477 0.00886717 0)
(-1.43723 0.00401193 0)
(-1.40907 0.00371828 0)
(-3.80874 0.00576956 0)
(-4.91439 0.00880959 5.69714e-19)
(-4.90637 0.00252521 0)
(-3.80385 0.00130598 0)
(-1.3909 0.00242204 0)
(-1.38778 0.00126898 0)
(-3.80737 -0.00255752 0)
(-4.89826 -0.00213083 5.69817e-19)
(-4.89623 -0.00709153 0)
(-3.81912 -0.00579173 0)
(-1.39528 0.000297599 0)
(-1.4101 -0.000258854 0)
(-3.83659 -0.00809048 0)
(-4.8962 -0.00989607 5.69879e-19)
(-4.89786 -0.0130349 0)
(-3.85933 -0.0103556 0)
(-1.43218 -0.00106498 0)
(-1.46003 -0.0016847 0)
(-3.88453 -0.0119376 0)
(-4.89891 -0.0141485 0)
(-4.89823 -0.0156642 0)
(-3.91161 -0.0135517 0)
(-1.49389 -0.00259139 0)
(-1.53192 -0.00328411 0)
(-3.93781 -0.0144387 0)
(-4.89397 -0.0151958 0)
(-4.88449 -0.0149207 0)
(-3.96265 -0.0151515 0)
(-1.57455 -0.00420549 0)
(-1.61932 -0.00492425 0)
(-3.98252 -0.0151592 0)
(-4.86816 -0.0125418 0)
(-4.84293 -0.00987539 0)
(-3.99704 -0.0147982 0)
(-1.66675 -0.00580643 0)
(-1.71322 -0.00641454 0)
(-4.00159 -0.0134017 0)
(-4.80538 -0.00499147 0)
(-4.75575 0.00116717 0)
(-3.99577 -0.0117108 0)
(-1.75913 -0.00699009 0)
(-1.79978 -0.00732777 0)
(-3.97359 -0.00874412 0)
(-4.68591 0.00945686 0)
(-4.59812 0.0202901 0)
(-3.93537 -0.00485267 0)
(-1.83509 -0.00741237 0)
(-1.85852 -0.00787386 0)
(-3.86988 0.000714386 0)
(-4.48314 0.033261 0)
(-4.3443 0.049889 0)
(-3.77589 0.0078161 0)
(-1.87053 -0.00815197 0)
(-1.86649 -0.00841909 0)
(-3.6436 0.0158217 0)
(-4.16969 0.0671786 0)
(-3.9653 0.0887702 0)
(-3.47699 0.0261982 0)
(-1.84332 -0.00691194 0)
(-1.78809 -0.00543921 0)
(-3.26932 0.0369282 0)
(-3.71918 0.109898 0)
(-3.43735 0.142818 0)
(-3.02016 0.0536786 0)
(-1.7016 -0.00146737 -1.0306e-19)
(-1.56466 0.00318645 -1.4096e-24)
(-2.71227 0.0693411 0)
(-3.10267 0.174092 0)
(-2.70076 0.213131 1.44242e-19)
(-2.3399 0.0889321 -1.72503e-19)
(-1.35408 0.00523756 1.04532e-19)
(-1.18048 0.0160268 0)
(-1.96103 0.12165 1.73918e-19)
(-2.28395 0.262428 -1.44943e-19)
(-1.69153 0.291639 1.52752e-18)
(-1.35362 0.12779 -3.72371e-19)
(-0.694659 0.0126931 0)
(-0.64492 0.0403417 0)
(-1.03991 0.213606 3.81939e-19)
(-1.2858 0.407333 -3.20648e-19)
(-0.472949 0.48323 3.59704e-19)
(-0.0593801 0.263452 -2.17791e-18)
(0.335438 0.0684093 -1.06489e-18)
(0.523748 0.096811 7.92624e-19)
(0.21626 0.377644 -3.54822e-18)
(-0.201838 0.704436 1.51142e-18)
(0.991619 0.684483 -1.6027e-18)
(1.68442 0.379034 2.86797e-18)
(1.95545 0.10522 -8.58409e-19)
(-0.0124389 1.10957 0)
(-1.60471 1.62603 6.01123e-19)
(-2.8802 1.88041 -2.67582e-18)
(-3.79527 2.09271 -2.28534e-18)
(-4.22404 2.19763 0)
(-4.43974 2.24971 -5.69414e-19)
(-4.43536 2.28775 1.89823e-24)
(-4.27781 2.29866 -7.1961e-20)
(-3.97717 2.30221 7.2029e-20)
(-3.55523 2.27999 0)
(-3.02855 2.21232 1.80637e-20)
(-2.33339 2.0785 -1.80462e-20)
(-1.51422 1.87874 0)
(-0.473914 1.63173 0)
(0.609985 1.06122 0)
(2.46626 0.57145 0)
(4.0148 0.14295 0)
(6.39485 -0.335579 0)
(7.9992 -0.691896 -5.71428e-19)
(10.2302 -1.06072 0)
(11.7475 -1.35258 0)
(13.8166 -1.65807 0)
(15.2362 -1.89117 0)
(17.1169 -2.13106 0)
(18.4233 -2.30679 0)
(20.0853 -2.47283 0)
(21.2635 -2.59515 0)
(22.6656 -2.68676 0)
(23.6935 -2.75121 0)
(24.8781 -2.77046 0)
(25.7577 -2.7747 0)
(26.7416 -2.73334 0)
(27.4883 -2.68516 0)
(28.3126 -2.59699 0)
(28.9523 -2.50765 0)
(29.659 -2.38406 -5.45186e-19)
(30.2182 -2.26395 -1.70158e-20)
(30.8407 -2.11369 4.9412e-19)
(31.339 -1.9709 4.79009e-19)
(31.9029 -1.79975 1.24837e-18)
(32.3533 -1.64154 5.63802e-19)
(32.8783 -1.45328 2.90641e-18)
(33.2875 -1.28817 -2.3739e-18)
(33.7769 -1.08138 1.00025e-17)
(34.054 -0.918191 -1.15436e-17)
(34.2607 -0.779447 -1.92445e-17)
(34.4244 -0.627129 0)
(34.5046 -0.46294 0)
(34.3091 -0.311717 0)
(33.1298 -0.205461 5.31884e-18)
(30.9135 -0.158152 -9.59485e-18)
(23.6044 -0.14589 3.87221e-18)
(22.6215 -0.137001 0)
(30.3484 -0.191897 0)
(32.7365 -0.218736 -9.16341e-18)
(32.4045 -0.216927 -6.55541e-18)
(29.849 -0.18493 6.43078e-18)
(21.6943 -0.140524 0)
(20.8248 -0.104433 -4.5012e-19)
(29.388 -0.157105 -7.45016e-19)
(32.0921 -0.195567 -9.93909e-18)
(31.8162 -0.155824 2.46308e-18)
(29.0101 -0.111562 1.51033e-18)
(20.1373 -0.0612901 -4.65021e-19)
(19.8159 -0.0356002 0)
(28.7908 -0.0741108 0)
(31.6379 -0.113581 -2.99384e-19)
(31.4374 -0.0770739 2.2411e-19)
(28.5709 -0.0411484 9.04364e-20)
(19.5095 -0.011626 2.19922e-19)
(19.4689 -0.00283823 -2.17981e-19)
(28.4821 -0.0217605 0)
(31.3261 -0.0518854 0)
(31.1784 -0.0402466 0)
(28.3508 -0.00985631 0)
(19.3843 0.0035255 0)
(19.4227 0.00102851 0)
(28.3079 -0.00800854 0)
(31.092 -0.0334608 0)
(30.9513 -0.0274676 0)
(28.1862 -0.00126152 0)
(19.352 0.00693114 0)
(19.4267 0.00702342 0)
(28.1639 0.00252263 0)
(30.8761 -0.0203632 0)
(30.7511 -0.0222749 0)
(28.0682 0.00297256 0)
(19.4142 0.00928929 0)
(19.4868 0.00500005 0)
(28.0512 0.000302073 0)
(30.6749 -0.0223189 0)
(30.54 -0.0208367 0)
(27.9457 0.0040555 0)
(19.4463 0.00995685 0)
(19.5335 0.00967464 0)
(27.9267 0.00554737 0)
(30.4632 -0.0172225 0)
(30.3375 -0.0219984 0)
(27.8317 0.0039448 0)
(19.5354 0.0118368 0)
(19.6118 0.00800609 2.17301e-19)
(27.8063 -0.000596973 7.13988e-19)
(30.25 -0.0248517 -5.90446e-19)
(30.1044 -0.0249526 1.68731e-24)
(27.6932 0.00275567 -7.20437e-19)
(19.5756 0.012611 -2.18382e-19)
(19.6617 0.0106512 0)
(27.6602 0.0036742 0)
(30.0119 -0.0231436 0)
(29.8704 -0.029713 0)
(27.5513 0.0010363 0)
(19.6591 0.0123985 0)
(19.7275 0.0083649 -4.34489e-19)
(27.5039 -0.00477853 1.0705e-18)
(29.7599 -0.0349797 -5.90007e-19)
(29.5936 -0.0354444 2.15923e-24)
(27.3721 -0.00165894 -7.20154e-19)
(19.6814 0.0128062 0)
(19.7567 0.010613 0)
(27.3143 -0.00138745 0)
(29.4758 -0.0349193 0)
(29.3098 -0.0427631 0)
(27.1823 -0.00481829 0)
(19.7382 0.0121022 0)
(19.7899 0.00779341 2.17211e-19)
(27.1031 -0.0120631 7.13327e-19)
(29.1677 -0.0506196 -5.89524e-19)
(28.9725 -0.0505491 2.8083e-24)
(26.944 -0.00877822 -7.19867e-19)
(19.7231 0.0121181 -2.183e-19)
(19.7796 0.00971268 0)
(26.8527 -0.00917172 0)
(28.8217 -0.0513487 0)
(28.6239 -0.0603633 0)
(26.69 -0.0133028 0)
(19.7353 0.0109227 0)
(19.7614 0.00623127 2.17178e-19)
(26.5697 -0.0222725 7.12978e-19)
(28.4418 -0.0713502 -5.8901e-19)
(28.2096 -0.0699768 3.67153e-24)
(26.3753 -0.0183946 -7.19592e-19)
(19.6641 0.0104583 -2.18275e-19)
(19.6939 0.00789018 0)
(26.2424 -0.019544 0)
(28.0184 -0.072374 0)
(27.7813 -0.0823383 0)
(26.0412 -0.0242355 0)
(19.6141 0.00875266 0)
(19.6054 0.00346382 2.1716e-19)
(25.8715 -0.0353166 7.12632e-19)
(27.5512 -0.0972958 -5.88472e-19)
(27.2747 -0.093717 4.75757e-24)
(25.6344 -0.0300264 -7.19327e-19)
(19.4683 0.00775017 -2.18268e-19)
(19.464 0.00523265 0)
(25.4524 -0.032142 0)
(27.0356 -0.0973699 0)
(26.7525 -0.107286 0)
(25.2066 -0.0370136 0)
(19.3412 0.00578604 0)
(19.2896 -0.000102087 2.17161e-19)
(24.9806 -0.050633 7.12298e-19)
(26.4669 -0.127071 -5.87922e-19)
(26.1391 -0.120424 6.01207e-24)
(24.6965 -0.0436055 -7.19053e-19)
(19.1073 0.00451757 -2.18283e-19)
(19.0641 0.00184507 0)
(24.4615 -0.0451894 0)
(25.8489 -0.1244 0)
(25.5173 -0.134108 0)
(24.1709 -0.048957 0)
(18.8995 0.00216383 0)
(18.806 -0.00550232 0)
(23.8868 -0.0635571 0)
(25.173 -0.156997 0)
(24.794 -0.142344 0)
(23.5585 -0.0521641 0)
(18.5907 0.00143875 0)
(18.5228 0.00224334 0)
(23.2799 -0.0511301 0)
(24.4545 -0.141874 0)
(24.0804 -0.145984 0)
(22.957 -0.0506019 0)
(18.3508 0.00526373 0)
(18.2619 0.0008139 0)
(22.6429 -0.0627309 0)
(23.6896 -0.165117 0)
(23.287 -0.118389 0)
(22.3196 -0.0328371 0)
(18.1218 0.0252886 -2.1858e-19)
(18.1405 0.0995386 2.19558e-19)
(22.0513 0.0392981 1.4427e-18)
(22.9207 -0.0487438 -1.18581e-18)
(22.4804 0.0653939 2.9824e-19)
(21.686 0.164077 0)
(18.0151 0.220983 0)
(17.8072 0.409054 0)
(21.1926 0.338413 -5.59518e-18)
(21.9129 0.194397 -2.96881e-19)
(21.2453 0.389781 5.38927e-18)
(20.5793 0.53613 -6.00901e-18)
(17.392 0.577478 7.33133e-18)
(17.023 0.749651 -6.62996e-19)
(19.9444 0.705924 1.1567e-17)
(20.5631 0.535491 -1.95999e-17)
(19.8083 0.626973 -2.03534e-17)
(19.2157 0.817366 1.0263e-17)
(16.4785 0.857982 4.49294e-19)
(15.9424 0.914044 -1.40281e-17)
(18.4433 0.842364 1.28731e-17)
(18.9889 0.625345 -9.35787e-18)
(18.1043 0.697719 -1.23748e-17)
(17.6263 0.900574 1.1299e-17)
(15.358 0.979947 0)
(14.8609 1.10292 0)
(16.8374 0.958935 -9.62264e-18)
(17.2188 0.721032 1.08022e-17)
(16.1568 0.666506 -1.66887e-17)
(15.84 0.920244 1.72197e-17)
(14.206 1.07339 0)
(11.3691 0.857484 0)
(14.6142 0.916118 -1.02506e-17)
(15.3557 0.832661 9.39403e-18)
(14.5772 0.822758 -1.51407e-18)
(14.0376 1.07501 3.74833e-18)
(11.8522 1.04245 0)
(11.1088 1.03008 3.27411e-17)
(13.0016 1.03347 -2.80731e-17)
(13.4641 0.757575 -9.40358e-18)
(12.3177 0.567262 -1.39801e-17)
(11.9185 0.95789 -2.57344e-17)
(10.4744 1.03738 3.1568e-17)
(9.67107 1.0008 -2.95597e-17)
(10.8049 0.846011 -3.21112e-17)
(11.255 0.232512 2.22332e-17)
(9.77143 -0.509465 -2.90161e-18)
(9.6028 0.380865 -6.57895e-18)
(9.00665 0.836196 1.73743e-17)
(7.45584 0.661752 1.48647e-17)
(7.83719 -0.122402 -1.24203e-17)
(8.1153 -1.05865 -2.75833e-22)
(6.30742 -1.85791 0)
(5.95751 -0.731828 5.48819e-18)
(5.55736 0.352813 -1.1168e-17)
(3.69129 0.010425 -2.00973e-17)
(3.82456 -1.42956 4.48197e-17)
(4.06815 -2.92538 -4.2192e-21)
(1.52016 -4.05884 -2.72687e-17)
(1.39433 -2.48433 -2.60428e-17)
(1.62836 -0.698639 2.06402e-17)
(-0.949983 -1.79972 3.17571e-17)
(-0.746106 -3.48627 -1.56162e-17)
(-0.102512 -4.77966 0)
(-2.0434 -6.18771 6.0899e-18)
(-3.12016 -4.95874 8.18069e-19)
(-3.74304 -3.18255 -1.84204e-17)
(-6.75913 -5.25817 -1.61291e-17)
(-5.79549 -7.06961 -7.22279e-19)
(-4.30347 -8.32093 0)
(-6.65294 -10.8705 0)
(-8.54334 -9.74334 0)
(-9.80668 -7.96995 -5.58653e-17)
(-12.8981 -12.1468 1.1301e-16)
(-11.3496 -14.4188 -4.09564e-17)
(-9.09448 -15.844 1.93374e-17)
(-11.2904 -21.7054 -1.46021e-17)
(-14.0455 -19.7733 -9.45469e-18)
(-16.473 -17.3176 -3.30628e-17)
(-19.8136 -23.0198 0)
(-16.3713 -24.8631 -2.63777e-20)
(-13.6264 -25.9754 6.28022e-18)
(-14.4096 -30.8446 -8.13805e-18)
(-17.6575 -30.3232 -1.34707e-17)
(-22.7988 -29.3443 8.04867e-17)
(-24.8514 -36.7634 -7.17594e-17)
(-17.3906 -36.9937 0)
(-13.7986 -36.3433 0)
(-10.7486 -44.4199 2.97136e-17)
(-15.0253 -45.035 -4.00267e-17)
(-25.8965 -45.3329 7.57111e-18)
(-26.2422 -53.6794 0)
(-13.3191 -51.4548 0)
(-9.73284 -49.5776 2.51974e-17)
(-7.45971 -54.1231 -1.5797e-17)
(-10.3685 -57.0365 -4.09128e-17)
(-25.5093 -61.6656 6.60659e-18)
(-22.907 -69.9803 0)
(-3.20079 -62.9891 -3.3543e-17)
(-0.680002 -59.6617 9.80784e-17)
(3.874 -63.9451 9.62863e-17)
(1.87026 -67.5038 -1.03887e-16)
(-19.5403 -77.5943 -1.50078e-16)
(-15.4329 -84.1611 1.48964e-16)
(7.41138 -70.3574 0)
(8.47731 -66.8505 -2.50995e-17)
(15.9667 -69.5889 1.79293e-17)
(15.2275 -72.7833 5.20921e-17)
(-10.2771 -90.7875 5.46781e-17)
(-6.02037 -97.2973 -6.45078e-17)
(21.1033 -75.3683 -1.95676e-18)
(21.3391 -72.3176 2.34616e-18)
(26.0665 -74.8145 -2.5639e-17)
(24.0826 -81.3569 0)
(-1.86545 -104.083 1.74209e-17)
(3.53185 -110.463 -2.8706e-17)
(25.0533 -91.8089 4.28524e-17)
(30.9735 -82.4394 -1.57205e-17)
(34.4482 -91.6099 7.79062e-18)
(27.5025 -99.429 -4.05714e-17)
(9.3546 -115.112 1.18845e-17)
(14.9534 -116.87 1.47525e-17)
(30.6967 -102.367 -5.29134e-17)
(37.5753 -95.9148 3.01433e-17)
(45.1676 -95.743 -5.14776e-17)
(36.4635 -101.621 5.16187e-17)
(20.8018 -115.665 6.50008e-17)
(26.4132 -110.979 -5.49537e-17)
(41.2191 -96.9307 1.18501e-17)
(49.079 -94.2181 -3.26704e-17)
(50.5664 -89.2358 -1.5525e-17)
(43.742 -90.1867 -2.72429e-17)
(30.8872 -103.206 5.65798e-17)
(34.9909 -91.9488 -7.65022e-17)
(47.9501 -80.4703 3.95449e-17)
(55.7227 -82.0066 1.14613e-19)
(57.2603 -75.4294 5.23253e-17)
(49.7604 -70.0767 0)
(37.1774 -78.5865 1.48244e-17)
(37.3621 -64.0503 -7.1607e-17)
(49.002 -58.7805 1.50273e-17)
(55.6231 -65.8827 0)
(55.3128 -58.0977 0)
(47.7077 -47.737 1.44612e-17)
(35.5603 -49.2106 2.01318e-17)
(32.3072 -37.0368 0)