/*--------------------------------*- C++ -*----------------------------------*\
| =========                 |                                                 |
| \\      /  F ield         | OpenFOAM: The Open Source CFD Toolbox           |
|  \\    /   O peration     | Version:  v2006                                 |
|   \\  /    A nd           | Website:  www.openfoam.com                      |
|    \\/     M anipulation  |                                                 |
\*---------------------------------------------------------------------------*/
FoamFile
{
    version     2.0;
    format      ascii;
    class       volVectorField;
    location    "0.022";
    object      U;
}
// * * * * * * * * * * * * * * * * * * * * * * * * * * * * * * * * * * * * * //

dimensions      [0 1 -1 0 0 0 0];


internalField   nonuniform List<vector> 
31566
(
(78.4806 -0.000825591 -2.17453e-19)
(78.4811 -0.000246366 0)
(78.4683 -1.20857e-05 0)
(78.4683 -4.75937e-05 -5.46231e-21)
(78.4683 -6.50053e-05 9.01687e-21)
(78.4686 -0.000113093 -1.62456e-21)
(78.4689 -0.000153976 0)
(78.4694 -0.000195517 8.2982e-22)
(78.4699 -0.000233062 8.93325e-22)
(78.4706 -0.000272069 -1.86287e-21)
(78.4713 -0.000311988 -3.12476e-23)
(78.4721 -0.000352915 0)
(78.473 -0.000396118 0)
(78.4741 -0.000439425 0)
(78.4752 -0.000487661 0)
(78.4764 -0.000529178 -4.09714e-25)
(78.4777 -0.000582755 0)
(78.4793 -0.000598069 0)
(78.4806 -0.000638046 0)
(78.4768 -0.00137791 0)
(78.4578 -0.00422244 0)
(78.4167 -0.00941225 0)
(78.3552 -0.0158968 0)
(78.2788 -0.0225966 0)
(78.1932 -0.0288225 0)
(78.1031 -0.0342305 0)
(78.0112 -0.0387504 0)
(77.9186 -0.04249 0)
(77.8258 -0.0456295 0)
(77.7324 -0.0483263 0)
(77.6379 -0.0507 0)
(77.5421 -0.0528321 0)
(77.4445 -0.0547743 0)
(77.3451 -0.056558 0)
(77.2438 -0.0582029 0)
(77.1405 -0.0597179 0)
(77.0354 -0.0611091 0)
(76.9286 -0.0623877 0)
(76.82 -0.0635646 0)
(76.71 -0.0646497 0)
(76.5984 -0.0656516 0)
(76.4854 -0.0665777 0)
(76.3712 -0.0674338 0)
(76.2556 -0.0682243 0)
(76.139 -0.068952 0)
(76.0212 -0.0696188 0)
(75.9025 -0.0702251 0)
(75.7828 -0.0707711 0)
(75.6623 -0.0712549 0)
(75.5411 -0.0716735 0)
(75.4193 -0.07203 0)
(75.2969 -0.0723326 0)
(75.174 -0.0725826 0)
(75.0508 -0.0727754 0)
(74.9274 -0.0729085 0)
(74.8038 -0.0729807 0)
(74.6802 -0.072992 0)
(74.5566 -0.0729424 0)
(74.4332 -0.0728336 0)
(74.3101 -0.0726688 1.67214e-22)
(74.1873 -0.0724432 0)
(74.065 -0.0721485 0)
(73.9433 -0.0717855 0)
(73.8222 -0.0713566 0)
(73.7019 -0.0708637 0)
(73.5824 -0.0703086 0)
(73.4639 -0.0696922 0)
(73.3465 -0.0690153 0)
(73.2302 -0.0682782 0)
(73.1151 -0.0674804 0)
(73.0013 -0.0666206 0)
(72.8889 -0.0656963 0)
(72.778 -0.0647034 0)
(72.6686 -0.0636364 0)
(72.5609 -0.0624888 0)
(72.455 -0.061254 0)
(72.351 -0.0599269 0)
(72.249 -0.058506 0)
(72.1492 -0.0569944 0)
(72.0517 -0.0553995 0)
(71.9563 -0.0537284 0)
(71.8629 -0.0519777 0)
(71.7709 -0.050114 1.58267e-22)
(71.6796 -0.0480581 0)
(71.5881 -0.0456805 0)
(71.4955 -0.0427682 0)
(71.4016 -0.03902 0)
(71.3081 -0.0341422 0)
(71.2192 -0.028079 0)
(71.1427 -0.0213599 -1.3522e-22)
(71.0877 -0.0151577 -2.33355e-22)
(71.0591 -0.0106779 -6.99625e-22)
(71.0536 -0.00828324 -8.38657e-22)
(71.0621 -0.00732796 0)
(71.0764 -0.0069657 0)
(71.0923 -0.00679193 0)
(71.1081 -0.00662457 0)
(71.1228 -0.00651971 -7.01265e-21)
(71.1357 -0.0064981 0)
(71.1448 -0.00698391 0)
(71.1467 -0.0081927 0)
(71.128 -0.0079399 0)
(71.0949 -0.00602195 0)
(71.0326 -0.0179079 0)
(70.9138 -0.0370592 -5.40546e-19)
(70.7564 -0.0632766 7.33903e-19)
(70.5504 -0.100639 0)
(70.2347 -0.135339 6.06609e-19)
(69.8824 -0.153071 -7.89421e-19)
(68.5346 -0.21121 0)
(67.6415 -0.18659 0)
(69.8738 -0.238454 0)
(70.3063 -0.218434 -6.2154e-18)
(70.3437 -0.253418 1.22677e-18)
(69.7787 -0.273041 -3.84391e-19)
(66.6728 -0.181741 2.39282e-19)
(65.7205 -0.165276 -1.02944e-18)
(69.641 -0.26504 3.39746e-19)
(70.3719 -0.256002 -1.11713e-18)
(70.376 -0.241429 1.09007e-18)
(69.4777 -0.238852 8.36809e-20)
(64.8505 -0.143196 8.31446e-19)
(64.0584 -0.122261 -4.80059e-20)
(69.3045 -0.218352 -7.89251e-20)
(70.3533 -0.22891 -6.53039e-20)
(70.3074 -0.214232 6.54654e-20)
(69.0916 -0.196244 0)
(63.346 -0.105854 4.82896e-20)
(62.7023 -0.0944443 0)
(68.8791 -0.179259 -4.94078e-21)
(70.2482 -0.202027 0)
(70.175 -0.187579 0)
(68.6417 -0.162245 4.94571e-21)
(62.0842 -0.0855996 0)
(61.5131 -0.0798743 -3.02818e-21)
(68.4476 -0.1536 4.93292e-21)
(70.0976 -0.178869 -4.10172e-21)
(70.0119 -0.172349 4.12489e-21)
(68.2504 -0.144627 -4.94231e-21)
(60.9918 -0.0733279 1.51688e-21)
(60.5184 -0.0665968 7.9067e-26)
(68.0551 -0.134255 -1.23617e-21)
(69.9237 -0.165225 0)
(69.8278 -0.159214 5.29001e-19)
(67.8578 -0.126598 1.23704e-21)
(60.0745 -0.061361 1.51801e-21)
(59.6657 -0.0563486 0)
(67.6633 -0.118459 0)
(69.7284 -0.153207 0)
(69.6232 -0.148338 -5.29653e-19)
(67.4689 -0.112762 0)
(59.2775 -0.0525982 0)
(58.9174 -0.0487704 0)
(67.2785 -0.106219 0)
(69.5164 -0.143213 0)
(69.4053 -0.139199 -5.30168e-19)
(67.0886 -0.101928 0)
(58.5719 -0.046042 0)
(58.2493 -0.0430086 0)
(66.9034 -0.0965221 0)
(69.2939 -0.134764 0)
(69.1791 -0.131485 0)
(66.7186 -0.0933128 0)
(57.9372 -0.041015 0)
(57.6439 -0.0385259 0)
(66.5387 -0.0886882 0)
(69.065 -0.127661 -5.30806e-19)
(68.9481 -0.124902 0)
(66.3591 -0.0863189 0)
(57.3585 -0.0370748 0)
(57.0884 -0.0350304 0)
(66.1843 -0.0824354 0)
(68.8326 -0.121355 0)
(68.7143 -0.119122 0)
(66.0096 -0.0805953 0)
(56.8244 -0.0339089 0)
(56.5734 -0.0321925 0)
(65.8397 -0.0772573 0)
(68.5981 -0.115956 -5.3149e-19)
(68.4791 -0.114164 0)
(65.6696 -0.0758466 0)
(56.327 -0.0313326 0)
(56.0916 -0.0298577 0)
(65.5042 -0.0729095 0)
(68.3628 -0.111339 0)
(68.2435 -0.109887 0)
(65.3383 -0.0718493 0)
(55.8599 -0.0292037 0)
(55.6376 -0.0279422 0)
(65.1768 -0.0692955 0)
(68.1271 -0.107502 -5.3205e-19)
(68.0082 -0.105864 0)
(65.0155 -0.0682058 0)
(55.4188 -0.0273284 0)
(55.2086 -0.0263468 0)
(64.8585 -0.0661626 0)
(67.8929 -0.103872 0)
(67.7735 -0.102526 0)
(64.7001 -0.0651356 0)
(54.9997 -0.0257507 0)
(54.7979 -0.0249828 0)
(64.5453 -0.0636375 0)
(67.6576 -0.101298 -5.32529e-19)
(67.537 -0.100688 0)
(64.3888 -0.063322 0)
(54.5969 -0.0247395 0)
(54.4027 -0.0237482 0)
(64.2365 -0.0611943 0)
(67.4208 -0.0986598 5.32748e-19)
(67.3004 -0.0983796 0)
(64.0827 -0.0611718 0)
(54.2096 -0.0236473 0)
(54.0224 -0.022753 0)
(63.9327 -0.0592399 0)
(67.1842 -0.0965431 0)
(67.0633 -0.0965095 0)
(63.7809 -0.0594019 0)
(53.8357 -0.0227363 0)
(53.6543 -0.0218787 0)
(63.6328 -0.0575307 0)
(66.9469 -0.0947073 0)
(66.8256 -0.094909 0)
(63.4826 -0.0578668 0)
(53.473 -0.0219414 0)
(53.2967 -0.0211173 0)
(63.336 -0.0560518 0)
(66.7089 -0.0931462 0)
(66.5869 -0.0935513 -5.33397e-19)
(63.1872 -0.056537 0)
(53.1202 -0.0212473 0)
(52.9482 -0.0204514 0)
(63.0418 -0.0547705 0)
(66.4698 -0.0918315 0)
(66.3472 -0.0923897 0)
(62.8941 -0.0553742 0)
(52.7759 -0.0206357 0)
(52.6077 -0.0198693 0)
(62.7496 -0.0536658 0)
(66.2294 -0.0907523 0)
(66.106 -0.0914664 0)
(62.6027 -0.0543896 0)
(52.439 -0.0201076 0)
(52.2741 -0.0193579 0)
(62.4589 -0.0527118 0)
(65.9875 -0.0898681 0)
(65.8631 -0.0907461 0)
(62.3125 -0.0535524 0)
(52.1084 -0.0196462 0)
(51.9462 -0.0189115 0)
(62.1691 -0.0519006 0)
(65.7437 -0.0891689 0)
(65.6183 -0.0901786 -5.34062e-19)
(62.023 -0.0528345 0)
(51.7832 -0.0192401 0)
(51.6234 -0.0185207 0)
(61.8798 -0.0512128 0)
(65.4978 -0.0886369 0)
(65.3712 -0.0897629 0)
(61.7338 -0.0522318 0)
(51.4626 -0.0188862 0)
(51.3049 -0.0181741 0)
(61.5906 -0.0506234 0)
(65.2497 -0.088238 0)
(65.1218 -0.0894536 0)
(61.4445 -0.0517096 0)
(51.146 -0.0185686 0)
(50.9901 -0.0178674 0)
(61.3011 -0.0501249 0)
(64.9989 -0.087979 0)
(64.8697 -0.0893067 0)
(61.1547 -0.0512947 0)
(50.8328 -0.0182974 0)
(50.6783 -0.0176008 0)
(61.011 -0.0497197 0)
(64.7454 -0.0878554 0)
(64.6146 -0.0893199 -5.3465e-19)
(60.8641 -0.0509812 0)
(50.5224 -0.0180674 0)
(50.369 -0.0173756 0)
(60.7197 -0.0494122 0)
(64.4887 -0.0878658 0)
(64.3563 -0.0894126 0)
(60.5722 -0.0507314 0)
(50.2141 -0.0178654 0)
(50.0616 -0.0171873 0)
(60.427 -0.0491929 0)
(64.2287 -0.0880171 0)
(64.0945 -0.0896603 0)
(60.2786 -0.0505868 0)
(49.9074 -0.0177081 0)
(49.7555 -0.0170318 0)
(60.1325 -0.0490526 0)
(63.965 -0.088281 0)
(63.829 -0.0900537 0)
(59.9831 -0.0505302 0)
(49.6018 -0.0175848 0)
(49.4502 -0.016913 0)
(59.8358 -0.0490028 0)
(63.6975 -0.0886765 0)
(63.5594 -0.0905509 0)
(59.6851 -0.0505446 0)
(49.2967 -0.0174904 0)
(49.1451 -0.0168274 0)
(59.5365 -0.0490344 0)
(63.4257 -0.0891981 0)
(63.2856 -0.0911617 0)
(59.3844 -0.050637 0)
(48.9916 -0.0174286 0)
(48.8399 -0.016768 0)
(59.2343 -0.0491301 0)
(63.1496 -0.0898173 0)
(63.0072 -0.0918471 0)
(59.0806 -0.0507789 0)
(48.6861 -0.0173868 0)
(48.534 -0.0167364 0)
(58.9289 -0.0492968 0)
(62.8688 -0.0905622 0)
(62.724 -0.0927203 0)
(58.7735 -0.0510297 0)
(48.3797 -0.0173878 0)
(48.2271 -0.0167346 0)
(58.6198 -0.049538 0)
(62.5828 -0.091416 0)
(62.4356 -0.0936504 0)
(58.4625 -0.0513154 0)
(48.0721 -0.0174012 0)
(47.9186 -0.0167655 0)
(58.3068 -0.0498649 0)
(62.2916 -0.0924213 0)
(62.1416 -0.0947848 0)
(58.1473 -0.0517258 0)
(47.7626 -0.0174638 0)
(47.6079 -0.0168253 0)
(57.9892 -0.0502682 0)
(61.9945 -0.0935397 0)
(61.8416 -0.0960062 0)
(57.8273 -0.0521844 0)
(47.4507 -0.0175419 0)
(47.2947 -0.016915 0)
(57.6668 -0.050751 0)
(61.6913 -0.0947916 0)
(61.5355 -0.0973191 0)
(57.5024 -0.0527058 0)
(47.1361 -0.0176449 0)
(46.9786 -0.0170275 0)
(57.3392 -0.0512953 0)
(61.3817 -0.0961424 0)
(61.2227 -0.0987484 0)
(57.1721 -0.0532973 0)
(46.8183 -0.0177722 0)
(46.6591 -0.017165 0)
(57.006 -0.0519114 0)
(61.0653 -0.0976027 0)
(60.903 -0.100325 0)
(56.8359 -0.053971 0)
(46.4969 -0.0179275 0)
(46.3357 -0.0173397 0)
(56.6667 -0.0526254 0)
(60.7417 -0.0991937 0)
(60.5758 -0.102021 0)
(56.4935 -0.0547326 0)
(46.1714 -0.0181149 0)
(46.0079 -0.017538 0)
(56.3209 -0.0534099 0)
(60.4106 -0.100931 0)
(60.241 -0.103858 0)
(56.1443 -0.0555753 0)
(45.8412 -0.0183342 0)
(45.6752 -0.0177583 0)
(55.9682 -0.0542534 0)
(60.0718 -0.102835 0)
(59.8981 -0.10585 0)
(55.788 -0.0564845 0)
(45.5059 -0.0185809 0)
(45.3372 -0.0180128 0)
(55.6082 -0.0551798 0)
(59.7248 -0.104888 0)
(59.5468 -0.107993 0)
(55.4241 -0.0574734 0)
(45.1651 -0.0188571 0)
(44.9935 -0.0182955 0)
(55.2404 -0.0561868 0)
(59.3689 -0.107089 0)
(59.1863 -0.110283 0)
(55.0522 -0.0585411 0)
(44.8182 -0.0191589 0)
(44.6434 -0.0186063 0)
(54.8642 -0.0572806 0)
(59.0038 -0.109448 0)
(58.8163 -0.11277 0)
(54.6716 -0.0597148 0)
(44.4647 -0.0194958 0)
(44.2864 -0.018943 0)
(54.4791 -0.058455 0)
(58.6287 -0.111952 0)
(58.4362 -0.115332 0)
(54.2819 -0.0609275 0)
(44.1042 -0.0198422 0)
(43.9223 -0.0193083 0)
(54.0847 -0.0597131 0)
(58.2435 -0.114612 0)
(58.0456 -0.118066 0)
(53.8826 -0.0622426 0)
(43.7362 -0.0202246 0)
(43.5504 -0.0197005 0)
(53.6803 -0.0610579 0)
(57.8474 -0.117432 0)
(57.644 -0.121042 0)
(53.473 -0.0636803 0)
(43.3602 -0.0206474 0)
(43.17 -0.0201286 0)
(53.2654 -0.0625072 0)
(57.44 -0.12044 0)
(57.2306 -0.124121 0)
(53.0527 -0.0651727 0)
(42.9754 -0.021086 0)
(42.7808 -0.0205908 0)
(52.8395 -0.0640555 0)
(57.0206 -0.123637 0)
(56.805 -0.127402 0)
(52.6209 -0.0667837 0)
(42.5814 -0.0215662 0)
(42.382 -0.0210825 0)
(52.4017 -0.0656991 0)
(56.5886 -0.12701 0)
(56.3665 -0.130904 0)
(52.177 -0.0685053 0)
(42.1776 -0.0220813 0)
(41.973 -0.0216145 0)
(51.9516 -0.0674606 0)
(56.1433 -0.130603 0)
(55.9143 -0.134605 0)
(51.7204 -0.0703357 0)
(41.7633 -0.0226322 0)
(41.5532 -0.0221812 0)
(51.4882 -0.0693306 0)
(55.684 -0.134397 0)
(55.4478 -0.138511 0)
(51.2502 -0.0722757 0)
(41.3378 -0.0232178 0)
(41.1219 -0.0227822 0)
(51.011 -0.0713105 0)
(55.2101 -0.138397 0)
(54.9664 -0.142621 0)
(50.7658 -0.0743251 0)
(40.9004 -0.0238376 0)
(40.6784 -0.023417 0)
(50.5193 -0.0734011 0)
(54.7209 -0.142605 0)
(54.4692 -0.146944 0)
(50.2665 -0.0764869 0)
(40.4506 -0.0244915 0)
(40.2221 -0.0240885 0)
(50.0123 -0.0756076 0)
(54.2156 -0.147033 0)
(53.9556 -0.151494 0)
(49.7516 -0.0787689 0)
(39.9877 -0.0251833 0)
(39.7524 -0.0247995 0)
(49.4892 -0.077939 0)
(53.6935 -0.151697 0)
(53.4248 -0.156287 0)
(49.2202 -0.0811805 0)
(39.5109 -0.0259159 0)
(39.2683 -0.0255529 0)
(48.9493 -0.0804049 0)
(53.1537 -0.156614 0)
(52.876 -0.161342 0)
(48.6714 -0.0837307 0)
(39.0194 -0.026692 0)
(38.7692 -0.0263516 0)
(48.3916 -0.0830141 0)
(52.5954 -0.161802 0)
(52.3081 -0.166677 0)
(48.1045 -0.0864297 0)
(38.5124 -0.0275148 0)
(38.2542 -0.0272003 0)
(47.8151 -0.085782 0)
(52.0177 -0.16729 0)
(51.7202 -0.172359 0)
(47.5182 -0.089313 0)
(37.989 -0.0283972 0)
(37.7222 -0.0280986 0)
(47.2188 -0.088712 0)
(51.4194 -0.173077 0)
(51.1114 -0.178315 0)
(46.9117 -0.0923357 0)
(37.4482 -0.0293192 0)
(37.1724 -0.0290482 0)
(46.6018 -0.0918051 0)
(50.7997 -0.179182 0)
(50.4806 -0.184551 0)
(46.2839 -0.0955106 0)
(36.8891 -0.0302887 0)
(36.6039 -0.0300402 0)
(45.963 -0.0950425 0)
(50.1575 -0.185566 0)
(49.8267 -0.19109 0)
(45.6338 -0.0988423 0)
(36.3109 -0.0313048 0)
(36.0158 -0.0310824 0)
(45.3014 -0.0984433 0)
(49.4917 -0.192263 0)
(49.1488 -0.197952 0)
(44.9603 -0.102343 0)
(35.7126 -0.0323724 0)
(35.4071 -0.032179 0)
(44.6158 -0.102022 0)
(48.8012 -0.199298 0)
(48.4456 -0.205172 0)
(44.2623 -0.106034 0)
(35.0931 -0.0334981 0)
(34.7767 -0.0333382 0)
(43.9051 -0.105802 0)
(48.0849 -0.206714 0)
(47.7158 -0.212793 0)
(43.5385 -0.109939 0)
(34.4514 -0.0346905 0)
(34.1234 -0.0345689 0)
(43.1678 -0.10981 0)
(47.3412 -0.214554 0)
(46.9579 -0.220865 0)
(42.7874 -0.114087 0)
(33.786 -0.0359589 0)
(33.4457 -0.0358815 0)
(42.4025 -0.114074 0)
(46.5687 -0.222873 0)
(46.1704 -0.229443 0)
(42.0074 -0.118507 0)
(33.0956 -0.0373134 0)
(32.7421 -0.0372868 0)
(41.6074 -0.118624 0)
(45.7656 -0.231719 0)
(45.3515 -0.23854 0)
(41.1967 -0.123212 0)
(32.3783 -0.038756 0)
(32.0109 -0.0388102 0)
(40.7806 -0.123517 0)
(44.9303 -0.241202 0)
(44.4992 -0.248349 0)
(40.3532 -0.128321 0)
(31.6323 -0.0403297 0)
(31.2497 -0.0404852 0)
(39.9198 -0.12886 0)
(44.0604 -0.25148 0)
(43.611 -0.259347 0)
(39.474 -0.134131 0)
(30.8548 -0.0421485 0)
(30.4551 -0.0429755 0)
(39.0215 -0.135601 0)
(43.1532 -0.263572 0)
(42.6846 -0.272976 0)
(38.5553 -0.142198 0)
(30.0353 -0.0459313 0)
(29.6054 -0.0474151 0)
(38.0812 -0.144361 0)
(42.2073 -0.278305 0)
(41.7185 -0.288233 0)
(37.5922 -0.151146 0)
(29.156 -0.0502361 0)
(28.6966 -0.0514803 0)
(37.0941 -0.153412 0)
(41.2198 -0.293954 0)
(40.7084 -0.304269 0)
(36.58 -0.16039 0)
(28.2176 -0.0540976 0)
(27.7286 -0.0552029 0)
(36.0557 -0.162823 0)
(40.1862 -0.310414 0)
(39.6504 -0.321155 0)
(35.5144 -0.170007 0)
(27.2199 -0.0577074 0)
(26.7011 -0.058773 0)
(34.9619 -0.172647 0)
(39.1025 -0.327808 0)
(38.5398 -0.339079 0)
(34.3912 -0.180098 0)
(26.1619 -0.0612517 0)
(25.6123 -0.0623308 0)
(33.8082 -0.182979 0)
(37.9639 -0.346349 0)
(37.372 -0.358208 0)
(33.206 -0.190792 0)
(25.0416 -0.0648514 0)
(24.4603 -0.0659178 0)
(32.5906 -0.193887 0)
(36.7661 -0.366155 0)
(36.1429 -0.379158 0)
(31.9543 -0.202282 0)
(23.8566 -0.0685883 0)
(23.2411 -0.0698062 0)
(31.3032 -0.205901 0)
(35.5038 -0.388146 0)
(34.8451 -0.402488 0)
(30.6285 -0.214933 0)
(22.6007 -0.0726544 0)
(21.9466 -0.0740884 0)
(29.937 -0.219215 0)
(34.1684 -0.412758 0)
(33.4699 -0.428969 0)
(29.2191 -0.229308 0)
(21.2653 -0.0772844 0)
(20.568 -0.0789673 0)
(28.4821 -0.234421 0)
(32.7512 -0.441016 0)
(32.0075 -0.45967 0)
(27.7148 -0.245965 0)
(19.8397 -0.0826755 0)
(19.0919 -0.0846915 0)
(26.9249 -0.252221 0)
(31.24 -0.474096 0)
(30.4431 -0.496098 0)
(26.0993 -0.265655 0)
(18.3078 -0.0890327 0)
(17.4992 -0.0918209 0)
(25.2459 -0.274124 0)
(29.618 -0.514144 0)
(28.7574 -0.540927 0)
(24.3493 -0.290336 0)
(16.6468 -0.0969638 0)
(15.7629 -0.101156 0)
(23.4172 -0.302034 0)
(27.8617 -0.564339 0)
(26.9232 -0.597271 0)
(22.4325 -0.320181 0)
(14.825 -0.106224 0)
(13.8413 -0.112299 0)
(21.4015 -0.338588 0)
(25.9409 -0.628812 0)
(24.9 -0.673586 0)
(20.298 -0.367106 0)
(12.7843 -0.12046 0)
(11.6684 -0.12719 0)
(19.1333 -0.386582 0)
(23.8033 -0.715782 0)
(22.6344 -0.775033 0)
(17.8751 -0.417862 0)
(10.4558 -0.137625 0)
(9.15112 -0.150153 0)
(16.5259 -0.456322 0)
(21.3911 -0.8396 0)
(20.0476 -0.931121 0)
(15.0448 -0.523117 0)
(7.68124 -0.171445 0)
(6.0629 -0.189784 0)
(13.4298 -0.581482 0)
(18.5939 -1.03108 0)
(17.0382 -1.18124 0)
(11.6376 -0.678227 0)
(4.2638 -0.246731 0)
(1.77685 -0.334036 0)
(9.58227 -0.819126 0)
(15.4007 -1.30584 0)
(13.7433 -1.22122 0)
(7.5119 -0.731339 0)
(-1.05961 -0.169928 0)
(-2.27187 0.0237304 0)
(5.56651 -0.481053 0)
(11.9388 -1.02333 0)
(9.86509 -0.896299 0)
(3.5098 -0.320152 0)
(-2.94144 0.0581479 0)
(-3.40785 0.0330861 0)
(1.7861 -0.227697 0)
(7.83637 -0.766211 0)
(5.97575 -0.616772 0)
(0.338455 -0.193147 0)
(-3.86092 0.00259799 0)
(-4.17415 0.00512737 0)
(-0.599175 -0.117045 0)
(4.43648 -0.396288 0)
(3.17926 -0.224608 0)
(-1.25674 -0.0782509 0)
(-4.37352 0.0210831 0)
(-4.34551 0.0489324 0)
(-1.58912 -0.0213375 0)
(2.28843 -0.0681667 0)
(1.51765 -0.0211797 0)
(-1.84048 -0.0148905 0)
(-4.25776 0.0524094 0)
(-4.03203 0.0586057 0)
(-1.90292 0.017379 0)
(0.984514 -0.00509163 0)
(0.273086 -0.101006 0)
(-2.21535 -0.0211918 0)
(-3.95197 0.0419904 0)
(-3.77045 0.0474778 0)
(-2.44181 0.0127999 0)
(-0.280159 -0.1015 0)
(-1.09751 -0.182251 0)
(-2.92684 -0.0502796 0)
(-3.77804 0.0257244 0)
(-3.68116 0.0357072 0)
(-3.15428 -0.0064442 0)
(-1.57133 -0.0919025 0)
(-2.31972 -0.204007 0)
(-3.6215 -0.0822218 0)
(-3.79718 0.00215519 0)
(-3.80279 0.0209399 0)
(-3.79372 -0.0135227 0)
(-2.64852 -0.0562768 0)
(-3.21445 -0.231372 0)
(-4.18856 -0.105077 0)
(-3.98953 -0.0153519 0)
(-4.10245 0.00863588 0)
(-4.3839 -0.0190404 0)
(-3.48532 -0.0502564 0)
(-3.93585 -0.240189 5.52102e-19)
(-4.72518 -0.11788 0)
(-4.32406 -0.0273576 0)
(-4.48133 0.00638494 0)
(-4.91198 -0.0118659 0)
(-4.16715 -0.0201606 0)
(-4.51929 -0.219684 0)
(-5.17552 -0.109358 0)
(-4.67148 -0.0300137 0)
(-4.81489 0.0147199 0)
(-5.31441 0.0240877 0)
(-4.69682 0.0567433 0)
(-4.82095 -0.0955836 0)
(-5.37612 -0.0464576 0)
(-4.815 -0.0143951 0)
(-4.76269 0.0339119 0)
(-5.3121 0.0991522 0)
(-4.79848 0.17547 5.5169e-19)
(-4.71916 0.0449156 0)
(-5.16214 0.0379476 0)
(-4.50237 0.013414 0)
(-4.23829 0.0506092 0)
(-4.9044 0.154796 0)
(-4.50473 0.260183 5.51933e-19)
(-4.31657 0.117461 0)
(-4.63335 0.0827857 0)
(-3.825 0.0289464 0)
(-3.46086 0.0583544 0)
(-4.29504 0.172149 0)
(-4.02889 0.288918 5.52511e-19)
(-3.81623 0.112646 0)
(-3.99519 0.0826591 0)
(-3.00628 0.0297637 0)
(-2.71712 0.0507283 0)
(-3.71664 0.148089 0)
(-3.57382 0.253195 5.53168e-19)
(-3.37336 0.0644788 0)
(-3.44147 0.0565709 0)
(-2.29652 0.0220355 0)
(-2.1731 0.0333674 0)
(-3.32587 0.0937392 0)
(-3.27864 0.16038 5.53701e-19)
(-3.14447 0.0295884 0)
(-3.13393 0.0305147 0)
(-1.87019 0.015311 0)
(-1.8327 0.0190599 0)
(-3.11209 0.0463735 0)
(-3.14738 0.0840447 5.54069e-19)
(-3.08989 0.00812361 0)
(-3.0142 0.0114902 0)
(-1.66168 0.00903281 0)
(-1.65003 0.01093 0)
(-3.01963 0.0239391 0)
(-3.11815 0.0423556 5.54291e-19)
(-3.10221 0.00354032 0)
(-2.97692 0.00483828 0)
(-1.56169 0.00638018 0)
(-1.54726 0.00752909 0)
(-2.98122 0.0128929 0)
(-3.12622 0.02272 0)
(-3.13027 0.00232166 0)
(-2.96696 0.00307325 0)
(-1.49984 0.0049728 0)
(-1.48082 0.00642587 0)
(-2.96734 0.00970286 0)
(-3.14601 0.0159617 0)
(-3.15431 0.00203311 0)
(-2.96113 0.00332757 0)
(-1.44467 0.00456666 0)
(-1.42333 0.00599984 0)
(-2.96143 0.00895813 0)
(-3.16779 0.0128724 0)
(-3.1774 0.00168912 0)
(-2.95791 0.00382851 0)
(-1.39011 0.00433703 0)
(-1.36836 0.00535886 0)
(-2.95908 0.00828012 0)
(-3.19153 0.0103376 0)
(-3.20276 0.000901261 0)
(-2.95697 0.00365173 0)
(-1.33893 0.00349004 0)
(-1.32058 0.00389174 0)
(-2.95751 0.00730795 0)
(-3.21722 0.00874176 0)
(-3.22712 0.00162312 0)
(-2.95299 0.00326647 0)
(-1.29798 0.00166259 0)
(-1.28643 0.00134907 0)
(-2.9471 0.00647255 0)
(-3.23667 0.0100332 0)
(-3.23658 0.00639456 0)
(-2.9314 0.00343084 0)
(-1.27347 -0.00133736 0)
(-1.27008 -0.00243571 0)
(-2.90707 0.00687866 0)
(-3.22902 0.0172559 0)
(-3.20268 0.0196679 0)
(-2.86381 0.0057219 0)
(-1.26562 -0.00511594 0)
(-1.26371 -0.00570486 0)
(-2.8009 0.0125206 0)
(-3.15686 0.0364095 0)
(-3.07718 0.0494391 0)
(-2.70474 0.0167064 0)
(-1.25137 -0.00717652 -1.00459e-19)
(-1.22181 -0.00669038 -3.75318e-25)
(-2.56708 0.0280341 0)
(-2.95991 0.0765674 0)
(-2.78689 0.106051 1.40556e-19)
(-2.38376 0.0429657 -1.68131e-19)
(-1.16225 -0.00407866 1.01889e-19)
(-1.06503 0.000834922 0)
(-2.13653 0.0621053 1.69512e-19)
(-2.55311 0.148181 -1.41243e-19)
(-2.23057 0.176179 1.48857e-18)
(-1.81031 0.0720166 -3.62916e-19)
(-0.877787 -0.00239212 0)
(-0.81552 0.0192204 0)
(-1.52761 0.124833 3.72251e-19)
(-1.89398 0.249854 -3.12529e-19)
(-1.39101 0.276776 3.50619e-19)
(-0.965571 0.127378 -2.12268e-18)
(-0.30244 0.0169135 -1.03784e-18)
(-0.314055 0.0601299 7.72808e-19)
(-0.809228 0.294397 -3.459e-18)
(-1.16254 0.498145 1.47292e-18)
(-0.519708 0.496044 -1.56308e-18)
(0.295783 0.30441 2.79766e-18)
(0.881338 0.0777404 -8.37154e-19)
(-1.3787 0.717762 0)
(-2.36116 1.00218 5.85756e-19)
(-2.68729 1.09731 -2.60513e-18)
(-2.58209 1.13603 -2.22403e-18)
(-2.23777 1.16574 0)
(-1.48498 0.987792 -5.53784e-19)
(-0.693927 0.896378 2.47658e-24)
(0.911835 0.254129 -6.9798e-20)
(2.46572 -0.124862 6.97393e-20)
(4.8447 -0.603166 0)
(6.53829 -0.974777 1.74247e-20)
(8.99981 -1.38807 -1.73875e-20)
(10.71 -1.73183 0)
(13.1069 -2.11479 0)
(14.741 -2.42539 0)
(16.9199 -2.76196 0)
(18.4059 -3.02422 0)
(20.2661 -3.28984 0)
(21.5616 -3.50178 -5.47452e-19)
(23.0774 -3.68568 0)
(24.1469 -3.83664 0)
(25.3444 -3.94431 0)
(26.2083 -4.02782 0)
(27.1353 -4.0663 0)
(27.826 -4.08793 0)
(28.5507 -4.06951 0)
(29.1097 -4.03964 0)
(29.6921 -3.97655 0)
(30.1569 -3.90578 0)
(30.643 -3.80833 0)
(31.0431 -3.70569 5.22882e-19)
(31.4656 -3.58187 -5.29512e-19)
(31.8222 -3.45449 7.32757e-20)
(32.203 -3.31031 7.18766e-19)
(32.5293 -3.16485 -2.63833e-19)
(32.8808 -3.00715 -5.34028e-19)
(33.1817 -2.85279 1.10063e-18)
(33.5026 -2.6935 -1.40288e-19)
(33.7559 -2.54074 0)
(34.0434 -2.3619 2.11343e-17)
(34.2945 -2.23128 -4.27228e-17)
(34.516 -2.09995 1.09541e-17)
(34.7418 -1.96343 0)
(34.9618 -1.83091 0)
(35.1682 -1.70133 -4.00224e-19)
(35.3621 -1.57185 0)
(35.5461 -1.43987 5.32326e-20)
(35.7221 -1.30344 -5.36543e-20)
(35.8855 -1.16053 0)
(36.0335 -1.00918 4.3499e-19)
(36.14 -0.84969 -9.3328e-19)
(36.1887 -0.683477 9.23238e-19)
(36.0842 -0.506122 -4.2729e-18)
(35.6818 -0.337707 2.67783e-18)
(34.1629 -0.194304 -1.45984e-18)
(31.7679 -0.115088 0)
(23.9729 -0.0654868 2.67189e-19)
(23.5126 -0.0366678 -1.22808e-18)
(31.4023 -0.100617 -2.45761e-18)
(33.8385 -0.169844 1.1944e-23)
(33.5974 -0.14284 0)
(31.137 -0.0726157 0)
(23.1778 -0.028592 0)
(23.0754 -0.0113293 0)
(30.9822 -0.0496445 -6.93161e-19)
(33.4257 -0.115565 0)
(33.2812 -0.093688 0)
(30.8646 -0.0380145 6.69744e-19)
(23.0369 -0.00653839 0)
(22.9798 -0.00306558 0)
(30.7546 -0.0322857 6.26097e-19)
(33.1348 -0.0794359 -2.34739e-24)
(32.9811 -0.0728539 0)
(30.6281 -0.0286068 -7.75596e-20)
(22.9162 -0.000122431 2.8333e-19)
(22.862 0.00114597 1.68926e-23)
(30.5032 -0.0258582 0)
(32.8291 -0.0678553 0)
(32.6804 -0.064843 0)
(30.3798 -0.0232288 0)
(22.8041 0.000311284 -1.8648e-19)
(22.7554 -0.000228062 0)
(30.2651 -0.0209533 0)
(32.5357 -0.0615634 0)
(32.3933 -0.0594883 0)
(30.1513 -0.0189867 0)
(22.7104 0.000230807 0)
(22.6714 0.000530002 0)
(30.0397 -0.0169846 3.05309e-19)
(32.2534 -0.0581317 0)
(32.1144 -0.0567881 0)
(29.93 -0.0158134 2.60954e-23)
(22.6366 0.00108089 0)
(22.605 0.00204078 0)
(29.8215 -0.0159014 -3.06472e-19)
(31.9763 -0.0557404 0)
(31.8387 -0.0549211 0)
(29.7138 -0.0160601 0)
(22.5745 0.00272221 0)
(22.5462 0.00296621 0)
(29.6059 -0.0157688 0)
(31.6996 -0.0549391 0)
(31.5601 -0.0554062 0)
(29.4967 -0.0155799 0)
(22.5186 0.00303402 0)
(22.4914 0.00290001 0)
(29.3866 -0.0154353 0)
(31.4182 -0.0563121 0)
(31.2747 -0.0578083 0)
(29.2742 -0.0151063 0)
(22.4638 0.00262518 0)
(22.4363 0.00264494 0)
(29.1594 -0.0155579 0)
(31.1279 -0.0591827 0)
(30.979 -0.0607901 0)
(29.0422 -0.0161923 0)
(22.4067 0.00259503 0)
(22.3763 0.00251964 0)
(28.9216 -0.0169773 0)
(30.8259 -0.0627058 0)
(30.6699 -0.0648516 0)
(28.7977 -0.0178975 0)
(22.343 0.00238157 0)
(22.3081 0.00218999 0)
(28.6695 -0.0189548 0)
(30.509 -0.0672855 0)
(30.3444 -0.0699225 0)
(28.5373 -0.0201182 0)
(22.2694 0.00192687 0)
(22.2284 0.00157786 0)
(28.4 -0.021389 0)
(30.1741 -0.0728321 0)
(29.9996 -0.0759111 0)
(28.258 -0.022664 0)
(22.1828 0.00113581 0)
(22.1343 0.000631468 0)
(28.1102 -0.0238771 3.05676e-19)
(29.8184 -0.0792994 0)
(29.6322 -0.082938 0)
(27.957 -0.0261508 -3.06228e-19)
(22.0812 0.000448042 0)
(22.0223 -8.42106e-05 0)
(27.7979 -0.0278049 3.05033e-19)
(29.4402 -0.0866802 0)
(29.2407 -0.0906556 0)
(27.632 -0.0293604 -3.05581e-19)
(21.96 -0.000668115 0)
(21.8919 -0.000856957 0)
(27.4596 -0.0320426 0)
(29.0351 -0.0947461 0)
(28.823 -0.0989404 0)
(27.2807 -0.0342311 0)
(21.8173 -0.00130297 0)
(21.7384 -0.00169258 0)
(27.0941 -0.0366688 0)
(28.6025 -0.103189 0)
(28.3759 -0.107108 0)
(26.9009 -0.0395726 0)
(21.6525 -0.00199244 0)
(21.5609 -0.00262569 0)
(26.7004 -0.0417835 0)
(28.1405 -0.111622 0)
(27.8983 -0.116156 0)
(26.4921 -0.0438644 0)
(21.4635 -0.00323964 0)
(21.3604 -0.00385041 0)
(26.2768 -0.045885 0)
(27.6473 -0.120669 0)
(27.3895 -0.125366 0)
(26.0541 -0.0476369 0)
(21.2516 -0.00432492 0)
(21.1382 -0.00457039 0)
(25.8249 -0.0492815 0)
(27.1238 -0.129147 0)
(26.8507 -0.132225 0)
(25.5897 -0.050572 0)
(21.0209 -0.00433746 0)
(20.9016 -0.0035614 0)
(25.3497 -0.0512587 0)
(26.571 -0.134457 0)
(26.2854 -0.135149 0)
(25.1064 -0.0507484 0)
(20.7824 -0.00253981 0)
(20.6666 -0.000855347 0)
(24.861 -0.048483 0)
(25.9948 -0.133406 0)
(25.7016 -0.128383 0)
(24.6178 -0.0444799 0)
(20.5609 0.00215241 0)
(20.483 0.00747793 0)
(24.3874 -0.0386786 0)
(25.4139 -0.118082 0)
(25.137 -0.0892815 2.53388e-19)
(24.1839 -0.0219669 0)
(20.462 0.027149 0)
(20.4679 0.109471 -1.50069e-18)
(23.979 0.0562497 1.53957e-18)
(24.8525 -0.0114573 0)
(24.522 0.119351 1.12491e-23)
(23.7225 0.194006 -2.78111e-18)
(20.4287 0.251867 -1.88313e-19)
(20.2642 0.472149 -5.83829e-18)
(23.3604 0.410432 9.87797e-18)
(24.1053 0.300262 -4.3226e-18)
(23.5968 0.47539 -7.92787e-18)
(22.8879 0.605437 4.65825e-18)
(19.9549 0.661864 0)
(19.5515 0.856619 1.20979e-17)
(22.329 0.802704 -9.58072e-18)
(23.0144 0.644983 0)
(22.375 0.769716 0)
(21.7069 0.940641 0)
(19.0633 0.988914 0)
(18.5829 1.07608 -1.05658e-17)
(21.0815 1.02736 9.82918e-18)
(21.7184 0.854109 8.02728e-18)
(21.0283 0.927664 7.7637e-18)
(20.4419 1.09829 -9.73336e-18)
(18.1256 1.15861 1.52738e-18)
(17.6561 1.28542 -2.56819e-17)
(19.7728 1.20443 1.71515e-17)
(20.2876 1.01966 0)
(19.3708 1.01786 9.52632e-17)
(18.9225 1.20353 0)
(17.0897 1.28034 2.03732e-18)
(14.1247 1.08079 -2.63863e-18)
(17.6876 1.20049 4.73378e-18)
(18.5915 1.16013 -4.32935e-18)
(18.1228 1.27246 1.40215e-18)
(17.4305 1.45027 0)
(14.879 1.33205 0)
(14.3671 1.35541 -9.4908e-19)
(16.7007 1.45105 -3.84723e-19)
(17.3352 1.25573 -1.87072e-18)
(16.4532 1.20913 2.00178e-17)
(15.9083 1.43775 -2.32458e-17)
(13.9216 1.39948 3.02205e-17)
(13.2753 1.42747 -2.7659e-17)
(15.0079 1.41954 -2.23093e-17)
(15.4932 1.15143 1.79847e-17)
(14.4516 1.03609 -1.45661e-21)
(14.0101 1.33654 2.1847e-17)
(12.504 1.39507 -6.35163e-19)
(11.6733 1.34786 8.06543e-19)
(12.9532 1.22368 -2.22121e-17)
(13.3412 0.883841 -2.12254e-18)
(12.0927 0.689075 -1.39353e-17)
(11.7565 1.08906 -1.87963e-17)
(10.6759 1.3044 2.53066e-17)
(9.59167 1.29594 -4.67544e-17)
(10.4498 0.96589 2.02475e-21)
(10.6744 0.472317 2.60579e-17)
(8.93415 0.281322 -4.67595e-21)
(8.78748 0.750478 1.13473e-16)
(8.26982 1.13116 0)
(6.11114 0.86034 -4.51317e-17)
(7.49325 0.773485 3.4067e-17)
(7.91191 0.488522 0)
(6.46168 0.123951 -2.24893e-17)
(6.09032 0.561174 2.94786e-17)
(5.31436 0.763548 1.07925e-18)
(3.77287 0.474752 0)
(4.37102 0.149826 0)
(4.73336 -0.400404 0)
(2.7673 -1.05094 -1.60255e-17)
(2.4297 -0.356382 4.59019e-17)
(2.03178 0.114155 2.19906e-21)
(-0.0442385 -0.375069 3.44212e-18)
(0.175959 -1.02869 -4.82969e-17)
(0.510345 -1.9074 -2.10189e-18)
(-2.19866 -3.10369 0)
(-2.51149 -1.95572 4.60482e-18)
(-2.77387 -1.16001 -5.29871e-17)
(-5.17166 -1.46959 -1.45242e-16)
(-5.73766 -2.36166 6.02567e-17)
(-5.75534 -3.65788 1.03209e-16)
(-7.71102 -4.32621 0)
(-8.02834 -3.29191 0)
(-7.80717 -2.30342 9.31941e-17)
(-12.0506 -3.89483 -7.1732e-17)
(-12.1064 -5.22833 5.49705e-17)
(-11.3556 -6.49922 2.14082e-17)
(-15.6097 -9.54212 3.84109e-17)
(-16.5109 -7.98657 2.42568e-20)
(-16.9366 -6.59766 -5.88974e-17)
(-20.8215 -8.16019 7.86364e-17)
(-21.3121 -9.35445 -6.72365e-17)
(-21.2249 -11.3787 1.02629e-16)
(-25.2856 -16.2404 2.62286e-17)
(-26.8201 -14.1388 4.02801e-17)
(-27.3514 -11.6856 -9.03381e-17)
(-35.7761 -19.9588 -1.38721e-16)
(-34.2053 -22.3549 -1.17373e-17)
(-31.4887 -24.7358 1.41935e-16)
(-40.7887 -33.2942 0)
(-42.1026 -31.7332 1.51815e-16)
(-44.2328 -28.8091 -1.60378e-16)
(-55.0826 -52.8864 -1.73794e-16)
(-47.1997 -54.0004 1.25406e-16)
(-40.4398 -54.9081 -1.29931e-17)
(-36.8548 -88.7232 1.02416e-17)
(-40.3887 -91.3491 1.07706e-16)
(-53.0149 -91.8501 0)
(-9.48666 -121.896 1.38898e-19)
(8.18786 -117.128 -1.01318e-17)
(-2.26258 -114.165 -3.6576e-18)
(36.5813 -110.492 -5.28075e-18)
(53.438 -103.944 0)
(35.4985 -103.566 7.93832e-17)
(51.9044 -69.5221 -1.1659e-16)
(68.9123 -80.4796 8.00396e-17)
(59.8103 -90.4348 -1.25303e-16)
(62.8121 -64.2234 1.35612e-16)
(62.996 -56.2862 -1.63841e-16)
(45.0016 -47.8557 2.36892e-16)
(28.8084 -27.7513 0)
(49.5448 -36.9842 4.9515e-18)
(55.4356 -45.1661 -4.12947e-18)
(54.3432 -46.0419 1.0545e-17)
(46.5981 -34.7522 6.37165e-17)
(25.2889 -17.3542 -1.72116e-16)
(21.4762 -13.1209 0)
(40.7908 -26.602 3.14818e-18)
(50.3819 -35.2501 -9.1466e-18)
(42.3518 -24.1891 0)
(30.4421 -17.8237 8.03142e-17)
(9.41657 -5.60504 -1.02326e-16)
(15.6501 -7.55642 -6.14589e-21)
(34.6928 -21.5331 8.70938e-17)
(45.1895 -30.2377 -1.14293e-16)
(41.3568 -23.9415 7.61817e-17)
(30.6886 -17.2987 -1.2653e-17)
(14.1496 -7.12581 0)
(3.88133 -1.87093 -3.14586e-18)
(23.0083 -11.2499 5.39263e-18)
(34.7406 -15.8 -2.32044e-17)
(39.1925 -22.3459 -1.13668e-16)
(29.9888 -15.96 -4.26043e-18)
(15.6086 -6.64624 -8.11739e-17)
(14.6482 -6.93731 -2.13706e-18)
(27.3362 -13.9263 0)
(36.3047 -18.7943 -7.06311e-17)
(31.1371 -13.3052 -4.61219e-18)
(21.7122 -10.1234 8.98864e-17)
(7.98317 -3.76322 -9.847e-17)