/*--------------------------------*- C++ -*----------------------------------*\
| =========                 |                                                 |
| \\      /  F ield         | OpenFOAM: The Open Source CFD Toolbox           |
|  \\    /   O peration     | Version:  v2006                                 |
|   \\  /    A nd           | Website:  www.openfoam.com                      |
|    \\/     M anipulation  |                                                 |
\*---------------------------------------------------------------------------*/
FoamFile
{
    version     2.0;
    format      ascii;
    class       volScalarField;
    location    "0.02";
    object      nut;
}
// * * * * * * * * * * * * * * * * * * * * * * * * * * * * * * * * * * * * * //

dimensions      [0 2 -1 0 0 0 0];


internalField   nonuniform List<scalar> 
11076
(
5.95961
5.93909
16.7683
17.4459
17.051
19.2663
20.4973
23.1131
21.119
13.8491
3.54977
1.32587
0.727233
0.510758
0.414112
0.363592
0.33235
0.309411
0.2904
0.273789
0.259142
0.24632
0.235187
0.225544
0.217167
0.209846
0.203403
0.197706
0.192656
0.188184
0.184234
0.180767
0.177755
0.175174
0.173005
0.171235
0.169859
0.168874
0.168288
0.168116
0.168364
0.169052
0.17021
0.171879
0.174119
0.17701
0.180651
0.185155
0.190633
0.197161
0.20475
0.213355
0.223052
0.234606
0.250687
0.278955
0.338984
0.482027
0.85621
1.8903
4.2012
5.89337
3.90976
4.51921
1.47888
0.630836
0.323176
0.178538
0.0838093
0.0196477
0.0035549
0.000114039
9.90685e-05
0.00167657
0.00757849
0.00480116
0.00122737
8.85741e-05
8.01819e-05
0.00108134
0.00385514
0.00327549
0.000968631
7.48863e-05
7.04226e-05
0.000920547
0.00295364
0.00266337
0.000846303
6.68519e-05
6.3966e-05
0.000810722
0.00249721
0.00232301
0.000773336
6.15117e-05
5.98666e-05
0.000755217
0.00223523
0.00210728
0.00072446
5.81054e-05
5.70092e-05
0.000714781
0.00205961
0.00196473
0.00069036
5.56952e-05
5.49185e-05
0.00068455
0.00193115
0.00185604
0.000664336
5.38966e-05
5.33143e-05
0.000660353
0.0018306
0.00176758
0.000643232
5.24968e-05
5.20373e-05
0.000639898
0.00174764
0.00169305
0.000625219
5.13575e-05
5.0981e-05
0.000622306
0.00167707
0.00162868
0.000609394
5.03994e-05
5.00816e-05
0.000606803
0.00161556
0.00157207
0.000595226
4.95715e-05
4.92957e-05
0.000592869
0.00156082
0.00152149
0.000582319
4.88386e-05
4.85939e-05
0.000580167
0.00151165
0.00147573
0.000570442
4.81773e-05
4.79561e-05
0.000568475
0.00146699
0.00143387
0.000559422
4.75711e-05
4.73681e-05
0.000557622
0.00142606
0.00139531
0.000549127
4.70082e-05
4.68196e-05
0.000547479
0.00138827
0.00135953
0.000539452
4.648e-05
4.6303e-05
0.000537938
0.00135314
0.00132607
0.000530303
4.598e-05
4.58124e-05
0.000528905
0.00132029
0.0012947
0.000521602
4.55028e-05
4.53428e-05
0.000520309
0.00128945
0.00126518
0.000513291
4.5044e-05
4.48901e-05
0.000512094
0.00126038
0.00123726
0.000505321
4.46001e-05
4.44512e-05
0.000504209
0.00123285
0.00121077
0.000497646
4.41682e-05
4.40233e-05
0.00049661
0.00120669
0.00118552
0.000490228
4.37458e-05
4.3604e-05
0.000489261
0.00118172
0.00116138
0.00048303
4.33306e-05
4.31911e-05
0.000482124
0.00115781
0.0011382
0.000476018
4.29204e-05
4.27827e-05
0.000475167
0.00113483
0.00111586
0.00046916
4.25135e-05
4.23769e-05
0.000468354
0.00111266
0.00109427
0.000462422
4.2108e-05
4.1972e-05
0.000461654
0.0010912
0.00107333
0.000455773
4.17022e-05
4.15661e-05
0.000455033
0.00107035
0.00105291
0.000449179
4.12942e-05
4.11574e-05
0.000448459
0.00105
0.00103293
0.000442606
4.08821e-05
4.07439e-05
0.000441898
0.00103005
0.00101328
0.000436021
4.04636e-05
4.03233e-05
0.000435319
0.0010104
0.000993873
0.000429397
4.00365e-05
3.98933e-05
0.0004287
0.000990971
0.000974639
0.000422712
3.95986e-05
3.94518e-05
0.000422019
0.000971698
0.000955518
0.000415948
3.9148e-05
3.8997e-05
0.000415232
0.000952515
0.000936439
0.000409072
3.86824e-05
3.85265e-05
0.000408341
0.000933357
0.000917345
0.000402078
3.81999e-05
3.80387e-05
0.000401329
0.00091417
0.000898186
0.000394946
3.76988e-05
3.75321e-05
0.000394177
0.000894907
0.000878919
0.000387661
3.71774e-05
3.70045e-05
0.000386872
0.000875525
0.000859504
0.000380208
3.6633e-05
3.64529e-05
0.000379405
0.000855993
0.000839922
0.000372585
3.60628e-05
3.58752e-05
0.000371783
0.000836312
0.000820198
0.00036481
3.54657e-05
3.5271e-05
0.000364038
0.000816608
0.000800432
0.000356929
3.48416e-05
3.46392e-05
0.000356204
0.000796968
0.000780735
0.000349056
3.41894e-05
3.39788e-05
0.000348384
0.000777508
0.000761291
0.00034127
3.35091e-05
3.32927e-05
0.000340682
0.000758458
0.000742353
0.000333665
3.28056e-05
3.2586e-05
0.000333246
0.000740129
0.000724296
0.000326439
3.20847e-05
3.1865e-05
0.000326272
0.00072271
0.000707481
0.000319788
3.13532e-05
3.1137e-05
0.000319995
0.000706914
0.000692542
0.000313976
3.06222e-05
3.04164e-05
0.000314678
0.000693309
0.000679999
0.000309276
2.99078e-05
2.97199e-05
0.000310595
0.000682434
0.000670453
0.000305945
2.923e-05
2.90663e-05
0.000307994
0.00067482
0.000664371
0.000304195
2.86073e-05
2.84739e-05
0.000306983
0.000670749
0.000662213
0.000304063
2.80525e-05
2.79512e-05
0.000307535
0.000670455
0.000663836
0.000305428
2.75724e-05
2.74994e-05
0.000309417
0.000673805
0.000668905
0.000307911
2.71657e-05
2.71109e-05
0.000312152
0.000680148
0.00067678
0.000311173
2.6823e-05
2.67688e-05
0.000315249
0.000688679
0.000686162
0.000313336
2.6563e-05
2.64815e-05
0.000316801
0.000697757
0.000695189
0.000313959
2.6295e-05
2.61794e-05
0.000317094
0.000706715
0.000703781
0.00031395
2.59982e-05
2.58715e-05
0.00031672
0.000714574
0.000710903
0.000313374
2.56923e-05
2.55698e-05
0.00031578
0.000720757
0.00071613
0.000312248
2.54044e-05
2.52851e-05
0.000314199
0.000724929
0.000719443
0.000310593
2.51294e-05
2.5022e-05
0.000312108
0.000727222
0.000720939
0.000308486
2.48759e-05
2.47762e-05
0.000309646
0.000727835
0.000720907
0.000306036
2.46418e-05
2.4554e-05
0.000306912
0.000726943
0.000719611
0.000303383
2.44318e-05
2.43505e-05
0.000304047
0.000724865
0.000717425
0.000300553
2.42395e-05
2.41653e-05
0.000301102
0.000721827
0.000714402
0.000297773
2.40623e-05
2.39913e-05
0.000298194
0.000718223
0.000710782
0.00029502
2.39018e-05
2.38413e-05
0.000295337
0.000714073
0.000706747
0.000292349
2.3759e-05
2.37014e-05
0.00029259
0.00070958
0.000702361
0.000289841
2.36293e-05
2.35771e-05
0.000289924
0.000704816
0.000697779
0.000287311
2.35094e-05
2.34597e-05
0.00028736
0.000699765
0.000692946
0.000284895
2.33972e-05
2.33491e-05
0.00028492
0.000694603
0.000687828
0.000282558
2.3288e-05
2.32575e-05
0.00028249
0.000689183
0.000682872
0.000280675
2.32264e-05
2.31311e-05
0.000279442
0.000680784
0.000676011
0.000278041
2.32119e-05
2.29987e-05
0.000275946
0.000671265
0.000675618
0.000276604
2.3358e-05
2.37888e-05
0.000288453
0.00070577
0.00073939
0.000301902
2.45226e-05
0.0020471
0.00392966
0.00607597
0.00847431
0.0104415
0.013066
0.0151893
0.0172385
0.0188212
0.0201054
0.0209072
0.021234
0.0210446
0.0202817
0.0190823
0.0172846
0.0152706
0.0126989
0.0107765
0.00845317
0.00543475
0.00381531
0.00237338
0.00112007
0.000380215
0.000147995
1.5121e-05
1.41032e-05
0.000122982
0.000319243
0.000283619
0.000109889
1.3126e-05
1.20613e-05
9.51409e-05
0.000242866
0.000227961
8.95632e-05
1.16836e-05
1.15096e-05
9.03563e-05
0.000231794
0.000219068
8.60653e-05
1.14381e-05
1.14344e-05
8.813e-05
0.000229999
0.000221622
8.47921e-05
1.14139e-05
1.15056e-05
8.91699e-05
0.000232897
0.000226202
8.60766e-05
1.14889e-05
1.15749e-05
9.02242e-05
0.000236956
0.000230139
8.7117e-05
1.15537e-05
1.16447e-05
9.14083e-05
0.000241207
0.000234239
8.82792e-05
1.16241e-05
1.17149e-05
9.26371e-05
0.000245637
0.000238557
8.94387e-05
1.16985e-05
1.17897e-05
9.3873e-05
0.000250215
0.000243037
9.06078e-05
1.17727e-05
1.18675e-05
9.51937e-05
0.000255063
0.000247637
9.19044e-05
1.18461e-05
1.19451e-05
9.65876e-05
0.000260127
0.000252622
9.32199e-05
1.19304e-05
1.20361e-05
9.80814e-05
0.000265423
0.000257711
9.46749e-05
1.20159e-05
1.21253e-05
9.9641e-05
0.000270965
0.000263144
9.61629e-05
1.21081e-05
1.22197e-05
0.000101228
0.000276714
0.000268798
9.76071e-05
1.22024e-05
1.23178e-05
0.000102891
0.000282671
0.00027453
9.9229e-05
1.22943e-05
1.24135e-05
0.000104644
0.000288887
0.000280546
0.000100916
1.2389e-05
1.25112e-05
0.000106524
0.000295383
0.000286896
0.000102726
1.24919e-05
1.26194e-05
0.000108463
0.000302284
0.000293524
0.000104627
1.2598e-05
1.2729e-05
0.000110477
0.000309358
0.000300401
0.00010653
1.27099e-05
1.2845e-05
0.000112525
0.000316683
0.000307592
0.000108453
1.28242e-05
1.29651e-05
0.000114655
0.000324219
0.000314811
0.000110507
1.29364e-05
1.30831e-05
0.000116837
0.00033208
0.000322391
0.000112545
1.30587e-05
1.32057e-05
0.000119017
0.000340127
0.000330173
0.000114613
1.31729e-05
1.33235e-05
0.000121229
0.000348351
0.000338026
0.000116701
1.32901e-05
1.34459e-05
0.000123336
0.000356608
0.000345925
0.000118608
1.34172e-05
1.35741e-05
0.000125193
0.00036499
0.000354111
0.000120208
1.35427e-05
1.37169e-05
0.000126866
0.000373815
0.000362831
0.000121712
1.3684e-05
1.38923e-05
0.000128665
0.000384078
0.000373505
0.000123525
1.38831e-05
1.41107e-05
0.000131292
0.000396991
0.000386926
0.00012669
1.41179e-05
1.43235e-05
0.000135971
0.000415633
0.000403052
0.00013109
1.42838e-05
1.44381e-05
0.000142279
0.000438729
0.00042422
0.000135244
1.44162e-05
1.4678e-05
0.000147906
0.000457084
0.00044203
0.000142037
1.47554e-05
1.50116e-05
0.000156469
0.000482386
0.000464361
0.000147231
1.51043e-05
1.53306e-05
0.000160767
0.000496889
0.000483159
0.000153314
1.55295e-05
1.60685e-05
0.000167764
0.00051256
0.00049733
0.000161936
1.64124e-05
1.73376e-05
0.000173721
0.000527197
0.00051325
0.000172659
1.83899e-05
2.06358e-05
0.000182144
0.000556881
0.00056928
0.00017914
2.43385e-05
3.02304e-05
0.000212953
0.000784317
0.00129513
0.000293995
4.92993e-05
8.15265e-05
0.000799558
0.00182574
0.00189568
0.000696611
7.65823e-05
7.90613e-05
0.000532434
0.00136493
0.00200357
0.000723184
0.000101281
0.000128769
0.000883065
0.00224918
0.00268835
0.00106294
0.000152428
0.0001799
0.0012097
0.00298064
0.0034333
0.0014153
0.00020673
0.000238659
0.00164159
0.00384078
0.00438348
0.00187507
0.000261955
0.000264471
0.00187019
0.00434399
0.00356836
0.0016224
0.000243992
0.000286168
0.00187724
0.00441921
0.00476489
0.00206805
0.00031746
0.000327888
0.00214901
0.00495297
0.00434446
0.00199428
0.00029985
0.000266886
0.0016343
0.00344996
0.00329618
0.00155727
0.000246288
0.000242591
0.00144609
0.00291574
0.00339654
0.0016157
0.000261073
0.000291003
0.00182352
0.003781
0.00405133
0.00204906
0.00032158
0.000334058
0.0021932
0.00344528
0.00327854
0.00227002
0.000359835
0.000404768
0.00271138
0.00297672
0.0026006
0.0023923
0.00048572
0.000535794
0.00215311
0.00220088
0.00214106
0.00197499
0.000629323
0.000722582
0.00169552
0.00202524
0.00178044
0.00160736
0.000861003
0.000961118
0.00147785
0.00172038
0.00181489
0.00141049
0.000930829
0.00108931
0.00147405
0.00196642
0.00203128
0.0015014
0.00101223
0.00114015
0.00146688
0.00208593
0.00226581
0.00144811
0.000990288
0.00108845
0.00145924
0.0027132
0.00243556
0.00133293
0.000933931
0.000918072
0.00111894
0.00181637
0.00191208
0.00115567
0.000725104
0.000676581
0.0011636
0.0018396
0.00272824
0.00120047
0.000542888
0.00044289
0.000917198
0.00140956
0.00144873
0.000820236
0.000376259
0.000339643
0.000724324
0.00125025
0.000856915
0.000599298
0.000278696
0.000261145
0.000574956
0.000959368
0.000906222
0.000530097
0.000231811
0.000208767
0.000479032
0.000681936
0.000818705
0.000464381
0.000190117
0.000178775
0.000444469
0.000763354
0.00058812
0.000403434
0.000162503
0.00016323
0.000454916
0.000898533
0.000797331
0.000438908
0.000161444
0.000165008
0.00051219
0.00120757
0.00112471
0.000505765
0.000157198
0.000141199
0.000473052
0.00100872
0.000716166
0.000414077
0.000124771
0.000121528
0.000453373
0.000954574
0.000969911
0.000455125
0.000115346
0.000103083
0.000400288
0.00069971
0.000973893
0.000460038
9.83464e-05
9.59401e-05
0.000461899
0.000899958
0.000801849
0.000400933
8.02251e-05
6.70669e-05
0.000318686
0.000563541
0.000770636
0.00036041
6.16439e-05
5.93299e-05
0.000368678
0.000724114
0.000391557
0.000152127
3.39466e-05
2.45874e-05
0.000170129
0.000533128
0.000392592
0.000147085
3.00609e-05
2.2301e-05
0.000121293
0.000321399
0.000126456
5.47124e-05
1.59433e-05
1.7249e-05
0.000156303
0.000272063
0.000261189
0.000142076
2.11314e-05
1.4991e-05
5.84907e-05
0.00011468
0.000288212
0.000163751
1.74567e-05
2.27818e-05
0.000139324
0.000258972
0.000220329
0.000114304
1.83086e-05
1.40749e-05
4.71855e-05
9.45355e-05
0.00023747
0.000130352
1.50485e-05
1.90323e-05
0.000118377
0.000225442
9.54641e-05
4.98992e-05
1.42949e-05
1.51004e-05
0.00013423
0.000243979
0.000225139
0.000119621
1.89646e-05
1.44449e-05
5.06437e-05
9.5294e-05
0.000246757
0.000135434
1.53337e-05
1.92423e-05
0.000122075
0.000228676
9.91102e-05
5.26995e-05
1.47074e-05
1.59043e-05
0.000138207
0.000252745
0.000224045
0.000121703
2.08195e-05
1.71527e-05
9.74154e-05
0.000187907
8.14571e-05
4.1611e-05
1.38729e-05
1.3571e-05
0.000107935
0.000192707
0.000182083
9.93298e-05
1.74742e-05
1.34674e-05
4.27244e-05
7.93148e-05
0.000179731
0.000105072
1.3179e-05
1.69002e-05
9.30448e-05
0.000166686
7.62064e-05
4.18612e-05
1.31365e-05
1.27635e-05
9.81414e-05
0.00016514
0.000157433
9.11795e-05
1.64503e-05
1.30009e-05
4.07163e-05
7.21916e-05
0.000160492
9.54013e-05
1.26692e-05
1.62625e-05
8.8113e-05
0.000150131
7.01546e-05
3.96819e-05
1.27286e-05
1.21862e-05
8.97267e-05
0.000145873
0.000139073
8.35984e-05
1.5775e-05
1.24701e-05
3.62037e-05
6.43522e-05
0.000128519
9.50587e-05
1.1508e-05
1.40182e-05
4.76312e-05
7.48942e-05
0.000173949
0.000100447
1.34503e-05
1.70331e-05
9.11695e-05
0.000158092
7.46066e-05
4.38716e-05
1.34386e-05
1.29126e-05
9.83153e-05
0.000161
0.00015039
9.06965e-05
1.65584e-05
1.3093e-05
4.28285e-05
7.24334e-05
0.000157001
9.63277e-05
1.25902e-05
1.65012e-05
8.75226e-05
0.000144576
7.20674e-05
4.337e-05
1.31189e-05
1.23745e-05
9.11172e-05
0.000141392
0.000129734
8.13522e-05
1.59817e-05
1.25299e-05
4.05129e-05
6.46932e-05
0.000119837
9.03701e-05
1.13905e-05
1.42477e-05
4.9165e-05
7.39679e-05
0.00014805
9.31735e-05
1.33568e-05
1.69126e-05
8.20415e-05
0.000131936
6.90726e-05
4.48372e-05
1.31381e-05
1.22236e-05
8.59798e-05
0.000126429
0.000117064
7.74596e-05
1.59956e-05
1.26928e-05
4.14175e-05
6.19079e-05
0.000108067
8.33043e-05
1.13186e-05
1.41771e-05
4.9795e-05
6.93636e-05
0.00013091
8.72931e-05
1.30363e-05
1.67322e-05
7.81205e-05
0.00011949
6.60972e-05
4.54521e-05
1.32024e-05
1.23085e-05
8.39884e-05
0.000119216
0.000109225
7.54268e-05
1.61912e-05
1.2653e-05
4.30632e-05
6.05488e-05
0.000103122
8.28143e-05
1.10797e-05
1.41265e-05
5.03368e-05
6.74117e-05
0.000123952
8.40415e-05
1.28763e-05
1.6586e-05
7.51154e-05
0.000111152
6.20659e-05
4.54549e-05
1.29189e-05
1.13173e-05
8.15029e-05
0.000100639
6.73983e-05
5.22267e-05
1.43317e-05
1.29952e-05
8.46911e-05
0.000121901
0.000110334
7.59656e-05
1.68494e-05
1.33209e-05
4.75592e-05
6.3645e-05
0.000111999
8.12306e-05
1.22504e-05
1.6401e-05
7.40338e-05
0.000102136
5.9873e-05
4.63519e-05
1.29272e-05
1.12234e-05
7.76922e-05
9.21523e-05
6.30768e-05
5.09775e-05
1.43155e-05
1.27679e-05
7.73164e-05
0.000110923
9.95196e-05
7.01351e-05
1.66032e-05
1.2935e-05
4.64638e-05
5.83475e-05
8.84838e-05
7.40786e-05
1.11969e-05
1.44478e-05
5.09407e-05
6.16555e-05
0.000106582
7.62172e-05
1.28179e-05
1.6736e-05
6.98875e-05
9.62288e-05
5.85356e-05
4.85278e-05
1.31171e-05
1.11874e-05
7.49912e-05
8.76273e-05
6.1579e-05
5.22399e-05
1.45257e-05
1.28911e-05
7.52809e-05
0.00010631
9.56914e-05
6.91252e-05
1.67957e-05
1.32378e-05
4.90817e-05
5.84352e-05
8.70875e-05
7.47078e-05
1.13299e-05
1.47175e-05
5.29882e-05
6.15877e-05
0.000104582
7.52174e-05
1.30258e-05
1.70535e-05
6.96409e-05
9.46569e-05
5.88723e-05
5.10029e-05
1.35349e-05
1.15857e-05
7.50649e-05
8.71726e-05
6.20595e-05
5.45831e-05
1.50299e-05
1.31431e-05
7.55272e-05
0.000104936
9.47427e-05
7.00202e-05
1.72518e-05
1.37151e-05
5.19486e-05
5.93069e-05
8.70092e-05
7.53861e-05
1.16938e-05
1.53299e-05
5.52727e-05
6.23894e-05
0.000104455
7.58265e-05
1.35867e-05
1.77816e-05
7.07506e-05
9.4739e-05
6.03941e-05
5.40135e-05
1.41122e-05
1.1938e-05
7.68103e-05
8.7895e-05
6.32757e-05
5.7143e-05
1.56421e-05
1.37038e-05
7.63421e-05
0.000105308
9.52925e-05
7.12949e-05
1.79368e-05
1.42595e-05
5.4455e-05
6.06201e-05
8.77694e-05
7.67195e-05
1.20563e-05
1.59204e-05
5.78413e-05
6.35214e-05
0.000104912
7.6852e-05
1.38883e-05
1.83179e-05
7.22346e-05
9.53716e-05
6.17452e-05
5.6393e-05
1.45273e-05
1.23468e-05
7.81412e-05
8.86206e-05
6.45471e-05
5.97733e-05
1.61916e-05
1.40353e-05
7.72471e-05
0.000105537
9.58027e-05
7.2605e-05
1.8514e-05
1.48112e-05
5.70889e-05
6.2275e-05
8.90881e-05
7.84425e-05
1.25564e-05
1.65157e-05
6.03336e-05
6.52433e-05
0.000105704
7.82535e-05
1.44078e-05
1.8996e-05
7.39631e-05
9.61545e-05
6.34554e-05
5.89809e-05
1.51641e-05
1.27989e-05
8.02227e-05
9.01372e-05
6.64461e-05
6.23106e-05
1.68122e-05
1.45722e-05
7.87042e-05
0.00010661
9.70868e-05
7.44302e-05
1.9203e-05
1.53616e-05
5.96676e-05
6.40585e-05
9.0827e-05
8.04915e-05
1.30347e-05
1.71947e-05
6.32536e-05
6.73152e-05
0.000107284
8.00661e-05
1.4926e-05
1.96648e-05
7.59885e-05
9.78088e-05
6.54113e-05
6.15379e-05
1.57629e-05
1.31881e-05
8.23966e-05
9.22713e-05
6.88095e-05
6.5483e-05
1.74444e-05
1.49669e-05
8.06231e-05
0.000108648
9.91273e-05
7.65479e-05
1.98452e-05
1.5905e-05
6.21726e-05
6.62185e-05
9.30309e-05
8.25184e-05
1.34939e-05
1.79158e-05
6.62652e-05
6.96083e-05
0.000109573
8.25986e-05
1.55024e-05
2.04636e-05
7.88054e-05
0.000100167
6.82699e-05
6.49892e-05
1.64083e-05
1.37837e-05
8.55766e-05
9.5135e-05
7.15894e-05
6.91209e-05
1.8229e-05
1.57864e-05
8.37145e-05
0.000111872
0.000102274
7.97979e-05
2.08338e-05
1.67533e-05
6.5822e-05
6.97799e-05
9.63544e-05
8.61169e-05
1.40716e-05
1.87091e-05
7.01627e-05
7.28929e-05
0.000113521
8.603e-05
1.61675e-05
2.12569e-05
8.23168e-05
0.000104063
7.17454e-05
6.83523e-05
1.70696e-05
1.4379e-05
8.87151e-05
9.8771e-05
7.51306e-05
7.31465e-05
1.91227e-05
1.65204e-05
8.78363e-05
0.000116391
0.000106632
8.40139e-05
2.17902e-05
1.75844e-05
7.03142e-05
7.41016e-05
0.000101063
9.05519e-05
1.4853e-05
1.96502e-05
7.49117e-05
7.71203e-05
0.000120077
9.11193e-05
1.68717e-05
2.24164e-05
8.76567e-05
0.000110585
7.66525e-05
7.42187e-05
1.86007e-05
1.63801e-05
9.27531e-05
0.000112443
0.000105973
8.88038e-05
2.22895e-05
1.8204e-05
7.21319e-05
7.55753e-05
0.000101412
9.1715e-05
1.528e-05
2.03286e-05
7.62986e-05
7.87899e-05
0.000118534
9.06103e-05
1.73419e-05
2.29157e-05
8.73084e-05
0.00010922
7.75538e-05
7.45324e-05
1.8618e-05
1.55521e-05
9.33715e-05
0.000103072
8.06816e-05
7.99253e-05
2.08707e-05
1.79399e-05
9.3928e-05
0.000122315
0.000112805
9.08911e-05
2.38004e-05
1.95751e-05
7.91335e-05
8.05652e-05
0.000114656
9.58289e-05
1.70849e-05
2.31439e-05
9.24714e-05
0.000108535
7.95053e-05
7.67333e-05
1.92606e-05
1.60411e-05
9.47551e-05
0.000103471
8.25233e-05
8.15817e-05
2.15801e-05
1.84706e-05
9.32579e-05
0.00012031
0.000112057
9.10499e-05
2.46541e-05
2.02729e-05
8.12501e-05
8.18225e-05
0.000113168
9.60775e-05
1.77043e-05
2.4102e-05
9.31301e-05
0.000107691
8.07794e-05
7.9665e-05
2.00055e-05
1.6596e-05
9.6017e-05
0.000104032
8.44279e-05
8.48484e-05
2.24283e-05
1.91419e-05
9.53758e-05
0.000121673
0.000113536
9.34256e-05
2.55557e-05
2.10658e-05
8.52635e-05
8.40893e-05
0.000116216
9.97895e-05
1.83561e-05
2.5095e-05
9.68231e-05
0.000110608
8.43486e-05
8.37001e-05
2.05526e-05
1.71301e-05
9.97097e-05
0.000107535
8.84747e-05
8.97603e-05
2.32733e-05
1.98827e-05
9.87042e-05
0.000125288
0.00011768
9.71067e-05
2.66384e-05
2.21543e-05
9.01453e-05
8.83372e-05
0.000120626
0.000104508
1.92693e-05
2.64311e-05
0.000101781
0.000114994
8.86672e-05
9.05814e-05
2.22365e-05
1.93083e-05
0.000103459
0.000120156
0.000115047
0.000101286
2.71349e-05
2.32707e-05
9.21935e-05
8.93937e-05
0.000120328
0.000104453
2.02362e-05
2.78479e-05
0.000102061
0.000114876
8.99909e-05
9.27907e-05
2.33307e-05
1.99388e-05
0.000103664
0.000119761
0.000115041
0.000101187
2.7417e-05
2.37123e-05
9.30158e-05
9.00534e-05
0.000119258
0.000104115
2.05644e-05
2.86612e-05
0.00010204
0.000114001
9.09749e-05
9.503e-05
2.42543e-05
2.08257e-05
0.000105055
0.000119554
0.000114768
0.000102887
2.88382e-05
2.4253e-05
9.60841e-05
9.19585e-05
0.000120364
0.000105029
2.08896e-05
2.94676e-05
0.000103466
0.000115428
9.33046e-05
9.87675e-05
2.52543e-05
2.17417e-05
0.000107998
0.000121893
0.000117155
0.000105844
3.02258e-05
2.56239e-05
0.000101201
9.53736e-05
0.000124728
0.000109544
2.14446e-05
2.98234e-05
0.000108245
0.000119761
9.74162e-05
0.000104419
2.6214e-05
2.27898e-05
0.000113818
0.000128244
0.000123665
0.000112011
3.18405e-05
2.7573e-05
0.000110034
0.000101473
0.000136314
0.000119613
2.37671e-05
3.33276e-05
0.000126019
0.000131642
0.000122568
0.000121409
3.1286e-05
2.80389e-05
0.00011128
0.000104948
0.000134412
0.000118493
2.46819e-05
3.60207e-05
0.000124927
0.000128784
0.000123228
0.000118153
3.19634e-05
2.90668e-05
0.000109498
0.000105204
0.000132882
0.000116602
2.57504e-05
3.76632e-05
0.00012507
0.000129028
0.000121776
0.000119878
3.48451e-05
2.9892e-05
0.000113474
0.00010667
0.000133089
0.000117929
2.57198e-05
3.8779e-05
0.000126191
0.000127011
0.000122845
0.000120597
3.66789e-05
3.29252e-05
0.000119386
0.000108847
0.000141499
0.000124647
2.74202e-05
4.17317e-05
0.000128931
0.000137437
0.000133277
0.00013044
4.21878e-05
4.26619e-05
0.000133771
0.0001266
0.00012349
0.000126254
3.96544e-05
3.65037e-05
0.000125182
0.00011264
0.000142663
0.00012757
3.14067e-05
4.62636e-05
0.000125422
0.000138444
0.000132174
0.000135475
4.66292e-05
4.89051e-05
0.000131139
0.000131633
0.000127857
0.000132768
5.13237e-05
5.48356e-05
0.000128028
0.000127315
0.00012571
0.000132237
5.7229e-05
5.94078e-05
0.000132014
0.000125833
0.000125763
0.000138908
6.04152e-05
5.91137e-05
0.000141736
0.000126188
0.000127671
0.000149638
5.73476e-05
5.52114e-05
0.000156943
0.000128867
0.0001328
0.000166047
5.31894e-05
5.10788e-05
0.000173466
0.000134748
0.00014109
0.000181757
4.92641e-05
4.75044e-05
0.000180421
0.000143534
0.000151729
0.000187663
4.60281e-05
4.46375e-05
0.000188758
0.000154783
0.000164997
0.000193978
4.34654e-05
4.23991e-05
0.000196802
0.000168957
0.00018229
0.000200131
4.1483e-05
4.06584e-05
0.000203186
0.000187185
0.000202216
0.000206495
3.99541e-05
3.93343e-05
0.000209618
0.000207713
0.000223284
0.00021331
3.87982e-05
3.83555e-05
0.000216686
0.000229801
0.000245936
0.000220511
3.79462e-05
3.7669e-05
0.000224095
0.00025315
0.00026968
0.000228133
3.73306e-05
3.7222e-05
0.000231972
0.000272125
0.000289483
0.000236022
3.69444e-05
3.69608e-05
0.000239949
0.000290821
0.000307894
0.000244126
3.67464e-05
3.68234e-05
0.000247956
0.000309132
0.000325458
0.000252007
3.66854e-05
3.67869e-05
0.000255716
0.000326443
0.000342233
0.000259737
3.67182e-05
3.68279e-05
0.000263229
0.00034295
0.000357872
0.000266862
3.67724e-05
3.69034e-05
0.000270059
0.000358158
0.000372279
0.000273536
3.69309e-05
3.70013e-05
0.000276491
0.000372506
0.000385624
0.000279717
3.70156e-05
3.71069e-05
0.000282373
0.000385715
0.000398159
0.000285424
3.71234e-05
3.72093e-05
0.000287693
0.000398064
0.00040961
0.000290458
3.72255e-05
3.73153e-05
0.000292452
0.000409416
0.000420451
0.000295046
3.73227e-05
3.7411e-05
0.00029667
0.000420079
0.000430374
0.000298994
3.74129e-05
3.74973e-05
0.000300384
0.00042993
0.000439829
0.000302566
3.74906e-05
3.75708e-05
0.000303637
0.000439236
0.000448563
0.000305583
3.75605e-05
3.76364e-05
0.000306476
0.00044793
0.000456959
0.000308313
3.76194e-05
3.76914e-05
0.000308945
0.000456195
0.000464783
0.000310581
3.76728e-05
3.77414e-05
0.000311091
0.000463996
0.00047236
0.000312651
3.77176e-05
3.77833e-05
0.000312968
0.000471447
0.00047947
0.000314349
3.77593e-05
3.7823e-05
0.000314594
0.000478555
0.000486416
0.000315926
3.77955e-05
3.78566e-05
0.000316015
0.000485366
0.000492966
0.000317196
3.78291e-05
3.78885e-05
0.000317255
0.000491898
0.000499484
0.000318422
3.78588e-05
3.79169e-05
0.000318353
0.000498211
0.000505588
0.000319393
3.78881e-05
3.7945e-05
0.000319332
0.000504237
0.000511607
0.000320361
3.79149e-05
3.79703e-05
0.000320176
0.00051005
0.000517192
0.000321087
3.79411e-05
3.79951e-05
0.00032093
0.000515549
0.000521931
0.000321837
3.79653e-05
3.80176e-05
0.000321558
0.00052072
0.000525178
0.000322352
3.79895e-05
3.80397e-05
0.000322095
0.000525382
0.000527958
0.000322882
3.80113e-05
3.80587e-05
0.000322496
0.000529639
0.000530424
0.000323159
3.8032e-05
3.80761e-05
0.000322786
0.00053346
0.000532506
0.000323448
3.8049e-05
3.80897e-05
0.000322956
0.000536883
0.000534378
0.000323493
3.80644e-05
3.81016e-05
0.000323025
0.000539119
0.000535916
0.000323578
3.8076e-05
3.81101e-05
0.000323008
0.000540442
0.000537217
0.000323448
3.80861e-05
3.81169e-05
0.000322902
0.000541683
0.000538248
0.000323347
3.80927e-05
3.81203e-05
0.000322704
0.00054256
0.00053913
0.000323063
3.80978e-05
3.81222e-05
0.000322449
0.000543466
0.000539822
0.000322825
3.80997e-05
3.81213e-05
0.000322128
0.000543972
0.00054038
0.000322423
3.81004e-05
3.81195e-05
0.000321786
0.000544731
0.000540872
0.00032211
3.80988e-05
3.81156e-05
0.000321393
0.000545018
0.000541214
0.000321644
3.80965e-05
3.81114e-05
0.000321001
0.000545571
0.000541506
0.000321294
3.80924e-05
3.81057e-05
0.000320574
0.00054565
0.000541664
0.000320801
3.80883e-05
3.81e-05
0.000320159
0.000546036
0.000541804
0.000320434
3.80828e-05
3.80932e-05
0.000319721
0.000545967
0.00054183
0.000319934
3.80776e-05
3.80868e-05
0.000319302
0.000546228
0.000541856
0.000319568
3.80714e-05
3.80796e-05
0.000318867
0.000546048
0.000541785
0.000319075
3.80656e-05
3.80728e-05
0.000318458
0.000546218
0.000541729
0.000318721
3.8059e-05
3.80654e-05
0.000318037
0.000545956
0.000541588
0.000318243
3.80529e-05
3.80586e-05
0.000317646
0.000546056
0.000541475
0.000317908
3.80462e-05
3.80514e-05
0.000317243
0.000545746
0.00054129
0.000317452
3.80402e-05
3.80448e-05
0.000316872
0.000545802
0.000541135
0.000317139
3.80337e-05
3.80378e-05
0.000316493
0.000545439
0.00054091
0.000316706
3.80279e-05
3.80315e-05
0.000316146
0.000545453
0.000540726
0.000316416
3.80216e-05
3.80248e-05
0.000315788
0.000545075
0.000540485
0.000316006
3.80161e-05
3.80189e-05
0.000315462
0.000545037
0.000540269
0.000315738
3.80101e-05
3.80125e-05
0.000315127
0.000544634
0.000540014
0.00031535
3.80048e-05
3.80069e-05
0.000314822
0.000544585
0.000539792
0.000315104
3.7999e-05
3.80008e-05
0.000314509
0.000544176
0.000539534
0.000314739
3.79939e-05
3.79957e-05
0.000314227
0.000544124
0.000539311
0.000314516
3.79886e-05
3.799e-05
0.000313936
0.000543712
0.000539054
0.000314173
3.79837e-05
3.79852e-05
0.000313676
0.000543661
0.000538833
0.000313972
3.79786e-05
3.79798e-05
0.000313407
0.000543251
0.000538579
0.00031365
3.7974e-05
3.79753e-05
0.000313168
0.000543202
0.000538362
0.00031347
3.79691e-05
3.79701e-05
0.000312919
0.000542795
0.000538113
0.000313169
3.79648e-05
3.79659e-05
0.000312699
0.000542751
0.000537903
0.000313008
3.79602e-05
3.79611e-05
0.000312469
0.00054235
0.000537661
0.000312726
3.79561e-05
3.79571e-05
0.000312269
0.000542313
0.000537461
0.000312583
3.79517e-05
3.79524e-05
0.000312056
0.000541922
0.00053723
0.000312319
3.79478e-05
3.79486e-05
0.000311874
0.000541895
0.00053704
0.000312195
3.79436e-05
3.79441e-05
0.000311679
0.000541515
0.000536821
0.000311949
3.79399e-05
3.79406e-05
0.000311514
0.000541499
0.000536642
0.000311842
3.7936e-05
3.79365e-05
0.000311337
0.000541128
0.000536434
0.000311613
3.79326e-05
3.79333e-05
0.000311188
0.000541125
0.000536269
0.000311521
3.7929e-05
3.79295e-05
0.000311027
0.000540767
0.000536076
0.000311308
3.79261e-05
3.79268e-05
0.000310893
0.000540779
0.000535927
0.000311231
3.7923e-05
3.79236e-05
0.000310746
0.000540438
0.00053575
0.000311032
3.79206e-05
3.79216e-05
0.000310626
0.000540464
0.000535614
0.000310969
3.79183e-05
3.7919e-05
0.000310491
0.000540135
0.000535448
0.000310782
3.79166e-05
3.79177e-05
0.000310384
0.00054017
0.000535321
0.00031073
3.79149e-05
3.79159e-05
0.000310259
0.000539849
0.000535162
0.000310553
3.7914e-05
3.79152e-05
0.000310161
0.00053989
0.000535041
0.00031051
3.7913e-05
3.79141e-05
0.000310044
0.000539573
0.000534886
0.000310341
3.79127e-05
3.7914e-05
0.000309953
0.000539618
0.000534768
0.000310306
3.79121e-05
3.79132e-05
0.000309845
0.000539304
0.000534618
0.000310145
3.79121e-05
3.79134e-05
0.000309762
0.000539355
0.000534507
0.000310118
3.79119e-05
3.79131e-05
0.000309662
0.000539052
0.000534372
0.000309966
3.79121e-05
3.79137e-05
0.000309591
0.00053912
0.000534233
0.000309942
3.79121e-05
3.7913e-05
0.000309517
0.000538898
0.000534276
0.000309889
3.79112e-05
3.79395e-05
0.000309744
0.000538831
0.000534252
0.000310042
3.79542e-05
3.79584e-05
0.000309677
0.000538877
0.000534164
0.00031004
3.79549e-05
3.7974e-05
0.000309921
0.000539451
0.000533731
0.000310972
3.81223e-05
3.82772e-05
0.000311317
0.000543499
0.000549594
0.000315694
3.90645e-05
4.00355e-05
0.00032069
0.000559816
0.000605298
0.000336342
4.29088e-05
4.53819e-05
0.000355393
0.000634805
0.000675099
0.000378917
4.82575e-05
0.00106637
0.0016914
0.00238004
0.00386228
0.00743323
0.00971925
0.0109832
0.0169862
0.0257609
0.034482
0.0451406
0.0593935
0.0784235
0.103952
0.13716
0.17935
0.231081
0.292614
0.363647
0.443419
0.530619
0.623653
0.7202
0.818226
0.913705
1.00409
1.08288
1.14756
1.19403
1.22301
1.23667
1.24719
1.26637
1.29362
1.32806
1.36825
1.41376
1.46365
1.51839
1.57829
1.6443
1.71751
1.7994
1.89183
1.99736
2.11951
2.26354
2.41494
1.59367
1.08401
0.84252
0.722709
0.653237
0.600469
0.551502
0.503675
0.457938
0.415186
0.375578
0.338854
0.304818
0.273419
0.244731
0.218779
0.195508
0.174766
0.156344
0.140014
0.125549
0.112751
0.101433
0.0914397
0.0826183
0.0748524
0.0680148
0.0620161
0.0567599
0.0521617
0.0481496
0.0446546
0.0416197
0.038989
0.0367189
0.0347637
0.033091
0.0316649
0.0304584
0.0294452
0.0286081
0.027924
0.0273777
0.0269564
0.0266453
0.0264407
0.0263273
0.0263011
0.0263552
0.0264824
0.0266818
0.0269447
0.0272735
0.0276614
0.0281035
0.0286063
0.0291622
0.0297719
0.0304374
0.0311539
0.0319245
0.0327475
0.0336238
0.0345544
0.0355369
0.0365792
0.0376763
0.038834
0.0400478
0.0413247