/*--------------------------------*- C++ -*----------------------------------*\
| =========                 |                                                 |
| \\      /  F ield         | OpenFOAM: The Open Source CFD Toolbox           |
|  \\    /   O peration     | Version:  v2006                                 |
|   \\  /    A nd           | Website:  www.openfoam.com                      |
|    \\/     M anipulation  |                                                 |
\*---------------------------------------------------------------------------*/
FoamFile
{
    version     2.0;
    format      ascii;
    class       volScalarField;
    location    "0.02";
    object      omega;
}
// * * * * * * * * * * * * * * * * * * * * * * * * * * * * * * * * * * * * * //

dimensions      [0 0 -1 0 0 0 0];


internalField   nonuniform List<scalar> 
11076
(
0.0109443
0.0109444
0.010942
0.0109421
0.0109422
0.0109424
0.0109426
0.010943
0.0109434
0.0109442
0.0109449
0.0109437
0.0109383
0.0109278
0.010913
0.0108955
0.0108763
0.0108561
0.0108352
0.0108135
0.0107909
0.0107674
0.010743
0.0107176
0.0106914
0.0106643
0.0106364
0.0106078
0.0105786
0.0105487
0.0105183
0.0104873
0.010456
0.0104244
0.0103925
0.0103607
0.0103292
0.0102986
0.0102701
0.0102462
0.0102314
0.0102354
0.0102788
0.0104067
0.0106983
0.0113168
0.0125828
0.0151185
0.0201167
0.0299053
0.0488862
0.0849783
0.152803
0.279476
0.514244
0.934092
1.571
1.97112
2.7141
3.16919
3.47447
5.70878
9.14828
11.2203
9.81145
25.3018
70.7711
182.219
652.282
5609.7
30471.4
424836
411914
61550.3
14358.9
22028.2
78132.6
399439
386639
83144.4
26554.8
30053.6
86360.2
370650
359327
86107
32182.5
34260.2
87937.2
348953
342423
87795.1
35403
36613
87503.7
335117
329988
86904.8
37069.2
37942.5
86778.1
324546
320862
86120.3
38016.4
38590.6
86010.7
316608
313797
85418.8
38580.9
38986.8
85357
310345
308088
84861.3
38945.6
39268.2
84850.2
305202
303299
84449
39209.1
39481.2
84470.2
300808
299154
84139.1
39411.3
39650.8
84181
296947
295471
83898.3
39573.8
39791.1
83955.1
293472
292123
83707
39709
39910
83773.6
290279
289024
83548.7
39824.1
40012.5
83621.5
287297
286112
83411.2
39923.6
40101.6
83487.7
284475
283344
83285.9
40010.2
40179.3
83364
281777
280686
83166.5
40085.7
40247.8
83245.1
279174
278112
83048.9
40151.9
40309.6
83127.2
276642
275601
82930.5
40210.1
40363.3
83007.8
274162
273136
82808.7
40260.7
40409.8
82884.2
271718
270699
82681.1
40304.4
40450
82754.3
269295
268278
82546.2
40342.4
40485
82616.6
266881
265861
82402.6
40375.6
40515.5
82469.8
264465
263437
82248.8
40404.6
40542
82312.3
262035
260995
82083.2
40429.9
40565
82142.6
259581
258524
81904.6
40451.7
40584.6
81959.6
257093
256016
81712
40470.4
40601.1
81762.2
254562
253460
81504.4
40486.1
40614.7
81549.4
251976
250844
81280.6
40499.1
40625.8
81320
249324
248157
81039.5
40509.7
40634.6
81073
246594
245387
80779.9
40518.3
40641.4
80806.8
243774
242521
80499.5
40525
40646.2
80518.9
240851
239546
80195.5
40529.5
40648.5
80206.4
237812
236452
79864.7
40531.3
40647.8
79866.2
234648
233226
79508.3
40530.2
40643.7
79496.3
231345
229858
79118.6
40525.1
40635.1
79091.4
227894
226336
78692.2
40515.3
40621
78648.6
224283
222652
78225.9
40499.5
40600.5
78164.3
220504
218794
77715.5
40476.6
40571.6
77633.2
216545
214754
77154.3
40444.2
40531.6
77048.1
212400
210527
76534.1
40399
40476.7
76400.7
208067
206115
75846.1
40333.2
40401.5
75681.7
203554
201527
75082.9
40241.4
40299.1
74870.1
198873
196781
74227.4
40116.3
40159.9
73955.1
194050
191912
73265.6
39946.5
39972.5
72927
189126
186969
72182.2
39718.9
39722.6
71768.9
184163
182022
70961.4
39428.3
39395
70466.7
179236
177154
69585.2
39042.5
38964.4
69004.1
174445
172478
68042.9
38541.5
38413.9
67374.2
169909
168118
66332.3
37910.3
37730.6
65585.3
165760
164201
64466.2
37141.3
36910.1
63657.1
162121
160841
62477.7
36242.1
35949.5
61622.8
159080
158111
60414.1
35223.7
34882.4
59547.9
156693
156031
58344.3
34116.9
33746.7
57505.7
154953
154565
56355.1
32971.7
32585.6
55560.7
153802
153632
54500.2
31832.2
31458.4
53896.5
153222
153173
52952.3
30760.9
30419.6
52490.4
152942
152948
51642.6
29761.8
29456.3
51280.5
152828
152891
50539.8
28857.6
28597.3
50270.4
152832
152940
49624.6
28058.2
27848.1
49436.8
152935
153061
48889
27368.8
27200.3
48753
153076
153218
48293.8
26773.9
26646.5
48202.8
153242
153386
47816.5
26265.1
26171.1
47761.7
153412
153555
47439.4
25833.7
25770
47417.7
153582
153709
47146.8
25470
25425
47157.8
153733
153850
46924.2
25164.7
25135.1
46949.8
153866
153962
46748.3
24901.5
24886.7
46788.2
153981
154077
46621.9
24680.9
24677.7
46672.3
154088
154166
46529
24494.2
24502.4
46581.8
154182
154254
46474.2
24337.4
24349.5
46531.7
154260
154320
46441
24205.7
24224.6
46505.1
154316
154352
46421.4
24093.3
24115.6
46489
154393
154409
46439.9
24009
24038.8
46495.3
154335
154405
46502.2
23987.8
24008.8
46542.7
154065
154470
46623.7
23993.7
23777.7
46391.1
152663
149301
44902.7
22954.8
22113
43429.1
145111
10976.9
7215.74
5575.5
4634.54
4206.38
3761.34
3505.53
3305.59
3188.85
3116.34
3097.27
3126.23
3204.58
3351.29
3555.72
3876.39
4279.08
4934.43
5534.31
6520.07
8804.49
10967.1
14772.4
24661.5
54013.4
119915
401618
451702
139706
62257.8
68681.5
155044
513852
578129
173515
78536.8
83660.2
185452
609874
623996
185174
82985.9
87364.8
192032
629504
637287
189475
84930.7
87698.1
195384
637501
638408
189320
85250.4
87439.6
194608
638108
639415
189174
85231.8
87391.2
194551
639269
640589
188938
85204.2
87369.9
194266
640448
641855
188670
85186.5
87371.3
193919
641620
643101
188431
85170.4
87336.3
193716
642890
644350
188200
85143.2
87335.1
193541
644216
645730
187956
85142
87330.9
193238
645606
647199
187668
85174
87370.4
193043
647103
648736
187418
85207.7
87391.1
192760
648623
650390
187231
85236.1
87404.7
192686
650265
651996
186993
85262.2
87417.3
192517
651960
653680
186784
85322.6
87502.9
192342
653625
655445
186533
85424.2
87619
191982
655326
657254
186401
85527.6
87739.4
191858
657218
659252
186271
85638.1
87850.4
191705
659198
661289
186144
85777.5
87976.9
191674
661248
663361
186077
85933.3
88132.9
191716
663407
665589
186025
86122.2
88356
191665
665615
667863
186041
86321.2
88532.8
191789
667933
670278
186059
86543.8
88798.9
191764
670364
672848
186037
86812.7
89098.7
191736
673004
675656
186207
87148
89431.3
192107
675913
678843
186588
87477
89695.9
192712
679426
682860
186881
87674.2
89761.4
192834
683985
688051
186310
87547.9
89372.6
191323
689773
694006
183629
86615.2
88703.4
188274
695296
698714
179554
85141.2
87260
185485
691248
680403
174967
84329.4
86385.8
179261
667226
657367
167700
82657.3
85085.2
174187
644257
635320
164067
82861.5
84773.8
169263
617749
599276
159867
83761.8
86241.3
164142
585738
572082
161811
86632.7
89826.8
164020
559800
557517
167744
91097.7
93583.9
174270
559244
569531
176237
87191.7
61836.8
168516
359740
274053
83498
50093.7
50374.3
95563.8
276579
284066
117834
64910.6
50929.9
101608
265935
243537
91069
47898.2
43418.8
84040.1
231958
222076
79390.9
41337.9
38280.6
74114.2
216819
210979
68888.8
36160.1
33771.3
65063
213036
221814
67794.3
35068.2
42335.2
77766.5
234106
238307
72960.6
36449.4
35381.3
70291.5
239096
246698
71150.8
35615.1
41408.7
77993.3
268239
296515
93503.5
51498.7
54738.7
99701.9
323505
341446
109096
62046.8
55968.4
103739
343834
338218
97697.6
52551.8
47472.1
92043.9
330831
338169
89489.9
45905.4
48288.4
88846.3
332042
322391
78002.1
39296.9
29175.4
59709.7
293292
282948
48450.9
25252.2
23058.4
40274
255974
234316
33430.6
19454
17747.2
27475.6
202295
184651
23619.6
16329.3
13819.8
20950.9
153587
136530
18405.3
12110.7
11622.6
17027.6
125751
120933
16666.2
11505.7
11896.2
18419.6
123078
126343
17418.4
11402.9
19112.4
38596.6
141809
153557
61426.9
19854.9
45010.6
105222
172695
185691
126888
56847.5
74493.5
151444
209064
232541
184903
130645
125927
198448
255558
273415
214173
137367
178516
243459
303055
314812
241575
160194
161660
248655
332287
346872
259927
192461
164321
252749
356508
357566
253718
166859
192894
255541
361590
339820
227101
140327
147559
218737
316665
291722
189818
109474
109509
181553
283117
290112
184531
112742
134216
192785
301301
289424
175250
108838
104458
168590
282589
283932
173442
122211
98206
154742
275256
267618
147524
97974.6
101832
157379
290903
321516
175083
121974
99356.6
158509
319466
329512
150971
99943.6
142731
286621
507730
691599
236962
118228
130653
239393
537349
666809
264832
140376
246103
464998
991128
735277
208100
145396
142635
212447
585641
855873
410540
224352
133857
186892
646328
504377
199949
132310
138245
224716
649843
989017
458171
236552
136230
197339
720411
583521
204785
134290
223728
418861
891062
678981
185900
130325
130433
196379
561335
861535
407957
218608
126551
181766
654407
542563
190390
126505
211001
393960
820316
615264
177761
122288
122405
187710
490614
653949
220845
131009
240718
466459
1.033e+06
751556
200649
133585
132906
206136
612894
965335
452240
235695
134719
195942
717466
595314
211366
135963
236582
447545
953618
715991
197685
135674
135926
207303
595483
947864
451308
238212
136530
198074
713633
599058
210331
137971
242027
459255
974195
736801
202509
139505
140668
215976
622145
1.03314e+06
496821
257314
153498
188602
826768
766242
375500
221619
127926
184473
602889
526816
201186
130807
227302
421193
850766
651693
189518
132880
134859
203618
558718
902161
438182
234285
135169
194093
681546
578804
208774
136750
240988
450498
932540
712298
199886
140066
142507
216709
615382
1.03156e+06
502481
261191
157273
192472
837066
783730
385162
229087
134087
192516
621759
556945
213416
138692
245220
455838
923090
715674
205704
144856
147179
222055
621437
1.03671e+06
510379
267366
162210
200559
840192
790581
387468
233768
137062
195550
624225
558569
214222
140945
246819
455584
914758
704727
206307
146556
149988
226669
619192
1.04856e+06
512904
272117
165891
201279
852278
807641
398513
240267
141768
204340
643695
582816
226563
146766
266923
497680
986889
810857
203408
165257
237725
388185
777355
619039
201071
141068
146229
223562
560879
932196
472608
257579
153111
215156
719349
634279
235659
156337
280798
522114
1.06472e+06
870929
211124
173684
251861
414838
842315
676734
217373
150487
156094
242246
619219
1.06002e+06
531393
285225
177404
220767
869164
836716
417150
254545
152382
216034
663172
606048
239555
157743
282143
519267
1.03487e+06
852703
217724
177588
255783
417796
828536
669596
221635
154240
160231
246455
616724
1.05055e+06
528736
287597
180744
221655
865183
843503
423311
259476
156153
222323
666480
613636
246983
161995
289968
529371
1.04571e+06
865320
226014
182990
263413
427261
848704
682346
227333
159337
165683
253447
630273
1.07366e+06
542352
297220
187311
231211
887020
865817
436133
267904
161729
229995
682766
631386
255839
167896
298838
544559
1.07134e+06
890332
233613
189492
272435
441164
874176
701591
236052
165193
171840
263192
652702
1.11204e+06
565629
309071
195011
241701
912039
892165
454012
279538
168874
239748
703317
652482
267362
175296
311768
563840
1.11312e+06
917604
243818
197912
284772
460360
907837
727670
246957
172841
179740
275422
676085
1.14502e+06
584509
321174
203293
251786
944486
931883
472080
291336
176422
249673
733941
682193
277080
183141
325110
586496
1.15429e+06
955073
253740
206625
297032
480947
948473
754366
257591
180504
187618
287300
704724
1.19314e+06
608162
335047
212269
262723
974678
965280
492325
304176
184219
260872
762509
710363
289005
191214
339196
614089
1.19817e+06
984855
266171
215680
310053
501922
979803
786050
269787
188634
196137
300849
735351
1.24526e+06
634676
350206
221578
275605
1.01024e+06
998115
509293
316818
191889
270131
783471
731311
299078
199048
350935
628792
1.22909e+06
1.0141e+06
274434
223379
320891
515764
1.01314e+06
807362
278544
195298
202939
308956
756450
1.26864e+06
654322
361092
228887
284640
1.03419e+06
1.02516e+06
524848
327206
198359
279392
803427
754162
308341
205621
363801
653034
1.27015e+06
1.03839e+06
287022
231520
331666
530193
1.03486e+06
823511
285920
201674
209650
317420
773958
1.28674e+06
661436
368955
234433
291459
1.04489e+06
1.04439e+06
536213
334299
201863
285318
810881
753906
312918
208304
361063
642647
1.22123e+06
938511
301928
218670
224157
328134
860148
1.41552e+06
713847
394898
246512
307430
1.12798e+06
1.12135e+06
573722
354332
213760
303245
877043
822103
332479
221182
393694
708045
1.36591e+06
1.10225e+06
311869
248412
355328
568122
1.09566e+06
852199
301761
213942
222016
333192
795791
1.2854e+06
678873
383983
230793
320681
991610
908694
341207
235362
416053
753797
1.48471e+06
1.18464e+06
326260
260590
376928
605751
1.17984e+06
913281
321395
225529
232543
352418
851761
1.37031e+06
716487
403000
242136
337611
1.03946e+06
949361
358315
245997
432256
778160
1.5397e+06
1.21396e+06
336925
269696
388715
627948
1.21069e+06
930808
329893
231672
239990
362239
867993
1.39091e+06
733870
414850
247726
344135
1.05024e+06
965488
370084
252426
441859
788110
1.57578e+06
1.23876e+06
344815
276182
399132
640783
1.23774e+06
953968
340696
237270
244480
370394
887528
1.40544e+06
741654
420826
251352
348952
1.05327e+06
961248
372915
255576
437382
779194
1.52053e+06
1.12264e+06
364027
258935
261273
385052
1.00672e+06
1.55973e+06
800665
448817
263523
370992
1.1434e+06
1.03669e+06
397075
267569
464824
837206
1.62493e+06
1.20183e+06
388975
271916
273543
402287
1.07957e+06
1.67589e+06
867271
481392
278475
396170
1.22087e+06
1.10098e+06
421581
282115
491106
875998
1.70733e+06
1.24971e+06
404712
284625
286455
427112
1.12844e+06
1.75879e+06
891494
498482
286697
408404
1.27277e+06
1.14064e+06
432989
289496
506016
901931
1.75711e+06
1.27624e+06
415632
290918
292918
435899
1.14504e+06
1.75569e+06
898447
506081
289768
410915
1.26882e+06
1.14314e+06
435820
292129
509518
906728
1.74278e+06
1.24844e+06
416041
290034
291016
432418
1.11318e+06
1.66455e+06
854595
487799
275969
394572
1.16809e+06
998419
410932
275993
294422
479964
1.30625e+06
1.95097e+06
999513
534401
296889
441212
1.34249e+06
1.13982e+06
474379
302598
308850
488253
1.4656e+06
2.14146e+06
1.09258e+06
568272
306044
464221
1.40834e+06
1.17187e+06
477355
306702
321511
541216
1.51251e+06
2.23394e+06
1.12206e+06
592482
318339
482743
1.49809e+06
1.24304e+06
504255
321958
324260
538731
1.53901e+06
2.16286e+06
1.07752e+06
572710
297924
451087
1.37808e+06
1.13653e+06
465901
293684
292841
479424
1.28432e+06
1.52373e+06
589205
318464
312742
588144
1.80961e+06
2.45296e+06
1.25338e+06
623344
311683
502080
1.52746e+06
1.26043e+06
486057
301880
316284
575752
1.42607e+06
1.55816e+06
560823
308613
317702
638052
1.64936e+06
1.70839e+06
634414
310103
317358
680947
1.71651e+06
1.69528e+06
685865
313536
319105
694518
1.66233e+06
1.615e+06
684060
315284
319652
683277
1.56723e+06
1.51827e+06
658628
314556
318026
660231
1.47218e+06
1.42766e+06
643953
313208
317003
647407
1.38784e+06
1.35081e+06
636259
312958
317724
640478
1.318e+06
1.2881e+06
632234
314802
320166
636453
1.26132e+06
1.23754e+06
628477
317380
322687
632240
1.21591e+06
1.19698e+06
623989
319765
324160
627211
1.17967e+06
1.16481e+06
617883
320446
324209
620565
1.15103e+06
1.13971e+06
610578
319988
323124
612659
1.12868e+06
1.12049e+06
601421
318453
321504
602945
1.11135e+06
1.1063e+06
591026
317051
319925
592144
1.09871e+06
1.09607e+06
579358
315424
318308
580216
1.08993e+06
1.08872e+06
567465
313991
316626
568247
1.08405e+06
1.0837e+06
555359
312165
314728
556146
1.08034e+06
1.08053e+06
543887
310265
312640
544820
1.07846e+06
1.07852e+06
532897
307950
310242
533956
1.07629e+06
1.07742e+06
522928
305705
307802
524232
1.076e+06
1.07688e+06
513620
303157
305203
515076
1.07573e+06
1.07676e+06
505375
300614
302522
507100
1.07577e+06
1.07701e+06
497801
297895
299783
499668
1.07609e+06
1.07746e+06
491216
295244
297023
493339
1.07658e+06
1.07802e+06
485188
292463
294243
487421
1.07717e+06
1.07867e+06
479996
289778
291470
482458
1.07786e+06
1.07938e+06
475207
286989
288696
477741
1.0786e+06
1.08015e+06
471103
284315
285954
473840
1.0794e+06
1.08097e+06
467268
281564
283236
470046
1.08024e+06
1.08184e+06
463997
278959
280582
466965
1.08114e+06
1.08275e+06
460887
276312
277983
463870
1.08207e+06
1.08369e+06
458240
273833
275466
461390
1.08303e+06
1.08466e+06
455666
271334
273027
458816
1.08402e+06
1.08566e+06
453401
269013
270674
456776
1.08505e+06
1.08668e+06
451244
266685
268414
454631
1.08609e+06
1.08773e+06
449374
264541
266241
452970
1.08715e+06
1.08878e+06
447572
262394
264166
451160
1.08822e+06
1.08983e+06
446016
260432
262177
449803
1.08928e+06
1.09087e+06
444501
258471
260290
448267
1.09033e+06
1.09188e+06
443207
256697
258489
447159
1.09135e+06
1.09285e+06
441925
254919
256789
445844
1.09231e+06
1.09377e+06
440846
253333
255175
444942
1.09323e+06
1.09463e+06
439768
251739
253659
443824
1.09409e+06
1.09543e+06
438888
250327
252221
443113
1.09489e+06
1.09617e+06
437994
248904
250878
442169
1.09563e+06
1.09686e+06
437282
247664
249610
441618
1.09631e+06
1.09747e+06
436542
246390
248426
440821
1.09693e+06
1.09804e+06
435975
245330
247323
440408
1.09749e+06
1.09855e+06
435364
244155
246270
439731
1.098e+06
1.09902e+06
434917
243239
245313
439433
1.09847e+06
1.09944e+06
434421
242210
244401
438867
1.09888e+06
1.09982e+06
434084
241429
243573
438672
1.09927e+06
1.10017e+06
433685
240522
242781
438196
1.09962e+06
1.10049e+06
433436
239856
242063
438082
1.09994e+06
1.10078e+06
433114
239055
241373
437678
1.10023e+06
1.10105e+06
432933
238487
240749
437628
1.1005e+06
1.10129e+06
432672
237776
240146
437279
1.10074e+06
1.10152e+06
432544
237292
239602
437276
1.10097e+06
1.10172e+06
432328
236657
239072
436969
1.10117e+06
1.10191e+06
432241
236246
238597
437005
1.10137e+06
1.10209e+06
432062
235679
238134
436732
1.10154e+06
1.10225e+06
432009
235331
237719
436798
1.10171e+06
1.1024e+06
431857
234820
237310
436552
1.10186e+06
1.10254e+06
431831
234527
236948
436642
1.102e+06
1.10267e+06
431703
234068
236590
436418
1.10213e+06
1.10279e+06
431698
233822
236272
436528
1.10225e+06
1.1029e+06
431588
233407
235956
436320
1.10236e+06
1.103e+06
431600
233201
235677
436444
1.10246e+06
1.10309e+06
431504
232824
235398
436250
1.10256e+06
1.10318e+06
431529
232655
235154
436386
1.10264e+06
1.10326e+06
431444
232311
234907
436202
1.10272e+06
1.10333e+06
431479
232174
234693
436347
1.10279e+06
1.1034e+06
431404
231859
234474
436171
1.10286e+06
1.10346e+06
431447
231750
234287
436324
1.10292e+06
1.10351e+06
431379
231462
234094
436155
1.10297e+06
1.10356e+06
431429
231377
233930
436313
1.10302e+06
1.1036e+06
431365
231109
233757
436147
1.10305e+06
1.10363e+06
431419
231046
233613
436308
1.10309e+06
1.10367e+06
431357
230798
233458
436143
1.10312e+06
1.1037e+06
431411
230752
233331
436304
1.10316e+06
1.10373e+06
431350
230521
233192
436140
1.10319e+06
1.10376e+06
431405
230489
233077
436300
1.10322e+06
1.10379e+06
431343
230270
232950
436135
1.10325e+06
1.10382e+06
431397
230249
232846
436294
1.10329e+06
1.10386e+06
431333
230038
232726
436127
1.10333e+06
1.10391e+06
431387
230027
232632
436286
1.10338e+06
1.10396e+06
431323
229826
232521
436121
1.10344e+06
1.10401e+06
431379
229824
232435
436283
1.1035e+06
1.10408e+06
431319
229631
232333
436120
1.10357e+06
1.10415e+06
431379
229638
232257
436288
1.10365e+06
1.10423e+06
431324
229455
232164
436131
1.10372e+06
1.1043e+06
431390
229472
232097
436305
1.10381e+06
1.10439e+06
431342
229299
232015
436154
1.10389e+06
1.10447e+06
431412
229323
231954
436330
1.10398e+06
1.10457e+06
431366
229156
231875
436179
1.10408e+06
1.10467e+06
431435
229184
231819
436353
1.10418e+06
1.10478e+06
431383
229018
231763
436276
1.1043e+06
1.10492e+06
431409
229002
231590
436204
1.10444e+06
1.10459e+06
431038
228898
231477
435923
1.10349e+06
1.10423e+06
431102
228747
231352
436077
1.10379e+06
1.10398e+06
430567
228221
230930
434282
1.09953e+06
1.09424e+06
426458
225530
222011
421792
1.07476e+06
1.04379e+06
412652
216366
194069
381477
979583
914936
357759
180107
161189
326407
862582
70294.1
35210.5
25281.7
18133.8
11479.9
9589.46
8971.61
6633.55
4831.49
3754.62
2922.84
2238.26
1696.64
1276.05
962.895
733.242
567.015
446.464
358.433
293.434
244.883
208.138
180.095
158.423
141.803
128.992
119.577
112.816
108.413
105.837
104.664
103.784
102.217
100.071
97.4838
94.6287
91.5919
88.4783
85.2971
82.0684
78.7822
75.4323
72.0077
68.4981
64.8879
61.1573
57.2752
53.1741
47.7672
39.7843
30.1801
21.0664
13.7737
8.52425
4.99736
2.7658
1.44809
0.744203
0.406569
0.256594
0.194737
0.170661
0.161421
0.157605
0.155762
0.154329
0.152988
0.151688
0.150374
0.149018
0.147596
0.146089
0.144481
0.142758
0.140906
0.138917
0.136781
0.134492
0.132048
0.129448
0.126696
0.123796
0.120758
0.117594
0.114318
0.110948
0.107502
0.103998
0.100458
0.0969
0.0933438
0.0898085
0.0863101
0.0828651
0.0794862
0.0761858
0.0729748
0.0698599
0.0668494
0.0639473
0.0611566
0.0584805
0.0559188
0.0534719
0.0511382
0.0489163
0.0468042
0.0447979
0.0428949
0.0410916
0.0393839
0.037768
0.0362397
0.0347951
0.0334299
0.0321402
0.0309225
0.0297722
0.0286862
0.0276606
0.0266922
0.0257775
0.0249134
0.0240972
0.0233257
0.0225964
0.0219068
0.0212544
0.0206371
0.0200527
0.0194993
0.018975
0.0184781
0.0180069
0.0175601
0.0171363
0.0167341
0.0163525
0.0159905
0.015647
0.0153214
0.0150127
0.0147203
0.0144436
0.0141821
0.0139351
0.0137021
0.0134828
0.0132766
0.013083
0.0129015
0.0127318
0.0125731
0.0124252
0.0122872
0.0121588
0.0120394
0.0119284
0.0118253
0.0117296
0.0116408
0.0115585
0.0114823
0.0114119
0.011347
0.0112874
0.0112328
0.0111832
0.0111384
0.0110986
0.0110637
0.0110339
0.0110092
0.0109896
0.0109748
0.0109643
0.0109565
0.0109498
0.0109497
0.0109497
0.0109497
0.0109501
0.0109508
0.0109524
0.0109557
0.0109617
0.0109692
0.010977
0.0109827
0.0109838
0.0109796
0.0109713
0.0109602
0.0109472
0.0109328
0.0109172
0.0109004
0.0108823
0.0108629
0.0108422
0.0108202
0.0107971
0.0107729
0.0107477
0.0107215
0.0106945
0.0106669
0.0106391
0.0106118
0.0105862
0.010565
0.010553
0.0105602
0.0106064
0.0107306
0.0110107
0.0116002
0.0127995
0.0151933
0.0199121
0.0291014
0.0467719
0.0802864
0.142886
0.257949
0.466233
0.838776
1.50039
2.6726
4.74042
8.29266
13.8956
21.3034
28.8997
35.1249
41.0358
53.8185
96.1525
262.026
1131.31
2631.3
7709.19
8863.1
9592.47
10563
11044
11815.7
12143.3
12773.6
13004.1
13522.3
13698.4
14123.3
14259.8
14614
14720.9
15021.9
15106.3
15366.4
15433.4
15661.4
15714.7
15917.1
15959.3
16140.9
16174.2
16338.9
16364.9
16515.5
16535.5
16674.4
16689.5
16818.6
16829.6
16950.5
16958
17072.1
17077
17185.6
17188.3
17292.5
17293.6
17394.4
17394.3
17492.2
17491.5
17587.4
17586.3
17680.9
17679.5
17773.3
17772.1
17865.9
17865
17959.7
17959.3
18055.3
18056
18153.8
18155.9
18256.2
18259.9
18363.2
18368.7
18475.3
18482.8
18593
18602.6
18716.6
18728.6
18846.6
18860.9
18983.1
18999.5
19125.6
19144
19273.6
19293.4
19425.2
19445.4
19577.2
19595.6
19724
19738.6
19859.3
19867.1
19972.9
19970.8
20049.2
20035.4
20077.2
20047.2
20056.2
19979
19960.6
19829.8
19778.1
19586.2
19499.4
19244
19124.8
18810.7
18668.5
18308.5
18148.3
17760.9
17591.8
17193.9
17023.1
16634
16469.2
16095.1
15942.2
15587.8
15444.9
15117.4
14986.6
14684
14566.2
14289.4
14184.4
13933.3
13841.1
13614.4
13533.6
13329.5
13258.8
13073.5
13012.2
12845.8
12792.6
12641.1
12595.8
12459
12419.5
12295.7
12263.1
12150.7
12122.5
12019.1
12010.7
11935.9
11878.1
11888.4
11629.2
11533
7442.87
7575.68
5771.51
5666.89
4643.42
4656.07
4581.75
5986.81
7739.18
7868.4
6200.49
5986.18
7822.14
7954.4
6266.08
4652.18
4713.05
6054.7
7916.27
8057.88
6354.93
6143.23
8026.16
8178.31
6450.31
4781.78
4846.71
6237.12
8147.85
8307.43
6552.99
6338.73
8280.29
8448.96
6663.62
4920.6
4995.02
6447.36
8424.44
8603.76
6783.07
6564.61
8581.75
8772.77
6911.87
5076.42
5161.11
6690.84
8753.47
8957.33
7050.95
6826.34
8940.69
9157.84
7199.89
5251.66
5346.27
6971.03
9143.93
9375.65
7359.12
7125.07
9364.48
9611.36
7528.68
5446
5549.65
7288.56
9602.91
9865.97
7708.6
7460.89
9859.22
10137.2
7897.63
5657.06
5766.35
7640.61
10132.1
10423.8
8094
7825.47
10419.5
10722.5
8295
5875.74
5982.64
8012.45
10718.6
11030.5
8496.64
8196.48
11024.6
11340.5
8692.57
6082.55
6170.53
8370.71
11330
11641.8
8874.87
8527.27
11623.7
11921.9
9034.86
6241.3
6288.86
8657.68
11893.1
12168.3
9163.49
8753.61
12125.3
12368.2
9252.7
6307.48
6299.27
8808.86
12308.4
12507.8
9296.81
8821.49
12424.9
12575.8
9295.51
6268.39
6208.96
8795.38
12458.6
12584.9
9254.23
8736.59
12442
12553.8
9178.43
6110.67
5991.35
8644.72
12379.1
12480.2
9074.03
8528.65
12279.7
12373
8952.79
5859.98
5721.04
8395.33
12153.7
12241.9
8818.39
8254.03
12010.6
12095.8
8676.48
5578.37
5435.35
8110.11
11858.6
11942.4
8531.94
7967.13
11703.2
11786.6
8388.3
5294.37
5157.11
7827.6
11548.1
11631.8
8248.09
7693.16
11396.5
11481.7
8112.41
5024.4
4897.01
7563.76
11250.6
11337.8
7983.38
7438.89
11111.3
11200.4
7860.3
4774.73
4657.36
7319.2
10978.5
11069.7
7742.52
7204.71
10852.3
10945.3
7629.7
4544.55
4435.93
7094.98
10732.1
10826.9
7521.31
6989.43
10617.3
10713.7
7416.73
4330.85
4228.64
6887.47
10507.4
10605.3
7315.46
6788.59
10401.8
10500.9
7217.14
4128.47
4030.95
6692.43
10299.7
10399.9
7121.11
6598.42
10200.4
10301.4
7026.7
3935.68
3842.13
6505.9
10103.1
10204.7
6933.24
6414.24
10006.9
10108.7
6840.02
3749.71
3658.14
6322.72
9910.72
10012.6
6746.18
6230.55
9813.55
9915.04
6650.73
3567.09
3476.34
6136.76
9714.16
9814.91
6552.44
6040.16
9611.39
9711.04
6449.45
3385.8
3295.62
5938.87
9504.31
9602.64
6340.04
5831.16
9392.43
9489.46
6225.71
3204.09
3109.42
5718.86
9275.15
9370.56
6106.15
5601.43
9151.37
9244.77
5980.61
3011.77
2910.73
5478.18
9019.8
9110.71
5848.11
5348.16
8878.99
8966.87
5707.57
2805.73
2696.25
5210.35
8727.35
8811.59
5557.86
5063.69
8563.13
8643.07
5397.78
2581.69
2461.4
4907.05
8384.47
8459.36
5226.09
4739.28
8189.28
8258.25
5041.65
2334.84
2201.72
4559.4
7975.12
8037.06
4843.47
4366.63
7738.85
7792.31
4630.01
2062.66
1918.84
4159.56
7476.34
7519.36
4398.48
3933.75
7182.8
7213.46
4148.44
1766.39
1605.49
3687.1
6852.42
6868.23
3874.19
3417.09
6478.63
6475.99
3571.8
1435.58
1256.35
3119.74
6049.21
6017.32
3236.58
2792.86
5553.89
5485.59
2865.73
1067.75
869.793
2431.13
4976.11
4862.98
2452.43
2035
4309.21
4112.82
1986.94
662.825
453.306
1599.3
3533.56
3221.16
1470.83
177.42
274.545
375.889
476.29
574.478
670.044
762.887
852.961
940.325
1024.96
1107.43
1187.96
1266.68
1343.66
1418.98
1492.77
1565.17
1636.34
1706.43
1776.03
1845.31
1914.53
1984.07
2054.21
2125.2
2197.22
2270.75
2345.39
2423.54
2505.63
2591.48
2680.99
2774.23
2871.44
2972.86
3078.83
3189.55
3305.2
3425.75
3550.97
3680.19
3812.2
3944.99
4075.72
4200.37
4313.78
4409.21
4488.1
4541.43
4574.94
4574.26
4562.4
4534.16
4489.7
4437.13
4380.13
4321.34
4262.86
4205.68
4150.62
4097.87
4047.84
4000.09
3955.34
3911.76
3872.14
3830.94
3797.57
3753.2
3728.37
3654.25
3765.33
4297.55
4246.26
3764.45
3517.25
3533.01
3310.84
3309.1
3195.03
3202.81
3258.2
3107.14
3120.61
3118.94
3099.79
3102.8
3131.34
3128.53
3204.91
3204.64
3156.33
3444.53
3362.54
3356.31
3557.01
3556.07
3915.88
3895.44
4297.37
4303.52
4098.89
5689.2
5163.58
5057.63
5705.72
5783.88
7849.23
7389.08
10679.6
11550.5
11936.7
12254
12113.6
16475.6
17375.3
29861
28429.1
33101.7
19523.8
21210.4
34626.1
33916.9
19522.3
12685
8378.75
8943.01
12994.7
19563.6
21486.7
35833.9
34491.2
35951.1
21617.1
19661.8
12933.2
8569.9
5849.45
4178.17
3465.36
3167.92
3123.33
3291.2
3305.08
3128.96
3169.04
3467.47
3463.66
3166.31
3134.33
3325.36
3341.22
3137.47
3139.69
3359.5
3377.02
3140.55
3140.53
3151.94
3160.29
3453.75
3440
3421.23
3397.33
3126.32
3140.69
3395.89
3415.14
3139.67
3137.95
3435.66
3457.59
3135.87
3065.06
3088.55
3108.96
3367.45
3331.14
3287.77
3236.82
3038.64
3133.8
3481.24
3506.74
3132.56
3132.19
3534.03
3563.18
3133.57
2947.43
2978.96
3009.72
3177.92
3111.46
3038.42
3604.87
3733.65
3844.19
3935.06
4006.88
4063.51
4107.42
4140.67
4164.35
4180.93
4189.55
4192.65
4186.07
5871
8643.11
9107.08
13303.8
13141.2
13464
9222.62
8754.4
5924.39
5943.2
5969.75
5978.45
9076.45
9583.95
8969.24
9463.43
8861.46
9343.25
13643.4
13316.2
20150.1
22129.6
20078.4
22054
19898.7
21876.8
19814.2
21787.5
35978.6
34583.2
34706.2
36117.6
34803.7
36255.2
34926.3
36303.2
35030
36482.8
22324.8
20342.9
22407.7
36548.8
35166.9
35291.3
20423.8
13494.7
13829.1
20627.2
22615.6
36751.7
35450.1
36836.1
22707.1
20715
13678.3
14019.9
13869.5
14220.1
9703.9
9179.34
5979.98
5971.8
5949.93
5911.44
9417.26
10011.3
9358.7
9925.19
9275.62
9818.94
14423.5
14066.8
21347.6
23365.9
21238.8
23252.2
21019.4
23024.1
20924.2
22924.2
37046.4
35585.9
35752
37140
35899.9
37368.2
36101.5
37487.3
36269.1
37748.2
23609.7
21580.7
23736.7
37886.4
36492.7
36676.4
21697.5
14268.7
14631.5
21944.6
23994.9
38166.7
36910.7
38336.5
24138.3
22074.1
14473.4
14837.7
14673.1
15033.1
10068.4
9448.26
5853.89
5748.82
5583.76
5380.06
9168.27
9887.93
9342.06
10026.2
9431.14
10079.2
15210.9
14862
22907.4
25034.1
22758.4
24861
22480.8
24567.7
22340.7
24413.3
38647
37136.5
37403.2
38844.9
37653.2
39183.2
37952.1
39419.4
38242.2
39800
25342.7
23195.5
25521.6
40084.3
38578.2
38887.9
23343
15028.7
15349.1
23614.2
25821.5
40464.7
39209.5
40666.8
25985.3
23737.6
15147.7
15403.9
15184
15343.2
9625.48
8849.11
5108.14
3453.45
2959.53
2916.51
3137.26
3593.46
3623.92
3142.92
3150.04
3652.65
3675.86
3155.37
2840.7
2862.47
2887.87
2877.92
2796.49
2718.74
2647.31
2821.1
3157.13
3687.12
3690.03
3150.08
3125.36
3673.69
3634
3080.16
2690.87
2760.17
2798.73
2587.5
2517.55
2418.29
2296.9
2586.6
3000.99
3575.13
3487.46
2894.58
2769.79
3380.23
3259.43
2639.22
2191.17
2326.71
2461.9
2154.32
2006.55
1863.32
1729.23
2059.7
2508.71
3132.55
3004.02
2381.6
2260.31
2877.25
2754.37
2146.16
1714.38
1820.32
1935.64
1606.73
1495.91
1396.52
1155.78
1250.26
1358.48
1482.04
1622.67
1780.72
1953.5
2135.07
2301.82
2446.48
2557.94
2705.21
2906.49
3100.67
3284.39
4773.13
4379.29
3914.22
6687.28
7708.41
7643.62
8572.63
8345
9212.14
15026.9
15063.3
24993.3
27241.2
24592.8
26840.1
24192.2
26456.6
23995.9
26257.9
40961.5
39395.9
39467.8
40975.4
39696.9
41279.9
40134
41924.2
41002.4
42777.8
27774.5
25476.1
28256.6
44290.9
42294.3
43989
25838.8
14603.8
14205.6
26137.6
28699.5
46653.1
46644.8
50472.6
28645.1
25711.2
13367.5
12812.8
11433
9990.74
6427.51
5596.18
3400.11
2926.52
2701.38
2440.18
3020.98
3311.21
3448.41
3918.46
4297.09
5205.37
8016.18
8814.55
14841.7