/*--------------------------------*- C++ -*----------------------------------*\
| =========                 |                                                 |
| \\      /  F ield         | OpenFOAM: The Open Source CFD Toolbox           |
|  \\    /   O peration     | Version:  v2006                                 |
|   \\  /    A nd           | Website:  www.openfoam.com                      |
|    \\/     M anipulation  |                                                 |
\*---------------------------------------------------------------------------*/
FoamFile
{
    version     2.0;
    format      ascii;
    class       volScalarField;
    location    "0.02";
    object      T;
}
// * * * * * * * * * * * * * * * * * * * * * * * * * * * * * * * * * * * * * //

dimensions      [0 0 0 1 0 0 0];


internalField   nonuniform List<scalar> 
11076
(
297.881
297.881
297.882
297.882
297.882
297.882
297.882
297.881
297.881
297.881
297.881
297.883
297.886
297.892
297.9
297.908
297.917
297.925
297.934
297.943
297.953
297.963
297.972
297.983
297.993
298.004
298.015
298.026
298.038
298.049
298.061
298.072
298.084
298.096
298.108
298.12
298.132
298.144
298.156
298.168
298.179
298.191
298.202
298.213
298.224
298.235
298.246
298.256
298.266
298.275
298.285
298.294
298.303
298.311
298.32
298.328
298.335
298.34
298.343
298.344
298.343
298.342
298.342
298.341
298.341
298.342
298.344
298.349
298.356
298.369
298.383
298.437
298.448
298.38
298.361
298.361
298.383
298.468
298.485
298.388
298.361
298.362
298.394
298.497
298.507
298.401
298.366
298.371
298.408
298.514
298.519
298.415
298.375
298.381
298.422
298.524
298.528
298.428
298.386
298.391
298.434
298.531
298.534
298.44
298.397
298.403
298.446
298.536
298.539
298.452
298.408
298.414
298.457
298.541
298.543
298.462
298.42
298.425
298.466
298.544
298.546
298.472
298.431
298.435
298.476
298.548
298.55
298.481
298.441
298.445
298.485
298.551
298.553
298.49
298.451
298.455
298.493
298.554
298.556
298.499
298.461
298.465
298.502
298.558
298.561
298.507
298.472
298.476
298.511
298.563
298.567
298.517
298.483
298.487
298.521
298.57
298.575
298.528
298.495
298.5
298.532
298.578
298.583
298.539
298.507
298.512
298.543
298.586
298.592
298.551
298.52
298.525
298.555
298.595
298.601
298.563
298.533
298.539
298.567
298.604
298.61
298.575
298.547
298.553
298.58
298.613
298.619
298.588
298.561
298.567
298.592
298.623
298.629
298.601
298.576
298.581
298.605
298.633
298.64
298.614
298.591
298.597
298.619
298.644
298.653
298.629
298.607
298.613
298.634
298.657
298.666
298.645
298.623
298.63
298.65
298.671
298.681
298.661
298.641
298.648
298.667
298.686
298.696
298.679
298.66
298.668
298.685
298.701
298.712
298.697
298.68
298.687
298.703
298.717
298.728
298.716
298.7
298.708
298.723
298.734
298.745
298.736
298.721
298.73
298.742
298.751
298.763
298.756
298.743
298.752
298.763
298.769
298.781
298.777
298.766
298.775
298.784
298.787
298.8
298.798
298.789
298.799
298.806
298.807
298.82
298.821
298.814
298.824
298.829
298.828
298.842
298.845
298.84
298.85
298.854
298.85
298.865
298.87
298.867
298.877
298.88
298.874
298.889
298.897
298.894
298.906
298.906
298.897
298.913
298.923
298.923
298.935
298.933
298.921
298.936
298.95
298.952
298.964
298.96
298.946
298.961
298.977
298.982
298.993
298.987
298.97
298.985
299.004
299.011
299.023
299.014
298.994
299.01
299.032
299.041
299.053
299.043
299.02
299.035
299.06
299.071
299.084
299.071
299.046
299.062
299.088
299.101
299.113
299.099
299.073
299.088
299.116
299.131
299.143
299.127
299.099
299.115
299.144
299.16
299.172
299.155
299.127
299.143
299.172
299.19
299.202
299.184
299.156
299.172
299.201
299.219
299.231
299.212
299.185
299.201
299.229
299.247
299.258
299.239
299.213
299.228
299.255
299.274
299.284
299.265
299.239
299.253
299.28
299.298
299.308
299.289
299.263
299.276
299.302
299.321
299.33
299.31
299.285
299.296
299.323
299.342
299.348
299.328
299.301
299.31
299.337
299.357
299.363
299.343
299.316
299.321
299.348
299.369
299.372
299.351
299.325
299.33
299.358
299.378
299.38
299.36
299.333
299.338
299.364
299.385
299.387
299.366
299.339
299.34
299.366
299.387
299.388
299.368
299.342
299.344
299.369
299.389
299.388
299.368
299.344
299.348
299.37
299.389
299.391
299.373
299.351
299.352
299.373
299.392
299.391
299.373
299.352
299.353
299.374
299.391
299.39
299.373
299.352
299.35
299.37
299.387
299.385
299.369
299.35
299.351
299.369
299.385
299.384
299.369
299.351
299.352
299.369
299.384
299.385
299.371
299.354
299.358
299.373
299.387
299.386
299.373
299.359
299.362
299.374
299.386
299.388
299.378
299.367
299.372
299.382
299.392
299.392
299.383
299.373
299.378
299.386
299.395
299.4
299.393
299.385
299.386
299.394
299.401
299.401
299.395
299.389
299.397
299.403
299.407
299.408
299.403
299.398
299.399
299.404
299.408
299.417
299.416
299.413
299.423
299.426
299.428
299.426
299.424
299.42
299.417
299.421
299.423
299.431
299.43
299.427
299.434
299.438
299.437
299.44
299.441
299.436
299.441
299.445
299.443
299.45
299.45
299.442
299.445
299.444
299.462
299.46
299.446
299.436
299.429
299.422
299.413
299.406
299.399
299.392
299.386
299.38
299.375
299.37
299.365
299.361
299.358
299.357
299.356
299.355
299.356
299.358
299.362
299.458
299.235
299.221
299.478
299.332
299.343
299.404
299.347
299.362
299.334
299.373
299.361
299.378
299.341
299.388
299.359
299.361
299.36
299.365
299.37
299.358
299.372
299.361
299.357
299.356
299.38
299.372
299.35
299.357
299.352
299.363
299.349
299.35
299.359
299.347
299.348
299.344
299.365
299.35
299.355
299.35
299.35
299.346
299.364
299.365
299.346
299.356
299.353
299.364
299.347
299.363
299.353
299.357
299.354
299.365
299.344
299.347
299.36
299.353
299.349
299.35
299.357
299.347
299.356
299.349
299.349
299.358
299.344
299.347
299.359
299.349
299.351
299.355
299.352
299.35
299.36
299.356
299.356
299.367
299.349
299.37
299.358
299.36
299.358
299.371
299.356
299.361
299.37
299.357
299.355
299.353
299.375
299.36
299.359
299.352
299.347
299.346
299.369
299.359
299.342
299.347
299.344
299.357
299.339
299.344
299.351
299.346
299.347
299.355
299.35
299.364
299.353
299.352
299.353
299.366
299.358
299.372
299.359
299.357
299.355
299.368
299.36
299.365
299.363
299.348
299.346
299.347
299.38
299.367
299.347
299.346
299.343
299.352
299.36
299.36
299.348
299.344
299.344
299.343
299.366
299.364
299.345
299.344
299.343
299.343
299.363
299.358
299.349
299.338
299.333
299.352
299.352
299.358
299.341
299.332
299.326
299.345
299.346
299.349
299.335
299.319
299.318
299.32
299.364
299.349
299.324
299.315
299.311
299.312
299.356
299.338
299.322
299.31
299.301
299.312
299.337
299.328
299.309
299.297
299.283
299.3
299.317
299.311
299.297
299.278
299.275
299.285
299.313
299.313
299.285
299.274
299.274
299.284
299.312
299.314
299.288
299.276
299.275
299.289
299.312
299.311
299.294
299.273
299.274
299.287
299.323
299.317
299.291
299.277
299.278
299.287
299.324
299.324
299.289
299.282
299.285
299.292
299.328
299.331
299.297
299.293
299.297
299.301
299.332
299.33
299.305
299.308
299.319
299.314
299.321
299.333
299.328
299.33
299.34
299.335
299.339
299.357
299.348
299.349
299.36
299.359
299.366
299.38
299.37
299.37
299.384
299.383
299.391
299.404
299.396
299.398
299.413
299.41
299.417
299.428
299.426
299.43
299.451
299.442
299.432
299.449
299.458
299.47
299.48
299.472
299.461
299.48
299.491
299.498
299.521
299.513
299.495
299.514
299.538
299.549
299.577
299.561
299.532
299.554
299.582
299.591
299.608
299.599
299.572
299.591
299.618
299.622
299.64
299.638
299.614
299.637
299.662
299.663
299.689
299.687
299.663
299.689
299.707
299.712
299.725
299.724
299.71
299.728
299.733
299.733
299.736
299.729
299.731
299.711
299.711
299.71
299.682
299.67
299.665
299.576
299.605
299.622
299.515
299.503
299.445
299.294
299.409
299.447
299.334
299.278
299.111
298.92
299.105
299.158
298.992
298.945
298.695
298.503
298.795
298.85
298.691
298.613
298.22
298.027
298.482
298.531
298.32
298.196
297.735
297.652
297.904
298.118
297.835
297.562
297.524
297.492
297.294
297.601
297.368
297.158
297.561
297.702
297.055
297.152
297.114
297.066
297.924
298.119
297.184
297.115
297.17
297.366
298.333
298.505
297.538
297.18
297.261
297.667
298.641
298.766
297.925
297.427
297.44
297.988
298.844
298.929
298.101
297.499
297.661
298.224
298.965
299.042
298.154
297.608
297.671
298.174
299.034
299.085
298.128
297.655
297.733
298.211
299.096
299.115
298.335
297.874
298
298.503
299.134
299.192
298.461
298
298.037
298.542
299.174
299.173
298.646
298.198
298.159
298.622
299.183
299.186
298.663
298.236
298.354
298.765
299.181
299.184
298.848
298.482
298.429
298.813
299.174
299.143
298.841
298.459
298.68
299.012
299.13
299.024
299.012
298.607
298.683
298.997
299.037
298.924
299.213
298.716
298.156
298.874
299.881
299.348
298.282
298.703
298.699
298.897
298.817
298.953
298.804
298.798
298.592
298.687
298.779
298.751
298.662
298.587
298.63
298.709
298.742
298.618
298.729
298.608
298.562
298.691
298.59
298.896
298.532
298.59
298.56
298.709
298.734
298.66
298.61
298.495
298.498
298.448
298.986
298.979
298.697
298.487
298.462
298.518
298.732
298.748
298.548
298.459
298.524
298.657
298.781
298.689
298.521
298.468
298.426
298.529
298.64
298.444
298.985
298.354
297.601
298.493
299.53
299.1
297.867
298.45
298.413
298.44
298.48
298.68
298.333
298.507
298.377
298.258
298.623
298.217
298.54
298.406
298.325
298.257
298.285
298.363
298.108
298.432
298.443
298.535
297.872
297.859
298.146
298.397
298.414
298.247
298.093
297.877
298.422
298.423
298.375
297.975
298.031
298.17
298.02
298.386
298.408
298.409
297.841
297.692
298.129
298.264
298.363
298.304
298.011
298.084
297.851
298.294
298.216
298.148
298.054
298.017
298.209
298.204
298.187
298.084
298.039
298.056
298.121
298.124
298.114
298.179
298.012
298.005
298.055
298.107
298.037
298.042
298.035
298.022
298.117
298.048
298.019
298.052
297.959
297.951
298.006
297.975
297.951
297.975
298.04
298.036
297.904
297.967
297.866
297.952
297.921
297.94
298.046
297.858
297.848
297.897
297.958
298.029
297.901
297.826
297.853
297.948
297.938
297.845
297.9
297.768
297.758
297.778
298.138
298.176
297.907
297.823
297.708
297.794
297.94
297.9
297.972
297.7
297.707
297.747
297.866
297.95
297.758
297.675
297.729
297.853
297.956
297.856
297.734
297.651
297.635
297.706
297.959
297.937
297.779
297.664
297.567
297.632
297.782
297.754
297.715
297.574
297.535
297.572
297.697
297.748
297.594
297.519
297.587
297.628
297.755
297.642
297.535
297.471
297.47
297.568
297.65
297.583
297.464
297.422
297.404
297.476
297.611
297.607
297.521
297.454
297.374
297.42
297.535
297.582
297.457
297.367
297.404
297.478
297.564
297.479
297.367
297.323
297.333
297.399
297.491
297.429
297.309
297.276
297.259
297.347
297.472
297.46
297.375
297.309
297.223
297.269
297.398
297.403
297.303
297.23
297.165
297.191
297.327
297.345
297.23
297.138
297.173
297.233
297.324
297.241
297.126
297.081
297.093
297.16
297.257
297.191
297.06
297.027
296.999
297.094
297.22
297.201
297.104
297.032
296.939
296.98
297.098
297.111
297.012
296.947
296.881
296.907
297.036
297.067
296.943
296.852
296.896
296.971
297.058
296.985
296.85
296.805
296.813
296.884
296.992
296.915
296.769
296.742
296.724
296.818
296.945
296.928
296.824
296.76
296.674
296.716
296.844
296.865
296.757
296.685
296.627
296.657
296.796
296.844
296.709
296.607
296.638
296.706
296.811
296.728
296.589
296.543
296.558
296.629
296.746
296.662
296.512
296.482
296.461
296.564
296.704
296.676
296.562
296.496
296.4
296.446
296.592
296.605
296.483
296.413
296.333
296.363
296.524
296.559
296.413
296.303
296.342
296.413
296.53
296.441
296.284
296.233
296.246
296.326
296.456
296.365
296.197
296.165
296.139
296.249
296.41
296.39
296.264
296.186
296.074
296.126
296.287
296.302
296.161
296.085
296.008
296.042
296.218
296.259
296.09
295.974
296.026
296.108
296.236
296.124
295.958
295.901
295.918
296.003
296.145
296.049
295.87
295.837
295.802
295.919
296.093
296.078
295.943
295.856
295.734
295.792
295.961
295.983
295.839
295.75
295.662
295.692
295.881
295.928
295.753
295.632
295.677
295.75
295.892
295.781
295.598
295.539
295.552
295.638
295.796
295.704
295.504
295.462
295.423
295.556
295.753
295.728
295.583
295.486
295.352
295.417
295.618
295.639
295.471
295.369
295.272
295.308
295.526
295.56
295.361
295.231
295.276
295.357
295.516
295.39
295.182
295.12
295.149
295.237
295.418
295.309
295.092
295.052
295.013
295.158
295.372
295.338
295.178
295.074
294.922
294.992
295.207
295.223
295.036
294.936
294.832
294.877
295.107
295.122
294.887
294.76
294.827
294.931
295.091
294.97
294.75
294.673
294.703
294.815
295.002
294.878
294.635
294.585
294.546
294.698
294.939
294.902
294.722
294.606
294.433
294.504
294.742
294.747
294.531
294.439
294.323
294.378
294.616
294.645
294.376
294.237
294.331
294.468
294.644
294.505
294.263
294.18
294.106
294.302
294.563
294.534
294.357
294.202
294.003
294.096
294.365
294.375
294.139
294.015
293.889
293.95
294.22
294.238
293.938
293.783
293.876
294.025
294.215
294.065
293.795
293.697
293.734
293.872
294.097
293.945
293.642
293.58
293.528
293.704
293.995
293.944
293.717
293.566
293.4
293.461
293.738
293.741
293.504
293.29
293.296
293.591
293.666
293.524
293.276
293.183
293.174
293.407
293.628
293.479
293.127
293.09
293.012
293.229
293.542
293.47
293.238
293.08
292.881
292.961
293.27
293.276
292.996
292.757
292.778
292.996
293.098
292.962
292.772
292.563
292.626
292.811
293.162
292.939
292.543
292.468
292.364
292.582
292.986
292.905
292.686
292.453
292.256
292.361
292.716
292.718
292.372
292.117
292.155
292.333
292.573
292.428
292.015
291.867
291.945
292.167
292.507
292.311
291.888
291.791
291.695
291.945
292.386
292.32
292.027
291.798
291.528
291.642
292.049
292.052
291.629
291.443
291.359
291.563
291.86
291.647
291.256
291.119
291.065
291.309
291.84
291.828
291.497
291.209
290.971
291.111
291.555
291.596
291.153
290.823
290.895
291.122
291.479
291.168
290.705
290.575
290.336
290.59
291.096
291.099
290.785
290.464
290.223
290.397
290.843
291.012
290.455
290.125
290.267
290.568
290.93
290.606
290.119
289.943
289.695
290.064
290.6
290.303
289.959
289.695
289.291
289.491
290.001
290.277
289.548
289.236
289.429
289.822
290.254
289.908
289.316
289.127
288.913
289.324
289.93
289.737
289.308
288.994
288.507
288.681
289.116
289.164
288.488
288.225
288.442
288.816
289.235
288.974
288.366
288.161
287.928
288.319
289.007
288.84
288.415
288.054
287.518
287.684
288.181
288.01
287.377
287.213
287.053
287.409
288.16
288.207
287.706
287.283
286.933
287.17
287.845
287.863
287.026
286.571
286.23
286.571
287.313
287.335
286.724
286.308
285.903
286.219
287.005
287.224
286.211
285.825
285.615
286.178
287.191
286.729
286.153
285.604
284.86
285.104
286.018
286.374
285.205
284.767
284.68
285.243
286.416
286.146
285.368
284.769
284.064
284.286
285.11
285.171
284.011
283.721
283.627
284.138
285.461
285.166
283.957
283.492
283.138
283.841
285.257
285.333
284.4
283.639
283.103
283.547
284.753
284.64
283.401
282.935
283.046
283.73
285.258
285.338
283.732
283.112
283.377
284.259
286.103
286.83
284.829
283.981
284.565
285.614
287.752
289.107
286.808
285.533
286.274
287.624
289.854
290.652
288.455
286.947
287.412
288.94
290.972
291.493
289.562
287.916
288.285
289.913
291.683
292.043
290.42
288.716
289.023
290.677
292.167
292.418
291.086
289.399
289.662
291.275
292.503
292.684
291.603
289.998
290.221
291.749
292.743
292.876
292.006
290.52
290.71
292.117
292.916
293.016
292.315
290.972
291.129
292.397
293.042
293.117
292.548
291.354
291.485
292.608
293.133
293.188
292.724
291.674
291.78
292.765
293.196
293.238
292.853
291.933
292.019
292.882
293.237
293.265
292.951
292.14
292.21
292.968
293.258
293.279
293.02
292.304
292.358
293.029
293.267
293.283
293.069
292.429
292.468
293.066
293.267
293.279
293.097
292.52
292.547
293.086
293.261
293.268
293.11
292.586
292.591
293.092
293.248
293.253
293.109
292.623
292.616
293.085
293.233
293.232
293.096
292.64
292.625
293.068
293.211
293.209
293.074
292.645
292.623
293.042
293.183
293.18
293.045
292.639
292.612
293.011
293.153
293.149
293.009
292.626
292.596
292.975
293.12
293.114
292.97
292.605
292.574
292.935
293.084
293.076
292.928
292.581
292.551
292.89
293.045
293.036
292.883
292.552
292.525
292.846
293.004
292.994
292.837
292.522
292.499
292.8
292.96
292.95
292.791
292.49
292.469
292.754
292.916
292.906
292.744
292.459
292.437
292.707
292.87
292.86
292.697
292.427
292.404
292.661
292.824
292.813
292.651
292.396
292.373
292.615
292.778
292.766
292.606
292.365
292.341
292.571
292.731
292.72
292.561
292.335
292.312
292.527
292.685
292.673
292.518
292.304
292.281
292.485
292.639
292.628
292.476
292.276
292.254
292.444
292.594
292.582
292.436
292.247
292.224
292.404
292.55
292.539
292.397
292.22
292.198
292.366
292.506
292.496
292.359
292.192
292.171
292.33
292.465
292.454
292.323
292.166
292.146
292.295
292.424
292.414
292.289
292.14
292.12
292.262
292.385
292.376
292.256
292.116
292.097
292.229
292.348
292.339
292.224
292.091
292.072
292.199
292.313
292.304
292.194
292.068
292.049
292.17
292.279
292.27
292.165
292.045
292.026
292.142
292.246
292.238
292.137
292.023
292.005
292.115
292.215
292.207
292.111
292.001
291.983
292.089
292.186
292.178
292.086
291.982
291.964
292.064
292.158
292.151
292.062
291.961
291.943
292.041
292.131
292.124
292.038
291.943
291.925
292.018
292.106
292.099
292.016
291.923
291.906
291.996
292.081
292.075
291.995
291.906
291.888
291.975
292.058
292.052
291.974
291.888
291.87
291.955
292.035
292.03
291.955
291.872
291.854
291.936
292.014
292.009
291.936
291.854
291.837
291.917
291.993
291.989
291.918
291.839
291.821
291.899
291.973
291.969
291.9
291.823
291.806
291.882
291.954
291.95
291.883
291.809
291.791
291.865
291.935
291.932
291.867
291.793
291.776
291.849
291.917
291.914
291.85
291.78
291.762
291.833
291.9
291.897
291.835
291.764
291.748
291.817
291.883
291.881
291.82
291.752
291.734
291.802
291.867
291.864
291.805
291.737
291.721
291.788
291.851
291.849
291.79
291.726
291.708
291.774
291.835
291.833
291.776
291.712
291.695
291.76
291.82
291.819
291.763
291.701
291.683
291.746
291.806
291.804
291.749
291.687
291.671
291.733
291.791
291.79
291.736
291.677
291.659
291.72
291.777
291.776
291.724
291.664
291.647
291.707
291.764
291.763
291.711
291.653
291.636
291.695
291.75
291.749
291.699
291.641
291.624
291.683
291.737
291.736
291.687
291.631
291.614
291.671
291.724
291.724
291.675
291.619
291.602
291.659
291.712
291.711
291.663
291.609
291.592
291.648
291.699
291.699
291.652
291.598
291.581
291.636
291.687
291.687
291.641
291.588
291.571
291.625
291.675
291.675
291.63
291.577
291.56
291.614
291.664
291.664
291.619
291.568
291.551
291.604
291.652
291.652
291.608
291.557
291.54
291.593
291.641
291.641
291.598
291.548
291.531
291.583
291.63
291.63
291.588
291.537
291.52
291.572
291.62
291.62
291.577
291.529
291.511
291.562
291.609
291.609
291.567
291.518
291.501
291.552
291.599
291.599
291.557
291.509
291.492
291.542
291.588
291.589
291.548
291.499
291.482
291.533
291.578
291.579
291.538
291.491
291.473
291.523
291.568
291.569
291.528
291.48
291.464
291.513
291.558
291.559
291.519
291.472
291.455
291.504
291.548
291.549
291.509
291.462
291.445
291.494
291.539
291.539
291.5
291.454
291.436
291.485
291.529
291.53
291.49
291.443
291.427
291.475
291.52
291.52
291.481
291.436
291.418
291.466
291.51
291.511
291.472
291.425
291.409
291.457
291.501
291.502
291.463
291.418
291.4
291.448
291.491
291.492
291.453
291.408
291.391
291.439
291.482
291.483
291.444
291.4
291.383
291.43
291.473
291.474
291.435
291.39
291.373
291.42
291.464
291.464
291.426
291.382
291.364
291.41
291.454
291.454
291.416
291.371
291.355
291.401
291.444
291.442
291.406
291.36
291.343
291.39
291.432
291.432
291.393
291.347
291.329
291.376
291.419
291.416
291.375
291.33
291.306
291.356
291.402
291.392
291.347
291.296
291.271
291.329
291.375
291.332
291.283
291.204
291.198
291.264
291.298
291.213
291.224
291.184
291.211
291.247
291.198
291.052
290.464
290.14
289.847
289.458
289.253
289.165
289.001
288.888
288.719
288.583
288.477
288.394
288.329
288.28
288.245
288.218
288.199
288.185
288.175
288.167
288.162
288.157
288.154
288.151
288.149
288.148
288.147
288.146
288.146
288.146
288.146
288.146
288.145
288.145
288.144
288.144
288.143
288.143
288.142
288.142
288.141
288.141
288.14
288.14
288.139
288.139
288.138
288.137
288.136
288.134
288.133
288.134
288.137
288.142
288.15
288.161
288.174
288.189
288.207
288.228
288.252
288.278
288.309
288.343
288.381
288.423
288.471
288.524
288.583
288.648
288.721
288.8
288.888
288.984
289.09
289.204
289.328
289.462
289.605
289.758
289.92
290.091
290.271
290.458
290.652
290.851
291.056
291.264
291.476
291.689
291.903
292.117
292.33
292.541
292.75
292.956
293.157
293.355
293.548
293.735
293.918
294.095
294.267
294.433
294.593
294.747
294.896
295.039
295.176
295.308
295.435
295.556
295.673
295.784
295.891
295.993
296.091
296.184
296.273
296.358
296.439
296.517
296.591
296.661
296.728
296.793
296.854
296.912
296.967
297.02
297.07
297.117
297.163
297.206
297.247
297.286
297.323
297.358
297.391
297.423
297.453
297.482
297.509
297.535
297.559
297.582
297.604
297.625
297.645
297.663
297.681
297.697
297.713
297.728
297.741
297.754
297.766
297.777
297.787
297.796
297.805
297.813
297.821
297.828
297.835
297.841
297.847
297.853
297.858
297.863
297.867
297.871
297.874
297.876
297.878
297.879
297.881
297.881
297.881
297.881
297.881
297.881
297.881
297.881
297.881
297.882
297.885
297.89
297.896
297.904
297.912
297.921
297.93
297.939
297.948
297.958
297.968
297.979
297.99
298.001
298.012
298.023
298.035
298.047
298.059
298.071
298.083
298.095
298.107
298.12
298.132
298.144
298.156
298.168
298.18
298.192
298.203
298.215
298.226
298.237
298.248
298.259
298.269
298.279
298.288
298.297
298.306
298.315
298.323
298.33
298.336
298.341
298.343
298.343
298.343
298.343
298.343
298.343
298.343
298.344
298.347
298.349
298.351
298.354
298.357
298.36
298.364
298.368
298.372
298.377
298.382
298.387
298.391
298.396
298.401
298.406
298.411
298.417
298.422
298.427
298.432
298.438
298.444
298.45
298.456
298.462
298.469
298.475
298.482
298.489
298.496
298.503
298.511
298.518
298.526
298.533
298.541
298.549
298.558
298.566
298.575
298.583
298.593
298.602
298.612
298.621
298.631
298.641
298.652
298.662
298.674
298.684
298.697
298.707
298.72
298.731
298.744
298.756
298.77
298.782
298.796
298.809
298.824
298.837
298.853
298.867
298.883
298.897
298.914
298.928
298.945
298.96
298.978
298.992
299.01
299.025
299.043
299.058
299.076
299.091
299.109
299.124
299.141
299.156
299.174
299.188
299.206
299.22
299.237
299.251
299.267
299.279
299.295
299.306
299.321
299.331
299.345
299.353
299.366
299.373
299.383
299.389
299.396
299.399
299.406
299.408
299.412
299.414
299.415
299.416
299.417
299.416
299.417
299.418
299.418
299.417
299.416
299.414
299.411
299.408
299.408
299.407
299.406
299.406
299.407
299.406
299.405
299.405
299.407
299.406
299.408
299.41
299.41
299.41
299.413
299.414
299.414
299.419
299.428
299.427
299.426
299.431
299.433
299.435
299.437
299.437
299.436
299.452
299.457
299.456
299.449
299.438
299.45
299.439
299.441
299.453
299.447
299.437
299.432
299.44
299.433
299.428
299.435
299.43
299.424
299.432
299.431
299.423
299.423
299.43
299.425
299.424
299.428
299.421
299.418
299.425
299.426
299.42
299.42
299.425
299.424
299.422
299.425
299.419
299.418
299.423
299.423
299.419
299.418
299.423
299.423
299.425
299.425
299.42
299.421
299.426
299.428
299.422
299.422
299.428
299.43
299.433
299.432
299.424
299.424
299.432
299.435
299.426
299.426
299.435
299.437
299.44
299.438
299.43
299.432
299.439
299.441
299.434
299.434
299.441
299.442
299.443
299.443
299.436
299.436
299.442
299.443
299.436
299.435
299.442
299.444
299.443
299.443
299.436
299.433
299.441
299.442
299.434
299.43
299.437
299.439
299.431
299.437
299.429
299.423
299.43
299.428
299.421
299.413
299.419
299.421
299.407
299.416
299.41
299.4
299.405
299.401
299.395
299.383
299.387
299.389
299.366
299.381
299.377
299.362
299.364
299.357
299.354
299.338
299.339
299.34
299.311
299.33
299.329
299.311
299.311
299.301
299.301
299.283
299.28
299.279
299.244
299.269
299.271
299.252
299.248
299.236
299.24
299.22
299.215
299.209
299.174
299.201
299.207
299.187
299.18
299.166
299.172
299.153
299.145
299.137
299.1
299.13
299.138
299.119
299.109
299.094
299.104
299.084
299.073
299.062
299.025
299.058
299.069
299.049
299.037
299.022
299.033
299.014
299.002
298.988
298.952
298.986
298.999
298.98
298.967
298.951
298.965
298.946
298.933
298.917
298.882
298.917
298.931
298.913
298.899
298.883
298.898
298.881
298.866
298.849
298.817
298.85
298.866
298.849
298.834
298.819
298.835
298.819
298.804
298.786
298.757
298.789
298.805
298.79
298.774
298.76
298.777
298.762
298.746
298.728
298.701
298.733
298.749
298.736
298.719
298.706
298.723
298.71
298.694
298.675
298.651
298.681
298.698
298.685
298.669
298.657
298.674
298.662
298.645
298.627
298.605
298.633
298.651
298.64
298.623
298.611
298.629
298.618
298.601
298.583
298.563
298.591
298.608
298.598
298.581
298.571
298.588
298.578
298.562
298.544
298.526
298.552
298.569
298.56
298.543
298.534
298.551
298.542
298.526
298.509
298.493
298.517
298.533
298.525
298.509
298.501
298.517
298.509
298.494
298.478
298.464
298.486
298.501
298.494
298.479
298.471
298.486
298.479
298.465
298.45
298.438
298.457
298.472
298.466
298.451
298.444
298.459
298.452
298.439
298.426
298.415
298.432
298.446
298.44
298.427
298.421
298.434
298.428
298.416
298.405
298.395
298.41
298.422
298.417
298.406
298.4
298.412
298.407
298.396
298.387
298.379
298.391
298.402
298.397
298.387
298.383
298.392
298.388
298.379
298.372
298.365
298.375
298.383
298.379
298.371
298.367
298.375
298.371
298.364
298.359
298.354
298.361
298.367
298.364
298.358
298.355
298.36
298.357
298.352
298.35
298.347
298.35
298.354
298.351
298.348
298.346
298.349
298.347
298.345
298.345
298.343
298.344
298.345
298.344
298.343
298.343
298.345
298.346
298.349
298.353
298.357
298.362
298.367
298.373
298.38
298.388
298.397
298.406
298.416
298.426
298.438
298.451
298.464
298.478
298.493
298.51
298.527
298.545
298.564
298.585
298.607
298.629
298.653
298.679
298.705
298.733
298.762
298.793
298.825
298.858
298.892
298.928
298.964
299.001
299.039
299.078
299.117
299.155
299.194
299.232
299.269
299.303
299.335
299.362
299.386
299.404
299.418
299.426
299.432
299.434
299.434
299.433
299.431
299.428
299.426
299.422
299.419
299.416
299.414
299.412
299.412
299.413
299.414
299.416
299.42
299.425
299.432
299.439
299.442
299.434
299.428
299.426
299.418
299.42
299.412
299.41
299.409
299.395
299.403
299.405
299.398
299.396
299.39
299.391
299.385
299.384
299.383
299.372
299.378
299.379
299.374
299.372
299.367
299.368
299.363
299.362
299.361
299.353
299.358
299.36
299.356
299.354
299.352
299.355
299.354
299.353
299.353
299.353
299.354
299.356
299.356
299.362
299.359
299.362
299.355
299.355
299.36
299.358
299.353
299.351
299.351
299.35
299.35
299.352
299.353
299.357
299.357
299.354
299.351
299.349
299.348
299.351
299.351
299.359
299.369
299.38
299.393
299.406
299.403
299.39
299.378
299.367
299.367
299.377
299.388
299.401
299.399
299.387
299.387
299.399
299.4
299.388
299.376
299.376
299.376
299.365
299.365
299.365
299.365
299.376
299.388
299.402
299.404
299.39
299.391
299.405
299.407
299.393
299.38
299.378
299.377
299.365
299.365
299.366
299.366
299.381
299.395
299.41
299.413
299.397
299.4
299.416
299.419
299.404
299.388
299.385
299.382
299.367
299.368
299.372
299.353
299.351
299.351
299.351
299.351
299.352
299.354
299.355
299.355
299.354
299.355
299.357
299.358
299.349
299.346
299.349
299.346
299.344
299.341
299.341
299.341
299.347
299.346
299.346
299.345
299.341
299.341
299.345
299.347
299.347
299.343
299.342
299.341
299.344
299.345
299.345
299.345
299.345
299.345
299.346
299.347
299.348
299.352
299.347
299.346
299.348
299.349
299.35
299.35
299.351
299.349
299.344
299.344
299.345
299.347
299.348
299.348
299.345
299.345
299.347
299.347
299.345
299.347
299.349
299.35
299.347
299.348
299.345
299.343
299.341
299.339
299.34
299.34
299.344
299.343
299.341
299.336
299.332
299.335
299.336
299.335
299.337
299.339
299.337
299.337
299.337
299.339
299.342
299.345
299.347
299.348
299.349
299.349
299.353
299.352
299.355
299.354
299.353
299.349
299.346
299.342
299.341
299.339
299.337
299.338
299.34
299.344
299.341
299.347
299.341
299.337
299.335
299.341
299.342
299.348
299.349
299.346
299.341
299.338
299.334
299.332
299.33
299.324
299.326
299.323
299.334
299.331
299.329
299.329
299.307
299.306
299.311
299.313
299.318
299.319
299.313
299.318
299.324
299.326
299.329
299.331
299.333
299.334
299.335
299.337
299.34
299.343
299.339
299.337
299.336
299.335
299.334
299.332
299.329
299.325
299.32
299.317
299.312
299.315
299.322
299.311
299.31
299.309
299.304
299.304
299.306
299.307
299.305
299.301
299.3
299.299
299.3
299.292
299.29
299.288
299.306
299.309
299.335
299.36
299.378
299.393
299.408
299.422
299.423
299.411
299.415
299.423
299.422
299.416
299.412
299.406
299.399
299.386
299.396
299.408
299.417
299.416
299.416
299.416
299.406
299.409
299.395
299.388
299.365
299.373
299.384
299.405
299.415
299.425
299.42
299.398
299.356
299.349
299.342
299.335
299.301
299.303
299.259
299.264
299.224
299.214
299.201
299.252
299.303
299.302
299.243
299.184
299.129
299.152
299.169
299.182
299.141
299.124
299.08
299.099
299.059
299.038
299.014
299.058
299.104
299.078
299.031
298.986
298.954
298.998
299.047
299.101
299.162
299.229
299.3
299.369
299.423
299.446
299.441
299.418
299.401
299.384
299.37
299.347
299.365
299.389
299.368
299.351
299.338
299.327
299.319
299.311
299.293
299.29
299.276
299.273
299.275
299.274
299.278
299.281
299.288
299.291
299.292
299.3
299.288
299.278
299.274
299.27
299.269
299.268
299.269
299.269
299.274
299.278
299.278
299.271
299.27
299.275
299.284
299.3
299.309
299.293
299.285
299.277
299.283
299.287
299.298
299.307
299.322
299.336
299.356
299.379
299.387
299.408
299.42
299.462
299.491
299.467
299.541
299.546
299.517
299.488
299.452
299.433
299.432
299.405
299.392
299.379
299.366
299.353
299.339
299.328
299.323
299.313
299.301
299.296
299.316
299.322
299.335
299.35
299.363
299.375
299.372
299.361
299.349
299.386
299.389
299.404
299.407
299.422
299.44
299.437
299.42
299.417
299.401
299.434
299.456
299.456