/*--------------------------------*- C++ -*----------------------------------*\
| =========                 |                                                 |
| \\      /  F ield         | OpenFOAM: The Open Source CFD Toolbox           |
|  \\    /   O peration     | Version:  v2006                                 |
|   \\  /    A nd           | Website:  www.openfoam.com                      |
|    \\/     M anipulation  |                                                 |
\*---------------------------------------------------------------------------*/
FoamFile
{
    version     2.0;
    format      ascii;
    class       volScalarField;
    location    "0.024";
    object      rho;
}
// * * * * * * * * * * * * * * * * * * * * * * * * * * * * * * * * * * * * * //

dimensions      [1 -3 0 0 0 0 0];


internalField   nonuniform List<scalar> 
11076
(
1.71099
1.71099
1.71099
1.71099
1.71099
1.71099
1.71099
1.71099
1.71098
1.71101
1.71107
1.71115
1.71124
1.71133
1.71144
1.71154
1.71165
1.71177
1.71188
1.71201
1.71213
1.71226
1.7124
1.71254
1.71268
1.71283
1.71298
1.71313
1.71328
1.71344
1.7136
1.71376
1.71392
1.71408
1.71424
1.71441
1.71457
1.71473
1.71489
1.71505
1.71521
1.71537
1.71552
1.71568
1.71582
1.71597
1.71611
1.71625
1.71638
1.71651
1.71664
1.71676
1.71688
1.71699
1.7171
1.7172
1.71729
1.71737
1.71742
1.71746
1.71747
1.71748
1.71746
1.71746
1.71743
1.71747
1.71753
1.71761
1.71784
1.71823
1.71845
1.71832
1.71795
1.71832
1.71835
1.7183
1.71819
1.71771
1.71747
1.71803
1.71819
1.71806
1.71787
1.71726
1.71709
1.71771
1.71792
1.7178
1.71757
1.71696
1.71685
1.71746
1.7177
1.71761
1.71737
1.71676
1.7167
1.71728
1.71754
1.71747
1.71721
1.71664
1.7166
1.71715
1.71741
1.71736
1.71711
1.71657
1.71656
1.71707
1.71732
1.71729
1.71704
1.71655
1.71654
1.71701
1.71727
1.71725
1.717
1.71655
1.71656
1.71699
1.71724
1.71724
1.71699
1.71657
1.71659
1.717
1.71724
1.71725
1.71701
1.71662
1.71665
1.71702
1.71725
1.71727
1.71705
1.71669
1.71673
1.71707
1.71729
1.71732
1.71711
1.71677
1.71682
1.71714
1.71735
1.71739
1.71718
1.71687
1.71693
1.71722
1.71743
1.71748
1.71728
1.71699
1.71705
1.71733
1.71753
1.71758
1.71739
1.71712
1.71719
1.71745
1.71764
1.7177
1.71752
1.71727
1.71735
1.71758
1.71776
1.71784
1.71766
1.71744
1.71752
1.71773
1.71791
1.71799
1.71782
1.71761
1.7177
1.7179
1.71806
1.71815
1.718
1.7178
1.7179
1.71808
1.71824
1.71834
1.71819
1.71801
1.71811
1.71828
1.71843
1.71854
1.71839
1.71823
1.71833
1.71849
1.71864
1.71875
1.71862
1.71846
1.71858
1.71872
1.71886
1.71899
1.71886
1.71872
1.71884
1.71897
1.7191
1.71924
1.71911
1.71899
1.71912
1.71924
1.71936
1.7195
1.71939
1.71928
1.71942
1.71952
1.71963
1.71979
1.71968
1.71959
1.71973
1.71982
1.71992
1.72009
1.71999
1.71991
1.72006
1.72014
1.72024
1.72042
1.72033
1.72025
1.72042
1.72048
1.72057
1.72076
1.72068
1.72062
1.72079
1.72084
1.72092
1.72112
1.72105
1.721
1.72118
1.72122
1.7213
1.72151
1.72144
1.7214
1.7216
1.72163
1.7217
1.72191
1.72186
1.72184
1.72204
1.72205
1.72211
1.72234
1.72229
1.72228
1.72249
1.7225
1.72256
1.7228
1.72276
1.72275
1.72299
1.72298
1.72302
1.72327
1.72324
1.72326
1.72349
1.72347
1.7235
1.72377
1.72374
1.72376
1.724
1.72398
1.72402
1.7243
1.72428
1.7243
1.72459
1.72454
1.72455
1.72483
1.72483
1.7249
1.72517
1.72509
1.72508
1.72539
1.72539
1.72545
1.7257
1.72566
1.72568
1.72599
1.72598
1.72603
1.72636
1.72628
1.72626
1.72656
1.72661
1.72671
1.72701
1.72689
1.72684
1.72717
1.7272
1.72729
1.72755
1.72748
1.72747
1.72781
1.72781
1.72786
1.72824
1.72813
1.72809
1.72837
1.72847
1.72865
1.729
1.72877
1.72863
1.72897
1.72908
1.72923
1.72936
1.72934
1.72935
1.7297
1.72964
1.72964
1.73007
1.72995
1.72992
1.73018
1.73029
1.73048
1.73085
1.73058
1.7304
1.73064
1.73082
1.73109
1.73115
1.73106
1.73099
1.73124
1.73126
1.73136
1.73173
1.73152
1.73139
1.73171
1.73183
1.73202
1.73229
1.73209
1.73196
1.73211
1.73229
1.73253
1.73255
1.73241
1.73232
1.73253
1.73253
1.73256
1.73281
1.73263
1.73255
1.73273
1.7329
1.73319
1.73328
1.73306
1.73292
1.73308
1.73322
1.73342
1.73351
1.73335
1.73322
1.73322
1.73332
1.73344
1.7335
1.73337
1.73328
1.73335
1.73347
1.73363
1.73369
1.73358
1.7335
1.73356
1.7337
1.73392
1.73396
1.73381
1.73368
1.73372
1.73387
1.73406
1.73386
1.7337
1.73354
1.73366
1.73376
1.73386
1.73385
1.7337
1.73357
1.73365
1.73379
1.73398
1.73404
1.73396
1.73389
1.73398
1.734
1.73395
1.73424
1.73404
1.73387
1.73373
1.73394
1.73422
1.73391
1.73384
1.73374
1.7339
1.73389
1.73381
1.73371
1.73379
1.7338
1.73389
1.73392
1.73392
1.73405
1.7339
1.73379
1.73388
1.73401
1.73419
1.7341
1.73394
1.73381
1.73388
1.73394
1.73395
1.7338
1.73386
1.73382
1.73367
1.7337
1.73372
1.73373
1.73377
1.73377
1.73365
1.73369
1.73371
1.73388
1.73378
1.73373
1.73371
1.7338
1.73396
1.73393
1.7339
1.73385
1.73378
1.73386
1.73388
1.73373
1.73381
1.73379
1.7337
1.73368
1.73358
1.73354
1.73354
1.73351
1.73351
1.73354
1.73358
1.73369
1.73357
1.73353
1.73368
1.73371
1.73374
1.73384
1.73373
1.73363
1.73351
1.73371
1.73402
1.73423
1.73366
1.73328
1.73314
1.73356
1.73411
1.73361
1.73353
1.7335
1.73352
1.73352
1.73353
1.73351
1.73353
1.73352
1.73354
1.73354
1.73356
1.73358
1.73361
1.73363
1.73365
1.73367
1.73368
1.73369
1.7337
1.73369
1.73368
1.73369
1.73359
1.73353
1.73376
1.73382
1.73388
1.73368
1.7335
1.73356
1.73374
1.73337
1.73336
1.73372
1.73352
1.73359
1.73365
1.7335
1.73344
1.73366
1.73362
1.73361
1.73359
1.73354
1.73361
1.73361
1.73363
1.7336
1.73354
1.73362
1.73353
1.7336
1.73361
1.73361
1.73354
1.73357
1.7337
1.73345
1.73361
1.73358
1.73348
1.73368
1.73378
1.73354
1.73361
1.73362
1.73359
1.73385
1.73396
1.73358
1.73367
1.73368
1.73361
1.7338
1.73387
1.73364
1.7338
1.7338
1.73377
1.73366
1.73357
1.73383
1.73381
1.73379
1.73396
1.73325
1.73354
1.73382
1.73377
1.73376
1.73385
1.7336
1.73366
1.73385
1.73373
1.73373
1.73365
1.73389
1.734
1.73364
1.7338
1.73381
1.73375
1.73383
1.73386
1.73376
1.73383
1.73384
1.73387
1.73371
1.73372
1.73391
1.73388
1.7339
1.73387
1.73371
1.73383
1.73381
1.73391
1.73389
1.7339
1.73374
1.73367
1.734
1.7339
1.7339
1.73394
1.73372
1.73374
1.73396
1.73389
1.7339
1.73384
1.73394
1.73401
1.73381
1.73394
1.73391
1.73387
1.73377
1.73379
1.73387
1.73392
1.73393
1.73398
1.73378
1.73374
1.73403
1.73394
1.73393
1.73396
1.73377
1.73378
1.73396
1.73391
1.73392
1.73384
1.73402
1.7342
1.73368
1.73399
1.73398
1.73381
1.73392
1.73391
1.73385
1.734
1.73399
1.73389
1.73386
1.73377
1.73401
1.73397
1.73399
1.73391
1.73389
1.73385
1.73397
1.73402
1.73399
1.7339
1.73383
1.73389
1.7339
1.734
1.73398
1.73388
1.73384
1.73381
1.73391
1.734
1.73397
1.73387
1.73379
1.73373
1.73388
1.73395
1.73393
1.73386
1.73372
1.73371
1.73383
1.73391
1.73394
1.73384
1.73371
1.73371
1.73394
1.73403
1.73418
1.73407
1.73386
1.73401
1.73423
1.73433
1.7345
1.7344
1.73416
1.73434
1.7346
1.73468
1.73481
1.73472
1.7344
1.73457
1.73493
1.735
1.73524
1.73513
1.73489
1.7351
1.73533
1.73542
1.73559
1.7355
1.73522
1.73547
1.73573
1.73581
1.73604
1.73597
1.73571
1.73592
1.73618
1.73623
1.73644
1.7364
1.73615
1.73638
1.73662
1.73661
1.73687
1.73676
1.73658
1.73719
1.73734
1.73739
1.73764
1.73768
1.73751
1.73774
1.73789
1.73786
1.7381
1.73814
1.73796
1.73834
1.73854
1.73845
1.73882
1.73894
1.73864
1.73905
1.73939
1.7392
1.73962
1.73987
1.73943
1.73987
1.74041
1.74008
1.74056
1.74097
1.74032
1.74074
1.74141
1.74092
1.74143
1.74212
1.74116
1.74167
1.74277
1.74179
1.74245
1.74325
1.74225
1.7428
1.74362
1.74311
1.74349
1.74399
1.74327
1.7437
1.74456
1.74421
1.7444
1.74501
1.74414
1.74465
1.74558
1.7449
1.74515
1.74605
1.74527
1.74593
1.74631
1.74537
1.74544
1.74643
1.74664
1.74728
1.7466
1.74556
1.74568
1.74674
1.74789
1.74821
1.74651
1.74551
1.74479
1.74591
1.74803
1.74774
1.74538
1.74459
1.74371
1.74446
1.74708
1.74576
1.74316
1.74261
1.74201
1.74207
1.74379
1.74146
1.74014
1.74008
1.73834
1.73809
1.73823
1.7351
1.73618
1.73608
1.7336
1.73374
1.73144
1.72797
1.73175
1.73164
1.72965
1.72981
1.7241
1.71979
1.72749
1.72728
1.72566
1.72589
1.71455
1.70865
1.72381
1.72365
1.72248
1.72174
1.70254
1.6981
1.71899
1.71966
1.71739
1.71534
1.69296
1.68919
1.71182
1.71451
1.71103
1.70827
1.68655
1.6857
1.70522
1.70869
1.70569
1.70231
1.68485
1.68557
1.70051
1.70406
1.70314
1.69903
1.68628
1.68725
1.69723
1.70115
1.70101
1.69706
1.6884
1.68944
1.69651
1.70088
1.69982
1.69595
1.69056
1.69147
1.6971
1.70089
1.7012
1.69769
1.69252
1.69308
1.69869
1.70208
1.70231
1.69881
1.69365
1.69425
1.69843
1.70168
1.70136
1.69802
1.69508
1.69605
1.69921
1.70263
1.70296
1.69975
1.69663
1.69726
1.69975
1.70253
1.70384
1.701
1.69809
1.69862
1.70139
1.70394
1.70354
1.70116
1.69904
1.69977
1.70134
1.70337
1.70478
1.70264
1.70062
1.7009
1.70258
1.70464
1.70318
1.70136
1.70076
1.7032
1.70293
1.70475
1.70494
1.70355
1.70298
1.70356
1.70332
1.70382
1.70501
1.7006
1.70553
1.70519
1.70708
1.70739
1.70661
1.7065
1.70466
1.70545
1.70611
1.70585
1.70746
1.70735
1.70756
1.70699
1.70689
1.70739
1.70724
1.70619
1.70771
1.70654
1.70646
1.70724
1.70891
1.70818
1.70819
1.7066
1.70907
1.70866
1.7077
1.70731
1.70888
1.70953
1.70944
1.70902
1.70873
1.70835
1.70867
1.70881
1.70787
1.70787
1.70982
1.71012
1.71032
1.70885
1.70915
1.70969
1.70865
1.70838
1.7088
1.71014
1.71039
1.71055
1.71047
1.71003
1.70932
1.70862
1.70944
1.70988
1.71015
1.70427
1.71341
1.71014
1.71089
1.71126
1.7108
1.71082
1.70971
1.71123
1.70966
1.70892
1.71033
1.71011
1.71169
1.7103
1.70926
1.71019
1.7085
1.70769
1.71415
1.71282
1.71045
1.71028
1.7102
1.70858
1.71209
1.71265
1.70825
1.70859
1.71043
1.71077
1.7112
1.71166
1.70938
1.70974
1.71023
1.70588
1.71122
1.70952
1.71129
1.71095
1.71121
1.71091
1.70681
1.70606
1.71161
1.70931
1.71172
1.71006
1.70951
1.714
1.70917
1.70966
1.7105
1.70927
1.71299
1.71234
1.70871
1.70937
1.70859
1.70935
1.71146
1.71122
1.71067
1.71012
1.70993
1.70972
1.70993
1.70886
1.70928
1.70925
1.71003
1.70974
1.70961
1.70921
1.7088
1.70938
1.70896
1.70863
1.7085
1.70976
1.70934
1.71002
1.70931
1.70887
1.70871
1.70711
1.7082
1.70858
1.70863
1.70919
1.70852
1.7052
1.70941
1.70911
1.70898
1.71024
1.70781
1.70727
1.70896
1.70857
1.70802
1.70772
1.70624
1.70782
1.70804
1.70856
1.70777
1.70737
1.70738
1.70666
1.70686
1.7072
1.70746
1.70765
1.70776
1.70558
1.70759
1.70779
1.70716
1.70805
1.70669
1.70628
1.70674
1.70675
1.70621
1.70588
1.70564
1.70659
1.70662
1.70685
1.70623
1.70613
1.70619
1.70587
1.70562
1.70564
1.70584
1.70582
1.70577
1.7044
1.70506
1.70551
1.70532
1.70567
1.70514
1.70443
1.70459
1.7047
1.70393
1.7038
1.70363
1.70482
1.70488
1.7048
1.7042
1.70402
1.70373
1.70378
1.70423
1.70415
1.70352
1.70318
1.70292
1.70195
1.70216
1.70242
1.70335
1.70324
1.70286
1.70219
1.70237
1.70273
1.702
1.7019
1.70123
1.70203
1.7023
1.70248
1.70179
1.70154
1.7002
1.70101
1.70197
1.70178
1.7011
1.70081
1.70014
1.69918
1.69974
1.70012
1.7008
1.70065
1.70014
1.69922
1.69997
1.70025
1.70026
1.70045
1.6997
1.69873
1.69917
1.69954
1.69835
1.69805
1.69763
1.69852
1.69896
1.69907
1.69819
1.6979
1.69731
1.69791
1.69861
1.69854
1.69797
1.69757
1.69715
1.69594
1.69627
1.6966
1.69742
1.69738
1.69685
1.69543
1.69599
1.69638
1.69665
1.6967
1.69601
1.69489
1.69547
1.69594
1.69444
1.69407
1.69356
1.69479
1.69546
1.69551
1.6946
1.69426
1.69377
1.69411
1.69489
1.69484
1.69399
1.69348
1.69279
1.69167
1.69216
1.69252
1.69338
1.69332
1.6926
1.69126
1.6919
1.69234
1.6927
1.69273
1.69192
1.69082
1.69149
1.69197
1.69046
1.69011
1.68969
1.69037
1.69117
1.69127
1.69013
1.68967
1.68902
1.68968
1.69052
1.69049
1.68964
1.68909
1.68832
1.68707
1.68761
1.688
1.68888
1.68878
1.68792
1.68673
1.68737
1.6878
1.6881
1.6881
1.68715
1.68596
1.68671
1.68727
1.68551
1.68508
1.68453
1.68539
1.68632
1.68646
1.68534
1.68484
1.68416
1.6847
1.68567
1.68567
1.68477
1.68416
1.68326
1.68195
1.68255
1.68301
1.68403
1.68394
1.68302
1.68153
1.68233
1.68282
1.68303
1.683
1.68192
1.68064
1.68153
1.68213
1.6802
1.67971
1.67908
1.68022
1.68117
1.68129
1.67997
1.67941
1.67857
1.67926
1.68031
1.6803
1.67935
1.67873
1.67776
1.67591
1.67665
1.67722
1.67839
1.67828
1.67732
1.67564
1.67649
1.67707
1.67738
1.67743
1.67635
1.67472
1.67569
1.67632
1.67422
1.67379
1.67311
1.6741
1.67518
1.67532
1.67396
1.67341
1.67252
1.67276
1.67401
1.67413
1.67309
1.67231
1.67119
1.6696
1.67035
1.67097
1.67215
1.67196
1.67076
1.66931
1.67021
1.67083
1.67113
1.67115
1.6699
1.66822
1.66928
1.66996
1.66752
1.66699
1.66621
1.66716
1.6684
1.66859
1.667
1.66635
1.66522
1.66602
1.66734
1.6674
1.6664
1.66562
1.66445
1.66256
1.66335
1.66399
1.66522
1.66506
1.66383
1.66199
1.66304
1.66368
1.6638
1.66378
1.66246
1.66066
1.66189
1.66256
1.6595
1.65863
1.65761
1.65925
1.66059
1.66086
1.65941
1.65871
1.65766
1.6585
1.65991
1.65995
1.65877
1.65795
1.65662
1.65454
1.65542
1.6561
1.65734
1.6572
1.65586
1.65378
1.65501
1.65563
1.65538
1.65521
1.65373
1.65109
1.65288
1.65389
1.65118
1.65014
1.64899
1.65123
1.65262
1.65276
1.65196
1.65099
1.64964
1.64698
1.64787
1.64882
1.65017
1.64992
1.64842
1.6462
1.64752
1.64831
1.6481
1.64795
1.64637
1.64353
1.64539
1.64641
1.64293
1.64174
1.64046
1.64255
1.6442
1.64457
1.6429
1.64205
1.64078
1.64161
1.64336
1.64344
1.64196
1.64105
1.63944
1.63693
1.63802
1.6389
1.63982
1.63974
1.63832
1.63584
1.63746
1.63846
1.63414
1.63279
1.6315
1.63311
1.63489
1.63544
1.63363
1.63256
1.63111
1.63255
1.63435
1.63446
1.63326
1.6321
1.63044
1.62745
1.62866
1.62967
1.63069
1.63055
1.62892
1.62651
1.62804
1.6292
1.62463
1.62367
1.62228
1.62199
1.62483
1.62541
1.62301
1.62178
1.61955
1.62187
1.62408
1.62428
1.62325
1.62208
1.62015
1.6169
1.61796
1.61945
1.62045
1.6202
1.61831
1.616
1.61771
1.61895
1.61409
1.61298
1.6119
1.60952
1.61254
1.61384
1.6113
1.60964
1.60753
1.60997
1.61245
1.61272
1.61179
1.61049
1.60813
1.605
1.60641
1.60772
1.6088
1.60851
1.60632
1.60332
1.6056
1.60654
1.60193
1.60057
1.59914
1.5963
1.59956
1.60108
1.59964
1.59781
1.59441
1.5925
1.59437
1.59617
1.59819
1.59787
1.59537
1.59285
1.59517
1.59683
1.59154
1.59009
1.58846
1.58917
1.59137
1.59206
1.58952
1.58767
1.58425
1.57655
1.5795
1.58252
1.58489
1.58403
1.58115
1.57914
1.58221
1.58404
1.57947
1.57778
1.57595
1.57763
1.58024
1.58077
1.57876
1.57675
1.57383
1.56823
1.56994
1.57178
1.56984
1.56737
1.56289
1.56068
1.56538
1.56784
1.56387
1.5615
1.55903
1.56239
1.56573
1.56633
1.56505
1.56289
1.55964
1.55445
1.55653
1.55843
1.55747
1.5565
1.55384
1.54258
1.54901
1.55248
1.54626
1.54295
1.53921
1.54516
1.54878
1.54954
1.54907
1.54697
1.54315
1.53839
1.54061
1.54276
1.54162
1.54091
1.53797
1.52752
1.53351
1.53634
1.53033
1.52651
1.51987
1.51916
1.52285
1.5258
1.52876
1.52804
1.52417
1.52103
1.52555
1.52798
1.52148
1.51934
1.51562
1.49656
1.50258
1.50794
1.51056
1.50786
1.50249
1.50187
1.50755
1.51014
1.5073
1.50443
1.49933
1.493
1.4959
1.49933
1.49408
1.4892
1.48085
1.47699
1.48574
1.4906
1.48789
1.48392
1.47663
1.47397
1.47849
1.48221
1.48103
1.47835
1.47179
1.45552
1.46869
1.47464
1.47037
1.46551
1.45525
1.45735
1.46501
1.46831
1.46359
1.45806
1.44786
1.4313
1.44087
1.44912
1.45675
1.45336
1.44569
1.44423
1.45363
1.45889
1.45397
1.44584
1.43061
1.43457
1.44677
1.45236
1.45133
1.44372
1.42826
1.43083
1.44553
1.45183
1.45829
1.45163
1.43725
1.44787
1.46152
1.46824
1.47852
1.47187
1.4599
1.4668
1.47834
1.48575
1.49121
1.48346
1.47286
1.47682
1.48689
1.4953
1.49895
1.49055
1.48137
1.48466
1.49309
1.5019
1.50457
1.496
1.48828
1.49108
1.498
1.50676
1.50878
1.50039
1.49403
1.49649
1.50212
1.51048
1.51211
1.50415
1.499
1.50119
1.50573
1.5135
1.51482
1.50748
1.50333
1.50528
1.50895
1.51597
1.51708
1.51047
1.50711
1.50885
1.51183
1.5181
1.51903
1.51316
1.51043
1.512
1.51444
1.51996
1.52078
1.51563
1.51339
1.51481
1.51684
1.5217
1.52241
1.51789
1.51604
1.51736
1.51903
1.52331
1.52396
1.51999
1.51848
1.51969
1.52107
1.52485
1.52545
1.52194
1.5207
1.52182
1.52296
1.52635
1.52691
1.52379
1.52274
1.52378
1.52475
1.52781
1.52834
1.52553
1.52462
1.52558
1.52643
1.52921
1.52978
1.52716
1.52635
1.52725
1.52803
1.53061
1.53116
1.52871
1.52795
1.52879
1.52952
1.53194
1.53249
1.53017
1.52943
1.53023
1.53095
1.53323
1.53375
1.53156
1.53083
1.53156
1.53229
1.53444
1.53495
1.53287
1.53213
1.53282
1.53357
1.53561
1.53609
1.53411
1.53335
1.534
1.53477
1.5367
1.53716
1.53527
1.5345
1.53512
1.53591
1.53776
1.53817
1.53639
1.53559
1.53617
1.53698
1.53874
1.5391
1.53743
1.53662
1.53717
1.538
1.53968
1.54
1.53843
1.5376
1.53811
1.53895
1.54055
1.54084
1.53935
1.53852
1.53901
1.53987
1.54138
1.54165
1.54025
1.5394
1.53986
1.54071
1.54215
1.54241
1.54107
1.54023
1.54067
1.54153
1.54288
1.54312
1.54187
1.54103
1.54144
1.54228
1.54356
1.54379
1.5426
1.54177
1.54217
1.543
1.5442
1.54441
1.5433
1.54249
1.54286
1.54367
1.5448
1.545
1.54395
1.54316
1.54352
1.54431
1.54537
1.54555
1.54457
1.5438
1.54414
1.54491
1.54591
1.54608
1.54515
1.54441
1.54473
1.54547
1.54641
1.54656
1.5457
1.54498
1.54528
1.546
1.54688
1.54703
1.54621
1.54552
1.54581
1.5465
1.54733
1.54745
1.54669
1.54603
1.5463
1.54696
1.54774
1.54786
1.54714
1.54651
1.54677
1.5474
1.54814
1.54824
1.54757
1.54696
1.5472
1.5478
1.54851
1.54861
1.54796
1.54738
1.54762
1.54819
1.54886
1.54895
1.54834
1.54778
1.548
1.54855
1.54918
1.54927
1.54868
1.54815
1.54836
1.54889
1.54949
1.54956
1.54901
1.5485
1.5487
1.5492
1.54978
1.54985
1.54931
1.54882
1.54902
1.5495
1.55005
1.55011
1.54961
1.54913
1.54931
1.54978
1.55031
1.55037
1.54987
1.54942
1.54959
1.55004
1.55055
1.5506
1.55013
1.54969
1.54986
1.55029
1.55078
1.55083
1.55037
1.54994
1.55011
1.55052
1.551
1.55104
1.5506
1.55019
1.55034
1.55074
1.5512
1.55124
1.55081
1.55041
1.55056
1.55095
1.55139
1.55143
1.55102
1.55062
1.55076
1.55114
1.55158
1.55161
1.5512
1.55082
1.55096
1.55133
1.55175
1.55178
1.55139
1.55101
1.55114
1.5515
1.55192
1.55194
1.55155
1.55119
1.55131
1.55167
1.55207
1.55209
1.55172
1.55136
1.55148
1.55182
1.55222
1.55223
1.55187
1.55152
1.55163
1.55197
1.55235
1.55237
1.55201
1.55167
1.55178
1.55211
1.55249
1.5525
1.55214
1.55181
1.55192
1.55224
1.55261
1.55262
1.55227
1.55195
1.55204
1.55236
1.55273
1.55273
1.55239
1.55207
1.55217
1.55248
1.55283
1.55284
1.55251
1.55219
1.55228
1.55259
1.55294
1.55294
1.55261
1.5523
1.55239
1.5527
1.55304
1.55304
1.55272
1.55241
1.5525
1.55279
1.55313
1.55313
1.55281
1.55251
1.5526
1.55289
1.55322
1.55322
1.5529
1.55261
1.55269
1.55297
1.5533
1.5533
1.55299
1.55269
1.55278
1.55306
1.55338
1.55338
1.55307
1.55278
1.55286
1.55314
1.55346
1.55345
1.55314
1.55286
1.55294
1.55321
1.55352
1.55352
1.55322
1.55294
1.55301
1.55328
1.55359
1.55358
1.55328
1.553
1.55308
1.55335
1.55365
1.55364
1.55335
1.55307
1.55314
1.55341
1.55371
1.5537
1.55341
1.55314
1.55321
1.55347
1.55377
1.55375
1.55347
1.5532
1.55326
1.55352
1.55382
1.55381
1.55352
1.55325
1.55332
1.55358
1.55387
1.55385
1.55357
1.55331
1.55337
1.55362
1.55392
1.5539
1.55362
1.55336
1.55342
1.55367
1.55396
1.55394
1.55367
1.55341
1.55347
1.55371
1.554
1.55398
1.55371
1.55345
1.55351
1.55376
1.55404
1.55402
1.55375
1.5535
1.55355
1.55379
1.55408
1.55406
1.55379
1.55353
1.55359
1.55383
1.55411
1.55409
1.55382
1.55357
1.55362
1.55386
1.55414
1.55412
1.55385
1.5536
1.55366
1.55389
1.55417
1.55415
1.55388
1.55364
1.55368
1.55392
1.55419
1.55417
1.5539
1.55366
1.55371
1.55394
1.55421
1.55419
1.55393
1.55369
1.55373
1.55396
1.55423
1.5542
1.55394
1.5537
1.55375
1.55398
1.55424
1.55422
1.55396
1.55372
1.55376
1.55399
1.55426
1.55423
1.55397
1.55373
1.55378
1.554
1.55426
1.55423
1.55398
1.55374
1.55378
1.55401
1.55427
1.55424
1.55398
1.55375
1.55379
1.55401
1.55427
1.55424
1.55399
1.55375
1.55379
1.55401
1.55427
1.55423
1.55398
1.55375
1.55379
1.55401
1.55426
1.55423
1.55398
1.55375
1.55378
1.554
1.55426
1.55422
1.55397
1.55374
1.55377
1.55399
1.55425
1.55421
1.55396
1.55373
1.55376
1.55398
1.55423
1.55418
1.55394
1.55371
1.55374
1.55395
1.55422
1.55416
1.55391
1.55368
1.55369
1.55391
1.55418
1.55411
1.55386
1.55363
1.55365
1.55388
1.55414
1.55408
1.55381
1.55356
1.55359
1.55385
1.55416
1.55415
1.55384
1.55358
1.55406
1.55435
1.55479
1.55555
1.55518
1.55495
1.5562
1.55617
1.55633
1.55632
1.5562
1.55645
1.557
1.56016
1.56152
1.56339
1.56583
1.56606
1.56613
1.5675
1.56852
1.56917
1.56961
1.57003
1.57038
1.57066
1.57089
1.57106
1.57119
1.57128
1.57135
1.5714
1.57143
1.57145
1.57147
1.57148
1.57148
1.57148
1.57148
1.57147
1.57147
1.57146
1.57146
1.57148
1.57152
1.57157
1.57162
1.57168
1.57175
1.57183
1.57193
1.57204
1.57219
1.57235
1.57255
1.57276
1.573
1.57324
1.57345
1.57361
1.57368
1.57373
1.57378
1.57386
1.57397
1.57409
1.57423
1.57437
1.57453
1.5747
1.57488
1.57509
1.57532
1.57559
1.57589
1.57624
1.57664
1.57709
1.57761
1.57821
1.57887
1.57963
1.58047
1.58142
1.58248
1.58365
1.58495
1.58637
1.58793
1.58963
1.59146
1.59343
1.59554
1.59778
1.60014
1.60262
1.60521
1.60789
1.61065
1.61347
1.61635
1.61926
1.6222
1.62515
1.6281
1.63103
1.63393
1.6368
1.63963
1.6424
1.64512
1.64777
1.65035
1.65287
1.65531
1.65767
1.65996
1.66218
1.66431
1.66637
1.66836
1.67027
1.6721
1.67387
1.67556
1.67719
1.67876
1.68025
1.68169
1.68307
1.68439
1.68565
1.68687
1.68803
1.68914
1.6902
1.69122
1.69219
1.69312
1.69402
1.69487
1.69568
1.69646
1.69721
1.69792
1.6986
1.69926
1.69988
1.70047
1.70104
1.70159
1.7021
1.7026
1.70307
1.70353
1.70396
1.70437
1.70476
1.70514
1.70549
1.70584
1.70616
1.70647
1.70677
1.70705
1.70731
1.70757
1.70781
1.70803
1.70825
1.70845
1.70864
1.70883
1.709
1.70916
1.7093
1.70944
1.70957
1.70969
1.7098
1.70989
1.70998
1.71007
1.71015
1.71025
1.71035
1.71047
1.71063
1.71083
1.71094
1.71094
1.71094
1.71094
1.71094
1.71094
1.711
1.7112
1.71136
1.71143
1.7115
1.71157
1.71165
1.71174
1.71183
1.71192
1.71202
1.71213
1.71224
1.71236
1.71249
1.71262
1.71275
1.71289
1.71303
1.71317
1.71332
1.71347
1.71363
1.71378
1.71394
1.7141
1.71426
1.71441
1.71457
1.71473
1.71489
1.71504
1.7152
1.71535
1.7155
1.71565
1.71579
1.71593
1.71606
1.71619
1.71632
1.71644
1.71655
1.71666
1.71676
1.71686
1.71695
1.71704
1.71713
1.71721
1.7173
1.71736
1.71738
1.71738
1.71746
1.7177
1.71791
1.71799
1.71802
1.71793
1.71785
1.71777
1.71771
1.71765
1.71761
1.71757
1.71754
1.71751
1.71749
1.71748
1.71747
1.71747
1.71748
1.71748
1.7175
1.71751
1.71754
1.71756
1.71759
1.71763
1.71767
1.71771
1.71776
1.71781
1.71787
1.71793
1.71799
1.71806
1.71813
1.71821
1.71828
1.71837
1.71845
1.71854
1.71864
1.71874
1.71884
1.71895
1.71906
1.71917
1.71929
1.71942
1.71954
1.71968
1.71981
1.71996
1.7201
1.72025
1.72041
1.72057
1.72073
1.72091
1.72108
1.72126
1.72144
1.72164
1.72183
1.72204
1.72224
1.72246
1.72267
1.7229
1.72313
1.72337
1.72361
1.72385
1.72409
1.72436
1.72463
1.72491
1.72517
1.72544
1.72571
1.726
1.7263
1.72662
1.72691
1.72719
1.72746
1.72777
1.72808
1.72843
1.72873
1.72901
1.72925
1.72953
1.72983
1.73017
1.73046
1.73071
1.73092
1.73112
1.73135
1.73163
1.73186
1.73208
1.73221
1.73233
1.73245
1.73267
1.73281
1.73294
1.73305
1.73308
1.73314
1.73322
1.73331
1.73338
1.73346
1.73353
1.73347
1.73354
1.73352
1.73355
1.73363
1.73366
1.73372
1.73372
1.73366
1.73368
1.73361
1.73369
1.73369
1.73377
1.73371
1.73375
1.73373
1.73366
1.7337
1.73361
1.73365
1.7336
1.73367
1.73365
1.73368
1.73362
1.73354
1.73352
1.7335
1.73356
1.73359
1.73364
1.73367
1.73358
1.73358
1.73356
1.73354
1.73356
1.73356
1.73348
1.73353
1.73354
1.7335
1.73347
1.73348
1.73348
1.7335
1.73347
1.73345
1.73356
1.73357
1.73356
1.73359
1.73359
1.73362
1.73362
1.7336
1.73358
1.73358
1.73354
1.73358
1.7336
1.73358
1.73356
1.73359
1.73361
1.7336
1.7336
1.73356
1.73363
1.73365
1.73365
1.73363
1.73362
1.73364
1.73365
1.73366
1.73361
1.73364
1.73357
1.73361
1.73364
1.73365
1.73358
1.7336
1.73362
1.73361
1.73359
1.73357
1.73363
1.73363
1.73359
1.7336
1.73357
1.73355
1.73359
1.73359
1.73352
1.73357
1.73351
1.73354
1.73359
1.73357
1.73354
1.73355
1.73354
1.73349
1.73348
1.73351
1.73351
1.73349
1.73348
1.73344
1.73341
1.73341
1.7334
1.7334
1.73337
1.73344
1.73337
1.73337
1.73337
1.73331
1.7333
1.73327
1.73325
1.73317
1.7332
1.73334
1.73326
1.73317
1.7331
1.73304
1.73307
1.73302
1.73297
1.73288
1.7329
1.73309
1.73292
1.73282
1.73276
1.73262
1.73269
1.7326
1.73247
1.73233
1.73244
1.73273
1.73244
1.73232
1.7322
1.73206
1.73212
1.73195
1.73183
1.73163
1.73173
1.73205
1.73166
1.73156
1.73137
1.73117
1.7313
1.73113
1.73096
1.73074
1.73084
1.73122
1.73069
1.73062
1.73047
1.7302
1.73031
1.73008
1.72988
1.7296
1.72975
1.73015
1.7296
1.72953
1.72933
1.72907
1.7292
1.72896
1.72878
1.72848
1.72861
1.72901
1.72841
1.72836
1.72815
1.72785
1.728
1.72778
1.72755
1.72728
1.72742
1.72783
1.72725
1.7272
1.72699
1.7267
1.72684
1.7266
1.72639
1.7261
1.72625
1.72666
1.7261
1.72603
1.72582
1.72555
1.72569
1.72549
1.72529
1.72502
1.72515
1.72555
1.72502
1.72495
1.72475
1.72448
1.72462
1.72443
1.72423
1.72398
1.72412
1.7245
1.72402
1.72394
1.72374
1.7235
1.72364
1.72346
1.72327
1.72303
1.72317
1.72354
1.72309
1.72301
1.72281
1.72259
1.72273
1.72258
1.72239
1.72218
1.72232
1.72267
1.72226
1.72217
1.72198
1.72178
1.72192
1.72178
1.7216
1.72141
1.72154
1.72188
1.72151
1.72142
1.72123
1.72105
1.72119
1.72107
1.72089
1.72072
1.72086
1.72117
1.72085
1.72074
1.72057
1.7204
1.72054
1.72044
1.72026
1.72011
1.72024
1.72054
1.72025
1.72015
1.71998
1.71983
1.71996
1.71987
1.71971
1.71957
1.7197
1.71998
1.71973
1.71962
1.71946
1.71933
1.71946
1.71938
1.71922
1.7191
1.71923
1.71949
1.71927
1.71916
1.71901
1.71889
1.71902
1.71895
1.7188
1.7187
1.71882
1.71906
1.71887
1.71876
1.71862
1.71852
1.71864
1.71859
1.71845
1.71836
1.71847
1.71869
1.71853
1.71843
1.71829
1.71821
1.71832
1.71828
1.71815
1.71808
1.71818
1.71838
1.71825
1.71815
1.71803
1.71796
1.71806
1.71803
1.71791
1.71786
1.71795
1.71813
1.71802
1.71793
1.71782
1.71777
1.71786
1.71784
1.71774
1.7177
1.71778
1.71793
1.71785
1.71777
1.71768
1.71764
1.71772
1.71772
1.71763
1.71761
1.71768
1.71779
1.71774
1.71767
1.7176
1.71758
1.71765
1.71765
1.71759
1.71758
1.71763
1.7177
1.71769
1.71764
1.71759
1.7176
1.71764
1.71766
1.71762
1.71764
1.71767
1.71769
1.7177
1.7177
1.71768
1.71771
1.71772
1.71776
1.71776
1.7178
1.71779
1.71773
1.71774
1.71783
1.71786
1.71792
1.71787
1.71754
1.71763
1.71768
1.7177
1.71772
1.71776
1.71781
1.71787
1.71794
1.71803
1.71813
1.71824
1.71837
1.71851
1.71866
1.71883
1.71901
1.7192
1.71941
1.71964
1.71988
1.72014
1.72041
1.7207
1.72101
1.72133
1.72167
1.72204
1.72242
1.72282
1.72325
1.72369
1.72415
1.72464
1.72514
1.72567
1.72622
1.72677
1.72736
1.72795
1.72854
1.72915
1.72976
1.73034
1.7309
1.73145
1.73194
1.73234
1.7327
1.73301
1.7332
1.73334
1.73347
1.73353
1.73356
1.7336
1.73363
1.73363
1.73364
1.73368
1.73367
1.73364
1.73367
1.73369
1.73367
1.73363
1.73361
1.73363
1.73358
1.73352
1.73355
1.73359
1.73351
1.73352
1.73357
1.73351
1.73351
1.73357
1.73355
1.73352
1.73352
1.73358
1.73361
1.73359
1.73356
1.73354
1.73356
1.73361
1.73359
1.73358
1.73359
1.73364
1.73367
1.73365
1.73363
1.73363
1.73364
1.73368
1.73367
1.73367
1.73368
1.7337
1.73374
1.7337
1.73369
1.7337
1.73372
1.73371
1.73369
1.73366
1.73363
1.73365
1.73368
1.73368
1.7337
1.7337
1.73363
1.73362
1.73361
1.73367
1.7336
1.7336
1.73363
1.73365
1.7337
1.73372
1.73373
1.73372
1.7337
1.73365
1.73364
1.73368
1.73367
1.73371
1.73373
1.73374
1.73375
1.73376
1.73374
1.73372
1.73369
1.73365
1.7336
1.7336
1.73366
1.73372
1.73376
1.73378
1.73373
1.73369
1.73365
1.73369
1.73374
1.73376
1.73369
1.73371
1.73377
1.73383
1.73381
1.73377
1.73381
1.73385
1.73388
1.73391
1.73385
1.73379
1.73374
1.73375
1.73383
1.73384
1.73376
1.73376
1.73385
1.73394
1.73391
1.73388
1.73394
1.73397
1.734
1.73404
1.73397
1.73387
1.73378
1.73378
1.7339
1.73394
1.73379
1.7338
1.73397
1.73415
1.73407
1.73401
1.7341
1.73418
1.73431
1.73445
1.73427
1.73416
1.73409
1.73405
1.73401
1.73398
1.73395
1.73392
1.73389
1.73386
1.73382
1.73379
1.73382
1.73379
1.73377
1.73375
1.73377
1.7338
1.73381
1.73383
1.73386
1.7339
1.73393
1.73397
1.73395
1.73394
1.73392
1.73391
1.73389
1.73387
1.73386
1.73382
1.73378
1.73375
1.7338
1.73373
1.73381
1.73378
1.73377
1.73374
1.73365
1.73368
1.73365
1.73365
1.73369
1.73368
1.73377
1.7338
1.73385
1.73383
1.73376
1.73379
1.73384
1.73382
1.73383
1.73379
1.73386
1.73388
1.73389
1.73391
1.73387
1.73378
1.7338
1.73381
1.73389
1.73392
1.73391
1.73393
1.73395
1.73397
1.73398
1.734
1.734
1.73403
1.73407
1.7341
1.73409
1.73409
1.73407
1.73406
1.73403
1.73402
1.73401
1.73399
1.73397
1.73394
1.73395
1.73391
1.73392
1.73388
1.73391
1.73388
1.73385
1.73386
1.73389
1.73389
1.73391
1.73391
1.73392
1.73391
1.73392
1.73392
1.73396
1.73399
1.73396
1.73393
1.73394
1.73397
1.73401
1.73403
1.73404
1.73403
1.73401
1.73397
1.73399
1.73397
1.73401
1.73404
1.73406
1.73408
1.7341
1.73412
1.73412
1.73412
1.73414
1.73419
1.7343
1.73452
1.7344
1.73431
1.7342
1.73419
1.73415
1.73415
1.73415
1.73413
1.73409
1.73407
1.73408
1.73406
1.73408
1.73404
1.73407
1.73404
1.73396
1.73397
1.734
1.734
1.73404
1.73405
1.73406
1.73405
1.73404
1.73404
1.73409
1.73412
1.73409
1.73405
1.73407
1.73409
1.73412
1.73415
1.73417
1.73411
1.73411
1.73407
1.73408
1.73406
1.73411
1.7341
1.73418
1.73426
1.73439
1.73462
1.73464
1.73481
1.73486
1.73469
1.73447
1.73425
1.73403
1.73382
1.73383
1.7341
1.73416
1.73383
1.7338
1.73418
1.73466
1.73452
1.73438
1.73467
1.73493
1.73523
1.73538
1.7347
1.73417
1.73373
1.73362
1.73409
1.73388
1.73342
1.73312
1.73354
1.73395
1.73441
1.73466
1.73534
1.735
1.73441
1.73363
1.73333
1.73305
1.73273
1.73225
1.73246
1.73181
1.73169
1.73109
1.73115
1.73113
1.73188
1.73262
1.73277
1.73189
1.73104
1.73022
1.73038
1.73047
1.73048
1.72984
1.72979
1.72912
1.7292
1.72858
1.72848
1.72829
1.72896
1.72966
1.72944
1.72871
1.72802
1.72765
1.72835
1.72911
1.72993
1.73084
1.73182
1.73288
1.73401
1.73507
1.73581
1.73621
1.73626
1.73594
1.73542
1.735
1.7353
1.73587
1.73657
1.73687
1.73647
1.73602
1.73572
1.73535
1.73513
1.73518
1.73487
1.73476
1.73465
1.73447
1.73438
1.73424
1.73418
1.73412
1.73411
1.73402
1.73404
1.73402
1.73407
1.73416
1.73429
1.73444
1.7346
1.73476
1.73491
1.73495
1.73508
1.7353
1.7353
1.73509
1.73547
1.73543
1.73549
1.73584
1.73579
1.73564
1.73565
1.73584
1.73606
1.73602
1.73618
1.73623
1.73669
1.73722
1.73773
1.73731
1.73779
1.73722
1.73733
1.7369
1.73611
1.73762
1.7375
1.73857
1.73856
1.73853
1.73814
1.73877
1.73829
1.73848
1.73817
1.73783
1.73754
1.73724
1.73694
1.7366
1.73641
1.73643
1.73625
1.73661
1.73693
1.73737
1.73765
1.73797
1.73829
1.73839
1.73806
1.7378
1.73874
1.73864
1.73897
1.7388
1.73909
1.73939
1.73968
1.73933
1.73949
1.7391
1.73991
1.74037
1.74004
1.73971
1.73927
1.73971
1.73998