/*--------------------------------*- C++ -*----------------------------------*\
| =========                 |                                                 |
| \\      /  F ield         | OpenFOAM: The Open Source CFD Toolbox           |
|  \\    /   O peration     | Version:  v2006                                 |
|   \\  /    A nd           | Website:  www.openfoam.com                      |
|    \\/     M anipulation  |                                                 |
\*---------------------------------------------------------------------------*/
FoamFile
{
    version     2.0;
    format      ascii;
    class       volScalarField;
    location    "0.014";
    object      k;
}
// * * * * * * * * * * * * * * * * * * * * * * * * * * * * * * * * * * * * * //

dimensions      [0 2 -2 0 0 0 0];


internalField   nonuniform List<scalar> 
11076
(
417.643
417.643
417.644
417.644
417.644
417.643
417.641
417.638
417.634
417.627
417.617
417.601
417.575
417.533
417.468
417.376
417.26
417.131
417.006
416.903
416.827
416.777
416.745
416.725
416.712
416.703
416.695
416.689
416.683
416.678
416.675
416.672
416.671
416.673
416.676
416.68
416.685
416.691
416.698
416.708
416.724
416.751
416.802
416.895
417.052
417.281
417.559
417.843
418.083
418.255
418.358
418.414
418.442
418.456
418.464
418.468
418.469
418.467
418.462
418.455
418.445
418.43
418.401
418.27
418.012
417.485
416.436
414.938
412.938
408.928
401.969
360.718
313.422
381.858
403.485
391.875
354.405
276.796
249.584
331.802
379.176
364.742
308.797
227.657
212.196
292.516
352.425
338.821
274.919
198.909
189.458
263.198
328.828
317.15
250.719
180.806
175.094
243.52
309.622
299.717
233.846
169.108
165.4
229.302
294.166
285.808
221.762
161.025
158.462
218.684
281.469
274.262
212.564
155.112
153.222
210.291
270.762
264.423
205.224
150.555
149.078
203.385
261.523
255.848
199.101
146.874
145.672
197.554
253.392
248.243
193.821
143.791
142.778
192.48
246.103
241.404
189.156
141.132
140.256
187.97
239.478
235.181
184.969
138.79
138.018
183.908
233.424
229.462
181.175
136.696
136.007
180.219
227.851
224.179
177.712
134.805
134.185
176.847
222.694
219.275
174.536
133.084
132.523
173.748
217.9
214.705
171.609
131.513
131.004
170.891
213.428
210.435
168.905
130.073
129.612
168.248
209.246
206.436
166.4
128.755
128.337
165.798
205.327
202.684
164.077
127.548
127.171
163.526
201.648
199.16
161.921
126.447
126.109
161.416
198.191
195.846
159.919
125.447
125.146
159.458
194.941
192.733
158.063
124.547
124.28
157.644
191.888
189.812
156.346
123.745
123.511
155.969
189.027
187.078
154.768
123.041
122.843
154.431
186.35
184.525
153.327
122.44
122.278
153.03
183.852
182.148
152.02
121.946
121.824
151.755
181.527
179.936
150.821
121.567
121.485
150.584
179.365
177.879
149.719
121.304
121.264
149.51
177.354
175.968
148.714
121.163
121.167
148.534
175.489
174.201
147.809
121.164
121.211
147.662
173.766
172.577
147.009
121.263
121.405
146.896
172.189
171.099
146.32
121.515
121.764
146.245
170.758
169.77
145.751
121.939
122.297
145.715
169.477
168.593
145.31
122.568
123.028
145.314
168.352
167.577
145.017
123.418
123.989
145.055
167.392
166.733
144.864
124.508
125.21
144.94
166.607
166.071
144.864
125.869
126.73
145.013
166.01
165.603
144.99
127.539
128.577
145.253
165.609
165.367
145.299
129.557
130.796
145.685
165.427
165.35
145.812
131.97
133.441
146.346
165.507
165.515
146.553
134.84
136.576
147.241
165.837
165.942
147.535
138.232
140.266
148.395
166.452
166.652
148.784
142.212
144.576
149.831
167.346
167.645
150.321
146.846
149.576
151.568
168.534
168.942
152.168
152.209
155.344
153.641
170.044
170.559
154.371
158.361
161.92
156.097
171.857
172.463
156.958
165.366
169.379
158.938
173.93
174.612
159.929
173.286
177.774
162.158
176.198
176.926
163.271
182.169
187.138
165.734
178.584
179.325
166.967
192.034
197.476
169.649
180.992
181.717
170.987
202.857
208.728
173.861
183.344
184.051
175.308
214.543
220.772
178.382
185.635
186.33
179.942
226.939
233.418
183.239
187.877
188.575
184.936
239.81
246.391
188.498
190.124
190.845
190.352
252.842
259.338
194.139
192.428
193.186
196.306
265.663
271.884
200.138
194.792
195.589
202.869
277.83
283.608
206.562
197.22
198.039
209.481
288.998
294.118
213.168
199.668
200.504
216.231
298.764
303.04
219.974
202.13
202.991
223.157
306.797
310.168
226.884
204.625
205.512
230.104
313.065
315.582
233.729
207.146
208.057
236.942
317.678
319.423
240.42
209.676
210.646
243.603
320.827
321.894
246.907
212.22
213.256
250.055
322.703
323.19
253.181
214.774
215.856
256.258
323.511
323.498
259.215
217.327
218.43
262.185
323.386
323.122
264.988
219.865
220.969
267.832
322.653
322.091
270.502
222.37
223.467
273.169
321.379
320.646
275.741
224.845
225.906
278.213
319.763
318.935
280.714
227.283
228.292
282.949
317.936
317.079
285.424
229.68
230.621
287.37
316.008
315.182
289.886
232.014
232.909
291.438
314.073
313.319
294.023
234.351
235.132
295.249
312.293
311.642
297.785
236.408
237.055
297.555
310.933
310.379
295.337
237.683
238.584
294.545
309.63
247.341
284.034
318.623
348.651
367.748
390.354
405.611
418.922
428.663
436.908
443
447.898
451.243
453.156
453.223
450.569
444.166
423.308
406.677
390.251
348.037
306.051
281.587
280.293
280.663
293.532
254.155
249.849
293.521
282.576
283.009
293.865
245.986
240.833
294.146
282.22
282.938
294.198
238.25
237.417
294.567
283.873
283.813
293.51
236.842
236.961
294.06
286.205
286.415
293.596
235.946
236.349
295.171
288.648
288.93
294.693
235.283
235.701
296.273
291.223
291.511
295.8
234.632
235.075
297.559
293.997
294.325
297.094
233.997
234.462
299.02
297.016
297.364
298.554
233.352
233.836
300.671
300.284
300.686
300.22
232.672
233.17
302.549
303.84
304.272
302.1
231.963
232.482
304.594
307.709
308.217
304.124
231.253
231.799
306.854
311.982
312.56
306.364
230.511
231.097
309.391
316.663
317.329
308.934
229.755
230.422
312.349
321.762
322.464
312.023
228.954
229.722
315.611
327.279
328.077
315.299
228.161
228.996
319.269
333.249
334.082
319
227.345
228.243
323.272
339.627
340.569
322.993
226.5
227.474
327.648
346.483
347.44
327.349
225.644
226.667
332.337
353.649
354.683
332.022
224.72
225.798
337.354
361.168
362.209
336.965
223.761
224.863
342.65
368.861
369.966
342.205
222.65
223.774
348.082
376.784
377.884
347.399
221.431
222.513
353.328
384.563
385.581
352.435
219.99
221.07
358.284
392.141
392.943
357.119
218.348
219.423
362.484
399.039
399.519
360.993
216.646
217.763
365.961
405.176
405.214
364.155
215.076
216.282
368.385
410.257
409.935
366.207
214.223
215.807
369.985
414.427
413.759
367.403
214.326
216.725
370.466
417.156
415.948
367.062
215.803
218.539
371.152
419.911
418.605
367.691
217.048
218.736
375.159
424.742
423.843
371.475
215.531
216.179
380.797
429.222
428.33
378.144
213.028
214.152
392.287
434.451
433.775
390.789
210.028
211.537
409.908
439.022
439.042
411.954
206.247
206.51
431.319
442.577
442.095
435.519
197.702
195.981
450.42
444.127
443.788
451.662
184.762
179.096
450.864
443.882
439.61
439.884
176.089
177.472
433.808
447.043
455.092
432.273
187.233
208.201
527.294
453.589
435.724
494.76
201.958
158.512
485.92
471.785
446.518
477.876
169.878
175.68
484.077
437.626
419.519
475.684
184.837
195.606
465.601
411.606
397.839
455.799
207.032
220.702
447.229
390.964
385.64
436.811
235.296
251.459
423.366
388.877
395.958
420.509
255.845
281.762
416.639
386.942
385.979
415.816
294.82
315.959
413.167
384.933
387.848
412.835
330.647
347.039
414.582
399.269
394.778
407.02
370.493
387.276
406.264
405.541
396.004
404.258
401.937
409.653
398.686
393.045
392.523
396.162
413.795
415.425
396.375
403.494
406.404
404.572
412.706
394.762
410.661
421.365
454.298
418.031
401.342
391.349
426.612
486.888
485.852
429.162
393.247
401.358
448.04
526.123
532.399
472.445
413.379
429.562
488.917
515.428
502.061
504.639
444.724
462.466
504.039
478.398
482.977
497.558
473.097
483.652
499.454
484.809
488.565
504.306
493.83
505.126
515.088
495.393
507.962
531.274
516.356
528.418
565.177
522.079
552.439
609.749
535.268
535.734
655.773
589.749
645.597
696.037
524.573
497.214
711.311
702.504
717.065
710.624
471.307
444.415
702.301
719.063
714.283
683.562
407.378
382.24
661.949
707.054
693.927
636.649
357.215
331.956
608.377
671.92
665.982
591.5
310.881
291.421
567.795
649.9
619.709
546.592
274.049
270.429
540.784
620.232
609.204
530.222
264.481
265.92
527.571
607.056
588.2
502.994
252.083
232.912
465.407
553.615
514.43
419.186
207.049
204.242
418.768
516.096
504.776
404.902
196.777
179.843
367.004
462.828
470.566
373.777
181.284
176.812
357.202
456.029
426.372
325.869
162.792
148.191
277.307
376.352
393.848
288.022
141.106
141.128
281.4
381.309
303.803
169.791
117.03
111.547
171.78
331.51
278.308
152.838
96.7307
86.3008
136.674
243.195
145.046
93.3302
69.0834
96.4939
164.595
224.07
219.177
151.038
89.6917
78.8092
95.3975
141.821
223.521
168.861
102.972
94.0906
144.383
209.134
191.726
125.608
86.1808
71.439
85.072
119.191
193.529
142.043
91.3967
85.8574
129.855
188.441
119.246
85.1129
78.5284
93.8228
139.848
187.646
180.759
126.315
87.9394
79.4835
84.1065
114.112
179.954
133.912
92.7842
87.7602
121.378
173.126
109.583
83.1305
80.0522
93.6179
132.705
175.506
163.047
114.014
87.9165
83.3754
99.0103
146.199
90.0567
73.7936
72.5014
82.7781
108.422
146.362
141.502
99.2165
79.1127
78.2007
70.4181
88.341
141.467
105.746
84.556
81.5742
94.9335
134.906
85.1343
72.2115
73.1314
81.0216
101.348
134.597
128.474
91.8568
79.8047
74.4529
71.1223
81.8795
129.071
97.4189
81.4723
78.9321
88.976
121.581
78.4596
66.1062
80.6445
83.6526
90.251
122.879
115.3
84.0123
79.9891
82.7446
63.9707
75.1638
110.939
89.7131
81.0492
78.1157
74.2514
82.2283
124.984
95.1937
83.5221
82.4446
87.1214
114.99
76.3508
68.4431
82.9668
84.3418
88.4919
118.022
108.541
82.8505
83.9211
80.4112
70.3529
73.7466
112.571
85.8834
83.0877
82.9266
80.8038
103.936
71.5805
66.1417
86.6431
83.6104
81.6103
105.297
97.1607
76.1516
84.3368
80.3365
68.4303
69.5156
96.5986
78.7534
82.2492
85.3204
66.3705
72.8557
105.889
79.8197
83.4403
84.0149
75.0735
95.3518
68.1009
64.9115
89.1865
83.2571
75.25
94.7668
87.9125
71.1471
83.9779
91.7447
61.4662
65.1984
84.9149
71.556
81.5414
84.3008
64.7169
66.7975
95.4554
74.7042
81.2277
83.3284
70.5563
87.3467
64.727
63.0647
90.2769
82.9567
71.7787
88.2384
80.5604
67.2758
85.8721
85.3839
65.8352
63.8864
81.3906
68.9146
80.7798
86.7581
62.557
64.8119
89.6497
70.4762
81.932
85.506
67.2122
80.2406
63.7951
61.8925
95.1044
83.7493
66.6417
77.5264
63.6384
63.3676
90.0157
82.9844
70.3237
86.753
78.6023
66.5501
85.8409
93.8973
62.6716
62.4314
79.4205
67.2161
83.7487
88.4941
63.8504
73.03
61.3865
67.9593
92.686
83.7053
64.6904
72.6737
61.0823
61.7787
90.0584
82.0434
64.3074
79.3421
71.4958
63.5782
87.3025
99.5658
61.1511
60.4383
70.7558
61.1495
87.2728
97.0841
60.5915
60.5407
73.9212
62.2317
85.2834
89.501
61.9039
67.8339
58.1674
60.1607
100.131
85.0184
60.2969
66.0147
57.9497
61.358
94.8082
84.7754
62.1911
72.4211
67.4058
62.5783
90.474
103.929
61.7927
58.7229
64.0566
59.2397
87.8126
98.2595
62.1425
57.8678
67.4804
60.5647
85.6736
91.3562
60.2387
63.42
57.7677
64.1644
104.723
88.7454
57.922
63.7566
57.5571
62.1645
100.024
87.1985
60.4532
67.4125
62.358
59.5831
93.858
108.111
66.5301
58.1605
62.1158
57.7495
90.6886
102.752
63.356
57.1544
64.0237
59.2373
88.6515
95.6801
58.2732
59.6022
57.6374
68.1532
110.525
92.2277
57.3184
60.7559
56.7053
64.2105
105.319
90.3841
59.1311
62.863
58.6305
58.0581
98.3771
109.207
74.1046
57.5283
59.9609
58.4437
93.3605
106.113
66.9578
56.1737
61.2663
58.5322
90.7791
99.475
57.8723
57.1201
57.2828
75.1978
112.143
95.593
57.8496
58.6742
56.1224
68.556
109.761
93.7566
59.0264
61.2297
56.6956
58.6775
102.771
121.777
73.9913
57.8745
57.0431
56.7018
99.4701
115.464
68.0784
55.5994
58.8012
58.4826
96.842
106.583
58.3259
55.4653
57.2546
80.7016
120.28
101.321
57.8361
57.1562
55.7311
70.8467
117.263
98.631
58.724
59.4205
55.1174
58.9521
108.683
130.09
78.5103
58.2204
55.0008
56.2395
104.947
123.642
71.0171
55.2014
57.5265
58.1539
102.17
113.247
58.4345
54.3851
57.8825
85.6024
129.105
106.863
57.7482
55.7736
55.9132
74.3595
125.004
104.075
58.9348
58.5964
54.7704
59.8464
115.694
139.362
84.0572
59.1864
55.5451
57.6778
111.86
132.533
74.809
56.3061
57.9517
59.0474
108.322
120.614
59.8523
54.7918
59.4963
90.5379
139.12
114.544
59.2606
56.7259
57.547
78.6522
134.974
111.743
60.5132
59.6856
55.9134
61.8825
124.194
149.92
90.719
61.6002
57.3103
60.3517
119.646
142.5
79.946
58.5928
59.6885
61.3098
115.823
129.424
62.3879
56.5018
62.3797
97.4409
150.673
123.199
62.4554
59.0331
60.3903
84.3693
145.703
119.893
63.1875
61.9133
58.1858
65.1577
133.654
160.701
97.9963
64.7628
60.0187
63.8132
128.506
153.557
86.0066
61.649
62.5311
64.4848
123.752
138.13
66.0349
59.1652
64.5084
100.45
163.985
132.415
67.5746
63.2506
60.0909
69.3853
147.544
180.723
106.09
68.5471
62.5537
66.9991
141.417
169.455
92.6974
64.965
65.0013
67.6511
135.779
152.019
69.5243
61.4646
70.2958
112.266
182.06
144.773
69.7246
64.5421
66.9817
96.3748
172.6
138.757
69.6805
67.0788
63.5424
72.0715
155.157
183.844
112.7
70.4598
67.8373
73.1861
148.389
165.126
74.7282
64.5055
75.3529
119.717
204.099
159.344
73.3375
68.0573
71.5524
104.202
192.109
152.678
73.8253
70.3633
66.6823
76.2219
171.373
201.274
123.592
74.9732
70.9301
77.7748
161.476
179.798
79.1607
67.4972
79.5917
129.455
219.987
171.549
77.1907
71.6147
75.688
112.471
207.028
164.185
77.6961
73.9481
70.2719
81.279
183.27
219.592
130.523
80.1094
74.8174
82.9384
173.075
195.639
84.1537
71.8346
84.5887
141.357
233.71
184.079
83.1129
75.8559
81.1187
122.912
221.885
176.352
83.254
78.2635
74.453
86.0401
197.731
234.251
141.651
85.0993
79.383
87.964
185.944
208.847
89.8438
76.1134
88.3406
148.245
252.057
197.107
90.3899
80.987
77.5271
91.7318
221.769
267.762
154.869
91.1295
82.5125
92.5222
207.937
231.777
95.5026
79.3277
95.4871
160.024
281.905
217.123
95.5506
84.1071
80.4093
95.2743
242.358
296.047
169.687
97.8943
85.558
97.7253
227.445
254.208
100.755
82.1461
101.327
173.032
309.408
235.687
100.89
87.0654
83.9413
101.686
266.145
318.606
182.305
103.017
88.7111
102.374
244.326
275.516
104.593
85.2577
106.429
188.59
333.603
254.291
106.125
90.5651
87.6122
106.776
286.427
339.77
196.077
108.822
92.8153
107.678
257.852
289.963
110.622
89.466
112.443
202.079
354.675
269.952
111.8
95.1528
91.8953
113.69
301.003
366.105
200.503
113.048
97.3046
112.712
276.304
300.072
120.736
93.4048
91.7023
132.313
345.019
422.441
237.332
126.673
100.136
123.306
314.612
357.872
133.889
96.3853
92.5456
137.356
381.671
483.401
252.704
135.731
102.079
126.777
350.789
383.179
137.345
97.6038
95.5947
149.677
431.868
529.261
274.835
142.575
105.492
133.665
382.189
424.631
147.996
100.316
97.2813
150.249
479.086
574.134
292.213
142.685
105.494
134.195
399.348
442.544
141.774
100.752
96.7613
148.089
488.995
559.829
181.67
98.0707
93.8051
172.928
600.881
728.215
372.352
165.377
108.77
154.594
499.932
559.954
142.371
102.263
102.217
190.556
608.71
690.292
177.946
99.1462
99.0422
209.181
743.154
820.892
202.549
96.9966
96.6501
219.85
868.035
916.28
215.77
93.9509
94.8434
228.326
926.877
914.594
231.887
93.9555
96.8121
254.544
887.138
835.402
258.993
96.4488
101.51
283.161
781.088
725.496
290.574
101.556
108.363
319.176
672.498
622.332
327.026
108.702
117.267
353.072
578.539
539.847
361.981
118.291
128.486
381.708
507.016
479.048
395.752
130.439
144.992
408.082
454.493
433.394
422.467
148.526
166.927
430.828
413.881
397.089
443.143
170.468
189.531
450.186
381.308
368.628
461.022
193.24
212.394
466.605
356.365
347.874
475.916
215.885
235.151
480.333
338.285
334.04
487.376
239.12
258.84
490.317
326.726
325.194
494.608
262.607
282.367
496.435
319.916
319.69
498.809
285.717
304.139
499.194
316.408
316.845
500.005
306.498
323.261
499.372
314.761
315.623
499.224
324.899
339.714
498.261
314.35
315.487
497.229
340.198
353.113
495.556
314.616
316.135
494.383
353.108
363.831
492.054
315.365
317.087
490.669
363.309
372.413
487.909
316.394
318.205
486.585
371.566
379.043
483.622
317.572
319.377
482.266
377.843
384.066
479.229
318.78
320.546
478.013
382.668
387.646
474.995
319.981
321.671
473.819
386.028
390.089
470.893
321.131
322.76
469.881
388.384
391.571
467.085
322.247
323.807
466.134
389.761
392.36
463.499
323.318
324.828
462.7
390.547
392.652
460.229
324.365
325.822
459.487
390.751
392.595
457.205
325.382
326.806
456.595
390.659
392.232
454.461
326.392
327.791
453.884
390.188
391.562
451.909
327.396
328.768
451.432
389.488
390.71
449.564
328.395
329.74
449.099
388.557
389.634
447.365
329.381
330.694
446.977
387.484
388.415
445.324
330.351
331.634
444.927
386.224
387.047
443.365
331.302
332.551
443.034
384.908
385.626
441.536
332.229
333.436
441.185
383.477
384.122
439.76
333.118
334.279
439.464
381.952
382.529
438.082
333.968
335.088
437.75
380.284
380.829
436.415
334.778
335.849
436.13
378.575
379.088
434.83
335.541
336.562
434.509
376.81
377.321
433.256
336.252
337.222
432.987
375.094
375.587
431.782
336.913
337.836
431.485
373.377
373.88
430.341
337.525
338.408
430.099
371.734
372.231
429.011
338.097
338.932
428.747
370.117
370.638
427.724
338.618
339.413
427.521
368.609
369.127
426.557
339.098
339.851
426.332
367.137
367.683
425.434
339.535
340.255
425.27
365.773
366.315
424.431
339.94
340.627
424.244
364.444
365.015
423.451
340.31
340.975
423.36
363.218
363.782
422.578
340.66
341.302
422.511
362.024
362.616
421.747
340.986
341.612
421.757
360.915
361.502
421.007
341.298
341.905
421.025
359.834
360.45
420.317
341.592
342.185
420.375
358.833
359.443
419.679
341.873
342.449
419.742
357.855
358.496
419.084
342.137
342.703
419.185
356.957
357.591
418.537
342.393
342.946
418.639
356.075
356.738
418.027
342.637
343.184
418.165
355.262
355.917
417.562
342.879
343.416
417.699
354.457
355.148
417.129
343.112
343.645
417.302
353.745
354.428
416.738
343.343
343.866
416.904
353.026
353.756
416.367
343.565
344.082
416.563
352.406
353.121
416.023
343.783
344.286
416.207
351.741
352.491
415.689
343.986
344.476
415.903
351.151
351.885
415.383
344.173
344.639
415.591
350.534
351.337
415.098
344.331
344.776
415.339
350.061
350.867
414.846
344.463
344.883
415.074
349.577
350.415
414.601
344.566
344.971
414.856
349.148
349.944
414.379
344.651
345.045
414.622
348.637
349.484
414.172
344.719
345.107
414.45
348.245
349.107
414.002
344.777
345.156
414.269
347.876
348.8
413.842
344.821
345.196
414.132
347.617
348.503
413.692
344.86
345.23
413.958
347.266
348.165
413.531
344.891
345.261
413.819
346.948
347.816
413.385
344.924
345.292
413.658
346.575
347.501
413.248
344.957
345.327
413.551
346.325
347.251
413.136
344.994
345.363
413.422
346.059
347.033
413.024
345.03
345.4
413.33
345.883
346.817
412.919
345.07
345.439
413.202
345.613
346.569
412.804
345.11
345.48
413.11
345.398
346.329
412.705
345.153
345.521
412.994
345.137
346.123
412.605
345.194
345.563
412.917
344.984
345.946
412.518
345.238
345.607
412.807
344.762
345.746
412.421
345.282
345.652
412.733
344.588
345.538
412.339
345.33
345.699
412.634
344.352
345.359
412.258
345.377
345.747
412.577
344.235
345.22
412.191
345.428
345.797
412.486
344.053
345.06
412.111
345.478
345.85
412.427
343.917
344.885
412.042
345.536
345.908
412.336
343.702
344.712
411.965
345.597
345.973
412.283
343.573
344.547
411.905
345.668
346.048
412.206
343.36
344.372
411.85
345.746
346.129
412.181
343.243
344.257
411.821
345.83
346.216
412.133
343.131
344.205
411.783
345.919
346.313
412.106
343.105
344.091
411.732
346.021
346.422
412.026
342.873
343.827
411.668
346.132
346.54
411.995
342.621
343.583
411.647
346.254
346.663
411.976
342.427
343.545
411.648
346.377
346.788
411.974
342.49
343.564
411.647
346.499
347.017
411.96
342.496
343.473
411.577
346.74
347.198
411.805
342.249
343.061
411.401
346.935
347.652
411.551
341.533
341.621
411.416
347.43
348.514
411.294
340.616
337.87
410.791
349.429
352.197
408.469
336.909
325.146
405.227
356.081
360.252
400.72
316.781
301.762
396.54
362.198
217.521
181.837
185.783
218.146
267.423
292.429
306.671
346.948
371.638
382.287
385.981
386.14
383.541
380.013
376.488
373.358
370.743
368.615
366.908
365.54
364.444
363.56
362.848
362.27
361.81
361.441
361.166
360.956
360.824
360.737
360.701
360.746
360.72
360.666
360.597
360.518
360.43
360.336
360.235
360.13
360.019
359.902
359.779
359.648
359.509
359.36
359.201
359.029
358.843
358.617
358.307
357.868
357.302
356.66
356.008
355.388
354.83
354.346
353.941
353.616
353.37
353.201
353.119
353.097
353.136
353.247
353.431
353.689
354.026
354.452
354.98
355.622
356.388
357.285
358.317
359.481
360.774
362.185
363.704
365.316
367.007
368.759
370.558
372.387
374.232
376.079
377.917
379.734
381.523
383.275
384.983
386.644
388.253
389.806
391.303
392.741
394.12
395.44
396.701
397.905
399.052
400.143
401.181
402.166
403.101
403.987
404.827
405.621
406.373
407.084
407.755
408.388
408.986
409.55
410.082
410.583
411.054
411.498
411.915
412.308
412.676
413.023
413.348
413.653
413.94
414.208
414.46
414.696
414.917
415.125
415.319
415.501
415.671
415.83
415.978
416.117
416.246
416.367
416.479
416.583
416.68
416.769
416.852
416.929
417
417.065
417.125
417.18
417.23
417.276
417.318
417.356
417.391
417.423
417.452
417.478
417.501
417.523
417.544
417.562
417.577
417.589
417.597
417.603
417.608
417.612
417.615
417.619
417.622
417.625
417.628
417.631
417.634
417.636
417.638
417.64
417.641
417.642
417.642
417.641
417.64
417.638
417.635
417.631
417.625
417.615
417.6
417.575
417.533
417.468
417.377
417.26
417.131
417.006
416.901
416.825
416.775
416.744
416.726
416.714
416.706
416.7
416.695
416.69
416.685
416.681
416.678
416.677
416.678
416.681
416.686
416.69
416.695
416.701
416.709
416.722
416.746
416.793
416.883
417.035
417.256
417.528
417.805
418.043
418.213
418.319
418.378
418.409
418.428
418.442
418.45
418.453
418.452
418.448
418.439
418.419
418.362
418.175
417.482
414.285
409.544
396.599
390.414
385.32
378.737
374.004
367.525
363.254
356.991
353.167
347.154
343.754
337.993
334.971
329.465
326.751
321.492
319.038
314.017
311.784
307.001
304.925
300.391
298.45
294.143
292.323
288.223
286.512
282.603
280.994
277.264
275.749
272.185
270.757
267.351
266.006
262.749
261.483
258.369
257.18
254.211
253.098
250.273
249.234
246.549
245.578
243.025
242.12
239.693
238.852
236.547
235.768
233.582
232.863
230.794
230.135
228.182
227.583
225.745
225.207
223.488
223.013
221.416
221.007
219.538
219.197
217.861
217.592
216.397
216.206
215.163
215.055
214.172
214.15
213.463
213.516
213.04
213.176
212.934
213.198
213.101
213.587
213.579
214.282
214.401
215.365
215.625
216.846
217.203
218.599
219.032
220.581
221.078
222.595
223.146
224.652
225.141
226.568
227.023
228.407
228.837
230.191
230.59
231.92
232.32
233.694
234.034
235.377
235.584
236.649
236.769
237.68
237.722
238.484
238.478
239.104
239.072
239.631
239.583
240.098
240.041
240.524
240.462
240.925
240.862
241.308
241.243
241.674
241.608
242.025
241.958
242.361
242.294
242.685
242.618
242.998
242.933
243.301
243.236
243.588
243.487
243.784
243.646
243.842
244.407
245.349
282.102
280.928
316.397
317.934
349.793
350.407
356.603
313.364
279.667
278.882
309.594
317.364
280.637
279.788
311.34
357.9
359.891
318.943
281.679
280.631
312.591
320.258
282.452
281.351
313.768
361.915
363.929
321.539
283.16
282.037
314.902
322.746
283.823
282.672
315.963
365.855
367.707
323.889
284.434
283.249
316.956
324.96
284.99
283.769
317.878
369.472
371.181
325.956
285.485
284.226
318.71
326.856
285.916
284.619
319.434
372.775
374.166
327.637
286.281
284.946
320.025
328.249
286.576
285.206
320.436
375.251
375.905
328.621
286.804
285.398
320.649
328.739
286.944
285.493
320.644
375.972
375.372
328.572
286.896
285.319
320.404
328.133
286.579
284.852
319.819
375.123
374.597
327.433
285.989
283.754
318.939
326.432
284.691
282.291
317.572
374.19
372.635
325.102
283.231
280.681
315.965
323.328
281.533
278.763
313.814
370.439
367.191
320.871
279.511
276.571
311.086
317.784
277.239
274.179
307.853
363.34
358.828
314.252
274.782
271.686
304.389
310.554
272.249
269.205
300.918
354.145
349.358
306.945
269.762
266.84
297.733
303.689
267.418
264.68
294.994
344.889
340.827
300.87
265.332
262.814
292.743
298.532
263.54
261.261
290.893
337.422
334.766
296.612
262.045
259.844
289.407
295.095
260.619
258.491
288.242
333.014
331.852
294.059
259.389
257.604
287.644
293.575
258.626
257.154
287.533
331.2
331.021
293.522
258.34
256.988
287.638
293.607
258.375
257.132
287.932
331.142
331.612
293.937
258.785
257.664
288.59
294.722
259.552
258.522
289.585
332.587
333.898
295.816
260.608
259.655
290.822
297.127
261.922
261.044
292.282
335.33
336.837
298.643
263.488
262.687
293.986
300.399
265.293
264.561
295.911
338.545
340.42
302.361
267.316
266.648
298.033
304.506
269.541
268.935
300.337
342.433
344.559
306.823
271.96
271.415
302.819
309.309
274.564
274.076
305.463
346.826
349.202
311.947
277.342
276.911
308.261
314.728
280.289
279.914
311.203
351.684
354.262
317.644
283.399
283.08
314.281
320.688
286.67
286.408
317.492
356.919
359.649
323.855
290.101
289.897
320.829
327.139
293.691
293.548
324.291
362.442
365.288
330.537
297.443
297.363
327.876
334.048
301.358
301.344
331.588
368.179
371.105
337.68
305.453
305.528
335.439
341.439
309.737
309.912
339.46
374.052
376.992
345.368
314.195
314.46
343.599
349.396
318.815
319.17
347.832
379.952
382.923
353.502
323.593
324.04
352.158
357.691
328.525
329.066
356.535
385.894
388.858
361.952
333.614
334.254
360.981
366.272
338.862
339.605
365.495
391.8
394.708
370.64
344.267
345.121
370.063
375.042
349.829
350.799
374.671
397.564
400.351
379.462
355.548
356.645
379.305
383.884
361.427
362.664
383.963
403.05
405.636
388.282
367.466
368.863
388.641
392.634
373.633
375.223
393.26
408.076
410.335
396.89
379.849
381.699
397.77
401.008
386.129
388.225
402.097
412.378
414.167
404.924
392.414
394.689
406.167
408.542
398.552
400.959
409.836
415.655
416.783
411.744
404.403
406.751
412.931
417.925
417.486
416.846
416.016
415.008
413.839
412.526
411.085
409.535
407.89
406.166
404.373
402.524
400.627
398.691
396.725
394.736
392.73
390.709
388.68
386.652
384.634
382.635
380.666
378.734
376.848
375.027
373.27
371.574
369.985
368.485
366.951
365.533
364.343
363.531
363.068
363.121
363.492
364.402
366.223
368.839
372.268
376.525
381.588
387.439
393.978
400.975
408.366
415.601
422.532
428.462
433.443
436.908
439.388
440.242
439.925
438.939
437.678
435.808
433.179
430.126
426.894
423.644
420.432
417.338
414.276
411.454
408.392
406.086
402.636
402.461
392.948
366.82
367.683
391.614
406.32
406.694
420.953
419.832
429.345
429.85
428.037
443.829
438.613
437.655
443.658
444.245
449.355
448.539
451.911
452.581
452.805
456.173
454.553
453.79
453.93
454.599
451.371
451.116
445.041
445.735
450.713
407.345
418.291
420.516
404.976
404.51
372.319
379.071
314.428
298.474
301.989
295.221
296.137
280.671
280.655
286.92
284.43
290.854
280.361
279.795
294.115
295.271
283.068
298.027
368.228
364.065
295.684
284.599
281.658
297.109
298.831
300.431
284.192
287.373
299.668
373.363
408.358
451.619
457.89
454.782
445.719
429.567
432.92
448.719
457.251
459.951
461.639
459.448
451.337
435.637
438.859
454.254
457.18
442.034
445.456
460.3
466.462
464.08
461.792
463.41
464.968
466.513
467.922
468.886
463.581
449.032
452.861
467.113
470.951
456.935
461.25
475.158
477.376
474.223
471.439
469.24
470.524
472.029
473.973
480.937
479.72
465.711
470.13
484.509
489.223
474.249
477.179
493.124
492.886
489.012
484.884
476.369
479.115
481.931
467.776
465.228
463.311
462.052
461.511
461.234
460.774
460.034
459.151
458.008
456.829
455.209
453.837
411.174
378.531
368.385
298.939
304.409
303.833
373.005
383.049
414.171
417.066
419.86
422.612
395.639
386.542
391.653
382.185
387.44
377.634
308.87
309.41
298.711
295.864
295.377
292.38
292.813
289.728
289.595
286.617
303.681
302.158
305.662
307.456
309.427
311.275
313.473
315.466
317.632
319.88
298.581
301.505
302.427
324.692
322.168
326.753
304.991
314.525
313.941
307.98
305.305
329.846
331.808
335.427
309.447
311.623
319.63
318.983
324.685
323.905
390.625
399.353
425.303
427.973
430.625
433.257
408.231
400.676
405.681
397.761
402.723
394.387
328.498
329.591
325.1
325.07
321.505
320.282
318.384
316.906
314.735
312.539
341.416
336.951
342.643
347.722
348.558
354.295
355.228
361.243
361.964
368.649
328.831
328.677
333.751
376.268
369.441
376.747
332.816
334.274
333.313
335.945
336.823
384.266
384.725
392.263
342.135
340.364
339.081
338.15
343.978
342.969
403.126
410.429
435.898
438.852
442.99
448.65
421.082
410.564
415.529
407.212
412.53
405.192
347.868
348.897
355.333
359.103
351.067
353.738
347.746
350.477
343.372
345.173
400.505
392.337
400.529
408.681
408.39
416.904
416.519
424.639
423.858
432.072
362.512
358.947
367.794
438.52
431.143
437.137
363.008
353.96
353.025
366.524
371.014
444.214
442.662
448.426
376.046
370.508
359.668
359.192
367.607
368.294
417.079
429.021
454.981
470.585
484.385
495.916
495.178
478.599
479.103
496.031
496.184
478.675
476.157
494.693
497.582
498.036
497.51
485.734
486.284
485.897
483.955
495.295
491.923
472.518
466.863
487.67
481.698
459.974
451.627
474.459
480.667
486.851
492.097
482.287
477.911
472.624
469.474
473.223
466.008
442.709
433.486
457.149
447.713
424.655
416.794
438.159
451.367
458.858
465.879
464.32
459.744
453.994
448.948
443.801
429.57
409.519
403.235
421.972
415.718
397.792
393.213
410.197
422.512
428.761
435.765
443.033
437.633
431.542
436.081
440.787
444.518
449.456
452.587
456.904
458.983
460.791
462.15
463.5
466.819
471.485
474.328
474.169
473.013
461.444
467.348
470.822
463.897
450.769
450.584
436.953
438.757
425.88
379.426
377.362
391.683
396.704
385.744
390.063
380.263
385.351
374.515
379.121
451.695
446.443
449.831
454.26
452.023
455.948
452.984
455.12
450.04
450.498
399.879
395.6
403.055
442.155
443.233
434.174
398.521
388.786
392.611
399.473
402.539
432.183
425.628
424.33
401.354
397.284
402.564
409.637
427.9
441.771
467.485
473.903
471.003
462.051
453.647
450.961
445.485
451.094
454.943
466.336
473.242
475.359
471.593
461.017
427.739
402.388
407.255
390.933
391.528
386.517
389.752
393.032
423.044
422.896
421.078
404.126
390.986
383.719
383.672
381.611
382.439
385.931
399.602
380.575
389.379
388.556
422.523
447.359
445.182
407.133
404.122
382.546
379.724
385.011