/*--------------------------------*- C++ -*----------------------------------*\
| =========                 |                                                 |
| \\      /  F ield         | OpenFOAM: The Open Source CFD Toolbox           |
|  \\    /   O peration     | Version:  v2006                                 |
|   \\  /    A nd           | Website:  www.openfoam.com                      |
|    \\/     M anipulation  |                                                 |
\*---------------------------------------------------------------------------*/
FoamFile
{
    version     2.0;
    format      ascii;
    class       volScalarField;
    location    "0.028";
    object      p;
}
// * * * * * * * * * * * * * * * * * * * * * * * * * * * * * * * * * * * * * //

dimensions      [1 -1 -2 0 0 0 0];


internalField   nonuniform List<scalar> 
9148
(
146702
146702
146702
146702
146702
146707
146715
146727
146741
146756
146772
146789
146806
146824
146843
146863
146884
146906
146929
146954
146979
147005
147031
147059
147087
147116
147145
147175
147205
147236
147267
147298
147329
147360
147392
147423
147454
147485
147516
147546
147576
147605
147634
147663
147690
147717
147743
147768
147793
147816
147838
147859
147880
147899
147917
147933
147949
147963
147976
147986
147993
147999
148003
148005
148002
148003
148006
148012
148029
148055
148071
148080
148060
148059
148055
148048
148049
148050
148040
148040
148040
148032
148032
148031
148025
148026
148026
148022
148022
148022
148019
148019
148020
148019
148018
148018
148018
148018
148019
148019
148018
148018
148020
148020
148020
148023
148022
148022
148025
148025
148026
148029
148029
148028
148032
148033
148033
148038
148037
148037
148042
148042
148043
148048
148048
148048
148054
148054
148055
148061
148061
148061
148068
148068
148069
148077
148076
148076
148085
148085
148085
148095
148094
148094
148104
148104
148105
148115
148114
148114
148125
148125
148126
148137
148137
148137
148149
148149
148149
148162
148161
148161
148174
148174
148175
148188
148187
148187
148200
148201
148201
148215
148215
148214
148229
148229
148230
148244
148244
148243
148259
148259
148260
148276
148275
148275
148292
148292
148293
148310
148310
148310
148328
148329
148329
148348
148348
148347
148368
148368
148369
148389
148389
148389
148410
148411
148411
148433
148433
148432
148455
148455
148456
148479
148479
148478
148502
148502
148503
148527
148526
148526
148550
148550
148551
148576
148575
148575
148600
148601
148601
148628
148627
148626
148654
148654
148655
148683
148682
148682
148712
148712
148713
148744
148743
148742
148775
148775
148776
148809
148809
148808
148843
148843
148844
148880
148879
148879
148916
148916
148917
148955
148954
148954
148992
148993
148994
149033
149032
149031
149071
149072
149073
149113
149113
149112
149153
149154
149155
149197
149196
149196
149239
149240
149240
149285
149285
149284
149330
149331
149331
149376
149377
149376
149424
149423
149419
149437
149439
149440
149440
149441
149441
149444
149443
149442
149443
149443
149446
149453
149455
149455
149482
149483
149477
149516
149519
149519
149544
149544
149545
149538
149538
149538
149547
149547
149548
149537
149536
149536
149539
149539
149539
149526
149527
149527
149524
149524
149524
149514
149515
149515
149513
149513
149513
149511
149512
149512
149512
149512
149512
149509
149509
149509
149506
149507
149507
149503
149503
149503
149499
149499
149499
149494
149494
149494
149490
149490
149490
149486
149486
149486
149483
149483
149484
149481
149481
149481
149479
149479
149479
149478
149478
149478
149478
149478
149478
149479
149479
149479
149481
149481
149481
149484
149484
149484
149488
149488
149488
149493
149494
149494
149500
149500
149500
149507
149507
149507
149515
149515
149515
149523
149524
149524
149533
149533
149533
149542
149543
149543
149553
149553
149552
149563
149563
149564
149574
149574
149573
149583
149584
149584
149594
149593
149593
149602
149603
149603
149610
149610
149609
149615
149616
149616
149621
149620
149619
149622
149623
149623
149622
149622
149621
149619
149613
149604
149593
149580
149566
149554
149543
149536
149532
149533
149537
149546
149559
149574
149592
149609
149624
149635
149639
149639
149640
149641
149638
149641
149642
149642
149645
149639
149639
149629
149645
149641
149634
149635
149636
149633
149633
149633
149632
149632
149632
149629
149627
149628
149628
149628
149629
149624
149624
149625
149623
149626
149624
149614
149615
149615
149610
149610
149609
149601
149604
149603
149599
149599
149599
149597
149593
149594
149590
149590
149590
149579
149583
149582
149573
149570
149576
149561
149569
149565
149557
149554
149559
149545
149552
149548
149542
149538
149543
149531
149537
149533
149528
149525
149528
149523
149517
149521
149515
149517
149515
149513
149508
149512
149507
149509
149507
149507
149502
149505
149501
149505
149502
149500
149504
149500
149501
149498
149501
149498
149501
149496
149498
149500
149501
149508
149506
149505
149517
149518
149519
149532
149531
149530
149546
149547
149547
149564
149565
149565
149584
149584
149583
149604
149605
149605
149627
149628
149627
149650
149652
149650
149667
149675
149673
149707
149688
149696
149724
149724
149716
149739
149745
149749
149773
149768
149760
149777
149787
149792
149804
149803
149790
149817
149817
149815
149822
149813
149790
149774
149801
149829
149752
149737
149717
149628
149661
149683
149461
149403
149348
149012
149007
149056
148219
148297
148344
147038
146891
146811
144681
145644
145910
144037
143935
142377
141540
142899
143609
143458
143151
142746
143568
143801
144016
144313
144083
143825
144121
144283
144421
144910
144860
144781
144976
145007
145058
145401
145376
145338
145426
145436
145468
145756
145742
145717
145818
145822
145849
145889
145870
145869
146104
146116
146111
146139
146130
146132
146304
146314
146309
146345
146340
146341
146364
146358
146363
146508
146514
146507
146513
146500
146503
146615
146621
146621
146613
146602
146602
146708
146717
146714
146717
146711
146709
146703
146703
146713
146803
146809
146799
146781
146790
146792
146846
146859
146846
146817
146822
146821
146902
146902
146889
146856
146857
146861
146940
146938
146925
146895
146900
146911
146956
146958
146949
146931
146939
146951
146919
146906
146902
146964
146973
146971
146942
146928
146927
146968
146975
146984
146929
146916
146919
146961
146970
146977
146939
146924
146920
146948
146958
146959
146901
146898
146898
146943
146960
146966
146904
146894
146890
146905
146913
146911
146869
146862
146859
146896
146912
146919
146849
146841
146838
146850
146859
146858
146808
146801
146798
146828
146844
146850
146778
146770
146767
146774
146783
146783
146728
146722
146719
146744
146760
146767
146689
146681
146678
146677
146686
146685
146622
146618
146617
146641
146657
146663
146586
146575
146572
146568
146579
146580
146500
146495
146495
146504
146520
146530
146516
146497
146492
146406
146401
146418
146417
146416
146406
146342
146345
146353
146382
146375
146358
146284
146290
146302
146281
146279
146268
146190
146188
146191
146204
146205
146194
146127
146136
146150
146142
146136
146121
146033
146033
146037
146025
146025
146015
145933
145933
145937
145958
145956
145944
145904
145920
145918
145799
145795
145795
145787
145800
145801
145714
145709
145705
145701
145718
145722
145629
145618
145612
145587
145601
145604
145489
145487
145488
145475
145487
145490
145390
145387
145385
145373
145376
145370
145320
145334
145312
145189
145193
145187
145186
145189
145178
145089
145092
145097
145094
145090
145074
144977
144984
144996
144949
144949
144937
144830
144830
144836
144824
144821
144806
144690
144688
144689
144674
144670
144662
144605
144614
144623
144464
144457
144463
144436
144454
144460
144324
144320
144319
144281
144297
144300
144171
144163
144160
144120
144136
144137
143983
143982
143987
143954
143969
143970
143902
143887
143885
143731
143724
143735
143704
143700
143686
143558
143556
143556
143536
143532
143515
143382
143380
143381
143359
143355
143337
143198
143198
143205
143156
143153
143135
142973
142960
142954
142945
142944
142932
142853
142858
142868
142681
142668
142672
142605
142623
142628
142447
142444
142447
142365
142379
142375
142190
142193
142204
142161
142180
142183
142019
142011
142008
141923
141941
141941
141736
141733
141739
141665
141668
141660
141532
141550
141546
141328
141312
141303
141289
141292
141272
141101
141108
141116
141024
141021
140999
140784
140782
140791
140603
140624
140624
140427
140407
140392
140422
140416
140391
140195
140195
140194
140064
140072
140069
139899
139912
139903
139517
139553
139588
139468
139479
139462
139247
139251
139254
139157
139183
139182
138945
138928
138918
138722
138744
138742
138371
138392
138422
138233
138227
138191
137973
137987
138004
137920
137947
137947
137683
137676
137670
137457
137486
137491
137067
137085
137112
136841
136826
136782
136516
136543
136572
136478
136506
136505
136209
136202
136194
135918
135950
135958
135410
135449
135495
135166
135139
135081
134797
134830
134866
134755
134763
134741
134514
134532
134515
134007
133993
133961
133441
133504
133533
133099
132999
132879
132946
132967
132946
132615
132651
132668
132080
132038
132018
131603
131642
131652
130598
130776
130945
130689
130681
130627
130288
130305
130324
129953
130001
129995
129275
129280
129337
128422
128272
128088
127633
127763
127885
127677
127700
127673
127165
127175
127186
126305
126293
126254
124586
125004
125336
124861
124806
124676
124353
124382
124399
123414
123391
123494
121592
121823
122009
121118
120830
120520
120494
120548
120587
119812
119757
119594
117385
117808
118234
117011
116633
116161
115280
115501
115709
114291
114080
113830
111314
112212
112841
111269
110882
110417
108845
109327
109757
108254
107415
106168
105344
105993
106510
104087
103085
101738
102205
102941
103665
103284
102034
99864.9
99995.7
102041
103013
103518
102876
101086
104341
105321
105478
109909
110207
109967
113684
113781
113621
115753
115835
115761
117103
117147
117108
118256
118276
118243
119219
119238
119228
120102
120104
120087
120792
120802
120801
121446
121442
121431
121972
121977
121978
122503
122497
122490
122932
122935
122937
123379
123371
123365
123732
123734
123737
124110
124101
124096
124400
124402
124405
124722
124714
124709
124966
124967
124970
125243
125235
125231
125449
125450
125452
125691
125684
125679
125869
125869
125870
126083
126076
126072
126236
126236
126237
126427
126420
126417
126562
126562
126562
126734
126728
126725
126852
126852
126851
127008
127002
127000
127115
127114
127113
127257
127252
127249
127352
127351
127350
127481
127476
127474
127566
127565
127564
127685
127681
127679
127762
127761
127759
127869
127865
127864
127939
127938
127936
128039
128036
128034
128103
128101
128099
128193
128190
128189
128251
128249
128247
128336
128333
128332
128388
128387
128384
128465
128462
128462
128513
128511
128509
128586
128583
128583
128629
128627
128625
128695
128693
128692
128734
128732
128730
128798
128795
128795
128833
128831
128829
128889
128888
128887
128922
128920
128918
128977
128975
128974
129006
129004
129002
129054
129053
129053
129081
129079
129077
129129
129127
129127
129153
129151
129149
129195
129194
129193
129217
129215
129213
129258
129257
129257
129278
129276
129275
129315
129314
129313
129332
129331
129329
129368
129367
129367
129384
129383
129381
129417
129416
129416
129431
129430
129428
129463
129462
129462
129475
129474
129473
129504
129503
129503
129515
129514
129513
129543
129542
129542
129554
129552
129551
129579
129578
129578
129588
129587
129585
129612
129611
129611
129620
129619
129618
129642
129642
129641
129650
129649
129647
129671
129670
129670
129677
129676
129675
129697
129696
129696
129702
129701
129700
129721
129721
129720
129726
129725
129724
129743
129743
129742
129747
129746
129745
129765
129764
129763
129768
129767
129766
129783
129783
129782
129786
129785
129784
129801
129801
129800
129803
129803
129801
129817
129817
129816
129819
129818
129817
129833
129832
129832
129834
129833
129832
129847
129846
129846
129847
129847
129845
129860
129859
129859
129860
129860
129858
129872
129871
129871
129872
129871
129870
129884
129883
129882
129883
129882
129881
129894
129893
129893
129893
129892
129891
129904
129903
129903
129903
129902
129901
129913
129912
129911
129911
129910
129909
129921
129920
129920
129919
129918
129917
129929
129928
129927
129926
129926
129925
129936
129935
129935
129933
129933
129932
129942
129941
129941
129939
129939
129938
129948
129948
129947
129945
129945
129944
129954
129953
129952
129950
129950
129949
129959
129958
129958
129955
129955
129954
129963
129962
129962
129959
129959
129958
129967
129967
129966
129963
129963
129962
129971
129970
129970
129967
129966
129965
129974
129974
129973
129970
129970
129969
129977
129976
129976
129973
129972
129971
129980
129979
129979
129975
129975
129974
129982
129981
129981
129977
129977
129976
129984
129984
129983
129980
129979
129978
129986
129985
129985
129981
129980
129979
129988
129987
129986
129982
129982
129981
129989
129988
129987
129983
129983
129982
129990
129989
129989
129984
129984
129983
129990
129990
129989
129985
129984
129983
129991
129990
129990
129985
129985
129984
129991
129990
129990
129985
129985
129984
129991
129990
129990
129985
129985
129984
129991
129990
129990
129985
129984
129983
129991
129990
129989
129985
129984
129983
129990
129989
129989
129984
129983
129982
129989
129988
129988
129983
129982
129981
129988
129987
129987
129981
129981
129980
129987
129986
129985
129980
129980
129979
129985
129984
129984
129978
129977
129977
129983
129982
129982
129976
129975
129975
129980
129980
129979
129973
129973
129972
129978
129977
129976
129970
129970
129969
129974
129974
129973
129967
129966
129966
129971
129970
129970
129964
129963
129962
129967
129967
129966
129960
129959
129958
129964
129963
129963
129957
129956
129955
129960
129960
129959
129953
129953
129952
129958
129957
129957
129951
129950
129949
129955
129955
129954
129949
129949
129948
129956
129955
129955
129952
129952
129951
129962
129961
129961
129960
129959
129958
129971
129969
129968
129970
129970
129970
130001
130000
129997
130055
130059
130061
130065
130065
130064
130065
130069
130029
129982
130040
130123
130054
129991
130048
130113
130088
130051
130032
130021
130015
130011
130009
130008
130008
130008
130007
130007
130006
130005
130004
130002
130000
129998
129996
129995
129993
129993
130002
130005
130009
130014
130020
130028
130038
130050
130065
130082
130101
130120
130137
130149
130155
130159
130165
130173
130184
130198
130214
130232
130252
130275
130301
130331
130365
130404
130448
130498
130555
130621
130694
130778
130871
130977
131095
131227
131373
131536
131715
131912
132128
132364
132618
132893
133187
133499
133830
134177
134539
134914
135300
135694
136095
136499
136905
137310
137713
138111
138502
138886
139260
139625
139978
140320
140650
140967
141272
141564
141844
142112
142367
142611
142843
143064
143274
143474
143664
143845
144016
144179
144333
144479
144618
144750
144875
144993
145105
145212
145312
145407
145497
145583
145663
145740
145812
145880
145945
146006
146063
146117
146169
146217
146262
146305
146345
146382
146417
146449
146479
146507
146533
146557
146578
146598
146616
146631
146645
146656
146666
146677
146692
146699
146701
146701
146710
146731
146744
146754
146765
146777
146790
146804
146819
146835
146853
146872
146892
146913
146935
146959
146983
147008
147034
147062
147089
147118
147147
147177
147207
147237
147268
147299
147330
147361
147392
147424
147455
147485
147516
147546
147576
147605
147634
147662
147690
147717
147743
147768
147792
147815
147837
147857
147877
147896
147913
147929
147944
147958
147971
147982
147992
147999
148003
148011
148021
148024
148026
148022
148020
148019
148019
148020
148021
148024
148026
148030
148034
148039
148044
148049
148056
148062
148070
148078
148086
148096
148106
148116
148127
148139
148151
148163
148176
148189
148202
148216
148231
148246
148261
148277
148294
148312
148330
148350
148370
148391
148413
148435
148458
148481
148504
148528
148553
148578
148603
148629
148657
148685
148714
148745
148777
148811
148846
148882
148919
148956
148995
149034
149074
149114
149155
149197
149240
149284
149328
149370
149408
149428
149436
149441
149445
149461
149498
149535
149555
149539
149548
149534
149542
149524
149525
149511
149512
149509
149512
149510
149508
149505
149500
149496
149491
149487
149484
149482
149480
149478
149478
149479
149481
149484
149488
149493
149499
149506
149513
149522
149531
149541
149550
149561
149571
149581
149590
149599
149606
149612
149617
149619
149614
149604
149602
149611
149607
149597
149592
149601
149595
149585
149571
149586
149590
149593
149579
149577
149573
149560
149563
149566
149553
149551
149547
149546
149533
149558
149577
149585
149577
149568
149559
149567
149557
149549
149540
149523
149541
149547
149538
149531
149523
149528
149519
149514
149508
149496
149508
149511
149504
149500
149495
149498
149492
149489
149487
149482
149486
149487
149483
149482
149481
149481
149479
149479
149480
149482
149480
149479
149479
149480
149483
149481
149483
149485
149488
149495
149490
149486
149489
149492
149498
149494
149498
149502
149504
149511
149510
149503
149506
149511
149520
149512
149512
149510
149533
149551
149521
149516
149511
149491
149514
149512
149506
149482
149519
149504
149544
149523
149517
149503
149569
149544
149546
149514
149512
149509
149562
149567
149532
149522
149552
149539
149514
149504
149487
149448
149503
149495
149468
149459
149455
149455
149440
149427
149408
149368
149422
149430
149413
149392
149379
149392
149356
149336
149319
149259
149312
149319
149276
149263
149234
149236
149193
149186
149192
149122
149156
149153
149112
149109
149078
149073
149033
149033
149050
148977
149002
148995
148956
148957
148927
148919
148882
148884
148905
148836
148855
148847
148812
148814
148787
148779
148746
148750
148771
148711
148724
148716
148686
148690
148667
148658
148631
148635
148656
148604
148613
148605
148579
148583
148563
148555
148530
148534
148555
148507
148514
148506
148482
148486
148467
148460
148436
148440
148460
148416
148422
148415
148393
148396
148379
148372
148352
148355
148374
148335
148339
148333
148314
148317
148303
148296
148279
148283
148300
148267
148269
148263
148248
148251
148239
148233
148218
148222
148237
148209
148210
148205
148191
148194
148183
148178
148165
148168
148182
148157
148158
148153
148140
148143
148134
148129
148118
148121
148133
148112
148112
148108
148098
148100
148093
148089
148080
148082
148093
148077
148076
148072
148064
148067
148061
148058
148051
148054
148063
148050
148049
148046
148040
148043
148039
148036
148031
148033
148040
148032
148030
148028
148025
148026
148024
148023
148021
148022
148025
148021
148021
148020
148020
148020
148020
148020
148022
148020
148017
148011
148021
148028
148036
148046
148057
148069
148084
148100
148119
148139
148162
148187
148213
148241
148271
148302
148337
148374
148415
148458
148503
148550
148597
148647
148700
148757
148819
148884
148952
149021
149088
149153
149215
149271
149323
149370
149415
149458
149491
149514
149525
149528
149526
149530
149542
149524
149507
149496
149485
149479
149477
149479
149484
149493
149504
149518
149496
149510
149524
149537
149540
149543
149535
149532
149528
149524
149528
149531
149530
149527
149522
149514
149499
149498
149515
149525
149531
149534
149542
149538
149531
149541
149550
149554
149569
149564
149553
149532
149511
149491
149481
149483
149472
149485
149476
149470
149460
149464
149459
149468
149473
149463
149459
149456
149458
149461
149469
149472
149467
149476
149478
149489
149491
149493
149478
149466
149471
149461
149476
149472
149477
149490
149511
149536
149560
149569
149581
149586
149602
149596
149584
149601
149613
149617
149627
149622
149612
149588
149563
149586
149600
149612
149621
149630
149633
149638
149638
149641
149637
149639
149636
149635
149631
149633
149631
149632
149629
149625
149630
149627
149628
149628
149625
149623
149625
149617
149605
149593
149580
149572
149556
149537
149514
149498
149491
149499
149504
149508
149518
149528
149543
149550
149564
149573
149580
149589
149593
149601
149603
149613
149615
149616
149625
149611
149603
149599
149594
149589
149581
149573
149564
149564
149557
149548
149548
149556
149540
149541
149535
149524
149527
149533
149534
149527
149521
149521
149516
149513
149507
149503
149505
149502
149504
149496
149514
149489
149508
149486
149502
149512
149507
149506
149501
149519
149517
149523
149526
149531
149521
149496
149511
149514
149508
149488
149454
149392
149449
149497
149524
149523
149562
149543
149581
149557
149533
149520
149525
149511
149505
149504
149502
149503
149503
149506
149508
149512
149511
149516
149508
149505
149503
149502
149501
149501
149503
149510
149513
149519
149533
149532
149520
149547
149543
149547
149575
149574
149561
149564
149581
149601
149594
149611
149607
149638
149603
149625
149615
149666
149665
149688
149668
149652
149633
149647
149623
149666
149686
149704
149685
149723
149707
149722
149699
149713
149701
149736
149737
149758
149742
149757
149789
149765
149750
149732
149709
149663
149614
149559
149483
149390
149301
149164
149302
149462
149499
149611
149648
149642
149713
149732
149746
149655
149685
149556
149504
149366
149473
149485
149277
149092
149246
149160
148984
149141
149419
149664
148862
148583
148571
148851
148754
148686
148491
148193
148112
147816
148119
146719
147398
147643
148180
148254
148660
148873
149069
149176
148984
148930
148529
148034
147886
147568
147194
146606
145863
145228
144327
144529
145306
145672
145106
144814
144840
145284
145314
145592
145648
145843
145918
146016
146136
146216
146302
146369
146433
146494
146546
146587
146637
146661
146707
146742
146759
146795
146804
146836
146844
146871
146871
146902
146890
146912
146923
146914
146931
146912
146924
146905
146917
146892
146901
146875
146881
146852
146858
146825
146827
146792
146794
146756
146754
146714
146713
146669
146662
146618
146611
146566
146554
146506
146491
146465
146465
146474
146523
146536
146576
146583
146629
146639
146675
146678
146721
146726
146757
146756
146793
146795
146821
146816
146849
146847
146867
146857
146885
146879
146893
146879
146901
146890
146898
146874
146861
146813
146839
146817
146875
146858
146828
146789
146831
146793
146748
146820
146784
146739
146681
146719
146666
146606
146689
146637
146577
146505
146536
146473
146401
146491
146425
146422
146405
146385
146337
146330
146275
146258
146196
146177
146124
146105
146039
146011
145955
145925
145885
145901
145928
145987
146003
146066
146092
146150
146161
146219
146242
146295
146300
146353
146373
146270
146226
146137
146079
145978
145917
145817
145836
145809
145777
145708
145683
145607
145580
145501
145467
145397
145361
145302
145213
145173
145096
145063
144982
144940
144852
144804
144721
144667
144598
144645
144696
144781
144825
144907
144954
145033
145073
145143
145186
145263
145331
145366
145436
145474
145537
145571
145642
145675
145739
145751
145693
145687
145595
145498
145602
145503
145401
145287
145402
145292
145185
145076
144962
144828
144704
144576
144557
144494
144433
144331
144280
144178
144124
144022
143960
143879
143936
143841
143759
143692
143587
143520
143411
143343
143231
143154
143032
142946
142853
142705
142621
142483
142395
142261
142171
142043
141951
141803
141697
141573
141680
141548
141405
141289
141144
141033
140851
140709
140547
140404
140251
140120
139938
139694
139530
139340
139192
138976
138812
138561
138352
138151
137962
137753
137557
137271
137013
136780
136536
136309
136060
135725
135389
135133
134839
134599
134927
134686
134230
133849
133504
133085
132838
132421
131881
131482
130922
130686
130199
129738
129069
128633
127906
127650
126930
126383
125389
125201
124293
123056
122630
121239
120963
119585
119233
117410
115743
115662
113556
111618
112057
109605
107689
105578
107551
105689
105478
105961
107329
110690
113875
115973
117256
118395
119296
120169
120826
121480
121985
122527
122939
123399
123737
124127
124404
124738
124966
125257
125446
125704
125864
126095
126230
126438
126555
126746
126846
127021
127107
127270
127344
127493
127559
127698
127755
127880
127932
128051
128095
128203
128243
128346
128381
128473
128505
128595
128622
128702
128726
128805
128825
128895
128914
128984
128998
129060
129074
129135
129145
129200
129209
129264
129271
129319
129325
129373
129377
129421
129424
129467
129469
129507
129509
129547
129547
129582
129581
129616
129614
129646
129643
129675
129671
129700
129696
129725
129720
129746
129741
129768
129761
129786
129780
129805
129797
129820
129813
129836
129828
129850
129841
129863
129855
129875
129866
129887
129878
129897
129887
129907
129897
129915
129905
129924
129914
129931
129921
129939
129928
129945
129934
129951
129940
129956
129945
129961
129951
129965
129954
129970
129959
129973
129962
129977
129966
129980
129968
129983
129971
129984
129973
129987
129975
129988
129976
129990
129978
129991
129979
129992
129980
129993
129980
129993
129981
129993
129981
129994
129981
129993
129981
129993
129981
129992
129979
129992
129979
129990
129977
129989
129976
129987
129974
129985
129972
129982
129969
129980
129967
129976
129963
129973
129960
129969
129956
129966
129953
129962
129949
129960
129947
129957
129945
129959
129948
129965
129958
129981
129979
130022
130075
130095
130043
130020
129977
129983
129968
129948
129964
129945
129942
129959
129947
129939
129958
129945
129944
129963
129955
129946
129965
129952
129951
129970
129961
129953
129972
129959
129958
129977
129967
129961
129979
129966
129965
129984
129974
129967
129985
129971
129970
129989
129979
129972
129990
129976
129974
129993
129982
129975
129993
129979
129977
129995
129985
129977
129995
129980
129979
129997
129986
129978
129996
129981
129979
129997
129986
129979
129996
129981
129979
129997
129986
129978
129995
129980
129978
129996
129984
129976
129994
129978
129976
129994
129982
129974
129991
129975
129973
129991
129979
129970
129988
129971
129969
129987
129975
129966
129983
129966
129964
129981
129969
129960
129977
129959
129957
129975
129962
129952
129969
129951
129948
129966
129953
129943
129960
129941
129938
129956
129943
129932
129948
129929
129926
129944
129930
129919
129935
129915
129912
129929
129915
129903
129919
129898
129895
129912
129898
129885
129901
129879
129875
129892
129878
129864
129879
129857
129852
129869
129854
129839
129854
129831
129826
129843
129827
129811
129825
129801
129795
129811
129795
129778
129791
129766
129759
129775
129758
129739
129752
129725
129718
129732
129715
129694
129705
129677
129669
129683
129665
129641
129651
129622
129612
129624
129606
129580
129588
129557
129545
129556
129537
129508
129514
129481
129467
129476
129455
129424
129427
129393
129376
129383
129361
129325
129326
129291
129270
129274
129250
129210
129207
129170
129146
129147
129120
129074
129067
129028
129000
128996
128967
128916
128904
128862
128827
128819
128787
128729
128712
128667
128625
128610
128575
128509
128485
128436
128386
128364
128326
128249
128217
128164
128102
128071
128029
127940
127898
127840
127764
127721
127674
127571
127516
127450
127357
127297
127245
127124
127050
126976
126862
126778
126720
126578
126475
126391
126252
126132
126064
125891
125747
125648
125470
125298
125214
124993
124785
124674
124426
124167
124076
123758
123441
123306
122941
122554
122448
121969
121503
121452
120799
120215
120272
119288
118437
118452
117176
115767
115513
113708
111557
113223
109155
108666
112745
108499
108704
113239
109967
111133
109419
111193
112882
115071
117377
114305
113076
115119
114336
116056
118491
116481
118063
117600
119279
120934
120882
122236
122412
123838
124057
125141
125719
126114
126207
127169
127361
128237
128433
129196
129417
130144
130417
131046
131262
131850
132097
132614
133122
133321
133766
134000
134458
134892
135057
135295
135495
135855
136079
136406
136597
136892
137076
137364
137549
137810
137991
138235
138388
138624
138796
139018
139177
139375
139533
139729
139884
140095
140266
140413
140573
140720
140878
141010
141148
141286
141417
141500
141667
141801
141920
142036
142153
142263
142369
142477
142589
142686
142800
142937
143019
143129
143209
143322
143397
143496
143567
143671
143737
143742
143583
143410
143234
143043
142860
142772
142852
142617
142427
142572
142365
142182
141998
142139
141920
141728
142203
142317
142610
142696
143027
143219
143371
143575
143715
143885
144055
144202
144303
144391
144433
144351
144359
144212
144425
144656
144658
144903
144911
145135
145119
145349
145344
145543
145519
145739
145866
145898
146019
146063
146171
146191
146299
146330
146421
146428
146519
146540
146615
146610
146680
146691
146744
146723
146770
146767
146792
146756
146776
146793
146828
146819
146769
146759
146731
146724
146679
146694
146718
146782
146670
146675
146647
146618
146573
146541
146491
146434
146367
146326
146231
146152
146040
145985
146194
146279
146420
146429
146511
146574
146545
146600
146641
146532
146637
146400
146504
146325
146003
145825
145600
145672
145335
145572
145979
146546
146174
146106
146153
146778
146658
147136
146591
147506
147356
147000
146973
147126
146793
146675
146292
145908
146142
145820
146174
146533
146622
146857
146827
146916
146767
146707
146646
146636
146710
146746
146760
146725
146725
146728
146672
146654
146555
146508
146378
146302
146148
146041
145863
145723
145940
146023
146198
146257
146406
146447
146565
146596
146673
146707
146728
146792
146915
146892
146777
146730
146650
146563
146496
146385
146318
146180
146102
145940
145844
145741
145629
145407
145262
145018
144837
144563
144344
144290
144182
144003
143750
144044
143424
143097
143412
143724
144024
144283
144007
143733
143430
143090
142714
142358
141900
141415
141246
140988
141209
140666
140395
140039
139940
140122
139736
139335
139213
138947
138648
138835
138467
138198
137856
137632
137342
136988
137161
136711
136407
135996
135651
135327
136178
136650
137212
137554
138069
138348
138773
139056
139443
139676
140358
140684
140844
139857
139071
138526
137623
136999
136334
135654
135281
135196
135871
134216
134540
133669
132812
132334
132364
131640
131329
130804
129917
129643
129131
128964
128060
127852
127390
127002
128306
128940
130156
130476