/*--------------------------------*- C++ -*----------------------------------*\
| =========                 |                                                 |
| \\      /  F ield         | OpenFOAM: The Open Source CFD Toolbox           |
|  \\    /   O peration     | Version:  v2006                                 |
|   \\  /    A nd           | Website:  www.openfoam.com                      |
|    \\/     M anipulation  |                                                 |
\*---------------------------------------------------------------------------*/
FoamFile
{
    version     2.0;
    format      ascii;
    class       volScalarField;
    location    "0.032";
    object      omega;
}
// * * * * * * * * * * * * * * * * * * * * * * * * * * * * * * * * * * * * * //

dimensions      [0 0 -1 0 0 0 0];


internalField   nonuniform List<scalar> 
9148
(
0.0104034
0.0104033
0.0104032
0.0104032
0.0104032
0.0104028
0.0103998
0.0103914
0.0103769
0.0103579
0.0103362
0.010313
0.0102887
0.0102629
0.0102354
0.0102061
0.0101748
0.0101416
0.0101064
0.0100694
0.0100306
0.0099901
0.00994788
0.00990404
0.00985866
0.0098118
0.00976356
0.00971402
0.00966329
0.00961146
0.00955864
0.00950492
0.00945042
0.00939525
0.00933951
0.00928333
0.00922682
0.0091701
0.0091133
0.00905653
0.00899994
0.00894364
0.00888779
0.00883252
0.00877794
0.00872421
0.00867163
0.00862188
0.00858582
0.00862853
0.00886545
0.0096784
0.0121753
0.0194657
0.0400198
0.0961105
0.245248
0.629464
1.53389
3.26239
5.03112
7.6652
10.1511
12.3209
10.0325
25.9542
62.8143
165.985
630.654
5035.52
26812.3
353629
339523
52184.6
12647.3
18942.7
65184.7
328378
318914
70820.4
23010.9
25923.6
72360.1
306998
299706
74402.3
27988.4
29784
74344.8
291975
287027
75048.6
30648.7
31590.4
74709.3
281721
277618
74078.3
31901.6
32577.8
73937.8
273126
270068
73351.3
32613.7
33052.7
73264.7
266523
264101
72782.4
33037.1
33366.1
72750.8
261162
259146
72367.3
33330
33602.7
72375.6
256625
254873
72072.1
33555
33793.5
72103
252642
251070
71851.4
33738.7
33954.6
71897.7
249040
247592
71681.1
33895
34095.2
71736.9
245703
244338
71541.9
34032
34220.1
71602.4
242546
241236
71418.3
34154.1
34332.1
71480.2
239511
238236
71299.4
34263.7
34433
71360.5
236554
235299
71177.9
34362.3
34523.8
71236.5
233641
232393
71048.5
34451.3
34606
71103.3
230746
229495
70907.4
34531.9
34680.4
70957.7
227845
226583
70752
34605.1
34748.3
70797.1
224919
223637
70580.2
34672.1
34810.8
70619.7
221949
220638
70390.9
34734.1
34869.3
70424.4
218915
217568
70183.2
34792.5
34925.6
70210.5
215799
214406
69956.6
34848.9
34980.5
69977.3
212578
211129
69710.1
34904.4
35035.3
69723.8
209229
207713
69442.3
34960.7
35091.4
69447.8
205727
204132
69151.2
35018.6
35150.4
69146.4
202047
200361
68834.7
35079.7
35213.5
68816.8
198162
196374
68488.4
35145.8
35284
68458.2
194045
192140
68115.7
35220.7
35366.7
68073.3
189660
187620
67715.2
35309.4
35468.4
67663.1
184966
182768
67296.3
35420.6
35602.1
67238.6
179907
177515
66871
35568.8
35787
66814.1
174407
171767
66458.3
35776.2
36043.1
66413
168360
165376
66092
36077.6
36425.9
66073.4
161628
158125
65849.4
36543.2
37039.2
65883.2
153931
149683
65830.8
37304.8
38069.3
66032
144824
139451
66221.9
38651.3
39935.4
66856.7
133426
126398
67675.4
41296.3
43897.5
69439.4
119347
107562
72466.2
47720.9
55922.1
79111.4
94462.7
101034
75331.6
59282.4
60400.7
60074.7
108797
111980
46527.9
53105.1
42110.6
38169.9
112758
107855
29922.3
32015.7
22223.8
20992.1
95024.8
89219.2
17298.3
13323.1
11548.5
22664.3
87625.9
87086
27338.2
13239.2
14736.6
32806.1
86932.5
88654.7
34003.1
14810.6
13871.7
34130.8
90459.2
92264.1
29379.9
11450.6
10571.7
27303.5
93062.4
93332.5
24040.9
9768.51
9647.3
23403.4
92802.6
92004.3
23497.8
10025
11124
25558
90974.3
90460.8
27307.7
11938.3
13056
29726.1
90253.2
90621.4
31426.1
13648.8
13889.7
32341.8
91459.6
92526.2
32774.5
14012.6
13836.4
32828.7
93794.9
95152
32573.3
13563.8
13069.3
31986.6
96545.7
97890.7
31305.5
12690.4
12076.2
30353.2
99164.4
100309
29422
11682.6
11050.6
28248.2
101331
102177
27181.1
10690.9
10096.2
25888.9
102877
103382
24773.7
9797.32
9270.35
23448.4
103665
103768
22383.1
9048.97
8636.73
21178
103762
103444
20435.5
8487.74
8205.93
19627.8
102975
102244
19004.4
8077.83
7871.18
18203.4
101352
100206
17635.7
7790.42
7676.83
16889.4
98966.1
97369.4
16345.4
7660.28
7645.34
15688.7
95966
93479.6
15148.6
7702.09
7806.08
14562.1
91290.5
87046.5
13988.9
7974.15
8232.53
13353.1
84779.5
81535
12723.3
8495.93
8565.93
11723.3
79328
40989.3
7577.8
8562.35
10255.8
11753.9
13173.9
13971.7
14900.3
15482.6
16006.5
16383.6
16667.1
16895.2
17050.6
17155.9
17184.3
17129.8
16883.3
16595
15901.3
15261.4
14499.9
15024.3
20645.1
43532.4
29213.3
19140.3
17984.7
22039.2
121845
399263
80228.7
28136.5
24869.5
98753.1
778030
566591
85836.3
22104.5
22209.7
80724.9
497590
494359
80358.6
23055.3
26539.2
86726.1
500488
507296
81724.1
26023
26507.3
79415.5
513696
521133
74821
31361.8
39612.1
78441.7
527779
528245
84530.4
48256
58807.1
96604.7
528031
527417
101377
72191.4
79068.1
106316
527333
527042
116236
75340.4
75562.4
135995
526601
526801
147338
73636.8
72227.7
153290
526361
527302
152290
67794.5
67623.2
154810
528210
530026
150957
63588.1
63951.2
152823
531635
533837
148012
60782.6
61537.8
150369
535905
538621
144994
59168.7
60280.4
147721
540923
543990
142267
58436.8
59886.6
145842
546693
550363
140588
58215.6
59627.3
144358
553627
558447
139170
57777.3
58807.6
142027
562842
568380
132705
55864.3
56555.4
133076
571406
563499
123640
53298.8
53867.4
123066
546446
527182
115655
50686.8
50792.1
112582
496196
465043
103732
47738.7
47892.5
100613
429312
396573
93578.3
45765.1
46440.5
94820.4
352243
525827
93685
47573.7
94496.2
217107
800002
552372
109838
51741.2
49148.3
102124
446779
391494
92119.9
44681.6
43565.9
88204.4
350983
502722
104022
50186.5
70190.8
152585
739850
534378
116550
55959
40680.6
89531.3
486673
574232
193801
97228.9
76958.6
159029
846740
614681
105404
46894.4
64831.4
94224.2
651948
1.27662e+06
400851
173476
97173.6
184740
1.21838e+06
957774
196062
90426.7
68101
45385.5
938352
1.20126e+06
690352
311372
263988
507704
1.3822e+06
794265
265190
163866
194214
329076
758555
1.22326e+06
637876
370145
240097
310528
1.08618e+06
961065
516254
319308
209516
264215
878429
786782
434196
272827
180099
248082
680703
595894
265559
182402
279098
497069
971944
836497
214286
185787
238680
381297
749152
620339
206086
156154
157243
222942
531564
918152
447907
245287
163157
184436
800252
751635
357164
217139
144803
167519
664770
634676
321742
194368
129190
177617
542624
484114
200684
133320
224755
427422
885135
776373
169570
146161
203227
347242
748876
683659
153652
136162
191082
324835
674528
628431
152880
128727
182963
315093
632560
586321
151793
123835
174121
297177
581922
504167
164403
114246
119311
188512
461475
863282
411110
213271
138771
159341
762229
752906
345287
199122
132242
147829
685738
695483
331741
192755
127028
154286
653210
671420
328430
187261
125268
151729
646477
666958
328546
186553
125461
151658
637767
667875
326593
186785
125545
153869
639922
658533
327501
186648
126162
151998
631218
663279
329884
188066
127172
155407
645889
671432
333178
189360
128418
155431
643790
678278
338418
192540
130397
158995
660604
692244
344913
196142
132884
161019
669412
707636
353889
200470
135556
165331
688810
724854
362680
205642
139452
168145
707295
755609
379904
213604
147384
170986
772320
857247
431861
234762
175744
312001
922976
496452
167186
120423
177677
294336
572834
602600
143489
128276
189198
320540
645261
637196
154675
131359
197733
344753
682036
677710
163276
136411
206646
363155
721870
697885
174073
142024
215181
377617
742797
742832
176143
148011
229282
409703
808898
825480
185906
159498
255397
465181
914807
989232
338259
192226
131680
183360
539704
623796
322186
195293
140108
157516
646095
697690
351570
208733
144135
169458
687815
739173
379615
219329
151450
178186
732790
794742
411027
233337
163267
190295
808279
901722
468115
261063
197403
344223
989935
550188
187086
137819
203362
333680
643896
676503
166336
148656
221064
374943
737535
731715
184264
155177
234519
406406
791494
781300
194982
163985
250761
439597
850226
875161
204413
178277
283499
505669
986754
1.06422e+06
370470
215230
149554
203999
594605
695803
359336
220589
159174
179578
714808
784559
399534
237790
165526
194836
771911
848025
440624
253920
180186
207860
859792
963667
502963
285182
216766
373912
1.04563e+06
593461
207053
152046
223906
363392
696694
730782
184301
164684
246412
413934
810043
794967
204185
173669
262210
451740
868867
847730
220619
184077
280877
486198
930041
932227
229654
199925
314103
550875
1.04972e+06
1.12808e+06
408086
240902
166927
227014
637338
746938
393276
245609
177965
201599
770620
853030
440906
265132
184909
219906
832330
914282
478510
279354
195283
235990
886790
978207
514439
298128
211878
247936
971297
1.0993e+06
581564
332530
254203
434892
1.19503e+06
690178
240784
179538
263558
425319
814822
831110
219452
192065
285286
479496
922152
895782
242187
202178
302807
517318
988571
952547
256626
213509
321968
552476
1.0489e+06
1.02856e+06
269937
229195
354920
616559
1.16534e+06
1.23773e+06
461898
272906
190123
256150
713286
837005
442729
278852
199598
232567
843307
937459
491215
295990
207229
252173
891287
982158
522798
310065
216540
263396
932698
1.02562e+06
548873
324576
226016
278868
971108
1.06208e+06
563784
335830
234402
287248
996567
1.0957e+06
580421
346687
242211
292751
1.02555e+06
1.13217e+06
603553
359988
251139
305259
1.06631e+06
1.17131e+06
619345
371110
258789
314241
1.09336e+06
1.2073e+06
637517
382070
267584
316826
1.1361e+06
1.27171e+06
676444
400713
284367
334087
1.22549e+06
1.39578e+06
744836
434721
333232
558369
1.46622e+06
846918
313843
230579
335051
526385
987036
963838
279118
238184
347769
554882
1.0553e+06
913948
330304
226111
245154
389812
913672
1.60541e+06
822315
455568
306681
348931
1.38185e+06
1.48751e+06
749973
456571
297734
371906
1.29467e+06
1.40298e+06
742226
444451
298536
376088
1.25688e+06
1.39213e+06
739892
445333
301726
374196
1.25811e+06
1.38034e+06
738281
446125
302671
380604
1.2335e+06
1.35429e+06
725948
445345
302051
367720
1.21008e+06
1.32022e+06
716007
445862
281282
419877
1.10324e+06
1.09445e+06
475804
300539
546243
973283
1.90729e+06
1.58449e+06
417360
357127
525630
858035
1.69274e+06
1.39523e+06
435617
336446
491386
770142
1.47871e+06
1.19033e+06
449141
295988
313244
495921
1.14761e+06
1.88853e+06
994034
565610
333039
476150
1.435e+06
1.32594e+06
508046
334998
594997
1.06913e+06
2.09346e+06
1.47231e+06
467831
339393
353226
580322
1.31684e+06
1.71935e+06
547060
365400
717142
1.39477e+06
2.66801e+06
1.74982e+06
572788
383149
377104
625958
1.49962e+06
1.73433e+06
717678
413129
418937
754095
1.90373e+06
1.98598e+06
798896
427421
424341
812422
1.95133e+06
1.90806e+06
821543
428727
420811
803513
1.82404e+06
1.73261e+06
799195
421363
406802
765431
1.64404e+06
1.56038e+06
761395
406800
392423
732737
1.48114e+06
1.41152e+06
730853
393188
382031
708818
1.34951e+06
1.29481e+06
708331
383673
375288
690022
1.24658e+06
1.20359e+06
689723
377674
371289
673211
1.16578e+06
1.13194e+06
672327
373943
368661
655667
1.10265e+06
1.07642e+06
654004
371513
366874
637091
1.0544e+06
1.03459e+06
634712
369544
365015
617193
1.01876e+06
1.00418e+06
614330
367547
362997
596677
993544
982828
593499
365146
360248
575601
976674
968124
572316
362093
356945
554799
966709
960419
551609
358382
352787
534371
960805
956821
531499
353928
348061
515570
957977
955125
513371
348886
342752
498799
956771
954592
497240
343398
337271
484381
956556
954612
483589
337716
331494
472055
957036
955178
471784
331845
325694
461761
957837
956071
462047
325939
319757
452989
958941
957284
453529
319976
313930
445545
960362
958819
446478
314097
308068
439029
962091
960661
440118
308252
302380
433433
964077
962751
434838
302550
296724
428402
966266
965035
429890
296944
291304
424003
968613
967460
425760
291536
285975
419944
971048
969964
421744
286280
280928
416359
973533
972504
418400
281260
276010
412989
976003
975024
415049
276430
271401
410013
978446
977508
412297
271857
266943
407185
980817
979916
409476
267496
262803
404695
983125
982259
407204
263395
258819
402297
985343
984508
404825
259512
255144
400152
987480
986680
402949
255874
251623
398169
989521
988751
400990
252458
248388
396438
991479
990734
399520
249258
245279
394838
993324
992599
397928
246257
242457
393464
995062
994353
396805
243488
239735
392207
996671
995973
395546
240865
237337
391166
998167
997483
394730
238489
235027
390197
999553
998875
393731
236283
232969
389408
1.00082e+06
1.00016e+06
393154
234248
231002
388675
1.00198e+06
1.00132e+06
392387
232380
229268
388123
1.00304e+06
1.00238e+06
392036
230661
227601
387613
1.004e+06
1.00335e+06
391482
229088
226147
387271
1.00488e+06
1.00425e+06
391329
227642
224738
386952
1.0057e+06
1.00508e+06
390955
226322
223524
386786
1.00647e+06
1.00586e+06
390964
225108
222335
386622
1.00719e+06
1.00659e+06
390737
224004
221324
386600
1.00787e+06
1.00729e+06
390879
222987
220269
386558
1.00853e+06
1.00795e+06
390763
222049
219446
386643
1.00916e+06
1.00859e+06
391002
221211
218544
386693
1.00976e+06
1.00921e+06
390971
220428
217876
386861
1.01035e+06
1.00981e+06
391285
219737
217114
386982
1.01092e+06
1.01038e+06
391319
219089
216575
387212
1.01147e+06
1.01095e+06
391686
218519
215929
387380
1.01202e+06
1.0115e+06
391761
217980
215495
387648
1.01255e+06
1.01205e+06
392159
217508
214944
387846
1.01307e+06
1.01257e+06
392264
217060
214598
388145
1.01359e+06
1.01309e+06
392688
216671
214126
388366
1.01409e+06
1.0136e+06
392812
216298
213854
388683
1.01459e+06
1.01411e+06
393250
215979
213448
388917
1.01507e+06
1.0146e+06
393385
215670
213238
389245
1.01556e+06
1.01509e+06
393830
215408
212887
389485
1.01603e+06
1.01556e+06
393970
215151
212729
389818
1.0165e+06
1.01604e+06
394419
214938
212426
390061
1.01696e+06
1.0165e+06
394561
214728
212313
390397
1.01742e+06
1.01696e+06
395010
214557
212050
390638
1.01786e+06
1.01741e+06
395150
214384
211974
390972
1.01831e+06
1.01785e+06
395595
214247
211744
391209
1.01874e+06
1.01829e+06
395730
214107
211701
391539
1.01917e+06
1.01872e+06
396170
214001
211500
391771
1.01959e+06
1.01914e+06
396300
213888
211484
392096
1.02001e+06
1.01956e+06
396733
213806
211306
392321
1.02041e+06
1.01997e+06
396855
213716
211313
392639
1.02082e+06
1.02038e+06
397281
213657
211157
392857
1.02122e+06
1.02078e+06
397396
213587
211183
393168
1.02162e+06
1.02118e+06
397814
213545
211043
393376
1.02201e+06
1.02157e+06
397920
213491
211086
393680
1.02239e+06
1.02196e+06
398329
213464
210962
393880
1.02277e+06
1.02234e+06
398427
213426
211019
394176
1.02315e+06
1.02272e+06
398827
213412
210906
394367
1.02353e+06
1.0231e+06
398916
213383
210974
394653
1.0239e+06
1.02347e+06
399306
213379
210871
394834
1.02427e+06
1.02384e+06
399384
213360
210948
395110
1.02464e+06
1.02421e+06
399763
213362
210850
395278
1.02501e+06
1.02458e+06
399828
213347
210931
395543
1.02538e+06
1.02497e+06
400196
213355
210838
395702
1.02577e+06
1.02535e+06
400253
213345
210924
395958
1.02616e+06
1.02575e+06
400613
213355
210834
396109
1.02655e+06
1.02615e+06
400664
213348
210924
396363
1.02696e+06
1.02656e+06
401025
213365
210844
396518
1.02736e+06
1.02696e+06
401082
213370
210949
396781
1.02777e+06
1.02737e+06
401457
213404
210886
396950
1.02816e+06
1.02775e+06
401609
213450
210976
397205
1.02852e+06
1.02809e+06
401802
213434
211002
397222
1.02835e+06
1.02731e+06
401866
213415
210991
397667
1.02799e+06
1.02692e+06
402089
213445
210784
397317
1.02546e+06
1.02305e+06
401450
213109
208914
394161
1.01798e+06
1.01159e+06
397665
210985
205259
388170
1.00179e+06
991736
389968
206637
198914
378504
963187
922581
358970
184933
174349
341509
886433
78874.1
39378.5
26760.8
25287.6
18734.3
14147.9
12057.4
11599.5
9517.36
7510.19
6219.71
5095.75
4043.93
3078.39
2236.55
1580
1108.6
788.695
574.809
431.004
332.62
263.896
214.818
179.135
152.703
133.105
118.447
107.913
100.494
95.7199
92.9475
91.691
90.6136
88.7454
86.252
83.3223
80.1582
76.8389
73.4747
70.0503
66.5838
63.0465
59.4248
55.693
51.8226
47.7676
42.5938
34.9801
25.4738
16.5358
9.80136
5.3958
2.77527
1.36265
0.680261
0.376631
0.252557
0.205653
0.18875
0.182464
0.179733
0.177983
0.176267
0.1746
0.172929
0.17123
0.169477
0.167649
0.165724
0.163682
0.161506
0.159176
0.156679
0.154
0.151129
0.148057
0.144781
0.1413
0.137619
0.133748
0.1297
0.125495
0.121156
0.116708
0.112182
0.107607
0.103015
0.0984363
0.0939004
0.0894341
0.0850617
0.0808045
0.0766803
0.0727034
0.0688848
0.0652325
0.0617515
0.0584441
0.0553105
0.052349
0.0495562
0.0469277
0.0444577
0.0421401
0.0399679
0.0379343
0.0360317
0.034253
0.0325908
0.0310383
0.0295884
0.0282349
0.0269711
0.0257915
0.0246901
0.0236619
0.0227018
0.0218053
0.020968
0.0201859
0.0194552
0.0187726
0.0181346
0.0175385
0.0169813
0.0164607
0.0159741
0.0155194
0.0150945
0.0146976
0.0143269
0.0139808
0.0136577
0.0133562
0.013075
0.0128128
0.0125685
0.0123411
0.0121296
0.0119332
0.0117509
0.0115822
0.0114263
0.0112827
0.011151
0.0110306
0.0109211
0.010822
0.0107331
0.0106539
0.010585
0.0105269
0.0104798
0.0104422
0.0104169
0.0104056
0.0104036
0.0104042
0.0104067
0.0104134
0.010426
0.0104416
0.0104545
0.0104606
0.0104596
0.0104539
0.010445
0.0104341
0.0104211
0.0104061
0.0103888
0.0103691
0.0103469
0.0103223
0.0102953
0.010266
0.0102343
0.0102004
0.0101642
0.0101259
0.0100856
0.0100432
0.00999886
0.00995272
0.00990483
0.00985527
0.00980415
0.00975155
0.00969758
0.00964233
0.0095859
0.00952841
0.00946998
0.00941073
0.00935076
0.00929025
0.00922946
0.00916917
0.0091121
0.00906927
0.00907753
0.00926612
0.0100118
0.0123412
0.0192412
0.0389419
0.0935043
0.239476
0.620049
1.57554
3.87433
9.12699
20.0814
39.1492
64.8269
93.7269
138.09
299.738
1096.96
2447.97
6938.77
7991.36
8567.66
9379.72
9763.86
10400.7
10665.5
11185
11373.7
11802.6
11948.8
12303.9
12419.1
12718.9
12811.1
13069.6
13144.7
13372
13433.9
13636.8
13688.4
13872.2
13915.7
14084.2
14121.3
14277.8
14309.9
14456.8
14485.1
14624.6
14650.1
14784
14807.6
14937.6
14960.1
15087.8
15110
15237
15259.8
15387.5
15411.6
15541.7
15567.8
15701.6
15730.5
15869.3
15901.8
16047.6
16085
16240.3
16284.2
16452.2
16504.6
16689.5
16753.9
16962.7
17043.9
17286.1
17391.6
17682.3
17824.5
18188.4
18389.7
18871.9
19175.7
19863.6
20364.1
21445.5
22379.4
24321.1
26429.8
30967.2
34599.8
40360.6
44327
43115
40551.8
35216.8
24102
12730
8420.06
6822.48
6228.8
5846.82
5202.43
5037.38
4880.98
4972.53
5108.21
5407.51
5616.01
5905.66
6048.31
6100.85
6103.92
5956.93
5824.03
5621.39
5459.9
5260.55
5121.42
4957.37
4863.12
4753.42
4705.28
4667.64
4661.63
4673.28
4729.87
4770.33
4873.38
4951.48
5110.35
5239.64
5471.81
5675.11
6017.59
6335.51
6878.92
7417.07
8276.34
9290.01
9853.86
9965.83
7513.58
8067.27
6961.41
6117.79
5411.65
6316.72
5583.74
4774.83
4266.62
5259.4
6641.37
9451.94
8814.39
5879.3
4748.24
4345.05
5336.19
8064.55
7466.62
5048.66
4313.33
3833.85
3387.13
3719.09
4598.75
5293.97
4880.75
4214.67
4169.69
4720.41
4435.79
3868.56
3405.21
3186.1
3864.12
4337.59
4126.34
3614.47
3622.65
4064.24
3904.4
3421.19
3023.11
2895.72
3439.33
3867.3
3752.87
3275.97
3303.96
3736.64
3663.86
3175.23
2804.19
2733.94
3214.37
3664.79
3641.11
3111.66
3166.25
3662.36
3660.13
3086.66
2718.18
2739.87
3165.77
3724.88
3742.71
3110.83
3232.91
3849.69
3879.91
3175.63
2788.52
2885.87
3315.8
4011.6
4045.42
3249.8
3381.42
4160.7
4184.52
3338.24
3100.55
3753.14
3452.54
4218.65
4212.31
3531.71
3673.39
4175.59
4203.82
4163.81
5751.85
12123
4664.4
4226.63
4479.65
7027.95
8243.49
4564.12
5037.19
9023.61
15044.7
16550.1
10935.9
5511.5
6700.34
13467.3
19896.2
9399
13142.2
21043.2
17794.9
16174.5
23087.7
23763.6
25082.4
23636.9
23386.9
29307.7
31009.6
21587.1
13106.5
10562.6
18445.4
30601.1
28652.4
18033.8
14521.8
24432.3
22814.2
14686.8
8890.24
7659.46
11987.4
19288.4
17963.2
12158.2
10281.3
15667.1
14897.6
10493.8
6832.04
6196.33
9178.47
13607.2
13228.4
9443.68
8444.72
12394.9
12218.3
8743.22
5729.58
5345.93
7921.43
11615.3
11541
8243.82
7525.44
11067.6
11050.9
7861.84
5034.46
4770.96
7207.49
10651.3
10665
7552.36
6948.04
10317.2
10347.3
7292.15
4540.21
4334.47
6723.12
10038.1
10079.4
7066.37
6523.41
9797.3
9846.46
6865.52
4148.04
3976.83
6342.74
9583.67
9638.39
6683.32
6176.84
9389.51
9448.09
6515.29
3817.94
3669.26
6022.28
9209.93
9272.08
6357.27
5875.29
9041.7
9106.33
6208.18
3529.59
3397.63
5733.41
8881.38
8947.74
6065.1
5595.36
8726.3
8793.73
5924.4
3272.08
3151.75
5459.38
8574.36
8642.29
5783.09
5322.4
8424.01
8492.15
5641.03
3034.66
2919.2
5184.53
8273.87
8341.81
5498.22
5045.85
8122.29
8189.46
5353.45
2804.04
2688.38
4905.07
7967.46
8033.29
5205.42
4760.99
7807.6
7871.48
5052.87
2571.46
2452.6
4612.47
7640.88
7702.16
4894.61
4458.4
7465.4
7523.37
4729.49
2331.18
2206.74
4297.75
7279.09
7332.95
4556.38
4129.55
7079.68
7128.48
4374.39
2079.25
1949.56
3952.72
6864.43
6906.87
4183.07
3764.79
6629.44
6664.16
3978.43
1816.41
1678.42
3563.73
6370.76
6396.11
3758.15
3347.46
6083.87
6097.68
3519.5
1534.54
1384.2
3113.33
5763.37
5763.17
3259.02
2857.55
5398.42
5374.89
2972.2
1226.69
1061.34
2577.75
4980.09
4927.22
2655.95
2268.31
4493.98
4404.97
2302.72
886.877
700.847
1925.02
3924.81
3776.2
1901.95
1540.71
3261.66
3001.83
1431.64
502.304
229.548
326.933
421.997
513.327
601.893
688.505
773.671
857.571
940.482
1024.11
1108.05
1192.15
1276.31
1360.57
1445.13
1530.25
1616.3
1703.71
1792.97
1884.52
1979.37
2076.51
2177.29
2283.1
2395.46
2516.03
2646.8
2790.26
2949.6
3128.71
3333.15
3568.87
3847.58
4178.65
4577.62
5081.54
5684.16
6580.23
7608.25
9547.16
11161.5
13262.2
13608.6
13011
11601.4
7926.39
4251.53
3098.84
2697.38
2550.65
2503.37
2493.53
2543.98
2626.27
2744.29
2899.63
3104.73
3001.06
3285.11
3726.26
4185.46
4880.76
6937.39
6597.32
4849.33
4296.91
4273.69
4869.12
6431.19
6383.55
5050.28
4581.62
3838.75
3331.76
3609.1
4167.86
4615.53
5213.74
6565.29
6762.88
5546.5
5067.21
5197.99
5807.13
7042.58
7398.98
6329.29
5798.25
4678.39
4052.72
3636.2
3240.92
3012.75
2788.26
2793.21
2631.02
2503.98
2477.48
2616.89
2754.47
2971.24
3333.08
3087.13
2915.88
2579.84
2480.19
2371.88
2407.12
2367.22
2362.65
2457.75
2399.14
2546.57
2871.98
3992.19
2842.5
2504.86
3009.05
2849.99
3677.93
3687.42
3787.15
4011.21
4335.5
4804.32
5541.94
6092.03
6740.83
7784.65
8319.2
7495.96
6866.78
7547.74
8179.78
8829.05
9437.8
9517.57
8941.41
7249.55
6222.73
8592.91
9783.76
10545.7
11253.7
11111
9802.61
9678.96
13306.8
10030
10193.6
12239.2
9679.27
8092.51
8048.14
9339.72
9949.96
10125.3
13217.7
16086.5
18708.2
13778.8
12074.3
14708.3
21186.3
22242.5
24425.2
16219.1
14796.5
13171.1
12138.8
8628.95
7742.93
5656.84
5314.65
5112.4
5004.31
6891.85
7302.99
7044.31
7541.4
7299.6
7924.33
10923.7
11331
16589.2
19675.9
18395.8
22711
21542.2
25306.2
24101
26183.9
37791.1
29964.7
42161
44582.5
43247.6
42367.7
36630.9
35597.9
31446.2
31267.8
17879.8
15637.5
16884
28430.8
28179.2
26304.5
15108.5
10585.4
10420.3
14935.8
16412.9
26821.7
25380.5
26030.5
16259.9
14857.9
10228.9
10139.2
9972.14
9884.1
7190.13
6851.6
4997.63
5317.27
4065.93
4968.22
3782.04
5350.19
7285.51
6144.12
4250.33
2993.41
4362.74
7050.73
9274.49
7766.63
10340.1
10156.5
9437.33
9197.57
8278.41
8435.74
8777.05
8334.45
7556.97
8266.53
8319.32
7808.81
6439.96
7241.96
6026.09
7337.43
7374.41
6996.58
7222.9
9625.43
9706.22
14623.3
16049.2
14781.1
16200.3
14822.1
16235.8
14874.9
16255.4
25838.3
25007.4
24909.5
25743.8
24833.6
25649.2
24617.9
25387.5
24017.2
24848.2
15794.7
14444.5
15491.5
24106.2
23402.4
22737.2
14256
9487.74
9532.55
14045.3
15175.1
23325
22048.1
22478.7
14792.6
13750.8
9461.57
9435.69
7808.1
8071.39
8509.07
9524.89
9338.98
11866.3
12600.5
12950.3
14117.8
21229.9
21188.5
19451.7
16094.4
24751.4
31499.1
23726.7
15464.1
14922.2
11866
11520.2
11576.6
14030.8
14260.2
21168.5
22333.9
19810.9
31421.9
27710.6
17098.2
12856.3
10975.6
9468.19
8656.21
8177.79
8471.45
8089.2
6742.31
6269.61
7740.49
9179.62
8994.04
9676.79
11980.9
10930.1
12451.9
16245.9
25066.6
21614.7
15952.5
15782.8
20813.9
17084.6
13363.6
10685.2
10040.9
11499.4
12257.7
13882.5
19615.7
27297.6
29879.8
33877.2
32482.6
25037.3
17050.3
13957.2
13026.3
11254.8
13808.8
17413.6
24314.1
39450
57100.2
46638.9
29978.5
18462.3
12410.7
8537.39
8715.16
7962.85
8019.81
8402.92
9106.13
6246.17
5949.22
5247.39
8424.89
12023.8
19696.3
29744.3
53962.8
44775.4
146386
95242.1
38566.3
28287.3
61640.2
86627.3
184897
98660.2
169699
95384.3
149008
99252.3
106451
153998
96190.5
131142
90257.6
94984.8
133917
85858.2
120185
77802.5
107088
74800.6
79642.8
115642
76448.4
108086
70722.3
104854
67162.7
100594
64033.8
91927.3
63204.3
68642.8
105379
66184.4
98913.1
63088.5
99589.1
61959.3
99267.9
61346.5
99447.8
60690.4
99285
60493.2
99961.9
60432.5
100783
60646.8
101856
60907.3
103283
61608.4
105245
62249.8
107512
63602.3
110930
65345.1
117598
68600.1
120818
84222.4
41390.1
26446.4
38586.9
26298.8
37259.1
25621.4
36849.5
26029.1
36467.1
25802.1
36518.1
26404.9
36532.5
26477
36822.3
27247.9
37204.2
27643.4
37838.6
28696.9
38681.3
29519.5
39741.1
31102.5
41125.4
32678.7
43890
36051.9
47271.5
41024
30765.4
20140.1
24439.6
18633.4
28029.3
26817.3
22370.3
17388.8
24343.7
20699.2
16546
23306.5
22781.6
19536.8
15674.2
21716.5
18592.5
15153.9
21040.9
21047.4
17996.6
14580.7
20732.2
17557.8
14464.2
20281.2
21060.7
28281.7
51735
98609.5
57825.9
103669
60559.2
108139
62715.1
112704
65178.4
117929
68343.8
128312
72920.5
132299
92600.5
41624.8
25633.7
38800.6
25451.1
36129.3
23796.2
35451.8
23898.6
33731.7
22628.8
33190.3
22567.3
30631
21015
14469.6
18395.4
14783.9
19149.4
15110.2
20101.2
16138.6
28254.3
53633.3
106154
59585.7
110571
63866.2
117980
68322.4
129432
74220.7
135706
95907.8
56795
114937
65466.2
123518
70289.7
131570
75163.3
143740
80847.2
149581
105712
44599.9
25530.2
40793.6
24902
37075.4
22471.9
35315.9
21871.9
31223
19185
27482.2
43096.2
24584.8
38307.6
23556.3
35541.7
22057.8
33494.7
21671.3
30846.6
21588.5
16717.2
11083.1
13774.8
11733.3
16310
17194.1
14339.2
11979.6
17210.9
18714.8
15292.4
12922.3
17214.1
13566.3
19044.9
15208
28832.7
59257
121882
66974.6
128577
73365.1
141950
80365.7
148520
105630
45689.6
27586.5
61507.8
127248
71622
137948
77574.6
147886
82783.1
161253
89178.6
166989
115246
63971.8
134600
74643.3
145050
81253.3
155027
87887.5
171221
95566.4
177016
126099
52617.9
30443.3
71708.2
151342
83382.6
162256
89565.8
172469
94640.2
186450
101202
190310
130199
70577.8
152171
82167.5
161765
88218
170155
92789.1
179252
97302
186676
101251
194158
105081
202270
108882
208797
112530
216925
116979
232403
123691
231851
159600
62297.2
33270.3
85070.8
184899
94917.5
177103
103932
124053
224550
122771
227112
120463
232801
120442
237253
120810
238065
120042
236138
118739
218515
130694
149348
268654
141630
256874
126082
226225
128615
141677
242222
148180
149553
246449
128307
169723
172446
266849
161070
160870
199580
200420
212693
208101
215553
210326
215681
208865
212276
203043
205990
196822
199844
191541
194829
187644
191265
185068
189048
183355
187914
182672
187810
182945
188545
183872
189865
185270
191535
186830
193171
188332
194483
189443
195460
190171
195928
190299
195756
189872
194992
188820
193614
187270
191734
185138
189340
182515
186546
179590
183473
176521
180245
173276
176868
170001
173461
166659
170013
163376
166621
160095
163257
156916
159990
153786
156795
150774
153712
147843
150733
145049
147879
142350
145140
139787
142542
137282
140020
134972
137648
132738
135393
130633
133260
128627
131238
126740
129330
124944
127522
123257
125819
121654
124208
120149
122692
118721
121258
117380
119908
116084
118622
114872
117417
113714
116276
112642
115212
111617
114203
110667
113262
109759
112368
108917
111536
108113
110746
107369
110010
106654
109306
105991
108653
105356
108030
104771
107453
104206
106897
103682
106382
103178
105889
102718
105439
102274
105000
101861
104594
101458
104201
101093
103846
100741
103500
100418
103182
100098
102869
99807.3
102587
99526.1
102313
99271.8
102064
99017.7
101813
98786.2
101590
98560.6
101371
98360.4
101177
98158.1
100976
97974.1
100799
97792
100622
97632
100467
97467.1
100303
97317.2
100160
97167
100014
97037.3
99888.9
96901
99751.4
96776.4
99632.6
96649.9
99512
96547.4
99424.8
96441.2
99307.4
96359
99250.5
96209.3
99119.7
96148.6
99067.3
95984.2
98802.9
94913.2
97559.3
93039.8
96579.2
89409.2
84295.4
40917.8
44482.1
26805.1
48787.4
44869.5
29938.1
49166.9
45046.2
30963.3
49857.9
45464.6
31423.1
50179
45709.7
32798.3
50092.5
45772.3
32172
50368
45930
33066.2
50321.1
45980.9
32517
50568.7
46136
33250.2
50539.8
46203
32751.1
50786
46364.3
33452.8
50780.5
46439.7
32967.9
51025.9
46599
33679.6
51016.9
46678.7
33193
51276.2
46853
33913.7
51283
46944.2
33429.3
51551.4
47122.9
34164.6
51560.8
47220.9
33679.7
51842.7
47415.4
34429.2
51868.8
47527
33944.1
52163.4
47728.8
34712.9
52194.2
47848.9
34225.7
52505.1
48069.2
35012.5
52556
48207.1
34524.3
52885.1
48438.6
35333.6
52943.3
48585.6
34842.6
53288.8
48835.6
35673.6
53368.4
49004.5
35181
53739.7
49272.7
36037.3
53832.2
49452.4
35540.7
54219.3
49736.9
36421.6
54332
49941.3
35922.5
54753.2
50253.8
36832.5
54889.5
50475.5
36328.4
55330
50802.6
37269.3
55481.7
51046.2
36759.6
55957.8
51406.9
37731
56143.2
51678.2
37217.5
56650.1
52060.1
38220.9
56854.9
52353.4
37701.8
57397.2
52769
38741.2
57637.6
53094.9
38215.2
58219.9
53539.8
39290.7
58487.6
53891.9
38757.4
59108.9
54371.3
39872
59413.3
54758.7
39330.8
60082
55275.6
40485.2
60424
55696.9
39935.2
61139.2
56250.3
41131.2
61517.5
56704.5
40571.5
62279.8
57296.1
41810.1
62699.8
57789.7
41240.7
63517.6
58424.2
42524.7
63979.4
58953.7
41944.1
64847.4
59627.3
43273.5
65350.9
60195.9
42681.9
66276.4
60914.3
44058.8
66826.5
61523.3
43455.6
67810.3
62285.2
44880.4
68405.3
62932
44265.2
69444.4
63734
45739.6
70082.2
64419.8
45113
71182.5
65269.9
46638.7
71874.8
65987.4
45998.7
73032
66883.4
47578
73750.5
67631.2
46927.8
74941.7
68539.8
48563.4
75678.2
69302.1
47904.4
76892.7
70211
49604.6
77611.1
70950.7
48937.8
78803.9
71824.5
50713.7
79462.3
72507
50041.1
80591.8
73310.8
51908.1
81152.6
73917.2
51234.1
82208.9
74656.4
53216
82676.8
75198.1
52540.6
83671.4
75892.3
54661.3
84070.7
76414.1
53983.9
85061.6
77124.1
56263.6
85450
77674.3
55581.5
86471.6
78436.2
58032.3
86852.3