/*--------------------------------*- C++ -*----------------------------------*\
| =========                 |                                                 |
| \\      /  F ield         | OpenFOAM: The Open Source CFD Toolbox           |
|  \\    /   O peration     | Version:  v2006                                 |
|   \\  /    A nd           | Website:  www.openfoam.com                      |
|    \\/     M anipulation  |                                                 |
\*---------------------------------------------------------------------------*/
FoamFile
{
    version     2.0;
    format      ascii;
    class       volScalarField;
    location    "0.026";
    object      omega;
}
// * * * * * * * * * * * * * * * * * * * * * * * * * * * * * * * * * * * * * //

dimensions      [0 0 -1 0 0 0 0];


internalField   nonuniform List<scalar> 
11076
(
0.0186659
0.0186629
0.0186525
0.0186508
0.0186488
0.0186481
0.0186472
0.0186481
0.0186488
0.0186505
0.0186527
0.0186558
0.0186596
0.0186641
0.0186689
0.0186736
0.0186781
0.0186823
0.0186864
0.0186907
0.0186958
0.0187022
0.0187108
0.0187225
0.0187387
0.018762
0.0187971
0.0188559
0.0189699
0.0192198
0.0197906
0.0208356
0.0219496
0.0227387
0.0232393
0.0236213
0.0240763
0.0248858
0.0266153
0.0306148
0.0398409
0.0592134
0.0939518
0.146241
0.21335
0.288527
0.361521
0.419461
0.451696
0.45551
0.43812
0.410739
0.379685
0.340484
0.276467
0.186505
0.143701
0.164776
0.242221
0.403788
0.790083
1.73645
5.89733
12.8045
12.8243
42.382
136.801
363.416
1254.8
10562.8
57571.1
804600
769808
115595
27250
41633.4
145534
738532
708951
154046
50086
56327.7
158620
675558
652173
157701
60070.2
63546.7
159897
631218
618047
159201
65358.9
67261.6
157984
603844
594341
156281
67834.4
69096.6
155555
584209
577853
153934
69076.5
69788.4
153330
570263
565772
151958
69682.7
70185.2
151590
559846
556474
150439
70041.3
70439
150263
551679
549005
149296
70278.5
70616.7
149223
544992
542791
148420
70448
70749.7
148417
539331
537459
147741
70576.7
70859.1
147775
534404
532768
147182
70677.3
70943.9
147244
530022
528567
146710
70752
71004.2
146792
526069
524758
146302
70803.4
71043.4
146398
522469
521280
145940
70834.8
71064.1
146047
519172
518090
145613
70848.7
71068.7
145730
516142
515156
145316
70847.6
71059.5
145441
513354
512456
145044
70833.4
71038
145177
510788
509971
144794
70807.7
71006.1
144934
508429
507689
144564
70772.3
70965.3
144710
506268
505601
144352
70728.7
70917
144504
504298
503702
144155
70677.8
70861.7
144313
502516
501987
143972
70620
70799.5
144135
500924
500460
143800
70555.3
70729.1
143968
499523
499126
143639
70479.6
70645.7
143810
498320
497995
143489
70390.9
70550.3
143668
497327
497081
143381
70292.3
70447.8
143576
496562
496396
143310
70188.5
70341.2
143520
496028
495944
143265
70080.3
70229.3
143489
495733
495738
143240
69965.3
70109
143475
495726
495817
143231
69840.6
69973.1
143475
495916
496191
143233
69702.3
69823.8
143485
496408
496896
143246
69549.7
69663.5
143502
497241
497948
143266
69383.6
69493.3
143527
498480
499390
143294
69198
69307.2
143562
500156
501282
143333
68992.6
69100.5
143609
502301
503679
143384
68764.2
68869.7
143673
504969
506651
143454
68513.6
68614.2
143760
508226
510242
143547
68242
68337.7
143873
512137
514525
143666
67947.7
68037.6
144014
516777
519586
143814
67628.2
67712
144190
522244
525522
143999
67284.7
67365.6
144417
528633
532427
144244
66928.3
67010
144722
536035
540385
144571
66571.3
66656.5
145125
544531
549474
145001
66222.2
66313.5
145644
554201
559779
145557
65894
65988.7
146322
565094
571302
146287
65621
65726.4
147198
577246
584097
147241
65425.6
65569.7
148325
590687
598171
148473
65313.9
65541.6
149787
605406
613488
150036
65345.5
65661.3
151649
621344
629967
152028
65557
66061.2
154003
638371
647424
154567
66016.3
66692.6
156920
656260
665601
157721
66714.2
67557.6
160474
674714
684162
161529
67667.8
68708
164729
693351
702688
166017
68908.6
70156.7
169705
711717
720697
171218
70443.2
71912.8
175385
729328
737722
177103
72285.3
73987.2
181754
745652
753279
183556
74429.9
76287.3
188447
760321
766953
190320
76787.6
78818.2
195370
772922
778376
197442
79354.9
81555.4
202914
783137
787385
205112
82123.1
84472.5
210779
791019
794163
212968
85045.7
87500.1
218615
796774
798942
220726
88044
90533
226226
800685
802007
228169
91060.2
93551.5
233472
803014
803620
235214
94058.2
96536.7
240250
804028
804021
241809
97007.2
99453.7
246513
803893
803583
247879
99885.3
102285
252221
803021
802346
253425
102660
104998
257366
801489
800606
258422
105320
107571
262001
799540
798542
262876
107849
110003
266129
797334
796300
266833
110227
112320
269724
795137
794007
270401
112399
114262
272634
792390
791885
273620
114868
116492
275396
789193
790301
276309
116935
117048
276083
781400
764806
265642
111563
106640
255916
744801
36533.7
18070.7
11682
8586.55
7470.72
6099.9
5472.62
5011.03
4790.69
4683.85
4717.25
4889.49
5186.31
5756.32
6503.99
7928.49
9550.53
13928.4
16141.2
21017.3
35240.8
47159.3
63217.5
107911
220512
443520
1.33725e+06
1.43902e+06
504960
253397
273822
543042
1.5598e+06
1.67372e+06
603186
309740
323103
617368
1.72822e+06
1.74995e+06
620400
321985
336045
636697
1.75934e+06
1.77206e+06
628655
328591
337392
643307
1.76933e+06
1.77011e+06
626417
330127
337187
640314
1.7665e+06
1.768e+06
625162
330858
337924
639031
1.76439e+06
1.76598e+06
623951
331689
338772
637785
1.76233e+06
1.76401e+06
622782
332656
339793
636630
1.76024e+06
1.76199e+06
621787
333813
340973
635629
1.75804e+06
1.75984e+06
620888
335120
342405
634725
1.75569e+06
1.75756e+06
620131
336627
343935
633901
1.75331e+06
1.7553e+06
619382
338421
345861
633152
1.75093e+06
1.75308e+06
618874
340490
347994
632666
1.74854e+06
1.75087e+06
618904
342866
350416
632996
1.74565e+06
1.74872e+06
618912
345551
353232
633025
1.74298e+06
1.74639e+06
619419
348540
356428
633807
1.74024e+06
1.74385e+06
620320
351909
360024
634645
1.73738e+06
1.74133e+06
621638
355687
364127
635927
1.73457e+06
1.73874e+06
623372
359948
368559
637770
1.73151e+06
1.73588e+06
625411
364620
373498
639855
1.72849e+06
1.73296e+06
628113
369749
378873
642660
1.72482e+06
1.7294e+06
630992
375283
384721
645582
1.72095e+06
1.72529e+06
634725
381222
390848
649412
1.71624e+06
1.72047e+06
638861
387513
397373
653648
1.71099e+06
1.71516e+06
643756
394060
403899
658686
1.70562e+06
1.70999e+06
648984
400629
410185
664057
1.70082e+06
1.70559e+06
654561
406838
415653
669130
1.69878e+06
1.705e+06
658108
411870
418707
670793
1.70029e+06
1.70946e+06
657009
413600
418873
666962
1.70683e+06
1.71716e+06
648520
412657
418265
656581
1.71248e+06
1.71891e+06
642221
413289
418639
651088
1.69586e+06
1.67618e+06
637303
417128
421734
644232
1.64386e+06
1.62779e+06
633208
418470
424816
644018
1.59137e+06
1.57783e+06
639375
423544
428401
648765
1.5294e+06
1.49327e+06
649721
428442
434329
660395
1.43744e+06
1.39783e+06
665848
435344
442472
674267
1.33156e+06
1.2844e+06
672709
444530
449132
653561
1.24136e+06
1.20608e+06
610669
416438
382386
568348
801659
620780
489160
354743
351019
498930
620505
558469
523258
434454
381408
495720
517618
466266
481453
372289
355199
474827
440541
420367
470199
349876
337521
467087
408617
399052
467951
331125
318210
472221
405541
428958
477856
327217
406424
501705
456636
466253
500524
356789
352935
517899
467478
487835
536824
352393
389565
569937
543668
619722
619839
517834
483846
630975
694700
735341
647216
530760
480881
628368
725279
689582
587512
468023
436733
565764
653672
650079
552031
430010
455231
546425
616227
565259
493329
400653
377559
454564
494706
457325
430093
346995
354317
388216
403100
363160
347986
273407
208998
300973
312640
287493
243038
159278
39884.8
130308
241261
218270
33397
11929
13508.2
20932.2
203732
198613
19210.5
11997.2
11211.6
17715.4
205251
214205
19148.7
11663.1
13714.6
20820.4
245244
270899
27699.9
16831.7
22202.6
36172.9
309126
335223
48143.2
30387.6
35072.5
57265.3
376548
411568
68123.3
43662.2
47361
82004.6
445229
468026
92459.3
48638.7
60407.7
111926
504039
515208
127472
64334.8
68213.8
142618
535764
549583
154380
80552.8
76265.1
155420
560402
557469
160847
79090.9
90020.3
163054
562300
540611
151424
77449.7
74701.6
145193
514227
489559
130971
63636.7
63524
131008
476749
483499
143624
70950.7
85193.7
159806
489134
482923
143768
72589.2
69793.7
139465
477166
474697
153926
84221
71099.5
137070
476047
470154
136091
70441.2
80118.6
165392
502978
543382
197788
106823
85770.6
169977
544494
568141
160048
86850.4
152290
404887
793399
1.03844e+06
317601
120583
141040
318825
799908
934711
333567
162337
298671
604456
1.17678e+06
1.08019e+06
265199
168337
163570
277368
877197
1.1304e+06
520396
279499
155310
238102
1.01199e+06
795304
279321
157416
168714
307920
941926
1.20041e+06
625884
301594
167249
263948
1.06259e+06
869555
278489
163756
290861
534407
1.16029e+06
1.02331e+06
249591
163098
162944
272339
849842
1.13412e+06
539168
290679
162821
248391
989226
825621
266493
161862
284442
531541
1.09311e+06
945125
236795
158546
160677
275820
760506
931247
313786
174397
319789
667118
1.23041e+06
1.05113e+06
276971
178511
174873
285584
872981
1.2189e+06
557040
310579
174663
259126
1.02391e+06
865651
284227
175581
308669
629542
1.17446e+06
1.01642e+06
269980
176680
175910
282497
865516
1.17754e+06
634053
311722
178339
269620
1.01539e+06
863366
289288
179151
322263
571528
1.24953e+06
1.03814e+06
270057
183636
184414
290872
894074
1.25062e+06
681137
335825
197116
271905
1.10227e+06
1.01947e+06
529240
293687
168977
258367
902471
793441
283135
173048
311459
563673
1.13519e+06
954006
260648
179185
181383
283403
828543
1.15452e+06
624753
318719
183283
271935
979122
843517
293507
184472
329260
582077
1.22576e+06
1.0082e+06
273061
189522
192402
297088
886257
1.26368e+06
690060
346009
212995
280186
1.13499e+06
1.0639e+06
525477
313012
180846
260327
906454
812210
294295
186437
335407
597410
1.21955e+06
1.00431e+06
280162
197246
199907
307533
879386
1.341e+06
637328
362430
216956
259705
1.11492e+06
1.04622e+06
529406
314382
184919
272499
893275
805588
301267
190180
338752
602475
1.21016e+06
984881
281890
199465
203574
309293
877295
1.28565e+06
700175
360259
225202
293572
1.12538e+06
1.08135e+06
538812
327470
192106
276110
912463
831754
309508
198377
361419
638915
1.29532e+06
1.09136e+06
264169
222753
321816
524252
1.04625e+06
881224
275978
191634
198891
310455
802253
1.22654e+06
627230
353136
209418
294362
992306
891086
321498
213440
373729
714935
1.32116e+06
1.13943e+06
308507
235793
341519
558373
1.11298e+06
936432
293339
204273
211431
328884
865429
1.37168e+06
681686
382540
244621
282293
1.15771e+06
1.12404e+06
542317
345606
206763
287198
920883
844883
323636
213769
380347
664922
1.33859e+06
1.12619e+06
280535
239424
344523
555642
1.09946e+06
926479
300017
209500
217657
336683
859362
1.36668e+06
678750
389532
243434
285752
1.14288e+06
1.11676e+06
562683
349012
211541
300159
918735
851843
336105
219578
391566
683125
1.35318e+06
1.13744e+06
293186
247709
354458
564469
1.12184e+06
934308
305864
216187
224872
343500
870965
1.38634e+06
697672
400428
252434
299196
1.15928e+06
1.13919e+06
575567
359383
218885
308838
931245
868670
345755
227283
402040
700950
1.3834e+06
1.15955e+06
302181
255031
365047
579463
1.14801e+06
948728
316305
223379
232680
353108
893270
1.38792e+06
754055
411020
263270
340256
1.17261e+06
1.16349e+06
607139
375353
228407
324299
947547
891283
360190
236983
414165
751523
1.39275e+06
1.17981e+06
341204
266153
380707
614511
1.18213e+06
974826
332282
233494
242639
371415
915836
1.47026e+06
749744
429282
272335
323553
1.21729e+06
1.21395e+06
615425
387783
237345
332211
981150
923882
369029
246831
431513
776935
1.44135e+06
1.21978e+06
354151
278387
397180
638278
1.22962e+06
1.00153e+06
345586
243895
253263
386301
945670
1.53085e+06
778664
446949
283907
335525
1.25174e+06
1.25626e+06
639544
404276
247294
346345
1.01222e+06
956416
383164
257184
449336
810038
1.49707e+06
1.25312e+06
370689
289850
414024
665437
1.26719e+06
1.03588e+06
362019
254498
264571
404214
981274
1.59358e+06
814710
466496
296511
354016
1.29463e+06
1.29948e+06
661118
421391
257564
358262
1.03696e+06
981445
395920
267658
464928
827485
1.54105e+06
1.29081e+06
379445
300072
428648
682735
1.31098e+06
1.06317e+06
373521
263732
273926
415087
1.008e+06
1.62839e+06
843438
482008
307055
367141
1.32721e+06
1.33696e+06
683625
436241
266765
371737
1.06338e+06
1.01148e+06
408662
276992
483239
858968
1.59965e+06
1.32642e+06
396214
311415
444120
704217
1.34475e+06
1.08711e+06
384287
272986
283803
427802
1.03348e+06
1.65351e+06
861162
494083
315815
382819
1.34611e+06
1.36603e+06
704713
447837
272830
381623
1.07675e+06
1.01339e+06
418676
281856
483609
846962
1.57276e+06
1.22876e+06
406806
296074
303389
443239
1.14081e+06
1.82936e+06
923810
529936
333835
394448
1.45707e+06
1.47182e+06
747165
475688
289688
403956
1.16427e+06
1.10336e+06
442572
300147
526660
926456
1.75958e+06
1.42841e+06
416006
335975
478513
751479
1.44151e+06
1.1364e+06
406774
290742
302154
449244
1.07335e+06
1.66731e+06
900556
517535
314678
432730
1.30915e+06
1.21147e+06
461525
320870
560864
989154
1.93061e+06
1.54257e+06
424379
355437
509182
794735
1.56282e+06
1.22242e+06
431147
307488
317682
471203
1.15293e+06
1.77577e+06
958241
544497
330942
460260
1.37366e+06
1.26952e+06
486980
336623
584939
1.02735e+06
2.00558e+06
1.59099e+06
445808
369163
527565
829985
1.61099e+06
1.2543e+06
444667
317587
329196
489648
1.17838e+06
1.83445e+06
979670
564623
340259
467359
1.40161e+06
1.30669e+06
499770
347409
599083
1.04762e+06
2.04645e+06
1.6258e+06
472153
378088
544173
864295
1.64924e+06
1.28892e+06
465342
326840
337482
505213
1.2132e+06
1.85381e+06
1.00705e+06
577147
347873
481934
1.41354e+06
1.30759e+06
512708
354384
600410
1.05122e+06
2.00736e+06
1.50406e+06
499604
358574
362402
525512
1.37076e+06
2.0696e+06
1.08761e+06
616885
365544
504272
1.54071e+06
1.41074e+06
539483
371235
637204
1.12063e+06
2.17042e+06
1.62149e+06
526256
377878
380914
541041
1.47675e+06
2.23404e+06
1.17466e+06
660366
386844
537662
1.65081e+06
1.50375e+06
571052
392127
675373
1.17813e+06
2.29557e+06
1.69616e+06
551296
395945
399718
577531
1.55183e+06
2.35081e+06
1.20654e+06
685933
399449
561791
1.72352e+06
1.56856e+06
591767
404101
699927
1.23238e+06
2.37075e+06
1.74088e+06
572058
406445
410654
594643
1.58724e+06
2.36469e+06
1.24385e+06
704453
407565
571278
1.73161e+06
1.5815e+06
603220
411601
712944
1.25433e+06
2.37143e+06
1.72196e+06
579631
409628
411506
598381
1.55002e+06
2.2921e+06
1.18061e+06
684871
392262
546876
1.62819e+06
1.40369e+06
580423
393412
419881
670489
1.81709e+06
2.6873e+06
1.39263e+06
754873
423345
617931
1.86776e+06
1.6349e+06
648753
433575
439114
683967
2.03133e+06
2.95779e+06
1.55212e+06
811674
443288
658903
1.98124e+06
1.6782e+06
673625
444975
466426
765356
2.13823e+06
3.17246e+06
1.58215e+06
850326
463291
689259
2.14064e+06
1.79613e+06
724879
469491
474752
774616
2.21739e+06
3.10991e+06
1.56739e+06
837210
438820
658849
2.00224e+06
1.66215e+06
682377
435480
435270
702188
1.88174e+06
2.24467e+06
859395
474713
467949
868043
2.66353e+06
3.65317e+06
1.89701e+06
940251
471738
760569
2.29313e+06
1.93447e+06
726530
458352
484939
889055
2.17634e+06
2.4179e+06
862429
474076
491152
998649
2.58595e+06
2.74195e+06
994220
483344
489997
1.08104e+06
2.8272e+06
2.89003e+06
1.0782e+06
477242
482125
1.1294e+06
2.8955e+06
2.87319e+06
1.13492e+06
474666
487454
1.18084e+06
2.82974e+06
2.74737e+06
1.17446e+06
484500
504414
1.18325e+06
2.65753e+06
2.56291e+06
1.15707e+06
500990
517591
1.16271e+06
2.46895e+06
2.37703e+06
1.14053e+06
513490
529069
1.14788e+06
2.29344e+06
2.21726e+06
1.13364e+06
525564
541122
1.14195e+06
2.1502e+06
2.09152e+06
1.13118e+06
538118
555130
1.14042e+06
2.03836e+06
1.99162e+06
1.13153e+06
552527
568126
1.13958e+06
1.94733e+06
1.90849e+06
1.12857e+06
564327
576838
1.13295e+06
1.87125e+06
1.84081e+06
1.11617e+06
571938
580212
1.1183e+06
1.81088e+06
1.78976e+06
1.09687e+06
573303
579245
1.09727e+06
1.76568e+06
1.75467e+06
1.07311e+06
569987
574050
1.07133e+06
1.73587e+06
1.73165e+06
1.04366e+06
562458
566530
1.04037e+06
1.71784e+06
1.71699e+06
1.01098e+06
555196
558889
1.00715e+06
1.70828e+06
1.70916e+06
977012
547496
551059
973347
1.70356e+06
1.70555e+06
944449
539690
542772
941359
1.70264e+06
1.70478e+06
913730
531267
534226
911443
1.70172e+06
1.70603e+06
886106
523119
525695
884788
1.70382e+06
1.70803e+06
861173
514674
517160
860744
1.70603e+06
1.71045e+06
839647
506482
508756
840102
1.70861e+06
1.71301e+06
820717
498318
500594
821770
1.71127e+06
1.71558e+06
804521
490551
492683
806268
1.71395e+06
1.71809e+06
790249
482879
485049
792453
1.71653e+06
1.72053e+06
778183
475609
477677
780966
1.71905e+06
1.7229e+06
767506
468456
470605
770614
1.7215e+06
1.72522e+06
758509
461732
463825
762080
1.72391e+06
1.72751e+06
750414
455154
457361
754201
1.72626e+06
1.7298e+06
743608
449045
451227
747794
1.72863e+06
1.7321e+06
737372
443112
445428
741696
1.73099e+06
1.7344e+06
732143
437663
439971
736818
1.73336e+06
1.73669e+06
727256
432396
434847
732028
1.73569e+06
1.73893e+06
723168
427597
430038
728277
1.73797e+06
1.74114e+06
719230
422954
425544
724441
1.74021e+06
1.74328e+06
715881
418760
421341
721523
1.74238e+06
1.74535e+06
712789
414708
417442
718495
1.74446e+06
1.7473e+06
710219
411080
413804
716297
1.74643e+06
1.74915e+06
707799
407564
410441
713886
1.74829e+06
1.75088e+06
705807
404447
407308
712225
1.75002e+06
1.75248e+06
703895
401409
404423
710295
1.75162e+06
1.75395e+06
702367
398753
401742
709074
1.75309e+06
1.75529e+06
700873
396148
399282
707537
1.75443e+06
1.75652e+06
699722
393881
396984
706668
1.75567e+06
1.75765e+06
698561
391638
394883
705442
1.7568e+06
1.75869e+06
697709
389718
392921
704843
1.75785e+06
1.75964e+06
696807
387738
391116
703868
1.7588e+06
1.76051e+06
696208
386148
389463
703510
1.75967e+06
1.76131e+06
695533
384384
387910
702740
1.76047e+06
1.76204e+06
695128
383056
386515
702558
1.76121e+06
1.76272e+06
694618
381545
385204
701937
1.76188e+06
1.76336e+06
694357
380443
384022
701885
1.76253e+06
1.76396e+06
693969
379133
382903
701377
1.76313e+06
1.76453e+06
693817
378216
381896
701426
1.7637e+06
1.76506e+06
693524
377071
380936
701006
1.76424e+06
1.76557e+06
693459
376308
380075
701133
1.76475e+06
1.76604e+06
693240
375305
379254
700783
1.76522e+06
1.76648e+06
693242
374676
378523
700970
1.76567e+06
1.76689e+06
693080
373796
377818
700669
1.76607e+06
1.76728e+06
693129
373282
377194
700897
1.76646e+06
1.76764e+06
693002
372504
376585
700625
1.76683e+06
1.76799e+06
693078
372077
376039
700870
1.76718e+06
1.76833e+06
692964
371368
375495
700606
1.76753e+06
1.76868e+06
693046
371006
375009
700856
1.76789e+06
1.76903e+06
692939
370359
374527
700601
1.76825e+06
1.76941e+06
693034
370054
374096
700863
1.76864e+06
1.76981e+06
692939
369461
373666
700631
1.76905e+06
1.77022e+06
693067
369211
373291
700926
1.76948e+06
1.77066e+06
693009
368674
372921
700729
1.76992e+06
1.7711e+06
693178
368490
372615
701074
1.77037e+06
1.77153e+06
693173
368025
372318
700943
1.77079e+06
1.77192e+06
693407
367913
372081
701346
1.77119e+06
1.77228e+06
693450
367511
371842
701248
1.77154e+06
1.77261e+06
693707
367452
371652
701660
1.77187e+06
1.77293e+06
693753
367094
371453
701559
1.77219e+06
1.77324e+06
694008
367073
371298
701968
1.7725e+06
1.77354e+06
694052
366744
371127
701867
1.7728e+06
1.77383e+06
694309
366754
371001
702281
1.7731e+06
1.77412e+06
694359
366456
370863
702185
1.77338e+06
1.77439e+06
694623
366499
370770
702606
1.77366e+06
1.77466e+06
694679
366236
370664
702515
1.77392e+06
1.77492e+06
694948
366307
370597
702938
1.77418e+06
1.77516e+06
695005
366065
370512
702849
1.77443e+06
1.7754e+06
695275
366160
370468
703272
1.77466e+06
1.77562e+06
695330
365940
370402
703177
1.77488e+06
1.77584e+06
695593
366052
370371
703589
1.77509e+06
1.77604e+06
695636
365843
370317
703480
1.7753e+06
1.77625e+06
695883
365967
370297
703875
1.77551e+06
1.77646e+06
695909
365768
370250
703747
1.77573e+06
1.77669e+06
696139
365898
370232
704124
1.77597e+06
1.77694e+06
696147
365698
370182
703978
1.77622e+06
1.77722e+06
696361
365826
370163
704343
1.77651e+06
1.77752e+06
696357
365628
370116
704185
1.77682e+06
1.77786e+06
696559
365757
370097
704543
1.77717e+06
1.77822e+06
696552
365557
370049
704387
1.77754e+06
1.77861e+06
696761
365690
370039
704759
1.77794e+06
1.77903e+06
696772
365502
370042
704758
1.77836e+06
1.77946e+06
696946
365579
369864
704769
1.77879e+06
1.77917e+06
696476
365515
369793
704461
1.77755e+06
1.77876e+06
696713
365377
369673
704789
1.77816e+06
1.77866e+06
695870
364580
369043
701833
1.7721e+06
1.76447e+06
689234
360400
354153
681188
1.73557e+06
1.68959e+06
666024
345168
308382
614479
1.59132e+06
1.4933e+06
576784
286247
255464
524014
1.40717e+06
110746
56329.7
40635.5
29319.7
18749.7
15690.2
14655.7
10893.3
7931.24
6111.63
4685.65
3532.35
2643.62
1973.77
1487.33
1137.09
886.034
704.604
572.084
474.117
400.951
345.184
302.219
267.928
240.425
218.629
202.665
191.204
183.607
179.077
176.923
175.584
174.248
171.874
168.38
164.224
159.65
154.888
149.984
144.984
139.876
134.646
129.149
123.249
116.952
110.305
103.333
95.9846
88.1073
79.4848
69.989
59.8042
49.4726
39.6713
30.9152
23.4449
17.2981
12.3998
8.62294
5.81888
3.82967
2.49711
1.66734
1.19702
0.960618
0.84492
0.786938
0.751283
0.724823
0.704007
0.686703
0.67135
0.656991
0.642934
0.628732
0.614071
0.598777
0.582746
0.56597
0.548478
0.530359
0.511712
0.492674
0.473372
0.453956
0.434557
0.415302
0.396308
0.377676
0.3595
0.341846
0.324784
0.308349
0.292588
0.277513
0.263143
0.249481
0.23652
0.224257
0.212673
0.201746
0.191461
0.181788
0.172704
0.16418
0.156189
0.148703
0.141696
0.135139
0.129006
0.123273
0.117915
0.112907
0.108227
0.103854
0.0997664
0.0959469
0.0923753
0.0890351
0.0859096
0.0829838
0.080242
0.0776714
0.0752587
0.0729913
0.0708578
0.0688466
0.0669477
0.065151
0.0634469
0.0618263
0.0602805
0.0588013
0.0573808
0.0560113
0.0546857
0.0533972
0.0521392
0.0509058
0.0496913
0.0484909
0.0473
0.0461153
0.044934
0.0437546
0.0425766
0.0414003
0.0402271
0.0390586
0.0378963
0.0367417
0.0355958
0.0344593
0.0333326
0.0322155
0.0311077
0.03001
0.028928
0.0278738
0.0268594
0.0258805
0.0249046
0.0238785
0.0227722
0.0216683
0.0207881
0.0202689
0.0200101
0.0198255
0.0196826
0.0195367
0.019391
0.0192543
0.019119
0.0189901
0.0188736
0.0187737
0.0187035
0.0187039
0.0187035
0.0187033
0.0187071
0.0187154
0.0187287
0.0187484
0.0187766
0.0188147
0.0188623
0.0189169
0.0189743
0.0190307
0.0190835
0.0191327
0.0191806
0.0192317
0.0192922
0.0193698
0.0194736
0.0196149
0.0198078
0.0200713
0.020434
0.0209455
0.0217055
0.0229122
0.0248635
0.0277129
0.0311319
0.0348272
0.0380424
0.040963
0.04435
0.0494291
0.0590137
0.0801944
0.128532
0.229586
0.410271
0.682243
1.03162
1.42046
1.7942
2.09236
2.26445
2.29049
2.19151
2.01393
1.79721
1.55945
1.31968
1.23674
1.452
1.89552
2.61095
4.46695
9.83917
28.2898
98.3578
401.683
2037.52
4950.96
14623.2
16655.1
17885
19545.3
20311.5
21601.7
22101.5
23134.7
23489.5
24324.3
24592.1
25276.8
25482
26055
26213.6
26702.5
26825.5
27248.7
27343.2
27713.2
27784.3
28110.1
28161.8
28450.4
28485.7
28742.5
28763.7
28992.9
29001.9
29206.3
29205
29384.6
29376.3
29535.7
29521
29661.8
29641.4
29765.2
29739.4
29847.4
29816.5
29909.8
29874.3
29954.6
29915.7
29985.5
29943.3
30002.8
29957.2
30007.5
29958.3
30002.8
29945.1
29984.5
29916.4
29952.4
29875.2
29907.5
29820.5
29848.8
29751.1
29774.9
29665.9
29685.2
29564.5
29579.1
29446.1
29455.7
29309.8
29314.4
29156
29155.6
28987.4
28980.7
28801.2
28788.1
28597.3
28577.9
28377
28352.7
28145.2
28118.2
27908
27879.9
27670.6
27643
27439.2
27418.2
27232.2
27222.7
27064.1
27067.5
26963.1
26969.2
26923.1
26955
26931.3
26998.9
26990.9
27091.5
27087.6
27211.6
27209.8
27351.8
27352.3
27517.1
27531.5
27732.8
27777.3
28031.2
28093.9
28399.2
28484
28837.5
28947.5
29344.9
29473.8
29911
30056.6
30532.6
30700.7
31222.6
31407.3
31965.3
32162
32747.6
32952.1
33557.3
33765.6
34383
34591.6
35214.8
35421
36045.2
36247
36864.8
37067.2
37683.5
37858.1
38486.5
38782.2
39401.1
39770.1
38894.4
38783.8
18660.7
19023.5
12068.7
11818
8526.35
8508.7
8174.76
12587.1
19311.7
19632.9
13133.9
12210.7
19144.4
19266.4
12919.6
8128.06
8063.08
12025.5
18776.3
18954
12761.6
11883.5
18486.4
18659
12606.5
7986.06
7903.33
11743.4
18192.7
18358.3
12451
11604.2
17902.3
18060.9
12299.1
7822.31
7743.34
11469.1
17616.4
17769.8
12151.8
11339.4
17337.8
17487.8
12010.7
7667.45
7595.11
11216.4
17070.9
17218.8
11877.3
11103.8
16819.8
16966.6
11758.6
7527.72
7465.7
11002.6
16587.6
16734.7
11653.8
10914.6
16377.5
16525.8
11564.3
7410.03
7361.39
10840.9
16190.7
16341.9
11491.3
10782.8
16029.7
16184.6
11435.2
7320.74
7281.19
10739.7
15898.3
16057.7
11395.3
10706.3
15798.2
15963.4
11359.7
7229.55
7170.28
10665.7
15736.5
15913.6
11312.4
10610.4
15709.6
15888.6
11260.1
7105.83
7051.2
10552.9
15668.6
15841
11211.2
10504.1
15613.2
15787.4
11174.8
7005.75
6963.83
10471.9
15564.7
15743.9
11156.5
10457.4
15534.5
15718.5
11153.3
6921.9
6879.13
10453.7
15517.9
15705.9
11158.8
10455.5
15508.4
15697
11166.8
6836.47
6795.79
10457.5
15497.7
15685.2
11170.2
10454.5
15478.8
15662
11165.8
6758.2
6723.36
10450.2
15460.5
15645.5
11158.8
10445.4
15453.8
15653.2
11152.9
6688.81
6648.68
10439.1
15477.8
15699.9
11142.1
10424.8
15541.9
15786.8
11124.4
6596.53
6538.79
10402.2
15627.7
15882.1
11110.1
10384
15721.7
15985.3
11104.5
6480.26
6419.06
10376.7
15823.3
16092.9
11115.3
10384.8
15928.4
16198.3
11139.2
6352.8
6282.43
10398.4
16030.2
16296.6
11165.1
10409.7
16123.6
16386.1
11188.6
6211.25
6143.15
10419.6
16206.4
16466.4
11209.9
10428.1
16279.4
16535.8
11227
6084.04
6037.23
10433.6
16341
16592.8
11236.5
10433.8
16390.2
16636.9
11237.3
5988.89
5937.94
10426
16426.4
16667.8
11228.6
10409.5
16449.3
16685.2
11209.3
5883.94
5824.49
10383.3
16458.7
16688.5
11178.9
10346.7
16453.7
16677.4
11136.6
5759.5
5689.08
10298.9
16434.7
16653.4
11080.6
10237.8
16403
16619.1
11012.4
5613.39
5531.23
10165.1
16358.2
16571.6
10932.6
10081.4
16300.3
16510.9
10841.1
5441.89
5345.07
9986.54
16228.7
16436.3
10737.3
9880.01
16142.7
16347
10620.8
5240.56
5128.2
9761.37
16041.3
16241.8
10491
9630.01
15923.1
16119.3
10347
5007.84
4879.44
9485.15
15786.4
15977.5
10187.4
9325.46
15629.2
15814.4
10009
4743.21
4593.79
9147.27
15449.9
15628.8
9810.4
8949.59
15247.3
15419.4
9591.98
4430.35
4255.4
8733.13
15019.7
15184.1
9352.74
8496.85
14764.7
14920.3
9091.19
4068.51
3869.08
8239.38
14479.8
14625.6
8805.79
7959.31
14162.2
14296.8
8495.09
3656.56
3430.89
7655.47
13808.6
13930.5
8157.95
7327.09
13415
13521.9
7793.59
3192.98
2947.13
6973.94
12975.1
13063.8
7396.64
6589.75
12481.4
12548.5
6963.12
2687.8
2416.15
6171.65
11926
11967.3
6488.71
5715.41
11300.6
11311.8
5974.79
2133.21
1840.56
5216.43
10588.2
10555.3
5413.11
4673.21
9770.07
9677.43
4798.72
1540.94
1238.04
4080.68
8820.25
8655.66
4124.13
3442.01
7724.58
7426.4
3383.51
936.512
648.694
2754.83
6448.62
5954.88
2578.12
182.09
292.718
420.839
559.241
703.778
851.331
999.526
1146.53
1290.97
1431.84
1569.21
1702.5
1831.2
1955.07
2073.99
2187.97
2297.06
2401
2499.62
2593.57
2683.17
2768.65
2850.23
2928.06
3002.31
3073.5
3141.61
3207.4
3272.6
3337.2
3400.19
3474.02
3551.37
3631.29
3700.2
3759.68
3811.68
3859.69
3902.33
3932.37
3953.85
3973.26
3994.5
4024.93
4068.36
4129.83
4206.96
4301.72
4407.53
4519.9
4625.87
4718.84
4794.9
4857.24
4910.95
4964.98
5023.68
5081.72
5134.35
5184.47
5233.3
5282.51
5331.13
5381.79
5430.4
5483.2
5530.45
5586.84
5628.73
5682.47
5634.59
5998.74
7614.38
7527.77
6045.42
5464.19
5466.51
4965.28
4988.03
4780.67
4776.47
4808.83
4624.72
4651.57
4667.57
4701.65
4686.59
4871.74
4877.05
5158.78
5129.22
4917.16
5956.19
5753.01
5751.02
6461.33
6410.38
8076.79
8000.4
9521.72
9418.32
8664.43
16817.8
14984.3
14620.7
16738.7
17008.2
28590.4
25595.6
47542.8
53215
51989.6
52598.8
52442.9
70906.7
74396.1
130615
125217
146906
85226.4
89760
151970
149556
83571
58141.2
30929.9
34396.1
58853.1
83927.6
91801.6
158171
152960
159512
92969.4
84856.1
59189.5
31810.6
17512
8800.08
5982.87
4919.58
4601.95
4815.18
4756.25
4544.12
4834.54
5873.71
5812.85
4793.64
4511.48
4726.38
4679.68
4463.22
4426.33
4644.01
4602.44
4383.98
4614.46
4675.59
4727.05
5714.13
5633.94
5537.76
5446.29
4558.86
4347.25
4565.63
4527.13
4309.92
4276.52
4491.09
4454.75
4245.01
4387.58
4443.76
4499.74
5344.71
5241.4
5130.02
5013.7
4334.01
4217.21
4419.2
4382.19
4191.93
4168.7
4341.58
4303.89
4147.41
4180.09
4231.31
4281.9
4891.79
4760.26
4618.04
6525.61
6837.44
7104.89
7338.04
7553.79
7747.22
7917.84
8078.32
8220.15
8362.04
8483.98
8612.8
8712.86
17382.9
31950.1
34759.1
61758.6
60636.8
63144.3
35171.4
32289.2
17346.7
17260.7
17147.8
17008.5
33128.1
36349.9
32885
35986.6
32600.2
35596.7
64625.4
62030.4
89037.1
97337
88163.7
96503.2
86821.3
94998
85965.8
94186
160569
154248
155714
162249
157227
163978
158995
165563
160761
167731
99049
90532.4
100020
169669
162864
164985
91536.2
63477.9
66228.5
93191.9
101926
172235
167501
174618
103058
94342.7
65033.6
67946.2
66695.7
69778.5
36659.4
33312
16846.4
16659.1
16444.5
16193.4
33312.4
37077
33415
37038.7
33411.1
36897.3
71717.7
68462.2
100988
110404
99492
108870
97477.1
106502
96165.2
105184
177651
170058
173026
180489
175955
184023
179436
187447
182932
191627
113031
103206
114771
195691
187027
191137
104853
70323
73736
107254
117651
200567
195885
205302
119583
109050
72250.3
75773.9
74200.9
77779.9
36993.1
33078.4
15892.7
15529.7
15088.4
14394.7
31127.9
35643.6
32038.6
36323.7
32686.2
36744.7
79662.6
76107.2
118467
130519
116407
128211
113630
124829
111674
122711
210854
200641
206063
216230
211422
222423
217456
228320
223281
234942
134092
121371
136491
241089
229692
235632
123470
77845.8
81156.5
126322
140094
247551
241870
253042
142451
128270
79150.8
81845.9
79841.6
81749
34724.7
29914.9
13466.2
6152.85
4454.54
4128.98
4130.08
4270.57
4229.58
4100.53
4051.37
4173.72
4091.69
3962.78
3946.35
4035.87
4085.03
4267.73
4107.98
3973.21
3774.18
3793.85
3825.78
3977.82
3827.11
3629.03
3384.84
3648.46
3452.06
3115.99
2931.95
3260.91
3564.19
3484.53
3043.08
2568.64
2228.86
2605.72
2847.43
3263.68
3096.48
2606.68
2405.97
2960.33
2856.04
2242.34
1874.05
2077.29
2299.48
1956.2
1728.9
1555.68
1426.81
1731.82
2123.44
2780.2
2725.16
2031.3
1972.59
2688.9