/*--------------------------------*- C++ -*----------------------------------*\
| =========                 |                                                 |
| \\      /  F ield         | OpenFOAM: The Open Source CFD Toolbox           |
|  \\    /   O peration     | Version:  v2006                                 |
|   \\  /    A nd           | Website:  www.openfoam.com                      |
|    \\/     M anipulation  |                                                 |
\*---------------------------------------------------------------------------*/
FoamFile
{
    version     2.0;
    format      ascii;
    class       volScalarField;
    location    "0.016";
    object      k;
}
// * * * * * * * * * * * * * * * * * * * * * * * * * * * * * * * * * * * * * //

dimensions      [0 2 -2 0 0 0 0];


internalField   nonuniform List<scalar> 
16277
(
78.754
78.7508
78.741
78.7411
78.7363
78.7182
78.6743
78.5924
78.4629
78.2904
78.0845
77.8565
77.6128
77.3569
77.0903
76.8137
76.5272
76.2307
75.9238
75.6059
75.2769
74.9364
74.5845
74.2213
73.8469
73.4617
73.0658
72.6595
72.243
71.8169
71.3813
70.9368
70.4837
70.0225
69.5536
69.0775
68.5947
68.1057
67.611
67.1113
66.607
66.0987
65.5869
65.0723
64.5555
64.037
63.5174
62.9973
62.4772
61.9579
61.4399
60.9237
60.41
59.8993
59.3922
58.8893
58.3912
57.8984
57.4115
56.931
56.4575
55.9915
55.5335
55.0841
54.6438
54.2129
53.7922
53.3818
52.9824
52.5943
52.2179
51.8536
51.5019
51.1631
50.8377
50.5258
50.2271
49.9389
49.6616
49.3917
49.1272
48.8719
48.6424
48.47
48.3781
48.3535
48.3616
48.3811
48.3974
48.3978
48.3892
48.3331
48.1947
47.9551
47.4488
46.6145
42.3663
38.0225
44.6147
46.8834
45.2492
40.4798
33.9575
31.1244
38.2713
43.9883
41.6078
34.7923
28.4545
26.7639
33.3867
40.5901
38.3759
30.767
25.0258
23.9682
29.884
37.5791
35.7773
28.0305
22.7931
22.1015
27.5257
35.207
33.7861
26.2795
21.2838
20.8084
25.9611
33.3582
32.2149
25.0563
20.1995
19.8554
24.8487
31.8976
30.9527
24.1552
19.3772
19.1152
24.015
30.7102
29.9023
23.4518
18.7191
18.5088
23.351
29.7085
28.9924
22.8665
18.1638
17.9851
22.7867
28.828
28.1693
22.3463
17.6722
17.5125
22.2752
28.0205
27.395
21.8569
17.2203
17.0725
21.7883
27.2536
26.6491
21.3825
16.7959
16.6571
21.3156
26.5132
25.929
20.9225
16.3947
16.2645
20.8592
25.8006
25.2427
20.4831
16.0159
15.894
20.4257
25.1251
24.599
20.0704
15.6583
15.5437
20.0203
24.4937
24.0012
19.6865
15.3187
15.2097
19.643
23.9079
23.4464
19.3281
14.9927
14.8871
19.2893
23.3626
22.9255
18.988
14.6752
14.571
18.9512
22.8473
22.4264
18.6577
14.3619
14.2576
18.6204
22.35
21.9384
18.3301
14.0501
13.9451
18.2912
21.8619
21.4565
18.0023
13.7393
13.6342
17.962
21.3796
20.981
17.6755
13.4308
13.3261
17.6345
20.905
20.5156
17.3522
13.1255
13.0216
17.3115
20.4417
20.0641
17.0347
12.8241
12.721
16.9949
19.9934
19.629
16.7243
12.5261
12.4236
16.6854
19.562
19.211
16.4206
12.2307
12.1283
16.3825
19.1475
18.8094
16.1228
11.9367
11.834
16.085
18.7491
18.4225
15.8294
11.6432
11.5398
15.7918
18.365
18.049
15.5394
11.3494
11.2454
15.5019
17.9942
17.6884
15.2524
11.0551
10.9503
15.215
17.6364
17.3403
14.9682
10.76
10.6545
14.931
17.291
17.0043
14.6867
10.464
10.3578
14.6499
16.9577
16.6799
14.4078
10.1668
10.0599
14.3709
16.6356
16.3654
14.1301
9.86798
9.76019
14.0928
16.3228
16.0584
13.8521
9.56718
9.45847
13.8142
16.0168
15.7568
13.5729
9.26422
9.15475
13.5342
15.7157
15.4588
13.2918
8.95939
8.8495
13.2523
15.418
15.1635
13.0087
8.65338
8.5436
12.9684
15.1227
14.8702
12.7238
8.34736
8.23854
12.6831
14.8294
14.5787
12.438
8.04314
7.93641
12.3976
14.5385
14.2903
12.1533
7.74322
7.64007
12.1142
14.2512
14.0062
11.8725
7.45076
7.35298
11.8358
13.9689
13.7286
11.5988
7.1695
7.07912
11.5657
13.694
13.46
11.3358
6.90367
6.82299
11.3078
13.4289
13.2026
11.0873
6.65794
6.58941
11.0653
13.1755
12.9577
10.8564
6.43732
6.38332
10.8414
12.9348
12.7253
10.6468
6.2469
6.21022
10.6353
12.7068
12.5061
10.4544
6.09436
6.07477
10.4433
12.4898
12.2943
10.2716
5.98443
5.98159
10.2613
12.2797
12.09
10.1015
5.9221
5.93231
10.0933
12.0779
11.897
9.94798
5.90165
5.92658
9.94267
11.888
11.7168
9.8072
5.91818
5.96699
9.8043
11.7112
11.5489
9.6766
5.97075
6.04112
9.67596
11.5466
11.3955
9.55975
6.05874
6.1491
9.56224
11.3967
11.2583
9.46104
6.17663
6.27888
9.46668
11.2616
11.1321
9.37885
6.31282
6.42252
9.38823
11.1371
11.0177
9.31408
6.46172
6.57748
9.32726
11.0256
10.9188
9.26814
6.62062
6.73987
9.28518
10.9301
10.8365
9.24116
6.78491
6.90418
9.2618
10.851
10.77
9.23191
6.94926
7.0658
9.25826
10.7877
10.7185
9.23824
7.1092
7.22041
9.2709
10.7393
10.6807
9.25588
7.26049
7.3639
9.29785
10.7044
10.6552
9.28529
7.40022
7.49447
9.33249
10.6812
10.6393
9.3214
7.52614
7.6099
9.37221
10.6672
10.631
9.36256
7.6364
7.70913
9.41655
10.6613
10.6282
9.40794
7.73027
7.79195
9.46384
10.6605
10.6299
9.45584
7.80783
7.85902
9.51248
10.6634
10.6345
9.50472
7.87001
7.91171
9.56098
10.6685
10.6408
9.55309
7.91837
7.95182
9.60787
10.6745
10.6469
9.59944
7.95469
7.9805
9.6514
10.6791
10.6505
9.64192
7.98017
7.99909
9.68963
10.6802
10.6494
9.67867
7.99671
8.01008
9.72094
10.6755
10.6416
9.70818
8.00575
8.01444
9.74449
10.6642
10.6253
9.72837
8.00816
8.01347
9.75932
10.6448
10.5988
9.73881
8.00192
8.00557
9.76559
10.6152
10.5623
9.74096
7.99101
7.99375
9.76379
10.5757
10.5169
9.73545
7.97643
7.97828
9.75469
10.5276
10.4634
9.72308
7.95867
7.9598
9.73904
10.4716
10.4026
9.70447
7.93824
7.93872
9.71756
10.4084
10.3347
9.68013
7.91547
7.91523
9.69124
10.3379
10.2596
9.64954
7.8903
7.88927
9.65879
10.2603
10.1783
9.61329
7.86273
7.86106
9.62076
10.1753
10.0884
9.57121
7.83279
7.83077
9.57711
10.0816
9.9879
9.52359
7.80099
7.79864
9.52624
9.98003
9.87899
9.46593
7.76485
7.7713
9.46965
9.87176
9.7786
9.44262
7.7513
7.76726
9.40635
9.75289
9.69522
9.41057
7.79456
7.87862
9.22505
9.64273
10.1225
9.72736
8.30185
8.30594
8.69416
9.15264
10.8136
12.7719
14.8575
16.7177
18.0791
20.0374
21.2434
22.3242
23.0763
23.6157
23.8894
23.9469
23.7699
23.2923
22.5322
21.1864
20.2878
18.4516
16.8077
15.0742
13.3025
12.0673
10.8311
10.8561
7.1699
6.92963
10.8427
10.8039
10.7984
10.8452
6.73405
6.59112
10.8616
10.8102
10.8647
10.8991
6.50162
6.50281
10.9256
10.8839
10.9286
10.9331
6.43814
6.44052
10.9537
10.9591
10.9868
10.9722
6.44924
6.45797
10.9829
11.0169
11.039
11.0037
6.47041
6.48185
11.0206
11.0739
11.0913
11.0373
6.4945
6.508
11.0591
11.1293
11.1472
11.0728
6.52128
6.53615
11.0993
11.1864
11.2048
11.112
6.54898
6.56473
11.1385
11.2441
11.2628
11.1515
6.57842
6.59449
11.1776
11.3033
11.322
11.1938
6.60835
6.62441
11.2168
11.3633
11.3828
11.2357
6.63964
6.65565
11.2595
11.425
11.4447
11.2785
6.67069
6.687
11.3012
11.4877
11.5081
11.3217
6.70303
6.71944
11.3458
11.552
11.5725
11.366
6.73509
6.75185
11.3892
11.6172
11.6385
11.4106
6.7684
6.78527
11.4356
11.6844
11.7059
11.4567
6.80141
6.81865
11.481
11.7526
11.7749
11.5033
6.83565
6.85303
11.5293
11.8228
11.8453
11.5509
6.86967
6.88765
11.5802
11.8937
11.9167
11.5984
6.90435
6.92287
11.6288
11.9664
11.9897
11.6492
6.93933
6.9581
11.6812
12.0396
12.0633
11.6992
6.9748
6.99391
11.7318
12.1147
12.1387
11.7527
7.01048
7.0297
11.7866
12.1902
12.2147
11.8055
7.04654
7.06601
11.8401
12.2677
12.2925
11.8623
7.08274
7.10224
11.8984
12.3456
12.3708
11.9188
7.11917
7.13882
11.9556
12.4251
12.4504
11.9796
7.15556
7.17509
12.0179
12.5043
12.5298
12.0399
7.19183
7.21139
12.0793
12.5846
12.6101
12.1051
7.22776
7.24694
12.1461
12.6638
12.6893
12.1696
7.26298
7.2819
12.2116
12.743
12.7679
12.2388
7.29722
7.31528
12.2814
12.8188
12.8425
12.3055
7.32979
7.347
12.3477
12.8912
12.913
12.3748
7.3603
7.3758
12.4112
12.9568
12.9764
12.44
7.38869
7.40196
12.4729
13.0146
13.0309
12.4997
7.41308
7.42422
12.5257
13.0607
13.0728
12.5497
7.43402
7.44243
12.5685
13.093
13.0994
12.5848
7.44992
7.45624
12.5936
13.1066
13.106
12.5964
7.46216
7.46738
12.5949
13.1073
13.0883
12.5817
7.47173
7.47704
12.5635
13.0801
13.0452
12.5265
7.48238
7.49067
12.4876
13.0291
12.9772
12.4313
7.50004
7.51407
12.365
12.9519
12.8855
12.2844
7.53238
7.55767
12.1937
12.8533
12.7746
12.0857
7.59016
7.6339
11.9743
12.7363
12.6518
11.8345
7.68825
7.76038
11.7051
12.6124
12.5298
11.5411
7.84702
7.95935
11.3942
12.4924
12.4241
11.2124
8.09391
8.2668
11.0508
12.396
12.3602
10.8499
8.4743
8.71462
10.7083
12.3538
12.3412
10.6238
8.92837
9.13164
10.4436
12.3586
12.3517
10.2605
9.34141
9.49783
10.1408
12.4608
12.464
10.105
9.65965
9.80986
9.90911
12.6272
12.683
9.85378
9.97397
10.1288
9.82869
12.942
13.0631
9.86111
10.249
10.3755
10.0288
13.4457
13.6197
10.1129
10.5335
10.7049
10.4644
14.1309
14.4694
10.8668
10.8337
11.0225
11.7822
15.3063
15.6088
12.392
11.2118
9.54481
8.71386
9.59722
13.3272
10.4053
9.78459
9.69762
9.85198
13.1296
13.3608
9.67861
9.96399
10.1883
9.42921
13.1756
13.6276
9.49393
10.4563
10.698
9.44266
13.6367
14.3882
9.80673
10.9196
11.1135
9.89852
14.4635
15.5302
10.6388
11.3459
11.5645
11.0041
15.9103
17.5582
12.3537
11.9406
12.2545
13.2554
18.211
10.2379
8.69936
11.1697
11.2873
10.77
15.8374
16.1202
10.7048
11.1934
11.3784
11.5807
17.9507
18.4649
11.8352
11.4871
11.7386
12.8483
19.9679
20.6815
13.4371
12.0388
12.6033
15.1227
22.4687
22.823
16.3334
13.333
11.6459
9.89461
12.3977
20.036
12.4174
11.7508
11.745
12.4237
20.4484
22.4497
13.7562
12.1536
12.4631
14.1725
22.8426
25.6508
16.7244
13.2764
14.2655
18.6519
26.5261
14.6875
10.6855
12.1484
12.4713
14.6171
24.8298
25.9896
15.5016
12.6269
13.4066
18.7797
30.0423
31.6509
20.6772
14.253
15.8672
23.9391
33.391
19.0313
12.7581
12.5328
13.368
18.9049
31.8324
32.8316
19.7653
13.7143
15.5366
25.6402
38.7286
40.6097
28.9044
17.1047
13.1133
15.3134
25.1294
41.6849
25.6623
14.9321
15.8209
27.8635
44.5838
53.2391
37.266
18.9373
20.6453
40.4048
54.9886
39.4425
23.3097
15.0279
20.0678
43.2186
60.6823
63.5838
47.3373
22.2275
15.7127
28.2307
49.4428
75.1562
56.4672
24.3449
28.19
63.5405
80.4681
72.156
45.0409
17.5779
35.2208
80.7721
95.0917
92.8818
70.9948
23.4245
37.5344
89.725
106.721
108.654
89.1586
37.5285
40.2168
88.6854
107.306
103.668
87.6698
43.8757
57.3056
97.5297
104.27
79.1354
54.987
40.3852
46.4752
72.3601
84.0587
59.1715
42.7455
32.8388
34.251
52.4699
66.0744
59.846
43.7294
30.3769
24.878
24.96
36.4006
48.4014
37.4995
27.4215
22.9433
24.9911
32.9374
43.1643
32.132
24.147
21.8027
27.677
39.3441
23.4581
18.0724
20.1798
21.1695
24.6334
34.6619
31.5411
21.7471
19.3815
18.8073
15.2972
18.8094
29.005
20.4305
19.2114
18.0278
18.5265
26.2389
16.0552
13.8793
17.93
17.8075
17.6566
24.8331
22.2564
16.2127
17.1075
17.3871
12.7057
14.0054
21.4265
15.5914
16.6779
16.2819
14.344
19.2477
12.3794
11.6117
16.8646
15.7512
14.0185
18.8539
16.9532
12.9267
15.5086
16.3601
10.772
11.242
16.8244
12.7156
14.9396
14.9055
11.758
15.2324
10.356
10.0628
15.8217
14.3296
11.9821
15.591
13.3813
10.8795
14.2327
14.6471
9.92933
11.6358
8.76725
8.85649
15.9345
13.5326
9.48243
11.7648
10.8757
9.06051
13.9962
15.3519
8.31725
8.08884
10.5656
8.63128
12.9038
13.502
8.4641
9.78709
7.50473
7.91842
14.9391
12.5017
7.96167
9.34076
8.84942
7.90445
13.1893
14.7918
7.57899
6.97063
8.6904
7.50917
12.2549
12.9712
7.55664
8.21875
6.701
7.39601
14.6053
12.0056
7.0398
7.95893
7.61024
7.06668
12.7984
14.5669
7.27868
6.31655
7.44983
6.77124
11.822
12.6668
6.77918
7.13089
6.05736
7.22295
14.4442
11.7827
6.40564
6.79706
6.59785
6.41412
12.7993
14.7297
7.18652
5.71604
6.45915
6.25505
12.0546
13.7254
6.68955
5.59263
7.038
6.28761
11.2971
12.1906
6.24613
6.60076
5.8227
7.13877
14.0355
11.4931
6.3498
6.74076
6.43823
6.24469
12.4379
14.2807
7.20529
5.75064
6.67399
6.35057
11.6331
12.6058
6.1595
6.30592
5.74706
7.50563
14.5917
11.9094
6.1303
6.17734
5.90317
5.94215
12.9166
14.8354
7.54121
5.52702
5.97168
6.00243
11.9048
13.0687
5.83823
5.53773
5.41518
7.83329
15.2629
12.2737
5.40807
5.5942
5.17287
6.91516
14.3304
11.6975
5.61513
5.64647
5.18362
5.5018
12.7448
14.7407
7.52729
5.16782
5.44225
5.5902
11.9812
13.1694
5.45344
4.95205
5.10295
7.93127
15.4062
12.34
5.00922
4.9586
4.75267
6.7604
14.5027
11.6168
5.22479
5.13369
4.75813
5.19604
12.7787
14.9846
7.57395
4.86991
5.12471
5.36881
12.1134
13.4561
5.33347
4.70439
4.98271
8.09962
15.8983
12.6862
4.83768
4.70449
4.62185
6.84609
14.9999
11.947
5.08322
4.93012
4.52581
5.10816
13.2402
15.5874
7.80301
4.7362
4.80061
5.16826
12.5207
13.9422
5.17571
4.41308
4.84313
8.33304
16.5472
13.0874
4.65253
4.41536
4.44605
6.93134
15.5489
12.1938
4.80811
4.59006
4.24911
4.9759
13.6639
16.3101
8.30669
4.71989
4.36003
4.61054
12.9664
15.7906
7.04389
4.43627
4.58511
4.83717
12.4353
13.9025
4.92645
4.22453
4.75287
8.48582
16.5824
13.1816
4.70561
4.34734
4.44302
7.12614
15.8577
12.424
4.81588
4.55606
4.23194
5.00931
14.0282
16.9621
8.72015
4.80218
4.38529
4.71961
13.4408
16.4705
7.331
4.50924
4.59239
4.8657
12.8732
14.4949
5.09089
4.25682
4.87816
8.87309
17.3132
13.7286
4.74211
4.39378
4.54487
7.45336
16.7116
13.2219
4.90677
4.59349
4.25826
5.10153
14.9427
18.094
9.2305
4.96001
4.42056
4.73439
14.2902
17.6446
8.20786
4.82324
4.41592
4.48805
13.762
16.449
7.44952
4.58569
4.64138
4.9114
13.0387
14.7491
5.19537
4.32223
5.01628
9.27751
17.9374
14.2437
4.89188
4.47959
4.70012
7.87172
17.5666
13.8291
5.02395
4.67802
4.35683
5.32836
15.6884
19.0622
9.75835
5.16473
4.5437
4.94115
15.1269
18.5907
8.55829
5.00073
4.50811
4.61272
14.6369
17.4521
7.78283
4.71791
4.71435
5.04966
13.7475
15.5955
5.31278
4.39243
5.23909
9.89537
19.0779
15.186
5.04747
4.62083
5.09378
8.61685
18.8193
14.8474
4.65973
4.61233
4.89863
8.16131
17.8729
14.1949
5.18901
4.84277
4.54945
5.59025
16.106
19.5183
10.2011
5.41527
4.76325
5.21121
15.6208
19.4768
8.97064
5.27947
4.72702
4.81974
15.2961
18.4266
8.40338
5.02994
4.93447
5.31085
14.5215
16.4788
5.67335
4.6298
5.55236
10.5162
20.1756
16.0658
5.36885
4.87641
5.42467
9.2329
19.8925
15.7963
5.00638
4.85891
5.2139
8.75967
18.9475
15.0026
5.48089
5.06429
4.76529
5.89488
17.1417
21.1407
10.9396
5.78575
5.03093
5.51023
16.9927
21.1823
9.58434
5.62835
4.96879
5.02943
16.5979
19.9825
9.12114
5.37891
5.14515
5.60429
15.6411
17.7607
6.00095
4.82896
5.91079
11.3518
21.7085
17.2836
5.67599
5.12312
5.76648
9.92044
21.5369
16.7725
5.14556
5.06187
5.64863
9.40368
20.5339
16.34
5.18985
5.03473
5.51482
9.35524
19.8587
15.7207
5.72945
5.25111
4.9897
6.2631
17.9715
22.304
11.7611
6.15652
5.29464
5.93
17.9856
22.6104
10.3509
6.01365
5.24661
5.43297
17.8098
21.5496
9.86193
5.86836
5.20175
5.39674
16.9795
20.5861
9.7857
5.7193
5.41068
5.95586
16.3434
18.6831
6.39123
5.1162
6.37175
12.1092
23.1963
18.574
6.07568
5.44824
6.20886
10.7036
23.367
18.2872
5.55808
5.40901
6.0849
10.1713
22.2392
17.6108
5.58335
5.38221
5.95116
10.2141
21.3055
16.9664
6.20395
5.58799
5.32405
6.70916
19.3317
23.9737
12.6484
6.68493
5.65413
6.36619
19.3106
24.3612
11.1379
6.51196
5.59315
5.73928
19.1517
23.5196
10.7433
6.36424
5.57524
5.84432
18.5756
22.5413
10.6872
6.19192
5.73689
6.39891
17.7743
20.3406
6.999
5.47681
6.97264
13.1776
25.2388
20.2333
6.56601
5.81673
6.76851
11.58
25.2627
19.7384
5.92491
5.76306
6.60926
11.1228
24.1947
19.2517
6.01833
5.75188
6.55628
11.0015
23.7153
18.9077
6.1099
5.76957
6.45798
11.0316
22.9845
18.425
6.76168
5.97008
5.7363
7.37207
21.135
26.4992
13.9747
7.3697
6.05354
6.90891
21.1877
26.826
12.2355
7.14013
6.00997
6.22185
20.9314
25.5318
11.6772
6.96214
5.95971
6.24596
20.1634
24.7699
11.5396
6.82795
5.98513
6.39156
19.8279
24.1284
11.5675
6.70763
6.19839
7.00855
19.1653
21.8829
7.55786
5.9343
7.63837
14.3578
27.2574
21.6076
7.13512
6.30896
7.49036
12.7939
27.3431
21.4135
6.62483
6.32731
7.34212
12.1984
26.4269
20.9234
6.60761
6.30027
7.26286
12.1315
25.6562
20.5361
6.79627
6.33599
7.12022
12.0635
25.0083
20.0341
7.39656
6.52351
6.29335
8.08583
22.9204
28.6963
15.215
8.12604
6.61504
7.59302
23.1095
29.1966
13.4092
7.89094
6.54026
6.87305
23.0676
28.3113
12.8218
7.70698
6.51939
6.82772
22.3738
27.3906
12.7014
7.60928
6.53838
6.99081
21.7507
26.2982
12.7366
7.46268
6.73865
7.68253
20.8437
23.9152
8.39369
6.50404
8.45833
15.8881
29.9243
23.9604
7.90837
6.86709
8.27192
14.033
30.2899
23.7513
7.18205
6.80921
8.03054
13.3163
29.1505
23.1106
7.16132
6.80733
8.00119
13.2277
28.3597
22.6763
7.36586
6.85069
7.88818
13.3299
27.5778
21.9855
8.07544
7.01639
6.79816
8.92409
25.4026
32.015
16.9293
9.02127
7.17252
8.32246
25.5442
32.3414
14.9521
8.77773
7.04954
7.54199
25.2347
30.9516
14.1141
8.47755
6.98677
7.45026
24.564
30.1738
13.9569
8.34641
7.05433
7.58619
24.0371
29.4662
13.9541
8.36863
7.15034
7.78913
23.5653
28.6891
13.9799
8.23281
7.33327
8.42933
22.6842
26.2532
9.25554
7.10514
9.41106
17.5456
33.0157
26.2632
8.76802
7.55153
9.17482
15.4954
33.0553
25.8861
7.98088
7.47155
8.9447
14.7913
31.7167
25.073
7.9992
7.47047
8.87056
14.6947
30.6966
24.5554
8.26791
7.55534
8.74751
14.5844
29.8209
23.7952
8.87776
7.71254
7.49723
9.7975
27.6453
34.8158
18.5725
10.0193
7.96888
9.30115
27.7293
34.9075
16.4412
9.78004
7.8271
8.48664
27.5602
33.8227
15.6607
9.47425
7.76166
8.37869
26.7829
32.6833
15.4575
9.35472
7.77047
8.54809
26.1009
31.8821
15.4428
9.14064
7.91843
9.24446
25.158
29.2639
10.1946
7.69187
10.4693
19.6279
36.748
29.0784
9.78084
8.24043
10.168
17.219
36.4433
28.5351
8.845
8.11543
9.87587
16.3641
34.8152
27.5825
8.79981
8.07118
9.7429
16.1162
33.8764
27.0049
8.955
8.11311
9.58088
16.1292
33.1607
26.3103
9.6894
8.26877
8.06835
10.7993
30.7233
38.6744
20.7217
11.0546
8.67939
10.3124
30.7795
38.7781
18.3168
10.8324
8.54368
9.40981
30.3284
37.2237
17.4967
10.5106
8.48087
9.36641
29.3616
36.1646
17.2198
10.383
8.49469
9.47912
28.7199
35.4543
17.2021
10.1492
8.63587
10.1895
28.0385
32.7164
11.292
8.41461
11.6104
21.8136
40.7871
32.3714
10.8754
9.07705
11.3335
19.1906
40.2535
31.4394
9.90697
8.96505
11.0262
18.2437
38.8013
30.5366
9.87657
8.93676
10.8293
18.2651
37.9868
30.1933
10.832
9.0278
8.84345
12.082
35.3678
44.1083
23.5975
12.5673
9.5476
11.5913
34.8888
43.4381
20.4775
12.0871
9.31995
10.3877
33.8803
41.7853
19.4979
11.657
9.21144
10.3206
32.518
40.1708
19.2979
11.3111
9.2594
11.1899
31.5993
37.0549
12.4745
9.05702
12.9943
24.6022
46.1112
36.3151
12.0088
9.82798
12.5037
21.3284
45.5094
35.0832
10.705
9.64521
12.1608
20.4346
43.7979
34.3692
10.8545
9.61857
11.9611
20.456
42.6527
33.6098
11.8616
9.67748
9.53211
13.3753
39.5486
49.0881
26.3541
13.9408
10.331
12.797
38.5197
48.4445
22.7885
13.3349
10.0844
11.3523
37.3665
46.3593
21.5933
12.811
9.9737
11.3507
36.1934
45.1068
21.4682
12.4423
10.0194
12.2931
35.5807
41.8706
13.6996
9.83368
14.4129
27.2589
51.7786
40.3562
13.2019
10.7444
13.9589
24.0828
50.9955
39.3634
12.0704
10.6143
13.5229
22.7935
49.0195
38.3912
12.0013
10.5923
13.3223
22.8731
47.92
37.9115
13.2127
10.6621
10.5298
14.8946
44.6489
55.1952
29.5017
15.6535
11.4956
14.355
42.9307
53.8456
25.5748
14.9487
11.2252
12.9353
41.5895
51.9038
24.4477
14.2087
11.0826
13.7274
40.6245
47.5851
15.062
10.91
16.4289
31.4979
59.3833
45.4813
15.0256
11.9476
15.7194
27.0795
57.0888
44.1471
13.5198
11.7507
15.1474
25.711
55.2059
43.0976
13.3875
11.6971
14.8482
25.7032
53.8985
42.3827
14.6351
11.7219
11.6368
16.5454
49.8176
61.8442
33.3007
17.5677
12.7674
16.2543
47.9625
60.4146
28.8576
16.8367
12.5768
14.5831
46.856
58.6598
27.7084
16.0479
12.4276
15.4898
45.4781
53.6198
17.3384
12.288
18.6847
35.4895
67.2514
52.0294
17.0614
13.4831
17.8847
30.942
65.2231
50.3513
15.5812
13.2884
17.0566
29.5776
62.6224
48.926
16.4717
13.1355
13.0681
18.6049
57.2648
70.7907
38.0263
19.9454
14.2921
18.4478
54.4372
68.2848
33.1256
18.8663
13.8898
17.4826
52.6633
61.6782
19.4248
13.7384
21.0466
39.9016
76.5341
57.9888
18.8374
14.9653
20.2437
35.111
73.6021
56.5934
17.4758
14.6228
19.1488
33.3983
70.5258
55.0586
18.3369
14.3433
14.2802
20.8229
64.5153
79.7498
42.3683
22.2351
15.6301
20.2907
61.5431
76.9085
36.6869
20.8466
14.9717
19.0341
59.1504
69.0503
21.1013
14.8351
23.1958
44.4476
85.3426
65.1321
20.8595
16.2092
21.8279
38.5601
81.6635
62.32
20.1932
15.5785
15.4745
22.7574
73.4846
91.8635
48.0653
24.8509
17.0579
22.1243
69.4311
86.4768
41.2181
23.1586
16.1321
20.8949
65.8176
76.7325
23.2832
16.0102
25.5693
49.3783
94.6298
72.0383
22.8552
17.5208
23.9557
42.4593
89.8549
68.8569
21.7781
16.7389
16.6565
24.3274
80.6633
100.247
52.0094
26.7885
18.2861
23.1175
74.1253
94.8716
45.1106
25.2342
17.3127
22.9332
72.3935
84.5402
25.3286
17.1984
27.8768
54.3328
104.789
79.5496
24.9004
18.9224
26.0075
46.5636
98.9365
75.618
23.6051
18.0316
17.9616
26.396
88.0063
108.719
56.7958
29.0941
19.7235
26.0563
82.4176
102.951
48.5944
27.0582
18.6568
24.554
77.7643
89.9797
26.203
18.4556
29.623
59.3156
113.857
86.1832
27.7887
19.896
19.6822
29.9443
99.8442
123.339
63.8772
32.5976
21.7107
28.7587
93.1379
115.098
53.8894
30.0461
20.2647
26.6621
87.2572
100.802
29.7173
20.219
32.5038
64.8005
123.912
94.0156
30.7023
21.6509
21.2552
31.319
107.9
135.417
69.279
34.6567
22.4802
32.054
101.525
117.136
33.6205
22.102
37.2956
73.7996
144.372
107.227
32.3003
24.2727
33.9466
61.463
131.345
98.4771
29.8148
22.4429
22.3941
33.0752
113.107
138.354
72.6101
36.1706
23.807
34.007
104.166
118.972
34.2426
23.3763
38.0313
75.9428
149.685
111.88
35.0707
24.6249
24.2813
37.0965
128.533
158.282
81.4175
40.1855
25.6898
37.0347
117.293
133.347
38.4532
25.3153
41.5209
83.1781
162.276
120.847
37.8715
26.4247
26.1143
39.4598
137.939
169.653
85.4572
42.6884
26.9536
38.54
125.619
141.788
45.7588
27.4425
27.7474
49.9569
164.47
199.056
101.564
49.2706
29.3185
43.6175
144.424
162.57
44.1447
28.6076
47.4922
96.8323
195.707
142.51
42.0092
28.7594
28.656
46.2986
158.24
182.398
51.4612
28.8643
52.6409
112.333
223.536
160.406
46.1093
30.4271
30.7546
52.886
176.587
201.035
57.2738
31.1553
56.2234
118.672
236.48
165.637
48.0924
31.8769
31.6346
53.1387
186.812
213.788
58.0513
31.4875
57.1942
123.87
257.614
181.408
49.8696
32.0026
30.7993
48.3979
197.272
226.349
68.9334
33.0949
31.9965
57.3884
238.28
288.602
143.194
63.4625
34.0988
54.5444
201.705
220.846
55.6571
33.0897
33.3512
68.2746
246.239
265.774
61.2766
31.5833
33.5735
78.616
288.063
302.795
75.0438
31.5725
64.3834
153.643
334.791
211.155
54.141
32.2503
30.7136
53.2579
222.89
244.999
65.2564
30.5648
29.7913
64.7071
260.915
273.015
66.5052
29.317
29.1858
71.7716
275.034
271.985
75.1773
29.1061
29.0891
78.1819
264.786
252.325
82.0253
29.2228
29.3622
84.9487
238.818
225.304
88.739
29.7489
30.1309
92.4537
212.295
200.101
97.3088
30.9654
31.6306
101.977
188.986
178.939
106.543
32.9266
33.9206
110.945
169.915
161.844
115.241
35.5753
36.8836
119.373
154.631
148.249
123.357
38.8556
40.7103
126.741
142.58
137.584
129.926
43.2259
45.4925
132.614
133.155
129.259
135.225
48.322
50.66
137.646
125.823
122.822
140.004
53.561
55.9549
142.158
120.191
117.913
144.238
58.9216
61.3723
146.103
115.927
114.225
147.888
64.4013
66.911
149.451
112.75
111.502
150.933
69.9899
72.5546
152.187
110.426
109.526
153.357
75.6964
78.2977
154.306
108.754
108.116
155.159
81.4861
84.0418
155.824
107.569
107.124
156.419
87.0932
89.4997
156.842
106.744
106.441
157.209
92.3718
94.5928
157.422
106.183
105.981
157.59
97.2579
99.2648
157.624
105.81
105.677
157.597
101.696
103.464
157.507
105.561
105.482
157.383
105.65
107.171
157.118
105.404
105.352
156.919
109.098
110.378
156.536
105.307
105.272
156.244
112.049
113.096
155.781
105.248
105.224
155.406
114.522
115.352
154.883
105.208
105.181
154.443
116.546
117.184
153.881
105.163
105.127
153.394
118.164
118.629
152.811
105.102
105.051
152.292
119.417
119.74
151.704
105.017
104.954
151.164
120.35
120.561
150.583
104.912
104.835
150.032
121.012
121.141
149.466
104.784
104.698
148.914
121.449
121.515
148.365
104.64
104.547
147.821
121.705
121.719
147.294
104.48
104.383
146.764
121.793
121.772
146.255
104.311
104.209
145.748
121.776
121.708
145.256
104.131
104.029
144.778
121.679
121.556
144.307
103.949
103.846
143.855
121.491
121.303
143.405
103.764
103.662
142.974
121.213
120.985
142.545
103.582
103.48
142.131
120.88
120.625
141.724
103.399
103.299
141.325
120.512
120.247
140.943
103.218
103.121
140.559
120.131
119.866
140.2
103.041
102.946
139.833
119.747
119.491
139.501
102.868
102.777
139.151
119.372
119.14
138.845
102.7
102.611
138.514
119.02
118.808
138.236
102.539
102.455
137.925
118.696
118.507
137.674
102.387
102.307
137.384
118.407
118.239
137.158
102.244
102.169
136.892
118.151
118.009
136.692
102.111
102.042
136.45
117.935
117.815
136.274
101.991
101.927
136.056
117.756
117.661
135.902
101.882
101.824
135.708
117.615
117.543
135.575
101.787
101.735
135.405
117.511
117.462
135.291
101.706
101.66
135.144
117.444
117.416
135.049
101.638
101.6
134.922
117.41
117.404
134.845
101.585
101.555
134.737
117.413
117.418
134.677
101.546
101.525
134.586
117.439
117.464
134.541
101.52
101.509
134.465
117.494
117.535
134.433
101.509
101.507
134.372
117.573
117.629
134.35
101.51
101.513
134.305
117.673
117.742
134.291
101.522
101.53
134.26
117.792
117.873
134.253
101.546
101.557
134.236
117.928
118.019
134.236
101.58
101.597
134.232
118.077
118.178
134.238
101.625
101.647
134.241
118.238
118.347
134.255
101.68
101.706
134.263
118.409
118.523
134.285
101.743
101.773
134.297
118.587
118.706
134.328
101.815
101.848
134.343
118.771
118.894
134.38
101.896
101.933
134.398
118.959
119.084
134.44
101.985
102.026
134.461
119.149
119.275
134.508
102.083
102.127
134.53
119.34
119.466
134.582
102.188
102.236
134.607
119.532
119.657
134.663
102.301
102.35
134.689
119.721
119.846
134.748
102.418
102.47
134.777
119.909
120.032
134.84
102.539
102.591
134.87
120.094
120.216
134.938
102.662
102.714
134.971
120.278
120.399
135.043
102.785
102.837
135.078
120.461
120.582
135.155
102.91
102.962
135.192
120.643
120.764
135.271
103.035
103.089
135.309
120.824
120.943
135.39
103.163
103.218
135.428
121.002
121.119
135.51
103.293
103.348
135.548
121.176
121.29
135.63
103.425
103.481
135.669
121.346
121.457
135.751
103.558
103.614
135.789
121.51
121.619
135.871
103.692
103.75
135.91
121.67
121.775
135.992
103.828
103.885
136.031
121.825
121.926
136.112
103.964
104.022
136.151
121.973
122.071
136.232
104.101
104.159
136.27
122.116
122.21
136.35
104.238
104.296
136.388
122.254
122.344
136.469
104.376
104.434
136.506
122.386
122.473
136.586
104.514
104.572
136.624
122.513
122.597
136.703
104.653
104.711
136.74
122.636
122.716
136.819
104.791
104.85
136.856
122.753
122.831
136.934
104.93
104.989
136.971
122.866
122.94
137.048
105.069
105.128
137.085
122.974
123.046
137.162
105.208
105.266
137.198
123.077
123.146
137.275
105.347
105.405
137.311
123.177
123.243
137.388
105.485
105.542
137.424
123.272
123.336
137.499
105.622
105.679
137.535
123.363
123.425
137.611
105.758
105.814
137.646
123.451
123.508
137.722
105.892
105.946
137.757
123.534
123.591
137.833
106.023
106.073
137.868
123.613
123.676
137.947
106.15
106.201
137.983
123.7
123.753
138.055
106.275
106.32
138.09
123.775
123.826
138.171
106.401
106.439
138.196
123.847
123.89
138.267
106.56
106.597
138.289
123.904
123.925
138.356
106.702
106.736
138.384
123.983
124.004
138.253
106.863
106.77
137.995
124.185
123.971
137.587
107.055
107.748
137.381
123.827
123.883
137.761
108.198
114.852
69.3837
39.7993
37.1109
37.8216
41.507
44.6896
49.9598
52.0981
59.3422
63.7923
65.5304
66.3385
66.7405
67.0072
67.2967
67.6244
67.9661
68.2932
68.5894
68.8485
69.0703
69.2573
69.4135
69.5429
69.6494
69.7354
69.8041
69.8561
69.8938
69.9187
69.9332
69.9398
69.9445
69.9484
69.9536
69.9606
69.9686
69.978
69.9885
70.0004
70.0139
70.0293
70.0478
70.0707
70.0988
70.1311
70.1649
70.1964
70.222
70.2377
70.2434
70.2417
70.2303
70.2102
70.1826
70.1491
70.1107
70.069
70.025
69.9797
69.9359
69.8964
69.8626
69.8351
69.8141
69.8015
69.7965
69.7956
69.7996
69.813
69.8343
69.8623
69.8977
69.941
69.992
70.0507
70.1175
70.1925
70.2755
70.3669
70.4664
70.574
70.6897
70.8133
70.9442
71.0825
71.2278
71.3795
71.5372
71.7006
71.8691
72.0421
72.2192
72.3999
72.5837
72.77
72.9584
73.1484
73.3396
73.5314
73.7235
73.9154
74.1066
74.2968
74.4855
74.6723
74.8568
75.0385
75.217
75.3919
75.5627
75.7291
75.8906
76.0467
76.1971
76.3412
76.4787
76.6091
76.732
76.8469
76.9534
77.0511
77.1395
77.2182
77.2865
77.3439
77.3899
77.4213
77.4347
77.4391
77.4395
77.4341
77.4169
77.3867
77.3446
77.2918
77.229
77.1566
77.0754
76.9859
76.8892
76.786
76.6774
76.5644
76.4482
76.33
76.2107
76.0918
75.9744
75.8598
75.749
75.6433
75.5439
75.4518
75.368
75.2937
75.2297
75.177
75.1375
75.1194
75.1151
75.1208
75.1426
75.1817
75.2388
75.3144
75.4088
75.5217
75.6527
75.8007
75.9644
76.1419
76.3308
76.5285
76.7318
76.9377
77.1429
77.3444
77.5395
77.7258
77.9016
78.0657
78.2174
78.3564
78.4822
78.5949
78.6948
78.7822
78.8569
78.9189
78.9681
79.0049
79.0294
79.0415
79.0434
79.0366
79.0227
79.0036
78.9814
78.9577
78.9334
78.9089
78.8841
78.8584
78.8317
78.8033
78.7744
78.7779
78.7807
78.7773
78.7587
78.7131
78.6294
78.5041
78.3417
78.1496
77.9346
77.7009
77.4513
77.1875
76.9105
76.621
76.3192
76.0052
75.679
75.3407
74.9905
74.6287
74.2556
73.8714
73.4764
73.0709
72.6552
72.2297
71.7947
71.3507
70.8979
70.4368
69.9679
69.4917
69.0085
68.5189
68.0233
67.5224
67.0166
66.5065
65.9926
65.4754
64.9557
64.4338
63.9104
63.3861
62.8615
62.3372
61.8137
61.2917
60.7717
60.2544
59.7404
59.2302
58.7245
58.224
57.729
57.2404
56.7586
56.2842
55.8179
55.36
54.9113
54.4722
54.0432
53.6247
53.2173
52.8214
52.4374
52.0657
51.7066
51.3607
51.0283
50.7095
50.4039
50.1104
49.8275
49.5532
49.2872
49.0344
48.8098
48.6356
48.5245
48.4651
48.4295
48.4036
48.3627
48.2164
47.4067
45.9099
44.8158
44.4165
43.2826
42.9748
41.8735
41.6405
40.6072
40.4422
39.4662
39.3567
38.4289
38.361
37.4672
37.4277
36.5524
36.5301
35.6603
35.6482
34.778
34.7735
33.9066
33.9105
33.0602
33.0737
32.2479
32.2734
31.4785
31.5173
30.7538
30.8035
30.0656
30.1226
29.4019
29.4626
28.7522
28.8142
28.1106
28.173
27.4768
27.5399
26.8542
26.919
26.2474
26.3151
25.6605
25.7317
25.0958
25.1704
24.5533
24.6312
24.0325
24.1134
23.5327
23.6165
23.0534
23.1401
22.5942
22.6836
22.1545
22.2465
21.7333
21.8275
21.3284
21.424
20.9368
21.0329
20.5555
20.6515
20.1825
20.2779
19.8162
19.911
19.4558
19.5497
19.1002
19.1932
18.7492
18.8412
18.4031
18.4944
18.0629
18.1538
17.7299
17.8205
17.4051
17.4955
17.0884
17.1783
16.7788
16.8678
16.4744
16.5612
16.1726
16.2566
15.8748
15.9578
15.5882
15.672
15.3174
15.4043
15.068
15.1601
14.847
14.9458
14.6563
14.7603
14.4865
14.5945
14.3354
14.4497
14.2069
14.3281
14.1014
14.2286