/*--------------------------------*- C++ -*----------------------------------*\
| =========                 |                                                 |
| \\      /  F ield         | OpenFOAM: The Open Source CFD Toolbox           |
|  \\    /   O peration     | Version:  v2006                                 |
|   \\  /    A nd           | Website:  www.openfoam.com                      |
|    \\/     M anipulation  |                                                 |
\*---------------------------------------------------------------------------*/
FoamFile
{
    version     2.0;
    format      ascii;
    class       surfaceScalarField;
    location    "0.107";
    object      phi;
}
// * * * * * * * * * * * * * * * * * * * * * * * * * * * * * * * * * * * * * //

dimensions      [1 0 -1 0 0 0 0];
oriented        oriented;


internalField   nonuniform List<scalar> 
32242
(
-2.61583e-05
-0.0013544
0.00133512
4.55309e-05
-0.00127013
0.00124391
8.34941e-06
7.76987e-05
-3.49487e-06
0.00146285
3.80288e-05
0.00159994
-3.29063e-05
0.00165139
-3.6678e-06
0.00169139
-1.63741e-05
0.00168406
-2.32981e-06
0.00168002
-2.43078e-06
0.00166947
-4.47827e-07
0.00166257
-1.01577e-06
0.00165676
-1.1534e-06
0.00165309
-1.2793e-06
0.00164974
-1.47976e-06
0.00164692
-1.51033e-06
0.00164385
-1.61886e-06
0.00164092
-1.72339e-06
0.00163777
-1.8239e-06
0.0016345
-1.92042e-06
0.00163109
-2.01314e-06
0.00162755
-2.10241e-06
0.00162388
-2.18861e-06
0.00162008
-2.27213e-06
0.00161616
-2.35323e-06
0.00161211
-2.43213e-06
0.00160794
-2.50894e-06
0.00160365
-2.58369e-06
0.00159924
-2.65634e-06
0.00159471
-2.72685e-06
0.00159008
-2.79512e-06
0.00158533
-2.86103e-06
0.00158047
-2.92448e-06
0.00157551
-2.98532e-06
0.00157045
-3.04343e-06
0.0015653
-3.09867e-06
0.00156005
-3.15088e-06
0.00155472
-3.19994e-06
0.00154931
-3.24572e-06
0.00154383
-3.2881e-06
0.00153827
-3.32696e-06
0.00153265
-3.36218e-06
0.00152697
-3.39367e-06
0.00152124
-3.42129e-06
0.00151546
-3.44496e-06
0.00150964
-3.46459e-06
0.00150378
-3.48009e-06
0.0014979
-3.49136e-06
0.00149199
-3.49834e-06
0.00148606
-3.50093e-06
0.00148013
-3.4991e-06
0.00147419
-3.49279e-06
0.00146826
-3.48205e-06
0.00146234
-3.46672e-06
0.00145643
-3.44525e-06
0.00145055
-3.42005e-06
0.00144471
-3.39055e-06
0.0014389
-3.35622e-06
0.00143314
-3.31713e-06
0.00142744
-3.27327e-06
0.0014218
-3.22468e-06
0.00141622
-3.17136e-06
0.00141072
-3.11334e-06
0.00140531
-3.05065e-06
0.00139998
-2.98331e-06
0.00139476
-2.91131e-06
0.00138963
-2.83459e-06
0.00138462
-2.75305e-06
0.00137973
-2.66646e-06
0.00137495
-2.57452e-06
0.00137031
-2.47688e-06
0.0013658
-2.37322e-06
0.00136144
-2.2633e-06
0.00135722
-2.14703e-06
0.00135316
-2.02413e-06
0.00134926
-1.89339e-06
0.00134552
-1.75132e-06
0.00134191
-9.22038e-07
0.00133772
-1.39999e-06
0.00133426
-1.16984e-06
0.00132816
-2.89545e-06
0.00131955
-4.61655e-06
0.00130742
-1.96295e-05
0.00128696
-3.00954e-05
0.00126105
-8.36235e-05
0.00122473
-0.000143177
0.00120262
-0.000328503
0.00121428
-0.000736197
0.00140183
-0.000202563
0.000361196
2.04325e-05
0.000599541
4.44665e-06
0.000786407
-3.85985e-05
0.000696038
-1.24937e-05
0.000609994
-7.50922e-06
0.000220539
-4.58124e-06
0.000183625
0.000148435
8.5264e-06
0.000139909
1.73475e-05
0.000174804
0.000210943
2.69429e-05
-1.36292e-05
0.000203716
2.08567e-05
-6.80519e-06
0.00016798
0.000133104
2.50442e-06
0.000130599
4.1278e-06
0.000166356
0.000202481
5.36308e-06
-4.65158e-06
0.000200396
6.73662e-06
-2.87145e-06
0.000164576
0.000127728
1.54671e-06
0.000126181
2.02865e-06
0.000164094
0.000200281
2.14359e-06
-4.45896e-06
0.000198717
6.02262e-06
-2.60021e-06
0.000162236
0.000123581
1.26905e-06
0.000122312
1.14649e-06
0.000162358
0.000198482
1.3815e-06
-3.6273e-06
0.000197499
4.61055e-06
-1.77606e-06
0.000160507
0.000120536
4.71924e-07
0.000120064
3.54558e-07
0.000160625
0.00019786
-6.30213e-09
-2.83711e-06
0.00019616
4.53628e-06
-1.60635e-06
0.000159394
0.000118457
3.4243e-07
0.000118115
2.39648e-07
0.000159497
0.000196461
-6.0767e-08
-2.71689e-06
0.000195374
3.8038e-06
-1.48143e-06
0.000158261
0.000116633
2.51157e-07
0.000116382
1.4796e-07
0.000158364
0.00019564
-1.18531e-07
-2.62296e-06
0.000194523
3.74035e-06
-1.38807e-06
0.000157129
0.000114994
1.83393e-07
0.000114811
8.27107e-08
0.00015723
0.000194759
-1.53476e-07
-2.54961e-06
0.000193618
3.69068e-06
-1.31736e-06
0.000155998
0.000113493
1.32273e-07
0.000113361
2.73488e-08
0.000156103
0.000193833
-1.87659e-07
-2.48675e-06
0.000192676
3.64342e-06
-1.26183e-06
0.000154878
0.000112099
9.25859e-08
0.000112007
-1.27228e-08
0.000154983
0.000192873
-2.09145e-07
-2.43706e-06
0.000191704
3.60577e-06
-1.22106e-06
0.000153767
0.000110786
6.11181e-08
0.000110725
-4.22054e-08
0.00015387
0.000191884
-2.22153e-07
-2.39751e-06
0.000190702
3.57961e-06
-1.18739e-06
0.00015266
0.000109537
3.88209e-08
0.000109498
-6.16212e-08
0.000152761
0.000190868
-2.27488e-07
-2.36731e-06
0.000189674
3.56129e-06
-1.16011e-06
0.000151554
0.000108338
2.28666e-08
0.000108315
-7.47056e-08
0.000151651
0.000189826
-2.26385e-07
-2.34308e-06
0.00018862
3.54831e-06
-1.13781e-06
0.000150446
0.000107178
1.16379e-08
0.000107166
-8.11746e-08
0.000150539
0.000188757
-2.1806e-07
-2.32497e-06
0.000187541
3.54188e-06
-1.11995e-06
0.000149334
0.000106046
4.39907e-09
0.000106042
-8.17455e-08
0.00014942
0.000187662
-2.02905e-07
-2.31215e-06
0.000186433
3.54138e-06
-1.10576e-06
0.000148214
0.000104936
4.76722e-10
0.000104936
-7.72182e-08
0.000148291
0.000186537
-1.81612e-07
-2.30382e-06
0.000185295
3.54616e-06
-1.09461e-06
0.000147082
0.000103841
-1.14632e-09
0.000103842
-6.89007e-08
0.00014715
0.000185382
-1.55909e-07
-2.29899e-06
0.000184126
3.555e-06
-1.086e-06
0.000145937
0.000102756
-4.23027e-10
0.000102757
-5.70051e-08
0.000145993
0.000184194
-1.25738e-07
-2.29726e-06
0.000182924
3.56772e-06
-1.07931e-06
0.000144775
0.000101677
2.10441e-09
0.000101675
-4.17694e-08
0.000144819
0.000182973
-9.1114e-08
-2.29848e-06
0.000181687
3.58437e-06
-1.07441e-06
0.000143595
0.000100601
6.35762e-09
0.000100594
-2.32912e-08
0.000143625
0.000181716
-5.19888e-08
-2.30259e-06
0.000180414
3.6051e-06
-1.07121e-06
0.000142393
9.95232e-05
1.19671e-08
9.95112e-05
-2.40689e-09
0.000142408
0.000180421
-9.70722e-09
-2.3085e-06
0.000179101
3.628e-06
-1.06925e-06
0.000141168
9.8442e-05
1.98645e-08
9.84221e-05
2.25872e-08
0.000141166
0.000179085
3.92827e-08
-2.31631e-06
0.000177748
3.65299e-06
-1.06835e-06
0.000139918
9.73537e-05
2.92247e-08
9.73244e-05
5.04214e-08
0.000139896
0.000177706
9.24843e-08
-2.32664e-06
0.000176351
3.68157e-06
-1.06879e-06
0.000138638
9.62556e-05
4.00047e-08
9.62156e-05
8.10824e-08
0.000138597
0.000176282
1.49822e-07
-2.33942e-06
0.000174908
3.71371e-06
-1.07051e-06
0.000137328
9.51451e-05
5.22387e-08
9.50928e-05
1.14637e-07
0.000137266
0.000174811
2.11498e-07
-2.35452e-06
0.000173416
3.74923e-06
-1.07346e-06
0.000135985
9.40194e-05
6.58897e-08
9.39535e-05
1.51029e-07
0.0001359
0.00017329
2.7749e-07
-2.37183e-06
0.000171874
3.78797e-06
-1.07755e-06
0.000134606
9.2876e-05
8.08916e-08
9.27951e-05
1.90149e-07
0.000134496
0.000171716
3.47689e-07
-2.39116e-06
0.000170278
3.82969e-06
-1.08267e-06
0.000133188
9.17125e-05
9.7155e-08
9.16153e-05
2.31839e-07
0.000133053
0.000170088
4.21887e-07
-2.41232e-06
0.000168626
3.8741e-06
-1.08873e-06
0.00013173
9.05266e-05
1.14568e-07
9.0412e-05
2.75894e-07
0.000131568
0.000168402
4.99794e-07
-2.43504e-06
0.000166916
3.92083e-06
-1.09558e-06
0.000130229
8.93164e-05
1.33007e-07
8.91834e-05
3.2208e-07
0.00013004
0.000166657
5.80975e-07
-2.45886e-06
0.000165147
3.96924e-06
-1.103e-06
0.000128684
8.80803e-05
1.52229e-07
8.79281e-05
3.69919e-07
0.000128466
0.000164852
6.64766e-07
-2.48332e-06
0.000163317
4.01863e-06
-1.11076e-06
0.000127093
8.68173e-05
1.71947e-07
8.66452e-05
4.18814e-07
0.000126847
0.000162985
7.50242e-07
-2.50759e-06
0.000161425
4.06775e-06
-1.11844e-06
0.000125457
8.55267e-05
1.91674e-07
8.5335e-05
4.6779e-07
0.000125181
0.000161057
8.35946e-07
-2.53059e-06
0.000159472
4.11497e-06
-1.1255e-06
0.000123776
8.42095e-05
2.10767e-07
8.39986e-05
5.15576e-07
0.000123471
0.000159068
9.19898e-07
-2.55108e-06
0.000157461
4.15828e-06
-1.13141e-06
0.000122052
8.28672e-05
2.28743e-07
8.26384e-05
5.60896e-07
0.000121719
0.000157022
9.99958e-07
-2.56775e-06
0.000155394
4.19549e-06
-1.1356e-06
0.000120287
8.15028e-05
2.44859e-07
8.12579e-05
6.02186e-07
0.00011993
0.000154923
1.07363e-06
-2.57892e-06
0.000153278
4.22396e-06
-1.13729e-06
0.000118488
8.01206e-05
2.5819e-07
7.98624e-05
6.3746e-07
0.000118109
0.000152777
1.13775e-06
-2.58247e-06
0.00015112
4.24028e-06
-1.13551e-06
0.000116662
7.8727e-05
2.67583e-07
7.84594e-05
6.64192e-07
0.000116266
0.000150596
1.18826e-06
-2.57577e-06
0.000148931
4.24019e-06
-1.12906e-06
0.000114819
7.73304e-05
2.71617e-07
7.70588e-05
6.79266e-07
0.000114411
0.000148391
1.22015e-06
-2.55562e-06
0.000146728
4.21861e-06
-1.11654e-06
0.000112972
7.59422e-05
2.68618e-07
7.56735e-05
6.78954e-07
0.000112562
0.000146179
1.22746e-06
-2.51836e-06
0.000144528
4.16957e-06
-1.09628e-06
0.00011114
7.45772e-05
2.5664e-07
7.43204e-05
6.59021e-07
0.000110737
0.000143983
1.20331e-06
-2.45987e-06
0.000142357
4.08628e-06
-1.0664e-06
0.000109344
7.32538e-05
2.33489e-07
7.30202e-05
6.14651e-07
0.000108962
0.000141831
1.13976e-06
-2.37532e-06
0.000140246
3.96086e-06
-1.0248e-06
0.000107612
7.19952e-05
1.96605e-07
7.17984e-05
5.40109e-07
0.000107268
0.000139758
1.0275e-06
-2.25928e-06
0.000138233
3.78438e-06
-9.69128e-07
0.000105978
7.08292e-05
1.43132e-07
7.06859e-05
4.29073e-07
0.000105692
0.000137806
8.56058e-07
-2.10642e-06
0.000136364
3.54803e-06
-8.97106e-07
0.000104482
6.97887e-05
7.08668e-08
6.97178e-05
2.76476e-07
0.000104276
0.000136023
6.1706e-07
-1.91234e-06
0.00013469
3.24541e-06
-8.05071e-07
0.000103169
6.89127e-05
-2.45393e-08
6.89373e-05
7.54684e-08
0.000103069
0.000134467
2.99304e-07
-1.66765e-06
0.000133269
2.8657e-06
-6.86874e-07
0.000102088
6.82505e-05
-1.47869e-07
6.83985e-05
-1.81871e-07
0.000102122
0.000133191
-1.03657e-07
-1.37928e-06
0.000132167
2.4033e-06
-5.53297e-07
0.000101297
6.78454e-05
-2.84739e-07
6.81303e-05
-4.79228e-07
0.000101491
0.000132264
-5.76487e-07
-1.05639e-06
0.000131439
1.88205e-06
-4.06302e-07
0.000100841
6.77242e-05
-4.36023e-07
6.81599e-05
-8.109e-07
0.000101217
0.000131739
-1.11086e-06
-7.1717e-07
0.000131125
1.33128e-06
-2.53829e-07
0.000100754
6.79062e-05
-5.90699e-07
6.84971e-05
-1.15852e-06
0.000101322
0.000131643
-1.67638e-06
-3.74308e-07
0.000131249
7.6836e-07
-1.01697e-07
0.00010105
6.83956e-05
-7.34416e-07
6.91301e-05
-1.48519e-06
0.000101801
0.00013198
-2.21597e-06
-4.15246e-08
0.000131799
2.2323e-07
5.01173e-08
0.000101709
6.91804e-05
-8.96005e-07
7.00766e-05
-1.84874e-06
0.000102662
0.000132766
-2.81565e-06
3.00307e-07
0.000132808
-3.42286e-07
2.0018e-07
0.000102762
7.02768e-05
-1.05464e-06
7.13315e-05
-2.20173e-06
0.00010391
0.00013401
-3.40366e-06
5.40366e-07
0.000134237
-7.66995e-07
2.89591e-07
0.00010416
7.16211e-05
-1.1424e-06
7.27636e-05
-2.42817e-06
0.000105446
0.000135614
-3.80532e-06
6.93157e-07
0.000135973
-1.05182e-06
3.41776e-07
0.000105798
7.31053e-05
-1.18847e-06
7.42938e-05
-2.56622e-06
0.000107175
0.000137472
-4.06543e-06
7.67357e-07
0.000137918
-1.21376e-06
3.57549e-07
0.000107585
7.46514e-05
-1.20774e-06
7.58591e-05
-2.64381e-06
0.000109021
0.000139503
-4.22864e-06
7.86813e-07
0.000140003
-1.28656e-06
3.49615e-07
0.000109458
7.62088e-05
-1.20403e-06
7.74129e-05
-2.66853e-06
0.000110923
0.000141639
-4.30488e-06
7.56037e-07
0.000142159
-1.27563e-06
3.20377e-07
0.000111359
7.77334e-05
-1.17864e-06
7.89121e-05
-2.64334e-06
0.000112823
0.000143813
-4.29774e-06
6.80714e-07
0.000144322
-1.1894e-06
2.72156e-07
0.000113232
7.91844e-05
-1.13519e-06
8.03197e-05
-2.57517e-06
0.000114672
0.000145964
-4.21736e-06
5.68871e-07
0.000146435
-1.03977e-06
2.09296e-07
0.000115032
8.0529e-05
-1.07777e-06
8.16068e-05
-2.47227e-06
0.000116426
0.000148039
-4.07642e-06
4.28991e-07
0.00014845
-8.39708e-07
1.35732e-07
0.000116719
8.17425e-05
-1.00983e-06
8.27522e-05
-2.34232e-06
0.000118052
0.000149994
-3.88674e-06
2.6888e-07
0.000150326
-6.01739e-07
5.54916e-08
0.000118265
8.28074e-05
-9.36979e-07
8.37441e-05
-2.19315e-06
0.000119521
0.000151794
-3.66085e-06
9.68785e-08
0.000152035
-3.38382e-07
-2.66593e-08
0.000119644
8.3717e-05
-8.64554e-07
8.45812e-05
-2.03482e-06
0.000120814
0.000153411
-3.41224e-06
-7.90239e-08
0.000153551
-6.1575e-08
-1.07845e-07
0.000120842
8.44729e-05
-7.8976e-07
8.52622e-05
-1.8731e-06
0.000121925
0.000154832
-3.15453e-06
-2.49356e-07
0.000154872
2.08856e-07
-1.86093e-07
0.000121861
8.50756e-05
-7.17724e-07
8.57928e-05
-1.71422e-06
0.000122857
0.000156055
-2.89766e-06
-4.11151e-07
0.000155996
4.69889e-07
-2.58789e-07
0.000122704
8.55336e-05
-6.51192e-07
8.61846e-05
-1.56521e-06
0.000123618
0.000157083
-2.65318e-06
-5.59347e-07
0.000156929
7.12291e-07
-3.23585e-07
0.000123382
8.5861e-05
-5.90952e-07
8.64536e-05
-1.42976e-06
0.00012422
0.000157927
-2.42867e-06
-6.89185e-07
0.000157687
9.25167e-07
-3.78995e-07
0.000123911
8.60759e-05
-5.38689e-07
8.66205e-05
-1.31245e-06
0.000124682
0.000158606
-2.23457e-06
-7.99455e-07
0.00015829
1.10579e-06
-4.25627e-07
0.000124309
8.61991e-05
-4.95162e-07
8.67052e-05
-1.21473e-06
0.000125024
0.000159139
-2.07202e-06
-8.89199e-07
0.00015876
1.25479e-06
-4.61814e-07
0.000124598
8.62499e-05
-4.63463e-07
8.6726e-05
-1.13697e-06
0.000125266
0.000159551
-1.93981e-06
-9.58296e-07
0.000159119
1.37457e-06
-4.88351e-07
0.000124797
8.62457e-05
-4.40951e-07
8.66994e-05
-1.07808e-06
0.000125427
0.000159863
-1.83523e-06
-1.01091e-06
0.000159388
1.46921e-06
-5.07633e-07
0.000124924
8.62012e-05
-4.24833e-07
8.66384e-05
-1.03344e-06
0.000125524
0.000160092
-1.75282e-06
-1.05046e-06
0.000159582
1.54156e-06
-5.21063e-07
0.000124994
8.61276e-05
-4.12438e-07
8.65528e-05
-9.97582e-07
0.00012557
0.000160255
-1.68537e-06
-1.07722e-06
0.000159717
1.59266e-06
-5.28522e-07
0.00012502
8.60342e-05
-4.06375e-07
8.64507e-05
-9.74089e-07
0.000125578
0.000160365
-1.63784e-06
-1.09963e-06
0.000159807
1.63351e-06
-5.33145e-07
0.000125014
8.59282e-05
-4.00444e-07
8.63382e-05
-9.55268e-07
0.000125557
0.000160435
-1.60115e-06
-1.11257e-06
0.00015986
1.66244e-06
-5.35389e-07
0.000124982
8.58139e-05
-3.96123e-07
8.62207e-05
-9.41239e-07
0.000125518
0.000160475
-1.57488e-06
-1.12113e-06
0.000159887
1.68793e-06
-5.36764e-07
0.000124933
8.56975e-05
-3.97904e-07
8.61002e-05
-9.37058e-07
0.000125459
0.000160487
-1.5589e-06
-1.13201e-06
0.00015989
1.70786e-06
-5.38437e-07
0.00012487
8.55782e-05
-3.9373e-07
8.59821e-05
-9.27055e-07
0.000125394
0.000160488
-1.54076e-06
-1.12753e-06
0.000159877
1.71197e-06
-5.34299e-07
0.000124795
8.54561e-05
-3.83327e-07
8.5871e-05
-9.10427e-07
0.000125324
0.000160467
-1.51207e-06
-1.11419e-06
0.000159856
1.70205e-06
-5.18086e-07
0.000124716
8.53382e-05
-3.845e-07
8.57511e-05
-9.03617e-07
0.00012524
0.000160433
-1.50317e-06
-1.12087e-06
0.000159821
1.72425e-06
-5.26149e-07
0.000124638
8.52285e-05
-4.16315e-07
8.56219e-05
-9.44314e-07
0.000125145
0.000160411
-1.53144e-06
-1.172e-06
0.000159778
1.79004e-06
-5.49789e-07
0.000124551
8.512e-05
-4.41466e-07
8.5514e-05
-9.83823e-07
0.000125063
0.000160358
-1.55847e-06
-1.13982e-06
0.000159739
1.76436e-06
-5.22843e-07
0.000124462
8.50002e-05
-3.88844e-07
8.54188e-05
-8.93213e-07
0.000124987
0.000160314
-1.46667e-06
-1.05146e-06
0.000159698
1.66852e-06
-4.77766e-07
0.000124369
8.48836e-05
-3.74221e-07
8.53248e-05
-8.79488e-07
0.000124918
0.00016027
-1.4615e-06
-1.06227e-06
0.000159672
1.67035e-06
-4.89766e-07
0.000124313
8.48048e-05
-4.33873e-07
8.52309e-05
-9.68608e-07
0.00012486
0.000160835
-2.12753e-06
-5.52264e-07
0.00015972
1.66201e-06
-4.61272e-07
0.000124792
8.47683e-05
-9.66219e-07
8.56913e-05
-1.63394e-06
0.000125423
0.000161476
-3.36774e-06
1.40971e-07
0.00016154
-1.93449e-07
5.96234e-08
0.000125536
8.57926e-05
-1.65432e-06
8.74356e-05
-4.56482e-06
0.000128405
0.000164085
-7.12164e-06
6.09974e-06
0.000168396
-1.04458e-05
2.94711e-06
0.000131554
9.04049e-05
-8.63551e-06
9.9097e-05
-1.96282e-05
0.000142586
0.000181979
-3.32333e-05
4.33314e-05
0.000211497
-7.28135e-05
1.94866e-05
0.000166401
0.000118519
3.93192e-05
9.49644e-05
0.00016599
3.99886e-05
-0.00028815
-5.72987e-05
-0.000326075
-6.18061e-05
-0.000510446
-2.49771e-05
-0.000550487
-1.59396e-05
-0.00057707
-3.11792e-06
-0.000579747
-2.56224e-06
-0.000584683
-2.02613e-07
-0.000585155
-8.03086e-07
-0.000585844
9.65306e-07
-0.0005853
1.54958e-06
-0.000583074
5.07485e-06
-0.00057701
9.78089e-06
-0.000568948
2.14747e-05
-0.000554886
3.83973e-05
-0.000540861
8.52417e-05
-0.000536061
0.000189249
-0.000544783
8.52751e-05
-0.000335919
4.86904e-05
-0.000332984
2.72264e-05
-0.000323218
2.71922e-05
-0.000275543
7.9143e-06
-0.000237156
4.43371e-06
-8.35498e-05
1.83778e-06
-5.64705e-05
-3.05258e-05
-2.19525e-06
-2.82312e-05
-5.85212e-06
-5.27543e-05
-7.83855e-05
-1.10312e-05
4.05026e-06
-7.53397e-05
-7.09459e-06
1.40861e-06
-5.01172e-05
-2.68125e-05
-1.00198e-06
-2.58625e-05
-1.75781e-06
-4.94028e-05
-7.35764e-05
-3.52977e-06
7.47415e-07
-7.29408e-05
-1.34988e-06
2.00634e-07
-4.88802e-05
-2.57036e-05
-4.35709e-07
-2.52456e-05
-5.41565e-07
-4.87315e-05
-7.23046e-05
-1.1196e-06
5.22008e-07
-7.275e-05
-7.11709e-08
6.52423e-08
-4.82749e-05
-2.51806e-05
1.59014e-09
-2.518e-05
-1.60884e-08
-4.82584e-05
-7.27653e-05
-1.1044e-08
-2.09094e-08
-7.27812e-05
3.62345e-08
-1.0892e-08
-4.82692e-05
-2.5191e-05
1.79133e-08
-2.52083e-05
3.80531e-08
-4.82884e-05
-7.27997e-05
5.83309e-08
-5.59442e-08
-7.28342e-05
8.84904e-08
-2.59723e-08
-4.83193e-05
-2.52341e-05
2.49795e-08
-2.52589e-05
5.47566e-08
-4.83496e-05
-7.28646e-05
7.96135e-08
-6.63962e-08
-7.28984e-05
9.84791e-08
-3.06609e-08
-4.83805e-05
-2.52847e-05
2.96852e-08
-2.5312e-05
6.47107e-08
-4.84134e-05
-7.29322e-05
9.38441e-08
-7.29955e-08
-7.29757e-05
1.11498e-07
-3.39822e-08
-4.84524e-05
-2.53445e-05
3.22419e-08
-2.53723e-05
6.97255e-08
-4.84861e-05
-7.301e-05
1.03695e-07
-7.39466e-08
-7.30513e-05
1.12294e-07
-3.45843e-08
-4.85243e-05
-2.54042e-05
3.42433e-08
-2.54353e-05
7.26809e-08
-4.85618e-05
-7.30899e-05
1.0637e-07
-7.95443e-08
-7.31334e-05
1.2056e-07
-3.76248e-08
-4.86015e-05
-2.54689e-05
3.37654e-08
-2.5501e-05
7.30402e-08
-4.86401e-05
-7.31728e-05
1.11048e-07
-7.66517e-08
-7.32161e-05
1.20569e-07
-3.60759e-08
-4.86802e-05
-2.5535e-05
3.47411e-08
-2.55672e-05
7.40718e-08
-4.87185e-05
-7.32549e-05
1.11695e-07
-7.9029e-08
-7.33024e-05
1.22434e-07
-3.68843e-08
-4.87613e-05
-2.56031e-05
2.97962e-08
-2.56377e-05
6.66245e-08
-4.88027e-05
-7.3345e-05
1.08099e-07
-7.07135e-08
-7.33884e-05
1.20625e-07
-3.12827e-08
-4.88428e-05
-2.56718e-05
2.86377e-08
-2.5707e-05
6.59153e-08
-4.88847e-05
-7.34315e-05
1.13647e-07
-7.37555e-08
-7.34797e-05
1.2873e-07
-3.22621e-08
-4.89287e-05
-2.57443e-05
2.93383e-08
-2.57791e-05
6.7466e-08
-4.89705e-05
-7.35229e-05
1.15746e-07
-7.26744e-08
-7.35695e-05
1.25196e-07
-3.1976e-08
-4.90133e-05
-2.58153e-05
3.01319e-08
-2.58514e-05
6.87497e-08
-4.90561e-05
-7.36136e-05
1.17721e-07
-7.48267e-08
-7.36637e-05
1.31056e-07
-3.28289e-08
-4.91018e-05
-2.58902e-05
2.99516e-08
-2.59264e-05
6.88628e-08
-4.91452e-05
-7.3709e-05
1.1971e-07
-7.31899e-08
-7.37565e-05
1.28402e-07
-3.19042e-08
-4.91889e-05
-2.59634e-05
3.10199e-08
-2.60008e-05
7.12391e-08
-4.92336e-05
-7.38032e-05
1.22887e-07
-7.77025e-08
-7.38556e-05
1.35581e-07
-3.38599e-08
-4.9281e-05
-2.60409e-05
3.09755e-08
-2.60772e-05
7.1667e-08
-4.93246e-05
-7.39014e-05
1.23953e-07
-7.44734e-08
-7.39524e-05
1.30918e-07
-3.22374e-08
-4.93711e-05
-2.61162e-05
3.17354e-08
-2.61559e-05
7.27068e-08
-4.94186e-05
-7.40023e-05
1.25658e-07
-8.16744e-08
-7.40548e-05
1.42675e-07
-3.57209e-08
-4.94664e-05
-2.61963e-05
3.53568e-08
-2.62354e-05
8.01771e-08
-4.95136e-05
-7.41042e-05
1.33471e-07
-9.25646e-08
-7.41586e-05
1.45061e-07
-4.25763e-08
-4.9562e-05
-2.62754e-05
4.43922e-08
-2.63136e-05
9.50623e-08
-4.96083e-05
-7.42085e-05
1.4108e-07
-1.03498e-07
-7.42645e-05
1.5471e-07
-4.78034e-08
-4.96573e-05
-2.63542e-05
4.34375e-08
-2.63941e-05
9.40349e-08
-4.97062e-05
-7.43178e-05
1.41731e-07
-9.51344e-08
-7.4373e-05
1.50187e-07
-4.32517e-08
-4.97548e-05
-2.6434e-05
3.97502e-08
-2.6474e-05
8.87118e-08
-4.98034e-05
-7.4425e-05
1.42439e-07
-9.34209e-08
-7.44856e-05
1.50244e-07
-4.35104e-08
-4.98566e-05
-2.65174e-05
3.91563e-08
-2.65567e-05
8.63676e-08
-4.99058e-05
-7.45399e-05
1.36988e-07
-8.81933e-08
-7.45982e-05
1.45144e-07
-3.95017e-08
-4.99554e-05
-2.65959e-05
3.36955e-08
-2.66378e-05
7.85963e-08
-5.00087e-05
-7.46576e-05
1.38025e-07
-8.50552e-08
-7.47202e-05
1.55482e-07
-3.53565e-08
-5.00619e-05
-2.66792e-05
3.21832e-08
-2.67179e-05
8.01979e-08
-5.01135e-05
-7.47793e-05
1.48882e-07
-8.60924e-08
-7.48451e-05
1.58791e-07
-3.46597e-08
-5.01685e-05
-2.67585e-05
3.44722e-08
-2.67966e-05
8.76439e-08
-5.02217e-05
-7.49079e-05
1.58363e-07
-9.13677e-08
-7.49772e-05
1.667e-07
-3.58072e-08
-5.02781e-05
-2.68367e-05
3.15587e-08
-2.6875e-05
8.42377e-08
-5.03345e-05
-7.50454e-05
1.56721e-07
-8.44507e-08
-7.51192e-05
1.63122e-07
-3.11715e-08
-5.03936e-05
-2.69143e-05
2.97433e-08
-2.6952e-05
8.32463e-08
-5.04524e-05
-7.5191e-05
1.61839e-07
-8.8751e-08
-7.52702e-05
1.74312e-07
-3.16802e-08
-5.05149e-05
-2.69913e-05
3.034e-08
-2.70289e-05
8.66632e-08
-5.0578e-05
-7.53493e-05
1.70353e-07
-9.41059e-08
-7.54326e-05
1.84219e-07
-3.20682e-08
-5.06426e-05
-2.70658e-05
3.25075e-08
-2.71008e-05
9.6417e-08
-5.07073e-05
-7.55157e-05
1.88607e-07
-1.05309e-07
-7.56081e-05
2.02404e-07
-3.60377e-08
-5.07778e-05
-2.7138e-05
3.66715e-08
-2.71714e-05
1.08321e-07
-5.08473e-05
-7.56997e-05
1.98558e-07
-1.1845e-07
-7.57959e-05
2.10741e-07
-4.09699e-08
-5.09179e-05
-2.72023e-05
3.58315e-08
-2.72335e-05
1.14987e-07
-5.09927e-05
-7.58974e-05
2.066e-07
-1.17129e-07
-7.60071e-05
2.18745e-07
-3.55539e-08
-5.1072e-05
-2.72656e-05
2.96628e-08
-2.72951e-05
1.09774e-07
-5.11522e-05
-7.61163e-05
2.14625e-07
-1.18836e-07
-7.62342e-05
2.31919e-07
-3.24471e-08
-5.12372e-05
-2.73249e-05
3.42488e-08
-2.73547e-05
1.23575e-07
-5.13272e-05
-7.63574e-05
2.378e-07
-1.35043e-07
-7.64893e-05
2.60617e-07
-3.7827e-08
-5.14221e-05
-2.73852e-05
3.47966e-08
-2.74136e-05
1.35922e-07
-5.152e-05
-7.6624e-05
2.64387e-07
-1.42944e-07
-7.67702e-05
2.87185e-07
-3.48454e-08
-5.16264e-05
-2.74457e-05
3.47071e-08
-2.74791e-05
1.49038e-07
-5.1739e-05
-7.69228e-05
3.05421e-07
-1.63988e-07
-7.70837e-05
3.2629e-07
-4.14519e-08
-5.18573e-05
-2.75137e-05
4.44297e-08
-2.7552e-05
1.72383e-07
-5.19856e-05
-7.72554e-05
3.29913e-07
-1.95103e-07
-7.74441e-05
3.6126e-07
-5.39519e-08
-5.21262e-05
-2.75968e-05
6.02119e-08
-2.76427e-05
2.14724e-07
-5.22716e-05
-7.76367e-05
3.89708e-07
-2.37234e-07
-7.78418e-05
4.32609e-07
-6.85578e-08
-5.24282e-05
-2.76977e-05
7.33644e-08
-2.77664e-05
2.47879e-07
-5.2602e-05
-7.80615e-05
4.57578e-07
-2.73545e-07
-7.82946e-05
5.09378e-07
-8.42751e-08
-5.27901e-05
-2.78494e-05
9.51528e-08
-2.79448e-05
2.9824e-07
-5.29901e-05
-7.85329e-05
5.54448e-07
-3.3813e-07
-7.87963e-05
6.00851e-07
-1.20417e-07
-5.32139e-05
-2.80644e-05
1.45472e-07
-2.82042e-05
3.85655e-07
-5.34588e-05
-7.90778e-05
6.43982e-07
-4.4443e-07
-7.93701e-05
7.13331e-07
-1.77446e-07
-5.37162e-05
-2.83616e-05
2.04251e-07
-2.8553e-05
4.93926e-07
-5.40044e-05
-7.96935e-05
7.75182e-07
-5.48669e-07
-8.00343e-05
8.66314e-07
-2.25911e-07
-5.43179e-05
-2.87774e-05
2.50394e-07
-2.90424e-05
5.9619e-07
-5.46616e-05
-8.03933e-05
9.75598e-07
-6.74843e-07
-8.07721e-05
1.1063e-06
-2.97797e-07
-5.50353e-05
-2.93521e-05
3.53445e-07
-2.97169e-05
7.66549e-07
-5.54499e-05
-8.11789e-05
1.22015e-06
-8.91366e-07
-8.16412e-05
1.34929e-06
-4.33666e-07
-5.59282e-05
-3.01578e-05
5.18115e-07
-3.06613e-05
1.04122e-06
-5.64468e-05
-8.2131e-05
1.5143e-06
-1.19933e-06
-8.26915e-05
1.74996e-06
-6.00003e-07
-5.70344e-05
-3.12451e-05
8.3253e-07
-3.20796e-05
1.57659e-06
-5.77809e-05
-8.28006e-05
1.67458e-06
-1.52586e-06
-8.33125e-05
2.04347e-06
-9.3952e-07
-5.83687e-05
-3.30216e-05
7.40726e-07
-3.37603e-05
1.394e-06
-5.90225e-05
-8.38475e-05
1.93515e-06
-1.23319e-06
-8.53358e-05
2.72231e-06
-2.90877e-07
-5.99658e-05
-3.40514e-05
1.28242e-06
-3.53374e-05
1.66708e-06
-6.0355e-05
-8.61344e-05
2.46237e-06
-1.96564e-06
-8.69247e-05
2.75086e-06
-5.83714e-07
-6.1744e-05
-3.59286e-05
9.16213e-07
-3.68521e-05
1.68446e-06
-6.2517e-05
-8.81947e-05
2.956e-06
-2.34085e-06
-8.889e-05
3.04365e-06
-1.02164e-06
-6.38366e-05
-3.78785e-05
1.09866e-06
-3.89843e-05
1.93969e-06
-6.46823e-05
-9.06878e-05
3.73885e-06
-2.68509e-06
-9.18709e-05
3.88952e-06
-1.40586e-06
-6.59381e-05
-4.03753e-05
1.39352e-06
-4.17279e-05
2.66754e-06
-6.71785e-05
-9.29675e-05
3.75855e-06
-2.66304e-06
-9.47854e-05
4.44877e-06
-1.19475e-06
-6.86265e-05
-4.28734e-05
1.1384e-06
-4.39222e-05
2.98017e-06
-7.04128e-05
-9.6589e-05
4.77284e-06
-4.42877e-06
-9.95323e-05
7.30816e-06
-2.48945e-06
-7.22623e-05
-4.63062e-05
2.49343e-06
-4.8805e-05
6.41037e-06
-7.61861e-05
-0.000103724
1.0284e-05
6.79079e-05
-5.0536e-05
-0.000121124
2.70655e-05
-3.54811e-05
-2.16772e-05
6.53958e-06
-2.59972e-05
1.47974e-05
-4.58643e-05
-6.59535e-05
3.05258e-05
-9.0685e-06
-7.3159e-05
1.54949e-05
-3.48211e-06
-5.15188e-05
-2.91183e-05
9.27932e-07
-3.01537e-05
2.29844e-06
-5.27831e-05
-7.42782e-05
3.91733e-06
-1.342e-07
-7.44669e-05
2.89405e-07
-3.28446e-07
-5.26134e-05
-3.04858e-05
1.45964e-06
-3.1948e-05
3.25478e-06
-5.43747e-05
-7.61432e-05
4.96711e-06
-2.27308e-06
-7.73595e-05
3.51955e-06
-1.09022e-06
-5.55972e-05
-3.30939e-05
2.05715e-06
-3.52863e-05
4.00995e-06
-5.7672e-05
-7.97549e-05
6.48062e-06
-2.12109e-06
-8.18449e-05
4.26126e-06
-1.21744e-06
-5.88675e-05
-3.68222e-05
1.9144e-06
-3.92488e-05
4.08996e-06
-6.15071e-05
-8.44367e-05
6.79019e-06
-3.54557e-06
-8.72137e-05
6.36592e-06
-1.56511e-06
-6.3936e-05
-4.13034e-05
2.39316e-06
-4.40079e-05
5.80855e-06
-6.76286e-05
-9.22135e-05
1.08316e-05
-9.30775e-06
-9.91997e-05
1.58386e-05
-4.07662e-06
-7.29518e-05
-4.82425e-05
-2.56654e-05
-2.25645e-05
-6.3164e-05
-3.55529e-05
-4.95806e-05
-0.000112684
-1.68177e-05
-6.5566e-05
3.38395e-05
-9.30437e-06
-4.6354e-05
-2.87972e-05
5.05103e-06
-3.3479e-05
1.27682e-05
-5.42441e-05
-7.43432e-05
2.05595e-05
-7.46049e-06
-8.06627e-05
1.41636e-05
-3.6718e-06
-5.78658e-05
-3.70672e-05
2.62647e-06
-3.96409e-05
6.55318e-06
-6.1827e-05
-8.45272e-05
1.01346e-05
-5.5568e-06
-8.80732e-05
8.93743e-06
-2.5112e-06
-6.47992e-05
-4.20089e-05
2.45246e-06
-4.46623e-05
5.37513e-06
-6.78386e-05
-9.1732e-05
9.17861e-06
-6.31642e-06
-9.69167e-05
1.17537e-05
-2.59126e-06
-7.19132e-05
-4.76933e-05
2.60783e-06
-5.08616e-05
5.9619e-06
-7.56276e-05
-0.000101357
1.10745e-05
6.62226e-05
-5.03605e-05
-0.000117282
2.72987e-05
-3.69124e-05
-2.41013e-05
4.92656e-06
-3.09169e-05
1.76044e-05
-4.80421e-05
-6.6241e-05
3.3232e-05
-1.15775e-05
-7.55899e-05
2.1043e-05
-4.29584e-06
-5.50139e-05
-3.5144e-05
2.60359e-06
-3.80001e-05
5.69725e-06
-5.83348e-05
-7.89712e-05
9.15785e-06
-3.62708e-06
-8.09262e-05
5.74142e-06
-1.63583e-06
-6.04235e-05
-3.98104e-05
3.06345e-06
-4.30366e-05
6.45276e-06
-6.38644e-05
-8.65948e-05
1.21803e-05
-9.58536e-06
-9.28139e-05
1.53272e-05
-4.46657e-06
-6.90829e-05
-4.73892e-05
-2.38706e-05
-2.31346e-05
-5.82595e-05
-3.43331e-05
-4.68973e-05
-0.000104068
-1.83169e-05
-6.2236e-05
3.48765e-05
-9.69314e-06
-4.6051e-05
-2.96367e-05
6.20078e-06
-3.61e-05
1.39775e-05
-5.3992e-05
-7.23568e-05
2.36303e-05
-9.77926e-06
-8.06126e-05
1.81727e-05
-4.15524e-06
-5.94998e-05
-4.01818e-05
4.63501e-06
-4.47702e-05
9.69486e-06
-6.45582e-05
-8.7292e-05
1.61169e-05
-7.867e-06
-9.17775e-05
1.19234e-05
-3.53155e-06
-6.89727e-05
-4.82149e-05
-2.48227e-05
-2.311e-05
-5.9215e-05
-3.44012e-05
-4.61648e-05
-0.000104683
-1.73566e-05
-6.04808e-05
3.30481e-05
-9.78063e-06
-4.49225e-05
-3.0116e-05
5.2855e-06
-3.55337e-05
1.20917e-05
-5.19175e-05
-6.97282e-05
2.10605e-05
-9.28725e-06
-7.593e-05
1.55199e-05
-4.06098e-06
-5.69177e-05
-3.94916e-05
4.72368e-06
-4.41136e-05
1.04581e-05
-6.29117e-05
-8.29281e-05
1.71755e-05
5.27845e-05
-4.2557e-05
-9.31114e-05
2.23062e-05
-3.1836e-05
-2.18919e-05
1.05435e-05
-2.893e-05
1.79741e-05
-4.26716e-05
-5.65262e-05
3.31283e-05
-1.44513e-05
-6.83104e-05
2.60119e-05
-6.60409e-06
-5.09786e-05
-3.58311e-05
5.39428e-06
-4.11744e-05
1.25016e-05
-5.79612e-05
-7.68224e-05
2.10839e-05
-7.66508e-06
-8.14211e-05
1.2261e-05
-3.99234e-06
-6.16411e-05
-4.51696e-05
-2.26047e-05
-2.25795e-05
-5.25895e-05
-3.16724e-05
-4.18652e-05
-9.21435e-05
-1.87815e-05
-5.60219e-05
3.28723e-05
-7.58377e-06
-4.2965e-05
-3.02145e-05
6.80421e-06
-3.69577e-05
1.4085e-05
-5.00439e-05
-6.54022e-05
2.34713e-05
4.28926e-05
-3.41287e-05
-7.42421e-05
1.79283e-05
-2.57262e-05
-1.89967e-05
4.98743e-06
-2.61165e-05
1.68141e-05
-3.59362e-05
-4.73782e-05
2.9722e-05
-1.37389e-05
-5.54708e-05
2.22076e-05
-6.60369e-06
-4.30101e-05
-3.25321e-05
-1.64064e-05
-1.62376e-05
-3.79528e-05
-2.15835e-05
-2.78545e-05
-6.56616e-05
-1.07732e-05
-3.52881e-05
1.82206e-05
-5.05801e-06
-2.73185e-05
-2.13165e-05
-1.27224e-05
-8.59728e-06
-2.85247e-05
-1.15142e-05
-1.52093e-05
-4.85916e-05
7.87011e-07
-1.6516e-05
5.28979e-07
5.63849e-07
-1.12822e-05
-8.02711e-06
-1.35991e-05
5.5751e-06
-3.23958e-05
7.51432e-06
9.60591e-06
-5.85219e-05
2.5388e-05
2.64193e-05
-4.22029e-05
1.17335e-05
2.11684e-05
1.7309e-05
-1.08396e-05
2.81487e-05
-2.39431e-05
3.42714e-05
4.2888e-05
-4.04124e-05
2.75646e-05
6.34834e-05
-4.81615e-05
1.15339e-05
5.03024e-05
3.96831e-05
-1.34824e-05
5.31687e-05
-3.28813e-05
6.97073e-05
8.96908e-05
-5.90803e-05
-4.8863e-05
5.56798e-05
8.28887e-05
-2.13047e-05
4.21523e-05
3.18628e-05
-1.91455e-05
5.09914e-05
-4.37361e-05
6.67184e-05
8.73094e-05
-7.53917e-05
-4.04403e-05
5.9253e-05
6.84589e-05
-1.8431e-05
4.47008e-05
3.25797e-05
-2.41133e-05
5.67398e-05
-5.57217e-05
7.64148e-05
9.96684e-05
-9.60177e-05
-3.74354e-05
7.49398e-05
6.18646e-05
-1.66448e-05
5.55603e-05
3.94341e-05
1.80408e-05
2.63865e-05
3.15586e-05
3.66294e-05
4.90617e-05
5.96104e-05
4.66155e-05
8.63216e-05
-8.41683e-05
1.98644e-05
6.50857e-05
4.64858e-05
1.42462e-05
3.23089e-05
3.32657e-05
4.57282e-05
6.02073e-05
5.93134e-05
5.98484e-05
0.000107283
-0.000107027
2.47408e-05
8.07658e-05
5.70344e-05
1.41155e-05
4.2986e-05
3.33738e-05