/*--------------------------------*- C++ -*----------------------------------*\
| =========                 |                                                 |
| \\      /  F ield         | OpenFOAM: The Open Source CFD Toolbox           |
|  \\    /   O peration     | Version:  v2006                                 |
|   \\  /    A nd           | Website:  www.openfoam.com                      |
|    \\/     M anipulation  |                                                 |
\*---------------------------------------------------------------------------*/
FoamFile
{
    version     2.0;
    format      ascii;
    class       surfaceScalarField;
    location    "0.042";
    object      phi;
}
// * * * * * * * * * * * * * * * * * * * * * * * * * * * * * * * * * * * * * //

dimensions      [1 0 -1 0 0 0 0];
oriented        oriented;


internalField   nonuniform List<scalar> 
18081
(
-2.64851e-05
-0.00185068
0.00183183
4.53249e-05
-0.0017406
0.00171412
3.3391e-06
9.52584e-05
-2.93325e-05
0.00197721
3.28118e-05
0.0021436
-6.89664e-05
0.00217657
-1.46802e-05
0.00220525
-3.19852e-05
0.00217022
-5.29937e-06
0.00215088
-6.23626e-06
0.00212561
-1.77543e-06
0.00211045
-3.16609e-06
0.00209854
-3.27997e-06
0.00209039
-3.79593e-06
0.00208318
-4.08973e-06
0.00207624
-4.36984e-06
0.00206925
-4.63638e-06
0.0020619
-4.8898e-06
0.00205419
-5.13072e-06
0.00204615
-5.35972e-06
0.00203777
-5.57712e-06
0.00202908
-5.78302e-06
0.00202009
-5.97724e-06
0.0020108
-6.15947e-06
0.00200124
-6.32937e-06
0.00199142
-6.48656e-06
0.00198136
-6.63063e-06
0.00197107
-6.76098e-06
0.00196057
-6.87703e-06
0.00194989
-6.97814e-06
0.00193904
-7.06362e-06
0.00192805
-7.13282e-06
0.00191693
-7.18516e-06
0.00190571
-7.22015e-06
0.00189443
-7.23737e-06
0.00188309
-7.23648e-06
0.00187173
-7.21729e-06
0.00186038
-7.18028e-06
0.00184907
-7.1215e-06
0.00183781
-7.04175e-06
0.00182664
-6.946e-06
0.00181558
-6.83213e-06
0.00180466
-6.69926e-06
0.00179391
-6.5476e-06
0.00178334
-6.37721e-06
0.001773
-6.18801e-06
0.00176289
-5.97997e-06
0.00175306
-5.83978e-06
0.0017436
-5.59251e-06
0.00173429
-5.15277e-06
0.00172523
-4.86523e-06
0.00171688
-3.78847e-06
0.00170797
-4.30803e-06
0.00170015
-3.94512e-06
0.00168942
-6.06293e-06
0.00167569
-8.08956e-06
0.00165726
-2.67262e-05
0.00162664
-3.85148e-05
0.00158752
-0.000109325
0.00153477
-0.000180175
0.00149732
-0.000414704
0.00149742
-0.000874292
0.0016976
-0.000256585
0.000448801
6.21721e-05
0.000747951
-1.80787e-06
0.000948853
3.08512e-06
0.000902042
-4.84547e-05
0.000764373
-3.33763e-06
0.000689395
-2.89083e-06
0.000251644
-2.5331e-06
0.000208653
0.000168718
6.52157e-06
0.000162196
1.34808e-05
0.000201693
0.000244512
2.06127e-05
-7.16312e-06
0.0002412
1.04751e-05
-4.36766e-06
0.000198898
0.000157828
2.97395e-06
0.000154854
3.42912e-06
0.000198442
0.000241206
3.42252e-06
-3.33805e-06
0.000240139
4.40519e-06
-1.8871e-06
0.000196991
0.000152967
2.63509e-06
0.000150332
3.34921e-06
0.000196277
0.000238182
5.30612e-06
-4.02465e-06
0.000237763
4.44435e-06
-1.64775e-06
0.000193901
0.000148685
2.33196e-06
0.000146353
2.31634e-06
0.000193917
0.000237302
2.77847e-06
-2.23193e-06
0.000235959
3.57568e-06
-1.45131e-06
0.000193137
0.000144903
1.37304e-06
0.00014353
2.17949e-06
0.000192332
0.000235393
2.74703e-06
-2.92662e-06
0.000235594
2.7268e-06
-1.30006e-06
0.000190706
0.000142231
1.23558e-06
0.000140996
1.27518e-06
0.000190668
0.00023414
2.7297e-06
-2.83316e-06
0.000234265
2.70955e-06
-1.19069e-06
0.000189026
0.000139806
1.14363e-06
0.000138663
1.21279e-06
0.000188957
0.000232746
2.73229e-06
-2.77175e-06
0.000232802
2.71567e-06
-1.11527e-06
0.000187301
0.000137548
1.078e-06
0.000136469
1.17377e-06
0.000187204
0.000231229
2.74575e-06
-2.72948e-06
0.000231223
2.73383e-06
-1.06028e-06
0.000185534
0.000135408
1.0317e-06
0.000134375
1.15471e-06
0.000185409
0.000229602
2.77368e-06
-2.70579e-06
0.000229537
2.76765e-06
-1.02242e-06
0.000183723
0.00013335
1.00035e-06
0.000132347
1.15298e-06
0.000183568
0.00022787
2.81665e-06
-2.69755e-06
0.000227748
2.81635e-06
-9.97752e-07
0.000181865
0.000131347
9.80763e-07
0.000130364
1.16596e-06
0.000181677
0.000226037
2.87374e-06
-2.70241e-06
0.000225857
2.8788e-06
-9.83554e-07
0.000179956
0.000129379
9.70497e-07
0.000128407
1.19134e-06
0.000179733
0.000224103
2.94341e-06
-2.7181e-06
0.000223867
2.9533e-06
-9.77665e-07
0.000177992
0.000127428
9.67671e-07
0.000126461
1.2272e-06
0.000177733
0.00022207
3.02428e-06
-2.74332e-06
0.000221776
3.03911e-06
-9.78611e-07
0.000175969
0.000125483
9.71273e-07
0.000124514
1.2729e-06
0.00017567
0.000219936
3.11647e-06
-2.77778e-06
0.000219581
3.13677e-06
-9.85699e-07
0.000173881
0.000123531
9.80928e-07
0.000122554
1.32865e-06
0.000173538
0.000217693
3.2212e-06
-2.82192e-06
0.000217272
3.24787e-06
-9.98748e-07
0.000171719
0.000121558
9.96598e-07
0.000120565
1.3952e-06
0.000171324
0.000215332
3.34028e-06
-2.87643e-06
0.000214838
3.37416e-06
-1.01778e-06
0.000169469
0.00011955
1.01836e-06
0.000118534
1.47338e-06
0.000169016
0.000212838
3.47552e-06
-2.94207e-06
0.000212264
3.51742e-06
-1.04292e-06
0.000167117
0.000117491
1.04636e-06
0.000116444
1.56405e-06
0.000166599
0.000210198
3.62869e-06
-3.01961e-06
0.000209535
3.67941e-06
-1.07433e-06
0.000164651
0.000115368
1.08079e-06
0.000114283
1.66815e-06
0.000164059
0.000207396
3.80158e-06
-3.10992e-06
0.000206637
3.86197e-06
-1.11226e-06
0.000162056
0.000113166
1.12194e-06
0.000112039
1.78672e-06
0.000161384
0.00020442
3.99612e-06
-3.21406e-06
0.000203559
4.06714e-06
-1.15706e-06
0.00015932
0.000110876
1.17026e-06
0.0001097
1.92105e-06
0.000158563
0.000201257
4.21454e-06
-3.33338e-06
0.000200286
4.29739e-06
-1.20926e-06
0.000156433
0.000108486
1.22637e-06
0.000107256
2.07275e-06
0.000155583
0.000197895
4.45956e-06
-3.46953e-06
0.000196807
4.55565e-06
-1.26957e-06
0.000153381
0.000105985
1.29103e-06
0.000104695
2.24371e-06
0.000152429
0.000194317
4.7343e-06
-3.62413e-06
0.000193101
4.84477e-06
-1.33868e-06
0.000150147
0.000103359
1.36474e-06
0.000102
2.43522e-06
0.000149083
0.000190503
5.04082e-06
-3.79757e-06
0.000189145
5.16554e-06
-1.41676e-06
0.000146711
0.00010059
1.44754e-06
9.9151e-05
2.64766e-06
0.000145521
0.000186425
5.37956e-06
-3.99152e-06
0.000184908
5.52084e-06
-1.50452e-06
0.000143044
9.76553e-05
1.5412e-06
9.61225e-05
2.88511e-06
0.000141711
0.000182049
5.75702e-06
-4.21135e-06
0.000180351
5.91962e-06
-1.60438e-06
0.000139112
9.45252e-05
1.64877e-06
9.28815e-05
3.15472e-06
0.000137612
0.000177328
6.1845e-06
-4.46491e-06
0.000175421
6.37491e-06
-1.71995e-06
0.00013487
9.11638e-05
1.77477e-06
8.93882e-05
3.46648e-06
0.000133177
0.000172208
6.67816e-06
-4.75967e-06
0.000170063
6.89882e-06
-1.85475e-06
0.000130267
8.75293e-05
1.91984e-06
8.56022e-05
3.82269e-06
0.000128356
0.000166635
7.24046e-06
-5.10865e-06
0.000164216
7.51278e-06
-2.01465e-06
0.00012525
8.35775e-05
2.09624e-06
8.14691e-05
4.24973e-06
0.000123082
0.000160535
7.91342e-06
-5.53356e-06
0.000157799
8.25117e-06
-2.20984e-06
0.000119742
7.92459e-05
2.31333e-06
7.69192e-05
4.76869e-06
0.00011727
0.000153818
8.7297e-06
-6.06159e-06
0.000150705
9.15717e-06
-2.45291e-06
0.000113647
7.44542e-05
2.58797e-06
7.18566e-05
5.4164e-06
0.000110807
0.000146362
9.74608e-06
-6.73981e-06
0.000142788
1.03049e-05
-2.76587e-06
0.000106826
6.90847e-05
2.94853e-06
6.61348e-05
6.25599e-06
0.000103517
0.000137982
1.10595e-05
-7.65126e-06
0.000133816
1.18226e-05
-3.18813e-06
9.90583e-05
6.29505e-05
3.44798e-06
5.95116e-05
7.40054e-06
9.51167e-05
0.000128389
1.28409e-05
-8.94578e-06
0.000123415
1.39405e-05
-3.78929e-06
8.99772e-05
5.57364e-05
4.18224e-06
5.15723e-05
9.0585e-06
8.51228e-05
0.000117095
1.54039e-05
-1.0912e-05
0.000110944
1.70938e-05
-4.706e-06
7.8942e-05
4.68873e-05
5.3496e-06
4.15599e-05
1.1657e-05
7.26613e-05
0.000103256
1.93769e-05
-1.42086e-05
9.52669e-05
2.22285e-05
-6.26538e-06
6.47439e-05
3.5316e-05
7.52126e-06
2.78135e-05
1.62626e-05
5.60251e-05
8.53348e-05
2.62219e-05
-2.02834e-05
7.40557e-05
3.15834e-05
-8.88233e-06
4.46414e-05
1.89456e-05
1.57006e-05
3.25399e-06
2.88455e-05
3.15072e-05
6.17148e-05
4.11994e-05
-3.25955e-05
4.75119e-05
4.68017e-05
-1.56548e-05
1.4569e-05
-1.23991e-05
6.85433e-06
-1.92587e-05
2.62144e-05
-4.79727e-06
2.84559e-05
4.52637e-05
-1.82122e-05
6.81844e-06
3.98324e-05
-3.88794e-06
-1.9136e-05
-2.31587e-05
3.12498e-06
-2.63022e-05
9.46983e-06
-2.55031e-05
-1.02218e-05
2.64834e-05
-3.93492e-06
-1.87765e-05
1.24538e-05
-1.06102e-06
-2.84069e-05
-2.73882e-05
-2.65749e-06
-2.47606e-05
-3.78981e-06
-2.73104e-05
-2.11939e-05
-1.4151e-06
9.94374e-06
-2.27835e-05
-8.4021e-06
6.28464e-06
-2.36913e-05
-1.85094e-05
-7.32614e-06
-1.12185e-05
-1.13458e-05
-1.97137e-05
-2.46805e-05
-9.49905e-06
3.77838e-06
-2.78788e-05
-6.30308e-07
3.14803e-06
-1.91253e-05
-8.10576e-06
-2.0973e-06
-6.04149e-06
-2.91603e-06
-1.8346e-05
-2.76268e-05
-3.2156e-06
-3.34205e-06
-3.07316e-05
6.40491e-06
-1.2386e-06
-2.04842e-05
-7.30891e-06
2.34859e-06
-9.68008e-06
4.42274e-06
-2.25861e-05
-3.25735e-05
6.23054e-06
-7.03738e-06
-3.68018e-05
1.12422e-05
-3.31384e-06
-2.63287e-05
-1.30091e-05
2.1071e-06
-1.51234e-05
4.37029e-06
-2.86009e-05
-3.85922e-05
6.14987e-06
-4.1267e-06
-4.11347e-05
6.67275e-06
-1.99216e-06
-3.07326e-05
-1.71131e-05
3.53353e-07
-1.74524e-05
7.53191e-07
-3.11153e-05
-4.10838e-05
7.23026e-07
1.00638e-06
-4.07684e-05
-1.28576e-06
4.18033e-07
-3.04972e-05
-1.70101e-05
-1.4917e-06
-1.5481e-05
-2.74428e-06
-2.91993e-05
-3.92697e-05
-4.18899e-06
2.46038e-06
-3.87422e-05
-2.91761e-06
1.41978e-06
-2.80998e-05
-1.40125e-05
-1.15254e-06
-1.28038e-05
-1.59891e-06
-2.75854e-05
-3.82506e-05
-2.00903e-06
1.72418e-07
-3.87735e-05
4.46143e-07
2.43679e-07
-2.75764e-05
-1.24936e-05
5.73865e-07
-1.29936e-05
1.39147e-06
-2.83056e-05
-3.93844e-05
2.10785e-06
-2.25966e-06
-4.07245e-05
3.71305e-06
-1.14804e-06
-2.93226e-05
-1.40627e-05
1.47053e-06
-1.54507e-05
3.18625e-06
-3.09393e-05
-4.20584e-05
4.63847e-06
-3.38422e-06
-4.38977e-05
5.34447e-06
-1.69231e-06
-3.253e-05
-1.70588e-05
1.78535e-06
-1.87588e-05
3.8285e-06
-3.44704e-05
-4.54754e-05
5.52873e-06
-3.60075e-06
-4.73919e-05
5.6395e-06
-1.82605e-06
-3.61428e-05
-2.04997e-05
1.78024e-06
-2.21968e-05
3.77374e-06
-3.80362e-05
-4.88795e-05
5.38095e-06
-3.28581e-06
-5.06105e-05
5.13309e-06
-1.71539e-06
-3.95091e-05
-2.38312e-05
1.58756e-06
-2.53386e-05
3.30835e-06
-4.11335e-05
-5.17953e-05
4.60786e-06
-2.65163e-06
-5.31596e-05
4.13023e-06
-1.45454e-06
-4.22349e-05
-2.67136e-05
1.27798e-06
-2.79109e-05
2.59655e-06
-4.34568e-05
-5.39022e-05
3.45381e-06
-1.83087e-06
-5.4783e-05
2.82386e-06
-1.10173e-06
-4.40914e-05
-2.89337e-05
8.97613e-07
-2.97539e-05
1.73509e-06
-4.4836e-05
-5.49985e-05
2.0609e-06
-9.04572e-07
-5.53154e-05
1.33019e-06
-6.98711e-07
-4.49501e-05
-3.03759e-05
4.73072e-07
-3.07731e-05
7.64176e-07
-4.51505e-05
-5.49233e-05
4.79216e-07
1.35713e-07
-5.45878e-05
-3.63516e-07
-2.45664e-07
-4.46783e-05
-3.0943e-05
-1.94199e-09
-3.08646e-05
-3.34383e-07
-4.42545e-05
-5.35216e-05
-1.29225e-06
1.29583e-06
-5.24721e-05
-2.23648e-06
2.71606e-07
-4.31386e-05
-3.05164e-05
-5.60254e-07
-2.98787e-05
-1.55252e-06
-4.20536e-05
-5.069e-05
-3.22457e-06
2.55564e-06
-4.88587e-05
-4.27397e-06
8.66545e-07
-4.02693e-05
-2.89326e-05
-1.1579e-06
-2.76927e-05
-2.84898e-06
-3.84801e-05
-4.62974e-05
-5.29381e-06
3.90904e-06
-4.3604e-05
-6.48182e-06
1.50045e-06
-3.59697e-05
-2.61072e-05
-1.78309e-06
-2.42367e-05
-4.23642e-06
-3.34117e-05
-4.01923e-05
-7.52366e-06
5.32401e-06
-3.63934e-05
-8.99196e-06
2.21824e-06
-3.01946e-05
-2.19252e-05
-2.31361e-06
-1.95155e-05
-5.70498e-06
-2.66879e-05
-3.23845e-05
-9.57629e-06
6.74169e-06
-2.77368e-05
-1.1238e-05
2.9171e-06
-2.27348e-05
-1.64899e-05
-2.64578e-06
-1.37385e-05
-6.5436e-06
-1.87087e-05
-2.27643e-05
-1.13602e-05
8.37262e-06
-1.7085e-05
-1.38844e-05
3.63756e-06
-1.38317e-05
-9.98084e-06
-3.52422e-06
-6.3533e-06
-8.35463e-06
-8.87478e-06
-1.0857e-05
-1.44279e-05
8.23731e-06
-5.33582e-06
-1.36047e-05
3.60276e-06
-4.10885e-06
-2.63905e-06
-2.53714e-06
-6.5241e-06
-1.17148e-05
-2.58765e-05
1.45454e-05
-4.10922e-05
1.55656e-05
-5.73832e-05
1.66173e-05
-7.28691e-05
1.57187e-05
-8.67356e-05
1.40026e-05
-9.8673e-05
1.19454e-05
-0.000108442
9.65427e-06
-0.000116064
7.38861e-06
-0.000121407
5.02086e-06
-0.00012451
2.71887e-06
-0.000125143
2.10109e-07
-0.00012325
-2.32257e-06
-0.000118558
-5.09944e-06
-0.000110716
-8.20063e-06
-9.98015e-05
-1.11994e-05
-8.53332e-05
-1.46626e-05
-6.79528e-05
-1.74716e-05
-4.7221e-05
-2.07374e-05
-2.45137e-05
-2.26387e-05
8.17625e-06
-3.25501e-05
5.13772e-06
3.11925e-06
5.98098e-06
-7.92515e-07
9.65746e-06
-3.61601e-06
7.09293e-06
2.64564e-06
3.9297e-06
3.19177e-06
1.45961e-06
2.49082e-06
1.47545e-06
5.90338e-07
8.95566e-07
1.42193e-06
1.67269e-06
1.96597e-06
2.66255e-06
1.72247e-06
3.12413e-06
-2.85091e-06
5.364e-07
2.793e-06
1.49709e-06
-2.25406e-07
1.72793e-06
-1.03091e-06
3.62027e-06
4.22254e-06
-2.11048e-06
1.45627e-07
4.68776e-06
-5.91184e-07
-8.88296e-08
3.87212e-06
1.65227e-06
9.31181e-08
1.57402e-06
1.81286e-08
3.96468e-06
4.97225e-06
-2.44398e-07
-6.44173e-07
4.57797e-06
1.05984e-06
-2.69949e-07
3.61018e-06
1.31676e-06
-4.64027e-08
1.37837e-06
-1.42471e-08
3.59609e-06
4.50266e-06
8.26681e-08
1.44231e-07
3.6255e-06
7.51843e-07
2.83027e-07
3.47782e-06
1.67545e-06
-7.36793e-07
2.43439e-06
-1.39171e-06
4.14039e-06
3.3569e-06
-1.09327e-06
5.74012e-07
3.01331e-06
-2.10899e-07
2.50903e-07
4.48592e-06
2.69989e-06
6.14174e-08
2.65596e-06
6.22264e-08
4.50464e-06
2.54723e-06
5.5327e-07
-1.14125e-06
5.23512e-07
3.19271e-06
-4.66886e-07
3.84501e-06
2.2128e-06
4.1996e-07
1.81062e-06
1.46226e-06
2.82808e-06
-2.63582e-06
4.648e-06
-2.86504e-06
-6.13523e-06
6.39255e-06
-3.8943e-07
3.67576e-07
1.44917e-06
2.08739e-07
1.25857e-06
3.12432e-06
-2.52111e-06
-9.07003e-06
6.08891e-06
-2.93367e-06
-1.19163e-05
5.81164e-06
-5.17784e-07
-4.92402e-06
7.73917e-07
8.87601e-07
-1.09922e-07
2.86179e-06
-6.84998e-06
-1.40218e-05
4.99293e-06
-3.16469e-06
-1.61533e-05
5.33465e-06
-1.08799e-06
-8.9213e-06
-1.15829e-06
9.91631e-07
-2.14285e-06
2.55127e-06
-1.04306e-05
-1.76971e-05
4.12098e-06
-2.80592e-06
-1.93985e-05
4.5482e-06
-1.08684e-06
-1.21415e-05
-3.19201e-06
9.25118e-07
-4.10615e-06
2.14123e-06
-1.33086e-05
-2.0541e-05
3.31027e-06
-2.45852e-06
-2.19322e-05
3.89163e-06
-1.01958e-06
-1.47349e-05
-5.09054e-06
8.17423e-07
-5.89038e-06
1.73507e-06
-1.56132e-05
-2.27593e-05
2.59446e-06
-2.23117e-06
-2.39173e-05
3.41839e-06
-9.78976e-07
-1.68183e-05
-6.85468e-06
7.40184e-07
-7.56118e-06
1.48385e-06
-1.75471e-05
-2.45556e-05
2.16466e-06
-2.07127e-06
-2.5554e-05
3.09907e-06
-9.6688e-07
-1.86038e-05
-8.51265e-06
6.98549e-07
-9.17847e-06
1.29245e-06
-1.91812e-05
-2.60226e-05
1.80291e-06
-2.01306e-06
-2.69082e-05
2.92713e-06
-9.92072e-07
-2.01572e-05
-1.01543e-05
7.22375e-07
-1.08484e-05
1.23326e-06
-2.06454e-05
-2.72679e-05
1.63205e-06
-2.01864e-06
-2.80665e-05
2.85795e-06
-1.07928e-06
-2.15696e-05
-1.18964e-05
8.09196e-07
-1.2689e-05
1.29843e-06
-2.20174e-05
-2.81152e-05
1.37522e-06
-2.01967e-06
-2.89032e-05
2.8481e-06
-1.27472e-06
-2.27502e-05
-1.39325e-05
8.27913e-07
-1.4735e-05
1.20599e-06
-2.31055e-05
-2.87815e-05
1.11779e-06
-1.71025e-06
-2.96167e-05
2.57766e-06
-9.23054e-07
-2.38656e-05
-1.56357e-05
5.85621e-07
-1.61987e-05
7.82095e-07
-2.4035e-05
-2.96313e-05
8.29232e-07
-1.49009e-06
-3.01673e-05
2.05863e-06
-7.15486e-07
-2.47824e-05
-1.68917e-05
6.04683e-07
-1.74742e-05
4.75117e-07
-2.46262e-05
-3.00235e-05
3.63322e-07
-1.06643e-06
-3.05297e-05
1.60438e-06
-7.52059e-07
-2.49143e-05
-1.82046e-05
4.4557e-07
-1.86291e-05
3.54592e-07
-2.47974e-05
-3.01537e-05
1.03997e-08
-8.99662e-07
-3.03394e-05
1.11756e-06
-5.74442e-07
-2.50964e-05
-1.9183e-05
1.50046e-07
-1.93146e-05
3.56549e-07
-2.52773e-05
-2.99308e-05
-1.95927e-08
-6.43999e-07
-2.89791e-05
-2.7115e-07
-7.8565e-07
-2.51099e-05
-2.00794e-05
-1.09261e-05
-9.13161e-06
-2.40406e-05
-1.19814e-05
-1.44512e-05
-3.8552e-05
-5.06977e-06
-1.79082e-05
8.50472e-06
-1.98973e-06
-1.49566e-05
-1.11648e-05
8.83544e-07
-1.20238e-05
1.50248e-06
-1.55697e-05
-1.87788e-05
2.39113e-06
1.4941e-06
-1.75039e-05
-2.74813e-06
3.89684e-07
-1.44493e-05
-1.1621e-05
-1.52964e-06
-1.00779e-05
-3.73026e-06
-1.2232e-05
-1.41987e-05
-7.01453e-06
8.30412e-06
-6.46991e-06
-1.60071e-05
3.0957e-06
-7.00382e-06
-6.9676e-06
-5.00126e-06
-1.95504e-06
-1.02292e-05
-1.76541e-06
-1.60679e-06
-1.50762e-05
5.09204e-06
5.19295e-07
-7.21892e-06
2.54228e-06
8.20665e-07
5.81887e-07
-6.40724e-06
7.005e-06
-1.4287e-05
8.71459e-06
9.67878e-06
-2.34208e-05
2.36629e-05
2.78301e-05
-4.17827e-05
1.034e-05
2.20617e-05
1.7362e-05
4.11679e-06
1.32549e-05
9.56422e-06
1.66261e-05
2.03498e-05
1.70588e-05
3.31666e-05
3.74642e-05
-5.02703e-05
1.58626e-05
3.39378e-05
2.91249e-05
-3.13972e-05
6.053e-05
-6.99135e-05
7.24543e-05
8.35569e-05
-0.000115988
-2.1375e-05
7.42749e-05
3.06505e-05
-1.06033e-05
6.17083e-05
4.99705e-05
9.36062e-06
4.044e-05
2.53258e-05
4.5997e-05
5.36911e-05
4.58396e-05
0.000119282
0.000115292
-0.000180808
6.09666e-05
0.000104255
0.000101493
-1.85341e-05
0.000119946
-4.99637e-05
0.000135663
0.000158503
-9.31652e-05
1.32664e-06
0.00015942
-2.27818e-06
-7.17877e-06
0.000144158
0.000112802
6.18204e-05
5.10381e-05
0.000135856
7.01418e-05
8.51971e-05
0.000210073
5.99085e-05
0.000130468
-0.000105191
2.56051e-05
0.000104445
7.66459e-05
-3.4412e-05
0.00011105
-8.08841e-05
0.000150927
0.0001879
-0.000138307
-0.000103037
0.000113822
0.000177141
-4.48055e-05
9.27076e-05
6.62443e-05
2.75477e-05
3.87011e-05
6.4789e-05
5.54745e-05
7.02435e-05
0.00010838
6.32145e-05
0.000118524
-0.000111486
2.72453e-05
9.14523e-05
6.59557e-05
2.56912e-05
4.0268e-05
5.95329e-05
5.76133e-05
7.39886e-05
0.000104071
6.5694e-05
0.000122992
-0.000114699
2.792e-05
9.5386e-05
6.81844e-05
2.43019e-05
4.38821e-05
5.81174e-05
6.15677e-05
8.0591e-05
0.000100516
7.57585e-05
0.000136325
-0.00013149
3.13848e-05
0.000105946
7.52665e-05
2.24413e-05
5.28157e-05
5.54745e-05
7.29283e-05
9.36089e-05
9.81866e-05
-4.562e-05
6.06613e-05
7.85315e-05
-1.96051e-05
4.70033e-05
3.31757e-05
-2.586e-05
5.90674e-05
-6.12588e-05
8.23533e-05
0.000105322
-0.000105893
-4.70474e-05
7.12851e-05
8.10709e-05
-1.95387e-05
5.48635e-05
3.95273e-05
-3.05713e-05
7.01065e-05
-7.27569e-05
9.70499e-05
0.000123756
-0.000125218
-4.85577e-05
8.7421e-05
8.49085e-05
-1.9743e-05
6.82375e-05
5.03633e-05
1.84943e-05
3.18684e-05
4.27339e-05
4.40027e-05
5.66323e-05
7.35251e-05
5.70879e-05
9.78139e-05
-9.82725e-05
2.39702e-05
7.71292e-05
5.58357e-05
1.93867e-05
3.64524e-05
4.64182e-05
5.0099e-05
6.36628e-05
8.05709e-05
6.04798e-05
0.000107194
-0.00010401
2.57441e-05
8.48379e-05
6.2199e-05
2.09107e-05
4.129e-05
4.95323e-05
5.62188e-05
7.18612e-05
8.48681e-05
7.09274e-05
0.000122171
-0.000121235
3.0391e-05
9.67567e-05
7.16821e-05
2.08203e-05
5.08623e-05
5.02473e-05
6.73307e-05
8.57149e-05
8.67056e-05
-4.21589e-05
5.50974e-05
7.2777e-05
-1.87067e-05
4.38791e-05
3.2156e-05
-2.38018e-05
5.5958e-05
-5.55183e-05
7.5597e-05
9.54589e-05
-9.58793e-05
-4.64482e-05
6.20773e-05
7.98304e-05
-1.99344e-05
4.9085e-05
3.60237e-05
-2.48439e-05
6.08681e-05
-5.76293e-05
8.18716e-05
0.000102137
-9.76886e-05
-5.13348e-05
6.56406e-05
8.78325e-05
-2.17378e-05
5.22755e-05
3.91307e-05
-2.54056e-05
6.45365e-05
-5.84681e-05
8.53384e-05
0.00010675
-9.9577e-05
-5.34996e-05
6.92161e-05
9.10341e-05
-2.32325e-05
5.50716e-05
4.13041e-05
-2.69161e-05
6.82209e-05
-6.18875e-05
9.00435e-05
0.000112049
-0.00010472
-5.27371e-05
7.50911e-05
8.96961e-05
-2.30106e-05
6.0318e-05
4.52114e-05
-3.18642e-05
7.70773e-05
-7.3089e-05
0.000101544
0.000127194
-0.000125192
-5.175e-05
8.99829e-05
8.89609e-05
-2.22251e-05
7.20125e-05
5.48552e-05
1.96469e-05
3.52074e-05
4.53874e-05
4.62747e-05
5.81304e-05
7.7239e-05
5.81831e-05
9.94815e-05
-9.95982e-05
2.48568e-05
7.97403e-05
5.99825e-05
2.10586e-05
3.88243e-05
4.91011e-05
5.18468e-05
6.46452e-05
8.38845e-05
6.01741e-05
0.000106102
-0.000101669
2.62866e-05
8.57959e-05
6.5077e-05
2.37261e-05
4.12838e-05
5.49281e-05
5.47105e-05
6.83895e-05
9.26023e-05
6.02632e-05
0.000110523
-0.000102433
2.64504e-05
8.85839e-05
6.77078e-05
2.47028e-05
4.30119e-05
5.67441e-05
5.65721e-05
7.04104e-05
9.68492e-05
6.17369e-05
0.000112533
-0.000103865
2.67401e-05
9.15631e-05
6.97611e-05
2.55174e-05
4.42714e-05
5.90266e-05
5.8068e-05
7.23102e-05
9.92341e-05
6.2872e-05
0.000114893
-0.000105466
2.72916e-05
9.36416e-05
7.15865e-05
2.64317e-05
4.51629e-05
6.07368e-05
5.93317e-05
7.35372e-05
0.000102081
6.38853e-05
0.000117614
-0.000107969
2.81445e-05
9.50657e-05
7.33062e-05
2.65773e-05
4.67191e-05
6.14358e-05
6.02012e-05
7.52171e-05
0.000103825
6.49715e-05
0.000119262
-0.000109016
2.86194e-05
9.65528e-05
7.53341e-05
2.79959e-05
4.73345e-05
6.27609e-05
6.17868e-05
7.57288e-05
0.000106296
6.51851e-05
0.000121455
-0.000110908
2.85324e-05
9.84415e-05
7.58661e-05
2.74806e-05
4.83855e-05
6.32924e-05
6.26308e-05
7.72765e-05
0.000107474
6.64602e-05
0.000122343
-0.000111524
2.93218e-05
9.97705e-05
7.77081e-05
2.88382e-05
4.88716e-05
6.50095e-05
6.36006e-05
7.76934e-05
0.00010966
6.65956e-05
0.000123796
-0.000112699
2.92013e-05
0.000100995
7.80736e-05
2.8794e-05
4.92797e-05
6.61102e-05
6.36792e-05
7.92775e-05
0.000110629
6.80238e-05
0.000125153
-0.0001139
3.00077e-05
0.000101695
7.92871e-05
2.96327e-05
4.9654e-05
6.6796e-05
6.4531e-05
7.88775e-05
0.000113071
6.83189e-05
0.000125231
-0.000114673
2.99976e-05
0.000102852
7.96508e-05
2.98555e-05
4.97974e-05
6.83731e-05
6.43305e-05
7.94432e-05
0.000114162
6.80613e-05
0.000124915
-0.000113545
3.00098e-05
0.000102401
7.97956e-05
3.053e-05
4.92618e-05
7.00038e-05
6.29299e-05
7.72204e-05
0.000117694
6.23727e-05
0.000120774
-0.000105943
2.72757e-05
9.80688e-05
7.6522e-05
3.12298e-05
4.52551e-05
7.01166e-05
5.92511e-05
7.23229e-05
0.000118539
6.05202e-05
0.000112844
-0.000101067
2.66819e-05
9.31525e-05
7.19021e-05
-3.05191e-05
0.00010243
-6.89667e-05
0.000131606
0.000160031
-0.00011615
-9.24248e-05
9.75429e-05
0.000154916
-4.05593e-05
7.97513e-05
6.18483e-05
-3.25909e-05
9.44315e-05
-7.29159e-05
0.000120067
0.00014726
-0.000122626
-7.92286e-05
9.31282e-05
0.000133364
-3.47929e-05
7.56329e-05
5.96477e-05
-3.39765e-05
9.36338e-05
-7.65469e-05
0.000118204
0.00014513
-0.00012855
-7.76864e-05
9.1923e-05
0.000130891
-3.47997e-05
7.5321e-05
5.88406e-05
-3.37198e-05
9.25633e-05
-7.69348e-05
0.000118535
0.000144711
-0.000129724
-7.7683e-05
9.16726e-05
0.000130719
-3.41119e-05
7.49634e-05
5.8451e-05
-3.4318e-05
9.27686e-05
-7.70293e-05
0.000117674
0.000143396
-0.000128753
-7.79624e-05
9.03974e-05
0.000130961
-3.48121e-05
7.45236e-05
5.79562e-05
-3.30074e-05
9.09639e-05
-7.50427e-05
0.00011656
0.000142118
-0.000126762
-8.01487e-05
8.76153e-05
0.000134653
-3.54614e-05
7.18723e-05
5.55028e-05
-3.12206e-05
8.672e-05
-7.0405e-05
0.000111062
0.000135357
-0.000118148
-7.96439e-05
8.11169e-05
0.000133885
-3.53064e-05
6.67231e-05
5.14171e-05
-2.99606e-05
8.13782e-05
-6.67092e-05
0.000103474
0.000126712
-0.000112304
7.68156e-05
0.000178664
-0.000128767
3.38315e-05
0.000146459
0.000115211
4.50656e-05
7.01436e-05
0.000102525
8.8999e-05
0.000109337
0.000171853
8.33194e-05
0.000165276
-0.000139259
3.70039e-05
0.000135314
0.000107146
4.01556e-05
6.69904e-05
9.0159e-05
8.53095e-05
0.000104533
0.000150902
8.6597e-05
0.00016242
-0.000144484
3.85773e-05
0.00013333
0.000105568
3.99302e-05
6.56387e-05
8.96135e-05
8.36476e-05
0.000102718
0.000149317
8.52711e-05
0.000159439
-0.000141992
3.82347e-05
0.000130684
0.000103874
4.04394e-05
6.34343e-05
8.98895e-05
8.12329e-05
9.84331e-05
0.000150895
7.87115e-05
0.000151754
-0.000132028
3.55249e-05
0.000124407
9.89646e-05
4.04838e-05
5.84834e-05
9.08595e-05
7.40265e-05
9.12827e-05
0.000151342
7.45828e-05
0.000140803
-0.000124082
3.3105e-05
0.000115481
9.16008e-05
-3.71278e-05
0.000128716
-8.37547e-05
0.000162091
0.000197651
-0.000140601
-0.00011542
0.000120084
0.000192985
-5.15201e-05
9.81937e-05
7.72246e-05
-3.98812e-05
0.000117116
-8.8756e-05
0.000147067
0.000179154
-0.000147836
-9.83652e-05
0.000112227
0.000165283
-4.39102e-05
9.26148e-05
7.3203e-05
-4.05131e-05
0.000113711
-9.11941e-05
0.000143293
0.000174203
-0.000153171
-9.60745e-05
0.000109039
0.000161238
-4.23829e-05
8.96001e-05
7.13254e-05
-3.99181e-05
0.000111249
-9.02628e-05
0.000139937
0.000169829
-0.000151047
-9.66957e-05
0.000105052
0.000161473
-4.2601e-05
8.58513e-05
6.86427e-05
-3.60193e-05
0.000104673
-8.3668e-05
0.000133482
0.000161594
-0.000140203
-9.69612e-05
9.64158e-05
0.000162144
-4.23669e-05
7.88864e-05
6.23061e-05
-3.54881e-05
9.78252e-05
-7.98522e-05
0.000123207
0.000149344
-0.000132757
9.02564e-05
0.000211184
-0.000152103
3.94933e-05
0.000173978
0.000137286
5.35314e-05
8.37838e-05
0.000122087
0.000105412
0.000128127
0.000205147
9.7536e-05
0.000194151
-0.000163569
4.33833e-05
0.000159561
0.000127182
4.73966e-05
7.97885e-05
0.000107193
9.97642e-05
0.000120927
0.000180407
9.9534e-05
0.000188046
-0.000166653
4.37929e-05
0.000155497
0.00012358
4.75075e-05
7.60602e-05
0.000107428
9.55749e-05
0.000116429
0.000179043
9.27676e-05
0.000177767
-0.000154095
4.10927e-05
0.000147215
0.000117168
4.70896e-05
7.00722e-05
0.000106292
8.80095e-05
0.000106979
0.000177094
8.70557e-05
0.000166041
-0.000146077
3.83535e-05
0.000136652
0.000108478
-4.40224e-05
0.000152464
-9.81525e-05
0.000190789
0.000231978
-0.000164096
-0.000136157
0.0001404
0.000227745
-6.04715e-05
0.000115077
9.20296e-05
-4.58677e-05
0.000137912
-0.000104132
0.000173342
0.00020907
-0.000172818
-0.000117412
0.000132359
0.000194113
-5.16277e-05
0.000107559
8.62921e-05
-4.79131e-05
0.000134201
-0.000108366
0.000168005
0.000203551
-0.000179562
-0.000112352
0.000127327
0.000188572
-5.03623e-05
0.000106015
8.38315e-05
-4.73065e-05
0.000131138
-0.000106242
0.000164937
0.000198389
-0.000177298
-0.000114214
0.000123085
0.000189517
-5.00331e-05
0.000100762
8.10952e-05
-4.3913e-05
0.00012502
-0.00010004
0.000156872
0.000189431
-0.000166378
-0.000114253
0.000114285
0.000189405
-5.02333e-05
9.28504e-05
7.47773e-05
-4.13683e-05
0.000116143
-9.46205e-05
0.000146125
0.000175437
-0.000155768
0.000108449
0.000249236
-0.00018224
4.85572e-05
0.000205994
0.000164692
6.54994e-05
9.91954e-05
0.000146374
0.000125127
0.000152595
0.000243026
0.000114
0.000227758
-0.00018917
5.14243e-05
0.000187688
0.000150654
5.61264e-05
9.45319e-05
0.000126499
0.000117333
0.000143074
0.000211173
0.000118205
0.000222994
-0.000198117
5.22003e-05
0.0001833
0.000146747
5.49518e-05
9.17703e-05
0.000122623
0.000115664
0.00014011
0.000205496
0.000116186
0.000217635
-0.000193705
5.16989e-05
0.000180121
0.000143477
5.47655e-05
8.86945e-05
0.000124882
0.000110021
0.000135353
0.000207155
0.000108736
0.000205857
-0.000179232
4.81704e-05
0.000170557
0.000136877
5.52964e-05
8.15589e-05
0.000123606
0.000102281
0.000123057
0.000206397
0.000101386
0.000191632
-0.000169967
4.4885e-05
0.000158794
0.000126436
-5.05822e-05
0.000177022
-0.000115423
0.000223634
0.000269075
-0.000192867
-0.000158389
0.000162928
0.000264538
-7.05249e-05
0.00013577
0.000106501
-5.56357e-05
0.000162138
-0.000122024
0.000202158
0.000245504
-0.0002046
-0.00013561
0.000153933
0.000227182
-6.07357e-05
0.000127285
0.000101403
-5.66581e-05
0.000158061
-0.000127296
0.000197923
0.000239666
-0.000213028
-0.000131694
0.000150032
0.000221328
-5.88092e-05
0.000125039
9.92519e-05
-5.6009e-05
0.000155261
-0.000126073
0.000195103
0.000235793
-0.000211833
-0.000133259
0.0001467
0.000222351
-5.84263e-05
0.00012027
9.68347e-05
-5.26622e-05
0.000149497
-0.000119647
0.000187255
0.000226051
-0.000198998
-0.000133998
0.000135506
0.000224542
-5.93721e-05
0.000112629
9.01242e-05
-5.06376e-05
0.000140762
-0.000112991
0.000174982
0.000212341
-0.000189826
0.000132877
0.000300939
-0.000221474
5.94407e-05
0.000248419
0.000200203
7.86204e-05
0.000121583
0.000174424
0.000152617
0.000184119
0.000291244
0.000138276
0.000277668
-0.000231824
6.25589e-05
0.000228334
0.000184142
6.77377e-05
0.000116406
0.000150849
0.000145224
0.000175045
0.000253473
0.000146014
0.000273134
-0.000244102
6.59886e-05
0.000225251
0.000182395
6.76435e-05
0.000114753
0.00014807
0.000144826
0.000174517
0.000246689
0.000147617
0.000273062
-0.00024616
6.76503e-05
0.000224793
0.000182404
6.76887e-05
0.000114716
0.000148701
0.000143782
0.000173396
0.000248368
0.000148314
0.000273333
-0.000248249
6.64287e-05
0.000225668
0.000181146
6.58247e-05
0.000115321
0.000148089
0.000143405
0.000175048
0.000246373
0.000150821
0.000273697
-0.00024947
6.67227e-05
0.000227503
0.000182044
6.66735e-05
0.00011537
0.000149229
0.000144947
0.000174087
0.000248839
0.000151261
0.000274816
-0.000251991
6.841e-05
0.000227796
0.000183779
6.80312e-05
0.000115747
0.00015175
0.000144076
0.000174621
0.000251944
0.000152393
0.00027569
-0.000253465
6.71186e-05
0.000229349
0.000182864
6.64743e-05
0.000116388
0.000151645
0.000144176
0.000176775
0.000250558
0.000154709
0.000277891
-0.000255827
6.76473e-05
0.000231237
0.000184034
6.7381e-05
0.000116654
0.000153941
0.000144677
0.000176265
0.000255568
0.000153094
0.000277307
-0.000254134
6.77037e-05
0.00023007
0.000184361
6.96246e-05
0.00011474
0.000158837
0.000140861
0.000172333
0.000263815
0.000144345
0.000269155
-0.000241162
6.32288e-05
0.000221976
0.000177972
7.05418e-05
0.000107435
0.000157888
0.000134626
0.000162474
0.000264558
0.000139101
0.000255801
-0.000232377
6.25882e-05
0.000210994
0.000170149
-7.3207e-05
0.000243274
-0.000164647
0.000302577
0.000364817
-0.000273703
-0.000208037
0.000226715
0.000346186
-9.23718e-05
0.000186758
0.000150944
-8.04819e-05
0.000231417
-0.000180634
0.000286898
0.000344329
-0.000298257
-0.000174673
0.000231377
0.000287656
-7.81587e-05
0.000190396
0.000153233
-9.98158e-05
0.000253063
-0.000223996
0.000314587
0.000378237
-0.000370844
-0.000163173
0.000272025
0.000269395
-7.34638e-05
0.000224885
0.000179627
6.30394e-05
0.000116583
0.000142312
0.00014565
0.000174908
0.000239416
0.000179988
0.000292953
-0.00029805
8.21124e-05
0.000243584
0.000198668
7.09841e-05
0.000127713
0.000153966
0.000160573
0.000192966
0.000253939
0.000184874
0.000316484
-0.000308407
8.31702e-05
0.000262294
0.000210855
7.39743e-05
0.000136884
0.000166627
0.000169615
0.000204874
0.000278224
0.000187687
0.000330607
-0.000313423
8.39993e-05
0.00027334
0.000220855
7.89545e-05