/*--------------------------------*- C++ -*----------------------------------*\
| =========                 |                                                 |
| \\      /  F ield         | OpenFOAM: The Open Source CFD Toolbox           |
|  \\    /   O peration     | Version:  v2006                                 |
|   \\  /    A nd           | Website:  www.openfoam.com                      |
|    \\/     M anipulation  |                                                 |
\*---------------------------------------------------------------------------*/
FoamFile
{
    version     2.0;
    format      ascii;
    class       volScalarField;
    location    "0.004";
    object      omega;
}
// * * * * * * * * * * * * * * * * * * * * * * * * * * * * * * * * * * * * * //

dimensions      [0 0 -1 0 0 0 0];


internalField   nonuniform List<scalar> 
9148
(
13.7599
13.9658
3.97998
4.46416
7.9923
10.5744
14.2055
18.9897
24.9383
32.0435
39.956
48.1638
56.1044
63.3741
69.7617
75.2556
79.9622
84.0242
87.5715
90.7026
93.4859
95.9673
98.179
100.146
101.891
103.435
104.799
105.999
107.052
107.973
108.774
109.466
110.055
110.548
110.944
111.245
111.444
111.537
111.514
111.364
111.072
110.621
109.989
109.15
108.073
106.718
105.042
102.997
100.524
97.5567
94.0237
89.8479
84.9745
79.3338
72.9639
65.919
58.459
50.9773
44.4947
39.2149
35.4443
30.2376
20.5097
14.1086
9.07622
20.4348
35.1056
92.5247
389.454
3709.17
21425.6
286357
283544
43682.9
10227.4
16417.8
57024.6
281386
278710
64267.9
21061.9
24787.4
67691.6
272782
269578
71122.4
27699.4
30214
72305.7
265492
263075
74004.8
31759
33165.4
74203.9
260101
257710
74208.8
33859
34809.7
74373.6
254861
252946
74217.2
35000.3
35633.6
74254.2
250492
248872
73971.4
35680.2
36081.4
73980.8
246614
245147
73661.5
36058.5
36317.2
73647
242927
241510
73310
36258.4
36424.5
73281.9
239265
237843
72934.7
36339.1
36453.5
72897.5
235548
234104
72535.3
36328.1
36391.6
72487.1
231781
230316
72110.6
36212.7
36267.9
72064.3
227986
226512
71694.9
36086.7
36141.7
71654.3
224225
222781
71295.1
35967.7
36028.5
71263.8
220608
219247
70923.5
35878.1
35952.6
70909.5
217244
215997
70608.4
35834
35942.1
70619.1
214186
213064
70377.3
35870.8
36032.9
70414.2
211411
210355
70235.2
35975.8
36143.9
70295
208738
207640
70169
36088.9
36250.9
70249.4
205904
204640
70146.4
36191.7
36329.2
70244.2
202668
201162
70148.2
36254.1
36350.7
70238
198932
197154
70111.8
36196.5
36241.2
70171.5
194677
192650
70004.6
36027.9
36064.5
70053.1
190037
187891
69843.7
35819.9
35846.3
69871.7
185275
183181
69609.4
35586.3
35612.3
69611.6
180720
178851
69291.7
35360.3
35392.1
69250.6
176719
175168
68852.4
35161
35201.3
68764.5
173374
172113
68286.5
34999.3
35049.4
68161.5
170568
169422
67628.3
34880.8
34945.5
67474.2
167931
166778
66904.9
34823.9
34913
66725.3
165310
164173
66164
34841.2
35018.6
66001.3
162715
161535
65492.7
34987.5
35197
65354.6
159958
158588
64897.3
35171
35394.1
64774.2
156693
154980
64372.4
35384.1
35634.9
64260.4
152642
150535
63914.6
35656.5
35961.2
63837
147706
145111
63589.7
36057.5
36490
63594.4
141682
138364
63546.6
36722.3
37380.2
63724.3
134166
129796
63901.2
37916
38935.9
64473.4
124867
120285
65240.9
40012.1
41634.4
66452
114863
108719
67533.9
43192.8
44763.3
68211.8
101881
97136.3
68312.4
46095.9
47481.1
68365.8
96633.6
97981.8
66836.2
48035.2
47946.8
64045.5
98565.5
98695.9
60268.5
47288.3
46540.6
55895.4
98627.7
98711.6
51400.6
45100.9
42950.9
46908.9
98712.4
98615.4
42497.7
40312.4
37582.6
38823.3
98204.5
97663.3
35942.9
35081.1
32635.6
33707.1
96945.4
96165.4
32128.8
30437.9
28316.5
30652.9
95168.6
94120.4
29335.9
26194.3
24161.4
28036.8
92955.3
91731.9
26698.6
22179.9
20202.2
25286.6
90494.1
89270.4
23814.3
18390.8
16623.4
22499.4
88189.9
87169.1
21174.2
15041
13414
20011.9
86306.8
85583.3
19026.2
12223.2
10823.3
18046.5
85067.7
84758.6
17449.1
10013.2
8896.23
16704.7
84527.9
84389
16439.4
8424.62
7624.68
15920.2
84276.1
84207.4
15858.3
7376.25
6858.1
15462.9
84124.8
84048.6
15469
6732.61
6386.62
15085.9
83964.5
83898.5
15115.7
6319.67
6060.01
14729.5
83848.7
83807.7
14767.8
6014.98
5798.14
14396
83732.9
83658
14431.3
5763.37
5581.08
14088.3
83606.2
83498.6
14131.1
5564.69
5418.61
13820.5
83585.9
82924.5
13827.4
5412.65
5289.43
13528.6
82337.3
80003.4
13467.1
5336.12
5241.41
13145.5
79044.8
77503.9
12742.8
5048.44
4921.65
12237
76142.9
39129.5
5117.45
5452.59
5991.84
6121.48
6310.09
6241.78
6399.95
6435.05
6462.71
6414.72
6391.49
6359.37
6347.93
6319.21
6302.83
6276.66
6251.75
6261.45
6249.86
6292.55
6180.1
6522.92
12526.8
39304.2
25069.2
16126.3
15497
19830
118321
389326
59449.5
16831
36004.1
117867
761238
553038
85725.9
24921.3
21886.1
75348.8
485017
481649
74354.1
21518.7
22182.9
75368.5
487478
494132
76657.3
22503.2
23046.5
77964.5
500255
507090
78833
23041.3
23617
79144.7
512710
513028
79420.9
23024.7
23268
79587.1
513066
513135
79860.4
22902.2
23441.4
79703
513243
513412
79984.9
22815.2
23049.2
79561.2
513577
513703
80168.7
22864.6
23435.8
79865.9
513800
513878
80351.4
22876
22973
79612.5
513936
513958
80151.8
22676.9
23203.7
79428.2
513951
513966
80248.5
22780.3
22650
79167.2
514034
514113
79557.1
22182.4
22679.9
78949.9
514196
514317
79893.9
22474
22146.6
78522.1
514443
514592
77875.7
21300.7
21589.5
77653.3
514721
514910
78604.5
21913.7
21602.9
77629.8
515079
515471
75860.7
20186
20083.3
74775.5
515758
504549
74511.3
20153.5
19227
70717.1
486893
464732
65083
17439.7
16152.5
59966.6
434215
400667
56945.7
15607.3
14834.3
52269.5
365502
328666
48299.2
13876.2
8867.29
3589.95
284329
439607
153092
48175.9
29770.5
96652.6
750996
488266
68033.3
21717.7
18095.2
52728.6
382472
315547
42443.2
16008.4
6831.19
42290
271766
429200
188109
72615.5
50997.4
127253
713523
454623
88463.3
33178.4
27769.6
14157.4
341182
500747
195090
80513.5
63233.7
142509
727044
389621
71944.9
36966.8
53869
82953.7
451267
1.12411e+06
382497
163218
97323.7
183172
854699
656232
197549
84414.8
107523
50591.6
631894
926861
537113
281259
232701
420163
1.11308e+06
557552
234290
148478
174773
279818
552630
1.02569e+06
528377
316275
209164
256993
870895
823900
440836
274999
182549
228725
706848
667926
374384
236215
156676
216014
544795
482271
230762
158072
243732
434614
869747
722231
188988
161654
209641
337718
666841
525143
180480
136089
136948
196733
458749
839163
404917
217443
143422
166887
714453
679393
325025
193275
127186
152811
584752
565193
289534
171717
112954
157096
469531
422475
177763
116151
198765
385305
814230
704392
151364
126777
179764
316425
684319
615195
139148
115901
166385
295847
612347
563187
136346
110393
159815
284201
572908
524122
134366
105624
151017
266557
525172
446495
143641
97229.6
101442
165839
409634
804139
373008
187968
118016
140680
703613
697196
316414
175544
110086
134773
629494
641855
305709
167929
107993
138997
598938
619820
300925
164675
107522
137227
593726
616845
301516
165308
108237
137637
586785
619184
300326
165923
109184
140512
590100
611338
302281
166941
110267
139645
582783
617041
303995
168473
111733
143385
598302
626171
309565
170753
113543
144082
597218
633664
313041
173787
115809
147811
614519
648170
322084
178272
118768
150269
623814
663768
328680
182256
121549
154599
643374
681166
338483
187688
125634
157331
662093
711651
354094
195350
132986
157762
726450
811144
403504
215580
160698
293119
878999
458495
157904
108517
163497
275269
532992
558925
134076
114346
172180
300163
603760
592710
145350
118680
181522
323797
640025
632465
154018
124217
190709
341591
678946
652433
164352
129784
198882
355399
699533
696878
165844
135662
212353
385573
764342
778528
173977
146351
236805
438088
868081
945239
321268
177638
120712
174938
499412
578100
302148
181124
126573
147823
596708
650088
327970
190931
130596
158688
637992
693025
355958
201397
138042
167572
683334
747979
386474
215312
149531
178651
758322
852673
440624
241905
183136
326083
943843
508059
179193
126030
188373
312772
595052
623387
156603
134391
201730
348510
682118
675615
172694
141753
215695
378947
736682
725128
182978
150469
231811
411172
795595
818663
191076
163250
262471
475243
932485
1.01431e+06
351718
199196
137348
194677
549486
642835
336973
204528
144349
168662
656989
719908
369549
217019
150523
181301
707609
780774
407401
232281
163572
192472
793191
896753
467648
261440
199313
350664
987572
542748
195411
138252
206084
337492
637081
665019
172189
148732
223625
380675
737290
721240
189798
158107
238770
414146
790059
769738
204522
167987
256448
445820
847211
851888
211553
181789
286699
507027
964640
1.05229e+06
379513
220911
151601
213132
575910
676779
362787
224747
160166
187028
695299
771321
402780
239547
167850
203153
748531
823952
435418
253228
177558
217518
796038
880788
467473
270365
192660
227237
875357
995972
529145
301977
232113
398681
1.09378e+06
613294
224886
162542
239385
387889
729177
742001
202341
173146
257062
433939
827461
800324
222304
183268
273819
468380
887114
851410
235702
193872
291579
500161
941521
921939
247277
208225
321617
558730
1.05034e+06
1.12739e+06
422655
249089
171381
238463
631337
746816
403065
252717
179402
214198
749064
838285
443738
266373
186806
231168
791342
877619
471960
280016
195899
242017
827689
915913
495596
293759
204287
255942
862002
948751
509185
304003
212889
264162
885051
979904
524853
314154
220368
269699
911831
1.0137e+06
546268
326406
228648
281112
949807
1.05028e+06
561198
336868
235748
289402
975359
1.08463e+06
578226
347025
243939
291681
1.01576e+06
1.14517e+06
613987
364253
259330
306785
1.10057e+06
1.26202e+06
677052
395786
305043
511073
1.33652e+06
755261
292836
209818
305560
479956
887065
859515
258193
216247
315830
503837
947691
811362
301922
205603
223492
356386
815158
1.46079e+06
747676
416087
279094
319876
1.24756e+06
1.35015e+06
684463
415630
272112
342860
1.16677e+06
1.27196e+06
677784
405827
272722
346097
1.132e+06
1.26269e+06
676140
407209
276310
345637
1.13332e+06
1.25104e+06
673964
408438
276807
351777
1.10952e+06
1.22652e+06
662508
407676
277116
340587
1.08626e+06
1.19333e+06
653427
408442
257716
386026
987543
984456
438100
275867
502631
878029
1.73879e+06
1.4359e+06
388131
326524
480926
787499
1.54262e+06
1.2602e+06
399193
309483
450016
711796
1.3443e+06
1.07273e+06
411833
272681
287574
457324
1.03674e+06
1.72424e+06
909332
520813
306434
440005
1.3015e+06
1.2038e+06
471232
308458
549032
984069
1.91757e+06
1.33398e+06
433776
313117
325934
534603
1.19441e+06
1.56737e+06
505396
337316
660221
1.28035e+06
2.4517e+06
1.59633e+06
527140
353315
346682
576339
1.36935e+06
1.58641e+06
663437
381840
385442
696287
1.74425e+06
1.81889e+06
746587
397364
394289
753062
1.7883e+06
1.7527e+06
760332
398054
390066
741229
1.68393e+06
1.60795e+06
736415
390310
376407
703724
1.53309e+06
1.46168e+06
700004
376075
362206
673137
1.39292e+06
1.33244e+06
671751
362664
351840
651446
1.2778e+06
1.22963e+06
651477
353120
344903
634759
1.1871e+06
1.14919e+06
634935
346816
340237
619730
1.11567e+06
1.08569e+06
619521
342345
336628
604258
1.05957e+06
1.03622e+06
603395
338923
333826
587990
1.01638e+06
998511
586553
336012
331092
570657
983909
970440
568876
333233
328489
553097
960280
949951
551144
330384
325587
535279
943757
935232
533223
327338
322584
517795
932920
926112
515792
324057
319080
500574
925561
920919
498734
320352
315321
484532
921187
917894
483189
316351
311167
469943
918631
916177
469011
312062
306942
457087
917209
915320
456775
307664
302464
445895
916545
915047
445948
303104
298014
436432
916424
915135
436910
298549
293442
428220
916786
915601
428939
293952
288965
421311
917428
916358
422402
289420
284453
415321
918382
917413
416596
284928
280102
410329
919597
918728
411916
280558
275786
405953
921063
920266
407665
276291
271679
402310
922692
921964
404272
272187
267659
399055
924427
923755
401097
268236
263875
396346
926244
925627
398604
264470
260201
393871
928128
927575
396146
260870
256754
391719
930155
929680
394203
257434
253401
389701
932337
931932
392260
254171
250310
388019
934650
934301
390875
251110
247345
386561
937003
936698
389452
248236
244630
385348
939422
939158
388508
245551
242035
384300
941809
941565
387454
243044
239663
383425
944202
943993
386806
240695
237357
382636
946565
946378
385968
238468
235219
381953
948955
948808
385490
236365
233107
381327
951345
951226
384806
234318
231190
380792
953788
953710
384458
232405
229286
380274
956242
956189
383862
230569
227512
379827
958732
958713
383598
228801
225758
379393
961215
961214
383108
227115
224136
379071
963696
963725
382978
225495
222533
378770
966144
966182
382619
223962
221068
378584
968552
968603
382628
222499
219624
378427
970887
970937
382414
221127
218323
378391
973159
973216
382575
219828
217044
378390
975342
975390
382517
218624
215913
378522
977446
977493
382845
217497
214802
378686
979446
979473
382946
216470
213861
378976
981352
981377
383421
215522
212862
379278
983158
983172
383649
214643
212094
379693
984897
984912
384242
213869
211258
380108
986554
986559
384574
213152
210649
380625
988159
988166
385261
212530
209959
381129
989694
989691
385673
211954
209488
381726
991186
991184
386431
211464
208927
382296
992612
992600
386903
211014
208579
382952
993998
993985
387715
210642
208131
383574
995319
995294
388231
210301
207891
384273
996599
996572
389081
210032
207543
384930
997815
997775
389627
209787
207399
385660
998992
998948
390501
209610
207139
386338
1.00011e+06
1.00005e+06
391064
209450
207079
387085
1.00118e+06
1.00112e+06
391952
209352
206896
387779
1.0022e+06
1.00212e+06
392523
209267
206910
388534
1.00317e+06
1.00309e+06
393421
209242
206800
389246
1.00408e+06
1.00397e+06
394000
209228
206886
390009
1.00494e+06
1.00482e+06
394911
209274
206847
390741
1.0057e+06
1.00556e+06
395510
209330
206999
391519
1.00641e+06
1.00625e+06
396414
209433
207013
392236
1.00702e+06
1.00683e+06
397035
209553
207236
393043
1.00755e+06
1.00735e+06
397930
209718
207301
393719
1.00804e+06
1.00781e+06
398516
209885
207571
394508
1.00846e+06
1.00823e+06
399398
210097
207684
395168
1.00887e+06
1.00863e+06
399946
210305
207989
395907
1.00926e+06
1.00902e+06
400775
210543
208124
396518
1.00964e+06
1.0094e+06
401279
210774
208458
397220
1.01003e+06
1.00978e+06
402077
211046
208631
397805
1.01041e+06
1.01015e+06
402557
211312
208995
398479
1.01078e+06
1.01052e+06
403319
211606
209186
399033
1.01113e+06
1.01085e+06
403773
211889
209579
399698
1.01143e+06
1.01112e+06
404545
212220
209812
400260
1.01165e+06
1.01132e+06
405015
212551
210251
400937
1.01178e+06
1.0114e+06
405799
212923
210509
401486
1.01178e+06
1.01137e+06
406230
213267
210960
402111
1.0117e+06
1.01124e+06
406954
213654
211231
402597
1.01154e+06
1.01102e+06
407286
213998
211677
403118
1.01133e+06
1.01078e+06
407904
214373
211937
403510
1.01107e+06
1.01048e+06
408153
214706
212375
403956
1.01079e+06
1.01018e+06
408699
215076
212635
404281
1.01048e+06
1.00984e+06
408890
215412
213081
404675
1.01015e+06
1.00948e+06
409391
215792
213353
404959
1.00977e+06
1.00906e+06
409618
216163
213775
405282
1.00936e+06
1.0086e+06
409877
216479
214120
405358
1.00836e+06
1.00699e+06
409933
216758
214412
405781
1.00724e+06
1.00573e+06
410179
217100
214558
405469
1.00385e+06
1.00091e+06
409586
217078
213013
402357
995439
988642
406198
215252
209484
396194
978635
968453
397988
210865
203016
386310
939917
899695
366337
188466
177662
348810
864225
80069.3
39469.6
25446.7
24028.5
16842.1
12090.1
10162.4
9778.85
7601.76
5888.15
4970.5
4450.9
4003.42
3635.78
3313.58
3019.73
2747.06
2502.04
2289.75
2107.06
1947.13
1806.11
1679.75
1567.12
1468.17
1383.86
1313.9
1259.05
1218.95
1191.45
1175.93
1168.43
1161.87
1158.84
1152.63
1146.73
1138.37
1130.69
1121.88
1114.44
1106.25
1098.77
1090.2
1081.59
1071.73
1061.53
1050.42
1039.3
1027.92
1016.97
1006.27
996.193
986.392
976.973
967.591
958.246
948.771
939.167
929.264
918.845
907.597
895.177
881.228
865.427
847.493
827.246
804.632
779.751
752.818
724.158
694.137
663.118
631.311
598.723
565.074
529.905
492.697
453.208
411.659
368.796
327.334
292.575
261.672
232.855
207.993
184.002
159.785
139.383
123.503
109.509
96.7193
86.2755
77.9432
72.24
69.9439
69.0393
68.7307
68.6713
68.8127
69.5582
71.2771
74.0957
77.894
82.4089
87.3597
92.5238
97.7521
102.951
108.098
111.704
112.763
112.858
112.306
110.603
107.439
102.617
96.0424
87.7639
78.0251
67.3049
56.2879
45.7371
36.3002
28.3515
21.9571
16.9582
13.1036
10.1465
7.883
6.15417
4.83652
3.83379
3.0704
2.48836
2.04449
1.70381
1.43739
1.22454
1.05081
0.904991
0.779075
0.668272
0.570436
0.485421
0.41869
0.392357
0.401291
0.480795
0.67558
1.04862
1.68103
2.65303
3.97846
5.59464
7.41144
9.43114
11.8078
11.77
11.5142
11.2831
11.3342
12.4856
14.9661
18.8331
23.858
29.5284
35.2585
40.6006
45.3364
49.443
53.0029
56.1282
58.9202
61.4556
63.7876
65.951
67.9685
69.8562
71.6264
73.2907
74.865
76.3506
77.7457
79.0448
80.2408
81.3242
82.2849
83.1118
83.7932
84.3177
84.6743
84.8502
84.8362
84.6205
84.1914
83.5367
82.6435
81.4982
80.0874
78.3995
76.4283
74.1254
71.447
68.358
64.8241
60.8201
56.3461
51.4541
46.3067
41.2975
37.3507
36.5055
42.1804
59.4442
91.9415
131.817
192.732
372.235
1220.82
2590.73
7100
8480.1
9384.73
10481.3
11100.1
11937
12327.7
12965.6
13217.7
13706.6
13864.4
14232.4
14331.5
14598
14654.1
14843.7
14865
14989.7
14987
15069
15058.2
15124.8
15112.8
15183.7
15178.7
15272.9
15287
15419.1
15450.4
15608.9
15643.5
15799.2
15820.8
15937.7
15935.8
15995.6
15968.2
15972.3
15853.7
15801.9
15597.7
15521.2
15275.5
15187.3
14929.1
14848.1
14614.4
14558.1
14381.7
14363.2
14284.5
14304.3
14295.5
14400.2
14472
14730.2
14873.4
15264.1
15457.3
15922
16124.2
16582.2
16770.2
17201.2
17387.4
17819.4
18028.3
18509
18777.4
19375.9
19780.1
20577.4
21240.6
22338.5
23274.2
24497.7
25393.2
26555.2
27400.7
28480
29103.2
29727
29718.2
29599.6
29187.8
28511.4
27040.3
25548.2
23762.5
22120.9
20312.9
18659
16904.4
15285
13714
12176.4
10854.6
9497.58
8425.83
7263.19
6493.6
5646.38
5167.84
4586.32
4288.64
3886.03
3716.78
3433.22
3329.94
3134.2
3063.63
2919.17
2866.22
2757.62
2722.47
2642
2618.89
2579.69
2597.77
2572.23
2578.49
2944.2
2607.26
2526.55
1854.74
2018.59
1927.19
1717.18
1701.08
1925.27
1923.87
1701.74
1558.89
1640.8
1805.88
2483.92
2426.33
1755.8
1595.41
1590.56
1756.41
2411.69
2423.98
1755.67
1583.69
1516.92
1501.38
1557.56
1686.49
1925.85
1956.71
1719.1
1724.87
1994.31
2040.13
1777.12
1586.48
1651.89
1791.65
2095.57
2167.31
1877.65
1917.99
2255.67
2361.9
2056.64
1789.97
2053.09
2145.44
2497.18
2660.33
2365.6
2532.86
2864.25
3100.94
2844.69
2476.71
3026.13
3097.51
3388.24
3707.81
3477.52
3785.49
4091.99
4510.63
4205.71
3608.3
4153.6
4560.84
5064.39
5686.34
5079.51
5442.69
6457.4
7271.45
6045.07
4605.67
4890.98
6215.94
8151.36
9106.71
6802.41
6804.82
10005.4
11014.1
7669.16
5183.95
5830.93
7712.07
11745.3
12643.8
8994.8
9042.34
13258.9
14330.4
10384.2
6761.28
7202.3
10298.9
15064.5
16204.1
11231.5
10793
16649.9
17237.3
11488.7
7176.18
7051.85
10810.9
17238.5
17367.7
11358.1
10527.6
16946.8
16903.4
11093.7
6934.13
6841.57
10274.1
16199.6
16158.3
10806.9
10018.1
15446.3
15375
10476.5
6719.72
6537.47
9656.26
14596.6
14445.4
10032.4
9175.05
13613.4
13426.6
9508.45
6302.33
6029.04
8678.15
12683.8
12537.5
8992.06
8214.71
11919.6
11823.7
8511.08
5727.83
5402.58
7768.83
11286.2
11222.1
8047.96
7316.84
10720.5
10667.2
7578.1
5053.87
4677.83
6839.57
10162.6
10102.3
7078.74
6326.45
9570.69
9492.99
6539.25
4268.91
3825.17
5783.15
8929.65
8836.63
5979
5265.57
8293.38
8221.66
5480.54
3355.28
3035.74
4877.58
7788.72
7778.26
5125.78
4630.28
7461.55
7492.96
4896.6
2861.04
2769.46
4506.32
7300.12
7399.87
4825.13
4501.37
7316.23
7476.97
4870.14
2720.29
2706.36
4573.57
7420.88
7651.45
4990.72
4709.64
7617.11
7898.37
5171.68
2725.03
2788.36
4891.38
7875.62
8177.61
5380.47
5082.8
8153.72
8443.7
5576.17
2870.21
2937.46
5243.24
8406.22
8663.71
5720.71
5350.45
8609.22
8804.57
5798.4
2972.48
2968.7
5394.72
8700.16
8819
5802.1
5374.8
8668.61
8764.5
5738.86
2938.16
2863.81
5291.67
8564.14
8641.04
5617.63
5161.82
8408.57
8476.47
5470.18
2762.94
2657.83
5019.96
8238.6
8307.36
5323.99
4887.61
8083.93
8159.63
5192.93
2557.34
2462
4771.45
7957.12
8040.21
5076.68
4665.63
7850.84
7936.77
4964.59
2367.23
2266.65
4557.37
7746
7828.67
4842.58
4433.9
7621.63
7694.98
4698.52
2155.28
2032.41
4285.19
7456.35
7513.07
4519.71
4099.58
7230.11
7264.07
4294.67
1893.52
1734.2
3867.94
6929.91
6937.05
4014.26
3581.39
6542.3
6510.67
3685.68
1554.36
1353.27
3236.4
6045.56
5960.37
3292.7
2828.22
5416.8
5262.76
2827.95
1130.95
886.941
2358.3
4653.16
4375.75
2267.23
1817.61
3708.96
3294.39
1629.21
626.993
304.311
425.848
544.82
657.619
763.624
862.626
954.56
1039.4
1117.93
1191.22
1260.79
1328.94
1397.33
1466.5
1534.73
1596.72
1643.76
1670.89
1678.26
1676.3
1663.36
1637.73
1616.6
1609.27
1614.73
1644.76
1732.81
1932.95
2217.24
2543.25
2873.14
3189.71
3486.45
3762.28
4016.87
4244.52
4434.99
4579.52
4674.82
4730.97
4785.5
4906.18
5125.18
5182.02
5101.6
4719.1
4248.09
4036.45
3911.36
3738.74
3388.6
2860.3
2339.17
1941.59
1699.19
1576.59
1521.46
1489.81
1484.37
1517.28
1605.87
1787.2
2477.36
2508.29
1796.77
1608.96
1629.01
1829.09
2561.11
2585.17
1837.44
1633.18
1525.82
1482.52
1489.71
1544.39
1657.65
1873.17
2641.1
2663.57
1883.7
1664.65
1691.22
1924.18
2723.75
2751.61
1939.83
1701.64
1569.77
1510.63
1505.89
1485.41
1481.63
1523.4
1541.22
1655.98
1883.14
1840.56
1628.43
1617.85
1522.41
1540.06
1627.43
1809.28
1813.21
2163.43
2206.03
2263.2
2773.2
2722.69
3261.51
3267.62
3497.97
3503.24
3561.56
3277.63
2686.51
2665.95
2140.7
2171.89
1858.44
1689.99
1605.33
1568.18
1560.49
1604.31
1719.78
1964.41
2779.65
2765.52
1967.07
1730.77
1753.44
1991.09
2791.88
2849.36
2025.73
1787.41
1659.68
1624.36
1779.79
1790.96
1805.89
1829.14
2038.5
2845.77
3044.84
8247.59
6968.72
5642.87
8694.41
6590.59
3896.55
3476.71
6007.75
5950.89
3281.1
2262.94
2147.45
3293.04
3283.98
6132.08
6251.9
6440.14
3388.53
3354.56
2170.52
2170.79
2155.54
2162.53
1786.23
1790.97
1637.24
1677.37
1760.27
1915.43
2031.37
1963.07
1899
1866.19
1827.59
1814.87
2192.42
2169.1
3295.62
3390.85
3303.24
3435.97
3292.79
3415.68
3349.44
3491.49
6669.9
6436.46
6390.51
6458.48
6315.17
6564.2
6299.71
6394.18
6315.3
6591.68
3442.8
3328.94
3402.53
6394.6
6349.76
6255.82
3293.27
2194.16
2233.56
3351.57
3423.83
6523.67
6348.01
6332.95
3398.69
3288.23
2237.19
2308.64
2333.39
2463.43
2151.01
2276.35
2186.07
2643.97
2698.33
3472.76
3321.38
3714.52
3828.16
3650.97
3588.19
3601.16
3679.13
3628.82
3709.04
3844.61
4160.7
3859.43
3751.66
3713.52
3679.16
3837.6
3805.53
3790.38
3930.59
4041.18
4182.16
4320
4113.19
4443.58
3400.18
3494.02
2989.23
2717.44
2475.85
2774.09
2540.87
3495.58
3473.63
3445.58
3360.35
3330.19
3411.14
3384.31
3381.48
6331.72
6111.18
6284.45
6251.56
5976.01
6065.14
6144.57
6149.45
5935.94
5960.93
3477.19
3623.99
3630.83
5951.32
6013.66
5895.17
3829.64
2944.79
3314.75
3944.86
3770.49
5755.55
5705.49
5675.5
3995.34
4371.03
3675.18
4271.84
3860.65
4754.34
5287.07
6181.67
5042.85
5493.35
4694.07
4583.18
4476.38
5790.85
5730.04
5383.52
5476.34
10015.9
15727.3
9269.48
6196.14
6605.06
5660
6140.23
7081.09
7469.22
6850.44
9264.75
9044.03
8700.02
27273.1
17603.3
10290.6
8867.94
8095.36
6643.09
5751.87
4996.24
4959.4
4759.38
4120.57
4529.83
5408.99
6431.53
5630.42
6589.75
9087.91
7914.75
9319.65
11483.7
16948.8
16070.3
12330.6
12691.8
16401.1
15523.5
11661.9
8472.99
8567
10594.9
10783.5
13091.7
20040.5
23627.1
25503.9
33794.5
30581.2
25741.1
18768.2
14518.6
13130.8
11007.7
14400.6
19362.9
26939.4
41567
58280.8
49415.5
34566.6
21630.4
14034.8
8880.28
8183.54
6644.76
6164.13
6798.78
8019.93
5963.07
5995.48
5629.49
9280.57
13830.3
23471.2
34782.1
64058.6
52856
144622
101566
44399.5
33307.5
69604.8
88894.8
166726
95543.6
152864
90257.6
132818
91688
96293.2
134746
86018.1
114885
80973.4
84400.7
118140
76300.9
106039
70045.9
94938.6
67200
69961.6
99789.5
67645.3
93765.1
63019.6
90910.9
59050.7
85958.9
56458.1
78790.9
54750
58313.8
89651.8
56057.8
84484.4
53708.5
83629.4
53053.5
84211.5
52231.2
84430.3
52180.1
85563.4
51898.3
86272.2
52238.5
87817.4
52439.4
89259.1
53022.7
91304.7
53701.5
93549.5
54670.5
96264.3
56050.8
99859.1
57968.3
106679
61206.4
109455
75875
36320
23303.8
33780
23171.9
32619.5
22797.5
32125.2
23104
31941.1
23258.9
31830.8
23708.2
32126.6
24203.5
32322.7
24884.6
33046
25806.5
33435.2
26702.7
34581.7
28036.2
35360.8
29297.4
37192.2
31347.3
39038.3
33871.7
41461.8
37436.1
31386.4
22122.3
26075.2
20946.3
28608
26466.2
23667.3
19611.7
23679
21598.3
18309.1
22729.2
21625.1
19898.2
17146.5
20273.1
18666.1
15926.8
19797.6
19321.8
17573.8
14979.7
18797
16840.9
14296.6
18478.4
19061
24909
45965.4
90390
52002.6
94385.6
54707.3
99097.9
56756.6
103458
59354
108864
62401
118614
66920.6
122044
85652.1
37752.4
23188.2
35219.6
23063.2
32580.4
21539.2
31953.9
21633.1
30156.6
20398.5
29707.5
20354
27078
18984.7
13830.2
17017.7
13976.5
17692.9
14117.4
18478.8
14993.8
25572
49039.3
98998.9
55018.8
102508
59056.1
109587
63080.2
120197
68675.2
125454
89264
52458.4
107836
60712.3
114716
65007.2
122261
69438.8
134004
74805.6
138488
98675.7
40603.2
22847.3
37148.4
22343.5
33743.4
20216.3
32235.9
19703.6
28310.3
17252.6
24968.3
39465.3
22297.1
35189.5
21498.3
32530
20071.7
30802.9
19859.6
28223.5
19892.4
15345.7
10322.6
12803.2
10909.2
14891.6
15708.2
13250.1
11083.9
15633.9
16965.4
14012.5
11882.8
15669.2
12307.1
17182.7
13692.2
25716
54354.3
114098
61930.3
119401
67754.2
131946
74126.4
136592
98241.7
41565.5
24475.4
56454.8
118837
66085.4
127834
71341.7
136806
75951.5
149336
81863.4
153481
106343
58268
124700
68454.6
133579
74369.8
142696
80407.2
157560
87410.8
161796
116419
47173.5
26364.6
65268.9
139964
76104
149229
81642.8
158696
86088.6
171295
92174.5
173751
119475
63668.5
139780
74615.5
148448
80128.6
156306
84251.3
164858
88515.7
171711
92033.9
178404
95542.1
185946
98911.7
191921
102317
199528
106318
213738
112574
212287
146829
54933.3
27892.5
76638.3
170467
85788.9
162694
94287.8
113361
206821
111873
209191
109795
215421
109564
219209
109843
220270
109001
217850
107687
201231
118815
136725
248515
129238
237599
114315
208662
116716
129267
223150
134944
136561
227615
115974
155208
157941
246274
146554
145796
183414
183380
196703
192705
200712
195871
201404
195186
198967
190789
193858
185305
188351
180372
183590
176496
179947
173629
177343
171635
175707
170355
174876
169897
174804
170035
175250
170640
176040
171431
176927
172297
177779
172987
178379
173457
178687
173551
178587
173315
178124
172671
177255
171698
176033
170353
174474
168752
172646
166839
170568
164696
168296
162428
165924
160081
163463
157669
160959
155222
158409
152763
155884
150352
153392
147972
150958
145670
148591
143426
146305
141273
144095
139185
141971
137185
139931
135201
137926
133352
136006
131531
134154
129776
132357
128065
130617
126409
128921
124790
127276
123223
125675
121692
124122
120213
122614
118770
121154
117379
119741
116028
118378
114730
117063
113461
115797
112254
114584
111076
113415
109961
112299
108877
111229
107857
110213
106868
109241
105942
108323
105046
107444
104208
106617
103399
105827
102647
105089
101924
104387
101256
103733
100612
103110
100022
102536
99454.8
101991
98940.3
101495
98448.1
101023
98004.7
100599
97587.5
100208
97226.3
99866.3
96888
99547.3
96589
99262.4
96302.6
98996.3
96059.6
98771.4
95835.7
98567
95652.5
98399.6
95482.2
98248
95350.9
98133.3
95232.5
98031.9
95151.2
97967.5
95083.8
97921.3
95061
97916.8
95044.4
97912.4
95059.3
97945.6
95080.5
97980.1
95135.7
98052.1
95190.6
98113.5
95268.5
98208.2
95350.2
98304.8
95469.1
98451.9
95592.8
98576.9
95760.6
98783.6
95865.9
98912.8
96064.1
99125.8
96157.7
99134.9
95504.4
98244
93853.7
97293
90459.3
85156.3
40924.5
44739
25626.5
49388.3
45126.8
29332
49563.9
45264.4
30493.3
50157
45614.9
31111.7
50347.3
45769.5
32659.6
50116.6
45730.8
31923.3
50274.3
45780.1
32945.7
50086.4
45742.7
32292.7
50241.2
45815.7
33123.8
50100.8
45805.7
32539.1
50257.5
45886
33338.3
50144.7
45892.2
32776.4
50313.7
45985.7
33594.6
50213.7
46008.6
33033.3
50407.8
46125.5
33867.3
50334.5
46172.3
33312.3
50554.9
46312.1
34172.2
50505.7
46384.7
33619
50760.7
46556.8
34506.7
50745.1
46658.8
33955.7
51034.2
46861.3
34882.8
51052.3
47001.4
34328.9
51390.2
47243.4
35288.2
51442
47407.6
34732.1
51807.6
47676.6
35729.9
51896.5
47889.2
35168.6
52330.4
48217.3
36200.4
52473.5
48466.6
35630.7
52941.6
48816.1
36699.9
53105.7
49094.8
36116.3
53626.1
49497.4
37222.6
53852.3
49835.3
36625.4
54447
50295.9
37769.4
54727.2
50675.5
37150.7
55372.5
51171.8
38319.6
55687.3
51579.6
37676.5
56373.2
52106
38856.1
56721.6
52540.1
38191.2
57445.2
53092.7
39373.6
57823.1
53547.5
38686.4
58577.9
54119.9
39867.4
58978.4
54588.6
39157.2
59757.4
55174.8
40329.9
60176
55653.4
39599.6
60974.6
56249.7
40764.5
61406.4
56733
40015.2
62217.9
57332.9
41171.5
62655.4
57814.2
40407.3
63471.6
58411.3
41561.1
63906.8
58885.3
40783.8
64722.2
59476.4
41939.9
65150.8
59940.7
41153.5
65962.4
60523.8
42323
66379.6
60975.5
41529.3
67183.7
61548.4
42720.9
67586.8
61988.4
41923.1
68385.4
62554.2
43150
68774.8
62984.2
42348.5
69568.8
63543.6
43619.9
69944.3
63965.5
42816
70737.1
64522.9
44143.7
71101.5
64940.2
43336.5
71896.4
65497.3
44728.3
72254.2
65902.2
43915.4
73055.5
66471.7
45380.1
73399.8
66879.9
44563.2
74199.8
67434.3
46103.3
74525.5
67833
45283
75324.9
68378.5
46914.1
75624.4
68759.2
46089.4
76409
69282.7
47823
76661
69627.1
46990.9
77408.3
70110.3
48830.2
77588.3
70395.6
47993.1
78262.8
70806.9
49926.3
78336
71015.3
49086.9
78923.3
71356.7
51129.5
78891.3
71499.9
50288.8
79405.6
71795.1
52463.6
79290.2
71911.7
51619.4
79773
72211.6
53945.4
79628.3
72360.6
53088.2
80148.8
72737.3
55548.5
80065.1
73007.9
54683.2
80719.8
73552.3
57254.4
80806.4
74036.7
56374.8
81708.5
74842.8
59001.1
82089
75626.7
58095.7
83342.6
76762.5
60658.7
84123.3
77885
59712.2
85781.2
79345.6
61996.9
87008.8
80773.6
60986.2
89044.8
82469.6
62667.3
90675.2
84049.4
61551
92887.7
85717.3
62252.8
94645.2
87090.8
60950.4
96602.3
88260.8
60529.2
97914.4
88818.3
58448.4
98951.3
88831
56567
99136.6
87289.3
52270.1
97768.7
84512.5
48763.9
94595.1
77952.9
41159.9
86814.3
64994.6
31969.5
67997.8
39268.2
82049.9
75465.1
39540.2
20180.9
14164.5
24049.5
46451.5
33933.3
69368.1
59699.9
18202.9
22953.9
33257.5
66240.8
48656.4
23869.9
44875
28231.8
55121
34517.1
69545.7
51123.4
14293.2
23681.4