/*--------------------------------*- C++ -*----------------------------------*\
| =========                 |                                                 |
| \\      /  F ield         | OpenFOAM: The Open Source CFD Toolbox           |
|  \\    /   O peration     | Version:  v2006                                 |
|   \\  /    A nd           | Website:  www.openfoam.com                      |
|    \\/     M anipulation  |                                                 |
\*---------------------------------------------------------------------------*/
FoamFile
{
    version     2.0;
    format      ascii;
    class       surfaceScalarField;
    location    "0.004";
    object      phi;
}
// * * * * * * * * * * * * * * * * * * * * * * * * * * * * * * * * * * * * * //

dimensions      [1 0 -1 0 0 0 0];
oriented        oriented;


internalField   nonuniform List<scalar> 
18081
(
-2.09494e-05
-0.00149271
0.00147716
3.53798e-05
-0.00140461
0.0013826
2.917e-06
7.69718e-05
-2.39117e-05
0.00159403
2.58296e-05
0.00172709
-5.64714e-05
0.00175311
-1.28066e-05
0.00177705
-2.68544e-05
0.00175058
-5.39726e-06
0.00173682
-6.29927e-06
0.00171785
-2.85869e-06
0.00170648
-4.15598e-06
0.00169722
-4.4057e-06
0.00169061
-4.95834e-06
0.0016845
-5.30806e-06
0.00167846
-5.62691e-06
0.00167231
-5.91943e-06
0.00166584
-6.18976e-06
0.0016591
-6.44107e-06
0.00165208
-6.67552e-06
0.00164482
-6.8944e-06
0.00163731
-7.09855e-06
0.00162957
-7.28854e-06
0.00162161
-7.4649e-06
0.00161343
-7.62808e-06
0.00160505
-7.7784e-06
0.00159647
-7.91604e-06
0.0015877
-8.04088e-06
0.00157874
-8.15263e-06
0.00156959
-8.25069e-06
0.00156027
-8.33418e-06
0.00155078
-8.40203e-06
0.00154113
-8.45291e-06
0.00153133
-8.48547e-06
0.00152139
-8.49846e-06
0.00151132
-8.49076e-06
0.00150116
-8.46147e-06
0.00149093
-8.40989e-06
0.00148064
-8.33556e-06
0.00147034
-8.23827e-06
0.00146004
-8.11792e-06
0.00144979
-7.97441e-06
0.0014396
-7.80752e-06
0.00142952
-7.6168e-06
0.00141956
-7.4015e-06
0.00140976
-7.16043e-06
0.00140013
-6.89213e-06
0.00139071
-6.66374e-06
0.00138158
-6.33491e-06
0.00137256
-5.83675e-06
0.00136375
-5.4401e-06
0.00135551
-4.40026e-06
0.00134684
-4.59818e-06
0.00133906
-4.08146e-06
0.00132904
-5.50494e-06
0.00131679
-6.85779e-06
0.00130104
-2.12621e-05
0.00127596
-3.02864e-05
0.00124434
-8.55628e-05
0.00120196
-0.000140843
0.00117147
-0.000324195
0.00117049
-0.000683403
0.00132622
-0.000200536
0.000350572
4.85647e-05
0.000584351
-1.47663e-06
0.000740885
2.2507e-06
0.000704447
-3.81146e-05
0.000597525
-2.78989e-06
0.000539808
-2.44699e-06
0.000197426
-2.16082e-06
0.000163798
0.00013219
5.29335e-06
0.000126851
1.08499e-05
0.000158195
0.000191604
1.66183e-05
-6.14794e-06
0.000188848
8.87229e-06
-3.74376e-06
0.000155763
0.000123083
2.8231e-06
0.00012025
3.48121e-06
0.000155096
0.000188643
3.67787e-06
-3.43795e-06
0.000187575
4.52597e-06
-1.95768e-06
0.00015363
0.000118302
2.57027e-06
0.000115764
3.5068e-06
0.000152735
0.000185833
5.29936e-06
-3.97976e-06
0.000185302
4.58908e-06
-1.75524e-06
0.000150575
0.000114061
2.24909e-06
0.000111884
2.62302e-06
0.00015029
0.000184751
3.28253e-06
-2.50298e-06
0.000183539
3.84928e-06
-1.52606e-06
0.000149425
0.000110449
1.43473e-06
0.000109125
2.42582e-06
0.000148569
0.000182951
3.17694e-06
-2.95299e-06
0.000182997
3.09741e-06
-1.34667e-06
0.000147121
0.000107909
1.27546e-06
0.000106783
1.6467e-06
0.000146931
0.00018178
3.0824e-06
-2.81409e-06
0.000181827
3.01351e-06
-1.22198e-06
0.000145543
0.00010573
1.16928e-06
0.000104749
1.53769e-06
0.000145402
0.000180626
3.01213e-06
-2.71492e-06
0.000180684
2.95664e-06
-1.13649e-06
0.000144073
0.000103819
1.10102e-06
0.000102944
1.46957e-06
0.000143976
0.000179507
2.97368e-06
-2.65703e-06
0.000179581
2.93537e-06
-1.08567e-06
0.000142698
0.000102101
1.06363e-06
0.000101299
1.43951e-06
0.000142637
0.000178428
2.97069e-06
-2.63442e-06
0.000178516
2.94859e-06
-1.06155e-06
0.000141399
0.000100516
1.04928e-06
9.97617e-05
1.44082e-06
0.000141363
0.000177384
3.00033e-06
-2.63991e-06
0.000177482
2.99264e-06
-1.05681e-06
0.000140156
9.90169e-05
1.05055e-06
9.82945e-05
1.46557e-06
0.000140136
0.000176363
3.05775e-06
-2.66485e-06
0.000176464
3.06065e-06
-1.06399e-06
0.000138949
9.75747e-05
1.0604e-06
9.6874e-05
1.50546e-06
0.000138936
0.000175354
3.13466e-06
-2.70081e-06
0.000175452
3.14338e-06
-1.07624e-06
0.000137762
9.61728e-05
1.07156e-06
9.54912e-05
1.55124e-06
0.000137751
0.000174343
3.22177e-06
-2.73739e-06
0.00017443
3.23179e-06
-1.08585e-06
0.000136585
9.48097e-05
1.07681e-06
9.41512e-05
1.59345e-06
0.00013657
0.000173315
3.31076e-06
-2.76777e-06
0.000173383
3.31975e-06
-1.08759e-06
0.000135408
9.34949e-05
1.07421e-06
9.28642e-05
1.62945e-06
0.000135385
0.000172252
3.39922e-06
-2.79426e-06
0.000172293
3.40967e-06
-1.08352e-06
0.000134222
9.22354e-05
1.06984e-06
9.16307e-05
1.66703e-06
0.000134184
0.000171137
3.49429e-06
-2.82967e-06
0.000171141
3.51327e-06
-1.08339e-06
0.00013301
9.10218e-05
1.07693e-06
9.04284e-05
1.72304e-06
0.000132947
0.000169952
3.61163e-06
-2.89342e-06
0.00016991
3.64917e-06
-1.10314e-06
0.000131751
8.9817e-05
1.11251e-06
8.92044e-05
1.81838e-06
0.000131648
0.000168682
3.77137e-06
-3.00501e-06
0.000168586
3.83628e-06
-1.15749e-06
0.000130412
8.85543e-05
1.18595e-06
8.78828e-05
1.96771e-06
0.00013025
0.000167311
3.98794e-06
-3.16959e-06
0.000167154
4.08008e-06
-1.24916e-06
0.000128958
8.71547e-05
1.29177e-06
8.63897e-05
2.16415e-06
0.000128719
0.000165826
4.25411e-06
-3.36712e-06
0.000165604
4.35799e-06
-1.36469e-06
0.000127357
8.55567e-05
1.41053e-06
8.46819e-05
2.37817e-06
0.000127034
0.00016422
4.53548e-06
-3.56398e-06
0.000163933
4.62965e-06
-1.48219e-06
0.0001256
8.37386e-05
1.52056e-06
8.27592e-05
2.57697e-06
0.000125194
0.000162499
4.79214e-06
-3.72613e-06
0.000162153
4.85597e-06
-1.57813e-06
0.000123699
8.17237e-05
1.59548e-06
8.06715e-05
2.72435e-06
0.000123223
0.000160675
4.98614e-06
-3.82201e-06
0.000160273
5.0075e-06
-1.62831e-06
0.000121682
7.95864e-05
1.61697e-06
7.85115e-05
2.79526e-06
0.000121155
0.000158754
5.09523e-06
-3.83248e-06
0.000158298
5.06661e-06
-1.61992e-06
0.000119591
7.7432e-05
1.57745e-06
7.63922e-05
2.77606e-06
0.000119037
0.000156741
5.10677e-06
-3.75324e-06
0.000156231
5.03081e-06
-1.55211e-06
0.000117477
7.53741e-05
1.48541e-06
7.44182e-05
2.67793e-06
0.000116919
0.000154632
5.03757e-06
-3.62004e-06
0.000154057
4.94832e-06
-1.44676e-06
0.000115374
7.34952e-05
1.37945e-06
7.26323e-05
2.56587e-06
0.000114807
0.000152392
4.97263e-06
-3.52261e-06
0.00015171
4.93598e-06
-1.35577e-06
0.00011325
7.17848e-05
1.3156e-06
7.0968e-05
2.5396e-06
0.000112625
0.000149926
5.04177e-06
-3.5483e-06
0.000149073
5.10571e-06
-1.32901e-06
0.000110993
7.0127e-05
1.32839e-06
6.92752e-05
2.65718e-06
0.000110237
0.0001471
5.31775e-06
-3.71001e-06
0.000146006
5.47465e-06
-1.37634e-06
0.000108462
6.8363e-05
1.40556e-06
6.74084e-05
2.89747e-06
0.000107513
0.000143784
5.77202e-06
-3.97331e-06
0.000142393
5.99702e-06
-1.47696e-06
0.000105543
6.63687e-05
1.5298e-06
6.52618e-05
3.22979e-06
0.000104353
0.000139877
6.35717e-06
-4.33234e-06
0.000138146
6.65428e-06
-1.6314e-06
0.000102144
6.40384e-05
1.72329e-06
6.27076e-05
3.68634e-06
0.000100654
0.000135297
7.10386e-06
-4.83193e-06
0.000133176
7.49803e-06
-1.86604e-06
9.81415e-05
6.12178e-05
2.00089e-06
5.95761e-05
4.30276e-06
9.62733e-05
0.000129938
8.06279e-06
-5.48161e-06
0.000127357
8.55859e-06
-2.1765e-06
9.33811e-05
5.77416e-05
2.3448e-06
5.57211e-05
5.06166e-06
9.10561e-05
0.000123666
9.22472e-06
-6.2616e-06
0.000120558
9.81538e-06
-2.55055e-06
8.7715e-05
5.34762e-05
2.7514e-06
5.10124e-05
5.95821e-06
8.48559e-05
0.00011635
1.05855e-05
-7.19289e-06
0.000112637
1.12986e-05
-3.00094e-06
8.099e-05
4.82813e-05
3.25442e-06
4.52791e-05
7.05369e-06
7.74956e-05
0.000107837
1.22212e-05
-8.36532e-06
0.000103421
1.31228e-05
-3.57472e-06
7.29891e-05
4.19405e-05
3.92064e-06
3.82413e-05
8.46736e-06
6.8707e-05
9.79211e-05
1.42851e-05
-9.93288e-06
9.2665e-05
1.54844e-05
-4.36165e-06
6.3383e-05
3.40866e-05
4.87961e-06
2.93962e-05
1.04157e-05
5.80762e-05
8.63211e-05
1.70339e-05
-1.21459e-05
8.00719e-05
1.86477e-05
-5.53257e-06
5.16702e-05
2.40297e-05
6.18073e-06
1.79766e-05
1.29921e-05
4.50408e-05
7.27675e-05
2.05238e-05
-1.4611e-05
6.54475e-05
2.21303e-05
-6.84743e-06
3.74288e-05
1.12375e-05
7.37787e-06
3.96461e-06
1.52076e-05
2.97338e-05
5.72883e-05
2.35419e-05
-1.59689e-05
4.91388e-05
2.42768e-05
-7.54605e-06
2.14376e-05
-3.4737e-06
7.28724e-06
-1.06543e-05
1.56531e-05
1.31932e-05
4.03905e-05
2.45455e-05
-1.45453e-05
3.15851e-05
2.34835e-05
-6.26163e-06
5.02589e-06
-1.68158e-05
4.87271e-06
-2.15976e-05
1.25597e-05
-2.55393e-06
2.26191e-05
2.16469e-05
-1.09409e-05
1.4174e-05
1.94989e-05
-3.95132e-06
-9.44551e-06
-2.54653e-05
3.00121e-06
-2.83902e-05
9.46128e-06
-1.58161e-05
6.34731e-06
1.73935e-05
-8.11753e-06
-8.81307e-07
1.54469e-05
-2.45621e-06
-2.13934e-05
-3.07769e-05
1.8882e-06
-3.25992e-05
6.59117e-06
-2.60204e-05
-7.34648e-06
1.31412e-05
-4.94623e-06
-1.33604e-05
1.10436e-05
-1.39389e-06
-2.94995e-05
-3.39322e-05
8.04175e-07
-3.46808e-05
3.60435e-06
-3.22312e-05
-1.8586e-05
8.90983e-06
-2.36939e-06
-2.29522e-05
6.81375e-06
-4.96718e-07
-3.40389e-05
-3.51252e-05
9.50995e-08
-3.51694e-05
1.41014e-06
-3.52909e-05
-2.57812e-05
4.31632e-06
-1.37647e-07
-2.74196e-05
1.85138e-06
1.54338e-07
-3.55223e-05
-3.49659e-05
-5.45531e-07
-3.43688e-05
-7.25256e-07
-3.52792e-05
-2.75027e-05
-5.63788e-07
1.7405e-06
-2.71048e-05
-2.04564e-06
8.27979e-07
-3.429e-05
-3.34777e-05
-1.19589e-06
-3.22255e-05
-2.32346e-06
-3.30937e-05
-2.60768e-05
-3.26896e-06
2.87284e-06
-2.51326e-05
-3.72835e-06
1.32521e-06
-3.14737e-05
-3.08407e-05
-1.60307e-06
-2.91817e-05
-3.211e-06
-2.97976e-05
-2.3734e-05
-4.52524e-06
3.65944e-06
-2.24357e-05
-4.86499e-06
1.71179e-06
-2.77736e-05
-2.74068e-05
-1.78146e-06
-2.55499e-05
-3.59684e-06
-2.58667e-05
-2.08426e-05
-5.07916e-06
3.98131e-06
-1.92095e-05
-5.48336e-06
1.85626e-06
-2.36326e-05
-2.36029e-05
-1.76703e-06
-2.17453e-05
-3.63972e-06
-2.16506e-05
-1.75434e-05
-5.17499e-06
4.00432e-06
-1.57613e-05
-5.65089e-06
1.85477e-06
-1.93871e-05
-1.97961e-05
-1.66004e-06
-1.80336e-05
-3.40093e-06
-1.75214e-05
-1.41922e-05
-4.81874e-06
3.7824e-06
-1.24013e-05
-5.42601e-06
1.74599e-06
-1.53627e-05
-1.61861e-05
-1.38143e-06
-1.4683e-05
-2.8213e-06
-1.37768e-05
-1.11067e-05
-3.93965e-06
3.36541e-06
-9.42573e-06
-4.8958e-06
1.54227e-06
-1.18236e-05
-1.30304e-05
-1.02927e-06
-1.18864e-05
-2.07821e-06
-1.06389e-05
-8.52187e-06
-2.82165e-06
2.84177e-06
-7.02696e-06
-4.12468e-06
1.31153e-06
-8.94342e-06
-1.04406e-05
-7.07038e-07
-9.60379e-06
-1.37454e-06
-8.11954e-06
-6.44803e-06
-1.76449e-06
2.1811e-06
-5.25236e-06
-3.09407e-06
1.03301e-06
-6.73272e-06
-8.37163e-06
-4.34179e-07
-7.76189e-06
-7.63669e-07
-6.19145e-06
-4.93327e-06
-8.25805e-07
1.665e-06
-4.03384e-06
-2.28352e-06
8.28092e-07
-5.11195e-06
-6.72875e-06
-2.33921e-07
-6.30826e-06
-3.16406e-07
-4.80702e-06
-3.93395e-06
-1.52405e-07
1.22718e-06
-3.26656e-06
-1.59348e-06
6.55039e-07
-3.98144e-06
-5.44151e-06
-1.14481e-07
-5.11026e-06
-5.03686e-08
-3.78602e-06
-3.23179e-06
2.21991e-07
8.86609e-07
-2.72827e-06
-1.08179e-06
5.13448e-07
-3.15196e-06
-4.37876e-06
-6.2553e-08
-4.09444e-06
6.54314e-08
-3.01335e-06
-2.69945e-06
3.56799e-07
6.5807e-07
-2.28297e-06
-7.6559e-07
4.0879e-07
-2.50549e-06
-3.47022e-06
-4.80576e-08
-3.19502e-06
8.94462e-08
-2.37039e-06
-2.22645e-06
3.58146e-07
5.13117e-07
-1.82004e-06
-5.93006e-07
3.38158e-07
-1.92076e-06
-2.62798e-06
-5.60215e-08
-2.33514e-06
4.51743e-08
-1.7373e-06
-1.70277e-06
2.68934e-07
3.27845e-07
-1.34007e-06
-3.41517e-07
2.58371e-07
-1.37425e-06
-1.82997e-06
-2.66191e-08
-1.56641e-06
1.46032e-07
-1.25827e-06
-1.27701e-06
4.36431e-07
-3.83533e-08
-1.12179e-06
2.5137e-07
8.81771e-08
-1.07529e-06
-1.21728e-06
-1.52036e-07
-8.4449e-07
-1.47446e-07
-8.08797e-07
-8.6228e-07
-7.27513e-08
1.62593e-07
-5.12498e-07
-1.79058e-07
1.25399e-07
-4.88938e-07
-4.79858e-07
-2.59409e-07
-4.83922e-07
-6.79125e-07
-8.55321e-07
1.03897e-06
-8.8033e-07
8.96356e-07
-7.0252e-07
8.14852e-07
-3.54697e-07
6.46408e-07
4.665e-07
2.22083e-07
1.62301e-06
-1.60189e-07
2.66742e-06
-3.87548e-08
3.47064e-06
2.2558e-07
4.08074e-06
4.19601e-07
4.52557e-06
5.64981e-07
4.83695e-06
6.83635e-07
4.97528e-06
8.55019e-07
5.03888e-06
9.21563e-07
4.89207e-06
1.10912e-06
4.64672e-06
1.18634e-06
4.4025e-06
1.17029e-06
4.25802e-06
1.02114e-06
4.02564e-06
1.08046e-06
3.16967e-06
1.65543e-06
1.95152e-06
2.04178e-06
7.87997e-07
1.52034e-06
5.90115e-07
3.93938e-07
2.30511e-07
5.83267e-07
-7.80678e-09
5.21589e-07
2.99981e-08
5.87875e-08
5.35329e-08
4.73487e-08
1.05931e-07
5.58529e-08
8.94027e-08
1.06688e-07
4.18281e-08
4.49244e-08
1.71506e-07
1.05912e-07
1.01294e-07
-1.27697e-07
7.5086e-08
1.04621e-07
1.93097e-07
-5.34271e-08
2.87389e-07
-9.05487e-08
1.90508e-07
2.20014e-07
-1.50582e-07
1.69691e-07
3.92548e-07
-2.76695e-07
8.64812e-08
3.26298e-07
4.16996e-07
-1.97479e-08
4.83449e-07
-3.28489e-08
3.95753e-07
4.73216e-07
-4.50897e-08
1.59752e-07
6.00695e-07
-2.21201e-07
9.66842e-08
5.13471e-07
6.25333e-07
5.36168e-09
6.65284e-07
3.97431e-08
5.33297e-07
6.25409e-07
8.00951e-08
1.64752e-07
7.56252e-07
-2.31397e-07
1.07434e-07
6.43546e-07
8.1714e-07
2.86838e-08
8.32691e-07
7.23554e-08
6.52826e-07
7.4277e-07
1.49781e-07
1.81631e-07
8.55216e-07
-2.30543e-07
1.14698e-07
7.73144e-07
9.91422e-07
1.64066e-08
1.01927e-06
5.55317e-08
7.87336e-07
8.98592e-07
7.58958e-08
2.9689e-07
1.13263e-06
-4.6673e-07
1.5698e-07
9.80425e-07
1.22061e-06
4.62028e-08
1.21852e-06
9.97713e-08
9.79734e-07
1.14581e-06
1.50435e-07
2.58732e-07
1.34431e-06
-3.9392e-07
1.45065e-07
1.14579e-06
1.40727e-06
3.76846e-08
1.41265e-06
6.97146e-08
1.16544e-06
1.38968e-06
8.68083e-08
4.00621e-07
1.70858e-06
-6.57335e-07
1.97342e-07
1.42017e-06
1.65289e-06
6.78865e-08
1.62787e-06
1.33224e-07
1.40628e-06
1.71362e-06
1.90358e-07
3.24896e-07
1.96628e-06
-5.15236e-07
1.7197e-07
1.61082e-06
1.84289e-06
5.59828e-08
1.82973e-06
9.87264e-08
1.61942e-06
2.00095e-06
1.2603e-07
4.86762e-07
2.39338e-06
-8.18014e-07
2.29185e-07
1.92774e-06
2.10128e-06
7.75141e-08
2.06506e-06
1.34239e-07
1.92048e-06
2.41856e-06
1.68684e-07
4.23943e-07
2.75819e-06
-7.05594e-07
2.07017e-07
2.1855e-06
2.31226e-06
6.32822e-08
2.28775e-06
9.76257e-08
2.1976e-06
2.79907e-06
1.12818e-07
6.13245e-07
3.29439e-06
-1.05394e-06
2.70898e-07
2.58513e-06
2.59633e-06
6.30913e-08
2.56983e-06
6.82427e-08
2.62382e-06
3.39134e-06
2.44234e-08
5.95313e-07
3.87618e-06
-1.02843e-06
2.63492e-07
2.9983e-06
2.86886e-06
4.73929e-08
2.85592e-06
3.98606e-08
3.04711e-06
3.96439e-06
1.61506e-09
8.09104e-07
4.60609e-06
-1.40166e-06
3.32929e-07
3.56389e-06
3.22269e-06
1.10014e-08
3.24524e-06
-1.08832e-07
3.72391e-06
4.85546e-06
-3.09575e-07
9.45525e-07
5.62649e-06
-1.66751e-06
3.82515e-07
4.32748e-06
3.66159e-06
-3.23078e-08
3.72818e-06
-1.68464e-07
4.50471e-06
5.80921e-06
-3.01826e-07
1.17398e-06
6.72622e-06
-2.04112e-06
4.96908e-07
5.2232e-06
4.25983e-06
-1.77941e-07
4.47276e-06
-6.0673e-07
5.69354e-06
7.22493e-06
-1.05542e-06
1.6021e-06
8.57509e-06
-2.90139e-06
5.9631e-07
6.74157e-06
5.1045e-06
-2.53211e-07
5.39365e-06
-7.18883e-07
7.2502e-06
9.18859e-06
-1.28052e-06
1.84225e-06
1.05545e-05
-3.15506e-06
6.79958e-07
8.45674e-06
6.11033e-06
-6.49417e-07
6.79674e-06
-1.57521e-06
9.42721e-06
1.17471e-05
-2.71405e-06
2.9052e-06
1.39966e-05
-5.1003e-06
1.2042e-06
1.11732e-05
8.03861e-06
-9.9768e-07
9.07366e-06
-2.40493e-06
1.26249e-05
1.56206e-05
-3.97462e-06
3.41506e-06
1.81261e-05
-5.86552e-06
1.41985e-06
1.46653e-05
1.05315e-05
-1.96964e-06
1.2539e-05
-4.84201e-06
1.7584e-05
2.13433e-05
-8.00196e-06
8.76077e-06
2.77591e-05
-1.51067e-05
3.97285e-06
2.24252e-05
1.65527e-05
8.09434e-06
8.4867e-06
1.88081e-05
1.17441e-05
1.49702e-05
3.1634e-05
1.00969e-05
2.08092e-05
-1.59093e-05
4.29901e-06
1.75667e-05
1.28081e-05
-4.14433e-06
1.6981e-05
-9.58423e-06
2.30409e-05
2.75435e-05
-1.6277e-05
1.03287e-05
3.46126e-05
-1.73493e-05
4.73379e-06
2.86745e-05
2.17472e-05
-5.64095e-06
2.74222e-05
-1.3239e-05
3.6315e-05
4.31434e-05
-2.17157e-05
1.63261e-05
5.4783e-05
-2.78986e-05
7.19933e-06
4.54924e-05
3.46608e-05
1.53061e-05
1.93824e-05
3.56136e-05
2.5217e-05
3.02213e-05
6.02111e-05
2.30118e-05
4.3673e-05
-3.64356e-05
1.05326e-05
3.77213e-05
2.99379e-05
-1.2983e-05
4.29503e-05
-2.91048e-05
5.3881e-05
6.18981e-05
-4.72825e-05
3.43475e-05
8.58027e-05
-5.81804e-05
1.51604e-05
7.31191e-05
5.81496e-05
2.26043e-05
3.55775e-05
5.21077e-05
4.36528e-05
5.14406e-05
8.651e-05
5.11607e-05
7.96882e-05
-7.93685e-05
2.42501e-05
7.05969e-05
5.98556e-05
-4.38937e-05
0.0001038
-9.50529e-05
0.000121825
0.000138671
-0.000153939
-5.85307e-05
0.000107893
8.94011e-05
-2.89471e-05
9.23171e-05
7.49096e-05
1.9684e-05
5.52649e-05
4.87802e-05
6.32661e-05
7.33692e-05
8.33501e-05
0.000138728
0.000146943
-0.00021222
7.21831e-05
0.000129876
0.000127505
-9.82694e-06
0.000137458
-3.68596e-05
0.000157024
0.000180361
-7.00932e-05
-1.70528e-05
0.000167947
2.95527e-05
-1.86295e-05
0.000158531
0.000119288
6.87401e-05
5.06137e-05
0.000153096
7.42945e-05
8.9156e-05
0.00023199
5.82871e-05
0.000135305
-0.000104356
2.38717e-05
0.000108787
7.45483e-05
-3.09628e-05
0.000105605
-7.52816e-05
0.000153229
0.000190878
-0.000130698
-0.000106749
0.000112464
0.000185319
-4.46854e-05
9.12852e-05
6.10097e-05
2.63764e-05
3.46868e-05
6.42827e-05
5.34395e-05
6.87316e-05
0.000108082
5.97498e-05
0.000115996
-0.000106952
2.51048e-05
8.81423e-05
5.98422e-05
2.39668e-05
3.59269e-05
5.75861e-05
5.45848e-05
7.15481e-05
0.000102109
6.24394e-05
0.000119176
-0.00011
2.60266e-05
9.1057e-05
6.20026e-05
2.25388e-05
3.95147e-05
5.55228e-05
5.81355e-05
7.744e-05
9.73333e-05
7.1873e-05
0.000131303
-0.000125665
2.93195e-05
0.00010075
6.88853e-05
2.09328e-05
4.8009e-05
5.31536e-05
6.86048e-05
8.91691e-05
9.53899e-05
-4.29558e-05
5.74783e-05
7.46894e-05
-1.82119e-05
4.39003e-05
2.98326e-05
-2.37175e-05
5.35856e-05
-5.72243e-05
7.7449e-05
0.00010013
-9.98287e-05
-4.44279e-05
6.72638e-05
7.73471e-05
-1.81194e-05
5.11847e-05
3.55023e-05
-2.78051e-05
6.33436e-05
-6.73505e-05
9.07771e-05
0.000116907
-0.000116938
-4.62919e-05
8.16004e-05
8.16766e-05
-1.84218e-05
6.29622e-05
4.49614e-05
1.69532e-05
2.80298e-05
3.97031e-05
4.02375e-05
5.24758e-05
6.8858e-05
5.16373e-05
9.08089e-05
-8.99372e-05
2.11911e-05
7.07118e-05
4.92425e-05
1.76043e-05
3.16564e-05
4.29267e-05
4.54128e-05
5.85998e-05
7.51684e-05
5.41582e-05
9.86303e-05
-9.41577e-05
2.25659e-05
7.70304e-05
5.42407e-05
1.87906e-05
3.54656e-05
4.54197e-05
5.04223e-05
6.55149e-05
7.85623e-05
6.28671e-05
0.000111365
-0.000108689
2.6364e-05
8.69491e-05
6.18463e-05
1.85871e-05
4.32739e-05
4.60756e-05
5.94831e-05
7.68478e-05
8.06248e-05
-3.75096e-05
4.90542e-05
6.53146e-05
-1.63624e-05
3.83465e-05
2.69217e-05
-2.0298e-05
4.72305e-05
-4.83717e-05
6.64326e-05
8.52269e-05
-8.45303e-05
-4.10154e-05
5.49343e-05
7.13257e-05
-1.72379e-05
4.26701e-05
3.00055e-05
-2.11154e-05
5.11335e-05
-4.98979e-05
7.14673e-05
9.04839e-05
-8.54298e-05
-4.49276e-05
5.76717e-05
7.77606e-05
-1.86291e-05
4.51879e-05
3.25215e-05
-2.15358e-05
5.40745e-05
-5.03802e-05
7.40503e-05
9.38945e-05
-8.65806e-05
-4.65064e-05
6.04513e-05
7.99758e-05
-1.98053e-05
4.7373e-05
3.42905e-05
-2.27979e-05
5.71107e-05
-5.32103e-05
7.78076e-05
9.80739e-05
-9.08054e-05
-4.56838e-05
6.5346e-05
7.84427e-05
-1.95865e-05
5.17381e-05
3.75498e-05
-2.70067e-05
6.45854e-05
-6.28384e-05
8.76016e-05
0.000111084
-0.000108539
-4.49685e-05
7.78729e-05
7.82338e-05
-1.89392e-05
6.16152e-05
4.56796e-05
1.659e-05
2.91114e-05
3.88318e-05
3.93974e-05
5.0141e-05
6.65899e-05
4.9994e-05
8.63028e-05
-8.61269e-05
2.09944e-05
6.84223e-05
5.01284e-05
1.78485e-05
3.23037e-05
4.19675e-05
4.43315e-05
5.59208e-05
7.23831e-05
5.1898e-05
9.22021e-05
-8.81467e-05
2.23899e-05
7.38672e-05
5.47181e-05
2.0148e-05
3.45958e-05
4.70741e-05
4.69707e-05
5.93032e-05
8.00084e-05
5.21623e-05
9.62634e-05
-8.90873e-05
2.26526e-05
7.65105e-05
5.7275e-05
2.10303e-05
3.62715e-05
4.88222e-05
4.87503e-05
6.12242e-05
8.38995e-05
5.36269e-05
9.82621e-05
-9.06275e-05
2.30181e-05
7.93905e-05
5.93163e-05
2.17707e-05
3.7573e-05
5.09331e-05
5.02605e-05
6.30691e-05
8.61647e-05
5.48416e-05
0.000100625
-9.23593e-05
2.36267e-05
8.15081e-05
6.1227e-05
2.26986e-05
3.85546e-05
5.26581e-05
5.15802e-05
6.43578e-05
8.89634e-05
5.59268e-05
0.000103328
-9.48584e-05
2.44615e-05
8.30774e-05
6.30418e-05
2.29154e-05
4.01518e-05
5.3463e-05
5.25607e-05
6.60485e-05
9.07796e-05
5.70711e-05
0.000105073
-9.60586e-05
2.49839e-05
8.4678e-05
6.51603e-05
2.42965e-05
4.08872e-05
5.48577e-05
5.41457e-05
6.66901e-05
9.32757e-05
5.74077e-05
0.000107281
-9.79634e-05
2.49662e-05
8.66158e-05
6.58764e-05
2.39115e-05
4.19873e-05
5.54894e-05
5.50655e-05
6.82426e-05
9.45611e-05
5.86891e-05
0.000108321
-9.87349e-05
2.57539e-05
8.80277e-05
6.77632e-05
2.52263e-05
4.25577e-05
5.72025e-05
5.60775e-05
6.87634e-05
9.67916e-05
5.89299e-05
0.00010983
-9.9967e-05
2.57001e-05
8.93326e-05
6.82783e-05
2.52383e-05
4.30597e-05
5.83061e-05
5.62889e-05
7.03281e-05
9.78375e-05
6.03027e-05
0.000111256
-0.000101203
2.647e-05
9.01444e-05
6.95486e-05
2.60735e-05
4.34932e-05
5.90852e-05
5.71547e-05
7.00811e-05
0.000100286
6.06626e-05
0.000111461
-0.000102018
2.65183e-05
9.13204e-05
7.00289e-05
2.63222e-05
4.37237e-05
6.05751e-05
5.70876e-05
7.07114e-05
0.00010135
6.04981e-05
0.000111366
-0.000101129
2.65334e-05
9.10721e-05
7.02737e-05
2.6986e-05
4.33037e-05
6.21608e-05
5.59164e-05
6.88014e-05
0.000104749
5.54938e-05
0.000107738
-9.44083e-05
2.41255e-05
8.73028e-05
6.74441e-05
2.76425e-05
3.98152e-05
6.227e-05
5.26915e-05
6.45106e-05
0.000105516
5.39748e-05
0.000100814
-9.02616e-05
2.36423e-05
8.3038e-05
6.34696e-05
-2.71431e-05
9.06309e-05
-6.15154e-05
0.000117436
0.000143065
-0.000103732
-8.23625e-05
8.7171e-05
0.000138281
-3.60049e-05
7.10977e-05
5.46407e-05
-2.89679e-05
8.36223e-05
-6.50683e-05
0.000107216
0.000131753
-0.000109629
-7.06476e-05
8.3285e-05
0.000119135
-3.08882e-05
6.74713e-05
5.27461e-05
-3.02012e-05
8.29587e-05
-6.83168e-05
0.000105602
0.00012993
-0.000114943
-6.93419e-05
8.22329e-05
0.000117055
-3.09332e-05
6.72055e-05
5.2035e-05
-2.99923e-05
8.20366e-05
-6.8699e-05
0.000105925
0.000129569
-0.00011602
-6.93465e-05
8.20403e-05
0.000116889
-3.03331e-05
6.69224e-05
5.1712e-05
-3.05036e-05
8.22241e-05
-6.8784e-05
0.000105214
0.000128458
-0.000115188
-6.96527e-05
8.09211e-05
0.000117202
-3.09605e-05
6.6532e-05
5.12722e-05
-2.93605e-05
8.06413e-05
-6.70198e-05
0.000104202
0.000127323
-0.000113409
-7.15877e-05
7.84511e-05
0.000120472
-3.15509e-05
6.41758e-05
4.90994e-05
-2.7772e-05
7.68812e-05
-6.29051e-05
9.932e-05
0.000121299
-0.000105741
-7.11409e-05
7.26579e-05
0.000119795
-3.14029e-05
5.95937e-05
4.54884e-05
-2.66886e-05
7.21873e-05
-5.96946e-05
9.26114e-05
0.000113639
-0.000100664
6.88121e-05
0.000160324
-0.000115469
3.02602e-05
0.000131184
0.000102465
4.01849e-05
6.2296e-05
9.1746e-05
7.96412e-05
9.80707e-05
0.000154019
7.46596e-05
0.000148399
-0.000124967
3.30464e-05
0.000121272
9.53581e-05
3.58411e-05
5.9532e-05
8.07382e-05
7.63927e-05
9.38278e-05
0.000135329
7.76639e-05
0.000145998
-0.000129814
3.44577e-05
0.000119616
9.40051e-05
3.56527e-05
5.83671e-05
8.03208e-05
7.49654e-05
9.22986e-05
0.00013404
7.65519e-05
0.000143441
-0.000127675
3.4206e-05
0.000117328
9.25878e-05
3.61531e-05
5.64488e-05
8.06333e-05
7.2864e-05
8.85191e-05
0.000135575
7.06736e-05
0.0001366
-0.000118737
3.17897e-05
0.000111763
8.8252e-05
3.62076e-05
5.2057e-05
8.1558e-05
6.64266e-05
8.21286e-05
0.000136045
6.70687e-05
0.000126842
-0.000111769
2.96786e-05
0.000103829
8.17473e-05
-3.34244e-05
0.000115189
-7.5479e-05
0.000145906
0.000178179
-0.000126787
-0.000103771
0.00010822
0.000173751
-4.61679e-05
8.83202e-05
6.90365e-05
-3.58502e-05
0.000104901
-7.99568e-05
0.000132443
0.000161592
-0.000133309
-8.85213e-05
0.000101196
0.000148935
-3.94143e-05
8.33514e-05
6.55003e-05
-3.64009e-05
0.000101914
-8.21591e-05
0.000129124
0.000157202
-0.000138148
-8.65261e-05
9.83832e-05
0.000145361
-3.80787e-05
8.06911e-05
6.38483e-05
-3.58937e-05
9.97544e-05
-8.13701e-05
0.000126181
0.00015336
-0.000136331
-8.71422e-05
9.48392e-05
0.00014568
-3.8305e-05
7.73574e-05
6.14614e-05
-3.23754e-05
9.38486e-05
-7.54269e-05
0.000120422
0.000146003
-0.000126577
-8.74105e-05
8.70995e-05
0.000146329
-3.80848e-05
7.1108e-05
5.57743e-05
-3.19754e-05
8.77597e-05
-7.21098e-05
0.000111254
0.000135084
-0.000120083
8.1704e-05
0.000191171
-0.000137769
3.57041e-05
0.000157272
0.000123479
4.8169e-05
7.53239e-05
0.000110211
9.52453e-05
0.000115976
0.000185423
8.84009e-05
0.000175944
-0.000148354
3.92757e-05
0.000144383
0.000114611
4.27438e-05
7.18785e-05
9.68766e-05
9.02622e-05
0.000109604
0.000163231
9.03251e-05
0.000170666
-0.000151375
3.96747e-05
0.000140924
0.000111563
4.29459e-05
6.86271e-05
9.72689e-05
8.66111e-05
0.000105688
0.000162259
8.42596e-05
0.00016157
-0.000140131
3.72613e-05
0.000133619
0.000105897
4.26294e-05
6.32758e-05
9.6401e-05
7.98564e-05
9.72384e-05
0.000160743
7.91748e-05
0.000151103
-0.00013303
3.48478e-05
0.000124192
9.81311e-05
-4.01137e-05
0.000138256
-8.95483e-05
0.000173639
0.000211346
-0.000149775
-0.000123735
0.000127929
0.000207164
-5.48053e-05
0.00010472
8.34596e-05
-4.18735e-05
0.000125341
-9.50801e-05
0.000157936
0.000190688
-0.000157829
-0.000106844
0.000120749
0.000176793
-4.69118e-05
9.80115e-05
7.84368e-05
-4.37395e-05
0.000122183
-9.89997e-05
0.000153279
0.000185879
-0.000164121
-0.000102395
0.000116304
0.000171979
-4.58522e-05
9.67428e-05
7.6337e-05
-4.32458e-05
0.000119589
-9.71745e-05
0.000150678
0.000181369
-0.000162232
-0.000104256
0.000112566
0.000173067
-4.56471e-05
9.20749e-05
7.39469e-05
-4.01704e-05
0.000114122
-9.15822e-05
0.000143492
0.000173402
-0.000152412
-0.00010443
0.00010464
0.000173199
-4.58777e-05
8.49446e-05
6.82492e-05
-3.78721e-05
0.000106126
-8.67463e-05
0.000133824
0.000160762
-0.000142863
9.96691e-05
0.00022864
-0.000167539
4.46272e-05
0.000188872
0.000150759
5.99287e-05
9.08346e-05
0.000134047
0.000114759
0.000140046
0.000222647
0.000104897
0.000209246
-0.000174092
4.7342e-05
0.000172318
0.000138181
5.14324e-05
8.6752e-05
0.000115984
0.00010777
0.000131504
0.000193731
0.000108888
0.00020517
-0.000182551
4.81141e-05
0.000168548
0.000134869
5.04726e-05
8.43994e-05
0.000112618
0.000106406
0.000128959
0.000188832
0.000107143
0.000200462
-0.000178644
4.77049e-05
0.000165847
0.000132107
5.03971e-05
8.17114e-05
0.00011488
0.000101365
0.000124741
0.000190603
0.000100407
0.000189856
-0.000165521
4.45083e-05
0.000157265
0.000126221
5.09721e-05
7.52497e-05
0.000113877
9.43608e-05
0.000113542
0.000190192
9.37159e-05
0.000176891
-0.000157064
4.14928e-05
0.000146584
0.000116743
-4.68389e-05
0.000163582
-0.00010687
0.000206616
0.000248618
-0.000178597
-0.000146235
0.000150613
0.00024424
-6.51145e-05
0.000125495
9.84677e-05
-5.1548e-05
0.000150015
-0.000113012
0.000186958
0.000227075
-0.000189475
-0.000125307
0.000142458
0.000209922
-5.61384e-05
0.000117787
9.38757e-05
-5.25836e-05
0.000146458
-0.000118064
0.000183266
0.000221953
-0.000197563
-0.000121835
0.000139015
0.000204771
-5.443e-05
0.000115858
9.20258e-05
-5.20384e-05
0.000144062
-0.000117072
0.000180889
0.000218601
-0.000196662
-0.000123449
0.000136075
0.00020597
-5.41418e-05
0.000111579
8.99176e-05
-4.89423e-05
0.000138857
-0.00011115
0.000173782
0.000209795
-0.000184875
-0.000124274
0.000125833
0.000208232
-5.50931e-05
0.000104597
8.37605e-05
-4.71413e-05
0.000130898
-0.000105129
0.000162581
0.000197252
-0.000176553
0.000123805
0.000279829
-0.000206392
5.53878e-05
0.000230991
0.00018628
7.3078e-05
0.000113196
0.000162068
0.000141994
0.000171298
0.000270592
0.000128931
0.000258511
-0.000216153
5.8353e-05
0.000212565
0.000171543
6.30296e-05
0.000108507
0.000140313
0.000135274
0.00016305
0.000235766
0.000136297
0.000254581
-0.000227837
6.16374e-05
0.000209925
0.000170138
6.30275e-05
0.000107103
0.000137879
0.000135065
0.000162751
0.0002297
0.000137987
0.000254805
-0.000230051
6.32744e-05
0.000209769
0.000170371
6.31468e-05
0.000107216
0.000138647
0.00013426
0.000161896
0.000231546
0.000138781
0.000255345
-0.000232243
6.21927e-05
0.000210839
0.000169401
6.14847e-05
0.000107908
0.000138259
0.000134055
0.000163615
0.000229978
0.00014121
0.000255946
-0.000233554
6.25116e-05
0.000212742
0.00017041
6.23332e-05
0.000108068
0.000139423
0.000135641
0.000162893
0.000232462
0.000141866
0.000257296
-0.000236282
6.42059e-05
0.00021329
0.000172264
6.36846e-05
0.00010857
0.000141962
0.000135001
0.000163582
0.000235661
0.00014307
0.000258403
-0.000237904
6.3051e-05
0.000215008
0.000171611
6.2312e-05
0.000109289
0.000142071
0.000135238
0.000165785
0.000234675
0.000145322
0.000260746
-0.000240298
6.35809e-05
0.000216967
0.00017286
6.32023e-05
0.000109647
0.000144304
0.000135853
0.000165484
0.00023955
0.000144054
0.000260496
-0.000239079
6.37498e-05
0.000216144
0.000173386
6.53922e-05
0.000107983
0.000149098
0.000132426
0.000161979
0.000247599
0.000135965
0.000253107
-0.000227108
5.95964e-05
0.000208783
0.000167569
6.63561e-05
0.000101202
0.000148444
0.000126683
0.000152869
0.000248669
0.000130981
0.000240741
-0.000218866
5.90777e-05
0.000198575
0.000160269
-6.90141e-05
0.000229266
-0.000155399
0.000284937
0.000343632
-0.00025832
-0.000195779
0.00021366
0.000325728
-8.68855e-05
0.000176024
0.000142365
-7.60902e-05
0.00021844
-0.00017067
0.000270586
0.000324672
-0.000281703
-0.000164576
0.000218293
0.000270932
-7.36701e-05
0.000179661
0.000144754
-9.43255e-05
0.000239062
-0.000211658
0.000296973
0.000357086
-0.000350475
-0.000153762
0.000256986
0.000253829
-6.92807e-05
0.000212467
0.000169762
5.94837e-05
0.000110266
0.000134252
0.000137685
0.000165319
0.000225903
0.00017054
0.000277068
-0.000282306
7.77937e-05
0.000230415
0.000188047
6.7034e-05
0.000120999
0.000145452
0.000151982
0.000182621
0.000239878
0.000175282
0.000299714
-0.000292395
7.88166e-05
0.000248431
0.000199801
6.99658e-05
0.000129821
0.000157643
0.000160737
0.000194124
0.000263212
0.000178181
0.000313447
-0.000297524
7.9768e-05
0.000259133
0.000209575
7.47613e-05
0.000134799
0.000166583
0.000167294
0.000201292
0.000278718
0.000184328
0.00032482
-0.000307875
8.18376e-05
0.000269768
0.000216622
7.69518e-05