/*--------------------------------*- C++ -*----------------------------------*\
| =========                 |                                                 |
| \\      /  F ield         | OpenFOAM: The Open Source CFD Toolbox           |
|  \\    /   O peration     | Version:  v2006                                 |
|   \\  /    A nd           | Website:  www.openfoam.com                      |
|    \\/     M anipulation  |                                                 |
\*---------------------------------------------------------------------------*/
FoamFile
{
    version     2.0;
    format      ascii;
    class       volScalarField;
    location    "0.004";
    object      T;
}
// * * * * * * * * * * * * * * * * * * * * * * * * * * * * * * * * * * * * * //

dimensions      [0 0 0 1 0 0 0];


internalField   nonuniform List<scalar> 
9148
(
298.96
298.965
298.778
298.782
298.802
298.816
298.833
298.846
298.859
298.868
298.878
298.886
298.894
298.902
298.91
298.918
298.926
298.934
298.942
298.951
298.959
298.968
298.977
298.986
298.995
299.005
299.015
299.024
299.034
299.045
299.055
299.066
299.077
299.088
299.1
299.111
299.123
299.136
299.148
299.161
299.173
299.186
299.199
299.211
299.224
299.236
299.248
299.26
299.272
299.283
299.293
299.303
299.312
299.32
299.327
299.333
299.338
299.341
299.342
299.341
299.337
299.331
299.32
299.313
299.306
299.313
299.316
299.317
299.318
299.322
299.33
299.361
299.418
299.371
299.354
299.399
299.425
299.483
299.549
299.481
299.449
299.507
299.542
299.615
299.678
299.603
299.566
299.628
299.667
299.741
299.802
299.73
299.689
299.751
299.793
299.864
299.922
299.854
299.812
299.873
299.915
299.979
300.035
299.973
299.932
299.991
300.032
300.089
300.143
300.089
300.049
300.107
300.145
300.196
300.249
300.201
300.163
300.219
300.255
300.301
300.352
300.309
300.274
300.328
300.362
300.401
300.451
300.414
300.381
300.433
300.465
300.499
300.547
300.515
300.483
300.533
300.562
300.592
300.636
300.609
300.58
300.626
300.653
300.676
300.715
300.695
300.669
300.71
300.733
300.749
300.781
300.77
300.749
300.784
300.803
300.81
300.838
300.835
300.818
300.85
300.863
300.865
300.894
300.894
300.881
300.91
300.922
300.923
300.957
300.953
300.941
300.972
300.984
300.989
301.026
301.018
301.005
301.037
301.051
301.061
301.099
301.088
301.072
301.106
301.122
301.134
301.171
301.159
301.143
301.178
301.194
301.205
301.242
301.232
301.215
301.251
301.267
301.276
301.313
301.305
301.289
301.325
301.34
301.347
301.383
301.378
301.362
301.398
301.412
301.416
301.45
301.449
301.435
301.47
301.482
301.479
301.51
301.518
301.506
301.54
301.548
301.536
301.563
301.581
301.575
301.607
301.609
301.586
301.611
301.639
301.639
301.668
301.665
301.634
301.657
301.692
301.698
301.724
301.716
301.68
301.705
301.742
301.752
301.778
301.767
301.73
301.757
301.793
301.806
301.833
301.82
301.785
301.815
301.85
301.863
301.894
301.88
301.848
301.881
301.913
301.926
301.961
301.948
301.918
301.958
301.985
301.998
302.037
302.026
302.004
302.051
302.071
302.08
302.125
302.118
302.106
302.167
302.172
302.175
302.23
302.23
302.228
302.295
302.292
302.288
302.35
302.357
302.364
302.425
302.426
302.418
302.486
302.489
302.475
302.525
302.542
302.547
302.607
302.604
302.625
302.928
302.727
302.678
302.818
303.014
303.517
304.138
303.451
303.057
303.38
303.939
304.655
304.988
304.412
303.751
304.149
304.801
305.156
305.238
305.046
304.521
304.857
305.213
305.3
305.359
305.333
305.105
305.283
305.42
305.411
305.458
305.483
305.42
305.534
305.538
305.505
305.541
305.588
305.629
305.7
305.63
305.566
305.587
305.669
305.753
305.793
305.703
305.608
305.628
305.739
305.831
305.866
305.774
305.644
305.657
305.808
305.907
305.952
305.843
305.674
305.692
305.875
305.998
306.047
305.904
305.713
305.733
305.926
306.093
306.136
305.944
305.756
305.772
305.947
306.159
306.172
305.953
305.79
305.797
305.944
306.153
306.13
305.947
305.809
305.822
305.938
306.088
306.071
305.939
305.854
305.908
305.941
306.04
306.028
305.973
305.99
306.074
306.028
306.031
306.083
306.109
306.137
306.173
306.174
306.158
306.224
306.219
306.21
306.268
306.26
306.268
306.333
306.338
306.383
306.501
306.461
306.438
306.54
306.554
306.571
306.615
306.61
306.608
306.666
306.665
306.671
306.748
306.736
306.732
306.791
306.796
306.803
306.838
306.836
306.833
306.865
306.865
306.864
306.889
306.891
306.891
306.911
306.908
306.904
306.927
306.929
306.93
306.948
306.951
306.953
306.969
306.967
306.962
306.951
306.947
306.945
306.944
306.943
306.941
306.94
306.937
306.934
306.931
306.929
306.927
306.925
306.923
306.922
306.921
306.921
306.921
306.923
306.925
306.927
306.923
306.918
306.917
306.923
306.925
306.927
306.92
306.918
306.917
306.907
306.907
306.907
306.889
306.892
306.896
306.887
306.88
306.876
306.867
306.87
306.878
306.871
306.864
306.861
306.856
306.859
306.864
306.855
306.85
306.848
306.829
306.831
306.837
306.808
306.797
306.795
306.763
306.767
306.783
306.771
306.757
306.75
306.745
306.752
306.764
306.766
306.76
306.755
306.78
306.78
306.777
306.785
306.796
306.801
306.805
306.798
306.782
306.776
306.794
306.803
306.787
306.776
306.759
306.735
306.751
306.761
306.719
306.711
306.7
306.665
306.668
306.673
306.625
306.621
306.622
306.59
306.589
306.591
306.557
306.554
306.555
306.526
306.527
306.53
306.503
306.498
306.496
306.469
306.472
306.477
306.446
306.441
306.438
306.409
306.412
306.418
306.385
306.378
306.374
306.343
306.347
306.354
306.317
306.309
306.305
306.271
306.276
306.285
306.244
306.236
306.231
306.195
306.203
306.215
306.164
306.153
306.149
306.108
306.111
306.12
306.078
306.068
306.063
306.018
306.022
306.032
305.994
305.98
305.973
305.906
305.917
305.941
305.899
305.88
305.879
305.839
305.841
305.86
305.794
305.783
305.781
305.713
305.709
305.714
305.667
305.66
305.652
305.531
305.547
305.592
305.533
305.495
305.493
305.419
305.403
305.425
305.297
305.315
305.295
305.098
305.089
305.197
305.076
305.001
304.977
304.83
304.819
304.669
304.493
304.397
304.494
303.779
304.055
304.158
303.549
303.557
303.539
303.047
302.667
302.814
301.459
302.297
302.525
302.023
301.359
301.636
303.215
302.325
302.563
302.873
302.687
303.124
303.454
302.893
302.773
303.15
303.304
303.577
303.61
303.423
303.333
303.28
303.505
303.748
303.696
303.603
303.443
303.333
303.515
303.689
303.676
303.603
303.445
303.337
303.477
303.599
303.568
303.51
303.394
303.423
303.52
303.54
303.501
303.44
303.359
303.391
303.461
303.486
303.43
303.392
303.326
303.328
303.404
303.439
303.465
303.443
303.374
303.322
303.376
303.448
303.525
303.471
303.376
303.344
303.403
303.502
303.612
303.535
303.432
303.412
303.478
303.59
303.679
303.56
303.477
303.633
303.744
303.81
303.787
303.672
303.6
303.712
303.813
303.894
303.878
303.746
303.685
303.794
303.874
303.95
303.93
303.812
303.755
303.826
303.902
303.961
303.93
303.849
303.786
303.833
303.889
303.932
303.881
303.829
303.779
303.792
303.836
303.873
303.841
303.813
303.796
303.709
303.749
303.773
303.758
303.737
303.706
303.638
303.669
303.706
303.683
303.655
303.637
303.57
303.602
303.62
303.583
303.572
303.545
303.473
303.491
303.524
303.496
303.478
303.45
303.383
303.399
303.428
303.383
303.37
303.34
303.282
303.3
303.331
303.315
303.291
303.26
303.194
303.207
303.254
303.23
303.204
303.168
303.114
303.136
303.196
303.188
303.145
303.106
303.046
303.067
303.134
303.121
303.078
303.037
302.991
303.016
303.097
303.096
303.038
302.995
302.941
302.969
303.045
303.045
302.989
302.947
302.912
302.934
303.031
303.035
302.968
302.926
302.883
302.909
302.991
303.007
302.938
302.899
302.852
302.879
302.974
302.99
302.921
302.876
302.841
302.892
302.972
302.941
302.827
302.795
302.82
302.867
302.963
302.922
302.808
302.779
302.806
302.864
302.939
302.901
302.798
302.764
302.796
302.854
302.941
302.92
302.789
302.754
302.787
302.855
302.938
302.905
302.793
302.754
302.797
302.862
302.96
302.912
302.784
302.742
302.781
302.844
302.943
302.913
302.776
302.731
302.777
302.834
302.934
302.884
302.786
302.717
302.643
302.695
302.849
302.848
302.727
302.67
302.587
302.63
302.751
302.744
302.65
302.612
302.507
302.547
302.662
302.663
302.565
302.525
302.433
302.468
302.576
302.576
302.48
302.442
302.356
302.392
302.497
302.501
302.401
302.36
302.319
302.364
302.438
302.39
302.257
302.206
302.217
302.269
302.377
302.272
302.162
302.124
302.137
302.175
302.271
302.18
302.074
302.042
302.047
302.081
302.179
302.104
301.989
301.956
301.946
301.995
302.093
301.988
301.886
301.864
301.836
301.894
301.984
301.932
301.843
301.803
301.688
301.721
301.858
301.844
301.723
301.687
301.564
301.597
301.701
301.698
301.604
301.562
301.467
301.497
301.602
301.596
301.502
301.446
301.361
301.387
301.49
301.484
301.402
301.333
301.278
301.302
301.383
301.346
301.234
301.211
301.171
301.215
301.326
301.2
301.102
301.076
301.058
301.103
301.194
301.088
300.986
300.96
300.943
300.986
301.077
300.977
300.87
300.847
300.812
300.877
300.977
300.859
300.749
300.728
300.688
300.767
300.856
300.759
300.657
300.621
300.542
300.557
300.706
300.687
300.553
300.491
300.395
300.421
300.537
300.527
300.419
300.35
300.256
300.294
300.418
300.404
300.298
300.222
300.117
300.146
300.271
300.275
300.161
300.072
299.997
300.029
300.171
300.157
300.041
299.938
299.859
299.918
300.035
299.961
299.758
299.738
299.708
299.775
299.947
299.776
299.615
299.577
299.554
299.632
299.783
299.626
299.462
299.424
299.36
299.457
299.61
299.475
299.294
299.228
299.203
299.314
299.477
299.274
299.099
299.069
299.035
299.143
299.299
299.18
299.006
298.938
298.778
298.783
299.018
298.995
298.796
298.71
298.577
298.628
298.816
298.823
298.645
298.547
298.381
298.425
298.625
298.627
298.436
298.336
298.153
298.21
298.41
298.382
298.181
298.079
297.909
297.987
298.194
298.207
298.008
297.89
297.722
297.759
298.009
298.006
297.785
297.675
297.476
297.528
297.784
297.757
297.512
297.4
297.182
297.258
297.534
297.535
297.295
297.156
296.983
297.018
297.302
297.316
297.054
296.911
296.692
296.737
297.053
296.978
296.717
296.568
296.361
296.45
296.789
296.804
296.514
296.312
296.184
296.301
296.577
296.384
295.926
295.923
295.793
295.935
296.312
295.858
295.55
295.495
295.41
295.558
295.813
295.535
295.311
295.236
294.987
295.229
295.533
295.351
295.133
294.945
294.522
294.556
294.909
294.813
294.525
294.433
294.096
294.181
294.601
294.576
294.193
294.043
293.618
293.658
294.097
294.05
293.606
293.388
292.943
292.984
293.412
293.424
293.02
292.92
292.555
292.634
293.039
293.017
292.548
292.362
291.771
291.774
292.31
291.98
291.597
291.439
291.251
291.313
291.699
291.621
291.121
290.626
290.655
290.878
291.418
290.336
289.806
289.754
289.584
289.71
290.251
289.527
289.208
289.107
288.515
288.704
289.43
288.044
287.665
287.811
287.21
287.367
287.952
287.28
286.962
286.737
285.919
285.706
286.457
285.692
285.054
285.274
284.36
284.601
285.385
283.788
283.421
283.843
282.983
282.791
283.55
281.636
281.479
281.87
281.411
281.465
282.443
281.064
280.941
281.198
281.146
280.901
281.594
282.885
281.593
281.559
283.221
283.641
285.985
288.424
285.539
284.917
287.448
288.506
291.722
293.286
290.341
289.122
290.26
291.664
294.408
294.936
292.533
291.027
291.819
293.45
295.612
295.912
294.057
292.407
293.044
294.745
296.356
296.503
295.134
293.488
294.01
295.641
296.78
296.868
295.891
294.362
294.803
296.272
297.051
297.105
296.43
295.086
295.453
296.705
297.229
297.259
296.807
295.669
295.963
296.992
297.339
297.352
297.053
296.124
296.351
297.173
297.399
297.398
297.205
296.463
296.626
297.282
297.419
297.406
297.294
296.705
296.814
297.341
297.414
297.393
297.336
296.863
296.928
297.362
297.392
297.365
297.344
296.954
296.99
297.358
297.359
297.324
297.328
296.987
297.004
297.329
297.315
297.275
297.292
296.982
296.985
297.283
297.264
297.222
297.237
296.954
296.943
297.222
297.209
297.165
297.167
296.905
296.886
297.149
297.148
297.102
297.088
296.841
296.819
297.067
297.083
297.033
297.002
296.768
296.744
296.979
297.014
296.962
296.914
296.692
296.666
296.888
296.942
296.888
296.823
296.616
296.586
296.796
296.866
296.812
296.732
296.538
296.504
296.703
296.787
296.73
296.639
296.458
296.418
296.609
296.704
296.646
296.546
296.374
296.333
296.515
296.617
296.557
296.451
296.294
296.251
296.421
296.527
296.465
296.358
296.211
296.174
296.328
296.434
296.371
296.264
296.13
296.097
296.235
296.339
296.274
296.171
296.047
296.017
296.142
296.241
296.172
296.075
295.964
295.935
296.046
296.139
296.066
295.976
295.875
295.848
295.946
296.033
295.956
295.873
295.785
295.757
295.844
295.923
295.844
295.769
295.691
295.664
295.74
295.811
295.731
295.663
295.595
295.569
295.634
295.698
295.618
295.556
295.499
295.472
295.528
295.585
295.505
295.449
295.4
295.374
295.421
295.472
295.393
295.343
295.301
295.275
295.315
295.361
295.283
295.236
295.201
295.176
295.208
295.252
295.176
295.13
295.1
295.075
295.103
295.145
295.071
295.026
295
294.977
295
295.042
294.97
294.925
294.902
294.88
294.9
294.942
294.872
294.826
294.805
294.784
294.802
294.845
294.777
294.729
294.71
294.69
294.707
294.751
294.686
294.636
294.618
294.598
294.614
294.661
294.598
294.546
294.527
294.509
294.525
294.574
294.513
294.459
294.44
294.422
294.439
294.49
294.431
294.374
294.354
294.337
294.355
294.409
294.352
294.293
294.271
294.255
294.274
294.331
294.275
294.213
294.19
294.175
294.196
294.255
294.2
294.136
294.112
294.096
294.119
294.18
294.127
294.061
294.034
294.02
294.045
294.108
294.055
293.988
293.96
293.945
293.972
294.037
293.985
293.916
293.887
293.873
293.901
293.967
293.916
293.846
293.816
293.802
293.832
293.899
293.849
293.778
293.746
293.734
293.764
293.832
293.783
293.712
293.679
293.667
293.698
293.766
293.718
293.647
293.614
293.603
293.634
293.703
293.656
293.584
293.551
293.54
293.573
293.64
293.595
293.524
293.491
293.481
293.513
293.581
293.536
293.467
293.433
293.424
293.456
293.522
293.48
293.412
293.379
293.371
293.402
293.467
293.426
293.359
293.327
293.32
293.35
293.413
293.374
293.31
293.279
293.273
293.302
293.363
293.325
293.264
293.235
293.229
293.257
293.314
293.279
293.22
293.193
293.188
293.215
293.269
293.235
293.179
293.154
293.15
293.175
293.226
293.194
293.141
293.119
293.116
293.139
293.187
293.156
293.107
293.087
293.084
293.106
293.15
293.121
293.076
293.058
293.057
293.076
293.118
293.092
293.05
293.033
293.032
293.05
293.089
293.065
293.027
293.012
293.014
293.028
293.064
293.045
293.009
292.995
292.997
293.012
293.043
293.028
292.995
292.982
292.986
292.997
293.026
293.012
292.982
292.97
292.973
292.984
293.011
292.999
292.971
292.959
292.965
292.974
292.998
292.986
292.96
292.95
292.955
292.964
292.985
292.974
292.951
292.941
292.947
292.955
292.973
292.963
292.942
292.933
292.939
292.947
292.962
292.952
292.934
292.925
292.933
292.939
292.952
292.942
292.927
292.919
292.926
292.933
292.943
292.934
292.921
292.914
292.923
292.928
292.936
292.928
292.917
292.911
292.92
292.925
292.93
292.924
292.916
292.91
292.923
292.927
292.93
292.925
292.919
292.915
292.93
292.934
292.934
292.932
292.929
292.925
292.947
292.949
292.946
292.946
292.947
292.943
292.969
292.972
292.966
292.969
292.971
292.969
292.999
293
292.991
292.995
293.001
292.999
293.03
293.031
293.019
293.023
293.032
293.031
293.063
293.062
293.048
293.052
293.063
293.062
293.094
293.093
293.077
293.081
293.094
293.094
293.126
293.125
293.106
293.11
293.125
293.126
293.157
293.156
293.135
293.139
293.156
293.158
293.19
293.188
293.165
293.168
293.188
293.19
293.222
293.22
293.195
293.199
293.221
293.223
293.256
293.253
293.226
293.23
293.254
293.256
293.289
293.286
293.258
293.262
293.288
293.291
293.324
293.322
293.29
293.294
293.323
293.324
293.357
293.355
293.323
293.329
293.357
293.36
293.393
293.392
293.359
293.366
293.395
293.397
293.424
293.429
293.391
293.4
293.431
293.432
293.462
293.463
293.431
293.432
293.461
293.453
293.412
293.456
293.427
293.403
293.446
293.41
293.427
293.455
293.404
293.383
292.792
292.566
292.51
292.004
291.666
291.594
291.486
291.099
290.844
290.506
290.292
290.182
290.146
290.177
290.254
290.301
290.291
290.216
290.097
289.956
289.812
289.676
289.554
289.446
289.354
289.278
289.214
289.172
289.138
289.124
289.114
288.944
288.862
288.724
288.622
288.494
288.388
288.276
288.183
288.108
288.051
288.004
287.965
287.934
287.918
287.913
287.924
287.95
287.99
288.044
288.111
288.191
288.281
288.382
288.491
288.609
288.735
288.868
289.007
289.153
289.303
289.458
289.618
289.783
289.954
290.13
290.313
290.503
290.7
290.905
291.118
291.341
291.572
291.813
292.063
292.321
292.588
292.863
293.145
293.434
293.728
294.025
294.325
294.626
294.927
295.225
295.52
295.809
296.092
296.369
296.637
296.896
297.145
297.383
297.61
297.825
298.029
298.221
298.402
298.571
298.73
298.879
299.018
299.149
299.271
299.386
299.494
299.597
299.696
299.791
299.883
299.974
300.064
300.154
300.241
300.326
300.406
300.48
300.546
300.603
300.65
300.687
300.715
300.737
300.754
300.767
300.776
300.783
300.786
300.787
300.786
300.781
300.772
300.762
300.75
300.734
300.713
300.687
300.656
300.62
300.578
300.529
300.473
300.41
300.34
300.262
300.176
300.082
299.98
299.87
299.755
299.638
299.524
299.413
299.295
299.157
299.154
299.156
299.164
299.175
299.186
299.198
299.209
299.22
299.228
299.236
299.242
299.247
299.251
299.255
299.258
299.261
299.263
299.266
299.268
299.271
299.274
299.277
299.28
299.283
299.287
299.292
299.296
299.301
299.307
299.313
299.32
299.327
299.335
299.344
299.354
299.365
299.377
299.389
299.402
299.415
299.429
299.443
299.458
299.472
299.486
299.499
299.512
299.523
299.534
299.543
299.55
299.556
299.56
299.562
299.563
299.562
299.559
299.551
299.535
299.513
299.495
299.52
299.524
299.536
299.595
299.653
299.713
299.77
299.83
299.887
299.946
300.003
300.061
300.117
300.174
300.228
300.283
300.336
300.39
300.44
300.491
300.538
300.586
300.63
300.673
300.713
300.752
300.788
300.823
300.856
300.888
300.919
300.951
300.982
301.015
301.048
301.083
301.117
301.153
301.188
301.224
301.26
301.297
301.333
301.37
301.406
301.442
301.478
301.514
301.549
301.585
301.619
301.652
301.684
301.715
301.745
301.774
301.804
301.833
301.864
301.896
301.93
301.965
302.002
302.042
302.083
302.128
302.175
302.227
302.281
302.339
302.401
302.469
302.536
302.604
302.667
302.744
302.837
302.978
303.143
303.355
303.582
303.875
304.167
304.505
304.85
305.167
305.428
305.689
305.904
306.025
306.051
306.027
306.024
306.044
306.086
306.135
306.191
306.252
306.307
306.351
306.369
306.358
306.296
306.235
306.173
306.123
306.089
306.093
306.141
306.216
306.277
306.345
306.433
306.528
306.604
306.667
306.728
306.784
306.828
306.862
306.891
306.913
306.93
306.943
306.941
306.939
306.928
306.929
306.913
306.911
306.888
306.889
306.861
306.856
306.878
306.914
306.928
306.938
306.936
306.926
306.911
306.909
306.925
306.934
306.932
306.923
306.906
306.873
306.797
306.801
306.821
306.822
306.781
306.775
306.724
306.724
306.667
306.662
306.697
306.563
306.598
306.598
306.525
306.518
306.44
306.435
306.354
306.35
306.402
306.249
306.281
306.278
306.214
306.209
306.15
306.138
306.114
306.14
306.176
306.24
306.164
306.118
306.183
306.249
306.352
306.24
306.358
306.455
306.435
306.492
306.496
306.413
306.455
306.48
306.432
306.419
306.38
306.362
306.416
306.377
306.332
306.309
306.255
306.327
306.391
306.214
306.201
306.449
306.437
306.353
306.47
306.226
306.276
306.39
306.242
306.297
306.214
305.971
305.889
305.015
305.603
306.032
305.782
305.193
304.752
305.439
305.094
304.467
304.11
303.64
304.083
304.666
304.377
303.918
303.636
304.052
303.828
303.524
303.363
303.153
303.316
303.551
303.405
303.229
303.09
303.209
303.1
303.011
302.984
302.838
302.916
302.967
302.881
302.843
302.77
302.789
302.722
302.7
302.703
302.57
302.635
302.651
302.585
302.564
302.501
302.516
302.45
302.433
302.442
302.324
302.376
302.387
302.327
302.314
302.263
302.271
302.218
302.208
302.218
302.122
302.162
302.169
302.121
302.113
302.071
302.078
302.035
302.026
302.034
301.954
301.988
301.996
301.957
301.948
301.912
301.921
301.886
301.875
301.879
301.808
301.842
301.853
301.82
301.807
301.775
301.789
301.757
301.742
301.741
301.672
301.71
301.726
301.694
301.676
301.642
301.661
301.627
301.607
301.601
301.528
301.571
301.592
301.557
301.536
301.499
301.521
301.486
301.464
301.455
301.383
301.427
301.449
301.414
301.392
301.356
301.377
301.343
301.321
301.314
301.245
301.286
301.306
301.271
301.251
301.216
301.235
301.2
301.181
301.177
301.11
301.147
301.164
301.13
301.113
301.078
301.095
301.062
301.045
301.043
300.975
301.011
301.027
300.995
300.977
300.944
300.961
300.929
300.911
300.906
300.835
300.876
300.895
300.864
300.842
300.806
300.828
300.795
300.771
300.761
300.682
300.732
300.757
300.721
300.694
300.652
300.679
300.639
300.611
300.599
300.511
300.566
300.594
300.55
300.522
300.474
300.501
300.455
300.427
300.419
300.323
300.377
300.403
300.355
300.328
300.276
300.3
300.25
300.225
300.224
300.123
300.172
300.194
300.141
300.119
300.065
300.085
300.031
300.011
300.02
299.915
299.957
299.974
299.919
299.902
299.847
299.861
299.806
299.792
299.81
299.703
299.738
299.748
299.694
299.683
299.628
299.636
299.581
299.574
299.597
299.608
299.709
299.812
299.913
300.012
300.109
300.205
300.299
300.39
300.479
300.565
300.648
300.727
300.804
300.877
300.948
301.016
301.084
301.15
301.217
301.284
301.354
301.425
301.497
301.572
301.646
301.717
301.788
301.86
301.935
302.015
302.101
302.195
302.298
302.411
302.534
302.663
302.794
302.934
303.088
303.262
303.477
303.818
304.553
305.496
306.141
306.384
306.386
306.42
306.49
306.446
306.259
306.184
306.248
306.397
306.558
306.691
306.693
306.796
306.872
306.905
306.919
306.93
306.927
306.917
306.903
306.902
306.915
306.925
306.923
306.913
306.899
306.87
306.796
306.799
306.867
306.898
306.911
306.921
306.919
306.909
306.896
306.896
306.908
306.917
306.916
306.907
306.895
306.867
306.8
306.712
306.705
306.699
306.573
306.562
306.403
306.247
306.25
306.418
306.439
306.587
306.602
306.464
306.291
306.262
306.123
306.148
306.172
306.238
306.186
306.372
306.424
306.472
306.438
306.385
306.28
306.112
306.028
306.109
306.138
306.335
306.49
306.615
306.717
306.8
306.866
306.895
306.907
306.916
306.916
306.907
306.894
306.894
306.907
306.916
306.918
306.908
306.894
306.864
306.801
306.809
306.837
306.864
306.887
306.904
306.917
306.914
306.922
306.918
306.915
306.913
306.905
306.91
306.903
306.898
306.89
306.896
306.9
306.881
306.879
306.888
306.882
306.873
306.864
306.868
306.855
306.856
306.831
306.802
306.778
306.778
306.743
306.724
306.628
306.515
306.382
306.423
306.488
306.548
306.604
306.655
306.702
306.708
306.744
306.758
306.771
306.78
306.788
306.799
306.81
306.824
306.838
306.828
306.848
306.809
306.796
306.785
306.78
306.776
306.774
306.764
306.754
306.744
306.726
306.705
306.716
306.736
306.686
306.679
306.657
306.608
306.623
306.651
306.659
306.623
306.593
306.592
306.562
306.546
306.492
306.423
306.365
306.359
306.281
306.212
305.987
305.965
305.948
306.142
306.31
306.27
306.331
306.375
306.406
306.356
306.306
306.202
306.299
305.951
305.783
305.625
306.101
306.241
306.168
305.99
305.468
305.303
305.86
306.062
306.191
306.178
305.858
305.796
305.825
306.001
306.102
306.204
306.216
306.285
306.308
306.342
306.377
306.407
306.441
306.471
306.502
306.53
306.53
306.558
306.497
306.47
306.437
306.408
306.373
306.342
306.304
306.27
306.268
306.232
306.192
306.193
306.229
306.149
306.151
306.118
306.038
306.061
306.102
306.106
306.061
306.017
306.018
305.965
305.886
305.733
305.701
305.658
305.602
305.474
305.616
305.644
305.755
305.831
305.893
305.907
305.968
305.849
305.781
305.781
305.844
305.718
305.686
305.593
305.585
305.489
305.371
305.376
305.503
305.547
305.613
305.404
305.414
305.274
305.292
305.269
305.377
305.591
305.806
306.027
305.954
305.731
305.108
304.881
305.414
305.666
305.859
305.73
305.409
305.414
305.278
305.097
305.139
304.834
305.08
305.141
304.864
304.867
305.145
305.363
305.461
305.158
305.244
305.042
304.559
304.433
304.401
304.809
303.905
304.177
304.548
304.87
304.88
304.806
304.713
304.299
303.962
303.107
302.933
302.876
303.486
304.158
304.208
304.454
304.83
304.992
305.354
305.337
305.08
304.583
303.966
303.263
304.194
303.901
303.79
303.241
302.122
302.192
302.43
302.558
302.572
302.843
302.782
302.961
303.141
303.151
303.253
303.242
303.332
303.299
303.301
303.353
303.311
303.329
303.3
303.292
303.322
303.308
303.356
303.327
303.416
303.377
303.432
303.594
303.491
303.678
303.584
303.741
303.665
303.784
303.695
303.777
303.683
303.702
303.712
303.665
303.652
303.607
303.577
303.558
303.507
303.493
303.43
303.437
303.335
303.354
303.258
303.277
303.173
303.189
303.111
303.119
303.038
303.042
302.991
302.985
302.937
302.921
302.902
302.879
302.859
302.835
302.837
302.813
302.816
302.854
302.854
302.915
302.908
302.998
302.985
303.077
303.054
303.165
303.135
303.229
303.21
303.301
303.3
303.358
303.369
303.415
303.425
303.44
303.478
303.488
303.512
303.51
303.566
303.55
303.601
303.56
303.638
303.592
303.499
303.447
303.438
303.445
303.503
303.484
303.429
303.419
303.439
303.399
303.357
303.428
303.372
303.311
303.272
303.265
303.215
303.139
303.211
303.13
303.07
303.024
302.979
302.943
302.876
302.914
302.825
302.798
302.778
302.78
302.756
302.777
302.719
302.747
302.697
302.757
302.657
302.735
302.654
302.724
302.645
302.686
302.646
302.554
302.461
302.55
302.495
302.585
302.561
302.602
302.587
302.667
302.661
302.703
302.7
302.756
302.771
302.732
302.659
302.602
302.559
302.478
302.442
302.382
302.421
302.528
302.596
302.47
302.51
302.421
302.438
302.349
302.366
302.279
302.292
302.202
302.155
302.137
302.084
302.056
302.002
301.957
301.905
301.869
301.804
301.805
301.696
301.804
301.855
301.901
301.93
301.979
302.002
302.034
302.048
302.104
302.111
302.176
302.217
302.222
302.273
302.268
302.337
302.305
302.39
302.351
302.398
302.367
302.341
302.347
302.291
302.257
302.293
302.254
302.209
302.144
302.225
302.169
302.1
302.058
302.009
301.915
301.85
301.793
301.766
301.689
301.591
301.593
301.473
301.48
301.376
301.345
301.315
301.223
301.382
301.389
301.236
301.09
301.114
300.976
300.992
300.843
300.86
300.726
300.692
300.657
300.546
300.573
300.389
300.424
300.249
300.274
300.112
300.126
299.987
299.93
299.89
299.751
299.961
300.025
299.766
299.583
299.601
299.411
299.416
299.241
299.209
299.116
299.019
298.976
298.779
298.806
298.576
298.592
298.381
298.393
298.149
298.156
297.932
297.941
297.732
297.721
297.496
297.458
297.219
297.211
296.983
296.937
296.729
296.61
296.406
296.288
296.211
295.979
296.269
296.289
295.913
295.605
295.558
295.228
295.161
294.906
294.644
294.528
294.125
294.145
293.712
293.677
293.061
293.134
292.551
292.624
291.968
292.025
291.286
291.307
290.77
289.976
290.047
289.095
289.232
288.05
288.069
287.236
286.513
286.229
285.481
284.434
284.35
283.167
282.43
281.66
282.504
281.942
282.423
283.499
284.831
286.827
288.102
289.196
289.737
290.449
290.855
291.391
291.697
292.102
292.363
292.686
292.919
293.177
293.391
293.59
293.786
293.937
294.124
294.232
294.408
294.483
294.656
294.701
294.864
294.887
295.047
295.05
295.196
295.192
295.325
295.314
295.431
295.416
295.52
295.503
295.59
295.567
295.65
295.616
295.694
295.653
295.726
295.678
295.745
295.693
295.755
295.699
295.755
295.706
295.738
295.701
295.712
295.682
295.683
295.649
295.642
295.606
295.595
295.556
295.537
295.501
295.475
295.439
295.407
295.375
295.338
295.305
295.262
295.234
295.186
295.158
295.104
295.081
295.023
295
294.938
294.92
294.855
294.836
294.767
294.754
294.682
294.669
294.595
294.586
294.51
294.501
294.424
294.42
294.341
294.336
294.257
294.256
294.177
294.175
294.096
294.097
294.018
294.018
293.94
293.943
293.865
293.867
293.791
293.796
293.721
293.724
293.651
293.657
293.584
293.59
293.519
293.527
293.458
293.465
293.399
293.409
293.344
293.354
293.292
293.306
293.246
293.259
293.201
293.218
293.162
293.177
293.124
293.143
293.092
293.109
293.06
293.08
293.034
293.053
293.01
293.031
292.99
293.011
292.974
292.997
292.963
292.985
292.949
292.972
292.939
292.963
292.929
292.952
292.919
292.942
292.909
292.932
292.901
292.924
292.892
292.916
292.886
292.91
292.881
292.906
292.88
292.907
292.883
292.912
292.892
292.926
292.908
292.947
292.932
292.975
292.96
293.005
292.992
293.035
293.021
293.066
293.053
293.096
293.082
293.126
293.114
293.157
293.143
293.188
293.176
293.219
293.207
293.252
293.241
293.285
293.272
293.318
293.308
293.352
293.34
293.386
293.378
293.394
293.414
293.404
293.391
292.825
292.813
292.587
292.945
292.907
292.729
292.987
292.963
292.827
292.994
292.965
292.844
292.987
292.963
292.868
292.96
292.934
292.823
292.942
292.913
292.825
292.907
292.88
292.789
292.882
292.858
292.772
292.85
292.824
292.738
292.826
292.802
292.718
292.795
292.77
292.684
292.772
292.747
292.663
292.74
292.714
292.626
292.719
292.693
292.607
292.686
292.659
292.571
292.665
292.641
292.554
292.643
292.617
292.529
292.633
292.611
292.526
292.626
292.604
292.512
292.63
292.611
292.527
292.632
292.613
292.517
292.644
292.625
292.539
292.649
292.631
292.528
292.664
292.644
292.553
292.67
292.65
292.541
292.684
292.664
292.567
292.692
292.671
292.553
292.705
292.682
292.58
292.71
292.687
292.562
292.724
292.699
292.589
292.73
292.706
292.577
292.745
292.722
292.603
292.758
292.736
292.601
292.78
292.758
292.63
292.795
292.776
292.633
292.824
292.803
292.667
292.842
292.824
292.676
292.874
292.856
292.714
292.897
292.882
292.731
292.937
292.921
292.777
292.967
292.956
292.801
293.014
293
292.856
293.053
293.043
292.885
293.105
293.094
292.945
293.152
293.142
292.978
293.208
293.196
293.039
293.258
293.246
293.077
293.316
293.303
293.139
293.369
293.354
293.178
293.429
293.412
293.242
293.483
293.464
293.281
293.544
293.523
293.345
293.598
293.574
293.385
293.659
293.632
293.447
293.711
293.682
293.486
293.769
293.736
293.546
293.818
293.783
293.584
293.872
293.833
293.639
293.917
293.875
293.675
293.965
293.919
293.725
294.003
293.954
293.758
294.044
293.991
293.802
294.075
294.019
293.832
294.108
294.049
293.87
294.132
294.07
293.896
294.157
294.091
293.93
294.172
294.105
293.949
294.19
294.119
293.974
294.199
294.126
293.991
294.209
294.134
294.009
294.213
294.136
294.024
294.217
294.138
294.037
294.215
294.129