/*--------------------------------*- C++ -*----------------------------------*\
| =========                 |                                                 |
| \\      /  F ield         | OpenFOAM: The Open Source CFD Toolbox           |
|  \\    /   O peration     | Version:  v2006                                 |
|   \\  /    A nd           | Website:  www.openfoam.com                      |
|    \\/     M anipulation  |                                                 |
\*---------------------------------------------------------------------------*/
FoamFile
{
    version     2.0;
    format      ascii;
    class       volScalarField;
    location    "0.014";
    object      T;
}
// * * * * * * * * * * * * * * * * * * * * * * * * * * * * * * * * * * * * * //

dimensions      [0 0 0 1 0 0 0];


internalField   nonuniform List<scalar> 
11076
(
297.999
297.999
298.001
298.001
298.001
298
298
298
298
298.001
298.005
298.011
298.019
298.027
298.035
298.043
298.052
298.061
298.07
298.08
298.09
298.1
298.11
298.121
298.132
298.143
298.155
298.167
298.179
298.191
298.203
298.216
298.228
298.241
298.254
298.267
298.28
298.292
298.305
298.318
298.33
298.343
298.355
298.367
298.379
298.391
298.402
298.413
298.424
298.434
298.444
298.454
298.463
298.472
298.481
298.49
298.498
298.505
298.51
298.512
298.513
298.513
298.512
298.511
298.511
298.512
298.513
298.517
298.523
298.534
298.547
298.596
298.606
298.545
298.528
298.528
298.548
298.624
298.639
298.553
298.529
298.531
298.558
298.651
298.661
298.566
298.536
298.542
298.575
298.67
298.677
298.584
298.548
298.556
298.592
298.685
298.691
298.601
298.563
298.571
298.61
298.698
298.703
298.618
298.579
298.587
298.627
298.709
298.714
298.634
298.595
298.603
298.642
298.719
298.724
298.65
298.611
298.618
298.656
298.728
298.731
298.664
298.625
298.632
298.669
298.734
298.737
298.676
298.639
298.644
298.68
298.74
298.742
298.686
298.651
298.656
298.69
298.744
298.746
298.696
298.663
298.667
298.699
298.748
298.751
298.705
298.674
298.678
298.709
298.753
298.757
298.715
298.685
298.69
298.719
298.759
298.765
298.726
298.697
298.702
298.73
298.768
298.775
298.738
298.71
298.716
298.743
298.778
298.786
298.752
298.725
298.731
298.757
298.791
298.799
298.767
298.741
298.748
298.772
298.804
298.814
298.783
298.758
298.765
298.789
298.819
298.829
298.801
298.776
298.784
298.807
298.835
298.845
298.819
298.796
298.804
298.826
298.851
298.862
298.838
298.816
298.825
298.845
298.868
298.879
298.858
298.837
298.846
298.865
298.885
298.896
298.878
298.859
298.868
298.885
298.902
298.913
298.899
298.881
298.89
298.906
298.919
298.931
298.919
298.904
298.913
298.927
298.937
298.949
298.94
298.927
298.936
298.948
298.955
298.967
298.962
298.951
298.961
298.97
298.975
298.987
298.985
298.975
298.986
298.994
298.996
299.01
299.009
299.001
299.013
299.019
299.02
299.034
299.035
299.029
299.041
299.047
299.046
299.061
299.064
299.059
299.072
299.076
299.073
299.089
299.094
299.09
299.104
299.107
299.102
299.119
299.126
299.124
299.138
299.139
299.131
299.149
299.159
299.158
299.174
299.172
299.161
299.18
299.193
299.194
299.21
299.207
299.192
299.21
299.227
299.231
299.248
299.242
299.224
299.242
299.262
299.269
299.287
299.279
299.258
299.276
299.298
299.308
299.328
299.317
299.295
299.311
299.337
299.349
299.369
299.357
299.333
299.35
299.378
299.392
299.412
299.397
299.372
299.393
299.422
299.438
299.456
299.439
299.41
299.437
299.467
299.483
299.501
299.481
299.45
299.477
299.505
299.523
299.543
299.522
299.492
299.427
299.503
299.539
299.51
299.393
299.282
299.26
299.307
299.429
299.338
299.285
299.259
299.258
299.294
299.331
299.344
299.301
299.245
299.235
299.31
299.357
299.371
299.326
299.218
299.187
299.339
299.398
299.422
299.326
299.167
299.182
299.334
299.438
299.434
299.33
299.198
299.225
299.366
299.458
299.462
299.373
299.242
299.259
299.402
299.477
299.482
299.41
299.268
299.269
299.42
299.484
299.485
299.421
299.267
299.267
299.426
299.484
299.482
299.422
299.25
299.25
299.423
299.483
299.479
299.417
299.229
299.223
299.414
299.477
299.473
299.405
299.203
299.204
299.405
299.47
299.465
299.396
299.184
299.196
299.4
299.463
299.459
299.393
299.177
299.189
299.397
299.457
299.454
299.387
299.162
299.192
299.399
299.456
299.45
299.381
299.135
299.158
299.389
299.452
299.45
299.378
299.114
299.106
299.374
299.449
299.447
299.363
299.068
299.056
299.359
299.447
299.446
299.345
299.015
298.999
299.339
299.445
299.442
299.322
298.954
298.935
299.314
299.441
299.437
299.292
298.886
298.864
299.281
299.434
299.427
299.253
298.811
298.786
299.24
299.422
299.411
299.206
298.731
298.704
299.19
299.405
299.39
299.149
298.645
298.618
299.13
299.381
299.36
299.083
298.556
298.525
299.06
299.349
299.322
299.007
298.459
298.427
298.981
299.308
299.274
298.922
298.356
298.321
298.894
299.257
299.215
298.83
298.247
298.208
298.796
299.192
299.148
298.733
298.13
298.091
298.693
299.117
299.081
298.638
298.013
297.997
298.631
299.077
299.06
298.593
297.921
299.527
299.721
299.719
299.625
299.489
299.321
299.241
299.214
299.228
299.281
299.341
299.418
299.473
299.525
299.554
299.577
299.587
299.594
299.596
299.599
299.604
299.607
299.616
299.628
299.632
299.622
299.59
299.586
299.613
299.625
299.622
299.61
299.588
299.59
299.607
299.615
299.613
299.607
299.593
299.597
299.608
299.613
299.61
299.607
299.599
299.601
299.608
299.61
299.606
299.606
299.601
299.602
299.606
299.605
299.601
299.602
299.6
299.6
299.602
299.6
299.595
299.598
299.597
299.597
299.597
299.594
299.59
299.593
299.593
299.592
299.592
299.589
299.584
299.588
299.589
299.588
299.587
299.583
299.58
299.583
299.584
299.584
299.583
299.579
299.575
299.579
299.58
299.58
299.578
299.574
299.571
299.575
299.577
299.576
299.574
299.57
299.567
299.571
299.573
299.573
299.571
299.566
299.563
299.568
299.57
299.57
299.568
299.563
299.56
299.565
299.567
299.567
299.565
299.56
299.557
299.562
299.565
299.565
299.562
299.557
299.555
299.56
299.563
299.563
299.56
299.555
299.552
299.557
299.561
299.562
299.558
299.552
299.55
299.555
299.56
299.561
299.556
299.55
299.548
299.554
299.559
299.56
299.554
299.548
299.546
299.552
299.558
299.559
299.553
299.546
299.544
299.55
299.557
299.558
299.551
299.544
299.542
299.548
299.556
299.557
299.549
299.542
299.539
299.547
299.555
299.556
299.547
299.539
299.537
299.545
299.554
299.555
299.545
299.537
299.534
299.543
299.553
299.554
299.543
299.534
299.531
299.54
299.552
299.553
299.54
299.531
299.528
299.537
299.551
299.551
299.536
299.527
299.523
299.532
299.548
299.547
299.531
299.522
299.516
299.525
299.542
299.54
299.522
299.514
299.509
299.516
299.536
299.535
299.515
299.508
299.507
299.513
299.533
299.537
299.516
299.509
299.51
299.518
299.538
299.543
299.521
299.515
299.517
299.523
299.545
299.55
299.527
299.522
299.525
299.53
299.553
299.561
299.538
299.533
299.536
299.541
299.565
299.571
299.548
299.545
299.55
299.553
299.576
299.582
299.562
299.561
299.568
299.567
299.586
299.588
299.575
299.581
299.595
299.588
299.587
299.603
299.607
299.611
299.623
299.615
299.608
299.626
299.63
299.633
299.645
299.643
299.644
299.655
299.655
299.658
299.673
299.67
299.672
299.684
299.684
299.688
299.705
299.7
299.694
299.71
299.717
299.724
299.744
299.734
299.718
299.734
299.75
299.762
299.771
299.764
299.746
299.762
299.78
299.786
299.803
299.796
299.777
299.793
299.811
299.817
299.836
299.827
299.808
299.824
299.84
299.844
299.852
299.849
299.836
299.846
299.855
299.856
299.86
299.859
299.854
299.859
299.86
299.861
299.857
299.852
299.857
299.846
299.836
299.838
299.82
299.81
299.823
299.776
299.771
299.789
299.732
299.707
299.697
299.58
299.608
299.625
299.558
299.504
299.413
299.208
299.374
299.45
299.285
299.193
298.97
298.723
299.051
299.196
299.073
298.908
298.457
298.206
298.725
298.854
298.672
298.532
297.936
297.681
298.377
298.501
298.307
298.154
297.389
297.077
298.019
298.166
297.807
297.471
296.945
296.831
296.914
297.462
296.901
296.423
296.932
297.136
296.246
296.627
296.403
296.253
297.479
297.947
296.475
296.345
296.384
296.801
298.382
298.782
297.256
296.536
297.003
297.842
299.138
299.4
298.154
297.092
297.242
298.447
299.609
299.756
298.9
297.812
297.725
298.986
299.873
299.96
299.179
297.871
298.345
299.352
300.03
300.093
299.269
297.991
298.152
299.293
300.135
300.169
299.194
297.851
298.069
299.286
300.183
300.201
299.489
298.278
298.696
299.699
300.219
300.242
299.651
298.542
298.569
299.7
300.257
300.257
299.817
298.964
298.742
299.718
300.259
300.25
299.743
298.923
299.074
299.853
300.231
300.222
299.942
299.383
299.187
299.855
300.211
300.172
299.865
299.252
299.623
300.053
300.164
300.073
300.025
299.44
299.603
299.989
300.08
300.071
299.909
299.676
299.869
299.998
300.144
299.916
299.739
299.593
299.578
299.737
299.867
299.877
299.792
299.713
299.448
299.582
299.74
299.726
299.591
299.45
299.47
299.608
299.719
299.726
299.655
299.587
299.349
299.467
299.601
299.604
299.482
299.343
299.449
299.535
299.602
299.482
299.36
299.255
299.255
299.374
299.487
299.489
299.422
299.354
299.162
299.257
299.369
299.375
299.267
299.158
299.241
299.319
299.377
299.299
299.177
299.094
299.09
299.18
299.282
299.291
299.195
299.098
299.172
299.235
299.294
299.222
299.104
299.03
299.019
299.109
299.215
299.215
299.154
299.077
298.965
299.03
299.139
299.159
299.05
298.968
299.024
299.091
299.156
299.067
298.967
298.911
298.901
298.98
299.081
299.081
299.021
298.955
298.85
298.91
299.024
299.017
298.916
298.842
298.895
298.952
299.019
298.947
298.836
298.778
298.772
298.856
298.965
298.971
298.902
298.836
298.719
298.776
298.875
298.88
298.807
298.743
298.654
298.704
298.811
298.829
298.723
298.649
298.707
298.768
298.835
298.749
298.653
298.602
298.582
298.66
298.759
298.749
298.689
298.629
298.526
298.579
298.678
298.703
298.598
298.52
298.569
298.635
298.7
298.615
298.519
298.474
298.459
298.538
298.632
298.623
298.56
298.502
298.41
298.458
298.55
298.573
298.497
298.437
298.362
298.403
298.511
298.523
298.423
298.35
298.389
298.446
298.512
298.439
298.343
298.3
298.291
298.368
298.469
298.468
298.399
298.341
298.246
298.293
298.392
298.395
298.32
298.258
298.19
298.224
298.326
298.346
298.245
298.168
298.219
298.278
298.343
298.282
298.176
298.128
298.122
298.209
298.308
298.291
298.214
298.156
298.061
298.105
298.206
298.216
298.135
298.076
298.006
298.042
298.15
298.179
298.071
297.997
298.049
298.101
298.179
298.095
297.991
297.946
297.949
298.016
298.094
298.03
297.916
297.885
297.871
297.942
298.044
298.038
297.963
297.918
297.823
297.865
297.97
298.004
297.897
297.814
297.847
297.908
297.988
297.903
297.795
297.753
297.767
297.821
297.911
297.845
297.725
297.689
297.675
297.759
297.877
297.867
297.785
297.723
297.63
297.678
297.804
297.807
297.709
297.643
297.565
297.598
297.731
297.748
297.63
297.543
297.587
297.649
297.734
297.651
297.535
297.485
297.505
297.57
297.667
297.6
297.467
297.428
297.405
297.498
297.628
297.611
297.523
297.446
297.349
297.394
297.511
297.524
297.426
297.363
297.289
297.321
297.448
297.476
297.353
297.264
297.317
297.378
297.469
297.389
297.258
297.206
297.219
297.288
297.394
297.31
297.166
297.135
297.118
297.207
297.334
297.319
297.217
297.155
297.059
297.103
297.226
297.244
297.138
297.072
296.999
297.031
297.17
297.206
297.077
296.978
297.012
297.075
297.177
297.086
296.952
296.903
296.919
296.987
297.101
297.014
296.867
296.837
296.816
296.915
297.049
297.023
296.914
296.851
296.751
296.798
296.939
296.95
296.833
296.763
296.683
296.714
296.869
296.899
296.76
296.659
296.699
296.76
296.872
296.783
296.631
296.58
296.597
296.67
296.797
296.706
296.541
296.505
296.482
296.588
296.745
296.726
296.606
296.529
296.414
296.467
296.621
296.634
296.5
296.425
296.345
296.38
296.551
296.585
296.422
296.313
296.365
296.44
296.565
296.448
296.288
296.231
296.251
296.329
296.467
296.37
296.193
296.158
296.124
296.235
296.407
296.392
296.261
296.178
296.051
296.109
296.274
296.293
296.15
296.07
295.972
296.005
296.189
296.23
296.06
295.943
295.986
296.059
296.196
296.085
295.906
295.847
295.861
295.944
296.097
296.005
295.81
295.767
295.729
295.858
296.048
296.023
295.883
295.79
295.655
295.72
295.914
295.933
295.769
295.675
295.57
295.608
295.821
295.851
295.657
295.532
295.574
295.655
295.808
295.683
295.48
295.419
295.448
295.532
295.708
295.599
295.388
295.348
295.311
295.45
295.656
295.623
295.467
295.369
295.216
295.284
295.491
295.506
295.325
295.232
295.121
295.167
295.389
295.402
295.173
295.051
295.118
295.216
295.372
295.251
295.036
294.96
294.99
295.097
295.28
295.156
294.918
294.867
294.83
294.975
295.211
295.176
295.001
294.888
294.714
294.784
295.016
295.019
294.81
294.721
294.605
294.659
294.89
294.916
294.656
294.522
294.615
294.742
294.915
294.777
294.54
294.458
294.387
294.579
294.831
294.802
294.63
294.481
294.279
294.37
294.633
294.641
294.412
294.291
294.166
294.226
294.489
294.505
294.213
294.062
294.153
294.294
294.481
294.333
294.069
293.972
294.011
294.14
294.362
294.208
293.912
293.849
293.802
293.973
294.255
294.203
293.974
293.837
293.669
293.744
293.997
294.021
293.723
293.557
293.628
293.775
293.969
293.821
293.543
293.443
293.491
293.639
293.879
293.724
293.416
293.343
293.273
293.485
293.794
293.732
293.496
293.334
293.136
293.22
293.517
293.532
293.238
293.021
293.069
293.192
293.407
293.304
292.946
292.835
292.898
293.066
293.356
293.177
292.812
292.717
292.624
292.857
293.229
293.178
292.942
292.709
292.511
292.618
292.964
292.966
292.622
292.378
292.407
292.578
292.803
292.669
292.271
292.126
292.203
292.415
292.745
292.553
292.141
292.046
291.949
292.193
292.625
292.562
292.276
292.057
291.776
291.895
292.29
292.295
291.875
291.693
291.612
291.81
292.105
291.893
291.506
291.37
291.313
291.556
292.079
292.065
291.739
291.457
291.216
291.355
291.795
291.833
291.397
291.069
291.138
291.374
291.699
291.378
290.991
290.819
290.59
290.828
291.351
291.346
291.021
290.712
290.469
290.635
291.091
291.231
290.697
290.366
290.512
290.803
291.16
290.835
290.358
290.183
289.936
290.305
290.834
290.54
290.202
289.94
289.534
289.733
290.241
290.507
289.789
289.479
289.673
290.053
290.485
290.136
289.554
289.365
289.151
289.558
290.156
289.964
289.542
289.232
288.745
288.919
289.347
289.395
288.728
288.467
288.68
289.05
289.462
289.203
288.602
288.4
288.167
288.555
289.232
289.065
288.649
288.291
287.759
287.917
288.42
288.242
287.623
287.456
287.299
287.651
288.393
288.437
287.943
287.527
287.173
287.41
288.075
288.094
287.265
286.812
286.48
286.815
287.55
287.568
286.972
286.554
286.152
286.464
287.246
287.454
286.456
286.074
285.859
286.422
287.422
286.966
286.396
285.858
285.115
285.358
286.264
286.615
285.46
285.023
284.937
285.493
286.655
286.389
285.619
285.027
284.322
284.544
285.362
285.423
284.273
283.985
283.892
284.399
285.71
285.415
284.219
283.758
283.408
284.105
285.507
285.585
284.662
283.912
283.37
283.813
285.009
284.897
283.668
283.203
283.313
283.997
285.511
285.59
283.999
283.38
283.645
284.526
286.35
287.068
285.086
284.243
284.824
285.866
287.98
289.317
287.044
285.778
286.509
287.85
290.052
290.84
288.671
287.174
287.634
289.15
291.156
291.67
289.764
288.132
288.497
290.111
291.857
292.213
290.613
288.924
289.229
290.867
292.336
292.583
291.272
289.601
289.861
291.459
292.667
292.846
291.784
290.195
290.416
291.928
292.904
293.036
292.183
290.713
290.902
292.292
293.076
293.175
292.489
291.163
291.319
292.57
293.201
293.275
292.72
291.543
291.673
292.779
293.291
293.346
292.895
291.861
291.968
292.936
293.354
293.396
293.024
292.12
292.207
293.053
293.396
293.424
293.122
292.327
292.397
293.139
293.417
293.438
293.191
292.491
292.545
293.201
293.427
293.443
293.241
292.615
292.655
293.239
293.428
293.44
293.27
292.706
292.733
293.26
293.423
293.431
293.284
292.772
292.777
293.267
293.412
293.417
293.284
292.808
292.801
293.261
293.398
293.398
293.272
292.826
292.811
293.245
293.378
293.376
293.251
292.832
292.81
293.22
293.352
293.35
293.223
292.826
292.8
293.19
293.324
293.32
293.189
292.813
292.784
293.155
293.292
293.286
293.15
292.793
292.762
293.116
293.257
293.25
293.11
292.769
292.739
293.073
293.22
293.211
293.066
292.741
292.714
293.03
293.179
293.17
293.021
292.712
292.689
292.984
293.137
293.127
292.975
292.68
292.66
292.939
293.093
293.083
292.93
292.649
292.628
292.893
293.048
293.038
292.883
292.617
292.595
292.847
293.003
292.992
292.837
292.587
292.564
292.802
292.957
292.945
292.792
292.556
292.532
292.758
292.911
292.899
292.748
292.526
292.504
292.714
292.865
292.853
292.705
292.495
292.473
292.672
292.819
292.808
292.664
292.467
292.446
292.631
292.774
292.763
292.623
292.437
292.416
292.592
292.73
292.719
292.584
292.41
292.39
292.553
292.687
292.676
292.546
292.382
292.362
292.517
292.645
292.635
292.51
292.356
292.336
292.481
292.605
292.594
292.475
292.33
292.31
292.447
292.566
292.556
292.441
292.305
292.286
292.415
292.528
292.518
292.409
292.28
292.262
292.384
292.492
292.483
292.378
292.257
292.239
292.354
292.457
292.448
292.349
292.233
292.215
292.325
292.424
292.416
292.321
292.211
292.194
292.298
292.393
292.384
292.294
292.189
292.171
292.271
292.363
292.355
292.268
292.169
292.151
292.246
292.334
292.326
292.243
292.147
292.129
292.222
292.306
292.299
292.219
292.128
292.111
292.198
292.28
292.273
292.196
292.108
292.09
292.176
292.255
292.248
292.174
292.09
292.073
292.155
292.231
292.225
292.153
292.071
292.054
292.134
292.208
292.202
292.133
292.055
292.037
292.114
292.186
292.181
292.114
292.036
292.019
292.095
292.165
292.16
292.095
292.021
292.003
292.077
292.145
292.14
292.077
292.004
291.987
292.059
292.125
292.121
292.06
291.989
291.972
292.042
292.106
292.103
292.043
291.973
291.956
292.025
292.089
292.085
292.026
291.96
291.942
292.009
292.071
292.068
292.011
291.944
291.927
291.993
292.054
292.052
291.995
291.931
291.914
291.978
292.038
292.035
291.98
291.916
291.9
291.963
292.022
292.02
291.966
291.904
291.887
291.949
292.007
292.005
291.952
291.89
291.874
291.935
291.992
291.99
291.938
291.879
291.862
291.922
291.977
291.976
291.925
291.865
291.849
291.908
291.963
291.962
291.912
291.855
291.838
291.896
291.949
291.948
291.899
291.842
291.825
291.883
291.936
291.935
291.886
291.831
291.814
291.871
291.923
291.922
291.874
291.819
291.803
291.859
291.91
291.909
291.863
291.809
291.792
291.847
291.897
291.896
291.851
291.797
291.781
291.835
291.885
291.884
291.84
291.788
291.771
291.824
291.873
291.872
291.828
291.776
291.76
291.813
291.862
291.861
291.818
291.767
291.751
291.802
291.85
291.849
291.807
291.756
291.74
291.792
291.839
291.838
291.796
291.748
291.731
291.781
291.828
291.827
291.786
291.737
291.72
291.771
291.817
291.816
291.776
291.728
291.711
291.761
291.806
291.805
291.765
291.717
291.701
291.751
291.795
291.795
291.755
291.709
291.692
291.74
291.784
291.784
291.745
291.698
291.682
291.73
291.774
291.774
291.735
291.69
291.673
291.72
291.763
291.763
291.725
291.679
291.663
291.71
291.753
291.753
291.715
291.671
291.654
291.7
291.742
291.742
291.705
291.66
291.644
291.69
291.732
291.732
291.695
291.652
291.635
291.68
291.722
291.722
291.685
291.641
291.625
291.671
291.711
291.712
291.676
291.633
291.616
291.661
291.701
291.701
291.666
291.622
291.606
291.651
291.691
291.691
291.656
291.614
291.597
291.641
291.681
291.681
291.646
291.603
291.587
291.631
291.671
291.671
291.636
291.595
291.578
291.621
291.661
291.661
291.626
291.584
291.568
291.611
291.65
291.651
291.616
291.576
291.559
291.601
291.64
291.64
291.606
291.565
291.548
291.591
291.63
291.63
291.596
291.556
291.538
291.58
291.619
291.619
291.585
291.544
291.528
291.57
291.608
291.606
291.574
291.532
291.515
291.557
291.595
291.594
291.56
291.518
291.5
291.542
291.58
291.577
291.541
291.5
291.476
291.521
291.562
291.552
291.512
291.465
291.439
291.494
291.534
291.491
291.447
291.37
291.361
291.427
291.457
291.374
291.384
291.345
291.371
291.405
291.356
291.225
290.618
290.285
289.961
289.537
289.334
289.249
289.068
288.945
288.761
288.611
288.49
288.39
288.311
288.25
288.205
288.172
288.149
288.132
288.121
288.113
288.107
288.102
288.099
288.097
288.096
288.095
288.094
288.093
288.093
288.093
288.094
288.095
288.096
288.098
288.099
288.101
288.103
288.104
288.106
288.108
288.109
288.111
288.112
288.114
288.115
288.116
288.117
288.118
288.118
288.119
288.121
288.125
288.131
288.138
288.149
288.161
288.175
288.192
288.211
288.233
288.257
288.285
288.315
288.349
288.387
288.43
288.477
288.53
288.588
288.653
288.725
288.804
288.891
288.986
289.09
289.204
289.326
289.459
289.601
289.752
289.912
290.082
290.259
290.444
290.636
290.834
291.036
291.242
291.451
291.662
291.874
292.085
292.296
292.504
292.711
292.914
293.113
293.308
293.499
293.684
293.865
294.04
294.21
294.375
294.534
294.687
294.835
294.978
295.115
295.247
295.374
295.495
295.612
295.724
295.832
295.935
296.033
296.128
296.218
296.304
296.386
296.465
296.54
296.612
296.68
296.745
296.808
296.868
296.925
296.979
297.032
297.082
297.13
297.176
297.22
297.263
297.304
297.343
297.381
297.418
297.452
297.485
297.517
297.547
297.576
297.603
297.628
297.652
297.675
297.696
297.716
297.734
297.752
297.768
297.783
297.798
297.812
297.825
297.838
297.851
297.863
297.875
297.887
297.898
297.909
297.919
297.928
297.937
297.946
297.954
297.962
297.969
297.975
297.981
297.986
297.99
297.995
297.995
297.995
297.996
297.996
297.996
297.996
297.996
297.999
298.004
298.01
298.017
298.025
298.034
298.043
298.052
298.061
298.071
298.082
298.093
298.104
298.115
298.127
298.138
298.151
298.163
298.175
298.188
298.201
298.214
298.227
298.24
298.253
298.266
298.279
298.293
298.306
298.319
298.332
298.345
298.357
298.37
298.382
298.394
298.406
298.417
298.429
298.44
298.45
298.46
298.47
298.479
298.488
298.496
298.504
298.51
298.514
298.515
298.515
298.515
298.515
298.514
298.515
298.516
298.519
298.522
298.526
298.531
298.536
298.542
298.548
298.555
298.561
298.568
298.575
298.582
298.589
298.595
298.602
298.608
298.614
298.621
298.627
298.632
298.638
298.644
298.65
298.657
298.663
298.67
298.677
298.684
298.692
298.699
298.708
298.716
298.725
298.734
298.744
298.754
298.764
298.774
298.785
298.796
298.807
298.818
298.83
298.842
298.854
298.866
298.878
298.89
298.903
298.916
298.929
298.942
298.956
298.969
298.984
298.997
299.013
299.027
299.044
299.059
299.077
299.093
299.112
299.129
299.149
299.167
299.187
299.206
299.227
299.246
299.268
299.288
299.31
299.331
299.354
299.375
299.4
299.421
299.446
299.468
299.493
299.515
299.536
299.554
299.564
299.562
299.554
299.533
299.501
299.482
299.466
299.435
299.431
299.467
299.526
299.541
299.548
299.547
299.548
299.548
299.543
299.542
299.538
299.535
299.533
299.528
299.523
299.518
299.512
299.507
299.499
299.495
299.487
299.484
299.479
299.477
299.475
299.476
299.476
299.48
299.482
299.488
299.491
299.499
299.502
299.511
299.514
299.522
299.526
299.533
299.535
299.541
299.543
299.548
299.548
299.551
299.551
299.55
299.547
299.541
299.536
299.526
299.515
299.511
299.51
299.7
299.69
299.672
299.69
299.596
299.573
299.486
299.648
299.675
299.666
299.64
299.588
299.647
299.641
299.595
299.412
299.363
299.542
299.618
299.612
299.55
299.498
299.588
299.584
299.509
299.313
299.275
299.46
299.56
299.556
299.471
299.424
299.533
299.53
299.435
299.244
299.225
299.389
299.506
299.503
299.403
299.359
299.48
299.479
299.376
299.216
299.215
299.337
299.457
299.457
299.356
299.325
299.438
299.44
299.344
299.222
299.236
299.322
299.425
299.428
299.341
299.327
299.417
299.423
299.348
299.259
299.292
299.341
299.417
299.426
299.364
299.364
299.424
299.437
299.389
299.333
299.381
299.394
299.439
299.455
299.419
299.43
299.461
299.478
299.455
299.432
299.493
299.469
299.486
299.502
299.493
299.513
299.512
299.526
299.536
299.566
299.629
299.56
299.539
299.549
299.577
299.596
299.562
299.568
299.606
299.646
299.641
299.615
299.578
299.58
299.617
299.603
299.586
299.593
299.592
299.621
299.616
299.573
299.594
299.584
299.561
299.561
299.539
299.52
299.555
299.621
299.623
299.591
299.517
299.513
299.594
299.615
299.545
299.562
299.612
299.61
299.584
299.612
299.573
299.572
299.596
299.591
299.577
299.575
299.577
299.554
299.524
299.569
299.575
299.565
299.555
299.545
299.56
299.544
299.526
299.494
299.461
299.512
299.529
299.505
299.487
299.47
299.485
299.459
299.442
299.421
299.379
299.424
299.438
299.411
299.396
299.377
299.391
299.365
299.35
299.334
299.29
299.33
299.344
299.32
299.305
299.285
299.299
299.275
299.261
299.246
299.203
299.241
299.255
299.232
299.218
299.198
299.213
299.191
299.176
299.161
299.121
299.157
299.172
299.151
299.136
299.117
299.133
299.113
299.098
299.083
299.047
299.08
299.095
299.076
299.062
299.045
299.06
299.042
299.027
299.012
298.979
299.011
299.026
299.01
298.995
298.979
298.995
298.979
298.964
298.948
298.919
298.949
298.964
298.95
298.934
298.92
298.936
298.922
298.906
298.89
298.863
298.892
298.908
298.895
298.879
298.865
298.882
298.869
298.853
298.837
298.812
298.84
298.856
298.844
298.828
298.815
298.831
298.819
298.803
298.788
298.765
298.791
298.807
298.796
298.78
298.769
298.784
298.773
298.758
298.744
298.724
298.747
298.763
298.752
298.737
298.727
298.742
298.732
298.718
298.705
298.687
298.708
298.722
298.713
298.699
298.69
298.704
298.695
298.682
298.671
298.656
298.674
298.687
298.679
298.667
298.659
298.671
298.664
298.652
298.642
298.629
298.645
298.657
298.65
298.639
298.632
298.643
298.637
298.626
298.617
298.606
298.62
298.631
298.625
298.615
298.609
298.619
298.614
298.604
298.595
298.585
298.598
298.608
298.602
298.592
298.587
298.596
298.591
298.581
298.574
298.564
298.576
298.584
298.579
298.57
298.565
298.573
298.567
298.559
298.554
298.545
298.554
298.561
298.555
298.549
298.543
298.549
298.544
298.539
298.536
298.529
298.534
298.538
298.533
298.53
298.526
298.529
298.525
298.522
298.522
298.518
298.52
298.521
298.518
298.517
298.517
298.522
298.527
298.534
298.542
298.55
298.559
298.568
298.578
298.588
298.598
298.609
298.62
298.632
298.645
298.659
298.675
298.691
298.709
298.729
298.749
298.771
298.794
298.818
298.843
298.87
298.898
298.927
298.957
298.989
299.022
299.057
299.094
299.133
299.173
299.214
299.257
299.3
299.342
299.383
299.421
299.454
299.485
299.515
299.545
299.578
299.607
299.623
299.635
299.644
299.658
299.675
299.679
299.673
299.653
299.629
299.591
299.533
299.462
299.391
299.326
299.272
299.229
299.2
299.181
299.171
299.169
299.174
299.189
299.206
299.218
299.283
299.461
299.469
299.301
299.23
299.222
299.207
299.21
299.228
299.228
299.208
299.34
299.296
299.288
299.348
299.352
299.44
299.43
299.482
299.488
299.488
299.563
299.538
299.533
299.558
299.56
299.58
299.58
299.588
299.587
299.586
299.586
299.59
299.594
299.595
299.592
299.594
299.599
299.604
299.603
299.6
299.604
299.606
299.615
299.613
299.624
299.625
299.618
299.61
299.609
299.614
299.612
299.603
299.593
299.59
299.586
299.588
299.596
299.6
299.607
299.605
299.601
299.594
299.591
299.581
299.58
299.583
299.587
299.571
299.512
299.379
299.224
299.235
299.409
299.534
299.58
299.587
299.556
299.447
299.255
299.282
299.481
299.515
299.319
299.362
299.546
299.603
299.59
299.573
299.593
299.599
299.603
299.606
299.616
299.575
299.411
299.465
299.602
299.625
299.517
299.564
299.644
299.642
299.635
299.627
299.609
299.613
299.616
299.62
299.648
299.658
299.603
299.635
299.667
299.674
299.659
299.673
299.681
299.667
299.659
299.654
299.627
299.633
299.642
299.612
299.602
299.595
299.59
299.585
299.584
299.583
299.582
299.582
299.583
299.584
299.585
299.587
299.574
299.571
299.576
299.577
299.571
299.567
299.568
299.564
299.57
299.565
299.561
299.558
299.548
299.55
299.552
299.555
299.558
299.561
299.559
299.563
299.57
299.572
299.574
299.577
299.579
299.582
299.585
299.588
299.594
299.599
299.593
299.588
299.587
299.583
299.581
299.577
299.576
299.572
299.567
299.565
299.563
299.568
299.571
299.567
299.561
299.555
299.552
299.557
299.559
299.564
299.563
299.56
299.555
299.554
299.549
299.546
299.544
299.542
299.546
299.545
299.556
299.555
299.555
299.556
299.539
299.539
299.541
299.541
299.543
299.543
299.538
299.54
299.543
299.544
299.545
299.546
299.548
299.549
299.551
299.552
299.556
299.559
299.556
299.553
299.553
299.55
299.55
299.548
299.547
299.545
299.541
299.541
299.539
299.543
299.545
299.542
299.539
299.536
299.534
299.537
299.537
299.54
299.54
299.538
299.535
299.535
299.533
299.532
299.531
299.529
299.538
299.539
299.558
299.561
299.567
299.577
299.547
299.541
299.541
299.538
299.539
299.537
299.527
299.529
299.527
299.527
299.529
299.529
299.531
299.531
299.533
299.533
299.536
299.538
299.536
299.534
299.533
299.531
299.531
299.529
299.528
299.526
299.524
299.524
299.522
299.523
299.526
299.523
299.522
299.527
299.525
299.52
299.52
299.52
299.519
299.516
299.517
299.517
299.525
299.524
299.526
299.531
299.551
299.561
299.594
299.626
299.653
299.674
299.686
299.681
299.688
299.69
299.692
299.691
299.691
299.692
299.69
299.687
299.681
299.665
299.678
299.689
299.693
299.686
299.683
299.682
299.667
299.672
299.654
299.651
299.633
299.63
299.631
299.659
299.677
299.69
299.675
299.642
299.596
299.596
299.599
299.61
299.58
299.565
299.531
299.55
299.517
299.495
299.471
299.513
299.555
299.545
299.491
299.44
299.393
299.429
299.46
299.486
299.454
299.423
299.387
299.421
299.385
299.349
299.31
299.349
299.389
299.348
299.307
299.267
299.219
299.258
299.3
299.347
299.4
299.46
299.528
299.599
299.66
299.7
299.71
299.704
299.687
299.665
299.644
299.617
299.645
299.679
299.653
299.632
299.614
299.597
299.583
299.57
299.55
299.539
299.523
299.516
299.515
299.511
299.513
299.511
299.513
299.513
299.511
299.515
299.51
299.506
299.506
299.505
299.508
299.509
299.515
299.516
299.524
299.532
299.536
299.526
299.523
299.535
299.546
299.563
299.579
299.56
299.549
299.539
299.549
299.554
299.566
299.578
299.597
299.616
299.64
299.667
299.676
299.701
299.714
299.75
299.754
299.69
299.739
299.813
299.787
299.779
299.75
299.731
299.728
299.696
299.682
299.667
299.652
299.637
299.621
299.607
299.598
299.586
299.573
299.566
299.591
299.6
299.617
299.634
299.65
299.664
299.661
299.647
299.634
299.676
299.68
299.696
299.7
299.716
299.735
299.732
299.714
299.71
299.692
299.729
299.749
299.75
299.75
299.761
299.797
299.791
299.773