/*--------------------------------*- C++ -*----------------------------------*\
| =========                 |                                                 |
| \\      /  F ield         | OpenFOAM: The Open Source CFD Toolbox           |
|  \\    /   O peration     | Version:  v2006                                 |
|   \\  /    A nd           | Website:  www.openfoam.com                      |
|    \\/     M anipulation  |                                                 |
\*---------------------------------------------------------------------------*/
FoamFile
{
    version     2.0;
    format      ascii;
    class       volScalarField;
    location    "0.029";
    object      isentropic(p);
}
// * * * * * * * * * * * * * * * * * * * * * * * * * * * * * * * * * * * * * //

dimensions      [1 -1 -2 0 0 0 0];


internalField   nonuniform List<scalar> 
12716
(
150033
150033
150033
150033
150033
150033
150033
150033
150033
150033
150034
150036
150036
150035
150034
150033
150033
150032
150032
150032
150031
150031
150031
150030
150030
150030
150030
150029
150029
150029
150028
150028
150028
150027
150027
150027
150026
150026
150026
150025
150025
150025
150025
150024
150024
150024
150023
150023
150023
150022
150022
150022
150021
150020
150019
150018
150017
150018
150020
150021
150022
150023
150024
150023
150022
150024
150025
150032
150048
150047
149964
149877
150038
150063
150064
150022
149796
149713
150001
150057
150048
149978
149639
149569
149954
150036
150024
149930
149508
149453
149906
150011
149998
149883
149404
149360
149860
149985
149972
149839
149320
149283
149818
149959
149946
149797
149250
149219
149778
149933
149921
149759
149190
149163
149741
149909
149898
149724
149139
149115
149707
149885
149875
149691
149093
149072
149676
149863
149853
149661
149053
149035
149646
149842
149833
149633
149018
149001
149619
149822
149813
149606
148986
148971
149594
149803
149795
149582
148958
148944
149570
149785
149777
149559
148932
148920
149548
149768
149760
149537
148909
148898
149527
149751
149744
149517
148888
148879
149507
149736
149729
149498
148870
148861
149489
149721
149715
149481
148853
148846
149472
149707
149701
149464
148839
148832
149456
149694
149688
149448
148826
148820
149441
149681
149675
149434
148815
148809
149426
149668
149663
149420
148805
148800
149413
149657
149652
149407
148797
148793
149401
149645
149641
149395
148790
148787
149389
149635
149630
149384
148785
148782
149378
149624
149620
149373
148781
148779
149368
149615
149611
149363
148779
148778
149358
149605
149602
149354
148778
148777
149350
149596
149593
149346
148778
148779
149342
149588
149584
149338
148780
148781
149335
149579
149576
149331
148783
148785
149328
149572
149569
149325
148788
148791
149322
149564
149561
149320
148794
148798
149317
149557
149554
149315
148802
148806
149312
149550
149547
149310
148811
148816
149308
149543
149541
149307
148822
148828
149305
149537
149534
149304
148835
148841
149303
149531
149529
149302
148849
148856
149301
149525
149523
149301
148864
148873
149300
149520
149518
149301
148882
148891
149301
149515
149513
149301
148901
148911
149302
149510
149509
149303
148922
148933
149304
149507
149506
149306
148945
148957
149307
149503
149503
149310
148969
148982
149312
149501
149501
149315
148995
149009
149318
149500
149500
149322
149023
149037
149326
149500
149501
149331
149051
149066
149336
149502
149503
149342
149081
149096
149348
149505
149508
149355
149112
149127
149361
149510
149513
149369
149142
149158
149377
149517
149521
149385
149173
149188
149393
149525
149531
149403
149203
149217
149411
149535
149542
149421
149232
149245
149430
149547
149554
149440
149259
149272
149449
149559
149566
149458
149285
149297
149467
149572
149580
149477
149309
149319
149485
149586
149593
149495
149330
149340
149503
149600
149607
149512
149349
149358
149520
149614
149620
149528
149366
149374
149535
149627
149633
149543
149381
149387
149549
149639
149645
149556
149394
149399
149562
149650
149655
149569
149405
149410
149574
149661
149666
149580
149414
149418
149585
149670
149675
149590
149422
149426
149594
149679
149683
149599
149429
149432
149603
149687
149691
149607
149435
149438
149610
149695
149699
149614
149440
149443
149617
149702
149705
149621
149445
149447
149624
149708
149712
149627
149449
149450
149630
149714
149717
149633
149452
149454
149635
149720
149723
149638
149455
149457
149640
149725
149727
149643
149458
149459
149644
149730
149732
149647
149460
149461
149648
149734
149736
149651
149462
149463
149652
149738
149740
149654
149464
149465
149656
149742
149744
149658
149466
149466
149659
149745
149747
149660
149467
149467
149661
149748
149750
149663
149468
149468
149664
149751
149753
149665
149469
149469
149666
149754
149755
149667
149469
149469
149668
149756
149758
149670
149471
149472
149672
149760
149763
149675
149475
149477
149677
149766
149767
149678
149477
149482
149683
149772
149775
149687
149485
149861
149911
149943
149965
149981
150004
150019
150037
150049
150063
150073
150084
150092
150101
150107
150113
150116
150118
150117
150113
150098
150082
150066
150019
149915
149814
149579
149563
149799
149894
149704
149596
149236
149346
149635
149814
149816
149647
149328
149334
149654
149827
149820
149647
149325
149331
149652
149825
149819
149645
149324
149330
149652
149825
149821
149648
149323
149329
149655
149828
149824
149651
149327
149333
149658
149831
149828
149655
149331
149337
149662
149835
149832
149660
149335
149340
149667
149839
149836
149664
149338
149344
149672
149843
149840
149669
149342
149348
149676
149847
149845
149674
149346
149352
149681
149852
149849
149679
149350
149356
149686
149856
149853
149683
149355
149360
149691
149860
149858
149689
149359
149365
149696
149865
149862
149694
149363
149369
149701
149869
149867
149699
149368
149374
149707
149874
149872
149704
149372
149378
149712
149879
149877
149710
149377
149383
149718
149884
149881
149716
149382
149388
149723
149889
149887
149721
149387
149393
149729
149894
149892
149727
149392
149398
149735
149899
149897
149733
149397
149404
149741
149904
149902
149739
149403
149409
149747
149909
149908
149746
149408
149415
149754
149915
149913
149752
149414
149421
149760
149921
149919
149759
149420
149427
149767
149926
149925
149766
149426
149433
149774
149933
149931
149773
149432
149439
149781
149939
149938
149780
149439
149446
149789
149945
149944
149788
149445
149452
149796
149952
149951
149796
149452
149459
149804
149959
149958
149804
149459
149467
149813
149966
149966
149812
149467
149474
149822
149974
149974
149821
149474
149482
149831
149982
149982
149831
149482
149490
149841
149991
149991
149842
149491
149499
149852
150000
150001
149853
149500
149508
149864
150010
150011
149865
149510
149520
149877
150021
150023
149879
149523
149533
149892
150033
150034
149894
149537
149548
149907
150044
150049
149914
149559
149575
149930
150062
150066
149934
149585
149602
149952
150078
150085
149960
149613
149633
149978
150099
150105
149985
149645
149663
150001
150116
150122
150010
149677
149697
150025
150134
150139
150031
149709
149732
150048
150151
150160
150061
149752
149772
150076
150171
150177
150084
149787
149806
150097
150187
150195
150109
149827
149849
150123
150205
150214
150134
149870
149895
150148
150224
150229
150157
149911
149938
150170
150239
150245
150180
149960
149983
150191
150253
150259
150200
150007
150042
150219
150272
150275
150229
150068
149879
150207
150199
150275
150200
150012
150033
150232
150287
150299
150250
150072
150104
150263
150308
150313
150278
150143
150189
150282
150331
150362
150342
150244
150251
150354
150371
150383
150373
150272
150288
150392
150395
150397
150398
150301
150294
150407
150405
150416
150421
150314
150328
150442
150425
150432
150467
150350
150367
150483
150451
150454
150496
150388
150412
150515
150461
150450
150512
150435
150450
150506
150447
150474
150522
150457
150468
150530
150480
150462
150523
150481
150490
150519
150457
150490
150539
150497
150511
150547
150469
150463
150542
150530
150547
150522
150439
150423
150509
150562
150578
150504
150430
150411
150474
150582
150572
150426
150364
150377
150414
150559
150560
150387
150355
150341
150368
150586
150622
150439
150461
150287
150321
150707
150628
150434
150406
150349
150461
150846
150003
150465
150264
150283
150858
149584
146819
149947
150116
149451
149270
145737
144651
148389
149051
148426
147636
144335
144340
147308
148271
148065
146980
144474
144506
146655
147727
147882
146636
144577
144627
146522
147770
147474
146306
144664
144700
146118
147242
147537
146306
144772
144815
146288
147496
147300
146167
144847
144882
146071
147157
147445
146299
145002
145175
146443
147429
147760
146788
145415
145552
146880
147824
147773
146845
145594
145637
146823
147716
147980
147069
145789
145862
147078
147961
147822
147012
145902
145941
146972
147716
147936
147186
146094
146182
147214
147945
147862
147184
146222
146254
147127
147758
147673
147097
146275
146410
147295
147893
147821
147255
146444
146470
147159
147645
147450
146871
146422
146696
146978
147665
147620
147013
146662
146629
147041
147547
147477
147067
146615
146556
146848
147320
147708
147476
147018
147000
147448
147714
147679
147402
146956
146957
147364
147650
147455
147323
146748
147260
147673
147879
147873
147645
147216
147175
147602
147830
147725
147368
147117
147445
147850
148020
148010
147806
147402
147362
147741
147966
147805
147690
147179
147588
147967
148137
148122
147930
147535
147471
147881
148094
148066
147862
147427
147385
147599
147983
148218
148068
147663
147614
148017
148206
148154
147959
147539
147511
147709
148076
148301
148159
147764
147712
148110
148292
148242
148053
147633
147577
147793
148153
148380
148245
147862
147812
148204
148376
148320
148139
147729
147675
147868
148232
148441
148302
147903
147859
148263
148435
148396
148190
147812
147570
148163
148216
148513
148360
147977
147911
148324
148495
148442
148229
147850
147626
148237
148268
148567
148417
148041
147973
148374
148545
148403
148203
147827
148115
148496
148634
148617
148452
148054
147993
148398
148570
148488
148154
147933
148154
148548
148676
148667
148503
148096
148001
148431
148605
148515
148144
147943
148186
148592
148708
148695
148522
148132
147941
148410
148532
148763
148628
148245
148182
148586
148746
148687
148517
148084
148034
148233
148605
148788
148673
148265
148207
148609
148776
148623
148450
148034
148321
148707
148838
148825
148669
148256
148177
148571
148765
148589
148545
147935
148345
148730
148870
148844
148682
148261
148114
148475
148705
148900
148770
148369
148299
148724
148882
148824
148621
148217
147946
148614
148635
148918
148775
148376
148285
148732
148892
148766
148490
148165
148405
148822
148948
148935
148774
148333
148252
148663
148870
148664
148659
147951
148398
148812
148963
148931
148768
148296
148206
148481
148819
148985
148864
148418
148347
148782
148961
148784
148654
148140
148450
148878
149014
148980
148808
148364
148221
148648
148844
149048
148921
148501
148423
148876
149034
148965
148758
148324
148019
148746
148759
149038
148883
148440
148329
148828
148996
148879
148528
148228
148466
148936
149052
149034
148847
148389
148153
148725
148846
149081
148940
148496
148406
148880
149053
148890
148673
148216
148500
148956
149092
149078
148909
148423
148288
148820
149003
148917
148478
148249
148449
148962
149082
149059
148856
148364
148082
148766
148846
149100
148946
148472
148357
148879
149059
148921
148604
148227
148468
148975
149107
149079
148881
148385
148167
148749
148898
149131
148985
148509
148409
148919
149103
148920
148691
148198
148500
148990
149132
149105
148919
148411
148201
148710
148928
149139
148992
148489
148403
148938
149122
149046
148853
148261
148203
148450
148949
149101
148978
148395
148307
148848
149078
148833
148790
147972
148413
148943
149116
149065
148872
148273
148160
148526
148930
149111
148968
148395
148306
148854
149080
148854
148766
148007
148416
148953
149124
149078
148879
148284
148139
148565
148927
149119
148974
148398
148301
148864
149086
148864
148719
148013
148399
148953
149124
149083
148881
148273
148112
148586
148922
149126
148981
148400
148291
148878
149097
148884
148646
148041
148381
148955
149119
149089
148880
148273
148049
148609
148896
149122
148961
148379
148274
148879
149094
148887
148632
148018
148377
148961
149122
149113
148910
148272
148130
148744
149018
148746
148681
147729
148258
148880
149082
149026
148800
148094
147942
148406
148862
149062
148907
148234
148109
148770
149029
148764
148621
147768
148238
148870
149064
149009
148778
148077
147898
148414
148833
149047
148887
148205
148089
148759
149015
148756
148580
147752
148205
148849
149047
148996
148762
148048
147850
148402
148804
149029
148862
148179
148053
148735
148997
148736
148515
147730
148161
148831
149026
148982
148740
148016
147780
148397
148769
149009
148829
148130
148009
148721
148981
148726
148461
147704
148125
148813
149004
148972
148722
147996
147704
148391
148728
148985
148790
148086
147961
148694
148953
148711
148406
147665
148081
148788
148985
148964
148716
147948
147781
148518
148849
148527
148431
147298
147917
148686
148912
148872
148572
147741
147330
148365
148555
148897
148663
147867
147699
148531
148838
148515
148307
147278
147834
148626
148867
148806
148523
147644
147435
148087
148593
148849
148650
147811
147665
148490
148811
148495
148265
147261
147809
148602
148839
148796
148514
147629
147343
148064
148536
148810
148592
147737
147597
148446
148769
148468
148165
147221
147731
148571
148803
148771
148471
147583
147241
148093
148494
148803
148575
147733
147596
148503
148797
148652
148305
147355
147110
147804
148413
148694
148453
147493
147313
148280
148645
148314
148023
146905
147518
148428
148701
148637
148307
147308
147004
147851
148353
148675
148434
147503
147343
148298
148649
148299
147940
146921
147492
148406
148661
148631
148305
147335
146913
147826
148295
148624
148357
147413
147236
148268
148597
148465
148035
147020
146471
147831
148084
148551
148241
147237
146996
148126
148486
148190
147588
146690
147200
148261
148514
148504
148103
147051
146545
147734
148104
148502
148195
147159
146962
148095
148459
148295
147863
146680
146384
147283
148008
148386
148107
146950
146770
147918
148360
147939
147591
146237
146988
148073
148404
148345
147950
146758
146384
147440
147992
148352
148037
146911
146658
147877
148284
148110
147648
146342
146070
147023
147830
148227
147922
146666
146465
147709
148191
147743
147376
145902
146720
147889
148244
148197
147777
146476
146043
147231
147813
148217
147912
146736
146469
147744
148165
147971
147456
146154
145586
147059
147534
148085
147725
146460
146234
147592
148040
147663
147028
145786
146510
147770
148102
148114
147672
146335
146040
147401
147934
147401
146928
145358
146120
147507
147930
147839
147334
145841
145405
146789
147444
147940
147564
146216
146002
147457
147926
147760
147188
145698
145108
146614
147274
147826
147418
146000
145817
147371
147863
147662
147022
145429
144536
146413
146978
147661
147196
145635
145353
147018
147574
147168
146395
144891
145783
147290
147702
147729
147202
145576
145245
146921
147551
147007
146278
144607
145706
147177
147603
147520
146958
145259
144832
146580
147251
146772
146010
144243
145335
146970
147429
147438
146878
145078
144761
146606
147301
146714
145944
144054
145314
146901
147372
147389
146822
145008
144327
146251
146999
146431
145589
143654
144862
146644
147151
147136
146516
144556
144230
146350
147071
146913
146065
143818
143050
145300
146244
146995
146445
144489
143852
146106
146845
146558
145696
143408
142726
145028
145977
146824
146231
144179
143898
146168
146878
146843
146020
143574
143300
145796
146695
145601
144407
141808
143425
145758
146507
146486
145649
143127
142767
145441
146380
146232
145072
142415
141571
144467
145466
146425
145749
143425
142524
145260
146197
145939
144935
142013
141577
144779
145866
145792
144487
141228
140400
143936
145047
146111
145323
142582
141707
144883
145893
145690
144607
141206
140833
144459
145627
145634
144386
140527
140029
144138
145543
144913
143168
138875
138087
141907
143950
145334
144331
140949
140758
144245
145387
145119
143657
139685
139080
143407
144895
144822
143317
138811
138028
142969
144687
144438
142546
137288
136823
142311
144258
144046
141862
136150
135766
141645
143948
143867
141420
135505
135254
141247
143826
143695
140980
135010
134809
140798
143623
143468
140541
134621
134473
140379
143392
143223
140140
134329
134221
139997
143140
142968
139777
134112
134040
139654
142888
142712
139456
133960
133916
139355
142632
142461
139179
133859
133837
139098
142389
142219
138943
133798
133793
138882
142151
141988
138745
133768
133778
138702
141930
141771
138583
133764
133791
138552
141721
141573
138450
133787
133827
138435
141532
141390
138345
133828
133876
138339
141360
141229
138260
133882
133937
138265
141209
141086
138196
133946
134003
138207
141075
140963
138146
134014
134074
138166
140962
140858
138113
134086
134147
138135
140865
140771
138089
134159
134220
138118
140787
140699
138078
134233
134292
138108
140721
140643
138072
134305
134363
138109
140671
140597
138077
134375
134431
138114
140631
140564
138085
134442
134497
138127
140603
140540
138102
134508
134560
138142
140582
140524
138120
134570
134621
138164
140570
140515
138145
134630
134679
138187
140563
140512
138169
134687
134735
138215
140563
140514
138199
134743
134788
138243
140565
140520
138228
134795
134839
138275
140574
140529
138262
134845
134888
138306
140583
140542
138293
134893
134935
138340
140600
140559
138329
134939
134979
138374
140613
140575
138362
134983
135022
138409
140631
140593
138398
135026
135063
138442
140648
140612
138432
135066
135102
138478
140667
140631
138467
135105
135140
138511
140686
140652
138500
135141
135176
138546
140707
140673
138535
135177
135211
138578
140727
140694
138567
135211
135244
138611
140748
140714
138600
135244
135276
138642
140768
140735
138630
135275
135306
138673
140788
140755
138661
135305
135335
138701
140807
140776
138688
135333
135362
138731
140827
140794
138717
135359
135388
138757
140845
140813
138742
135384
135412
138783
140864
140831
138768
135408
135435
138806
140880
140848
138791
135430
135456
138830
140897
140864
138814
135451
135476
138851
140912
140880
138834
135470
135495
138872
140928
140894
138855
135488
135512
138890
140941
140909
138873
135505
135528
138909
140955
140922
138891
135520
135543
138925
140967
140935
138906
135535
135556
138942
140980
140946
138923
135548
135569
138956
140991
140958
138936
135560
135580
138970
141002
140967
138951
135571
135591
138982
141011
140978
138962
135581
135601
138995
141021
140986
138975
135591
135610
139006
141029
140996
138985
135600
135618
139017
141038
141003
138996
135608
135626
139026
141045
141011
139004
135615
135633
139036
141052
141017
139014
135622
135640
139044
141058
141024
139022
135628
135645
139053
141065
141030
139030
135634
135651
139059
141070
141036
139036
135639
135656
139066
141075
141040
139043
135643
135660
139072
141079
141045
139048
135648
135664
139078
141084
141048
139055
135651
135668
139082
141087
141053
139059
135655
135671
139088
141091
141055
139064
135658
135673
139091
141094
141059
139067
135660
135676
139096
141097
141060
139071
135662
135678
139098
141098
141063
139074
135664
135680
139102
141101
141064
139077
135666
135681
139104
141102
141067
139079
135667
135682
139107
141104
141067
139082
135669
135684
139108
141104
141069
139083
135669
135684
139110
141106
141069
139085
135670
135685
139111
141106
141070
139086
135671
135685
139113
141107
141070
139088
135671
135685
139113
141106
141070
139087
135671
135685
139115
141107
141070
139089
135671
135685
139114
141106
141070
139088
135671
135685
139115
141106
141069
139090
135670
135684
139115
141105
141069
139089
135669
135683
139115
141105
141068
139089
135668
135682
139114
141103
141067
139088
135667
135681
139114
141102
141065
139088
135666
135680
139113
141101
141065
139086
135664
135678
139113
141100
141063
139086
135663
135676
139111
141098
141062
139084
135661
135675
139111
141097
141059
139084
135659
135673
139108
141094
141058
139082
135657
135671
139108
141093
141056
139081
135655
135669
139106
141091
141055
139079
135653
135666
139105
141090
141053
139079
135651
135664
139103
141088
141052
139077
135648
135662
139103
141088
141051
139077
135646
135659
139102
141087
141052
139076
135643
135660
139104
141091
141057
139079
135643
135666
139115
141108
141084
139101
135647
135702
139174
141195
141286
139236
135744
135918
139455
141597
142016
139791
136185
136535
140213
142476
142868
140616
136888
144944
146166
146700
147337
147802
148030
148395
148724
149007
149207
149358
149475
149567
149639
149695
149738
149772
149799
149819
149836
149849
149859
149868
149874
149879
149882
149885
149886
149888
149888
149887
149888
149891
149894
149897
149901
149905
149910
149915
149922
149929
149938
149949
149962
149976
149992
150009
150026
150042
150052
150055
150051
150044
150037
150031
150025
150020
150015
150010
150005
150001
149996
149991
149986
149982
149978
149974
149970
149967
149964
149961
149959
149958
149957
149957
149957
149958
149959
149961
149963
149965
149968
149970
149973
149976
149978
149980
149982
149984
149985
149986
149987
149987
149987
149986
149985
149984
149983
149981
149979
149977
149974
149972
149969
149967
149964
149961
149959
149956
149953
149951
149948
149945
149943
149941
149938
149936
149934
149932
149930
149928
149926
149925
149923
149922
149920
149919
149918
149917
149916
149915
149914
149913
149912
149912
149911
149911
149911
149910
149910
149910
149910
149910
149910
149911
149911
149911
149912
149912
149913
149914
149914
149915
149916
149917
149918
149919
149920
149921
149922
149924
149925
149926
149928
149929
149931
149932
149934
149935
149937
149938
149940
149942
149943
149945
149947
149949
149951
149952
149954
149956
149958
149960
149962
149963
149965
149967
149969
149971
149976
149981
149988
149997
150009
150023
150030
150032
150032
150032
150032
150032
150032
150032
150041
150056
150061
150060
150058
150054
150051
150048
150046
150044
150042
150040
150039
150038
150037
150036
150035
150034
150033
150032
150032
150031
150030
150030
150029
150029
150028
150027
150027
150026
150025
150025
150024
150023
150022
150022
150021
150020
150019
150018
150017
150015
150013
150011
150009
150005
150002
150001
150002
150009
150015
150016
150017
150026
150041
150065
150074
150076
150071
150065
150060
150054
150048
150042
150035
150029
150023
150017
150011
150005
149998
149992
149986
149981
149975
149969
149964
149958
149953
149948
149942
149937
149932
149927
149922
149918
149913
149909
149904
149900
149895
149891
149887
149883
149878
149875
149870
149867
149863
149859
149855
149852
149848
149845
149841
149838
149834
149831
149827
149824
149821
149818
149814
149811
149808
149805
149802
149799
149795
149792
149789
149786
149783
149780
149777
149774
149771
149768
149765
149762
149758
149755
149752
149749
149746
149743
149740
149737
149733
149730
149727
149724
149721
149719
149716
149713
149711
149709
149706
149705
149703
149702
149701
149700
149700
149700
149700
149701
149702
149703
149705
149707
149709
149712
149715
149718
149721
149725
149728
149732
149735
149739
149742
149747
149750
149754
149757
149761
149764
149768
149771
149775
149778
149782
149784
149788
149790
149793
149796
149799
149801
149804
149806
149809
149811
149814
149815
149818
149819
149822
149823
149826
149827
149829
149831
149833
149834
149836
149837
149838
149839
149841
149842
149843
149844
149846
149847
149850
149853
149854
149857
149909
149943
149943
149909
149908
149944
149943
149906
149902
149937
149965
149964
149964
149964
149979
149976
149973
150008
150007
150005
150018
150017
150017
150013
150012
149963
149940
149903
149900
149935
149939
149900
149898
149933
149962
149961
149937
149899
149896
149932
149936
149897
149894
149931
149960
149960
149935
149895
149892
149929
149933
149893
149890
149928
149959
149958
149932
149890
149887
149926
149930
149888
149885
149924
149957
149956
149929
149885
149882
149923
149927
149882
149879
149921
149955
149954
149925
149879
149876
149919
149923
149876
149873
149917
149953
149952
149922
149873
149869
149915
149920
149870
149866
149912
149951
149949
149918
149866
149862
149910
149915
149862
149858
149908
149948
149947
149913
149859
149855
149906
149911
149855
149851
149904
149946
149945
149910
149851
149847
149902
149908
149847
149843
149900
149944
149944
149906
149843
149839
149898
149905
149839
149835
149897
149944
149945
149904
149836
149831
149896
149903
149832
149828
149895
149946
149948
149903
149829
149825
149894
149903
149826
149822
149894
149950
149953
149904
149823
149820
149895
149905
149821
149818
149897
149957
149961
149907
149820
149818
149899
149910
149820
149819
149902
149965
149969
149914
149821
149821
149906
149918
149824
149825
149910
149974
149979
149923
149828
149829
149915
149928
149832
149834
149920
149983
149988
149933
149837
149839
149925
149938
149842
149845
149930
149992
149995
149943
149848
149850
149934
149948
149853
149856
149939
149999
150001
149952
149859
149861
149943
149956
149864
149867
149947
150004
150006
149959
149870
149872
149950
149963
149875
149877
149953
150008
150010
149965
149880
149882
149956
149968
149885
149887
149959
150012
150013
149970
149890
149891
149962
149973
149895
149896
149964
150014
150015
149975
149899
149900
149966
149977
149903
149904
149969
150016
150017
149979
149908
149908
149971
149980
149912
149912
149973
150018
150019
149982
149916
149916
149975
149984
149920
149920
149977
150020
150020
149986
149924
149924
149979
149988
149928
149928
149981
150021
150022
149989
149932
149932
149983
149991
149936
149937
149985
150023
150023
149993
149940
149941
149988
149995
149945
149945
149990
150024
150025
149997
149949
149950
149992
149999
149953
149954
149995
150026
150027
150001
149958
149959
149997
150004
149963
149964
150000
150028
150029
150006
149967
149969
150003
150009
149973
149974
150006
150030
150032
150011
149978
149979
150009
150014
149983
149985
150012
150033
150034
150017
149989
149990
150015
150020
149994
149996
150019
150036
150038
150024
150000
150002
150023
150027
150006
150009
150027
150039
150041
150031
150013
150015
150031
150034
150019
150022
150035
150043
150045
150038
150026
150029
150039
150043
150033
150037
150045
150048
150051
150048
150041
150044
150050
150052
150048
150052
150055
150053
150055
150058
150056
150060
150060
150063
150064
150067
150065
150055
150053
150066
150070
150073
150067
150032
150041
150046
150048
150048
150048
150048
150048
150048
150048
150048
150048
150048
150049
150049
150050
150051
150051
150052
150053
150054
150055
150057
150058
150059
150060
150061
150063
150064
150065
150065
150066
150066
150066
150066
150065
150064
150063
150062
150060
150058
150055
150052
150050
150046
150043
150039
150034
150030
150025
150021
150018
150015
150013
150011
150010
150010
150010
150011
150012
150012
150013
150013
150014
150014
150014
150014
150014
150014
150014
150014
150014
150014
150013
150013
150013
150013
150012
150047
150046
150045
150041
150039
150038
150049
150049
150049
150067
150066
150064
150073
150073
150074
150071
150073
150094
150092
150088
150087
150085
150093
150093
150093
150106
150104
150102
150108
150109
150109
150109
150111
150114
150096
150074
150076
150048
150049
150050
150078
150077
150099
150098
150116
150118
150120
150101
150103
150080
150051
150052
150081
150082
150052
150053
150084
150108
150106
150104
150124
150122
150137
150134
150132
150129
150126
150124
150121
150118
150116
150114
150117
150118
150119
150122
150120
150119
150118
150120
150121
150123
150127
150117
150113
150113
150112
150111
150110
150081
150079
150071
150015
149921
149967
150050
150047
149979
149989
150058
150081
150081
150058
150051
149983
149988
149983
150051
150059
150081
150081
150084
150086
150116
150120
150130
150134
150138
150141
150132
150128
150128
150124
150124
150120
150091
150089
150067
150059
150064
150056
150062
150054
150060
150052
149985
149989
149991
149987
149993
149990
149996
149993
149999
149996
150061
150069
150064
149999
150002
150005
150072
150094
150096
150074
150066
150002
150008
150005
150069
150077
150099
150101
150104
150106
150133
150136
150145
150149
150140
150142
150126
150128
150131
150110
150085
150054
150055
150086
150087
150056
150056
150088
150115
150113
150111
150133
150135
150137
150156
150153
150151
150148
150145
150157
150153
150145
150141
150141
150137
150112
150109
150088
150080
150085
150077
150083
150074
150080
150072
150009
150012
150015
150012
150018
150015
150021
150019
150025
150022
150083
150091
150086
150026
150028
150032
150094
150115
150117
150097
150089
150029
150036
150033
150092
150100
150121
150123
150146
150149
150151
150130
150127
150107
150099
150103
150095
150037
150039
150043
150041
150047
150045
150102
150110
150105
150049
150051
150055
150113
150133
150154
150161
150165
150169
150173
150169
150166
150164
150161
150159
150156
150136
150140
150143
150124
150116
150120
150113
150117
150109
150053
150059
150058
150064
150062
150068
150067
150120
150128
150147
150150
150154
150157
150171
150174
150177
150159
150139
150116
150090
150057
150057
150091
150092
150058
150058
150093
150121
150120
150118
150142
150144
150147
150150
150123
150093
150058
150058
150094
150095
150058
150058
150095
150129
150127
150125
150154
150157
150161
150165
150131
150095
150058
150058
150095
150096
150058
150058
150097
150135
150133
150132
150168
150171
150175
150184
150138
150096
150059
150061
150098
150100
150064
150067
150102
150136
150138
150136
150184
150180
150170
150205
150225
150239
150235
150221
150212
150206
150200
150193
150187
150180
150174
150169
150166
150162
150182
150186
150192
150190
150188
150184
150182
150179
150176
150165
150162
150144
150137
150140
150132
150136
150128
150131
150124
150071
150073
150078
150077
150083
150082
150088
150087
150094
150093
150141
150148
150146
150099
150099
150105
150153
150170
150174
150157
150150
150105
150111
150111
150155
150162
150178
150183
150187
150192
150194
150197
150198
150207
150216
150225
150235
150233
150222
150219
150208
150205
150207
150199
150183
150176
150178
150171
150173
150166
150167