/*--------------------------------*- C++ -*----------------------------------*\
| =========                 |                                                 |
| \\      /  F ield         | OpenFOAM: The Open Source CFD Toolbox           |
|  \\    /   O peration     | Version:  v2006                                 |
|   \\  /    A nd           | Website:  www.openfoam.com                      |
|    \\/     M anipulation  |                                                 |
\*---------------------------------------------------------------------------*/
FoamFile
{
    version     2.0;
    format      ascii;
    class       volScalarField;
    location    "0.029";
    object      yPlus;
}
// * * * * * * * * * * * * * * * * * * * * * * * * * * * * * * * * * * * * * //

dimensions      [0 0 0 0 0 0 0];


internalField   uniform 0;

boundaryField
{
    bottomEmptyFaces
    {
        type            empty;
    }
    topEmptyFaces
    {
        type            empty;
    }
    inlet
    {
        type            calculated;
        value           uniform 0;
    }
    outlet
    {
        type            calculated;
        value           uniform 0;
    }
    walls
    {
        type            calculated;
        value           nonuniform List<scalar> 
900
(
24.2292
24.271
24.2639
24.3053
24.2982
24.3389
24.3316
24.3718
24.3644
24.4038
24.3963
24.4352
24.4277
24.466
24.4584
24.4963
24.4886
24.5258
24.518
24.5544
24.5465
24.5819
24.5738
24.6081
24.5997
24.6329
24.6242
24.6562
24.6472
24.6779
24.6686
24.698
24.6883
24.7166
24.7067
24.7338
24.7235
24.7495
24.739
24.7639
24.7531
24.777
24.766
24.789
24.7778
24.8
24.7887
24.8099
24.7985
24.8191
24.8075
24.8275
24.8158
24.8352
24.8234
24.8423
24.8305
24.849
24.8371
24.8552
24.8433
24.861
24.8491
24.8665
24.8544
24.8716
24.8595
24.8764
24.8641
24.8807
24.8684
24.8848
24.8723
24.8885
24.8759
24.8918
24.8791
24.8948
24.8821
24.8976
24.8848
24.9002
24.8874
24.9027
24.8898
24.9048
24.8919
24.9068
24.8938
24.9086
24.8956
24.9104
24.8973
24.912
24.8989
24.9134
24.9003
24.9147
24.9017
24.9161
24.9031
24.9175
24.9046
24.919
24.9061
24.9204
24.9075
24.9219
24.909
24.9233
24.9106
24.9249
24.9121
24.9265
24.9137
24.9279
24.915
24.9292
24.9163
24.9304
24.9177
24.9319
24.9194
24.9339
24.9215
24.9361
24.9239
24.9387
24.9268
24.9422
24.9308
24.9471
24.936
24.9535
24.9427
24.9795
24.9821
25.0301
25.1177
25.3345
25.8627
26.8822
29.0706
31.602
70.7627
79.207
83.1306
107.516
122.321
63.2688
54.684
57.0729
58.3843
43.7091
40.9308
50.7302
45.0995
45.8623
64.2334
68.1729
138.317
149.094
126.849
132.74
111.131
90.0434
99.9971
86.915
76.3421
68.4644
70.4158
67.398
63.0577
58.0125
61.0173
56.9446
16.6185
14.6466
12.3688
12.6092
9.748
15.22
15.5369
12.9872
12.3849
9.99116
12.845
12.562
10.1258
15.4759
13.0421
15.0736
12.8498
12.1855
10.1268
14.0125
15.0882
12.8891
11.6986
10.0867
12.2129
10.2014
15.6189
13.4588
14.268
11.9947
10.6896
16.0103
13.8738
15.6169
13.3807
12.0202
10.7252
12.7221
11.2139
14.4078
12.9141
11.4493
16.0609
13.0706
11.0646
13.6669
12.5792
10.7599
24.0719
21.1189
18.1014
17.1035
22.2429
18.6811
17.9826
22.8435
19.7386
18.6599
24.8443
21.797
16.3004
13.6132
12.96
16.5392
13.7258
13.1312
22.9828
23.5575
19.343
18.6396
25.1096
22.1165
19.091
18.0714
19.8938
18.9923
18.657
17.6644
19.719
17.2033
17.7207
14.4808
13.6937
17.2643
14.4806
13.85
17.5462
14.6808
14.0749
16.6764
13.9989
13.3614
16.9843
14.2368
13.5611
17.8208
15.0855
14.3789
18.2999
15.7842
14.8335
15.8428
13.7549
14.3584
11.9412
10.9476
14.8259
15.3001
12.7199
11.7639
12.322
11.3687
17.1277
14.9182
15.82
15.4585
12.7164
11.9164
13.0683
12.2986
29.395
26.2177
16.3402
14.1512
12.3534
11.3393
15.2316
13.0391
12.1374
14.9448
12.6676
11.8914
13.2111
12.167
15.7007
13.6877
12.5665
15.7335
14.4901
12.1546
11.0031
12.762
11.4777
29.4319
23.1162
21.6123
13.592
12.0361
10.8917
14.4847
12.7164
11.5169
26.3508
23.6305
21.8794
30.164
27.0858
30.3166
23.9068
22.4254
16.4
17.8423
16.7325
13.8544
13.0885
14.2981
13.394
16.1286
13.3646
12.6121
13.5801
12.8126
15.4666
13.1452
12.3454
16.1005
13.4231
12.8276
24.3009
21.0936
19.9788
25.1104
26.5824
54.9462
23.5
20.3742
19.174
53.738
54.8627
51.8402
53.5109
56.8698
52.3814
50.8017
48.6335
25.4698
22.4371
21.1831
28.2825
24.9256
27.3855
21.8472
20.6636
23.8087
18.4678
15.5056
20.4837
19.3148
50.3403
23.532
44.9945
19.8068
40.21
41.4135
40.0525
19.0511
33.2958
15.691
20.0246
49.9499
43.1476
38.8069
37.7604
62.7735
63.0547
70.3815
64.9552
27.4177
24.1874
21.4579
20.0785
21.6054
20.3456
26.5252
23.2307
21.8945
13.034
14.3898
9.66028
17.7893
15.5143
16.1693
13.5829
12.8022
13.2168
9.47727
16.6964
13.7584
10.2096
13.9144
13.5679
10.3994
72.2537
68.8454
64.1822
59.9182
57.2034
52.7554
31.3029
48.4728
47.2203
43.9585
29.1355
49.0515
46.2362
26.3609
23.9231
40.5699
22.2175
35.4099
30.8439
23.5858
14.4515
27.9035
27.0958
24.4662
22.6628
32.5067
30.8267
27.5224
25.1892
23.273
33.8353
25.958
23.4539
31.6171
28.3867
12.6751
11.4242
10.317
9.36935
11.2616
7.54871
33.0865
14.0027
31.8716
12.6704
30.7815
11.8786
11.3031
28.8297
10.9119
26.8928
24.7457
35.5756
10.6337
10.4341
35.1572
10.1816
10.0164
9.83893
9.73645
34.3906
33.2385
31.7131
29.3524
35.1356
9.59145
9.49766
34.0574
9.35669
34.2315
9.19706
27.4893
25.3335
9.04938
25.4228
23.7582
8.99505
8.87943
8.82402
8.66282
8.62475
8.50113
8.50938
8.40944
8.33799
8.24584
8.20931
8.10892
8.08392
7.99822
7.98771
7.91439
7.90998
7.84384
7.84265
7.78031
7.78086
7.72104
7.72249
7.66443
7.66659
7.61011
7.61278
7.55771
7.56087
7.5072
7.51075
7.45839
7.46237
7.41132
7.41563
7.36582
7.37063
7.32204
7.32721
7.27966
7.28525
7.23871
7.24461
7.19896
7.20524
7.16051
7.1671
7.12319
7.13016
7.08711
7.09437
7.05204
7.0597
7.01811
7.02604
6.98507
6.99337
6.95309
6.96164
6.92192
6.93083
6.89172
6.90087
6.86227
6.87178
6.83376
6.84351
6.80597
6.81607
6.77911
6.78946
6.75298
6.7637
6.72782
6.73883
6.70348
6.71491
6.68025
6.69195
6.65664
6.66841
6.63648
6.70515
6.71541
6.78761
6.79966
6.88529
6.84238
6.5028
8.48069
5.40353
34.2124
34.0144
34.2326
33.9638
33.6666
33.4177
32.8263
32.0336
31.2654
30.4573
29.7427
29.0369
28.4237
27.8318
27.314
26.8328
26.406
26.0306
25.6878
25.3992
25.1235
24.9027
24.6772
24.5213
24.3364
24.2446
24.0936
24.0502
23.9305
23.9159
23.8282
23.8319
23.7728
23.7884
23.7505
23.7731
23.749
23.7772
23.7629
23.7949
19.5854
19.8224
16.3449
15.7305
23.7848
23.824
23.8157
23.859
23.8514
23.8963
23.8892
23.935
20.4141
17.2383
16.5365
23.9281
23.9743
23.9674
24.0135
24.0066
24.0524
24.0453
24.0907
19.3494
16.1573
15.588
24.0836
20.3145
24.1282
21.7775
17.4515
16.5113
16.6596
15.9362
18.8439
15.7692
14.9946
24.121
24.1651
19.8314
16.5287
15.9285
24.1579
19.6648
16.2659
15.6846
20.1199
16.7933
16.1832
24.2011
24.1939
24.2364
18.4259
18.633
15.3564
14.7489
17.9621
18.1367
14.9423
14.3471
14.7855
14.199
15.1854
14.5436
18.9205
19.2089
15.8576
15.2397
15.5474
14.9143
16.1139
15.4284
21.3329
21.456
18.6137
17.5449
20.9712
17.6091
16.89
23.2859
20.3108
17.2666
16.3274
22.0748
21.7567
17.8544
17.2758
18.135
17.5294
22.5257
18.5646
17.8779
19.2646
18.3126
34.2127
11.3417
53.1202
48.366
44.7513
42.6182
40.7678
39.5223
38.4566
37.7201
36.977
36.4736
35.916
35.5482
35.1084
34.8218
34.4615
34.2258
33.9197
33.7179
33.4487
33.2702
33.0281
32.8665
32.6445
32.4953
32.2886
32.1486
31.9538
31.8209
31.6353
31.5078
31.3295
31.206
31.0333
30.9129
30.7445
30.6261
30.461
30.3439
30.1811
30.0647
29.9033
29.787
29.6262
29.5094
29.3485
29.2306
29.0688
28.9491
28.7856
28.6638
28.4978
28.3732
28.204
28.076
27.903
27.771
27.5932
27.4566
27.2732
27.1312
26.9413
26.7934
26.596
26.4413
26.2354
26.0731
25.8578
25.6874
25.4617
25.2823
25.0453
24.8564
24.607
24.4078
24.1453
23.9351
23.6585
23.4369
23.1456
22.9124
22.606
22.3612
22.0399
21.7842
21.4489
21.1835
20.8367
20.5643
20.209
19.9332
19.5742
19.3001
18.9438
18.6782
18.3326
18.0836
17.7584
17.5347
17.2394
17.0492
16.7924
16.6417
16.4294
16.3214
16.1558
16.0887
15.9688
15.9351
15.8645
15.8567
15.8242
15.8278
15.8152
15.829
15.8279
15.8484
15.8556
15.8858
15.8973
15.9328
15.9463
15.9835
15.9978
16.0348
16.0493
16.0857
16.1002
16.1356
16.1497
16.1832
16.1968
16.2283
16.2418
16.2722
16.2866
16.3158
16.33
16.3575
16.3711
16.397
16.4097
16.4338
16.4456
16.4678
16.4787
16.4992
16.5091
16.528
16.5367
16.5537
16.5612
16.5763
16.5824
16.5954
16.6
16.6108
16.6139
16.6224
16.6212
16.6328
16.6147
16.6914
16.7478
17.0353
17.1561
17.3409
17.5593
17.9014
59.0829
)
;
    }
    rightWall
    {
        type            calculated;
        value           uniform 0;
    }
    symmetryLine
    {
        type            symmetryPlane;
    }
}


// ************************************************************************* //
