/*--------------------------------*- C++ -*----------------------------------*\
| =========                 |                                                 |
| \\      /  F ield         | OpenFOAM: The Open Source CFD Toolbox           |
|  \\    /   O peration     | Version:  v2006                                 |
|   \\  /    A nd           | Website:  www.openfoam.com                      |
|    \\/     M anipulation  |                                                 |
\*---------------------------------------------------------------------------*/
FoamFile
{
    version     2.0;
    format      ascii;
    class       volScalarField;
    location    "0.044";
    object      Co;
}
// * * * * * * * * * * * * * * * * * * * * * * * * * * * * * * * * * * * * * //

dimensions      [0 0 0 0 0 0 0];


internalField   nonuniform List<scalar> 
10108
(
0.00788442
0.00754922
0.00818645
0.00846281
0.00856773
0.0083638
0.00837389
0.00829183
0.00820768
0.00817567
0.00811451
0.00809323
0.00807179
0.00805838
0.008043
0.00802738
0.00801065
0.00799316
0.00797489
0.00795586
0.00793611
0.00791566
0.00789454
0.0078728
0.00785046
0.00782756
0.00780413
0.00778022
0.00775587
0.00773111
0.007706
0.00768058
0.00765491
0.00762904
0.00760302
0.00757689
0.00755073
0.00752458
0.0074985
0.00747255
0.00744678
0.00742125
0.00739601
0.00737111
0.00734662
0.00732258
0.00729904
0.00727608
0.00725373
0.00723205
0.00721105
0.00719052
0.00716888
0.00714954
0.00713216
0.00711942
0.00711519
0.00715574
0.00723555
0.00747214
0.00789331
0.00887413
0.0110648
0.0159944
0.0241019
0.0188809
0.0162471
0.0160892
0.0157263
0.015084
0.0149472
0.014437
0.0129881
0.0140656
0.0147226
0.0136542
0.013724
0.0131594
0.0108852
0.0116436
0.0118547
0.0118652
0.0119275
0.0112784
0.0102693
0.0111868
0.0114448
0.0116545
0.0114709
0.0105467
0.0102931
0.0113109
0.0115507
0.0116791
0.0114234
0.0103683
0.0102758
0.0113929
0.0116646
0.0116976
0.0114228
0.0102435
0.0101627
0.0113358
0.0116417
0.0116591
0.0113466
0.0100936
0.0100218
0.0112582
0.0115954
0.0116074
0.0112639
0.00995375
0.00988831
0.011176
0.0115413
0.0115518
0.0111819
0.00982536
0.00976444
0.0110943
0.0114849
0.0114941
0.0111006
0.00970587
0.00964828
0.0110136
0.0114264
0.0114344
0.0110197
0.00959275
0.00953786
0.0109331
0.0113662
0.0113731
0.0109391
0.00948472
0.00943186
0.0108528
0.0113044
0.0113102
0.0108585
0.0093805
0.00932916
0.0107723
0.0112408
0.0112454
0.0107774
0.00927912
0.00922887
0.0106912
0.0111753
0.0111788
0.0106957
0.0091798
0.00913033
0.0106094
0.011108
0.0111102
0.0106131
0.00908192
0.00903294
0.0105266
0.0110387
0.0110396
0.0105294
0.00898491
0.00893617
0.0104425
0.0109673
0.0109668
0.0104442
0.00888826
0.0088395
0.0103568
0.0108936
0.0108916
0.0103573
0.00879148
0.00874247
0.0102692
0.0108173
0.0108137
0.0102684
0.00869413
0.00864468
0.0101795
0.0107384
0.010733
0.0101772
0.00859583
0.00854574
0.0100874
0.0106565
0.0106493
0.0100834
0.00849617
0.00844526
0.00999263
0.0105715
0.0105622
0.00998676
0.00839479
0.00834289
0.00989482
0.010483
0.0104716
0.00988693
0.00829135
0.00823828
0.0097937
0.0103909
0.0103772
0.00978364
0.0081855
0.00813108
0.00968898
0.0102948
0.0102787
0.00967657
0.00807687
0.00802092
0.00958033
0.0101945
0.0101758
0.00956536
0.00796508
0.0079074
0.00946738
0.0100897
0.0100681
0.00944965
0.00784974
0.00779013
0.00934977
0.00997995
0.00995534
0.00932905
0.00773043
0.00766868
0.00922708
0.00986496
0.00983711
0.00920314
0.00760674
0.00754263
0.0090989
0.0097443
0.00971297
0.00907148
0.00747822
0.00741154
0.00896476
0.00961754
0.00958247
0.00893362
0.00734445
0.00727501
0.00882423
0.00948422
0.00944519
0.00878914
0.00720508
0.0071327
0.00867693
0.00934396
0.00930077
0.00863769
0.00705977
0.00698432
0.00852251
0.00919641
0.00914885
0.00847892
0.00690824
0.00682959
0.00836066
0.00904123
0.00898911
0.00831254
0.00675026
0.0066683
0.00819108
0.00887809
0.00882123
0.00813825
0.00658562
0.00650029
0.00801352
0.00870669
0.00864494
0.00795586
0.00641423
0.00632554
0.00782783
0.0085268
0.00846003
0.00776529
0.00623615
0.0061442
0.00763403
0.0083383
0.00826649
0.00756664
0.00605165
0.00595667
0.0074323
0.00814121
0.00806443
0.00736025
0.00586128
0.00576369
0.00722316
0.00793581
0.00785428
0.00714678
0.00566596
0.0055664
0.00700745
0.00772266
0.00763679
0.00692733
0.00546711
0.00536648
0.00678653
0.00750273
0.00741315
0.00670352
0.00526668
0.00516623
0.00656229
0.00727741
0.00718522
0.00647769
0.00506739
0.00496872
0.00633745
0.00704897
0.00695556
0.00625291
0.00487261
0.00477765
0.00611543
0.00682028
0.00672735
0.00603292
0.00468636
0.00459733
0.00590033
0.00659491
0.00650457
0.00582219
0.00451321
0.00443259
0.00569689
0.00637713
0.00629189
0.0056258
0.00435817
0.00428845
0.00551035
0.00617193
0.00609474
0.00544917
0.00422616
0.00416952
0.00534603
0.00598479
0.00591854
0.00529474
0.00411928
0.00407939
0.00520877
0.00581843
0.00577131
0.00517468
0.00404638
0.00401958
0.00510185
0.00568288
0.00565073
0.00508328
0.00400165
0.00398936
0.0050262
0.00557762
0.00556032
0.00502379
0.00398714
0.00399637
0.00500926
0.00551981
0.00549718
0.00500114
0.00400875
0.00402689
0.00501655
0.00549998
0.00548543
0.0050036
0.0040466
0.00407062
0.00504023
0.00551261
0.00550699
0.00503384
0.0040951
0.00412248
0.00507544
0.00553313
0.00553374
0.00507264
0.00414916
0.00417765
0.00511693
0.0055625
0.00556517
0.00511588
0.00420472
0.00423273
0.00516115
0.00559513
0.00559597
0.00516044
0.00425888
0.00428551
0.00520583
0.00563208
0.0056304
0.00520473
0.0043101
0.00433489
0.00524959
0.00566654
0.00566741
0.00524757
0.00435759
0.00438041
0.00529167
0.00569785
0.00570128
0.00528872
0.00440135
0.00442218
0.00533181
0.00573135
0.0057314
0.00532782
0.00444142
0.00446296
0.00537007
0.00576673
0.00576308
0.00536459
0.00447592
0.00448922
0.0053954
0.00578661
0.00575638
0.00535941
0.00447172
0.00448582
0.00538436
0.00576537
0.00566771
0.00525472
0.0043597
0.00447005
0.00534233
0.00571317
0.00557002
0.00511218
0.00420502
0.00464047
0.00550164
0.00580475
0.0056389
0.00519249
0.00428331
0.00511989
0.00600887
0.00628467
0.00669357
0.00606509
0.0049275
0.00545557
0.00653007
0.00699321
0.00760808
0.00790519
0.00796727
0.00811937
0.0080957
0.00816217
0.00824228
0.00831927
0.00838893
0.00845185
0.00849525
0.00854096
0.00857435
0.00860288
0.00867135
0.00878768
0.00907429
0.00953677
0.0105937
0.0130866
0.0190116
0.0281024
0.0217348
0.0166799
0.0158164
0.0166846
0.0156946
0.0198379
0.0340766
0.0475207
0.0291461
0.021897
0.0145605
0.0105532
0.0146026
0.0167739
0.014905
0.0136559
0.0103695
0.00944698
0.0125258
0.0136782
0.01347
0.0124832
0.00946886
0.0093087
0.0124967
0.0137315
0.0135738
0.0124011
0.0093391
0.00934991
0.0124177
0.01363
0.0136653
0.0124997
0.00933446
0.00932523
0.0124967
0.0136828
0.0137541
0.0125346
0.00939553
0.00940503
0.0124726
0.0136611
0.0138009
0.0125919
0.00947127
0.00947119
0.0125281
0.0137006
0.0138468
0.0126526
0.00954987
0.00954979
0.0125858
0.0137418
0.0138958
0.0127166
0.00963246
0.00963239
0.0126466
0.0137858
0.0139464
0.012783
0.00971867
0.0097186
0.0127098
0.0138314
0.0140006
0.0128533
0.00980938
0.00980931
0.0127764
0.0138657
0.0140716
0.0129267
0.00990431
0.00990425
0.0128458
0.01393
0.0141182
0.013005
0.0100048
0.0100047
0.0129196
0.0139694
0.0141976
0.013088
0.0101108
0.0101108
0.0129972
0.0140398
0.0142539
0.0131776
0.0102242
0.0102241
0.0130805
0.0140859
0.0143458
0.0132748
0.0103459
0.0103458
0.0131696
0.014164
0.0144174
0.0133824
0.0104788
0.0104787
0.013267
0.0142336
0.0145149
0.0135032
0.0106261
0.010626
0.0133731
0.0143081
0.0146277
0.0136419
0.0107943
0.0107943
0.0134919
0.0143899
0.0147626
0.0138071
0.0109928
0.0109928
0.0136252
0.0144777
0.0149272
0.0140087
0.0112385
0.0112386
0.0137775
0.0145727
0.0151392
0.0142672
0.011561
0.0116002
0.0140042
0.0146874
0.0154024
0.0146452
0.0120123
0.0121056
0.0143807
0.0149628
0.0156992
0.0149349
0.0125036
0.012531
0.0146315
0.0151323
0.0158017
0.015073
0.0128219
0.0128342
0.0148147
0.0152275
0.0157341
0.0150069
0.0129119
0.0130692
0.0149105
0.0152992
0.0157587
0.0150823
0.0131317
0.0131438
0.0148854
0.0153215
0.0159904
0.0153656
0.0134727
0.0134685
0.0150435
0.0155299
0.016228
0.0157512
0.014088
0.0140457
0.0155999
0.0160466
0.01631
0.0160994
0.0146628
0.0143435
0.0146972
0.0139685
0.0420719
0.0314533
0.0199664
0.0154493
0.0225999
0.0301553
0.0189297
0.0174577
0.014896
0.0142217
0.0159943
0.016676
0.0160115
0.0156523
0.0142315
0.0138342
0.0151382
0.0154661
0.0149902
0.0150138
0.0140886
0.0133676
0.0130248
0.0118248
0.0384362
0.0292472
0.0190627
0.0156932
0.0206205
0.0258179
0.0159832
0.0152005
0.0134468
0.0128365
0.0133851
0.0131745
0.00991527
0.011334
0.0120068
0.0165989
0.0249
0.0321022
0.0206001
0.0161567
0.0120855
0.0106284
0.0110245
0.0109884
0.00777801
0.00780978
0.00849597
0.0106428
0.0151673
0.0183468
0.012067
0.00956608
0.00559192
0.0120352
0.0179739
0.0211156
0.0319724
0.0304948
0.0263764
0.0340042
0.0389915
0.0429678
0.0423306
0.0410381
0.0372642
0.0402032
0.0534323
0.0626307
0.0659178
0.0541474
0.0389888
0.0334062
0.0388295
0.0402247
0.0653012
0.050586
0.0351355
0.0367107
0.0551919
0.0717823
0.0356558
0.0341719
0.0295977
0.0312972
0.0460637
0.0607575
0.0689355
0.0524681
0.0342573
0.027793
0.0323307
0.0337828
0.0570157
0.0441906
0.031286
0.0331885
0.050837
0.0670412
0.0324982
0.0310484
0.0268425
0.0294695
0.0426715
0.0559113
0.0651063
0.0496622
0.0324481
0.0263945
0.0305754
0.0319823
0.0544426
0.0419177
0.0293994
0.0322478
0.0491426
0.0645745
0.0314508
0.0301285
0.0260989
0.0291187
0.0415223
0.0539467
0.0637062
0.0483475
0.0319102
0.0259508
0.030018
0.0313613
0.0534518
0.0411001
0.0288622
0.0318546
0.0483201
0.0633504
0.0311202
0.0298599
0.0259189
0.0289432
0.0412089
0.0535959
0.0630587
0.0483568
0.0318404
0.0260562
0.0300392
0.03132
0.0538825
0.0414155
0.0290632
0.0319353
0.048397
0.0631816
0.0314733
0.0302553
0.0262609
0.0294557
0.0420998
0.0548095
0.0640512
0.0491317
0.0325213
0.0266769
0.0310657
0.0323136
0.0566755
0.0443019
0.0319623
0.0330687
0.0489743
0.0635468
0.0472236
0.0396827
0.0297586
0.0325399
0.0471668
0.0588797
0.0340067
0.0324837
0.0280532
0.0311303
0.0442101
0.0572778
0.0651739
0.0503264
0.033643
0.0278094
0.0321602
0.0334589
0.059117
0.0463425
0.0335105
0.0343077
0.0505238
0.0655489
0.0489928
0.0412089
0.0309825
0.0341991
0.0490725
0.0607
0.0354757
0.033998
0.0294235
0.0329011
0.047225
0.0615794
0.066218
0.0509528
0.0344887
0.0319372
0.0425952
0.0510912
0.0620654
0.050122
0.0352476
0.0304908
0.0352282
0.0367535
0.063196
0.0485577
0.0339393
0.0359519
0.0528859
0.0681898
0.052415
0.0439073
0.0331844
0.0366824
0.0519539
0.0640886
0.038016
0.0363212
0.0313834
0.0355051
0.0506281
0.0656183
0.0702228
0.054915
0.0375223
0.0348683
0.0461664
0.0549969
0.0656604
0.0534753
0.0377403
0.0326785
0.0376725
0.0392513
0.0678676
0.0522744
0.0366377
0.0387726
0.0567721
0.072676
0.0564838
0.0474762
0.0359733
0.0390714
0.0550353
0.0678941
0.0403625
0.0387718
0.0338097
0.0366767
0.0537617
0.0711745
0.0748608
0.0578247
0.0392048
0.0375202
0.0505681
0.0610921
0.0689024
0.0559019
0.0399282
0.0377702
0.0500306
0.0595421
0.0692797
0.0564677
0.0403898
0.0354274
0.0413919
0.0434362
0.0740098
0.0581348
0.0420402
0.0428875
0.0609962
0.0771314
0.0638379
0.0533533
0.0398293
0.0416375
0.0581139
0.071356
0.0620823
0.0521279
0.0394087
0.0426776
0.0594596
0.0725265
0.045127
0.0432566
0.0372981
0.0441457
0.0610016
0.07763
0.0806388
0.0635889
0.0450115
0.0417949
0.0559371
0.0670041
0.0742678
0.0606989
0.0439021
0.0420223
0.056464
0.0679118
0.074609
0.0609914
0.0442711
0.0421802
0.0559196
0.066724
0.0756864
0.0624515
0.0453686
0.0393028
0.045767
0.047857
0.081633
0.0642493
0.046786
0.0479397
0.0667835
0.0839421
0.0706193
0.0593018
0.044513
0.0461822
0.0639318
0.0779417
0.0712435
0.0593583
0.044267
0.0463596
0.0638954
0.0782062
0.0696044
0.0583688
0.044138
0.0478129
0.0659073
0.0800517
0.0504761
0.0482574
0.0415912
0.0491923
0.0680853
0.0866741
0.0887335
0.0706161
0.050188
0.0466902
0.0624595
0.0746774
0.0817074
0.0671995
0.0487093
0.0470348
0.0630423
0.0756963
0.0819694
0.0676584
0.0494915
0.0475545
0.0637402
0.0766438
0.0830008
0.0684541
0.0503036
0.0476433
0.0628422
0.0748275
0.0847113
0.0699472
0.0512083
0.0446672
0.0519376
0.0545687
0.0924686
0.0723598
0.0521024
0.0533478
0.0749556
0.0943178
0.0797728
0.0668065
0.0500985
0.0518371
0.0710964
0.0866308
0.0807329
0.0672943
0.0502535
0.0523731
0.0712692
0.0864256
0.0812999
0.0675834
0.0504277
0.0534069
0.0728024
0.0882537
0.0793483
0.0665956
0.050443
0.0544376
0.0745505
0.0902922
0.0575218
0.0549917
0.0476481
0.0533231
0.0763732
0.0991084
0.100728
0.0793211
0.0546758
0.0527797
0.0705961
0.0849675
0.0927053
0.0757178
0.0550951
0.0535201
0.0717382
0.0860824
0.092122
0.0760776
0.0558602
0.0536873
0.0720951
0.0868427
0.0936743
0.0772508
0.0566242
0.053915
0.0711453
0.0847483
0.0955839
0.078981
0.0577473
0.0507321
0.0588841
0.0616802
0.10462
0.0819329
0.0590264
0.0605221
0.0845025
0.106158
0.0902077
0.0755795
0.0569023
0.0589967
0.0806331
0.0980829
0.0911693
0.0761672
0.0568928
0.0594978
0.0808438
0.0974962
0.0919732
0.0766966
0.0574437
0.0605779
0.08208
0.0994167
0.0895224
0.0752913
0.0571514
0.0616423
0.0843972
0.101731
0.0645791
0.0618773
0.0538571
0.059846
0.0861724
0.112371
0.11465
0.0900708
0.0619887
0.0599227
0.0801622
0.0962622
0.104634
0.0859584
0.0624902
0.0603386
0.0808122
0.0969974
0.104415
0.0861684
0.0633634
0.0608944
0.0815545
0.0981242
0.10627
0.0876717
0.0645473
0.0611017
0.080407
0.0956948
0.108393
0.0896519
0.0658442
0.0578245
0.066616
0.0695808
0.119528
0.0918294
0.0641335
0.0660336
0.095565
0.122223
0.102309
0.0850627
0.0634574
0.0664228
0.0915807
0.111359
0.103279
0.0862962
0.0645494
0.0680428
0.0924026
0.110894
0.10419
0.0868868
0.0652417
0.0691364
0.0936612
0.113406
0.10107
0.0852106
0.064998
0.0701454
0.095563
0.115601
0.0733425
0.0702268
0.0611266
0.069384
0.0978359
0.126388
0.129375
0.101602
0.0712232
0.068046
0.0907101
0.108817
0.119027
0.0979792
0.0714245
0.068773
0.0915396
0.10951
0.119301
0.098049
0.0720449
0.0687333
0.0903171
0.107219
0.121673
0.100565
0.0736742
0.0644435
0.0740241
0.0771236
0.133183
0.103303
0.0734417
0.0764993
0.108776
0.137338
0.114246
0.095949
0.0724806
0.0757935
0.103562
0.12572
0.11425
0.095965
0.0725037
0.0767738
0.104225
0.126145
0.111415
0.094259
0.0721354
0.0780387
0.10677
0.129562
0.0812599
0.0781635
0.068431
0.0776174
0.109134
0.14041
0.145579
0.114985
0.0803052
0.0752432
0.0998334
0.119302
0.134476
0.110441
0.0801442
0.0752319
0.098199
0.11609
0.13565
0.112106
0.0817909
0.0716109
0.0819631
0.085352
0.147277
0.11431
0.081428
0.0840518
0.119795
0.152413
0.125036
0.104717
0.0792599
0.0837898
0.115109
0.140763
0.120861
0.102823
0.079184
0.0852788
0.117597
0.142168
0.0877534
0.0846665
0.0743924
0.0847372
0.118488
0.152545
0.160002
0.125711
0.0882579
0.0821027
0.106691
0.125957
0.14952
0.122489
0.08812
0.076753
0.0862559
0.0886127
0.157331
0.121187
0.0848916
0.0906781
0.131894
0.167726
0.129792
0.110425
0.0848205
0.0924377
0.128417
0.156624
0.091777
0.0894694
0.0795507
0.0900362
0.125998
0.162321
0.174059
0.136566
0.0953421
0.0881224
0.114259
0.134445
0.16309
0.133479
0.0960023
0.083572
0.09326
0.0951858
0.170823
0.132413
0.0936078
0.0986029
0.143162
0.183786
0.137932
0.117429
0.0909431
0.0995906
0.139109
0.170793
0.0984882
0.0963119
0.0857471
0.0990987
0.137702
0.175966
0.190862
0.149251
0.103848
0.095199
0.122518
0.14363
0.177343
0.144932
0.10375
0.0880052
0.0977961
0.0997578
0.172052
0.135098
0.0986597
0.109365
0.157397
0.199983
0.100512
0.0996894
0.0911113
0.100831
0.138509
0.176173
0.206628
0.16096
0.110315
0.0907242
0.0986652
0.0992974
0.181603
0.141494
0.101306
0.115332
0.167871
0.214073
0.104083
0.103796
0.095325
0.10572
0.145295
0.184648
0.221767
0.172468
0.117504
0.0958006
0.104331
0.103963
0.189702
0.153335
0.114521
0.122461
0.178145
0.229364
0.106618
0.105834
0.0975003
0.109319
0.147699
0.186721
0.237495
0.186101
0.127679
0.0973369
0.0973233
0.0915907
0.126865
0.118082
0.101988
0.108106
0.147042
0.189354
0.248327
0.191562
0.129767
0.0977602
0.0957531
0.088776
0.110579
0.107276
0.0977114
0.101819
0.116012
0.125805
0.193461
0.154284
0.113776
0.124921
0.188917
0.25001
0.0857293
0.0899601
0.0901162
0.0914999
0.0992098
0.100732
0.0945209
0.0911972
0.0830076
0.0804155
0.0903243
0.0931128
0.0841539
0.0814801
0.0717282
0.0665555
0.0779633
0.0810308
0.0760777
0.0727919
0.060884
0.0570845
0.0705707
0.0752195
0.0711545
0.0667479
0.0534915
0.0509239
0.0651874
0.0705921
0.0670178
0.062038
0.0482251
0.0464374
0.0610238
0.0670061
0.0640029
0.0583631
0.0443382
0.0431029
0.0578315
0.0643578
0.0616238
0.0554898
0.0413858
0.0404339
0.0550924
0.0620533
0.0594886
0.052959
0.0389729
0.0382301
0.0527405
0.0600029
0.0575456
0.0507743
0.0369746
0.0364183
0.0506442
0.0580866
0.0557734
0.0488559
0.0353531
0.0349555
0.048894
0.0564081
0.0541998
0.0472521
0.0340459
0.0337844
0.0473598
0.054867
0.0527779
0.0458553
0.033009
0.032856
0.0460958
0.0535305
0.0515219
0.0446952
0.0321864
0.0321259
0.0449661
0.0522925
0.0503988
0.0437386
0.0316124
0.0315836
0.0440368
0.0512191
0.0495568
0.0430149
0.0312189
0.0311931
0.0432084
0.0502323
0.048883
0.0424411
0.0309463
0.0309232
0.0425557
0.0494071
0.0482647
0.0419153
0.0307623
0.0307414
0.0419716
0.0486633
0.047763
0.0415161
0.0306471
0.0306282
0.0415279
0.048056
0.0473035
0.0411467
0.0305818
0.0305647
0.0411247
0.0475074
0.0469444
0.0408859
0.0305577
0.0305416
0.0408392
0.0470761
0.0466166
0.0406412
0.0305627
0.0305476
0.040578
0.0466907
0.0463773
0.04049
0.0305909
0.0305768
0.0404111
0.0463981
0.0461541
0.0403419
0.0306375
0.0306243
0.0402552
0.0461374
0.0460063
0.040274
0.0306976
0.030685
0.0401765
0.0459508
0.0458619
0.0401981
0.0307699
0.0307579
0.0400974
0.0457829
0.0457815
0.0401914
0.0308502
0.0308388
0.0400828
0.0456734
0.0456937
0.0401667
0.0309384
0.0309275
0.0400987
0.0456629
0.0456849
0.0402441
0.0310619
0.0309897
0.0400099
0.0454492
0.0456203
0.0402173
0.0311295
0.0311196
0.0401051
0.0454695
0.0456237
0.0402858
0.0312307
0.0312213
0.0401684
0.0454568
0.0456062
0.0403241
0.0313363
0.0313274
0.0402093
0.0454404
0.0456366
0.0404116
0.031442
0.0314335
0.0402947
0.0454566
0.045639
0.0404667
0.0315507
0.0315426
0.0403533
0.0454649
0.0456862
0.0405668
0.0316578
0.0316502
0.0404523
0.045501
0.0457009
0.0406306
0.0317662
0.031759
0.0405234
0.0455274
0.0457582
0.0407379
0.0318712
0.0318643
0.0406276
0.0455758
0.0457809
0.0408036
0.0319766
0.0319703
0.0407018
0.0456119
0.0458428
0.0409107
0.0320775
0.0320714
0.040808
0.04567
0.0458689
0.0409739
0.032176
0.0321703
0.0408799
0.0457094
0.0459333
0.0410784
0.0322697
0.0322643
0.0409842
0.0457722
0.0459605
0.041137
0.03236
0.032355
0.0410518
0.0458137
0.0460251
0.0412359
0.0324453
0.0324406
0.0411513
0.0458784
0.0460526
0.0412888
0.0325265
0.0325221
0.0412129
0.0459196
0.0461156
0.0413811
0.0326019
0.0325977
0.0413065
0.0459837
0.0461431
0.0414288
0.0326736
0.0326697
0.0413617
0.046023
0.0462049
0.0415157
0.0327402
0.0327365
0.0414499
0.0460861
0.0462311
0.0415581
0.0328031
0.0327997
0.0414991
0.0461231
0.0462911
0.0416398
0.0328615
0.0328583
0.0415819
0.0461843
0.0463156
0.0416771
0.0329168
0.0329139
0.0416253
0.0462185
0.0463736
0.041754
0.0329682
0.0329654
0.0417029
0.0462774
0.0463964
0.0417864
0.0330167
0.0330142
0.0417409
0.0463095
0.0464533
0.0418584
0.0330618
0.0330593
0.0418134
0.0463672
0.0464746
0.0418864
0.0331045
0.0331023
0.0418462
0.0463967
0.0465291
0.041954
0.0331444
0.0331422
0.041914
0.0464514
0.0465483
0.0419785
0.0331822
0.0331801
0.041943
0.046477
0.0465995
0.0420429
0.0332174
0.0332155
0.0420076
0.0465291
0.0466158
0.0420636
0.033251
0.0332491
0.042032
0.0465517
0.0466645
0.0421241
0.0332827
0.0332809
0.042092
0.0466007
0.046678
0.0421409
0.0333133
0.0333116
0.0421118
0.04662
0.0467237
0.0421967
0.0333415
0.0333399
0.0421682
0.0466665
0.0467345
0.0422096
0.0333684
0.0333669
0.0421841
0.046683
0.0467776
0.0422618
0.033393
0.0333915
0.0422366
0.0467266
0.0467861
0.0422713
0.0334165
0.0334152
0.0422488
0.0467401
0.0468269
0.0423204
0.0334382
0.0334369
0.042298
0.0467811
0.0468335
0.042327
0.033459
0.0334578
0.0423069
0.0467921
0.0468725
0.0423735
0.0334783
0.0334771
0.0423534
0.0468309
0.0468774
0.0423778
0.0334971
0.033496
0.0423597
0.0468399
0.0469147
0.0424221
0.0335144
0.0335134
0.0424038
0.0468769
0.046918
0.0424241
0.0335314
0.0335304
0.0424079
0.046884
0.0469537
0.0424663
0.033547
0.033546
0.0424498
0.0469193
0.0469555
0.0424664
0.0335623
0.0335614
0.0424517
0.0469246
0.0469897
0.0425068
0.0335764
0.0335756
0.0424918
0.0469584
0.0469901
0.0425051
0.0335903
0.0335895
0.0424918
0.0469621
0.047023
0.0425437
0.033603
0.0336022
0.04253
0.0469944
0.0470221
0.0425403
0.0336155
0.0336148
0.0425283
0.0469966
0.0470536
0.0425773
0.033627
0.0336263
0.042565
0.0470276
0.0470514
0.0425724
0.0336382
0.0336376
0.0425616
0.0470284
0.0470816
0.0426078
0.0336485
0.0336478
0.0425967
0.0470581
0.0470781
0.0426013
0.0336585
0.0336579
0.0425917
0.0470575
0.0471071
0.0426353
0.0336675
0.033667
0.0426252
0.0470857
0.0471026
0.0426275
0.0336766
0.033676
0.0426188
0.0470838
0.0471306
0.0426604
0.0336848
0.0336843
0.0426512
0.047111
0.0471254
0.0426517
0.0336931
0.0336926
0.0426436
0.047108
0.047153
0.0426839
0.0337009
0.0337004
0.0426751
0.0471343
0.0471475
0.0426748
0.0337091
0.0337086
0.0426669
0.0471307
0.0471751
0.0427069
0.0337169
0.0337165
0.042698
0.0471567
0.0471699
0.0426979
0.0337255
0.0337251
0.0426898
0.0471529
0.0471982
0.0427305
0.033734
0.0337336
0.0427212
0.0471791
0.0471937
0.0427221
0.0337433
0.033743
0.0427135
0.0471759
0.0472229
0.0427556
0.0337528
0.0337525
0.0427457
0.0472028
0.0472194
0.0427482
0.0337632
0.033763
0.042739
0.0472006
0.0472488
0.042782
0.0337735
0.0337733
0.0427721
0.0472286
0.0472451
0.0427745
0.033784
0.0337839
0.0427657
0.047227
0.0472736
0.0428076
0.0337937
0.0337936
0.0427986
0.047255
0.0472689
0.042799
0.0338033
0.0338032
0.0427913
0.0472526
0.047297
0.0428314
0.033812
0.0338119
0.0428233
0.0472787
0.0473089
0.0428447
0.0338212
0.0338211
0.0428153
0.0472596
0.0473049
0.0428515
0.0338561
0.0338385
0.0428104
0.0472589
0.0473782
0.0428697
0.0338441
0.033759
0.0427271
0.0471524
0.0473596
0.0428975
0.0338311
0.0335597
0.0424118
0.046832
0.0476693
0.0432379
0.034153
0.0336898
0.0426237
0.0470418
0.0501893
0.0459266
0.0365941
0.0364111
0.0465013
0.051983
0.0629688
0.0564297
0.0439316
0.0448004
0.0598319
0.0700335
0.0724384
0.0639121
0.0494951
0.0799325
0.0868775
0.095669
0.11818
0.0734076
0.0583402
0.0520472
0.0620659
0.0430327
0.029399
0.0236248
0.0209206
0.0198321
0.0192161
0.0190361
0.0189353
0.0189343
0.0189386
0.018957
0.0189713
0.0189842
0.0189955
0.0190201
0.0190344
0.0191495
0.0192014
0.0193775
0.0195608
0.0195391
0.0200189
0.019774
0.0191279
0.0176324
0.0174725
0.0153524
0.0158397
0.0149406
0.0155053
0.015398
0.0156899
0.0157166
0.0158021
0.0158053
0.01582
0.0158144
0.0158085
0.0158101
0.0158122
0.0158027
0.0158085
0.0157972
0.0158001
0.0157861
0.0157871
0.0157714
0.0157669
0.0157576
0.0157474
0.0157359
0.0157232
0.015709
0.015693
0.0156751
0.0156548
0.015636
0.0156025
0.0155815
0.0155413
0.0155128
0.0154645
0.0154268
0.0153686
0.0153162
0.0152577
0.0151813
0.015113
0.0150259
0.0149312
0.0148396
0.0147249
0.014613
0.0144926
0.0143535
0.0142206
0.0140661
0.0139184
0.0137505
0.0135904
0.0134116
0.0132418
0.0130553
0.0128757
0.0126909
0.0125047
0.012318
0.0121315
0.0119456
0.0117612
0.0115785
0.0113982
0.0112206
0.0110461
0.0108777
0.0107049
0.0105464
0.0103817
0.0102313
0.0100752
0.00993326
0.00978593
0.00965266
0.00951663
0.00938498
0.00926462
0.00913941
0.00902749
0.00891073
0.00880696
0.00869846
0.00860252
0.00850183
0.00841128
0.00832224
0.00823676
0.00815474
0.00807623
0.00800057
0.00792811
0.00785908
0.00779282
0.00772944
0.00766883
0.00761092
0.00755561
0.00750282
0.00745246
0.00740447
0.00735875
0.00731523
0.00727384
0.00723451
0.0071972
0.00716194
0.00712819
0.00709629
0.00706649
0.00703816
0.00701148
0.00698643
0.00696291
0.00694089
0.00692034
0.00690121
0.00688348
0.00686712
0.0068521
0.00683839
0.00682599
0.00681453
0.00680022
0.00678908
0.00674591
0.0067279
0.00659453
0.00664194
0.00639619
0.00678074
0.00657171
0.0074815
0.00717219
0.007111
0.00710977
0.00711208
0.00709586
0.0070602
0.00702138
0.00698813
0.00696423
0.00694733
0.00693379
0.0069218
0.00691044
0.0068982
0.00688504
0.00687127
0.00685672
0.00684138
0.00682531
0.00680854
0.00679112
0.00677308
0.00675443
0.00673524
0.00671552
0.00669529
0.00667461
0.00665335
0.00663173
0.00660994
0.00658788
0.00656558
0.00654309
0.00652045
0.00649771
0.00647491
0.00645211
0.00642935
0.00640667
0.00638411
0.00636187
0.00633983
0.00631788
0.00629621
0.00627486
0.00625389
0.00623348
0.00621328
0.0061934
0.00617519
0.00615666
0.00613935
0.00612794
0.00612515
0.00614689
0.00620762
0.00631491
0.00645928
0.00656301
0.00643638
0.00634985
0.0134478
0.0115523
0.011463
0.0116336
0.0116269
0.0117533
0.0117315
0.0117875
0.0117415
0.0117808
0.0117246
0.0117577
0.011698
0.0117286
0.0116669
0.0116955
0.011632
0.0116586
0.0115937
0.0116186
0.0115522
0.0115754
0.0115076
0.0115291
0.01146
0.0114798
0.0114094
0.0114276
0.0113559
0.0113724
0.0112994
0.0113141
0.0112398
0.0112527
0.011177
0.011188
0.0111109
0.0111199
0.0110413
0.0110481
0.0109679
0.0109726
0.0108907
0.0108929
0.0108093
0.0108091
0.0107236
0.0107208
0.0106333
0.0106277
0.0105381
0.0105296
0.0104378
0.010426
0.0103318
0.0103168
0.01022
0.0102013
0.0101019
0.0100794
0.00997702
0.00995047
0.00984509
0.00981431
0.00970577
0.00967058
0.00955876
0.00951898
0.00940376
0.00935921
0.0092405
0.00919104
0.00906879
0.00901432
0.00888853
0.00882903
0.00869979
0.00863535
0.00850284
0.00843367
0.00829826
0.00822475
0.00808697
0.00800971
0.00787034
0.00779035
0.00765042
0.00756895
0.00742982
0.00734837
0.00721168
0.00713213
0.00699984
0.00692439
0.00679876
0.00672993
0.00661309
0.00655674
0.00644146
0.00640597
0.00630049
0.00627766
0.00618597
0.00617644
0.00609828
0.00609884
0.00605292
0.00605552
0.00603812
0.00603589
0.00603283
0.00602839
0.00603957
0.00603284
0.00605272
0.00604536
0.00607319
0.00606445
0.00609342
0.00608867
0.00611249
0.00611129
0.00613561
0.00612846
0.00616515
0.00615192
0.00617642
0.00614765
0.00615067
0.0060737
0.00606454
0.00594405
0.00603373
0.00600836
0.00648466
0.00709663
0.00743017
0.00758194
0.00701487
0.00672978
0.00637207
0.00658627
0.0076614
0.00644343
0.00622906
0.00739897
0.00322593
0.00765004
0.0073864
0.0076804
0.00774528
0.00755887
0.00770696
0.00794178
0.00770978
0.00786037
0.00794528
0.00779801
0.00799685
0.00316954
0.00334359
0.00350266
0.00782101
0.00647496
0.00646186
0.00776951
0.00793201
0.00657002
0.00652897
0.00787329
0.00356987
0.0035897
0.00795677
0.00659352
0.00653198
0.00788073
0.00794241
0.00658048
0.00651619
0.00786806
0.00359352
0.00359372
0.0079384
0.0065654
0.00650488
0.00785776
0.00792774
0.00655123
0.00649218
0.00785047
0.00358912
0.00358755
0.00791849
0.0065383
0.00648213
0.00784721
0.00791054
0.00652731
0.00647633
0.00784979
0.00358439
0.00358252
0.00790428
0.00651901
0.00647624
0.00786071
0.00790136
0.00651426
0.00648912
0.00788377
0.00358631
0.00360179
0.00790324
0.00651387
0.00651611
0.00792407
0.00791198
0.00651978
0.00656127
0.00798554
0.00362251
0.00365551
0.0079298
0.00653525
0.00662738
0.00807081
0.00796134
0.00657369
0.00671752
0.00818449
0.00369906
0.00375514
0.00801164
0.00664235
0.00683358
0.0083284
0.00808553
0.00673421
0.00697569
0.00850198
0.00382404
0.00390577
0.00818688
0.00685063
0.0071416
0.00870606
0.00831656
0.00699424
0.00732468
0.00892494
0.00399643
0.0040955
0.00847586
0.00715691
0.00752599
0.00916263
0.00866224
0.00733815
0.00773805
0.00940928
0.00420053
0.00430801
0.00887792
0.00754185
0.00795545
0.00966033
0.00910703
0.00775208
0.00817439
0.00991144
0.00441656
0.00452458
0.00934184
0.00796221
0.00839187
0.0101592
0.00957847
0.00816975
0.00860574
0.0104012
0.00463073
0.00473435
0.00981854
0.00837759
0.00881415
0.0106357
0.0100629
0.00858757
0.0090153
0.0108614
0.00483459
0.00493079
0.0103033
0.00879226
0.00920852
0.0110776
0.0105376
0.00899038
0.00939331
0.0112839
0.00502286
0.0051109
0.0107642
0.00918102
0.00956946
0.0114801
0.0109821
0.0093636
0.00973695
0.0116663
0.00519462
0.00527383
0.0111906
0.00953782
0.00989589
0.0118428
0.0113894
0.0097036
0.0100465
0.0120098
0.00534897
0.00541992
0.0115784
0.00986101
0.0101891
0.0121676
0.0117576
0.0100102
0.0103239
0.0123167
0.00548731
0.00555041
0.0119274
0.0101515
0.0104513
0.0124574
0.0120879
0.010285
0.0105716
0.01259
0.0056104
0.00566648
0.0122396
0.0104112
0.0106851
0.0127149
0.0123825
0.0105303
0.010792
0.0128324
0.00571933
0.00576889
0.0125171
0.0106426
0.010893
0.012943
0.0126437
0.0107484
0.0109883
0.0130472
0.00581574
0.00585976
0.0127627
0.0108483
0.0110782
0.0131452
0.0128747
0.0109424
0.0111631
0.0132375
0.00590085
0.00593954
0.0129799
0.0110313
0.0112432
0.0133244
0.0130789
0.0111151
0.0113189
0.013406
0.00597582
0.00600981
0.0131718
0.0111941
0.0113902
0.0134826
0.0132591
0.0112686
0.0114575
0.0135546
0.0060416
0.00607127
0.0133411
0.0113387
0.0115208
0.0136219
0.0134178
0.0114048
0.0115804
0.0136847
0.00609889
0.0061245
0.0134894
0.0114668
0.0116364
0.0137434
0.0135563
0.0115251
0.0116889
0.013798
0.00614821
0.00617011
0.0136187
0.0115798
0.0117381
0.0138488
0.0136768
0.0116309
0.0117841
0.0138958
0.00619026
0.00620866
0.0137306
0.0116786
0.0118269
0.0139389
0.0137802
0.011723
0.0118664
0.0139783
0.0062253
0.00624017
0.0138258
0.0117641
0.0119027
0.0140137
0.0138674
0.0118018
0.0119356
0.0140452
0.00625323
0.00626447
0.0139049
0.011836
0.011965
0.0140726
0.0139381
0.0118667
0.011991
0.014096
0.00627366
0.0062801
0.0139673
0.0118937
0.0120132
0.0141146
0.0139925
0.0119171
0.0120304
0.0141271
0.00628307
0.00627603
0.0140127
0.011936
0.0120481
0.0141354
0.0140162
0.0119453
0.012042
0.0141226
0.00625783
0.00623357
0.0139791
0.0119274
0.0120046
0.0140745
0.0138015
0.0118114
0.0118626
0.0139192
0.00622782
0.00594463
0.00582218
0.00583899
0.00587701
0.00589861
0.00590229
0.00590139
0.00589738
0.00589131
0.00588362
0.00587434
0.0058635
0.00585115
0.00583731
0.00582196
0.00580508
0.00578662
0.00576649
0.00574461
0.00572094
0.00569545
0.00566806
0.00563869
0.00560736
0.00557359
0.00553756
0.00549943
0.00545863
0.00541517
0.00536834
0.0053189