/*--------------------------------*- C++ -*----------------------------------*\
| =========                 |                                                 |
| \\      /  F ield         | OpenFOAM: The Open Source CFD Toolbox           |
|  \\    /   O peration     | Version:  v2006                                 |
|   \\  /    A nd           | Website:  www.openfoam.com                      |
|    \\/     M anipulation  |                                                 |
\*---------------------------------------------------------------------------*/
FoamFile
{
    version     2.0;
    format      ascii;
    class       volScalarField;
    location    "0.133";
    object      Co;
}
// * * * * * * * * * * * * * * * * * * * * * * * * * * * * * * * * * * * * * //

dimensions      [0 0 0 0 0 0 0];


internalField   nonuniform List<scalar> 
16277
(
0.00667707
0.00636466
0.00690786
0.00717223
0.00721042
0.00705924
0.00705552
0.00693657
0.00688482
0.00687084
0.00683285
0.00681846
0.00680452
0.0067946
0.00678363
0.00677253
0.00676085
0.00674852
0.00673581
0.00672253
0.00670868
0.00669426
0.00667929
0.00666377
0.00664771
0.00663113
0.00661403
0.00659642
0.0065783
0.00655968
0.00654059
0.00652103
0.00650102
0.00648057
0.0064597
0.00643843
0.00641677
0.00639475
0.00637239
0.0063497
0.0063267
0.00630343
0.0062799
0.00625614
0.00623216
0.00620801
0.00618369
0.00615924
0.00613469
0.00611005
0.00608536
0.00606065
0.00603595
0.00601127
0.00598666
0.00596214
0.00593773
0.00591348
0.00588941
0.00586555
0.00584193
0.00581858
0.00579553
0.00577281
0.00575045
0.00572848
0.00570693
0.00568582
0.00566518
0.00564503
0.0056254
0.00560632
0.0055878
0.00556989
0.0055526
0.00553595
0.00551992
0.00550443
0.00548794
0.00547303
0.00545978
0.00545033
0.00544818
0.00548119
0.00554509
0.00571882
0.00603285
0.00675091
0.00842314
0.0120106
0.0180103
0.0141693
0.0127297
0.0121942
0.0119259
0.0116613
0.0111368
0.0100992
0.0110809
0.0117206
0.0109193
0.0108029
0.0101631
0.00839086
0.00903383
0.00924035
0.00918972
0.00918729
0.00861888
0.00784115
0.00854889
0.0087219
0.0089911
0.00883362
0.00804728
0.00782795
0.00863287
0.00881866
0.00902252
0.00880065
0.00789324
0.00779392
0.00867268
0.00886595
0.00903543
0.00877264
0.00779686
0.00769611
0.00864354
0.00886669
0.00899349
0.00871477
0.00767775
0.00758185
0.00858221
0.00883515
0.0089537
0.00864942
0.00756554
0.00747531
0.00851738
0.00879549
0.00891068
0.00858426
0.00746337
0.0073777
0.00845339
0.00875372
0.00886604
0.00852022
0.00736906
0.00728698
0.00839126
0.00871092
0.00882039
0.00845734
0.00728091
0.00720146
0.00833094
0.00866755
0.00877388
0.00839519
0.00719742
0.00712015
0.00827075
0.00862244
0.00872651
0.00833349
0.00711754
0.00704203
0.00821052
0.00857582
0.00867819
0.00827204
0.00704045
0.00696639
0.00815011
0.0085277
0.00862893
0.00821064
0.00696552
0.00689261
0.00808931
0.00847804
0.00857865
0.00814906
0.00689221
0.00682021
0.00802796
0.0084268
0.00852722
0.00808709
0.00682005
0.00674884
0.00796596
0.00837399
0.00847455
0.00802454
0.0067487
0.00667801
0.00790301
0.00831954
0.00842054
0.00796125
0.00667785
0.00660756
0.0078391
0.00826339
0.00836511
0.00789709
0.00660726
0.00653727
0.00777409
0.00820544
0.00830817
0.00783189
0.00653669
0.00646691
0.00770784
0.00814564
0.00824956
0.00776551
0.00646595
0.0063963
0.00764144
0.00808658
0.00818917
0.00769783
0.00639482
0.00632522
0.00757384
0.00802632
0.00812695
0.00762873
0.00632312
0.00625349
0.00750477
0.00796419
0.00806279
0.00755807
0.00625069
0.00618094
0.00743408
0.0079001
0.00799658
0.00748572
0.00617734
0.0061074
0.00736164
0.00783393
0.00792819
0.00741152
0.0061029
0.00603269
0.00728732
0.00776556
0.00785751
0.00733534
0.00602721
0.00595667
0.00721098
0.00769487
0.00778441
0.00725705
0.00595012
0.00587918
0.00713249
0.00762177
0.00770879
0.00717654
0.00587149
0.00580012
0.00705174
0.00754612
0.00763055
0.00709368
0.00579122
0.00571936
0.00696864
0.00746786
0.00754958
0.0070084
0.00570921
0.00563685
0.00688311
0.00738688
0.00746583
0.00692063
0.00562542
0.00555256
0.00679509
0.00730313
0.00737924
0.00683034
0.00553985
0.00546654
0.0067046
0.00721657
0.0072898
0.00673757
0.00545259
0.0053789
0.00661171
0.00712724
0.0071976
0.00664245
0.00536377
0.00528982
0.00651657
0.00703523
0.00710276
0.00654516
0.00527365
0.0051996
0.0064194
0.00694071
0.0070055
0.00644599
0.00518256
0.00510863
0.00632056
0.00684393
0.00690614
0.00634535
0.00509099
0.00501748
0.00622052
0.00674527
0.00680512
0.00624381
0.00499958
0.00492689
0.00611992
0.00664524
0.00670308
0.00614214
0.00490919
0.00483784
0.00601963
0.00654452
0.00660082
0.00604132
0.00482092
0.00475152
0.00592074
0.00644404
0.0064994
0.00594259
0.00473612
0.00466944
0.00582461
0.00634495
0.00640015
0.0058475
0.00465645
0.00459339
0.00573293
0.00624868
0.00630473
0.00575794
0.00458389
0.00452553
0.00564775
0.00615707
0.00621517
0.00567605
0.00452073
0.00446995
0.00557255
0.00607212
0.00613354
0.00560403
0.00446978
0.00443468
0.00552359
0.00600889
0.00606266
0.00554532
0.00443454
0.00441701
0.00549656
0.0059802
0.00600605
0.00550298
0.00441689
0.00441871
0.00548964
0.0059712
0.00596686
0.00547973
0.00441864
0.00444044
0.00550352
0.00598235
0.005944
0.00547431
0.00444039
0.00448141
0.00553702
0.00601217
0.00594713
0.00549736
0.00448465
0.00454277
0.00559227
0.00606394
0.00599612
0.00556015
0.00455577
0.00462423
0.00566832
0.00613601
0.00607149
0.00564065
0.00464308
0.00471728
0.00575627
0.00621871
0.00615685
0.00573215
0.00473954
0.00481677
0.00585246
0.00630896
0.0062482
0.00582989
0.00484008
0.00491859
0.00595358
0.00640436
0.00634342
0.00593105
0.00494142
0.00501972
0.00605654
0.00650218
0.00643965
0.00603256
0.00504067
0.00511736
0.0061583
0.0065995
0.00653422
0.00613164
0.0051352
0.00520909
0.00625632
0.00669387
0.00662492
0.00622597
0.00522285
0.00529303
0.0063485
0.00678327
0.00670994
0.00631369
0.00530202
0.00536779
0.00643318
0.00686605
0.00678783
0.00639338
0.00537157
0.00543259
0.00650913
0.00694097
0.00685759
0.00646541
0.00543278
0.00548734
0.00657559
0.00700727
0.00692211
0.00653495
0.00548751
0.00553194
0.00663206
0.0070645
0.00699155
0.00659967
0.00553208
0.00556674
0.00667898
0.0071129
0.00705437
0.00665439
0.00556687
0.0055925
0.00671691
0.00715293
0.00710773
0.00669936
0.00559262
0.00561025
0.00674663
0.00718526
0.00715186
0.00673513
0.00561034
0.00562132
0.00676928
0.00721097
0.00718754
0.0067627
0.00562137
0.00562697
0.00678589
0.00723103
0.00721579
0.00678327
0.00562704
0.00562844
0.0067975
0.00724636
0.00723765
0.00679792
0.00562855
0.00562688
0.00680522
0.00725787
0.0072542
0.00680762
0.00562686
0.00562308
0.00680982
0.00726627
0.00726647
0.00681372
0.00562301
0.00561751
0.00681161
0.00727198
0.00727508
0.00681676
0.00561755
0.00561102
0.00681175
0.0072759
0.00728104
0.00681754
0.00561103
0.00560382
0.00681042
0.00727831
0.00728493
0.00681656
0.00560378
0.00559624
0.00680816
0.00727968
0.00728731
0.00681473
0.00559634
0.00558857
0.00680509
0.00728005
0.00728822
0.00681131
0.00558843
0.00558093
0.00680163
0.00727976
0.0072885
0.00680833
0.0055811
0.00557346
0.00679766
0.00727865
0.00728736
0.00680326
0.00557295
0.0055651
0.00679212
0.00727692
0.00728615
0.00679964
0.00556588
0.00555823
0.00678865
0.00727593
0.00728527
0.00679501
0.00555827
0.00555128
0.00678433
0.00727379
0.00728211
0.00678899
0.00555047
0.0055433
0.00677857
0.00727169
0.00728051
0.00678563
0.00554146
0.00552961
0.00676297
0.00725714
0.00723205
0.00673135
0.00548867
0.00547438
0.00669897
0.00720083
0.00705992
0.00652982
0.00531391
0.00541583
0.00662439
0.00711419
0.00681085
0.0062625
0.00506733
0.00559974
0.00684844
0.00731258
0.00731345
0.00661403
0.00526238
0.00651007
0.00810877
0.00881364
0.00956889
0.00847638
0.00655419
0.00822079
0.0119372
0.0149546
0.0140258
0.0182231
0.0155696
0.0146122
0.0139358
0.0137487
0.0136334
0.0136611
0.0136684
0.0136919
0.013704
0.0137598
0.0138636
0.0140301
0.0143968
0.0152832
0.0195569
0.0279092
0.0299357
0.027294
0.0258378
0.0235823
0.0210991
0.0180767
0.012448
0.0110686
0.0165811
0.0198788
0.0177345
0.0154075
0.0105356
0.008761
0.0129313
0.0150842
0.0141076
0.012357
0.00848578
0.00784431
0.0115584
0.0133578
0.0131245
0.0114485
0.00774865
0.00762
0.0112376
0.0129535
0.0129689
0.0112356
0.00761356
0.007611
0.0112298
0.0129481
0.012956
0.0112372
0.00762553
0.00763115
0.011242
0.0129588
0.012965
0.0112495
0.00763948
0.00764148
0.011237
0.0129603
0.0129955
0.0112918
0.00766585
0.00766918
0.0112802
0.0129918
0.0130037
0.0112925
0.00768003
0.00768138
0.011278
0.0129839
0.0130482
0.0113244
0.00770117
0.00771753
0.011332
0.0130279
0.0130337
0.0113169
0.00771134
0.00772904
0.011325
0.0130129
0.0130706
0.0113545
0.00773736
0.00775456
0.0113614
0.013048
0.0130559
0.0113484
0.00774911
0.0077667
0.0113568
0.0130355
0.0130994
0.011392
0.00777882
0.00779744
0.0114023
0.0130816
0.0130929
0.011392
0.00779399
0.0078138
0.0114043
0.0130777
0.0131419
0.0114398
0.00782631
0.00784578
0.0114504
0.0131242
0.0131335
0.0114383
0.00784164
0.00786093
0.0114478
0.0131145
0.0131759
0.0114808
0.00787227
0.00789079
0.0114891
0.0131549
0.0131616
0.0114864
0.00789353
0.00789555
0.0114711
0.0131399
0.0132018
0.0115167
0.00791553
0.00793474
0.0115269
0.0131831
0.0131925
0.0115264
0.00793858
0.00794295
0.0115155
0.0131767
0.0132424
0.0115638
0.00796375
0.0079843
0.0115755
0.0132255
0.0132386
0.0115776
0.00798949
0.00799391
0.0115668
0.0132229
0.0132889
0.0116153
0.00801548
0.00803579
0.0116271
0.0132727
0.0132826
0.0116259
0.00803885
0.0080424
0.0116132
0.0132646
0.0133289
0.0116601
0.00806243
0.00808119
0.0116699
0.0133102
0.0133202
0.0116697
0.00808446
0.00808806
0.0116585
0.0133044
0.0133718
0.0117079
0.00810861
0.00812871
0.0117212
0.0133576
0.0133729
0.0117247
0.00813309
0.00813686
0.0117154
0.0133596
0.0134295
0.0117668
0.00815788
0.00817794
0.0117818
0.013417
0.0134329
0.0117857
0.00818142
0.00818441
0.0117772
0.0134211
0.0134912
0.0118282
0.00820334
0.00822078
0.0118415
0.0134769
0.0134919
0.0118323
0.00821342
0.00823047
0.0118477
0.0134809
0.0135534
0.0118884
0.00823932
0.00825559
0.0119045
0.0135431
0.0135643
0.0119002
0.00824778
0.00826486
0.0119221
0.0135607
0.013643
0.0119708
0.00827474
0.00829344
0.011997
0.0136448
0.0136772
0.0120131
0.00829588
0.00829755
0.0120166
0.0136808
0.0137683
0.0120826
0.00831719
0.00833693
0.0121122
0.0137719
0.0138061
0.0121327
0.00834142
0.00834679
0.0121415
0.0138118
0.0139038
0.0122141
0.00837172
0.00840034
0.0122534
0.0139134
0.0139594
0.0122763
0.00840955
0.00844979
0.0123302
0.0139843
0.0141038
0.0124174
0.00848896
0.00854029
0.0124824
0.0141397
0.0142037
0.0125377
0.00858033
0.00864545
0.0126095
0.0142539
0.0143475
0.0126871
0.00870275
0.00877855
0.0127675
0.0143968
0.0144683
0.0128602
0.00887004
0.00898291
0.0129733
0.0145587
0.014668
0.0131037
0.00911704
0.00927305
0.0132501
0.0147917
0.0149416
0.0134364
0.00946969
0.00969913
0.0136312
0.0150709
0.0152147
0.0138178
0.00994689
0.010113
0.0139235
0.0152709
0.0154221
0.0139791
0.0102652
0.010593
0.0142519
0.0155059
0.0155966
0.0143026
0.0106643
0.0109014
0.0144037
0.0156479
0.0157787
0.0145756
0.0111267
0.011369
0.0146716
0.0158815
0.0161342
0.0150452
0.0117661
0.0119796
0.015161
0.0162383
0.0166097
0.015598
0.0125164
0.0126913
0.0156924
0.0166886
0.0167884
0.0162521
0.0135613
0.0131663
0.0150227
0.01465
0.0436344
0.0321586
0.0188059
0.0127483
0.0209731
0.0288689
0.0191632
0.0169742
0.0119117
0.0110745
0.0150705
0.0163755
0.0157799
0.0147386
0.011108
0.0112177
0.0149931
0.0162944
0.0160441
0.0148823
0.0113868
0.0118459
0.0153265
0.0165293
0.0162626
0.0151344
0.0120181
0.0127689
0.0159663
0.0170101
0.0168955
0.0158514
0.0129403
0.0137313
0.0164382
0.0172087
0.0150106
0.0153774
0.0136695
0.019118
0.0314881
0.0422963
0.0297357
0.0221333
0.0143372
0.0135169
0.0179487
0.0200042
0.0179135
0.0165767
0.0131452
0.0132218
0.0163876
0.0174615
0.0172696
0.0163369
0.0134709
0.0135864
0.0162988
0.0171741
0.0171019
0.0165309
0.0141452
0.0137696
0.0150375
0.0144241
0.0421
0.031471
0.0194106
0.0151061
0.022418
0.0297039
0.0200223
0.0181328
0.0140582
0.0137295
0.0167105
0.0175225
0.0168551
0.0162733
0.0138106
0.0142151
0.0165514
0.0171201
0.0147311
0.0154269
0.0141663
0.0193748
0.0309795
0.0410257
0.0303095
0.0228677
0.0153622
0.0150138
0.0188286
0.0205924
0.0183893
0.0172329
0.01444
0.0149295
0.0171608
0.017565
0.0142466
0.0151022
0.0142427
0.0198214
0.0309722
0.0408417
0.0298473
0.0230207
0.0159295
0.0148936
0.0181932
0.019664
0.0172561
0.0167959
0.0146216
0.0144564
0.0153094
0.014468
0.0390814
0.0298467
0.0193578
0.0161831
0.023061
0.0298034
0.0200411
0.0184441
0.0152687
0.0150058
0.0170069
0.0174726
0.0135378
0.0146707
0.0144705
0.0193864
0.0289096
0.0366301
0.0275333
0.0221534
0.0164284
0.014716
0.0156967
0.014996
0.03417
0.0271661
0.0184331
0.0156298
0.0209543
0.0258439
0.0131756
0.0139804
0.0133151
0.0156156
0.0218024
0.0260478
0.013862
0.0128673
0.0109758
0.0110544
0.0161087
0.0195757
0.00483428
0.00459518
0.00428241
0.00562383
0.00910886
0.0111698
0.0138946
0.0120657
0.00869613
0.0142793
0.0170917
0.0186025
0.0224166
0.0213154
0.0188486
0.0206912
0.0219276
0.0215787
0.037081
0.0321996
0.0244798
0.0252146
0.0331023
0.0383187
0.0373938
0.0329499
0.0256022
0.0269334
0.0364684
0.0428389
0.0267121
0.0268459
0.0236092
0.0251498
0.0359743
0.0457917
0.0488996
0.0386177
0.0263416
0.024056
0.0316152
0.0367357
0.0452979
0.037127
0.0262899
0.0221322
0.0254215
0.0257858
0.0429703
0.0337967
0.0240909
0.026044
0.0385026
0.0488695
0.0252037
0.0247889
0.0213733
0.0233383
0.033145
0.0421358
0.0487789
0.0381916
0.0254497
0.0208412
0.0240935
0.0244762
0.0414691
0.0323613
0.0227082
0.0250674
0.0377788
0.048508
0.0245722
0.0240385
0.0205641
0.022668
0.0321412
0.0412451
0.0484253
0.0377429
0.0251702
0.0206125
0.0238886
0.0242129
0.0408499
0.0319925
0.0223835
0.02478
0.0375377
0.0481552
0.0242652
0.0238143
0.0204358
0.0222324
0.0316208
0.0405615
0.0480369
0.0372853
0.0246329
0.0200439
0.0233603
0.0239422
0.0396532
0.0308994
0.0217612
0.0243461
0.0369217
0.0474885
0.0211479
0.0213508
0.0191011
0.0200188
0.025233
0.0279778
0.0407353
0.0309809
0.0208943
0.0234643
0.0366566
0.047881
0.0227903
0.0224583
0.0191813
0.0214008
0.0309732
0.0400999
0.0473572
0.0366221
0.0238044
0.0194792
0.0230291
0.0236375
0.0407235
0.031162
0.0209144
0.0237445
0.0369228
0.0476603
0.0235571
0.0231038
0.0195326
0.0216118
0.0313356
0.0406417
0.0477631
0.0366766
0.0237664
0.0195352
0.0233158
0.0239868
0.0406422
0.0313958
0.0216989
0.0239634
0.0368218
0.0477798
0.0236837
0.0231504
0.0194635
0.0214069
0.0315913
0.0408232
0.0479111
0.0370664
0.0240626
0.0198159
0.0236602
0.0242548
0.0414975
0.0318029
0.0215221
0.0243296
0.0373246
0.0482443
0.0243943
0.0238246
0.0200621
0.0219513
0.0328354
0.0429061
0.0478502
0.0369558
0.0239246
0.0216447
0.0295229
0.0349858
0.0444428
0.0359933
0.0244744
0.0208072
0.0246616
0.025393
0.0418253
0.0326374
0.0226922
0.0248975
0.0376812
0.0483241
0.0249655
0.0242013
0.0203932
0.0223751
0.0322943
0.0413971
0.0486675
0.0379173
0.0248932
0.0206217
0.0242344
0.0247466
0.042195
0.0327969
0.0227215
0.0250278
0.0380674
0.0489435
0.0251372
0.0244286
0.0206295
0.0227653
0.0328568
0.0423815
0.0493556
0.0384266
0.0254229
0.0211521
0.0248862
0.0255865
0.0447836
0.034296
0.0231301
0.0250147
0.038126
0.0492548
0.0371125
0.0314302
0.022979
0.0250268
0.0366155
0.0451701
0.0264062
0.0255012
0.0213694
0.0236948
0.034266
0.0438792
0.0499839
0.0392811
0.0259602
0.0216348
0.0255638
0.0263168
0.0459101
0.0352381
0.0237201
0.0255715
0.0387108
0.0500196
0.0376812
0.0318415
0.023502
0.0258538
0.0375123
0.0462186
0.027367
0.0265009
0.0223045
0.0244583
0.0349915
0.0449059
0.051023
0.0399986
0.0267108
0.0224412
0.0264484
0.0271014
0.0469604
0.0359626
0.0243667
0.0261685
0.0393761
0.0506865
0.0386701
0.0327041
0.0240641
0.0264098
0.0382337
0.0468974
0.0277326
0.026925
0.0228595
0.0249786
0.0359569
0.0462429
0.0519564
0.041064
0.0273473
0.0230102
0.0270673
0.0277282
0.048093
0.0371853
0.0257696
0.0270266
0.0405106
0.0517808
0.0396952
0.0335857
0.0246602
0.0271339
0.0391842
0.04783
0.0289152
0.0279768
0.0236265
0.02568
0.0375982
0.0491695
0.052545
0.0411081
0.0274721
0.025538
0.03449
0.0407216
0.0488032
0.0400395
0.0279417
0.0239557
0.0283916
0.0292845
0.0495842
0.0386277
0.026845
0.027894
0.0413902
0.0528145
0.0412398
0.0348831
0.0258769
0.0284646
0.0405437
0.0493881
0.0301456
0.0292036
0.024565
0.0275947
0.0394425
0.0507269
0.0539236
0.0424355
0.028786
0.0265389
0.035705
0.0421709
0.0501978
0.0412036
0.0288725
0.025053
0.029515
0.030335
0.0513487
0.0397329
0.026971
0.0288508
0.0430292
0.0547211
0.0429954
0.036307
0.0268795
0.029252
0.0417398
0.0509245
0.0311693
0.0302431
0.0255253
0.0285406
0.0411344
0.0528374
0.0551276
0.0437549
0.0297012
0.0278594
0.0380816
0.0452282
0.0507955
0.0416282
0.029384
0.0274594
0.0371251
0.0435653
0.0509103
0.0421612
0.0297127
0.0262034
0.0311276
0.0321831
0.0537359
0.041715
0.0291218
0.0304499
0.0447914
0.0565974
0.0450693
0.038137
0.028303
0.0305057
0.0434914
0.052496
0.0322685
0.0314367
0.0267006
0.0297659
0.0426827
0.0549299
0.0570789
0.0452017
0.0307596
0.0286971
0.0392608
0.0469637
0.052632
0.0429269
0.0302053
0.0287092
0.0385691
0.0454892
0.0530515
0.0439971
0.0313607
0.0272792
0.0323128
0.0334939
0.056585
0.043859
0.0301526
0.0315346
0.0463871
0.0587846
0.0485604
0.0406067
0.0296717
0.0313031
0.0442909
0.0538593
0.0471134
0.0399746
0.0297718
0.0317723
0.0447541
0.0537685
0.0342382
0.0330523
0.0279113
0.031162
0.0446129
0.0574518
0.0593135
0.0470967
0.0322291
0.0305806
0.0416684
0.0495753
0.0551111
0.0454451
0.0321778
0.0305997
0.0408991
0.0479322
0.0552651
0.0461433
0.0329103
0.0289471
0.0341525
0.0352296
0.0588614
0.0456589
0.0315852
0.0331261
0.048319
0.0608745
0.050589
0.0422757
0.0308842
0.0327371
0.0460918
0.0558821
0.0491793
0.0415803
0.0309926
0.0337845
0.0470083
0.0563203
0.0359042
0.0347005
0.02957
0.0322598
0.0471189
0.0607474
0.0623494
0.0490565
0.033341
0.0318537
0.0437537
0.0520567
0.0575298
0.0475222
0.0335209
0.032101
0.0430066
0.0503816
0.0577405
0.0481291
0.0345386
0.0301859
0.0355076
0.0366604
0.0619519
0.0478033
0.0328852
0.0342119
0.0501033
0.0635321
0.0533674
0.0447593
0.0329406
0.0347282
0.0485933
0.0585711
0.0537848
0.0453583
0.0332578
0.0350135
0.0486225
0.0586015
0.0523641
0.0444985
0.0330961
0.0358015
0.0497753
0.0591628
0.0385569
0.0373479
0.0315036
0.0354887
0.0501737
0.0638709
0.0649318
0.0517136
0.0359097
0.0340128
0.0462036
0.0549585
0.0594802
0.0493484
0.0353897
0.0340412
0.0460928
0.0550003
0.0599039
0.0498308
0.0361016
0.0341315
0.0457224
0.0535408
0.060865
0.0510216
0.036856
0.0323307
0.0380207
0.03929
0.0660169
0.0515096
0.0355785
0.0367341
0.0534102
0.0669717
0.0566882
0.047687
0.0351258
0.0367735
0.0511631
0.061762
0.0568397
0.0481221
0.0353099
0.0370544
0.0513447
0.0614732
0.0552364
0.0470512
0.0352246
0.0378055
0.0521003
0.0624235
0.0406574
0.0392614
0.0332758
0.0366653
0.0529884
0.0678913
0.0689677
0.0545554
0.037605
0.0361045
0.0489696
0.0584283
0.0631644
0.0523979
0.0378086
0.0366244
0.0495774
0.0588334
0.0634181
0.0529054
0.0383526
0.0362494
0.0481528
0.05679
0.0642482
0.053845
0.0392035
0.0343994
0.0403265
0.0413424
0.0696438
0.0547194
0.0385734
0.0392853
0.0566254
0.0706281
0.0601343
0.0503626
0.0371341
0.0389685
0.0542828
0.065167
0.0608443
0.0512781
0.0379138
0.0394921
0.0541858
0.0647048
0.0612743
0.0513174
0.0378327
0.0400136
0.0547487
0.065512
0.0598004
0.0507674
0.037964
0.0405257
0.0556661
0.0664059
0.043202
0.0418456
0.0358388
0.0393615
0.0564194
0.0728054
0.0733923
0.0581125
0.0403686
0.0385972
0.0524197
0.0622252
0.0671661
0.0561329
0.0403381
0.039132
0.0526985
0.0624148
0.0667383
0.0560141
0.0409206
0.0392744
0.0529864
0.0627681
0.0677476
0.0565591
0.0413996
0.0392899
0.0519637
0.0613447
0.068991
0.0578391
0.0424135
0.0370284
0.0431819
0.0447879
0.0752276
0.0587415
0.0410302
0.0424542
0.060847
0.0760009
0.0648252
0.0550193
0.040807
0.042357
0.0583798
0.069905
0.064965
0.0551325
0.0409376
0.0426273
0.0580935
0.0692729
0.0656415
0.0554272
0.0411413
0.0431241
0.058786
0.0700263
0.0640929
0.0541784
0.0407585
0.0437888
0.0596813
0.0710262
0.0464478
0.0451886
0.0386811
0.0423027
0.0607505
0.0776782
0.078805
0.0624484
0.0433814
0.0418258
0.0564189
0.0669509
0.0723577
0.0598109
0.0434807
0.0421711
0.0567802
0.0672751
0.0714891
0.0602708
0.0441283
0.0423635
0.0570128
0.0679825
0.0728521
0.0611307
0.044636
0.0423868
0.0561927
0.0657514
0.0739065
0.0624916
0.0455865
0.0400746
0.0465198
0.0478955
0.0810339
0.0629444
0.0441895
0.0454098
0.0647915
0.0819092
0.0695911
0.0588958
0.043735
0.0454859
0.0626778
0.0750927
0.0699553
0.0588466
0.043893
0.0458889
0.062198
0.0743388
0.0706453
0.0594902
0.0441987
0.0464095
0.0630133
0.0750205
0.0688317
0.0585245
0.0441989
0.0473189
0.0644935
0.0763972
0.0497151
0.0483571
0.041729
0.0456733
0.065398
0.0840195
0.0850372
0.067282
0.0469511
0.0453644
0.06099
0.0721157
0.0776287
0.0650006
0.0472473
0.0456038
0.0613467
0.0725029
0.0772392
0.0648893
0.0475645
0.0459082
0.0617883
0.073293
0.0778094
0.0655171
0.0482517
0.0463022
0.0620318
0.0734177
0.0787225
0.0662536
0.0488951
0.04615
0.0606297
0.0712133
0.0800476
0.0674559
0.0498593
0.043706
0.0505795
0.0520261
0.0873503
0.0686138
0.0489387
0.0501268
0.0711057
0.0882727
0.0753442
0.063749
0.0477707
0.0496768
0.0681093
0.0814669
0.0758258
0.0642927
0.0481194
0.0502866
0.0682107
0.0808237
0.0763822
0.0646189
0.0485388
0.0508253
0.0685553
0.0819502
0.0741675
0.0632578
0.0481062
0.0514334
0.0697751
0.0828018
0.0544568
0.0528069
0.0455596
0.0503993
0.0713342
0.0910415
0.091886
0.0737202
0.0516955
0.0494758
0.0661221
0.0781458
0.0839962
0.0700019
0.0514
0.0497453
0.0665083
0.0785817
0.083697
0.0705577
0.0519819
0.0502394
0.0669894
0.0790074
0.0846945
0.0713374
0.0526485
0.0500296
0.0656274
0.0767933
0.0862306
0.0730453
0.05373
0.0470955
0.0543982
0.0558586
0.0942787
0.0742541
0.0532713
0.0543702
0.0767253
0.0951227
0.0810968
0.068585
0.0515633
0.0536496
0.0732792
0.0877032
0.0815781
0.0691315
0.051931
0.0543525
0.0733539
0.0873205
0.0821732
0.0695011
0.0521917
0.0548809
0.0740854
0.0882771
0.0798883
0.0682177
0.0520779
0.0558757
0.0755504
0.0892546
0.0586979
0.0570449
0.0493571
0.0548026
0.0770636
0.0983515
0.0993254
0.0793539
0.0563432
0.0540614
0.0717693
0.0846128
0.0907582
0.0761743
0.0560876
0.0541849
0.0719185
0.0848009
0.0907359
0.0762916
0.0566553
0.0543859
0.0722654
0.0851648
0.091716
0.0773223
0.0572356
0.0539335
0.0705886
0.0825668
0.0932695
0.079025
0.0582091
0.0511832
0.0588586
0.0604079
0.101596
0.0797497
0.0568193
0.0584652
0.0825205
0.103108
0.0874868
0.0741173
0.0559924
0.0584757
0.0793791
0.0951273
0.0881297
0.0748632
0.0565631
0.0592588
0.0796269
0.0948154
0.086286
0.0738355
0.0564059
0.0598811
0.0812923
0.0963991
0.0622629
0.0607779
0.0529724
0.058497
0.0826443
0.105393
0.106614
0.0855016
0.0602358
0.0576177
0.0764498
0.0902405
0.0981428
0.0816473
0.0599357
0.0579726
0.0766892
0.0902136
0.0981354
0.0824406
0.0609766
0.0577316
0.0754065
0.0880169
0.0996452
0.0842906
0.0622352
0.0545321
0.0625642
0.063915
0.108845
0.0856657
0.0615903
0.0630977
0.089081
0.110405
0.0936445
0.0793673
0.0600432
0.0628514
0.0854788
0.10188
0.0940879
0.0801675
0.0605453
0.0629078
0.0850541
0.101445
0.0919074
0.0785633
0.0601302
0.0643804
0.0870691
0.103269
0.0660378
0.0645783
0.0563699
0.0625875
0.0882522
0.112706
0.114561
0.0913936
0.0647017
0.0614821
0.0816556
0.09629
0.104976
0.088085
0.0645363
0.0622577
0.082177
0.0964964
0.10513
0.0882136
0.0652579
0.0618632
0.0806693
0.094076
0.107063
0.0905662
0.0667731
0.0586627
0.0669999
0.0684818
0.117316
0.0921456
0.0654619
0.0676448
0.0960099
0.119657
0.10015
0.0850565
0.0642347
0.0672544
0.0913906
0.109663
0.100347
0.0853404
0.0645028
0.0675251
0.0914595
0.108913
0.0978933
0.0838173
0.0642097
0.0688792
0.0931802
0.110502
0.0705886
0.069031
0.0603849
0.0671382
0.0941426
0.119794
0.123133
0.0982316
0.0694748
0.0662808
0.0871735
0.102505
0.11358
0.094629
0.0695586
0.0660354
0.08562
0.0993634
0.114678
0.0968045
0.0711043
0.0629069
0.0714626
0.0726424
0.12481
0.0983504
0.0700492
0.0725142
0.102755
0.128043
0.106278
0.0902247
0.0684284
0.0717278
0.0972296
0.116766
0.106254
0.0904817
0.0686427
0.0724181
0.098011
0.116655
0.103436
0.0887644
0.0683943
0.0739138
0.0998328
0.118624
0.0760307
0.0741712
0.0645348
0.0728357
0.100762
0.12752
0.130769
0.105228
0.0749838
0.0710583
0.0930933
0.109271
0.121628
0.101587
0.0745723
0.0710954
0.0915161
0.105988
0.122781
0.103589
0.0771423
0.0674828
0.076506
0.0775127
0.131138
0.103473
0.0744277
0.0773409
0.109063
0.135629
0.111916
0.0951809
0.0726177
0.0771928
0.104694
0.125552
0.108281
0.0931325
0.0720321
0.0781068
0.105923
0.125794
0.0797286
0.0778722
0.0679434
0.0765784
0.105704
0.133702
0.140185
0.112201
0.0798046
0.0738505
0.0951056
0.1105
0.130435
0.109293
0.0801427
0.0698019
0.0789918
0.0799622
0.138986
0.109515
0.079012
0.0824866
0.115994
0.14393
0.119019
0.101851
0.0779422
0.0811832
0.110663
0.132726
0.114879
0.0989774
0.0765957
0.0818242
0.111314
0.132586
0.0827019
0.0813623
0.0717108
0.0795909
0.110437
0.140155
0.147615
0.117741
0.0832868
0.0769676
0.0993682
0.11553
0.137478
0.115088
0.0837738
0.0725027
0.0820203
0.0831222
0.144116
0.113623
0.0818173
0.0857224
0.121685
0.15222
0.120636
0.103745
0.0803769
0.0870985
0.118806
0.142226
0.0851645
0.0848078
0.0756224
0.0834338
0.11603
0.14755
0.156784
0.125243
0.0880555
0.0811256
0.104493
0.121134
0.144853
0.121049
0.0880463
0.0760498
0.0856758
0.0865566
0.150783
0.118542
0.0850465
0.0894764
0.127298
0.160365
0.125178
0.107693
0.0831798
0.0900867
0.124246
0.14863
0.0885488
0.0880068
0.0781702
0.0881827
0.122287
0.155342
0.167142
0.133942
0.0945348
0.087676
0.112237
0.128705
0.153981
0.128345
0.0933128
0.0802547
0.0901081
0.0907807
0.157858
0.124399
0.0899602
0.094358
0.133997
0.168224
0.130445
0.112225
0.0871605
0.0944254
0.130005
0.156653
0.0926049
0.0920339
0.0819054
0.0916399
0.126696
0.160514
0.173208
0.13851
0.0974912
0.0895017
0.114429
0.132311
0.1633
0.136203
0.099384
0.0857359
0.09506
0.0951451
0.16111
0.128963
0.0947557
0.100867
0.144202
0.180073
0.094943
0.0943828
0.0845823
0.0949642
0.131104
0.166183
0.180062
0.143549
0.100489
0.0919069
0.117572
0.136024
0.16709
0.138997
0.100797
0.086546
0.0970708
0.097809
0.164157
0.130809
0.096205
0.104906
0.15025
0.187664
0.0964912
0.0970777
0.0881402
0.100219
0.1356
0.169834
0.194264
0.154264
0.108029
0.0888659
0.0983965
0.0983465
0.175918
0.138898
0.10049
0.107396
0.153927
0.194201
0.14371
0.124426
0.0974049
0.107713
0.149186
0.179357
0.103194
0.102545
0.0916805
0.102017
0.137587
0.171851
0.200389
0.160203
0.112291
0.0936062
0.102652
0.102291
0.177508
0.142381
0.10587
0.114393
0.163584
0.205535
0.103226
0.103111
0.093369
0.103657
0.140314
0.175669
0.207678
0.164757
0.114581
0.0938057
0.103476
0.103511
0.177448
0.141667
0.104757
0.116114
0.16741
0.210437
0.105954
0.106052
0.0960935
0.107763
0.144784
0.181096
0.218097
0.173913
0.121263
0.093952
0.0975389
0.0927093
0.123358
0.115159
0.0980686
0.105116
0.144847
0.185166
0.225091
0.175118
0.119021
0.0958252
0.104736
0.103619
0.182632
0.145387
0.107757
0.123615
0.179946
0.227968
0.092739
0.0978506
0.0959169
0.105724
0.122928
0.130207
0.191684
0.150441
0.10958
0.123581
0.183354
0.236834
0.0934246
0.0978048
0.0939462
0.100917
0.118842
0.127861
0.191252
0.149666
0.108399
0.12948
0.191232
0.243777
0.0921658
0.0988521
0.0974876
0.106376
0.123674
0.130057
0.190219
0.14843
0.107819
0.127737
0.190642
0.246816
0.091169
0.0966329
0.0941985
0.0991294
0.110683
0.114154
0.130201
0.120403
0.102656
0.115004
0.156222
0.197686
0.248675
0.190667
0.125353
0.0906862
0.0936625
0.0891457
0.10396
0.102277
0.0925968
0.0916243
0.100313
0.102629
0.107817
0.105691
0.0937201
0.0927582
0.111918
0.120012
0.177076
0.135306
0.0969089
0.123916
0.190429
0.249934
0.084253
0.0895933
0.0875608
0.0868361
0.0962025
0.0968219
0.0919038
0.0882262
0.0776825
0.0764994
0.0875761
0.0900653
0.0868388
0.0833868
0.0707866
0.0662711
0.0796343
0.0837289
0.0806937
0.0760822
0.0619428
0.0590611
0.0737678
0.0788412
0.0768952
0.0715917
0.0564003
0.0542085
0.0698088
0.0755682
0.0741867
0.068157
0.0522571
0.0506008
0.0667618
0.0731515
0.0721089
0.0654627
0.0491006
0.0477329
0.064245
0.0712152
0.0703489
0.0632173
0.0465753
0.045341
0.0620057
0.069541
0.068615
0.0609709
0.0442959
0.0433472
0.0599984
0.0678771
0.0670855
0.0590784
0.0424848
0.0417033
0.0582147
0.0664096
0.0656748
0.0573972
0.0409921
0.0403489
0.0566322
0.0650513
0.0643664
0.0559086
0.0397652
0.0392405
0.0552329
0.0637888
0.0631481
0.0545931
0.0387657
0.0383407
0.0539968
0.0626115
0.0620099
0.0534316
0.0379579
0.0376186
0.0529071
0.0615114
0.060949
0.0524108
0.0373145
0.0370475
0.0519524
0.0604879
0.0599613
0.0515177
0.036809
0.0366016
0.0511175
0.0595345
0.0590423
0.0507374
0.0364169
0.0362584
0.0503889
0.0586494
0.0581913
0.0500565
0.0361183
0.036
0.0497527
0.0578315
0.0574056
0.049461
0.0358952
0.0358082
0.049195
0.0570765
0.0566809
0.0489381
0.0357309
0.0356688
0.0487052
0.0563816
0.0560158
0.0484791
0.0356139
0.0355716
0.0482759
0.0557464
0.0554104
0.0480772
0.0355342
0.0355074
0.0478998
0.0551694
0.0548607
0.0477245
0.0354832
0.0354681
0.0475687
0.0546462
0.0543636
0.0474171
0.0354593
0.0354526
0.0472793
0.0541739
0.0539141
0.0471454
0.0354531
0.035452
0.0470228
0.0537472
0.0535099
0.0469037
0.0354564
0.0354577
0.0467948
0.0533641
0.0531458
0.0466884
0.0354644
0.0354672
0.046592
0.0530187
0.05282
0.0464977
0.0354744
0.0354768
0.0464122
0.0527104
0.0525273
0.046328
0.035484
0.0354864
0.0462526
0.0524333
0.0522666
0.0461783
0.0354927
0.0354939
0.0461117
0.0521868
0.0520318
0.0460452
0.0355
0.0355014
0.0459869
0.0519641
0.0518235
0.0459288
0.0355068
0.0355066
0.0458777
0.0517678
0.0516365
0.0458256
0.0355109
0.0355105
0.0457805
0.0515894
0.0514696
0.0457349
0.0355138
0.0355119
0.0456953
0.0514317
0.0513192
0.0456543
0.0355144
0.0355125
0.0456195
0.0512883
0.0511853
0.0455837
0.0355144
0.0355114
0.0455528
0.0511617
0.0510639
0.04552
0.0355128
0.03551
0.0454923
0.0510455
0.0509553
0.0454631
0.0355108
0.0355068
0.0454383
0.0509424
0.0508557
0.0454113
0.0355071
0.0355035
0.045389
0.0508467
0.0507664
0.0453651
0.0355034
0.0354991
0.0453455
0.0507619
0.050684
0.0453228
0.0354982
0.0354942
0.045305
0.0506823