/*--------------------------------*- C++ -*----------------------------------*\
| =========                 |                                                 |
| \\      /  F ield         | OpenFOAM: The Open Source CFD Toolbox           |
|  \\    /   O peration     | Version:  v2006                                 |
|   \\  /    A nd           | Website:  www.openfoam.com                      |
|    \\/     M anipulation  |                                                 |
\*---------------------------------------------------------------------------*/
FoamFile
{
    version     2.0;
    format      ascii;
    class       volScalarField;
    location    "0.133";
    object      nut;
}
// * * * * * * * * * * * * * * * * * * * * * * * * * * * * * * * * * * * * * //

dimensions      [0 2 -1 0 0 0 0];


internalField   nonuniform List<scalar> 
16277
(
24.4237
17.7422
52.5495
12.6029
18.2506
9.4913
3.745
1.52116
0.819247
0.552927
0.434899
0.375
0.339106
0.313042
0.291142
0.271468
0.253569
0.237467
0.22318
0.210611
0.199567
0.189819
0.181144
0.173357
0.166307
0.159883
0.153995
0.148579
0.143579
0.138953
0.134663
0.130679
0.126972
0.123521
0.120306
0.117307
0.114512
0.111907
0.109479
0.107218
0.105116
0.103163
0.101353
0.09968
0.0981374
0.0967211
0.0954267
0.0942511
0.0931915
0.092246
0.0914131
0.0906923
0.0900834
0.0895868
0.0892023
0.0889336
0.0887832
0.0887549
0.0888532
0.0890803
0.0894436
0.0899509
0.090611
0.0914349
0.0924351
0.0936262
0.0950262
0.0966565
0.0985444
0.100725
0.103245
0.106166
0.109566
0.113537
0.11817
0.123529
0.129616
0.136385
0.143898
0.152813
0.165438
0.188322
0.238292
0.359173
0.668961
1.4064
2.48311
2.65542
1.57356
1.03943
0.511816
0.233367
0.126888
0.059864
0.0141836
0.00255184
8.45541e-05
7.33873e-05
0.00119942
0.00552391
0.00304384
0.00077723
6.42807e-05
5.75592e-05
0.000708649
0.00255969
0.00204249
0.00060913
5.31902e-05
4.97639e-05
0.000590341
0.001937
0.00167604
0.000531764
4.68454e-05
4.48781e-05
0.00052263
0.00163261
0.00148599
0.000487042
4.29385e-05
4.189e-05
0.000489986
0.00147089
0.00137593
0.000463933
4.06087e-05
3.992e-05
0.000468103
0.00136751
0.00129543
0.000447123
3.89746e-05
3.84984e-05
0.00045126
0.00129167
0.00123208
0.000433464
3.77596e-05
3.74142e-05
0.000437481
0.00123092
0.00117929
0.00042182
3.68142e-05
3.65544e-05
0.000425822
0.0011798
0.00113385
0.000411597
3.6047e-05
3.58422e-05
0.000415614
0.00113545
0.00109377
0.000402367
3.53963e-05
3.52294e-05
0.000406336
0.00109609
0.00105777
0.000393853
3.48286e-05
3.46882e-05
0.000397773
0.00106061
0.00102507
0.000385931
3.43203e-05
3.41985e-05
0.000389808
0.00102829
0.0009951
0.000378523
3.38555e-05
3.37475e-05
0.000382366
0.000998659
0.000967436
0.00037157
3.34239e-05
3.33264e-05
0.000375374
0.000971295
0.000941809
0.000365009
3.30184e-05
3.2929e-05
0.000368776
0.000945926
0.000917992
0.000358798
3.26338e-05
3.25508e-05
0.000362526
0.000922335
0.000895815
0.000352903
3.22661e-05
3.21882e-05
0.000356602
0.000900357
0.000875123
0.000347311
3.19126e-05
3.18391e-05
0.000350982
0.000879828
0.000855754
0.000341998
3.15713e-05
3.15016e-05
0.000345639
0.000860584
0.000837547
0.000336934
3.12405e-05
3.11741e-05
0.000340542
0.000842465
0.00082036
0.00033209
3.09184e-05
3.08549e-05
0.000335662
0.000825338
0.00080407
0.000327439
3.06037e-05
3.05424e-05
0.000330973
0.000809084
0.00078857
0.000322955
3.02948e-05
3.02353e-05
0.000326448
0.000793598
0.000773764
0.000318612
2.99903e-05
2.99322e-05
0.00032206
0.000778788
0.000759571
0.000314386
2.96889e-05
2.96318e-05
0.000317786
0.000764575
0.000745919
0.000310258
2.93893e-05
2.93328e-05
0.000313608
0.000750889
0.000732745
0.000306211
2.90904e-05
2.90341e-05
0.000309509
0.000737671
0.000719994
0.000302229
2.8791e-05
2.87345e-05
0.000305474
0.000724869
0.00070762
0.000298299
2.849e-05
2.84331e-05
0.000301492
0.000712441
0.000695594
0.000294414
2.81866e-05
2.8129e-05
0.000297555
0.000700357
0.000683887
0.000290566
2.78798e-05
2.78213e-05
0.000293656
0.000688595
0.000672481
0.000286751
2.75688e-05
2.75095e-05
0.000289803
0.000677137
0.000661364
0.000282973
2.72531e-05
2.71928e-05
0.000286018
0.000665978
0.000650538
0.000279243
2.69323e-05
2.68711e-05
0.000282272
0.000655116
0.000639997
0.000275549
2.66061e-05
2.6544e-05
0.000278574
0.000644549
0.000629745
0.000271903
2.62741e-05
2.62113e-05
0.000274937
0.000634286
0.000619802
0.000268321
2.59365e-05
2.58731e-05
0.000271379
0.000624353
0.000610199
0.000264824
2.55934e-05
2.553e-05
0.000267926
0.000614791
0.000600986
0.000261441
2.52457e-05
2.51827e-05
0.000264612
0.000605738
0.000592258
0.000258211
2.48945e-05
2.48328e-05
0.000261483
0.000597275
0.000584096
0.000255186
2.45415e-05
2.44823e-05
0.000258589
0.000589412
0.000576569
0.000252417
2.41893e-05
2.41339e-05
0.00025599
0.000582283
0.000569825
0.000249971
2.38409e-05
2.37913e-05
0.000253762
0.000576051
0.000564037
0.00024793
2.35003e-05
2.34592e-05
0.000251989
0.000570898
0.0005594
0.000246397
2.31722e-05
2.31444e-05
0.000250712
0.000567021
0.000556137
0.000245444
2.28668e-05
2.28483e-05
0.000249832
0.000564565
0.000554316
0.000244846
2.25963e-05
2.25806e-05
0.000249371
0.000563812
0.000554215
0.000244737
2.23598e-05
2.23465e-05
0.000249399
0.000564775
0.00055581
0.000245156
2.2177e-05
2.21545e-05
0.0002499
0.000567346
0.000559037
0.000246089
2.20459e-05
2.20165e-05
0.000250805
0.000571306
0.00056359
0.000247299
2.19202e-05
2.19335e-05
0.000251939
0.000576547
0.000569401
0.000248581
2.18388e-05
2.18884e-05
0.00025306
0.000582869
0.000576192
0.000249887
2.18045e-05
2.18981e-05
0.000254003
0.000589534
0.00058311
0.000251019
2.18288e-05
2.19529e-05
0.000254781
0.000595926
0.000589629
0.00025184
2.1898e-05
2.20459e-05
0.000255527
0.000601754
0.000595578
0.000252498
2.20058e-05
2.21748e-05
0.000256122
0.000606888
0.000600855
0.000253103
2.21488e-05
2.23346e-05
0.000256662
0.000611276
0.000605356
0.000253438
2.23205e-05
2.25162e-05
0.000257064
0.000614994
0.000608948
0.000253657
2.25131e-05
2.27138e-05
0.000257336
0.000617888
0.000611467
0.000253772
2.27201e-05
2.29203e-05
0.000257477
0.000620329
0.000613219
0.000253816
2.29342e-05
2.31291e-05
0.000257535
0.000621815
0.000614009
0.000253662
2.31491e-05
2.33346e-05
0.000257512
0.000622294
0.000613346
0.000253243
2.33588e-05
2.35312e-05
0.000257112
0.000621518
0.00061191
0.000252692
2.35568e-05
2.37121e-05
0.000256568
0.000619916
0.000609862
0.000252075
2.37371e-05
2.38735e-05
0.000255944
0.000617608
0.000607227
0.000251438
2.38965e-05
2.4013e-05
0.000255259
0.000614639
0.000604073
0.000250802
2.40329e-05
2.41296e-05
0.000254552
0.00061111
0.000600496
0.000250185
2.41458e-05
2.42238e-05
0.000253842
0.000607144
0.000596572
0.000249588
2.4236e-05
2.42971e-05
0.000253127
0.000602801
0.000592368
0.000248999
2.43052e-05
2.43482e-05
0.000252406
0.000598206
0.000587908
0.000248404
2.43545e-05
2.43834e-05
0.000251671
0.000593489
0.000583347
0.00024779
2.4388e-05
2.44053e-05
0.000250915
0.000588703
0.000578747
0.000247156
2.44081e-05
2.44184e-05
0.000250152
0.000583961
0.000574115
0.000246459
2.44156e-05
2.44219e-05
0.000249363
0.000579228
0.000569461
0.000245682
2.44088e-05
2.4414e-05
0.000248555
0.00057449
0.000564821
0.000244895
2.43944e-05
2.43983e-05
0.000247734
0.000569766
0.000560195
0.000244093
2.43737e-05
2.43764e-05
0.000246894
0.000565058
0.000555567
0.000243256
2.43466e-05
2.4349e-05
0.000246015
0.000560343
0.000550899
0.000242377
2.43166e-05
2.43171e-05
0.00024508
0.000555617
0.000546199
0.000241461
2.42815e-05
2.42806e-05
0.000244124
0.000550884
0.000541497
0.000240488
2.42406e-05
2.42408e-05
0.000243134
0.000546166
0.000536857
0.000239505
2.4201e-05
2.41992e-05
0.000242122
0.00054149
0.000532255
0.000238489
2.4146e-05
2.41639e-05
0.000241121
0.000536897
0.000527321
0.000237446
2.40871e-05
2.41157e-05
0.000239852
0.00053254
0.000523175
0.000235739
2.39981e-05
2.41443e-05
0.000239974
0.000531076
0.00052462
0.000239647
2.40828e-05
2.44777e-05
0.000240079
0.000530463
0.000555599
0.000252467
2.46593e-05
2.62687e-05
0.000236764
0.000540168
0.000824925
0.000344138
2.96195e-05
3.1966e-05
0.000178465
0.000409653
0.00101053
0.00231556
0.00432894
0.00617174
0.00743277
0.00976997
0.0112622
0.0126011
0.013355
0.0137156
0.0136144
0.0130087
0.0121465
0.0107635
0.00940741
0.00735155
0.00642347
0.00467408
0.00349706
0.00237527
0.00135022
0.000619824
0.000225956
9.39181e-05
1.81232e-05
1.1787e-05
8.70331e-05
0.000204727
0.00019322
8.25968e-05
1.13311e-05
1.09008e-05
7.96202e-05
0.000183432
0.000184
7.85228e-05
1.08007e-05
1.07342e-05
7.81116e-05
0.000181122
0.000181235
7.73647e-05
1.06315e-05
1.06215e-05
7.73334e-05
0.000180987
0.000181528
7.73752e-05
1.0638e-05
1.06391e-05
7.74806e-05
0.000181919
0.000182209
7.76026e-05
1.06543e-05
1.06646e-05
7.77193e-05
0.000182756
0.000183014
7.78495e-05
1.06746e-05
1.06893e-05
7.79767e-05
0.000183582
0.00018389
7.81213e-05
1.06855e-05
1.07028e-05
7.82829e-05
0.000184467
0.000184786
7.83916e-05
1.07107e-05
1.07308e-05
7.85734e-05
0.000185393
0.000185709
7.86645e-05
1.07303e-05
1.07352e-05
7.89179e-05
0.000186379
0.000186691
7.89948e-05
1.07612e-05
1.0764e-05
7.92217e-05
0.000187367
0.000187684
7.93248e-05
1.07747e-05
1.07789e-05
7.95568e-05
0.000188391
0.000188727
7.96429e-05
1.08049e-05
1.08112e-05
7.98724e-05
0.000189422
0.000189748
7.9966e-05
1.08194e-05
1.08233e-05
8.02069e-05
0.000190467
0.000190797
8.02983e-05
1.08483e-05
1.08516e-05
8.05384e-05
0.000191522
0.000191884
8.06716e-05
1.08647e-05
1.08687e-05
8.09217e-05
0.000192643
0.000192994
8.10427e-05
1.08961e-05
1.09006e-05
8.12982e-05
0.000193774
0.000194142
8.14409e-05
1.09129e-05
1.092e-05
8.17157e-05
0.000194951
0.000195327
8.18609e-05
1.09384e-05
1.09613e-05
8.2083e-05
0.000196152
0.000196539
8.2227e-05
1.0965e-05
1.09716e-05
8.25215e-05
0.00019736
0.000197734
8.26647e-05
1.09919e-05
1.10107e-05
8.287e-05
0.000198527
0.0001989
8.30066e-05
1.10143e-05
1.1021e-05
8.332e-05
0.000199729
0.000200107
8.34737e-05
1.10404e-05
1.10623e-05
8.37088e-05
0.000200916
0.000201288
8.38526e-05
1.10658e-05
1.10701e-05
8.41677e-05
0.000202122
0.000202512
8.43284e-05
1.10906e-05
1.11128e-05
8.45739e-05
0.000203361
0.000203757
8.47186e-05
1.11159e-05
1.11244e-05
8.50514e-05
0.000204608
0.000204992
8.51923e-05
1.11436e-05
1.11657e-05
8.54287e-05
0.000205817
0.000206149
8.55416e-05
1.1167e-05
1.11727e-05
8.58606e-05
0.00020696
0.000207315
8.59804e-05
1.11904e-05
1.12124e-05
8.62165e-05
0.000208098
0.000208453
8.63373e-05
1.12152e-05
1.12228e-05
8.66549e-05
0.000209251
0.000209563
8.6756e-05
1.12415e-05
1.12602e-05
8.69505e-05
0.000210269
0.000210575
8.70147e-05
1.12595e-05
1.12653e-05
8.7271e-05
0.000211231
0.000211481
8.72489e-05
1.12877e-05
1.12868e-05
8.74079e-05
0.000212028
0.000212228
8.73668e-05
1.12887e-05
1.12876e-05
8.74708e-05
0.000212633
0.000212733
8.73367e-05
1.13062e-05
1.12969e-05
8.72915e-05
0.000212978
0.000212918
8.70828e-05
1.12925e-05
1.12805e-05
8.69648e-05
0.000213048
0.000212921
8.6682e-05
1.128e-05
1.12812e-05
8.64011e-05
0.000212926
0.000212676
8.60429e-05
1.12647e-05
1.12508e-05
8.57438e-05
0.000212642
0.00021219
8.52407e-05
1.12495e-05
1.1244e-05
8.47049e-05
0.000212008
0.000211378
8.40699e-05
1.1221e-05
1.12069e-05
8.35984e-05
0.000211368
0.000210553
8.28403e-05
1.12147e-05
1.11969e-05
8.21772e-05
0.000210156
0.000209192
8.1255e-05
1.11773e-05
1.11559e-05
8.05038e-05
0.000208788
0.000207703
7.95833e-05
1.1162e-05
1.11758e-05
7.8752e-05
0.000207556
0.000206528
7.78395e-05
1.11795e-05
1.12159e-05
7.7198e-05
0.000206918
0.000206436
7.6411e-05
1.127e-05
1.13275e-05
7.57728e-05
0.000206738
0.000206406
7.49679e-05
1.13832e-05
1.14566e-05
7.44664e-05
0.000207102
0.00020792
7.35201e-05
1.15505e-05
1.16742e-05
7.32811e-05
0.000210588
0.000213777
7.41435e-05
1.17979e-05
1.1912e-05
7.44126e-05
0.00021637
0.000217935
7.39505e-05
1.19407e-05
1.20235e-05
7.25664e-05
0.00022103
0.000224682
7.6434e-05
1.21955e-05
1.23135e-05
7.41802e-05
0.000227739
0.000230792
7.60114e-05
1.25172e-05
1.26662e-05
7.70191e-05
0.000236464
0.000238105
7.86898e-05
1.28779e-05
1.31764e-05
8.28011e-05
0.00024547
0.000246596
8.5018e-05
1.34731e-05
1.37283e-05
8.86757e-05
0.000253086
0.000255919
9.19718e-05
1.42395e-05
1.53417e-05
0.000107414
0.000267745
0.000266344
0.000113269
1.15165e-05
8.89803e-06
2.7798e-05
7.51778e-05
0.000206991
6.40538e-05
1.03643e-05
1.08807e-05
5.72854e-05
0.000190009
0.000199742
5.93736e-05
1.11353e-05
1.13097e-05
5.62778e-05
0.000191185
0.00020609
6.09074e-05
1.16868e-05
1.20202e-05
5.99734e-05
0.000203213
0.000223381
6.80938e-05
1.23956e-05
1.28245e-05
6.76297e-05
0.000219204
0.000240705
7.91074e-05
1.33358e-05
1.41041e-05
8.17965e-05
0.00024316
0.000272778
0.000100195
1.56554e-05
1.19573e-05
0.000110274
0.000279293
7.57666e-05
2.6351e-05
9.63158e-06
1.1325e-05
7.02226e-05
0.000233435
0.000227942
6.51225e-05
1.23421e-05
1.3052e-05
8.4916e-05
0.000281362
0.000287047
8.60481e-05
1.36528e-05
1.43899e-05
0.000100082
0.000318738
0.000327117
0.000106782
1.53922e-05
1.71951e-05
0.000126871
0.000357351
0.000346671
0.000137212
1.33711e-05
1.0077e-05
3.09962e-05
9.11472e-05
0.000282106
8.29637e-05
1.20206e-05
1.29821e-05
7.71457e-05
0.000276657
0.000318628
9.57658e-05
1.38789e-05
1.49379e-05
9.63574e-05
0.000314624
0.000358461
0.000124148
1.72806e-05
1.37735e-05
0.000143023
0.000360383
9.8459e-05
3.16123e-05
1.02551e-05
1.25773e-05
8.76046e-05
0.000320828
0.000330826
9.24505e-05
1.42631e-05
1.65776e-05
0.000131623
0.000428003
0.000448271
0.000156058
1.94758e-05
1.58999e-05
0.000179485
0.000452265
0.000126464
3.72975e-05
1.08139e-05
1.37934e-05
0.000118396
0.00040134
0.000399083
0.000115337
1.62788e-05
2.03065e-05
0.000172218
0.000504868
0.000512882
0.000200674
1.69349e-05
1.13267e-05
4.21676e-05
0.000157421
0.000518465
0.000152158
1.60593e-05
2.04107e-05
0.000161525
0.000558116
0.000772695
0.000271858
2.77251e-05
2.31362e-05
0.000289748
0.000742029
0.000261298
6.86824e-05
1.50798e-05
2.68141e-05
0.000279867
0.000803931
0.000803424
0.000299212
2.49814e-05
1.69403e-05
7.65819e-05
0.000315793
0.00111835
0.000371748
3.72829e-05
3.68149e-05
0.000429281
0.00121616
0.000553445
0.000152884
2.33892e-05
3.72145e-05
0.000497413
0.00144982
0.000957681
0.000317522
2.47798e-05
4.59952e-05
0.000559819
0.00112916
0.000968672
0.000468338
3.78189e-05
3.83138e-05
0.000446471
0.00106259
0.00136331
0.000492834
4.39683e-05
6.0776e-05
0.000920459
0.00227283
0.00050651
0.000157503
3.45641e-05
3.53835e-05
0.000441679
0.00101217
0.000313041
0.000111899
2.46904e-05
2.69088e-05
0.000273349
0.000656772
0.000560676
0.00020085
2.68543e-05
1.48326e-05
5.18407e-05
0.000161686
0.00037879
0.000211841
1.78123e-05
1.67894e-05
6.76661e-05
0.000173201
0.000419152
0.000183189
1.92078e-05
2.04514e-05
0.000149659
0.000379663
0.000123525
4.62809e-05
1.34973e-05
1.61832e-05
0.00014575
0.000327126
0.000299822
0.000121149
1.78725e-05
1.24298e-05
3.89197e-05
9.89918e-05
0.000277002
0.000122071
1.44544e-05
1.68389e-05
0.000106815
0.000254926
8.95525e-05
3.73094e-05
1.23423e-05
1.38709e-05
0.000110941
0.000245262
0.000221737
9.73685e-05
1.61176e-05
1.18914e-05
3.39891e-05
7.82771e-05
0.000215776
9.79446e-05
1.29494e-05
1.56556e-05
8.67184e-05
0.0001969
7.22981e-05
3.2396e-05
1.19402e-05
1.26801e-05
9.23604e-05
0.00019564
0.000177578
8.14374e-05
1.53085e-05
1.17904e-05
3.06869e-05
6.74472e-05
0.000179605
8.64279e-05
1.22788e-05
1.48187e-05
7.63826e-05
0.000163754
6.34964e-05
3.00345e-05
1.15596e-05
1.21014e-05
8.5817e-05
0.000173685
0.000147357
6.97117e-05
1.52939e-05
1.26983e-05
5.49543e-05
0.000119522
4.77213e-05
2.18518e-05
1.05394e-05
1.02282e-05
5.82306e-05
0.000117954
0.000112531
5.4579e-05
1.3098e-05
1.05527e-05
2.20374e-05
4.59343e-05
0.000109537
5.57636e-05
1.00315e-05
1.28648e-05
5.09739e-05
0.000101189
4.27626e-05
2.13673e-05
1.04221e-05
9.75913e-06
5.23586e-05
9.7793e-05
9.40311e-05
4.99001e-05
1.25643e-05
1.03202e-05
2.06249e-05
4.07741e-05
9.27798e-05
4.9946e-05
9.68485e-06
1.24338e-05
4.6657e-05
8.65389e-05
3.80468e-05
1.97248e-05
1.00686e-05
9.30991e-06
4.55925e-05
8.32655e-05
8.02117e-05
4.45212e-05
1.21972e-05
1.02022e-05
1.93793e-05
3.66726e-05
7.96953e-05
4.46315e-05
9.2814e-06
1.21777e-05
4.27571e-05
7.64171e-05
3.59807e-05
1.95925e-05
1.00824e-05
9.07557e-06
4.16003e-05
7.3629e-05
7.1377e-05
4.00863e-05
1.19678e-05
9.95141e-06
1.78763e-05
3.2158e-05
6.36215e-05
4.72488e-05
8.76331e-06
1.12432e-05
2.21037e-05
3.67202e-05
8.30496e-05
4.74107e-05
1.00033e-05
1.26243e-05
4.38246e-05
7.66534e-05
3.67911e-05
2.12144e-05
1.03149e-05
9.38992e-06
4.54326e-05
7.66339e-05
7.21562e-05
4.21713e-05
1.23805e-05
1.03756e-05
2.1602e-05
3.6427e-05
7.60285e-05
4.56769e-05
9.48561e-06
1.24469e-05
4.24532e-05
7.15839e-05
3.57908e-05
2.17643e-05
1.0401e-05
9.41312e-06
4.32089e-05
6.93607e-05
6.51294e-05
3.90698e-05
1.25214e-05
1.04318e-05
2.12879e-05
3.34555e-05
6.37863e-05
4.00773e-05
9.18436e-06
1.2078e-05
3.6514e-05
6.0018e-05
2.97357e-05
1.95814e-05
9.94575e-06
8.57194e-06
4.06768e-05
5.31256e-05
3.21447e-05
2.20407e-05
1.10978e-05
9.77943e-06
3.89715e-05
6.30116e-05
5.79586e-05
3.54435e-05
1.24136e-05
1.00779e-05
2.10127e-05
3.05804e-05
5.68869e-05
3.71452e-05
8.93828e-06
1.18761e-05
3.43143e-05
5.17561e-05
2.79631e-05
1.99422e-05
9.94708e-06
8.47649e-06
3.73802e-05
4.7811e-05
3.0333e-05
2.20002e-05
1.11485e-05
9.70618e-06
3.77554e-05
5.82184e-05
5.25429e-05
3.42592e-05
1.23121e-05
1.01007e-05
2.14256e-05
2.93209e-05
5.41087e-05
3.60384e-05
8.98382e-06
1.19225e-05
3.27969e-05
4.92852e-05
2.68978e-05
2.00001e-05
9.89937e-06
8.43516e-06
3.4929e-05
4.39455e-05
2.84274e-05
2.15775e-05
1.1151e-05
9.58322e-06
3.51087e-05
5.35892e-05
4.82334e-05
3.21805e-05
1.223e-05
1.00464e-05
2.13351e-05
2.7295e-05
4.86306e-05
3.32023e-05
8.94664e-06
1.18565e-05
3.04206e-05
4.42472e-05
2.48581e-05
1.96219e-05
9.78239e-06
8.33687e-06
3.15577e-05
3.90297e-05
2.59967e-05
2.09462e-05
1.1055e-05
9.34319e-06
3.17921e-05
4.73176e-05
4.2402e-05
2.88301e-05
1.19869e-05
9.76055e-06
2.0031e-05
2.443e-05
3.83367e-05
3.18531e-05
8.18084e-06
1.09759e-05
2.14891e-05
2.59528e-05
4.70968e-05
3.12333e-05
9.28271e-06
1.21605e-05
2.88578e-05
4.22035e-05
2.4615e-05
2.07008e-05
9.94829e-06
8.37289e-06
3.0981e-05
3.77764e-05
2.58883e-05
2.17926e-05
1.10125e-05
9.19057e-06
3.13053e-05
4.61455e-05
4.16325e-05
2.87484e-05
1.19836e-05
9.76153e-06
2.05869e-05
2.43549e-05
3.74088e-05
3.14604e-05
8.13186e-06
1.10054e-05
2.19236e-05
2.57055e-05
4.57567e-05
3.07607e-05
9.29078e-06
1.2161e-05
2.84744e-05
4.07403e-05
2.44116e-05
2.12912e-05
1.00899e-05
8.43576e-06
3.14931e-05
3.68613e-05
2.56971e-05
2.25188e-05
1.116e-05
9.36659e-06
3.04559e-05
4.48705e-05
4.02544e-05
2.81587e-05
1.20835e-05
9.86607e-06
2.09831e-05
2.38928e-05
3.53191e-05
3.083e-05
8.19717e-06
1.08733e-05
2.26739e-05
2.53441e-05
3.85728e-05
2.95805e-05
8.73287e-06
1.13509e-05
2.30796e-05
2.67276e-05
4.56051e-05
3.03196e-05
9.52601e-06
1.21232e-05
2.83359e-05
4.07001e-05
2.46919e-05
2.18465e-05
9.8974e-06
8.24357e-06
3.14679e-05
3.6504e-05
2.57752e-05
2.33008e-05
1.11555e-05
9.35881e-06
3.01816e-05
4.41018e-05
3.95432e-05
2.81717e-05
1.21681e-05
9.96485e-06
2.16501e-05
2.40554e-05
3.49544e-05
3.06401e-05
8.37007e-06
1.1084e-05
2.32313e-05
2.554e-05
3.79944e-05
2.95015e-05
8.95719e-06
1.13347e-05
2.37081e-05
2.66988e-05
4.47837e-05
2.99933e-05
9.38917e-06
1.21761e-05
2.81336e-05
4.00258e-05
2.47115e-05
2.26397e-05
1.00392e-05
8.29418e-06
3.16363e-05
3.59142e-05
2.65793e-05
2.45554e-05
1.11749e-05
8.96667e-06
3.04585e-05
3.91117e-05
2.77032e-05
2.50047e-05
1.14762e-05
9.57217e-06
3.06899e-05
4.57928e-05
4.09722e-05
2.89111e-05
1.238e-05
1.00557e-05
2.31974e-05
2.53857e-05
3.63017e-05
3.23712e-05
8.33724e-06
1.1136e-05
2.47891e-05
2.69171e-05
3.91966e-05
3.08857e-05
8.95524e-06
1.14755e-05
2.53244e-05
2.79734e-05
4.59381e-05
3.10081e-05
9.56928e-06
1.23306e-05
2.92587e-05
4.10447e-05
2.58118e-05
2.39882e-05
1.01641e-05
8.48148e-06
3.27211e-05
3.68984e-05
2.76516e-05
2.5753e-05
1.13543e-05
9.19073e-06
3.15945e-05
3.99496e-05
2.87118e-05
2.61127e-05
1.15362e-05
9.54264e-06
3.1326e-05
4.62909e-05
4.14071e-05
2.95483e-05
1.22583e-05
1.01412e-05
2.38415e-05
2.5832e-05
3.63877e-05
3.26269e-05
8.4743e-06
1.13606e-05
2.54348e-05
2.72473e-05
3.88069e-05
3.08138e-05
9.15365e-06
1.16152e-05
2.59048e-05
2.80671e-05
4.46308e-05
3.06395e-05
9.61839e-06
1.24241e-05
2.91234e-05
4.01573e-05
2.56615e-05
2.4169e-05
1.03004e-05
8.52999e-06
3.25562e-05
3.61694e-05
2.73464e-05
2.5661e-05
1.12897e-05
8.93898e-06
3.0466e-05
3.84857e-05
2.8636e-05
2.61845e-05
1.14085e-05
9.07319e-06
3.13472e-05
4.00568e-05
2.94601e-05
2.77162e-05
1.1568e-05
9.64791e-06
3.19464e-05
4.61238e-05
4.12228e-05
3.04059e-05
1.236e-05
1.01263e-05
2.50899e-05
2.6528e-05
3.68997e-05
3.35948e-05
8.50892e-06
1.1351e-05
2.62476e-05
2.79738e-05
3.88246e-05
3.10775e-05
9.14593e-06
1.15235e-05
2.6573e-05
2.91664e-05
4.02534e-05
3.15353e-05
9.14103e-06
1.16196e-05
2.82093e-05
2.98888e-05
4.60307e-05
3.22374e-05
9.64587e-06
1.23972e-05
3.06179e-05
4.12414e-05
2.7018e-05
2.57704e-05
1.03066e-05
8.52687e-06
3.41469e-05
3.73198e-05
2.86622e-05
2.71447e-05
1.14819e-05
9.20705e-06
3.14603e-05
3.97564e-05
3.00024e-05
2.76776e-05
1.16634e-05
9.30796e-06
3.26963e-05
4.1138e-05
3.07848e-05
2.93087e-05
1.17685e-05
9.80108e-06
3.31407e-05
4.69356e-05
4.21718e-05
3.15393e-05
1.25262e-05
1.03051e-05
2.64231e-05
2.7886e-05
3.78062e-05
3.48718e-05
8.57837e-06
1.15428e-05
2.76737e-05
2.93037e-05
3.98445e-05
3.18831e-05
9.17435e-06
1.16668e-05
2.78071e-05
3.02217e-05
4.08651e-05
3.25692e-05
9.26511e-06
1.1829e-05
2.93979e-05
3.08463e-05
4.61712e-05
3.27571e-05
9.78445e-06
1.25772e-05
3.15498e-05
4.19079e-05
2.80881e-05
2.68747e-05
1.03848e-05
8.76508e-06
3.4563e-05
3.76912e-05
2.95375e-05
2.81767e-05
1.16081e-05
9.20439e-06
3.25327e-05
3.98675e-05
3.05209e-05
2.83134e-05
1.16043e-05
9.14685e-06
3.22705e-05
4.0913e-05
3.1456e-05
2.91667e-05
1.16607e-05
9.35265e-06
3.41239e-05
4.20752e-05
3.20079e-05
3.0947e-05
1.17972e-05
9.80045e-06
3.42291e-05
4.73901e-05
4.29443e-05
3.26794e-05
1.25561e-05
1.04031e-05
2.73772e-05
2.9031e-05
3.81108e-05
3.55275e-05
8.63888e-06
1.17069e-05
2.86517e-05
3.02546e-05
4.00547e-05
3.24289e-05
9.35803e-06
1.18507e-05
2.89986e-05
3.12195e-05
4.10698e-05
3.29577e-05
9.30728e-06
1.17439e-05
2.99734e-05
3.18837e-05
4.24538e-05
3.44672e-05
9.39392e-06
1.18823e-05
3.15807e-05
3.25635e-05
4.81973e-05
3.49977e-05
9.87155e-06
1.27102e-05
3.36475e-05
4.37567e-05
3.013e-05
2.89183e-05
1.05333e-05
8.71053e-06
3.71703e-05
3.95168e-05
3.14804e-05
3.01583e-05
1.16716e-05
9.22448e-06
3.41932e-05
4.19744e-05
3.26413e-05
3.02925e-05
1.18175e-05
9.40237e-06
3.46051e-05
4.29572e-05
3.33705e-05
3.13258e-05
1.18094e-05
9.40406e-06
3.61073e-05
4.4151e-05
3.40038e-05
3.28589e-05
1.1939e-05
9.99874e-06
3.62129e-05
4.94584e-05
4.50427e-05
3.47316e-05
1.27405e-05
1.05743e-05
2.96131e-05
3.11978e-05
4.00647e-05
3.74886e-05
8.88024e-06
1.18541e-05
3.07645e-05
3.24345e-05
4.21077e-05
3.4612e-05
9.45654e-06
1.20352e-05
3.08192e-05
3.34184e-05
4.28699e-05
3.45475e-05
9.52258e-06
1.19914e-05
3.1849e-05
3.3851e-05
4.4068e-05
3.6107e-05
9.60617e-06
1.20836e-05
3.36374e-05
3.43547e-05
4.94537e-05
3.68051e-05
1.00162e-05
1.29114e-05
3.55529e-05
4.53993e-05
3.19641e-05
3.07258e-05
1.06812e-05
8.89763e-06
3.88116e-05
4.10464e-05
3.33543e-05
3.18632e-05
1.18955e-05
9.45897e-06
3.56359e-05
4.31912e-05
3.44872e-05
3.20097e-05
1.20632e-05
9.56905e-06
3.58651e-05
4.43118e-05
3.52084e-05
3.29732e-05
1.19907e-05
9.60131e-06
3.74684e-05
4.53511e-05
3.55491e-05
3.45254e-05
1.20792e-05
1.00392e-05
3.75523e-05
5.04816e-05
4.61962e-05
3.62692e-05
1.29723e-05
1.07504e-05
3.11976e-05
3.26949e-05
4.09122e-05
3.90491e-05
8.96774e-06
1.20154e-05
3.22843e-05
3.38348e-05
4.24764e-05
3.5413e-05
9.52077e-06
1.21734e-05
3.23998e-05
3.46523e-05
4.34271e-05
3.56672e-05
9.65009e-06
1.20716e-05
3.3312e-05
3.52216e-05
4.4543e-05
3.69502e-05
9.60034e-06
1.20154e-05
3.42724e-05
3.60689e-05
4.61641e-05
3.86211e-05
9.59902e-06
1.21484e-05
3.60861e-05
3.66629e-05
5.1975e-05
3.9127e-05
1.01171e-05
1.31311e-05
3.78936e-05
4.7864e-05
3.43874e-05
3.32899e-05
1.08817e-05
9.05693e-06
4.12142e-05
4.32705e-05
3.58935e-05
3.46596e-05
1.20888e-05
9.64808e-06
3.83461e-05
4.55003e-05
3.69371e-05
3.47446e-05
1.21896e-05
9.65517e-06
3.85984e-05
4.68009e-05
3.78714e-05
3.56896e-05
1.21022e-05
9.67863e-06
4.04067e-05
4.84904e-05
3.87102e-05
3.75793e-05
1.22571e-05
1.02549e-05
4.06912e-05
5.38032e-05
4.93253e-05
3.93264e-05
1.32803e-05
1.09803e-05
3.44094e-05
3.56685e-05
4.43106e-05
4.25242e-05
9.13788e-06
1.22148e-05
3.56114e-05
3.7175e-05
4.58691e-05
3.917e-05
9.75268e-06
1.23151e-05
3.53844e-05
3.78523e-05
4.65289e-05
3.87958e-05
9.83972e-06
1.22515e-05
3.63447e-05
3.83825e-05
4.77315e-05
4.03097e-05
9.78259e-06
1.23973e-05
3.8107e-05
3.87654e-05
5.30757e-05
4.06079e-05
1.03207e-05
1.35222e-05
3.96746e-05
4.90291e-05
3.62932e-05
3.5502e-05
1.11493e-05
9.20873e-06
4.30782e-05
4.45654e-05
3.784e-05
3.6863e-05
1.23204e-05
9.85094e-06
4.02756e-05
4.6706e-05
3.88989e-05
3.69002e-05
1.23906e-05
9.8e-06
4.02585e-05
4.78003e-05
3.96034e-05
3.77838e-05
1.23236e-05
9.9006e-06
4.16598e-05
4.94487e-05
4.04815e-05
3.98885e-05
1.26012e-05
1.04835e-05
4.24109e-05
5.48615e-05
5.05107e-05
4.13444e-05
1.36338e-05
1.12517e-05
3.6914e-05
3.77567e-05
4.60444e-05
4.49439e-05
9.31019e-06
1.23797e-05
3.78802e-05
3.92451e-05
4.75187e-05
4.11567e-05
9.88485e-06
1.25652e-05
3.78646e-05
4.00097e-05
4.82598e-05
4.10707e-05
9.94875e-06
1.25918e-05
3.89995e-05
4.06571e-05
4.95748e-05
4.24213e-05
1.00204e-05
1.28673e-05
4.11102e-05
4.11816e-05
5.50722e-05
4.31028e-05
1.07763e-05
1.40646e-05
4.23928e-05
5.11022e-05
3.91373e-05
3.88899e-05
1.1583e-05
9.63599e-06
4.62378e-05
4.73682e-05
4.07607e-05
4.00429e-05
1.26211e-05
1.0054e-05
4.38152e-05
4.96575e-05
4.19554e-05
4.02408e-05
1.27987e-05
1.00636e-05
4.37525e-05
5.11077e-05
4.25015e-05
4.18876e-05
1.3011e-05
1.09241e-05
4.37626e-05
5.60026e-05
5.17435e-05
4.30225e-05
1.43448e-05
1.17416e-05
3.92173e-05
3.97519e-05
4.71145e-05
4.64291e-05
9.72566e-06
1.28706e-05
4.03654e-05
4.11343e-05
4.8783e-05
4.35247e-05
1.02493e-05
1.30801e-05
4.04837e-05
4.20302e-05
5.00543e-05
4.31107e-05
1.03287e-05
1.33692e-05
4.26553e-05
4.2556e-05
5.49604e-05
4.3904e-05
1.10583e-05
1.45436e-05
4.34491e-05
5.11939e-05
4.0331e-05
4.0414e-05
1.1882e-05
9.79392e-06
4.71464e-05
4.75514e-05
4.18531e-05
4.16273e-05
1.29854e-05
1.02585e-05
4.40069e-05
4.98289e-05
4.3096e-05
4.21133e-05
1.32624e-05
1.05122e-05
4.46102e-05
5.12875e-05
4.37722e-05
4.38573e-05
1.3501e-05
1.11842e-05
4.49274e-05
5.59792e-05
5.21807e-05
4.46762e-05
1.48727e-05
1.20903e-05
4.136e-05
4.16858e-05
4.80395e-05
4.82381e-05
9.91485e-06
1.33163e-05
4.27213e-05
4.28765e-05
4.98318e-05
4.50522e-05
1.0539e-05
1.35106e-05
4.29327e-05
4.38315e-05
5.14101e-05
4.47728e-05
1.06775e-05
1.3936e-05
4.53911e-05
4.45971e-05
5.66262e-05
4.60649e-05
1.15915e-05
1.52432e-05
4.58344e-05
5.2964e-05
4.2895e-05
4.34877e-05
1.2357e-05
1.01397e-05
4.99306e-05
4.97884e-05
4.45478e-05
4.49998e-05
1.36487e-05
1.08235e-05
4.7352e-05
5.23501e-05
4.60146e-05
4.5449e-05
1.39678e-05
1.11226e-05
4.71702e-05
5.42521e-05
4.71586e-05
4.79807e-05
1.44542e-05
1.20056e-05
4.86307e-05
5.94235e-05
5.56872e-05
4.85451e-05
1.587e-05
1.29021e-05
4.58139e-05
4.56038e-05
5.19955e-05
5.24402e-05
1.05443e-05
1.40251e-05
4.71963e-05
4.68981e-05
5.43837e-05
4.91921e-05
1.11653e-05
1.4722e-05
4.87894e-05
4.79077e-05
5.93892e-05
4.8875e-05
1.22528e-05
1.61448e-05
4.85187e-05
5.58769e-05
4.59939e-05
4.69142e-05
1.32738e-05
1.07606e-05
5.28914e-05
5.24504e-05
4.78335e-05
4.86285e-05
1.4463e-05
1.14885e-05
5.04345e-05
5.53159e-05
4.93623e-05
4.9395e-05
1.48744e-05
1.18435e-05
5.05262e-05
5.7709e-05
5.09627e-05
5.24481e-05
1.54832e-05
1.28796e-05
5.27144e-05
6.34978e-05
5.95582e-05
5.28582e-05
1.70166e-05
1.38764e-05
5.09565e-05
4.99354e-05
5.64186e-05
5.73307e-05
1.12393e-05
1.50637e-05
5.2373e-05
5.16823e-05
5.95211e-05
5.3946e-05
1.20621e-05
1.58609e-05
5.42985e-05
5.28902e-05
6.5074e-05
5.39932e-05
1.29644e-05
1.7331e-05
5.4192e-05
6.15109e-05
5.19723e-05
5.33662e-05
1.45954e-05
1.19815e-05
5.87264e-05
5.83992e-05
5.37266e-05
5.52407e-05
1.59451e-05
1.27785e-05
5.63472e-05
6.20255e-05
5.55046e-05
5.75337e-05
1.67967e-05
1.40058e-05
5.68377e-05
6.79729e-05
6.42366e-05
5.71825e-05
1.85257e-05
1.51489e-05
5.60434e-05
5.46755e-05
6.1405e-05
6.17858e-05
1.22727e-05
1.67177e-05
5.8859e-05
5.6346e-05
6.77666e-05
5.77241e-05
1.39398e-05
1.86283e-05
5.77335e-05
6.45351e-05
5.49651e-05
5.57653e-05
1.51685e-05
1.21128e-05
6.24314e-05
6.12184e-05
5.66071e-05
5.76414e-05
1.6518e-05
1.32345e-05
5.82237e-05
6.39577e-05
5.78703e-05
5.99467e-05
1.758e-05
1.46393e-05
5.85923e-05
6.94318e-05
6.60974e-05
5.94322e-05
1.94786e-05
1.59687e-05
5.89398e-05
5.74113e-05
6.32749e-05
6.37177e-05
1.31043e-05
1.77726e-05
6.2246e-05
5.8977e-05
6.94817e-05
6.03016e-05
1.48858e-05
1.98791e-05
6.05175e-05
6.64562e-05
5.83538e-05
6.01357e-05
1.63922e-05
1.32531e-05
6.4875e-05
6.39935e-05
5.95532e-05
6.29726e-05
1.78846e-05
1.46066e-05
6.0585e-05
6.99916e-05
6.70832e-05
6.11836e-05
1.99554e-05
1.66917e-05
6.06072e-05
5.89549e-05
6.44357e-05
6.47829e-05
1.36669e-05
1.86243e-05
6.43074e-05
6.05908e-05
7.02099e-05
6.15585e-05
1.54518e-05
2.08428e-05
6.215e-05
6.74099e-05
6.0236e-05
6.25031e-05
1.71499e-05
1.38872e-05
6.63443e-05
6.52405e-05
6.16788e-05
6.57137e-05
1.88342e-05
1.55413e-05
6.26958e-05
7.13938e-05
6.85712e-05
6.31273e-05
2.09304e-05
1.71898e-05
6.32528e-05
6.11732e-05
6.64048e-05
6.84594e-05
1.34361e-05
1.88516e-05
6.67305e-05
6.27261e-05
7.22464e-05
6.31577e-05
1.58988e-05
2.17077e-05
6.39172e-05
6.94908e-05
6.28728e-05
6.62896e-05
1.81268e-05
1.47945e-05
6.87134e-05
6.79076e-05
6.48808e-05
7.03484e-05
2.00731e-05
1.6728e-05
6.65799e-05
7.50015e-05
7.22718e-05
6.74938e-05
2.24512e-05
1.85618e-05
6.91434e-05
6.58697e-05
7.09987e-05
7.21278e-05
1.50241e-05
2.0473e-05
7.34293e-05
6.77237e-05
7.85177e-05
6.99084e-05
1.68545e-05
2.24425e-05
6.97899e-05
7.56727e-05
6.87301e-05
7.47e-05
1.96032e-05
1.69163e-05
7.43081e-05
7.7656e-05
7.52431e-05
7.41127e-05
2.35231e-05
1.99582e-05
7.40677e-05
7.00601e-05
7.58315e-05
7.63293e-05
1.6363e-05
2.21406e-05
7.82304e-05
7.26576e-05