/*--------------------------------*- C++ -*----------------------------------*\
| =========                 |                                                 |
| \\      /  F ield         | OpenFOAM: The Open Source CFD Toolbox           |
|  \\    /   O peration     | Version:  v2006                                 |
|   \\  /    A nd           | Website:  www.openfoam.com                      |
|    \\/     M anipulation  |                                                 |
\*---------------------------------------------------------------------------*/
FoamFile
{
    version     2.0;
    format      ascii;
    class       volScalarField;
    location    "0.05";
    object      turbulenceProperties:I;
}
// * * * * * * * * * * * * * * * * * * * * * * * * * * * * * * * * * * * * * //

dimensions      [0 0 0 0 0 0 0];


internalField   nonuniform List<scalar> 
23013
(
0.149982
0.149981
0.149988
0.14999
0.149993
0.149992
0.149993
0.149994
0.149997
0.150003
0.150009
0.150014
0.150017
0.150017
0.150016
0.150015
0.150013
0.150011
0.150009
0.150008
0.150007
0.150006
0.150005
0.150005
0.150004
0.150004
0.150003
0.150003
0.150002
0.150002
0.150002
0.150002
0.150002
0.150001
0.150001
0.150001
0.150001
0.150001
0.150001
0.150001
0.150001
0.150001
0.150001
0.150001
0.150001
0.150001
0.150001
0.150001
0.150001
0.150001
0.150001
0.150001
0.150001
0.150001
0.150001
0.150001
0.150001
0.150001
0.150001
0.150001
0.150001
0.150001
0.150001
0.150002
0.150002
0.150002
0.150002
0.150002
0.150002
0.150002
0.150002
0.150002
0.150002
0.150002
0.150002
0.150002
0.150002
0.150002
0.150002
0.150002
0.150002
0.150002
0.150002
0.150002
0.150002
0.150002
0.150002
0.150001
0.150001
0.150001
0.150001
0.150001
0.150001
0.15
0.15
0.15
0.149999
0.149999
0.149999
0.149998
0.149998
0.149997
0.149996
0.149995
0.149994
0.149995
0.15
0.150011
0.150025
0.150034
0.150029
0.150012
0.149993
0.149974
0.149954
0.149962
0.149981
0.14998
0.149995
0.150007
0.149816
0.14908
0.144714
0.138817
0.145204
0.148397
0.144633
0.136546
0.132494
0.1285
0.132848
0.142346
0.136997
0.125026
0.123872
0.121383
0.122727
0.135129
0.130503
0.117029
0.118166
0.11672
0.115959
0.129291
0.125765
0.11239
0.114564
0.113852
0.112174
0.125154
0.122474
0.110006
0.112417
0.112163
0.1101
0.122145
0.120024
0.108578
0.111115
0.111107
0.108826
0.119883
0.11809
0.107624
0.110273
0.110393
0.107947
0.118064
0.116496
0.106934
0.109707
0.109857
0.107279
0.116539
0.115128
0.106374
0.109286
0.109451
0.106731
0.115222
0.113925
0.105898
0.108941
0.109105
0.106254
0.114049
0.11284
0.105473
0.108637
0.108812
0.105841
0.112999
0.111867
0.105107
0.108373
0.108531
0.105469
0.112037
0.110971
0.104769
0.108112
0.108275
0.105143
0.111167
0.110171
0.104489
0.107879
0.108043
0.104869
0.11039
0.109459
0.104257
0.107665
0.107838
0.10465
0.109704
0.108828
0.104065
0.107458
0.107622
0.104449
0.109078
0.108255
0.103896
0.107254
0.107433
0.104297
0.108527
0.107764
0.103786
0.107092
0.107275
0.104201
0.108053
0.107323
0.103703
0.106946
0.107185
0.104123
0.10762
0.106941
0.103679
0.107079
0.107419
0.104129
0.107259
0.106631
0.103749
0.107427
0.107801
0.104221
0.106965
0.106376
0.103884
0.107835
0.10823
0.104374
0.106725
0.10618
0.104079
0.108285
0.108697
0.10459
0.106547
0.106044
0.104333
0.108764
0.109193
0.104865
0.106428
0.105967
0.104643
0.109271
0.109717
0.105195
0.106369
0.105947
0.105006
0.109804
0.110266
0.105577
0.106366
0.105983
0.105418
0.110362
0.110841
0.10601
0.106419
0.106072
0.105877
0.110945
0.11144
0.106487
0.106524
0.106209
0.106376
0.111549
0.112061
0.107004
0.106677
0.106392
0.106913
0.112174
0.112702
0.107559
0.106875
0.10662
0.107487
0.112818
0.113361
0.108151
0.107119
0.106892
0.108093
0.113478
0.114035
0.108773
0.107403
0.1072
0.108727
0.114152
0.11472
0.109421
0.107723
0.107541
0.109384
0.114836
0.115412
0.110089
0.108074
0.10791
0.110058
0.115524
0.116103
0.110769
0.108448
0.108298
0.110738
0.116207
0.116783
0.111449
0.108837
0.108693
0.111411
0.116876
0.11744
0.112113
0.109224
0.109081
0.112062
0.117517
0.118058
0.112746
0.109598
0.109447
0.112674
0.118115
0.118619
0.113326
0.10994
0.109771
0.11322
0.118648
0.1191
0.113824
0.110226
0.110023
0.11367
0.119091
0.119468
0.114204
0.110425
0.110171
0.113983
0.119424
0.119678
0.114418
0.110494
0.110181
0.114122
0.119602
0.119714
0.114437
0.110411
0.110023
0.114054
0.119599
0.119546
0.114227
0.110142
0.109669
0.113746
0.11939
0.119156
0.113757
0.109659
0.109091
0.113174
0.118941
0.118566
0.113008
0.108939
0.108251
0.112298
0.118213
0.117715
0.111904
0.107916
0.107087
0.111033
0.117157
0.116517
0.110399
0.106559
0.105605
0.109384
0.115803
0.115084
0.108575
0.104916
0.103885
0.107461
0.114289
0.113529
0.106547
0.103079
0.10198
0.105334
0.11265
0.111847
0.10433
0.101083
0.0999331
0.103041
0.110914
0.110109
0.102001
0.0989903
0.0978148
0.100677
0.109167
0.108384
0.0996582
0.0968644
0.0956858
0.0983463
0.107472
0.106728
0.0973913
0.0947735
0.0936138
0.0961266
0.105872
0.105179
0.0952667
0.0927768
0.0916618
0.0940762
0.104397
0.103763
0.0933328
0.0909241
0.0898718
0.0922344
0.103065
0.102491
0.0916098
0.089237
0.0882563
0.0906154
0.101877
0.101358
0.0901071
0.0877187
0.0868142
0.089216
0.100818
0.100355
0.0887995
0.0863651
0.0855355
0.0880021
0.0998833
0.0994715
0.087662
0.0851638
0.0844064
0.0869527
0.0990637
0.0986899
0.0866815
0.0841033
0.0834133
0.0860571
0.0983693
0.0982115
0.0858586
0.083173
0.0825456
0.0853274
0.0980864
0.0981606
0.0852288
0.0823664
0.0818033
0.0847931
0.0981427
0.0983153
0.0847928
0.0816881
0.0811902
0.0844441
0.0983646
0.0985795
0.0845137
0.0811347
0.0807012
0.0842473
0.0986752
0.0989052
0.0843717
0.0806983
0.0803281
0.084186
0.0990349
0.0992667
0.0843614
0.0803709
0.0800626
0.0842511
0.0994231
0.09965
0.0844699
0.0801439
0.079895
0.0844284
0.0998279
0.100046
0.0846818
0.0800065
0.0798141
0.084702
0.100241
0.100446
0.0849811
0.0799476
0.0798081
0.0850556
0.100654
0.100842
0.0853522
0.079959
0.0798664
0.0854721
0.101058
0.101222
0.0857767
0.0800268
0.0799748
0.0859331
0.10144
0.101567
0.0862364
0.0801364
0.0801182
0.0864205
0.101791
0.101884
0.0867175
0.0802751
0.0802813
0.0869126
0.102111
0.102183
0.0871962
0.0804278
0.0804558
0.0873954
0.102387
0.102458
0.0876552
0.0805834
0.0806257
0.0878522
0.102621
0.10269
0.0880795
0.0807335
0.0807844
0.088275
0.102816
0.102874
0.0884692
0.0808698
0.0809197
0.0886602
0.10297
0.103028
0.0888272
0.0809941
0.0810402
0.0890092
0.103101
0.103155
0.0891576
0.0811078
0.0811552
0.0893299
0.10322
0.103259
0.0894591
0.0812081
0.0812474
0.0896122
0.103301
0.103337
0.0897236
0.0812864
0.0813167
0.08986
0.103367
0.103395
0.0899553
0.0813459
0.0813743
0.0900813
0.103429
0.103447
0.0901604
0.0813905
0.0814105
0.0902696
0.103465
0.103483
0.0903327
0.0814129
0.0814243
0.0904283
0.103493
0.103501
0.0904777
0.08142
0.0814281
0.0905665
0.103522
0.103524
0.0906033
0.0814142
0.0814106
0.0906775
0.103529
0.10353
0.0907016
0.0813884
0.0813807
0.0907713
0.103539
0.103537
0.0907856
0.0813513
0.0813356
0.0908449
0.10354
0.103533
0.0908509
0.0812998
0.0812785
0.0909029
0.103535
0.103524
0.0908978
0.0812338
0.0812086
0.0909441
0.103525
0.103514
0.0909321
0.0811574
0.0811287
0.0909724
0.103514
0.103499
0.0909553
0.0810712
0.0810409
0.0909914
0.103497
0.103479
0.0909661
0.0809748
0.0809458
0.0909994
0.103476
0.103461
0.0909702
0.0808732
0.0808363
0.0909955
0.103454
0.103433
0.0909644
0.080759
0.0807284
0.0909895
0.103435
0.103411
0.0909555
0.080645
0.0806165
0.0909783
0.103407
0.103386
0.090941
0.0805281
0.0804976
0.0909594
0.103378
0.103352
0.0909174
0.0804028
0.0803736
0.0909336
0.10335
0.103321
0.0908891
0.0802743
0.0802462
0.0909044
0.103316
0.10329
0.0908566
0.0801416
0.0801194
0.0908754
0.103285
0.103255
0.0908216
0.0800087
0.0799744
0.0908251
0.103244
0.10321
0.0907045
0.0798305
0.0797084
0.0907046
0.103214
0.103098
0.090529
0.0795142
0.0792751
0.0904873
0.103174
0.102758
0.0896573
0.0786852
0.0784156
0.0892683
0.102827
0.102975
0.0889707
0.0781244
0.0778231
0.0886244
0.102916
0.103471
0.0886202
0.0775488
0.0740201
0.0748353
0.0780591
0.0808885
0.0846643
0.0867394
0.088233
0.0890468
0.0893177
0.0890273
0.0881879
0.0867458
0.0835009
0.0810457
0.0775586
0.0747057
0.0737278
0.0736114
0.0804312
0.0938342
0.113297
0.130963
0.132795
0.114302
0.0945365
0.0957388
0.115808
0.134544
0.135522
0.117243
0.0970073
0.097131
0.117502
0.13618
0.136735
0.118253
0.0977753
0.0978922
0.118598
0.137253
0.1378
0.118875
0.0982426
0.0983912
0.119066
0.137935
0.138228
0.11928
0.0986081
0.0985744
0.119208
0.138182
0.138179
0.11923
0.0987001
0.0986201
0.119119
0.138177
0.138161
0.119276
0.0987261
0.0986618
0.119193
0.138117
0.138099
0.119187
0.098781
0.0986753
0.119079
0.138095
0.138089
0.119245
0.0987731
0.0987077
0.119162
0.138049
0.13803
0.119156
0.0988254
0.0987229
0.119048
0.138026
0.138019
0.119214
0.0988203
0.098757
0.119132
0.13798
0.13796
0.119126
0.0988746
0.0987746
0.119018
0.137956
0.137948
0.119184
0.0988713
0.0988099
0.119101
0.137909
0.137888
0.119095
0.0989277
0.0988298
0.118987
0.137884
0.137875
0.119152
0.0989258
0.0988665
0.119071
0.137836
0.137813
0.119064
0.0989852
0.0988892
0.118956
0.137809
0.137798
0.119121
0.0989846
0.0989278
0.11904
0.137759
0.137735
0.119033
0.0990478
0.098954
0.118926
0.137732
0.13772
0.119092
0.0990493
0.0989953
0.119012
0.137681
0.137656
0.119005
0.0991172
0.0990259
0.118899
0.137654
0.13764
0.119066
0.0991215
0.0990706
0.118987
0.137602
0.137576
0.118981
0.0991948
0.0991064
0.118876
0.137574
0.137561
0.119044
0.0992024
0.0991551
0.118966
0.137523
0.137497
0.118962
0.0992817
0.0991962
0.118859
0.137495
0.137481
0.119027
0.0992927
0.0992499
0.118952
0.137444
0.137418
0.118949
0.0993778
0.099297
0.118848
0.137417
0.137403
0.119018
0.0993943
0.0993564
0.118944
0.137367
0.13734
0.118943
0.0994829
0.0994094
0.118844
0.137341
0.137327
0.119016
0.0995058
0.0994737
0.118945
0.137291
0.137265
0.118947
0.0996029
0.0995337
0.118851
0.137267
0.137253
0.119026
0.0996313
0.0996037
0.118958
0.137219
0.137194
0.118963
0.0997343
0.09967
0.11887
0.137196
0.137184
0.119046
0.0997679
0.0997453
0.118983
0.13715
0.137128
0.118991
0.0998762
0.0998165
0.118902
0.137131
0.137121
0.11908
0.0999142
0.0998957
0.119021
0.137089
0.137069
0.119033
0.100025
0.09997
0.118948
0.137073
0.137066
0.119129
0.100067
0.100052
0.119074
0.137035
0.13702
0.11909
0.100179
0.100128
0.11901
0.137024
0.137023
0.119194
0.100223
0.10021
0.119144
0.136992
0.136983
0.119165
0.100333
0.100284
0.119089
0.136988
0.136993
0.119278
0.100376
0.100362
0.119232
0.136964
0.136962
0.119259
0.10048
0.100429
0.119186
0.136968
0.136982
0.11938
0.100514
0.100497
0.119339
0.136953
0.136962
0.119372
0.100606
0.100549
0.119303
0.136965
0.13699
0.119502
0.100624
0.100597
0.119465
0.136967
0.136985
0.119505
0.100694
0.100624
0.119438
0.136994
0.13703
0.119644
0.100687
0.100644
0.11961
0.137013
0.137043
0.119655
0.100724
0.100634
0.119587
0.13706
0.13711
0.119796
0.100677
0.10061
0.119759
0.137104
0.137144
0.119806
0.100665
0.100542
0.119725
0.137173
0.137233
0.119929
0.10055
0.100443
0.119875
0.137244
0.137286
0.119908
0.100455
0.100283
0.119796
0.137333
0.137402
0.119974
0.100234
0.10006
0.119882
0.137435
0.137462
0.119881
0.0999923
0.0997285
0.119689
0.137539
0.137595
0.119814
0.0995452
0.0992901
0.119663
0.137658
0.137655
0.119538
0.0990569
0.0986934
0.119223
0.137757
0.137779
0.119193
0.0983126
0.0979452
0.118929
0.137861
0.1378
0.118553
0.0974765
0.0969808
0.118083
0.137908
0.137856
0.117728
0.0963303
0.0958205
0.117257
0.13791
0.137754
0.116451
0.0950616
0.0944159
0.115723
0.137789
0.137637
0.114833
0.0934703
0.092819
0.114049
0.137536
0.137315
0.112622
0.0917705
0.0909928
0.111567
0.137112
0.136872
0.110072
0.0897589
0.0889769
0.108955
0.136506
0.136067
0.107
0.0876666
0.0867819
0.105671
0.135737
0.135187
0.103724
0.0853021
0.0844166
0.102361
0.134746
0.134092
0.100078
0.0829342
0.0820001
0.0985857
0.133596
0.132887
0.0963314
0.0804581
0.0795843
0.0948017
0.132307
0.131526
0.0924715
0.0781129
0.077212
0.0908732
0.130835
0.129889
0.0884597
0.0758749
0.0750944
0.0867836
0.128911
0.127698
0.084618
0.0741005
0.0735538
0.0830851
0.126523
0.12507
0.0813926
0.0730769
0.0729296
0.0803985
0.123393
0.121498
0.0795251
0.072982
0.0738691
0.0796795
0.119195
0.116102
0.0795737
0.0741944
0.0763227
0.0813576
0.112182
0.109874
0.0824435
0.07772
0.0778065
0.0908907
0.143958
0.13498
0.0940222
0.0786282
0.0769537
0.0918252
0.134627
0.133809
0.0908178
0.0765945
0.0753241
0.0882482
0.132844
0.131691
0.087061
0.0749414
0.0740165
0.0851685
0.130338
0.129168
0.083344
0.07367
0.0729692
0.0820916
0.12778
0.126297
0.0802031
0.0726249
0.072198
0.0790577
0.124767
0.123129
0.0773016
0.0720959
0.0721222
0.0766443
0.12162
0.119953
0.0755425
0.0724251
0.0728796
0.0752946
0.117565
0.115178
0.0753326
0.0737674
0.0746907
0.0757608
0.111844
0.108374
0.0767848
0.0766175
0.0780869
0.0782008
0.105935
0.138927
0.0806294
0.0698698
0.0729339
0.0822145
0.130801
0.130443
0.0779085
0.0716761
0.0717292
0.0776715
0.130698
0.129127
0.0760339
0.0710662
0.0713611
0.0750737
0.127003
0.124999
0.0741506
0.0713878
0.0725057
0.0740299
0.122655
0.119074
0.0736623
0.0727974
0.0750745
0.0745665
0.114789
0.110526
0.0755641
0.0767471
0.0796322
0.0768395
0.107684
0.138022
0.0763303
0.0680593
0.0738481
0.0788354
0.128342
0.126326
0.0756401
0.073458
0.0752472
0.0759347
0.124132
0.121206
0.0748472
0.0754977
0.0773376
0.0750309
0.118344
0.115877
0.0752709
0.0783319
0.0805822
0.0765273
0.112372
0.108852
0.077257
0.0829662
0.0851781
0.0790951
0.106867
0.136002
0.0758204
0.0682031
0.0765007
0.0777423
0.127253
0.124892
0.0744418
0.0761108
0.0784378
0.0753685
0.122676
0.120421
0.0761253
0.0787319
0.0821293
0.0775977
0.116755
0.11253
0.0786697
0.0844296
0.0887668
0.0811871
0.110067
0.136496
0.0767132
0.0702915
0.0807648
0.0797607
0.12637
0.122504
0.0782443
0.0814176
0.0860164
0.0797147
0.118818
0.115918
0.0807338
0.0880408
0.092964
0.0832865
0.113649
0.112395
0.0852627
0.0948689
0.0716227
0.0771778
0.135747
0.127032
0.0806721
0.0849218
0.0852932
0.0792197
0.12482
0.121526
0.0824582
0.0901767
0.0931523
0.0841912
0.11767
0.115483
0.0883598
0.0993253
0.104033
0.0914945
0.115103
0.132558
0.0820319
0.0787141
0.0955276
0.0865331
0.122485
0.119521
0.0885123
0.099445
0.108779
0.0938124
0.117937
0.117294
0.0963843
0.111384
0.0832115
0.0848844
0.13237
0.126097
0.0905135
0.10278
0.105809
0.0926302
0.12357
0.121619
0.0999161
0.116726
0.121762
0.104012
0.121156
0.133457
0.0907284
0.0927894
0.11695
0.100869
0.126911
0.122907
0.104241
0.122633
0.136397
0.113897
0.123555
0.126557
0.119024
0.140531
0.107543
0.100414
0.132727
0.128554
0.116299
0.138404
0.146905
0.123141
0.129893
0.135757
0.138268
0.15942
0.127429
0.111347
0.136099
0.135018
0.13814
0.166998
0.17456
0.147191
0.139729
0.138779
0.118803
0.141942
0.186966
0.152498
0.141718
0.146996
0.167396
0.202154
0.224328
0.196923
0.160313
0.154929
0.1652
0.202322
0.250207
0.219175
0.174852
0.160641
0.17125
0.229157
0.304994
0.261449
0.188246
0.224543
0.317772
0.357931
0.404342
0.315816
0.228907
0.378837
0.550538
0.581428
0.914992
0.845004
0.528185
1
1
1
1
1
0.617608
0.339504
0.540794
0.604513
0.427638
0.380531
0.248993
0.238804
0.330837
0.351052
0.276739
0.226182
0.187264
0.190411
0.242275
0.265865
0.213452
0.18089
0.16192
0.166652
0.202683
0.223002
0.183417
0.15493
0.149798
0.148369
0.171535
0.196392
0.182469
0.153768
0.1394
0.13932
0.118381
0.140095
0.163147
0.14326
0.139597
0.13468
0.118937
0.132097
0.152274
0.131178
0.132811
0.129802
0.122489
0.14338
0.110119
0.101805
0.132176
0.126035
0.112583
0.133927
0.126663
0.108601
0.127078
0.133982
0.0965547
0.0989423
0.121983
0.104635
0.123116
0.123357
0.0998433
0.114312
0.0906161
0.0910376
0.133965
0.1219
0.097455
0.111355
0.104553
0.093504
0.123161
0.134074
0.0865088
0.0844709
0.100947
0.0918353
0.120326
0.12796
0.0864287
0.0864803
0.104742
0.0924865
0.115164
0.116859
0.0877889
0.0950811
0.0887174
0.0843702
0.121163
0.132289
0.0816692
0.0768921
0.0907305
0.0827633
0.114284
0.118957
0.0806213
0.0866349
0.0732497
0.0788266
0.132814
0.113018
0.0786032
0.0864718
0.0826393
0.0779506
0.117475
0.130539
0.0776392
0.0715287
0.0830639
0.0767647
0.111253
0.116523
0.0766039
0.0796416
0.0696157
0.0759387
0.131094
0.110481
0.0741486
0.0796293
0.0767586
0.0745391
0.115616
0.129235
0.0751921
0.0680316
0.0766415
0.0724924
0.108433
0.114251
0.0729844
0.0740365
0.0664842
0.073986
0.129304
0.108375
0.0703411
0.0737207
0.0715229
0.0713278
0.114023
0.128172
0.0730548
0.0650046
0.0714648
0.0686553
0.106808
0.112835
0.0701404
0.069513
0.0642062
0.0725163
0.127356
0.106579
0.0669996
0.0690295
0.0674265
0.0687033
0.112438
0.126593
0.0719562
0.0629958
0.0673267
0.0658329
0.105344
0.111073
0.0674193
0.0657594
0.0620167
0.0719389
0.125637
0.104709
0.0645522
0.0648635
0.0636813
0.0658789
0.110784
0.125676
0.0714984
0.0606908
0.0635392
0.0638783
0.104045
0.109812
0.0646651
0.0622268
0.05961
0.071128
0.12447
0.103495
0.062586
0.061243
0.0600405
0.06256
0.109559
0.124238
0.0714967
0.0582831
0.0598084
0.0618616
0.103419
0.109903
0.0623286
0.0589918
0.0575464
0.0711596
0.124111
0.103101
0.0603046
0.0579228
0.057051
0.0603858
0.109423
0.124111
0.0704582
0.0560743
0.0569438
0.0594308
0.10278
0.109172
0.0591957
0.0554572
0.0555387
0.071349
0.12399
0.103014
0.0590463
0.0560886
0.0542918
0.0583903
0.109178
0.123418
0.070956
0.0546292
0.0551626
0.0580851
0.101556
0.108206
0.0579176
0.0530388
0.0539601
0.0707924
0.123089
0.102782
0.057361
0.054118
0.051889
0.0572212
0.109386
0.124901
0.0708552
0.0532928
0.0535333
0.0570202
0.102536
0.108904
0.0567111
0.0509758
0.0524435
0.0706287
0.123555
0.102731
0.0556295
0.0520155
0.0496118
0.0552988
0.109513
0.124471
0.0705858
0.0514494
0.0510748
0.0549574
0.102528
0.109849
0.0551031
0.0487574
0.0510121
0.0710579
0.126069
0.103394
0.0544512
0.0501255
0.0476153
0.0541665
0.110096
0.125571
0.0702385
0.0498299
0.0487757
0.053044
0.102925
0.110236
0.0533487
0.0464713
0.049709
0.070908
0.127048
0.104239
0.0485294
0.0462111
0.0470162
0.063192
0.117893
0.0977063
0.0502211
0.047279
0.0456609
0.0516565
0.105673
0.120927
0.0690528
0.0483528
0.0480098
0.0522484
0.0992102
0.106192
0.0523933
0.0457929
0.0485042
0.0696313
0.121345
0.100675
0.0516719
0.0470447
0.0452104
0.0523518
0.108356
0.123584
0.0718824
0.0492152
0.0455346
0.0492137
0.102671
0.116665
0.0626351
0.0463259
0.0459563
0.0490406
0.0972779
0.105112
0.0509061
0.0442267
0.0473965
0.0690382
0.119659
0.0993931
0.050469
0.0456662
0.0437855
0.0509012
0.106394
0.121569
0.069395
0.0471293
0.044898
0.050076
0.100704
0.10822
0.0505989
0.043193
0.047869
0.0713003
0.123439
0.102206
0.0476572
0.0436366
0.0448258
0.0621691
0.116437
0.0962861
0.0474195
0.0440347
0.0425609
0.0496914
0.104498
0.119195
0.0688668
0.0462329
0.04416
0.0492592
0.0986727
0.106229
0.0500026
0.0425074
0.047392
0.0710025
0.121574
0.101157
0.0469581
0.0430649
0.044409
0.0619535
0.11542
0.0962746
0.046722
0.0433687
0.0418193
0.0491019
0.104321
0.120247
0.0700079
0.0466855
0.0426435
0.0460975
0.100889
0.114898
0.0617098
0.0441772
0.0432977
0.0468064
0.0948048
0.10141
0.0481781
0.0414687
0.0454528
0.0677398
0.115512
0.0977442
0.0481705
0.0429837
0.0415392
0.049104
0.104947
0.119672
0.0707087
0.0468318
0.0424738
0.0465459
0.100458
0.114257
0.0617097
0.0440848
0.0426078
0.0462106
0.0949619
0.102681
0.0479947
0.0410287
0.0463739
0.069674
0.117932
0.0998829
0.0463278
0.0422401
0.0439772
0.0617755
0.113183
0.0933054
0.046126
0.0425578
0.0408787
0.0478657
0.100358
0.114836
0.0681903
0.0452723
0.042321
0.047659
0.0966492
0.104513
0.0490052
0.0410081
0.0466877
0.0707372
0.119191
0.0998007
0.0461828
0.0419841
0.0440955
0.062252
0.113811
0.0956081
0.0457399
0.0418509
0.0403885
0.0479434
0.103718
0.118796
0.0705296
0.0462246
0.0416392
0.0467245
0.100961
0.114763
0.0615535
0.0436292
0.0412711
0.0449647
0.0940075
0.101581
0.0473557
0.0397675
0.0453878
0.0692752
0.117606
0.0996575
0.0444123
0.0407739
0.0431865
0.0618042
0.113623
0.0943751
0.0447858
0.0408107
0.0395047
0.0472709
0.1025
0.117627
0.0699935
0.0456931
0.0410042
0.044783
0.09964
0.113935
0.0638056
0.0444457
0.0402164
0.0417266
0.0946843
0.108173
0.0600248
0.0426083
0.0407841
0.0444363
0.0914361
0.0989187
0.0465684
0.0394426
0.0450108
0.0681279
0.112973
0.0956218
0.0444077
0.0406458
0.0428468
0.0606621
0.109155
0.0912539
0.0443245
0.0406573
0.0394275
0.046695
0.0989013
0.113716
0.0686629
0.0452621
0.0408286
0.0446569
0.0969222
0.110225
0.0611657
0.0432379
0.0407582
0.04451
0.0919948
0.0996243
0.0469976
0.0395359
0.0456587
0.0690707
0.113723
0.0967855
0.0452368
0.0409442
0.0434646
0.0615526
0.110406
0.092366
0.0446838
0.0408435
0.0395314
0.0472332
0.0996561
0.11517
0.0691472
0.0457502
0.0405401
0.0437109
0.0974283
0.111605
0.0631863
0.0443238
0.0398429
0.0417203
0.0930211
0.106144
0.0600401
0.0425042
0.0400179
0.043568
0.089684
0.0973349
0.0460577
0.0388321
0.045224
0.06813
0.111565
0.0956368
0.0439826
0.0402362
0.0439888
0.0627542
0.109645
0.0922514
0.041647
0.0397273
0.0424042
0.0594024
0.104663
0.0890973
0.0436139
0.0400326
0.0389994
0.0463984
0.0964569
0.110155
0.0679107
0.0451771
0.0402077
0.0442012
0.0933008
0.106922
0.060629
0.0429018
0.0399612
0.0436635
0.0894122
0.0970473
0.0463625
0.0388338
0.0453734
0.0684723
0.112364
0.0958141
0.0434352
0.0399593
0.0440449
0.0622815
0.10947
0.0918978
0.0411781
0.039418
0.0424754
0.0600586
0.104698
0.08898
0.0433809
0.039642
0.0386565
0.0460872
0.0966439
0.110843
0.0682796
0.0454328
0.0398353
0.0441452
0.0951881
0.109239
0.0632742
0.0442171
0.0393923
0.041454
0.0911399
0.103165
0.0593054
0.0421937
0.039248
0.0427836
0.0866793
0.0943145
0.0454158
0.0381817
0.0449398
0.0675089
0.109351
0.0937244
0.042725
0.0393046
0.0434786
0.0616411
0.107717
0.0903535
0.0405543
0.0388264
0.042046
0.0595391
0.102775
0.0874848
0.0428474
0.0391093
0.0381874
0.0455726
0.0950473
0.108837
0.0674766
0.0451768
0.0393215
0.043632
0.0941762
0.108001
0.0622336
0.0438543
0.0388358
0.0409862
0.0909953
0.103392
0.059059
0.0421241
0.0389241
0.0426728
0.0874753
0.0944458
0.0451109
0.0378389
0.0447234
0.0672906
0.109074
0.0930597
0.0423335
0.0387505
0.0432105
0.0610884
0.106612
0.0901112
0.0398431
0.038257
0.0423345
0.0591799
0.102802
0.0873964
0.0398855
0.0379873
0.0413573
0.0585676
0.0993239
0.0842639
0.0421782
0.038414
0.0377259
0.045266
0.0917823
0.105796
0.0665333
0.0446941
0.03889
0.0431293
0.0914358
0.105311
0.0613756
0.0434622
0.0383008
0.040436
0.0890933
0.100959
0.0588604
0.0419086
0.03843
0.0422384
0.0858764
0.0933849
0.0450234
0.0376068
0.0446318
0.0667425
0.107344
0.0917076
0.0422872
0.0384596
0.0430001
0.0601559
0.104932
0.0889105
0.0392886
0.037737
0.0420009
0.0585043
0.101273
0.0864707
0.0396061
0.0375307
0.0413143
0.0581179
0.0982844
0.0843093
0.0419247
0.0378138
0.0371276
0.0447608
0.0914762
0.105161
0.0661682
0.0443832
0.0382412
0.0428019
0.0911483
0.104821
0.0610534
0.0432703
0.0375418
0.0395658
0.0886281
0.100999
0.058437
0.041969
0.0372174
0.0392642
0.0860466
0.0974613
0.0576609
0.041023
0.0375177
0.0416219
0.0837454
0.0907502
0.0441038
0.0368421
0.0439846
0.0655171
0.104062
0.0890811
0.0419254
0.0378493
0.0426406
0.0598357
0.102595
0.0863277
0.0390347
0.0371673
0.0415657
0.0576775
0.09851
0.0841975
0.0390256
0.0369574
0.0409205
0.0573047
0.0955291
0.0821549
0.0414758
0.0372103
0.0365812
0.0443542
0.0892483
0.102717
0.0652373
0.0441627
0.0377875
0.0422921
0.0888688
0.102408
0.0602571
0.0429605
0.0370011
0.0393032
0.0874277
0.0993433
0.0577357
0.041644
0.0365473
0.0387231
0.0847423
0.0958233
0.0570198
0.040663
0.0367888
0.0409781
0.0818103
0.0887809
0.0438787
0.0361949
0.0436809
0.0647568
0.101521
0.0871776
0.0418818
0.0373906
0.0425397
0.0597419
0.100667
0.0856219
0.0389933
0.0366563
0.0412929
0.0571082
0.0975644
0.0837093
0.0384029
0.036266
0.0405047
0.0565784
0.0948088
0.0816883
0.0408882
0.0363784
0.0358158
0.0438461
0.0885948
0.101745
0.0649358
0.0436767
0.0371373
0.041912
0.0880713
0.101409
0.0598432
0.0426698
0.0363375
0.0387321
0.0862114
0.0980482
0.057586
0.0413586
0.0358019
0.038351
0.0837931
0.0950974
0.05661
0.0402698
0.0358102
0.0403871
0.0814394
0.0884698
0.0434787
0.0352901
0.0433613
0.0650226
0.102561
0.0883878
0.041101
0.036624
0.0418578
0.058594
0.100805
0.0855806
0.0377515
0.0357544
0.0408679
0.0569857
0.0974986
0.0835579
0.0379175
0.0353489
0.0402379
0.056032
0.0952271
0.0818736
0.0377381
0.0351707
0.0396401
0.0556214
0.0927266
0.0794482
0.0398435
0.0352906
0.0348331
0.0430579
0.0861485
0.0990099
0.0636498
0.043035
0.0364157
0.0411705
0.0861468
0.0993792
0.0588362
0.042028
0.0356213
0.0381572
0.0850191
0.096789
0.0567578
0.0408952
0.0351946
0.0375389
0.0827893
0.0942464
0.0559299
0.0403013
0.0349501
0.037836
0.0812575
0.0919842
0.055554
0.0395447
0.0350513
0.0397747
0.0789734
0.0854785
0.0425642
0.0345557
0.0425699
0.062828
0.0976992
0.0845008
0.0405949
0.0359787
0.0415464
0.0581507
0.097518
0.0835084
0.0378646
0.0353029
0.040372
0.0557293
0.0947027
0.080998
0.0370661
0.0348522
0.039863
0.0551074
0.0919774
0.079383
0.0376449
0.0347265
0.0392554
0.0548102
0.0896184
0.0771559
0.0394875
0.0347181
0.0343582
0.04271
0.0838347
0.0970863
0.0629071
0.0427265
0.0359176
0.0403812
0.0839394
0.096558
0.0577804
0.041457
0.0351274
0.0376575
0.0825774
0.0941684
0.055908
0.0404487
0.0347032
0.0374534
0.0808751
0.091928
0.0552965
0.039936
0.0344405
0.0375649
0.0792369
0.0895773
0.0548473
0.0391672
0.0343591
0.0391944
0.0768441
0.083106
0.0419229
0.033954
0.0422494
0.0620731
0.095768
0.0834945
0.039975
0.0353326
0.0407356
0.0566765
0.0957865
0.0815955
0.0367273
0.034514
0.03986
0.0552543
0.0924981
0.07933
0.0369468
0.0341703
0.0393798
0.0545562
0.0901557
0.0776215
0.0370216
0.0340314
0.0387961
0.0539137
0.0877351
0.0755722
0.0387228
0.0339554
0.0336788
0.0420376
0.0819249
0.0941555
0.0614052
0.0420488
0.0351212
0.0400288
0.0820524
0.0948014
0.0571638
0.0410166
0.0344151
0.037311
0.0808032
0.0918525
0.0553745
0.0399465
0.0339825
0.0369223
0.079179
0.0901574
0.0543823
0.0392724
0.0336919
0.0369023
0.0780509
0.0878327
0.0536222
0.0385236
0.0334922
0.0383547
0.0753869
0.0816414
0.0413949
0.033191
0.0418215
0.0615102
0.0941365
0.0814255
0.0394809
0.0346616
0.040343
0.0560926
0.0934419
0.0798028
0.0363039
0.0339038
0.0393498
0.0543668
0.0906752
0.0777474
0.0363983
0.0335213
0.0388143
0.0537522
0.0883091
0.0761456
0.036628
0.0333484
0.0382547
0.053326
0.0859725
0.0741349
0.0382208
0.0331977
0.0330082
0.041446
0.0803873
0.0923833
0.0604991
0.0416716
0.0345656
0.0393725
0.0803004
0.0928888
0.0563793
0.0406116
0.0337742
0.0369014
0.0798862
0.0904879
0.0543225
0.0393283
0.0332483
0.0361247
0.078198
0.0887503
0.0535365
0.0387608
0.0329956
0.0360938
0.0767051
0.0868987
0.0531802
0.0383863
0.0328574
0.0363451
0.0750722
0.0847844
0.0525749
0.0377749
0.0326553
0.0376851
0.0732394
0.0790732
0.0404329
0.0324304
0.0408294
0.0594932
0.0903561
0.0784582
0.0389367
0.0338489
0.039675
0.0551924
0.0904875
0.0774583
0.0361669
0.0331848
0.0386213
0.0532616
0.0876908
0.0756903
0.0356631
0.0328293
0.0381612
0.0525261
0.0857166
0.0739661
0.0360037
0.032702
0.0376435
0.0521649
0.0834256
0.0724841
0.0376921
0.0325039
0.0323796
0.0404249
0.0782901
0.0897534
0.0593148
0.040955
0.0338283
0.0386448
0.0784326
0.0905555
0.0552003
0.0398496
0.0330012
0.036165
0.0772577
0.0874995
0.0531439
0.038585
0.032456
0.0354883
0.0753713
0.0854299
0.0522782
0.0378788
0.0322603
0.0355287
0.0739023
0.0832085
0.0518357
0.0372584
0.0320212
0.0371151
0.0715105
0.0773181
0.0400876
0.0318276
0.0403895
0.0585333
0.08853
0.0770211
0.0381412
0.0333421
0.0392282
0.0541363
0.0887467
0.0763154
0.0354232
0.0326404
0.0381055
0.0522362
0.0861196
0.0742155
0.0351202
0.0322123
0.0375535
0.0516982
0.0839783
0.0726757
0.0353539
0.0320597
0.0370662
0.0513891
0.0819639
0.0709493
0.0370374
0.0318575
0.0317702
0.0400979
0.0767362
0.0880186
0.0582455
0.0404389
0.0332306
0.0379384
0.0767156
0.0885515
0.0541024
0.0392991
0.0324671
0.0354832
0.0762652
0.086152
0.0521685
0.0380363
0.0318046
0.0346058
0.0739317
0.0835376
0.0514392
0.0373353
0.0315842
0.0350455
0.0723097
0.0816269
0.0510285
0.0366909
0.0313341
0.0364414
0.0703275
0.0758396
0.0392343
0.0311796
0.0397456
0.0573989
0.0866655
0.0751983
0.0373867
0.0326944
0.0386717
0.0534891
0.0865653
0.074439
0.0352494
0.0319679
0.0374825
0.051437
0.084187
0.072732
0.0345336
0.0315018
0.0368669
0.0506621
0.0821168
0.0712101
0.0346379
0.0312998
0.0364057
0.0503964
0.0800385
0.0693264
0.0363449
0.0310883
0.0310394
0.0390509
0.0748641
0.0858213
0.0570037
0.0396301
0.0324684
0.0371758
0.0746955
0.0861199
0.0530218
0.0384853
0.0317274
0.0348037
0.0739039
0.0833352
0.0511135
0.0372896
0.0310804
0.034257
0.071837
0.0808687
0.0500159
0.0364829
0.0308222
0.0340895
0.0701676
0.0789612
0.0497323
0.035913
0.0305991
0.0357133
0.0680317
0.0735056
0.0385722
0.0305194
0.0389893
0.0560301
0.0839968
0.0731693
0.0367534
0.0320639
0.0378929
0.052068
0.0838512
0.0720906
0.0343701
0.0313767
0.0368644
0.0502873
0.0813485
0.0702837
0.0339735
0.0309731
0.0363229
0.049691
0.079133
0.0685302
0.0342322
0.0307891
0.0357208
0.0490449
0.0769767
0.0667688
0.0356345
0.0305015
0.0304912
0.0384446
0.0723796
0.0832128
0.0561314
0.0390161
0.0320348
0.036818
0.0725485
0.0832354
0.0516953
0.0376984
0.0311282
0.0339488
0.0712979
0.0801752
0.0496672
0.0365426
0.0305259
0.0337624
0.0690957
0.0772388
0.0487673
0.0354876
0.029993
0.0350131
0.0664077
0.0718985
0.0376069
0.0299288
0.0384896
0.055347
0.0822606
0.0715232
0.0362168
0.0314522
0.0374715
0.0514921
0.0821649
0.0705776
0.0341313
0.0308977
0.0363253
0.049399
0.0795027
0.06875
0.0334354
0.0303599
0.0356301
0.0486227
0.0772184
0.0669844
0.033568
0.0301008
0.0349512
0.0479588
0.0749621
0.0647786
0.0346107
0.0297488
0.0297536
0.037496
0.0702876
0.0805452
0.0544485
0.0381419
0.0313965
0.0360183
0.0704045
0.0804699
0.0505249
0.0370664
0.0305935
0.0336345
0.0691636
0.0777557
0.0486842
0.0359472
0.0300505
0.0332634
0.0670977
0.0749181
0.0478129
0.0350184
0.0294253
0.0344655
0.0646953
0.070041
0.0368184
0.0293457
0.0376938
0.053993
0.0799705
0.0688178
0.0352347
0.030832
0.0365773
0.0499777
0.0788676
0.0681828
0.033398
0.0301234
0.0355291
0.0482806
0.0767088
0.0663452
0.0330353
0.0297187
0.0346791
0.0474131
0.0740666
0.0639396
0.0341567
0.029265
0.02931
0.0369967
0.0694807
0.0794857
0.0539022
0.0377424