/*--------------------------------*- C++ -*----------------------------------*\
| =========                 |                                                 |
| \\      /  F ield         | OpenFOAM: The Open Source CFD Toolbox           |
|  \\    /   O peration     | Version:  v2006                                 |
|   \\  /    A nd           | Website:  www.openfoam.com                      |
|    \\/     M anipulation  |                                                 |
\*---------------------------------------------------------------------------*/
FoamFile
{
    version     2.0;
    format      ascii;
    class       volVectorField;
    location    "0.05";
    object      U;
}
// * * * * * * * * * * * * * * * * * * * * * * * * * * * * * * * * * * * * * //

dimensions      [0 1 -1 0 0 0 0];


internalField   nonuniform List<vector> 
23013
(
(38.2153 0.00119659 3.55951e-19)
(38.2154 -0.00267645 -3.08657e-19)
(38.2152 0.00271516 0)
(38.215 -0.00214246 -7.52158e-19)
(38.215 0.000287689 6.21814e-19)
(38.2146 -0.000783565 -1.63308e-19)
(38.2137 -0.000355693 -2.6404e-19)
(38.2099 -0.00109913 0)
(38.198 -0.00250105 -3.61056e-19)
(38.1733 -0.0051441 4.45813e-19)
(38.1349 -0.00880722 0)
(38.0866 -0.0129231 0)
(38.0333 -0.0169326 0)
(37.9785 -0.0205566 4.6706e-22)
(37.9236 -0.023775 0)
(37.8688 -0.0266756 0)
(37.8134 -0.0293607 0)
(37.7568 -0.0319071 0)
(37.6984 -0.0343586 0)
(37.6378 -0.0367333 0)
(37.5749 -0.0390342 0)
(37.5094 -0.0412597 0)
(37.4415 -0.0434095 0)
(37.3712 -0.0454874 0)
(37.2984 -0.0475005 0)
(37.2233 -0.049458 0)
(37.1458 -0.0513693 0)
(37.066 -0.0532427 0)
(36.9837 -0.0550851 0)
(36.899 -0.0569001 0)
(36.812 -0.058692 0)
(36.7226 -0.0604613 0)
(36.6309 -0.0622107 0)
(36.5368 -0.0639389 0)
(36.4405 -0.0656461 0)
(36.3419 -0.0673305 0)
(36.241 -0.0689908 0)
(36.138 -0.0706254 0)
(36.0329 -0.0722325 0)
(35.9256 -0.0738102 0)
(35.8163 -0.0753564 0)
(35.705 -0.0768691 0)
(35.5917 -0.078346 0)
(35.4765 -0.0797852 0)
(35.3595 -0.0811846 0)
(35.2407 -0.0825425 0)
(35.1201 -0.083857 0)
(34.9979 -0.0851262 0)
(34.8741 -0.0863485 0)
(34.7488 -0.0875221 0)
(34.622 -0.0886454 0)
(34.4939 -0.0897167 0)
(34.3644 -0.0907344 0)
(34.2336 -0.091697 0)
(34.1017 -0.0926031 0)
(33.9687 -0.093451 0)
(33.8347 -0.0942395 0)
(33.6997 -0.0949669 0)
(33.5639 -0.0956319 0)
(33.4273 -0.0962331 0)
(33.29 -0.0967689 0)
(33.1521 -0.0972379 0)
(33.0137 -0.0976387 0)
(32.8749 -0.0979698 0)
(32.7357 -0.0982298 0)
(32.5963 -0.098417 0)
(32.4568 -0.0985302 0)
(32.3172 -0.0985679 0)
(32.1777 -0.098529 0)
(32.0383 -0.098412 0)
(31.8992 -0.0982162 0)
(31.7604 -0.0979409 0)
(31.6221 -0.0975868 0)
(31.4844 -0.0971518 0)
(31.3473 -0.0966281 0)
(31.2111 -0.0960045 0)
(31.0757 -0.0952895 0)
(30.9413 -0.0944962 0)
(30.808 -0.0936208 0)
(30.676 -0.0926602 0)
(30.5453 -0.091612 0)
(30.4161 -0.0904735 0)
(30.2884 -0.0892448 0)
(30.1624 -0.0879273 0)
(30.0383 -0.08652 0)
(29.916 -0.0850225 0)
(29.7958 -0.0834361 0)
(29.6778 -0.0817618 0)
(29.562 -0.0800005 0)
(29.4485 -0.078153 0)
(29.3376 -0.0762201 0)
(29.2292 -0.0742023 0)
(29.1235 -0.0720994 0)
(29.0206 -0.0699095 0)
(28.9205 -0.0676292 0)
(28.8234 -0.0652526 0)
(28.7293 -0.0627716 0)
(28.6384 -0.060177 0)
(28.5507 -0.0574612 0)
(28.4664 -0.0546204 0)
(28.3855 -0.0516542 0)
(28.308 -0.0485574 0)
(28.2336 -0.0452983 0)
(28.1615 -0.0417846 0)
(28.0909 -0.037821 0)
(28.0211 -0.0331384 0)
(27.9528 -0.0274787 0)
(27.89 -0.021032 3.16426e-20)
(27.8409 -0.0148424 6.23435e-20)
(27.8138 -0.0104613 0)
(27.8078 -0.00824172 -1.74689e-18)
(27.8133 -0.00745566 1.54977e-18)
(27.8219 -0.00715615 5.85591e-18)
(27.8295 -0.00718186 8.43574e-18)
(27.8336 -0.00741954 -1.55049e-17)
(27.8277 -0.00668233 1.70956e-17)
(27.8156 -0.00462671 4.83248e-19)
(27.7892 -0.0107967 0)
(27.7339 -0.0205686 0)
(27.6523 -0.0377745 7.4548e-23)
(27.5276 -0.0515996 -6.29274e-18)
(27.376 -0.0580932 0)
(26.7867 -0.0779345 6.65356e-19)
(26.3663 -0.0717457 -1.87104e-18)
(27.3676 -0.0912048 8.40486e-18)
(27.5619 -0.0818967 -1.15417e-17)
(27.5695 -0.0994288 9.90238e-18)
(27.2981 -0.106585 -3.88092e-18)
(25.8947 -0.0719585 6.77056e-18)
(25.4283 -0.0653391 1.1761e-18)
(27.2252 -0.104199 4.92621e-19)
(27.5786 -0.100822 8.20023e-19)
(27.5605 -0.0956856 4.17475e-19)
(27.1173 -0.094419 -1.02898e-18)
(24.9941 -0.0564086 -1.56892e-18)
(24.5946 -0.0484357 2.19302e-19)
(27.0141 -0.0854837 0)
(27.5388 -0.0913166 4.07144e-19)
(27.4923 -0.0849504 -2.10057e-19)
(26.8847 -0.0772025 0)
(24.2201 -0.0423722 7.69674e-20)
(23.8975 -0.0377347 0)
(26.788 -0.0718506 -9.78859e-19)
(27.4558 -0.0835463 1.0568e-18)
(27.3966 -0.077165 -1.52122e-24)
(26.6582 -0.0650083 -1.06125e-18)
(23.5929 -0.0332182 -1.24552e-18)
(23.3437 -0.0285314 0)
(26.5676 -0.0617753 1.0328e-18)
(27.353 -0.0774446 8.61312e-19)
(27.2817 -0.0713315 -6.7533e-21)
(26.4319 -0.0553526 0)
(23.0955 -0.0255961 0)
(22.8944 -0.0230966 -1.25197e-18)
(26.3403 -0.0537899 1.04262e-18)
(27.2301 -0.0717902 1.39387e-26)
(27.1531 -0.0662038 8.65596e-19)
(26.2052 -0.0480297 -1.04326e-18)
(22.6805 -0.0207123 0)
(22.5129 -0.0195909 1.25287e-18)
(26.1193 -0.0477527 -2.08679e-18)
(27.0986 -0.0671008 8.72455e-19)
(27.0177 -0.0616383 -1.73186e-18)
(25.9878 -0.0429452 0)
(22.3236 -0.0179021 0)
(22.1791 -0.0164919 1.253e-18)
(25.9062 -0.0426043 -2.08713e-18)
(26.9616 -0.062715 8.65975e-19)
(26.8778 -0.0577976 8.66143e-19)
(25.7776 -0.0391341 -2.08733e-18)
(22.0062 -0.0164173 1.25306e-18)
(21.8792 -0.014798 0)
(25.7003 -0.0390169 0)
(26.8217 -0.0596844 1.73237e-18)
(26.7356 -0.0552107 -1.73267e-18)
(25.5739 -0.0359837 0)
(21.7175 -0.0141212 0)
(21.6016 -0.0137266 -1.25324e-18)
(25.499 -0.0371388 1.04388e-18)
(26.6783 -0.0573571 1.73275e-18)
(26.5907 -0.0528354 -1.73302e-18)
(25.3743 -0.0334379 0)
(21.4489 -0.0130482 0)
(21.3431 -0.012976 0)
(25.3031 -0.0355421 0)
(26.5342 -0.0555588 1.7331e-18)
(26.4449 -0.0513869 -1.73334e-18)
(25.18 -0.0322692 0)
(21.1975 -0.0123103 0)
(21.0968 -0.0109328 -1.25345e-18)
(25.1093 -0.0329054 1.04415e-18)
(26.3868 -0.053006 1.73341e-18)
(26.2962 -0.0500743 -1.73363e-18)
(24.9869 -0.0310677 0)
(20.9562 -0.0132009 0)
(20.8645 -0.0100164 0)
(24.9206 -0.030907 0)
(26.2405 -0.0526774 1.73371e-18)
(26.1494 -0.0488349 -1.7339e-18)
(24.8005 -0.0295197 0)
(20.7291 -0.011793 0)
(20.6409 -0.0095918 -1.25363e-18)
(24.7345 -0.0299163 1.04439e-18)
(26.0926 -0.0512136 1.73398e-18)
(25.999 -0.0479435 -1.73416e-18)
(24.6136 -0.0285477 0)
(20.5078 -0.0112591 0)
(20.4234 -0.00912444 0)
(24.5485 -0.0292637 0)
(25.9416 -0.0504001 1.73424e-18)
(25.8459 -0.047275 -1.73441e-18)
(24.4271 -0.0279079 0)
(20.2923 -0.0101831 0)
(20.2093 -0.00867349 0)
(24.3611 -0.0294686 0)
(25.7864 -0.0503013 1.73448e-18)
(25.6906 -0.0478447 -1.73464e-18)
(24.2407 -0.02776 0)
(20.0821 -0.0107223 0)
(20.0045 -0.00951748 1.2539e-18)
(24.1781 -0.0298719 -2.08945e-18)
(25.633 -0.0508226 8.67354e-19)
(25.5351 -0.047476 -1.73486e-18)
(24.0577 -0.0274092 0)
(19.8793 -0.009963 0)
(19.8016 -0.00823109 0)
(23.9933 -0.0283652 0)
(25.4751 -0.0493201 1.73493e-18)
(25.3733 -0.0473425 -1.73507e-18)
(23.8701 -0.0275649 0)
(19.675 -0.00976162 0)
(19.5976 -0.00792742 0)
(23.8049 -0.0278384 0)
(25.3118 -0.0499826 1.73515e-18)
(25.2109 -0.0481144 -1.73527e-18)
(23.6832 -0.0275135 0)
(19.4748 -0.0109118 0)
(19.3984 -0.00824487 0)
(23.619 -0.0281486 0)
(25.1496 -0.0507985 1.73536e-18)
(25.045 -0.0487093 -1.73547e-18)
(23.4942 -0.0279906 0)
(19.2695 -0.0105937 0)
(19.1877 -0.00858679 1.25423e-18)
(23.4271 -0.0290921 -2.09025e-18)
(24.981 -0.0516032 8.6778e-19)
(24.8733 -0.0501152 -1.73566e-18)
(23.2994 -0.0289944 0)
(19.0553 -0.0104686 0)
(18.9703 -0.00959491 0)
(23.2307 -0.03003 0)
(24.8078 -0.0530889 1.73576e-18)
(24.6988 -0.0516071 -1.73586e-18)
(23.1016 -0.0297148 0)
(18.8376 -0.0111182 0)
(18.7501 -0.00986569 0)
(23.0311 -0.0304888 0)
(24.6314 -0.0543308 1.73597e-18)
(24.5196 -0.0528666 -1.73605e-18)
(22.8993 -0.0302804 0)
(18.6154 -0.0113659 0)
(18.5257 -0.0100027 0)
(22.8267 -0.0309869 0)
(24.4501 -0.0555032 1.73616e-18)
(24.3355 -0.0541433 -1.73624e-18)
(22.6924 -0.0308702 0)
(18.3894 -0.0115455 0)
(18.2976 -0.0100945 1.25459e-18)
(22.6175 -0.0314727 -2.09105e-18)
(24.2638 -0.0566821 8.68181e-19)
(24.1461 -0.0553286 -1.73643e-18)
(22.4804 -0.0313901 0)
(18.1598 -0.0116747 0)
(18.0662 -0.010154 0)
(22.4033 -0.0319071 0)
(24.0721 -0.0578033 1.73656e-18)
(23.9516 -0.0565173 -1.73661e-18)
(22.2638 -0.0318931 0)
(17.9272 -0.011786 0)
(17.8319 -0.0102011 0)
(22.1845 -0.0323217 0)
(23.8752 -0.0589192 1.73675e-18)
(23.7516 -0.0576562 -1.7368e-18)
(22.0423 -0.0323552 0)
(17.6917 -0.0118798 0)
(17.5948 -0.010233 0)
(21.9608 -0.0326916 0)
(23.6728 -0.0599783 1.73695e-18)
(23.5465 -0.0587599 -1.73699e-18)
(21.8163 -0.0327864 0)
(17.4536 -0.0119646 0)
(17.3553 -0.0102532 1.25496e-18)
(21.7327 -0.0330265 -2.09185e-18)
(23.4653 -0.0609977 8.6857e-19)
(23.3362 -0.0597998 -1.73717e-18)
(21.5859 -0.0331737 0)
(17.2132 -0.0120328 0)
(17.1137 -0.0102578 0)
(21.5003 -0.0333081 0)
(23.2528 -0.0619297 1.73733e-18)
(23.121 -0.0607392 -1.73736e-18)
(21.3514 -0.0335005 0)
(16.9709 -0.0120821 0)
(16.8704 -0.0102416 0)
(21.2641 -0.0335176 0)
(23.0356 -0.0627403 1.73753e-18)
(22.9014 -0.0615419 8.68773e-19)
(21.1133 -0.0337484 -2.09228e-18)
(16.7272 -0.0121073 1.25518e-18)
(16.626 -0.0101996 0)
(21.0245 -0.0336382 0)
(22.8141 -0.0633914 1.73772e-18)
(22.6778 -0.0621671 -1.73773e-18)
(20.8723 -0.0338965 0)
(16.4826 -0.0120994 0)
(16.3812 -0.0101216 0)
(20.7823 -0.0336418 0)
(22.5889 -0.0638302 1.73791e-18)
(22.4509 -0.0625521 -1.73792e-18)
(20.629 -0.0339093 0)
(16.2381 -0.0120464 0)
(16.137 -0.00999447 0)
(20.5383 -0.0334881 0)
(22.361 -0.0639821 1.73809e-18)
(22.2216 -0.0626141 -1.7381e-18)
(20.3846 -0.0337442 0)
(15.9946 -0.0119343 0)
(15.8946 -0.00980468 0)
(20.2939 -0.0331337 0)
(22.1313 -0.0637543 1.73828e-18)
(21.9914 -0.0622565 -1.73829e-18)
(20.1405 -0.0333524 0)
(15.7536 -0.0117456 0)
(15.6557 -0.00953225 0)
(20.0506 -0.0325236 0)
(21.9013 -0.0630397 1.73846e-18)
(21.7619 -0.0613594 -1.73847e-18)
(19.8987 -0.0326671 0)
(15.5171 -0.0114557 0)
(15.4226 -0.00915025 0)
(19.8107 -0.0315816 0)
(21.6732 -0.0616994 1.73864e-18)
(21.5352 -0.0597696 -1.73864e-18)
(19.6613 -0.0316044 0)
(15.2874 -0.0110348 0)
(15.198 -0.00862875 0)
(19.5767 -0.0302195 0)
(21.4491 -0.0595636 1.73881e-18)
(21.314 -0.057313 0)
(19.4315 -0.0300749 0)
(15.0676 -0.0104537 0)
(14.9853 -0.00794091 0)
(19.3519 -0.0283627 0)
(21.2321 -0.0564738 1.73897e-18)
(21.1016 -0.0538362 -1.73898e-18)
(19.2127 -0.0280071 0)
(14.8613 -0.00968737 0)
(14.7884 -0.00705122 0)
(19.1402 -0.0259232 0)
(21.0258 -0.0522737 1.73912e-18)
(20.902 -0.0492087 -1.73913e-18)
(19.0094 -0.0253365 0)
(14.6728 -0.00873057 0)
(14.6122 -0.0058919 0)
(18.9464 -0.0227114 0)
(20.8345 -0.046762 1.73925e-18)
(20.7203 -0.0432661 -1.73928e-18)
(18.827 -0.0217605 0)
(14.508 -0.00794519 0)
(14.4629 -0.00403762 0)
(18.7767 -0.0183871 0)
(20.6642 -0.0396194 1.73937e-18)
(20.563 -0.0354709 -1.73941e-18)
(18.6723 -0.0171192 0)
(14.3734 -0.00734377 0)
(14.3495 -0.00177141 0)
(18.639 -0.0129466 0)
(20.5225 -0.0303352 1.73946e-18)
(20.4366 -0.0249874 -1.73951e-18)
(18.5529 -0.0113296 0)
(14.2762 -0.00514116 0)
(14.2769 0.000580714 0)
(18.5397 -0.00650099 0)
(20.4146 -0.0186787 1.73952e-18)
(20.3479 -0.0125018 -1.73959e-18)
(18.4757 -0.0047066 0)
(14.2236 -0.00248173 0)
(14.2524 0.00306235 0)
(18.4865 0.000536571 0)
(20.3481 -0.00533296 1.73955e-18)
(20.304 0.00159379 -1.73965e-18)
(18.4481 0.00267608 0)
(14.2224 0.000432999 0)
(14.2823 0.00540027 0)
(18.486 0.00836201 0)
(20.3295 0.00967739 1.73953e-18)
(20.3101 0.0169822 0)
(18.4751 0.0106813 0)
(14.2766 0.00307006 0)
(14.3708 0.00820385 0)
(18.5429 0.0171819 0)
(20.3639 0.0266016 1.73948e-18)
(20.3753 0.0355433 -1.73965e-18)
(18.566 0.0204056 0)
(14.395 0.00700444 0)
(14.535 0.0122467 0)
(18.6735 0.0278629 0)
(20.4669 0.0471062 1.73937e-18)
(20.5169 0.0557126 -1.73958e-18)
(18.7379 0.0314046 0)
(14.5971 0.0101584 0)
(14.7857 0.0156194 0)
(18.8892 0.0394038 0)
(20.6506 0.0679906 1.73921e-18)
(20.7402 0.0753902 -1.73947e-18)
(18.9952 0.0427153 0)
(14.8845 0.0121099 0)
(15.1136 0.0179709 0)
(19.1853 0.0508011 0)
(20.9125 0.0881999 1.739e-18)
(21.0355 0.0939143 -1.73926e-18)
(19.3306 0.0517232 0)
(15.2421 0.0160391 0)
(15.5047 0.0219749 0)
(19.5529 0.0603746 0)
(21.2419 0.107218 1.73873e-18)
(21.4009 0.111135 -1.73899e-18)
(19.7343 0.0599569 0)
(15.6644 0.0189696 0)
(15.9589 0.0248397 0)
(19.9886 0.068688 0)
(21.6407 0.123994 1.73843e-18)
(21.8322 0.125524 -1.73867e-18)
(20.201 0.0669964 0)
(16.1464 0.0214116 0)
(16.4642 0.0268059 0)
(20.4823 0.0749519 0)
(22.1001 0.13729 1.7381e-18)
(22.3183 0.13636 -1.73834e-18)
(20.7194 0.0718442 0)
(16.6711 0.0227594 0)
(17.0039 0.0278106 0)
(21.0206 0.0789608 0)
(22.608 0.146653 0)
(22.8462 0.143483 -1.73798e-18)
(21.2752 0.0746351 0)
(17.2219 0.0233341 0)
(17.5622 0.0280547 0)
(21.5892 0.0808942 0)
(23.1512 0.152206 1.73736e-18)
(23.4031 0.147128 -1.73761e-18)
(21.8544 0.0755667 0)
(17.7845 0.0232704 0)
(18.1258 0.0276624 0)
(22.1746 0.080958 0)
(23.717 0.154208 1.73698e-18)
(23.976 0.147602 -1.73723e-18)
(22.4437 0.0748599 0)
(18.3458 0.0226519 0)
(18.6824 0.0267321 0)
(22.7639 0.0794102 0)
(24.2926 0.153034 1.73659e-18)
(24.5528 0.145328 -1.73686e-18)
(23.031 0.0727928 0)
(18.8949 0.0215753 0)
(19.2223 0.0254013 0)
(23.3461 0.0766191 0)
(24.8668 0.149299 1.73621e-18)
(25.1234 0.140977 -1.73649e-18)
(23.6064 0.0696748 0)
(19.4235 0.0200721 0)
(19.739 0.0239397 0)
(23.9123 0.073122 0)
(25.4306 0.143732 1.73584e-18)
(25.6795 0.134996 -1.73614e-18)
(24.1603 0.0662911 0)
(19.9289 0.0192095 0)
(20.2292 0.0225728 0)
(24.4549 0.0690107 0)
(25.9769 0.136824 1.73549e-18)
(26.2155 0.127989 -1.73581e-18)
(24.6885 0.0621926 0)
(20.4059 0.018008 0)
(20.689 0.020985 0)
(24.9701 0.0643981 0)
(26.5011 0.129008 1.73516e-18)
(26.7272 0.120247 -1.7355e-18)
(25.1875 0.0576873 0)
(20.8509 0.0166556 0)
(21.1156 0.0192817 0)
(25.4551 0.0594177 0)
(26.9996 0.120539 0)
(27.2126 0.111693 -1.7352e-18)
(25.6551 0.0523811 0)
(21.2614 0.0149031 0)
(21.5026 0.0169003 0)
(25.9081 0.0536942 -1.0444e-18)
(27.4712 0.111339 2.60184e-18)
(27.6709 0.102793 -1.7349e-18)
(26.092 0.0474176 0)
(21.6285 0.0124721 0)
(21.8469 0.0142798 0)
(26.3297 0.0481967 0)
(27.9156 0.101783 1.73429e-18)
(28.1008 0.0935681 -1.73461e-18)
(26.4962 0.0423375 0)
(21.9536 0.0102383 0)
(22.1499 0.011956 0)
(26.7173 0.042641 0)
(28.3303 0.0918782 1.73405e-18)
(28.4997 0.0839376 -1.73435e-18)
(26.8652 0.0370813 0)
(22.2376 0.00812992 0)
(22.4112 0.00973623 0)
(27.0687 0.0368919 -1.04399e-18)
(28.7127 0.0814848 8.66915e-19)
(28.8646 0.0738887 -1.73411e-18)
(27.1966 0.0316443 0)
(22.4799 0.00613964 0)
(22.6306 0.00765037 0)
(27.3815 0.0310255 0)
(29.0598 0.0706966 1.73363e-18)
(29.1928 0.063559 -1.73389e-18)
(27.4882 0.0261532 0)
(22.6806 0.00429358 0)
(22.8086 0.00572076 0)
(27.6535 0.025166 0)
(29.3689 0.0596811 1.73347e-18)
(29.4819 0.0530708 -1.7337e-18)
(27.7383 0.020685 0)
(22.8402 0.00256829 0)
(22.946 0.0039195 0)
(27.8834 0.0193703 0)
(29.638 0.0485572 1.73333e-18)
(29.7303 0.0425418 -1.73355e-18)
(27.9459 0.0152959 0)
(22.9598 0.000949567 0)
(23.044 0.00224352 0)
(28.0705 0.0137173 0)
(29.866 0.0375082 1.73323e-18)
(29.9372 0.0321763 -1.73342e-18)
(28.1106 0.0100734 0)
(23.0406 -0.000554315 0)
(23.1041 0.000716276 0)
(28.2149 0.00832862 0)
(30.0526 0.0267947 1.73315e-18)
(30.1029 0.0222647 -1.73332e-18)
(28.2334 0.00515783 0)
(23.0847 -0.00190983 0)
(23.1292 -0.000621464 0)
(28.3183 0.00337084 0)
(30.1986 0.0167622 1.73311e-18)
(30.2292 0.0131585 -1.73326e-18)
(28.3166 0.00072264 0)
(23.0952 -0.00306929 0)
(23.1231 -0.0017126 0)
(28.3837 -0.000955932 0)
(30.3067 0.00780202 1.73308e-18)
(30.3192 0.005224 -1.73322e-18)
(28.3639 -0.00303635 0)
(23.0769 -0.0039698 0)
(23.0912 -0.00249598 0)
(28.4156 -0.00445326 0)
(30.3806 0.000258004 1.73308e-18)
(30.3772 -0.00128181 -1.7332e-18)
(28.3804 -0.00597457 0)
(23.0353 -0.00459354 0)
(23.0389 -0.00286056 0)
(28.419 -0.00705585 0)
(30.4248 -0.00567075 1.7331e-18)
(30.4085 -0.00627091 -1.7332e-18)
(28.3718 -0.00807566 0)
(22.9758 -0.00513873 0)
(22.9707 -0.00237236 0)
(28.3989 -0.00901299 0)
(30.4439 -0.0101002 1.73313e-18)
(30.4162 -0.0101319 -1.73322e-18)
(28.3415 -0.0100726 0)
(22.9016 -0.00596388 0)
(22.8925 -0.00223336 0)
(28.3616 -0.0100378 0)
(30.4434 -0.0135009 1.73317e-18)
(30.4076 -0.0130799 -1.73325e-18)
(28.2974 -0.0109121 0)
(22.8199 -0.00610204 0)
(22.8082 -0.00281298 0)
(28.3125 -0.0109978 0)
(30.4289 -0.0161481 1.73322e-18)
(30.3868 -0.0151131 -1.73329e-18)
(28.2437 -0.0115117 0)
(22.7346 -0.00591449 0)
(22.7236 -0.00357277 0)
(28.2567 -0.0119172 0)
(30.4049 -0.0179828 1.73327e-18)
(30.3587 -0.0161511 -1.73333e-18)
(28.1853 -0.0113827 0)
(22.6506 -0.00538156 0)
(22.6391 -0.00354286 0)
(28.1958 -0.0116206 0)
(30.373 -0.0183423 1.73332e-18)
(30.3241 -0.0164831 -1.73338e-18)
(28.1233 -0.0109275 0)
(22.5673 -0.0053809 0)
(22.5563 -0.00180845 0)
(28.1317 -0.0105632 0)
(30.3357 -0.0180243 1.73337e-18)
(30.2829 -0.0161189 8.66715e-19)
(28.0568 -0.01105 -1.04366e-18)
(22.4831 -0.00511876 0)
(22.4754 -0.00282824 0)
(28.0665 -0.0111475 0)
(30.2948 -0.0184694 1.73343e-18)
(30.2417 -0.0161184 -1.73348e-18)
(27.9929 -0.0103285 0)
(22.4057 -0.00431892 0)
(22.3999 -0.00268861 0)
(28.003 -0.0104942 0)
(30.2529 -0.0178545 1.73347e-18)
(30.1996 -0.015738 -1.73353e-18)
(27.9302 -0.00966802 0)
(22.3328 -0.00444906 0)
(22.3294 -0.00105087 0)
(27.9408 -0.00907877 0)
(30.211 -0.0167575 1.73352e-18)
(30.1555 -0.0148272 -1.73358e-18)
(27.8672 -0.00971326 0)
(22.2614 -0.00438336 0)
(22.2605 -0.00212656 0)
(27.8793 -0.00956462 0)
(30.1676 -0.0167708 1.73357e-18)
(30.1132 -0.0145808 -1.73363e-18)
(27.8078 -0.00891538 0)
(22.196 -0.00365716 0)
(22.1969 -0.0020638 0)
(27.8211 -0.00890485 0)
(30.1257 -0.0159405 1.73362e-18)
(30.0718 -0.0139118 -1.73368e-18)
(27.7511 -0.00822414 0)
(22.1345 -0.00380655 0)
(22.138 -0.000371564 0)
(27.7657 -0.00752509 0)
(30.0855 -0.01485 1.73366e-18)
(30.03 -0.0130016 -1.73372e-18)
(27.695 -0.00820086 0)
(22.0744 -0.00371692 0)
(22.0794 -0.00272306 0)
(27.7109 -0.00839586 0)
(30.0444 -0.0148074 1.73371e-18)
(29.991 -0.0119383 -1.73377e-18)
(27.6432 -0.00696171 0)
(22.0198 -0.00276275 0)
(22.0266 -0.00173881 0)
(27.6601 -0.00866944 0)
(30.0062 -0.0141793 1.73374e-18)
(29.9519 -0.0119263 -1.73382e-18)
(27.592 -0.00700143 0)
(21.9667 -0.00265753 0)
(21.9744 -0.00161252 0)
(27.6101 -0.00753425 0)
(29.9682 -0.013483 1.73378e-18)
(29.9148 -0.0117357 -1.73386e-18)
(27.5434 -0.0070259 0)
(21.9159 -0.00293673 0)
(21.9248 -0.00151655 0)
(27.5624 -0.00715744 0)
(29.9317 -0.0130552 1.73383e-18)
(29.8786 -0.0108573 -1.7339e-18)
(27.4966 -0.00642124 0)
(21.8671 -0.00278511 0)
(21.8778 -0.00161794 0)
(27.5171 -0.00734593 0)
(29.8968 -0.0126739 1.73387e-18)
(29.8439 -0.010674 -1.73394e-18)
(27.452 -0.00614968 0)
(21.8209 -0.00264259 0)
(21.832 -0.00137556 0)
(27.4733 -0.00654222 0)
(29.8628 -0.0120289 1.7339e-18)
(29.8104 -0.0105558 -1.73397e-18)
(27.4089 -0.00632057 0)
(21.7759 -0.00282867 0)
(21.7876 -0.00132616 0)
(27.4308 -0.00634488 0)
(29.8299 -0.011735 1.73395e-18)
(29.7779 -0.00977748 -1.73401e-18)
(27.3672 -0.00579249 0)
(21.7319 -0.00264571 0)
(21.7451 -0.00149763 0)
(27.3904 -0.00682719 0)
(29.7984 -0.0115917 1.73398e-18)
(29.7461 -0.0099476 -1.73405e-18)
(27.3269 -0.00591526 0)
(21.6898 -0.00276602 0)
(21.7026 -0.00163082 0)
(27.3506 -0.00541716 0)
(29.7672 -0.0106535 1.73402e-18)
(29.7165 -0.00958816 -1.73408e-18)
(27.2891 -0.00600011 0)
(21.6493 -0.00343168 0)
(21.6636 0.000337861 0)
(27.3134 -0.00466131 -1.04395e-18)
(29.7384 -0.0101398 8.67033e-19)
(29.6866 -0.00917956 -1.73411e-18)
(27.2508 -0.00597219 0)
(21.6083 -0.00320346 0)
(21.6229 -0.000602895 0)
(27.2757 -0.00541322 0)
(29.7091 -0.0104442 1.7341e-18)
(29.6577 -0.00901595 -1.73415e-18)
(27.2139 -0.00570301 0)
(21.5688 -0.00278346 0)
(21.5833 -0.000802911 0)
(27.239 -0.00523364 0)
(29.6803 -0.0100471 1.73413e-18)
(29.6297 -0.00878288 -1.73418e-18)
(27.1782 -0.00545963 0)
(21.5303 -0.00323425 0)
(21.5462 7.48518e-05 0)
(27.2045 -0.00447704 0)
(29.6536 -0.00959805 1.73417e-18)
(29.6025 -0.00873459 -1.73421e-18)
(27.1434 -0.00577668 0)
(21.4926 -0.00340693 0)
(21.5089 -0.000509107 0)
(27.1702 -0.00497012 0)
(29.6269 -0.00974877 1.7342e-18)
(29.5766 -0.00831435 -1.73425e-18)
(27.1099 -0.0052849 0)
(21.4562 -0.00266094 0)
(21.4727 -0.000705107 0)
(27.137 -0.00539097 0)
(29.6012 -0.00942161 1.73423e-18)
(29.5502 -0.00799821 -1.73257e-18)
(27.0766 -0.00466786 1.043e-18)
(21.4194 -0.00228061 -1.25156e-18)
(21.4371 -0.00113992 -1.25157e-18)
(27.1051 -0.0040906 1.04301e-18)
(29.5762 -0.00823475 -1.83993e-18)
(29.5267 -0.00654256 3.51038e-25)
(27.0463 -0.00487281 0)
(21.3862 -0.00343932 0)
(21.4029 -0.000426108 0)
(27.0866 -0.00277599 6.44562e-20)
(29.5614 -0.00511866 1.07272e-19)
(29.5197 -0.00263496 8.39705e-19)
(27.0464 -0.00342139 -1.56616e-18)
(21.3508 -0.00255527 0)
(21.4083 0.00115317 0)
(27.1112 0.00100776 5.03282e-19)
(29.5862 0.00249939 3.33609e-18)
(29.5831 0.0136285 7.93935e-19)
(27.1096 0.00637875 -9.46055e-19)
(21.3851 0.00428564 0)
(21.5958 0.0115028 0)
(27.2957 0.0136468 0)
(29.7682 0.0162057 0)
(29.8841 0.00800722 -1.19612e-17)
(27.4555 0.00974811 7.12811e-18)
(21.751 0.0116441 0)
(21.811 0.00804084 0)
(27.5254 0.00558021 4.62849e-24)
(29.9267 0.00485394 1.63501e-18)
(30.021 -0.00836398 6.37649e-18)
(27.6502 0.00370931 1.93448e-18)
(21.9622 -0.00202574 0)
(21.9909 0.00716761 -3.13181e-19)
(27.6874 -0.0052001 -7.80321e-19)
(30.0453 -0.0114478 1.08722e-18)
(31.9628 -0.0190318 -5.10255e-18)
(32.6491 -0.0370431 4.99179e-18)
(32.8698 -0.0412894 2.18612e-18)
(32.9722 -0.0217093 -1.6168e-18)
(33.17 -0.0123341 -3.16388e-19)
(33.2337 -0.0150201 5.73327e-19)
(33.2697 -0.0070119 -5.07193e-19)
(33.265 -0.0073348 0)
(33.219 -0.00217989 2.62414e-19)
(33.1548 -0.0019772 0)
(33.0216 0.00460128 0)
(32.887 -0.00545703 0)
(32.5663 -0.00899634 -2.22844e-17)
(32.3717 -0.0102158 -1.95143e-17)
(32.2215 -0.0211444 8.70086e-17)
(31.9935 -0.00599658 2.62721e-18)
(31.9116 0.0212499 -2.12606e-18)
(31.5933 0.0102401 0)
(30.2555 -0.0350186 1.09228e-18)
(27.1444 -0.0368449 -4.15793e-18)
(23.4925 -0.0340066 1.3444e-18)
(16.3674 -0.0393259 -1.45656e-19)
(16.0847 -0.0268536 1.34812e-19)
(23.3312 -0.0623844 2.10383e-18)
(27.0279 -0.0539906 -2.63907e-18)
(26.7553 -0.0683385 -2.64823e-18)
(23.0017 -0.0502835 -1.77949e-18)
(15.6477 -0.0325264 1.47774e-19)
(15.4054 -0.0189312 -1.14057e-18)
(22.796 -0.0297934 7.851e-19)
(26.5469 -0.0491373 1.21689e-18)
(26.5146 -0.0369028 5.02211e-24)
(22.7603 -0.0272352 -8.38203e-19)
(15.3019 -0.0181928 5.54768e-19)
(15.1683 -0.0111511 5.12188e-19)
(22.6188 -0.0151077 -9.93776e-19)
(26.3926 -0.0211431 -6.12687e-19)
(26.3885 -0.0216357 -6.41134e-19)
(22.59 -0.0182617 2.73864e-18)
(15.067 -0.014265 -1.38282e-18)
(14.9539 -0.00621242 4.09505e-19)
(22.526 -0.00666228 0)
(26.2923 -0.00791223 -1.29943e-18)
(26.2868 -0.00694399 0)
(22.5152 -0.00719544 0)
(14.9539 -0.00696713 -1.41801e-19)
(14.8616 -0.00235268 0)
(22.4742 -0.00132212 -8.73209e-19)
(26.2359 0.00205767 6.71234e-19)
(26.2726 0.00123931 -1.35871e-18)
(22.5076 -0.0010847 0)
(14.8762 -0.0020519 -1.43689e-19)
(14.8795 0.0028209 1.43687e-19)
(22.4963 0.00626685 0)
(26.2431 0.00883671 1.70002e-19)
(26.2784 0.00125621 -1.52523e-18)
(22.5276 -0.0018061 0)
(14.8905 -0.00193351 0)
(14.8968 0.00378421 0)
(22.49 0.00694405 0)
(26.2487 0.00928236 0)
(26.2865 0.00236388 0)
(22.5289 -0.000408683 0)
(14.9107 -0.00189752 0)
(14.9151 0.00358402 0)
(22.5251 0.00618371 0)
(26.2548 0.00846214 0)
(26.3075 0.00140432 0)
(22.5627 -0.00287548 0)
(14.9248 -0.00255261 0)
(14.9282 0.00368702 0)
(22.5235 0.00678836 0)
(26.2775 0.00938566 0)
(26.3158 0.00244609 0)
(22.5625 -0.000365449 0)
(14.9424 -0.00187067 0)
(14.947 0.00359335 0)
(22.5589 0.00621451 0)
(26.2842 0.00847644 0)
(26.3368 0.00147934 0)
(22.5966 -0.00279827 0)
(14.9568 -0.0025271 0)
(14.9604 0.00368408 0)
(22.5575 0.00679017 0)
(26.3067 0.00938602 0)
(26.3453 0.002539 0)
(22.5965 -0.000307208 0)
(14.9746 -0.00185323 0)
(14.9795 0.00359768 0)
(22.593 0.00625532 0)
(26.3137 0.00854743 0)
(26.3663 0.00163458 0)
(22.6309 -0.00270197 0)
(14.9895 -0.00249497 0)
(14.9935 0.00370603 0)
(22.5922 0.00686265 0)
(26.3364 0.00949715 0)
(26.3752 0.00271803 0)
(22.6314 -0.000204412 0)
(15.0078 -0.00182284 0)
(15.0131 0.0036145 0)
(22.6282 0.00632668 0)
(26.3438 0.00868161 0)
(26.3967 0.00183789 0)
(22.6663 -0.00257386 0)
(15.0233 -0.00245054 0)
(15.0278 0.00373006 0)
(22.6279 0.00694512 0)
(26.367 0.00964076 0)
(26.406 0.00290609 0)
(22.6674 -9.76166e-05 0)
(15.0424 -0.00178908 0)
(15.0481 0.00363459 0)
(22.6645 0.00639994 0)
(26.3748 0.00881041 0)
(26.4279 0.0020296 0)
(22.7028 -0.00244888 0)
(15.0585 -0.00240496 0)
(15.0634 0.00375082 0)
(22.6647 0.00701623 0)
(26.3982 0.0097642 0)
(26.4376 0.00306204 0)
(22.7043 -8.24423e-06 0)
(15.0781 -0.00175788 0)
(15.0842 0.00365306 0)
(22.7016 0.00645954 0)
(26.4063 0.00890522 0)
(26.4597 0.00218118 0)
(22.7401 -0.00234607 0)
(15.0949 -0.00236501 0)
(15.1001 0.00376426 0)
(22.7022 0.0070617 0)
(26.43 0.0098426 0)
(26.4696 0.00317979 0)
(22.742 7.01616e-05 0)
(15.115 -0.00172709 0)
(15.1213 0.00366631 0)
(22.7394 0.00649824 0)
(26.4383 0.00896241 0)
(26.4918 0.00229025 0)
(22.778 -0.0022691 0)
(15.1321 -0.00233204 0)
(15.1377 0.0037743 0)
(22.7403 0.00709134 0)
(26.4621 0.00988289 0)
(26.5018 0.00326366 0)
(22.7801 0.00013408 0)
(15.1526 -0.00169824 0)
(15.1592 0.00367552 0)
(22.7776 0.0065195 0)
(26.4704 0.00898424 0)
(26.524 0.00236018 -2.71349e-18)
(22.8162 -0.00221035 1.7686e-18)
(15.1701 -0.00230305 0)
(15.1758 0.00378103 0)
(22.7786 0.00710431 0)
(26.4942 0.0098857 0)
(26.534 0.00331011 0)
(22.8184 0.000180276 0)
(15.1909 -0.00167369 0)
(15.1976 0.00368111 0)
(22.8159 0.0065255 0)
(26.5026 0.00896871 0)
(26.5562 0.00239581 0)
(22.8545 -0.0021622 0)
(15.2085 -0.00227536 0)
(15.2144 0.00378207 0)
(22.817 0.00709698 0)
(26.5263 0.00985362 0)
(26.5662 0.00331633 0)
(22.8567 0.000204097 0)
(15.2295 -0.00165194 0)
(15.2363 0.0036848 0)
(22.8542 0.00651441 0)
(26.5344 0.0089144 0)
(26.5881 0.00239326 0)
(22.8926 -0.00213286 0)
(15.2472 -0.00225133 0)
(15.2533 0.00377954 0)
(22.855 0.00707154 0)
(26.558 0.0097818 0)
(26.5979 0.00328118 0)
(22.8946 0.00021616 0)
(15.2683 -0.0016302 0)
(15.2752 0.00368668 0)
(22.892 0.00649246 0)
(26.5659 0.00881902 0)
(26.6196 0.00234915 0)
(22.9303 -0.00211361 0)
(15.2861 -0.00222916 0)
(15.2922 0.00377596 0)
(22.8926 0.0070365 0)
(26.5891 0.00966857 0)
(26.6291 0.00319822 0)
(22.932 0.000209008 0)
(15.3072 -0.00161698 0)
(15.3141 0.00368207 0)
(22.9291 0.0064567 0)
(26.5967 0.00867688 0)
(26.6503 0.00225314 0)
(22.9672 -0.00211041 0)
(15.325 -0.00221411 0)
(15.3311 0.00376729 0)
(22.9294 0.00698584 0)
(26.6194 0.00950584 0)
(26.6592 0.00307576 0)
(22.9686 0.000180864 0)
(15.346 -0.00160988 0)
(15.3527 0.00366877 0)
(22.9655 0.00638921 0)
(26.6265 0.00850677 0)
(26.6799 0.00213203 0)
(23.0033 -0.00216422 0)
(15.3635 -0.00222017 0)
(15.3693 0.00373906 0)
(22.9654 0.00688157 0)
(26.6489 0.0093242 0)
(26.6886 0.00292888 0)
(23.0042 0.000104479 0)
(15.384 -0.00161771 0)
(15.3903 0.00363509 0)
(23.0009 0.00627058 0)
(26.6558 0.00829843 0)
(26.7089 0.00195938 0)
(23.0383 -0.00225534 0)
(15.4008 -0.00223909 0)
(15.4062 0.00369832 0)
(23.0001 0.00673606 0)
(26.6779 0.00907743 0)
(26.7173 0.00270886 0)
(23.0385 -2.18066e-05 0)
(15.4205 -0.0016418 0)
(15.4264 0.00358298 0)
(23.0348 0.0060977 0)
(26.6845 0.00801228 0)
(26.7373 0.00170389 0)
(23.0718 -0.00240657 0)
(15.4364 -0.00227898 0)
(15.4411 0.00363708 0)
(23.0332 0.00652705 0)
(26.7062 0.00874398 0)
(26.7453 0.00239955 0)
(23.071 -0.000218056 0)
(15.4549 -0.00169057 0)
(15.4599 0.00350398 0)
(23.0667 0.00585366 0)
(26.7124 0.00763452 0)
(26.7649 0.00135265 0)
(23.1032 -0.00263386 0)
(15.4693 -0.00234921 0)
(15.473 0.003547 0)
(23.064 0.00624004 0)
(26.7337 0.00830781 0)
(26.7725 0.00198013 0)
(23.1012 -0.000500025 0)
(15.486 -0.00177305 0)
(15.4897 0.00338976 0)
(23.0962 0.0055211 0)
(26.7394 0.00714107 0)
(26.7917 0.000882372 0)
(23.1319 -0.00295702 0)
(15.4983 -0.00245884 0)
(15.5005 0.00341944 0)
(23.092 0.00585421 0)
(26.7603 0.00774631 0)
(26.7989 0.00143201 0)
(23.1283 -0.000890678 0)
(15.5124 -0.0019014 0)
(15.5145 0.00322834 0)
(23.1225 0.00507458 0)
(26.7657 0.00651617 0)
(26.8177 0.000283047 0)
(23.1573 -0.00340274 0)
(15.5218 -0.0026221 0)
(15.522 0.00324029 0)
(23.1164 0.00534395 0)
(26.7863 0.00705033 0)
(26.8247 0.000749287 0)
(23.1518 -0.00141873 0)
(15.5325 -0.0020944 0)
(15.5322 0.00300035 0)
(23.145 0.00448387 0)
(26.7914 0.00575209 0)
(26.8433 -0.000453221 0)
(23.1788 -0.00400175 0)
(15.5379 -0.00286138 0)
(15.5353 0.00298759 0)
(23.1368 0.00468081 0)
(26.8119 0.0062104 0)
(26.8503 -7.87335e-05 0)
(23.171 -0.00212674 0)
(15.5439 -0.00238566 0)
(15.5403 0.00266925 0)
(23.1631 0.0037011 0)
(26.8171 0.00483369 0)
(26.8692 -0.00134549 0)
(23.1957 -0.0048143 0)
(15.5437 -0.00322405 0)
(15.5372 0.00261269 0)
(23.1525 0.00378877 0)
(26.8379 0.00519173 0)
(26.8766 -0.00110377 0)
(23.1855 -0.00310027 0)
(15.5431 -0.00283461 0)
(15.5348 0.00218016 0)
(23.1764 0.002639 0)
(26.8439 0.00369387 0)
(26.8965 -0.00246892 0)
(23.2076 -0.00594804 0)
(15.5349 -0.00377781 0)
(15.5228 0.00205287 0)
(23.1629 0.00255478 0)
(26.8658 0.00389919 0)
(26.9052 -0.00242849 0)
(23.1944 -0.00446676 0)
(15.5248 -0.00351322 0)
(15.5099 0.00147092 0)
(23.184 0.00116144 0)
(26.8734 0.00222362 0)
(26.9271 -0.00390292 0)
(23.2137 -0.00752542 0)
(15.5055 -0.00458083 0)
(15.4856 0.00128653 0)
(23.1672 0.000908338 0)
(26.8977 0.00230932 0)
(26.9384 -0.00398521 0)
(23.1972 -0.00623228 0)
(15.4825 -0.00441625 0)
(15.4589 0.000646793 0)
(23.1853 -0.000614542 0)
(26.9082 0.000571283 0)
(26.964 -0.00540844 0)
(23.2133 -0.00940551 0)
(15.4489 -0.00556798 0)
(15.4195 0.000437588 0)
(23.1651 -0.000908434 0)
(26.9369 0.000737009 0)
(26.9803 -0.00538498 -1.35211e-18)
(23.1937 -0.00826928 0)
(15.4103 -0.00564355 0)
(15.3773 -0.00104656 0)
(23.1807 -0.00299566 0)
(26.9536 -0.000828417 0)
(27.0135 -0.00655405 0)
(23.2094 -0.0117559 0)
(15.3575 -0.00731002 0)
(15.3171 -0.00157248 0)
(23.1602 -0.00345245 0)
(26.991 -0.000472383 0)
(27.0392 -0.00634995 0)