/*--------------------------------*- C++ -*----------------------------------*\
| =========                 |                                                 |
| \\      /  F ield         | OpenFOAM: The Open Source CFD Toolbox           |
|  \\    /   O peration     | Version:  v2006                                 |
|   \\  /    A nd           | Website:  www.openfoam.com                      |
|    \\/     M anipulation  |                                                 |
\*---------------------------------------------------------------------------*/
FoamFile
{
    version     2.0;
    format      ascii;
    class       volScalarField;
    location    "0.024";
    object      alphat;
}
// * * * * * * * * * * * * * * * * * * * * * * * * * * * * * * * * * * * * * //

dimensions      [1 -1 -1 0 0 0 0];


internalField   nonuniform List<scalar> 
12716
(
96.0396
88.3308
3206.36
2563.85
2047.42
1327.44
1126.8
14590.8
188.589
27.0253
5.74825
2.25131
1.31875
0.9718
0.812809
0.727149
0.671717
0.629004
0.592313
0.559542
0.530266
0.504425
0.481855
0.462223
0.445106
0.430093
0.416833
0.405056
0.394559
0.385194
0.376852
0.369458
0.362951
0.357288
0.352437
0.348377
0.345099
0.342604
0.340864
0.339883
0.33974
0.340502
0.34221
0.344935
0.348807
0.353974
0.360606
0.368863
0.378842
0.390525
0.403781
0.418595
0.43577
0.458667
0.497002
0.575605
0.758199
1.22917
2.60617
6.75163
14.2195
14.001
7.90412
3.20962
1.37273
0.642879
0.334677
0.15428
0.0383294
0.00669387
0.000215599
0.00018329
0.00294824
0.0136735
0.00831189
0.00209507
0.000160818
0.000141834
0.00175823
0.00631475
0.0054368
0.00160818
0.000131207
0.000121356
0.00148696
0.00482093
0.00447221
0.00142165
0.000115218
0.000109784
0.00135783
0.0041489
0.00398675
0.00132802
0.000106297
0.000102763
0.00127448
0.00375462
0.00366725
0.00125914
0.000100554
9.80421e-05
0.00121676
0.00349844
0.00343734
0.00120776
9.65475e-05
9.46583e-05
0.0011723
0.00330364
0.00325774
0.00116627
9.35774e-05
9.20934e-05
0.00113623
0.0031456
0.00310976
0.00113091
9.1259e-05
9.00513e-05
0.00110515
0.0030124
0.00298371
0.00110028
8.93857e-05
8.8361e-05
0.0010776
0.00289726
0.00287375
0.00107316
8.78016e-05
8.69065e-05
0.00105281
0.00279601
0.00277597
0.00104875
8.64255e-05
8.56278e-05
0.00103022
0.00270569
0.00268823
0.00102648
8.52039e-05
8.448e-05
0.00100941
0.00262414
0.00260869
0.00100599
8.40991e-05
8.34328e-05
0.000990119
0.00254971
0.00253594
0.000986982
8.30853e-05
8.24649e-05
0.00097211
0.00248128
0.00246893
0.000969237
8.21437e-05
8.15607e-05
0.000955209
0.00241796
0.00240679
0.000952574
8.12609e-05
8.07085e-05
0.000939262
0.00235895
0.00234882
0.000936838
8.04263e-05
7.98991e-05
0.000924134
0.00230363
0.00229446
0.000921901
7.96312e-05
7.91248e-05
0.000909721
0.00225164
0.00224333
0.000907666
7.88684e-05
7.83791e-05
0.000895944
0.00220264
0.00219507
0.000894051
7.81323e-05
7.76573e-05
0.000882729
0.00215629
0.00214935
0.000880979
7.74186e-05
7.69554e-05
0.000870003
0.00211226
0.00210586
0.000868376
7.67236e-05
7.62699e-05
0.000857693
0.00207027
0.00206431
0.00085617
7.60436e-05
7.55969e-05
0.00084573
0.00203005
0.00202446
0.000844298
7.53747e-05
7.49326e-05
0.000834055
0.00199137
0.00198609
0.000832703
7.47134e-05
7.42736e-05
0.000822614
0.00195404
0.001949
0.000821329
7.40561e-05
7.36167e-05
0.000811353
0.00191788
0.00191303
0.000810122
7.33998e-05
7.29586e-05
0.000800217
0.00188271
0.00187799
0.000799026
7.27415e-05
7.22964e-05
0.000789151
0.00184836
0.00184372
0.000787982
7.2078e-05
7.16268e-05
0.000778093
0.00181464
0.00181002
0.000776931
7.14061e-05
7.09464e-05
0.000766987
0.0017814
0.00177674
0.000765822
7.07221e-05
7.02514e-05
0.000755782
0.00174848
0.00174374
0.000754611
7.00221e-05
6.95376e-05
0.000744439
0.00171575
0.00171089
0.00074326
6.93021e-05
6.88013e-05
0.000732922
0.00168309
0.0016781
0.000731733
6.85584e-05
6.80389e-05
0.000721194
0.00165042
0.00164524
0.000719945
6.77876e-05
6.72467e-05
0.000709197
0.0016176
0.00161221
0.000707904
6.69859e-05
6.64209e-05
0.000696922
0.00158455
0.00157894
0.000695587
6.615e-05
6.55582e-05
0.000684346
0.00155121
0.00154536
0.000682972
6.52762e-05
6.46548e-05
0.000671454
0.00151753
0.00151146
0.000670059
6.43611e-05
6.37072e-05
0.000658256
0.00148353
0.00147728
0.000656871
6.34011e-05
6.27122e-05
0.000644794
0.00144926
0.00144289
0.000643468
6.23933e-05
6.16675e-05
0.000631145
0.00141486
0.00140871
0.000629949
6.1335e-05
6.05724e-05
0.000617528
0.00138069
0.00137513
0.000616496
6.02266e-05
5.94296e-05
0.000604175
0.00134716
0.00134241
0.00060335
5.9074e-05
5.82456e-05
0.000591268
0.00131469
0.00131121
0.000590815
5.78841e-05
5.70307e-05
0.000579189
0.00128404
0.0012819
0.000579289
5.66701e-05
5.58012e-05
0.000568349
0.00125597
0.001256
0.000569251
5.54506e-05
5.45816e-05
0.000559295
0.00123184
0.00123468
0.000561246
5.42534e-05
5.34041e-05
0.000552571
0.00121269
0.00121888
0.000555767
5.31124e-05
5.23041e-05
0.000548595
0.0011995
0.00120948
0.000553144
5.20608e-05
5.1312e-05
0.000547577
0.00119301
0.00120684
0.000553469
5.1124e-05
5.04462e-05
0.000549472
0.00119394
0.00121113
0.00055654
5.03137e-05
4.97124e-05
0.000553793
0.00120157
0.00122169
0.000561693
4.96244e-05
4.91036e-05
0.000559687
0.00121499
0.00123714
0.000568119
4.90234e-05
4.86234e-05
0.000566018
0.00123304
0.00125518
0.000573031
4.8524e-05
4.82193e-05
0.00056888
0.00125157
0.00127342
0.000575119
4.80522e-05
4.77599e-05
0.000570139
0.0012699
0.00129108
0.000575838
4.75588e-05
4.72603e-05
0.000570518
0.00128659
0.00130643
0.000575613
4.70474e-05
4.67606e-05
0.000569965
0.00130051
0.00131855
0.000574281
4.65711e-05
4.62997e-05
0.000568523
0.00131119
0.00132728
0.000571938
4.61422e-05
4.58884e-05
0.000566133
0.00131858
0.00133287
0.000568822
4.57529e-05
4.552e-05
0.000563086
0.00132311
0.00133589
0.000565228
4.54047e-05
4.51949e-05
0.000559667
0.0013254
0.00133685
0.000561437
4.50973e-05
4.4916e-05
0.000556152
0.00132619
0.00133617
0.000557498
4.48417e-05
4.46823e-05
0.000552533
0.00132544
0.00133405
0.000553567
4.46191e-05
4.44786e-05
0.000548888
0.00132328
0.0013308
0.000549694
4.44246e-05
4.43013e-05
0.000545307
0.00132009
0.00132652
0.000545949
4.42564e-05
4.41481e-05
0.000541844
0.00131612
0.00132178
0.00054238
4.41101e-05
4.40142e-05
0.00053852
0.00131164
0.00131664
0.00053902
4.39817e-05
4.38969e-05
0.000535347
0.00130679
0.00131112
0.000535848
4.38699e-05
4.37948e-05
0.000532319
0.00130154
0.00130526
0.000532809
4.37723e-05
4.37046e-05
0.000529368
0.00129589
0.00129907
0.000529856
4.3684e-05
4.36214e-05
0.000526469
0.00128976
0.00129248
0.000526958
4.36007e-05
4.35419e-05
0.000523611
0.00128304
0.00128551
0.000524087
4.352e-05
4.3464e-05
0.000520751
0.0012758
0.00127808
0.000521203
4.34401e-05
4.3386e-05
0.000517858
0.00126805
0.00127015
0.000518276
4.33594e-05
4.33063e-05
0.000514909
0.0012598
0.00126171
0.000515287
4.32765e-05
4.32241e-05
0.00051189
0.00125111
0.00125278
0.000512226
4.31908e-05
4.3138e-05
0.00050877
0.0012418
0.00124358
0.000509139
4.30991e-05
4.30256e-05
0.000505633
0.00123216
0.0012333
0.000505547
4.30198e-05
4.2846e-05
0.000502396
0.0012214
0.00122662
0.000504072
4.3076e-05
4.30151e-05
0.000502254
0.001225
0.00124383
0.00051136
4.40358e-05
4.39999e-05
0.000516201
0.00125644
0.00124446
0.000512025
4.48016e-05
4.48862e-05
0.000531055
0.00129248
0.00130352
0.000537328
4.58873e-05
0.00374846
0.00731342
0.0113099
0.0154952
0.0191177
0.022957
0.0261692
0.028896
0.0309248
0.032312
0.032987
0.0329356
0.0321714
0.0306656
0.0285655
0.0257944
0.0226726
0.0190592
0.0160015
0.0124864
0.00843979
0.0054476
0.00398139
0.0017888
0.000517879
0.000239597
3.06177e-05
2.19621e-05
0.000222361
0.000449143
0.000150815
6.3004e-05
1.54758e-05
1.84066e-05
0.000140323
0.000349431
0.000321766
0.000134215
1.94558e-05
1.95383e-05
0.000143843
0.000350768
0.000327133
0.000136002
1.93426e-05
1.93096e-05
0.000140189
0.000336969
0.000321813
0.000133453
1.91347e-05
1.91174e-05
0.000139175
0.000333091
0.000322589
0.000133665
1.89493e-05
1.90349e-05
0.000138592
0.000335976
0.00032531
0.000133679
1.9003e-05
1.91145e-05
0.000139719
0.000339148
0.00032955
0.000135172
1.90761e-05
1.91846e-05
0.000140951
0.000342992
0.000333255
0.000136152
1.91446e-05
1.92553e-05
0.000142002
0.00034696
0.000337123
0.000137176
1.92159e-05
1.93289e-05
0.000143111
0.000351118
0.000341148
0.000138243
1.92895e-05
1.94048e-05
0.000144252
0.000355406
0.000345313
0.000139349
1.93658e-05
1.94828e-05
0.000145452
0.000359895
0.000349648
0.000140506
1.94439e-05
1.95638e-05
0.000146689
0.000364499
0.000354119
0.000141702
1.95253e-05
1.96466e-05
0.000147982
0.000369322
0.000358786
0.000142951
1.96083e-05
1.97326e-05
0.000149319
0.000374286
0.000363602
0.000144243
1.96947e-05
1.98207e-05
0.000150717
0.000379472
0.000368614
0.000145592
1.97831e-05
1.99122e-05
0.00015216
0.0003848
0.00037379
0.000146988
1.98749e-05
2.0006e-05
0.000153671
0.00039039
0.000379203
0.000148447
1.99691e-05
2.01035e-05
0.000155235
0.000396151
0.000384793
0.00014996
2.00668e-05
2.02037e-05
0.000156872
0.000402171
0.000390616
0.000151537
2.01674e-05
2.03078e-05
0.000158561
0.00040836
0.000396627
0.000153171
2.02717e-05
2.04151e-05
0.000160342
0.00041485
0.000402918
0.000154877
2.03793e-05
2.05265e-05
0.000162192
0.000421554
0.000409426
0.000156653
2.04906e-05
2.06412e-05
0.000164131
0.000428575
0.000416224
0.000158507
2.06055e-05
2.07602e-05
0.000166141
0.000435802
0.000423234
0.000160436
2.07244e-05
2.08829e-05
0.000168241
0.000443348
0.000430537
0.000162444
2.08472e-05
2.10102e-05
0.000170416
0.000451109
0.000438066
0.000164528
2.09742e-05
2.11415e-05
0.000172685
0.000459231
0.000445939
0.000166695
2.11052e-05
2.12778e-05
0.000175033
0.000467604
0.000454064
0.000168944
2.12413e-05
2.14191e-05
0.000177483
0.000476378
0.000462572
0.000171283
2.13817e-05
2.1565e-05
0.000180011
0.000485402
0.000471312
0.0001737
2.15262e-05
2.17145e-05
0.000182621
0.000494798
0.000480407
0.000176181
2.16741e-05
2.1867e-05
0.000185269
0.00050439
0.000489679
0.000178697
2.18244e-05
2.20214e-05
0.000187945
0.000514305
0.000499257
0.00018122
2.19762e-05
2.21771e-05
0.000190587
0.000524352
0.000508936
0.000183701
2.21286e-05
2.23332e-05
0.00019316
0.00053467
0.000518867
0.000186084
2.22804e-05
2.24908e-05
0.00019558
0.000545097
0.000528892
0.000188298
2.24353e-05
2.26558e-05
0.000197807
0.000555967
0.000539489
0.000190288
2.26007e-05
2.28445e-05
0.000199845
0.000567667
0.000551232
0.000192137
2.27984e-05
2.30879e-05
0.00020199
0.000581572
0.000565656
0.000194248
2.30748e-05
2.33787e-05
0.000205015
0.000599062
0.000583657
0.000197781
2.33824e-05
2.36791e-05
0.000211949
0.000627101
0.000608674
0.00020267
2.37683e-05
2.40809e-05
0.00022175
0.000652928
0.000633966
0.000210365
2.39307e-05
2.43193e-05
0.000231047
0.000685448
0.000663285
0.000219599
2.43299e-05
2.47878e-05
0.000239122
0.000712006
0.000695054
0.000231998
2.48587e-05
2.52336e-05
0.000247554
0.000747147
0.000729848
0.000238969
2.52637e-05
2.56215e-05
0.000255085
0.00078405
0.000772505
0.000254008
2.59538e-05
2.63713e-05
0.000276065
0.000833716
0.000819609
0.000266561
2.65351e-05
2.69587e-05
0.000286141
0.000874432
0.000862149
0.000278524
2.71261e-05
2.75512e-05
0.00029654
0.00091495
0.00090334
0.000290932
2.79106e-05
2.85509e-05
0.000308101
0.000946293
0.000925914
0.000303985
2.9034e-05
2.9917e-05
0.000310293
0.000961964
0.000937186
0.000309259
3.1329e-05
3.37481e-05
0.000326891
0.000976789
0.000951613
0.000327773
3.74903e-05
4.37883e-05
0.000390407
0.00100124
0.00096268
0.000443458
3.33762e-05
2.15243e-05
9.32205e-05
0.000277926
0.000811332
0.000262439
2.74246e-05
3.03895e-05
0.00025213
0.000790226
0.000908948
0.000301741
3.53103e-05
4.1763e-05
0.000303297
0.000955343
0.00130406
0.000364203
5.33273e-05
8.81429e-05
0.000499105
0.0023165
0.00342573
0.00135973
0.000152505
0.000178594
0.0013613
0.00375654
0.00468268
0.00196886
0.000214356
0.00023623
0.00217423
0.00508409
0.00494421
0.00210357
0.000226403
0.000205071
0.00163665
0.00373976
0.00474935
0.00188344
0.000247645
0.00028603
0.00213583
0.00505007
0.00546747
0.00231602
0.000332177
0.000362215
0.00245057
0.00580662
0.00584841
0.00252431
0.000412758
0.000469915
0.00302471
0.00706495
0.00742006
0.00327208
0.000534216
0.000523947
0.00343728
0.00777461
0.00622358
0.00287661
0.00048038
0.000468192
0.00295425
0.00645257
0.00612537
0.00285634
0.000465973
0.000452706
0.00297695
0.00634098
0.00504531
0.00253328
0.000421726
0.000429811
0.00266342
0.00548748
0.00621016
0.00298647
0.000468507
0.000501802
0.00326606
0.00687646
0.00688129
0.00341074
0.000510185
0.000525296
0.00335628
0.00640692
0.0054988
0.00372882
0.000570318
0.000651083
0.0040723
0.00455059
0.00375822
0.00354008
0.000676164
0.000752307
0.00314249
0.0035116
0.00308459
0.00252796
0.000837743
0.00095708
0.00227915
0.00252752
0.00205767
0.00180477
0.00100125
0.000910223
0.00155566
0.0020061
0.00191864
0.00133234
0.00104073
0.000646079
0.00119567
0.00195391
0.00204914
0.00119958
0.00080041
0.000409925
0.00129894
0.00237333
0.00259208
0.00128245
0.000411657
0.000337117
0.00102549
0.00321909
0.00171607
0.000797023
0.000324658
0.000308977
0.00078455
0.00193871
0.00189006
0.000756396
0.000303049
0.000273007
0.000657725
0.00127246
0.0016041
0.000710422
0.00026512
0.000248459
0.000710201
0.00148432
0.00136719
0.00066854
0.000222664
0.000197864
0.000599638
0.00104404
0.00136582
0.000674278
0.00018812
0.000176027
0.000706303
0.00132263
0.00127546
0.000681693
0.000160663
0.000141842
0.000643881
0.00103145
0.00138161
0.000745079
0.000138801
0.000150318
0.000766093
0.00127775
0.00207366
0.00100166
0.000176537
0.000204055
0.00112296
0.00232845
0.00241306
0.00119302
0.000196867
0.000185336
0.00114573
0.00199503
0.00273555
0.00136742
0.000200691
0.000214838
0.0014796
0.00272579
0.00261798
0.00140968
0.000192827
0.000177771
0.00127842
0.00210551
0.00266899
0.0014714
0.000190067
0.000207028
0.00158914
0.00278508
0.00265832
0.00152422
0.000190553
0.000168041
0.00136334
0.00254049
0.00199653
0.00114012
0.000145451
0.000153383
0.00136311
0.0025927
0.0024402
0.00124587
0.000150397
0.000121169
0.00107585
0.00204954
0.00116625
0.000340312
6.57147e-05
5.26924e-05
0.000430913
0.00158179
0.0013341
0.000390643
6.3054e-05
4.8953e-05
0.00031884
0.000959569
0.00091875
0.000308011
3.9115e-05
2.72426e-05
0.0001289
0.000366601
0.000966197
0.000513576
4.10525e-05
5.3847e-05
0.000497822
0.000975195
0.000802215
0.000337951
4.53911e-05
3.62188e-05
0.000296575
0.00074094
0.000278567
0.000112095
2.54776e-05
3.5355e-05
0.00043368
0.000825037
0.000775352
0.000358333
4.61493e-05
3.72092e-05
0.000301545
0.0007019
0.000266334
0.000114202
2.69136e-05
3.52458e-05
0.000416959
0.000789832
0.000723259
0.000332079
4.54748e-05
3.67767e-05
0.000273214
0.000625887
0.000238802
0.000107553
2.64285e-05
3.3296e-05
0.000358888
0.000710687
0.000678991
0.000327024
4.38966e-05
3.81568e-05
0.000233555
0.000540019
0.000505705
0.000217129
3.16485e-05
2.46963e-05
8.96573e-05
0.000195018
0.00060001
0.00030122
2.94341e-05
3.91487e-05
0.000259704
0.000542271
0.000466633
0.000214117
3.19666e-05
2.45993e-05
8.7228e-05
0.000181589
0.000538288
0.000272748
2.81271e-05
3.74885e-05
0.000231058
0.000477858
0.00042916
0.000201428
3.09233e-05
2.46401e-05
8.4181e-05
0.000171986
0.000520534
0.000264482
2.78128e-05
3.70563e-05
0.000229459
0.000468672
0.000404259
0.000192209
3.06938e-05
2.44739e-05
8.0445e-05
0.000162029
0.000463676
0.000239102
2.63064e-05
3.5365e-05
0.000207659
0.000413146
0.000370973
0.000180625
2.97564e-05
2.37263e-05
7.79066e-05
0.000155367
0.000444294
0.000232024
2.56622e-05
3.48655e-05
0.000207123
0.000403361
0.000349116
0.000170935
2.97317e-05
2.35968e-05
7.49086e-05
0.000146873
0.000395135
0.000211719
2.42059e-05
3.15842e-05
0.000197357
0.000381054
0.000163461
8.75273e-05
2.48805e-05
2.66625e-05
0.000240465
0.000447506
0.000400048
0.000211493
3.58522e-05
3.07011e-05
0.000178398
0.0003446
0.000151986
7.9345e-05
2.48362e-05
2.53382e-05
0.000217412
0.000397056
0.000362024
0.000193882
3.42674e-05
2.97265e-05
0.000168208
0.000320399
0.000142419
7.4566e-05
2.46247e-05
2.36967e-05
0.000191757
0.00033921
0.000323264
0.000179887
3.06674e-05
2.43094e-05
8.23632e-05
0.000147692
0.000360674
0.000204805
2.46206e-05
3.32003e-05
0.000179842
0.000319263
0.000287082
0.000159199
2.87937e-05
2.41978e-05
7.24224e-05
0.000134519
0.000302309
0.000176969
2.30238e-05
3.01627e-05
0.000170148
0.000292892
0.000140359
8.06128e-05
2.42701e-05
2.41114e-05
0.000191765
0.000328299
0.00030163
0.000175533
3.28431e-05
2.90281e-05
0.000155046
0.000269633
0.000130436
7.3288e-05
2.37959e-05
2.28802e-05
0.000171554
0.000284021
0.000274066
0.000163764
2.99569e-05
2.40384e-05
7.92532e-05
0.000133567
0.000299218
0.000179922
2.34518e-05
3.19152e-05
0.000163306
0.000270613
0.000246067
0.000143734
2.81461e-05
2.33089e-05
7.31756e-05
0.000122496
0.000246699
0.000157216
2.22022e-05
2.96219e-05
0.000147732
0.000237438
0.000124998
7.99887e-05
2.38911e-05
2.26961e-05
0.000165049
0.000255627
0.000242517
0.000154417
3.12954e-05
2.78866e-05
0.000132689
0.000220332
0.000112712
7.28069e-05
2.2952e-05
2.16546e-05
0.000146728
0.000222188
0.000213914
0.00013769
2.90224e-05
2.35108e-05
7.72498e-05
0.000114778
0.000231094
0.000154814
2.17307e-05
2.89885e-05
0.00014362
0.000219758
0.000119758
8.11771e-05
2.35372e-05
2.2173e-05
0.000157697
0.000229863
0.000218317
0.000144238
2.9745e-05
2.42984e-05
8.40023e-05
0.000122285
0.000238084
0.000160548
2.29156e-05
3.15328e-05
0.000149448
0.000228315
0.000201457
0.00013089
2.81089e-05
2.32225e-05
7.69079e-05
0.000109874
0.000206539
0.000141306
2.18471e-05
2.96728e-05
0.000133294
0.000193193
0.000110224
8.15366e-05
2.42922e-05
2.20354e-05
0.000142769
0.000202945
0.000190937
0.000133939
2.94502e-05
2.40304e-05
8.35102e-05
0.000111035
0.000207583
0.000146832
2.23419e-05
3.00368e-05
0.000137365
0.000193945
0.000114741
8.71898e-05
2.47431e-05
2.31765e-05
0.000148406
0.000210956
0.00020667
0.000144507
3.24544e-05
2.91611e-05
0.000126836
0.00018333
0.00010349
8.03801e-05
2.46909e-05
2.19511e-05
0.00013483
0.000190971
0.000179471
0.000127974
2.97592e-05
2.42239e-05
8.37981e-05
0.000104656
0.000193461
0.000138944
2.21508e-05
3.01652e-05
0.000131204
0.000179893
0.000106971
8.66106e-05
2.48167e-05
2.25562e-05
0.000140266
0.000192173
0.000178845
0.000131688
3.05123e-05
2.4968e-05
8.84295e-05
0.000107514
0.000195234
0.000142391
2.27668e-05
3.08204e-05
0.000134431
0.000181438
0.0001097
9.08831e-05
2.5413e-05
2.31118e-05
0.000143727
0.000194546
0.000180746
0.000135211
3.13312e-05
2.60348e-05
9.35237e-05
0.000110838
0.000195941
0.000143185
2.38922e-05
3.3509e-05
0.000140262
0.00018617
0.000168529
0.000125751
3.00589e-05
2.55614e-05
8.4664e-05
9.97912e-05
0.000171429
0.000126534
2.2366e-05
3.07342e-05
0.000121185
0.000161372
9.90911e-05
8.76329e-05
2.50065e-05
2.24939e-05
0.000127498
0.000168956
0.000158367
0.000121783
3.09214e-05
2.55627e-05
8.84502e-05
9.89997e-05
0.000169029
0.000128192
2.25608e-05
3.09088e-05
0.000122098
0.00015809
9.96756e-05
9.04903e-05
2.5314e-05
2.26708e-05
0.000128762
0.000168344
0.000158135
0.000123228
3.11545e-05
2.59588e-05
9.16402e-05
0.000100636
0.000170138
0.000130253
2.29438e-05
3.14538e-05
0.000124453
0.000159596
0.000102018
9.39671e-05
2.60361e-05
2.34134e-05
0.000131642
0.000171047
0.000161057
0.000126167
3.21438e-05
2.67107e-05
9.57992e-05
0.00010365
0.000173879
0.000134116
2.36763e-05
3.22763e-05
0.000128189
0.000163199
0.000105362
9.78133e-05
2.69546e-05
2.39678e-05
0.000134967
0.000174471
0.000164491
0.000129646
3.282e-05
2.7538e-05
9.99691e-05
0.000106878
0.000178259
0.000138082
2.45501e-05
3.35101e-05
0.000132506
0.000167868
0.000110382
0.000103705
2.83009e-05
2.56663e-05
0.000141402
0.000183607
0.000178248
0.000142736
3.59694e-05
3.27013e-05
0.000129669
0.00016022
0.000103221
9.67575e-05
2.69583e-05
2.43003e-05
0.000129619
0.000169361
0.000160948
0.000125371
3.37933e-05
2.81802e-05
9.79573e-05
0.000103782
0.000170814
0.000132411
2.4509e-05
3.35731e-05
0.000127381
0.000161042
0.000105477
0.000100311
2.77176e-05
2.45925e-05
0.000134116
0.000171324
0.000161077
0.000128897
3.37918e-05
2.82377e-05
0.000101555
0.000106378
0.000173034
0.000135684
2.48506e-05
3.40295e-05
0.000130649
0.000163228
0.000108359
0.000103358
2.82166e-05
2.49696e-05
0.000137254
0.000174382
0.00016413
0.000132005
3.44019e-05
2.8685e-05
0.000104685
0.000109328
0.000176273
0.00013867
2.51724e-05
3.46097e-05
0.000133619
0.00016649
0.000111543
0.000106967
2.90032e-05
2.57059e-05
0.00014086
0.000177954
0.000167675
0.000135598
3.52275e-05
2.94741e-05
0.000108895
0.000112831
0.000180567
0.000143115
2.60478e-05
3.57463e-05
0.000138096
0.000170787
0.000115797
0.000111278
2.98753e-05
2.63047e-05
0.00014512
0.000182292
0.000172039
0.00013984
3.60374e-05
3.02375e-05
0.000113114
0.000117133
0.000185145
0.00014722
2.67286e-05
3.67939e-05
0.000142242
0.000175525
0.000121039
0.000116957
3.12376e-05
2.79184e-05
0.000150454
0.000190353
0.000183261
0.000153454
3.92536e-05
3.53403e-05
0.000140739
0.000164576
0.000114949
0.000107737
3.03872e-05
2.63078e-05
0.000135554
0.000169593
0.000161908
0.00013137
3.64649e-05
3.02971e-05
0.000109865
0.000113135
0.000167477
0.000136001
2.66668e-05
3.68418e-05
0.000131576
0.000158639
0.000112587
0.0001107
3.08388e-05
2.658e-05
0.000135712
0.00016559
0.000157563
0.000131945
3.67299e-05
3.05036e-05
0.000112556
0.000112654
0.000167333
0.00013752
2.68061e-05
3.70213e-05
0.000133492
0.000158954
0.000114246
0.000114252
3.11412e-05
2.70179e-05
0.000139002
0.000169189
0.000161233
0.000135364
3.70983e-05
3.12237e-05
0.000116508
0.000115759
0.000173299
0.000142428
2.75502e-05
3.81255e-05
0.00013838
0.00016521
0.000119017
0.00011977
3.2046e-05
2.81328e-05
0.00014582
0.000176995
0.000169125
0.000141975
3.86899e-05
3.30287e-05
0.00012415
0.000122351
0.000186236
0.000151314
2.94999e-05
4.15086e-05
0.000156401
0.000179676
0.00016346
0.000145759
3.76392e-05
3.23472e-05
0.000117576
0.000120907
0.000172413
0.000141622
2.80519e-05
3.93967e-05
0.000138032
0.000165683
0.000120035
0.000121764
3.31296e-05
2.88127e-05
0.000145329
0.000174736
0.000166689
0.000141328
3.98699e-05
3.35102e-05
0.000124194
0.000121816
0.000178312
0.000148593
2.89937e-05
3.98436e-05
0.000144587
0.000170682
0.000125158
0.000127107
3.35716e-05
2.9368e-05
0.000151951
0.000181929
0.000173559
0.000147896
4.02171e-05
3.42664e-05
0.000130762
0.000128258
0.000186829
0.000154784
3.05145e-05
4.29107e-05
0.000160188
0.000177791
0.000164764
0.000150094
3.94026e-05
3.32319e-05
0.000124414
0.000126028
0.000174238
0.000145432
2.96054e-05
4.14808e-05
0.000142748
0.000167753
0.000124623
0.000127288
3.50113e-05
3.00547e-05
0.000148294
0.000176241
0.000169101
0.000145142
4.14194e-05
3.51705e-05
0.000132209
0.000126963
0.000184457
0.000154049
3.11892e-05
4.43252e-05
0.000160883
0.000176681
0.000162555
0.000151725
4.05367e-05
3.53269e-05
0.000127766
0.000127528
0.000174693
0.00014729
3.04485e-05
4.24092e-05
0.000144213
0.000168169
0.000127239
0.000132375
3.55022e-05
3.09208e-05
0.00015248
0.000178841
0.000170951
0.000148801
4.27399e-05
3.58984e-05
0.000135706
0.000130188
0.000184023
0.000155272
3.12401e-05
4.47107e-05
0.0001622
0.000174592
0.000163031
0.000153246
4.10591e-05
3.64104e-05
0.000129751
0.000129908
0.000174826
0.000148385
3.11847e-05
4.34016e-05
0.000145382
0.000168172
0.000129395
0.000135267
3.62476e-05
3.16346e-05
0.000153066
0.000178539
0.00017175
0.000150184
4.39223e-05
3.76602e-05
0.000140844
0.000132591
0.000188763
0.000160182
3.27391e-05
4.63541e-05
0.000167678
0.000181
0.000167535
0.000159782
4.29972e-05
3.69998e-05
0.000140031
0.000135684
0.000182995
0.000156918
3.27091e-05
4.57647e-05
0.000154912
0.000176911
0.000138793
0.000146468
3.92537e-05
3.42343e-05
0.000164544
0.00019198
0.000184843
0.000173453
4.82452e-05
4.34861e-05
0.000164354
0.000170288
0.000138285
0.0001421
3.69226e-05
3.26717e-05
0.000157881
0.000184484
0.000179128
0.000155322
4.63723e-05
4.03781e-05
0.00014859
0.000141882
0.000191963
0.000165846
3.51776e-05
4.97759e-05
0.000174844
0.000184788
0.00017172
0.000167722
4.57294e-05
3.93647e-05
0.000149384
0.000143534
0.000187595
0.000163375
3.44668e-05
4.94368e-05
0.000172352
0.000179615
0.000169921
0.000162512
4.49913e-05
3.90158e-05
0.000144505
0.000141207
0.000182229
0.000157645
3.46252e-05
4.88239e-05
0.00015605
0.000176299
0.000143151
0.000153902
4.19715e-05
3.64649e-05
0.000168055
0.000192375
0.000185304
0.00017726
5.15138e-05
4.77186e-05
0.000170888
0.000173408
0.000146702
0.000157069
4.14037e-05
3.58617e-05
0.000170836
0.000196536
0.000189825
0.000180163
5.15092e-05
4.82291e-05
0.000173342
0.000177775
0.000150766
0.000158914
4.23924e-05
3.76061e-05
0.00017231
0.000197177
0.000190887
0.000181741
5.39433e-05
5.0148e-05
0.000174481
0.000180578
0.000154528
0.000161536
4.35545e-05
3.74208e-05
0.000173393
0.000196905
0.000191106
0.000183172
5.32369e-05
4.94665e-05
0.000175818
0.000179583
0.000154616
0.000163344
4.38993e-05
3.892e-05
0.000174789
0.000198138
0.000189966
0.000175402
5.62007e-05
5.41584e-05
0.000188875
0.000180702
0.000175712
0.000178265
5.08652e-05
4.48114e-05
0.000159541
0.000156096
0.000189698
0.00016791
3.81389e-05
5.57264e-05
0.000178122
0.000183632
0.000174526
0.000171559
5.25075e-05
4.61548e-05
0.00016517
0.000153669
0.000194954
0.000173757
4.02989e-05
5.83073e-05
0.000172942
0.000187432
0.00017879
0.000184803
5.72241e-05
5.20817e-05
0.000175618
0.000173029
0.000153786
0.000165554
4.67813e-05
4.15375e-05
0.000174321
0.000197362
0.000191644
0.000172821
6.14803e-05
5.92036e-05
0.000192019
0.000182803
0.000176384
0.000183339
5.51773e-05
4.85042e-05
0.000170338
0.000160082
0.000198708
0.000176411
4.0211e-05
5.91803e-05
0.000179608
0.00019075
0.000185091
0.000186224
5.94264e-05
6.0374e-05
0.000184637
0.000179202
0.000176409
0.000175988
5.85853e-05
5.26658e-05
0.000171311
0.000160121
0.000198401
0.000175441
4.31072e-05
6.35008e-05
0.000180633
0.00019383
0.000187606
0.000181579
6.52699e-05
6.6819e-05
0.000187546
0.000181757
0.000179643
0.000181861
6.7047e-05
6.54558e-05
0.000186395
0.000174564
0.000170261
0.000175963
6.23082e-05
5.71444e-05
0.000174608
0.000159408
0.000194987
0.000177146
4.62711e-05
6.47589e-05
0.000174102
0.000189448
0.0001822
0.000187354
6.48198e-05
6.81381e-05
0.000185755
0.000179874
0.000177981
0.000183509
7.07883e-05
7.24725e-05
0.00018024
0.000177532
0.000174825
0.000182422
7.54055e-05
7.65081e-05
0.000177665
0.000174722
0.000174022
0.000187124
7.78127e-05
7.91318e-05
0.000190308
0.000174817
0.000176861
0.000202612
7.85842e-05
7.68816e-05
0.000210228
0.00017833
0.000183547
0.000225935
7.49862e-05
7.27522e-05
0.000233013
0.000185609
0.000193802
0.000246103
7.08018e-05
6.87605e-05
0.000244646
0.000196566
0.000207105
0.000257604
6.70847e-05
6.53948e-05
0.000257417
0.000210847
0.000223433
0.000268794
6.40185e-05
6.27136e-05
0.000272339
0.000227921
0.000243549
0.000280279
6.16055e-05
6.06099e-05
0.000285819
0.000249225
0.000268273
0.00029155
5.97452e-05
5.90033e-05
0.000297419
0.000274562
0.000295954
0.000303271
5.83464e-05
5.78299e-05
0.000309025
0.000303412
0.000326049
0.000315063
5.73219e-05
5.70188e-05
0.000321042
0.000334869
0.000358807
0.000327352
5.6611e-05
5.65041e-05
0.0003334
0.000366965
0.000393225
0.00033962
5.61793e-05
5.62172e-05
0.000345642
0.000395124
0.000421516
0.000351986
5.59775e-05
5.60883e-05
0.000357809
0.000423413
0.000448992
0.000363952
5.59488e-05
5.6093e-05
0.000369632
0.000450747
0.000475762
0.000375807
5.60481e-05
5.62081e-05
0.000381151
0.000477217
0.000501236
0.00038707
5.62319e-05
5.639e-05
0.000392186
0.000502509
0.000525871
0.000398056
5.64487e-05
5.66025e-05
0.000402696
0.000526648
0.000548753
0.00040815
5.66826e-05
5.68293e-05
0.000412402
0.000549094
0.000569774
0.000417558
5.69053e-05
5.70648e-05
0.000421324
0.000569551
0.00058871
0.000425937
5.71352e-05
5.7302e-05
0.000429413
0.000588364
0.000606707
0.000433807
5.73589e-05
5.75216e-05
0.000436772
0.000605894
0.000623145
0.000440796
5.75692e-05
5.77244e-05
0.000443436
0.000622307
0.000638848
0.000447264
5.77607e-05
5.79088e-05
0.000449418
0.000637542
0.000653142
0.000452889
5.79376e-05
5.8078e-05
0.000454768
0.000651834
0.000666778
0.000458058
5.80974e-05
5.82301e-05
0.000459514
0.000665026
0.000679223
0.000462476
5.82434e-05
5.8368e-05
0.000463736
0.000677544
0.000691208
0.000466534
5.83733e-05
5.84883e-05
0.000467427
0.00068912
0.00070228
0.000469957
5.8489e-05
5.85955e-05
0.000470711
0.000700305
0.000713032
0.000473119
5.85909e-05
5.86893e-05
0.000473565
0.000710649
0.000723012
0.000475754
5.86831e-05
5.87764e-05
0.000476015
0.000720538
0.00073272
0.000478145
5.87677e-05
5.88569e-05
0.0004783
0.000730013
0.000741769
0.000480245
5.88464e-05
5.89344e-05
0.000480406
0.000739325
0.000750795
0.000482278
5.89223e-05
5.90084e-05
0.000482237
0.000747939
0.000759111
0.000483927
5.89953e-05
5.90784e-05
0.000483911
0.000756437
0.000767553
0.00048557
5.90627e-05
5.91412e-05
0.000485366
0.000764458
0.000775381
0.00048686
5.91243e-05
5.91985e-05
0.000486708
0.000772398
0.00078201
0.000488211
5.91802e-05
5.92505e-05
0.000487882
0.000779725
0.00078726
0.000489244
5.92327e-05
5.92995e-05
0.000488972
0.00078683
0.000791995
0.000490358
5.9281e-05
5.9345e-05
0.000489906
0.000793237
0.000796366
0.000491147
5.93278e-05
5.93893e-05
0.000490756
0.000799392
0.000800213
0.000492018
5.93722e-05
5.94311e-05
0.000491448
0.000804851
0.000803777
0.000492561
5.94151e-05
5.94706e-05
0.000492057
0.000810101
0.000806918
0.0004932
5.94544e-05
5.95065e-05
0.000492534
0.000813753
0.000809733
0.000493529
5.94908e-05
5.95391e-05
0.000492939
0.000816698
0.000812206
0.000493961
5.95231e-05
5.95676e-05
0.000493207
0.000818852
0.000814353
0.000494077
5.95522e-05
5.95925e-05
0.000493403
0.000821201
0.000816259
0.000494305
5.95768e-05
5.96132e-05
0.000493476
0.000822794
0.000817878
0.000494238
5.95981e-05
5.96307e-05
0.000493502
0.000824634
0.000819316
0.000494307
5.96156e-05
5.96448e-05
0.000493428
0.000825788
0.000820553
0.000494107
5.96305e-05
5.96563e-05
0.000493328
0.000827282
0.000821683
0.000494068
5.96421e-05
5.96653e-05
0.000493155
0.000828138
0.000822646
0.000493777
5.96519e-05
5.96723e-05
0.000492972
0.000829362
0.000823517
0.000493664
5.96591e-05
5.96774e-05
0.000492731
0.000829954
0.000824237
0.000493312
5.96652e-05
5.96811e-05
0.000492495