/*--------------------------------*- C++ -*----------------------------------*\
| =========                 |                                                 |
| \\      /  F ield         | OpenFOAM: The Open Source CFD Toolbox           |
|  \\    /   O peration     | Version:  v2006                                 |
|   \\  /    A nd           | Website:  www.openfoam.com                      |
|    \\/     M anipulation  |                                                 |
\*---------------------------------------------------------------------------*/
FoamFile
{
    version     2.0;
    format      ascii;
    class       volScalarField;
    location    "0.024";
    object      Ma;
}
// * * * * * * * * * * * * * * * * * * * * * * * * * * * * * * * * * * * * * //

dimensions      [0 0 0 0 0 0 0];


internalField   nonuniform List<scalar> 
12716
(
0.188275
0.188275
0.188275
0.188275
0.188275
0.188275
0.188275
0.188276
0.188277
0.188276
0.188252
0.188152
0.187954
0.187679
0.187364
0.187034
0.1867
0.186365
0.186026
0.185679
0.185322
0.184953
0.184571
0.184178
0.183773
0.183357
0.182931
0.182496
0.182052
0.181599
0.181139
0.180673
0.1802
0.179722
0.17924
0.178755
0.178267
0.177778
0.177288
0.176799
0.176312
0.175827
0.175346
0.174871
0.174402
0.17394
0.173487
0.173043
0.172611
0.17219
0.171779
0.171375
0.170976
0.170578
0.170181
0.169801
0.169477
0.169263
0.169184
0.169201
0.169254
0.169312
0.169358
0.169369
0.169336
0.169214
0.168951
0.168508
0.167766
0.166941
0.164031
0.162194
0.166936
0.167909
0.168012
0.166754
0.16014
0.158036
0.166488
0.168097
0.168129
0.166164
0.156122
0.154295
0.165742
0.168077
0.167959
0.165294
0.152642
0.151128
0.164805
0.167786
0.167575
0.164296
0.149763
0.148488
0.163769
0.167325
0.167065
0.163238
0.147325
0.146216
0.162706
0.166766
0.166469
0.162172
0.145193
0.144203
0.161639
0.166136
0.165813
0.161106
0.143282
0.142385
0.160578
0.165461
0.165124
0.160055
0.141546
0.14071
0.159525
0.164747
0.164384
0.158992
0.139913
0.139124
0.158458
0.163986
0.163614
0.157931
0.138375
0.137629
0.157402
0.163206
0.162822
0.156876
0.136914
0.136197
0.156345
0.1624
0.162004
0.155818
0.135506
0.134812
0.155284
0.161569
0.16116
0.154753
0.134139
0.133461
0.154215
0.160711
0.16029
0.153679
0.132803
0.132136
0.153134
0.159826
0.159391
0.152591
0.131486
0.130827
0.152039
0.158912
0.158462
0.151487
0.130183
0.129528
0.150924
0.157966
0.157501
0.150362
0.128885
0.12823
0.149787
0.156987
0.156504
0.149212
0.127587
0.126929
0.148623
0.155972
0.155471
0.148034
0.126282
0.125619
0.14743
0.154918
0.154396
0.146824
0.124964
0.124294
0.146203
0.153822
0.153278
0.145578
0.123629
0.122948
0.144936
0.15268
0.152112
0.14429
0.12227
0.121574
0.143626
0.151487
0.150892
0.142955
0.120881
0.120167
0.142266
0.150238
0.149613
0.141568
0.119455
0.118721
0.14085
0.148928
0.148271
0.140123
0.117987
0.117229
0.139374
0.147552
0.146861
0.138614
0.11647
0.115686
0.137831
0.146105
0.145376
0.137035
0.114899
0.114085
0.136215
0.14458
0.14381
0.13538
0.113266
0.112418
0.134518
0.14297
0.142155
0.13364
0.111563
0.110678
0.132733
0.141268
0.140405
0.131807
0.109783
0.108856
0.130851
0.139466
0.138549
0.129873
0.107917
0.106943
0.128863
0.137555
0.136581
0.127829
0.105957
0.104933
0.126761
0.135527
0.134491
0.125667
0.103896
0.102818
0.124537
0.133374
0.132273
0.123379
0.101725
0.10059
0.122183
0.131088
0.129918
0.120957
0.0994387
0.0982422
0.119691
0.128661
0.127418
0.118392
0.0970276
0.095766
0.117051
0.126084
0.124763
0.115675
0.0944853
0.0931556
0.114257
0.12335
0.121948
0.112802
0.0918061
0.0904061
0.111302
0.120452
0.118967
0.109765
0.0889866
0.0875156
0.108184
0.117387
0.115818
0.106565
0.0860268
0.0844868
0.104903
0.114155
0.112504
0.103205
0.0829319
0.0813281
0.101467
0.11076
0.109033
0.0996965
0.0797152
0.0780583
0.097891
0.107218
0.105425
0.096061
0.0764004
0.0747063
0.094203
0.103551
0.101709
0.0923306
0.0730217
0.071312
0.0904405
0.0997945
0.0979238
0.0885506
0.0696266
0.0679318
0.0866577
0.095996
0.0941276
0.0847838
0.0662802
0.0646389
0.0829259
0.0922208
0.0903926
0.0811101
0.0630635
0.0615212
0.0793321
0.0885481
0.086804
0.0776224
0.06007
0.0586764
0.0759739
0.0850674
0.0834545
0.0744206
0.0573987
0.0562019
0.0729509
0.0818727
0.0804364
0.0716011
0.0551422
0.0541818
0.0703532
0.0790519
0.0778312
0.0692454
0.0533736
0.0526759
0.0682518
0.0766783
0.0757002
0.0674086
0.0521348
0.0517034
0.0666815
0.0747969
0.074069
0.0661041
0.051421
0.0512372
0.0656352
0.0734146
0.072926
0.0653065
0.0511898
0.0512354
0.065064
0.0725021
0.0722154
0.0649609
0.0514085
0.0516281
0.0649031
0.0720045
0.0719123
0.0649922
0.0519437
0.0522822
0.0651031
0.0718911
0.0719592
0.0653401
0.052695
0.0531139
0.0655781
0.0720749
0.0722586
0.0659169
0.0535858
0.0540466
0.0662368
0.0724692
0.0727291
0.0666355
0.0545412
0.0550135
0.067001
0.0730012
0.0733074
0.0674289
0.0555053
0.0559684
0.0678142
0.0736152
0.0739465
0.0682508
0.0564424
0.0568847
0.0686391
0.0742723
0.0746125
0.069069
0.0573291
0.0577486
0.0694521
0.074946
0.0752957
0.0698794
0.0581756
0.0585669
0.07025
0.0756278
0.0759641
0.0706519
0.0589524
0.0593055
0.0709984
0.0762828
0.0766032
0.0713742
0.0596532
0.0599705
0.0716949
0.0769053
0.0772077
0.0720438
0.0602829
0.0605677
0.0723391
0.0774919
0.0777758
0.0726623
0.0608487
0.0611047
0.0729335
0.0780422
0.078308
0.0732329
0.0613581
0.0615888
0.0734819
0.078557
0.0788055
0.0737595
0.0618183
0.0620268
0.0739882
0.0790382
0.0792704
0.0742459
0.0622352
0.062424
0.0744559
0.0794876
0.0797045
0.0746952
0.0626135
0.0627844
0.0748879
0.0799069
0.080109
0.07511
0.0629567
0.0631112
0.0752872
0.0802972
0.0804859
0.0754933
0.0632682
0.0634082
0.0756565
0.0806605
0.0808367
0.0758479
0.0635514
0.0636786
0.0759981
0.0809989
0.0811638
0.0761761
0.0638094
0.063925
0.0763145
0.0813146
0.0814692
0.0764803
0.0640448
0.0641499
0.0766079
0.0816095
0.0817545
0.0767624
0.0642596
0.0643544
0.0768797
0.0818847
0.0820207
0.0770237
0.0644546
0.06454
0.0771314
0.0821418
0.0822701
0.0772662
0.0646319
0.0647105
0.0773665
0.0823836
0.0825055
0.0774933
0.0647938
0.0648649
0.0775955
0.0826145
0.0827572
0.0777125
0.0649917
0.0651073
0.077863
0.0829077
0.0830997
0.0780542
0.0653469
0.065519
0.0782467
0.0832695
0.0834167
0.0783891
0.0656158
0.0660232
0.0786898
0.0837034
0.0839297
0.0789656
0.066278
0.0885618
0.0911247
0.0928135
0.0938964
0.0947644
0.0958971
0.0967076
0.0975678
0.0982215
0.0988861
0.0994111
0.0999418
0.100358
0.10078
0.101091
0.101375
0.101547
0.101642
0.101617
0.101379
0.100822
0.100094
0.0994105
0.0970207
0.0913495
0.0858755
0.0719075
0.0700018
0.0842103
0.0897553
0.0844184
0.0748811
0.0536067
0.0567864
0.0780641
0.0873345
0.0873026
0.0776675
0.0555289
0.0555388
0.0778567
0.0875822
0.0872286
0.0774132
0.0548266
0.0550801
0.0776074
0.0873779
0.0871305
0.0772284
0.0545964
0.0549025
0.0774928
0.0873258
0.0871424
0.0773628
0.0544648
0.0547927
0.0776623
0.087393
0.0872724
0.0774489
0.0546917
0.0550192
0.0777664
0.0875377
0.0874283
0.0776554
0.0549347
0.0552582
0.0779754
0.0876982
0.0875946
0.077872
0.0551769
0.0555047
0.0781959
0.0878669
0.0877706
0.0780996
0.0554328
0.0557654
0.0784278
0.0880459
0.0879531
0.0783353
0.0556978
0.0560338
0.0786657
0.0882287
0.0881416
0.078579
0.055974
0.0563143
0.0789134
0.0884202
0.0883359
0.0788301
0.0562587
0.0566023
0.0791662
0.0886141
0.088535
0.0790879
0.0565537
0.0569009
0.0794273
0.0888157
0.0887391
0.0793522
0.0568562
0.0572067
0.079693
0.0890193
0.0889478
0.0796228
0.0571685
0.0575228
0.0799667
0.0892303
0.0891614
0.0798999
0.0574889
0.0578464
0.0802453
0.0894434
0.0893798
0.0801835
0.0578193
0.0581807
0.0805321
0.0896641
0.0896035
0.0804738
0.0581582
0.0585232
0.0808243
0.0898876
0.0898326
0.0807716
0.0585079
0.0588773
0.0811254
0.0901191
0.0900675
0.0810766
0.0588672
0.0592407
0.0814327
0.0903544
0.0903089
0.0813901
0.0592386
0.0596169
0.0817499
0.0905985
0.090557
0.0817118
0.0596205
0.0600037
0.0820745
0.0908474
0.0908127
0.0820431
0.0600156
0.0604039
0.0824097
0.0911061
0.0910761
0.0823835
0.060422
0.0608157
0.0827536
0.091371
0.0913485
0.0827349
0.0608427
0.0612419
0.0831093
0.0916468
0.0916298
0.0830967
0.061276
0.0616814
0.0834758
0.0919309
0.0919228
0.0834721
0.0617255
0.0621374
0.0838569
0.0922285
0.0922279
0.0838611
0.0621899
0.0626094
0.0842524
0.0925381
0.0925483
0.0842677
0.0626738
0.0631013
0.0846667
0.0928649
0.0928847
0.0846923
0.0631763
0.063613
0.0851
0.0932077
0.0932406
0.0851391
0.0637018
0.064148
0.0855571
0.0935721
0.0936177
0.0856098
0.0642499
0.0647074
0.0860401
0.0939585
0.0940209
0.0861105
0.064826
0.0652959
0.0865554
0.0943735
0.0944534
0.0866456
0.0654333
0.0659204
0.0871099
0.0948207
0.0949238
0.087226
0.0660841
0.0665927
0.0877145
0.0953093
0.0954385
0.0878619
0.066791
0.0673319
0.0883832
0.0958474
0.0960095
0.0885711
0.0675806
0.068165
0.0891327
0.0964454
0.0966459
0.0893713
0.0684877
0.0691395
0.0899866
0.0971159
0.0973652
0.0902902
0.0695725
0.0703258
0.0909776
0.0978816
0.09823
0.0914079
0.0709822
0.0720485
0.0922883
0.0988895
0.0992748
0.0927997
0.0729958
0.0739511
0.0935419
0.09982
0.100117
0.0939044
0.0747049
0.07579
0.0947137
0.100626
0.100845
0.0949918
0.0763052
0.0770324
0.0954878
0.101118
0.101122
0.0955251
0.0773529
0.0780177
0.0959357
0.101304
0.101339
0.0961127
0.0785247
0.0791243
0.0964291
0.101497
0.101553
0.0966023
0.0797557
0.0806031
0.0969716
0.101728
0.101695
0.0971102
0.0811227
0.0816195
0.0973071
0.101703
0.101633
0.0973284
0.0820683
0.0828058
0.0976236
0.101703
0.101666
0.0977153
0.0834332
0.0840693
0.0978698
0.101638
0.10151
0.0978799
0.0846283
0.0851419
0.0979039
0.101358
0.101168
0.09791
0.0856942
0.0863365
0.0978963
0.10101
0.100738
0.0977593
0.0868041
0.0873629
0.0976554
0.100527
0.100162
0.0974887
0.0880231
0.0885995
0.0973367
0.0996878
0.0990116
0.0969467
0.0891174
0.0816119
0.0934455
0.0972973
0.098176
0.0951975
0.0844617
0.0852205
0.0952572
0.0979105
0.0974582
0.095148
0.0861661
0.0868724
0.0948157
0.0969918
0.0965017
0.0946909
0.087939
0.0901036
0.0943764
0.0963305
0.095864
0.0948084
0.090014
0.088877
0.0938172
0.094752
0.0935597
0.0929112
0.0882449
0.0873623
0.0918302
0.0922259
0.0908209
0.0904723
0.0862157
0.0846105
0.0892147
0.0897689
0.0886388
0.0880111
0.0834602
0.0821664
0.0865733
0.0870588
0.0851668
0.0846084
0.0805734
0.0787567
0.0821204
0.0827547
0.0797922
0.0793468
0.0768074
0.0750108
0.0762273
0.0767471
0.0731094
0.0728792
0.0732517
0.0713068
0.0697871
0.0696701
0.0671471
0.0670743
0.0687643
0.0663291
0.0639727
0.0641865
0.0606219
0.0607304
0.063962
0.0615047
0.0577672
0.057367
0.0546757
0.0548139
0.0585264
0.0555344
0.0514011
0.0513816
0.0478153
0.0474043
0.0521407
0.0479069
0.0429061
0.0434065
0.0390485
0.0382847
0.042697
0.0363281
0.0336842
0.035727
0.0332411
0.0293091
0.0292227
0.0226997
0.0271612
0.033192
0.0371516
0.0304792
0.019741
0.0289541
0.0386165
0.043773
0.0593766
0.0548308
0.0493876
0.0767323
0.0766946
0.0781942
0.0972905
0.0986276
0.109034
0.145627
0.128258
0.124829
0.15088
0.156518
0.187018
0.223673
0.185483
0.177349
0.206405
0.219826
0.251635
0.256157
0.232642
0.223859
0.234347
0.235632
0.236787
0.208705
0.229288
0.233456
0.228474
0.217785
0.177394
0.151441
0.207094
0.225888
0.217163
0.196666
0.134977
0.124345
0.186325
0.209111
0.208174
0.180367
0.11563
0.109337
0.173613
0.20204
0.194191
0.165832
0.103811
0.0979646
0.157954
0.186844
0.188621
0.158484
0.0937336
0.0914017
0.154301
0.185372
0.179826
0.149175
0.0887892
0.0855259
0.144514
0.174805
0.178138
0.148075
0.086673
0.0912129
0.1497
0.176723
0.182201
0.157111
0.0988056
0.100962
0.157695
0.18187
0.178348
0.154858
0.0988657
0.0969834
0.150823
0.174482
0.177183
0.153067
0.100311
0.100439
0.151254
0.175348
0.170512
0.147289
0.0996113
0.0979306
0.14328
0.165906
0.167862
0.145502
0.101066
0.102488
0.144619
0.166909
0.16349
0.142379
0.103092
0.102977
0.139041
0.15935
0.155562
0.136166
0.101666
0.104471
0.139425
0.158757
0.156808
0.138062
0.105612
0.106709
0.134545
0.151399
0.144937
0.123508
0.104401
0.109179
0.121896
0.147771
0.145271
0.122449
0.107196
0.105352
0.122813
0.141212
0.138327
0.122959
0.104397
0.0995825
0.118498
0.132431
0.141627
0.132381
0.115031
0.114556
0.132214
0.141872
0.140815
0.130865
0.113287
0.112323
0.1296
0.139512
0.135171
0.125043
0.108
0.120773
0.136283
0.143743
0.144025
0.136043
0.119912
0.119222
0.13495
0.143213
0.139423
0.130981
0.11537
0.125929
0.14017
0.146825
0.146921
0.139729
0.124869
0.12384
0.138432
0.145893
0.142335
0.134456
0.119979
0.129393
0.14282
0.14883
0.148938
0.14234
0.128243
0.126347
0.141103
0.148185
0.147293
0.139825
0.124808
0.120867
0.136303
0.143981
0.150377
0.144632
0.130902
0.129737
0.144176
0.150589
0.149556
0.142621
0.128448
0.124312
0.138993
0.146178
0.152291
0.146768
0.133552
0.13265
0.146628
0.152753
0.152114
0.145538
0.131678
0.12731
0.141748
0.148711
0.154314
0.148956
0.136018
0.135554
0.149132
0.154938
0.154421
0.148202
0.134908
0.130974
0.14478
0.151281
0.156627
0.151427
0.138454
0.137059
0.151034
0.156869
0.156518
0.150259
0.136366
0.13307
0.146903
0.153722
0.159123
0.154225
0.141631
0.140496
0.15387
0.159253
0.158464
0.152434
0.138909
0.13513
0.148856
0.155633
0.161029
0.156355
0.144021
0.143744
0.156401
0.161628
0.159284
0.153568
0.141006
0.147884
0.159571
0.164036
0.164067
0.158995
0.146399
0.14515
0.157913
0.163589
0.161173
0.155213
0.142181
0.150097
0.16187
0.166329
0.16699
0.161994
0.149213
0.148214
0.160927
0.16646
0.163444
0.157472
0.144136
0.151375
0.163546
0.168068
0.168672
0.16365
0.151174
0.148843
0.161104
0.166624
0.171139
0.166947
0.155502
0.154445
0.166699
0.171441
0.170902
0.165642
0.153264
0.149337
0.162431
0.168182
0.172757
0.168457
0.156657
0.156505
0.168705
0.1735
0.171602
0.166308
0.154231
0.16076
0.171957
0.175986
0.176416
0.171849
0.159745
0.158498
0.170748
0.17587
0.173262
0.167407
0.154896
0.162003
0.17359
0.177757
0.178468
0.173804
0.161891
0.159573
0.171448
0.176548
0.18069
0.176786
0.16562
0.164548
0.176587
0.181038
0.180628
0.175601
0.163206
0.1595
0.172255
0.1781
0.182376
0.17834
0.166609
0.166303
0.178493
0.183123
0.18128
0.176167
0.16405
0.170571
0.181714
0.185527
0.1861
0.181719
0.169588
0.168422
0.180803
0.185794
0.183193
0.177408
0.164716
0.171429
0.183396
0.187436
0.188003
0.1833
0.170839
0.168428
0.180933
0.186033
0.190394
0.186663
0.175348
0.174672
0.186492
0.19092
0.188908
0.183861
0.172133
0.17783
0.189009
0.192761
0.192702
0.188195
0.17644
0.173707
0.185598
0.190721
0.194716
0.191044
0.180105
0.179556
0.191363
0.195522
0.195567
0.19086
0.178634
0.175419
0.187922
0.19343
0.197428
0.193711
0.181938
0.180805
0.193168
0.197693
0.195427
0.190323
0.17771
0.18396
0.195483
0.1993
0.19995
0.195515
0.183462
0.181158
0.193127
0.1982
0.202226
0.198656
0.187373
0.186749
0.198534
0.20284
0.201049
0.19616
0.184319
0.190009
0.201126
0.204701
0.205098
0.200902
0.18873
0.18728
0.19986
0.204753
0.202508
0.197121
0.184011
0.191266
0.203188
0.20692
0.20761
0.203132
0.190537
0.187875
0.200419
0.205707
0.209692
0.206124
0.194456
0.193419
0.205709
0.210086
0.208021
0.20299
0.190576
0.196428
0.208105
0.211829
0.212035
0.207543
0.195219
0.192762
0.205026
0.210209
0.214217
0.210699
0.1993
0.198768
0.210708
0.214976
0.21324
0.208333
0.196351
0.202092
0.213409
0.216952
0.217308
0.213056
0.201169
0.198601
0.210601
0.215501
0.219091
0.215492
0.204033
0.202466
0.215145
0.219431
0.219307
0.214302
0.201249
0.198089
0.21174
0.217206
0.221572
0.217899
0.205446
0.204298
0.217546
0.222097
0.220112
0.214621
0.201349
0.208193
0.220517
0.224123
0.224489
0.219903
0.206938
0.203878
0.217183
0.222394
0.226479
0.222686
0.210453
0.209156
0.222115
0.226728
0.224832
0.219389
0.206511
0.213315
0.22535
0.228912
0.229446
0.22498
0.212232
0.209415
0.222385
0.22754
0.231558
0.227897
0.215903
0.214803
0.227476
0.231946
0.230014
0.224682
0.212029
0.218024
0.230152
0.233795
0.234143
0.229637
0.216757
0.214077
0.227068
0.232307
0.236379
0.232753
0.22075
0.219926
0.232565
0.237005
0.235212
0.230035
0.217295
0.223311
0.235348
0.238956
0.239434
0.235009
0.222246
0.219593
0.232482
0.237637
0.241515
0.237904
0.225838
0.224898
0.23762
0.24205
0.24032
0.235127
0.222219
0.228323
0.240408
0.244029
0.244814
0.240561
0.227284
0.226154
0.239882
0.24493
0.242705
0.236678
0.222674
0.229881
0.243025
0.246894
0.247358
0.242468
0.228507
0.225268
0.239665
0.245196
0.249468
0.24565
0.232651
0.231491
0.245292
0.250008
0.248
0.242235
0.228464
0.235433
0.248372
0.252134
0.252548
0.247856
0.234168
0.231016
0.245052
0.250478
0.25467
0.250886
0.237919
0.236809
0.250554
0.255232
0.253348
0.247601
0.233972
0.240846
0.253733
0.257483
0.257971
0.253269
0.239635
0.236634
0.250487
0.256009
0.260163
0.256358
0.243609
0.242547
0.256078
0.260761
0.258885
0.253294
0.239646
0.246158
0.259121
0.26292
0.263401
0.258694
0.244978
0.242146
0.25602
0.261509
0.265599
0.26183
0.248841
0.247613
0.261415
0.266136
0.264322
0.258711
0.244869
0.251799
0.264716
0.26849
0.269211
0.264545
0.250938
0.248262
0.261986
0.267437
0.271474
0.2677
0.254798
0.253466
0.267228
0.271933
0.270116
0.264536
0.250603
0.257373
0.27033
0.274167
0.274827
0.270209
0.255992
0.25461
0.269309
0.274784
0.272281
0.266224
0.250607
0.258455
0.272746
0.276904
0.277644
0.272532
0.257037
0.253954
0.269454
0.275764
0.280434
0.276526
0.262153
0.260503
0.275778
0.280912
0.278519
0.272509
0.256894
0.26451
0.278835
0.282992
0.283382
0.278171
0.262889
0.259631
0.274905
0.281267
0.285894
0.281816
0.267513
0.266281
0.281438
0.286578
0.284557
0.278559
0.263126
0.270962
0.285147
0.289204
0.290166
0.285149
0.270158
0.267271
0.282256
0.288324
0.292801
0.28871
0.274433
0.272776
0.287925
0.29311
0.290944
0.284853
0.269478
0.276886
0.291206
0.295412
0.296098
0.290931
0.275728
0.272825
0.288201
0.294305
0.298871
0.294747
0.280514
0.27951
0.295091
0.300058
0.300608
0.294784
0.278601
0.275283
0.291978
0.298482
0.303549
0.299225
0.284018
0.281727
0.298289
0.303807
0.301365
0.294518
0.277986
0.286403
0.301777
0.306206
0.306725
0.301204
0.284914
0.281492
0.297938
0.304476
0.309413
0.304985
0.28989
0.288921
0.304855
0.310325
0.308511
0.30203
0.286037
0.294361
0.309198
0.313448
0.314602
0.309391
0.293894
0.291045
0.306644
0.312732
0.31722
0.31287
0.297931
0.295919
0.312484
0.317715
0.317826
0.311477
0.294169
0.289928
0.307668
0.315263
0.320487
0.315781
0.299376
0.297911
0.315436
0.321404
0.319225
0.312297
0.294568
0.304039
0.320113
0.32472
0.326118
0.320457
0.303388
0.300852
0.317726
0.324489
0.329756
0.32542
0.309691
0.307622
0.325016
0.330461
0.330199
0.323629
0.305486
0.300673
0.319799
0.3271
0.332637
0.32755
0.310326
0.308766
0.327205
0.333418
0.33126
0.323642
0.305368
0.315323
0.332221
0.336988
0.338306
0.33226
0.314429
0.312057
0.329783
0.336693
0.342553
0.338192
0.322092
0.319847
0.337738
0.343288
0.342737
0.335877
0.316851
0.311582
0.331721
0.339384
0.345259
0.339951
0.321935
0.320117
0.339447
0.345973
0.343715
0.335713
0.316573
0.327269
0.344843
0.349673
0.351402
0.345249
0.326555
0.324047
0.342716
0.349895
0.35614
0.351723
0.335424
0.334314
0.352199
0.357622
0.357584
0.350767
0.331984
0.326633
0.346207
0.354378
0.359755
0.354444
0.336276
0.334609
0.354036
0.36056
0.358462
0.350887
0.331368
0.341987
0.359564
0.364673
0.366609
0.360457
0.34125
0.34143
0.361197
0.368344
0.366579
0.358419
0.338815
0.349239
0.367824
0.372785
0.372925
0.366327
0.345953
0.341269
0.361897
0.369952
0.375679
0.370245
0.351779
0.34999
0.37026
0.376667
0.377524
0.36986
0.348924
0.345088
0.366457
0.375174
0.381776
0.376121
0.356802
0.356395
0.377585
0.384089
0.38623
0.378683
0.356974
0.352258
0.374343
0.38337
0.389061
0.383047
0.362331
0.359344
0.381576
0.388978
0.386118
0.377429
0.355112
0.367387
0.387092
0.392945
0.394934
0.388123
0.366385
0.366399
0.388809
0.396881
0.395344
0.386353
0.363802
0.3793
0.397908
0.402987
0.405126
0.398961
0.378627
0.375236
0.39716
0.404893
0.401092
0.391768
0.368571
0.38021
0.401145
0.40739
0.408565
0.401413
0.378074
0.377398
0.401561
0.410096
0.4083
0.398643
0.374148
0.390502
0.4107
0.416352
0.419864
0.413587
0.39197
0.390595
0.413186
0.420894
0.416862
0.407247
0.383016
0.394348
0.416425
0.423052
0.423561
0.415916
0.391263
0.389709
0.416584
0.425381
0.428114
0.417976
0.389361
0.38673
0.415311
0.426457
0.436083
0.430242
0.407478
0.405771
0.431002
0.43827
0.437498
0.428069
0.400794
0.393407
0.421671
0.432979
0.44079
0.43334
0.408678
0.406677
0.434296
0.442673
0.446333
0.436907
0.407127
0.411676
0.441914
0.451805
0.449103
0.437903
0.408537
0.421288
0.448126
0.456137
0.454871
0.445514
0.415373
0.412037
0.444073
0.454806
0.45599
0.443524
0.410413
0.407984
0.441361
0.454125
0.46637
0.459915
0.434918
0.433604
0.461477
0.469511
0.469234
0.458991
0.42659
0.419768
0.456987
0.468887
0.469295
0.455584
0.41604
0.412861
0.452985
0.466887
0.480208
0.473164
0.444724
0.442619
0.474796
0.483278
0.482989
0.472421
0.435306
0.428738
0.470284
0.482568
0.483953
0.470803
0.42639
0.427612
0.473343
0.487327
0.487918
0.471299
0.424195
0.412071
0.460846
0.479023
0.48959
0.477688
0.440189
0.440089
0.478604
0.489829
0.490402
0.477419
0.436961
0.427056
0.47489
0.489827
0.488256
0.472485
0.420089
0.413328
0.469092
0.486452
0.482857
0.463319
0.401669
0.388435
0.456241
0.477576
0.469589
0.445589
0.373691
0.35651
0.434512
0.461201
0.452981
0.423805
0.342024
0.330033
0.415186
0.446436
0.440306
0.406982
0.319909
0.310759
0.400094
0.43523
0.42997
0.393022
0.302697
0.295245
0.387132
0.425646
0.420887
0.3809
0.288669
0.282558
0.375772
0.417006
0.412629
0.370197
0.277124
0.272112
0.365705
0.409126
0.405009
0.360728
0.267622
0.263528
0.356821
0.40179
0.397976
0.352406
0.259864
0.256549
0.349048
0.395081
0.391488
0.345146
0.253585
0.250907
0.342265
0.388828
0.385501
0.338812
0.248509
0.246413
0.336378
0.383108
0.379961
0.33333
0.244477
0.242945
0.33123
0.377803
0.374887
0.32855
0.241384
0.240326
0.326826
0.372973
0.370233
0.324459
0.239081
0.238391
0.322983
0.368561
0.366055
0.320897
0.237397
0.237003
0.319726
0.364617
0.362278
0.317883
0.236212
0.236033
0.316889
0.361061
0.358927
0.315249
0.235389
0.235379
0.314495
0.357917
0.355944
0.313047
0.234865
0.234985
0.312429
0.355136
0.353351
0.311144
0.234564
0.234775
0.310717
0.352726
0.351071
0.309578
0.234434
0.234716
0.309245
0.350618
0.349117
0.308227
0.234428
0.234759
0.308048
0.348811
0.347416
0.307149
0.234528
0.234898
0.307041
0.347248
0.345978
0.306234
0.234696
0.235088
0.306253
0.345923
0.344734
0.305537
0.234921
0.235335
0.3056
0.344786
0.343698
0.304953
0.235184
0.235608
0.305118
0.343838
0.342813
0.304541
0.23548
0.235919
0.304731
0.343035
0.342092
0.304204
0.235799
0.236245
0.304481
0.342381
0.341485
0.304008
0.236138
0.236592
0.304294
0.341833
0.341005
0.303859
0.236492
0.236948
0.304219
0.341398
0.340605
0.303826
0.236859
0.237318
0.304185
0.341039
0.340301
0.303819
0.237234
0.237689
0.304242
0.340804
0.340085
0.303908
0.237608
0.238068
0.304321
0.340574
0.339907
0.304011
0.237995
0.238458
0.304478
0.340422
0.339773
0.30419
0.238387
0.238851
0.304639
0.340309
0.339704
0.304365
0.238779
0.239241
0.304859
0.340255
0.339659
0.304601
0.239168
0.239629
0.305072
0.340226
0.339668
0.304824
0.239553
0.240011
0.305335
0.340243
0.339687
0.305096
0.239938
0.240394
0.305582
0.340274
0.339748
0.305345
0.240318
0.240769
0.305869
0.340337
0.339809
0.305635
0.240695
0.241143
0.306131
0.340406
0.339904
0.305896
0.241064
0.241507
0.306427
0.340501
0.339993
0.306192
0.241427
0.241863
0.306693
0.340594
0.34011
0.306454
0.241775
0.242204
0.306985
0.340707
0.340214
0.306744
0.242113
0.242536
0.307241
0.340812
0.340342
0.306996
0.242438
0.242852
0.307519
0.340933
0.340453
0.307271
0.242749
0.243155
0.307757
0.341044
0.340584
0.307504
0.243044
0.24344
0.308015
0.341167
0.340695
0.307759
0.243323
0.243711
0.308233
0.341278
0.340825
0.307973
0.243586
0.243965
0.308472
0.3414
0.340934
0.308208
0.243833
0.244204
0.308671
0.341507
0.341059
0.308402
0.244065
0.244425
0.30889
0.341625
0.341163
0.308617
0.244281
0.244634
0.309069
0.341726
0.341282
0.308792
0.244482
0.244825
0.309269
0.341838
0.341378
0.308987
0.244668
0.245004
0.309428
0.341932
0.341489
0.309142
0.24484
0.245167
0.309607
0.342034
0.341575
0.309317
0.244999
0.24532
0.309746
0.342119
0.341676
0.309452
0.245145
0.245459
0.309907
0.342212
0.341754
0.309609
0.245281
0.245591
0.310029
0.342289
0.341847
0.309728
0.245407
0.245711
0.310174
0.342375
0.341917
0.30987
0.245526
0.245827
0.310282
0.342444
0.342003
0.309976
0.245637
0.245932
0.310414
0.342523
0.342066
0.310105
0.245741
0.246034
0.31051
0.342586
0.342145
0.310198
0.245838
0.246126
0.31063
0.342658
0.342201
0.310316
0.24593
0.246216
0.310714
0.342714
0.342273
0.310397
0.246015
0.246297
0.310822
0.342779
0.342322
0.310503
0.246095
0.246375
0.310895
0.342828
0.342387
0.310574
0.24617
0.246446
0.310993
0.342887
0.34243
0.310669
0.246239
0.246513
0.311056
0.34293
0.342488
0.31073
0.246304
0.246574
0.311143
0.342982
0.342523
0.310815
0.246363
0.246631
0.311195
0.343017
0.342574
0.310865
0.246418
0.246682
0.311273
0.343062
0.342602
0.310939
0.246468
0.24673
0.311315
0.34309
0.342646
0.31098
0.246513
0.246772
0.311382
0.343128
0.342667
0.311045
0.246554
0.246813
0.311415
0.343149
0.342704
0.311077
0.246593
0.246848
0.311475
0.343182
0.342719
0.311135
0.246628
0.246884
0.311502
0.343198
0.342753
0.311161
0.246661
0.246915
0.311557
0.343228
0.342766
0.311215
0.246693
0.246946
0.31158
0.343243
0.342798
0.311237
0.246723
0.246975
0.311631
0.34327
0.342809
0.311287
0.246753
0.247006
0.311651
0.343283
0.342839
0.311308
0.246783
0.247036
0.311701
0.34331
0.34285
0.311359
0.246814
0.247068
0.311723
0.343325
0.342884
0.311381
0.246845
0.247099
0.311775
0.343356
0.342899
0.311434
0.246878
0.247133
0.311798
0.343374
0.342935
0.311457
0.246911
0.247166
0.31185
0.343405
0.34295
0.311509
0.246946
0.247201
0.311874
0.343424
0.342987
0.311534
0.246979
0.247232
0.311928
0.343458
0.343004
0.311587
0.24701
0.247263
0.311949
0.343477
0.34304
0.311607
0.24704
0.247292
0.311998
0.343508
0.343053
0.311654
0.24707
0.247324
0.312016
0.343524
0.343087
0.311675
0.247102
0.247357
0.312069
0.343557
0.343108
0.311731
0.247137
0.247393
0.312099
0.343585
0.343157
0.311764
0.247174
0.247433
0.312163
0.343634
0.343191
0.311829
0.247217
0.247483
0.3122
0.343673
0.34325
0.31187
0.247272
0.247546
0.312278
0.343733
0.343298
0.311956
0.247344
0.247629
0.312345
0.343795
0.343389
0.312037
0.247435
0.247731
0.312472
0.343901
0.343498
0.312181
0.24755
0.247867
0.312606
0.344036
0.343688
0.312342
0.2477
0.248121
0.312826
0.344273
0.343953
0.312602
0.247983
0.248551
0.313252
0.344745
0.34463
0.313286
0.24847
0.249753
0.314561
0.346321
0.347868
0.315781
0.250859
0.254185
0.319088
0.352202
0.357416
0.32357
0.258543
0.263774
0.328791
0.362711
0.367719
0.334524
0.269991
0.395798
0.411348
0.418411
0.425419
0.430749
0.433966
0.438171
0.441826
0.445276
0.447702
0.449471
0.450824
0.451865
0.452668
0.453289
0.453769
0.454141
0.454432
0.454661
0.454842
0.454987
0.455103
0.455197
0.455271
0.455331
0.455376
0.45541
0.455432
0.455445
0.455451
0.455445
0.455443
0.455442
0.45544
0.455438
0.455435
0.455432
0.455428
0.455424
0.455417
0.455408
0.455395
0.455378
0.455354
0.455323
0.455283
0.455235
0.455178
0.455115
0.455051
0.454989
0.454912
0.454798
0.454647
0.454467
0.454265
0.454044
0.453802
0.453537
0.453245
0.452922
0.452563
0.452165
0.451721
0.451225
0.45067
0.450049
0.449355
0.448578
0.447711
0.446744
0.445668
0.444474
0.44315
0.441688
0.440077
0.438309
0.436377
0.434273
0.431992
0.429531
0.42689
0.424067
0.421067
0.417894
0.414555
0.411059
0.407416
0.403638
0.399737
0.395727
0.391622
0.387435
0.383181
0.378874
0.374526
0.37015
0.365759
0.361364
0.356975
0.352602
0.348253
0.343936
0.33966
0.335429
0.33125
0.327127
0.323064
0.319066
0.315136
0.311275
0.307485
0.30377
0.300129
0.296563
0.293074
0.289661
0.286325
0.283065
0.279881
0.276772
0.273739
0.270779
0.267892
0.265077
0.262334
0.259659
0.257054
0.254516
0.252044
0.249636
0.247292
0.245011
0.24279
0.240629
0.238527
0.236482
0.234493
0.23256
0.230681
0.228854
0.22708
0.225357
0.223685
0.222062
0.220488
0.218962
0.217482
0.21605
0.214663
0.213321
0.212024
0.210771
0.20956
0.208392
0.207266
0.206181
0.205135
0.20413
0.203163
0.202234
0.201342
0.200487
0.199667
0.198883
0.198132
0.197415
0.19673
0.196077
0.195456
0.194864
0.194302
0.193769
0.193264
0.192786
0.192335
0.191911
0.191512
0.191138
0.190788
0.190463
0.190161
0.189883
0.189628
0.189396
0.189189
0.189005
0.188847
0.188714
0.188605
0.18852
0.188455
0.188407
0.188369
0.188334
0.188301
0.18828
0.18828
0.188279
0.18828
0.18828
0.188281
0.188285
0.188286
0.188264
0.188178
0.188
0.187737
0.187422
0.187087
0.186748
0.186409
0.186066
0.185717
0.185357
0.184986
0.184603
0.184207
0.1838
0.183383
0.182955
0.182518
0.182073
0.181619
0.181157
0.180689
0.180214
0.179735
0.179251
0.178764
0.178274
0.177782
0.17729
0.176799
0.17631
0.175823
0.17534
0.174862
0.17439
0.173925
0.173469
0.173022
0.172587
0.172162
0.171746
0.171337
0.17093
0.17052
0.170112
0.169725
0.169408
0.169217
0.169162
0.169196
0.169261
0.169327
0.169375
0.169363
0.169276
0.169173
0.168975
0.169089
0.16915
0.169167
0.169149
0.1691
0.169025
0.168925
0.168805
0.168664
0.168508
0.168338
0.168156
0.167951
0.167732
0.167499
0.16726
0.167007
0.166747
0.166473
0.166193
0.165898
0.165597
0.165282
0.164962
0.164626
0.164286
0.16393
0.163569
0.163193
0.162811
0.162413
0.162009
0.161588
0.161162
0.160718
0.160268
0.1598
0.159325
0.15883
0.158327
0.157804
0.157272
0.156718
0.156154
0.155567
0.154969
0.154347
0.153713
0.153054
0.15238
0.15168
0.150965
0.150221
0.14946
0.148669
0.147858
0.147016
0.146152
0.145255
0.144334
0.143378
0.142396
0.141378
0.140332
0.139247
0.138133
0.136978
0.135791
0.134563
0.1333
0.131995
0.130652
0.129266
0.127842
0.126375
0.124868
0.123319
0.121732
0.120104
0.118441
0.116742
0.115013
0.113253
0.111469
0.109664
0.107845
0.106016
0.104187
0.102364
0.100558
0.0987758
0.0970304
0.0953276
0.0936833
0.092101
0.0905979
0.089174
0.0878496
0.0866186
0.085503
0.084485
0.0835898
0.0827896
0.082113
0.0815225
0.0810494
0.0806503
0.0803609
0.0801174
0.0799858
0.0798743
0.0798729
0.079867
0.0799617
0.0800371
0.0801974
0.0803287
0.0805332
0.0807022
0.0809353
0.0811304
0.0813878
0.081598
0.0818572
0.0820688
0.0823248
0.0825333
0.0827829
0.0829855
0.0832263
0.083421
0.0836518
0.0838377
0.0840579
0.0842346
0.0844441
0.0846115
0.0848104
0.0849683