/*--------------------------------*- C++ -*----------------------------------*\
| =========                 |                                                 |
| \\      /  F ield         | OpenFOAM: The Open Source CFD Toolbox           |
|  \\    /   O peration     | Version:  v2006                                 |
|   \\  /    A nd           | Website:  www.openfoam.com                      |
|    \\/     M anipulation  |                                                 |
\*---------------------------------------------------------------------------*/
FoamFile
{
    version     2.0;
    format      ascii;
    class       volScalarField;
    location    "0.024";
    object      p;
}
// * * * * * * * * * * * * * * * * * * * * * * * * * * * * * * * * * * * * * //

dimensions      [1 -1 -2 0 0 0 0];


internalField   nonuniform List<scalar> 
12716
(
146367
146367
146368
146368
146368
146368
146368
146368
146367
146368
146370
146376
146384
146394
146405
146417
146429
146441
146453
146466
146479
146493
146507
146521
146536
146551
146567
146583
146599
146615
146632
146649
146666
146683
146701
146718
146736
146753
146770
146788
146805
146822
146839
146856
146872
146888
146904
146920
146935
146949
146963
146977
146991
147004
147017
147028
147039
147047
147051
147052
147051
147050
147050
147048
147049
147054
147065
147087
147128
147155
147173
147150
147147
147138
147135
147137
147139
147127
147126
147126
147116
147115
147115
147105
147105
147106
147098
147097
147097
147091
147091
147092
147086
147086
147085
147081
147081
147082
147078
147078
147077
147075
147075
147075
147074
147073
147073
147071
147072
147072
147072
147071
147071
147071
147071
147071
147072
147071
147071
147072
147072
147072
147074
147074
147073
147076
147076
147076
147079
147079
147078
147081
147081
147082
147085
147085
147085
147088
147089
147089
147093
147093
147093
147097
147097
147098
147103
147103
147102
147108
147108
147109
147115
147114
147114
147120
147120
147121
147128
147127
147127
147134
147134
147135
147142
147142
147141
147149
147149
147150
147158
147158
147158
147166
147166
147167
147176
147176
147175
147185
147185
147186
147196
147195
147195
147205
147205
147206
147217
147216
147216
147227
147227
147228
147240
147239
147239
147251
147251
147252
147264
147264
147264
147276
147277
147277
147291
147290
147290
147304
147304
147305
147320
147319
147319
147334
147334
147334
147350
147350
147349
147365
147366
147366
147383
147382
147382
147399
147400
147400
147418
147418
147417
147435
147436
147436
147456
147455
147455
147474
147474
147475
147495
147495
147494
147515
147516
147516
147538
147537
147537
147559
147559
147560
147583
147583
147582
147606
147606
147607
147631
147630
147630
147655
147655
147656
147682
147681
147681
147707
147708
147708
147736
147735
147735
147762
147763
147764
147792
147792
147791
147821
147821
147822
147852
147851
147851
147882
147882
147883
147915
147914
147914
147946
147946
147947
147980
147980
147979
148013
148013
148014
148049
148048
148048
148083
148083
148084
148120
148119
148119
148155
148155
148156
148193
148193
148192
148229
148230
148231
148269
148268
148267
148305
148306
148307
148345
148344
148343
148382
148382
148383
148422
148421
148420
148458
148459
148460
148498
148497
148497
148534
148535
148536
148573
148572
148571
148608
148608
148609
148645
148644
148643
148678
148679
148680
148713
148712
148712
148744
148744
148745
148776
148775
148775
148804
148805
148805
148833
148833
148832
148858
148859
148859
148884
148883
148883
148905
148905
148906
148927
148926
148926
148945
148945
148946
148963
148963
148962
148978
148978
148979
148992
148992
148992
149004
149004
149005
149016
149015
149015
149025
149025
149025
149033
149033
149033
149040
149040
149040
149046
149046
149046
149051
149051
149051
149055
149055
149055
149058
149058
149058
149060
149060
149060
149062
149062
149062
149063
149063
149064
149064
149064
149064
149065
149065
149065
149065
149065
149065
149064
149065
149065
149064
149064
149064
149063
149063
149064
149063
149062
149062
149061
149061
149062
149060
149060
149060
149059
149059
149059
149058
149058
149057
149056
149056
149056
149055
149055
149055
149053
149054
149054
149052
149052
149052
149050
149051
149051
149049
149049
149049
149047
149047
149047
149046
149046
149046
149044
149044
149044
149043
149043
149042
149041
149041
149041
149039
149039
149039
149038
149038
149038
149036
149036
149036
149035
149035
149035
149033
149033
149033
149031
149031
149032
149030
149030
149030
149028
149028
149028
149027
149027
149027
149025
149025
149025
149024
149024
149024
149022
149022
149022
149021
149021
149021
149019
149020
149020
149018
149018
149018
149017
149017
149017
149015
149015
149015
149014
149014
149014
149012
149012
149012
149011
149011
149011
149010
149009
149009
149009
149009
149009
149007
149007
149007
149005
149005
149005
149004
149004
149004
149003
149003
149002
149002
149002
149001
149002
149001
149001
149001
149001
149000
149001
149000
149000
149000
149000
149000
149000
148999
148999
149000
149001
148998
148998
148997
149001
149010
149014
149017
149032
149029
149022
148917
148993
148929
148997
148972
148987
148992
148992
148990
148997
148997
148997
148997
148996
148997
148999
148999
148999
148999
148998
148998
149001
149001
149001
149000
149000
149000
149002
149002
149003
149002
149002
149002
149004
149004
149004
149003
149003
149003
149005
149006
149006
149005
149005
149005
149007
149007
149007
149006
149006
149006
149008
149008
149008
149008
149008
149008
149010
149010
149010
149009
149009
149009
149011
149011
149011
149010
149010
149010
149012
149012
149012
149012
149012
149012
149014
149014
149014
149013
149013
149013
149015
149015
149015
149014
149014
149014
149016
149016
149016
149015
149015
149015
149017
149017
149017
149017
149017
149017
149018
149019
149019
149018
149018
149018
149020
149020
149020
149019
149019
149019
149021
149021
149021
149020
149020
149020
149022
149022
149022
149021
149021
149021
149023
149023
149023
149022
149022
149022
149024
149024
149024
149023
149023
149023
149025
149025
149025
149024
149024
149024
149026
149026
149026
149025
149025
149025
149027
149027
149027
149026
149026
149026
149028
149028
149028
149027
149027
149027
149029
149029
149029
149028
149028
149028
149029
149029
149029
149028
149028
149028
149030
149030
149030
149029
149029
149029
149030
149030
149030
149029
149029
149029
149030
149030
149030
149029
149029
149029
149030
149030
149030
149029
149029
149029
149030
149030
149030
149029
149029
149029
149030
149030
149030
149028
149028
149028
149029
149029
149029
149027
149027
149027
149028
149028
149028
149026
149026
149026
149026
149026
149026
149024
149023
149023
149023
149023
149024
149021
149020
149020
149019
149020
149020
149014
149014
149014
149009
149010
149011
149008
149007
149005
149007
149008
149009
149007
149006
149005
149004
149007
149008
149011
149009
149008
149016
149018
149019
149024
149023
149022
149030
149031
149032
149037
149036
149035
149044
149045
149046
149049
149048
149046
149055
149057
149058
149067
149067
149066
149077
149077
149078
149086
149085
149085
149091
149093
149094
149103
149102
149101
149112
149113
149113
149123
149123
149123
149139
149137
149135
149145
149145
149144
149155
149158
149161
149176
149171
149166
149183
149184
149184
149188
149197
149205
149229
149218
149207
149233
149237
149242
149166
149310
149182
149255
149243
149267
149271
149272
149272
149293
149293
149292
149310
149312
149311
149326
149329
149328
149333
149339
149346
149385
149388
149388
149415
149419
149417
149452
149455
149448
149479
149494
149489
149518
149526
149513
149535
149559
149546
149578
149595
149574
149611
149642
149615
149657
149700
149658
149705
149760
149718
149770
149820
149757
149809
149890
149826
149872
149938
149859
149902
149977
149921
149984
150032
149947
149992
150082
150030
150058
150117
150035
150076
150150
150093
150158
150203
150120
150170
150248
150173
150203
150285
150226
150287
150307
150221
150243
150333
150350
150418
150361
150275
150273
150360
150469
150490
150322
150223
150215
150294
150496
150452
150209
150134
149954
150034
150312
149983
149806
149806
149280
149286
149443
148389
148698
148763
147960
147890
147187
144805
146892
146977
145877
145821
143055
140122
144335
144940
143802
143515
139987
140129
142933
143434
143034
142693
141007
141859
142810
143002
143173
142896
142460
142769
142961
143165
143367
143155
143048
143242
143276
143497
143503
143324
143397
143552
143390
143543
143782
143566
143701
143790
143677
143858
143858
143712
143871
143964
143751
143889
144069
143879
144062
144153
143978
144102
144248
144106
144251
144349
144184
144327
144404
144240
144435
144515
144344
144483
144661
144528
144606
144681
144594
144708
144735
144650
144740
144816
144730
144785
144945
144886
144912
144975
144943
144987
145017
144981
145006
145043
145022
145048
145084
145074
145095
145175
145185
145207
145198
145187
145188
145194
145192
145191
145192
145199
145198
145371
145349
145326
145356
145372
145383
145394
145394
145403
145419
145420
145403
145472
145292
145432
145552
145583
145572
145572
145563
145552
145550
145555
145560
145589
145554
145563
145472
145674
145441
145691
145685
145670
145641
145665
145681
145653
145653
145636
145654
145504
145708
145739
145754
145725
145729
145720
145711
145708
145697
145713
145640
145777
145610
145798
145797
145786
145761
145775
145783
145774
145763
145754
145761
145783
145762
145859
145579
145795
145818
145849
145830
145801
145807
145820
145796
145797
145764
145891
145610
145827
145848
145876
145858
145821
145829
145843
145809
145807
145771
145879
145619
145826
145867
145902
145890
145837
145846
145863
145819
145813
145776
145884
145603
145832
145854
145881
145864
145853
145850
145852
145823
145803
145834
145644
145927
145703
145849
145847
145857
145840
145829
145809
145785
145782
145828
145652
145953
145693
145840
145839
145854
145798
145801
145794
145735
145720
145737
145818
145819
145801
145769
145794
145812
145784
145777
145750
145767
145591
145835
145782
145793
145771
145757
145747
145738
145674
145713
145715
145729
145492
145788
145772
145785
145744
145715
145719
145730
145617
145669
145627
145699
145707
145705
145671
145673
145678
145639
145643
145610
145728
145421
145658
145661
145701
145690
145642
145633
145629
145544
145556
145539
145612
145615
145604
145586
145579
145567
145544
145523
145544
145441
145652
145391
145594
145576
145575
145522
145527
145526
145443
145423
145442
145493
145507
145505
145468
145470
145468
145424
145406
145442
145242
145571
145304
145455
145455
145474
145410
145411
145400
145335
145268
145351
145374
145379
145363
145331
145335
145334
145305
145261
145279
145145
145447
145069
145333
145307
145312
145257
145274
145265
145277
145050
145223
145215
145239
145226
145181
145172
145174
145083
145120
145074
145165
145166
145152
145122
145128
145132
145089
145072
145067
145111
145130
145133
145076
145074
145068
145000
144980
145022
144774
145143
144855
145000
144988
145009
144943
144960
144946
144924
144758
144976
144961
144967
144936
144893
144896
144910
144760
144851
144778
144843
144852
144858
144800
144801
144795
144707
144694
144705
144767
144770
144755
144726
144734
144741
144659
144689
144671
144697
144403
144798
144668
144704
144643
144609
144594
144620
144404
144639
144464
144561
144557
144568
144502
144513
144507
144451
144345
144483
144488
144497
144475
144440
144446
144459
144341
144397
144342
144394
144405
144408
144343
144342
144337
144233
144221
144232
144294
144296
144279
144238
144243
144246
144147
144142
144147
144194
144210
144206
144187
144172
144163
144102
144126
144089
144232
143767
144116
144039
144104
144052
144025
143983
144008
143834
144099
143755
143960
143942
143953
143891
143902
143876
143920
143654
143853
143841
143875
143853
143827
143794
143803
143654
143848
143603
143752
143737
143746
143679
143689
143672
143656
143479
143614
143614
143642
143619
143581
143574
143569
143438
143545
143401
143527
143520
143520
143469
143478
143479
143415
143311
143386
143402
143423
143413
143350
143343
143345
143223
143231
143221
143285
143286
143272
143223
143230
143232
143122
143093
143118
143154
143172
143169
143111
143107
143102
142987
142987
142983
143056
143054
143034
142987
143000
143003
142926
142871
142894
142713
143029
142616
142872
142847
142863
142787
142807
142779
142802
142514
142739
142709
142754
142727
142666
142646
142656
142487
142659
142430
142599
142580
142587
142517
142524
142508
142488
142282
142439
142436
142472
142448
142399
142386
142383
142218
142351
142170
142311
142298
142302
142234
142239
142230
142171
142019
142135
142144
142171
142153
142091
142085
142087
141932
141992
141911
142012
142010
142000
141938
141947
141947
141836
141760
141824
141846
141866
141855
141804
141794
141790
141644
141673
141638
141706
141707
141691
141624
141630
141630
141476
141449
141483
141516
141531
141522
141469
141464
141462
141330
141330
141327
141387
141391
141372
141318
141328
141337
141190
141227
141209
141192
140829
141309
141161
141203
141130
141083
141057
141099
140778
141101
140860
140960
140929
140947
140841
140878
140860
140789
140555
140855
140779
140816
140767
140717
140705
140734
140469
140698
140527
140620
140612
140633
140524
140544
140533
140412
140253
140461
140408
140442
140398
140329
140323
140335
140051
140209
140116
140195
140188
140188
140128
140136
140128
140000
139919
140018
140044
140054
140026
139964
139965
139976
139772
139800
139787
139833
139853
139853
139780
139768
139758
139593
139614
139595
139585
139226
139507
139452
139484
139433
139397
139384
139400
139218
139355
139173
139323
139309
139313
139226
139237
139222
139109
138979
139082
139098
139132
139114
139028
139019
139018
138794
138843
138773
138865
138856
138849
138749
138759
138746
138507
138459
138545
138583
138599
138588
138530
138540
138526
138405
138383
138451
138066
138468
138171
138324
138307
138342
138200
138235
138210
138060
137867
138119
138036
138079
138018
137934
137918
137942
137584
137725
137655
137709
137692
137674
137606
137618
137618
137480
137491
137468
137525
137122
137431
137406
137471
137435
137368
137340
137342
137076
137237
137010
137177
137150
137161
137026
137046
137024
136814
136693
136800
136756
136757
136698
136600
136624
136648
136528
136540
136474
136618
136138
136495
136456
136535
136489
136415
136374
136391
136108
136296
136041
136215
136182
136195
136044
136064
136032
135791
135689
135786
135750
135774
135723
135536
135571
135601
135426
135403
135394
135174
135351
135244
135384
135411
135410
135310
135325
135296
135090
134989
135102
135092
135107
135074
134959
134971
134990
134705
134666
134671
134300
134453
134193
134270
134328
134376
134279
134276
134229
134138
134052
134125
134180
134211
134202
134122
134113
134101
133892
133898
133912
133614
133609
133615
133659
133682
133682
133541
133537
133529
133199
133147
133153
132575
132940
132777
132998
132986
132987
132922
132961
132927
132768
132635
132795
132781
132798
132760
132645
132657
132667
132363
132345
132344
131970
131951
131958
131917
131941
131956
131728
131671
131560
131400
131460
131505
131351
131330
131308
131517
131525
131483
131407
131421
131431
131182
131183
131166
130802
130728
130794
130768
130802
130766
130533
130485
130423
129896
130016
130111
129906
129857
129808
130118
130128
130086
130035
130052
130057
129873
129854
129842
129496
129503
129518
129040
128982
129052
128965
128943
128854
128411
128569
128674
128480
128431
128363
128270
128299
128314
128462
128507
128496
128389
128380
128365
128054
128054
128069
127502
127479
127503
126760
126564
126395
126925
126974
127003
127081
127075
127086
127019
126985
127003
126746
126827
126739
126416
126082
126388
126107
126050
125929
125241
125512
125689
125486
125420
125301
125409
125432
125457
125305
125420
125270
125081
124719
125058
124738
124641
124463
123865
124147
124330
124181
124098
123959
124104
124137
124160
124055
124034
124004
123476
123618
123704
123124
122948
122685
122943
122656
123024
123341
123435
123370
123218
123283
123364
123102
122885
122493
122672
122866
122953
123015
122974
122923
122696
122941
123045
123123
123022
122823
123278
123359
123391
123836
123766
123616
124330
124393
124401
124959
124968
124954
125416
125427
125419
125762
125763
125756
126067
126074
126075
126325
126323
126320
126567
126572
126574
126769
126768
126766
126970
126973
126976
127137
127135
127133
127308
127312
127315
127449
127447
127446
127597
127600
127604
127715
127713
127712
127843
127846
127850
127942
127940
127939
128054
128056
128061
128138
128137
128136
128238
128241
128245
128311
128310
128309
128402
128404
128408
128465
128464
128464
128548
128550
128554
128603
128602
128602
128678
128680
128684
128726
128726
128726
128795
128797
128800
128837
128837
128837
128900
128902
128904
128937
128937
128938
128996
128998
129000
129029
129028
129029
129082
129084
129086
129111
129111
129112
129161
129163
129164
129187
129187
129188
129233
129234
129236
129256
129256
129257
129299
129300
129301
129320
129320
129320
129359
129360
129361
129377
129377
129378
129414
129415
129416
129431
129431
129431
129464
129465
129466
129479
129479
129480
129511
129512
129513
129524
129525
129525
129554
129554
129555
129565
129566
129567
129593
129594
129594
129604
129604
129605
129630
129630
129630
129639
129639
129640
129663
129664
129665
129672
129672
129672
129694
129694
129695
129702
129702
129702
129722
129723
129724
129730
129730
129730
129749
129749
129750
129755
129755
129755
129773
129774
129775
129779
129779
129779
129796
129796
129797
129800
129801
129801
129817
129817
129818
129821
129821
129822
129837
129837
129837
129839
129840
129841
129855
129855
129855
129857
129858
129859
129871
129872
129872
129874
129874
129875
129887
129887
129888
129889
129889
129890
129901
129901
129902
129902
129903
129903
129914
129915
129915
129915
129916
129916
129926
129926
129927
129927
129927
129928
129937
129938
129938
129938
129938
129939
129947
129948
129948
129947
129948
129949
129957
129957
129958
129957
129957
129958
129966
129966
129966
129965
129966
129966
129974
129974
129975
129973
129973
129974
129981
129981
129982
129980
129980
129981
129988
129988
129989
129986
129987
129987
129994
129994
129995
129992
129993
129993
129999
130000
130000
129997
129998
129999
130004
130005
130005
130002
130003
130003
130009
130010
130010
130007
130007
130008
130013
130014
130014
130011
130011
130012
130017
130018
130018
130015
130015
130016
130021
130021
130022
130018
130019
130019
130024
130025
130025
130021
130022
130022
130027
130027
130028
130024
130025
130025
130030
130030
130031
130026
130027
130028
130032
130032
130033
130029
130029
130030
130034
130035
130035
130031
130031
130032
130036
130036
130037
130032
130033
130033
130037
130038
130038
130034
130034
130035
130039
130039
130040
130035
130035
130036
130040
130040
130041
130036
130036
130037
130040
130041
130041
130036
130037
130038
130041
130042
130042
130037
130038
130038
130042
130042
130042
130037
130038
130038
130042
130042
130043
130038
130038
130039
130042
130042
130043
130038
130038
130039
130042
130042
130043
130038
130038
130039
130042
130042
130043
130037
130038
130038
130042
130042
130043
130037
130038
130038
130041
130042
130042
130037
130037
130038
130041
130041
130042
130036
130037
130037
130040
130041
130041
130036
130036
130037
130040
130040
130041
130035
130035
130036
130039
130039
130040
130034
130034
130035
130038
130038
130039
130033
130033
130034
130036
130037
130037
130032
130032
130032
130035
130036
130036
130030
130031
130031
130033
130034
130034
130028
130029
130029
130032
130032
130033
130026
130027
130027
130029
130030
130030
130024
130025
130025
130027
130028
130028
130022
130022
130023
130024
130025
130025
130019
130019
130020
130022
130022
130023
130016
130017
130017
130019
130019
130020
130013
130014
130014
130016
130016
130017
130010
130011
130011
130013
130013
130014
130007
130008
130008
130010
130010
130011
130004
130004
130004
130006
130006
130007
130000
130000
130001
130002
130002
130003
129996
129996
129996
129997
129998
129998
129991
129991
129992
129992
129993
129993
129985
129986
129986
129986
129987
129987
129979
129979
129980
129979
129980
129980
129971
129971
129972
129971
129971
129971
129961
129962
129962
129960
129960
129961
129949
129949
129950
129946
129946
129947
129931
129931
129932
129926
129927
129929
129918
129917
129916
129931
129933
129934
129990
129990
129985
130073
130077
130072
130104
130112
130111
130084
130072
130031
130076
130087
130044
130044
130053
130034
130020
130014
130011
130009
130009
130009
130009
130009
130009
130009
130008
130008
130008
130008
130007
130007
130006
130006
130006
130006
130006
130005
130005
130009
130011
130014
130017
130021
130026
130031
130037
130044
130053
130064
130076
130091
130107
130126
130145
130163
130177
130185
130188
130191
130197
130205
130216
130229
130244
130261
130280
130302
130326
130353
130384
130420
130460
130506
130557
130616
130681
130755
130838
130931
131034
131147
131273
131411
131562
131726
131904
132095
132299
132516
132745
132987
133239
133502
133773
134053
134339
134631
134927
135226
135528
135830
136132
136433
136732
137029
137322
137611
137895
138175
138449
138717
138979
139235
139485
139728
139965
140195
140418
140635
140845
141049
141247
141438
141623
141803
141976
142144
142306
142463
142614
142761
142902
143039
143171
143298
143422
143541
143656
143767
143874
143977
144077
144174
144267
144357
144444
144528
144610
144688
144763
144836
144906
144974
145040
145103
145163
145222
145278
145333
145385
145435
145483
145530
145574
145617
145658
145698
145736
145772
145807
145840
145872
145903
145932
145960
145986
146012
146036
146059
146080
146101
146121
146139
146157
146173
146188
146203
146216
146229
146240
146251
146261
146269
146277
146285
146293
146302
146310
146319
146328
146340
146354
146364
146364
146364
146364
146364
146364
146365
146373
146389
146398
146405
146413
146421
146431
146441
146451
146462
146474
146486
146499
146512
146526
146540
146555
146570
146585
146601
146617
146634
146650
146667
146684
146701
146719
146736
146753
146770
146788
146805
146821
146838
146854
146871
146886
146902
146916
146931
146945
146958
146971
146983
146994
147005
147016
147025
147033
147041
147046
147044
147044
147051
147066
147093
147105
147113
147105
147097
147091
147086
147082
147079
147076
147074
147073
147072
147072
147072
147073
147075
147077
147080
147083
147086
147090
147094
147099
147104
147109
147116
147122
147129
147136
147143
147151
147159
147168
147177
147187
147197
147207
147218
147229
147241
147253
147265
147278
147292
147306
147321
147336
147351
147367
147384
147401
147419
147438
147457
147476
147497
147518
147539
147562
147585
147608
147633
147658
147684
147710
147737
147765
147794
147824
147854
147885
147917
147949
147982
148016
148051
148086
148122
148159
148196
148233
148271
148309
148347
148386
148424
148463
148501
148538
148576
148612
148648
148682
148716
148748
148779
148808
148836
148862
148887
148909
148930
148948
148966
148981
148995
149006
149017
149026
149034
149041
149047
149051
149055
149058
149060
149062
149063
149064
149064
149064
149064
149064
149063
149062
149061
149060
149058
149057
149056
149054
149053
149051
149050
149048
149047
149045
149044
149042
149041
149039
149037
149036
149034
149033
149031
149029
149028
149026
149025
149023
149022
149021
149019
149018
149016
149015
149013
149012
149011
149009
149008
149007
149005
149004
149004
149003
149006
149005
149007
149008
149008
149008
149009
149008
149006
149007
149006
149003
149001
149001
149003
149008
149007
149004
149000
149001
149004
149007
149010
149009
149010
149011
149011
149011
149013
149013
149014
149013
149012
149015
149016
149016
149017
149016
149019
149019
149020
149019
149018
149021
149022
149022
149023
149022
149025
149025
149026
149025
149024
149027
149028
149028
149029
149028
149031
149031
149032
149031
149030
149033
149034
149034
149035
149034
149037
149037
149038
149037
149036
149039
149040
149040
149041
149040
149043
149044
149044
149043
149042
149045
149047
149047
149048
149047
149050
149050
149051
149050
149048
149051
149053
149053
149054
149052
149056
149056
149056
149055
149054
149057
149058
149058
149059
149058
149061
149061
149061
149060
149060
149063
149064
149063
149063
149063
149065
149064
149064
149064
149065
149066
149066
149065
149064
149064
149066
149064
149062
149063
149067
149066
149064
149061
149058
149060
149060
149056
149052
149054
149063
149057
149054
149048
149042
149045
149043
149036
149028
149032
149047
149033
149028
149020
149008
149014
149007
148997
148983
148990
149012
148985
148980
148969
148951
148959
148945
148933
148912
148921
148949
148905
148903
148890
148865
148874
148853
148840
148812
148820
148852
148792
148796
148782
148751
148760
148733
148719
148685
148693
148727
148656
148665
148651
148615
148622
148592
148578
148541
148548
148581
148504
148517
148503
148465
148471
148440
148426
148388
148394
148426
148348
148362
148349
148311
148317
148286
148273
148235
148240
148271
148195
148210
148197
148160
148165
148136
148124
148088
148093
148122
148051
148064
148053
148018
148023
147995
147984
147951
147955
147982
147917
147929
147919
147887
147891
147866
147856
147825
147830
147854
147795
147806
147796
147767
147771
147749
147740
147712
147716
147739
147685
147694
147686
147659
147663
147643
147635
147610
147613
147634
147587
147595
147587
147563
147567
147549
147542
147519
147523
147542
147500
147506
147499
147478
147481
147466
147459
147439
147442
147460
147423
147428
147422
147403
147406
147393
147386
147369
147372
147388
147355
147360
147354
147337
147340
147329
147323
147307
147310
147325
147297
147300
147294
147280
147283
147273
147268
147254
147257
147270
147246
147248
147243
147230
147233
147225
147220
147208
147211
147223
147202
147203
147199
147188
147191
147184
147179
147169
147172
147183
147165
147165
147161
147152
147155
147149
147145
147137
147139
147149
147134
147134
147130
147123
147125
147121
147117
147111
147113
147121
147110
147109
147106
147100
147102
147099
147096
147091
147093
147100
147092
147091
147088
147084
147086
147084
147081
147078
147080
147085
147079
147079
147077
147075
147076
147075
147074
147073
147074
147076
147075
147074
147073
147074
147074
147075
147075
147076
147076
147075
147077
147078
147079
147082
147080
147083
147086
147090
147087
147077
147076
147089
147095
147101
147092
147056
147065
147071
147073
147076
147079
147083
147089
147096
147105
147115
147126
147139
147154
147170
147188
147207
147228
147251
147275
147301
147329
147360
147392
147427
147464
147503
147544
147589
147636
147686
147738
147794
147852
147914
147978
148046
148116
148190
148265
148343
148423
148503
148583
148662
148737
148808
148871
148926
148971
149007
149033
149051
149063
149069
149073
149073
149072
149071
149068
149064
149061
149058
149054
149051
149048
149045
149042
149039
149036
149033
149030
149027
149024
149021
149018
149016
149013
149012
149009
149007
149007
149005
149003
149001
149001
149003
149006
149005
149002
149001
149002
149003
149006
149009
149008
149005
149005
149004
149002
149001
149001
149002
149004
149003
149001
149000
149001
149002
149005
149008
149010
149011
149012
149014
149015
149017
149020
149019
149017
149016
149013
149013
149015
149018
149019
149021
149022
149023
149026
149025
149028
149029
149032
149031
149030
149027
149024
149023
149021
149020
149017
149014
149012
149009
149007
149004
149003
149002
149001
149000
149001
149001
149001
149001
149000
149000
149001
149002
149003
149006
149005
149003
149002
149001
149000
149000
148996
148995
148995
148992
148989
148990
148996
148995
148993
148997
148998
148998
148999
149000
148997
148997
148999
148999
148999
149001
149001
149002
149004
149005
149006
149008
149009
149011
149014
149017
149016
149014
149013
149011
149010
149009
149008
149007
149008
149005
149006
149003
149005
149002
149003
149000
149000
149001
149003
149002
149004
149003
149006
149005
149007
149006
149006
149009
149008
149008
149009
149010
149010
149010
149011
149012
149009
149009
149011
149010
149010
149013
149012
149013
149015
149016
149016
149018
149019
149022
149022
149025
149026
149029
149031
149032
149034
149035
149038
149036
149039
149041
149044
149042
149040
149038
149035
149034
149036
149038
149036
149034
149032
149029
149027
149027
149024
149023
149021
149021
149019
149018
149017
149018
149015
149017
149014
149016
149013
149014
149012
149012
149012
149014
149013
149015
149014
149016
149015
149017
149017
149017
149019
149018
149018
149019
149020
149020
149020
149021
149022
149019
149019
149021
149020
149020
149023
149022
149023
149024
149025
149026
149025
149024
149025
149023
149024
149021
149021
149022
149023
149022
149024
149023
149024
149026
149025
149024
149025
149026
149027
149026
149027
149029
149031
149033
149034
149032
149031
149031
149030
149029
149028
149027
149028
149029
149029
149027
149029
149027
149028
149026
149025
149027
149026
149028
149027
149029
149028
149028
149030
149030
149030
149031
149031
149032
149032
149035
149038
149041
149043
149045
149047
149050
149048
149052
149053
149057
149056
149054
149049
149046
149043
149046
149050
149056
149059
149060
149061
149065
149066
149072
149070
149075
149080
149084
149074
149066
149064
149074
149088
149103
149096
149088
149080
149086
149096
149105
149089
149090
149113
149138
149122
149108
149121
149141
149165
149194
149153
149117
149089
149082
149117
149110
149069
149046
149091
149145
149162
149160
149216
149222
149209
149292
149296
149282
149244
149199
149164
149136
149111
149090
149073
149060
149050
149045
149042
149039
149036
149037
149038
149030
149031
149032
149032
149032
149032
149031
149031
149031
149030
149031
149030
149031
149029
149031
149029
149028
149029
149030
149029
149030
149029
149031
149029
149031
149029
149030
149031
149030
149029
149030
149030
149031
149031
149030
149030
149029
149029
149029
149028
149028
149029
149030
149029
149027
149024
149030
149029
149042
149052
149067
149088
149075
149066
149051
149045
149035
149032
149024
149023
149018
149018
149023
149023
149026
149026
149028
149027