/*--------------------------------*- C++ -*----------------------------------*\
| =========                 |                                                 |
| \\      /  F ield         | OpenFOAM: The Open Source CFD Toolbox           |
|  \\    /   O peration     | Version:  v2006                                 |
|   \\  /    A nd           | Website:  www.openfoam.com                      |
|    \\/     M anipulation  |                                                 |
\*---------------------------------------------------------------------------*/
FoamFile
{
    version     2.0;
    format      ascii;
    class       surfaceScalarField;
    location    "0.024";
    object      phi;
}
// * * * * * * * * * * * * * * * * * * * * * * * * * * * * * * * * * * * * * //

dimensions      [1 0 -1 0 0 0 0];
oriented        oriented;


internalField   nonuniform List<scalar> 
25161
(
-3.45315e-05
-0.00194628
0.0019178
6.30195e-05
-0.0018149
0.00178037
1.39154e-05
0.000113744
-2.03613e-05
0.00206792
3.103e-05
0.00227502
-7.76314e-05
0.00227344
-1.63935e-05
0.00232439
-3.53476e-05
0.00227704
-3.46638e-06
0.00227281
-5.64452e-06
0.00224716
7.92341e-07
0.00223886
-8.4118e-07
0.00222941
-3.67551e-07
0.00222452
-7.62464e-07
0.00222014
-9.06468e-07
0.00221614
-1.02534e-06
0.00221232
-1.12607e-06
0.00220849
-1.21464e-06
0.00220462
-1.29484e-06
0.00220067
-1.36862e-06
0.0021966
-1.4368e-06
0.00219239
-1.49974e-06
0.00218804
-1.5577e-06
0.00218356
-1.61099e-06
0.00217894
-1.65997e-06
0.0021742
-1.70495e-06
0.00216934
-1.74621e-06
0.00216438
-1.78389e-06
0.00215931
-1.81805e-06
0.00215415
-1.84869e-06
0.0021489
-1.87572e-06
0.00214357
-1.89903e-06
0.00213817
-1.91845e-06
0.00213271
-1.93384e-06
0.0021272
-1.94502e-06
0.00212165
-1.95179e-06
0.00211607
-1.95398e-06
0.00211047
-1.9514e-06
0.00210487
-1.94543e-06
0.00209927
-1.93422e-06
0.00209369
-1.91708e-06
0.00208814
-1.8944e-06
0.00208263
-1.86599e-06
0.00207718
-1.83157e-06
0.0020718
-1.79097e-06
0.0020665
-1.74411e-06
0.0020613
-1.69087e-06
0.00205621
-1.63104e-06
0.00205125
-1.56422e-06
0.00204641
-1.48832e-06
0.00204168
-1.39826e-06
0.00203704
-1.28572e-06
0.00203244
-1.13833e-06
0.00202681
-9.45451e-07
0.00202019
-3.73988e-06
0.00201175
-6.52745e-06
0.00199897
-1.84296e-05
0.00197747
-3.44392e-05
0.0019495
-7.56769e-05
0.00190651
-0.000142128
0.0018709
-0.000315333
0.0018675
-0.000620429
0.00189512
-0.000298141
0.00115404
-0.000173254
0.00116993
-9.47549e-05
0.00114096
-9.67682e-05
0.000992594
-2.98078e-05
0.000891036
-1.8155e-05
0.000321601
-9.69852e-06
0.000266602
0.000216832
1.36656e-05
0.000203166
2.70896e-05
0.000253178
0.000304935
4.37553e-05
-1.83925e-05
0.000294987
2.83407e-05
-9.07725e-06
0.000243863
0.000194089
5.37226e-06
0.000188717
9.77526e-06
0.00023946
0.000291055
1.37072e-05
-4.7346e-06
0.000289974
5.81551e-06
-3.16265e-06
0.000237888
0.000185554
3.05412e-06
0.0001825
3.70683e-06
0.000237236
0.000288806
4.87539e-06
-2.56931e-06
0.000287536
3.83948e-06
-1.88328e-06
0.00023655
0.000180617
1.72655e-06
0.000178891
2.45405e-06
0.000235823
0.000287196
2.7949e-06
-2.32405e-06
0.000286793
2.72822e-06
-1.57345e-06
0.000235073
0.000177319
1.45861e-06
0.000175861
3.20171e-06
0.000233331
0.000287334
2.66143e-06
-1.14435e-06
0.000285862
2.61868e-06
-1.35169e-06
0.000233539
0.000174511
1.27541e-06
0.000173237
3.01787e-06
0.000231798
0.000286327
2.55469e-06
-9.94869e-07
0.0002848
2.52374e-06
-1.19581e-06
0.000232001
0.000172042
1.14312e-06
0.0001709
2.87753e-06
0.000230268
0.000285212
2.46715e-06
-8.82061e-07
0.000283649
2.44689e-06
-1.08139e-06
0.00023047
0.00016982
1.04343e-06
0.000168779
2.76629e-06
0.000228749
0.000284023
2.39486e-06
-7.98414e-07
0.000282438
2.38569e-06
-9.99029e-07
0.000228951
0.000167781
9.67295e-07
0.000166816
2.68305e-06
0.000227238
0.00028277
2.35387e-06
-7.36748e-07
0.000281162
2.34822e-06
-9.33378e-07
0.000227437
0.000165884
9.17114e-07
0.000164969
2.62294e-06
0.000225733
0.000281472
2.31571e-06
-6.9073e-07
0.000279842
2.32329e-06
-8.82665e-07
0.000225928
0.000164089
8.74192e-07
0.000163217
2.57255e-06
0.000224232
0.000280127
2.29122e-06
-6.57076e-07
0.000278483
2.30467e-06
-8.4419e-07
0.000224422
0.000162375
8.41143e-07
0.000161536
2.53416e-06
0.000222732
0.000278742
2.27814e-06
-6.35876e-07
0.000277082
2.29883e-06
-8.15147e-07
0.000222914
0.000160724
8.16639e-07
0.000159909
2.50725e-06
0.000221226
0.000277316
2.27745e-06
-6.24898e-07
0.00027564
2.30387e-06
-7.93505e-07
0.000221397
0.000159118
7.98703e-07
0.000158322
2.48955e-06
0.00021971
0.000275846
2.28705e-06
-6.22476e-07
0.000274154
2.31832e-06
-7.77779e-07
0.000219868
0.000157547
7.86145e-07
0.000156763
2.47969e-06
0.000218178
0.000274332
2.30585e-06
-6.27695e-07
0.000272622
2.34165e-06
-7.67062e-07
0.00021832
0.000155999
7.78258e-07
0.000155224
2.47697e-06
0.000216625
0.000272769
2.33356e-06
-6.40295e-07
0.000271039
2.37413e-06
-7.60885e-07
0.000216749
0.000154465
7.74659e-07
0.000153694
2.48113e-06
0.000215046
0.000271154
2.37038e-06
-6.59798e-07
0.000269403
2.41541e-06
-7.58768e-07
0.000215148
0.000152938
7.74904e-07
0.000152166
2.49169e-06
0.000213435
0.000269483
2.41592e-06
-6.85716e-07
0.000267708
2.46504e-06
-7.60265e-07
0.000213513
0.000151409
7.78592e-07
0.000150633
2.50824e-06
0.000211787
0.00026775
2.46987e-06
-7.17623e-07
0.00026595
2.52265e-06
-7.64989e-07
0.000211838
0.000149871
7.8544e-07
0.000149089
2.53048e-06
0.000210097
0.000265952
2.53214e-06
-7.5585e-07
0.000264124
2.58909e-06
-7.72999e-07
0.000210117
0.000148319
7.95651e-07
0.000147526
2.55888e-06
0.000208358
0.000264083
2.60387e-06
-8.01321e-07
0.000262222
2.66609e-06
-7.84627e-07
0.000208345
0.000146744
8.09518e-07
0.000145938
2.59424e-06
0.000206563
0.000262134
2.68659e-06
-8.54514e-07
0.000260238
2.75453e-06
-7.99954e-07
0.000206512
0.000145141
8.27029e-07
0.000144316
2.63682e-06
0.000204706
0.000260098
2.78084e-06
-9.15548e-07
0.000258163
2.8547e-06
-8.18948e-07
0.000204612
0.0001435
8.48106e-07
0.000142655
2.68652e-06
0.000202777
0.000257967
2.8867e-06
-9.84299e-07
0.000255988
2.96649e-06
-8.41478e-07
0.000202637
0.000141816
8.72631e-07
0.000140946
2.74319e-06
0.000200769
0.00025573
3.00408e-06
-1.06083e-06
0.000253704
3.09003e-06
-8.6749e-07
0.000200579
0.00014008
9.00671e-07
0.000139182
2.80706e-06
0.000198675
0.000253381
3.13351e-06
-1.14564e-06
0.000251303
3.22619e-06
-8.97171e-07
0.000198429
0.000138287
9.32501e-07
0.000137356
2.87875e-06
0.000196484
0.000250908
3.27614e-06
-1.23961e-06
0.000248774
3.37643e-06
-9.30873e-07
0.000196178
0.000136427
9.68526e-07
0.00013546
2.95918e-06
0.000194189
0.000248302
3.4336e-06
-1.34378e-06
0.000246105
3.54247e-06
-9.69011e-07
0.000193816
0.000134493
1.00916e-06
0.000133485
3.04932e-06
0.000191777
0.000245549
3.60762e-06
-1.45919e-06
0.000243284
3.72597e-06
-1.01199e-06
0.000191331
0.000132474
1.05476e-06
0.000131421
3.14999e-06
0.000189238
0.000242636
3.7997e-06
-1.58655e-06
0.000240296
3.92815e-06
-1.06008e-06
0.000188713
0.000130362
1.10547e-06
0.000129258
3.26155e-06
0.000186558
0.000239549
4.01058e-06
-1.72597e-06
0.000237127
4.1492e-06
-1.11327e-06
0.000185946
0.000128146
1.16106e-06
0.000126986
3.38355e-06
0.000183725
0.000236273
4.23976e-06
-1.87678e-06
0.000233763
4.38808e-06
-1.17115e-06
0.000183021
0.000125816
1.22117e-06
0.000124596
3.5153e-06
0.000180728
0.000232794
4.48632e-06
-2.03864e-06
0.00023019
4.64424e-06
-1.23351e-06
0.000179925
0.000123364
1.28577e-06
0.000122079
3.65675e-06
0.000177555
0.000229098
4.75032e-06
-2.21205e-06
0.000226394
4.91842e-06
-1.30053e-06
0.000176645
0.00012078
1.35511e-06
0.000119426
3.80832e-06
0.000174193
0.000225171
5.0326e-06
-2.39737e-06
0.000222359
5.21118e-06
-1.37239e-06
0.00017317
0.000118055
1.42913e-06
0.000116627
3.96996e-06
0.000170631
0.000220998
5.33323e-06
-2.59421e-06
0.000218072
5.522e-06
-1.44878e-06
0.000169487
0.000115179
1.50741e-06
0.000113673
4.14083e-06
0.000166855
0.000216563
5.6511e-06
-2.80143e-06
0.000213517
5.84907e-06
-1.52913e-06
0.000165584
0.000112145
1.58917e-06
0.000110557
4.31922e-06
0.000162855
0.000211854
5.98363e-06
-3.01689e-06
0.000208683
6.18897e-06
-1.61242e-06
0.000161452
0.000108946
1.67307e-06
0.000107273
4.50227e-06
0.000158623
0.00020686
6.32638e-06
-3.2371e-06
0.000203562
6.53614e-06
-1.69697e-06
0.000157084
0.000105577
1.75707e-06
0.000103821
4.68561e-06
0.000154156
0.000201576
6.6725e-06
-3.45675e-06
0.000198151
6.88215e-06
-1.78032e-06
0.000152479
0.000102041
1.8381e-06
0.000100203
4.86267e-06
0.000149455
0.000196002
7.01156e-06
-3.66815e-06
0.000192455
7.21493e-06
-1.85892e-06
0.000147645
9.83441e-05
1.91164e-06
9.64323e-05
5.02355e-06
0.000144533
0.00019015
7.32783e-06
-3.85772e-06
0.000186494
7.51288e-06
-1.92645e-06
0.000142601
9.45055e-05
1.9716e-06
9.25334e-05
5.15526e-06
0.000139416
0.000184048
7.6006e-06
-4.01183e-06
0.000180305
7.75427e-06
-1.97672e-06
0.00013738
9.05559e-05
2.01163e-06
8.85434e-05
5.2442e-06
0.000134147
0.00017774
7.80788e-06
-4.11723e-06
0.000173937
7.91842e-06
-2.00392e-06
0.000132032
8.65384e-05
2.02348e-06
8.45138e-05
5.2721e-06
0.000128782
0.000171287
7.92008e-06
-4.15064e-06
0.000167468
7.96843e-06
-1.99758e-06
0.000126628
8.25149e-05
1.9966e-06
8.05169e-05
5.21638e-06
0.000123406
0.000164782
7.90029e-06
-4.08919e-06
0.000161001
7.86783e-06
-1.94748e-06
0.000121263
7.8568e-05
1.9216e-06
7.66449e-05
5.05583e-06
0.000118127
0.000158341
7.71354e-06
-3.9119e-06
0.000154668
7.5835e-06
-1.84464e-06
0.000116058
7.47987e-05
1.79072e-06
7.30064e-05
4.77321e-06
0.000113074
0.000152108
7.33086e-06
-3.60462e-06
0.000148618
7.09273e-06
-1.68324e-06
0.000111151
7.13217e-05
1.60021e-06
6.97202e-05
4.36031e-06
0.000108389
0.000146239
6.73679e-06
-3.1651e-06
0.000143013
6.38979e-06
-1.46334e-06
0.000106686
6.82557e-05
1.35413e-06
6.69006e-05
3.82407e-06
0.000104214
0.000140898
5.93761e-06
-2.60764e-06
0.000138009
5.49516e-06
-1.19279e-06
0.000102798
6.57071e-05
1.06412e-06
6.46427e-05
3.18751e-06
0.000100674
0.00013623
4.96535e-06
-1.9584e-06
0.000133741
4.44646e-06
-8.85302e-07
9.95998e-05
6.37573e-05
7.48903e-07
6.30086e-05
2.48912e-06
9.78592e-05
0.000132354
3.87584e-06
-1.26782e-06
0.000130303
3.31967e-06
-5.65481e-07
9.71569e-05
6.24436e-05
4.36513e-07
6.20078e-05
1.78706e-06
9.58067e-05
0.000129333
2.75723e-06
-5.94897e-07
0.000127721
2.20775e-06
-2.61785e-07
9.54744e-05
6.17469e-05
1.4861e-07
6.15995e-05
1.13107e-06
9.4493e-05
0.000127164
1.68918e-06
2.24817e-08
0.000125962
1.18155e-06
1.70865e-08
9.44999e-05
6.16179e-05
-1.18101e-07
6.17376e-05
5.38471e-07
9.38452e-05
0.000125772
7.31251e-07
5.53151e-07
0.000124939
2.8241e-07
2.55726e-07
9.41451e-05
6.1995e-05
-3.06921e-07
6.23037e-05
7.64897e-08
9.37643e-05
0.000125086
-6.80641e-08
9.63794e-07
0.00012459
-4.64514e-07
4.09931e-07
9.43212e-05
6.27154e-05
-4.37858e-07
6.31553e-05
-2.81895e-07
9.41684e-05
0.000125042
-7.30227e-07
1.26697e-06
0.000124797
-1.01869e-06
5.1434e-07
9.49244e-05
6.36718e-05
-5.22174e-07
6.41963e-05
-5.28503e-07
9.49343e-05
0.000125472
-1.19909e-06
1.45941e-06
0.000125404
-1.38675e-06
5.7294e-07
9.58245e-05
6.47715e-05
-5.60685e-07
6.53346e-05
-6.64579e-07
9.59324e-05
0.00012623
-1.48634e-06
1.55702e-06
0.000126275
-1.59761e-06
5.91974e-07
9.69017e-05
6.59289e-05
-5.6609e-07
6.64975e-05
-7.1957e-07
9.70592e-05
0.000127199
-1.63905e-06
1.58566e-06
0.000127308
-1.6903e-06
5.82432e-07
9.80665e-05
6.70826e-05
-5.50088e-07
6.76358e-05
-7.20047e-07
9.82403e-05
0.00012829
-1.69714e-06
1.57417e-06
0.000128431
-1.71021e-06
5.57784e-07
9.92599e-05
6.81974e-05
-5.25996e-07
6.87269e-05
-6.93518e-07
9.94318e-05
0.000129446
-1.70297e-06
1.53902e-06
0.000129602
-1.68969e-06
5.2333e-07
0.000100451
6.92551e-05
-4.91305e-07
6.97556e-05
-6.42723e-07
0.000100603
0.000130625
-1.65916e-06
1.49652e-06
0.000130774
-1.63863e-06
4.88631e-07
0.00010161
7.02561e-05
-4.507e-07
7.07176e-05
-5.73916e-07
0.000101737
0.000131795
-1.58747e-06
1.42736e-06
0.000131925
-1.54857e-06
4.47539e-07
0.00010272
7.11766e-05
-4.05298e-07
7.1593e-05
-4.87964e-07
0.000102806
0.000132926
-1.48046e-06
1.34766e-06
0.000133025
-1.43638e-06
4.02771e-07
0.000103756
7.20069e-05
-3.62281e-07
7.23801e-05
-4.01584e-07
0.000103801
0.000134
-1.36758e-06
1.2722e-06
0.000134064
-1.32632e-06
3.62233e-07
0.000104717
7.2753e-05
-3.23884e-07
7.30873e-05
-3.21392e-07
0.000104721
0.000135011
-1.25932e-06
1.20299e-06
0.000135041
-1.22194e-06
3.25947e-07
0.000105604
7.34236e-05
-2.8996e-07
7.37238e-05
-2.48686e-07
0.00010557
0.00013596
-1.15854e-06
1.14068e-06
0.000135956
-1.12519e-06
2.93834e-07
0.000106423
7.40282e-05
-2.60143e-07
7.42988e-05
-1.83026e-07
0.000106354
0.000136849
-1.06568e-06
1.08475e-06
0.000136812
-1.03628e-06
2.65592e-07
0.00010718
7.45754e-05
-2.34081e-07
7.482e-05
-1.23975e-07
0.000107078
0.00013768
-9.80936e-07
1.03468e-06
0.000137613
-9.55528e-07
2.41077e-07
0.00010788
7.50721e-05
-2.11203e-07
7.52933e-05
-7.07578e-08
0.000107749
0.000138457
-9.0385e-07
9.89569e-07
0.000138361
-8.8199e-07
2.19537e-07
0.000108527
7.5523e-05
-1.90687e-07
7.57228e-05
-2.24082e-08
0.000108368
0.000139183
-8.33147e-07
9.48912e-07
0.000139059
-8.14639e-07
2.00445e-07
0.000109126
7.5932e-05
-1.72572e-07
7.61124e-05
2.06636e-08
0.000108941
0.000139859
-7.69464e-07
9.13232e-07
0.000139709
-7.53264e-07
1.82444e-07
0.000109679
7.63034e-05
-1.56512e-07
7.64665e-05
5.89419e-08
0.000109471
0.000140489
-7.1186e-07
8.80152e-07
0.000140315
-6.97625e-07
1.67544e-07
0.00011019
7.66408e-05
-1.41935e-07
7.67886e-05
9.35521e-08
0.000109961
0.000141076
-6.59351e-07
8.49689e-07
0.000140879
-6.46874e-07
1.54787e-07
0.000110663
7.69481e-05
-1.28969e-07
7.70823e-05
1.2522e-07
0.000110415
0.000141623
-6.11504e-07
8.22899e-07
0.000141406
-6.00412e-07
1.41955e-07
0.000111102
7.72286e-05
-1.17072e-07
7.73502e-05
1.54132e-07
0.000110836
0.000142134
-5.67722e-07
7.98505e-07
0.000141898
-5.57573e-07
1.29807e-07
0.000111509
7.74842e-05
-1.05969e-07
7.75939e-05
1.81471e-07
0.000111225
0.000142611
-5.26553e-07
7.75515e-07
0.000142357
-5.16694e-07
1.17669e-07
0.000111885
7.77166e-05
-9.5103e-08
7.78159e-05
2.07113e-07
0.000111587
0.000143057
-4.87715e-07
7.53902e-07
0.000142789
-4.79875e-07
1.0775e-07
0.000112236
7.79292e-05
-8.60592e-08
7.80206e-05
2.27657e-07
0.000111927
0.000143478
-4.56031e-07
7.43199e-07
0.0001432
-4.58913e-07
1.00269e-07
0.000112573
7.81265e-05
-1.05711e-07
7.82369e-05
-2.53774e-07
0.000112724
0.000143406
-4.55084e-07
7.50995e-07
0.000144673
-2.01171e-06
5.4474e-07
0.00011293
7.87883e-05
-5.86467e-07
7.93772e-05
-1.74891e-06
0.000114101
0.000145951
-3.0238e-06
2.69331e-06
0.000147802
-4.53614e-06
1.44483e-06
0.000115348
8.08307e-05
-5.96285e-07
8.14315e-05
-1.81405e-06
0.000116572
0.000149119
-3.12427e-06
1.83824e-06
0.000150468
-3.18156e-06
6.25918e-07
0.000117789
8.20616e-05
-2.43103e-06
8.44974e-05
-5.23022e-06
0.000120595
0.00015446
-9.21489e-06
1.7769e-06
-2.51941e-06
5.803e-07
-2.62788e-05
-0.000436996
7.37903e-07
-0.000485617
-1.51511e-05
-0.000539373
1.00039e-05
-0.000563635
-1.22538e-06
-0.000580623
3.87318e-06
-0.000585488
-1.50123e-06
-0.000588593
-1.50821e-06
-0.000590393
-2.73798e-06
-0.0005925
-2.10668e-06
-0.000595375
-2.09497e-06
-0.000597891
-2.01584e-06
-0.000599327
-1.35509e-06
-0.000599978
-1.28263e-08
-0.000598316
7.41789e-06
-0.000592253
1.18807e-05
-0.000583606
3.6509e-05
-0.000569331
5.99623e-05
-0.000560102
0.000143852
-0.000564189
0.000309903
-0.000639127
8.94795e-05
-0.000176686
-3.21366e-05
-0.000269611
-1.60782e-05
-0.0003263
1.09192e-05
-0.000329802
6.00508e-06
-9.44686e-05
3.10206e-06
-7.45743e-05
-5.14007e-05
-3.02628e-05
-2.11739e-05
-7.17472e-05
-3.30985e-05
-4.32696e-05
-0.000122918
-1.21913e-05
-5.59638e-05
2.49521e-05
-3.56167e-06
-4.15917e-05
-2.5002e-05
2.16315e-06
-2.71934e-05
5.4161e-06
-4.48185e-05
-6.07948e-05
1.03044e-05
-2.9416e-06
-6.37071e-05
5.84792e-06
-9.29014e-07
-4.68356e-05
-2.81198e-05
-9.69413e-07
-2.71483e-05
-1.64748e-06
-4.61553e-05
-6.24855e-05
-2.86945e-06
-4.04179e-07
-6.202e-05
-6.05156e-08
-3.45333e-07
-4.62131e-05
-2.74927e-05
-8.37639e-07
-2.66544e-05
-1.95023e-06
-4.50997e-05
-6.13319e-05
-2.63765e-06
-4.93414e-07
-6.19624e-05
1.12314e-06
-4.03606e-07
-4.51904e-05
-2.7059e-05
-8.04046e-07
-2.62553e-05
-8.83181e-07
-4.51115e-05
-6.07991e-05
-2.04658e-06
-1.03922e-06
-6.09394e-05
1.17962e-06
-4.10738e-07
-4.574e-05
-2.66658e-05
-3.72872e-07
-2.62926e-05
-1.38468e-06
-4.47278e-05
-6.0872e-05
-1.45163e-06
-1.07661e-06
-6.15578e-05
1.76305e-06
-4.78929e-07
-4.53249e-05
-2.6771e-05
-3.62832e-07
-2.64078e-05
-8.66806e-07
-4.48204e-05
-6.09799e-05
-1.44421e-06
-1.10427e-06
-6.16681e-05
1.79293e-06
-4.79764e-07
-4.54444e-05
-2.6887e-05
-3.62154e-07
-2.65242e-05
-8.61708e-07
-4.49441e-05
-6.10951e-05
-1.43392e-06
-1.1098e-06
-6.17857e-05
1.80119e-06
-4.81814e-07
-4.55715e-05
-2.70056e-05
-3.60354e-07
-2.66451e-05
-8.57786e-07
-4.50738e-05
-6.12156e-05
-1.42742e-06
-1.11976e-06
-6.19107e-05
1.81544e-06
-4.87151e-07
-4.57059e-05
-2.71317e-05
-3.58778e-07
-2.67724e-05
-8.5419e-07
-4.52098e-05
-6.13433e-05
-1.42081e-06
-1.12405e-06
-6.20391e-05
1.82058e-06
-4.8944e-07
-4.58438e-05
-2.72613e-05
-3.57576e-07
-2.69033e-05
-8.51897e-07
-4.53489e-05
-6.1473e-05
-1.41741e-06
-1.13358e-06
-6.21732e-05
1.83454e-06
-4.94414e-07
-4.59874e-05
-2.73971e-05
-3.56743e-07
-2.70401e-05
-8.49608e-07
-4.54941e-05
-6.16092e-05
-1.41298e-06
-1.13783e-06
-6.23099e-05
1.83898e-06
-4.96914e-07
-4.61345e-05
-2.75365e-05
-3.55555e-07
-2.71804e-05
-8.47747e-07
-4.56418e-05
-6.17467e-05
-1.41026e-06
-1.14654e-06
-6.24514e-05
1.85195e-06
-5.01469e-07
-4.62862e-05
-2.76814e-05
-3.55195e-07
-2.73259e-05
-8.46254e-07
-4.57947e-05
-6.189e-05
-1.40698e-06
-1.15092e-06
-6.2595e-05
1.85643e-06
-5.04087e-07
-4.6441e-05
-2.78295e-05
-3.5412e-07
-2.74747e-05
-8.4456e-07
-4.59498e-05
-6.20344e-05
-1.4044e-06
-1.15954e-06
-6.27433e-05
1.86918e-06
-5.08615e-07
-4.66002e-05
-2.79828e-05
-3.53685e-07
-2.76287e-05
-8.43089e-07
-4.61102e-05
-6.21843e-05
-1.40133e-06
-1.16429e-06
-6.28936e-05
1.87419e-06
-5.11476e-07
-4.67624e-05
-2.81397e-05
-3.5276e-07
-2.77863e-05
-8.41545e-07
-4.62729e-05
-6.23355e-05
-1.39879e-06
-1.17308e-06
-6.30488e-05
1.8871e-06
-5.16102e-07
-4.69292e-05
-2.83018e-05
-3.5224e-07
-2.79491e-05
-8.39987e-07
-4.64408e-05
-6.24924e-05
-1.3956e-06
-1.1783e-06
-6.32063e-05
1.89288e-06
-5.19202e-07
-4.70993e-05
-2.84677e-05
-3.51272e-07
-2.81158e-05
-8.38202e-07
-4.66116e-05
-6.26511e-05
-1.39261e-06
-1.18754e-06
-6.3369e-05
1.90626e-06
-5.24108e-07
-4.72744e-05
-2.86394e-05
-3.50621e-07
-2.82883e-05
-8.36546e-07
-4.67879e-05
-6.28156e-05
-1.38929e-06
-1.19338e-06
-6.35346e-05
1.91307e-06
-5.27535e-07
-4.74531e-05
-2.88153e-05
-3.49467e-07
-2.84653e-05
-8.34268e-07
-4.69677e-05
-6.29827e-05
-1.38546e-06
-1.20319e-06
-6.37061e-05
1.92719e-06
-5.32791e-07
-4.76376e-05
-2.89977e-05
-3.48723e-07
-2.86485e-05
-8.32437e-07
-4.71534e-05
-6.31561e-05
-1.38182e-06
-1.20979e-06
-6.3881e-05
1.93522e-06
-5.36594e-07
-4.78261e-05
-2.91847e-05
-3.47396e-07
-2.8837e-05
-8.29693e-07
-4.73434e-05
-6.33331e-05
-1.37709e-06
-1.2201e-06
-6.40627e-05
1.9501e-06
-5.42082e-07
-4.8021e-05
-2.93787e-05
-3.46664e-07
-2.90318e-05
-8.27759e-07
-4.75396e-05
-6.35169e-05
-1.37316e-06
-1.22751e-06
-6.42485e-05
1.95947e-06
-5.46237e-07
-4.82206e-05
-2.95778e-05
-3.45139e-07
-2.92325e-05
-8.24431e-07
-4.77411e-05
-6.37054e-05
-1.36733e-06
-1.23844e-06
-6.44421e-05
1.97533e-06
-5.52001e-07
-4.84274e-05
-2.97844e-05
-3.44312e-07
-2.944e-05
-8.22212e-07
-4.79494e-05
-6.39014e-05
-1.36287e-06
-1.24705e-06
-6.46409e-05
1.98663e-06
-5.56709e-07
-4.86397e-05
-2.99967e-05
-3.42395e-07
-2.96543e-05
-8.17877e-07
-4.81643e-05
-6.41036e-05
-1.3552e-06
-1.25939e-06
-6.48491e-05
2.00483e-06
-5.63064e-07
-4.88607e-05
-3.02174e-05
-3.41218e-07
-2.98763e-05
-8.14531e-07
-4.83875e-05
-6.43152e-05
-1.34862e-06
-1.2701e-06
-6.50649e-05
2.01964e-06
-5.68595e-07
-4.90891e-05
-3.0445e-05
-3.38625e-07
-3.01065e-05
-8.08347e-07
-4.86196e-05
-6.45358e-05
-1.33774e-06
-1.28471e-06
-6.52928e-05
2.04148e-06
-5.75883e-07
-4.93286e-05
-3.06826e-05
-3.36674e-07
-3.03462e-05
-8.03082e-07
-4.88625e-05
-6.47683e-05
-1.32799e-06
-1.29822e-06
-6.55312e-05
2.06077e-06
-5.82625e-07
-4.95784e-05
-3.09291e-05
-3.33354e-07
-3.0596e-05
-7.94988e-07
-4.91171e-05
-6.50127e-05
-1.31382e-06
-1.31544e-06
-6.57844e-05
2.08682e-06
-5.90944e-07
-4.98419e-05
-3.11872e-05
-3.30683e-07
-3.08567e-05
-7.87532e-07
-4.93853e-05
-6.52721e-05
-1.30022e-06
-1.33259e-06
-6.6052e-05
2.11212e-06
-5.99039e-07
-5.01192e-05
-3.1456e-05
-3.26328e-07
-3.113e-05
-7.76291e-07
-4.96695e-05
-6.5548e-05
-1.28064e-06
-1.35391e-06
-6.63392e-05
2.14468e-06
-6.08837e-07
-5.0415e-05
-3.17391e-05
-3.22059e-07
-3.14174e-05
-7.64697e-07
-4.99727e-05
-6.58439e-05
-1.26051e-06
-1.3781e-06
-6.66471e-05
2.18066e-06
-6.19937e-07
-5.07314e-05
-3.20378e-05
-3.14286e-07
-3.1724e-05
-7.4599e-07
-5.03003e-05
-6.61641e-05
-1.22959e-06
-1.40931e-06
-6.6983e-05
2.22749e-06
-6.34384e-07
-5.10758e-05
-3.23588e-05
-3.04615e-07
-3.20548e-05
-7.23622e-07
-5.06574e-05
-6.65133e-05
-1.19405e-06
-1.44891e-06
-6.73501e-05
2.28503e-06
-6.53306e-07
-5.14537e-05
-3.27086e-05
-2.87786e-07
-3.24214e-05
-6.88232e-07
-5.10539e-05
-6.68989e-05
-1.14018e-06
-1.50236e-06
-6.77587e-05
2.36141e-06
-6.80077e-07
-5.18768e-05
-3.3102e-05
-2.62324e-07
-3.28402e-05
-6.40648e-07
-5.14991e-05
-6.73287e-05
-1.07148e-06
-1.57743e-06
-6.8217e-05
2.46512e-06
-7.19514e-07
-5.23577e-05
-3.35602e-05
-2.21129e-07
-3.33396e-05
-5.64395e-07
-5.2015e-05
-6.7819e-05
-9.6317e-07
-1.69164e-06
-6.87475e-05
2.61949e-06
-7.83609e-07
-5.29236e-05
-3.41236e-05
-1.54194e-07
-3.39699e-05
-4.46537e-07
-5.26318e-05
-6.83941e-05
-8.00615e-07
-1.84243e-06
-6.93768e-05
2.82455e-06
-8.7275e-07
-5.3602e-05
-3.48431e-05
8.9943e-10
-3.48445e-05
-2.14607e-07
-5.3387e-05
-6.84969e-05
-1.09513e-06
-2.05507e-06
-7.01061e-05
3.66378e-06
-1.02047e-06
-5.44221e-05
-3.58654e-05
-1.49351e-07
-3.57164e-05
5.46563e-08
-5.46266e-05
-6.91069e-05
-9.45109e-07
-1.79644e-06
-7.06465e-05
3.33555e-06
-1.38524e-06
-5.50383e-05
-3.7102e-05
-5.18195e-07
-3.65842e-05
-2.29135e-07
-5.53278e-05
-7.02724e-05
-6.03782e-07
-2.11703e-06
-7.17183e-05
3.56229e-06
-1.26481e-06
-5.61806e-05
-3.78495e-05
-2.5816e-07
-3.7592e-05
-1.66877e-07
-5.62726e-05
-7.11425e-05
-7.43511e-07
-1.95698e-06
-7.30649e-05
3.87829e-06
-1.19714e-06
-5.70334e-05
-3.87899e-05
2.486e-07
-3.90394e-05
3.65236e-07
-5.7151e-05
-7.25178e-05
-1.82967e-07
-2.3021e-06
-7.3844e-05
3.62711e-06
-8.85796e-07
-5.85683e-05
-3.9926e-05
1.40147e-07
-4.0067e-05
1.39558e-07
-5.85687e-05
-7.44446e-05
7.39031e-07
-2.36318e-06
-7.58369e-05
3.75443e-06
-9.5876e-07
-5.9974e-05
-4.10265e-05
8.19635e-07
-4.18467e-05
9.51784e-07
-6.0107e-05
-7.52552e-05
3.6903e-07
-2.55503e-06
-7.70738e-05
4.37275e-06
-1.24301e-06
-6.14194e-05
-4.30901e-05
2.31768e-07
-4.3322e-05
8.24711e-07
-6.20125e-05
-7.7652e-05
1.40204e-06
-2.54158e-06
-7.94942e-05
4.38342e-06
-1.24129e-06
-6.33119e-05
-4.45644e-05
4.52749e-07
-4.50184e-05
1.18075e-06
-6.40399e-05
-7.95128e-05
1.20014e-06
-2.56479e-06
-8.13235e-05
4.38639e-06
-1.31005e-06
-6.52948e-05
-4.63364e-05
7.94147e-07
-4.715e-05
1.44372e-06
-6.59456e-05
-8.18507e-05
1.99985e-06
-2.66276e-06
-8.42797e-05
5.15793e-06
-1.4419e-06
-6.71661e-05
-4.86314e-05
1.07405e-06
-4.97678e-05
1.59052e-06
-6.76913e-05
-8.46646e-05
2.08591e-06
-2.93479e-06
-8.64478e-05
4.78318e-06
-1.01506e-06
-6.96123e-05
-5.0821e-05
1.38074e-06
-5.21449e-05
1.92323e-06
-7.01547e-05
-8.74925e-05
2.87137e-06
-4.01313e-06
-8.86774e-05
4.94696e-06
-1.6373e-06
-7.25206e-05
-5.36345e-05
1.34257e-06
-5.50367e-05
2.50403e-06
-7.36845e-05
-9.0975e-05
4.88849e-06
-5.63595e-06
-9.38589e-05
9.44215e-06
-2.76667e-06
-7.65839e-05
-5.83182e-05
3.23674e-06
-6.23755e-05
8.16874e-06
-8.15752e-05
-0.000100056
1.58045e-05
7.3991e-05
-5.04376e-05
-0.000123346
3.24749e-05
-4.01082e-05
-3.01402e-05
8.20438e-06
-3.8646e-05
2.08044e-05
-5.24166e-05
-6.52462e-05
3.55904e-05
-1.23181e-05
-7.29849e-05
2.00916e-05
-5.20723e-06
-5.94868e-05
-4.38974e-05
3.28289e-06
-4.71805e-05
5.82543e-06
-6.20337e-05
-7.71118e-05
9.95157e-06
-4.44837e-06
-7.99645e-05
7.29591e-06
-2.11055e-06
-6.43725e-05
-4.92896e-05
2.28245e-06
-5.15621e-05
4.55506e-06
-6.6641e-05
-0.000154416
7.8982e-05
-6.39106e-05
-0.000122032
3.15588e-05
-1.65163e-06
-0.000128907
-5.32252e-05
5.19745e-05
-0.000105207
3.53394e-05
-0.000112256
-0.000133511
4.68068e-05
-2.90505e-05
-0.000137774
3.33003e-05
-1.35432e-05
-0.000127742
-0.000118764
1.31268e-05
-0.000131889
1.98468e-05
-0.000134468
-0.000141009
2.30821e-05
-1.56915e-05
-0.000143171
1.78528e-05
-9.17718e-06
-0.000140983
-0.000141068
-1.15389e-06
-0.000139915
-2.82206e-06
-0.000139316
-0.000157593
1.15987e-05
3.73483e-05
-0.000100183
-9.47598e-05
1.33585e-05
-0.000115327
-0.000126557
-6.68823e-07
-0.000125889
1.07787e-06
-0.000117074
-0.000124261
2.51557e-05
-9.86436e-06
-0.000126934
1.25367e-05
-6.11205e-06
-0.000120827
-0.000132002
3.95247e-06
-0.000135956
4.42482e-06
-0.000121301
-0.000125251
2.73983e-06
4.89175e-07
-0.00012334
-2.40155e-06
-2.6624e-06
-0.00011815
-0.00013862
1.50972e-06
-0.000140131
-4.10188e-06
-0.00011254
-0.00010903
-1.8413e-05
-4.06031e-06
-0.000115314
1.03443e-05
-4.39532e-06
-0.000112205
-0.000144527
2.66169e-06
-0.000147189
6.57859e-07
-0.000110202
-0.000107565
-7.09139e-06
8.1801e-06
-0.00011564
-1.05714e-07
3.11644e-06
-0.000105138
-0.000144073
-1.28393e-05
-0.000131234
-3.45569e-05
-8.34204e-05
-6.97321e-05
-8.04649e-05
1.58058e-05
-8.51329e-05
-4.05015e-07
9.55509e-06
-7.71698e-05
-0.000121679
-7.23452e-06
-0.000114445
-1.74017e-05
-6.70026e-05
-5.81229e-05
-4.44118e-05
1.02327e-05
-7.40229e-05
5.66724e-06
7.02417e-06
-6.37941e-05
-0.00010742
-1.14501e-05
-9.59705e-05
-2.60873e-05
-4.91569e-05
-3.9392e-05
-6.07182e-05
1.10301e-05
-4.4095e-05
-6.3272e-06
7.55993e-06
-4.56868e-05
-8.84106e-05
-3.91896e-06
-8.44917e-05
-5.72925e-06
-4.38765e-05
-4.43964e-05
-5.42792e-06
8.8969e-06
-4.17782e-05
-1.15152e-05
5.45144e-06
-4.04311e-05
-7.90403e-05
-9.31878e-06
-6.97216e-05
-1.59344e-05
-3.38155e-05
-3.38867e-05
-2.3826e-05
2.1063e-05
-2.06363e-05
-3.43134e-05
1.2687e-05
-2.54396e-05
-5.70347e-05
-1.22398e-05
-4.4795e-05
-1.48976e-05
-2.27818e-05
-2.63323e-05
-9.20169e-06
2.08508e-05
-2.23377e-05
-2.48454e-05
1.56428e-05
-1.75738e-05
-2.91522e-05
-2.24859e-05
-6.66657e-06
-3.43731e-05
-5.68672e-06
-1.7032e-07
-5.65408e-05
3.89547e-05
1.51138e-06
-4.06364e-05
2.99919e-05
3.27603e-06
2.33251e-05
-3.73093e-05
6.06341e-05
-4.35108e-05
9.47741e-06
-2.73791e-06
-3.92616e-05
7.4247e-05
3.49291e-05
-0.000111914
5.50051e-05
2.87191e-05
0.000115639
-6.73219e-05
0.00018296
-7.79749e-05
3.9372e-05
2.95162e-05
-7.25621e-05
9.88072e-05
4.69144e-05
-0.000116206
8.21092e-05
5.60698e-05
0.000265068
-9.06417e-05
0.000355709
-0.000112735
7.81633e-05
8.81794e-05
-0.000154001
6.55921e-05
0.000101944
-7.93569e-05
5.16884e-05
9.20666e-05
0.000407396
-4.37022e-06
0.000411765
-3.60949e-05
0.000123791
0.00012961
-6.37615e-05
-6.19671e-06
0.00018657
-5.07642e-05
-4.11266e-05
0.00015872
0.000370637
5.75667e-05
0.000313069
6.35941e-05
0.000152693
0.000135482
0.000114682
-2.08147e-05
0.000218549
-6.22523e-05
-4.55908e-05
0.000177468
0.000267477
4.09567e-05
0.000226518
5.73351e-05
0.000161089
0.000168234
0.000107649
-4.52661e-05
0.000133683
7.98167e-05
-2.92074e-05
0.00014503
0.000197309
1.61891e-05
0.00018112
-1.39015e-08
0.000161232
0.000212776
-7.91075e-05
-3.12139e-05
0.000167489
7.65014e-05
-1.74825e-05
0.000147501
0.000163639
1.47083e-05
0.000148928
2.59667e-05
0.000136243
0.00013044
6.30152e-05
9.30975e-06
0.000210064
-8.8934e-05
-7.34887e-06
0.0001529
0.000141569
9.22478e-06
0.000132334
1.76947e-05
0.000144429
0.000172319
5.5444e-05
-3.09195e-05
0.00015085
5.23862e-05
-1.41014e-05
0.000127609
0.00011824
1.01827e-05
0.000108086
1.58823e-05
0.000121904
0.000120206
4.65191e-05
1.87808e-05
0.000195683
-9.42745e-05
4.63756e-07
0.000140258
0.000108528
4.32274e-06
0.000104241
8.57178e-06
0.000135992
0.000167656
3.65822e-05
-2.14819e-05
0.000151408
3.7729e-05
-1.00053e-05
0.000124505
9.42249e-05
5.5218e-06
8.86711e-05
8.5581e-06
0.000121462
0.000120343
3.96243e-05
2.81339e-05
0.000190339
-9.8128e-05
6.46571e-06
0.000143132
9.51229e-05
-1.2909e-05
0.000108042
-2.72468e-05
0.000157469
0.000149557
1.35315e-05
6.69951e-05
0.000256076
-0.00017352
2.06874e-05
0.000203772
0.000128748
-1.15999e-05
0.000140313
-2.33292e-05
0.000215492
0.000253299
-2.05434e-05
-1.34133e-05
0.000240743
2.59814e-05
-1.72068e-06
0.000203824
0.000138549
-3.11573e-07
0.000138876
5.8498e-06
0.000197676
0.000191352
5.5238e-05
4.91144e-05
0.000310213
-0.000167982
1.323e-05
0.00023355
0.000152151
-2.56263e-06
0.000154671
6.46606e-06
0.000224511
0.00026367
5.30107e-05
-3.5102e-05
0.000234775
6.39984e-05
-1.09646e-05
0.000200378
0.000143704
4.32217e-06
0.000139383
1.67228e-05
0.000187978
0.000183361
6.81367e-05
4.49021e-05
0.000281399
-0.000142941
1.38878e-05
0.000218992
0.000153271
-4.45104e-06
0.000157722
-9.5344e-07
0.000215493
0.000246781
3.36628e-05
-2.62401e-05
0.00023708
3.59402e-05
-9.43495e-06
0.000198687
0.000148287
1.48385e-05
0.000133448
3.51883e-05
0.000178336
0.000213055
5.92124e-05
-1.84771e-05
0.000166741
6.47912e-05
-6.22767e-06
0.000166086
0.00012722
-1.03893e-05
0.000137608
-3.86477e-05
0.000194344
0.000269923
-0.000141831
-3.71488e-05
0.000208488
9.85806e-05
-1.26372e-05
0.000169831
0.000124969
2.51618e-05
9.98046e-05
6.79926e-05
0.000126999
0.000180911
9.55691e-05
-4.05458e-05
0.000148551
7.29052e-05
-6.15128e-05
0.000147965
3.82913e-05
-3.73856e-05
7.56762e-05
8.06733e-06
0.000102512
0.00029031
-0.000133695
-1.97088e-05
0.000128543
0.000181472
-9.30437e-06
9.2104e-05
6.63689e-05
7.55701e-06
5.88313e-05
1.69078e-05
8.27716e-05
0.000113349
3.21032e-05
-2.14583e-05
9.45589e-05
4.0217e-05
-9.09085e-06
7.03683e-05
4.97488e-05
1.2044e-05
3.76864e-05
2.90367e-05
5.32625e-05
7.02208e-05
5.3451e-05
0.000101028
0.000142794
-0.000173529
4.29539e-05
0.000111391
8.06198e-05
7.06809e-06
7.32907e-05
1.74136e-05
0.000100999
0.000130554
3.01384e-05
-2.32292e-05
0.000113402
4.06843e-05
-9.92849e-06
8.76732e-05
6.31614e-05
1.11865e-05
5.18938e-05
2.69214e-05
7.19709e-05
9.29351e-05
4.75317e-05
-3.21424e-05
6.86355e-05
5.62888e-05
-1.30312e-05