/*--------------------------------*- C++ -*----------------------------------*\
| =========                 |                                                 |
| \\      /  F ield         | OpenFOAM: The Open Source CFD Toolbox           |
|  \\    /   O peration     | Version:  v2006                                 |
|   \\  /    A nd           | Website:  www.openfoam.com                      |
|    \\/     M anipulation  |                                                 |
\*---------------------------------------------------------------------------*/
FoamFile
{
    version     2.0;
    format      ascii;
    class       volVectorField;
    location    "0.024";
    object      U;
}
// * * * * * * * * * * * * * * * * * * * * * * * * * * * * * * * * * * * * * //

dimensions      [0 1 -1 0 0 0 0];


internalField   nonuniform List<vector> 
12716
(
(65.1525 -6.07868e-05 -2.49018e-20)
(65.1525 -1.94517e-05 0)
(65.1525 -5.31447e-06 -6.35819e-22)
(65.1525 -1.6501e-05 6.03003e-22)
(65.1525 -2.80322e-05 -7.23375e-22)
(65.1526 -4.32137e-05 1.28597e-21)
(65.1528 -9.04892e-05 0)
(65.1531 -0.00010786 0)
(65.1534 -9.88033e-05 -5.15653e-22)
(65.1531 2.75414e-05 7.26469e-21)
(65.1446 -0.000942247 -5.35483e-20)
(65.1103 -0.00543067 2.73583e-21)
(65.0422 -0.0131587 1.29206e-20)
(64.948 -0.0219847 -6.88082e-21)
(64.8396 -0.0303158 -7.08896e-21)
(64.726 -0.0373652 0)
(64.6113 -0.0431376 0)
(64.4961 -0.0479397 0)
(64.3796 -0.0520855 0)
(64.2604 -0.055796 0)
(64.1376 -0.0591937 0)
(64.0108 -0.062333 0)
(63.8796 -0.0652347 0)
(63.7444 -0.0679096 0)
(63.6051 -0.0703696 0)
(63.4622 -0.0726298 0)
(63.3158 -0.0747058 0)
(63.1661 -0.0766111 0)
(63.0134 -0.078355 0)
(62.8579 -0.0799419 0)
(62.6997 -0.0813733 0)
(62.5393 -0.0826464 0)
(62.3767 -0.0837572 0)
(62.2124 -0.0846992 0)
(62.0465 -0.0854657 0)
(61.8796 -0.0860494 0)
(61.7117 -0.0864428 0)
(61.5434 -0.0866322 0)
(61.375 -0.0866135 0)
(61.2067 -0.0864226 0)
(61.0391 -0.0860427 0)
(60.8724 -0.0854086 0)
(60.707 -0.0845189 0)
(60.5434 -0.0833825 0)
(60.3819 -0.0819865 0)
(60.2229 -0.08032 0)
(60.067 -0.0783784 0)
(59.9144 -0.0761577 0)
(59.7656 -0.0736538 0)
(59.6206 -0.0708601 0)
(59.4791 -0.0677329 0)
(59.3404 -0.0641243 0)
(59.203 -0.059745 0)
(59.0658 -0.0541111 0)
(58.9291 -0.0466044 0)
(58.7984 -0.0369551 -1.19066e-19)
(58.6867 -0.0261428 1.18932e-19)
(58.613 -0.0168314 1.3317e-20)
(58.5859 -0.0113596 0)
(58.5919 -0.00948929 0)
(58.6101 -0.00907882 6.84318e-20)
(58.6298 -0.00903023 5.818e-19)
(58.6458 -0.008038 -7.27985e-18)
(58.6496 -0.00638565 0)
(58.6383 -0.00866156 0)
(58.596 -0.0156123 0)
(58.5055 -0.0292904 0)
(58.3527 -0.0563344 0)
(58.0973 -0.0819767 3.49142e-19)
(57.8128 -0.092651 0)
(56.8102 -0.151282 0)
(56.1751 -0.136567 5.08503e-18)
(57.8109 -0.170578 -3.39843e-18)
(58.1459 -0.145443 -3.52742e-19)
(58.1814 -0.172817 -5.58262e-18)
(57.748 -0.197716 -4.30025e-19)
(55.4659 -0.132577 -1.05747e-18)
(54.7388 -0.120268 -9.25329e-19)
(57.6565 -0.19458 3.85227e-19)
(58.2108 -0.176883 6.40537e-19)
(58.2222 -0.172198 -6.24182e-19)
(57.5448 -0.178846 8.62035e-19)
(54.0774 -0.105203 -1.16907e-19)
(53.4457 -0.0911674 1.63387e-19)
(57.3996 -0.162393 -9.02554e-20)
(58.2046 -0.165892 6.74146e-19)
(58.1642 -0.160618 -1.49716e-19)
(57.2454 -0.148864 9.029e-20)
(52.874 -0.0805448 -2.69432e-24)
(52.3499 -0.0716135 -5.40902e-20)
(57.0767 -0.137258 -7.81788e-20)
(58.1048 -0.155686 7.45074e-20)
(58.0322 -0.150559 0)
(56.901 -0.127091 -1.67814e-20)
(51.8775 -0.0644857 0)
(51.4362 -0.0588812 0)
(56.7192 -0.119229 5.60896e-21)
(57.9462 -0.145967 0)
(57.8569 -0.142029 0)
(56.536 -0.111643 0)
(51.0335 -0.0539285 0)
(50.6493 -0.0502883 0)
(56.352 -0.106071 0)
(57.7538 -0.137995 0)
(57.6515 -0.13491 0)
(56.1676 -0.100455 0)
(50.2952 -0.0466237 0)
(49.9523 -0.0441358 0)
(55.9833 -0.0963979 0)
(57.5367 -0.131532 0)
(57.4253 -0.129196 0)
(55.7993 -0.0921429 0)
(49.6332 -0.041272 0)
(49.3228 -0.0395177 0)
(55.617 -0.0890149 0)
(57.3036 -0.12624 0)
(57.1877 -0.12468 0)
(55.4364 -0.0860169 0)
(49.0322 -0.0374418 0)
(48.7428 -0.0359742 0)
(55.2529 -0.0834677 0)
(57.0574 -0.122639 0)
(56.9321 -0.121551 0)
(55.0689 -0.0812367 0)
(48.4668 -0.0343142 0)
(48.1934 -0.0336125 0)
(54.8841 -0.0796318 0)
(56.7948 -0.119817 0)
(56.6664 -0.119164 0)
(54.7023 -0.077565 0)
(47.9341 -0.0319382 0)
(47.6757 -0.0315867 0)
(54.5191 -0.0764275 0)
(56.5255 -0.117691 0)
(56.3931 -0.117349 0)
(54.3375 -0.0747404 0)
(47.4281 -0.0301109 0)
(47.1798 -0.0300117 0)
(54.1538 -0.0739837 0)
(56.2473 -0.116241 0)
(56.1108 -0.116271 0)
(53.9717 -0.0726491 0)
(46.9408 -0.0286956 0)
(46.7003 -0.0288038 0)
(53.7871 -0.0722126 0)
(55.9603 -0.115485 0)
(55.8195 -0.115813 0)
(53.6037 -0.0711423 0)
(46.4677 -0.0275978 0)
(46.2328 -0.027874 0)
(53.4175 -0.0709681 0)
(55.6642 -0.1153 0)
(55.5189 -0.115889 0)
(53.2324 -0.0701087 0)
(46.0049 -0.0267489 0)
(45.7741 -0.0271674 0)
(53.044 -0.0701601 0)
(55.3585 -0.115621 0)
(55.2086 -0.116453 0)
(52.8565 -0.0694815 0)
(45.5494 -0.0261058 0)
(45.3212 -0.0266497 0)
(52.6653 -0.0697364 0)
(55.0429 -0.116419 0)
(54.8878 -0.117506 0)
(52.4747 -0.0692288 0)
(45.0983 -0.0256434 0)
(44.8715 -0.0263006 0)
(52.2801 -0.0696699 0)
(54.7164 -0.117694 0)
(54.5558 -0.119023 0)
(52.0857 -0.0693152 0)
(44.6493 -0.0253394 0)
(44.4226 -0.0261001 0)
(51.887 -0.069928 0)
(54.3784 -0.11942 0)
(54.2118 -0.120975 0)
(51.6883 -0.0697076 0)
(44.2 -0.0251746 0)
(43.9724 -0.0260307 0)
(51.4848 -0.0704832 0)
(54.0278 -0.121579 0)
(53.8548 -0.12334 0)
(51.2812 -0.0703779 0)
(43.7484 -0.0251313 0)
(43.5191 -0.0260784 0)
(51.0724 -0.0713148 0)
(53.6638 -0.124157 0)
(53.4839 -0.126146 0)
(50.863 -0.0713326 0)
(43.2927 -0.0252074 0)
(43.0606 -0.0262465 0)
(50.6482 -0.0724382 0)
(53.2853 -0.127199 0)
(53.0978 -0.129466 0)
(50.4324 -0.0726034 0)
(42.831 -0.0254114 0)
(42.595 -0.0265432 0)
(50.2106 -0.0738834 0)
(52.8909 -0.130773 0)
(52.6949 -0.133337 0)
(49.9874 -0.0742029 0)
(42.3609 -0.0257442 0)
(42.12 -0.0269659 0)
(49.7577 -0.0756552 0)
(52.4789 -0.134903 0)
(52.2736 -0.137769 0)
(49.5262 -0.0761303 0)
(41.8804 -0.0262023 0)
(41.6334 -0.0275098 0)
(49.2877 -0.0777476 0)
(52.0475 -0.139588 0)
(51.832 -0.142755 0)
(49.0468 -0.0783753 0)
(41.3872 -0.0267794 0)
(41.1331 -0.0281691 0)
(48.7985 -0.0801516 0)
(51.5951 -0.14482 0)
(51.3686 -0.148296 0)
(48.5473 -0.0809353 0)
(40.8794 -0.0274721 0)
(40.6172 -0.0289445 0)
(48.2883 -0.0828755 0)
(51.1199 -0.150622 0)
(50.8813 -0.154433 0)
(48.0258 -0.0838288 0)
(40.3548 -0.0282846 0)
(40.0835 -0.0298428 0)
(47.755 -0.0859465 0)
(50.6199 -0.157047 0)
(50.3684 -0.161233 0)
(47.4802 -0.0870918 0)
(39.8113 -0.0292255 0)
(39.5296 -0.030875 0)
(47.1964 -0.0894035 0)
(50.0931 -0.164169 0)
(49.8274 -0.168775 0)
(46.908 -0.0907643 0)
(39.2465 -0.0303068 0)
(38.9531 -0.0320535 0)
(46.61 -0.0932867 0)
(49.5371 -0.172067 0)
(49.2558 -0.177134 0)
(46.3066 -0.0948847 0)
(38.6576 -0.0315403 0)
(38.3511 -0.0333883 0)
(45.9929 -0.0976298 0)
(48.9491 -0.180806 0)
(48.6508 -0.186362 0)
(45.673 -0.0994791 0)
(38.0419 -0.0329334 0)
(37.7208 -0.0348824 0)
(45.3422 -0.102447 0)
(48.3263 -0.190417 0)
(48.0096 -0.196462 0)
(45.0043 -0.104546 0)
(37.3964 -0.0344832 0)
(37.0593 -0.0365257 0)
(44.6548 -0.10772 0)
(47.6658 -0.20087 0)
(47.3293 -0.207381 0)
(44.2976 -0.110054 0)
(36.7184 -0.036174 0)
(36.364 -0.0383036 0)
(43.928 -0.113418 0)
(46.9648 -0.212116 0)
(46.6072 -0.219085 0)
(43.55 -0.115984 0)
(36.0052 -0.0379958 0)
(35.6322 -0.0402125 0)
(43.1591 -0.119541 0)
(46.2206 -0.224152 0)
(45.8405 -0.231604 0)
(42.7588 -0.122354 0)
(35.2544 -0.0399533 0)
(34.8615 -0.0422623 0)
(42.345 -0.126108 0)
(45.4304 -0.237013 0)
(45.0263 -0.24496 0)
(41.9211 -0.129176 0)
(34.4633 -0.0420537 0)
(34.0491 -0.0444469 0)
(41.483 -0.133119 0)
(44.5913 -0.250696 0)
(44.1616 -0.25912 0)
(41.034 -0.136431 0)
(33.6291 -0.0442804 0)
(33.1924 -0.0467484 0)
(40.5701 -0.140537 0)
(43.7003 -0.265138 0)
(43.2438 -0.273986 0)
(40.0945 -0.144065 0)
(32.7494 -0.0466133 0)
(32.2891 -0.0491399 0)
(39.6035 -0.148291 0)
(42.7548 -0.280208 0)
(42.2702 -0.289387 0)
(39.1003 -0.151985 0)
(31.8223 -0.0490167 0)
(31.3375 -0.0515753 0)
(38.5814 -0.156261 0)
(41.7526 -0.295683 0)
(41.2391 -0.305044 0)
(38.0498 -0.160043 0)
(30.8464 -0.0514341 0)
(30.3371 -0.0539847 0)
(37.5025 -0.164265 0)
(40.6922 -0.311223 0)
(40.1496 -0.320537 0)
(36.9425 -0.168015 0)
(29.8219 -0.0537816 0)
(29.2886 -0.0562639 0)
(36.3671 -0.172027 0)
(39.5738 -0.326309 0)
(39.0027 -0.335259 0)
(35.7795 -0.175581 0)
(28.7504 -0.0559403 0)
(28.195 -0.0582633 0)
(35.1776 -0.179138 0)
(38.3991 -0.340185 0)
(37.8015 -0.34826 0)
(34.565 -0.182187 0)
(27.6366 -0.0576935 0)
(27.0627 -0.0597783 0)
(33.9397 -0.185047 0)
(37.173 -0.351992 0)
(36.5526 -0.358641 0)
(33.3063 -0.187246 0)
(26.4887 -0.0588477 0)
(25.9019 -0.0606175 0)
(32.6627 -0.189151 0)
(35.9037 -0.360762 0)
(35.2659 -0.365352 0)
(32.0145 -0.190187 0)
(25.3186 -0.0592454 0)
(24.7263 -0.0605341 0)
(31.3598 -0.190681 0)
(34.6029 -0.364959 0)
(33.9553 -0.366552 0)
(30.7054 -0.19007 0)
(24.1427 -0.0585474 0)
(23.5555 -0.0591768 0)
(30.0497 -0.188699 0)
(33.2875 -0.362785 0)
(32.6406 -0.360497 0)
(29.4008 -0.185971 0)
(22.9835 -0.0564227 0)
(22.4148 -0.0562606 0)
(28.7571 -0.182323 0)
(31.9801 -0.352596 0)
(31.347 -0.345633 0)
(28.1282 -0.177052 0)
(21.8691 -0.0526019 0)
(21.3347 -0.0515487 0)
(27.5122 -0.170837 0)
(30.7081 -0.333029 0)
(30.1041 -0.320917 0)
(26.92 -0.162771 0)
(20.832 -0.0469163 0)
(20.3491 -0.0449354 0)
(26.3488 -0.153903 0)
(29.5025 -0.303386 0)
(28.944 -0.286127 0)
(25.8108 -0.143112 0)
(19.9064 -0.0393923 0)
(19.4917 -0.0365894 0)
(25.3015 -0.131854 0)
(28.3961 -0.26406 0)
(27.8987 -0.242341 0)
(24.834 -0.118772 0)
(19.1245 -0.0303204 0)
(18.7917 -0.0269242 0)
(24.4015 -0.105712 0)
(27.419 -0.216701 0)
(26.9963 -0.191547 0)
(24.0177 -0.090963 0)
(18.5117 -0.0201772 0)
(18.2698 -0.0165884 0)
(23.6733 -0.0771416 0)
(26.5968 -0.16423 0)
(26.2581 -0.137852 0)
(23.3812 -0.061838 0)
(18.0823 -0.00982389 0)
(17.9328 -0.0065771 0)
(23.1292 -0.0485487 0)
(25.9451 -0.111228 0)
(25.6929 -0.0855963 0)
(22.9291 -0.0339576 0)
(17.835 -0.000211183 0)
(17.7713 0.00252767 0)
(22.7665 -0.0220806 0)
(25.4661 -0.0611956 0)
(25.2968 -0.038103 0)
(22.6527 -0.00911701 0)
(17.7549 0.00917181 0)
(17.7707 0.011189 0)
(22.5685 0.00203469 0)
(25.1498 -0.0164322 0)
(25.0504 0.00427261 0)
(22.5328 0.0135644 0)
(17.8308 0.0158804 0)
(17.9071 0.016845 0)
(22.5128 0.0193906 0)
(24.9772 0.0201024 0)
(24.9452 0.0370579 0)
(22.5437 0.0297133 0)
(18.0166 0.0195982 0)
(18.1341 0.0190568 0)
(22.5822 0.0342459 0)
(24.9378 0.048147 0)
(24.9613 0.0603344 0)
(22.6645 0.0418133 0)
(18.2774 0.0209657 0)
(18.4228 0.0199619 0)
(22.747 0.0442523 0)
(25.0015 0.067692 0)
(25.0651 0.0752969 0)
(22.8646 0.049045 0)
(18.5866 0.0212999 0)
(18.7466 0.019858 0)
(22.9756 0.0494126 0)
(25.1382 0.0789003 0)
(25.2283 0.0831377 0)
(23.114 0.052141 0)
(18.9183 0.0207513 0)
(19.0824 0.0190477 0)
(23.2409 0.0510844 0)
(25.3228 0.0839388 0)
(25.429 0.0857853 0)
(23.3894 0.0523118 0)
(19.2531 0.0195607 0)
(19.4139 0.017815 0)
(23.5232 0.0504623 0)
(25.5359 0.085086 0)
(25.6509 0.0854601 0)
(23.6748 0.0508199 0)
(19.5784 0.018131 0)
(19.7318 0.0165404 0)
(23.8095 0.0488091 0)
(25.7639 0.0842148 0)
(25.8819 0.0834461 0)
(23.9586 0.0483111 0)
(19.8859 0.0164814 0)
(20.0308 0.0150958 0)
(24.0913 0.046156 -3.64012e-19)
(25.9976 0.0812363 3.03134e-19)
(26.1187 0.0802915 0)
(24.2391 0.0456708 0)
(20.178 0.0150829 0)
(20.3121 0.0134388 0)
(24.3667 0.042801 0)
(26.2333 0.0770232 0)
(26.3495 0.0751975 0)
(24.5053 0.0420567 0)
(20.4448 0.0134811 0)
(20.5656 0.0117519 0)
(24.6242 0.0388532 0)
(26.4591 0.0712315 0)
(26.5696 0.0691871 0)
(24.7536 0.038091 0)
(20.6851 0.0118475 0)
(20.7935 0.0102278 0)
(24.8634 0.0350136 0)
(26.6732 0.0653031 0)
(26.7774 0.0634093 0)
(24.9836 0.0344272 0)
(20.901 0.0104354 0)
(20.9982 0.00892373 0)
(25.0845 0.0315287 0)
(26.8747 0.0597165 0)
(26.9725 0.0580371 0)
(25.1957 0.0311197 0)
(21.0948 0.00921804 0)
(21.1821 0.00780581 0)
(25.2883 0.0284283 0)
(27.0635 0.0546011 0)
(27.1549 0.0531367 0)
(25.3913 0.0281767 0)
(21.2691 0.00817004 0)
(21.3477 0.00684794 0)
(25.4761 0.0256794 0)
(27.24 0.0499534 0)
(27.3254 0.0486882 0)
(25.5715 0.0255639 0)
(21.4263 0.00727229 0)
(21.4972 0.00602925 0)
(25.6493 0.0232521 0)
(27.4046 0.0457576 0)
(27.4843 0.0446794 0)
(25.7378 0.0232573 0)
(21.5686 0.00650962 0)
(21.6326 0.0053206 0)
(25.8091 0.0211034 0)
(27.5582 0.0419714 0)
(27.6325 0.0410495 0)
(25.8911 0.0212068 0)
(21.6975 0.00584651 0)
(21.7554 0.0046843 0)
(25.9564 0.0191867 0)
(27.7012 0.0385339 0)
(27.7704 0.0377484 0)
(26.0325 0.0193781 0)
(21.8143 0.00525839 0)
(21.8667 0.00413051 0)
(26.0924 0.0174808 0)
(27.8341 0.0354385 0)
(27.8987 0.0347948 0)
(26.1631 0.0177415 0)
(21.9203 0.00470953 0)
(21.9678 0.00365824 0)
(26.2182 0.0159524 0)
(27.9578 0.0326443 0)
(28.018 0.0321045 0)
(26.2838 0.016281 0)
(22.0168 0.00427333 0)
(22.0599 0.00324094 0)
(26.3346 0.0145778 0)
(28.0729 0.0301196 0)
(28.1293 0.0296482 0)
(26.3956 0.0149653 0)
(22.1047 0.00390402 0)
(22.1438 0.00287557 0)
(26.4424 0.0133359 0)
(28.1804 0.0278219 0)
(28.2333 0.0274321 0)
(26.4993 0.0137596 0)
(22.1849 0.0035339 0)
(22.2204 0.00253926 0)
(26.5424 0.012204 0)
(28.2808 0.0257266 0)
(28.3304 0.0253975 0)
(26.5954 0.0126453 0)
(22.2579 0.00317513 0)
(22.29 0.00221979 0)
(26.635 0.0111398 0)
(28.3744 0.023754 0)
(28.4209 0.023467 0)
(26.6843 0.0115793 0)
(22.3241 0.00281612 0)
(22.353 0.00190326 0)
(26.7207 0.0101166 3.62603e-19)
(28.4619 0.0218756 -3.02062e-19)
(28.5057 0.0216862 0)
(26.7666 0.0106044 0)
(22.384 0.0025266 0)
(22.4105 0.00159632 5.41334e-20)
(26.8005 0.00923942 4.49847e-19)
(28.5441 0.0202882 -3.753e-19)
(28.5854 0.0205764 7.4796e-20)
(26.8435 0.00995726 -8.98286e-20)
(22.4384 0.00221625 -5.41287e-20)
(22.4623 0.00253534 4.19753e-19)
(26.878 0.00968072 0)
(28.6223 0.0198076 -5.88097e-19)
(28.6706 0.0213183 2.50319e-24)
(26.9175 0.0104544 -1.76388e-19)
(22.5049 0.0031192 -2.12886e-19)
(22.5442 0.00467425 -5.95486e-19)
(26.9684 0.012023 4.99781e-19)
(28.7218 0.0212562 0)
(28.787 0.0208138 0)
(27.0335 0.0118483 -7.03141e-19)
(22.6257 0.0057952 6.44111e-19)
(22.6845 0.00537896 -1.96109e-19)
(27.0992 0.0136457 6.60321e-19)
(28.8449 0.0253624 -1.10919e-18)
(28.8941 0.0302151 1.83367e-18)
(27.1466 0.0171593 0)
(22.7164 0.00742133 -4.64484e-19)
(22.857 0.0115364 8.67302e-19)
(27.2502 0.0179807 0)
(28.9928 0.0272211 7.74462e-20)
(29.0691 0.0236668 5.75858e-19)
(27.3437 0.0225754 -7.91035e-19)
(22.9435 -0.00442487 0)
(30.683 0.0476541 0)
(31.5796 0.061278 -1.1897e-19)
(32.1717 0.0670838 0)
(32.5527 0.0752259 -1.66866e-18)
(32.858 0.110922 1.5797e-18)
(33.2547 0.128802 0)
(33.539 0.134879 0)
(33.8399 0.142983 5.03007e-20)
(34.0687 0.142558 -5.03641e-20)
(34.3009 0.144348 0)
(34.4844 0.141826 0)
(34.6696 0.139145 0)
(34.8151 0.134338 0)
(34.9622 0.128819 0)
(35.0706 0.119268 8.37652e-19)
(35.1696 0.111167 -2.55754e-18)
(35.2298 0.0994088 1.78965e-18)
(35.263 0.0883327 -7.32195e-18)
(35.2548 0.0693886 7.76178e-18)
(35.1726 0.0268486 3.04731e-17)
(34.9798 -0.00605357 -7.0445e-17)
(34.7271 -0.0316187 0)
(34.4904 -0.0473822 0)
(33.6619 -0.0598835 1.13971e-17)
(31.6924 -0.0359212 0)
(29.7936 0.00112008 0)
(24.9512 -0.115636 0)
(24.2901 -0.294968 0)
(29.2133 -0.221813 -6.89891e-17)
(31.1379 -0.285517 6.15017e-17)
(29.2714 -0.84003 2.87684e-17)
(25.9763 -0.482498 3.61334e-17)
(18.6033 -0.227346 -1.41806e-17)
(19.7011 -0.051185 0)
(27.0833 -0.146145 1.23557e-17)
(30.3002 -0.244935 -2.04756e-17)
(30.2896 -0.0688338 -1.21505e-17)
(26.9468 -0.0491884 9.48501e-19)
(19.2657 -0.0251083 -2.32171e-18)
(19.2691 -0.0178427 -5.30007e-19)
(27.0127 -0.0211724 8.74623e-19)
(30.3871 -0.0200845 -3.59348e-18)
(30.2642 -0.0086989 7.34265e-19)
(26.8588 -0.00848032 9.99828e-19)
(19.0222 -0.00543472 -5.39681e-19)
(19.1104 -0.00626933 1.32788e-19)
(26.9263 -0.00153992 3.42327e-18)
(30.316 0.0042854 -5.8748e-18)
(30.2301 0.00338271 7.38971e-19)
(26.7947 0.00077194 -1.70765e-25)
(18.9426 -0.000756056 -1.20968e-18)
(19.0488 -0.00414032 1.3469e-19)
(26.8865 0.00535654 -1.79045e-18)
(30.2979 0.0135568 -1.47937e-18)
(30.2342 0.0102096 0)
(26.8411 0.00411902 0)
(18.8967 0.000293058 -1.35804e-19)
(19.0103 0.000817196 0)
(26.945 0.00672255 0)
(30.3212 0.0150309 -1.49491e-18)
(30.2792 0.0143403 1.48875e-18)
(26.871 0.0106307 0)
(18.9753 0.00675977 0)
(19.0891 0.00126848 0)
(26.9813 0.00897825 0)
(30.3713 0.0175439 -1.48848e-18)
(30.3332 0.0177263 1.48861e-18)
(26.9426 0.0122002 0)
(19.0597 0.00595988 0)
(19.1719 0.00124084 0)
(27.0537 0.0095876 0)
(30.4269 0.0186954 -1.48836e-18)
(30.3908 0.0182387 1.48849e-18)
(27.0178 0.0124623 0)
(19.1438 0.00591212 0)
(19.2576 0.00145478 0)
(27.1301 0.0101563 0)
(30.4853 0.0195879 -1.48823e-18)
(30.4518 0.0193437 1.48835e-18)
(27.0965 0.0131149 0)
(19.2324 0.00618227 0)
(19.3478 0.00166465 -1.0851e-18)
(27.2104 0.0106863 -9.00482e-19)
(30.5473 0.0205242 1.48809e-18)
(30.515 0.0196056 1.48822e-18)
(27.1783 0.0132727 0)
(19.3244 0.00621185 0)
(19.4409 0.00185442 0)
(27.2929 0.0111549 0)
(30.6106 0.02116 -1.48796e-18)
(30.5803 0.0206422 1.48808e-18)
(27.2627 0.0138758 0)
(19.4201 0.00643073 0)
(19.5382 0.0020192 0)
(27.3788 0.0115835 0)
(30.6769 0.021925 -1.48781e-18)
(30.6475 0.0208334 1.48794e-18)
(27.3497 0.0140301 0)
(19.5189 0.00648843 0)
(19.638 0.00223042 0)
(27.4663 0.0120445 0)
(30.744 0.0225091 -1.48767e-18)
(30.7165 0.0217439 1.48779e-18)
(27.4391 0.0145463 0)
(19.621 0.00666705 0)
(19.7416 0.00236711 0)
(27.5568 0.0124122 0)
(30.8139 0.0231815 -1.48751e-18)
(30.7872 0.0219265 1.48763e-18)
(27.5306 0.0147011 0)
(19.726 0.00672969 0)
(19.8475 0.00257775 0)
(27.6488 0.0128697 0)
(30.8843 0.0237648 -1.48735e-18)
(30.8594 0.0227993 1.48747e-18)
(27.6244 0.0151977 0)
(19.8342 0.00690212 0)
(19.9572 0.0027316 0)
(27.7437 0.0132562 0)
(30.9573 0.0244407 -1.48718e-18)
(30.9333 0.0230179 1.4873e-18)
(27.7203 0.0153746 0)
(19.9453 0.00697476 0)
(20.0693 0.00293696 0)
(27.8401 0.0137084 0)
(31.0311 0.0250313 -1.48701e-18)
(31.0089 0.0238925 1.48713e-18)
(27.8186 0.0158736 0)
(20.0598 0.00714832 0)
(20.1852 0.00310626 0)
(27.9395 0.0141198 0)
(31.1074 0.0257377 -1.48683e-18)
(31.0862 0.0241667 1.48695e-18)
(27.9191 0.0160769 0)
(20.1773 0.00722789 0)
(20.3039 0.00331781 0)
(28.0406 0.0146023 0)
(31.1847 0.026388 -1.48665e-18)
(31.1655 0.0250745 1.48676e-18)
(28.0222 0.016605 0)
(20.2985 0.00741741 0)
(20.4266 0.0035091 0)
(28.1449 0.0150448 0)
(31.2648 0.0271254 -1.48645e-18)
(31.2467 0.0254264 1.48656e-18)
(28.1278 0.016848 0)
(20.423 0.00750829 0)
(20.5525 0.00373957 0)
(28.2513 0.0155809 0)
(31.3461 0.0278755 -1.48625e-18)
(31.3301 0.0263895 1.48636e-18)
(28.2363 0.0174108 0)
(20.5516 0.00771953 0)
(20.6829 0.00394748 0)
(28.361 0.0160556 0)
(31.4304 0.0286676 -1.48603e-18)
(31.4158 0.0268351 1.48615e-18)
(28.3476 0.0176997 0)
(20.684 0.00782622 0)
(20.8168 0.00419609 0)
(28.4733 0.0166452 0)
(31.5165 0.0295209 -1.48582e-18)
(31.5042 0.0278461 1.48593e-18)
(28.4623 0.0182865 0)
(20.8208 0.00803952 0)
(20.9555 0.00440743 0)
(28.5894 0.017144 0)
(31.6059 0.0303644 -1.48559e-18)
(31.5952 0.0283931 1.4857e-18)
(28.5801 0.0186217 0)
(20.9616 0.00815498 0)
(21.0982 0.0046736 0)
(28.7084 0.0177967 0)
(31.6974 0.0313448 -1.48536e-18)
(31.6894 0.0294699 1.48546e-18)
(28.7016 0.0192389 0)
(21.1074 0.00837405 0)
(21.2458 0.00489832 0)
(28.8314 0.0183392 0)
(31.7927 0.0322694 -1.48511e-18)
(31.7865 0.0301686 1.48522e-18)
(28.8268 0.0196511 0)
(21.2574 0.00851078 0)
(21.398 0.00519314 0)
(28.9582 0.0190953 0)
(31.8909 0.0334495 -1.48486e-18)
(31.8878 0.0314304 1.48497e-18)
(28.9566 0.0203578 0)
(21.413 0.00874439 0)
(21.5559 0.00543418 0)
(29.0901 0.0197479 0)
(31.9938 0.0346071 -1.4846e-18)
(31.9933 0.0324252 1.48471e-18)
(29.0913 0.0209094 0)
(21.5739 0.00890362 0)
(21.7194 0.0057662 0)
(29.227 0.0206779 0)
(32.1008 0.0361328 -1.48434e-18)
(32.104 0.0339932 1.48444e-18)
(29.232 0.021769 0)
(21.7416 0.00916934 0)
(21.8898 0.00605727 0)
(29.3703 0.0215192 0)
(32.2137 0.0376512 -1.48406e-18)
(32.2203 0.0353743 1.48416e-18)
(29.3789 0.0225159 0)
(21.9156 0.00937743 0)
(22.067 0.00643187 0)
(29.5202 0.0226423 0)
(32.3322 0.0395484 -1.48377e-18)
(32.3434 0.0372928 1.48387e-18)
(29.5335 0.0235498 0)
(22.0976 0.009665 0)
(22.2524 0.00674863 0)
(29.6784 0.0237018 0)
(32.4582 0.0414992 -1.48347e-18)
(32.4738 0.03919 1.48357e-18)
(29.6965 0.0245489 0)
(22.2875 0.00989643 0)
(22.4462 0.00715531 0)
(29.8457 0.0251268 0)
(32.5919 0.0439911 -1.48317e-18)
(32.6132 0.0416732 1.48325e-18)
(29.8698 0.0258723 0)
(22.4871 0.0102035 0)
(22.6501 0.00753893 0)
(30.024 0.0266021 0)
(32.7354 0.0466831 -1.48285e-18)
(32.7628 0.04454 1.48292e-18)
(30.055 0.0274258 0)
(22.6975 0.0105518 0)
(22.8664 0.00813944 0)
(30.2159 0.0287698 0)
(32.8901 0.0504098 -1.48252e-18)
(32.9255 0.0483587 1.48258e-18)
(30.2559 0.0295765 0)
(22.9229 0.0110827 0)
(23.0992 0.00886317 0)
(30.4252 0.0313434 0)
(33.0591 0.0548067 -1.48217e-18)
(33.1036 0.0532998 1.48222e-18)
(30.4761 0.0324793 0)
(23.1678 0.011884 0)
(23.3553 0.0101043 0)
(30.6568 0.0352206 0)
(33.2453 0.0610632 -1.48183e-18)
(33.3012 0.0600223 1.48184e-18)
(30.7217 0.0366518 0)
(23.4414 0.0132774 0)
(23.644 0.0121077 0)
(30.9164 0.0404411 0)
(33.4523 0.0691505 -1.48146e-18)
(33.5216 0.0696691 1.48144e-18)
(30.9989 0.0427537 0)
(23.7558 0.0156718 0)
(23.9818 0.0155184 0)
(31.2122 0.0482088 0)
(33.6844 0.0815 -1.48108e-18)
(33.7705 0.0848447 1.48097e-18)
(31.3172 0.0521539 0)
(24.1318 0.020572 0)
(24.393 0.0220326 0)
(31.5555 0.0590869 0)
(33.9494 0.100375 -1.48064e-18)
(34.0698 0.106193 1.48041e-18)
(31.7043 0.0633096 0)
(24.6204 0.0306258 0)
(24.9902 0.0395634 0)
(32.0094 0.0779444 0)
(34.2983 0.137976 0)
(34.4311 0.199204 7.42975e-19)
(32.1861 0.144377 -8.96238e-19)
(25.3182 0.107462 -1.08134e-18)
(25.6489 0.188241 0)
(32.4427 0.248082 0)
(34.6192 0.301935 -2.97124e-18)
(34.7212 0.374296 0)
(32.5675 0.315069 0)
(25.9096 0.252654 0)
(26.2852 0.31849 0)
(32.8471 0.407073 0)
(34.8963 0.485755 0)
(34.9697 0.614631 -4.60473e-18)
(32.941 0.556575 3.54908e-18)
(26.4615 0.464556 0)
(26.7118 0.567833 0)
(33.1104 0.697006 0)
(35.0618 0.761425 1.83351e-19)
(35.0603 0.866684 -5.81253e-18)
(33.1206 0.813308 7.02452e-18)
(26.8204 0.675052 0)
(27.0495 0.735889 1.67675e-17)
(33.2609 0.896933 -6.98794e-18)
(35.1211 0.965321 -5.76866e-18)
(35.1307 1.05049 5.74386e-18)
(33.3198 0.981718 0)
(27.2231 0.813998 -8.34928e-18)
(27.4284 0.900654 0)
(33.4264 1.08207 0)
(35.1823 1.14796 1.13579e-17)
(35.1997 1.20477 -1.75107e-19)
(33.4851 1.12469 1.35783e-17)
(27.6459 0.949867 -1.64927e-17)
(27.9362 1.05699 -1.62969e-17)
(33.6091 1.24313 0)
(35.2563 1.3181 1.74504e-19)
(35.2407 1.42661 0)
(33.6526 1.36418 -1.31947e-17)
(28.1126 1.16184 1.60149e-17)
(28.2833 1.22471 -1.23699e-19)
(33.7181 1.44339 1.30327e-17)
(35.24 1.51129 -1.09135e-17)
(35.2131 1.56917 1.07325e-17)
(33.7233 1.5032 1.30533e-17)
(28.4373 1.28683 -1.55519e-17)
(28.6933 1.32857 -1.55014e-17)
(33.8242 1.54366 -9.96649e-20)
(35.2344 1.62707 0)
(35.2169 1.71398 2.10153e-17)
(33.8515 1.64876 -2.52184e-17)
(28.9066 1.43915 1.53415e-17)
(29.1237 1.51355 -1.51218e-17)
(33.9013 1.72536 -1.94513e-19)
(35.2036 1.79438 -1.03498e-17)
(35.1563 1.87497 0)
(33.9002 1.80972 1.2526e-17)
(29.3115 1.60025 -1.49181e-17)
(29.4806 1.69166 0)
(33.9027 1.9054 -1.90934e-19)
(35.1022 1.95931 -1.00541e-17)
(35.0354 2.00178 1.00227e-17)
(33.9037 1.93138 -1.27328e-17)
(29.6674 1.72731 -1.46596e-17)
(29.8839 1.85188 -1.49591e-17)
(33.8913 2.05378 2.48204e-17)
(34.9737 2.09246 -2.04664e-17)
(34.8712 2.16653 6.24497e-19)
(33.8384 2.14166 -1.05857e-17)
(30.0452 1.94164 1.6063e-17)
(30.2414 2.0019 1.52778e-17)
(33.8009 2.17342 -1.47682e-18)
(34.7901 2.22157 0)
(34.6649 2.2902 -9.38587e-18)
(33.7414 2.19188 2.91247e-18)
(30.4633 2.061 -1.80543e-18)
(30.6506 2.13867 0)
(33.6789 2.29677 -2.48686e-18)
(34.5009 2.39092 0)
(34.2577 2.36802 0)
(33.541 2.3129 1.99799e-18)
(30.8428 2.11825 2.31408e-18)
(28.2421 2.09771 -5.86045e-18)
(32.3384 2.27966 -2.65676e-18)
(33.6596 2.2549 -1.95227e-17)
(33.9561 2.54612 0)
(32.9243 2.51567 0)
(29.208 2.27749 2.38213e-18)
(29.4652 2.36947 -1.67595e-17)
(32.9367 2.60363 1.46931e-17)
(33.8565 2.64552 -9.93478e-18)
(33.6917 2.74094 9.45435e-18)
(32.8896 2.72361 -2.74558e-17)
(29.7823 2.51429 3.20981e-17)
(30.0176 2.63996 -6.04594e-17)
(32.7677 2.79919 5.0294e-17)
(33.5245 2.79972 -4.31743e-17)
(33.3551 2.79868 -1.13784e-18)
(32.7188 2.861 5.30113e-19)
(30.3722 2.81593 -3.01342e-17)
(31.1101 2.98465 -3.73869e-17)
(32.6101 2.86189 1.35799e-17)
(33.2917 2.84756 1.65386e-17)
(33.1076 3.09652 -4.54241e-18)
(32.7296 3.20203 0)
(31.0486 3.29198 -1.82323e-18)
(30.6367 3.44077 6.48416e-18)
(32.3796 3.25168 -3.09653e-18)
(32.7143 3.16421 1.44115e-18)
(32.2937 3.22429 -5.38535e-18)
(32.0585 3.31103 1.43679e-17)
(30.4022 3.56378 -1.79314e-17)
(30.0804 3.68212 2.27733e-17)
(31.6751 3.37727 1.06072e-17)
(31.8209 3.30683 0)
(31.3301 3.31929 -7.61223e-18)
(31.1956 3.43537 -1.40501e-17)
(29.6653 3.79715 -2.53939e-17)
(29.0969 3.85578 0)
(30.7593 3.41723 8.67349e-18)
(30.948 3.46112 -1.35226e-21)
(30.555 3.45362 6.95828e-18)
(30.3329 3.47805 -9.13374e-18)
(28.6658 4.07093 -1.33589e-17)
(28.1884 4.23668 1.24215e-17)
(29.823 3.54959 2.49184e-18)
(29.9974 3.50999 1.09261e-17)
(29.3293 3.57663 1.49052e-18)
(29.1276 3.62789 -1.32207e-17)
(27.5972 4.44818 1.2077e-17)
(26.9247 4.65094 3.58681e-17)
(28.2674 3.55822 1.28568e-17)
(28.4968 3.4979 -2.71115e-17)
(27.4613 3.50385 1.6166e-18)
(27.2948 3.5851 0)
(26.2038 4.84862 -1.20064e-17)
(25.548 4.96416 1.24699e-20)
(26.2139 3.51105 1.95494e-17)
(26.4233 3.30001 -3.64668e-17)
(25.1723 3.14263 1.96721e-17)
(25.0532 3.43422 6.36249e-18)
(24.8839 5.1748 -4.69952e-17)
(24.1687 5.29593 6.39281e-17)
(24.0064 3.17489 -1.7035e-17)
(24.0132 2.79574 0)
(23.132 2.79649 -2.50532e-17)
(23.0792 3.01185 1.12971e-17)
(23.2664 5.29177 -7.47842e-17)
(22.408 5.25667 0)
(22.0186 2.82718 -1.21118e-17)
(22.1432 2.40857 6.88848e-17)
(20.8957 2.43984 0)
(20.8838 2.83254 2.59436e-17)
(21.5509 5.31089 -1.75599e-17)
(20.6796 5.28197 3.79011e-17)
(19.8836 2.55721 3.30453e-17)
(19.8087 1.99391 3.20406e-17)
(18.8719 1.97749 -1.382e-17)
(18.8731 2.3835 2.23525e-17)
(19.6374 5.18586 -8.96559e-17)
(18.588 5.09237 1.17899e-17)
(17.7082 2.15762 -1.30132e-21)
(17.7529 1.68379 -2.05789e-17)
(16.576 0.802907 -6.77917e-21)
(16.3819 1.5243 9.99838e-18)
(17.4388 4.8313 1.17389e-17)
(16.028 4.42236 0)
(14.8738 0.737624 -9.85498e-18)
(15.0631 -0.2911 -3.71917e-17)
(13.4715 -1.49106 6.19411e-17)
(13.2856 -0.273642 -1.20465e-17)
(14.3636 3.64666 1.22429e-17)
(12.3703 2.44323 0)
(11.617 -1.32253 -1.39684e-17)
(12.1713 -2.37626 8.25265e-18)
(10.7843 -4.10329 5.48598e-18)
(9.73803 -2.9451 0)
(10.1215 0.666452 1.26583e-17)
(7.73455 -1.504 -1.20837e-17)
(7.76674 -5.34487 2.18456e-17)
(9.06193 -7.11561 1.60256e-17)
(6.70566 -11.0153 -2.68464e-17)
(5.33236 -9.13771 0)
(4.13068 -5.46748 3.70697e-17)
(0.365945 -10.0432 -7.51241e-17)
(3.15504 -13.027 -1.49098e-17)
(5.30352 -14.238 1.68743e-17)
(5.21743 -19.9358 4.33449e-17)
(2.08443 -18.9145 -8.58805e-17)
(-3.41259 -16.7964 3.40158e-17)
(-6.43576 -25.829 0)
(1.1723 -26.5825 2.80042e-17)
(4.32315 -26.7826 0)
(6.14207 -33.1836 -4.77307e-20)
(2.14256 -34.1415 -5.7725e-17)
(-8.73556 -36.7838 0)
(-7.05132 -49.9326 4.24075e-17)
(7.36481 -43.8408 0)
(10.8792 -41.8826 0)
(16.0697 -49.7348 6.26132e-18)
(13.2979 -52.5545 -7.94168e-18)
(-3.19377 -64.6463 -5.80156e-17)
(5.20687 -77.0802 3.35041e-17)
(24.3342 -59.3697 -2.34047e-17)
(23.6768 -56.6253 -2.46905e-17)
(35.246 -62.0587 -1.71793e-17)
(35.2029 -67.3018 -1.94807e-17)
(18.2084 -84.9034 -2.90389e-17)
(32.5285 -82.1967 3.22102e-17)
(47.3954 -64.8035 6.76486e-17)
(43.9343 -63.6211 -2.31754e-17)
(53.8741 -60.3535 1.14421e-16)
(55.9393 -58.9859 -1.04054e-16)
(41.0464 -70.7559 5.14495e-17)
(44.8675 -56.668 0)
(60.7466 -50.7321 0)
(59.0131 -54.8919 -9.08297e-17)
(61.2073 -49.7774 3.16781e-17)
(61.1311 -43.8713 0)
(43.5271 -43.3901 1.77047e-17)
(41.0529 -32.7354 -3.41932e-17)
(60.2145 -38.7238 0)
(62.9281 -46.1378 2.63763e-17)
(62.9086 -40.9034 -2.62068e-17)
(58.5629 -34.6022 1.19633e-17)
(38.9505 -25.9673 -3.3325e-17)
(37.3649 -21.5411 0)
(56.3216 -31.4031 1.18655e-20)
(61.9866 -37.1873 1.54791e-17)
(62.7378 -35.2675 -2.45073e-17)
(55.2536 -29.0723 3.70559e-17)
(35.9663 -17.7558 -3.22104e-17)
(34.8407 -14.9875 0)
(53.9295 -26.5508 1.02893e-17)
(62.1988 -31.8201 -3.04216e-17)
(60.7207 -28.7412 0)
(51.9357 -24.5235 -1.13983e-17)
(33.5493 -13.0839 -9.4763e-17)
(31.9754 -11.4994 1.13414e-16)
(49.6752 -22.9551 -2.64557e-17)
(59.0251 -26.3847 0)
(59.9284 -25.8523 0)
(50.2388 -22.1442 0)
(30.8897 -10.145 5.02626e-20)
(30.2982 -9.32768 -5.63485e-17)
(49.2895 -20.6923 0)
(59.4867 -24.0054 -2.80059e-17)
(58.1694 -22.1553 0)
(47.8505 -19.5445 0)
(29.5451 -8.68135 -5.76616e-17)
(28.5724 -7.9638 5.79514e-17)
(46.43 -18.7619 -2.28088e-17)
(56.8916 -20.6258 2.83029e-17)
(58.0686 -20.745 3.28503e-20)
(47.9457 -18.2611 4.00385e-17)
(29.1516 -7.32337 -2.57916e-17)
(30.7905 -7.22588 4.42402e-17)
(48.7119 -17.7987 3.05508e-21)
(57.9187 -19.6889 -6.69045e-17)
(59.6119 -20.5687 9.20148e-17)
(51.3694 -17.9664 -2.28071e-17)
(33.4357 -7.44854 0)
(34.1644 -7.60971 0)
(51.7129 -17.5804 1.6287e-17)
(59.8527 -19.4854 -2.33024e-17)
(59.0051 -18.1578 0)
(50.841 -17.1101 -2.51209e-17)
(33.3851 -7.75837 0)
(32.7071 -7.78455 -1.60509e-17)
(49.5664 -16.5147 6.5106e-17)
(57.9378 -17.0742 -1.11701e-17)
(58.7224 -17.7128 -7.34549e-17)
(50.5773 -15.9149 3.12946e-17)
(33.9033 -7.7189 0)
(33.9172 -7.85291 0)
(50.1217 -15.2631 2.45306e-17)
(58.2921 -16.9335 4.08254e-21)
(56.836 -15.9832 -1.29743e-17)
(48.8703 -14.6753 2.08143e-17)
(33.5658 -8.08625 -2.86613e-17)
(32.9683 -8.06921 6.12305e-17)
(47.5466 -14.2507 -4.21346e-17)
(55.3895 -15.2405 -1.03408e-17)
(55.9333 -15.812 8.02449e-18)
(48.4375 -13.9484 1.47952e-17)
(34.0776 -8.09392 -2.8253e-17)
(34.5007 -8.43748 0)
(48.2218 -13.5913 -1.14351e-17)
(55.6786 -15.5037 2.24183e-17)
(54.6203 -14.9001 -7.15207e-18)
(47.5274 -13.1925 3.11265e-18)
(34.6287 -8.77916 0)
(34.5268 -9.0115 6.07391e-17)
(46.4399 -12.7898 -3.63716e-17)
(53.3085 -14.2838 -1.19108e-17)
(52.0838 -13.7809 -2.17258e-17)