/*--------------------------------*- C++ -*----------------------------------*\
| =========                 |                                                 |
| \\      /  F ield         | OpenFOAM: The Open Source CFD Toolbox           |
|  \\    /   O peration     | Version:  v2006                                 |
|   \\  /    A nd           | Website:  www.openfoam.com                      |
|    \\/     M anipulation  |                                                 |
\*---------------------------------------------------------------------------*/
FoamFile
{
    version     2.0;
    format      ascii;
    class       surfaceScalarField;
    location    "0.026";
    object      phi;
}
// * * * * * * * * * * * * * * * * * * * * * * * * * * * * * * * * * * * * * //

dimensions      [1 0 -1 0 0 0 0];
oriented        oriented;


internalField   nonuniform List<scalar> 
83424
(
-1.77791e-05
-0.000736843
0.000723285
3.11583e-05
-0.000687907
0.000670231
8.06568e-06
4.65598e-05
7.84623e-06
0.000803019
2.71588e-05
0.000887054
-9.12773e-06
0.00092703
1.1191e-06
0.000958456
-5.50739e-06
0.000962997
-7.23084e-07
0.000966298
-5.20108e-07
0.000965074
5.96565e-08
0.000964047
-6.46412e-08
0.000962983
-9.96159e-08
0.000962339
-1.37328e-07
0.000961535
-1.73875e-07
0.000960808
-2.06723e-07
0.000960019
-2.34998e-07
0.00095921
-2.59215e-07
0.000958403
-2.8026e-07
0.000957606
-2.99021e-07
0.000956818
-3.16206e-07
0.000956034
-3.32308e-07
0.000955247
-3.47629e-07
0.000954449
-3.62327e-07
0.000953637
-3.76468e-07
0.000952806
-3.90072e-07
0.000951954
-4.03142e-07
0.000951082
-4.15689e-07
0.000950188
-4.2774e-07
0.000949274
-4.39339e-07
0.000948338
-4.50542e-07
0.000947383
-4.6141e-07
0.000946408
-4.72006e-07
0.000945414
-4.82384e-07
0.0009444
-4.92591e-07
0.000943366
-5.02667e-07
0.000942313
-5.12643e-07
0.00094124
-5.2254e-07
0.000940147
-5.32381e-07
0.000939034
-5.42166e-07
0.000937901
-5.51867e-07
0.000936749
-5.61499e-07
0.000935577
-5.71065e-07
0.000934386
-5.80564e-07
0.000933175
-5.89991e-07
0.000931945
-5.99341e-07
0.000930697
-6.08608e-07
0.000929429
-6.17778e-07
0.000928143
-6.26848e-07
0.000926839
-6.35801e-07
0.000925518
-6.44633e-07
0.000924178
-6.53327e-07
0.000922821
-6.61876e-07
0.000921447
-6.70271e-07
0.000920057
-6.78496e-07
0.00091865
-6.86544e-07
0.000917228
-6.94404e-07
0.00091579
-7.02067e-07
0.000914337
-7.09521e-07
0.000912869
-7.16761e-07
0.000911388
-7.23775e-07
0.000909892
-7.30557e-07
0.000908383
-7.37099e-07
0.000906862
-7.43391e-07
0.000905328
-7.49425e-07
0.000903782
-7.55198e-07
0.000902225
-7.60702e-07
0.000900657
-7.65931e-07
0.000899079
-7.70877e-07
0.000897492
-7.75533e-07
0.000895895
-7.79896e-07
0.000894289
-7.83966e-07
0.000892676
-7.87729e-07
0.000891055
-7.91182e-07
0.000889427
-7.94323e-07
0.000887792
-7.97148e-07
0.000886152
-7.99651e-07
0.000884507
-8.01829e-07
0.000882857
-8.03677e-07
0.000881204
-8.05195e-07
0.000879547
-8.06374e-07
0.000877887
-8.07215e-07
0.000876226
-8.07715e-07
0.000874563
-8.0787e-07
0.000872899
-8.07678e-07
0.000871235
-8.07139e-07
0.000869572
-8.06246e-07
0.00086791
-8.05001e-07
0.00086625
-8.034e-07
0.000864592
-8.01448e-07
0.000862938
-7.99137e-07
0.000861287
-7.96468e-07
0.000859641
-7.93443e-07
0.000858
-7.90063e-07
0.000856364
-7.86324e-07
0.000854736
-7.82228e-07
0.000853114
-7.77779e-07
0.000851501
-7.72981e-07
0.000849896
-7.67829e-07
0.0008483
-7.62324e-07
0.000846714
-7.56478e-07
0.000845138
-7.5029e-07
0.000843574
-7.43763e-07
0.000842021
-7.36905e-07
0.000840481
-7.29716e-07
0.000838954
-7.22201e-07
0.000837441
-7.1437e-07
0.000835942
-7.06229e-07
0.000834458
-6.97779e-07
0.00083299
-6.89029e-07
0.000831538
-6.79984e-07
0.000830103
-6.70648e-07
0.000828686
-6.61033e-07
0.000827286
-6.5114e-07
0.000825905
-6.40969e-07
0.000824543
-6.30527e-07
0.0008232
-6.19811e-07
0.000821878
-6.08816e-07
0.000820576
-5.97531e-07
0.000819295
-5.85932e-07
0.000818035
-5.73991e-07
0.000816797
-5.61658e-07
0.000815581
-5.48881e-07
0.000814387
-5.35592e-07
0.000813215
-5.21732e-07
0.000812067
-5.07254e-07
0.000810943
-4.92142e-07
0.000809845
-4.76422e-07
0.000808774
-4.60147e-07
0.00080773
-4.43367e-07
0.000806714
-4.26109e-07
0.000805723
-4.08254e-07
0.000804754
-3.89236e-07
0.000803798
-3.67835e-07
0.000802842
-3.42485e-07
0.000801874
-3.11152e-07
0.000800881
-2.71883e-07
0.000799865
-2.24601e-07
0.000798851
-1.73444e-07
0.00079791
-1.27239e-07
0.000797153
-9.47865e-08
0.000796689
-7.81597e-08
0.000796547
-7.33247e-08
0.00079585
-7.2821e-08
0.000794461
-8.69996e-07
0.0007923
-2.46482e-06
0.000786949
-1.2037e-05
0.000775211
-1.76257e-05
0.000759469
-5.11497e-05
0.000735712
-8.38862e-05
0.00071906
-0.000194009
0.000719809
-0.000436321
0.000831869
-0.00012435
0.000204615
5.48646e-06
0.000348038
-9.7269e-06
0.000443872
-2.72572e-05
0.000384866
-1.23591e-05
0.000329112
-6.99531e-06
0.000117421
-4.02423e-06
9.80192e-05
7.88163e-05
5.56174e-06
7.32546e-05
1.21115e-05
9.14695e-05
0.000110401
1.91314e-05
-9.11951e-06
0.000105629
1.38914e-05
-4.9468e-06
8.72968e-05
6.83078e-05
2.00656e-06
6.63013e-05
3.05014e-06
8.62532e-05
0.000104843
3.83662e-06
-3.73469e-06
0.000103172
5.40573e-06
-1.83899e-06
8.43576e-05
6.44623e-05
1.01103e-06
6.34513e-05
5.58948e-07
8.48097e-05
0.000103101
6.3039e-07
-3.51822e-06
0.000102157
4.46179e-06
-1.61704e-06
8.29086e-05
6.18343e-05
7.0823e-08
6.17636e-05
3.64173e-07
8.26153e-05
0.000102845
-3.23582e-07
-1.78278e-06
0.000101098
3.52973e-06
-1.4159e-06
8.22484e-05
6.03477e-05
6.24444e-07
5.97233e-05
1.55838e-07
8.27171e-05
0.000101733
-4.78865e-07
-2.41369e-06
0.000101539
2.60772e-06
-5.87018e-07
8.08905e-05
5.91363e-05
5.04773e-07
5.86316e-05
-7.27489e-07
8.21228e-05
0.000101381
-5.69464e-07
-2.30543e-06
0.000101172
2.51453e-06
-4.9559e-07
8.0313e-05
5.8136e-05
4.36873e-07
5.76992e-05
-7.97481e-07
8.15474e-05
0.000101007
-6.32447e-07
-2.23983e-06
0.000100792
2.45515e-06
-4.49793e-07
7.97574e-05
5.72495e-05
3.97186e-07
5.68523e-05
-8.37277e-07
8.09919e-05
0.000100626
-6.71796e-07
-2.18587e-06
0.000100405
2.40697e-06
-4.13892e-07
7.922e-05
5.64385e-05
3.64407e-07
5.60741e-05
-8.69667e-07
8.04542e-05
0.000100241
-7.05458e-07
-2.13854e-06
0.000100016
2.36401e-06
-3.83444e-07
7.86991e-05
5.56907e-05
3.38078e-07
5.53527e-05
-8.96744e-07
7.9934e-05
9.98535e-05
-7.34514e-07
-2.09836e-06
9.96257e-05
2.32622e-06
-3.58236e-07
7.81939e-05
5.49945e-05
3.14917e-07
5.46796e-05
-9.19149e-07
7.94281e-05
9.94657e-05
-7.59032e-07
-2.0626e-06
9.92356e-05
2.29274e-06
-3.37583e-07
7.77031e-05
5.43421e-05
2.94624e-07
5.40475e-05
-9.38459e-07
7.89363e-05
9.90773e-05
-7.80094e-07
-2.03314e-06
9.88463e-05
2.26428e-06
-3.20411e-07
7.72236e-05
5.37272e-05
2.76576e-07
5.34507e-05
-9.54272e-07
7.84545e-05
9.86901e-05
-7.9798e-07
-2.00703e-06
9.84584e-05
2.23875e-06
-3.07925e-07
7.67555e-05
5.31428e-05
2.61548e-07
5.28813e-05
-9.67241e-07
7.79844e-05
9.83049e-05
-8.13659e-07
-1.98155e-06
9.80723e-05
2.21431e-06
-2.9514e-07
7.6298e-05
5.25862e-05
2.47849e-07
5.23384e-05
-9.78617e-07
7.75246e-05
9.79212e-05
-8.275e-07
-1.95805e-06
9.76876e-05
2.19182e-06
-2.83795e-07
7.58504e-05
5.20547e-05
2.34622e-07
5.18202e-05
-9.89091e-07
7.70742e-05
9.75388e-05
-8.40238e-07
-1.93543e-06
9.73042e-05
2.17017e-06
-2.72686e-07
7.54115e-05
5.15475e-05
2.23824e-07
5.13238e-05
-9.98158e-07
7.66336e-05
9.71579e-05
-8.51783e-07
-1.91397e-06
9.69222e-05
2.1497e-06
-2.62777e-07
7.49825e-05
5.10611e-05
2.1447e-07
5.08467e-05
-1.00483e-06
7.62018e-05
9.67792e-05
-8.61665e-07
-1.89417e-06
9.65428e-05
2.1306e-06
-2.54329e-07
7.45621e-05
5.05924e-05
2.056e-07
5.03869e-05
-1.00971e-06
7.57774e-05
9.64026e-05
-8.69417e-07
-1.87632e-06
9.61658e-05
2.11322e-06
-2.46945e-07
7.41481e-05
5.014e-05
1.97319e-07
4.99427e-05
-1.01409e-06
7.53596e-05
9.60267e-05
-8.74924e-07
-1.85991e-06
9.57888e-05
2.09783e-06
-2.40401e-07
7.37401e-05
4.97023e-05
1.89452e-07
4.95129e-05
-1.01819e-06
7.49478e-05
9.56513e-05
-8.80616e-07
-1.8441e-06
9.54125e-05
2.08299e-06
-2.34261e-07
7.3338e-05
4.92787e-05
1.82317e-07
4.90964e-05
-1.02127e-06
7.45416e-05
9.52763e-05
-8.85048e-07
-1.82931e-06
9.50363e-05
2.06928e-06
-2.28751e-07
7.29411e-05
4.88676e-05
1.7579e-07
4.86919e-05
-1.02357e-06
7.41405e-05
9.49013e-05
-8.88543e-07
-1.81539e-06
9.46603e-05
2.05647e-06
-2.23804e-07
7.25489e-05
4.84681e-05
1.69868e-07
4.82982e-05
-1.02504e-06
7.37438e-05
9.45263e-05
-8.91069e-07
-1.80236e-06
9.42841e-05
2.04459e-06
-2.19502e-07
7.2161e-05
4.80787e-05
1.6436e-07
4.79144e-05
-1.02585e-06
7.33512e-05
9.4151e-05
-8.92758e-07
-1.79022e-06
9.39077e-05
2.03357e-06
-2.15957e-07
7.17769e-05
4.76984e-05
1.59053e-07
4.75394e-05
-1.02613e-06
7.29621e-05
9.37752e-05
-8.9366e-07
-1.77884e-06
9.35306e-05
2.02349e-06
-2.12854e-07
7.13961e-05
4.73265e-05
1.54204e-07
4.71723e-05
-1.02575e-06
7.25761e-05
9.33986e-05
-8.93784e-07
-1.76809e-06
9.31526e-05
2.01407e-06
-2.10146e-07
7.10181e-05
4.69622e-05
1.49791e-07
4.68124e-05
-1.02473e-06
7.21927e-05
9.30209e-05
-8.93097e-07
-1.75788e-06
9.27736e-05
2.00522e-06
-2.07789e-07
7.06426e-05
4.66046e-05
1.4572e-07
4.64589e-05
-1.02324e-06
7.18115e-05
9.26422e-05
-8.91829e-07
-1.74817e-06
9.23934e-05
1.99694e-06
-2.05734e-07
7.02691e-05
4.62531e-05
1.42022e-07
4.61111e-05
-1.02118e-06
7.14323e-05
9.2262e-05
-8.89826e-07
-1.73903e-06
9.20117e-05
1.98935e-06
-2.04006e-07
6.98973e-05
4.59071e-05
1.38667e-07
4.57684e-05
-1.01858e-06
7.10545e-05
9.18802e-05
-8.87082e-07
-1.73042e-06
9.16281e-05
1.98243e-06
-2.02588e-07
6.95266e-05
4.55658e-05
1.35637e-07
4.54301e-05
-1.01542e-06
7.06777e-05
9.14963e-05
-8.83578e-07
-1.72234e-06
9.12424e-05
1.97619e-06
-2.01473e-07
6.91568e-05
4.52287e-05
1.32929e-07
4.50957e-05
-1.0117e-06
7.03014e-05
9.111e-05
-8.7929e-07
-1.7148e-06
9.08541e-05
1.97065e-06
-2.00664e-07
6.87872e-05
4.4895e-05
1.30548e-07
4.47644e-05
-1.00738e-06
6.99251e-05
9.07208e-05
-8.74162e-07
-1.70806e-06
9.04629e-05
1.96595e-06
-2.00035e-07
6.84171e-05
4.45644e-05
1.28553e-07
4.44358e-05
-1.00286e-06
6.95485e-05
9.03285e-05
-8.68531e-07
-1.7018e-06
9.00686e-05
1.96174e-06
-1.99599e-07
6.80462e-05
4.42362e-05
1.26868e-07
4.41093e-05
-9.97942e-07
6.9171e-05
8.99328e-05
-8.6223e-07
-1.69598e-06
8.96706e-05
1.95812e-06
-1.99425e-07
6.76744e-05
4.39098e-05
1.25445e-07
4.37843e-05
-9.92522e-07
6.87923e-05
8.95332e-05
-8.55235e-07
-1.69059e-06
8.92687e-05
1.95507e-06
-1.99502e-07
6.73011e-05
4.35847e-05
1.2427e-07
4.34604e-05
-9.86627e-07
6.8412e-05
8.91296e-05
-8.4758e-07
-1.68557e-06
8.88625e-05
1.95252e-06
-1.99809e-07
6.69262e-05
4.32605e-05
1.23324e-07
4.31372e-05
-9.80283e-07
6.80297e-05
8.87215e-05
-8.39297e-07
-1.6809e-06
8.84518e-05
1.95046e-06
-2.00331e-07
6.6549e-05
4.29368e-05
1.22588e-07
4.28141e-05
-9.73506e-07
6.7645e-05
8.83086e-05
-8.30412e-07
-1.67656e-06
8.80363e-05
1.94884e-06
-2.01055e-07
6.61695e-05
4.2613e-05
1.22047e-07
4.24908e-05
-9.66316e-07
6.72577e-05
8.78908e-05
-8.20946e-07
-1.67251e-06
8.76155e-05
1.94764e-06
-2.01966e-07
6.57871e-05
4.22888e-05
1.21687e-07
4.2167e-05
-9.58728e-07
6.68674e-05
8.74676e-05
-8.10914e-07
-1.66874e-06
8.71894e-05
1.94684e-06
-2.03052e-07
6.54016e-05
4.19638e-05
1.21495e-07
4.18423e-05
-9.5075e-07
6.64737e-05
8.70388e-05
-8.00322e-07
-1.66523e-06
8.67575e-05
1.94644e-06
-2.04307e-07
6.50127e-05
4.16378e-05
1.21469e-07
4.15163e-05
-9.42383e-07
6.60764e-05
8.66041e-05
-7.89149e-07
-1.66171e-06
8.63189e-05
1.94671e-06
-2.05589e-07
6.46202e-05
4.13106e-05
1.21724e-07
4.11887e-05
-9.33358e-07
6.56751e-05
8.61631e-05
-7.77677e-07
-1.65831e-06
8.58739e-05
1.94737e-06
-2.06971e-07
6.42236e-05
4.09817e-05
1.22159e-07
4.08594e-05
-9.23881e-07
6.52695e-05
8.57156e-05
-7.65763e-07
-1.65511e-06
8.54221e-05
1.94838e-06
-2.08495e-07
6.38228e-05
4.06508e-05
1.22737e-07
4.05279e-05
-9.14023e-07
6.48594e-05
8.52612e-05
-7.533e-07
-1.65214e-06
8.49634e-05
1.94978e-06
-2.10166e-07
6.34173e-05
4.03176e-05
1.2349e-07
4.0194e-05
-9.03713e-07
6.44443e-05
8.47997e-05
-7.4022e-07
-1.64953e-06
8.44975e-05
1.95161e-06
-2.12253e-07
6.30069e-05
3.99816e-05
1.24683e-07
3.98568e-05
-8.92783e-07
6.40242e-05
8.43309e-05
-7.26449e-07
-1.6473e-06
8.40241e-05
1.95389e-06
-2.14697e-07
6.25914e-05
3.9642e-05
1.26164e-07
3.95157e-05
-8.81363e-07
6.35988e-05
8.38546e-05
-7.12078e-07
-1.64524e-06
8.35431e-05
1.95653e-06
-2.172e-07
6.21706e-05
3.92983e-05
1.27648e-07
3.91705e-05
-8.69644e-07
6.31677e-05
8.33705e-05
-6.97207e-07
-1.64325e-06
8.30541e-05
1.95945e-06
-2.19697e-07
6.17439e-05
3.89507e-05
1.29129e-07
3.88214e-05
-8.5764e-07
6.27305e-05
8.28781e-05
-6.81852e-07
-1.64132e-06
8.25566e-05
1.96262e-06
-2.22195e-07
6.13112e-05
3.85991e-05
1.30619e-07
3.84683e-05
-8.45347e-07
6.2287e-05
8.2377e-05
-6.66019e-07
-1.63945e-06
8.20502e-05
1.96602e-06
-2.24709e-07
6.08721e-05
3.82434e-05
1.32138e-07
3.81111e-05
-8.32752e-07
6.18368e-05
8.18669e-05
-6.49705e-07
-1.63763e-06
8.15347e-05
1.96966e-06
-2.27262e-07
6.04262e-05
3.78837e-05
1.33704e-07
3.77498e-05
-8.19842e-07
6.13795e-05
8.13475e-05
-6.32905e-07
-1.63587e-06
8.10096e-05
1.97352e-06
-2.29872e-07
5.99733e-05
3.75198e-05
1.35334e-07
3.73843e-05
-8.06601e-07
6.09151e-05
8.08183e-05
-6.15611e-07
-1.63418e-06
8.04747e-05
1.97761e-06
-2.32551e-07
5.95132e-05
3.71516e-05
1.37029e-07
3.70144e-05
-7.93022e-07
6.04431e-05
8.02792e-05
-5.97815e-07
-1.63255e-06
7.99296e-05
1.98193e-06
-2.35301e-07
5.90456e-05
3.67789e-05
1.38807e-07
3.66399e-05
-7.79087e-07
5.99633e-05
7.97297e-05
-5.79504e-07
-1.631e-06
7.9374e-05
1.98648e-06
-2.38145e-07
5.85702e-05
3.64015e-05
1.40678e-07
3.62607e-05
-7.64796e-07
5.94754e-05
7.91696e-05
-5.60692e-07
-1.62938e-06
7.88077e-05
1.99101e-06
-2.41017e-07
5.80868e-05
3.60195e-05
1.42689e-07
3.58766e-05
-7.50055e-07
5.89793e-05
7.85985e-05
-5.41201e-07
-1.62757e-06
7.82305e-05
1.99529e-06
-2.43852e-07
5.75954e-05
3.56325e-05
1.44887e-07
3.54874e-05
-7.34738e-07
5.84748e-05
7.80163e-05
-5.20814e-07
-1.62586e-06
7.7642e-05
1.99985e-06
-2.46817e-07
5.70955e-05
3.52404e-05
1.47148e-07
3.50931e-05
-7.19107e-07
5.79615e-05
7.74226e-05
-4.99995e-07
-1.62414e-06
7.70419e-05
2.0045e-06
-2.4984e-07
5.65869e-05
3.4843e-05
1.49476e-07
3.46933e-05
-7.03147e-07
5.74393e-05
7.68172e-05
-4.78726e-07
-1.62241e-06
7.643e-05
2.00926e-06
-2.52926e-07
5.60695e-05
3.44402e-05
1.5189e-07
3.42881e-05
-6.86815e-07
5.6908e-05
7.61999e-05
-4.56938e-07
-1.62068e-06
7.58061e-05
2.01414e-06
-2.56087e-07
5.55431e-05
3.40318e-05
1.54347e-07
3.38772e-05
-6.70204e-07
5.63674e-05
7.55703e-05
-4.34784e-07
-1.61886e-06
7.51699e-05
2.019e-06
-2.59277e-07
5.50076e-05
3.36177e-05
1.5683e-07
3.34607e-05
-6.53347e-07
5.58175e-05
7.49285e-05
-4.12317e-07
-1.61692e-06
7.45213e-05
2.02381e-06
-2.62488e-07
5.44628e-05
3.3198e-05
1.59321e-07
3.30384e-05
-6.36284e-07
5.52581e-05
7.42743e-05
-3.89605e-07
-1.61481e-06
7.38603e-05
2.02847e-06
-2.65697e-07
5.39087e-05
3.27725e-05
1.61797e-07
3.26105e-05
-6.19064e-07
5.46893e-05
7.36076e-05
-3.66722e-07
-1.61248e-06
7.31868e-05
2.03293e-06
-2.68882e-07
5.33454e-05
3.23414e-05
1.64237e-07
3.21769e-05
-6.01737e-07
5.41111e-05
7.29285e-05
-3.43749e-07
-1.60988e-06
7.25009e-05
2.03708e-06
-2.72019e-07
5.2773e-05
3.19046e-05
1.66616e-07
3.17378e-05
-5.84358e-07
5.35237e-05
7.2237e-05
-3.20774e-07
-1.60696e-06
7.18028e-05
2.04085e-06
-2.75083e-07
5.21915e-05
3.14625e-05
1.68906e-07
3.12933e-05
-5.66992e-07
5.29271e-05
7.15333e-05
-2.97901e-07
-1.60365e-06
7.10925e-05
2.04413e-06
-2.78042e-07
5.16012e-05
3.1015e-05
1.71075e-07
3.08437e-05
-5.49716e-07
5.23217e-05
7.08177e-05
-2.75247e-07
-1.59988e-06
7.03704e-05
2.0468e-06
-2.80862e-07
5.10024e-05
3.05626e-05
1.7308e-07
3.03893e-05
-5.32626e-07
5.17078e-05
7.00904e-05
-2.52957e-07
-1.59555e-06
6.96369e-05
2.0487e-06
-2.83492e-07
5.03954e-05
3.01055e-05
1.74881e-07
2.99304e-05
-5.15824e-07
5.10858e-05
6.93519e-05
-2.31193e-07
-1.59057e-06
6.88924e-05
2.04969e-06
-2.85896e-07
4.97809e-05
2.96443e-05
1.76441e-07
2.94676e-05
-4.99419e-07
5.04564e-05
6.86027e-05
-2.10133e-07
-1.58484e-06
6.81376e-05
2.04958e-06
-2.88031e-07
4.91593e-05
2.91793e-05
1.77705e-07
2.90013e-05
-4.83543e-07
4.98202e-05
6.78437e-05
-1.89982e-07
-1.57825e-06
6.73734e-05
2.04816e-06
-2.89831e-07
4.85315e-05
2.87112e-05
1.7861e-07
2.85323e-05
-4.68351e-07
4.91781e-05
6.70756e-05
-1.70977e-07
-1.57065e-06
6.66007e-05
2.04521e-06
-2.91229e-07
4.78984e-05
2.82408e-05
1.79088e-07
2.80615e-05
-4.54016e-07
4.85312e-05
6.62996e-05
-1.53383e-07
-1.56188e-06
6.58207e-05
2.04046e-06
-2.92146e-07
4.72611e-05
2.77691e-05
1.79067e-07
2.75897e-05
-4.40727e-07
4.78806e-05
6.5517e-05
-1.37488e-07
-1.5518e-06
6.50348e-05
2.03363e-06
-2.92503e-07
4.6621e-05
2.72969e-05
1.78472e-07
2.71182e-05
-4.28683e-07
4.72278e-05
6.47293e-05
-1.23604e-07
-1.54022e-06
6.42447e-05
2.02441e-06
-2.92215e-07
4.59794e-05
2.68257e-05
1.77223e-07
2.66482e-05
-4.18104e-07
4.65744e-05
6.39383e-05
-1.12068e-07
-1.52697e-06
6.34524e-05
2.01248e-06
-2.91191e-07
4.53383e-05
2.63567e-05
1.75238e-07
2.61812e-05
-4.09223e-07
4.59224e-05
6.3146e-05
-1.03243e-07
-1.51186e-06
6.26599e-05
1.99748e-06
-2.89334e-07
4.46996e-05
2.58916e-05
1.72427e-07
2.57189e-05
-4.02294e-07
4.52739e-05
6.23547e-05
-9.75165e-08
-1.49467e-06
6.18699e-05
1.97905e-06
-2.8654e-07
4.40654e-05
2.5432e-05
1.68711e-07
2.5263e-05
-3.97556e-07
4.46313e-05
6.15672e-05
-9.52725e-08
-1.47527e-06
6.10852e-05
1.95685e-06
-2.82736e-07
4.34385e-05
2.498e-05
1.64014e-07
2.48156e-05
-3.95264e-07
4.39974e-05
6.07864e-05
-9.69243e-08
-1.45344e-06
6.0309e-05
1.93049e-06
-2.7781e-07
4.28214e-05
2.45375e-05
1.58232e-07
2.4379e-05
-3.95726e-07
4.3375e-05
6.00157e-05
-1.02935e-07
-1.42896e-06
5.95447e-05
1.89957e-06
-2.71648e-07
4.22173e-05
2.4107e-05
1.51255e-07
2.39555e-05
-3.99243e-07
4.27674e-05
5.92587e-05
-1.13746e-07
-1.40165e-06
5.87961e-05
1.8638e-06
-2.64139e-07
4.16295e-05
2.3691e-05
1.42987e-07
2.35477e-05
-4.06082e-07
4.21782e-05
5.85193e-05
-1.29755e-07
-1.37147e-06
5.80673e-05
1.82302e-06
-2.55211e-07
4.10616e-05
2.32922e-05
1.33537e-07
2.31583e-05
-4.16128e-07
4.16108e-05
5.78016e-05
-1.50812e-07
-1.33871e-06
5.73623e-05
1.77746e-06
-2.45122e-07
4.05169e-05
2.29128e-05
1.22966e-07
2.27895e-05
-4.29575e-07
4.1069e-05
5.71097e-05
-1.77386e-07
-1.30319e-06
5.66856e-05
1.72678e-06
-2.33744e-07
3.99991e-05
2.25554e-05
1.11197e-07
2.24439e-05
-4.46605e-07
4.05565e-05
5.64482e-05
-2.09714e-07
-1.26491e-06
5.60416e-05
1.67105e-06
-2.20922e-07
3.95121e-05
2.22226e-05
9.80861e-08
2.21242e-05
-4.67359e-07
4.00772e-05
5.58216e-05
-2.47894e-07
-1.224e-06
5.54347e-05
1.61043e-06
-2.0668e-07
3.90594e-05
2.19172e-05
8.37229e-08
2.18331e-05
-4.91745e-07
3.96345e-05
5.52343e-05
-2.91804e-07
-1.18075e-06
5.48692e-05
1.5453e-06
-1.91146e-07
3.86445e-05
2.16416e-05
6.82709e-08
2.1573e-05
-5.19529e-07
3.92318e-05
5.46903e-05
-3.41125e-07
-1.1356e-06
5.43492e-05
1.47622e-06
-1.74512e-07
3.82703e-05
2.13981e-05
5.19409e-08
2.13458e-05
-5.50371e-07
3.88722e-05
5.41936e-05
-3.9537e-07
-1.08905e-06
5.38783e-05
1.40391e-06
-1.5701e-07
3.79397e-05
2.11884e-05
3.49882e-08
2.11531e-05
-5.83809e-07
3.85581e-05
5.37478e-05
-4.53849e-07
-1.04169e-06
5.34597e-05
1.32922e-06
-1.38903e-07
3.76548e-05
2.10138e-05
1.75753e-08
2.09958e-05
-6.19566e-07
3.82915e-05
5.33557e-05
-5.16141e-07
-9.93728e-07
5.30963e-05
1.25257e-06
-1.20237e-07
3.74176e-05
2.08752e-05
-3.5763e-10
2.08752e-05
-6.57971e-07
3.80747e-05
5.30204e-05
-5.82551e-07
-9.43515e-07
5.27913e-05
1.17205e-06
-9.79934e-08
3.72288e-05
2.07768e-05
-1.96251e-08
2.07961e-05
-6.96785e-07
3.79055e-05
5.27428e-05
-6.48876e-07
-8.95778e-07
5.25448e-05
1.09328e-06
-7.83848e-08
3.70876e-05
2.07173e-05
-3.66981e-08
2.07536e-05
-7.34862e-07
3.77853e-05
5.25243e-05
-7.14992e-07
-8.50214e-07
5.23577e-05
1.01634e-06
-6.01631e-08
3.69948e-05
2.06931e-05
-5.2405e-08
2.07451e-05
-7.72235e-07
3.77141e-05
5.23653e-05
-7.80443e-07
-8.07048e-07
5.22298e-05
9.41968e-07
-4.29608e-08
3.69496e-05
2.07017e-05
-6.69752e-08
2.07683e-05
-8.08623e-07
3.76908e-05
5.22651e-05
-8.44452e-07
-7.66839e-07
5.216e-05
8.71302e-07
-2.68911e-08
3.69503e-05
2.0741e-05
-8.00115e-08
2.08206e-05
-8.4291e-07
3.77127e-05
5.22215e-05
-9.04911e-07
-7.28757e-07
5.21427e-05
8.06963e-07
-1.13643e-08
3.69949e-05
2.08089e-05
-9.18178e-08
2.09003e-05
-8.74424e-07
3.7777e-05
5.22321e-05
-9.64404e-07
-6.93693e-07
5.2178e-05
7.47185e-07
3.68428e-09
3.70791e-05
2.09036e-05
-1.03547e-07
2.10067e-05
-9.04263e-07
3.78794e-05
5.22937e-05
-1.02056e-06
-6.64997e-07
5.2263e-05
6.95126e-07
1.769e-08
3.71962e-05
2.1024e-05
-1.10269e-07
2.11339e-05
-9.30502e-07
3.80159e-05
5.24016e-05
-1.06969e-06
-6.42863e-07
5.23922e-05
6.51608e-07
2.71554e-08
3.73454e-05
2.11606e-05
-1.16793e-07
2.1277e-05
-9.56191e-07
3.81843e-05
5.2556e-05
-1.12062e-06
-6.24888e-07
5.25676e-05
6.12728e-07
3.44107e-08
3.75245e-05
2.1311e-05
-1.25603e-07
2.14362e-05
-9.82737e-07
3.83812e-05
5.27474e-05
-1.16313e-06
-6.09923e-07
5.27761e-05
5.80639e-07
4.09285e-08
3.77298e-05
2.14767e-05
-1.30582e-07
2.16069e-05
-1.00195e-06
3.86007e-05
5.29712e-05
-1.19766e-06
-5.98532e-07
5.30158e-05
5.5324e-07
4.55731e-08
3.79561e-05
2.1652e-05
-1.34374e-07
2.1786e-05
-1.01987e-06
3.88411e-05
5.32257e-05
-1.23038e-06
-5.91695e-07
5.32849e-05
5.31895e-07
4.92334e-08
3.81996e-05
2.18348e-05
-1.35522e-07
2.19699e-05
-1.03166e-06
3.90953e-05
5.3507e-05
-1.2544e-06
-5.86404e-07
5.35743e-05
5.18545e-07
5.15912e-08
3.84567e-05
2.20211e-05
-1.34669e-07
2.21553e-05
-1.03916e-06
3.93607e-05
5.38027e-05
-1.26817e-06
-5.88475e-07
5.38788e-05
5.11706e-07
5.04065e-08
3.87213e-05
2.22053e-05
-1.32898e-07
2.23378e-05
-1.04401e-06
3.96319e-05
5.4112e-05
-1.27783e-06
-5.94863e-07
5.41928e-05
5.13497e-07
4.79709e-08
3.89886e-05
2.23853e-05
-1.31328e-07
2.25162e-05
-1.04726e-06
3.9904e-05
5.44288e-05
-1.2839e-06
-6.01924e-07
5.45129e-05
5.1719e-07
4.55051e-08
3.92561e-05
2.25613e-05
-1.29837e-07
2.26907e-05
-1.04969e-06
4.01754e-05
5.47503e-05
-1.28772e-06
-6.11246e-07
5.48358e-05
5.25136e-07
4.21188e-08
3.95215e-05
2.27324e-05
-1.2718e-07
2.28592e-05
-1.04941e-06
4.04432e-05
5.50725e-05
-1.28681e-06
-6.22781e-07
5.51576e-05
5.3714e-07
3.78627e-08
3.97821e-05
2.28966e-05
-1.22427e-07
2.30186e-05
-1.04619e-06
4.07053e-05
5.53924e-05
-1.28161e-06
-6.36593e-07
5.54755e-05
5.52837e-07
3.21488e-08
4.00361e-05
2.30503e-05
-1.17125e-07
2.3167e-05
-1.04146e-06
4.09599e-05
5.57067e-05
-1.27328e-06
-6.51525e-07
5.57865e-05
5.71081e-07
2.67622e-08
4.02811e-05
2.31934e-05
-1.11744e-07
2.33047e-05
-1.03537e-06
4.12042e-05
5.60128e-05
-1.26231e-06
-6.66942e-07
5.6088e-05
5.9116e-07
2.15173e-08
4.05152e-05
2.33258e-05
-1.06375e-07
2.34317e-05
-1.02824e-06
4.14366e-05
5.63084e-05
-1.2493e-06
-6.82495e-07
5.63778e-05
6.12513e-07
1.64568e-08
4.07371e-05
2.34477e-05
-1.01069e-07
2.35484e-05
-1.02036e-06
4.16559e-05
5.65915e-05
-1.23475e-06
-6.97933e-07
5.66542e-05
6.34644e-07
1.16142e-08
4.09458e-05
2.35596e-05
-9.58723e-08
2.3655e-05
-1.01196e-06
4.18614e-05
5.68608e-05
-1.21915e-06
-7.13026e-07
5.69161e-05
6.57082e-07
7.03003e-09
4.11408e-05
2.36616e-05
-9.08602e-08
2.3752e-05
-1.00331e-06
4.20528e-05
5.71151e-05
-1.20296e-06
-7.27499e-07
5.71626e-05
6.79344e-07
2.81281e-09
4.13219e-05
2.37544e-05
-8.63059e-08
2.38403e-05
-9.94793e-07
4.22299e-05
5.73539e-05
-1.18669e-06
-7.41122e-07
5.73934e-05
7.01015e-07
-8.31513e-10
4.14891e-05
2.3839e-05
-8.23417e-08
2.3921e-05
-9.86871e-07
4.23931e-05
5.75767e-05
-1.17081e-06
-7.54132e-07
5.76082e-05
7.22036e-07
-3.88885e-09
4.16424e-05
2.39167e-05
-7.84925e-08
2.39947e-05
-9.79208e-07
4.25426e-05
5.77837e-05
-1.15526e-06
-7.66331e-07
5.78074e-05
7.42028e-07
-6.80352e-09
4.17826e-05
2.39875e-05
-7.47476e-08
2.40618e-05
-9.7184e-07
4.26792e-05
5.79752e-05
-1.14026e-06
-7.77735e-07
5.79914e-05
7.60991e-07
-9.51263e-09
4.19104e-05
2.40519e-05
-7.12703e-08
2.41228e-05
-9.65024e-07
4.28037e-05
5.8152e-05
-1.12626e-06
-7.883e-07
5.81609e-05
7.78851e-07
-1.19657e-08
4.20269e-05
2.41104e-05
-6.80525e-08
2.4178e-05
-9.58696e-07
4.2917e-05
5.83147e-05
-1.11315e-06
-7.9796e-07
5.83167e-05
7.9545e-07
-1.41291e-08
4.21327e-05
2.41635e-05
-6.51457e-08
2.42283e-05
-9.52943e-07
4.302e-05
5.84642e-05
-1.10105e-06
-8.06635e-07
5.84596e-05
8.1062e-07
-1.59571e-08
4.22289e-05
2.42119e-05
-6.25994e-08
2.42741e-05
-9.4786e-07
4.31137e-05
5.86013e-05
-1.0901e-06
-8.14287e-07
5.85907e-05
8.24309e-07
-1.74011e-08
4.23163e-05
2.42563e-05
-6.0771e-08
2.43167e-05
-9.43635e-07
4.31987e-05
5.87269e-05
-1.0804e-06
-8.21285e-07
5.87109e-05
8.36804e-07
-1.88982e-08
4.23959e-05
2.42974e-05
-5.9172e-08
2.43562e-05
-9.39933e-07
4.32762e-05
5.88421e-05
-1.0717e-06
-8.27178e-07
5.88212e-05
8.4753e-07
-2.00274e-08
4.24686e-05
2.43358e-05
-5.78226e-08
2.43933e-05
-9.36738e-07
4.33471e-05
5.89478e-05
-1.06388e-06
-8.32433e-07
5.89226e-05
8.57171e-07
-2.10017e-08
4.25352e-05
2.43719e-05
-5.68484e-08
2.44284e-05
-9.34372e-07
4.34123e-05
5.90453e-05
-1.05766e-06
-8.37474e-07
5.90158e-05
8.66535e-07
-2.20055e-08
4.25964e-05
2.44061e-05
-5.59159e-08
2.44616e-05
-9.32208e-07
4.34723e-05
5.91351e-05
-1.05202e-06
-8.41929e-07
5.91016e-05
8.74902e-07
-2.28601e-08
4.26528e-05
2.44384e-05
-5.51391e-08
2.44933e-05
-9.30413e-07
4.35277e-05
5.92178e-05
-1.04712e-06
-8.45879e-07
5.91809e-05
8.82372e-07
-2.35884e-08
4.2705e-05
2.44693e-05
-5.44716e-08
2.45235e-05
-9.2891e-07
4.35791e-05
5.92943e-05
-1.04284e-06
-8.49357e-07
5.92542e-05
8.8905e-07
-2.41958e-08
4.27536e-05
2.4499e-05
-5.3911e-08
2.45526e-05
-9.2767e-07
4.36269e-05
5.93652e-05
-1.03909e-06
-8.52352e-07
5.93218e-05
8.9523e-07
-2.46754e-08
4.27989e-05
2.45276e-05
-5.34684e-08
2.45808e-05
-9.26738e-07
4.36718e-05
5.94303e-05
-1.03562e-06
-8.55385e-07
5.93847e-05
9.00534e-07
-2.52801e-08
4.28414e-05
2.45552e-05
-5.30408e-08
2.4608e-05
-9.25957e-07
4.3714e-05
5.9491e-05
-1.03259e-06
-8.58209e-07
5.94435e-05
9.053e-07
-2.58695e-08
4.28813e-05
2.45819e-05
-5.26185e-08
2.46342e-05
-9.2526e-07
4.37536e-05
5.95477e-05
-1.02989e-06
-8.60805e-07
5.94985e-05
9.0963e-07
-2.6437e-08
4.29189e-05
2.46075e-05
-5.21955e-08
2.46595e-05
-9.24629e-07
4.37911e-05
5.9601e-05
-1.02748e-06
-8.63211e-07
5.95503e-05
9.13585e-07
-2.69873e-08
4.29546e-05
2.46323e-05
-5.17711e-08
2.46838e-05
-9.24049e-07
4.38265e-05
5.96512e-05
-1.02531e-06
-8.65457e-07
5.95991e-05
9.17213e-07
-2.75205e-08
4.29883e-05
2.46561e-05
-5.13413e-08
2.47072e-05
-9.23504e-07
4.38602e-05
5.96986e-05
-1.02337e-06
-8.67583e-07
5.96454e-05
9.20552e-07
-2.80423e-08
4.30204e-05
2.46789e-05
-5.09046e-08
2.47296e-05
-9.22993e-07
4.38923e-05
5.97437e-05
-1.02163e-06
-8.69568e-07
5.96894e-05
9.23585e-07
-2.85499e-08
4.3051e-05
2.47009e-05
-5.0506e-08
2.47512e-05
-9.2254e-07
4.39228e-05
5.97867e-05
-1.02016e-06
-8.71249e-07
5.97315e-05
9.26189e-07
-2.9044e-08
4.30804e-05
2.4722e-05
-5.01702e-08
2.4772e-05
-9.22225e-07
4.39523e-05
5.98281e-05
-1.01904e-06
-8.72644e-07
5.97722e-05
9.28331e-07
-2.94676e-08
4.31089e-05
2.47424e-05
-4.99124e-08
2.47922e-05
-9.22147e-07
4.3981e-05
5.98682e-05
-1.01839e-06
-8.73705e-07
5.98118e-05
9.29895e-07
-2.97526e-08
4.31369e-05
2.47623e-05
-4.97937e-08
2.4812e-05
-9.2244e-07
4.40093e-05
5.99075e-05
-1.01839e-06
-8.74263e-07
5.9851e-05
9.3063e-07
-2.98082e-08
4.31647e-05
2.4782e-05
-4.99336e-08
2.48319e-05
-9.23363e-07
4.4038e-05
5.99469e-05
-1.01944e-06
-8.73968e-07
5.98907e-05
9.30012e-07
-2.94543e-08
4.31934e-05
2.48023e-05
-5.05572e-08
2.48528e-05
-9.25426e-07
4.40681e-05
5.99874e-05
-1.02228e-06
-8.71974e-07
5.99324e-05
9.26799e-07
-2.82528e-08
4.32243e-05
2.48244e-05
-5.25018e-08
2.48769e-05
-9.30482e-07
4.41022e-05
6.00314e-05
-1.02953e-06
-8.64073e-07
5.99793e-05
9.15991e-07
-2.32149e-08
4.32613e-05
2.48536e-05
-6.55898e-08
2.49191e-05
-9.49453e-07
4.41451e-05
6.00823e-05
-1.05249e-06
-8.1921e-07
6.00366e-05
8.64773e-07
3.64159e-08
4.32894e-05
2.49555e-05
-4.42257e-07
2.53977e-05
-9.38078e-07
4.37851e-05
6.06626e-05
-1.56406e-06
-3.23535e-07
6.01933e-05
7.92723e-07
-2.90105e-07
4.37517e-05
2.51076e-05
-4.97193e-07
2.56048e-05
-1.54012e-06
4.47946e-05
6.13682e-05
-2.71501e-06
1.183e-06
6.15639e-05
-1.37873e-06
5.5774e-07
4.54198e-05
2.61625e-05
-1.73886e-06
2.79014e-05
-4.34087e-06
4.80218e-05
6.4957e-05
-7.73403e-06
3.07682e-06
6.76652e-05
-5.785e-06
1.40707e-06
4.96916e-05
2.93084e-05
-9.56646e-07
3.02651e-05
-2.08407e-06
5.0819e-05
6.88324e-05
-3.25123e-06
2.48141e-06
7.09427e-05
-4.59168e-06
9.56093e-07
5.23444e-05
3.12212e-05
-5.35714e-07
-1.05503e-06
-1.60285e-06
-1.28555e-05
-0.000208981
2.28545e-08
-0.000235084
-7.28593e-06
-0.000260578
4.09771e-06
-0.000273167
-4.20146e-07
-0.000284939
1.77984e-06
-0.000286844
5.40001e-08
-0.000289391
-5.62093e-07
-0.000289351
-5.63368e-07
-0.000290446
-5.87175e-07
-0.000291656
-5.944e-07
-0.000292248
-6.08945e-07
-0.000293181
-6.14347e-07
-0.000294064
-6.24406e-07
-0.000294793
-6.2783e-07
-0.000295482
-6.34272e-07
-0.00029606
-6.35574e-07
-0.000296606
-6.38859e-07
-0.000297067
-6.37995e-07
-0.0002975
-6.38384e-07
-0.000297865
-6.35315e-07
-0.000298204
-6.32918e-07
-0.000298485
-6.27567e-07
-0.000298739
-6.22344e-07
-0.000298941
-6.14553e-07
-0.000299112
-6.06258e-07
-0.000299233
-5.95735e-07
-0.000299315
-5.83841e-07
-0.000299344
-5.70183e-07
-0.000299319
-5.53925e-07
-0.000298634
-5.37148e-07
-0.000298463
8.12485e-08
-0.000297019
9.97539e-08
-0.000294242
3.69248e-06
-0.000289575
6.66324e-06
-0.000283503
1.90861e-05
-0.000273179
3.19558e-05
-0.000266654
7.40897e-05
-0.000265497
0.000150747
-0.000295347
4.33311e-05
-7.9059e-05
-1.2708e-05
-0.000129398
-1.21515e-06
-0.000164031
-2.26077e-06
-0.000154063
6.48343e-06
-0.000127273
7.83516e-08
-0.000107997
7.43589e-08
-3.41184e-05
4.51902e-08
-2.32413e-05
-1.05802e-05
-3.83116e-07
-1.01971e-05
-1.31307e-06
-2.23114e-05
-3.30376e-05
-2.39387e-06
4.76819e-07
-3.19822e-05
-1.5322e-06
3.4431e-07
-2.21789e-05
-9.85277e-06
-8.13534e-08
-9.77141e-06
-4.90919e-07
-2.17693e-05
-3.23656e-05
-1.07513e-07
6.5103e-08
-3.19048e-05
-5.25943e-07
1.9577e-08
-2.17238e-05
-9.75184e-06
-5.3498e-09
-9.74649e-06
-4.1498e-07
-2.13142e-05
-3.18432e-05
-4.76568e-07
-3.76301e-10
-3.13527e-05
-4.90176e-07
2.98363e-07
-2.16129e-05
-9.44814e-06
-6.59706e-08
-9.38217e-06
-3.44358e-08
-2.16445e-05
-3.13605e-05
-2.66284e-08
4.34312e-07
-3.17873e-05
-7.54767e-09
3.5009e-08
-2.12452e-05
-9.34717e-06
6.56541e-09
-9.35374e-06
-1.27296e-08
-2.12259e-05
-3.1807e-05