/*--------------------------------*- C++ -*----------------------------------*\
| =========                 |                                                 |
| \\      /  F ield         | OpenFOAM: The Open Source CFD Toolbox           |
|  \\    /   O peration     | Version:  v2006                                 |
|   \\  /    A nd           | Website:  www.openfoam.com                      |
|    \\/     M anipulation  |                                                 |
\*---------------------------------------------------------------------------*/
FoamFile
{
    version     2.0;
    format      ascii;
    class       volScalarField;
    location    "0.026";
    object      turbulenceProperties:L;
}
// * * * * * * * * * * * * * * * * * * * * * * * * * * * * * * * * * * * * * //

dimensions      [0 1 0 0 0 0 0];


internalField   nonuniform List<scalar> 
41981
(
1999.74
1999.71
1999.82
1999.88
1999.91
1999.91
1999.9
1999.95
1999.92
1999.92
1999.89
1999.81
1999.68
1999.47
1999.22
1998.96
1998.71
1998.49
1998.3
1998.13
1997.98
1997.84
1997.72
1997.6
1997.49
1997.38
1997.28
1997.18
1997.08
1996.99
1996.9
1996.81
1996.73
1996.65
1996.57
1996.49
1996.41
1996.33
1996.25
1996.18
1996.1
1996.02
1995.95
1995.87
1995.8
1995.72
1995.65
1995.58
1995.5
1995.43
1995.36
1995.29
1995.22
1995.15
1995.09
1995.02
1994.95
1994.89
1994.83
1994.77
1994.7
1994.65
1994.59
1994.53
1994.48
1994.42
1994.37
1994.32
1994.28
1994.23
1994.18
1994.14
1994.1
1994.06
1994.03
1993.99
1993.96
1993.93
1993.9
1993.88
1993.85
1993.83
1993.82
1993.8
1993.79
1993.77
1993.77
1993.76
1993.76
1993.75
1993.76
1993.76
1993.76
1993.77
1993.78
1993.79
1993.8
1993.81
1993.82
1993.82
1993.81
1993.78
1993.72
1993.61
1993.44
1993.16
1992.72
1992.05
1991.01
1989.43
1987.05
1983.5
1978.22
1970.42
1958.97
1942.33
1918.37
1884.34
1836.82
1771.89
1685.68
1575.24
1439.91
1282.56
1110.15
932.877
761.898
606.691
473.204
363.48
276.453
209.213
158.152
119.745
90.9482
69.3221
53.0726
41.12
33.4953
35.2384
30.1596
28.069
31.2154
42.9357
69.1957
105.667
136.141
39.8029
13.9515
5.32486
2.15548
0.939163
0.41409
0.303631
0.354796
0.140823
0.0491509
0.0136317
0.00151325
0.000271789
1.97363e-05
1.84054e-05
0.000128198
0.000578655
0.000304846
8.20742e-05
1.70333e-05
1.60738e-05
7.64205e-05
0.000262588
0.00021045
6.87084e-05
1.56374e-05
1.52871e-05
6.86314e-05
0.000206899
0.000182954
6.37509e-05
1.49591e-05
1.47943e-05
6.51987e-05
0.000182921
0.000171998
6.20141e-05
1.46241e-05
1.43949e-05
6.28294e-05
0.000172749
0.000164192
6.11461e-05
1.42549e-05
1.41702e-05
6.20069e-05
0.000166626
0.000159315
6.06162e-05
1.40603e-05
1.39971e-05
6.12437e-05
0.000161962
0.00015537
5.99788e-05
1.39287e-05
1.38947e-05
6.04442e-05
0.000158023
0.000151848
5.92556e-05
1.38448e-05
1.38206e-05
5.96583e-05
0.00015443
0.000148549
5.85018e-05
1.37784e-05
1.37582e-05
5.88568e-05
0.000151051
0.000145405
5.77091e-05
1.37198e-05
1.37016e-05
5.8065e-05
0.000147849
0.000142439
5.69678e-05
1.36658e-05
1.36488e-05
5.73249e-05
0.000144858
0.000139679
5.62742e-05
1.36149e-05
1.35989e-05
5.66331e-05
0.00014209
0.000137129
5.56242e-05
1.35666e-05
1.35514e-05
5.59848e-05
0.000139529
0.000134765
5.50185e-05
1.35205e-05
1.35059e-05
5.53807e-05
0.000137155
0.000132568
5.44534e-05
1.34763e-05
1.34622e-05
5.48176e-05
0.000134947
0.000130525
5.39279e-05
1.34336e-05
1.34201e-05
5.42926e-05
0.000132895
0.000128625
5.34369e-05
1.33924e-05
1.33793e-05
5.38018e-05
0.000130985
0.000126855
5.29772e-05
1.33525e-05
1.33398e-05
5.33427e-05
0.000129203
0.0001252
5.25471e-05
1.33139e-05
1.33015e-05
5.29132e-05
0.000127534
0.000123645
5.21441e-05
1.32763e-05
1.32642e-05
5.2511e-05
0.000125966
0.000122182
5.17666e-05
1.32396e-05
1.32279e-05
5.21337e-05
0.000124489
0.000120802
5.14116e-05
1.32039e-05
1.31925e-05
5.17786e-05
0.000123094
0.000119496
5.10745e-05
1.3169e-05
1.31577e-05
5.14429e-05
0.000121773
0.000118258
5.07552e-05
1.31347e-05
1.31237e-05
5.11256e-05
0.00012052
0.000117083
5.04531e-05
1.3101e-05
1.30901e-05
5.08253e-05
0.000119331
0.000115968
5.01669e-05
1.30678e-05
1.30571e-05
5.05404e-05
0.000118202
0.000114908
4.9895e-05
1.30351e-05
1.30245e-05
5.02697e-05
0.000117129
0.000113901
4.96362e-05
1.30027e-05
1.29923e-05
5.00121e-05
0.000116109
0.000112943
4.93898e-05
1.29707e-05
1.29604e-05
4.97666e-05
0.000115139
0.000112031
4.91548e-05
1.2939e-05
1.29287e-05
4.95324e-05
0.000114214
0.000111161
4.89304e-05
1.29074e-05
1.28972e-05
4.93086e-05
0.000113331
0.00011033
4.87156e-05
1.28761e-05
1.28659e-05
4.90944e-05
0.000112487
0.000109534
4.85096e-05
1.28448e-05
1.28347e-05
4.88888e-05
0.000111678
0.00010877
4.83116e-05
1.28136e-05
1.28035e-05
4.8691e-05
0.000110901
0.000108035
4.81207e-05
1.27824e-05
1.27723e-05
4.85002e-05
0.000110152
0.000107327
4.79363e-05
1.27512e-05
1.2741e-05
4.83158e-05
0.00010943
0.000106642
4.77576e-05
1.27198e-05
1.27095e-05
4.81369e-05
0.000108732
0.00010598
4.75839e-05
1.26882e-05
1.26779e-05
4.7963e-05
0.000108056
0.000105337
4.74147e-05
1.26564e-05
1.2646e-05
4.77935e-05
0.0001074
0.000104713
4.72495e-05
1.26243e-05
1.26137e-05
4.76279e-05
0.000106763
0.000104106
4.70877e-05
1.25919e-05
1.25812e-05
4.74658e-05
0.000106142
0.000103514
4.69291e-05
1.25591e-05
1.25482e-05
4.73067e-05
0.000105537
0.000102937
4.67732e-05
1.25258e-05
1.25148e-05
4.71503e-05
0.000104947
0.000102372
4.662e-05
1.24921e-05
1.24809e-05
4.69964e-05
0.000104369
0.00010182
4.64689e-05
1.24579e-05
1.24465e-05
4.68448e-05
0.000103805
0.00010128
4.632e-05
1.24232e-05
1.24116e-05
4.66953e-05
0.000103252
0.000100752
4.6173e-05
1.23878e-05
1.2376e-05
4.65476e-05
0.00010271
0.000100234
4.60276e-05
1.23519e-05
1.23397e-05
4.64008e-05
0.000102181
9.97268e-05
4.58823e-05
1.23152e-05
1.23025e-05
4.62536e-05
0.000101662
9.92299e-05
4.57369e-05
1.22776e-05
1.22643e-05
4.61066e-05
0.000101154
9.87426e-05
4.55923e-05
1.22392e-05
1.22253e-05
4.59606e-05
0.000100655
9.82641e-05
4.5449e-05
1.21999e-05
1.21854e-05
4.5816e-05
0.000100165
9.7794e-05
4.5307e-05
1.21598e-05
1.21446e-05
4.56729e-05
9.96832e-05
9.73317e-05
4.51664e-05
1.21187e-05
1.21029e-05
4.55312e-05
9.92094e-05
9.68768e-05
4.50271e-05
1.20767e-05
1.20603e-05
4.5391e-05
9.87432e-05
9.64289e-05
4.48891e-05
1.20337e-05
1.20167e-05
4.52522e-05
9.82842e-05
9.59879e-05
4.47525e-05
1.19896e-05
1.1972e-05
4.51145e-05
9.78321e-05
9.55534e-05
4.46169e-05
1.19445e-05
1.19262e-05
4.49779e-05
9.73867e-05
9.51251e-05
4.4482e-05
1.18982e-05
1.18793e-05
4.4842e-05
9.69475e-05
9.4703e-05
4.43477e-05
1.18507e-05
1.18312e-05
4.47068e-05
9.65146e-05
9.4287e-05
4.4214e-05
1.18019e-05
1.17817e-05
4.45722e-05
9.60878e-05
9.38766e-05
4.40806e-05
1.17518e-05
1.1731e-05
4.44382e-05
9.56668e-05
9.34718e-05
4.39477e-05
1.17004e-05
1.16788e-05
4.43046e-05
9.52513e-05
9.30722e-05
4.38151e-05
1.16474e-05
1.16252e-05
4.41715e-05
9.48413e-05
9.26778e-05
4.36827e-05
1.15929e-05
1.157e-05
4.40388e-05
9.44367e-05
9.22886e-05
4.35505e-05
1.15369e-05
1.15133e-05
4.39065e-05
9.40375e-05
9.19046e-05
4.34186e-05
1.14792e-05
1.14549e-05
4.37747e-05
9.36438e-05
9.1526e-05
4.32869e-05
1.14197e-05
1.13948e-05
4.36432e-05
9.32558e-05
9.11529e-05
4.31555e-05
1.13586e-05
1.13329e-05
4.35122e-05
9.28735e-05
9.07855e-05
4.30244e-05
1.12956e-05
1.12693e-05
4.33817e-05
9.24972e-05
9.04238e-05
4.28937e-05
1.12308e-05
1.12038e-05
4.32518e-05
9.21272e-05
9.00683e-05
4.27633e-05
1.1164e-05
1.11364e-05
4.31236e-05
9.17638e-05
8.97194e-05
4.26338e-05
1.10954e-05
1.10672e-05
4.29967e-05
9.14077e-05
8.93777e-05
4.25047e-05
1.10248e-05
1.0996e-05
4.28703e-05
9.10593e-05
8.90435e-05
4.23759e-05
1.09523e-05
1.09229e-05
4.27449e-05
9.07188e-05
8.87171e-05
4.2248e-05
1.08778e-05
1.0848e-05
4.26207e-05
9.03871e-05
8.83995e-05
4.21213e-05
1.08014e-05
1.07712e-05
4.24981e-05
9.00651e-05
8.80919e-05
4.19962e-05
1.07231e-05
1.06926e-05
4.23776e-05
8.97541e-05
8.77954e-05
4.18731e-05
1.06431e-05
1.06123e-05
4.22596e-05
8.94552e-05
8.75112e-05
4.17526e-05
1.05615e-05
1.05306e-05
4.21446e-05
8.91699e-05
8.72408e-05
4.16352e-05
1.04784e-05
1.04474e-05
4.20332e-05
8.88998e-05
8.69858e-05
4.15215e-05
1.0394e-05
1.03632e-05
4.19261e-05
8.86466e-05
8.67481e-05
4.14121e-05
1.03087e-05
1.02781e-05
4.18237e-05
8.84124e-05
8.65297e-05
4.13078e-05
1.02226e-05
1.01925e-05
4.1727e-05
8.81994e-05
8.63334e-05
4.12093e-05
1.01362e-05
1.01068e-05
4.16367e-05
8.80108e-05
8.61622e-05
4.11178e-05
1.00499e-05
1.00214e-05
4.15539e-05
8.78496e-05
8.60189e-05
4.10346e-05
9.96429e-06
9.93664e-06
4.14798e-05
8.77186e-05
8.59061e-05
4.09614e-05
9.88007e-06
9.85329e-06
4.14152e-05
8.76202e-05
8.58251e-05
4.08973e-05
9.79774e-06
9.77193e-06
4.13593e-05
8.75559e-05
8.57773e-05
4.0842e-05
9.71771e-06
9.69304e-06
4.1312e-05
8.7527e-05
8.57639e-05
4.07961e-05
9.64055e-06
9.61733e-06
4.12743e-05
8.75345e-05
8.57857e-05
4.07608e-05
9.56708e-06
9.54557e-06
4.1247e-05
8.75787e-05
8.58429e-05
4.07363e-05
9.49804e-06
9.4785e-06
4.123e-05
8.76596e-05
8.59349e-05
4.07223e-05
9.43411e-06
9.41674e-06
4.12227e-05
8.77762e-05
8.60603e-05
4.07181e-05
9.37588e-06
9.36087e-06
4.1224e-05
8.79266e-05
8.62168e-05
4.07223e-05
9.32385e-06
9.31134e-06
4.12324e-05
8.8108e-05
8.64019e-05
4.07338e-05
9.27843e-06
9.26856e-06
4.12471e-05
8.83211e-05
8.66161e-05
4.0756e-05
9.23984e-06
9.23404e-06
4.12524e-05
8.85622e-05
8.68476e-05
4.07629e-05
9.20961e-06
9.20694e-06
4.12463e-05
8.88111e-05
8.70838e-05
4.07607e-05
9.18604e-06
9.18634e-06
4.12309e-05
8.90632e-05
8.73225e-05
4.07519e-05
9.16949e-06
9.17294e-06
4.12077e-05
8.93143e-05
8.75603e-05
4.07372e-05
9.15856e-06
9.16539e-06
4.11773e-05
8.95589e-05
8.77927e-05
4.07176e-05
9.15374e-06
9.16383e-06
4.11415e-05
8.97995e-05
8.80183e-05
4.06906e-05
9.15518e-06
9.16823e-06
4.10984e-05
9.00318e-05
8.82285e-05
4.06464e-05
9.16303e-06
9.1779e-06
4.1037e-05
9.02412e-05
8.84103e-05
4.05865e-05
9.17532e-06
9.19179e-06
4.09674e-05
9.04224e-05
8.85672e-05
4.05198e-05
9.19149e-06
9.20928e-06
4.08955e-05
9.05777e-05
8.87011e-05
4.04507e-05
9.21082e-06
9.23042e-06
4.08189e-05
9.07059e-05
8.88084e-05
4.03771e-05
9.23342e-06
9.25447e-06
4.07379e-05
9.08077e-05
8.88914e-05
4.03003e-05
9.2589e-06
9.28117e-06
4.06545e-05
9.08829e-05
8.89497e-05
4.02198e-05
9.28678e-06
9.30965e-06
4.05681e-05
9.09304e-05
8.89793e-05
4.01364e-05
9.31588e-06
9.3387e-06
4.04787e-05
9.0947e-05
8.89787e-05
4.00512e-05
9.34538e-06
9.36799e-06
4.03883e-05
9.09336e-05
8.8953e-05
3.99671e-05
9.37507e-06
9.39751e-06
4.03007e-05
9.08973e-05
8.89082e-05
3.98871e-05
9.4049e-06
9.42702e-06
4.02174e-05
9.08414e-05
8.88451e-05
3.98116e-05
9.43456e-06
9.45619e-06
4.01382e-05
9.07662e-05
8.8765e-05
3.97332e-05
9.4631e-06
9.48364e-06
4.00593e-05
9.06824e-05
8.86676e-05
3.96532e-05
9.49004e-06
9.50964e-06
3.99821e-05
9.05822e-05
8.85561e-05
3.95779e-05
9.51556e-06
9.53426e-06
3.99094e-05
9.04681e-05
8.84336e-05
3.95076e-05
9.5397e-06
9.5575e-06
3.98415e-05
9.03433e-05
8.8303e-05
3.9443e-05
9.56246e-06
9.57938e-06
3.97791e-05
9.02104e-05
8.81668e-05
3.93842e-05
9.58385e-06
9.5999e-06
3.97228e-05
9.00723e-05
8.80286e-05
3.93313e-05
9.60388e-06
9.6191e-06
3.96734e-05
8.99325e-05
8.78908e-05
3.92855e-05
9.6227e-06
9.63715e-06
3.96305e-05
8.97935e-05
8.77552e-05
3.92451e-05
9.6405e-06
9.65422e-06
3.95926e-05
8.96564e-05
8.7623e-05
3.92113e-05
9.65729e-06
9.67022e-06
3.95608e-05
8.95229e-05
8.74958e-05
3.91841e-05
9.67301e-06
9.68518e-06
3.95354e-05
8.93951e-05
8.73757e-05
3.91634e-05
9.6877e-06
9.69915e-06
3.95162e-05
8.92749e-05
8.7264e-05
3.91491e-05
9.70142e-06
9.71222e-06
3.95029e-05
8.91634e-05
8.71615e-05
3.91405e-05
9.71425e-06
9.72447e-06
3.94954e-05
8.90612e-05
8.70685e-05
3.91362e-05
9.72629e-06
9.73602e-06
3.94932e-05
8.89688e-05
8.69853e-05
3.91374e-05
9.73765e-06
9.74693e-06
3.94962e-05
8.8886e-05
8.69119e-05
3.91436e-05
9.7484e-06
9.7573e-06
3.95038e-05
8.88132e-05
8.6848e-05
3.91541e-05
9.75864e-06
9.76722e-06
3.95154e-05
8.87499e-05
8.67929e-05
3.9168e-05
9.76843e-06
9.77669e-06
3.95298e-05
8.86947e-05
8.67449e-05
3.91838e-05
9.77775e-06
9.78571e-06
3.95465e-05
8.86462e-05
8.67031e-05
3.92015e-05
9.78665e-06
9.79434e-06
3.95649e-05
8.86036e-05
8.66665e-05
3.92207e-05
9.79516e-06
9.80261e-06
3.95846e-05
8.85659e-05
8.66341e-05
3.92409e-05
9.80331e-06
9.81055e-06
3.96049e-05
8.85318e-05
8.66045e-05
3.92611e-05
9.81112e-06
9.81812e-06
3.9625e-05
8.84999e-05
8.65764e-05
3.92809e-05
9.81858e-06
9.82534e-06
3.96443e-05
8.84691e-05
8.65488e-05
3.92997e-05
9.82567e-06
9.83219e-06
3.96626e-05
8.84383e-05
8.65206e-05
3.93172e-05
9.83239e-06
9.83868e-06
3.96793e-05
8.84067e-05
8.64911e-05
3.93331e-05
9.83876e-06
9.8448e-06
3.96943e-05
8.83732e-05
8.64593e-05
3.93471e-05
9.84477e-06
9.85054e-06
3.97072e-05
8.83372e-05
8.64248e-05
3.93589e-05
9.85037e-06
9.85596e-06
3.97178e-05
8.82983e-05
8.63871e-05
3.93684e-05
9.85564e-06
9.86105e-06
3.97261e-05
8.82562e-05
8.63462e-05
3.93756e-05
9.86059e-06
9.86583e-06
3.97321e-05
8.82107e-05
8.63019e-05
3.93807e-05
9.86524e-06
9.87034e-06
3.9736e-05
8.8162e-05
8.62545e-05
3.93839e-05
9.86964e-06
9.87467e-06
3.9738e-05
8.81105e-05
8.6205e-05
3.93856e-05
9.8739e-06
9.87893e-06
3.97388e-05
8.80577e-05
8.61553e-05
3.9387e-05
9.87818e-06
9.88342e-06
3.974e-05
8.80072e-05
8.61124e-05
3.93929e-05
9.88287e-06
9.8895e-06
3.97503e-05
8.79787e-05
8.59456e-05
3.93301e-05
9.88263e-06
1.00266e-05
4.01332e-05
8.80063e-05
8.61765e-05
3.89585e-05
9.98987e-06
1.00521e-05
4.02213e-05
8.93956e-05
8.75194e-05
3.99249e-05
1.02148e-05
1.08606e-05
4.24741e-05
9.44575e-05
0.000100925
4.48653e-05
1.15364e-05
1.21552e-05
4.59629e-05
0.000101749
0.000106162
4.79837e-05
1.24675e-05
1.2852e-05
4.83944e-05
0.000107662
0.000284519
0.000560513
0.000887857
0.00117072
0.00161177
0.00201079
0.00241214
0.00277713
0.00312818
0.0034498
0.00375275
0.00402776
0.00427969
0.00450276
0.00469904
0.00486486
0.00500094
0.00510523
0.0051779
0.00521803
0.00522536
0.00520018
0.00514262
0.00505398
0.0049341
0.00478563
0.0046081
0.00440569
0.00417728
0.00392904
0.00365859
0.00337426
0.0030725
0.00276693
0.00244955
0.00214256
0.0018277
0.00157687
0.00130401
0.000991656
0.000749992
0.000646224
0.000420259
0.000246939
0.000117904
4.23358e-05
1.74325e-05
3.2668e-06
3.17869e-06
1.73543e-05
4.24472e-05
3.96899e-05
1.6511e-05
3.05426e-06
2.92999e-06
1.64213e-05
3.97998e-05
3.95081e-05
1.62416e-05
2.9473e-06
2.93222e-06
1.62151e-05
3.9297e-05
3.87867e-05
1.60912e-05
2.88291e-06
2.78272e-06
1.5886e-05
3.86694e-05
3.88307e-05
1.59274e-05
2.78628e-06
2.77748e-06
1.56978e-05
3.84498e-05
3.86239e-05
1.57763e-05
2.78997e-06
2.78697e-06
1.5773e-05
3.86276e-05
3.86716e-05
1.57873e-05
2.78991e-06
2.79191e-06
1.57905e-05
3.86873e-05
3.87353e-05
1.58068e-05
2.79471e-06
2.79687e-06
1.58101e-05
3.87524e-05
3.88014e-05
1.58266e-05
2.79979e-06
2.80209e-06
1.58307e-05
3.88195e-05
3.88702e-05
1.5848e-05
2.80509e-06
2.80743e-06
1.58521e-05
3.88891e-05
3.89404e-05
1.58695e-05
2.81052e-06
2.81295e-06
1.58742e-05
3.89599e-05
3.90126e-05
1.58923e-05
2.8161e-06
2.81855e-06
1.58968e-05
3.90326e-05
3.90858e-05
1.59148e-05
2.82176e-06
2.82429e-06
1.59199e-05
3.91062e-05
3.91608e-05
1.59386e-05
2.82755e-06
2.83009e-06
1.59434e-05
3.91816e-05
3.92366e-05
1.5962e-05
2.83342e-06
2.83604e-06
1.59674e-05
3.92579e-05
3.93142e-05
1.59866e-05
2.83941e-06
2.84203e-06
1.59918e-05
3.93359e-05
3.93926e-05
1.6011e-05
2.84546e-06
2.84816e-06
1.60167e-05
3.94148e-05
3.94728e-05
1.60365e-05
2.85163e-06
2.85434e-06
1.60419e-05
3.94953e-05
3.95538e-05
1.60617e-05
2.85786e-06
2.86065e-06
1.60677e-05
3.95767e-05
3.96365e-05
1.6088e-05
2.86421e-06
2.867e-06
1.60938e-05
3.96598e-05
3.972e-05
1.61141e-05
2.87063e-06
2.87349e-06
1.61204e-05
3.97437e-05
3.98053e-05
1.61413e-05
2.87716e-06
2.88003e-06
1.61473e-05
3.98292e-05
3.98912e-05
1.61683e-05
2.88376e-06
2.88671e-06
1.61749e-05
3.99156e-05
3.9979e-05
1.61964e-05
2.89048e-06
2.89343e-06
1.62027e-05
4.00037e-05
4.00675e-05
1.62242e-05
2.89727e-06
2.90031e-06
1.62311e-05
4.00926e-05
4.01579e-05
1.62533e-05
2.90419e-06
2.90724e-06
1.62599e-05
4.01832e-05
4.0249e-05
1.62821e-05
2.91119e-06
2.91432e-06
1.62893e-05
4.02747e-05
4.03419e-05
1.63121e-05
2.91832e-06
2.92146e-06
1.63191e-05
4.03679e-05
4.04356e-05
1.6342e-05
2.92553e-06
2.92875e-06
1.63495e-05
4.04619e-05
4.0531e-05
1.63731e-05
2.93288e-06
2.93611e-06
1.63804e-05
4.05575e-05
4.06271e-05
1.6404e-05
2.94032e-06
2.94363e-06
1.64118e-05
4.06539e-05
4.07249e-05
1.64361e-05
2.94789e-06
2.95123e-06
1.64436e-05
4.07519e-05
4.08233e-05
1.64681e-05
2.95556e-06
2.95898e-06
1.64761e-05
4.08506e-05
4.09234e-05
1.65013e-05
2.96337e-06
2.96682e-06
1.65091e-05
4.09508e-05
4.10241e-05
1.65344e-05
2.9713e-06
2.97483e-06
1.65427e-05
4.10518e-05
4.11264e-05
1.65687e-05
2.97937e-06
2.98292e-06
1.65768e-05
4.11541e-05
4.12292e-05
1.66029e-05
2.98755e-06
2.9912e-06
1.66114e-05
4.12571e-05
4.13336e-05
1.66384e-05
2.9959e-06
2.99958e-06
1.66466e-05
4.13607e-05
4.14379e-05
1.66737e-05
3.00437e-06
3.00815e-06
1.66824e-05
4.14652e-05
4.15438e-05
1.67103e-05
3.01303e-06
3.01684e-06
1.67187e-05
4.15701e-05
4.16494e-05
1.67468e-05
3.02182e-06
3.02573e-06
1.67556e-05
4.16758e-05
4.17563e-05
1.67846e-05
3.0308e-06
3.03475e-06
1.67931e-05
4.17816e-05
4.18627e-05
1.68223e-05
3.03993e-06
3.04399e-06
1.68311e-05
4.18877e-05
4.19701e-05
1.68612e-05
3.04926e-06
3.05336e-06
1.68697e-05
4.19936e-05
4.20765e-05
1.69e-05
3.05875e-06
3.06297e-06
1.69088e-05
4.20994e-05
4.21834e-05
1.694e-05
3.06846e-06
3.07273e-06
1.69484e-05
4.22045e-05
4.22888e-05
1.69799e-05
3.07835e-06
3.08273e-06
1.69884e-05
4.23088e-05
4.23938e-05
1.70208e-05
3.08846e-06
3.09289e-06
1.70288e-05
4.24115e-05
4.24964e-05
1.70615e-05
3.09875e-06
3.10331e-06
1.70696e-05
4.25124e-05
4.25976e-05
1.71031e-05
3.10929e-06
3.11391e-06
1.71105e-05
4.26103e-05
4.26949e-05
1.71444e-05
3.12004e-06
3.12478e-06
1.71517e-05
4.27051e-05
4.27894e-05
1.71865e-05
3.13106e-06
3.13588e-06
1.7193e-05
4.27954e-05
4.28782e-05
1.72284e-05
3.14232e-06
3.14727e-06
1.72347e-05
4.28805e-05
4.29618e-05
1.72713e-05
3.15389e-06
3.1589e-06
1.72766e-05
4.29586e-05
4.30368e-05
1.73141e-05
3.16568e-06
3.17079e-06
1.7319e-05
4.30281e-05
4.31023e-05
1.73578e-05
3.17769e-06
3.18278e-06
1.73619e-05
4.30856e-05
4.31528e-05
1.74007e-05
3.18974e-06
3.19476e-06
1.7404e-05
4.31274e-05
4.31846e-05
1.74428e-05
3.20162e-06
3.20634e-06
1.74441e-05
4.31483e-05
4.31882e-05
1.74799e-05
3.21282e-06
3.21699e-06
1.74778e-05
4.3139e-05
4.31556e-05
1.75074e-05
3.22267e-06
3.22588e-06
1.74985e-05
4.30888e-05
4.30723e-05
1.75142e-05
3.23004e-06
3.232e-06
1.74937e-05
4.29837e-05
4.29366e-05
1.74842e-05
3.23343e-06
3.23362e-06
1.74426e-05
4.28059e-05
4.27324e-05
1.73962e-05
3.233e-06
3.23002e-06
1.73239e-05
4.25492e-05
4.24424e-05
1.72376e-05
3.22542e-06
3.21771e-06
1.71118e-05
4.22082e-05
4.20586e-05
1.69874e-05
3.21087e-06
3.2025e-06
1.68161e-05
4.17792e-05
4.16022e-05
1.66458e-05
3.19833e-06
3.19598e-06
1.64352e-05
4.1308e-05
4.11318e-05
1.62437e-05
3.19627e-06
3.20014e-06
1.60081e-05
4.08694e-05
4.07203e-05
1.58043e-05
3.21113e-06
3.22714e-06
1.55637e-05
4.05143e-05
4.05062e-05
1.53715e-05
3.25438e-06
3.29183e-06
1.51729e-05
4.04699e-05
4.06799e-05
1.50456e-05
3.34608e-06
3.40818e-06
1.49902e-05
4.09359e-05
4.15647e-05
1.5242e-05
3.52518e-06
3.64064e-06
1.54477e-05
4.21329e-05
4.25225e-05
1.52262e-05
3.6828e-06
3.69137e-06
1.5125e-05
4.24616e-05
4.35544e-05
1.49505e-05
3.75043e-06
3.88975e-06
1.56782e-05
4.44266e-05
4.4973e-05
1.54291e-05
4.02967e-06
4.18838e-06
1.61239e-05
4.60596e-05
4.73166e-05
1.62666e-05
4.33915e-06
4.56232e-06
1.71796e-05
4.84432e-05
4.95967e-05
1.75669e-05
4.79896e-06
4.97632e-06
1.84586e-05
4.98201e-05
5.09273e-05
1.87577e-05
5.05655e-06
5.2923e-06
1.91578e-05
5.11209e-05
5.26372e-05
2.19865e-05
5.64794e-06
6.01367e-06
2.26165e-05
5.26488e-05
5.20115e-05
2.43455e-05
3.79227e-06
1.51596e-06
6.04218e-06
1.62013e-05
3.73193e-05
1.21652e-05
2.23733e-06
2.37038e-06
1.06908e-05
3.26247e-05
3.25279e-05
1.03481e-05
2.47729e-06
2.668e-06
1.0883e-05
3.45978e-05
3.38636e-05
1.08756e-05
2.86697e-06
3.02635e-06
1.16623e-05
3.61239e-05
3.58376e-05
1.14387e-05
3.27309e-06
3.51609e-06
1.31783e-05
3.9528e-05
3.84114e-05
1.26948e-05
3.76241e-06
4.11604e-06
1.45297e-05
4.14224e-05
4.127e-05
1.47433e-05
4.39053e-06
4.76394e-06
1.67749e-05
4.40958e-05
4.48266e-05
1.83342e-05
5.4034e-06
3.55391e-06
2.20617e-05
4.71682e-05
1.4727e-05
5.4115e-06
1.76374e-06
2.72694e-06
1.26591e-05
3.83771e-05
3.61996e-05
1.15065e-05
3.2524e-06
3.73293e-06
1.4284e-05
4.38152e-05
4.36719e-05
1.46331e-05
4.03335e-06
4.37042e-06
1.59103e-05
4.81211e-05
4.87877e-05
1.70736e-05
4.80171e-06
5.14046e-06
1.9092e-05
5.16948e-05
5.28049e-05
1.95703e-05
5.56641e-06
6.09672e-06
2.30604e-05
5.50408e-05
5.31494e-05
2.38315e-05
3.92855e-06
1.9347e-06
5.76964e-06
1.59568e-05
4.1028e-05
1.351e-05
2.90918e-06
3.23077e-06
1.18976e-05
3.74338e-05
3.97935e-05
1.23199e-05
3.61537e-06
4.04179e-06
1.50233e-05
4.32523e-05
4.31273e-05
1.51664e-05
4.39544e-06
4.93378e-06
1.77779e-05
4.69785e-05
4.81603e-05
2.00052e-05
5.63903e-06
3.75502e-06
2.36887e-05
5.02227e-05
1.55591e-05
5.6767e-06
1.95566e-06
3.11146e-06
1.33078e-05
4.28068e-05
4.22806e-05
1.35026e-05
3.84127e-06
4.47429e-06
1.7025e-05
5.17397e-05
5.32301e-05
1.90385e-05
5.09331e-06
5.76684e-06
2.14885e-05
5.77114e-05
5.88911e-05
2.44802e-05
6.47527e-06
4.26988e-06
2.61577e-05
5.71281e-05
1.78088e-05
6.27714e-06
2.21146e-06
3.39097e-06
1.55351e-05
4.6609e-05
4.61205e-05
1.50757e-05
4.104e-06
4.72052e-06
1.86969e-05
5.17644e-05
5.17633e-05
1.99536e-05
5.50001e-06
3.75603e-06
2.4567e-05
5.38211e-05
1.67583e-05
5.73739e-06
1.97005e-06
3.17273e-06
1.44724e-05
4.71898e-05
4.7683e-05
1.52178e-05
4.03179e-06
4.81323e-06
2.03593e-05
5.92681e-05
6.05701e-05
2.17331e-05
5.62118e-06
6.57549e-06
2.74748e-05
6.63634e-05
6.25554e-05
2.87335e-05
4.48254e-06
2.32146e-06
7.00021e-06
2.0186e-05
5.36992e-05
1.77101e-05
3.59419e-06
4.59595e-06
1.76241e-05
5.28941e-05
6.22387e-05
2.53307e-05
5.75751e-06
4.02909e-06
2.70006e-05
6.14572e-05
2.07903e-05
6.67387e-06
2.18241e-06
3.70431e-06
1.88717e-05
5.87275e-05
6.24048e-05
2.21537e-05
5.00052e-06
6.31425e-06
3.00907e-05
7.4978e-05
7.06883e-05
3.16452e-05
4.4555e-06
2.42017e-06
7.95487e-06
2.5022e-05
6.54042e-05
2.39748e-05
4.13692e-06
5.5584e-06
2.53728e-05
6.67684e-05
6.98975e-05
3.07279e-05
3.99809e-06
2.16018e-06
7.59743e-06
2.55182e-05
6.92051e-05
2.41355e-05
4.15349e-06
5.91641e-06
2.906e-05
7.64503e-05
8.24498e-05
3.65233e-05
4.50546e-06
2.52298e-06
9.88301e-06
3.24476e-05
8.32445e-05
3.19784e-05
4.87421e-06
3.87366e-06
3.38715e-05
8.21146e-05
3.44783e-05
1.02475e-05
2.30614e-06
4.85126e-06
3.46787e-05
9.34821e-05
9.59731e-05
3.74579e-05
4.0416e-06
2.37375e-06
1.34491e-05
4.52935e-05
0.000112323
4.26281e-05
5.68666e-06
5.15216e-06
4.63677e-05
0.000120782
7.71547e-05
2.68965e-05
3.2147e-06
4.19763e-06
3.9716e-05
0.000105553
0.000113007
4.32911e-05
4.67341e-06
6.25764e-06
5.05214e-05
0.000130897
0.000109381
4.01978e-05
4.593e-06
3.79406e-06
3.25933e-05
9.00414e-05
9.13925e-05
3.27376e-05
3.9225e-06
4.83412e-06
3.67208e-05
0.000103828
0.000174946
7.47205e-05
7.10836e-06
5.58551e-06
1.46505e-05
3.93072e-05
8.04299e-05
3.99208e-05
5.15015e-06
4.67898e-06
1.15984e-05
2.72085e-05
5.64735e-05
3.26448e-05
4.85555e-06
4.5843e-06
1.03402e-05
2.36346e-05
4.81895e-05
2.78332e-05
4.90697e-06
4.75896e-06
1.10971e-05
2.35092e-05
4.58199e-05
2.85294e-05
5.14698e-06
5.19984e-06
1.10321e-05
2.37851e-05
4.75333e-05
2.61997e-05
6.16427e-06
7.03986e-06
2.11793e-05
4.27729e-05
1.76094e-05
7.8075e-06
3.91142e-06
4.76701e-06
2.01195e-05
3.76775e-05
3.50958e-05
1.83542e-05
5.73645e-06
3.18006e-06
6.16231e-06
1.43086e-05
3.01275e-05
2.17625e-05
3.81195e-06
4.268e-06
8.0681e-06
1.70571e-05
3.67775e-05
1.99045e-05
5.16219e-06
6.34721e-06
1.7661e-05
3.36661e-05
1.52639e-05
7.2357e-06
3.81756e-06
4.82858e-06
1.86969e-05
3.26631e-05
3.0812e-05
1.70344e-05
5.96822e-06
3.48233e-06
6.56883e-06
1.40742e-05
3.03162e-05
1.68897e-05
4.45198e-06
5.84555e-06
1.57103e-05
2.89217e-05
1.35766e-05
6.56172e-06
3.5542e-06
4.43894e-06
1.6789e-05
2.90969e-05
2.76964e-05
1.53322e-05
5.69291e-06
3.47087e-06
6.32518e-06
1.31138e-05
2.76116e-05
1.59295e-05
4.42431e-06
5.69627e-06
1.4778e-05
2.6674e-05
1.28381e-05
6.2329e-06
3.44488e-06
4.41859e-06
1.57171e-05
2.71075e-05
2.61761e-05
1.46835e-05
5.72724e-06
3.53077e-06
6.29188e-06
1.27695e-05
2.69118e-05
1.60262e-05
4.66231e-06
6.46136e-06
1.41428e-05
2.55149e-05
2.31847e-05
1.19705e-05
4.6674e-06
2.72366e-06
4.86353e-06
1.05917e-05
2.15622e-05
1.22496e-05
3.48384e-06
4.82538e-06
1.21961e-05
2.16883e-05
1.05485e-05
5.1825e-06
2.9645e-06
3.61687e-06
1.25794e-05
2.17238e-05
2.15592e-05
1.21893e-05
4.84346e-06
2.98905e-06
5.2807e-06
1.0522e-05
2.11367e-05
1.25599e-05
3.70224e-06
4.93423e-06
1.20224e-05
2.08396e-05
1.02519e-05
5.15911e-06
2.94068e-06
3.66473e-06
1.22364e-05
2.09339e-05
2.08159e-05
1.19076e-05
4.98481e-06
3.06453e-06
5.33982e-06
1.02414e-05
2.01002e-05
1.22271e-05
3.77534e-06
5.0756e-06
1.16664e-05
2.00228e-05
1.00232e-05
5.26902e-06
3.07074e-06
3.77823e-06
1.22044e-05
2.01101e-05
1.99383e-05
1.16563e-05
5.07191e-06
3.08822e-06
5.38298e-06
9.9216e-06
1.94125e-05
1.19346e-05
3.84039e-06
5.16477e-06
1.11955e-05
1.92797e-05
9.92286e-06
5.47403e-06
3.16629e-06
3.90791e-06
1.20656e-05
1.9438e-05
1.94454e-05
1.12724e-05
5.17311e-06
3.13913e-06
5.51634e-06
9.86953e-06
1.90294e-05
1.19236e-05
3.92449e-06
5.16187e-06
1.1025e-05
1.8674e-05
9.67406e-06
5.41897e-06
3.15268e-06
3.87432e-06
1.17395e-05
1.88559e-05
1.8478e-05
1.10536e-05
5.13888e-06
3.17805e-06
5.5361e-06
9.61768e-06
1.86466e-05
1.17059e-05
3.94788e-06
5.26856e-06
1.07946e-05
1.80056e-05
9.5021e-06
5.57407e-06
3.24846e-06
3.95788e-06
1.16631e-05
1.84835e-05
1.76292e-05
1.07297e-05
5.27787e-06
3.2282e-06
5.58032e-06
9.47789e-06
1.81753e-05
1.15071e-05
3.93864e-06
5.18096e-06
1.05978e-05
1.73577e-05
9.12996e-06
5.41038e-06
3.11718e-06
3.83199e-06
1.10375e-05
1.78374e-05
1.70116e-05
1.04176e-05
5.1945e-06
3.17517e-06
5.42653e-06
9.02648e-06
1.71937e-05
1.08817e-05
3.82132e-06
5.08797e-06
9.93386e-06
1.6348e-05
8.7628e-06
5.31077e-06
3.04289e-06
3.74698e-06
1.06819e-05
1.68512e-05
1.60644e-05
9.9473e-06
5.03042e-06
3.09398e-06
5.30637e-06
8.6655e-06
1.63046e-05
1.03989e-05
3.71924e-06
4.90009e-06
9.53677e-06
1.55988e-05
8.21528e-06
5.10718e-06
2.92488e-06
3.64907e-06
1.00167e-05
1.55835e-05
1.48152e-05
9.07332e-06
4.85214e-06
2.77025e-06
4.77432e-06
7.76427e-06
1.3195e-05
1.1137e-05
2.96731e-06
3.605e-06
5.421e-06
8.53333e-06
1.64999e-05
1.04154e-05
4.26545e-06
5.42888e-06
9.48813e-06
1.55219e-05
8.54349e-06
5.56097e-06
3.22778e-06
3.94808e-06
1.04044e-05
1.58645e-05
1.50925e-05
9.50223e-06
5.11615e-06
3.03001e-06
5.24005e-06
8.23941e-06
1.52979e-05
9.77933e-06
3.72239e-06
4.98721e-06
9.11311e-06
1.47011e-05
7.99224e-06
5.1322e-06
2.96311e-06
3.59371e-06
9.5779e-06
1.48519e-05
1.42104e-05
8.88167e-06
4.77084e-06
2.72905e-06
4.64588e-06
7.45707e-06
1.2728e-05
1.04864e-05
3.02029e-06
3.77287e-06
5.51776e-06
8.40533e-06
1.60441e-05
1.02285e-05
4.39419e-06
5.6192e-06
9.42638e-06
1.50775e-05
8.45471e-06
5.60278e-06
3.40045e-06
3.95157e-06
1.02287e-05
1.55536e-05
1.49508e-05
9.47725e-06
5.12331e-06
3.04783e-06
5.26033e-06
8.09297e-06
1.48589e-05
9.78906e-06
3.69074e-06
4.82127e-06
8.87018e-06
1.40737e-05
7.51226e-06
4.74489e-06
2.74997e-06
3.06888e-06
1.0721e-05
1.24973e-05
8.20666e-06
5.47965e-06
3.69542e-06
4.28652e-06
9.95301e-06
1.53983e-05
1.44164e-05
9.09249e-06
5.4355e-06
3.11908e-06
5.32864e-06
7.96733e-06
1.43057e-05
9.5183e-06
3.73304e-06
4.90543e-06
8.7487e-06
1.36275e-05
7.37031e-06
4.75104e-06
2.75962e-06
3.0505e-06
1.0479e-05
1.2075e-05
8.06841e-06
5.49069e-06
3.72846e-06
4.32339e-06
9.76192e-06
1.51235e-05
1.42283e-05
9.06342e-06
5.49478e-06
3.19998e-06
5.39506e-06
7.98549e-06
1.42736e-05
9.53168e-06
3.76838e-06
4.9611e-06
8.76634e-06
1.3594e-05
7.33279e-06
4.77477e-06
2.84731e-06
3.12054e-06
1.02427e-05
1.22515e-05
8.14871e-06
5.53229e-06
3.77771e-06
4.19694e-06
9.8366e-06
1.48977e-05
1.39186e-05
8.95466e-06
5.28695e-06
2.97859e-06
4.99925e-06
7.57997e-06
1.22242e-05
1.06759e-05
3.23142e-06
3.97465e-06
5.76637e-06
8.26363e-06
1.51606e-05
9.84238e-06
4.40687e-06
5.54702e-06
9.03637e-06
1.40648e-05
7.81645e-06
5.20882e-06
3.1389e-06
3.38702e-06
1.08061e-05
1.26632e-05
8.62277e-06
5.95213e-06
4.08011e-06
4.71688e-06
1.02023e-05
1.54578e-05
1.44717e-05
9.38928e-06
5.92396e-06
3.35282e-06
5.6554e-06
8.28042e-06
1.4308e-05
9.71169e-06
3.87554e-06
5.0407e-06
8.88078e-06
1.3688e-05
7.46921e-06
4.86805e-06
2.89992e-06
3.17345e-06
1.0372e-05
1.21188e-05
8.21594e-06
5.60498e-06
3.82142e-06
4.3386e-06
9.58309e-06
1.46685e-05
1.37332e-05
8.83721e-06
5.42266e-06
3.07615e-06
5.11981e-06
7.6227e-06
1.20955e-05
1.06038e-05
3.26252e-06
3.95347e-06
5.77069e-06
8.24351e-06
1.4588e-05
9.63252e-06
4.43765e-06
5.47754e-06
8.80388e-06
1.3582e-05
7.61681e-06
5.06521e-06
3.03363e-06
3.17916e-06
1.04498e-05
1.22231e-05
8.26708e-06
5.69228e-06
3.8643e-06
4.35867e-06
9.54811e-06
1.45005e-05
1.35628e-05
8.83907e-06
5.45472e-06
3.10502e-06
5.17821e-06
7.59299e-06
1.18739e-05
1.05771e-05
3.32118e-06
3.97136e-06
5.88257e-06
8.19331e-06
1.43302e-05
9.46524e-06
4.38549e-06
5.42356e-06
8.68765e-06
1.33786e-05
7.54509e-06
5.09599e-06
3.02715e-06
3.29596e-06
1.03066e-05
1.19478e-05
8.19982e-06
5.71148e-06
3.92315e-06
4.39779e-06
9.62175e-06
1.4232e-05
1.32728e-05
8.8698e-06
5.53104e-06
3.10099e-06
5.0877e-06
7.56232e-06
1.14421e-05
1.06011e-05
3.2477e-06
3.80825e-06
5.86133e-06
8.03722e-06
1.29045e-05
1.00534e-05
3.85127e-06
4.51916e-06
6.27343e-06
8.85334e-06
1.49592e-05
9.84796e-06
4.88755e-06
5.9598e-06
9.02895e-06
1.38937e-05
7.91206e-06
5.47427e-06
3.31034e-06
3.54773e-06
1.09175e-05
1.22214e-05
8.52643e-06
6.15556e-06
4.22999e-06
4.67301e-06
9.85412e-06
1.46188e-05
1.35904e-05
9.05194e-06
5.81077e-06
3.28483e-06
5.40784e-06
7.88943e-06
1.18286e-05
1.1003e-05
3.37184e-06
3.95011e-06
6.10816e-06
8.41305e-06
1.32027e-05
1.02101e-05
4.01374e-06
4.67959e-06
6.54416e-06
9.14359e-06
1.51938e-05
1.00109e-05
4.91839e-06
5.91414e-06
9.18346e-06
1.40974e-05
8.09311e-06
5.59601e-06
3.40285e-06
3.5786e-06
1.08669e-05
1.25246e-05
8.74905e-06
6.19167e-06
4.19826e-06
4.69623e-06
9.99621e-06
1.47085e-05
1.38162e-05
9.13243e-06
5.71967e-06