/*--------------------------------*- C++ -*----------------------------------*\
| =========                 |                                                 |
| \\      /  F ield         | OpenFOAM: The Open Source CFD Toolbox           |
|  \\    /   O peration     | Version:  v2006                                 |
|   \\  /    A nd           | Website:  www.openfoam.com                      |
|    \\/     M anipulation  |                                                 |
\*---------------------------------------------------------------------------*/
FoamFile
{
    version     2.0;
    format      ascii;
    class       volScalarField;
    location    "0.026";
    object      turbulenceProperties:I;
}
// * * * * * * * * * * * * * * * * * * * * * * * * * * * * * * * * * * * * * //

dimensions      [0 0 0 0 0 0 0];


internalField   nonuniform List<scalar> 
41981
(
0.150001
0.150002
0.150002
0.150001
0.150003
0.150001
0.149999
0.149999
0.149997
0.149996
0.149996
0.149997
0.149999
0.150003
0.150006
0.150009
0.150011
0.150012
0.150012
0.150012
0.150011
0.150011
0.15001
0.150009
0.150008
0.150008
0.150007
0.150007
0.150006
0.150006
0.150006
0.150005
0.150005
0.150005
0.150004
0.150004
0.150004
0.150004
0.150003
0.150003
0.150003
0.150003
0.150002
0.150002
0.150002
0.150002
0.150002
0.150002
0.150002
0.150002
0.150001
0.150001
0.150001
0.150001
0.150001
0.150001
0.150001
0.150001
0.150001
0.150001
0.150001
0.150001
0.150001
0.150001
0.150001
0.150001
0.150001
0.150001
0.150001
0.15
0.15
0.15
0.15
0.15
0.15
0.15
0.15
0.15
0.15
0.15
0.15
0.15
0.15
0.15
0.15
0.15
0.15
0.15
0.15
0.15
0.15
0.15
0.15
0.15
0.15
0.15
0.15
0.15
0.15
0.149999
0.149999
0.149999
0.149999
0.149999
0.149999
0.149999
0.149999
0.149999
0.149999
0.149999
0.149999
0.149999
0.149999
0.149999
0.149999
0.149999
0.149998
0.149998
0.149998
0.149998
0.149998
0.149998
0.149998
0.149998
0.149998
0.149997
0.149997
0.149997
0.149997
0.149997
0.149997
0.149996
0.149996
0.149995
0.149994
0.149994
0.149995
0.149997
0.150002
0.150008
0.150017
0.150026
0.150032
0.150031
0.150022
0.150007
0.15
0.149989
0.149973
0.149963
0.149959
0.149957
0.149956
0.149978
0.149995
0.149995
0.150008
0.150014
0.149838
0.1492
0.145171
0.139458
0.145533
0.148574
0.14524
0.137377
0.133294
0.128818
0.133117
0.142905
0.137733
0.125565
0.12382
0.120967
0.123349
0.135983
0.131435
0.117608
0.117448
0.115615
0.116458
0.130191
0.12677
0.11301
0.113389
0.112277
0.112407
0.125986
0.123235
0.110009
0.110679
0.110053
0.10993
0.12284
0.120626
0.108334
0.108947
0.108627
0.108444
0.120427
0.118565
0.107266
0.108245
0.108403
0.107497
0.118493
0.116889
0.106603
0.108306
0.108591
0.106901
0.116901
0.115486
0.10619
0.108588
0.108904
0.106511
0.115552
0.114272
0.105902
0.108932
0.10925
0.106227
0.114372
0.113195
0.105691
0.109292
0.109603
0.106017
0.113319
0.112227
0.105538
0.109651
0.109953
0.105862
0.112368
0.111353
0.105433
0.110006
0.110299
0.105753
0.111504
0.110557
0.105366
0.110358
0.110642
0.105683
0.110715
0.109827
0.105333
0.110705
0.110982
0.105646
0.109992
0.10916
0.105331
0.111048
0.111318
0.105639
0.109331
0.108553
0.105355
0.111386
0.11165
0.10566
0.10873
0.108005
0.105406
0.111721
0.11198
0.105706
0.108187
0.107509
0.105479
0.112053
0.112306
0.105777
0.107696
0.107061
0.105574
0.112382
0.112631
0.105868
0.107252
0.106655
0.105686
0.112708
0.112953
0.105976
0.106849
0.106288
0.105814
0.113032
0.113272
0.106101
0.106484
0.105955
0.105955
0.113352
0.113589
0.106237
0.106153
0.105655
0.106106
0.11367
0.113903
0.106385
0.105854
0.105383
0.106268
0.113985
0.114215
0.106543
0.105584
0.10514
0.106439
0.114298
0.114526
0.106711
0.105342
0.104924
0.106619
0.11461
0.114836
0.106889
0.105126
0.104733
0.106807
0.11492
0.115145
0.107075
0.104936
0.104566
0.107005
0.11523
0.115453
0.10727
0.104771
0.104423
0.10721
0.115539
0.115761
0.107474
0.10463
0.104303
0.107424
0.115849
0.11607
0.107687
0.104511
0.104205
0.107647
0.116159
0.11638
0.107909
0.104414
0.104127
0.107877
0.11647
0.116692
0.108139
0.104338
0.104069
0.108116
0.116783
0.117005
0.108377
0.104281
0.10403
0.108362
0.117097
0.11732
0.108623
0.104243
0.104008
0.108615
0.117414
0.117638
0.108877
0.104223
0.104002
0.108875
0.117732
0.117958
0.109138
0.104219
0.104012
0.109141
0.118054
0.118281
0.109405
0.104231
0.104037
0.109415
0.118379
0.118608
0.10968
0.104257
0.104076
0.109694
0.118707
0.118938
0.109961
0.104298
0.104128
0.10998
0.119038
0.119273
0.110249
0.104352
0.104194
0.110273
0.119374
0.119611
0.110544
0.104419
0.104271
0.110572
0.119715
0.119955
0.110846
0.104499
0.104361
0.110878
0.12006
0.120304
0.111155
0.104592
0.104464
0.111191
0.12041
0.120658
0.111472
0.104698
0.10458
0.111512
0.120767
0.121019
0.111797
0.104816
0.104709
0.111841
0.121129
0.121386
0.112131
0.104949
0.104852
0.11218
0.121499
0.121762
0.112472
0.105096
0.105009
0.112525
0.121877
0.122143
0.112818
0.105257
0.10518
0.112876
0.122263
0.122531
0.113172
0.105432
0.105366
0.113238
0.122657
0.122929
0.113538
0.105623
0.105567
0.113612
0.123062
0.123336
0.113916
0.105829
0.105784
0.113999
0.123476
0.123754
0.114309
0.106052
0.106018
0.114401
0.1239
0.124182
0.114717
0.106293
0.10627
0.114817
0.124335
0.124621
0.11514
0.106551
0.106539
0.115249
0.124781
0.125072
0.115579
0.106828
0.106827
0.115696
0.125238
0.125535
0.116034
0.107124
0.107134
0.11616
0.125708
0.12601
0.116506
0.107439
0.107459
0.116639
0.126189
0.126498
0.116994
0.107774
0.107805
0.117135
0.126683
0.126999
0.117499
0.108129
0.108171
0.117648
0.127191
0.127514
0.118022
0.108505
0.108559
0.118179
0.127713
0.128044
0.118564
0.108904
0.108968
0.118728
0.128249
0.128589
0.119126
0.109324
0.1094
0.119297
0.128801
0.129149
0.119709
0.109768
0.109855
0.119887
0.129368
0.129727
0.120312
0.110235
0.110334
0.120497
0.129951
0.130321
0.120938
0.110727
0.110838
0.121129
0.130552
0.130933
0.121586
0.111245
0.111366
0.121784
0.13117
0.131562
0.122258
0.111788
0.111921
0.122461
0.131805
0.13221
0.122954
0.112357
0.112501
0.123162
0.132459
0.132877
0.123674
0.112953
0.113108
0.123888
0.133131
0.133563
0.124419
0.113576
0.113742
0.124637
0.133821
0.134267
0.125189
0.114226
0.114403
0.125411
0.13453
0.134991
0.125985
0.114904
0.115091
0.126209
0.135258
0.135733
0.126805
0.115609
0.115806
0.127032
0.136003
0.136494
0.12765
0.11634
0.116546
0.127877
0.136766
0.137272
0.128518
0.117097
0.117312
0.128745
0.137545
0.138066
0.129408
0.11788
0.118101
0.129634
0.138339
0.138875
0.130319
0.118686
0.118913
0.130543
0.139147
0.139698
0.131249
0.119513
0.119745
0.131468
0.139965
0.14053
0.132194
0.120359
0.120595
0.132408
0.140793
0.14137
0.133152
0.121221
0.121458
0.133357
0.141625
0.142214
0.134118
0.122095
0.12233
0.134312
0.142459
0.143056
0.135086
0.122975
0.123206
0.135267
0.143288
0.143892
0.136049
0.123857
0.124082
0.136215
0.144109
0.144716
0.137002
0.124734
0.124949
0.137148
0.144913
0.14552
0.137935
0.125598
0.125801
0.13806
0.145697
0.146292
0.138839
0.126443
0.126628
0.138941
0.146454
0.147027
0.139704
0.127257
0.127419
0.139778
0.147172
0.147717
0.140513
0.128029
0.128162
0.140554
0.147842
0.148352
0.141252
0.128745
0.128843
0.141256
0.148451
0.14892
0.141907
0.129391
0.129448
0.141872
0.148992
0.149413
0.142469
0.129955
0.129964
0.142391
0.149456
0.149821
0.142923
0.130422
0.130379
0.142798
0.149832
0.150137
0.143257
0.13078
0.130679
0.14308
0.150115
0.150353
0.143459
0.131018
0.130854
0.143228
0.150297
0.150466
0.143519
0.131124
0.130896
0.143231
0.150375
0.150471
0.14343
0.131092
0.130795
0.143087
0.150339
0.150347
0.143184
0.130919
0.130552
0.142756
0.150197
0.150115
0.142749
0.130598
0.130159
0.142244
0.149939
0.149777
0.14214
0.130127
0.129617
0.141571
0.149591
0.149363
0.141378
0.12951
0.128936
0.14076
0.149138
0.148863
0.140486
0.128759
0.128129
0.139831
0.148611
0.148299
0.139486
0.127887
0.127213
0.138804
0.148026
0.147683
0.138396
0.126915
0.126207
0.137686
0.147386
0.147024
0.137221
0.125858
0.125126
0.136496
0.146717
0.146344
0.13599
0.124734
0.123991
0.135274
0.146036
0.145652
0.13474
0.123568
0.122826
0.13405
0.14535
0.144978
0.133498
0.12238
0.121645
0.132833
0.144673
0.144311
0.132263
0.121178
0.120457
0.131627
0.144
0.143651
0.131042
0.119974
0.119273
0.130437
0.143345
0.143024
0.12986
0.118786
0.11812
0.129301
0.142735
0.142441
0.128742
0.117638
0.117014
0.128239
0.142171
0.141903
0.127704
0.116545
0.115966
0.127259
0.141651
0.141406
0.126746
0.115513
0.114985
0.12636
0.141173
0.140952
0.125872
0.114551
0.114073
0.125546
0.140739
0.140546
0.125085
0.113661
0.113231
0.124793
0.140355
0.140178
0.124368
0.112851
0.112456
0.124112
0.140011
0.139852
0.123728
0.112111
0.111751
0.123511
0.139709
0.139567
0.123168
0.111441
0.111116
0.122989
0.139446
0.139321
0.122685
0.110842
0.110552
0.122543
0.139221
0.139111
0.122276
0.110313
0.110057
0.122168
0.13903
0.138934
0.121937
0.109851
0.109629
0.121857
0.138871
0.138787
0.121664
0.109454
0.109264
0.121609
0.138738
0.138665
0.121449
0.109118
0.108958
0.121418
0.138628
0.138566
0.121283
0.108839
0.108706
0.121274
0.138538
0.138486
0.121161
0.108611
0.108503
0.121171
0.138467
0.138422
0.121076
0.108429
0.108343
0.121105
0.138411
0.138373
0.121026
0.108288
0.108222
0.12107
0.138369
0.138336
0.121005
0.108183
0.108134
0.121063
0.138338
0.13831
0.121009
0.10811
0.108076
0.121078
0.138316
0.138291
0.121032
0.108065
0.108044
0.121111
0.138301
0.138279
0.121072
0.108042
0.108031
0.121159
0.138292
0.138271
0.121123
0.108038
0.108036
0.121217
0.138286
0.138265
0.121183
0.108048
0.108053
0.121283
0.138282
0.138262
0.121249
0.10807
0.10808
0.121351
0.13828
0.13826
0.121318
0.1081
0.108114
0.12142
0.138279
0.138258
0.121388
0.108135
0.108151
0.12149
0.138277
0.138256
0.121456
0.108173
0.108189
0.121557
0.138275
0.138253
0.121521
0.10821
0.108227
0.12162
0.138271
0.138248
0.121581
0.108246
0.108261
0.121677
0.138267
0.138242
0.121636
0.108278
0.108292
0.121729
0.13826
0.138234
0.121684
0.108305
0.108316
0.121773
0.138252
0.138224
0.121724
0.108326
0.108334
0.12181
0.138242
0.138213
0.121757
0.108339
0.108344
0.121839
0.13823
0.138199
0.121782
0.108344
0.108346
0.12186
0.138215
0.138183
0.121799
0.108341
0.108339
0.121872
0.138199
0.138166
0.121807
0.108329
0.108322
0.121877
0.138181
0.138147
0.121806
0.108307
0.108296
0.121872
0.13816
0.138125
0.121797
0.108274
0.108259
0.121858
0.138136
0.138099
0.121777
0.108231
0.108211
0.121834
0.138108
0.138067
0.121746
0.108175
0.108149
0.121797
0.138073
0.138026
0.121699
0.108104
0.108067
0.121741
0.138024
0.137954
0.121622
0.108007
0.107953
0.121641
0.137918
0.137584
0.121522
0.107831
0.107735
0.121283
0.137459
0.137249
0.120926
0.107549
0.107179
0.120432
0.136754
0.135312
0.119145
0.1064
0.1061
0.118675
0.133896
0.132656
0.117866
0.105605
0.105167
0.117272
0.13138
0.130257
0.116616
0.104741
0.102567
0.105646
0.112768
0.119844
0.126613
0.131865
0.136018
0.139576
0.142559
0.145212
0.147515
0.149579
0.151395
0.153027
0.154461
0.155742
0.156857
0.157836
0.158666
0.159367
0.159928
0.16036
0.160651
0.160805
0.16081
0.160661
0.160342
0.159842
0.159138
0.15821
0.157025
0.155539
0.153727
0.151539
0.148936
0.145888
0.142322
0.138473
0.134081
0.128419
0.122648
0.118802
0.112597
0.109266
0.112656
0.120181
0.136151
0.160461
0.161051
0.13639
0.120508
0.120752
0.136894
0.161829
0.161997
0.137407
0.121387
0.121481
0.137496
0.162278
0.162396
0.137747
0.121732
0.121812
0.137985
0.162516
0.162912
0.138008
0.121986
0.122163
0.138023
0.163105
0.163193
0.138162
0.122141
0.122287
0.138357
0.163233
0.16319
0.138346
0.122299
0.122377
0.138405
0.163221
0.163196
0.138389
0.122386
0.122462
0.138444
0.163205
0.163183
0.138425
0.12247
0.122547
0.138481
0.163191
0.163165
0.138461
0.122553
0.12263
0.138516
0.16317
0.163144
0.138495
0.122636
0.122714
0.138552
0.16315
0.163123
0.13853
0.122719
0.122798
0.138586
0.163127
0.163099
0.138564
0.122803
0.122884
0.138622
0.163104
0.163075
0.138599
0.122889
0.12297
0.138656
0.163078
0.16305
0.138633
0.122976
0.123059
0.138693
0.163054
0.163024
0.138669
0.123065
0.123149
0.138728
0.163027
0.162998
0.138705
0.123155
0.123242
0.138766
0.163003
0.162971
0.138742
0.123248
0.123336
0.138803
0.162975
0.162944
0.138779
0.123343
0.123432
0.138842
0.162949
0.162918
0.138819
0.123439
0.123531
0.138882
0.162921
0.16289
0.138858
0.123538
0.123632
0.138923
0.162895
0.162863
0.1389
0.12364
0.123735
0.138965
0.162867
0.162835
0.138941
0.123743
0.123841
0.139009
0.162841
0.162808
0.138985
0.12385
0.123949
0.139053
0.162812
0.16278
0.139029
0.123958
0.12406
0.139099
0.162786
0.162752
0.139075
0.12407
0.124173
0.139146
0.162757
0.162724
0.139122
0.124183
0.124289
0.139195
0.16273
0.162696
0.139171
0.1243
0.124408
0.139245
0.162701
0.162668
0.139221
0.124419
0.12453
0.139297
0.162674
0.16264
0.139273
0.124541
0.124653
0.13935
0.162645
0.162611
0.139326
0.124666
0.124781
0.139406
0.162618
0.162583
0.139382
0.124793
0.12491
0.139463
0.162589
0.162554
0.139439
0.124923
0.125043
0.139522
0.162562
0.162526
0.139498
0.125057
0.125179
0.139583
0.162533
0.162498
0.139559
0.125193
0.125318
0.139646
0.162506
0.16247
0.139623
0.125332
0.125458
0.139711
0.162478
0.162442
0.139687
0.125473
0.125603
0.139779
0.162451
0.162414
0.139755
0.125617
0.125749
0.139847
0.162423
0.162386
0.139824
0.125764
0.125898
0.13992
0.162397
0.162359
0.139896
0.125913
0.126049
0.139993
0.162369
0.162331
0.139969
0.126064
0.126203
0.14007
0.162343
0.162305
0.140045
0.126217
0.126358
0.140148
0.162316
0.162277
0.140123
0.126371
0.126515
0.140229
0.162291
0.162251
0.140205
0.126528
0.126673
0.140313
0.162264
0.162225
0.140288
0.126685
0.126833
0.140399
0.16224
0.162199
0.140374
0.126844
0.126992
0.140488
0.162214
0.162174
0.140462
0.127002
0.127151
0.14058
0.162191
0.162149
0.140553
0.127159
0.127309
0.140673
0.162166
0.162125
0.140646
0.127315
0.127465
0.140769
0.162143
0.162101
0.140741
0.127468
0.127617
0.140867
0.16212
0.162078
0.140839
0.127617
0.127765
0.140969
0.162099
0.162056
0.140939
0.12776
0.127905
0.141073
0.162078
0.162036
0.141043
0.127896
0.128038
0.141183
0.162061
0.162019
0.141153
0.128022
0.128158
0.1413
0.162046
0.162005
0.141271
0.128134
0.128262
0.141428
0.162038
0.161998
0.1414
0.128228
0.128342
0.141569
0.162037
0.162
0.141544
0.128294
0.128387
0.141726
0.162048
0.162015
0.141703
0.12832
0.128379
0.141894
0.16207
0.162045
0.141871
0.128286
0.128295
0.142061
0.162108
0.162088
0.142032
0.128162
0.128096
0.142196
0.162155
0.162142
0.142144
0.12791
0.127738
0.142236
0.162195
0.162189
0.142133
0.127478
0.127194
0.142071
0.162184
0.162171
0.141865
0.126792
0.126396
0.141586
0.162145
0.162075
0.14118
0.125791
0.125244
0.140609
0.161969
0.161783
0.139774
0.124437
0.123741
0.138906
0.161604
0.161295
0.137701
0.122762
0.121937
0.136491
0.16099
0.160614
0.13494
0.120811
0.119862
0.13341
0.160124
0.159549
0.131496
0.118613
0.117574
0.129666
0.158971
0.158263
0.127452
0.116254
0.1152
0.125385
0.157624
0.156845
0.122906
0.113859
0.112722
0.120545
0.155873
0.154378
0.118466
0.111468
0.110346
0.116767
0.152938
0.151786
0.11436
0.109266
0.108435
0.111252
0.150769
0.149767
0.108891
0.107553
0.107232
0.107337
0.148469
0.147466
0.106183
0.106792
0.106561
0.104527
0.14654
0.145279
0.103438
0.106345
0.106812
0.102498
0.143869
0.143093
0.102677
0.106731
0.107417
0.102116
0.142184
0.141014
0.102175
0.107418
0.108912
0.102126
0.139616
0.137538
0.103896
0.109841
0.112256
0.107077
0.134871
0.132791
0.109186
0.114004
0.11637
0.113014
0.130564
0.158761
0.0990571
0.0916441
0.107713
0.106314
0.149739
0.150894
0.1025
0.105095
0.104538
0.100384
0.150992
0.150587
0.0995123
0.104564
0.103239
0.0974269
0.149621
0.148856
0.0965739
0.103394
0.102502
0.0951613
0.14733
0.145783
0.0953432
0.103796
0.103398
0.0944168
0.144589
0.143197
0.0962782
0.105492
0.105912
0.0962565
0.140795
0.137029
0.100421
0.109758
0.112144
0.102883
0.133273
0.130552
0.10831
0.116648
0.0874449
0.0921118
0.154165
0.146547
0.0996947
0.107147
0.106316
0.0975264
0.145905
0.144813
0.0999034
0.110505
0.110661
0.0991643
0.143074
0.142131
0.101143
0.113574
0.114306
0.101632
0.140092
0.137912
0.103433
0.11704
0.11942
0.104622
0.135255
0.133036
0.110065
0.123369
0.125415
0.113897
0.131954
0.152265
0.0920841
0.0888841
0.111837
0.0993831
0.145431
0.145702
0.0960759
0.110371
0.113356
0.0987714
0.145178
0.142599
0.100653
0.115872
0.116572
0.101319
0.1409
0.138875
0.106954
0.122294
0.125232
0.110073
0.136106
0.134416
0.11768
0.130821
0.0932134
0.0931725
0.151301
0.145186
0.103187
0.12053
0.121759
0.103123
0.143106
0.14104
0.10856
0.129493
0.13178
0.110547
0.138852
0.137645
0.115309
0.137754
0.141864
0.120324
0.136978
0.136947
0.12805
0.144902
0.10116
0.0984662
0.149512
0.144403
0.109016
0.132645
0.134907
0.109917
0.143036
0.141707
0.117786
0.142431
0.145679
0.121837
0.140188
0.141568
0.134918
0.153483
0.10722
0.100291
0.15231
0.145401
0.115167
0.143169
0.146467
0.116956
0.143638
0.143328
0.126411
0.158433
0.162575
0.130127
0.142452
0.143902
0.143097
0.172624
0.176193
0.151389
0.146952
0.15086
0.110579
0.123736
0.166844
0.130452
0.147411
0.146484
0.13373
0.170483
0.186736
0.153676
0.149601
0.154188
0.165042
0.194114
0.141066
0.117861
0.153625
0.149775
0.147445
0.191019
0.199388
0.156454
0.15206
0.158854
0.180047
0.218871
0.224967
0.191611
0.164682
0.155741
0.135565
0.168904
0.226473
0.178662
0.160093
0.166549
0.190244
0.237381
0.25536
0.21833
0.177753
0.16108
0.150713
0.198222
0.268188
0.210266
0.172885
0.183305
0.231631
0.287618
0.316873
0.272601
0.203618
0.178681
0.194045
0.261715
0.34772
0.286196
0.202954
0.224533
0.318784
0.377737
0.329529
0.238418
0.198356
0.240214
0.370476
0.444495
0.511668
0.436316
0.281139
0.242735
0.355023
0.485835
0.678078
0.577207
0.349856
0.471017
0.793177
0.912633
1
0.803811
0.415939
1
1
1
1
1
1
0.840707
1
1
0.715635
0.646699
0.399163
0.252889
0.405982
0.46948
0.355755
0.306216
0.200375
0.182573
0.260764
0.29905
0.272359
0.25612
0.193875
0.158894
0.177808
0.21951
0.223325
0.204494
0.167931
0.150024
0.152511
0.177594
0.192318
0.175596
0.153986
0.142869
0.136158
0.153296
0.173418
0.156268
0.147993
0.140072
0.12794
0.1404
0.15856
0.143476
0.140937
0.137761
0.121658
0.131856
0.148706
0.131352
0.133048
0.130133
0.122728
0.139434
0.109359
0.104413
0.134228
0.128416
0.112604
0.130319
0.120965
0.107454
0.127728
0.134902
0.0966746
0.0962821
0.115441
0.104447
0.12705
0.132304
0.095316
0.097633
0.115266
0.100494
0.120388
0.12233
0.0967314
0.107192
0.0884299
0.0910594
0.131661
0.119688
0.09514
0.105294
0.0990443
0.0916634
0.121635
0.131708
0.0871776
0.0833712
0.0980957
0.089397
0.117137
0.121312
0.0869913
0.0930482
0.0797635
0.0844708
0.132342
0.114714
0.0852419
0.0925022
0.0876607
0.0830127
0.118875
0.13166
0.0825836
0.0765367
0.0874012
0.0815586
0.114155
0.11875
0.0805206
0.0837844
0.0737775
0.0806727
0.13114
0.111722
0.0782539
0.0835001
0.080343
0.0782268
0.116743
0.130782
0.0787707
0.0718759
0.0810312
0.0765972
0.110708
0.115183
0.0750897
0.0757738
0.0737056
0.0765978
0.122443
0.137028
0.0785633
0.0696137
0.0718511
0.0706431
0.112507
0.119723
0.0716816
0.0705972
0.0651749
0.0756413
0.135098
0.110842
0.0682001
0.0695469
0.0683504
0.0704779
0.1181
0.134735
0.0739466
0.0640594
0.0666921
0.0660194
0.109719
0.117079
0.0689391
0.0658845
0.0626808
0.0732441
0.134401
0.109184
0.0659856
0.0658695
0.0646829
0.0669876
0.116203
0.133415
0.0741496
0.0616071
0.0627871
0.0646608
0.108484
0.115588
0.0654468
0.0622344
0.0601689
0.0742367
0.131613
0.107933
0.0640891
0.0622409
0.0613511
0.0645267
0.115276
0.132089
0.0740687
0.0596857
0.0599816
0.0626856
0.108004
0.115647
0.0635793
0.0595827
0.0584955
0.0733839
0.131791
0.106622
0.0615674
0.0590405
0.0586088
0.0628366
0.114424
0.130721
0.0732754
0.0578817
0.0578148
0.060731
0.107335
0.115152
0.0616875
0.0570592
0.0571034
0.07405
0.131443
0.107153
0.0606088
0.0574354
0.055953
0.0608203
0.114354
0.130795
0.0729539
0.0563879
0.0562654
0.0595058
0.106398
0.113846
0.0599006
0.0544789
0.0558088
0.0734689
0.130127
0.107077
0.0592687
0.0558821
0.053788
0.0596905
0.11512
0.130715
0.0743354
0.0555065
0.0548164
0.0586405
0.106037
0.113463
0.0590318
0.0526402
0.0546327
0.0734797
0.130315
0.106625
0.0580097
0.0542821
0.0518298
0.05782
0.114317
0.130238
0.0743499
0.054181
0.0529668
0.0572817
0.106605
0.115329
0.0581233
0.0510011
0.0532726
0.0741162
0.131128
0.106521
0.0564381
0.0523029
0.0498096
0.0563951
0.114466
0.130546
0.0737773
0.052372
0.0508167
0.055351
0.106563
0.115119
0.0561823
0.048767
0.051725
0.0740155
0.131539
0.106574
0.0548015
0.0501657
0.0483319
0.0568333
0.115804
0.133597
0.075039
0.0523754
0.047785
0.051476
0.107771
0.12318
0.0657468
0.0485721
0.0481981
0.0512846
0.101307
0.110098
0.0534804
0.0464475
0.04973
0.0715614
0.127111
0.104935
0.0529139
0.0483545
0.046569
0.0544811
0.11338
0.130106
0.0736943
0.0501118
0.0481213
0.0535178
0.105477
0.114202
0.0544577
0.0463167
0.0497904
0.0734272
0.130086
0.105781
0.0526737
0.0474765
0.0455348
0.0533664
0.114679
0.131085
0.0748409
0.0502069
0.0456277
0.0490614
0.106515
0.122292
0.0647427
0.0469289
0.04624
0.0496959
0.100818
0.109257
0.0515763
0.0447242
0.0486925
0.0726601
0.12589
0.104341
0.052515
0.0471764
0.0454357
0.0532194
0.112214
0.128018
0.0728841
0.0493177
0.0469781
0.0518524
0.104583
0.113681
0.0535879
0.0452681
0.0500406
0.0749422
0.130324
0.107263
0.0487613
0.0454866
0.047032
0.0654192
0.122819
0.100417
0.0491683
0.0458121
0.0442959
0.0522606
0.109446
0.127304
0.0731093
0.0489198
0.0462779
0.0517228
0.103781
0.112644
0.0535509
0.0446092
0.0497797
0.0748939
0.128908
0.106134
0.0479542
0.0446907
0.0461296
0.0645132
0.121874
0.100496
0.0483175
0.0448094
0.0432232
0.0507417
0.109229
0.125479
0.0725469
0.0479315
0.0452135
0.0507323
0.103379
0.112233
0.0522226
0.0438144
0.0494702
0.075504
0.128899
0.107042
0.0489517
0.044722
0.0464265
0.0651312
0.122361
0.100412
0.0482439
0.0446653
0.0429151
0.0505801
0.108952
0.126433
0.073126
0.0486209
0.0436084
0.0473154
0.103105
0.118737
0.0653914
0.0457855
0.0443023
0.0480114
0.0989649
0.107788
0.0503772
0.0428339
0.048582
0.0738322
0.123733
0.10431
0.0479059
0.0439116
0.0460604
0.0650273
0.119179
0.098642
0.0481282
0.0443589
0.0431507
0.0514992
0.107458
0.122174
0.0728409
0.0481316
0.0446462
0.0502333
0.101711
0.110438
0.0519583
0.0432133
0.0490951
0.0749852
0.126499
0.105724
0.0475764
0.0438966
0.0459533
0.06492
0.12084
0.100366
0.0475032
0.0435983
0.0421447
0.0501524
0.108932
0.125982
0.0733305
0.0484462
0.0431953
0.0474636
0.104149
0.119182
0.0653435
0.0458213
0.0435842
0.0476651
0.10023
0.108635
0.0507494
0.0422439
0.0481983
0.073288
0.125288
0.104161
0.0475773
0.0429189
0.0453337
0.0645274
0.119055
0.0988844
0.0467767
0.0428443
0.0413871
0.0493642
0.107361
0.12434
0.0726829
0.0480745
0.0427013
0.0466548
0.103418
0.118348
0.0650836
0.0455953
0.0428912
0.046795
0.0986592
0.107879
0.0501889
0.0417438
0.0482589
0.0739789
0.12397
0.105126
0.0474619
0.0431047
0.0456835
0.0646897
0.120174
0.098329
0.0467584
0.042796
0.0413371
0.049382
0.106779
0.12216
0.0738563
0.048203
0.0424711
0.0462223
0.102321
0.118191
0.0673438
0.0466588
0.041927
0.0435697
0.0973078
0.112436
0.063608
0.0448747
0.0423017
0.0456626
0.0938535
0.102819
0.0499505
0.0414102
0.0480698
0.0725099
0.119579
0.10075
0.04683
0.0428354
0.0459081
0.0653951
0.115439
0.0968774
0.0467917
0.0428844
0.0418071
0.0503906
0.105685
0.121418
0.0731624
0.0485959
0.0430567
0.0465058
0.101667
0.116806
0.0666257
0.0468885
0.0420161
0.0439649
0.0978467
0.111982
0.0632538
0.0450308
0.0422552
0.0457403
0.0948792
0.103119
0.0491904
0.0411168
0.047949
0.0718506
0.119349
0.102414
0.046787
0.0425558
0.0454513
0.0643605
0.116243
0.0967059
0.0461231
0.0422646
0.0412146
0.0495472
0.105293
0.120696
0.0733254
0.048249
0.0425551
0.0467766
0.102257
0.117305
0.0672463
0.0469254
0.0419305
0.0438096
0.0970645
0.111238
0.0627737
0.0449051
0.0418365
0.0452311
0.0927777
0.101323
0.0489325
0.0408475
0.0477981
0.0725352
0.11683
0.0994644
0.0463303
0.0422484
0.0456009
0.0650822
0.114101
0.0951313
0.0457867
0.0418957
0.0409704
0.0497904
0.103771
0.120033
0.0725093
0.0484844
0.0423239
0.0456584
0.102012
0.117069
0.0667194
0.0468809
0.0415203
0.0436478
0.0967062
0.111382
0.0642282
0.0451115
0.0417624
0.0458956
0.0951379
0.103966
0.049326
0.0408575
0.0485552
0.0737651
0.118561
0.101161
0.0457618
0.0419787
0.0462973
0.0653885
0.116486
0.0981615
0.0425824
0.0408933
0.044286
0.0625543
0.111915
0.0940871
0.0446547
0.0408743
0.0398903
0.0481516
0.102291
0.118273
0.0717365
0.0479845
0.0415395
0.0448753
0.101127
0.115869
0.0653828
0.0461011
0.0406822
0.0422527
0.0968887
0.11112
0.0634614
0.0450145
0.040389
0.0423715
0.0943633
0.108133
0.0628387
0.0441843
0.040953
0.0446994
0.0912801
0.099807
0.0489082
0.0403578
0.0481248
0.0715034
0.115511
0.0979652
0.0459243
0.0416442
0.0462704
0.06589
0.112641
0.0949986
0.0430878
0.0408734
0.0444161
0.062329
0.108809
0.0916379
0.0445079
0.0409581
0.0400891
0.0480557
0.0999159
0.114873
0.0723838
0.0479401
0.0412214
0.0458336
0.0976936
0.112583
0.0654031
0.0462267
0.0407429
0.0425177
0.0954399
0.109048
0.0621206
0.0445254
0.0407703
0.0442465
0.0916272
0.0999271
0.0482681
0.0400749
0.0483417
0.0730811
0.11453
0.0992438
0.0456127
0.0414431
0.0467606
0.0659572
0.114709
0.0957973
0.0424043
0.0405623
0.0452215
0.062989
0.109799
0.092332
0.0416752
0.0399572
0.0440173
0.062173
0.106027
0.0895081
0.0438475
0.0401252
0.0394142
0.0480283
0.0975779
0.11288
0.0704902
0.04773
0.0408313
0.0447403
0.0970913
0.111764
0.0648491
0.0461658
0.0400504
0.0420542
0.0939631
0.107852
0.0626762
0.0449998
0.0398697
0.0419554
0.0916051
0.104852
0.0622196
0.0440087
0.040093
0.0439098
0.0886706
0.097178
0.0484455
0.0395917
0.0480264
0.0715092
0.1121
0.0966877
0.0454612
0.0410198
0.0464447
0.0647904
0.111314
0.0939525
0.042282
0.0401496
0.0446109
0.0627423
0.10672
0.0893516
0.0437339
0.0399013
0.0392219
0.0475594
0.0978293
0.112872
0.0716679
0.0475846
0.0401643
0.0449974
0.0964192
0.110967
0.0650572
0.0459672
0.0393358
0.0413006
0.0936452
0.107974
0.0623253
0.0446137
0.0389666
0.040806
0.0916402
0.105278
0.0616999
0.0441486
0.0390378
0.0414088
0.0896442
0.10252
0.061501
0.0436076
0.0393714
0.0435794
0.0877092
0.0955898
0.0477991
0.0388992
0.0478213
0.0703643
0.111042
0.0951633
0.0450703
0.0403549
0.0461442
0.0645611
0.10964
0.0931196
0.0417154
0.0394911
0.0447148
0.0622917
0.106422
0.0900491
0.0414338
0.0389866
0.0437291
0.0615539
0.10274
0.0877731
0.0433231
0.038997
0.0384108
0.046794
0.0953544
0.110155
0.0697527
0.0471955
0.0398535
0.0439865
0.0944797
0.109129
0.0640568
0.0457082
0.0389112
0.0412741
0.0918823
0.105375
0.0614046
0.0443251
0.0384775
0.0406284
0.0898926
0.10258
0.0610315
0.0434321
0.03862
0.0429403
0.0871564
0.0950565
0.0471876
0.0381836
0.047434
0.0705149
0.109455
0.0949775
0.0443288
0.0398563
0.045875
0.0640074
0.109595
0.0933196
0.0412865
0.0387292
0.0446089
0.0621534
0.106917
0.0903158
0.0406254
0.0382612
0.0439029
0.0613714
0.103633
0.0884775
0.0408465
0.0379312
0.0430002
0.0607074
0.101271
0.0860183
0.0425507
0.0380911
0.0375914
0.0465725
0.0936204
0.108054
0.0689468
0.0467127
0.0391627
0.0439323
0.0935543
0.107837
0.0630858
0.0451749
0.0382388
0.0405474
0.0911198
0.10426
0.0611852
0.0440262
0.0378767
0.0405885
0.0890332
0.101619
0.0608291
0.0432702
0.0378552
0.0428362
0.0869947
0.0947595
0.0469668
0.0375344
0.047314
0.0695193
0.110115
0.0943919
0.0437009
0.0390519
0.0454168
0.0635653
0.109226
0.0920143
0.0406991
0.0379408
0.0440203
0.0613118
0.105432
0.0899372
0.0398453
0.0373141
0.0432958
0.0608262
0.102936
0.0874526
0.0401195
0.0370759
0.0425751
0.0603404
0.100219
0.0856749
0.0420575
0.037107
0.0366813
0.046008
0.0930795
0.107852
0.06882
0.0463853
0.0385259
0.0432461
0.0923501
0.106738
0.0628647
0.0448607
0.0374913
0.0400047
0.0902103
0.103398
0.0604524
0.0435018
0.0370269
0.0396063
0.0886399
0.101501
0.0602946
0.0431289
0.0369629
0.0400533
0.0865435
0.0988704
0.0599108
0.0426441
0.0370331
0.0422175
0.0850169
0.0930315
0.0464598
0.0368048
0.0468
0.0696742
0.107037
0.0926584
0.0433193
0.0383639
0.0449319
0.0636514
0.106814
0.0902259
0.0400183
0.0373473
0.0436538
0.0608698
0.103211
0.087742
0.0393798
0.036729
0.0429178
0.0602238
0.100879
0.0862352
0.0398163
0.0365605
0.0421872
0.0594696
0.0984997
0.0842401
0.0415302
0.0364657
0.0361448
0.045449
0.0918229
0.105505
0.0683151
0.0459574
0.037811
0.042918
0.0906749
0.104631
0.0627158
0.0444529
0.0370033
0.0397501
0.0883926
0.10163
0.0603742
0.043203
0.0365794
0.0394576
0.0872553
0.0996372
0.0594781
0.042791
0.0364237
0.0393237
0.0853216
0.0977664
0.0590623
0.0424793
0.0364361
0.0397078
0.0838085
0.0953259
0.0588411
0.0420948
0.0364613
0.0416235
0.081801
0.089056
0.0457406
0.0363165
0.0462565
0.0673716
0.103207
0.0892931
0.0431962
0.0380598
0.0445679
0.0616102
0.10307
0.0879181
0.0396133
0.037072
0.04327
0.06002
0.100626
0.085626
0.0395561
0.0365604
0.0428203
0.0595714
0.0978921
0.0835499
0.0397942
0.0363132
0.0420881
0.0589768
0.095371
0.0817992
0.0413587
0.0361758
0.0359709
0.045207
0.0889286
0.102459
0.0666095
0.04589
0.0376022
0.0424289
0.0884249
0.102372
0.0617419
0.044234
0.0366511
0.0395294
0.0867522
0.0993616
0.0594461
0.0429166
0.0361724
0.0391583
0.0845596
0.0966509
0.0589875
0.0423719
0.0360069
0.0395289
0.0825187
0.093988
0.0584965
0.0418167
0.035835
0.0411076
0.0807981
0.0879766
0.045254
0.0357982
0.0458909
0.0664867
0.101685
0.0878394
0.0426424
0.0374448
0.044271
0.0615547
0.101713
0.0862911
0.0395917
0.0364297
0.0429588
0.0596631
0.0987376
0.0847885
0.0392833
0.0359242
0.0423313
0.0588034
0.0970683
0.0832015
0.0390786
0.0356135
0.0415369
0.0581566
0.0947615
0.0809142
0.0406024
0.0353907
0.0352774
0.0445266
0.087962
0.100778
0.0664354
0.0454367
0.0368667
0.0421554
0.0869378
0.10061
0.0613299
0.0438103
0.0359887
0.0389754
0.0854598
0.0979068
0.0590006
0.0425205
0.035534
0.0385606
0.0835759
0.0955775
0.057839
0.0418791
0.0353598
0.0383961
0.0823413
0.0939372
0.0575912
0.0416287
0.0353155
0.0388838
0.0809686
0.0920002
0.057085
0.0411645
0.0351483
0.0404309
0.0793121
0.0862299
0.0447735
0.0351409
0.0453524
0.0655459
0.0998458
0.0861604
0.0421488
0.0368912
0.0437118
0.0604527
0.0994541
0.0852472
0.039109
0.0358289
0.0422323
0.0583049
0.0969359
0.0829686
0.0382845
0.0351853
0.0417115
0.057806
0.0942924
0.0810087
0.0388171
0.0350688
0.0410566
0.0572872
0.0919628
0.0787078
0.0401603
0.0347611
0.0346805
0.0439045
0.0852521