/*--------------------------------*- C++ -*----------------------------------*\
| =========                 |                                                 |
| \\      /  F ield         | OpenFOAM: The Open Source CFD Toolbox           |
|  \\    /   O peration     | Version:  v2006                                 |
|   \\  /    A nd           | Website:  www.openfoam.com                      |
|    \\/     M anipulation  |                                                 |
\*---------------------------------------------------------------------------*/
FoamFile
{
    version     2.0;
    format      ascii;
    class       volScalarField;
    location    "0.048";
    object      nut;
}
// * * * * * * * * * * * * * * * * * * * * * * * * * * * * * * * * * * * * * //

dimensions      [0 2 -1 0 0 0 0];


internalField   nonuniform List<scalar> 
12716
(
1095.12
871.775
2821.41
3402.12
6869.9
13163.2
3121.04
142.337
12.5838
2.87923
1.22798
0.764403
0.582517
0.49537
0.446493
0.413625
0.387574
0.364852
0.344403
0.326033
0.309729
0.295417
0.282917
0.271999
0.262419
0.253963
0.246453
0.239753
0.233759
0.228395
0.223605
0.219347
0.21559
0.212311
0.209493
0.207128
0.205208
0.203736
0.202715
0.202153
0.202079
0.202527
0.203529
0.205145
0.20745
0.210536
0.214501
0.219435
0.225385
0.232326
0.240177
0.248945
0.259168
0.272987
0.296485
0.345183
0.459167
0.756242
1.6414
4.37485
9.32866
8.88292
4.83182
1.90962
0.8056
0.374441
0.194266
0.0897303
0.0223422
0.0039063
0.000125963
0.000107086
0.00172236
0.00798433
0.00485631
0.00122447
9.39705e-05
8.28887e-05
0.0010278
0.00369057
0.00317786
0.000940136
7.66871e-05
7.09373e-05
0.000869352
0.00281819
0.00261477
0.000831284
6.73548e-05
6.41815e-05
0.000794058
0.00242603
0.00233147
0.000776716
6.21452e-05
6.00811e-05
0.00074546
0.00219589
0.00214489
0.000736535
5.8791e-05
5.73238e-05
0.000711769
0.00204623
0.00201053
0.00070653
5.64509e-05
5.5347e-05
0.000685795
0.00193235
0.00190551
0.000682291
5.47157e-05
5.38494e-05
0.00066472
0.00183995
0.00181899
0.000661634
5.3363e-05
5.26568e-05
0.000646564
0.0017621
0.00174535
0.00064374
5.22663e-05
5.16672e-05
0.000630491
0.00169487
0.00168116
0.00062792
5.13409e-05
5.08189e-05
0.000616046
0.00163579
0.00162411
0.000613683
5.05382e-05
5.00729e-05
0.000602871
0.0015831
0.00157292
0.000600698
4.98255e-05
4.94032e-05
0.000590742
0.00153552
0.00152653
0.000588748
4.91808e-05
4.87922e-05
0.000579491
0.00149211
0.0014841
0.000577664
4.85892e-05
4.82274e-05
0.000568993
0.00145222
0.00144503
0.00056732
4.80399e-05
4.76999e-05
0.000559145
0.00141531
0.00140882
0.000557611
4.75248e-05
4.72026e-05
0.000549856
0.00138094
0.00137505
0.000548445
4.70375e-05
4.67297e-05
0.000541046
0.00134872
0.00134339
0.000539745
4.65727e-05
4.62768e-05
0.000532651
0.00131845
0.00131361
0.000531452
4.61263e-05
4.58401e-05
0.000524624
0.00128991
0.0012855
0.000523519
4.56951e-05
4.54169e-05
0.000516921
0.0012629
0.00125887
0.000515899
4.52763e-05
4.50047e-05
0.0005095
0.00123725
0.00123352
0.000508549
4.48679e-05
4.46015e-05
0.000502319
0.00121278
0.00120931
0.000501427
4.44677e-05
4.42053e-05
0.000495337
0.00118934
0.00118609
0.000494497
4.40738e-05
4.3814e-05
0.00048852
0.0011668
0.00116371
0.000487724
4.36842e-05
4.34257e-05
0.000481836
0.00114503
0.00114209
0.000481079
4.32968e-05
4.30385e-05
0.000475256
0.00112394
0.00112111
0.000474529
4.29101e-05
4.26509e-05
0.000468748
0.00110342
0.00110066
0.000468042
4.25224e-05
4.22611e-05
0.000462279
0.00108337
0.00108065
0.000461585
4.2132e-05
4.18674e-05
0.000455816
0.00106369
0.00106098
0.000455125
4.1737e-05
4.14679e-05
0.000449326
0.00104428
0.00104155
0.00044863
4.13356e-05
4.10603e-05
0.000442777
0.00102506
0.00102227
0.000442073
4.09254e-05
4.06423e-05
0.000436145
0.00100594
0.00100309
0.000435433
4.05037e-05
4.02113e-05
0.000429411
0.00098686
0.000983924
0.000428691
4.00681e-05
3.97648e-05
0.000422556
0.000967768
0.000964728
0.000421807
3.96164e-05
3.93006e-05
0.000415551
0.000948601
0.000945441
0.000414774
3.91463e-05
3.88164e-05
0.000408386
0.000929306
0.000926019
0.000407586
3.86556e-05
3.83102e-05
0.000401054
0.00090985
0.000906436
0.000400235
3.81426e-05
3.77801e-05
0.000393548
0.000890221
0.000886691
0.000392722
3.76053e-05
3.72245e-05
0.00038588
0.000870431
0.000866809
0.000385066
3.70425e-05
3.66421e-05
0.000378077
0.000850527
0.000846858
0.000377303
3.64528e-05
3.60324e-05
0.000370187
0.000830599
0.000827106
0.000369485
3.5836e-05
3.53952e-05
0.000362307
0.000810831
0.000807693
0.000361738
3.5191e-05
3.47316e-05
0.000354646
0.0007915
0.00078887
0.000354205
3.45225e-05
3.40472e-05
0.000347264
0.000772865
0.000770994
0.000347048
3.38356e-05
3.3348e-05
0.000340386
0.000755356
0.000754278
0.000340495
3.31378e-05
3.26435e-05
0.00033424
0.000739396
0.000739577
0.000334812
3.24398e-05
3.19472e-05
0.000329126
0.000725734
0.00072753
0.000330295
3.17566e-05
3.12762e-05
0.000325337
0.000714947
0.000718639
0.000327209
3.11061e-05
3.06491e-05
0.000323097
0.000707549
0.000713385
0.000325732
3.05062e-05
3.00823e-05
0.000322513
0.000703944
0.000712031
0.000325931
2.997e-05
2.95869e-05
0.000323586
0.000704457
0.000714578
0.000327668
2.95066e-05
2.91684e-05
0.000326031
0.000708906
0.000720698
0.000330599
2.91154e-05
2.88249e-05
0.00032946
0.000716746
0.000729534
0.000334192
2.87801e-05
2.85657e-05
0.000332831
0.000727088
0.000739877
0.000336942
2.85103e-05
2.83527e-05
0.000334587
0.000738004
0.00075068
0.000338265
2.82642e-05
2.81106e-05
0.000335434
0.000748621
0.000760896
0.000338769
2.80065e-05
2.78521e-05
0.000335744
0.000758341
0.000769862
0.000338722
2.77409e-05
2.75932e-05
0.000335609
0.000766569
0.000777087
0.000338104
2.75038e-05
2.7363e-05
0.000334928
0.000772959
0.000782419
0.000336929
2.72888e-05
2.7157e-05
0.000333735
0.00077755
0.000786006
0.000335333
2.7095e-05
2.69746e-05
0.000332185
0.000780576
0.000788086
0.000333461
2.69233e-05
2.68147e-05
0.000330405
0.000782344
0.000788895
0.000331387
2.67725e-05
2.66756e-05
0.000328472
0.000783
0.000788679
0.000329224
2.66401e-05
2.65542e-05
0.000326489
0.000782737
0.0007877
0.000327083
2.65254e-05
2.64495e-05
0.000324528
0.000781777
0.000786054
0.000324997
2.64256e-05
2.63582e-05
0.00032261
0.000780237
0.000783949
0.000322992
2.63381e-05
2.62781e-05
0.00032076
0.00077829
0.00078156
0.000321098
2.6261e-05
2.62079e-05
0.000319002
0.000776085
0.00077894
0.000319346
2.61944e-05
2.61476e-05
0.00031734
0.000773644
0.000776114
0.000317677
2.6137e-05
2.60952e-05
0.000315725
0.000770954
0.00077308
0.000316063
2.60863e-05
2.60484e-05
0.000314155
0.00076801
0.000769842
0.000314509
2.6041e-05
2.60064e-05
0.000312648
0.000764743
0.000766455
0.000313007
2.59995e-05
2.59671e-05
0.000311166
0.000761181
0.000762797
0.000311517
2.59599e-05
2.5929e-05
0.000309677
0.000757341
0.000758869
0.000310016
2.59214e-05
2.58923e-05
0.000308179
0.000753288
0.000754698
0.000308501
2.58839e-05
2.58559e-05
0.000306654
0.00074897
0.000750238
0.000306952
2.5846e-05
2.58187e-05
0.00030508
0.000744338
0.000745476
0.000305349
2.58071e-05
2.57807e-05
0.000303442
0.000739369
0.000740588
0.000303731
2.57676e-05
2.57291e-05
0.000301798
0.000734243
0.000735078
0.000301803
2.57362e-05
2.56371e-05
0.000300092
0.000728461
0.000731723
0.000301135
2.57815e-05
2.57507e-05
0.000300204
0.000731332
0.000742713
0.000305717
2.63656e-05
2.63536e-05
0.000308688
0.000750335
0.000743459
0.000306195
2.68334e-05
2.68839e-05
0.000317639
0.000772391
0.000779476
0.000321447
2.74891e-05
0.00224586
0.00439724
0.00682222
0.009374
0.0115864
0.0139216
0.0158783
0.0175338
0.0187607
0.0195907
0.0199831
0.0199295
0.0194403
0.0185011
0.0172024
0.0155049
0.0136022
0.0114164
0.00956452
0.00744759
0.0050277
0.00324242
0.00236665
0.00106317
0.000307278
0.00014222
1.8005e-05
1.29117e-05
0.000131668
0.000265352
8.85907e-05
3.74022e-05
9.13028e-06
1.07373e-05
8.40398e-05
0.000207976
0.000191056
7.96738e-05
1.1414e-05
1.14694e-05
8.58593e-05
0.000208536
0.000194553
8.09801e-05
1.13637e-05
1.13614e-05
8.37423e-05
0.00020047
0.000191477
7.96114e-05
1.12771e-05
1.12563e-05
8.30199e-05
0.000198032
0.000191741
7.9501e-05
1.11494e-05
1.11904e-05
8.25266e-05
0.000199601
0.000193205
7.93705e-05
1.11596e-05
1.12215e-05
8.3014e-05
0.000201349
0.00019565
8.02043e-05
1.11991e-05
1.12625e-05
8.36961e-05
0.000203695
0.000197966
8.09157e-05
1.12431e-05
1.13156e-05
8.45003e-05
0.000206157
0.000200303
8.17208e-05
1.12971e-05
1.13787e-05
8.53886e-05
0.000208681
0.00020283
8.24431e-05
1.13662e-05
1.14341e-05
8.60439e-05
0.000211285
0.00020532
8.31351e-05
1.14109e-05
1.14798e-05
8.6772e-05
0.000213915
0.000207806
8.38105e-05
1.14573e-05
1.15264e-05
8.74557e-05
0.000216493
0.000210307
8.44996e-05
1.15028e-05
1.15737e-05
8.82734e-05
0.000219297
0.000213097
8.53362e-05
1.15524e-05
1.16271e-05
8.91221e-05
0.000222252
0.000215875
8.60391e-05
1.16046e-05
1.16737e-05
8.977e-05
0.000225068
0.000218544
8.66389e-05
1.16486e-05
1.17145e-05
9.04387e-05
0.000228
0.000221482
8.72899e-05
1.16897e-05
1.17507e-05
9.11473e-05
0.000231109
0.000224381
8.80416e-05
1.1721e-05
1.17961e-05
9.20007e-05
0.000234274
0.000227521
8.8859e-05
1.17751e-05
1.18533e-05
9.29422e-05
0.000237727
0.00023087
8.97815e-05
1.18332e-05
1.19126e-05
9.39034e-05
0.000241264
0.00023429
9.06898e-05
1.18915e-05
1.19724e-05
9.48969e-05
0.000244974
0.000237901
9.16568e-05
1.19522e-05
1.2036e-05
9.59635e-05
0.00024882
0.00024163
9.2692e-05
1.20157e-05
1.21007e-05
9.70585e-05
0.000252778
0.000245409
9.36913e-05
1.20798e-05
1.21643e-05
9.80793e-05
0.000256738
0.000249271
9.46995e-05
1.21426e-05
1.22318e-05
9.93589e-05
0.000261069
0.000253583
9.60205e-05
1.22125e-05
1.23099e-05
0.000100779
0.0002657
0.000258012
9.72822e-05
1.22902e-05
1.23852e-05
0.000102025
0.00027029
0.000262362
9.85188e-05
1.23634e-05
1.24619e-05
0.000103326
0.000274944
0.000266955
9.95765e-05
1.24416e-05
1.25271e-05
0.000104413
0.0002797
0.000271476
0.000100721
1.25036e-05
1.26041e-05
0.00010582
0.000284801
0.000276648
0.000102191
1.25822e-05
1.26945e-05
0.000107587
0.000290546
0.000282199
0.000103942
1.26733e-05
1.27974e-05
0.000109365
0.000296242
0.000287604
0.000105549
1.27801e-05
1.28969e-05
0.000110984
0.000301922
0.000293124
0.000107012
1.28695e-05
1.29811e-05
0.000112517
0.000307708
0.000298718
0.000108449
1.29532e-05
1.30677e-05
0.000113996
0.000313654
0.000304397
0.000109814
1.30368e-05
1.31528e-05
0.000115345
0.00031949
0.000309916
0.000111007
1.31198e-05
1.32398e-05
0.000116463
0.000325375
0.000315671
0.00011198
1.32063e-05
1.33394e-05
0.000117487
0.000331861
0.000322312
0.000112937
1.33122e-05
1.34689e-05
0.000118661
0.000339884
0.00033068
0.000114083
1.34648e-05
1.36271e-05
0.000120365
0.000349985
0.000340955
0.000116137
1.36338e-05
1.37913e-05
0.000124329
0.000365906
0.000355095
0.000118904
1.38479e-05
1.40042e-05
0.000129545
0.000380513
0.000369432
0.000123027
1.39187e-05
1.41304e-05
0.000134993
0.000399157
0.000386163
0.000128205
1.41345e-05
1.43977e-05
0.000139772
0.000414253
0.000404279
0.000135389
1.44325e-05
1.46385e-05
0.000144238
0.000434246
0.000424123
0.000139275
1.46538e-05
1.48452e-05
0.000148531
0.000454905
0.000447786
0.000147769
1.50319e-05
1.52449e-05
0.000160076
0.000481555
0.000472806
0.000154295
1.53302e-05
1.55394e-05
0.000165065
0.00050314
0.000495881
0.000160469
1.56271e-05
1.5871e-05
0.000170771
0.000526608
0.000520394
0.000167663
1.60821e-05
1.64866e-05
0.000177796
0.000546378
0.000534499
0.000175481
1.67986e-05
1.73256e-05
0.000178472
0.000553704
0.000533843
0.000176968
1.81098e-05
1.94015e-05
0.00018519
0.000552295
0.000537778
0.000185201
2.12962e-05
2.47611e-05
0.000220438
0.00056766
0.000550273
0.000249639
1.88293e-05
1.22366e-05
5.244e-05
0.000157945
0.000464969
0.000150839
1.58594e-05
1.7646e-05
0.00014524
0.000453518
0.000520304
0.000173655
2.04745e-05
2.43271e-05
0.000175146
0.000546311
0.000747183
0.000209905
3.07552e-05
5.06161e-05
0.000286918
0.00133368
0.00196664
0.00077928
8.71135e-05
0.000101887
0.000779876
0.00215577
0.00268535
0.00112884
0.000121974
0.000134231
0.00124309
0.00291086
0.0028299
0.00119923
0.00012866
0.000116608
0.000928544
0.00213033
0.00271542
0.00106955
0.000140787
0.000162313
0.00121069
0.00288454
0.00313111
0.00131465
0.000188524
0.000205541
0.00139117
0.00332574
0.00335231
0.00143801
0.0002341
0.000265682
0.00173458
0.00407014
0.0042757
0.00188236
0.000301108
0.000296384
0.00197712
0.00448526
0.00357726
0.00165056
0.000270549
0.000270024
0.00169707
0.00371688
0.00352732
0.00164282
0.000269802
0.000262023
0.00171365
0.00365966
0.00290222
0.00145402
0.000244102
0.000248833
0.00153022
0.00316182
0.00358685
0.00171776
0.000270784
0.000289538
0.00187649
0.00396478
0.00398876
0.00195764
0.000293907
0.000302163
0.00191897
0.00371165
0.00320963
0.0021309
0.000327861
0.000373773
0.00238441
0.0026376
0.0021603
0.00205329
0.000387155
0.000430426
0.00181602
0.00204907
0.00177925
0.00146793
0.000478862
0.000547738
0.00132048
0.00144548
0.0011936
0.00104965
0.000574391
0.000526586
0.000900478
0.00116013
0.00109494
0.000771286
0.000603465
0.000373895
0.000683861
0.00112401
0.00121065
0.000675946
0.000462925
0.000243899
0.000716237
0.00140125
0.0015422
0.000783001
0.000249699
0.000206165
0.000634198
0.00197624
0.00105885
0.000489092
0.000199349
0.000188958
0.000480095
0.00119531
0.00116642
0.00046153
0.000185571
0.00016635
0.000400817
0.000783493
0.00098699
0.000433058
0.000160999
0.000150786
0.000432144
0.000913684
0.000841012
0.000405374
0.000134857
0.000119421
0.000362428
0.00063906
0.000836067
0.000407657
0.000113353
0.000105982
0.000427137
0.000808964
0.000779404
0.000409872
9.61473e-05
8.49852e-05
0.000385029
0.000626978
0.000841061
0.00044558
8.28967e-05
8.93418e-05
0.000458004
0.000778029
0.00126186
0.000600349
0.000104792
0.000120481
0.000673819
0.00141776
0.00146934
0.000716779
0.000115771
0.000109288
0.000686886
0.0012108
0.00166416
0.000822098
0.000118301
0.000126593
0.000889257
0.0016576
0.00159105
0.000845819
0.000113482
0.000104443
0.000763983
0.00127357
0.00161715
0.000881935
0.000111344
0.000121274
0.000949968
0.0016881
0.00160678
0.000909133
0.000111563
9.8286e-05
0.000809622
0.00153236
0.00119511
0.000672497
8.50271e-05
8.94857e-05
0.000805673
0.00155671
0.00146243
0.000733859
8.78176e-05
7.07477e-05
0.000631139
0.0012215
0.000685462
0.000198756
3.84483e-05
3.07847e-05
0.0002497
0.000933998
0.000784369
0.000226231
3.6986e-05
2.88517e-05
0.000184903
0.000559285
0.000534938
0.0001784
2.31627e-05
1.60648e-05
7.53431e-05
0.000210984
0.000562638
0.000297746
2.39627e-05
3.14625e-05
0.000287693
0.000568036
0.000466343
0.000195307
2.66053e-05
2.12915e-05
0.000171181
0.000430312
0.000160218
6.35655e-05
1.4869e-05
2.03869e-05
0.000246009
0.000478437
0.000448939
0.000206587
2.66695e-05
2.16771e-05
0.000174494
0.000404854
0.000153673
6.5689e-05
1.55162e-05
2.03919e-05
0.000237126
0.000455008
0.000416141
0.000192683
2.64515e-05
2.14948e-05
0.000159251
0.000359838
0.000138422
6.257e-05
1.55046e-05
1.93559e-05
0.000207628
0.0004114
0.000393204
0.000189174
2.55931e-05
2.23358e-05
0.00013576
0.000312975
0.000292914
0.000126664
1.85336e-05
1.46232e-05
5.29688e-05
0.000113413
0.000349637
0.000176427
1.75251e-05
2.33861e-05
0.000151671
0.000315691
0.000272147
0.000125698
1.90525e-05
1.467e-05
5.20264e-05
0.000106936
0.000316301
0.000161673
1.67186e-05
2.2349e-05
0.00013646
0.000281069
0.000252459
0.000119186
1.84539e-05
1.46906e-05
5.02719e-05
0.000101704
0.000305888
0.000156351
1.65094e-05
2.20476e-05
0.000135734
0.000275439
0.000237786
0.000114147
1.83332e-05
1.45612e-05
4.82619e-05
9.60638e-05
0.000273119
0.000141546
1.56474e-05
2.1076e-05
0.000122875
0.000243559
0.000218812
0.000107639
1.77735e-05
1.43527e-05
4.65841e-05
9.18804e-05
0.000263629
0.000137773
1.52398e-05
2.06828e-05
0.000122561
0.000239283
0.000207489
0.000102066
1.76748e-05
1.42457e-05
4.47325e-05
8.7277e-05
0.000235528
0.000126051
1.43648e-05
1.87753e-05
0.000117632
0.00022666
9.70319e-05
5.23259e-05
1.48245e-05
1.58064e-05
0.000143074
0.000265077
0.000237045
0.000125094
2.11847e-05
1.81632e-05
0.000106021
0.000204306
9.04269e-05
4.73312e-05
1.45715e-05
1.49914e-05
0.000129096
0.00023492
0.000213795
0.000114906
2.0334e-05
1.7653e-05
0.000100264
0.000189139
8.4368e-05
4.46541e-05
1.45271e-05
1.41593e-05
0.000113509
0.000201169
0.000190854
0.000107102
1.83369e-05
1.45244e-05
4.87526e-05
8.70397e-05
0.000211802
0.000120489
1.45659e-05
1.96591e-05
0.000106038
0.000187724
0.000169803
9.46774e-05
1.70926e-05
1.42078e-05
4.31437e-05
8.01862e-05
0.000179513
0.000105256
1.37129e-05
1.7974e-05
0.000101366
0.000174077
8.33333e-05
4.78569e-05
1.44387e-05
1.42631e-05
0.000113033
0.000193145
0.000177453
0.000103688
1.94415e-05
1.71605e-05
8.99527e-05
0.000157702
7.67023e-05
4.37164e-05
1.40971e-05
1.33947e-05
0.00010061
0.000164214
0.000159489
9.55891e-05
1.75251e-05
1.40986e-05
4.70562e-05
7.86841e-05
0.000175409
0.000105857
1.37946e-05
1.8823e-05
9.60357e-05
0.000158736
0.000144026
8.40598e-05
1.66095e-05
1.39193e-05
4.34381e-05
7.17791e-05
0.000144423
9.24559e-05
1.30746e-05
1.73915e-05
8.67427e-05
0.000138943
7.35468e-05
4.73208e-05
1.40692e-05
1.34155e-05
9.72574e-05
0.000149962
0.000142818
9.12412e-05
1.85644e-05
1.65526e-05
7.80554e-05
0.000129634
6.64557e-05
4.32416e-05
1.37359e-05
1.27494e-05
8.6228e-05
0.000129969
0.000126356
8.07968e-05
1.69741e-05
1.36931e-05
4.57722e-05
6.7728e-05
0.000136051
9.12699e-05
1.28026e-05
1.71273e-05
8.46739e-05
0.000129554
7.05981e-05
4.80771e-05
1.39268e-05
1.30824e-05
9.26785e-05
0.000134969
0.000128134
8.48266e-05
1.75576e-05
1.43633e-05
4.97129e-05
7.18794e-05
0.000139442
9.42398e-05
1.35089e-05
1.857e-05
8.79062e-05
0.000133955
0.000118273
7.71222e-05
1.65595e-05
1.39286e-05
4.54565e-05
6.47739e-05
0.00012171
8.33217e-05
1.29351e-05
1.75305e-05
7.86479e-05
0.000113971
6.51876e-05
4.85939e-05
1.43492e-05
1.31302e-05
8.45138e-05
0.000119864
0.000112713
7.93328e-05
1.75555e-05
1.43333e-05
4.96504e-05
6.57187e-05
0.000122672
8.68352e-05
1.32482e-05
1.78105e-05
8.13477e-05
0.000114695
6.80033e-05
5.19375e-05
1.47186e-05
1.37942e-05
8.79502e-05
0.000124864
0.000122333
8.56839e-05
1.93349e-05
1.73965e-05
7.53302e-05
0.000108564
6.14352e-05
4.80847e-05
1.44973e-05
1.30755e-05
8.00523e-05
0.000113245
0.000106225
7.6042e-05
1.77693e-05
1.4548e-05
4.9833e-05
6.21228e-05
0.000114578
8.23395e-05
1.31634e-05
1.78971e-05
7.77677e-05
0.000106513
6.34781e-05
5.16805e-05
1.4739e-05
1.34561e-05
8.32554e-05
0.00011384
0.00010593
7.8193e-05
1.82e-05
1.48986e-05
5.26679e-05
6.38169e-05
0.000115717
8.44598e-05
1.35311e-05
1.83164e-05
7.98273e-05
0.000107567
6.51697e-05
5.4216e-05
1.51527e-05
1.37664e-05
8.52742e-05
0.000115322
0.000107137
8.0289e-05
1.86562e-05
1.55059e-05
5.57276e-05
6.58091e-05
0.00011608
8.4914e-05
1.42156e-05
1.99286e-05
8.31998e-05
0.00011028
9.98762e-05
7.46694e-05
1.79142e-05
1.49356e-05
5.07008e-05
5.92934e-05
0.000102022
7.53224e-05
1.33282e-05
1.83856e-05
7.22154e-05
9.58985e-05
5.90522e-05
5.21251e-05
1.51191e-05
1.33879e-05
7.5747e-05
0.000100367
9.41386e-05
7.23867e-05
1.83704e-05
1.51426e-05
5.29227e-05
5.89836e-05
0.000100687
7.64423e-05
1.34926e-05
1.84818e-05
7.28363e-05
9.41224e-05
5.94596e-05
5.39164e-05
1.52377e-05
1.35141e-05
7.66398e-05
0.000100172
9.41719e-05
7.33604e-05
1.85515e-05
1.54498e-05
5.48426e-05
6.0031e-05
0.000101446
7.77349e-05
1.37356e-05
1.88115e-05
7.42607e-05
9.51057e-05
6.0879e-05
5.60923e-05
1.56115e-05
1.39698e-05
7.83974e-05
0.000101841
9.59196e-05
7.515e-05
1.91405e-05
1.59314e-05
5.7304e-05
6.18353e-05
0.000103667
8.00018e-05
1.41542e-05
1.93033e-05
7.6541e-05
9.73352e-05
6.29424e-05
5.85032e-05
1.61282e-05
1.43226e-05
8.05426e-05
0.000104099
9.8184e-05
7.74128e-05
1.96092e-05
1.64742e-05
5.9859e-05
6.38788e-05
0.000106447
8.24737e-05
1.46878e-05
2.00472e-05
7.9196e-05
0.000100254
6.60044e-05
6.20934e-05
1.69472e-05
1.53547e-05
8.44824e-05
0.000109685
0.000106482
8.53324e-05
2.15188e-05
1.95369e-05
7.76151e-05
9.57437e-05
6.18893e-05
5.77321e-05
1.64064e-05
1.45336e-05
7.75913e-05
0.000101197
9.61466e-05
7.48102e-05
2.01546e-05
1.67606e-05
5.88897e-05
6.21007e-05
0.000102379
7.93319e-05
1.47232e-05
2.01875e-05
7.63668e-05
9.64859e-05
6.32925e-05
6.01311e-05
1.67526e-05
1.4738e-05
8.02197e-05
0.000102548
9.64378e-05
7.71959e-05
2.02068e-05
1.68686e-05
6.10896e-05
6.37887e-05
0.000103872
8.13576e-05
1.49483e-05
2.04617e-05
7.84065e-05
9.79147e-05
6.51266e-05
6.21147e-05
1.70487e-05
1.49956e-05
8.22849e-05
0.000104558
9.84491e-05
7.92253e-05
2.06096e-05
1.71828e-05
6.303e-05
6.56569e-05
0.000105955
8.33062e-05
1.51468e-05
2.08376e-05
8.03201e-05
0.000100056
6.71322e-05
6.43857e-05
1.75036e-05
1.54664e-05
8.46326e-05
0.000106912
0.000100784
8.15506e-05
2.11605e-05
1.77206e-05
6.55904e-05
6.78697e-05
0.00010863
8.61043e-05
1.56885e-05
2.15299e-05
8.30538e-05
0.000102732
6.9742e-05
6.7061e-05
1.8031e-05
1.58465e-05
8.73051e-05
0.000109679
0.000103524
8.42068e-05
2.16913e-05
1.82274e-05
6.82111e-05
7.05615e-05
0.00011151
8.86649e-05
1.61184e-05
2.21868e-05
8.57139e-05
0.000105737
7.29732e-05
7.05743e-05
1.88605e-05
1.68443e-05
9.0689e-05
0.000114755
0.000110454
9.25146e-05
2.36759e-05
2.13626e-05
8.48871e-05
9.92826e-05
6.93377e-05
6.53408e-05
1.80057e-05
1.58671e-05
8.19271e-05
0.000102428
9.77527e-05
7.9476e-05
2.20873e-05
1.85471e-05
6.61719e-05
6.83861e-05
0.000101111
8.18995e-05
1.61028e-05
2.221e-05
7.94447e-05
9.57486e-05
6.80352e-05
6.71911e-05
1.8501e-05
1.61124e-05
8.22274e-05
0.000100092
9.53899e-05
7.98324e-05
2.23002e-05
1.86418e-05
6.80532e-05
6.82488e-05
0.000101265
8.32155e-05
1.62417e-05
2.23704e-05
8.07784e-05
9.61904e-05
6.91544e-05
6.93151e-05
1.87767e-05
1.64109e-05
8.43055e-05
0.000102518
9.77756e-05
8.20019e-05
2.2549e-05
1.90743e-05
7.06513e-05
7.02595e-05
0.000105098
8.63493e-05
1.67406e-05
2.30951e-05
8.39432e-05
0.000100212
7.21982e-05
7.27535e-05
1.94275e-05
1.70948e-05
8.84635e-05
0.000107433
0.000102668
8.6195e-05
2.35222e-05
2.01149e-05
7.54793e-05
7.43351e-05
0.00011319
9.19192e-05
1.79352e-05
2.52187e-05
9.50379e-05
0.000109184
9.94929e-05
8.85938e-05
2.29182e-05
1.94741e-05
7.18197e-05
7.35412e-05
0.000105036
8.63562e-05
1.70887e-05
2.40794e-05
8.42171e-05
0.000101009
7.3161e-05
7.40522e-05
2.03513e-05
1.7568e-05
8.84403e-05
0.000106406
0.000101537
8.60571e-05
2.42508e-05
2.03895e-05
7.5796e-05
7.42171e-05
0.000108739
9.06361e-05
1.77065e-05
2.43527e-05
8.8153e-05
0.000104146
7.64584e-05
7.76441e-05
2.05916e-05
1.79564e-05
9.26806e-05
0.000111113
0.00010601
9.037e-05
2.45526e-05
2.09499e-05
8.00699e-05
7.84057e-05
0.00011428
9.46456e-05
1.86853e-05
2.63131e-05
9.80361e-05
0.000108805
0.000100894
9.19815e-05
2.4083e-05
2.07115e-05
7.59484e-05
7.73316e-05
0.000106851
8.94606e-05
1.81287e-05
2.53405e-05
8.72479e-05
0.000102599
7.63733e-05
7.82614e-05
2.1308e-05
1.84585e-05
9.10738e-05
0.000108168
0.000103836
8.90434e-05
2.54966e-05
2.17587e-05
8.1207e-05
7.80016e-05
0.000113389
9.46154e-05
1.9169e-05
2.72572e-05
9.88564e-05
0.000108596
0.000100081
9.32728e-05
2.49603e-05
2.14329e-05
7.88619e-05
7.84224e-05
0.00010759
9.0868e-05
1.87261e-05
2.61976e-05
8.89612e-05
0.000103628
7.83921e-05
8.1378e-05
2.21184e-05
1.90795e-05
9.37699e-05
0.000110151
0.000105165
9.16565e-05
2.62972e-05
2.21023e-05
8.38159e-05
8.02754e-05
0.000113715
9.58628e-05
1.93328e-05
2.77096e-05
0.000100274
0.000107937
0.000100851
9.46918e-05
2.54934e-05
2.20813e-05
8.05795e-05
8.02327e-05
0.000108275
9.21859e-05
1.92184e-05
2.69493e-05
9.01959e-05
0.00010412
8.00848e-05
8.35656e-05
2.27363e-05
1.95964e-05
9.47724e-05
0.000110624
0.000106283
9.28859e-05
2.71669e-05
2.33104e-05
8.74949e-05
8.22138e-05
0.000117287
9.94112e-05
2.03507e-05
2.88684e-05
0.000104242
0.000112578
0.000104288
9.94818e-05
2.67934e-05
2.32089e-05
8.71065e-05
8.44694e-05
0.000113967
9.77232e-05
2.03638e-05
2.84479e-05
9.62269e-05
0.000110084
8.63582e-05
9.14009e-05
2.43841e-05
2.135e-05
0.000102604
0.000119819
0.00011532
0.000108233
3.01236e-05
2.71927e-05
0.000102783
0.000106442
8.6569e-05
8.88315e-05
2.33785e-05
2.04936e-05
9.88986e-05
0.000115617
0.000112171
9.72119e-05
2.90617e-05
2.52493e-05
9.32795e-05
8.88561e-05
0.000120459
0.00010398
2.20389e-05
3.12301e-05
0.000109679
0.000115883
0.000107821
0.000105338
2.87477e-05
2.4794e-05
9.39237e-05
9.01801e-05
0.000118005
0.000102664
2.16774e-05
3.10724e-05
0.000108407
0.000112892
0.000107075
0.000102537
2.83439e-05
2.50359e-05
9.10845e-05
8.92192e-05
0.000115115
9.95423e-05
2.19232e-05
3.08178e-05
9.84728e-05
0.000111399
9.03756e-05
9.74781e-05
2.63861e-05
2.30368e-05
0.000106284
0.000121758
0.000117239
0.000112161
3.26294e-05
3.02904e-05
0.000108349
0.000109913
9.30674e-05
9.97232e-05
2.63219e-05
2.27816e-05
0.000108493
0.000124909
0.000120711
0.000114594
3.28156e-05
3.07869e-05
0.000110394
0.000113226
9.59934e-05
0.000101317
2.70821e-05
2.39804e-05
0.000109709
0.000125725
0.00012159
0.000115813
3.43712e-05
3.2023e-05
0.000111317
0.000115181
9.86545e-05
0.000103383
2.78591e-05
2.39693e-05
0.000110854
0.000126061
0.000122341
0.000117273
3.4149e-05
3.18854e-05
0.000112884
0.000115289
9.92747e-05
0.000105062
2.8321e-05
2.5041e-05
0.00011217
0.000127355
0.000122085
0.000112658
3.61258e-05
3.48591e-05
0.000121408
0.000116124
0.000113164
0.000114855
3.28659e-05
2.89913e-05
0.000103175
0.000100696
0.000122673
0.000108508
2.47036e-05
3.62221e-05
0.00011541
0.000118872
0.000113127
0.000111297
3.41624e-05
3.00625e-05
0.00010728
9.96294e-05
0.000126469
0.000112602
2.61749e-05
3.78303e-05
0.00011221
0.000121565
0.000116052
0.000119968
3.72267e-05
3.40322e-05
0.000114398
0.000112688
0.000100612
0.000108753
3.08656e-05
2.72762e-05
0.000114042
0.000129217
0.000125399
0.00011309
4.02825e-05
3.87849e-05
0.000125735
0.000119484
0.000115453
0.000120019
3.63042e-05
3.16475e-05
0.000112334
0.000104802
0.00013083
0.000116166
2.64279e-05
3.94076e-05
0.000118555
0.000125939
0.000122187
0.000122995
3.95045e-05
4.0047e-05
0.00012214
0.000118268
0.000116624
0.000116376
3.89907e-05
3.45194e-05
0.00011385
0.000105697
0.0001316
0.000116537
2.84441e-05
4.27446e-05
0.000120018
0.000129101
0.000124789
0.000120878
4.37871e-05
4.47274e-05
0.000125481
0.000121008
0.000119621
0.000121861
4.47302e-05
4.39084e-05
0.000124314
0.000116452
0.000114162
0.000118144
4.22489e-05
3.79716e-05
0.000117995
0.000106779
0.000130695
0.000118463
3.10245e-05
4.3522e-05
0.000117127
0.000127369
0.000122174
0.000125996
4.38497e-05
4.61676e-05
0.000124285
0.000120801
0.000119482
0.000123902
4.78231e-05
4.91273e-05
0.000120924
0.000119103
0.000117368
0.000122526
5.11624e-05
5.17919e-05
0.000119258
0.000117178
0.000116408
0.000125721
5.25153e-05
5.31819e-05
0.000127529
0.000116624
0.000117621
0.000135175
5.26016e-05
5.13295e-05
0.000140153
0.000118343
0.000121607
0.000150309
4.99325e-05
4.83648e-05
0.000154621
0.000122805
0.000128047
0.000163084
4.6996e-05
4.55965e-05
0.000162
0.000129735
0.000136521
0.000170386
4.44348e-05
4.32734e-05
0.000170122
0.000138861
0.000146978
0.00017745
4.23189e-05
4.14148e-05
0.000179609
0.000149829
0.000159997
0.000184742
4.06508e-05
3.99637e-05
0.000188295
0.000163687
0.000176194
0.000191961
3.93689e-05
3.88557e-05
0.000195711
0.000180287
0.000194266
0.000199434
3.83988e-05
3.80342e-05
0.000203059
0.000199044
0.00021367
0.000206892
3.76762e-05
3.7454e-05
0.000210647
0.000219284
0.000234694
0.000214664
3.71645e-05
3.70733e-05
0.000218472
0.000240043
0.000257068
0.000222437
3.68427e-05
3.68479e-05
0.000226226
0.000258177
0.000275292
0.000230277
3.66771e-05
3.67296e-05
0.000233956
0.000276421
0.000293093
0.000237886
3.66271e-05
3.67027e-05
0.000241483
0.000294127
0.000310434
0.000245428
3.66601e-05
3.67458e-05
0.000248795
0.000311256
0.000326872
0.000252549
3.67473e-05
3.68323e-05
0.000255718
0.000327504
0.000342523
0.000259425
3.68568e-05
3.69401e-05
0.000262288
0.000342813
0.000357043
0.000265754
3.69821e-05
3.70622e-05
0.00026839
0.000357103
0.000370511
0.000271731
3.71019e-05
3.7192e-05
0.000274089
0.000370272
0.000382818
0.000277062
3.72286e-05
3.73227e-05
0.000279223
0.000382502
0.000394407
0.000282013
3.73503e-05
3.74426e-05
0.000283849
0.000393787
0.000404955
0.0002864
3.74653e-05
3.75544e-05
0.000288022
0.000404292
0.00041492
0.000290437
3.75693e-05
3.76544e-05
0.000291759
0.000413974
0.000424015
0.000293946
3.76657e-05
3.77463e-05
0.000295092
0.000423067
0.00043267
0.000297155
3.77512e-05
3.78268e-05
0.000298035
0.000431458
0.0004406
0.000299892
3.78292e-05
3.79e-05
0.000300642
0.000439425
0.000448235
0.000302401
3.78973e-05
3.79631e-05
0.000302921
0.000446801
0.000455223
0.000304499
3.79585e-05
3.802e-05
0.000304939
0.000453855
0.00046207
0.000306452
3.80121e-05
3.80695e-05
0.000306692
0.000460453
0.000468326
0.000308044
3.80606e-05
3.81138e-05
0.000308173
0.000466647
0.000474502
0.000309506
3.81018e-05
3.81523e-05
0.000309562
0.000472708
0.000480205
0.000310754
3.81401e-05
3.8188e-05
0.000310818
0.000478578
0.000485968
0.000311986
3.81737e-05
3.82197e-05
0.000311914
0.000484094
0.000491242
0.000312956
3.82056e-05
3.82497e-05
0.000312899
0.000489486
0.000496589
0.000313939
3.8234e-05
3.82769e-05
0.000313772
0.00049459
0.00050157
0.000314706
3.82617e-05
3.83035e-05
0.000314577
0.00049965
0.000505587
0.000315529
3.82873e-05
3.83283e-05
0.000315298
0.000504318
0.000508884
0.000316153
3.83134e-05
3.83529e-05
0.000315957
0.000508836
0.000511864
0.000316826
3.83376e-05
3.83757e-05
0.000316524
0.000512903
0.000514621
0.000317294
3.83614e-05
3.83976e-05
0.000317027
0.000516815
0.000517045
0.000317807
3.83829e-05
3.84171e-05
0.000317431
0.000520264
0.000519265
0.000318111
3.84035e-05
3.84353e-05
0.000317771
0.000523598
0.00052121
0.000318467
3.84215e-05
3.84512e-05
0.000318024
0.00052563
0.000522947
0.000318623
3.84384e-05
3.84658e-05
0.000318224
0.000527433
0.000524453
0.00031884
3.84527e-05
3.84778e-05
0.00031834
0.00052873
0.000525746
0.000318862
3.84657e-05
3.84883e-05
0.000318412
0.00053016
0.000526897
0.000318957
3.84759e-05
3.84961e-05
0.000318411
0.000531114
0.000527877
0.000318869
3.84847e-05
3.85024e-05
0.00031838
0.000532248
0.000528754
0.000318869
3.84908e-05
3.85063e-05
0.00031829
0.000532936
0.000529493
0.000318701
3.84957e-05
3.85091e-05
0.000318186
0.00053384
0.000530161
0.000318635
3.84983e-05
3.85101e-05
0.000318037
0.000534328
0.00053072
0.000318415
3.85002e-05