/*--------------------------------*- C++ -*----------------------------------*\
| =========                 |                                                 |
| \\      /  F ield         | OpenFOAM: The Open Source CFD Toolbox           |
|  \\    /   O peration     | Version:  v2006                                 |
|   \\  /    A nd           | Website:  www.openfoam.com                      |
|    \\/     M anipulation  |                                                 |
\*---------------------------------------------------------------------------*/
FoamFile
{
    version     2.0;
    format      ascii;
    class       volScalarField;
    location    "0.002";
    object      Co;
}
// * * * * * * * * * * * * * * * * * * * * * * * * * * * * * * * * * * * * * //

dimensions      [0 0 0 0 0 0 0];


internalField   nonuniform List<scalar> 
10108
(
0.0122353
0.0117142
0.0126729
0.0130986
0.0132641
0.0129558
0.0129834
0.0128768
0.0127804
0.0127732
0.012725
0.0127522
0.0127739
0.0127979
0.0128236
0.0128477
0.0128716
0.0128944
0.012916
0.0129362
0.0129549
0.0129723
0.0129883
0.0130028
0.0130148
0.0130237
0.0130304
0.0130362
0.0130427
0.0130512
0.0130615
0.0130732
0.0130852
0.0130967
0.0131078
0.013119
0.0131279
0.0131285
0.0131251
0.0131215
0.0131181
0.0131147
0.0131113
0.0131077
0.0131008
0.0130861
0.0130629
0.0130335
0.0130003
0.0129658
0.0129313
0.0128982
0.0128691
0.0128373
0.0128044
0.0127803
0.0127699
0.0128412
0.0129746
0.0133809
0.0141135
0.0158439
0.0197372
0.0285475
0.0430104
0.0336759
0.0289907
0.0287608
0.028189
0.0271169
0.0269077
0.0259613
0.0232966
0.0252583
0.0264269
0.0244606
0.0246095
0.0235825
0.0194609
0.020813
0.0211753
0.0211001
0.0212347
0.0201033
0.0182458
0.0198323
0.0202546
0.0205217
0.0202502
0.0186744
0.0181584
0.0198858
0.0202393
0.0203619
0.020001
0.0182199
0.0179852
0.0198696
0.0202394
0.0202011
0.0198462
0.0178558
0.0176433
0.0196317
0.0200203
0.0199757
0.0196009
0.017445
0.0172241
0.0194158
0.0198055
0.0197696
0.0193962
0.0169826
0.0167286
0.0192062
0.0195985
0.019552
0.0191635
0.0164851
0.016269
0.0189513
0.0193685
0.0193101
0.018893
0.0160844
0.0159236
0.0186731
0.0191174
0.0190483
0.0186056
0.0157796
0.0156453
0.0183759
0.0188453
0.0187624
0.0182945
0.0155173
0.0153898
0.0180524
0.0185466
0.0184472
0.0179553
0.0152602
0.0151243
0.0176995
0.0182167
0.0181003
0.0175863
0.0149815
0.0148281
0.0173177
0.0178553
0.0177219
0.0171889
0.0146635
0.0144841
0.016907
0.0174626
0.017312
0.0167603
0.0142911
0.0140825
0.016464
0.0170386
0.0168717
0.0163005
0.0138588
0.0136163
0.0159916
0.0165867
0.0164062
0.0158123
0.0133564
0.0130775
0.0154946
0.0161138
0.0159254
0.0153069
0.01278
0.0124601
0.0149872
0.0156308
0.0154341
0.0147889
0.0121219
0.0117733
0.0144553
0.0151302
0.0149169
0.0142351
0.0114309
0.0111062
0.0138887
0.0146006
0.0143785
0.0136635
0.0108088
0.0105358
0.0133275
0.014065
0.0138488
0.0131144
0.0102845
0.0100448
0.0127936
0.0135452
0.0133324
0.0125864
0.00981317
0.00958191
0.0122698
0.0130312
0.0128123
0.0120571
0.00935079
0.00911462
0.0117352
0.012505
0.0122726
0.0115093
0.00887488
0.00862769
0.0111766
0.0119538
0.0117039
0.0109332
0.0083752
0.00811409
0.0105868
0.0113709
0.011101
0.0103234
0.00784655
0.00756967
0.00996171
0.0107524
0.0104616
0.00967713
0.00728566
0.00699184
0.00929978
0.0100968
0.00978509
0.00899394
0.00669031
0.00637839
0.00860195
0.00940485
0.00907212
0.00827546
0.00605756
0.005726
0.00786803
0.0086754
0.00832021
0.00751932
0.00538786
0.00504266
0.00709752
0.0079074
0.00753099
0.00672896
0.00469327
0.00433828
0.00629482
0.00710323
0.00670565
0.0059073
0.00398025
0.00361799
0.00546184
0.00626285
0.00584285
0.00505562
0.00325369
0.00288604
0.00459913
0.00538325
0.00493929
0.00417419
0.00251685
0.00214607
0.00370673
0.00446211
0.00399187
0.00326384
0.00177719
0.00141261
0.00279406
0.00350139
0.00301592
0.00234611
0.00105377
0.000702258
0.00188552
0.00252854
0.0020279
0.00143755
0.000354356
0.000263115
0.000989259
0.00155671
0.00100172
0.000489344
0.000459363
0.000760026
0.000488749
0.00077371
0.00088357
0.000813522
0.00100694
0.00127281
0.00125786
0.00142052
0.00184884
0.00162457
0.00150838
0.00176277
0.00205822
0.00236718
0.00282497
0.00243485
0.00200158
0.0022413
0.00284922
0.00332821
0.00383516
0.003252
0.00248459
0.00274622
0.00371388
0.00439689
0.00497985
0.00418152
0.00303603
0.00335791
0.00471698
0.00561753
0.00627766
0.0052573
0.00371837
0.00412317
0.00588636
0.00700833
0.00775272
0.00651711
0.00457799
0.00508577
0.00724608
0.00856437
0.00935908
0.00795218
0.0056423
0.006238
0.00874712
0.0102043
0.0109975
0.00948301
0.00685808
0.00749445
0.0103031
0.011834
0.0125914
0.0110344
0.00813677
0.00877934
0.0118453
0.013388
0.0140802
0.0125311
0.00940765
0.010031
0.0133068
0.0148073
0.015437
0.0139346
0.0106279
0.0112023
0.0146484
0.0160917
0.0166529
0.0152087
0.0117503
0.012274
0.0158673
0.0172495
0.0177441
0.0163607
0.0127699
0.0132413
0.0169627
0.0182807
0.0187009
0.0173907
0.0136854
0.0141054
0.0179362
0.0191973
0.0195425
0.0183001
0.0144999
0.0148748
0.0187956
0.0199848
0.0202854
0.0191067
0.0152272
0.0155604
0.0195562
0.0206624
0.0209243
0.0198184
0.0158749
0.0161751
0.0202281
0.0212589
0.0214762
0.0204451
0.0164583
0.0167273
0.0208147
0.0217704
0.0219342
0.0209868
0.0169794
0.0172181
0.0213164
0.0222107
0.0223259
0.0214474
0.0174432
0.01766
0.0217455
0.0225768
0.0226803
0.0218454
0.0178663
0.0180681
0.0221211
0.022896
0.0229982
0.0222016
0.0182684
0.0184731
0.0224643
0.0232049
0.0232855
0.0225311
0.0186826
0.0189119
0.0227854
0.0235061
0.0235617
0.022841
0.0191208
0.019339
0.023038
0.0237201
0.023648
0.0229497
0.0194341
0.0196605
0.0230977
0.0237203
0.0233362
0.0225706
0.0192571
0.0198623
0.0229457
0.0235103
0.022895
0.0219335
0.0187582
0.0207326
0.0235655
0.0238206
0.0230825
0.0221903
0.0191397
0.0228392
0.0256003
0.0256502
0.0272497
0.0257437
0.0218811
0.0241287
0.0276647
0.0284197
0.0294956
0.0296875
0.0292609
0.0293684
0.028902
0.0287762
0.0287023
0.0285751
0.0284794
0.0284004
0.0283155
0.0281717
0.0280504
0.0280482
0.0285729
0.0297393
0.0317475
0.0342838
0.0391074
0.0487899
0.0714387
0.106612
0.0834097
0.0697424
0.0722203
0.0768624
0.0683277
0.0884369
0.152212
0.210992
0.139918
0.109049
0.0739691
0.0557362
0.0698103
0.0756854
0.0656916
0.0639775
0.0534661
0.0487126
0.0599233
0.0620394
0.0603258
0.0581481
0.0473301
0.0461608
0.0588192
0.0618471
0.0591698
0.0565773
0.0446012
0.0442634
0.0571911
0.060778
0.0583286
0.0549867
0.0425069
0.0421384
0.0561409
0.0602626
0.0574933
0.0536773
0.0406841
0.0404576
0.054576
0.0592799
0.0567298
0.0523898
0.0390673
0.0388738
0.0532452
0.0584498
0.0558738
0.0510791
0.0376166
0.0374785
0.0518945
0.0575374
0.0549494
0.0497434
0.036291
0.0361958
0.0505369
0.056545
0.0540179
0.0484789
0.0350829
0.0350012
0.0491963
0.0554847
0.0531485
0.0473558
0.0340353
0.0339502
0.0479224
0.054332
0.0523927
0.0463701
0.033166
0.0330777
0.0467819
0.0533291
0.0516231
0.0455388
0.0324725
0.0323811
0.0458017
0.0522978
0.0510485
0.0448508
0.0319326
0.0318409
0.0449968
0.0514998
0.0504845
0.0443103
0.031524
0.0314337
0.0443551
0.0507254
0.0501546
0.04392
0.0312338
0.0311452
0.0438833
0.05021
0.0498486
0.0436677
0.0310399
0.0309488
0.0435491
0.049769
0.0497273
0.043554
0.0309413
0.0308475
0.0433453
0.0494642
0.0497443
0.0435756
0.0309518
0.0308604
0.0432701
0.0492928
0.0499211
0.043755
0.0311008
0.0310124
0.0433302
0.0492473
0.0503011
0.0441356
0.0314267
0.0313401
0.0435362
0.0493115
0.0510076
0.0448434
0.0320453
0.0320579
0.0440527
0.0495133
0.0521538
0.0462297
0.033303
0.0335278
0.0454639
0.0508129
0.053507
0.0473686
0.0346645
0.0345823
0.0465244
0.051767
0.0544414
0.048226
0.035359
0.0353454
0.047699
0.0528911
0.0551325
0.0487774
0.0356197
0.0361634
0.0488443
0.0541235
0.0563479
0.049977
0.0364974
0.0367668
0.050024
0.0555761
0.0587911
0.0524487
0.0381678
0.0387042
0.0523077
0.0581296
0.0616407
0.0557147
0.0412705
0.0420769
0.0565166
0.0622272
0.0645385
0.0597827
0.0452326
0.0468808
0.0568388
0.0570109
0.158429
0.113044
0.065273
0.0584276
0.0906583
0.121219
0.0786072
0.070254
0.0549124
0.0538695
0.0661395
0.0712718
0.0709774
0.0669671
0.0553062
0.0554708
0.0673552
0.0714296
0.0725926
0.0697349
0.0584828
0.0587552
0.0647356
0.0623906
0.181402
0.13465
0.083635
0.0766692
0.110039
0.142499
0.0960365
0.0884923
0.0731242
0.0752122
0.0858765
0.0889201
0.0811221
0.0836133
0.0776323
0.107605
0.164108
0.214851
0.187022
0.147373
0.10536
0.107022
0.126743
0.135943
0.111333
0.114909
0.108475
0.140958
0.191235
0.226303
0.19769
0.177836
0.142875
0.139016
0.160938
0.163312
0.175342
0.148649
0.0920744
0.0533741
0.0929078
0.114291
0.0482098
0.041986
0.0389505
0.0422852
0.0521377
0.0565068
0.0801297
0.0685297
0.0496428
0.0429017
0.0433716
0.0383949
0.0895346
0.073629
0.0558739
0.0731147
0.107323
0.134936
0.0568886
0.0606129
0.0591961
0.0735032
0.0978604
0.120848
0.160571
0.127358
0.0874925
0.0711879
0.074848
0.0727227
0.138338
0.111589
0.0837208
0.0935239
0.134537
0.169748
0.080067
0.080908
0.0758697
0.0868556
0.116172
0.143776
0.163586
0.130718
0.092047
0.0748646
0.0810529
0.0813147
0.138124
0.111716
0.0831286
0.0845286
0.11922
0.149248
0.0765127
0.0753668
0.0684224
0.0740314
0.10052
0.124488
0.126862
0.101217
0.0721918
0.0587232
0.0656908
0.0671535
0.105298
0.0849325
0.0622886
0.0612303
0.086293
0.107473
0.0566489
0.0556886
0.0498738
0.053298
0.0730427
0.0904942
0.0906594
0.0732514
0.0518086
0.0424691
0.0479537
0.0489622
0.0763756
0.0617233
0.0447654
0.0435605
0.061659
0.0761894
0.0410266
0.0404677
0.0358971
0.0384066
0.0531739
0.0655775
0.0647383
0.0527267
0.0373533
0.0308588
0.0352371
0.0358951
0.0571922
0.0461536
0.0327254
0.0298709
0.041139
0.0496928
0.0414195
0.0358096
0.0272032
0.0244229
0.0319705
0.0363929
0.0245414
0.0241733
0.0211498
0.0211707
0.0287178
0.0340956
0.0304137
0.0258597
0.0191234
0.0159773
0.0180972
0.0181881
0.0268259
0.0224834
0.0163925
0.0150349
0.0201817
0.0235908
0.0196733
0.0175112
0.0137929
0.0131125
0.0162699
0.0172207
0.0120614
0.0123823
0.0113783
0.0113637
0.0146863
0.0161674
0.0116877
0.0108777
0.00910371
0.00852369
0.0103586
0.0113693
0.00777255
0.00833788
0.00753699
0.00660939
0.00674825
0.00617646
0.00650731
0.0070046
0.00599915
0.00353074
0.00203464
0.000835096
0.00305099
0.00281321
0.00335211
0.00149734
0.00131649
0.00357805
0.0023493
0.0014318
0.00119593
0.00117342
0.00298511
0.00412374
0.0101797
0.00624778
0.00173357
0.00155379
0.00423768
0.0059548
0.0128238
0.00899184
0.00396807
0.00334173
0.00580792
0.00671425
0.0119077
0.00785935
0.00366405
0.00613434
0.0127711
0.0183785
0.0126567
0.009782
0.00559427
0.00807986
0.014792
0.0200239
0.0110505
0.00995921
0.00687904
0.00760798
0.0136197
0.0193924
0.0254933
0.0182898
0.0100174
0.00936395
0.0150044
0.0191403
0.0261092
0.0199275
0.0118655
0.0111257
0.0169485
0.0209794
0.029707
0.0227658
0.0138923
0.012146
0.0160378
0.0175328
0.0305249
0.0222635
0.0137355
0.0160749
0.0268916
0.0361307
0.0282163
0.0226776
0.015097
0.017557
0.0278444
0.0357223
0.0296425
0.0241453
0.0165441
0.0196343
0.0304494
0.0385776
0.0230638
0.0215728
0.0171418
0.0193255
0.0301293
0.0405214
0.0464325
0.0348021
0.0216253
0.0204108
0.0297924
0.0368047
0.0449042
0.0354943
0.0233041
0.022236
0.0321117
0.0394871
0.0474341
0.0376223
0.0250727
0.023799
0.0335969
0.0408958
0.0501281
0.0402762
0.0271796
0.0235557
0.0289239
0.0307751
0.0535011
0.0402449
0.0266351
0.0288568
0.0445666
0.0584439
0.0475336
0.0389112
0.0273335
0.0300394
0.0447053
0.0557925
0.0495714
0.0406793
0.0287341
0.0315892
0.0464125
0.0580155
0.0502325
0.0415571
0.0299871
0.0339952
0.0495005
0.0612787
0.0376965
0.0356232
0.0295624
0.0337013
0.0500196
0.0658145
0.0709827
0.0547031
0.0359415
0.0339854
0.04768
0.0580427
0.0669642
0.0541032
0.0370997
0.0357546
0.0498886
0.060575
0.0690916
0.0560733
0.0390614
0.0374184
0.0519213
0.0630937
0.0715873
0.0581876
0.0409465
0.0386718
0.0525881
0.0631568
0.0748485
0.0609605
0.0429394
0.0374296
0.0446382
0.0472772
0.0811156
0.0619319
0.0423819
0.0446232
0.0664665
0.0856563
0.0709489
0.0586324
0.0424189
0.0451781
0.0646213
0.0798022
0.0730122
0.0603453
0.0437026
0.0466891
0.0659395
0.0808626
0.0747564
0.0617218
0.0448216
0.0486321
0.0685381
0.0839864
0.0741888
0.0618759
0.0457891
0.0505977
0.0713342
0.087263
0.0546821
0.0520199
0.0441007
0.049943
0.0725071
0.0944908
0.0984292
0.077008
0.0519506
0.0496237
0.0679096
0.0820931
0.0919757
0.0744991
0.0526843
0.0509812
0.0698091
0.0841543
0.0924952
0.075753
0.0541142
0.0518262
0.0709777
0.0858987
0.094897
0.0776891
0.0555318
0.0526869
0.0707935
0.0846747
0.0977595
0.0801673
0.0573163
0.0502784
0.0591433
0.0622638
0.106444
0.0817063
0.0566659
0.0587044
0.0857031
0.109825
0.0919723
0.0762046
0.055906
0.0588814
0.0827392
0.101591
0.0932478
0.0773982
0.0566558
0.0599279
0.0834308
0.101398
0.0945117
0.0783723
0.0576398
0.0614723
0.0851191
0.103841
0.0924079
0.0773396
0.0577847
0.0630386
0.0879074
0.106648
0.0669602
0.0639566
0.0547683
0.0620456
0.0891976
0.115919
0.119749
0.0940258
0.0644026
0.0612124
0.0830441
0.0998854
0.110195
0.089993
0.0642354
0.061706
0.0838429
0.101014
0.110241
0.0905305
0.0653462
0.0625216
0.084903
0.102458
0.11238
0.0922415
0.0667543
0.0629048
0.0838312
0.100096
0.114845
0.0944471
0.0683163
0.0596839
0.0695899
0.0729043
0.124729
0.0959334
0.0669928
0.0691175
0.100426
0.128449
0.106927
0.0888028
0.065477
0.0687822
0.0962549
0.117486
0.107933
0.0899645
0.0664615
0.0703388
0.0970405
0.117034
0.108863
0.090454
0.0671151
0.0714902
0.0983054
0.119621
0.105551
0.0886781
0.0669104
0.0726405
0.10025
0.121801
0.0764681
0.0730761
0.0630059
0.0713639
0.101592
0.131633
0.135434
0.106141
0.0735856
0.0698371
0.0940642
0.113102
0.124772
0.102171
0.0734535
0.0703637
0.0946436
0.113606
0.12467
0.102029
0.0739793
0.0702799
0.0933036
0.111098
0.127025
0.104537
0.0756785
0.0659002
0.076339
0.079729
0.13748
0.106229
0.0746249
0.07726
0.111933
0.142575
0.117576
0.0981024
0.0731405
0.0768501
0.106574
0.130167
0.117289
0.0980071
0.07322
0.0778629
0.107092
0.130259
0.11405
0.0960816
0.0728659
0.0791883
0.109525
0.133474
0.0829526
0.0795981
0.0691135
0.0782044
0.110767
0.142844
0.148832
0.117195
0.0810962
0.0755911
0.101088
0.121093
0.137224
0.112423
0.0807629
0.0754629
0.0992682
0.117554
0.138283
0.113903
0.0823222
0.0717441
0.0826717
0.0862249
0.148528
0.11492
0.0811935
0.0839491
0.121018
0.154528
0.125728
0.105034
0.0788479
0.0836582
0.116045
0.142306
0.121397
0.103067
0.07879
0.0852409
0.11857
0.143739
0.0879485
0.0847521
0.0740418
0.0840307
0.118286
0.15266
0.161053
0.126127
0.0876845
0.0812605
0.106312
0.125808
0.150085
0.122516
0.0874967
0.0757868
0.0860248
0.0886512
0.155748
0.120353
0.0850496
0.0905111
0.131479
0.167589
0.129004
0.10943
0.0839802
0.0916645
0.128302
0.157197
0.0911776
0.0887602
0.0785151
0.088222
0.124732
0.161418
0.173987
0.135841
0.0936542
0.0865874
0.113137
0.133783
0.163189
0.132925
0.0948652
0.0821901
0.0922464
0.0944252
0.168559
0.131082
0.0930574
0.0978158
0.142457
0.183036
0.136754
0.116329
0.0897564
0.098579
0.138443
0.170425
0.0977057
0.0953219
0.0846968
0.0966949
0.135538
0.174608
0.190585
0.148765
0.102693
0.0938209
0.121136
0.142208
0.176768
0.144094
0.102759
0.0869494
0.0971189
0.0991839
0.17031
0.133829
0.0975495
0.108756
0.15746
0.200324
0.0995969
0.0987757
0.0899575
0.0996048
0.137129
0.174777
0.206144
0.160075
0.109413
0.0895076
0.0983314
0.0991831
0.179212
0.140295
0.101987
0.115035
0.167932
0.215238
0.103196
0.102836
0.094085
0.104773
0.144205
0.18366
0.221868
0.172171
0.116823
0.0956476
0.103962
0.104121
0.190255
0.149973
0.109972
0.121759
0.178977
0.231444
0.106325
0.105576
0.096897
0.108928
0.147731
0.186933
0.239402
0.1873
0.127551
0.0961582
0.096849
0.091235
0.12696
0.118064
0.101478
0.10813
0.147641
0.19019
0.251141
0.193511
0.129982
0.0966102
0.0955407
0.0886452
0.111122
0.107731
0.0974837
0.102077
0.117824
0.127496
0.193648
0.152401
0.110931
0.125698
0.191482
0.254144
0.0869957
0.0912908
0.0906744
0.0915182
0.0999208
0.1017
0.0960542
0.092784
0.0838818
0.0809104
0.091666
0.0947384
0.0865126
0.0834921
0.0726449
0.0676149
0.0803047
0.0841663
0.0789859
0.0750825
0.0621688
0.058676
0.0729146
0.078013
0.0739756
0.0692495
0.0553566
0.0531513
0.0680911
0.0738416
0.0705327
0.065225
0.0507312
0.0492168
0.0645455
0.0708948
0.0679951
0.0620216
0.0472822
0.0462432
0.0617479
0.0686449
0.0659456
0.0594808
0.0446429
0.0438588
0.0593107
0.0666448
0.0640806
0.0572259
0.0424972
0.0419136
0.0572371
0.0648806
0.0624196
0.0553121
0.0407417
0.0403121
0.0553798
0.0632154
0.0608476
0.0535929
0.0392946
0.0390007
0.0538172
0.061728
0.0594548
0.0521662
0.0381178
0.0379324
0.052433
0.0603421
0.0581546
0.0508905
0.0371594
0.0370672
0.0512787
0.0591229
0.0570138
0.0498299
0.0363895
0.0363726
0.0502236
0.0579804
0.0560002
0.0489491
0.0358305
0.0358272
0.0493419
0.0569828
0.0551951
0.0481969
0.0353863
0.0353831
0.0485194
0.0560497
0.0545022
0.0475729
0.0350231
0.0350189
0.047828
0.0552321
0.0538237
0.0469595
0.0347235
0.0347161
0.0471624
0.0544551
0.0532647
0.04647
0.0344869
0.0344773
0.0466064
0.0537738
0.052734
0.046003
0.0343201
0.0343107
0.0460836
0.053139
0.0523291
0.0456669
0.0342265
0.0342163
0.0456849
0.0526099
0.0519772
0.0453759
0.0342079
0.0341965
0.0453333
0.0521316
0.0517446
0.0452162
0.0342548
0.0342418
0.0451137
0.0517696
0.0515688
0.0451075
0.03437
0.0343574
0.0449566
0.0514761
0.0515258
0.0451389
0.0345436
0.0345268
0.0449374
0.0513141
0.05153
0.0452038
0.0347583
0.0347291
0.0449513
0.0512066
0.0516155
0.04536
0.0349897
0.0349539
0.0450683
0.0512001
0.0516931
0.0455083
0.0352399
0.0352075
0.0452528
0.051337
0.0518831
0.0457992
0.035551
0.0354543
0.0453553
0.0512831
0.052022
0.0459887
0.0358112
0.0357912
0.0456859
0.0515142
0.0522584
0.0463045
0.0361237
0.036108
0.0460009
0.0517333
0.0524792
0.0465933
0.0364453
0.0364323
0.0462951
0.0519518
0.0527627
0.0469476
0.0367731
0.0367617
0.0466487
0.0522252
0.0530173
0.0472613
0.0371015
0.0370906
0.0469684
0.0524839
0.0533237
0.0476291
0.0374282
0.0374171
0.0473373
0.0527871
0.0535927
0.0479466
0.0377482
0.0377361
0.0476615
0.0530647
0.0539075
0.0483118
0.0380614
0.0380477
0.0480275
0.0533791
0.0541789
0.0486206
0.0383645
0.0383488
0.0483417
0.05366
0.0544917
0.0489734
0.0386592
0.0386411
0.048694
0.0539727
0.0547569
0.0492666
0.0389432
0.0389223
0.0489909
0.0542464
0.0550611
0.0496025
0.0392184
0.0391944
0.0493247
0.0545492
0.0553151
0.0498766
0.0394821
0.0394542
0.0496006
0.0548094
0.0556062
0.0501922
0.0397357
0.0397035
0.0499124
0.0550969
0.0558443
0.0504437
0.039976
0.0399387
0.0501638
0.0553388
0.0561172
0.0507346
0.040204
0.0401609
0.0504491
0.055606
0.0563338
0.0509583
0.0404159
0.040366
0.0506705
0.0558238
0.0565814
0.0512181
0.0406122
0.0405546
0.0509223
0.0560634
0.056768
0.051406
0.0407888
0.0407223
0.0511052
0.0562485
0.0569816
0.0516263
0.0409463
0.0408699
0.0513144
0.0564507
0.0571284
0.0517701
0.0410807
0.0409932
0.0514499
0.0565925
0.0572974
0.0519427
0.0411927
0.0410932
0.0516084
0.0567465
0.0573955
0.0520351
0.0412782
0.041166
0.0516901
0.0568362
0.0575135
0.0521543
0.0413391
0.0412138
0.0517933
0.0569364
0.0575587
0.0521921
0.0413724
0.0412343
0.0518193
0.0569717
0.0576246
0.0522581
0.0413824
0.0412319
0.0518687
0.0570186
0.0576197
0.0522454
0.0413681
0.0412058
0.0518443
0.057003
0.0576395
0.0522652
0.0413347
0.0411612
0.0518475
0.0570027
0.0575901
0.0522091
0.0412804
0.0410963
0.0517804
0.0569434
0.0575685
0.0521884
0.0412101
0.0410162
0.051745
0.0569033
0.0574791
0.0520935
0.0411205
0.040918
0.0516432
0.056809
0.0574196
0.0520356
0.041016
0.0408056
0.0515748
0.0567367
0.0572947
0.0519053
0.0408936
0.040676
0.0514407
0.0566118
0.0572023
0.0518138
0.040758
0.0405335
0.051339
0.056508
0.057047
0.051652
0.0406074
0.0403757
0.0511719
0.0563511
0.0569255
0.0515302
0.040446
0.0402068
0.051037
0.0562142
0.0567419
0.0513391
0.0402711
0.0400235
0.0508369
0.0560235
0.056592
0.0511881
0.0400857
0.039829
0.0506684
0.0558514
0.0563798
0.0509678
0.0398861
0.0396188
0.0504345
0.0556249
0.056198
0.0507847
0.039673
0.0393943
0.0502316
0.0554168
0.0559481
0.0505273
0.0394401
0.0391492
0.0499608
0.0551535
0.0557197
0.0502991
0.0391872
0.038883
0.0497142
0.0549035
0.0554094
0.0499847
0.0389043
0.0385831
0.0493835
0.054579
0.0551083
0.0496855
0.0385883
0.0382561
0.0490688
0.0542604
0.0547439
0.0493173
0.0382562
0.0379193
0.0486986
0.053898
0.0544129
0.0489899
0.0379162
0.0375755
0.0483647
0.0535583
0.0540252
0.0486
0.0375657
0.0372195
0.0479758
0.0531768
0.05367
0.0482474
0.0372024
0.0368528
0.0476215
0.0528208
0.0532533
0.0478284
0.0368265
0.0364786
0.0472149
0.0524297
0.0528912
0.0474652
0.0364552
0.0361136
0.0468512
0.0520655
0.0524764
0.0470505
0.0360929
0.0357595
0.046456
0.051682
0.0521235
0.0466999
0.0357425
0.0354135
0.0461055
0.0513257
0.0517177
0.0462943
0.0353917
0.0350636
0.0457131
0.0509447
0.0513606
0.0459375
0.0350383
0.0347101
0.0453517
0.0505823
0.0509416
0.0455181
0.034679
0.0343524
0.0449487
0.0501939
0.0505682
0.0451477
0.0343179
0.0339956
0.0445794
0.0498209
0.0501503
0.0447316
0.033963
0.0336452
0.0441741
0.0494232
0.0497929
0.0443757
0.033619
0.0333057
0.0438154
0.0490563
0.0494057
0.0439845
0.0332867
0.0329779
0.0434341
0.0486825
0.0490681
0.0436498
0.0329641
0.0326621
0.0431023
0.0483455
0.04869
0.0432743
0.0326519
0.0323626
0.0427543
0.0480063
0.0483615
0.0429554
0.0323506
0.032077
0.0424639
0.0477139
0.0479996
0.0425978
0.0320568
0.0318028
0.0421539
0.0474218
0.0476957
0.0423015
0.0317777
0.0315463
0.0418955
0.0471713
0.0473721
0.0419825
0.0315246
0.0313226
0.041633
0.0469305
0.0471223
0.0417448
0.0313103
0.031149
0.0414525
0.0467556
0.0468921
0.0415239
0.0311592
0.0310428
0.0413003
0.046617
0.0467656
0.0414125
0.0310741
0.0310004
0.0412437
0.0465592
0.0466838
0.0413478
0.0310617
0.0310391
0.0412226
0.0465276
0.0466867
0.0413709
0.031166
0.0311646
0.0412731
0.0465722
0.0468335
0.0414741
0.0312874
0.0312328
0.0412933
0.0465526
0.0469078
0.0416008
0.0314147
0.0311985
0.0411057
0.0463418
0.0473606
0.0420803
0.0318916
0.0315467
0.0415161
0.046752
0.0501595
0.0449735
0.0344685
0.0344347
0.0456725
0.0521452
0.0634886
0.0556852
0.0417779
0.0428392
0.0592698
0.0708203
0.073345
0.0634101
0.0474605
0.0823405
0.0895822
0.0980165
0.120403
0.0742277
0.0588142
0.0522065
0.062022
0.0427121
0.0289958
0.023122
0.0203813
0.0192494
0.0186198
0.0184649
0.0184402
0.0185506
0.018675
0.018809
0.0189607
0.0191366
0.0192996
0.0194492
0.0195581
0.0197413
0.0198454
0.0200681
0.0202814
0.0202829
0.0207923
0.0205463
0.0198792
0.0183109
0.018167
0.0160389
0.0166563
0.0158549
0.0168265
0.0169517
0.0171896
0.0171304
0.0172098
0.0172249
0.0172607
0.0172625
0.0172452
0.0172266
0.0172103
0.0171835
0.0171632
0.0171104
0.0170661
0.0170067
0.0169822
0.0169579
0.0169523
0.0169409
0.0169295
0.0169327
0.0169506
0.0169799
0.0170181
0.0170663
0.0171188
0.0171745
0.0172138
0.0172652
0.0172912
0.0173247
0.0173238
0.0173201
0.0172796
0.0172345
0.0171743
0.0170881
0.017004
0.0168956
0.0167679
0.0166329
0.0164674
0.0163017
0.0161233
0.0159199
0.0157188
0.0154876
0.0152594
0.0150049
0.0147569
0.0144898
0.014236
0.0139712
0.0137238
0.0134837
0.013258
0.0130501
0.0128622
0.0126959
0.0125534
0.0124345
0.0123343
0.0122489
0.0121776
0.0121217
0.012069
0.012042
0.01202
0.0120251
0.0120322
0.0120602
0.0120812
0.0121147
0.0121377
0.0121602
0.0121845
0.0121838
0.0121872
0.0121713
0.0121593
0.0121261
0.0120957
0.0120442
0.0119921
0.0119262
0.0118496
0.0117612
0.0116669
0.0115628
0.0114457
0.0113211
0.0111897
0.0110556
0.010921
0.0107915
0.0106728
0.0105698
0.0104797
0.0103998
0.010328
0.0102728
0.0102451
0.0102411
0.0102587
0.0102962
0.0103518
0.0104224
0.0105014
0.010582
0.0106607
0.010734
0.0108022
0.0108608
0.0109006
0.0109262
0.0109461
0.0109617
0.0109706
0.0109722
0.0109656
0.0109495
0.0109182
0.010882
0.0107871
0.0107247
0.010476
0.0105047
0.010061
0.0106232
0.0102584
0.0116398
0.0111502
0.0110482
0.0110438
0.0110509
0.0110376
0.0110032
0.0109711
0.0109618
0.010984
0.0110143
0.0110388
0.0110594
0.011077
0.0110939
0.0111099
0.0111244
0.0111377
0.0111498
0.0111607
0.0111702
0.0111779
0.0111835
0.0111875
0.0111912
0.0111956
0.0112015
0.0112088
0.0112174
0.0112262
0.0112343
0.0112415
0.0112476
0.0112526
0.0112574
0.0112592
0.0112575
0.0112546
0.0112494
0.0112384
0.0112257
0.0112228
0.0112178
0.0112046
0.0111826
0.0111537
0.0111212
0.0110875
0.0110527
0.0110171
0.0109836
0.0109496
0.010919
0.0109005
0.0108969
0.0109324
0.0110296
0.0112033
0.0114414
0.0116105
0.0113771
0.0112159
0.0236841
0.0203755
0.0202529
0.0204509
0.0203342
0.0204446
0.0202982
0.0202846
0.0201208
0.0200675
0.0199019
0.0198466
0.0196853
0.0196327
0.0194662
0.0194142
0.0192322
0.0191788
0.018977
0.0189171
0.0187015
0.0186243
0.0183933
0.0182978
0.0180509
0.0179368
0.0176742
0.0175417
0.017264
0.0171139
0.0168231
0.016658
0.0163581
0.0161824
0.0158777
0.0156934
0.0153839
0.0151912
0.0148774
0.0146791
0.0143648
0.0141653
0.0138535
0.0136517
0.0133391
0.0131293
0.0128097
0.0125856
0.0122541
0.0120117
0.0116657
0.0114028
0.0110411
0.0107569
0.0103792
0.0100733
0.00967985
0.00935245
0.00894346
0.00859425
0.00816994
0.00779891
0.00735936
0.00696602
0.0065108
0.00609373
0.00562068
0.00517712
0.00468506
0.00421336
0.00370474
0.00321027
0.00269628
0.00217749
0.00167073
0.00111323
0.000738082
0.000791384
0.0013835
0.00191166
0.00251354
0.00308713
0.00371191
0.00433457
0.00501072
0.0056846
0.00641536
0.00713515
0.00792234
0.00867853
0.0095024
0.0102667
0.0110958
0.0118387
0.0126473
0.0133458
0.0141129
0.0147571
0.0154493
0.0160506
0.0166794
0.0172208
0.0177928
0.0182694
0.0187822
0.0191873
0.0196604
0.0199904
0.0204088
0.0206934
0.0210436
0.0212919
0.0216008
0.0218092
0.0220818
0.0222428
0.0225043
0.0226219
0.0228607
0.0229701
0.0231735
0.0232793
0.0234698
0.0235594
0.023763
0.0238287
0.0239548
0.0239508
0.0239646
0.0237042
0.0236859
0.0232209
0.0235496
0.0234158
0.0252362
0.027579
0.0278181
0.0277686
0.0256791
0.0251916
0.0238577
0.0240972
0.0280352
0.0241432
0.0234499
0.0272617
0.0115834
0.027529
0.0266023
0.0276814
0.0276459
0.0268598
0.0274318
0.0276952
0.0269989
0.0277889
0.0277251
0.0270306
0.0276393
0.0109831
0.0115447
0.0125466
0.0285618
0.0242447
0.0242514
0.0285162
0.0288535
0.0245149
0.0244256
0.0287244
0.0127291
0.0127134
0.0287688
0.0244721
0.0242714
0.0285258
0.0285066
0.0242622
0.0240014
0.0281962
0.0126217
0.0125035
0.0282526
0.0240176
0.0237013
0.0278139
0.0279439
0.0237493
0.0233745
0.0273943
0.0123529
0.0121954
0.0276207
0.0234575
0.0230029
0.0269011
0.0272824
0.0231429
0.0225668
0.0263001
0.012016
0.0118153
0.0268749
0.0227721
0.0220604
0.0256201
0.0263903
0.0223309
0.0214751
0.0248562
0.0115854
0.0113147
0.0258406
0.0218183
0.020798
0.023981
0.0252138
0.0212226
0.0201055
0.0230405
0.0109922
0.0106274
0.0244684
0.020526
0.0193838
0.0220323
0.0235707
0.019704
0.0185398
0.0208929
0.0102044
0.00971486
0.0225305
0.0187588
0.01758
0.0196252
0.0213577
0.0176945
0.0165036
0.0182149
0.00916223
0.00855337
0.0200395
0.0165106
0.0153155
0.0166797
0.0185609
0.0152123
0.0139992
0.0150183
0.00788743
0.00717356
0.0169225
0.0137796
0.0125691
0.0132786
0.0151361
0.0122342
0.0110425
0.0114857
0.00641683
0.00562435
0.0132334
0.0106101
0.00945815
0.00966626
0.0112549
0.00895334
0.00786888
0.0078527
0.00480463
0.00396924
0.00926057
0.00732614
0.00633568
0.00608901
0.00732456
0.00578147
0.00489359
0.00473959
0.0031863
0.00243627
0.00555733
0.0043467
0.00355685
0.00356121
0.00395507
0.00302661
0.00230243
0.00246394
0.00172491
0.00107857
0.00248454
0.00180456
0.00112878
0.00144612
0.00147106
0.0011193
0.00149993
0.00197553
0.00104882
0.00155057
0.00213658
0.00204927
0.00259671
0.00329728
0.00297623
0.00305834
0.00365464
0.00457644
0.00201819
0.0024538
0.00378993
0.00404
0.00466933
0.00580444
0.00498416
0.00499019
0.00563694
0.00695753
0.00293728
0.00340237
0.00615295
0.00589238
0.00655323
0.00803446
0.00725439
0.00674622
0.00742186
0.00904727
0.00384618
0.00427175
0.00829867
0.00755719
0.00824953
0.0100068
0.00929024
0.00833102
0.00904033
0.0109212
0.00468085
0.00507258
0.0102335
0.0090707
0.00979591
0.0117945
0.0111319
0.00977688
0.0105161
0.0126253
0.00544654
0.00580214
0.0119851
0.0104491
0.0111997
0.0134107
0.0127912
0.0110872
0.0118483
0.0141502
0.00614009
0.00646096
0.0135919
0.0117336
0.0124608
0.014849
0.0143719
0.0123698
0.0130404
0.0155126
0.00676621
0.00705837
0.0151091
0.0129719
0.0135943
0.0161472
0.0158078
0.0135467
0.0141317
0.0167615
0.0073404
0.00761526
0.0164735
0.0141015
0.0146597
0.0173623
0.0171109
0.0146393
0.0151776
0.0179526
0.00788525
0.00815171
0.017721
0.0151574
0.0156864
0.0185378
0.0183061
0.0156592
0.0161877
0.0191165
0.00841321
0.00866706
0.018881
0.016154
0.0166774
0.019681
0.0194524
0.0166412
0.0171506
0.0202241
0.00891116
0.00914289
0.0200076
0.0171128
0.0175999
0.0207365
0.0205318
0.0175587
0.0180186
0.0212116
0.00935853
0.00955631
0.0210181
0.0179724
0.0184031
0.0216462
0.0214661
0.0183524
0.018752
0.0220397
0.00973642
0.00990025
0.0218782
0.0186989
0.0190653
0.022394
0.0222566
0.0190125
0.0193452
0.0227128
0.0100495
0.0101854
0.0226016
0.0192943
0.0195948
0.0229994
0.0229169
0.019555
0.019818
0.0232626
0.0103109
0.0104302
0.0232104
0.0197935
0.0200287
0.0235166
0.0234893
0.0200179
0.0202434
0.0237756
0.0105474
0.010653
0.0237605
0.0202405
0.0204822
0.0240496
0.024008
0.0204597
0.0206993
0.0243001
0.0107422
0.0108181
0.0241886
0.0206283
0.0208694
0.02449
0.0241099
0.0206398
0.0208462
0.0244696
0.0109144
0.0104285
0.010115
0.0100331
0.00998311
0.00990764
0.00980877
0.00970706
0.00959942
0.00948244
0.00935386
0.00921246
0.00905678
0.00888542
0.008698
0.00849541
0.00828037
0.00805523
0.00782286
0.00758746
0.00735067
0.00711122
0.00686707
0.00661588
0.00635514
0.00608274
0.00579723
0.00549777
0.00518359
0.00485511
0.0045125
0.00415621
0.00378351
0.00339234
0.00297931
0.00254029
0.00206933
0.00156168
0.00161099
0.00231105
0.00310289
0.003923
0.00475284
0.00557063
0.00636579
0.0071263
0.00784051
0.00849404
0.00907866
0.00958596
0.0100223
0.010388
0.0106786
0.0109101
0.0111061
0.01126
0.0113847
0.0114937
0.0115905
0.0116842
0.011777
0.0118415
0.0118679
0.0117939
0.0117068
0.0114061
0.0107956
0.0276838
0.0270603
0.0276725
0.0275848
0.0270107
0.0277047
0.02765
0.0269388
0.0275135
0.0274108
0.0268924
0.0276337
0.0106812
0.0113271
0.0112812
0.0106352