/*--------------------------------*- C++ -*----------------------------------*\
| =========                 |                                                 |
| \\      /  F ield         | OpenFOAM: The Open Source CFD Toolbox           |
|  \\    /   O peration     | Version:  v2006                                 |
|   \\  /    A nd           | Website:  www.openfoam.com                      |
|    \\/     M anipulation  |                                                 |
\*---------------------------------------------------------------------------*/
FoamFile
{
    version     2.0;
    format      ascii;
    class       volScalarField;
    location    "0.002";
    object      turbulenceProperties:L;
}
// * * * * * * * * * * * * * * * * * * * * * * * * * * * * * * * * * * * * * //

dimensions      [0 1 0 0 0 0 0];


internalField   nonuniform List<scalar> 
10108
(
385.512
484.1
1977.63
1904.05
1334.31
780.356
467.856
347.432
299.257
285.353
282.61
284.201
286.15
287.39
287.209
285.66
283.532
282.28
282.814
285.172
287.616
283.947
261.064
211.616
155.555
117.21
98.1152
91.0311
91.0341
95.1166
100.208
103.43
103.545
101.572
100.205
106.737
164.861
930.661
1610.05
1819.34
1906.81
1961.17
1983.61
1783.01
639.508
245.991
134.849
100.62
93.6022
99.047
115.384
154.154
204.65
269.097
265.779
287.586
235.458
203.732
455.623
475.893
307.021
64.7291
13.4616
32.2336
63.3445
14.1952
1.3231
0.226994
0.0397256
0.00370831
0.000603593
4.26654e-05
4.16622e-05
0.00030694
0.00138088
0.000893984
0.000235267
4.08565e-05
4.02652e-05
0.000213741
0.000731185
0.00063661
0.000201557
4.03064e-05
3.99432e-05
0.000189973
0.000576029
0.000538472
0.000183005
3.97746e-05
3.95003e-05
0.000175189
0.000510676
0.000488081
0.000170867
3.92929e-05
3.91616e-05
0.000166898
0.000475671
0.000456901
0.000161106
3.90377e-05
3.88959e-05
0.000160105
0.000461242
0.000462
0.000158088
3.87416e-05
3.85871e-05
0.000149458
0.000465775
0.000428217
0.000130532
3.8457e-05
3.83616e-05
0.000103109
0.000377305
0.000323011
7.97886e-05
3.82933e-05
3.82386e-05
6.97423e-05
0.000290647
0.000265203
6.54126e-05
3.81921e-05
3.815e-05
6.43941e-05
0.000256873
0.000247254
6.4388e-05
3.8111e-05
3.80728e-05
6.58655e-05
0.000248683
0.000247569
6.86359e-05
3.80383e-05
3.8005e-05
7.34552e-05
0.00025832
0.000258339
7.72426e-05
3.79723e-05
3.79361e-05
8.27808e-05
0.000267319
0.000269026
8.77564e-05
3.78978e-05
3.78556e-05
9.37498e-05
0.000276689
0.000278492
9.80974e-05
3.7809e-05
3.77543e-05
0.000102553
0.000283158
0.000283316
0.000105454
3.76885e-05
3.76111e-05
0.000108708
0.000285794
0.000284845
0.000110223
3.75243e-05
3.74235e-05
0.000111526
0.000286233
0.000283016
0.000110536
3.73033e-05
3.71593e-05
0.00010959
0.000281388
0.000275275
0.000107045
3.69856e-05
3.67853e-05
0.000102169
0.000272847
0.000257327
9.18245e-05
3.65738e-05
3.63705e-05
7.62499e-05
0.000240993
0.000211798
6.26397e-05
3.61871e-05
3.6021e-05
5.36676e-05
0.000188993
0.00016094
4.80108e-05
3.58642e-05
3.57092e-05
4.48464e-05
0.00013667
0.000116763
4.31914e-05
3.55522e-05
3.53885e-05
4.26516e-05
0.000106152
9.95319e-05
4.23419e-05
3.52163e-05
3.5032e-05
4.24977e-05
9.70754e-05
9.54394e-05
4.24499e-05
3.48352e-05
3.46228e-05
4.27169e-05
9.48613e-05
9.40872e-05
4.26874e-05
3.43947e-05
3.41477e-05
4.29577e-05
9.41082e-05
9.35455e-05
4.28967e-05
3.38813e-05
3.35921e-05
4.31498e-05
9.37113e-05
9.30692e-05
4.30438e-05
3.32791e-05
3.29379e-05
4.32679e-05
9.30682e-05
9.22715e-05
4.31045e-05
3.25682e-05
3.21684e-05
4.32748e-05
9.21633e-05
9.12239e-05
4.30506e-05
3.17392e-05
3.12882e-05
4.31415e-05
9.10961e-05
9.00077e-05
4.28134e-05
3.08834e-05
3.04686e-05
4.27989e-05
8.98889e-05
8.86667e-05
4.23878e-05
3.00166e-05
2.95147e-05
4.22808e-05
8.85669e-05
8.72269e-05
4.17977e-05
2.89568e-05
2.83307e-05
4.15727e-05
8.69538e-05
8.52835e-05
4.09899e-05
2.76281e-05
2.68347e-05
4.06693e-05
8.48333e-05
8.30853e-05
3.99373e-05
2.5937e-05
2.49203e-05
3.93613e-05
8.27372e-05
8.08702e-05
3.83979e-05
2.37732e-05
2.24825e-05
3.76744e-05
8.0824e-05
7.94956e-05
3.66245e-05
2.1031e-05
1.94028e-05
3.56654e-05
7.9971e-05
7.90036e-05
3.44358e-05
1.75863e-05
1.55573e-05
3.32357e-05
7.94028e-05
7.80892e-05
3.18843e-05
1.3318e-05
1.18537e-05
3.04296e-05
7.62289e-05
7.48255e-05
2.93948e-05
1.12697e-05
1.11184e-05
2.77748e-05
7.1791e-05
7.1605e-05
2.72971e-05
1.13514e-05
1.23202e-05
2.62724e-05
6.82519e-05
6.78246e-05
2.64961e-05
1.36936e-05
1.50488e-05
2.59841e-05
6.45365e-05
6.46598e-05
2.6479e-05
1.64515e-05
1.7734e-05
2.67253e-05
6.30455e-05
6.4271e-05
2.75482e-05
1.90546e-05
2.04231e-05
2.8152e-05
6.33422e-05
6.43559e-05
2.97951e-05
2.19474e-05
2.35625e-05
3.19676e-05
6.53345e-05
6.76997e-05
3.45892e-05
2.51203e-05
2.65219e-05
3.67372e-05
6.85775e-05
6.96088e-05
3.88826e-05
2.7783e-05
2.89217e-05
4.07322e-05
6.96925e-05
7.0449e-05
4.26182e-05
2.99542e-05
3.08876e-05
4.41584e-05
7.0878e-05
7.22373e-05
4.56319e-05
3.18146e-05
3.27777e-05
4.663e-05
7.32425e-05
7.45111e-05
4.74603e-05
3.36492e-05
3.43989e-05
4.77204e-05
7.54389e-05
7.61997e-05
4.78698e-05
3.50304e-05
3.55639e-05
4.7603e-05
7.66155e-05
7.76816e-05
4.73753e-05
3.60086e-05
3.63824e-05
4.68356e-05
7.77777e-05
7.89379e-05
4.64529e-05
3.66947e-05
3.69593e-05
4.57652e-05
7.89308e-05
7.96734e-05
4.53144e-05
3.71829e-05
3.73749e-05
4.4573e-05
7.94302e-05
7.97716e-05
4.41163e-05
3.75397e-05
3.76842e-05
4.33602e-05
7.9341e-05
7.95259e-05
4.29247e-05
3.7811e-05
3.79241e-05
4.2122e-05
7.91622e-05
8.03997e-05
4.17021e-05
3.80238e-05
3.81131e-05
4.112e-05
8.05837e-05
8.27219e-05
4.0844e-05
3.81932e-05
3.82656e-05
4.04113e-05
8.32504e-05
8.59003e-05
4.02223e-05
3.83309e-05
3.83903e-05
3.99676e-05
8.71453e-05
9.08041e-05
3.9928e-05
3.84433e-05
3.84907e-05
3.9822e-05
9.32355e-05
9.78208e-05
3.9825e-05
3.85323e-05
3.85676e-05
3.97259e-05
9.92549e-05
0.000103615
3.96856e-05
3.85954e-05
3.86185e-05
3.95815e-05
0.000104285
0.000108874
3.9634e-05
3.86378e-05
3.86464e-05
3.95091e-05
0.000109582
0.000116372
3.97013e-05
3.86483e-05
3.86354e-05
3.97177e-05
0.000118475
0.000134124
4.02605e-05
3.85721e-05
3.849e-05
4.08651e-05
0.000143609
0.000179547
4.23438e-05
3.82953e-05
3.80221e-05
4.41054e-05
0.000200421
0.000261916
4.78666e-05
3.75085e-05
3.6997e-05
5.32388e-05
0.000304719
0.000408754
6.00153e-05
3.62829e-05
3.58112e-05
7.10148e-05
0.000501508
0.000689069
9.54402e-05
3.42047e-05
3.15159e-05
0.000137163
0.000761772
0.000834546
0.000203646
2.95137e-05
2.39942e-05
0.000715483
0.000906081
0.000913456
0.000913199
0.0009132
0.000913229
0.000913203
0.000913172
0.000913219
0.000913173
0.000913241
0.000913106
0.00091328
0.000913193
0.000913184
0.000913091
0.000912337
0.000908462
0.000904912
0.000905028
0.000910772
0.000912465
0.000911237
0.000910222
0.000901882
0.000766004
0.000183211
0.000123513
9.4906e-06
8.91777e-06
1.06898e-05
2.01706e-05
2.35891e-05
1.24639e-05
6.89033e-06
1.06911e-05
1.28849e-05
2.43629e-05
2.5576e-05
1.25719e-05
1.2619e-05
1.31911e-05
1.4039e-05
2.43877e-05
2.46147e-05
1.37632e-05
1.34421e-05
1.35309e-05
1.47147e-05
2.31208e-05
2.30719e-05
1.48234e-05
1.35417e-05
1.34798e-05
1.57004e-05
2.22504e-05
2.21393e-05
1.60023e-05
1.33386e-05
1.33264e-05
1.68097e-05
2.18527e-05
2.17861e-05
1.71967e-05
1.32605e-05
1.31887e-05
1.80505e-05
2.18882e-05
2.18869e-05
1.84959e-05
1.30871e-05
1.29898e-05
1.91946e-05
2.23236e-05
2.23909e-05
1.96905e-05
1.2881e-05
1.27773e-05
2.02498e-05
2.302e-05
2.31418e-05
2.07533e-05
1.26664e-05
1.25744e-05
2.12077e-05
2.38651e-05
2.40323e-05
2.16942e-05
1.25034e-05
1.24501e-05
2.20525e-05
2.47786e-05
2.49805e-05
2.24911e-05
1.23961e-05
1.23507e-05
2.26784e-05
2.56842e-05
2.59105e-05
2.31085e-05
1.23053e-05
1.22665e-05
2.31648e-05
2.65848e-05
2.68116e-05
2.36303e-05
1.223e-05
1.21974e-05
2.35996e-05
2.73437e-05
2.76107e-05
2.40826e-05
1.21688e-05
1.21417e-05
2.39564e-05
2.7996e-05
2.83165e-05
2.44255e-05
1.21196e-05
1.20974e-05
2.42509e-05
2.85844e-05
2.89296e-05
2.46749e-05
1.20807e-05
1.20628e-05
2.44463e-05
2.90977e-05
2.94636e-05
2.47779e-05
1.20494e-05
1.20348e-05
2.44974e-05
2.95558e-05
2.99074e-05
2.4742e-05
1.20253e-05
1.20158e-05
2.44334e-05
2.98284e-05
2.99317e-05
2.4636e-05
1.2011e-05
1.20091e-05
2.43222e-05
2.96955e-05
2.96349e-05
2.45199e-05
1.20095e-05
1.2016e-05
2.42212e-05
2.93884e-05
2.93778e-05
2.44398e-05
1.20231e-05
1.20378e-05
2.41738e-05
2.91533e-05
2.92535e-05
2.44184e-05
1.20568e-05
1.20864e-05
2.42081e-05
2.90547e-05
2.92891e-05
2.4592e-05
1.21203e-05
1.21784e-05
2.44899e-05
2.91446e-05
2.95218e-05
2.46786e-05
1.2233e-05
1.22948e-05
2.449e-05
2.91036e-05
2.94551e-05
2.46218e-05
1.24394e-05
1.27812e-05
2.46768e-05
2.9387e-05
2.97113e-05
2.4788e-05
1.29981e-05
1.33479e-05
2.49683e-05
2.97962e-05
3.04007e-05
2.51959e-05
1.3782e-05
1.41889e-05
2.52332e-05
3.05599e-05
3.17959e-05
2.5749e-05
1.46532e-05
1.51874e-05
2.58463e-05
3.12709e-05
3.2948e-05
2.63579e-05
1.58446e-05
1.67458e-05
2.67117e-05
3.35231e-05
3.52029e-05
2.69972e-05
1.79321e-05
1.9486e-05
3.1264e-05
4.38559e-05
2.80198e-05
2.00052e-05
1.46931e-05
9.97504e-06
2.15904e-05
3.07273e-05
3.3135e-05
2.28621e-05
1.32705e-05
1.52825e-05
2.35294e-05
3.4772e-05
3.70254e-05
2.4112e-05
1.69433e-05
1.82729e-05
2.44953e-05
3.86589e-05
4.10274e-05
2.51248e-05
1.98401e-05
2.13679e-05
5.05853e-05
4.89489e-05
3.15645e-05
2.19611e-05
1.61812e-05
1.09986e-05
2.31358e-05
3.39681e-05
3.7487e-05
2.54652e-05
1.45958e-05
1.71165e-05
2.66472e-05
3.96303e-05
4.97344e-05
2.63623e-05
1.92038e-05
1.51167e-05
2.01626e-05
2.89795e-05
3.26704e-05
2.22825e-05
1.09653e-05
1.56898e-05
2.50734e-05
3.64684e-05
4.29867e-05
2.38729e-05
1.95044e-05
1.66263e-05
2.19557e-05
2.99733e-05
3.72887e-05
2.68222e-05
1.33604e-05
1.39779e-05
2.32624e-05
3.42314e-05
1.84792e-05
1.3336e-05
1.08607e-05
9.56758e-06
1.24284e-05
1.49964e-05
2.6756e-05
2.52653e-05
1.23986e-05
1.1802e-05
2.45763e-05
3.3282e-05
2.46957e-05
1.90062e-05
1.41328e-05
1.62053e-05
2.55014e-05
3.18784e-05
2.6866e-05
1.93435e-05
1.0337e-05
1.34362e-05
1.77289e-05
2.4119e-05
3.45161e-05
2.52534e-05
1.59582e-05
1.07052e-05
1.98147e-05
2.86942e-05
2.51019e-05
1.83509e-05
1.37171e-05
1.6045e-05
2.70425e-05
3.79829e-05
3.11623e-05
2.0442e-05
1.08337e-05
1.38458e-05
1.8827e-05
2.6743e-05
4.29959e-05
2.9704e-05
1.6207e-05
1.08548e-05
2.1305e-05
3.43278e-05
2.86993e-05
1.91999e-05
1.36834e-05
1.58703e-05
3.4045e-05
4.8811e-05
3.77158e-05
2.19106e-05
1.05626e-05
1.33551e-05
1.92518e-05
3.00618e-05
5.38976e-05
3.65518e-05
1.54932e-05
1.02078e-05
2.14802e-05
3.8019e-05
2.95206e-05
1.86451e-05
1.28041e-05
1.48181e-05
3.41911e-05
5.34885e-05
3.62557e-05
2.0063e-05
9.66812e-06
1.22258e-05
1.76012e-05
2.83524e-05
5.43562e-05
3.26492e-05
1.40957e-05
9.03593e-06
1.92736e-05
3.64159e-05
2.84939e-05
1.65666e-05
1.14628e-05
1.31461e-05
3.28611e-05
5.70271e-05
3.54212e-05
1.79485e-05
8.28531e-06
1.056e-05
1.54293e-05
2.70639e-05
5.71539e-05
3.13129e-05
1.20984e-05
7.48737e-06
1.66647e-05
3.51894e-05
2.63954e-05
1.37262e-05
9.42762e-06
1.05559e-05
2.93943e-05
6.07383e-05
3.17814e-05
1.36184e-05
6.17868e-06
7.06101e-06
1.08075e-05
2.11716e-05
5.27418e-05
5.48711e-05
6.70173e-06
8.72883e-06
1.54698e-05
3.43794e-05
7.83244e-05
5.42793e-05
9.34222e-06
5.16666e-06
1.46264e-05
4.1876e-05
2.84778e-05
1.18362e-05
6.4079e-06
7.08523e-06
6.04176e-05
7.58133e-05
3.27407e-05
1.09589e-05
3.80689e-06
4.43303e-06
7.20875e-06
1.79075e-05
5.56422e-05
3.64852e-05
4.30562e-06
5.50009e-06
9.64454e-06
2.71344e-05
9.05193e-05
6.05467e-05
6.04136e-06
2.88375e-06
1.59578e-05
4.40568e-05
2.28847e-05
7.22639e-06
3.07921e-06
3.02296e-06
2.26504e-05
4.79431e-05
3.45708e-05
1.07954e-05
3.54527e-06
4.19985e-06
2.97023e-05
6.69545e-05
3.7999e-05
1.38063e-05
1.64734e-06
1.46326e-06
1.60198e-05
4.70733e-05
3.05256e-05
1.3563e-05
1.72215e-06
2.1716e-06
2.43621e-05
5.31919e-05
4.97807e-05
2.52963e-05
3.19419e-06
8.99123e-07
1.04735e-05
2.47862e-05
5.28851e-05
2.77658e-05
1.96997e-06
2.03642e-06
1.15716e-05
2.51583e-05
5.15003e-05
2.64527e-05
3.52722e-06
5.07832e-06
2.28076e-05
4.45673e-05
1.90951e-05
8.00182e-06
2.00163e-06
3.01572e-06
2.6866e-05
3.85601e-05
2.15808e-05
9.66762e-06
3.4157e-06
4.53117e-06
2.42264e-05
4.47518e-05
4.04222e-05
2.18199e-05
6.38752e-06
2.97561e-06
7.43044e-06
1.76321e-05
3.26618e-05
2.81869e-05
3.71863e-06
4.27039e-06
8.65669e-06
1.89674e-05
3.40468e-05
3.01218e-05
4.88658e-06
5.77858e-06
1.01955e-05
1.9766e-05
4.24923e-05
2.40347e-05
6.51859e-06
8.41596e-06
2.25784e-05
3.87291e-05
1.75776e-05
8.35072e-06
4.42492e-06
4.82601e-06
2.57859e-05
3.03097e-05
1.80033e-05
9.8756e-06
5.74e-06
5.98752e-06
2.44942e-05
3.2405e-05
1.97871e-05
1.1127e-05
7.1603e-06
7.80876e-06
2.22987e-05
3.64039e-05
3.37221e-05
1.94184e-05
9.75436e-06
5.36916e-06
9.40831e-06
1.63551e-05
2.70949e-05
2.37204e-05
5.63518e-06
6.73976e-06
1.10653e-05
1.728e-05
3.0499e-05
2.23775e-05
6.74528e-06
7.87504e-06
1.21121e-05
1.9109e-05
3.23947e-05
2.35047e-05
7.68032e-06
8.91344e-06
1.29557e-05
2.0288e-05
3.57716e-05
2.18381e-05
9.3405e-06
1.14287e-05
1.91169e-05
3.23661e-05
1.64647e-05
1.04804e-05
6.37762e-06
6.5359e-06
2.32212e-05
2.5467e-05
1.73073e-05
1.21878e-05
7.79106e-06
7.73329e-06
2.11684e-05
2.83547e-05
1.88316e-05
1.29636e-05
8.9097e-06
8.73876e-06
2.2527e-05
2.98665e-05
1.99585e-05
1.401e-05
9.97556e-06
1.04356e-05
2.15383e-05
3.37324e-05
3.09012e-05
1.94376e-05
1.263e-05
7.21821e-06
1.1374e-05
1.68654e-05
2.5136e-05
2.29837e-05
7.37774e-06
8.76026e-06
1.32229e-05
1.79068e-05
2.79875e-05
2.16628e-05
8.68277e-06
9.78075e-06
1.38199e-05
1.93946e-05
2.92275e-05
2.22151e-05
9.34264e-06
1.04481e-05
1.4576e-05
2.03468e-05
3.02139e-05
2.33085e-05
1.0049e-05
1.13527e-05
1.5556e-05
2.12147e-05
3.36463e-05
2.22498e-05
1.17687e-05
1.39297e-05
2.02301e-05
3.04847e-05
1.78128e-05
1.2461e-05
8.04237e-06
8.22544e-06
2.30978e-05
2.50043e-05
1.87141e-05
1.40853e-05
9.5961e-06
9.39151e-06
2.14314e-05
2.67103e-05
1.96855e-05
1.44526e-05
1.04646e-05
1.00603e-05
2.16132e-05
2.72408e-05
2.02856e-05
1.51007e-05
1.10911e-05
1.07113e-05
2.26141e-05
2.80695e-05
2.10792e-05
1.60904e-05
1.20124e-05
1.25921e-05
2.1883e-05
3.10221e-05
2.87642e-05
2.03828e-05
1.47678e-05
8.74361e-06
1.32289e-05
1.83274e-05
2.47174e-05
2.30092e-05
8.93047e-06
1.02384e-05
1.47377e-05
1.926e-05
2.61466e-05
2.18207e-05
1.01036e-05
1.11697e-05
1.51825e-05
2.01054e-05
2.66869e-05
2.17747e-05
1.06888e-05
1.17585e-05
1.57742e-05
2.07354e-05
2.73453e-05
2.27105e-05
1.14741e-05
1.26605e-05
1.6688e-05
2.14478e-05
2.97372e-05
2.20087e-05
1.31482e-05
1.52183e-05
2.06272e-05
2.76902e-05
1.85647e-05
1.34775e-05
8.94967e-06
9.12247e-06
2.29752e-05
2.40095e-05
1.92851e-05
1.48938e-05
1.04195e-05
1.02987e-05
2.12864e-05
2.49345e-05
1.99703e-05
1.52582e-05
1.13746e-05
1.09117e-05
2.13759e-05
2.52075e-05
2.03628e-05
1.57304e-05
1.18362e-05
1.15043e-05
2.20716e-05
2.57496e-05
2.09833e-05
1.66276e-05
1.27464e-05
1.34082e-05
2.14338e-05
2.78721e-05
2.6457e-05
2.04472e-05
1.55624e-05
9.29979e-06
1.38038e-05
1.86953e-05
2.3543e-05
2.2978e-05
9.48516e-06
1.07863e-05
1.52641e-05
1.94e-05
2.4645e-05
2.14715e-05
1.07194e-05
1.17948e-05
1.56907e-05
2.01957e-05
2.51321e-05
2.16197e-05
1.14329e-05
1.23867e-05
1.62825e-05
2.07621e-05
2.57349e-05
2.24473e-05
1.20527e-05
1.32058e-05
1.71281e-05
2.13879e-05
2.77854e-05
2.18458e-05
1.37814e-05
1.58452e-05
2.08452e-05
2.63989e-05
1.90038e-05
1.40864e-05
9.46631e-06
9.75176e-06
2.30739e-05
2.38431e-05
1.9863e-05
1.55806e-05
1.10631e-05
1.10282e-05
2.1867e-05
2.46017e-05
2.04315e-05
1.58917e-05
1.19599e-05
1.15189e-05
2.1674e-05
2.48415e-05
2.08229e-05
1.63799e-05
1.24851e-05
1.22988e-05
2.22734e-05
2.53999e-05
2.14916e-05
1.73641e-05
1.35338e-05
1.42396e-05
2.19692e-05
2.73578e-05
2.63152e-05
2.12011e-05
1.64193e-05
9.95046e-06
1.46579e-05
1.95278e-05
2.42544e-05
2.34361e-05
1.02211e-05
1.15264e-05
1.61971e-05
2.04665e-05
2.52518e-05
2.24741e-05
1.15871e-05
1.26633e-05
1.66922e-05
2.1199e-05
2.58251e-05
2.26891e-05
1.24663e-05
1.35624e-05
1.74985e-05
2.17451e-05
2.75683e-05
2.21353e-05
1.41681e-05
1.62873e-05
2.12812e-05
2.65105e-05
1.95951e-05
1.45841e-05
9.85845e-06
1.01907e-05
2.36368e-05
2.40818e-05
2.03593e-05
1.61421e-05
1.15229e-05
1.16639e-05
2.23905e-05
2.49373e-05
2.10914e-05
1.66859e-05
1.27171e-05
1.2669e-05
2.24777e-05
2.56155e-05
2.19012e-05
1.77574e-05
1.39348e-05
1.48258e-05
2.24053e-05
2.74513e-05
2.66146e-05
2.17438e-05
1.70039e-05
1.04414e-05
1.52407e-05
2.01265e-05
2.48372e-05
2.38954e-05
1.09089e-05
1.22932e-05
1.69841e-05
2.11917e-05
2.60572e-05
2.34056e-05
1.25825e-05
1.3887e-05
1.79806e-05
2.22103e-05
2.78581e-05
2.26485e-05
1.48049e-05
1.69447e-05
2.1906e-05
2.69715e-05
2.02678e-05
1.52696e-05
1.03183e-05
1.08017e-05
2.41056e-05
2.50532e-05
2.1282e-05
1.69082e-05
1.21878e-05
1.26093e-05
2.32988e-05
2.61043e-05
2.22812e-05
1.79768e-05
1.39492e-05
1.5095e-05
2.27116e-05
2.77645e-05
2.71009e-05
2.21182e-05
1.74753e-05
1.07698e-05
1.57167e-05
2.07184e-05
2.5433e-05
2.42532e-05
1.13055e-05
1.29386e-05
1.75985e-05
2.17775e-05
2.75247e-05
2.25489e-05
1.42818e-05
1.67189e-05
2.18843e-05
2.69514e-05
2.03558e-05
1.52533e-05
1.04708e-05
1.12231e-05
2.38283e-05
2.52542e-05
2.15765e-05
1.74861e-05
1.2747e-05
1.41271e-05
2.24875e-05
2.7359e-05
2.68542e-05
2.1872e-05
1.67165e-05
1.061e-05
1.53174e-05
2.03423e-05
2.52404e-05
2.36754e-05
1.1374e-05
1.29462e-05
1.75725e-05
2.1606e-05
2.74311e-05
2.26562e-05
1.42101e-05
1.65324e-05
2.19907e-05
2.69488e-05
2.01906e-05
1.51376e-05
1.04889e-05
1.14128e-05
2.33857e-05
2.52229e-05
2.16284e-05
1.7675e-05
1.30995e-05
1.47908e-05
2.29151e-05
2.75732e-05
2.71139e-05
2.23979e-05
1.73822e-05
1.09921e-05
1.60406e-05
2.09395e-05
2.5884e-05
2.44805e-05
1.18493e-05
1.36757e-05
1.83271e-05
2.23138e-05
2.84425e-05
2.34403e-05
1.55394e-05
1.83498e-05
2.31061e-05
2.80506e-05
2.21915e-05
1.73585e-05
1.22126e-05
1.41316e-05
2.44077e-05
2.81632e-05
2.79988e-05
2.3872e-05
1.71907e-05
1.1889e-05
1.70627e-05
2.20952e-05
2.82299e-05
2.41072e-05
1.40437e-05
1.71469e-05
2.3543e-05
2.81071e-05
2.20289e-05
1.69543e-05
1.17549e-05
1.3847e-05
2.40808e-05
2.83101e-05
2.82028e-05
2.35209e-05
1.69617e-05
1.18733e-05
1.70726e-05
2.20712e-05
2.84315e-05
2.40388e-05
1.41704e-05
1.72517e-05
2.35809e-05
2.83949e-05
2.20655e-05
1.69935e-05
1.19733e-05
1.45567e-05
2.42977e-05
2.87361e-05
2.86918e-05
2.39543e-05
1.8084e-05
1.291e-05
1.82856e-05
2.30829e-05
2.98654e-05
2.55398e-05
1.57552e-05
2.02902e-05
2.6412e-05
3.01448e-05
2.96061e-05
2.49473e-05
1.69826e-05
1.25014e-05
1.80598e-05
2.35806e-05
3.08985e-05
2.59049e-05
1.60194e-05
2.09409e-05
2.60327e-05
3.14151e-05
3.05592e-05
2.54266e-05
1.88057e-05
1.5421e-05
2.51994e-05
3.05555e-05
2.29494e-05
1.68091e-05
1.18396e-05
1.58316e-05
2.49403e-05
3.09903e-05
3.15147e-05
2.53344e-05
2.06521e-05
1.90171e-05
2.49491e-05
3.08979e-05
3.10578e-05
2.46024e-05
1.81417e-05
1.77574e-05
2.38582e-05
3.09085e-05
3.10004e-05
2.33643e-05
1.77762e-05
1.78962e-05
2.35817e-05
3.10933e-05
3.12987e-05
2.37451e-05
1.79421e-05
1.79031e-05
2.43706e-05
3.15235e-05
3.18653e-05
2.51952e-05
1.78048e-05
1.76943e-05
2.58717e-05
3.23063e-05
3.30701e-05
2.71454e-05
1.75719e-05
1.74483e-05
2.78227e-05
3.37758e-05
3.45334e-05
2.88928e-05
1.73184e-05
1.71932e-05
2.96438e-05
3.54799e-05
3.61564e-05
3.04852e-05
1.70678e-05
1.69482e-05
3.09573e-05
3.72879e-05
3.79784e-05
3.17786e-05
1.6832e-05
1.67216e-05
3.19889e-05
3.93076e-05
4.01034e-05
3.27518e-05
1.66165e-05
1.65163e-05
3.27516e-05
4.16953e-05
4.25915e-05
3.34777e-05
1.6423e-05
1.63347e-05
3.34383e-05
4.42127e-05
4.5205e-05
3.41586e-05
1.62551e-05
1.6178e-05
3.41142e-05
4.67533e-05
4.77418e-05
3.49153e-05
1.61132e-05
1.60456e-05
3.48462e-05
4.91016e-05
4.99778e-05
3.56845e-05
1.59962e-05
1.59359e-05
3.5587e-05
5.10761e-05
5.18681e-05
3.64543e-05
1.59009e-05
1.58463e-05
3.63391e-05
5.2734e-05
5.34519e-05
3.71886e-05
1.58215e-05
1.57695e-05
3.70502e-05
5.41641e-05
5.4842e-05
3.79043e-05
1.57509e-05
1.5703e-05
3.77489e-05
5.53806e-05
5.59938e-05
3.85671e-05
1.56897e-05
1.56489e-05
3.83872e-05
5.6397e-05
5.70196e-05
3.92233e-05
1.56408e-05
1.56091e-05
3.90323e-05
5.73554e-05
5.80334e-05
3.98765e-05
1.56067e-05
1.55853e-05
3.96978e-05
5.83527e-05
5.90949e-05
4.05896e-05
1.55869e-05
1.55735e-05
4.04367e-05
5.94091e-05
6.02224e-05
4.13354e-05
1.55787e-05
1.55723e-05
4.11811e-05
6.05548e-05
6.14584e-05
4.20976e-05
1.55825e-05
1.55787e-05
4.19458e-05
6.17878e-05
6.27583e-05
4.28198e-05
1.5594e-05
1.55915e-05
4.26385e-05
6.30619e-05
6.40924e-05
4.34899e-05
1.56097e-05
1.56083e-05
4.32856e-05
6.43228e-05
6.53927e-05
4.40651e-05
1.56283e-05
1.56273e-05
4.38163e-05
6.55482e-05
6.66698e-05
4.45695e-05
1.56483e-05
1.56478e-05
4.42944e-05
6.67386e-05
6.78897e-05
4.49791e-05
1.56694e-05
1.56697e-05
4.4645e-05
6.78948e-05
6.90851e-05
4.53263e-05
1.56843e-05
1.56994e-05
4.49808e-05
6.90327e-05
7.01573e-05
4.55753e-05
1.57138e-05
1.57147e-05
4.51754e-05
7.00227e-05
7.10449e-05
4.57553e-05
1.57349e-05
1.5736e-05
4.5326e-05
7.0854e-05
7.18314e-05
4.58693e-05
1.57553e-05
1.57568e-05
4.54002e-05
7.16186e-05
7.25735e-05
4.59478e-05
1.57754e-05
1.57772e-05
4.54635e-05
7.23102e-05
7.32216e-05
4.59762e-05
1.5795e-05
1.57969e-05
4.54542e-05
7.29331e-05
7.38119e-05
4.59747e-05
1.58137e-05
1.58157e-05
4.54453e-05
7.347e-05
7.42985e-05
4.5935e-05
1.58315e-05
1.58336e-05
4.53756e-05
7.39336e-05
7.473e-05
4.58765e-05
1.58485e-05
1.58508e-05
4.53182e-05
7.4315e-05
7.50679e-05
4.57915e-05
1.58649e-05
1.58672e-05
4.52131e-05
7.4636e-05
7.5363e-05
4.57017e-05
1.58806e-05
1.58831e-05
4.51318e-05
7.48855e-05
7.55726e-05
4.55962e-05
1.58959e-05
1.58986e-05
4.50116e-05
7.50846e-05
7.57509e-05
4.54943e-05
1.59107e-05
1.59135e-05
4.49213e-05
7.52226e-05
7.58547e-05
4.53807e-05
1.59251e-05
1.59279e-05
4.47947e-05
7.53224e-05
7.59416e-05
4.52725e-05
1.5939e-05
1.59419e-05
4.46991e-05
7.53755e-05
7.5971e-05
4.51537e-05
1.59525e-05
1.59554e-05
4.45694e-05
7.54079e-05
7.60304e-05
4.50433e-05
1.59655e-05
1.59684e-05
4.44734e-05
7.54173e-05
7.6006e-05
4.49241e-05
1.5978e-05
1.59809e-05
4.43438e-05
7.53919e-05
7.60052e-05
4.4813e-05
1.59898e-05
1.59927e-05
4.42464e-05
7.53393e-05
7.59169e-05
4.46922e-05
1.60011e-05
1.60038e-05
4.41153e-05
7.52569e-05
7.58617e-05
4.4581e-05
1.60116e-05
1.60142e-05
4.40175e-05
7.51574e-05
7.57239e-05
4.44621e-05
1.60215e-05
1.60239e-05
4.38884e-05
7.50311e-05
7.56162e-05
4.43538e-05
1.60305e-05
1.60328e-05
4.37934e-05
7.48821e-05
7.54269e-05
4.42383e-05
1.60389e-05
1.60409e-05
4.36679e-05
7.47128e-05
7.52882e-05
4.41344e-05
1.60464e-05
1.60481e-05
4.35774e-05
7.45435e-05
7.50865e-05
4.40241e-05
1.6053e-05
1.60543e-05
4.34574e-05
7.4366e-05
7.49379e-05
4.39267e-05
1.60585e-05
1.60596e-05
4.33738e-05
7.41881e-05
7.47281e-05
4.38242e-05
1.60631e-05
1.60637e-05
4.32628e-05
7.40072e-05
7.45826e-05
4.37358e-05
1.60665e-05
1.60668e-05
4.31892e-05
7.38405e-05
7.43913e-05
4.3644e-05
1.60689e-05
1.60688e-05
4.30887e-05
7.36838e-05
7.42742e-05
4.35669e-05
1.60701e-05
1.60696e-05
4.3025e-05
7.35458e-05
7.41123e-05
4.34842e-05
1.60699e-05
1.60686e-05
4.29306e-05
7.34147e-05
7.40197e-05
4.34103e-05
1.60678e-05
1.60656e-05
4.28677e-05
7.32951e-05
7.38721e-05
4.33254e-05
1.60637e-05
1.60605e-05
4.27699e-05
7.31693e-05
7.37752e-05
4.32469e-05
1.60575e-05
1.60531e-05
4.27048e-05
7.30363e-05
7.36068e-05
4.31624e-05
1.60495e-05
1.60435e-05
4.26119e-05
7.2889e-05
7.34909e-05
4.30947e-05
1.60394e-05
1.60323e-05
4.2564e-05
7.27458e-05
7.33177e-05
4.30294e-05
1.60278e-05
1.60198e-05
4.2495e-05
7.26095e-05
7.3221e-05
4.29839e-05
1.6015e-05
1.60062e-05
4.2478e-05
7.2508e-05
7.31101e-05
4.29498e-05
1.60013e-05
1.5992e-05
4.24496e-05
7.24525e-05
7.31186e-05
4.29489e-05
1.5987e-05
1.59771e-05
4.24746e-05
7.24964e-05
7.31862e-05
4.29603e-05
1.5972e-05
1.59613e-05
4.24742e-05
7.26247e-05
7.335e-05
4.29838e-05
1.5956e-05
1.59442e-05
4.25056e-05
7.27392e-05
7.34418e-05
4.29941e-05
1.59386e-05
1.59257e-05
4.25002e-05
7.28413e-05
7.35686e-05
4.3006e-05
1.59197e-05
1.59055e-05
4.25244e-05
7.29125e-05
7.35783e-05
4.30033e-05
1.5899e-05
1.58831e-05
4.25124e-05
7.29169e-05
7.35976e-05
4.30106e-05
1.58762e-05
1.58589e-05
4.25394e-05
7.29099e-05
7.35685e-05
4.30164e-05
1.58518e-05
1.58333e-05
4.25378e-05
7.29219e-05
7.36265e-05
4.30358e-05
1.58258e-05
1.58059e-05
4.25702e-05
7.29795e-05
7.3663e-05
4.30479e-05
1.57981e-05
1.57767e-05
4.25682e-05
7.30304e-05
7.37425e-05
4.30689e-05
1.57685e-05
1.57461e-05
4.26077e-05
7.30623e-05
7.37255e-05
4.30884e-05
1.57379e-05
1.57147e-05
4.2619e-05
7.30471e-05
7.37216e-05
4.31221e-05
1.57066e-05
1.56827e-05
4.26693e-05
7.30317e-05
7.36882e-05
4.31495e-05
1.56745e-05
1.56491e-05
4.26736e-05
7.30523e-05
7.37447e-05
4.31712e-05
1.56407e-05
1.56144e-05
4.2709e-05
7.30829e-05
7.37397e-05
4.31872e-05
1.5606e-05
1.55788e-05
4.2713e-05
7.3065e-05
7.37298e-05
4.32117e-05
1.55703e-05
1.55419e-05
4.27581e-05
7.30071e-05
7.36193e-05
4.32388e-05
1.55336e-05
1.55046e-05
4.27821e-05
7.2936e-05
7.36027e-05
4.32907e-05
1.54968e-05
1.54679e-05
4.2859e-05
7.29718e-05
7.36589e-05
4.33536e-05
1.54606e-05
1.54314e-05
4.29053e-05
7.3083e-05
7.38092e-05
4.3417e-05
1.54246e-05
1.53954e-05
4.29754e-05
7.3171e-05
7.38259e-05
4.3461e-05
1.53892e-05
1.53601e-05
4.3e-05
7.31536e-05
7.37979e-05
4.35021e-05
1.53541e-05
1.53246e-05
4.30472e-05
7.30962e-05
7.36966e-05
4.35228e-05
1.53185e-05
1.52875e-05
4.3044e-05
7.30418e-05
7.3677e-05
4.35327e-05
1.52811e-05
1.52491e-05
4.30634e-05
7.3007e-05
7.36e-05
4.35343e-05
1.5243e-05
1.52109e-05
4.3057e-05
7.29159e-05
7.35216e-05
4.3557e-05
1.52049e-05
1.51726e-05
4.30967e-05
7.28017e-05
7.33683e-05
4.35817e-05
1.51668e-05
1.51346e-05
4.31085e-05
7.26798e-05
7.32869e-05
4.3616e-05
1.51298e-05
1.50995e-05
4.31489e-05
7.2614e-05
7.32472e-05
4.36566e-05
1.50966e-05
1.50695e-05
4.32093e-05
7.26402e-05
7.32769e-05
4.37485e-05
1.50813e-05
1.50709e-05
4.33125e-05
7.26952e-05
7.33376e-05
4.38306e-05
1.50725e-05
1.50659e-05
4.3414e-05
7.26862e-05
7.3342e-05
4.40088e-05
1.5106e-05
1.51388e-05
4.36267e-05
7.27606e-05
7.3679e-05
4.43442e-05
1.5219e-05
1.52602e-05
4.40414e-05
7.3209e-05
7.45102e-05
4.48498e-05
1.54109e-05
1.55561e-05
4.46443e-05
7.40615e-05
7.66613e-05
4.60921e-05
1.62472e-05
1.73701e-05
4.82858e-05
8.01804e-05
8.40173e-05
5.10846e-05
1.85461e-05
0.000120989
0.000151714
0.00019947
0.000210017
0.000313549
0.000461446
0.000570288
0.000590296
0.000728644
0.000842265
0.000885492
0.000914311
0.000939952
0.000963616
0.000987155
0.00101027
0.00103002
0.00104501
0.00105623
0.0010634
0.00106761
0.00107028
0.00107216
0.00107345
0.00107409
0.00107423
0.00107399
0.00107386
0.00107397
0.00107445
0.00107478
0.00107492
0.00107555
0.00107594
0.00107664
0.00107728
0.00107816
0.00107886
0.0010796
0.00107992
0.00108022
0.00108046
0.00108075
0.00108124
0.0010816
0.00108176
0.001082
0.00108246
0.00108307
0.00108362
0.00108406
0.00108448
0.00108494
0.00108544
0.00108591
0.00108632
0.00108661
0.00108688
0.00108716
0.00108727
0.00108734
0.00108745
0.00108765
0.00108797
0.00108832
0.00108866
0.00108897
0.00108923
0.00108945
0.00108957
0.00108966
0.00108971
0.00108976
0.0010898
0.00108986
0.00108992
0.00108998
0.00109002
0.00109003
0.00109004
0.00109007
0.00109012
0.00109017
0.0010903
0.00109032
0.0010903
0.00109026
0.0010901
0.00108973
0.00108925
0.00108882
0.00108825
0.0010875
0.00108672
0.00108594
0.00108512
0.00108409
0.00108299
0.00108212
0.00108147
0.00108078
0.00108009
0.00107949
0.00107892
0.00107818
0.00107731
0.00107648
0.00107577
0.00107523
0.00107463
0.00107384
0.00107313
0.00107253
0.00107196
0.00107145
0.00107101
0.00107053
0.00107008
0.00106979
0.00106957
0.00106921
0.00106879
0.00106838
0.00106783
0.00106692
0.0010655
0.00106441
0.00106625
0.00106947
0.00107481
0.00108749
0.00111863
0.00119083
0.00134411
0.00164325
0.00219332
0.00319569
0.00509259
0.00866528
0.0135209
0.0177037
0.0212105
0.0247257
0.0290048
0.0345933
0.0421555
0.0521349
0.061628
0.0668946
0.069354
0.0700191
0.0695514
0.0693053
0.0704617
0.0757765
0.0902372
0.120446
0.175441
0.264222
0.389537
0.558183
0.800215
1.16963
1.79084
2.97589
5.6868
12.6519
32.9749
107.276
88.864
62.8505
42.8857
31.43
26.0546
23.8936
23.2174
23.1354
23.2356
23.3468
23.3994
23.3711
23.2792
23.1671
23.0807
23.0421
22.9974
22.6989
21.4248
18.2331
13.7905
10.297
8.47761
7.83317
7.86112
8.29689
8.97752
9.71689
10.3201
10.6818
10.8525
10.9774
11.3152
12.7249
18.9163
55.5464
395.742
799.028
473.594
176.625
71.4645
30.1098
15.2973
9.88656
7.92961
7.42142
7.55568
7.97507
8.45574
8.87685
9.24064
9.61209
10.0371
10.6377
11.5434
12.241
10.4286
5.38323
1.65519
0.373319
0.0693295
0.0161446
0.00761893
0.00260234
0.00227177
0.00211517
0.00198497
0.0018949
0.00181652
0.00182198
0.0018356
0.0018875
0.00185604
0.00177121
0.00159294
0.00142301
0.00125379
0.00111966
0.000999927
0.0009532
0.000898819
0.00090049
0.000866057
0.000863459
0.00083823
0.000836963
0.000819538
0.000817836
0.000804697
0.000801498
0.000792772
0.000791388
0.000785594
0.000779762
0.000767695
0.000773678
0.000785734
0.00080158
0.000781053
0.00073955
0.000655532
0.000560833
0.000470085
0.00040891
0.000371029
0.000352835
0.000341055
0.000336084
0.000329575
0.000327407
0.000322159
0.000320234
0.00031476
0.000312569
0.000306574
0.000304121
0.000297679
0.000295013
0.000288293
0.000285552
0.000278824
0.000275993
0.000269267
0.0002662
0.000259351
0.000256186
0.000249897
0.000247136
0.000241743
0.000239404
0.000235748
0.000234631
0.000233033
0.000232843
0.000232326
0.000230142
0.000229184
0.000222241
0.000221632
0.000209803
0.000204761
0.000191365
0.00018375
0.000172666
0.000164226
0.000154203
0.000148318
0.000143359
0.00014035
0.000137745
0.000137157
0.000138047
0.000139731
0.000140875
0.000144584
0.000149528
0.000155786
0.000162357
0.000171919
0.000180865
0.000193042
0.000202095
0.000213856
0.000220557
0.000232077
0.000237219
0.000248925
0.000254136
0.000268701
0.000276855
0.000296585
0.00030852
0.000335702
0.0003526
0.000386256
0.000405339
0.000447599
0.000474055
0.000533167
0.000568779
0.00062648
0.000651331
0.000683119
0.000696399
0.000728254
0.000744431
0.000781457
0.000799425
0.000832721
0.000848244
0.000868711
0.000877187
0.000896056
0.000903493
0.000912636
0.000911643
0.000912756
0.00091407
0.000914004
0.000914622
0.00091459
0.000915839
0.00091587
0.000916494
0.000916353
0.000917451
0.000917663
0.00091703
0.00091555