/*--------------------------------*- C++ -*----------------------------------*\
| =========                 |                                                 |
| \\      /  F ield         | OpenFOAM: The Open Source CFD Toolbox           |
|  \\    /   O peration     | Version:  v2006                                 |
|   \\  /    A nd           | Website:  www.openfoam.com                      |
|    \\/     M anipulation  |                                                 |
\*---------------------------------------------------------------------------*/
FoamFile
{
    version     2.0;
    format      ascii;
    class       volScalarField;
    location    "0.002";
    object      turbulenceProperties:I;
}
// * * * * * * * * * * * * * * * * * * * * * * * * * * * * * * * * * * * * * //

dimensions      [0 0 0 0 0 0 0];


internalField   nonuniform List<scalar> 
32857
(
0.14947
0.149482
0.149968
0.149991
0.149964
0.149948
0.149919
0.149897
0.149845
0.149775
0.149697
0.149627
0.149571
0.14953
0.149502
0.149481
0.149465
0.149451
0.149441
0.149433
0.149428
0.149425
0.149424
0.149425
0.149427
0.149431
0.149437
0.149445
0.149453
0.149463
0.149475
0.149487
0.149501
0.149515
0.14953
0.149545
0.14956
0.149576
0.149591
0.149606
0.149619
0.149632
0.149643
0.149653
0.149661
0.149666
0.14967
0.149671
0.14967
0.149666
0.149661
0.149655
0.149647
0.149638
0.149628
0.149617
0.149606
0.149595
0.149584
0.149575
0.149567
0.14956
0.149556
0.149553
0.149552
0.149552
0.149554
0.149557
0.149561
0.149567
0.149574
0.149585
0.1496
0.149623
0.149661
0.149731
0.14984
0.14994
0.14998
0.149995
0.149999
0.150003
0.150003
0.15
0.150001
0.150004
0.150009
0.150011
0.149991
0.14993
0.149851
0.149795
0.14977
0.149767
0.14978
0.149806
0.14984
0.149882
0.149926
0.149969
0.150007
0.150036
0.150056
0.150066
0.15007
0.150069
0.150063
0.150055
0.150049
0.150045
0.150041
0.150034
0.150028
0.15004
0.150054
0.150055
0.150066
0.150079
0.150085
0.150043
0.150057
0.150103
0.150091
0.150108
0.15014
0.150168
0.150156
0.150106
0.150042
0.150124
0.150239
0.15035
0.150504
0.150408
0.149737
0.145711
0.140274
0.146706
0.14991
0.148066
0.140554
0.135065
0.130968
0.136081
0.145534
0.142108
0.130571
0.127114
0.124282
0.126873
0.1394
0.135844
0.122729
0.121537
0.119837
0.120606
0.133615
0.129948
0.116856
0.117794
0.11663
0.11545
0.127892
0.123961
0.111939
0.115002
0.114045
0.110598
0.121778
0.117771
0.107314
0.112699
0.111837
0.105999
0.115495
0.111378
0.102849
0.110599
0.109702
0.101302
0.108885
0.104669
0.0982853
0.108613
0.107709
0.096694
0.101964
0.097676
0.0938042
0.106701
0.106694
0.0922762
0.0947217
0.0906038
0.0901532
0.10711
0.107785
0.0891708
0.0876146
0.0838175
0.0876603
0.108573
0.109417
0.0862116
0.0806107
0.0767592
0.0844682
0.110294
0.11111
0.0821846
0.0729616
0.0687047
0.0798393
0.111915
0.112613
0.0768534
0.0642975
0.0599857
0.0747645
0.113259
0.113746
0.0724423
0.0556574
0.0519649
0.0715999
0.114143
0.114387
0.0704121
0.0483831
0.0459528
0.0704643
0.114566
0.114646
0.0699499
0.0439681
0.0431863
0.0702449
0.114702
0.114698
0.070028
0.0424364
0.0424338
0.0703456
0.114698
0.114636
0.0701943
0.0422239
0.042461
0.0705266
0.11463
0.114557
0.0704862
0.0425085
0.043162
0.0709757
0.114577
0.114544
0.0711437
0.0436735
0.0447327
0.0719863
0.114614
0.114633
0.072258
0.0454567
0.0465809
0.0731277
0.114754
0.114828
0.0733808
0.0473578
0.0484511
0.074158
0.115
0.115141
0.0744382
0.04922
0.0502903
0.0752251
0.11537
0.115587
0.0755581
0.0510597
0.0521318
0.0763676
0.115876
0.116169
0.0767479
0.0528946
0.0539459
0.0775325
0.116524
0.116891
0.0779548
0.0546471
0.0556229
0.0786643
0.117318
0.117764
0.0791159
0.056212
0.0571108
0.0798235
0.118277
0.118802
0.0802437
0.0575921
0.058382
0.0809475
0.119402
0.120009
0.081342
0.058775
0.0594591
0.0820573
0.120697
0.121385
0.0824154
0.0598221
0.0604508
0.0831093
0.12216
0.122927
0.0833989
0.060697
0.0612632
0.0840772
0.123786
0.124627
0.084321
0.0613568
0.0618432
0.0849329
0.125565
0.126479
0.0850918
0.0617458
0.0621547
0.0856389
0.127497
0.128473
0.085705
0.0618669
0.0621294
0.0861472
0.129549
0.130539
0.0856804
0.0614111
0.0612361
0.0855185
0.131621
0.132595
0.0839659
0.0596192
0.0587021
0.0831679
0.133655
0.13459
0.0809665
0.056118
0.0541986
0.08009
0.13558
0.136428
0.0780041
0.0504734
0.0477388
0.077678
0.137299
0.138029
0.076198
0.043726
0.0415812
0.0764276
0.138773
0.13938
0.0755266
0.0386247
0.0377607
0.0761013
0.14004
0.14055
0.0756929
0.0360268
0.0360996
0.0764215
0.141178
0.141642
0.0762043
0.0352468
0.035701
0.0769512
0.142251
0.142693
0.0767732
0.0352956
0.0358605
0.0775384
0.14329
0.143724
0.0773889
0.0356423
0.0362485
0.0781649
0.144313
0.144748
0.0780184
0.0360813
0.0367069
0.0787991
0.145334
0.145775
0.0786417
0.0365426
0.0371805
0.0794255
0.146362
0.146814
0.0792524
0.0370086
0.0376613
0.0800404
0.147406
0.147873
0.0798526
0.0374869
0.0381565
0.0806469
0.148475
0.148967
0.0804506
0.0379748
0.0386646
0.0812549
0.149591
0.150113
0.0810556
0.038469
0.0391834
0.0818682
0.150764
0.151324
0.081677
0.0389792
0.0397211
0.0824951
0.15201
0.152612
0.0823206
0.0395086
0.0402748
0.0831388
0.153338
0.153986
0.0829865
0.0400528
0.0408419
0.083796
0.154759
0.155452
0.0836664
0.0406064
0.0414204
0.0844538
0.156275
0.157016
0.084355
0.0411691
0.0420096
0.0850932
0.157889
0.158684
0.0850636
0.0417427
0.0426109
0.0857037
0.159602
0.160457
0.0857656
0.0423288
0.0432247
0.0862771
0.161432
0.162378
0.0863988
0.0429472
0.0438563
0.0867767
0.16342
0.164445
0.0869255
0.043587
0.0445182
0.0871645
0.165539
0.166622
0.0873792
0.0442785
0.0452416
0.0875728
0.167744
0.168864
0.0878977
0.0450277
0.0460155
0.0880476
0.169995
0.171135
0.0884725
0.0458037
0.0468128
0.0885836
0.172257
0.173395
0.0891069
0.0465879
0.0476262
0.0891884
0.174478
0.175588
0.0898154
0.0474002
0.0484907
0.089884
0.176604
0.177661
0.0906264
0.0483222
0.049451
0.0907057
0.178586
0.17961
0.0916029
0.0494141
0.0505342
0.0917259
0.180425
0.181296
0.0928006
0.0507704
0.0518769
0.0929898
0.181864
0.182537
0.0943271
0.0524009
0.0534981
0.0945576
0.182749
0.183245
0.0964
0.0543668
0.0554169
0.0960366
0.182899
0.183241
0.0976332
0.0566236
0.05779
0.0975276
0.183119
0.186255
0.0996514
0.0596071
0.0611318
0.100608
0.234315
0.410534
0.104108
0.0637687
0.0658795
0.106908
1
1
0.112921
0.0695166
0.072496
0.119386
0.616387
0.442504
0.131001
0.0777209
0.082802
0.146567
0.368432
0.329448
0.174829
0.0913177
0.101178
0.225356
0.306292
0.289327
0.361336
0.118111
0.138763
0.873204
0.281562
0.271338
0.947836
0.189195
0.2605
0.3675
0.271134
0.268286
0.20465
0.664004
1
0.15269
0.268214
0.271481
0.121904
0.370065
0.208131
0.102111
0.270212
0.27181
0.0893793
0.132262
0.101277
0.0799587
0.271262
0.272545
0.073918
0.0780739
0.0653241
0.0687839
0.272496
0.272923
0.0659133
0.0550038
0.0483755
0.0627391
0.272736
0.272453
0.0611813
0.0432261
0.0395774
0.059445
0.272591
0.272428
0.0587422
0.0368508
0.0349927
0.0579312
0.272617
0.272511
0.057829
0.0337063
0.0329611
0.057672
0.272488
0.272307
0.0580711
0.0325188
0.0325205
0.0584916
0.271948
0.271442
0.0593884
0.0327144
0.0333724
0.0603737
0.270463
0.269328
0.0617712
0.0340774
0.0350859
0.0632292
0.267494
0.265535
0.0649977
0.0359124
0.0369375
0.0667896
0.26283
0.259967
0.0688423
0.0377191
0.0387539
0.0709329
0.256436
0.252672
0.0731594
0.0395617
0.0405601
0.0751808
0.248515
0.244057
0.0773441
0.0415154
0.0424412
0.0791938
0.239379
0.234431
0.0812752
0.0435104
0.0443208
0.082969
0.229344
0.224079
0.0849801
0.0454864
0.0460877
0.0865294
0.218773
0.213398
0.088456
0.0471193
0.0474299
0.0898342
0.208082
0.202816
0.0914578
0.0484026
0.0484317
0.0922393
0.197713
0.192733
0.0931452
0.0493334
0.0490261
0.0933726
0.187925
0.183278
0.0937606
0.0498599
0.0492118
0.0935822
0.178791
0.174474
0.0935741
0.0500081
0.0490994
0.0930904
0.170317
0.166352
0.0927764
0.049591
0.048419
0.0920375
0.162544
0.15894
0.0914772
0.0485786
0.0472967
0.0905357
0.155482
0.15224
0.0897966
0.0472441
0.0459146
0.0887001
0.149126
0.146229
0.0878704
0.0457561
0.0444342
0.0866435
0.143445
0.140869
0.0857827
0.0442164
0.0429563
0.0844568
0.138373
0.136087
0.0836902
0.0427203
0.041536
0.0823623
0.13386
0.131833
0.0816534
0.0412761
0.0401438
0.0803664
0.12985
0.128045
0.0796999
0.0398653
0.038796
0.078474
0.126275
0.124668
0.0778658
0.0385723
0.0375895
0.0767135
0.123101
0.121683
0.0761896
0.0374572
0.0365576
0.0751199
0.120289
0.11905
0.0747031
0.0365423
0.0357442
0.0737502
0.117866
0.116828
0.0734663
0.0358321
0.0350697
0.0726112
0.115806
0.114881
0.0724253
0.0350647
0.0343026
0.0716595
0.113964
0.113152
0.071599
0.034344
0.0336408
0.0709404
0.112342
0.111633
0.0710277
0.0338237
0.0331893
0.0704812
0.110918
0.110297
0.0707236
0.0335508
0.0329891
0.0702871
0.10966
0.109111
0.0706759
0.0335387
0.0330453
0.0703347
0.108531
0.108035
0.0708391
0.0337455
0.0332968
0.0705639
0.107495
0.107039
0.0711282
0.0340338
0.033574
0.0708512
0.106529
0.106102
0.0713095
0.0340868
0.0334658
0.070935
0.105614
0.105204
0.0710981
0.0335626
0.0327031
0.0705773
0.104736
0.104334
0.0704029
0.032716
0.0316372
0.0697262
0.103884
0.103489
0.0692807
0.0316116
0.0304412
0.0684951
0.103058
0.102672
0.0679228
0.0304125
0.0292251
0.0670182
0.102259
0.101877
0.0663895
0.0291963
0.0279978
0.0652378
0.101463
0.101079
0.0646238
0.0279561
0.0266949
0.0633059
0.100648
0.100248
0.0626167
0.0266025
0.0252353
0.0609661
0.0997931
0.0993633
0.0600979
0.0250916
0.0236044
0.0581385
0.0988696
0.0984021
0.0571299
0.0234229
0.0218766
0.0550028
0.0978688
0.0973773
0.0538945
0.0216649
0.0200921
0.0516264
0.0969878
0.0969506
0.0504562
0.0198666
0.0183525
0.0481591
0.0970291
0.0972214
0.0469939
0.0181609
0.0167757
0.0446982
0.0974176
0.0976372
0.0435222
0.0166328
0.0153273
0.0410829
0.0977525
0.0977247
0.0398194
0.0151872
0.0139569
0.0370709
0.0974195
0.0967761
0.0356332
0.0138228
0.0128471
0.0325927
0.0954361
0.0936164
0.030993
0.0128103
0.0121951
0.0275901
0.0910305
0.0868728
0.0256629
0.0122682
0.0120638
0.0219018
0.0817616
0.0748529
0.0199932
0.0120637
0.012115
0.0160579
0.0671409
0.0570948
0.0160174
0.0124081
0.0126208
0.0157449
0.0460293
0.0301111
0.0167561
0.0130265
0.0108347
0.0100964
0.0162467
0.0114685
0.0122519
0.0121655
0.0122948
0.0122766
0.0122827
0.0122637
0.0122303
0.0121967
0.0121555
0.0121145
0.0120765
0.0120393
0.0120097
0.0119807
0.0119589
0.011937
0.0119218
0.011906
0.0118965
0.0118869
0.0118836
0.0118813
0.0118855
0.0118934
0.0119074
0.0119288
0.0119567
0.0119971
0.0120456
0.0121088
0.0121803
0.0122568
0.0123257
0.0123604
0.0123442
0.0121802
0.0118776
0.0114334
0.011184
0.0110677
0.0110125
0.010959
0.0109145
0.0108575
0.00982702
0.00885053
0.00822173
0.0206648
0.0463828
0.0185648
0.0126224
0.0119524
0.0177573
0.0699514
0.0861542
0.0188261
0.0118132
0.0112592
0.0199951
0.0987846
0.106703
0.0265147
0.0119465
0.0116471
0.0291539
0.111285
0.114658
0.0373873
0.0137707
0.0138513
0.0400151
0.11692
0.118798
0.0473051
0.0169979
0.0170366
0.049912
0.120559
0.12204
0.0554326
0.0199506
0.0200007
0.0570989
0.122497
0.123425
0.0623236
0.0232105
0.0233881
0.0650255
0.12487
0.125939
0.068648
0.0268154
0.0270166
0.0715067
0.126069
0.12693
0.0746181
0.0309508
0.0312986
0.0774322
0.128448
0.129311
0.0798889
0.0353219
0.0356057
0.0822805
0.129337
0.130175
0.0846311
0.0395983
0.0400785
0.0866604
0.131653
0.132312
0.0887576
0.0438966
0.0442477
0.0906119
0.132396
0.133093
0.0923026
0.0480579
0.0487272
0.0938302
0.134497
0.134919
0.0952424
0.0523739
0.0527677
0.0965253
0.134992
0.135551
0.097755
0.0563676
0.0571542
0.0988508
0.136824
0.137094
0.0999077
0.0605491
0.0608586
0.100849
0.137001
0.137573
0.10188
0.0641021
0.0647797
0.102577
0.138657
0.138856
0.103434
0.067563
0.0676182
0.104162
0.13858
0.139145
0.105013
0.0702275
0.0707253
0.105401
0.140074
0.140199
0.106063
0.0728523
0.0725881
0.106642
0.13978
0.140346
0.107254
0.0745867
0.0748038
0.107436
0.141171
0.141247
0.107925
0.0763428
0.0757622
0.108319
0.140642
0.141158
0.108729
0.0772561
0.077199
0.108691
0.14194
0.141948
0.109072
0.078403
0.0774936
0.109268
0.14111
0.141551
0.109512
0.0786536
0.0783155
0.109241
0.142251
0.142182
0.109531
0.0792708
0.0780169
0.10955
0.141169
0.141529
0.109642
0.079027
0.0784519
0.109212
0.142155
0.142094
0.10944
0.0792795
0.0778635
0.10933
0.140968
0.141253
0.109332
0.0787777
0.0780809
0.108858
0.141844
0.141829
0.109056
0.0788421
0.0773534
0.108849
0.140605
0.140848
0.108817
0.0782082
0.0774579
0.108316
0.141383
0.141435
0.108485
0.0781781
0.0766507
0.10819
0.140117
0.140342
0.108146
0.0774659
0.0766898
0.107599
0.140808
0.140904
0.107746
0.0773825
0.0758353
0.107378
0.139537
0.13976
0.107349
0.0766223
0.0758342
0.106758
0.14016
0.140299
0.106889
0.0765067
0.0749529
0.106483
0.138894
0.139118
0.106447
0.0757141
0.0749111
0.105782
0.139442
0.139627
0.105938
0.075561
0.0739903
0.105485
0.138183
0.138403
0.105435
0.0747162
0.0738736
0.104682
0.138641
0.13883
0.104849
0.0744913
0.0728803
0.10433
0.137377
0.137514
0.104252
0.0735614
0.0726556
0.103395
0.137781
0.137828
0.10354
0.0732267
0.0715412
0.102914
0.136383
0.136402
0.102783
0.0721482
0.0711133
0.101773
0.13659
0.136462
0.101822
0.0715947
0.0697366
0.101013
0.134984
0.134851
0.10078
0.0701976
0.068858
0.0993813
0.134739
0.134229
0.0992744
0.0689953
0.0671157
0.0977497
0.13327
0.132586
0.097447
0.0672196
0.0654328
0.0959564
0.130988
0.130826
0.0954189
0.0652794
0.062997
0.0935502
0.130148
0.130412
0.093656
0.0633746
0.0617804
0.092579
0.130309
0.130742
0.0931104
0.0619563
0.0599719
0.0919277
0.130445
0.130559
0.0925486
0.0603335
0.05857
0.0919544
0.129489
0.129019
0.0922327
0.0583712
0.056313
0.0911567
0.128465
0.127395
0.0910031
0.0562547
0.0537534
0.0893885
0.125894
0.125211
0.088638
0.0532433
0.0507981
0.0873636
0.122579
0.122563
0.086271
0.0502616
0.048059
0.0846035
0.119902
0.118655
0.0830993
0.0462646
0.0441154
0.0797385
0.114606
0.106034
0.0677354
0.0271075
0.0544116
0.0810351
0.111925
0.116144
0.070506
0.0500142
0.0448827
0.0647058
0.114041
0.113003
0.0615953
0.0411345
0.0385905
0.0600327
0.11163
0.110704
0.0585457
0.0363884
0.0345339
0.0571133
0.109486
0.108102
0.0558506
0.0326885
0.03118
0.054322
0.106052
0.0984934
0.041811
0.0232768
0.0423656
0.065533
0.105408
0.108329
0.0570315
0.0384589
0.0350998
0.051956
0.108874
0.110293
0.0502946
0.03355
0.0315329
0.0485874
0.109021
0.107744
0.0466493
0.0296493
0.0283814
0.0456707
0.104532
0.0961131
0.0295835
0.0239513
0.0379067
0.0586575
0.103302
0.103484
0.0497738
0.0329045
0.0303054
0.0442917
0.102926
0.100122
0.0408987
0.0274842
0.0258619
0.037956
0.0978293
0.0948735
0.0369338
0.0236198
0.0214244
0.0169881
0.0877935
0.0949178
0.0534821
0.034355
0.0299976
0.0452096
0.0966859
0.0924575
0.0392588
0.0271214
0.0247532
0.0352738
0.0915295
0.0896886
0.0347226
0.023051
0.0203502
0.0115038
0.0809182
0.0878254
0.0498618
0.0321668
0.0285792
0.0406282
0.0874114
0.081963
0.0361592
0.0228436
0.0172617
0.0261689
0.0774545
0.0508232
0.0197176
0.0129295
0.0136841
0.0197559
0.0484994
0.0455735
0.0165069
0.0120978
0.0103939
0.0139578
0.0416552
0.0378345
0.0117909
0.00886705
0.00903624
0.0112543
0.0352344
0.0328022
0.00970465
0.00842259
0.00812395
0.00905782
0.0306535
0.0293875
0.00876614
0.00829524
0.00836137
0.0085541
0.028368
0.0277586
0.00870736
0.00861085
0.00916358
0.00919666
0.0278661
0.0283282
0.00969231
0.00955227
0.0107169
0.00869364
0.0292655
0.0307928
0.0142732
0.0120276
0.017535
0.0266513
0.0332234
0.0367831
0.0351416
0.0323945
0.0405572
0.0417669
0.0418228
0.0480767
0.050042
0.0479443
0.0584907
0.0590596
0.0565128
0.067849
0.0728911
0.0671734
0.0961243
0.0928444
0.0834119
0.177826
0.218652
0.187975
0.134322
0.193219
0.275504
0.237484
0.149419
0.104624
0.0858379
0.12504
0.21548
0.184654
0.0966154
0.0663882
0.0584637
0.0784945
0.159167
0.138875
0.0633943
0.0520696
0.0470564
0.0513262
0.123024
0.110235
0.0475237
0.0427907
0.0402673
0.0447484
0.100271
0.0920244
0.040753
0.0382079
0.0359871
0.0408675
0.0863689
0.0822922
0.0411386
0.0346525
0.0336508
0.0405209
0.0765356
0.078383
0.047019
0.033515
0.0345766
0.0599519
0.106909
0.0951716
0.0439284
0.0350425
0.0395567
0.0519186
0.100929
0.0994426
0.0600303
0.0433057
0.0338623
0.0328164
0.0900747
0.0981697
0.0518811
0.0379427
0.0418766
0.0580864
0.0967845
0.0876702
0.0314619
0.0328952
0.036734
0.0504054
0.0960106
0.0945705
0.056818
0.0406646
0.0319534
0.0302037
0.0856398
0.0948779
0.0495984
0.0361761
0.0401949
0.0562757
0.0939879
0.0849967
0.0294932
0.0317495
0.0360281
0.0490922
0.0942156
0.0936187
0.0557489
0.0399158
0.0318526
0.0293021
0.0846613
0.0946824
0.048888
0.0362088
0.03999
0.0556281
0.0940691
0.085098
0.0294309
0.0325154
0.0363245
0.0487885
0.0948988
0.094071
0.0557034
0.0397273
0.0326567
0.0285574
0.0848252
0.0962922
0.0484206
0.0361746
0.0391495
0.0550761
0.0968853
0.0886476
0.0241686
0.0326368
0.03593
0.0445107
0.0977211
0.104209
0.0479876
0.0383558
0.0433859
0.0616632
0.102976
0.087441
0.0372739
0.0365287
0.0403688
0.0558875
0.0975718
0.0876409
0.0297138
0.0355446
0.0381543
0.0490541
0.100285
0.100958
0.0573682
0.0409631
0.0362487
0.0290166
0.0901683
0.103985
0.0500242
0.038879
0.0414842
0.0581113
0.104803
0.0930234
0.0288876
0.0371042
0.0390165
0.049979
0.106167
0.106434
0.0580914
0.0416972
0.0377907
0.0281213
0.0940933
0.108957
0.0499454
0.0389937
0.0416366
0.0585607
0.110553
0.0972075
0.0271155
0.0377332
0.0386338
0.0494968
0.111871
0.113117
0.0578485
0.0406376
0.0371772
0.0249467
0.0986221
0.115326
0.0491546
0.0380644
0.0413449
0.0594237
0.118091
0.103379
0.0262128
0.0380659
0.0399515
0.0509248
0.120464
0.123239
0.0640943
0.0442716
0.0411253
0.0346947
0.102972
0.114955
0.0568878
0.0427971
0.0427891
0.0274861
0.10026
0.11843
0.0492345
0.0417227
0.042628
0.0589514
0.121807
0.105157
0.0251164
0.0415064
0.0409388
0.0497386
0.123919
0.128402
0.0632966
0.0444632
0.043258
0.0350467
0.109012
0.119983
0.056601
0.0440659
0.0463931
0.0272556
0.103497
0.124195
0.047626
0.04256
0.041775
0.0572562
0.127871
0.108911
0.0223092
0.0432613
0.0424815
0.0479027
0.129096
0.134905
0.0622386
0.0463237
0.0501511
0.0391109
0.117714
0.126976
0.0581122
0.0495203
0.0611329
0.0348951
0.108863
0.128101
0.0474628
0.0486048
0.0475822
0.0581706
0.132132
0.113994
0.0308837
0.0583702
0.0449309
0.0450747
0.132362
0.137908
0.0582349
0.0455364
0.0585604
0.0436075
0.1247
0.130865
0.0591263
0.0546202
0.0804429
0.0455581
0.113818
0.131491
0.0443884
0.0528741
0.0487068
0.0566192
0.138347
0.126942
0.0504384
0.0705019
0.0605256
0.0565873
0.132121
0.117991
0.0563768
0.103326
0.057774
0.0447963
0.13238
0.138023
0.0547908
0.0508498
0.0829372
0.0549347
0.128625
0.132268
0.0561318
0.0654121
0.133046
0.0647692
0.120456
0.132995
0.0476845
0.0711777
0.0585677
0.0541171
0.137854
0.129626
0.0625167
0.114183
0.0759383
0.0558384
0.131986
0.123581
0.0760725
0.188022
0.0933788
0.0527639
0.134099
0.137388
0.0526429
0.0679345
0.167847
0.074248
0.130974
0.130918
0.0581153
0.0986023
0.285677
0.0878616
0.124828
0.134338
0.0634006
0.146486
0.0958029
0.0541848
0.134355
0.130531
0.0902862
0.269281
0.206826
0.073261
0.128045
0.121079
0.109747
0.593819
0.236059
0.0779879
0.134512
0.13076
0.0781446
0.282949
0.365063
0.101808
0.128729
0.124162
0.149829
0.842278
0.508609
0.140427
0.121545
0.11796
0.374595
0.980715
0.512765
0.604639
0.112129
0.132006
0.135448
0.570652
0.448409
0.980146
0.129649
0.119508
1
0.299343
0.305015
0.366654
0.137602
0.150421
0.214357
0.230758
0.174566
0.688549
0.12973
0.908356
0.181526
0.208102
0.140393
0.125047
0.171026
0.275545
0.145759
0.17647
0.108836
0.0940217
0.818259
0.243517
0.137821
0.165214
0.129231
0.0994582
0.220004
0.442725
0.0660312
0.0787541
0.115266
0.0944711
0.182237
0.216482
0.0665538
0.0749471
0.112543
0.0951757
0.17387
0.193558
0.0694773
0.0755195
0.110431
0.0889656
0.167165
0.17489
0.0757603
0.0886609
0.0597144
0.060762
0.191788
0.156731
0.066218
0.0775863
0.0569012
0.0562155
0.174775
0.152527
0.0634233
0.0720232
0.0530008
0.0590284
0.172476
0.145694
0.0636497
0.0749617
0.0668463
0.0651335
0.161549
0.175553
0.0599911
0.0528243
0.0611751
0.0584061
0.146544
0.163442
0.055095
0.0493624
0.0567229
0.0560249
0.143026
0.160925
0.0566579
0.0474731
0.056499
0.0491398
0.133604
0.152726
0.0612301
0.0534596
0.0499158
0.0591575
0.16668
0.141781
0.0540373
0.0500316
0.0441698
0.0546688
0.15784
0.136109
0.047004
0.0438543
0.0417859
0.0568056
0.155257
0.130652
0.0421121
0.0441473
0.0427468
0.0585294
0.152857
0.119737
0.0398956
0.0462953
0.0449552
0.0576545
0.141703
0.157562
0.0643633
0.0457768
0.0420365
0.0444055
0.131681
0.150146
0.0602822
0.0417848
0.0410651
0.0355324
0.125275
0.147833
0.0599106
0.04183
0.0413858
0.0351149
0.12136
0.143931
0.0600234
0.0419413
0.0422482
0.0387322
0.115356
0.135418
0.0545146
0.040136
0.0448985
0.0692783
0.151942
0.126287
0.0407104
0.0390335
0.0408034
0.0620024
0.146636
0.119144
0.0336572
0.0377473
0.0398935
0.0607307
0.14105
0.116322
0.0340109
0.0373968
0.0394856
0.0596913
0.13763
0.110017
0.0385254
0.0366552
0.0352624
0.0497844
0.12639
0.147181
0.0721209
0.0434853
0.0370817
0.0402517
0.120493
0.140218
0.0636754
0.040573
0.0363032
0.0338772
0.113078
0.134423
0.061642
0.0397673
0.0359495
0.0340919
0.110084
0.130987
0.0616403
0.0396475
0.0357194
0.0395617
0.108177
0.121457
0.0468071
0.0345521
0.0441358
0.0735324
0.142824
0.117187
0.0394723
0.0361522
0.0411006
0.0643325
0.136336
0.111197
0.0335604
0.0346279
0.0395383
0.0615586
0.131292
0.108924
0.0336163
0.034001
0.039193
0.0613715
0.128585
0.105032
0.0343092
0.0337724
0.0388361
0.06159
0.124538
0.101903
0.0389201
0.0340166
0.0330218
0.0440193
0.113186
0.133842
0.0730057
0.0439824
0.0349099
0.0390032
0.111648
0.129463
0.0646659
0.0414888
0.0334322
0.0339558
0.105473
0.124597
0.0616867
0.0399927
0.0327325
0.0339576
0.103033
0.121608
0.0615972
0.0393072
0.0324555
0.0380485
0.100775
0.111891
0.044072
0.0318965
0.0443292
0.0725585
0.131382
0.110423
0.038563
0.0339063
0.0413523
0.0641799
0.127654
0.104914
0.0335328
0.0325268
0.0399719
0.0613771
0.123197
0.102867
0.0329793
0.0318729
0.0396552
0.0610227
0.121102
0.0996756
0.0335716
0.0311367
0.0388829
0.0612587
0.117506
0.0978185
0.0374661
0.0306768
0.030487
0.0429611
0.107959
0.126605
0.072185
0.0440233
0.0328579
0.0387248
0.106452
0.123389
0.0640591
0.0411319
0.031457
0.0337458
0.10088
0.118628
0.0610767
0.039717
0.0306259
0.033234
0.0987764
0.116389
0.0604016
0.0392887
0.030233
0.0332863
0.0968035
0.114346
0.0602416
0.0391127
0.0300172
0.0340485
0.0952183
0.111841
0.0606829
0.0387729
0.029629
0.0375288
0.0939672
0.103571
0.0432249
0.0299224
0.0443596
0.0714708
0.121268
0.103175
0.0388798
0.0326223
0.0416642
0.0638127
0.119547
0.0984704
0.0342844
0.0311939
0.0400333
0.0606862
0.115249
0.0963259
0.0335459
0.0301406
0.0391443
0.0600011
0.11292
0.0944219
0.0338345
0.0295704
0.0385585
0.0598443
0.110001
0.0916493
0.0367058
0.0288258
0.0291944
0.0425823
0.101018
0.118043
0.0700364
0.0438464
0.0320311
0.0383519
0.10034
0.116577
0.063021
0.0412839
0.0306773
0.034161
0.0963638
0.112506
0.06035
0.0398787
0.0299091
0.0336589
0.0943521
0.110468
0.0594174
0.0392544
0.0294307
0.0339496
0.0926885
0.107932
0.0594531
0.0386181
0.0288442
0.0372232
0.0917318
0.100775
0.0428753
0.0293954
0.0442849
0.0699805
0.117649
0.100286
0.0391255
0.0323385
0.0416661
0.0630778
0.115828
0.0969118
0.034501
0.0307841
0.0400372
0.0599963
0.112584
0.0940047
0.0334068
0.0299569
0.0395088
0.0600085
0.109845
0.0914348
0.0343012
0.0293453
0.0387127
0.0592885
0.106511
0.0901625
0.0367388
0.0284521
0.0290287
0.0423955
0.0989479
0.11551
0.0693517
0.0439967
0.0320663
0.0388787
0.098312
0.113991
0.0630645
0.0416107
0.0303557
0.0350324
0.0952875
0.110855
0.0599853
0.0397205
0.0296233
0.0335976
0.0928556
0.108189
0.0594948
0.0393612
0.0292665
0.0343295
0.0910799
0.105984
0.0591093
0.0386899
0.0286029
0.0372611
0.0900129
0.0988505
0.0428987
0.0293539
0.0445207
0.0695245
0.115035
0.0989721
0.0392704
0.0324108
0.041795
0.0627114
0.114274
0.0950127
0.034721
0.0308151
0.040385
0.0603308
0.110532
0.093266
0.0343105
0.0298892
0.0395632
0.0594022
0.108618
0.0913521
0.0343141
0.0293906
0.0388883
0.0588827
0.105754
0.0889952
0.0369149
0.0285691
0.0292692
0.0421705
0.0974313
0.113178
0.0690824
0.0441646
0.0322939
0.0392044
0.0971174
0.112621
0.0625758
0.04183
0.0306777
0.0350523
0.0937713
0.108939
0.0600005
0.0401786
0.0298605
0.0342768
0.0912074
0.106189
0.0590906
0.0394487
0.0294793
0.0344831
0.0889758
0.103628
0.0592715
0.0391112
0.0289858
0.0376624
0.0882957
0.0970843
0.0437081
0.029885
0.0449914
0.0697888
0.113426
0.0973694
0.0401836
0.0330243
0.0424705
0.0629473
0.112518
0.0943089
0.035505
0.0313646
0.040601
0.0596686
0.109258
0.0918787
0.0344829
0.0304345
0.0398663
0.0591832
0.106154
0.0896029
0.0350257
0.029832
0.0391253
0.0589319
0.103203
0.0874468
0.0374959
0.0288183
0.0295851
0.0427435
0.0957908
0.111203
0.0683042
0.044306
0.0326485
0.0395501
0.0952862
0.110264
0.0622073
0.0422593
0.031268
0.0356469
0.0927841
0.107095
0.0595595
0.0406326
0.0303463
0.0351567
0.090296
0.103762
0.0587821
0.0395898
0.0293188
0.0375653
0.0877095
0.0961392
0.0431784
0.0302557
0.045153
0.0691392
0.111485
0.0952861
0.0402742
0.0333572
0.0426549
0.0625559
0.110322
0.0927848
0.0361131
0.0316225
0.0408566
0.0598593
0.107143
0.0901348
0.035273
0.0305871
0.039804
0.0590892
0.103634
0.0872645
0.0377208
0.0294364
0.0303
0.0431214
0.0957548
0.111147
0.0693258
0.0452198
0.0333939
0.0403236
0.0953359
0.110337
0.0626844
0.0427365
0.0317606
0.0360318
0.0916697
0.106263
0.0601361
0.0409797
0.0307686
0.0355072
0.0892202
0.102647
0.0589405
0.0399346
0.0296914
0.0378014
0.0871656
0.0954042
0.0432188
0.0306351
0.0452675
0.0691208
0.110519
0.0945852
0.0403707
0.0335738
0.0426905
0.0624447
0.109587
0.0915644
0.0358757
0.0320181
0.0411001
0.0596291
0.106147
0.0891475
0.035639
0.03097
0.0401453
0.0593981
0.102795
0.0872216
0.038279
0.0298745
0.0306394
0.0431989
0.0952712
0.110303
0.0686804
0.04506
0.0334918
0.0404106
0.0941067
0.108667
0.0621074
0.0426022
0.0317791
0.0362083
0.0902281
0.103944
0.0594082
0.04089
0.0308483
0.0355885
0.0870431
0.100083
0.0585619
0.0398436
0.0296936
0.0376741
0.0843424
0.0921997
0.0430871
0.0305598
0.0446987
0.0673679
0.106909
0.091135
0.0394646
0.0333041
0.0424591
0.0614804
0.105892
0.0892439
0.036736
0.0317693
0.0407512
0.0595627
0.102205
0.0860756
0.0381458
0.0302711
0.0310184
0.0429747
0.0937974
0.107884
0.0681087
0.0450829
0.033646
0.0403556
0.0918617
0.106146
0.0614814
0.0426153
0.0318182
0.036578
0.0885748
0.101152
0.0589794
0.0405328
0.0301615
0.0377909
0.0849107
0.0926455
0.0428802
0.0309849
0.0447977
0.0677212
0.106897
0.0905371
0.0396941
0.0334669
0.0424206
0.0611359
0.105188
0.0884276
0.0363551
0.0317238
0.0405413
0.0589671
0.101668
0.085618
0.0378201
0.0302873
0.0309906
0.0425718
0.0931724
0.107088
0.067345
0.044731
0.0334759
0.0400825
0.0911104
0.104992
0.0607865
0.0423079
0.0316619
0.0361245
0.0874959
0.099561
0.058172
0.0401975
0.0299234
0.0374787
0.0834704
0.0906708
0.0420619
0.0306318
0.0442204
0.0666617
0.104499
0.0880481
0.0399194
0.0330451
0.0414828
0.0597685
0.101411
0.0847532
0.0374798
0.0303584
0.0309729
0.0422904
0.0925071
0.106714
0.0674076
0.0447711
0.0335624
0.0400007
0.0910159
0.104583
0.060549
0.0422499
0.0317206
0.0362459
0.0878312
0.0996812
0.0578439
0.0402147
0.0300175
0.0373726
0.0838262
0.0909852
0.0419192
0.0306626
0.0439771
0.0662159
0.104656
0.0876466
0.039471
0.032877
0.0413196
0.0595565
0.10071
0.0837349
0.0373062
0.0301841
0.0303754
0.0397912
0.089652
0.103431
0.0653301
0.0435245
0.0326114
0.0388581
0.0882362
0.101405
0.0599851
0.0414877
0.030449
0.0377995
0.0846786
0.0915617
0.0419177
0.0309416
0.044206
0.0665343
0.104976
0.0886689
0.0395223
0.032976
0.041463
0.0594637
0.101338
0.0839743
0.0371761
0.0302464
0.0305847
0.0404848
0.0904944
0.103518
0.0655942
0.0434272
0.0323534
0.0387051
0.0861721
0.0991021
0.0584376
0.0406555
0.0296743
0.0364429
0.082261
0.0892674
0.040551
0.0301091
0.0434824
0.0655268
0.103379
0.0870299
0.0388993
0.0323983
0.0407365
0.0587859
0.0993571
0.0820645
0.0366948
0.0296889
0.0300466
0.0400354
0.0882664
0.100521
0.0640114
0.0428925
0.0319108
0.0381825
0.0841336
0.0961936
0.0578905
0.0402435
0.0292107
0.0361893
0.079529
0.0854237
0.0392332
0.0294399
0.0414894
0.0621016
0.0967844
0.0812892
0.0379121
0.0299741
0.0301065
0.0406635
0.0880957
0.101498
0.0647935
0.0433708
0.031992
0.0385491
0.0847201
0.0963003
0.0574568
0.0402828
0.0290395
0.0357333
0.0790733
0.0847136
0.0390689
0.0293647
0.0415245
0.0622505
0.0958418
0.0802723
0.0379279
0.0299606
0.0298242
0.039687
0.0857101
0.0971939
0.0621707
0.0418419
0.0300212
0.0374921
0.08049
0.0859975
0.0394385
0.0299035
0.0428379
0.0640758
0.099804
0.0834773
0.0378781
0.0316653
0.0399077
0.0568646
0.0945841
0.0779303
0.0353918
0.028788
0.0290953
0.0385521
0.0832124
0.0936927
0.0611113
0.040927
0.02949
0.0371791
0.0782333
0.0834237
0.0391029
0.0292732
0.0407292
0.060385
0.094084
0.0769098
0.0362437
0.028999
0.0287802
0.037952
0.0817165
0.0942866
0.0609287
0.0408809
0.0292957
0.0373522
0.0793456
0.0845434
0.0392096
0.0292807
0.0410656
0.0609794
0.0947691
0.0782862
0.036979
0.0292337
0.0290515
0.0385782
0.082879
0.0929028
0.0598163
0.0404433
0.0286948
0.0365248
0.0769513
0.0792887
0.0349511
0.0279701
0.038895
0.0579324
0.0902017
0.0759438
0.0355752
0.0276677
0.027929
0.0388135
0.0797414
0.0854048
0.0422689
0.0289482
0.0415806
0.0619376
0.0959261
0.0783484
0.0370998
0.0289486
0.0283234
0.0372126
0.0821436
0.0909745
0.0578716
0.0389213
0.0271676
0.0331464
0.0725097
0.0756087
0.0382626
0.0274258
0.0283126
0.0413653
0.0828104
0.0946415
0.0606326
0.0407401
0.028121
0.0361782
0.0775216
0.079998
0.0383802
0.0279189
0.0280344
0.0401514
0.0844304
0.0933002
0.0589245
0.0393193
0.0268299
0.0336312
0.0745376
0.078331
0.0379672
0.0270928
0.0277298
0.04052
0.0846804
0.0949688
0.0597284
0.0396235
0.027072
0.0351358
0.0757901
0.077406
0.0351981
0.0262916
0.0268129
0.0397179
0.0798663
0.0845232
0.0398543
0.0262744
0.0381331
0.058702
0.0965752
0.075523
0.0339858
0.0258052
0.0250647
0.0349376
0.0780897
0.0798492
0.033819
0.0242671
0.0250459
0.0390553
0.0831857
0.0896531
0.0402443
0.0252212
0.0258892
0.0427022
0.092601
0.0937873
0.0423417
0.0256985
0.0268492
0.0457192
0.096475
0.101546
0.0477158
0.0276353
0.028475
0.0493612
0.104384
0.108152
0.0523659
0.0296715
0.0311964
0.0555194
0.112346
0.115066
0.0587358