/*--------------------------------*- C++ -*----------------------------------*\
| =========                 |                                                 |
| \\      /  F ield         | OpenFOAM: The Open Source CFD Toolbox           |
|  \\    /   O peration     | Version:  v2006                                 |
|   \\  /    A nd           | Website:  www.openfoam.com                      |
|    \\/     M anipulation  |                                                 |
\*---------------------------------------------------------------------------*/
FoamFile
{
    version     2.0;
    format      ascii;
    class       volScalarField;
    location    "0.002";
    object      turbulenceProperties:L;
}
// * * * * * * * * * * * * * * * * * * * * * * * * * * * * * * * * * * * * * //

dimensions      [0 1 0 0 0 0 0];


internalField   nonuniform List<scalar> 
32857
(
1378.25
1441.46
1967.57
1987.68
1933.07
1862.07
1701.42
1505.22
1219.49
955.784
765.366
645.499
576.199
538.96
520.292
512.012
509.282
509.33
510.477
511.727
512.578
512.881
512.713
512.206
511.424
510.3
508.63
506.162
502.694
498.143
492.6
486.264
479.412
472.352
465.381
458.786
452.824
447.693
443.556
440.535
438.719
438.149
438.801
440.608
443.452
447.143
451.443
456.083
460.831
465.621
470.688
476.68
484.529
495.15
509.218
527.049
548.642
573.753
601.935
632.58
664.877
697.764
730.035
760.579
788.744
814.534
838.389
860.46
879.506
892.2
893.807
880.136
849.867
806.544
762.777
755.68
887.722
1317.59
1722.53
1828.17
1675.95
1803.27
1891.15
1929.5
1932.91
1908.5
1809.77
1383.01
629.015
252.523
147.084
114.744
102.738
97.9061
96.8268
98.8988
104.517
114.659
131.042
157.358
223.194
323.799
217.099
165.257
92.3473
78.2008
176.706
346.417
205.493
127.097
91.5827
805.059
432.756
76.6239
506.327
426.569
557.72
188.346
294.805
37.937
357.112
146.072
14.215
20.3375
22.8415
9.74979
4.42287
3.57614
6.14755
1.00689
0.220694
0.0615699
0.0116616
0.00135685
0.000247862
1.76036e-05
1.67665e-05
0.000110297
0.000484081
0.000298906
8.20478e-05
1.59056e-05
1.54549e-05
7.62936e-05
0.000247502
0.000213145
6.90764e-05
1.52153e-05
1.48988e-05
6.68934e-05
0.000196625
0.000183639
6.47387e-05
1.47525e-05
1.46149e-05
6.41218e-05
0.000178313
0.00016988
6.20086e-05
1.44785e-05
1.43707e-05
6.20242e-05
0.000168181
0.000160391
5.99228e-05
1.42428e-05
1.41419e-05
5.98253e-05
0.000159441
0.000152602
5.77255e-05
1.40201e-05
1.39187e-05
5.74161e-05
0.000152435
0.000145517
5.5284e-05
1.37939e-05
1.36806e-05
5.4464e-05
0.000144873
0.00013767
5.22289e-05
1.35487e-05
1.34184e-05
5.10588e-05
0.000136074
0.000128433
4.84391e-05
1.3268e-05
1.3158e-05
4.69378e-05
0.00012569
0.000117604
4.41394e-05
1.3057e-05
1.29602e-05
4.26956e-05
0.000114054
0.000105717
3.99823e-05
1.28561e-05
1.27442e-05
3.8428e-05
0.000102219
9.48962e-05
3.58845e-05
1.26287e-05
1.25095e-05
3.42015e-05
9.12562e-05
8.45614e-05
3.18859e-05
1.23988e-05
1.22962e-05
3.02509e-05
8.14972e-05
7.52812e-05
2.85759e-05
1.22137e-05
1.2144e-05
2.75091e-05
7.19376e-05
6.57817e-05
2.67338e-05
1.20927e-05
1.20492e-05
2.6271e-05
6.08202e-05
5.31261e-05
2.60296e-05
1.20169e-05
1.19875e-05
2.5895e-05
5.02826e-05
4.72855e-05
2.58204e-05
1.19643e-05
1.19417e-05
2.58844e-05
4.6709e-05
4.56194e-05
2.58493e-05
1.19232e-05
1.19047e-05
2.59812e-05
4.585e-05
4.53451e-05
2.59692e-05
1.18898e-05
1.18742e-05
2.6178e-05
4.6177e-05
4.63059e-05
2.62324e-05
1.18623e-05
1.18486e-05
2.65394e-05
4.7815e-05
4.8342e-05
2.67185e-05
1.1838e-05
1.1824e-05
2.7061e-05
5.01861e-05
5.08104e-05
2.72361e-05
1.1812e-05
1.17967e-05
2.7559e-05
5.2964e-05
5.35799e-05
2.7679e-05
1.1783e-05
1.17662e-05
2.79914e-05
5.58933e-05
5.64394e-05
2.80897e-05
1.17508e-05
1.1732e-05
2.83922e-05
5.87888e-05
5.92539e-05
2.84681e-05
1.17139e-05
1.16922e-05
2.87455e-05
6.15456e-05
6.18623e-05
2.87767e-05
1.16701e-05
1.16444e-05
2.90159e-05
6.38971e-05
6.39454e-05
2.89845e-05
1.16175e-05
1.1587e-05
2.91833e-05
6.55514e-05
6.52931e-05
2.91171e-05
1.15555e-05
1.15193e-05
2.92484e-05
6.64951e-05
6.57738e-05
2.91431e-05
1.14821e-05
1.14394e-05
2.92092e-05
6.66065e-05
6.56124e-05
2.90654e-05
1.13958e-05
1.13456e-05
2.90625e-05
6.63385e-05
6.52426e-05
2.88488e-05
1.12946e-05
1.1236e-05
2.87566e-05
6.57652e-05
6.44997e-05
2.84678e-05
1.11768e-05
1.11088e-05
2.83228e-05
6.47695e-05
6.33407e-05
2.79598e-05
1.10404e-05
1.09625e-05
2.77488e-05
6.33946e-05
6.18799e-05
2.73136e-05
1.08844e-05
1.07951e-05
2.70396e-05
6.17437e-05
6.01397e-05
2.65332e-05
1.07053e-05
1.06013e-05
2.60808e-05
5.96539e-05
5.78194e-05
2.53958e-05
1.04991e-05
1.03858e-05
2.46403e-05
5.66494e-05
5.44143e-05
2.38472e-05
1.0282e-05
1.01739e-05
2.29695e-05
5.25486e-05
4.96124e-05
2.22903e-05
1.00807e-05
9.98706e-06
2.15482e-05
4.64171e-05
4.18363e-05
2.11386e-05
9.90792e-06
9.82745e-06
2.06972e-05
3.79647e-05
3.43557e-05
2.04596e-05
9.75741e-06
9.68525e-06
2.02012e-05
3.18069e-05
3.00842e-05
2.00826e-05
9.61924e-06
9.55021e-06
1.99856e-05
2.87223e-05
2.80397e-05
1.99188e-05
9.48424e-06
9.41431e-06
1.98791e-05
2.75256e-05
2.73175e-05
1.98178e-05
9.34624e-06
9.27373e-06
1.97853e-05
2.7291e-05
2.71892e-05
1.97232e-05
9.2027e-06
9.1268e-06
1.96907e-05
2.72808e-05
2.71888e-05
1.96237e-05
9.05227e-06
8.97246e-06
1.95862e-05
2.72932e-05
2.72016e-05
1.95127e-05
8.89411e-06
8.81011e-06
1.94689e-05
2.7296e-05
2.71997e-05
1.93885e-05
8.72783e-06
8.63954e-06
1.93389e-05
2.72887e-05
2.71939e-05
1.9252e-05
8.55322e-06
8.46048e-06
1.91973e-05
2.72907e-05
2.71972e-05
1.91037e-05
8.36999e-06
8.2726e-06
1.90437e-05
2.72907e-05
2.71962e-05
1.89433e-05
8.17777e-06
8.07546e-06
1.88775e-05
2.72787e-05
2.71837e-05
1.87695e-05
7.97598e-06
7.86826e-06
1.86976e-05
2.72615e-05
2.71652e-05
1.85816e-05
7.76365e-06
7.65011e-06
1.85043e-05
2.72397e-05
2.71375e-05
1.83775e-05
7.53994e-06
7.42015e-06
1.82949e-05
2.72056e-05
2.70942e-05
1.8155e-05
7.30389e-06
7.17745e-06
1.8067e-05
2.7152e-05
2.70309e-05
1.79113e-05
7.05458e-06
6.92124e-06
1.78199e-05
2.70782e-05
2.6947e-05
1.7643e-05
6.79133e-06
6.65102e-06
1.75555e-05
2.6984e-05
2.68419e-05
1.73474e-05
6.51332e-06
6.36579e-06
1.72661e-05
2.68689e-05
2.67134e-05
1.70215e-05
6.21944e-06
6.06369e-06
1.69399e-05
2.67423e-05
2.65635e-05
1.66577e-05
5.90767e-06
5.74314e-06
1.65699e-05
2.65909e-05
2.63896e-05
1.62495e-05
5.57722e-06
5.4037e-06
1.61602e-05
2.64167e-05
2.61912e-05
1.58179e-05
5.22754e-06
5.04444e-06
1.57281e-05
2.62103e-05
2.59538e-05
1.53644e-05
4.85783e-06
4.66553e-06
1.52715e-05
2.59526e-05
2.56595e-05
1.48892e-05
4.46928e-06
4.26865e-06
1.47909e-05
2.56258e-05
2.52922e-05
1.439e-05
4.06361e-06
3.85531e-06
1.42826e-05
2.52208e-05
2.48453e-05
1.3863e-05
3.64223e-06
3.4271e-06
1.37436e-05
2.4745e-05
2.4303e-05
1.33055e-05
3.207e-06
2.98605e-06
1.31715e-05
2.41738e-05
2.36337e-05
1.27133e-05
2.75939e-06
2.53316e-06
1.25601e-05
2.35061e-05
2.28909e-05
1.20872e-05
2.30214e-06
2.07398e-06
1.19185e-05
2.27908e-05
2.2098e-05
1.14206e-05
1.84101e-06
1.61461e-06
1.12493e-05
2.20577e-05
2.12577e-05
1.06459e-05
1.37984e-06
1.15734e-06
1.03757e-05
2.12479e-05
2.0402e-05
9.76621e-06
9.32492e-07
7.27544e-07
9.44811e-06
2.04727e-05
1.96422e-05
8.88406e-06
6.35189e-07
6.47238e-07
8.56884e-06
1.97677e-05
1.89435e-05
8.04184e-06
7.20332e-07
8.47107e-07
7.73507e-06
1.90195e-05
1.81805e-05
7.2517e-06
9.88164e-07
1.14114e-06
6.94944e-06
1.81565e-05
1.74059e-05
6.53936e-06
1.29625e-06
1.45583e-06
6.26325e-06
1.72743e-05
1.66928e-05
5.97379e-06
1.61214e-06
1.77303e-06
5.82432e-06
1.64383e-05
1.61149e-05
5.79254e-06
1.92007e-06
2.08968e-06
5.58369e-06
1.54629e-05
1.57223e-05
5.63004e-06
2.21343e-06
2.37903e-06
5.50669e-06
1.46e-05
1.53635e-05
5.69527e-06
2.50001e-06
2.64934e-06
5.71397e-06
1.4261e-05
1.49777e-05
5.91108e-06
2.77362e-06
2.91007e-06
6.02302e-06
1.42284e-05
1.47965e-05
6.18794e-06
3.02138e-06
3.14541e-06
6.32883e-06
1.41869e-05
1.44869e-05
6.4849e-06
3.25258e-06
3.37236e-06
6.67422e-06
1.40301e-05
1.43795e-05
6.86093e-06
3.48636e-06
3.59334e-06
7.05392e-06
1.42162e-05
1.45949e-05
7.26352e-06
3.7026e-06
3.80189e-06
7.4581e-06
1.45465e-05
1.51137e-05
7.68522e-06
3.90194e-06
3.99636e-06
7.88867e-06
1.51425e-05
1.59216e-05
8.14178e-06
4.08904e-06
4.17934e-06
8.3632e-06
1.59079e-05
1.68702e-05
8.65828e-06
4.26797e-06
4.3576e-06
8.91571e-06
1.68407e-05
1.80264e-05
9.27498e-06
4.4478e-06
4.54174e-06
9.58888e-06
1.80857e-05
1.94101e-05
1.00211e-05
4.63721e-06
4.73689e-06
1.03806e-05
1.93854e-05
2.0662e-05
1.08733e-05
4.83837e-06
4.94475e-06
1.12629e-05
2.04517e-05
2.16674e-05
1.18148e-05
5.05443e-06
5.17e-06
1.22075e-05
2.1371e-05
2.2539e-05
1.27448e-05
5.29033e-06
5.41731e-06
1.3077e-05
2.232e-05
2.34684e-05
1.35691e-05
5.55042e-06
5.69152e-06
1.38755e-05
2.33535e-05
2.44791e-05
1.43656e-05
5.8394e-06
5.99652e-06
1.46838e-05
2.44346e-05
2.54708e-05
1.51912e-05
6.16044e-06
6.33379e-06
1.55335e-05
2.5341e-05
2.62173e-05
1.60649e-05
6.51311e-06
6.70172e-06
1.64075e-05
2.60623e-05
2.67952e-05
1.68974e-05
6.89394e-06
7.09356e-06
1.71734e-05
2.66929e-05
2.72852e-05
1.76248e-05
7.29417e-06
7.5007e-06
1.78663e-05
2.72856e-05
2.77443e-05
1.82985e-05
7.70578e-06
7.91458e-06
1.85194e-05
2.78698e-05
2.82295e-05
1.89374e-05
8.11877e-06
8.32466e-06
1.91397e-05
2.83161e-05
2.85545e-05
1.9537e-05
8.52349e-06
8.72235e-06
1.97157e-05
2.85672e-05
2.87499e-05
2.00888e-05
8.91206e-06
9.1003e-06
2.02389e-05
2.87084e-05
2.88322e-05
2.05772e-05
9.27785e-06
9.45343e-06
2.07088e-05
2.8798e-05
2.88829e-05
2.09994e-05
9.61689e-06
9.77816e-06
2.11133e-05
2.88482e-05
2.89183e-05
2.13508e-05
9.92624e-06
1.00733e-05
2.14674e-05
2.88768e-05
2.89361e-05
2.16695e-05
1.02071e-05
1.03402e-05
2.17734e-05
2.88627e-05
2.88928e-05
2.19472e-05
1.04607e-05
1.05807e-05
2.20309e-05
2.87746e-05
2.87834e-05
2.21818e-05
1.06891e-05
1.07969e-05
2.2251e-05
2.86658e-05
2.86733e-05
2.23812e-05
1.08941e-05
1.09911e-05
2.24371e-05
2.85777e-05
2.85857e-05
2.25477e-05
1.10788e-05
1.11656e-05
2.2595e-05
2.85224e-05
2.85419e-05
2.26918e-05
1.12432e-05
1.13214e-05
2.27279e-05
2.84833e-05
2.84707e-05
2.28137e-05
1.13922e-05
1.14639e-05
2.28407e-05
2.8268e-05
2.82012e-05
2.29209e-05
1.15286e-05
1.15947e-05
2.29464e-05
2.79643e-05
2.78942e-05
2.30291e-05
1.16545e-05
1.17166e-05
2.30656e-05
2.77202e-05
2.76727e-05
2.31564e-05
1.17729e-05
1.18325e-05
2.32138e-05
2.76292e-05
2.76267e-05
2.33194e-05
1.18869e-05
1.19455e-05
2.3409e-05
2.77422e-05
2.77901e-05
2.3536e-05
1.19992e-05
1.20583e-05
2.36697e-05
2.80519e-05
2.814e-05
2.38239e-05
1.21125e-05
1.21728e-05
2.40068e-05
2.84558e-05
2.85315e-05
2.41755e-05
1.22279e-05
1.22888e-05
2.43626e-05
2.8735e-05
2.87396e-05
2.45132e-05
1.23436e-05
1.2403e-05
2.46407e-05
2.87263e-05
2.85954e-05
2.47516e-05
1.24557e-05
1.25113e-05
2.48037e-05
2.85661e-05
2.82683e-05
2.48742e-05
1.25605e-05
1.26112e-05
2.48422e-05
2.82222e-05
2.7872e-05
2.48756e-05
1.2657e-05
1.27038e-05
2.47966e-05
2.78327e-05
2.74844e-05
2.4783e-05
1.27468e-05
1.27906e-05
2.46807e-05
2.74535e-05
2.71086e-05
2.45722e-05
1.28312e-05
1.28745e-05
2.44758e-05
2.70722e-05
2.66742e-05
2.43056e-05
1.29147e-05
1.29587e-05
2.41903e-05
2.66e-05
2.61265e-05
2.38973e-05
1.29996e-05
1.3045e-05
2.37201e-05
2.60256e-05
2.54623e-05
2.33113e-05
1.30874e-05
1.31349e-05
2.30844e-05
2.53435e-05
2.47318e-05
2.26198e-05
1.31807e-05
1.32334e-05
2.23647e-05
2.45987e-05
2.39438e-05
2.18118e-05
1.32929e-05
1.33746e-05
2.1487e-05
2.37935e-05
2.31549e-05
2.08277e-05
1.34621e-05
1.35581e-05
2.0449e-05
2.30358e-05
2.25442e-05
1.97249e-05
1.36543e-05
1.37544e-05
1.92879e-05
2.24932e-05
2.21016e-05
1.84748e-05
1.38496e-05
1.39406e-05
1.8061e-05
2.20266e-05
2.15816e-05
1.71753e-05
1.40189e-05
1.40842e-05
1.6781e-05
2.14845e-05
2.14461e-05
1.59508e-05
1.41165e-05
1.41278e-05
1.56373e-05
2.15611e-05
2.23679e-05
1.48336e-05
1.41046e-05
1.39725e-05
1.46667e-05
2.27461e-05
2.42139e-05
1.38586e-05
1.37989e-05
1.35618e-05
1.40644e-05
2.50071e-05
2.54882e-05
1.3062e-05
1.30117e-05
1.09189e-05
1.32047e-05
2.43966e-05
2.18042e-05
1.18301e-05
7.10293e-06
8.81081e-06
1.03436e-05
1.90955e-05
0.000173418
0.000137906
8.91895e-06
0.0007647
0.000893852
0.000913105
0.000912972
0.000913017
0.000913014
0.000913055
0.000913018
0.000913002
0.000912983
0.000913021
0.00091298
0.000913052
0.000912981
0.000913058
0.000912982
0.000913046
0.000912981
0.000913037
0.000912982
0.000913031
0.000912984
0.000913025
0.000912992
0.000913015
0.000913007
0.00091298
0.000913031
0.000912974
0.000913019
0.0009129
0.000912844
0.000912865
0.000912975
0.000912985
0.000912637
0.000906907
0.000902388
0.000901867
0.000908008
0.000912718
0.000913151
0.000912417
0.000912319
0.000873572
0.000601476
3.06071e-05
1.1649e-05
2.94225e-06
3.40872e-06
4.04574e-06
6.9283e-06
7.49042e-06
4.45213e-06
2.76058e-06
4.34537e-06
4.64735e-06
7.71945e-06
8.16623e-06
4.86425e-06
5.22304e-06
5.45868e-06
5.50709e-06
8.04246e-06
8.09543e-06
5.81334e-06
5.4833e-06
5.36727e-06
6.54252e-06
8.31199e-06
8.33798e-06
6.88684e-06
5.22324e-06
5.08092e-06
7.41973e-06
8.81834e-06
8.84093e-06
7.69591e-06
4.91512e-06
4.86705e-06
8.14979e-06
9.33238e-06
9.40132e-06
8.443e-06
4.90885e-06
4.84944e-06
8.62619e-06
9.88127e-06
9.9463e-06
8.88244e-06
4.70036e-06
4.64577e-06
9.07622e-06
1.04748e-05
1.06089e-05
9.57981e-06
4.69934e-06
4.65931e-06
9.52895e-06
1.12473e-05
1.13879e-05
9.82105e-06
4.51535e-06
4.47009e-06
9.89401e-06
1.20656e-05
1.2267e-05
1.03882e-05
4.5379e-06
4.50416e-06
1.02618e-05
1.28728e-05
1.30807e-05
1.0521e-05
4.36682e-06
4.32193e-06
1.05575e-05
1.365e-05
1.39346e-05
1.10218e-05
4.40073e-06
4.36739e-06
1.08235e-05
1.44981e-05
1.47845e-05
1.10799e-05
4.23412e-06
4.18728e-06
1.1046e-05
1.52657e-05
1.56716e-05
1.1485e-05
4.27359e-06
4.24088e-06
1.12329e-05
1.61809e-05
1.65882e-05
1.14944e-05
4.11132e-06
4.06624e-06
1.14343e-05
1.69891e-05
1.7472e-05
1.18769e-05
4.15819e-06
4.13082e-06
1.1594e-05
1.78464e-05
1.82456e-05
1.1852e-05
4.00434e-06
3.96317e-06
1.17747e-05
1.84359e-05
1.88993e-05
1.22219e-05
4.05856e-06
4.03476e-06
1.18922e-05
1.90631e-05
1.94251e-05
1.21276e-05
3.91122e-06
3.87312e-06
1.203e-05
1.94248e-05
1.98504e-05
1.24779e-05
3.97119e-06
3.95017e-06
1.20908e-05
1.98481e-05
2.01739e-05
1.22956e-05
3.82968e-06
3.79446e-06
1.21826e-05
2.00291e-05
2.04233e-05
1.26245e-05
3.89528e-06
3.87698e-06
1.21942e-05
2.0304e-05
2.06035e-05
1.2371e-05
3.76141e-06
3.72951e-06
1.22557e-05
2.03926e-05
2.0749e-05
1.2691e-05
3.83337e-06
3.81843e-06
1.22343e-05
2.05648e-05
2.08337e-05
1.239e-05
3.7081e-06
3.67939e-06
1.22741e-05
2.05761e-05
2.08753e-05
1.27004e-05
3.78642e-06
3.77383e-06
1.22234e-05
2.06664e-05
2.09e-05
1.23667e-05
3.66747e-06
3.64287e-06
1.22516e-05
2.06172e-05
2.08943e-05
1.2672e-05
3.75308e-06
3.74201e-06
1.21848e-05
2.06666e-05
2.08834e-05
1.23288e-05
3.63877e-06
3.61829e-06
1.22165e-05
2.05876e-05
2.08586e-05
1.26336e-05
3.73133e-06
3.72197e-06
1.21449e-05
2.06207e-05
2.08325e-05
1.22891e-05
3.62166e-06
3.60536e-06
1.21821e-05
2.05297e-05
2.07994e-05
1.25987e-05
3.72085e-06
3.71355e-06
1.2112e-05
2.05552e-05
2.07653e-05
1.22533e-05
3.61535e-06
3.60304e-06
1.21488e-05
2.04574e-05
2.0727e-05
1.25657e-05
3.72015e-06
3.71488e-06
1.20856e-05
2.04819e-05
2.06965e-05
1.22261e-05
3.61859e-06
3.61037e-06
1.21249e-05
2.03898e-05
2.06652e-05
1.25463e-05
3.72906e-06
3.72601e-06
1.20718e-05
2.04245e-05
2.06473e-05
1.22099e-05
3.63154e-06
3.62784e-06
1.21166e-05
2.03443e-05
2.06255e-05
1.25431e-05
3.74822e-06
3.74756e-06
1.20743e-05
2.03893e-05
2.06174e-05
1.22109e-05
3.65531e-06
3.65618e-06
1.21253e-05
2.03192e-05
2.06044e-05
1.25579e-05
3.77961e-06
3.78029e-06
1.2096e-05
2.03765e-05
2.06123e-05
1.22334e-05
3.69409e-06
3.69809e-06
1.21545e-05
2.03236e-05
2.06153e-05
1.25949e-05
3.82652e-06
3.82914e-06
1.21434e-05
2.04017e-05
2.06459e-05
1.22861e-05
3.74999e-06
3.76029e-06
1.22118e-05
2.03721e-05
2.06664e-05
1.26672e-05
3.89701e-06
3.90457e-06
1.2238e-05
2.04768e-05
2.07239e-05
1.23825e-05
3.83491e-06
3.85778e-06
1.23787e-05
2.05255e-05
2.0892e-05
1.26259e-05
3.90216e-06
3.92724e-06
1.24859e-05
2.06747e-05
2.10456e-05
1.29204e-05
4.0894e-06
4.10868e-06
1.25704e-05
2.08558e-05
2.12742e-05
1.28181e-05
4.16049e-06
4.26675e-06
1.2751e-05
2.10053e-05
2.12444e-05
1.28359e-05
4.27386e-06
4.28089e-06
1.27695e-05
2.10552e-05
2.1412e-05
1.29613e-05
4.37995e-06
4.47101e-06
1.31053e-05
2.12978e-05
2.14094e-05
1.33133e-05
4.5815e-06
4.77614e-06
1.34786e-05
2.1318e-05
2.15862e-05
1.38013e-05
4.86707e-06
4.98375e-06
1.38288e-05
2.14324e-05
2.18553e-05
1.44779e-05
5.20445e-06
5.31259e-06
1.44747e-05
2.17851e-05
2.21079e-05
1.52452e-05
5.66889e-06
5.96598e-06
1.51544e-05
2.20589e-05
2.24528e-05
1.59762e-05
6.20498e-06
6.45164e-06
1.61757e-05
2.25596e-05
2.28595e-05
1.67261e-05
6.90955e-06
7.68944e-06
2.43933e-05
2.13936e-05
1.57552e-05
1.0481e-05
5.36687e-06
3.46744e-06
1.1428e-05
1.82735e-05
1.90038e-05
1.26474e-05
4.95432e-06
5.80035e-06
1.33966e-05
1.94862e-05
1.98834e-05
1.37478e-05
6.25857e-06
6.68528e-06
1.42395e-05
2.02038e-05
2.06338e-05
1.46268e-05
7.12339e-06
7.5512e-06
1.51443e-05
2.09012e-05
2.1308e-05
1.53665e-05
7.99433e-06
8.45711e-06
2.06734e-05
2.29562e-05
1.39625e-05
9.34519e-06
5.93226e-06
3.71313e-06
1.00423e-05
1.56744e-05
1.64681e-05
1.05353e-05
5.10374e-06
5.70774e-06
1.05253e-05
1.67286e-05
1.7009e-05
1.08086e-05
6.07499e-06
6.52916e-06
1.11084e-05
1.73887e-05
1.76245e-05
1.14393e-05
7.18448e-06
7.91417e-06
1.39882e-05
2.2844e-05
1.23075e-05
8.30365e-06
5.69772e-06
3.769e-06
8.91623e-06
1.38285e-05
1.47447e-05
9.50673e-06
5.34566e-06
6.3602e-06
1.00788e-05
1.53061e-05
1.62996e-05
1.0536e-05
7.17997e-06
8.02976e-06
1.09758e-05
1.63874e-05
2.18666e-05
9.58908e-06
8.77125e-06
6.29935e-06
8.56852e-06
1.23277e-05
1.37551e-05
9.08778e-06
4.08097e-06
5.89474e-06
9.87152e-06
1.45356e-05
1.56447e-05
1.03278e-05
7.08788e-06
7.83666e-06
1.06388e-05
1.56726e-05
1.99587e-05
7.30448e-06
8.50092e-06
6.3634e-06
8.53957e-06
1.22583e-05
1.336e-05
9.24107e-06
4.33276e-06
6.29191e-06
9.66744e-06
1.51461e-05
1.95295e-05
1.16359e-05
8.09979e-06
1.34215e-05
1.57157e-05
2.63959e-05
2.41938e-05
1.64147e-05
2.02501e-05
2.43407e-05
1.77903e-05
2.76931e-05
3.32192e-05
2.02672e-05
3.19464e-05
3.9722e-05
2.7247e-05
4.25328e-05
4.00257e-05
2.79137e-05
4.72216e-05
5.38463e-05
2.95928e-05
4.59054e-05
5.37652e-05
3.66719e-05
6.6683e-05
7.64432e-05
3.76101e-05
5.06956e-05
5.3723e-05
3.8959e-05
9.10039e-05
0.000106673
4.33676e-05
5.92132e-05
5.37975e-05
4.34376e-05
0.000125723
0.000141648
4.47667e-05
5.49073e-05
5.63308e-05
3.50548e-05
0.000161116
0.000171473
5.60691e-05
4.64685e-05
6.62241e-05
0.000110323
0.000175541
0.000175023
0.000152757
0.000131521
0.000152176
0.000159346
0.000166667
0.000152081
0.000147161
0.000154287
0.000120652
0.000130258
0.000134297
0.000121338
0.000111385
0.000117866
8.10115e-05
9.76283e-05
0.000107119
9.4999e-05
7.25932e-05
6.2172e-05
3.8035e-05
5.34872e-05
8.36616e-05
7.58618e-05
4.4735e-05
3.59841e-05
3.04546e-05
4.16051e-05
6.8196e-05
6.059e-05
3.21719e-05
2.65872e-05
2.56294e-05
2.82531e-05
5.18097e-05
4.58762e-05
2.3576e-05
2.45858e-05
2.66851e-05
1.97263e-05
4.07571e-05
3.48282e-05
1.87579e-05
2.45954e-05
2.38576e-05
1.75751e-05
3.10763e-05
2.76327e-05
1.65888e-05
2.66742e-05
2.29609e-05
1.51329e-05
2.31672e-05
2.01007e-05
1.41262e-05
2.09547e-05
2.35997e-05
1.39682e-05
1.65105e-05
8.48067e-06
1.08643e-05
1.83252e-05
1.66501e-05
8.31195e-06
5.59741e-06
6.65608e-06
1.04358e-05
1.71674e-05
1.21096e-05
8.57021e-06
4.24246e-06
5.70262e-06
7.94822e-06
1.12119e-05
1.58783e-05
1.14018e-05
6.82113e-06
4.4169e-06
8.77765e-06
1.29094e-05
1.13398e-05
8.0868e-06
5.77752e-06
6.84634e-06
1.15117e-05
1.65002e-05
1.31204e-05
8.86049e-06
4.46903e-06
5.86842e-06
8.18448e-06
1.14048e-05
1.6758e-05
1.14745e-05
6.88624e-06
4.41659e-06
8.82744e-06
1.32084e-05
1.1427e-05
8.10877e-06
5.77162e-06
6.88242e-06
1.17458e-05
1.71472e-05
1.35685e-05
8.96257e-06
4.50393e-06
5.8451e-06
8.21528e-06
1.15877e-05
1.77576e-05
1.18367e-05
6.83571e-06
4.39755e-06
8.89135e-06
1.37862e-05
1.16715e-05
8.14593e-06
5.73711e-06
6.75835e-06
1.20769e-05
1.85319e-05
1.4059e-05
8.89189e-06
4.37952e-06
5.74373e-06
8.1451e-06
1.17205e-05
1.91038e-05
1.22736e-05
6.72609e-06
4.35668e-06
8.88665e-06
1.4341e-05
1.18701e-05
8.19303e-06
5.91271e-06
7.41981e-06
9.53233e-06
2.06084e-05
1.43429e-05
8.3409e-06
5.46523e-06
3.24595e-06
6.80442e-06
1.1415e-05
8.92913e-06
5.89604e-06
4.04879e-06
4.11828e-06
1.5432e-05
1.52321e-05
1.19598e-05
8.00151e-06
5.60087e-06
6.32476e-06
1.15893e-05
2.02005e-05
1.37504e-05
8.05602e-06
3.86362e-06
5.0146e-06
7.23507e-06
1.07969e-05
1.94203e-05
1.1362e-05
5.78474e-06
3.59405e-06
7.67415e-06
1.34891e-05
1.03977e-05
6.83449e-06
4.72417e-06
5.46281e-06
1.08474e-05
1.93922e-05
1.31216e-05
7.27544e-06
3.3768e-06
4.46859e-06
6.50391e-06
1.00677e-05
1.90126e-05
1.05106e-05
5.13957e-06
3.14332e-06
6.90559e-06
1.25555e-05
9.42118e-06
5.98337e-06
4.14014e-06
4.75865e-06
9.39848e-06
1.8365e-05
1.18075e-05
6.3179e-06
2.87716e-06
3.76752e-06
5.53162e-06
8.66687e-06
1.6686e-05
8.4881e-06
4.2603e-06
2.52503e-06
5.73267e-06
1.05587e-05
7.78938e-06
4.85346e-06
3.36203e-06
3.84192e-06
7.05171e-06
1.54373e-05
9.54907e-06
4.89047e-06
2.17859e-06
2.68773e-06
4.1673e-06
6.95829e-06
1.44225e-05
9.94972e-06
2.65898e-06
3.63998e-06
5.41882e-06
9.13017e-06
1.889e-05
9.12967e-06
3.96588e-06
2.27263e-06
5.34416e-06
1.07307e-05
7.40664e-06
4.35638e-06
2.95928e-06
3.3015e-06
7.05686e-06
1.58177e-05
9.06576e-06
4.33586e-06
1.84519e-06
2.25451e-06
3.60792e-06
6.34691e-06
1.43458e-05
8.52071e-06
2.23363e-06
2.98082e-06
4.56445e-06
8.30965e-06
1.86262e-05
8.52118e-06
3.17074e-06
1.74949e-06
4.31202e-06
9.52912e-06
6.16144e-06
3.46639e-06
2.28473e-06
2.48136e-06
5.95458e-06
1.39459e-05
7.82097e-06
3.45401e-06
1.33285e-06
1.67482e-06
2.76218e-06
5.42058e-06
1.39788e-05
7.77839e-06
1.72919e-06
2.25565e-06
3.71721e-06
7.66749e-06
2.03773e-05
1.02368e-05
2.40176e-06
1.30528e-06
3.51292e-06
9.13046e-06
5.80379e-06
2.78616e-06
1.69594e-06
1.84797e-06
8.06598e-06
1.58493e-05
6.7139e-06
2.61654e-06
9.44133e-07
1.20017e-06
2.03264e-06
4.25679e-06
1.32879e-05
6.27753e-06
1.27012e-06
1.63033e-06
2.78944e-06
6.5412e-06
2.12226e-05
1.13862e-05
1.7336e-06
8.48453e-07
2.39645e-06
7.31318e-06
4.14878e-06
1.78813e-06
1.01722e-06
1.07796e-06
5.99237e-06
1.39704e-05
6.23217e-06
2.25741e-06
1.35635e-06
1.45403e-06
1.13342e-05
2.33872e-05
6.73868e-06
2.03382e-06
6.90129e-07
8.46003e-07
1.5177e-06
3.75943e-06
1.38442e-05
5.32774e-06
8.97228e-07
1.14186e-06
1.87679e-06
5.65658e-06
2.58961e-05
9.07846e-06
1.24399e-06
5.62886e-07
1.8265e-06
6.99315e-06
3.58045e-06
1.28981e-06
6.87498e-07
7.23308e-07
4.45957e-06
1.63415e-05
5.21268e-06
1.57519e-06
8.95354e-07
9.916e-07
6.20482e-06
2.74831e-05
7.00447e-06
1.56238e-06
4.34011e-07
5.25476e-07
1.01819e-06
3.14032e-06
1.61523e-05
3.1127e-06
5.51363e-07
6.80644e-07
1.31598e-06
5.04237e-06
2.41147e-05
4.16603e-06
7.80006e-07
3.36127e-07
1.35805e-06
7.79323e-06
3.40483e-06
8.13571e-07
3.84132e-07
4.10847e-07
2.20079e-06
1.22583e-05
7.15727e-06
1.18878e-06
4.84041e-07
5.31522e-07
2.7544e-06
1.66934e-05
7.22856e-06
1.08915e-06
2.43726e-07
2.54791e-07
7.33247e-07
5.21688e-06
7.9776e-06
1.32331e-06
2.69401e-07
2.63405e-07
1.13048e-06
9.22286e-06
8.35081e-06
1.43385e-06
2.78287e-07
3.01989e-07
2.05133e-06
1.40235e-05
1.51586e-05
2.41952e-06
2.86828e-07
1.80646e-07
9.0436e-07
6.12116e-06
1.29486e-05
1.69147e-06
1.28433e-07
1.50843e-07
1.05729e-06
6.33936e-06
1.53276e-05
2.8147e-06
1.51059e-07
1.30896e-07
2.20377e-06
1.3972e-05
4.08906e-06
6.32502e-07
1.00005e-07
7.77821e-08
2.11746e-06
1.45061e-05
4.9483e-06
9.78845e-07
5.78715e-08
1.84522e-07
3.34164e-06
1.94243e-05
5.2662e-06
1.28052e-06
1.00079e-07
3.35617e-07
4.88424e-06
1.90457e-05
1.48014e-05
3.06784e-06
4.46125e-07
7.24009e-08
7.39509e-07
3.44738e-06
1.58213e-05
3.08452e-06
2.63958e-07
2.07375e-07
1.13695e-06
4.1165e-06
1.66806e-05
4.93648e-06
4.38305e-07
4.03962e-07
1.63168e-06
5.39761e-06
1.7658e-05
5.44767e-06
6.62361e-07
8.38487e-07
3.79949e-06
1.34976e-05
3.40979e-06
1.02191e-06
2.57296e-07
4.43571e-07
3.52531e-06
1.18436e-05
3.94542e-06
1.31985e-06
4.24811e-07
6.50145e-07
4.73827e-06
1.14699e-05
4.54646e-06
1.78877e-06
6.58582e-07
9.32552e-07
5.26614e-06
1.42241e-05
1.20491e-05
4.36258e-06
1.23713e-06
4.58787e-07
1.32301e-06
3.75088e-06
1.01952e-05
4.44195e-06
6.57415e-07
6.83633e-07
1.64264e-06
4.14738e-06
1.01873e-05
5.64392e-06
8.99424e-07
9.45058e-07
2.07248e-06
4.75897e-06
1.21396e-05
4.89576e-06
1.18858e-06
1.56721e-06
4.68265e-06
1.06595e-05
3.8807e-06
1.51194e-06
6.12672e-07
8.16948e-07
4.80431e-06
8.67017e-06
4.03912e-06
1.79607e-06
8.58691e-07
1.06314e-06
5.54361e-06
8.26494e-06
4.3563e-06
2.18218e-06
1.13793e-06
1.27376e-06
5.92299e-06
9.2949e-06
5.14489e-06
2.72071e-06
1.44614e-06
1.64683e-06
5.12169e-06
1.16513e-05
1.05792e-05
5.78396e-06
2.24997e-06
9.96516e-07
2.09254e-06
4.29126e-06
8.0854e-06
5.46459e-06
1.1763e-06
1.31783e-06
2.40266e-06
4.45973e-06
8.90086e-06
5.5976e-06
1.42947e-06
1.62755e-06
2.82261e-06
5.00037e-06
9.65851e-06
6.08681e-06
1.68477e-06
1.95499e-06
3.2354e-06
5.60053e-06
1.13231e-05
5.56268e-06
2.09093e-06
2.78726e-06
6.19089e-06
1.00795e-05
4.64256e-06
2.60981e-06
1.29776e-06
1.40893e-06
5.83713e-06
8.01533e-06
4.74125e-06
2.80844e-06
1.62288e-06
1.69907e-06
5.83278e-06
8.53357e-06
5.18093e-06
3.25658e-06
1.96623e-06
2.00164e-06
6.32159e-06
9.29523e-06
5.73722e-06
3.6471e-06
2.35499e-06
2.55212e-06
6.18052e-06
1.04985e-05
9.58563e-06
6.35171e-06
3.33181e-06
1.66516e-06
3.16144e-06
5.03243e-06
8.35353e-06
6.66264e-06
1.7612e-06
2.05153e-06
3.45051e-06
5.29926e-06
9.15344e-06
6.39476e-06
2.07957e-06
2.40989e-06
3.78672e-06
5.77909e-06
9.76382e-06
6.74953e-06
2.36545e-06
2.79624e-06
4.18366e-06
6.22292e-06
1.08506e-05
6.66792e-06
2.90335e-06
3.66656e-06
6.32608e-06
9.80667e-06
5.29842e-06
3.43301e-06
1.87841e-06
1.92311e-06
6.80309e-06
8.28593e-06
5.51974e-06
3.65527e-06
2.2495e-06
2.26442e-06
6.23771e-06
8.79084e-06
5.89621e-06
4.02005e-06
2.63382e-06
2.5507e-06
6.65366e-06
9.25607e-06
6.31921e-06
4.40402e-06
2.91643e-06
2.80966e-06
7.32116e-06
9.7931e-06
6.71666e-06
4.80493e-06
3.2923e-06
3.45856e-06
7.24785e-06
1.12044e-05
1.02141e-05
6.73919e-06
4.34553e-06
2.31468e-06
4.0264e-06
5.93339e-06
8.61895e-06
7.75898e-06
2.36851e-06
2.7469e-06
4.29099e-06
6.14441e-06
9.27021e-06
6.8692e-06
2.70478e-06
3.16309e-06
4.63363e-06
6.5889e-06
9.68756e-06
7.29709e-06
3.0072e-06
3.52674e-06
5.05859e-06
7.01163e-06
1.08161e-05
7.22595e-06
3.68468e-06
4.53328e-06
6.79879e-06
9.88293e-06
6.07348e-06
4.17566e-06
2.40403e-06
2.46097e-06
7.73606e-06
8.3523e-06
6.20199e-06
4.39678e-06
2.8313e-06
2.7949e-06
6.69184e-06
8.91126e-06
6.58834e-06
4.67164e-06
3.22908e-06
3.02647e-06
7.03499e-06
9.19403e-06
6.88216e-06
4.9277e-06
3.40202e-06
3.25008e-06
7.42508e-06
9.41469e-06
7.22763e-06
5.34886e-06
3.80907e-06
3.97513e-06
7.39727e-06
1.04579e-05
9.74513e-06
7.05057e-06
4.879e-06
2.61945e-06
4.4038e-06
6.35894e-06
8.51966e-06
8.0715e-06
2.70362e-06
3.16041e-06
4.75853e-06
6.58933e-06
9.04671e-06
7.03888e-06
3.07966e-06
3.57029e-06
5.03347e-06
6.9696e-06
9.30053e-06
7.35917e-06
3.32789e-06
3.75423e-06
5.31456e-06
7.24686e-06
9.50646e-06
7.61349e-06
3.49865e-06
3.98666e-06
5.60798e-06
7.53997e-06
9.79352e-06
8.14126e-06
3.72405e-06
4.27539e-06
5.9121e-06
7.82058e-06
1.07679e-05
7.90789e-06
4.39285e-06
5.36951e-06
7.54071e-06
1.00726e-05
6.8652e-06
4.78331e-06
2.94087e-06
2.98784e-06
8.74222e-06
8.65611e-06
6.9422e-06
5.16269e-06
3.44167e-06
3.35292e-06
7.38071e-06
9.1832e-06
7.32453e-06
5.39118e-06
3.87203e-06
3.60746e-06
7.66048e-06
9.381e-06
7.60824e-06
5.68719e-06
4.0826e-06
3.89888e-06
8.16116e-06
9.6632e-06
7.93667e-06
6.08957e-06
4.46007e-06
4.62775e-06
7.99682e-06
1.05716e-05
1.00309e-05
7.72512e-06
5.64689e-06
3.10685e-06
4.99202e-06
7.06904e-06
8.81159e-06
8.98257e-06
3.1593e-06
3.67764e-06
5.46964e-06
7.22804e-06
9.40972e-06
7.77211e-06
3.59586e-06
4.08257e-06
5.65221e-06
7.59583e-06
9.62472e-06
7.94525e-06
3.79346e-06
4.27276e-06
5.92418e-06
7.87138e-06
9.82566e-06
8.32019e-06
4.06261e-06
4.64821e-06
6.30782e-06
8.16724e-06
1.06777e-05
8.20497e-06
4.74197e-06
5.63518e-06
7.86102e-06
1.0152e-05
7.16916e-06
5.04113e-06
3.11498e-06
3.2248e-06
8.98686e-06
8.92865e-06
7.35458e-06
5.52622e-06
3.74085e-06
3.61872e-06
7.77653e-06
9.35507e-06
7.62574e-06
5.677e-06
4.07753e-06
3.85705e-06
7.94371e-06
9.5098e-06
7.8666e-06
5.89995e-06
4.29328e-06
4.07929e-06
8.27795e-06
9.68096e-06
8.19511e-06
6.37697e-06
4.75311e-06
4.90571e-06
8.23372e-06
1.04664e-05
1.00594e-05
7.96461e-06
5.83154e-06
3.24211e-06
5.17684e-06
7.29834e-06
8.98128e-06
9.25281e-06
3.34499e-06
3.84536e-06
5.66306e-06
7.47996e-06
9.41098e-06
7.94021e-06
3.70973e-06
4.2364e-06
5.84387e-06
7.77932e-06
9.63049e-06
8.14071e-06
4.00696e-06
4.44058e-06
6.08458e-06
8.03112e-06
9.81209e-06
8.48697e-06
4.15538e-06
4.74941e-06
6.43419e-06
8.28771e-06
1.06079e-05
8.29928e-06
4.90781e-06
5.86873e-06
8.00422e-06
1.01607e-05
7.33911e-06
5.1999e-06
3.26991e-06
3.33444e-06
9.24174e-06
8.96869e-06
7.49139e-06
5.67806e-06
3.81621e-06
3.74504e-06
7.91906e-06
9.40761e-06
7.77579e-06
5.81206e-06
4.22448e-06
3.94104e-06
8.09276e-06
9.50308e-06
7.98435e-06
6.08404e-06
4.41399e-06
4.23426e-06
8.46498e-06
9.73714e-06
8.31651e-06
6.51916e-06
4.84228e-06
5.05925e-06
8.37618e-06
1.04895e-05
1.01499e-05
8.12932e-06
6.09524e-06
3.43721e-06
5.35288e-06
7.4982e-06
9.12832e-06
9.50779e-06
3.43739e-06
3.93988e-06
5.84374e-06
7.65389e-06
9.61366e-06
8.22904e-06
3.86469e-06
4.35563e-06
5.98901e-06
7.96995e-06
9.77118e-06
8.29789e-06
4.10205e-06
4.60201e-06
6.28034e-06
8.23061e-06
1.00028e-05
8.67701e-06
4.37037e-06
4.99695e-06
6.66988e-06
8.536e-06
1.07678e-05
8.57271e-06
5.10591e-06
6.0451e-06
8.26467e-06
1.03764e-05
7.56776e-06
5.33034e-06
3.32724e-06
3.43847e-06
9.46757e-06
9.2892e-06
7.75927e-06
5.85792e-06
3.97971e-06
3.87121e-06
8.18132e-06
9.67112e-06
8.04461e-06
6.04964e-06
4.38773e-06
4.23983e-06
8.34566e-06
9.82754e-06
8.34577e-06
6.39786e-06
4.71392e-06
4.5257e-06
8.91267e-06
1.00984e-05
8.69577e-06
6.82589e-06
5.10101e-06
5.27066e-06
8.74341e-06
1.09369e-05
1.05658e-05
8.47231e-06
6.27894e-06
3.53685e-06
5.56708e-06
7.79362e-06
9.58708e-06
9.70079e-06
3.66725e-06
4.24943e-06
6.22142e-06
8.08345e-06
1.00917e-05
8.74725e-06