/*--------------------------------*- C++ -*----------------------------------*\
| =========                 |                                                 |
| \\      /  F ield         | OpenFOAM: The Open Source CFD Toolbox           |
|  \\    /   O peration     | Version:  v2006                                 |
|   \\  /    A nd           | Website:  www.openfoam.com                      |
|    \\/     M anipulation  |                                                 |
\*---------------------------------------------------------------------------*/
FoamFile
{
    version     2.0;
    format      ascii;
    class       volScalarField;
    location    "0.076";
    object      T;
}
// * * * * * * * * * * * * * * * * * * * * * * * * * * * * * * * * * * * * * //

dimensions      [0 0 0 1 0 0 0];


internalField   nonuniform List<scalar> 
24416
(
296.601
296.601
296.601
296.601
296.601
296.601
296.601
296.601
296.601
296.601
296.602
296.602
296.604
296.608
296.612
296.618
296.624
296.63
296.636
296.642
296.648
296.654
296.66
296.667
296.673
296.679
296.686
296.693
296.7
296.707
296.714
296.721
296.728
296.736
296.743
296.751
296.759
296.767
296.775
296.783
296.791
296.799
296.807
296.815
296.824
296.832
296.841
296.849
296.858
296.866
296.875
296.883
296.892
296.901
296.909
296.918
296.926
296.935
296.943
296.952
296.96
296.969
296.977
296.985
296.994
297.002
297.01
297.018
297.026
297.033
297.041
297.049
297.056
297.064
297.071
297.078
297.085
297.092
297.099
297.105
297.112
297.118
297.124
297.131
297.138
297.144
297.151
297.157
297.162
297.164
297.165
297.164
297.162
297.161
297.16
297.159
297.158
297.157
297.156
297.155
297.155
297.156
297.158
297.163
297.171
297.183
297.197
297.22
297.244
297.343
297.365
297.243
297.208
297.206
297.25
297.405
297.441
297.262
297.207
297.21
297.272
297.464
297.485
297.284
297.215
297.221
297.295
297.495
297.505
297.306
297.227
297.233
297.315
297.509
297.514
297.321
297.238
297.244
297.328
297.516
297.516
297.333
297.249
297.254
297.339
297.515
297.513
297.343
297.259
297.264
297.347
297.511
297.507
297.351
297.269
297.274
297.355
297.505
297.501
297.357
297.278
297.283
297.36
297.498
297.495
297.363
297.287
297.291
297.365
297.491
297.488
297.368
297.295
297.298
297.37
297.486
297.483
297.372
297.302
297.305
297.374
297.48
297.478
297.376
297.309
297.312
297.377
297.476
297.474
297.379
297.316
297.318
297.381
297.472
297.471
297.383
297.322
297.324
297.384
297.469
297.469
297.387
297.328
297.331
297.388
297.467
297.467
297.39
297.335
297.337
297.392
297.466
297.466
297.394
297.341
297.343
297.396
297.465
297.465
297.398
297.347
297.349
297.4
297.465
297.465
297.402
297.353
297.355
297.404
297.465
297.466
297.407
297.359
297.361
297.408
297.466
297.467
297.411
297.366
297.368
297.413
297.467
297.468
297.416
297.372
297.374
297.418
297.469
297.471
297.421
297.379
297.381
297.423
297.471
297.473
297.426
297.386
297.388
297.428
297.474
297.476
297.432
297.393
297.395
297.434
297.478
297.48
297.438
297.4
297.403
297.44
297.481
297.484
297.444
297.408
297.41
297.446
297.485
297.488
297.45
297.416
297.418
297.453
297.49
297.493
297.457
297.424
297.426
297.459
297.495
297.498
297.464
297.432
297.435
297.467
297.5
297.504
297.472
297.44
297.443
297.474
297.506
297.51
297.479
297.449
297.452
297.482
297.512
297.516
297.487
297.458
297.461
297.49
297.518
297.522
297.496
297.468
297.471
297.498
297.525
297.53
297.504
297.478
297.481
297.507
297.532
297.537
297.513
297.488
297.491
297.516
297.54
297.545
297.523
297.498
297.502
297.526
297.547
297.553
297.532
297.509
297.512
297.536
297.556
297.562
297.542
297.52
297.524
297.546
297.565
297.571
297.553
297.532
297.535
297.556
297.574
297.58
297.564
297.543
297.547
297.567
297.583
297.59
297.575
297.556
297.56
297.579
297.593
297.6
297.587
297.568
297.572
297.591
297.604
297.611
297.599
297.581
297.586
297.603
297.615
297.623
297.611
297.595
297.599
297.616
297.626
297.634
297.624
297.609
297.614
297.629
297.638
297.647
297.638
297.624
297.628
297.643
297.651
297.66
297.652
297.639
297.644
297.657
297.664
297.673
297.666
297.654
297.659
297.671
297.677
297.687
297.682
297.67
297.675
297.687
297.691
297.701
297.697
297.687
297.692
297.702
297.706
297.716
297.713
297.704
297.709
297.719
297.721
297.731
297.73
297.721
297.727
297.736
297.737
297.747
297.747
297.74
297.746
297.753
297.753
297.764
297.765
297.758
297.764
297.771
297.769
297.781
297.783
297.778
297.784
297.789
297.787
297.798
297.802
297.798
297.804
297.808
297.804
297.816
297.821
297.818
297.825
297.828
297.823
297.835
297.841
297.839
297.846
297.848
297.842
297.854
297.862
297.861
297.868
297.869
297.861
297.874
297.883
297.883
297.89
297.89
297.881
297.895
297.905
297.906
297.914
297.912
297.902
297.916
297.927
297.93
297.937
297.935
297.923
297.938
297.95
297.954
297.962
297.958
297.945
297.96
297.974
297.978
297.987
297.982
297.968
297.983
297.998
298.004
298.012
298.007
297.991
298.007
298.023
298.03
298.039
298.032
298.015
298.031
298.049
298.057
298.066
298.058
298.039
298.056
298.075
298.084
298.093
298.084
298.064
298.081
298.102
298.112
298.121
298.111
298.09
298.107
298.129
298.14
298.15
298.139
298.116
298.134
298.157
298.17
298.179
298.167
298.143
298.161
298.186
298.199
298.209
298.196
298.17
298.189
298.215
298.23
298.24
298.225
298.199
298.217
298.244
298.261
298.271
298.255
298.227
298.246
298.275
298.292
298.302
298.285
298.256
298.276
298.305
298.324
298.334
298.316
298.286
298.306
298.336
298.356
298.367
298.347
298.317
298.336
298.368
298.389
298.4
298.379
298.347
298.367
298.4
298.422
298.433
298.411
298.378
298.398
298.432
298.455
298.466
298.444
298.41
298.43
298.465
298.489
298.5
298.476
298.442
298.462
298.498
298.523
298.534
298.509
298.474
298.494
298.53
298.557
298.568
298.542
298.506
298.527
298.564
298.59
298.602
298.575
298.539
298.56
298.597
298.624
298.635
298.609
298.572
298.593
298.63
298.658
298.669
298.642
298.606
298.626
298.663
298.691
298.702
298.675
298.639
298.659
298.695
298.724
298.735
298.707
298.672
298.692
298.728
298.757
298.768
298.74
298.704
298.724
298.76
298.789
298.8
298.771
298.736
298.755
298.791
298.821
298.831
298.802
298.768
298.787
298.822
298.852
298.862
298.833
298.798
298.817
298.852
298.882
298.891
298.862
298.828
298.846
298.881
298.91
298.92
298.891
298.857
298.875
298.909
298.938
298.947
298.919
298.886
298.903
298.936
298.965
298.974
298.945
298.913
298.93
298.962
298.991
298.999
298.971
298.94
298.955
298.987
299.016
299.023
298.995
298.965
298.98
299.011
299.039
299.046
299.019
298.989
299.004
299.033
299.061
299.068
299.041
299.013
299.027
299.055
299.082
299.089
299.063
299.035
299.049
299.076
299.102
299.109
299.083
299.057
299.069
299.096
299.121
299.127
299.103
299.077
299.089
299.114
299.139
299.145
299.121
299.096
299.108
299.132
299.156
299.161
299.138
299.115
299.126
299.149
299.172
299.177
299.155
299.132
299.143
299.165
299.187
299.192
299.17
299.149
299.159
299.18
299.201
299.206
299.185
299.165
299.174
299.194
299.215
299.219
299.199
299.179
299.188
299.208
299.227
299.231
299.212
299.194
299.202
299.22
299.239
299.243
299.225
299.207
299.215
299.233
299.251
299.254
299.237
299.22
299.227
299.244
299.262
299.265
299.248
299.233
299.239
299.255
299.272
299.276
299.26
299.245
299.251
299.266
299.283
299.286
299.271
299.257
299.262
299.277
299.292
299.297
299.282
299.269
299.272
299.287
299.302
299.307
299.293
299.28
299.283
299.297
299.311
299.315
299.302
299.29
299.293
299.306
299.319
299.326
299.313
299.3
299.349
299.372
299.385
299.39
299.394
299.399
299.399
299.398
299.395
299.392
299.388
299.384
299.379
299.374
299.368
299.363
299.357
299.351
299.345
299.339
299.332
299.326
299.319
299.313
299.307
299.3
299.294
299.287
299.28
299.274
299.267
299.26
299.253
299.246
299.239
299.231
299.223
299.215
299.207
299.198
299.189
299.179
299.169
299.16
299.151
299.144
299.137
299.135
299.135
299.143
299.146
299.141
299.139
299.145
299.143
299.145
299.148
299.149
299.152
299.148
299.145
299.146
299.152
299.161
299.165
299.155
299.148
299.149
299.156
299.167
299.172
299.16
299.152
299.153
299.16
299.173
299.175
299.163
299.155
299.155
299.163
299.176
299.178
299.166
299.158
299.158
299.165
299.178
299.181
299.168
299.16
299.16
299.168
299.18
299.183
299.17
299.162
299.162
299.17
299.183
299.185
299.172
299.164
299.163
299.171
299.185
299.187
299.174
299.166
299.165
299.173
299.187
299.19
299.176
299.168
299.168
299.176
299.19
299.193
299.178
299.17
299.17
299.178
299.193
299.196
299.181
299.172
299.173
299.181
299.196
299.199
299.184
299.175
299.176
299.185
299.2
299.204
299.188
299.179
299.18
299.189
299.204
299.209
299.192
299.183
299.184
299.193
299.21
299.214
299.197
299.187
299.188
299.198
299.216
299.22
299.202
299.191
299.192
299.203
299.222
299.226
299.206
299.195
299.196
299.207
299.228
299.232
299.211
299.199
299.2
299.212
299.233
299.237
299.215
299.203
299.204
299.216
299.238
299.241
299.218
299.206
299.207
299.219
299.243
299.245
299.22
299.208
299.207
299.217
299.244
299.243
299.216
299.205
299.203
299.212
299.241
299.246
299.214
299.204
299.207
299.217
299.256
299.279
299.229
299.216
299.223
299.239
299.31
299.343
299.251
299.233
299.241
299.259
299.369
299.378
299.268
299.25
299.26
299.267
299.404
299.516
299.368
299.132
299.296
299.414
299.287
299.402
299.284
299.32
299.342
299.356
299.361
299.374
299.355
299.359
299.388
299.375
299.367
299.411
299.412
299.415
299.443
299.436
299.438
299.466
299.469
299.477
299.509
299.497
299.475
299.515
299.527
299.532
299.558
299.559
299.544
299.587
299.587
299.585
299.619
299.622
299.616
299.645
299.649
299.647
299.662
299.654
299.657
299.644
299.642
299.644
299.619
299.602
299.596
299.515
299.54
299.567
299.466
299.431
299.376
299.179
299.277
299.304
299.2
299.129
298.944
298.666
298.93
299.033
298.767
298.687
298.377
298.035
298.522
298.64
298.373
298.277
297.732
297.211
297.973
298.084
297.863
297.763
296.927
296.268
297.11
297.41
296.717
296.315
296.041
295.779
295.278
295.622
295.117
294.735
295.702
295.913
294.639
294.764
294.59
294.829
296.334
297.014
295.219
294.586
294.723
295.857
297.631
298.594
297.114
295.496
295.795
297.658
299.138
299.661
298.335
296.219
297.678
299.189
299.999
300.298
299.303
297.547
298.152
299.757
300.386
300.633
300.318
299.345
299.202
300.512
300.61
300.822
300.437
299.782
300.141
301.188
300.579
300.717
299.847
299.883
300.031
300.516
300.343
301.55
299.586
300.531
299.391
300.291
300.217
300.655
299.95
299.802
299.543
300.789
300.323
300.494
299.366
299.621
299.722
300.088
300.091
301.415
298.707
300.111
299.03
299.856
299.807
299.721
300.087
299.529
299.677
298.289
301.207
299.064
299.831
298.739
299.078
299.811
299.529
299.542
299.122
298.971
299.119
299.401
299.5
299.94
298.745
299.326
298.922
298.995
299.399
299.217
299.342
299.13
299.162
298.336
299.879
299.385
298.618
298.844
298.99
299.253
299.068
300.38
297.814
298.977
298.469
299.098
298.348
298.64
299.157
298.604
298.579
298.43
298.913
298.793
299.068
298.738
298.743
297.559
299.754
298.269
298.945
298.191
298.364
298.983
298.5
298.562
298.45
298.318
298.401
298.48
298.754
298.231
299.084
298.132
298.006
298.902
297.956
298.617
298.296
298.402
297.706
299.002
298.265
298.853
297.12
298.508
298.237
297.157
299.106
298.73
297.538
298.154
298.159
297.489
298.69
298.252
297.801
297.907
298.033
298.209
297.941
298.872
296.914
298.059
297.434
298.285
297.572
297.69
298.275
297.715
297.701
297.637
297.969
297.738
297.971
297.793
297.934
296.709
298.861
297.321
298.255
297.237
297.277
298.171
297.566
297.687
297.43
297.476
297.365
297.697
297.543
297.489
297.473
297.328
297.454
297.466
297.884
296.916
298.175
296.91
297.658
296.375
297.763
297.921
296.461
297.295
296.985
297.232
297.209
297.48
296.923
297.13
296.994
296.967
297.291
296.913
297.275
297.124
297.175
295.818
298.09
296.5
297.537
296.503
296.552
297.374
296.699
296.709
297.121
296.591
296.648
297.28
296.746
296.901
296.664
296.685
296.854
297.169
296.859
297.759
295.578
296.909
296.073
297.315
296.004
296.419
297.053
296.327
296.565
296.281
296.695
296.492
296.67
296.29
296.417
296.167
296.722
296.517
296.456
296.334
296.278
296.266
296.526
296.475
296.487
296.397
296.462
295.321
297.127
296.691
295.171
296.685
296.337
294.967
297.204
296.18
296.034
295.87
296.15
295.249
296.774
296.202
295.881
295.822
295.923
295.601
296.407
296.11
295.732
295.804
295.746
295.732
296.076
295.943
295.756
295.653
295.726
295.707
296.118
295.169
296.236
295.825
295.911
294.978
296.322
296
295.989
295.618
295.326
295.553
295.829
295.81
295.563
295.397
295.316
295.32
295.824
295.883
295.449
295.324
295.219
295.296
295.709
295.715
295.447
295.24
295.153
295.184
295.511
295.492
295.609
295.289
295.359
294.408
295.992
295.807
294.213
295.405
295.25
294.077
295.924
295.194
294.979
294.736
295.004
294.47
295.573
295.142
294.896
294.668
294.79
294.627
295.354
295.102
294.668
294.676
294.617
294.706
295.037
294.908
294.618
294.563
294.549
294.741
294.957
295.135
294.549
294.536
293.857
294.942
294.227
292.621
296.149
294.673
294.207
295.273
294.023
294.737
294.696
294.526
294.157
294.427
294.753
294.885
294.296
294.195
294.006
294.152
294.578
294.538
294.248
294.001
293.951
294.063
294.348
294.459
294.118
293.912
293.775
294.669
293.864
293.503
294.711
293.495
293.471
294.523
293.68
293.96
293.79
293.644
293.491
294.193
293.698
294.051
293.444
293.471
293.392
293.782
293.779
293.928
293.39
293.395
293.367
293.64
293.836
293.654
293.284
293.267
293.265
293.651
293.663
294.224
292.642
293.508
292.847
293.392
293.288
293.702
292.849
293.175
292.768
293.134
293.302
293.564
292.999
292.884
292.705
292.906
293.257
293.355
292.94
292.763
292.573
292.738
293.13
293.181
292.776
292.599
292.484
292.541
292.962
292.937
292.831
292.474
292.667
292.148
293.358
293.257
292.049
292.445
292.454
291.879
293.216
292.746
292.288
292.032
292.252
291.961
292.931
292.491
292.162
291.836
291.954
292.059
292.692
292.253
291.901
291.784
291.723
291.972
292.429
292.41
291.943
291.871
291.589
291.677
292.326
292.346
291.503
291.663
291.342
291.631
291.919
291.968
291.458
291.381
291.121
291.322
291.779
291.852
291.348
291.172
290.994
291.115
291.63
291.692
291.209
290.905
290.86
291.745
291.198
291.539
290.574
290.78
290.574
291.025
291.201
291.308
290.312
290.51
290.378
290.741
291.052
290.913
290.23
290.276
290.184
290.701
290.824
291.318
289.916
290.436
289.869
290.206
290.632
290.877
289.815
290.014
289.597
289.944
290.323
290.449
289.724
289.646
289.389
289.507
290.146
290.273
289.594
289.262
289.496
289.843
290.286
289.981
289.274
289.139
289.123
289.486
289.864
289.801
288.741
288.943
288.732
288.982
289.453
289.209
288.601
288.466
288.36
288.737
289.417
289.354
288.945
288.556
288.162
288.38
289.013
289.002
288.462
288.171
287.882
288.024
288.634
288.504
287.84
287.543
287.675
288.061
288.459
288.231
287.574
287.375
287.425
287.808
288.289
288.007
287.207
287.132
286.818
287.431
287.95
287.731
287.061
286.97
286.355
286.503
287.38
287.419
286.697
286.387
286.137
286.274
287.108
287.116
286.448
285.958
285.816
286.572
286.552
286.679
285.501
285.59
285.274
285.73
286.217
285.816
284.954
284.818
284.639
285.067
286.118
286.084
285.415
284.818
284.437
284.736
285.342
285.442
284.381
283.939
283.797
284.713
284.654
284.409
283.637
283.375
283.169
283.683
284.83
284.599
284.239
283.318
282.976
282.841
283.919
283.247
283.053
282.028
282.644
282.116
283.646
283.021
281.925
281.707
281.515
282.25
283.161
283.134
281.826
281.648
280.754
281.263
281.078
281.43
280.374
280.105
280.106
280.729
281.382
280.995
280.002
279.726
278.888
279.722
280.763
280.33
279.275
279.186
277.98
278.245
279.373
279.685
278.323
277.865
277.183
277.912
279.228
279.106
277.739
277.566
276.423
276.737
278.372
278.321
276.63
276.197
275.668
276.136
278.088
278.483
276.054
275.28
274.985
275.706
278.163
279.166
276.25
275.018
275.226
276.403
279.381
280.95
278.899
276.88
276.642
277.98
279.679
282.778
280.13
278.622
280.258
281.997
284.685
286.259
283.585
281.683
282.784
284.795
287.382
288.271
285.779
283.673
284.428
286.609
288.965
289.555
287.35
285.113
285.741
288.008
290.046
290.471
288.606
286.329
286.877
289.141
290.827
291.125
289.623
287.395
287.877
290.046
291.372
291.59
290.423
288.327
288.746
290.756
291.78
291.949
291.057
289.143
289.512
291.32
292.09
292.219
291.554
289.859
290.179
291.754
292.329
292.432
291.934
290.478
290.752
292.088
292.519
292.6
292.229
291.005
291.233
292.349
292.668
292.736
292.461
291.443
291.631
292.558
292.792
292.848
292.651
291.808
291.965
292.732
292.893
292.937
292.81
292.113
292.241
292.875
292.972
293.009
292.939
292.36
292.46
292.99
293.037
293.068
293.042
292.554
292.632
293.084
293.091
293.119
293.126
292.707
292.767
293.159
293.14
293.166
293.194
292.826
292.871
293.219
293.185
293.207
293.246
292.917
292.951
293.266
293.223
293.242
293.287
292.986
293.011
293.301
293.256
293.273
293.318
293.039
293.058
293.328
293.285
293.3
293.34
293.08
293.093
293.346
293.31
293.322
293.354
293.11
293.12
293.358
293.33
293.34
293.363
293.133
293.14
293.364
293.346
293.353
293.367
293.151
293.156
293.366
293.358
293.363
293.366
293.164
293.168
293.364
293.366
293.369
293.362
293.174
293.175
293.359
293.371
293.373
293.357
293.18
293.181
293.352
293.373
293.374
293.35
293.184
293.185
293.345
293.373
293.373
293.342
293.188
293.188
293.337
293.372
293.37
293.335
293.191
293.191
293.329
293.367
293.365
293.326
293.193
293.193
293.32
293.361
293.359
293.316
293.193
293.193
293.31
293.353
293.35
293.306
293.193
293.192
293.3
293.344
293.341
293.296
293.191
293.19
293.289
293.334
293.33
293.285
293.189
293.186
293.278
293.322
293.318
293.274
293.185
293.181
293.265
293.309
293.304
293.261
293.179
293.174
293.252
293.295
293.29
293.248
293.171
293.164
293.238
293.281
293.276
293.234
293.16
293.152
293.224
293.265
293.26
293.219
293.148
293.139
293.209
293.25
293.244
293.203
293.134
293.125
293.193
293.234
293.228
293.187
293.119
293.109
293.176
293.217
293.211
293.17
293.103
293.092
293.158
293.2
293.194
293.152
293.085
293.073
293.139
293.182
293.176
293.133
293.066
293.053
293.12
293.164
293.158
293.113
293.046
293.032
293.1
293.145
293.139
293.092
293.024
293.01
293.078
293.126
293.119
293.071
293.002
292.987
293.057
293.106
293.099
293.048
292.978
292.963
293.034
293.085
293.077
293.025
292.954
292.938
293.01
293.063
293.055
293.001
292.929
292.913
292.986
293.041
293.033
292.976
292.903
292.887
292.961
293.018
293.01
292.951
292.876
292.86
292.935
292.995
292.986
292.925
292.85
292.834
292.909
292.97
292.961
292.899
292.823
292.806
292.883
292.946
292.937
292.873
292.795
292.779
292.856
292.921
292.911
292.846
292.768
292.751
292.829
292.895
292.886
292.819
292.741
292.724
292.802
292.87
292.86
292.791
292.713
292.696
292.775
292.844
292.834
292.764
292.685
292.668
292.747
292.817
292.807
292.736
292.658
292.641
292.72
292.791
292.781
292.709
292.63
292.614
292.692
292.764
292.754
292.682
292.603
292.586
292.665
292.738
292.727
292.654
292.576
292.56
292.638
292.711
292.701
292.627
292.549
292.533
292.611
292.684
292.674
292.6
292.523
292.507
292.584
292.658
292.647
292.573
292.497
292.481
292.557
292.631
292.621
292.547
292.471
292.455
292.531
292.605
292.595
292.521
292.445
292.429
292.505
292.579
292.569
292.495
292.42
292.404
292.479
292.553
292.543
292.469
292.395
292.38
292.453
292.527
292.517
292.443
292.37
292.355
292.428
292.502
292.492
292.418
292.346
292.331
292.403
292.476
292.467
292.394
292.322
292.307
292.379
292.452
292.442
292.369
292.299
292.284
292.354
292.427
292.417
292.345
292.275
292.261
292.331
292.402
292.393
292.321
292.253
292.238
292.307
292.378
292.369
292.298
292.23
292.216
292.284
292.355
292.346
292.275
292.208
292.194
292.261
292.331
292.322
292.252
292.186
292.173
292.239
292.308
292.299
292.23
292.165
292.152
292.217
292.286
292.277
292.208
292.144
292.131
292.195
292.264
292.255
292.187
292.123
292.11
292.174
292.242
292.233
292.166
292.103
292.09
292.153
292.22
292.212
292.145
292.083
292.07
292.132
292.199
292.191
292.124
292.063
292.051
292.112
292.178
292.17
292.104
292.044
292.032
292.092
292.158
292.15
292.085
292.025
292.013
292.073
292.138
292.13
292.065
292.006
291.995
292.054
292.118
292.11
292.046
291.988
291.976
292.035
292.098
292.091
292.028
291.97
291.959
292.016
292.079
292.072
292.009
291.952
291.941
291.998
292.061
292.054
291.991
291.935
291.924
291.981
292.042
292.035
291.974
291.918
291.907
291.963
292.024
292.017
291.956
291.901
291.89
291.946
292.007
292
291.939
291.884
291.874
291.929
291.989
291.982
291.923
291.868
291.858
291.912
291.972
291.965
291.906
291.852
291.842
291.896
291.955
291.949
291.89
291.836
291.827
291.88
291.939
291.932
291.874
291.821
291.811
291.864
291.922
291.916
291.858
291.806
291.796
291.849
291.906
291.9
291.843
291.791
291.782
291.834
291.891
291.885
291.828
291.776
291.767
291.819
291.875
291.869
291.813
291.762
291.753
291.804
291.86
291.854
291.799
291.748
291.739
291.79
291.845
291.84
291.784
291.734
291.725
291.776
291.831
291.825
291.77
291.72
291.712
291.762
291.816
291.811
291.757
291.707
291.698
291.748
291.802
291.797
291.743
291.694
291.685
291.735
291.788
291.783
291.73
291.681
291.672
291.722
291.775
291.769
291.717
291.668
291.66
291.709
291.761
291.756
291.704
291.655
291.648
291.696
291.748
291.743
291.691
291.643
291.635
291.683
291.735
291.73
291.679
291.631
291.623
291.671
291.722
291.717
291.667
291.619
291.612
291.659
291.71
291.705
291.655
291.607
291.6
291.647
291.698
291.693
291.643
291.596
291.589
291.636
291.685
291.681
291.631
291.585
291.578
291.624
291.674
291.669
291.62
291.573
291.566
291.613
291.662
291.657
291.609
291.563
291.556
291.602
291.65
291.646
291.598
291.552
291.545
291.591
291.639
291.635
291.587
291.541
291.534
291.58
291.628
291.624
291.576
291.531
291.524
291.57
291.617
291.613
291.566
291.52
291.514
291.559
291.606
291.602
291.555
291.51
291.504
291.549
291.596
291.591
291.545
291.5
291.494
291.539
291.585
291.581
291.535
291.49
291.484
291.529
291.575
291.571
291.525
291.481
291.474
291.519
291.565
291.561
291.515
291.471
291.465
291.509
291.555
291.551
291.506
291.461
291.456
291.5
291.545
291.541
291.496
291.452
291.446
291.49
291.535
291.531
291.487
291.443
291.437
291.481
291.526
291.522
291.478
291.434
291.428
291.472
291.516
291.512
291.469
291.425
291.419
291.463
291.507
291.503
291.46
291.416
291.411
291.454
291.498
291.494
291.451
291.407
291.402
291.445
291.489
291.485
291.442
291.399
291.393
291.437
291.48
291.476
291.433
291.39
291.385
291.428
291.471
291.467
291.425
291.382
291.377
291.42
291.462
291.459
291.416
291.373
291.368
291.411
291.454
291.45
291.408
291.365
291.36
291.403
291.445
291.442
291.4
291.357
291.352
291.395
291.437
291.433
291.392
291.349
291.344
291.387
291.429
291.425
291.384
291.341
291.336
291.379
291.42
291.417
291.376
291.333
291.328
291.371
291.412
291.409
291.368
291.325
291.321
291.363
291.404
291.401
291.36
291.318
291.313
291.356
291.397
291.393
291.352
291.31
291.305
291.348
291.389
291.385
291.345
291.303
291.298
291.34
291.381
291.378
291.337
291.295
291.29
291.333
291.373
291.37
291.33
291.288
291.283
291.326
291.366
291.362
291.322
291.28
291.276
291.318
291.358
291.355
291.315
291.273
291.269
291.311
291.351
291.348
291.308
291.266
291.262
291.304
291.344
291.34
291.301
291.259
291.255
291.297
291.336
291.333
291.293
291.252
291.248
291.29
291.329
291.326
291.286
291.245
291.241
291.283
291.322
291.319
291.279
291.238
291.234
291.276
291.315
291.312
291.273
291.231
291.227
291.269
291.308
291.305
291.266
291.224
291.22
291.262
291.301
291.298
291.259
291.217
291.214
291.255
291.294
291.291
291.252
291.211
291.207
291.248
291.287
291.284
291.246
291.204
291.201
291.242
291.28
291.277
291.239
291.198
291.194
291.235
291.273
291.271
291.233
291.191
291.188
291.229
291.266
291.264
291.226
291.185
291.181
291.222
291.26
291.257
291.22
291.179
291.175
291.216
291.253
291.251
291.213
291.172
291.168
291.209
291.246
291.244
291.207
291.166
291.162
291.203
291.24
291.238
291.2
291.16
291.156
291.196
291.233
291.231
291.194
291.154
291.15
291.19
291.227
291.225
291.188
291.148
291.144
291.184
291.221
291.218
291.182
291.142
291.138
291.178
291.214
291.212
291.176
291.136
291.131
291.172
291.208
291.206
291.169
291.129
291.126
291.165
291.201
291.199
291.163
291.124
291.119
291.159
291.195
291.193
291.157
291.117
291.114
291.153
291.189
291.187
291.151
291.112
291.108
291.147
291.183
291.18
291.145
291.106
291.102
291.141
291.176
291.174
291.139
291.1
291.096
291.135
291.17
291.168
291.133
291.094
291.09
291.129
291.164
291.162
291.127
291.088
291.084
291.123
291.158
291.156
291.121
291.082
291.078
291.117
291.152
291.149
291.115
291.075
291.072
291.111
291.146
291.143
291.109
291.069
291.066
291.104
291.139
291.137
291.103
291.064
291.059
291.099
291.133
291.131
291.096
291.058
291.054
291.092
291.127
291.124
291.09
291.052
291.048
291.086
291.121
291.118
291.084
291.045
291.041
291.08
291.115
291.112
291.077
291.039
291.035
291.074
291.108
291.105
291.071
291.033
291.029
291.068
291.102
291.099
291.065
291.027
291.023
291.061
291.096
291.092
291.058
291.02
291.017
291.055
291.09
291.086
291.052
291.014
291.011
291.049
291.084
291.08
291.046
291.008
291.005
291.043
291.077
291.074
291.04
291.002
290.999
291.037
291.071
291.068
291.034
290.996
290.993
291.031
291.065
291.061
291.028
290.99
290.988
291.025
291.059
291.055
291.022
290.983
290.981
291.018
291.053
291.048
291.015
290.977
290.974
291.012
291.046
291.039
291.008
290.97
290.964
291.002
291.037
291.031
290.998
290.949
290.926
290.987
291.02
290.991
290.961
290.878
290.883
290.955
290.98
290.851
290.801
290.55
290.339
290.184
290.123
289.923
289.783
289.703
289.652
289.481
289.319
289.179
289.053
288.94
288.84
288.752
288.675
288.608
288.55
288.5
288.457
288.421
288.39
288.363
288.34
288.321
288.304
288.29
288.278
288.268
288.259
288.251
288.245
288.239
288.234
288.23
288.226
288.222
288.22
288.217
288.215
288.213
288.211
288.21
288.208
288.207
288.206
288.205
288.205
288.204
288.204
288.203
288.203
288.203
288.202
288.202
288.202
288.202
288.201
288.201
288.201
288.2
288.2
288.199
288.198
288.198
288.197
288.196
288.195
288.195
288.194
288.193
288.192
288.191
288.19
288.19
288.189
288.188
288.187
288.187
288.186
288.185
288.185
288.184
288.184
288.183
288.183
288.182
288.182
288.182
288.182
288.181
288.181
288.181
288.18
288.179
288.178
288.177
288.177
288.176
288.176
288.177
288.179
288.181
288.184
288.189
288.194
288.2
288.207
288.215
288.225
288.235
288.246
288.258
288.271
288.285
288.301
288.317
288.334
288.353
288.373
288.394
288.416
288.44
288.464
288.491
288.519
288.548
288.579
288.612
288.647
288.683
288.721
288.761
288.803
288.848
288.894
288.943
288.994
289.047
289.103
289.161
289.221
289.284
289.35
289.418
289.489
289.562
289.638
289.716
289.797
289.881
289.966
290.055
290.145
290.238
290.333
290.429
290.528
290.629
290.731
290.834
290.939
291.045
291.152
291.261
291.369
291.479
291.589
291.699
291.809
291.919
292.029
292.138
292.247
292.356
292.463
292.57
292.676
292.781
292.885
292.987
293.088
293.187
293.285
293.382
293.477
293.57
293.661
293.751
293.839
293.926
294.01
294.093
294.173
294.252
294.33
294.405
294.478
294.55
294.62
294.688
294.754
294.819
294.882
294.943
295.003
295.061
295.117
295.172
295.225
295.276
295.326
295.375
295.422
295.468
295.512
295.555
295.597
295.637
295.676
295.714
295.751
295.786
295.82
295.854
295.886
295.917
295.947
295.976
296.004
296.031
296.057
296.082
296.106
296.13
296.152
296.174
296.195
296.215
296.235
296.254
296.272
296.289
296.306
296.322
296.337
296.352
296.366
296.38
296.393
296.406
296.418
296.429
296.44
296.451
296.461
296.471
296.48
296.489
296.498
296.506
296.513
296.521
296.528
296.534
296.541
296.546
296.552
296.557
296.562
296.567
296.571
296.575
296.579
296.582
296.585
296.588
296.59
296.593
296.595
296.596
296.598
296.599
296.6
296.6
296.601
296.601
296.601
296.601
296.601
296.601
296.601
296.601
296.601
296.601
296.601
296.601
296.601
296.601
296.601
296.601
296.602
296.602
296.604
296.607
296.611
296.616
296.621
296.627
296.633
296.639
296.645
296.651
296.657
296.663
296.669
296.676
296.682
296.689
296.696
296.703
296.711
296.718
296.725
296.733
296.741
296.748
296.756
296.764
296.772
296.781
296.789
296.797
296.805
296.814
296.822
296.831
296.839
296.848
296.857
296.865
296.874
296.883
296.891
296.9
296.909
296.917
296.926
296.935
296.943
296.952
296.96
296.969
296.977
296.986
296.994
297.002
297.011
297.019
297.027
297.035
297.042
297.05
297.058
297.065
297.073
297.08
297.087
297.094
297.1
297.107
297.113
297.12
297.126
297.133
297.139
297.145
297.151
297.156
297.159
297.161
297.162
297.161
297.161
297.161
297.16
297.16
297.159
297.159
297.158
297.158
297.158
297.159
297.161
297.164
297.174
297.175
297.175
297.177
297.18
297.182
297.185
297.189
297.192
297.196
297.2
297.204
297.208
297.212
297.216
297.22
297.224
297.228
297.232
297.236
297.24
297.243
297.247
297.251
297.255
297.258
297.263
297.266
297.27
297.273
297.278
297.281
297.285
297.288
297.293
297.296
297.301
297.303
297.308
297.311
297.316
297.319
297.324
297.327
297.332
297.335
297.341
297.344
297.349
297.352
297.358
297.361
297.367
297.37
297.376
297.379
297.386
297.389
297.395
297.399
297.405
297.409
297.416
297.419
297.426
297.43
297.437
297.441
297.448
297.452
297.46
297.464
297.472
297.476
297.484
297.488
297.497
297.501
297.51
297.514
297.523
297.528
297.537
297.542
297.551
297.556
297.566
297.571
297.581
297.586
297.597
297.602
297.613
297.618
297.629
297.635
297.647
297.652
297.664
297.67
297.683
297.689
297.702
297.708
297.721
297.728
297.741
297.748
297.762
297.769
297.783
297.79
297.805
297.812
297.827
297.835
297.85
297.858
297.874
297.882
297.898
297.906
297.923
297.931
297.949
297.957
297.975
297.984
298.002
298.011
298.029
298.039
298.058
298.067
298.086
298.096
298.116
298.126
298.146
298.156
298.177
298.187
298.209
298.219
298.241
298.251
298.273
298.284
298.306
298.317
298.34
298.351
298.374
298.385
298.408
298.42
298.443
298.455
298.478
298.49
298.513
298.525
298.549
298.561
298.584
298.596
298.62
298.632
298.655
298.667
298.69
298.702
298.725
298.736
298.759
298.771