/*--------------------------------*- C++ -*----------------------------------*\
| =========                 |                                                 |
| \\      /  F ield         | OpenFOAM: The Open Source CFD Toolbox           |
|  \\    /   O peration     | Version:  v2006                                 |
|   \\  /    A nd           | Website:  www.openfoam.com                      |
|    \\/     M anipulation  |                                                 |
\*---------------------------------------------------------------------------*/
FoamFile
{
    version     2.0;
    format      ascii;
    class       volScalarField;
    location    "0.024";
    object      rho;
}
// * * * * * * * * * * * * * * * * * * * * * * * * * * * * * * * * * * * * * //

dimensions      [1 -3 0 0 0 0 0];


internalField   nonuniform List<scalar> 
10108
(
1.71116
1.71116
1.71111
1.71118
1.71112
1.71115
1.71114
1.7112
1.71128
1.71137
1.71147
1.71158
1.71169
1.7118
1.71192
1.71204
1.71217
1.7123
1.71244
1.71259
1.71274
1.7129
1.71306
1.71322
1.71339
1.71356
1.71374
1.71391
1.7141
1.71428
1.71446
1.71465
1.71484
1.71503
1.71522
1.71541
1.7156
1.71579
1.71597
1.71616
1.71634
1.71652
1.7167
1.71687
1.71704
1.71721
1.71737
1.71753
1.71768
1.71783
1.71797
1.7181
1.71823
1.71835
1.71847
1.71858
1.71868
1.71877
1.71885
1.7189
1.71893
1.71894
1.71894
1.71894
1.71891
1.71895
1.71901
1.71909
1.71931
1.71966
1.71983
1.71968
1.71934
1.71971
1.71975
1.71967
1.71955
1.71909
1.71885
1.71938
1.71954
1.71939
1.71921
1.71865
1.71848
1.71905
1.71925
1.71914
1.71892
1.71835
1.71825
1.71882
1.71904
1.71896
1.71873
1.71817
1.7181
1.71865
1.71888
1.71882
1.71858
1.71805
1.71802
1.71852
1.71877
1.71872
1.71848
1.71799
1.71797
1.71844
1.71868
1.71866
1.71842
1.71796
1.71796
1.71839
1.71863
1.71862
1.71838
1.71797
1.71798
1.71838
1.71861
1.71861
1.71839
1.718
1.71802
1.71839
1.71862
1.71863
1.71841
1.71805
1.71808
1.71842
1.71864
1.71866
1.71845
1.71812
1.71816
1.71847
1.71868
1.71872
1.71851
1.71821
1.71825
1.71855
1.71875
1.71879
1.7186
1.71831
1.71837
1.71864
1.71883
1.71888
1.7187
1.71844
1.7185
1.71874
1.71893
1.71899
1.71881
1.71857
1.71864
1.71887
1.71905
1.71912
1.71895
1.71873
1.7188
1.71901
1.71918
1.71926
1.7191
1.7189
1.71898
1.71917
1.71933
1.71942
1.71927
1.71908
1.71917
1.71935
1.7195
1.71959
1.71945
1.71928
1.71938
1.71954
1.71968
1.71979
1.71965
1.71949
1.7196
1.71974
1.71988
1.71999
1.71986
1.71972
1.71983
1.71997
1.72009
1.72022
1.7201
1.71997
1.72009
1.72021
1.72033
1.72046
1.72035
1.72023
1.72036
1.72046
1.72058
1.72072
1.72061
1.72052
1.72065
1.72074
1.72084
1.721
1.7209
1.72082
1.72096
1.72104
1.72113
1.72129
1.72121
1.72114
1.72129
1.72135
1.72144
1.72161
1.72153
1.72148
1.72164
1.72169
1.72176
1.72195
1.72188
1.72184
1.72201
1.72204
1.72211
1.7223
1.72225
1.72222
1.7224
1.72242
1.72248
1.72268
1.72263
1.72262
1.72281
1.72282
1.72287
1.72308
1.72304
1.72304
1.72325
1.72324
1.72328
1.7235
1.72347
1.72349
1.72371
1.72368
1.72371
1.72395
1.72393
1.72396
1.72419
1.72415
1.72417
1.72442
1.72441
1.72445
1.72469
1.72464
1.72465
1.72491
1.72491
1.72497
1.72522
1.72515
1.72515
1.72542
1.72543
1.7255
1.72577
1.72568
1.72567
1.72595
1.72597
1.72606
1.72633
1.72624
1.72621
1.7265
1.72654
1.72664
1.72692
1.72681
1.72677
1.72707
1.72711
1.72723
1.72752
1.72739
1.72735
1.72765
1.72771
1.72783
1.72813
1.72799
1.72793
1.72824
1.72831
1.72845
1.72875
1.7286
1.72853
1.72884
1.72892
1.72907
1.72937
1.72921
1.72913
1.72944
1.72953
1.72969
1.72998
1.72982
1.72972
1.73003
1.73013
1.73029
1.73059
1.73041
1.73031
1.7306
1.73071
1.73089
1.73118
1.73099
1.73088
1.73116
1.73128
1.73147
1.73175
1.73155
1.73142
1.73169
1.73182
1.73203
1.73232
1.73208
1.73193
1.73219
1.73235
1.73261
1.73291
1.73262
1.73243
1.73268
1.73289
1.73319
1.73342
1.73313
1.73292
1.73313
1.73333
1.73348
1.73333
1.73342
1.73331
1.73339
1.7334
1.73321
1.73314
1.73335
1.73342
1.73343
1.73333
1.73313
1.73316
1.73331
1.73344
1.73344
1.73331
1.7332
1.73325
1.73332
1.73343
1.73341
1.73333
1.7333
1.73335
1.73334
1.73339
1.73338
1.73336
1.73339
1.73343
1.73337
1.73337
1.73336
1.73339
1.73346
1.73348
1.7334
1.73336
1.73336
1.73341
1.73349
1.7335
1.73341
1.73335
1.73335
1.73341
1.7335
1.73349
1.73341
1.73334
1.73333
1.7334
1.73348
1.73347
1.73339
1.73331
1.73329
1.73337
1.73345
1.73342
1.73335
1.73327
1.73324
1.73332
1.73339
1.73335
1.73329
1.73322
1.73319
1.73326
1.73331
1.73326
1.73322
1.73315
1.73311
1.73317
1.7332
1.73313
1.73311
1.73307
1.73302
1.73306
1.73306
1.73297
1.73298
1.73296
1.73289
1.73291
1.73289
1.73278
1.73282
1.73281
1.73274
1.73274
1.73269
1.73256
1.73262
1.73264
1.73255
1.73253
1.73246
1.73233
1.7324
1.73243
1.73233
1.7323
1.73223
1.73208
1.73215
1.73218
1.73209
1.73206
1.73199
1.73184
1.73189
1.73193
1.73195
1.73196
1.73195
1.73202
1.73207
1.73212
1.73219
1.73232
1.73245
1.73259
1.73271
1.73284
1.73296
1.73307
1.73316
1.73325
1.73332
1.73339
1.73345
1.73351
1.73351
1.73354
1.73353
1.73353
1.73383
1.73375
1.73286
1.73278
1.73403
1.73406
1.73421
1.7322
1.73085
1.73319
1.73382
1.73336
1.73361
1.73346
1.73341
1.73352
1.73364
1.7337
1.73376
1.73368
1.73355
1.73366
1.73376
1.73383
1.73389
1.73382
1.7337
1.7338
1.73389
1.73396
1.73401
1.73395
1.73384
1.73391
1.73401
1.73407
1.73412
1.73407
1.73398
1.73404
1.73413
1.73418
1.73423
1.73418
1.7341
1.73416
1.73424
1.73429
1.73433
1.73429
1.73421
1.73427
1.73434
1.73438
1.73442
1.73438
1.73432
1.73437
1.73443
1.73447
1.73451
1.73447
1.73441
1.73446
1.73452
1.73456
1.73459
1.73456
1.7345
1.73455
1.7346
1.73464
1.73466
1.73463
1.73459
1.73463
1.73467
1.7347
1.73473
1.7347
1.73466
1.7347
1.73474
1.73477
1.73479
1.73476
1.73472
1.73476
1.7348
1.73483
1.73485
1.73482
1.73478
1.73482
1.73486
1.73488
1.7349
1.73487
1.73484
1.73487
1.73491
1.73494
1.73495
1.73492
1.73488
1.73491
1.73495
1.73498
1.735
1.73497
1.73492
1.73495
1.73499
1.73503
1.73504
1.735
1.73496
1.73497
1.73502
1.73506
1.73507
1.73503
1.73497
1.73498
1.73505
1.7351
1.7351
1.73505
1.73498
1.73498
1.73507
1.73512
1.73511
1.73506
1.73497
1.73494
1.73504
1.7351
1.73507
1.735
1.73488
1.73485
1.735
1.73507
1.73513
1.73506
1.7349
1.73501
1.73519
1.73526
1.73548
1.73542
1.73526
1.73545
1.73561
1.73567
1.73589
1.73583
1.73566
1.73588
1.73605
1.73611
1.73636
1.73631
1.73613
1.73635
1.73655
1.7366
1.73686
1.7368
1.73657
1.73672
1.73704
1.73711
1.73741
1.73734
1.73689
1.737
1.73767
1.73775
1.7381
1.73807
1.73702
1.73702
1.73869
1.73852
1.73875
1.73957
1.73706
1.7329
1.74288
1.73865
1.73893
1.73871
1.73977
1.7393
1.73946
1.73944
1.73977
1.73979
1.7398
1.74018
1.74022
1.74019
1.74064
1.74067
1.74069
1.74128
1.74116
1.74116
1.74167
1.74158
1.742
1.74358
1.74074
1.7426
1.74272
1.74288
1.74264
1.74335
1.74344
1.74337
1.74402
1.74416
1.74376
1.74432
1.74493
1.74461
1.74565
1.74729
1.74292
1.74695
1.74643
1.74595
1.74597
1.74675
1.74717
1.74919
1.74819
1.747
1.74636
1.74786
1.74906
1.74969
1.74706
1.74562
1.73872
1.74301
1.74787
1.71122
1.71553
1.71768
1.70263
1.69926
1.69157
1.68594
1.69284
1.69688
1.69723
1.69481
1.69198
1.69359
1.69596
1.69775
1.69743
1.69604
1.69438
1.69796
1.69957
1.70046
1.70142
1.70015
1.69971
1.69551
1.70287
1.70031
1.70342
1.7033
1.70135
1.70124
1.70394
1.70414
1.70405
1.70074
1.7045
1.70499
1.70487
1.70578
1.70603
1.7051
1.70566
1.70406
1.70665
1.70543
1.70755
1.70745
1.70677
1.70659
1.70759
1.70774
1.70748
1.70607
1.7079
1.70885
1.70873
1.70905
1.70891
1.70857
1.70872
1.70845
1.70861
1.70874
1.71014
1.71004
1.70983
1.70958
1.70984
1.71009
1.7099
1.70963
1.70959
1.71072
1.71104
1.71109
1.71096
1.7107
1.7104
1.71027
1.71036
1.71066
1.71177
1.71169
1.71131
1.71113
1.71142
1.71168
1.71128
1.71098
1.71091
1.71197
1.71234
1.71241
1.7122
1.71194
1.71169
1.7115
1.71177
1.71191
1.71289
1.71268
1.71257
1.71113
1.71286
1.71258
1.71353
1.70795
1.71591
1.71288
1.71331
1.71299
1.71256
1.71199
1.71288
1.71339
1.71333
1.71347
1.7132
1.71297
1.71322
1.71231
1.71269
1.71258
1.71355
1.71337
1.71325
1.71216
1.71374
1.71333
1.71397
1.70833
1.71655
1.71322
1.71366
1.71331
1.71289
1.71236
1.71328
1.71403
1.71381
1.71388
1.71349
1.7132
1.71339
1.71253
1.7126
1.71265
1.71361
1.71353
1.7132
1.71295
1.713
1.71313
1.71373
1.71372
1.71335
1.71264
1.71304
1.71331
1.71243
1.71205
1.71195
1.71315
1.71352
1.71357
1.713
1.71271
1.71255
1.71285
1.71333
1.71339
1.71292
1.71262
1.7122
1.71163
1.71183
1.71208
1.71316
1.71318
1.71283
1.71188
1.71217
1.71244
1.71278
1.71272
1.71221
1.71155
1.71202
1.7123
1.7115
1.71123
1.71111
1.71204
1.71242
1.71243
1.71167
1.7114
1.7111
1.71137
1.71206
1.71205
1.7111
1.71078
1.71153
1.70565
1.71492
1.71056
1.71273
1.71036
1.71128
1.70891
1.71122
1.71104
1.71135
1.71118
1.71017
1.70904
1.71002
1.71044
1.71087
1.71079
1.71007
1.70883
1.71072
1.71045
1.7105
1.70498
1.71355
1.70856
1.71239
1.70881
1.70891
1.70865
1.70957
1.70917
1.70941
1.70922
1.70865
1.7087
1.70874
1.70905
1.70906
1.70906
1.70846
1.70865
1.70726
1.7119
1.703
1.70845
1.70644
1.71131
1.70653
1.70811
1.70675
1.70697
1.70727
1.70796
1.70769
1.70686
1.70663
1.70664
1.70691
1.70697
1.70663
1.70576
1.70597
1.70607
1.70642
1.70633
1.70611
1.70431
1.70603
1.7057
1.70617
1.70043
1.70986
1.70386
1.70953
1.70367
1.70447
1.70397
1.70563
1.70444
1.70495
1.70423
1.70369
1.70365
1.70384
1.70375
1.70407
1.70404
1.70337
1.70334
1.70318
1.70323
1.70349
1.70346
1.70292
1.70269
1.70128
1.70589
1.69755
1.70241
1.70045
1.70543
1.7003
1.70198
1.70069
1.70088
1.70112
1.70173
1.70131
1.70071
1.70049
1.70047
1.70052
1.70064
1.70007
1.69912
1.69927
1.69944
1.69977
1.69978
1.69909
1.69819
1.69863
1.69886
1.69895
1.69891
1.69836
1.69671
1.69815
1.69842
1.69767
1.69336
1.70051
1.69587
1.70034
1.69601
1.6963
1.69583
1.69709
1.69599
1.69673
1.6961
1.69529
1.69512
1.69523
1.69488
1.69566
1.69555
1.69455
1.69436
1.69416
1.69412
1.6949
1.6948
1.69366
1.69342
1.69293
1.69307
1.69391
1.69385
1.69282
1.6923
1.69203
1.68868
1.69314
1.69126
1.69308
1.68958
1.69258
1.69004
1.69086
1.69106
1.69149
1.69074
1.69048
1.68883
1.68955
1.69004
1.68999
1.68967
1.68891
1.68718
1.6882
1.68856
1.68894
1.68883
1.68786
1.68658
1.68749
1.68785
1.68774
1.68769
1.68687
1.68464
1.68663
1.68706
1.68596
1.68119
1.68842
1.68372
1.68912
1.68418
1.6845
1.68397
1.68514
1.68375
1.68487
1.68414
1.68318
1.68279
1.68284
1.68225
1.68347
1.68305
1.68181
1.68132
1.68101
1.68082
1.68201
1.68181
1.68047
1.68011
1.67953
1.6797
1.6808
1.68071
1.67948
1.67871
1.67883
1.67285
1.68163
1.67729
1.68055
1.67427
1.67991
1.67485
1.67735
1.67704
1.67743
1.67652
1.67597
1.6738
1.67503
1.67567
1.67585
1.67545
1.67446
1.67224
1.67365
1.67414
1.67413
1.674
1.6729
1.67078
1.67201
1.67258
1.67234
1.67229
1.67101
1.6693
1.66992
1.67109
1.66848
1.67106
1.66453
1.67027
1.66642
1.67131
1.66825
1.66876
1.66617
1.66769
1.668
1.66889
1.66693
1.66643
1.66499
1.66491
1.666
1.66635
1.66427
1.66361
1.66207
1.66252
1.6639
1.66427
1.66256
1.66195
1.66062
1.66124
1.66267
1.66271
1.6615
1.66083
1.65962
1.6568
1.65826
1.65861
1.65955
1.65844
1.65885
1.65601
1.65717
1.65764
1.65693
1.65634
1.65462
1.65206
1.6536
1.65458
1.65521
1.65498
1.6533
1.65171
1.65299
1.65371
1.65347
1.65337
1.65179
1.64961
1.65127
1.65193
1.64882
1.64733
1.64731
1.64692
1.64998
1.64849
1.64687
1.64564
1.64476
1.6449
1.64721
1.64679
1.64492
1.644
1.64309
1.64308
1.6451
1.64489
1.6429
1.64215
1.64112
1.64057
1.64228
1.64243
1.64064
1.63993
1.63857
1.63324
1.63549
1.63626
1.63713
1.63593
1.6347
1.63219
1.63412
1.63494
1.63539
1.63492
1.63313
1.6305
1.63253
1.63318
1.63262
1.63234
1.63046
1.62742
1.62964
1.6304
1.626
1.62476
1.62372
1.62249
1.62512
1.62599
1.62332
1.62185
1.61972
1.62161
1.62403
1.62428
1.62244
1.62143
1.61961
1.61896
1.62117
1.62138
1.61885
1.61787
1.61563
1.6117
1.61308
1.61413
1.61349
1.61237
1.6095
1.60644
1.60877
1.6106
1.61115
1.61081
1.60801
1.60752
1.60875
1.61049
1.60538
1.60802
1.6006
1.60439
1.60482
1.60607
1.60241
1.60218
1.59859
1.59461
1.59845
1.59973
1.59709
1.59503
1.59084
1.58895
1.58949
1.59259
1.59348
1.5952
1.59096
1.58934
1.59035
1.5919
1.58988
1.5899
1.58694
1.58281
1.58474
1.58666
1.57785
1.57797
1.57
1.5748
1.57818
1.57924
1.57665
1.57594
1.57219
1.57266
1.57595
1.5765
1.57425
1.5731
1.56925
1.5637
1.56367
1.5672
1.5632
1.56075
1.55663
1.55236
1.55544
1.55875
1.55963
1.55866
1.55491
1.55352
1.55621
1.55842
1.55235
1.55136
1.54887
1.54677
1.54913
1.54961
1.54356
1.54038
1.5339
1.52758
1.53202
1.53572
1.53698
1.53609
1.5318
1.53209
1.53345
1.53633
1.5292
1.53278
1.52217
1.51864
1.52371
1.5249
1.51719
1.51358
1.50399
1.49964
1.50584
1.50911
1.51051
1.50841
1.50582
1.49997
1.51031
1.50756
1.50328
1.49131
1.4943
1.47886
1.48817
1.49303
1.48807
1.48296
1.47591
1.47198
1.47592
1.48054
1.47725
1.47582
1.47295
1.44979
1.46313
1.46906
1.45988
1.45466
1.44451
1.4429
1.44966
1.45304
1.4508
1.44893
1.44516
1.41985
1.43677
1.44282
1.43492
1.42978
1.41787
1.41937
1.42712
1.43008
1.41581
1.40725
1.39304
1.40075
1.41169
1.41726
1.41807
1.41159
1.39826
1.38542
1.40537
1.41401
1.41097
1.40421
1.38615
1.38213
1.40277
1.41024
1.41144
1.40436
1.38387
1.40076
1.41748
1.42359
1.44468
1.43838
1.42323
1.4382
1.45179
1.45898
1.46707
1.45867
1.44571
1.45295
1.46457
1.47334
1.47881
1.46931
1.4585
1.46442
1.47403
1.48342
1.4872
1.4774
1.46874
1.4732
1.48094
1.4903
1.49302
1.48352
1.47673
1.4804
1.48652
1.49544
1.49765
1.48879
1.4835
1.48664
1.49142
1.49966
1.50152
1.49353
1.4894
1.49207
1.4958
1.5032
1.50477
1.49772
1.49447
1.49675
1.49968
1.50619
1.50757
1.50146
1.49888
1.50083
1.50318
1.50883
1.51011
1.50482
1.50272
1.50444
1.50634
1.51123
1.51246
1.50787
1.50616
1.50769
1.50924
1.51347
1.51468
1.51065
1.50929
1.51065
1.51188
1.51558
1.51677
1.51321
1.51212
1.51336
1.51434
1.51762
1.5188
1.51561
1.5147
1.51582
1.51666
1.51959
1.52075
1.51785
1.51706
1.51808
1.51883
1.52153
1.52262
1.51995
1.51923
1.52016
1.52086
1.52339
1.52443
1.52192
1.52123
1.52207
1.52278
1.52517
1.52613
1.52377
1.52307
1.52386
1.52458
1.52684
1.52774
1.52551
1.52479
1.52553
1.52626
1.52841
1.52926
1.52716
1.5264
1.52708
1.52786
1.5299
1.53068
1.52869
1.52789
1.52854
1.52934
1.53129
1.53203
1.53014
1.52931
1.52992
1.53077
1.53259
1.53329
1.5315
1.53063
1.53122
1.53209
1.53379
1.53448
1.53278
1.53189
1.53245
1.53333
1.53493
1.53559
1.53398
1.53307
1.5336
1.5345
1.53601
1.53663
1.53511
1.5342
1.5347
1.5356
1.53703
1.53758
1.53616
1.53525
1.53573
1.53663
1.53797
1.53849
1.53717
1.53626
1.53671
1.5376
1.53885
1.53934
1.53809
1.5372
1.53763
1.5385
1.53968
1.54013
1.53897
1.5381
1.5385
1.53935
1.54044
1.54087
1.53978
1.53894
1.53932
1.54014
1.54116
1.54156
1.54055
1.53973
1.5401
1.54089
1.54184
1.54221
1.54126
1.54048
1.54082
1.54158
1.54247
1.54282
1.54193
1.54118
1.54151
1.54223
1.54306
1.5434
1.54257
1.54184
1.54214
1.54284
1.54361
1.54393
1.54315
1.54246
1.54275
1.54341
1.54413
1.54443
1.5437
1.54304
1.54331
1.54394
1.54462
1.5449
1.54421
1.54358
1.54384
1.54444
1.54508
1.54534
1.54469
1.54409
1.54432
1.5449
1.54551
1.54576
1.54514
1.54456
1.54478
1.54534
1.54591
1.54614
1.54555
1.54501
1.54521
1.54574
1.54629
1.54651
1.54595
1.54542
1.54561
1.54612
1.54665
1.54685
1.54631
1.5458
1.54598
1.54647
1.54698
1.54717
1.54665
1.54616
1.54633
1.54681
1.54729
1.54747
1.54697
1.5465
1.54665
1.54712
1.54759
1.54775
1.54727
1.54681
1.54695
1.54741
1.54787
1.54802
1.54755
1.5471
1.54723
1.54768
1.54813
1.54827
1.54781
1.54738
1.5475
1.54794
1.54837
1.54851
1.54805
1.54764
1.54775
1.54817
1.5486
1.54872
1.54829
1.54788
1.54798
1.5484
1.54882
1.54893
1.5485
1.5481
1.5482
1.54861
1.54902
1.54913
1.54871
1.54832
1.54841
1.54881
1.54921
1.54931
1.5489
1.54851
1.5486
1.549
1.54939
1.54948
1.54908
1.5487
1.54878
1.54917
1.54956
1.54965
1.54925
1.54888
1.54895
1.54934
1.54972
1.5498
1.54941
1.54904
1.54912
1.54949
1.54987
1.54995
1.54956
1.5492
1.54927
1.54964
1.55001
1.55008
1.5497
1.54934
1.54941
1.54978
1.55014
1.55021
1.54983
1.54948
1.54954
1.54991
1.55027
1.55033
1.54996
1.54961
1.54967
1.55003
1.55039
1.55044
1.55008
1.54974
1.54979
1.55014
1.5505
1.55055
1.55019
1.54985
1.5499
1.55025
1.5506
1.55065
1.55029
1.54996
1.55001
1.55036
1.5507
1.55074
1.55039
1.55006
1.55011
1.55045
1.55079
1.55084
1.55049
1.55016
1.5502
1.55054
1.55088
1.55092
1.55057
1.55025
1.55029
1.55063
1.55096
1.551
1.55066
1.55033
1.55037
1.55071
1.55104
1.55107
1.55073
1.55042
1.55045
1.55078
1.55111
1.55114
1.5508
1.55049
1.55052
1.55085
1.55118
1.5512
1.55087
1.55056
1.55059
1.55092
1.55124
1.55127
1.55093
1.55063
1.55066
1.55098
1.5513
1.55132
1.55099
1.55069
1.55072
1.55103
1.55136
1.55138
1.55105
1.55075
1.55077
1.55109
1.55141
1.55142
1.5511
1.5508
1.55083
1.55114
1.55146
1.55147
1.55115
1.55085
1.55088
1.55118
1.5515
1.55151
1.55119
1.5509
1.55092
1.55123
1.55154
1.55156
1.55124
1.55095
1.55097
1.55127
1.55159
1.55159
1.55128
1.55099
1.55101
1.55131
1.55162
1.55163
1.55131
1.55103
1.55105
1.55135
1.55166
1.55166
1.55135
1.55107
1.55108
1.55138
1.55169
1.55169
1.55138
1.5511
1.55112
1.55141
1.55172
1.55172
1.55141
1.55113
1.55115
1.55144
1.55175
1.55175
1.55144
1.55116
1.55118
1.55147
1.55177
1.55176
1.55146
1.55119
1.5512
1.55149
1.55179
1.55179
1.55148
1.55121
1.55122
1.55151
1.55181
1.5518
1.5515
1.55123
1.55124
1.55152
1.55182
1.55181
1.55151
1.55124
1.55125
1.55153
1.55183
1.55182
1.55152
1.55125
1.55126
1.55154
1.55183
1.55182
1.55153
1.55126
1.55126
1.55154
1.55183
1.55182
1.55153
1.55126
1.55126
1.55154
1.55183
1.55182
1.55152
1.55126
1.55126
1.55153
1.55183
1.5518
1.55152
1.55125
1.55125
1.55153
1.55182
1.5518
1.55151
1.55125
1.55124
1.55152
1.55181
1.55179
1.5515
1.55124
1.55124
1.55151
1.5518
1.55178
1.55149
1.55123
1.55123
1.5515
1.55179
1.55177
1.55148
1.55123
1.55122
1.55149
1.55178
1.55177
1.55147
1.55121
1.5512
1.55148
1.55177
1.55178
1.55147
1.55122
1.5512
1.55149
1.55178
1.5518
1.5515
1.55123
1.55121
1.5515
1.5518
1.55185
1.55152
1.55122
1.55128
1.55159
1.55192
1.55246
1.55193
1.55161
1.55257
1.55285
1.55336
1.55358
1.5532
1.55305
1.55426
1.55771
1.55871
1.55887
1.56203
1.56415
1.56471
1.56515
1.56663
1.56765
1.5687
1.56936
1.56995
1.57045
1.57083
1.57112
1.57133
1.57148
1.57159
1.57166
1.57171
1.57174
1.57176
1.57177
1.57178
1.57177
1.57177
1.57176
1.57174
1.57173
1.57171
1.57171
1.57178
1.57182
1.57188
1.57194
1.57202
1.57212
1.57223
1.57236
1.57252
1.57271
1.57292
1.57316
1.57341
1.57366
1.57386
1.57398
1.57405
1.57409
1.57418
1.57428
1.57441
1.57456
1.57471
1.57487
1.57504
1.57523
1.57543
1.57566
1.57592
1.57622
1.57656
1.57695
1.57739
1.5779
1.57848
1.57914
1.57988
1.58072
1.58166
1.58271
1.58389
1.58519
1.58663
1.58821
1.58994
1.59183
1.59386
1.59605
1.59838
1.60086
1.60346
1.60619
1.60903
1.61195
1.61496
1.61802
1.62113
1.62426
1.6274
1.63053
1.63365
1.63673
1.63977
1.64275
1.64567
1.64852
1.65129
1.65398
1.65659
1.65911
1.66154
1.66388
1.66614
1.6683
1.67038
1.67237
1.67427
1.6761
1.67784
1.67951
1.6811
1.68262
1.68407
1.68545
1.68677
1.68803
1.68923
1.69038
1.69147
1.69251
1.6935
1.69444
1.69534
1.6962
1.69702
1.6978
1.69854
1.69925
1.69993
1.70057
1.70118
1.70177
1.70233
1.70286
1.70336
1.70385
1.70431
1.70474
1.70516
1.70556
1.70594
1.70629
1.70664
1.70696
1.70727
1.70756
1.70784
1.7081
1.70835
1.70859
1.70882
1.70903
1.70922
1.70941
1.70958
1.70974
1.70989
1.71003
1.71015
1.71027
1.71038
1.71049
1.71062
1.71079
1.711
1.71111
1.71115
1.71116
1.71113
1.71116
1.71131
1.71148
1.71157
1.71164
1.71172
1.7118
1.71189
1.71198
1.71207
1.71218
1.71229
1.71241
1.71253
1.71266
1.7128
1.71295
1.7131
1.71325
1.71341
1.71358
1.71375
1.71393
1.7141
1.71428
1.71447
1.71465
1.71483
1.71502
1.7152
1.71539
1.71558
1.71576
1.71594
1.71612
1.7163
1.71648
1.71665
1.71682
1.71699
1.71715
1.7173
1.71745
1.71759
1.71773
1.71786
1.71799
1.7181
1.71821
1.71832
1.71842
1.71851
1.71861
1.7187
1.71879
1.71883
1.71886
1.71893
1.7191
1.71927
1.71933
1.71935
1.71926
1.71918
1.71911
1.71905
1.719
1.71896
1.71892
1.71889
1.71887
1.71885
1.71884
1.71883
1.71884
1.71884
1.71885
1.71887
1.71889
1.71891
1.71894
1.71898
1.71901
1.71906
1.7191
1.71915
1.71921
1.71927
1.71933
1.71939
1.71947
1.71954
1.71962
1.7197
1.71979
1.71988
1.71997
1.72007
1.72018
1.72028
1.72039
1.72051
1.72063
1.72075
1.72088
1.72101
1.72115
1.72129
1.72144
1.72159
1.72175
1.72191
1.72208
1.72225
1.72243
1.7226
1.7228
1.72298
1.72319
1.72338
1.7236
1.72381
1.72403
1.72425
1.72449
1.72472
1.72496
1.7252
1.72546
1.72571
1.72598
1.72624
1.72652
1.72679
1.72707
1.72735
1.72764
1.72792
1.72822
1.7285
1.7288
1.72908
1.72938
1.72966
1.72996
1.73023
1.73052
1.73078
1.73105
1.7313
1.73156
1.73179
1.73203
1.73225
1.73247
1.73268
1.73289
1.73308
1.73325
1.73338
1.73349
1.73357
1.73362
1.73362
1.7336
1.73356
1.73351
1.73345
1.73341
1.73337
1.73334
1.73332
1.7333
1.73327
1.73324
1.73321
1.73318
1.73314
1.73311
1.73308
1.73305
1.73302
1.73299
1.73295
1.73291
1.73287
1.73282
1.73276
1.7327
1.73262
1.73254
1.73244
1.73235
1.73221
1.73211
1.73211
1.73208
1.73219
1.7322
1.73232
1.73231
1.73237
1.7324
1.73246
1.73237
1.73231
1.73229
1.73224
1.73214
1.73212
1.73215
1.7322
1.73243
1.73235
1.73223
1.73224
1.73229
1.73239
1.73252
1.73268
1.73243
1.73244
1.73252
1.73256
1.73247
1.73253
1.73262
1.73265
1.73255
1.73253
1.73265
1.73262
1.7327
1.73273
1.73263
1.73271
1.73277
1.73281
1.73274
1.73278
1.73296
1.73283
1.73285
1.7329
1.73287
1.73298
1.73295
1.73301
1.73304
1.73317
1.73342
1.73318
1.73307
1.73315
1.73324
1.73338
1.73322
1.73328
1.73342
1.73368
1.73388
1.73357
1.73335
1.7334
1.73358
1.73372
1.73347
1.73351
1.7337
1.734
1.73405
1.73382
1.73358
1.73361
1.7338
1.7339
1.73368
1.73371
1.73386
1.73406
1.734
1.73391
1.73375
1.73375
1.73382
1.7338
1.73372
1.73365
1.73368
1.73386
1.73365
1.7336
1.73355
1.73343
1.73344
1.73333
1.73328
1.73313
1.73315
1.73339
1.7331
1.73302
1.73296
1.73279
1.73283
1.73268
1.73259
1.73242
1.73247
1.73277
1.73238
1.73231
1.7322
1.732
1.73207
1.73189
1.73176
1.73155
1.73163
1.73195
1.73148
1.73142
1.73129
1.73105
1.73114
1.73092
1.73078
1.73053
1.73062
1.73097
1.73044
1.7304
1.73024
1.72998
1.73008
1.72985
1.72968
1.72941
1.72952
1.72989
1.72932
1.72929
1.72911
1.72884
1.72895
1.72872
1.72854
1.72827
1.72839
1.72876
1.72819
1.72816
1.72797
1.7277
1.72782
1.7276
1.72741
1.72714
1.72727
1.72764
1.7271
1.72705
1.72686
1.7266
1.72672
1.72652
1.72632
1.72607
1.7262
1.72657
1.72605
1.726
1.7258
1.72556
1.72569
1.7255
1.7253
1.72507
1.7252
1.72556
1.72508
1.72502
1.72482
1.72459
1.72473
1.72456
1.72437
1.72414
1.72428
1.72463
1.72419
1.72412
1.72393
1.72372
1.72385
1.7237
1.72351
1.72331
1.72344
1.72378
1.72339
1.7233
1.72312
1.72292
1.72306
1.72292
1.72274
1.72256
1.72269
1.72301
1.72266
1.72257
1.72239
1.72221
1.72234
1.72223
1.72205
1.72189
1.72202
1.72232
1.72201
1.72191
1.72174
1.72158
1.72171
1.72161
1.72144
1.72129
1.72142
1.72171
1.72143
1.72133
1.72116
1.72103
1.72115
1.72107
1.72091
1.72078
1.7209
1.72117
1.72093
1.72082
1.72066
1.72054
1.72067
1.72059
1.72044
1.72032
1.72045
1.7207
1.72049
1.72038
1.72023
1.72012
1.72024
1.72018
1.72004
1.71994
1.72005
1.72029
1.7201
1.72
1.71986
1.71977
1.71988
1.71983
1.7197
1.71961
1.71972
1.71994
1.71978
1.71968
1.71955
1.71947
1.71958
1.71954
1.71942
1.71935
1.71945
1.71964
1.71952
1.71942
1.7193
1.71924
1.71934
1.71932
1.7192
1.71915
1.71924
1.71941
1.71931
1.71922
1.71912
1.71907
1.71916
1.71915
1.71905
1.71902
1.7191
1.71923
1.71917
1.71909
1.719
1.71897
1.71905
1.71904
1.71896
1.71895
1.71901
1.71911
1.71907
1.71901
1.71895
1.71894
1.719
1.719
1.71895
1.71896
1.719
1.71906
1.71907
1.71902
1.71898
1.719
1.71903
1.71906
1.71903
1.71906
1.71908
1.71908
1.71911
1.71911
1.7191
1.71915
1.71915
1.71919
1.71921
1.71927
1.71924
1.71912
1.71897
1.71904
1.71908
1.71909
1.71911
1.71915
1.71919
1.71925
1.71933
1.71942
1.71952
1.71964
1.71977
1.71991
1.72007
1.72024
1.72043
1.72063
1.72084
1.72107
1.72132
1.72158
1.72186
1.72215
1.72247
1.7228
1.72315
1.72352
1.72391
1.72432
1.72474
1.72519
1.72566
1.72615
1.72665
1.72718
1.72772
1.72827
1.72883
1.7294
1.72998
1.73054
1.7311
1.73163
1.73213
1.73259
1.73299
1.73333
1.73361
1.73386
1.73405
1.73417
1.73424
1.73426
1.73425
1.73418
1.73406
1.73388
1.73367
1.73345
1.73324
1.73304
1.73285
1.73324
1.73303
1.73281
1.73264
1.73254
1.73242
1.73251
1.73259
1.73268
1.73292
1.7328
1.73269
1.73279
1.73288
1.73297
1.73312
1.73335
1.73361
1.73338
1.73317
1.73305
1.73294
1.73304
1.73313
1.73322
1.73339
1.73327
1.73316
1.73325
1.73334
1.73344
1.7336
1.73383
1.73404
1.73383
1.73357
1.73378
1.73346
1.73366
1.73386
1.73415
1.73397
1.7342
1.73402
1.73422
1.73438
1.73451
1.73435
1.73449
1.7343
1.73405
1.73421
1.73443
1.73454
1.73433
1.73442
1.73463
1.73483
1.73472
1.73461
1.73476
1.73464
1.73478
1.73466
1.73453
1.73439
1.73421
1.73402
1.73379
1.73357
1.73346
1.73335
1.73342
1.73353
1.73363
1.73374
1.73362
1.7335
1.73357
1.73369
1.7338
1.73397
1.73419
1.73423
1.73415
1.73402
1.73389
1.73377
1.73364
1.73368
1.73358
1.73356
1.73349
1.73336
1.73357
1.73366
1.73372
1.73367
1.73377
1.73381
1.73382
1.73395
1.73393
1.73387
1.73384
1.7339
1.73396
1.73399
1.73405
1.73407
1.73418
1.73428
1.73438
1.73435
1.73442
1.73438
1.73454
1.73467
1.73479
1.73484
1.7348
1.73472
1.73467
1.73458
1.73452
1.73455
1.73446
1.73445
1.7344
1.73436
1.7343
1.73426
1.7342
1.73416
1.7341
1.73407
1.73402
1.73413
1.73418
1.73424
1.73428
1.73434
1.73438
1.73443
1.73447
1.73448
1.73454
1.73456
1.73455
1.73452
1.7346
1.73461
1.73462
1.7347
1.73469
1.73464
1.73462
1.73467
1.73469
1.73471
1.73475
1.73476
1.73483
1.73489
1.73495
1.73491
1.73494
1.73491
1.73501
1.7349
1.73502
1.73488
1.735
1.73515
1.73493
1.73471
1.73449
1.73453
1.73478
1.73483
1.73452
1.73447
1.73482
1.73527
1.73519
1.73505
1.73534
1.7356
1.73584
1.73655
1.73608
1.73569
1.7354
1.73518
1.73529
1.73513
1.73513
1.73511
1.73504
1.73501
1.73505
1.73499
1.73498
1.73494
1.73493
1.73489
1.73487
1.73483
1.73481
1.73477
1.73476
1.73474
1.7348
1.73482
1.73486
1.73488
1.73491
1.73493
1.73497
1.73498
1.735
1.73503
1.73504
1.73503
1.73502
1.73506
1.73507
1.73509
1.73514
1.73512
1.73509
1.73508
1.7351
1.73512
1.73513
1.73515
1.73517
1.73522
1.7352
1.73524
1.7354
1.73538
1.73526
1.7352
1.7352
1.73519
1.73517
1.73515
1.73514
1.73517
1.73517
1.73516
1.73515
1.73522
1.73524
1.73533
1.73523
1.73517
1.73537
1.73541
1.73558
1.73554
1.73558
1.736
1.73656
1.73726
1.7376
1.73719
1.73677
1.73647
1.73608
1.73585
1.73588
1.73623
1.73662
1.73656
1.73639
1.73613
1.73597
1.73574
1.73562
1.73555
1.73573
1.73595
1.73615
1.7364
1.73663
1.73688
1.73683
1.73703
1.73705
1.7375
1.73799
1.73844
1.73798
1.73833
1.73767
1.73669
1.73587
1.73526
1.73478
1.73439
1.73423
1.73467
1.73443
1.734
1.7337
1.73406
1.7344
1.73491
1.7352
1.73582
1.73545
1.73478
1.73401
1.73379
1.73357
1.73332
1.73285
1.73301
1.73241
1.73233
1.73177
1.73178
1.73173
1.73243
1.73312
1.7332
1.7324
1.73161
1.73085
1.73104
1.73115
1.73118
1.73059
1.73052
1.72989
1.72999
1.7294
1.72928
1.72908
1.72971
1.73037
1.73014
1.72945
1.72881
1.7282
1.72848
1.72868
1.72882
1.72825
1.72811
1.72755
1.7277
1.72716
1.72702
1.72681
1.72734
1.7279
1.72762
1.72706
1.72654
1.72621
1.72672
1.72726
1.72783
1.72844
1.72909
1.7298
1.73055
1.73138
1.73227
1.73321
1.73424
1.73527
1.73619
1.73659
1.73759
1.73749
1.73599
1.73668
1.73932
1.73822
1.73851
1.73844
1.7393
1.7389
1.73918
1.73891
1.73861
1.73835
1.73808
1.73784
1.73752
1.73732
1.7374
1.73712
1.73768
1.73799
1.73828
1.73852
1.73882
1.73914
1.73933
1.73896
1.73876
1.73967
1.73946
1.73978
1.73945
1.73971
1.73983
1.74039
1.74012
1.74049
1.74006
1.74095
1.74128
1.7407
1.7401
1.73998
1.74066
1.74153
1.74022
1.7412
1.74178
1.74239
1.74194
1.74299
1.74229
1.74254
1.74348
1.74355
1.74301
1.74177
1.74067
1.74292
1.74278
1.7438
1.74383
1.74314
1.74187
1.74129
1.73945
1.73641
1.73389
1.73714
1.7391
1.74039
1.74196
1.74228
1.74377
1.74499
1.74489
1.74479
1.74694
1.74313
1.74109
1.7404
1.73739
1.73311
1.73511
1.74131
1.74308
1.73783
1.73479
1.72898
1.72392
1.71131
1.7197
1.72949
1.72663
1.72131
1.71648
1.70879
1.7017
1.70514
1.70148
1.7005
1.7037
1.70313
1.70289
1.70482
1.70503
1.7051
1.70632
1.70674
1.7068
1.7078
1.70823
1.70826
1.70895
1.70935
1.7094
1.71001
1.7104
1.71042
1.71086
1.71119
1.71116
1.71158
1.71189
1.71181
1.71213
1.7124
1.71231
1.71265
1.71269
1.7129
1.71297
1.7129
1.71314
1.71336
1.71311
1.71335
1.71334
1.71341
1.71344
1.71335
1.71346
1.71352
1.71322
1.71339
1.71336
1.7133
1.71333
1.71304
1.71312
1.71312
1.71301
1.71296
1.71264
1.71265
1.71256
1.71238
1.71232
1.71199
1.71194
1.7118
1.71166
1.71142
1.71111
1.71097
1.71095
1.71062
1.71047
1.71019
1.71016
1.71011
1.7097
1.7093
1.70917
1.70889
1.70862
1.70832
1.70814
1.70784
1.70749
1.70724
1.70683
1.70659
1.70623
1.70599
1.70566
1.70558
1.70514
1.70474
1.70448
1.70392
1.70374
1.70347
1.703
1.70265
1.70233
1.70199
1.70153
1.70117
1.70067
1.70025
1.69974
1.69934
1.699
1.69846
1.69815
1.69781
1.69732
1.69671
1.69642
1.69576
1.69537
1.69481
1.69432
1.69385
1.69323
1.69275
1.69179
1.69152
1.69114
1.69047
1.69001
1.68934
1.68884
1.68821
1.68785
1.68713
1.68664
1.68619
1.68556
1.68493
1.68433
1.68363
1.68299
1.68215
1.68165
1.68082
1.68025
1.67956
1.67823
1.67783
1.67721
1.67644
1.67574
1.67484
1.67423
1.67327
1.67265
1.67165
1.671
1.66955
1.66917
1.66842
1.66762
1.66674
1.66567
1.66463
1.66384
1.66293
1.66205
1.66115
1.65944
1.65876
1.65777
1.6567
1.65535
1.6548
1.65386
1.65285
1.65153
1.64979
1.64916
1.64774
1.64706
1.64567
1.64466
1.64331
1.64202
1.64033
1.63777
1.63744
1.6357
1.635
1.63343
1.63203
1.63003
1.62736
1.62686
1.6246
1.62426
1.6224
1.62098
1.61857
1.61541
1.61473
1.61201
1.61197
1.60988
1.607
1.60572
1.60272
1.60156
1.59785
1.59505
1.59446
1.59206
1.59034
1.58645
1.58127
1.58133
1.57811
1.57717
1.57376
1.56796
1.5671
1.56164
1.56221
1.55871
1.55362
1.55227
1.54585
1.53968
1.54085
1.53641
1.53067
1.52903
1.52089
1.51356
1.51544
1.50956
1.50115
1.50168
1.4918
1.48394
1.48597
1.47539
1.46652
1.45817
1.46317
1.45237
1.44444
1.43764
1.42749
1.43813
1.43007
1.42635
1.42555
1.42534
1.42798
1.43611
1.45301
1.46589
1.47497
1.48131
1.48772
1.49219
1.49703
1.50006
1.50397
1.50622
1.50965
1.51139
1.51447
1.51571
1.51838
1.51924
1.52165
1.5222
1.52433
1.52467
1.52664
1.52681
1.5286
1.52865
1.53033
1.53026
1.53183
1.53167
1.53316
1.53294
1.53434
1.53409
1.53541
1.53513
1.53636
1.53608
1.53722
1.53694
1.538
1.53775
1.53872
1.53849
1.53938
1.53921
1.54002
1.53985
1.54063
1.54047
1.5412
1.54104
1.54176
1.54161
1.54224
1.54215
1.54274
1.54269
1.5432