/*--------------------------------*- C++ -*----------------------------------*\
| =========                 |                                                 |
| \\      /  F ield         | OpenFOAM: The Open Source CFD Toolbox           |
|  \\    /   O peration     | Version:  v2006                                 |
|   \\  /    A nd           | Website:  www.openfoam.com                      |
|    \\/     M anipulation  |                                                 |
\*---------------------------------------------------------------------------*/
FoamFile
{
    version     2.0;
    format      ascii;
    class       volScalarField;
    location    "0.06";
    object      rho;
}
// * * * * * * * * * * * * * * * * * * * * * * * * * * * * * * * * * * * * * //

dimensions      [1 -3 0 0 0 0 0];


internalField   nonuniform List<scalar> 
24416
(
1.69361
1.69362
1.69362
1.69361
1.69361
1.69361
1.69361
1.69361
1.69361
1.69361
1.69361
1.69362
1.69365
1.6937
1.69376
1.69384
1.69391
1.694
1.69408
1.69416
1.69425
1.69433
1.69441
1.6945
1.69458
1.69467
1.69476
1.69485
1.69494
1.69504
1.69514
1.69523
1.69533
1.69544
1.69554
1.69564
1.69575
1.69586
1.69597
1.69607
1.69619
1.6963
1.69641
1.69652
1.69664
1.69675
1.69687
1.69699
1.6971
1.69722
1.69734
1.69746
1.69757
1.69769
1.69781
1.69793
1.69805
1.69816
1.69828
1.6984
1.69851
1.69863
1.69874
1.69886
1.69897
1.69908
1.69919
1.6993
1.69941
1.69952
1.69962
1.69973
1.69983
1.69993
1.70003
1.70013
1.70022
1.70032
1.70041
1.7005
1.70059
1.70068
1.70076
1.70085
1.70094
1.70103
1.70112
1.70121
1.70128
1.70133
1.70135
1.70135
1.70132
1.7013
1.70128
1.70126
1.70124
1.70122
1.70121
1.70119
1.70118
1.70123
1.70125
1.70141
1.70155
1.70171
1.70208
1.70273
1.70311
1.70287
1.70224
1.70291
1.70296
1.70292
1.7027
1.70184
1.70145
1.70247
1.70279
1.70262
1.70225
1.70114
1.70088
1.70204
1.70245
1.70228
1.70184
1.70069
1.70052
1.70166
1.70213
1.70197
1.70149
1.70037
1.70025
1.70136
1.70185
1.70172
1.70123
1.70014
1.70005
1.70111
1.7016
1.70148
1.70099
1.69998
1.69991
1.70089
1.70138
1.70128
1.7008
1.69986
1.69982
1.70072
1.7012
1.70111
1.70065
1.69978
1.69976
1.70058
1.70104
1.70098
1.70052
1.69973
1.69972
1.70047
1.70092
1.70086
1.70043
1.6997
1.6997
1.70039
1.70082
1.70077
1.70036
1.69969
1.69969
1.70033
1.70074
1.7007
1.70031
1.69969
1.6997
1.70029
1.70068
1.70065
1.70027
1.6997
1.69971
1.70026
1.70063
1.70062
1.70025
1.69973
1.69974
1.70024
1.7006
1.70059
1.70025
1.69976
1.69977
1.70025
1.70059
1.70059
1.70025
1.6998
1.69982
1.70026
1.70058
1.70059
1.70027
1.69984
1.69987
1.70028
1.70059
1.7006
1.7003
1.6999
1.69992
1.70031
1.70061
1.70063
1.70033
1.69995
1.69999
1.70035
1.70064
1.70066
1.70038
1.70002
1.70006
1.7004
1.70068
1.7007
1.70043
1.7001
1.70013
1.70046
1.70072
1.70075
1.70049
1.70017
1.70022
1.70052
1.70078
1.70081
1.70056
1.70026
1.7003
1.70059
1.70084
1.70088
1.70064
1.70035
1.7004
1.70067
1.70091
1.70095
1.70072
1.70045
1.7005
1.70076
1.70099
1.70104
1.70081
1.70056
1.70061
1.70085
1.70107
1.70112
1.70091
1.70067
1.70072
1.70095
1.70117
1.70122
1.70101
1.70078
1.70084
1.70106
1.70127
1.70132
1.70112
1.70091
1.70097
1.70118
1.70137
1.70143
1.70124
1.70104
1.7011
1.7013
1.70149
1.70155
1.70136
1.70117
1.70124
1.70142
1.70161
1.70168
1.7015
1.70131
1.70138
1.70156
1.70174
1.70181
1.70163
1.70146
1.70153
1.7017
1.70187
1.70195
1.70178
1.70162
1.70169
1.70185
1.70201
1.70209
1.70193
1.70178
1.70185
1.702
1.70216
1.70224
1.70209
1.70194
1.70202
1.70216
1.70232
1.7024
1.70225
1.70212
1.7022
1.70233
1.70248
1.70257
1.70243
1.7023
1.70239
1.70251
1.70265
1.70274
1.70261
1.70249
1.70258
1.70269
1.70282
1.70292
1.70279
1.70268
1.70277
1.70288
1.70301
1.70311
1.70299
1.70288
1.70298
1.70308
1.7032
1.70331
1.70319
1.70309
1.70319
1.70328
1.7034
1.70351
1.70339
1.70331
1.70341
1.70349
1.7036
1.70372
1.70361
1.70353
1.70363
1.70371
1.70382
1.70394
1.70383
1.70376
1.70387
1.70394
1.70404
1.70416
1.70407
1.704
1.70411
1.70417
1.70427
1.7044
1.7043
1.70425
1.70436
1.70442
1.70451
1.70464
1.70455
1.7045
1.70462
1.70467
1.70475
1.70489
1.70481
1.70476
1.70489
1.70493
1.70501
1.70515
1.70507
1.70504
1.70517
1.7052
1.70527
1.70542
1.70535
1.70532
1.70545
1.70548
1.70554
1.7057
1.70563
1.70561
1.70575
1.70577
1.70583
1.70598
1.70593
1.70591
1.70605
1.70606
1.70612
1.70628
1.70623
1.70622
1.70637
1.70637
1.70642
1.70659
1.70654
1.70654
1.70669
1.70669
1.70673
1.70691
1.70687
1.70687
1.70703
1.70702
1.70705
1.70723
1.7072
1.70721
1.70737
1.70735
1.70738
1.70757
1.70754
1.70756
1.70773
1.7077
1.70773
1.70792
1.7079
1.70793
1.70809
1.70806
1.70808
1.70828
1.70826
1.7083
1.70847
1.70843
1.70845
1.70865
1.70864
1.70868
1.70886
1.70882
1.70882
1.70903
1.70903
1.70908
1.70926
1.70921
1.70921
1.70943
1.70943
1.70949
1.70968
1.70961
1.70961
1.70983
1.70984
1.70991
1.7101
1.71003
1.71002
1.71025
1.71026
1.71034
1.71054
1.71046
1.71044
1.71068
1.7107
1.71078
1.71099
1.7109
1.71088
1.71112
1.71115
1.71124
1.71145
1.71136
1.71132
1.71157
1.71161
1.71171
1.71192
1.71182
1.71178
1.71204
1.71208
1.71218
1.71241
1.7123
1.71225
1.71252
1.71257
1.71268
1.7129
1.71279
1.71274
1.71301
1.71306
1.71318
1.71341
1.71329
1.71323
1.71351
1.71357
1.7137
1.71393
1.7138
1.71374
1.71402
1.71409
1.71422
1.71447
1.71433
1.71426
1.71455
1.71462
1.71476
1.71501
1.71487
1.71479
1.71508
1.71516
1.71531
1.71557
1.71541
1.71533
1.71563
1.71572
1.71587
1.71613
1.71597
1.71588
1.71619
1.71628
1.71644
1.71671
1.71654
1.71644
1.71676
1.71686
1.71702
1.71729
1.71712
1.71702
1.71733
1.71744
1.71761
1.71789
1.71771
1.7176
1.71792
1.71803
1.71821
1.71849
1.71831
1.71819
1.71851
1.71863
1.71882
1.7191
1.71891
1.71878
1.71911
1.71924
1.71943
1.71971
1.71952
1.71939
1.71972
1.71985
1.72005
1.72033
1.72013
1.72
1.72033
1.72047
1.72067
1.72096
1.72075
1.72061
1.72095
1.72109
1.72129
1.72158
1.72137
1.72123
1.72156
1.72171
1.72191
1.7222
1.72199
1.72184
1.72218
1.72232
1.72253
1.72281
1.72261
1.72245
1.72279
1.72294
1.72314
1.72342
1.72322
1.72306
1.72339
1.72354
1.72375
1.72403
1.72382
1.72366
1.72399
1.72414
1.72434
1.72462
1.72442
1.72426
1.72458
1.72473
1.72493
1.72521
1.725
1.72484
1.72516
1.72531
1.72551
1.72578
1.72558
1.72542
1.72572
1.72588
1.72608
1.72634
1.72614
1.72598
1.72628
1.72644
1.72663
1.72688
1.72668
1.72652
1.72681
1.72697
1.72716
1.7274
1.72721
1.72705
1.72733
1.72749
1.72768
1.72791
1.72772
1.72756
1.72783
1.72799
1.72817
1.72839
1.72821
1.72804
1.7283
1.72846
1.72864
1.72885
1.72867
1.72851
1.72876
1.72892
1.72909
1.72929
1.72911
1.72896
1.72919
1.72934
1.72952
1.72971
1.72953
1.72938
1.7296
1.72975
1.72992
1.73009
1.72993
1.72977
1.72998
1.73013
1.73029
1.73046
1.73029
1.73014
1.73034
1.73049
1.73064
1.73079
1.73064
1.73049
1.73067
1.73082
1.73097
1.73111
1.73096
1.73081
1.73098
1.73112
1.73127
1.7314
1.73125
1.73111
1.73127
1.73141
1.73155
1.73167
1.73153
1.73139
1.73154
1.73167
1.7318
1.73191
1.73178
1.73165
1.73178
1.73191
1.73204
1.73214
1.73201
1.73188
1.73201
1.73213
1.73226
1.73235
1.73222
1.7321
1.73222
1.73233
1.73245
1.73254
1.73242
1.7323
1.73241
1.73252
1.73263
1.73271
1.7326
1.73248
1.73258
1.73269
1.7328
1.73287
1.73276
1.73265
1.73274
1.73285
1.73295
1.73302
1.73292
1.73281
1.73289
1.73299
1.73309
1.73315
1.73306
1.73295
1.73303
1.73313
1.73322
1.73328
1.73319
1.73309
1.73316
1.73326
1.73334
1.7334
1.73331
1.73322
1.73329
1.73338
1.73346
1.73352
1.73344
1.73334
1.73341
1.73349
1.73357
1.73364
1.73355
1.73347
1.73352
1.73361
1.73368
1.73375
1.73367
1.73359
1.73365
1.73373
1.7338
1.73387
1.73381
1.73373
1.73376
1.73384
1.73392
1.73363
1.7335
1.7334
1.73338
1.73333
1.73331
1.73327
1.73329
1.73329
1.73332
1.73333
1.73337
1.73339
1.73343
1.73346
1.7335
1.73354
1.73359
1.73363
1.73368
1.73373
1.73379
1.73384
1.73389
1.73394
1.734
1.73406
1.73411
1.73417
1.73422
1.73428
1.73433
1.73438
1.73443
1.73448
1.73453
1.73458
1.73463
1.73467
1.73472
1.73476
1.73481
1.73485
1.73489
1.73491
1.73493
1.73498
1.73501
1.73502
1.735
1.735
1.73504
1.7351
1.73507
1.73508
1.73511
1.7351
1.73508
1.73511
1.73514
1.73517
1.73523
1.73519
1.73514
1.73523
1.73529
1.73533
1.73542
1.73538
1.73531
1.7354
1.73548
1.73552
1.7356
1.73556
1.73549
1.73559
1.73566
1.73571
1.73578
1.73574
1.73566
1.73576
1.73583
1.73587
1.73595
1.73591
1.73584
1.73593
1.736
1.73605
1.73612
1.73607
1.736
1.73609
1.73617
1.73621
1.73629
1.73625
1.73617
1.73626
1.73634
1.73639
1.73646
1.73642
1.73634
1.73643
1.73651
1.73656
1.73664
1.7366
1.73652
1.73662
1.7367
1.73675
1.73683
1.73678
1.7367
1.7368
1.73688
1.73693
1.73702
1.73697
1.73689
1.73699
1.73708
1.73713
1.73722
1.73717
1.73709
1.73719
1.73728
1.73733
1.73743
1.73738
1.73729
1.7374
1.7375
1.73755
1.73764
1.73759
1.7375
1.73762
1.73771
1.73776
1.73787
1.73782
1.73773
1.73785
1.73795
1.738
1.73811
1.73806
1.73796
1.73808
1.73818
1.73823
1.73835
1.7383
1.7382
1.73833
1.73843
1.73849
1.73861
1.73855
1.73844
1.73857
1.73868
1.73875
1.73888
1.73881
1.73869
1.73882
1.73896
1.73903
1.73916
1.73909
1.73895
1.73908
1.73923
1.73931
1.73945
1.73937
1.73921
1.73934
1.73952
1.73961
1.73972
1.73963
1.73942
1.73957
1.73981
1.7399
1.74016
1.74005
1.73978
1.74017
1.74045
1.74054
1.74095
1.74085
1.74055
1.74101
1.74133
1.7414
1.74187
1.74179
1.74143
1.74179
1.74225
1.74232
1.74276
1.7427
1.74208
1.74251
1.74333
1.74329
1.74371
1.74408
1.743
1.74268
1.74368
1.74444
1.74452
1.74382
1.74475
1.74486
1.74488
1.74493
1.74541
1.74546
1.74523
1.74588
1.74594
1.7458
1.74629
1.74641
1.74646
1.74746
1.74729
1.74701
1.74772
1.74811
1.74818
1.749
1.74886
1.74829
1.74877
1.74952
1.74981
1.75067
1.75029
1.74951
1.74979
1.75083
1.75147
1.75225
1.75118
1.74991
1.74962
1.75109
1.75277
1.75294
1.75065
1.7493
1.74783
1.74952
1.75243
1.75178
1.74857
1.74736
1.74608
1.74721
1.75075
1.7486
1.74543
1.74479
1.74201
1.74277
1.74596
1.74246
1.74068
1.74095
1.73767
1.73736
1.73851
1.7333
1.7343
1.73492
1.73283
1.73187
1.72819
1.72219
1.72678
1.72738
1.72551
1.72519
1.71644
1.71015
1.72169
1.72166
1.71701
1.7168
1.70217
1.69237
1.71488
1.71469
1.71224
1.71084
1.67833
1.66029
1.70386
1.70891
1.70282
1.69485
1.64723
1.63182
1.68287
1.69414
1.68309
1.6706
1.62172
1.61169
1.66078
1.67491
1.66685
1.65092
1.60894
1.60392
1.63865
1.6546
1.65053
1.63541
1.60779
1.61053
1.6312
1.64728
1.63791
1.62731
1.61489
1.61901
1.63011
1.64158
1.64049
1.62973
1.62293
1.6225
1.62756
1.63402
1.64026
1.63293
1.63142
1.63521
1.6355
1.63931
1.63889
1.63444
1.6365
1.64216
1.64711
1.64637
1.64772
1.64584
1.64425
1.63912
1.64877
1.64445
1.65454
1.65168
1.65057
1.65067
1.65266
1.6538
1.65357
1.65057
1.65085
1.65517
1.66003
1.65875
1.65914
1.65804
1.65613
1.65067
1.66154
1.6569
1.66469
1.6607
1.66078
1.65896
1.66438
1.66299
1.66082
1.66766
1.64926
1.66687
1.66286
1.668
1.66662
1.66509
1.66055
1.66523
1.66964
1.66879
1.66944
1.66938
1.66456
1.66265
1.67009
1.66665
1.67257
1.67017
1.6701
1.66886
1.67109
1.6713
1.6693
1.67363
1.66578
1.67258
1.67257
1.67476
1.67349
1.6734
1.67178
1.66366
1.67658
1.67117
1.67756
1.67061
1.68003
1.67224
1.674
1.67532
1.6764
1.67726
1.67429
1.67272
1.67633
1.67618
1.6741
1.68051
1.66746
1.67946
1.67399
1.67923
1.67763
1.67594
1.67417
1.67621
1.67972
1.67836
1.67824
1.67769
1.67645
1.67691
1.67464
1.67856
1.67918
1.67897
1.67871
1.67653
1.67866
1.67811
1.6805
1.67631
1.67735
1.67412
1.68756
1.67823
1.6786
1.68277
1.67541
1.67793
1.68173
1.68105
1.67929
1.67968
1.68006
1.68184
1.68025
1.6817
1.68047
1.68012
1.67975
1.67523
1.68325
1.67776
1.68248
1.67678
1.68493
1.6803
1.67915
1.6806
1.68139
1.68264
1.68063
1.6789
1.6809
1.68099
1.67771
1.68592
1.67066
1.68423
1.67577
1.68321
1.6816
1.67842
1.67916
1.67994
1.68357
1.68126
1.68118
1.67985
1.67828
1.6797
1.68259
1.68191
1.68068
1.68027
1.67956
1.68127
1.67671
1.68192
1.67952
1.68977
1.67581
1.67736
1.682
1.68015
1.68211
1.6808
1.68151
1.67973
1.68063
1.67984
1.68165
1.68118
1.68172
1.68
1.68041
1.68056
1.67735
1.68568
1.67375
1.68416
1.67451
1.68237
1.68044
1.67696
1.67945
1.6801
1.6795
1.67967
1.67977
1.67825
1.67668
1.67869
1.68093
1.68022
1.67941
1.6793
1.67614
1.66927
1.68293
1.67574
1.68115
1.67151
1.68368
1.67691
1.67534
1.67809
1.67771
1.68118
1.67701
1.67603
1.67565
1.67849
1.67793
1.68014
1.67613
1.67425
1.67573
1.67713
1.67765
1.67758
1.67569
1.6737
1.67593
1.67641
1.67256
1.68186
1.66731
1.67022
1.6832
1.67543
1.67376
1.67841
1.6722
1.6751
1.67517
1.67629
1.67284
1.67634
1.67316
1.67461
1.67366
1.67483
1.67242
1.67341
1.67246
1.67387
1.67413
1.6742
1.67258
1.67232
1.67229
1.67244
1.67303
1.67331
1.67201
1.67178
1.67076
1.67187
1.66623
1.67075
1.67008
1.67448
1.66743
1.66672
1.67129
1.66981
1.67169
1.66973
1.67064
1.668
1.66944
1.66872
1.66986
1.66802
1.66918
1.66644
1.66697
1.66726
1.66833
1.66814
1.66729
1.66549
1.66606
1.66666
1.66728
1.66717
1.66631
1.66425
1.66558
1.66602
1.66213
1.66776
1.66031
1.65877
1.67166
1.66393
1.66214
1.66663
1.66101
1.66355
1.66385
1.66491
1.66113
1.66398
1.66073
1.66225
1.66166
1.66291
1.66039
1.66122
1.65999
1.66084
1.66155
1.66164
1.66004
1.65959
1.65935
1.65946
1.65989
1.66029
1.65894
1.65887
1.65664
1.65644
1.65446
1.65594
1.65658
1.66046
1.65486
1.65364
1.65746
1.65591
1.65724
1.65638
1.65622
1.65312
1.65478
1.65399
1.65524
1.65404
1.65433
1.6511
1.6522
1.65248
1.65329
1.65301
1.65155
1.64963
1.65066
1.65134
1.65165
1.65132
1.64968
1.64786
1.6489
1.64973
1.64926
1.64265
1.64893
1.65268
1.64314
1.64992
1.64863
1.64306
1.64591
1.6453
1.64824
1.64723
1.64642
1.6425
1.64278
1.64232
1.64773
1.64562
1.64418
1.64146
1.63976
1.64007
1.64448
1.64387
1.64211
1.6399
1.63826
1.63928
1.64225
1.64227
1.64139
1.64034
1.63776
1.63189
1.63898
1.63585
1.63974
1.63645
1.63722
1.63187
1.63648
1.63501
1.6367
1.63533
1.63492
1.63079
1.63388
1.63364
1.63485
1.63356
1.63222
1.62964
1.63196
1.63228
1.63283
1.63217
1.63054
1.62679
1.62932
1.63009
1.63036
1.63012
1.62801
1.62587
1.62745
1.62872
1.62341
1.62599
1.61954
1.62215
1.62895
1.62621
1.62376
1.62507
1.62017
1.62171
1.62339
1.62483
1.62074
1.62125
1.61879
1.62037
1.62079
1.62171
1.61818
1.61819
1.61495
1.61716
1.61837
1.61896
1.61691
1.61584
1.61325
1.60997
1.61222
1.61265
1.61515
1.61587
1.61224
1.6086
1.61218
1.61224
1.61279
1.61144
1.61099
1.60607
1.60949
1.60933
1.60906
1.60814
1.60574
1.60063
1.60402
1.60515
1.60641
1.60596
1.6029
1.60181
1.60407
1.60516
1.60201
1.59572
1.59985
1.59888
1.60396
1.60186
1.59998
1.59592
1.59519
1.59403
1.5998
1.59774
1.59468
1.59027
1.58988
1.58992
1.59388
1.59431
1.5935
1.59144
1.5892
1.58167
1.58895
1.58659
1.59088
1.58821
1.58732
1.58188
1.58679
1.58598
1.58567
1.58441
1.58299
1.57598
1.58041
1.58106
1.58136
1.58043
1.57641
1.57345
1.577
1.57921
1.57386
1.57174
1.5695
1.57335
1.57677
1.5768
1.57393
1.5719
1.56944
1.56771
1.57444
1.57207
1.56815
1.56495
1.56328
1.56021
1.56448
1.56611
1.56378
1.56124
1.55723
1.55433
1.55637
1.55851
1.56108
1.56037
1.55674
1.5529
1.55595
1.55776
1.55636
1.55599
1.55237
1.54647
1.55046
1.55257
1.54304
1.53934
1.53582
1.54045
1.54446
1.54557
1.54279
1.54054
1.53786
1.5385
1.5433
1.54333
1.5407
1.53808
1.53544
1.52725
1.53138
1.53153
1.53077
1.52952
1.52303
1.51609
1.52169
1.52491
1.52631
1.52503
1.51984
1.51852
1.52285
1.5245
1.51949
1.51346
1.51497
1.5113
1.51927
1.51654
1.5122
1.50698
1.50576
1.49671
1.50393
1.50693
1.50359
1.49969
1.49271
1.49027
1.49368
1.49731
1.49878
1.49767
1.49378
1.48905
1.49493
1.49651
1.48661
1.47903
1.48092
1.46904
1.47644
1.47999
1.47691
1.4722
1.46614
1.46287
1.46551
1.47045
1.47185
1.47252
1.46522
1.46453
1.46595
1.47021
1.4513
1.45334
1.43651
1.43859
1.44904
1.45192
1.44879
1.44421
1.43669
1.42853
1.43717
1.43903
1.43807
1.43546
1.43636
1.41068
1.42394
1.42886
1.41363
1.40642
1.39771
1.40743
1.4141
1.41616
1.41621
1.4108
1.40538
1.38922
1.39888
1.40074
1.3924
1.38401
1.37125
1.37036
1.38038
1.38685
1.38256
1.3762
1.36939
1.34987
1.3617
1.36547
1.36296
1.35397
1.33875
1.33991
1.35223
1.35974
1.35302
1.34635
1.33127
1.3061
1.32838
1.33921
1.33461
1.32761
1.31017
1.29095
1.3147
1.32663
1.32536
1.31429
1.29285
1.28021
1.29813
1.31397
1.33927
1.32949
1.31668
1.32981
1.34493
1.35501
1.37503
1.36545
1.35154
1.3702
1.38349
1.39292
1.40668
1.39675
1.38384
1.39358
1.40603
1.41656
1.42417
1.4132
1.40151
1.40842
1.41931
1.43053
1.43608
1.42472
1.41464
1.42029
1.42955
1.44096
1.44528
1.43393
1.42555
1.43046
1.4379
1.4491
1.45253
1.44162
1.43505
1.43928
1.44508
1.45562
1.45842
1.44833
1.44321
1.44686
1.45135
1.46097
1.46332
1.45422
1.4503
1.45351
1.45691
1.46547
1.46748
1.4595
1.45653
1.45935
1.46194
1.46934
1.47112
1.46429
1.46204
1.46458
1.46652
1.4728
1.47441
1.46867
1.46704
1.46935
1.47072
1.47595
1.47745
1.47272
1.47157
1.47363
1.47461
1.47889
1.48033
1.47645
1.47562
1.47749
1.47819
1.48173
1.48312
1.47989
1.47933
1.48107
1.4815
1.48448
1.48582
1.48308
1.48277
1.48438
1.48458
1.48712
1.4884
1.48605
1.48594
1.48741
1.48745
1.48965
1.49088
1.48883
1.48885
1.4902
1.49014
1.49208
1.49327
1.49144
1.49154
1.49281
1.49268
1.49442
1.49557
1.49391
1.49405
1.49523
1.49509
1.49668
1.49779
1.49625
1.49639
1.4975
1.49736
1.49885
1.4999
1.49846
1.49859
1.49963
1.49951
1.5009
1.5019
1.50054
1.50065
1.50164
1.50154
1.50285
1.5038
1.50252
1.50261
1.50355
1.50348
1.50471
1.50561
1.50442
1.50448
1.50537
1.50533
1.50648
1.50735
1.50623
1.50624
1.50709
1.5071
1.50818
1.50899
1.50795
1.50792
1.50873
1.50878
1.50978
1.51056
1.50959
1.50952
1.51029
1.51037
1.51131
1.51204
1.51115
1.51104
1.51177
1.51189
1.51276
1.51346
1.51263
1.51249
1.51319
1.51334
1.51414
1.51481
1.51404
1.51387
1.51454
1.51472
1.51546
1.51609
1.51538
1.5152
1.51583
1.51602
1.51671
1.51731
1.51666
1.51646
1.51706
1.51727
1.51791
1.51848
1.51788
1.51767
1.51824
1.51846
1.51904
1.51958
1.51903
1.51882
1.51937
1.51959
1.52012
1.52064
1.52014
1.51993
1.52045
1.52067
1.52116
1.52166
1.5212
1.52099
1.52149
1.5217
1.52215
1.52264
1.52221
1.522
1.52249
1.5227
1.52311
1.52358
1.52319
1.52298
1.52345
1.52366
1.52405
1.5245
1.52413
1.52393
1.52437
1.52458
1.52495
1.52539
1.52503
1.52483
1.52526
1.52546
1.52582
1.52625
1.5259
1.5257
1.52611
1.52631
1.52666
1.52707
1.52673
1.52653
1.52693
1.52713
1.52748
1.52788
1.52754
1.52734
1.52771
1.52792
1.52827
1.52865
1.52832
1.52811
1.52847
1.52869
1.52903
1.52941
1.52908
1.52886
1.52921
1.52943
1.52977
1.53015
1.5298
1.52958
1.52992
1.53015
1.5305
1.53086
1.53051
1.53028
1.5306
1.53085
1.5312
1.53155
1.5312
1.53095
1.53127
1.53152
1.53189
1.53223
1.53187
1.53161
1.53191
1.53218
1.53255
1.53288
1.53251
1.53224
1.53254
1.53282
1.5332
1.53352
1.53314
1.53286
1.53315
1.53344
1.53382
1.53414
1.53375
1.53346
1.53374
1.53404
1.53444
1.53475
1.53435
1.53405
1.53432
1.53463
1.53503
1.53533
1.53493
1.53462
1.53488
1.53521
1.53561
1.5359
1.5355
1.53517
1.53543
1.53577
1.53618
1.53646
1.53605
1.53572
1.53597
1.53631
1.53672
1.537
1.53659
1.53625
1.53649
1.53684
1.53726
1.53753
1.53711
1.53676
1.537
1.53736
1.53777
1.53804
1.53762
1.53726
1.5375
1.53786
1.53828
1.53854
1.53812
1.53775
1.53798
1.53835
1.53877
1.53902
1.5386
1.53823
1.53845
1.53883
1.53925
1.53949
1.53907
1.5387
1.53892
1.53929
1.53971
1.53995
1.53953
1.53916
1.53937
1.53975
1.54016
1.54039
1.53998
1.5396
1.5398
1.54019
1.5406
1.54083
1.54042
1.54003
1.54023
1.54062
1.54103
1.54125
1.54084
1.54045
1.54065
1.54103
1.54144
1.54166
1.54125
1.54086
1.54105
1.54144
1.54184
1.54205
1.54165
1.54126
1.54145
1.54183
1.54224
1.54244
1.54204
1.54165
1.54183
1.54222
1.54261
1.54281
1.54242
1.54203
1.5422
1.54259
1.54298
1.54318
1.54278
1.5424
1.54257
1.54295
1.54334
1.54353
1.54314
1.54276
1.54292
1.5433
1.54369
1.54387
1.54349
1.5431
1.54326
1.54365
1.54403
1.5442
1.54382
1.54344
1.5436
1.54398
1.54435
1.54452
1.54415
1.54377
1.54392
1.5443
1.54467
1.54484
1.54447
1.54409
1.54424
1.54461
1.54498
1.54514
1.54478
1.5444
1.54454
1.54492
1.54528
1.54544
1.54508
1.5447
1.54484
1.54521
1.54557
1.54572
1.54537
1.545
1.54513
1.5455
1.54585
1.546
1.54565
1.54528
1.54541
1.54578
1.54613
1.54627
1.54593
1.54556
1.54569
1.54605
1.54639
1.54653
1.54619
1.54583
1.54595
1.54631
1.54665
1.54679
1.54645
1.54609
1.54621
1.54657
1.5469
1.54704
1.5467
1.54635
1.54646
1.54682
1.54715
1.54728
1.54695
1.5466
1.54671
1.54706
1.54739
1.54751
1.54719
1.54684
1.54694
1.54729
1.54762
1.54774
1.54742
1.54707
1.54717
1.54752
1.54784
1.54796
1.54764
1.5473
1.5474
1.54774
1.54806
1.54817
1.54786
1.54752
1.54762
1.54796
1.54827
1.54838
1.54807
1.54773
1.54783
1.54817
1.54848
1.54859
1.54828
1.54794
1.54803
1.54837
1.54868
1.54878
1.54848
1.54815
1.54824
1.54857
1.54887
1.54898
1.54867
1.54834
1.54843
1.54876
1.54906
1.54916
1.54886
1.54854
1.54862
1.54895
1.54924
1.54934
1.54905
1.54872
1.54881
1.54913
1.54942
1.54952
1.54923
1.5489
1.54898
1.54931
1.5496
1.54969
1.5494
1.54908
1.54916
1.54948
1.54977
1.54986
1.54957
1.54925
1.54933
1.54964
1.54993
1.55002
1.54973
1.54942
1.54949
1.54981
1.55009
1.55018
1.54989
1.54958
1.54965
1.54996
1.55025
1.55033
1.55005
1.54974
1.54981
1.55012
1.5504
1.55048
1.5502
1.5499
1.54996
1.55027
1.55055
1.55063
1.55035
1.55005
1.55011
1.55041
1.55069
1.55077
1.55049
1.55019
1.55026
1.55056
1.55083
1.55091
1.55063
1.55034
1.5504
1.55069
1.55097
1.55104
1.55077
1.55047
1.55053
1.55083
1.5511
1.55117
1.5509
1.55061
1.55067
1.55096
1.55123
1.5513
1.55103
1.55074
1.5508
1.55109
1.55135
1.55142
1.55116
1.55087
1.55092
1.55121
1.55147
1.55154
1.55128
1.55099
1.55105
1.55133
1.55159
1.55166
1.5514
1.55111
1.55117
1.55145
1.55171
1.55177
1.55151
1.55123
1.55128
1.55156
1.55182
1.55188
1.55163
1.55135
1.5514
1.55167
1.55193
1.55199
1.55174
1.55146
1.55151
1.55178
1.55204
1.5521
1.55184
1.55157
1.55162
1.55189
1.55214
1.5522
1.55195
1.55168
1.55172
1.55199
1.55224
1.5523
1.55205
1.55178
1.55182
1.55209
1.55234
1.55239
1.55215
1.55188
1.55192
1.55219
1.55244
1.55249
1.55224
1.55198
1.55202
1.55228
1.55253
1.55258
1.55233
1.55207
1.55211
1.55237
1.55262
1.55267
1.55243
1.55217
1.55221
1.55247
1.55271
1.55276
1.55251
1.55226
1.5523
1.55255
1.5528
1.55284
1.5526
1.55235
1.55238
1.55264
1.55288
1.55293
1.55269
1.55243
1.55247
1.55272
1.55296
1.55301
1.55277
1.55252
1.55255
1.5528
1.55304
1.55309
1.55285
1.5526
1.55263
1.55288
1.55312
1.55316
1.55292
1.55268
1.55271
1.55296
1.5532
1.55324
1.553
1.55276
1.55279
1.55303
1.55327
1.55331
1.55307
1.55283
1.55286
1.55311
1.55334
1.55338
1.55315
1.5529
1.55294
1.55318
1.55341
1.55345
1.55322
1.55298
1.55301
1.55325
1.55348
1.55352
1.55329
1.55305
1.55308
1.55331
1.55355
1.55359
1.55335
1.55311
1.55314
1.55338
1.55361
1.55365
1.55342
1.55318
1.55321
1.55344
1.55368
1.55371
1.55348
1.55325
1.55327
1.55351
1.55374
1.55377
1.55354
1.55331
1.55334
1.55357
1.5538
1.55384
1.5536
1.55337
1.5534
1.55363
1.55386
1.55389
1.55366
1.55343
1.55346
1.55369
1.55392
1.55395
1.55372
1.55349
1.55351
1.55374
1.55397
1.55401
1.55378
1.55355
1.55357
1.5538
1.55403
1.55406
1.55383
1.5536
1.55363
1.55385
1.55408
1.55411
1.55388
1.55366
1.55368
1.55391
1.55414
1.55417
1.55394
1.55371
1.55373
1.55396
1.55419
1.55422
1.55399
1.55376
1.55378
1.55401
1.55424
1.55427
1.55404
1.55381
1.55384
1.55406
1.55429
1.55431
1.55409
1.55386
1.55389
1.55411
1.55433
1.55436
1.55413
1.55391
1.55393
1.55415
1.55438
1.55441
1.55418
1.55396
1.55398
1.5542
1.55443
1.55445
1.55423
1.55401
1.55403
1.55425
1.55447
1.5545
1.55427
1.55405
1.55407
1.55429
1.55452
1.55454
1.55431
1.5541
1.55412
1.55433
1.55456
1.55458
1.55436
1.55414
1.55416
1.55438
1.5546
1.55462
1.5544
1.55419
1.55421
1.55442
1.55464
1.55467
1.55444
1.55423
1.55425
1.55446
1.55468
1.55471
1.55448
1.55427
1.55429
1.5545
1.55472
1.55474
1.55452
1.55431
1.55433
1.55454
1.55476
1.55478
1.55456
1.55435
1.55437
1.55458
1.5548
1.55482
1.5546
1.55439
1.55441
1.55462
1.55484
1.55486
1.55464
1.55443
1.55444
1.55465
1.55488
1.55489
1.55467
1.55447
1.55448
1.55469
1.55491
1.55493
1.55471
1.5545
1.55452
1.55473
1.55495
1.55496
1.55474
1.55454
1.55455
1.55476
1.55498
1.555
1.55478
1.55458
1.55459
1.55479
1.55501
1.55503
1.55481
1.55461
1.55462
1.55483
1.55505
1.55507
1.55485
1.55465
1.55466
1.55486
1.55508
1.5551
1.55488
1.55468
1.55469
1.55489
1.55511
1.55513
1.55491
1.55471
1.55472
1.55493
1.55514
1.55516
1.55494
1.55475
1.55476
1.55496
1.55517
1.55519
1.55498
1.55478
1.55479
1.55499
1.5552
1.55522
1.55501
1.55481
1.55482
1.55502
1.55523
1.55525
1.55504
1.55484
1.55485
1.55505
1.55526
1.55528
1.55506
1.55487
1.55488
1.55507
1.55529
1.55531
1.55509
1.5549
1.55491
1.5551
1.55532
1.55533
1.55512
1.55493
1.55493
1.55513
1.55534
1.55536
1.55515
1.55495
1.55496
1.55516
1.55537
1.55539
1.55517
1.55498
1.55499
1.55518
1.55539
1.55541
1.5552
1.55501
1.55502
1.55521
1.55542
1.55544
1.55522
1.55503
1.55504
1.55523
1.55544
1.55546
1.55525
1.55506
1.55507
1.55526
1.55547
1.55548
1.55527
1.55508
1.55509
1.55528
1.55549
1.5555
1.55529
1.55511
1.55511
1.5553
1.55551
1.55553
1.55532
1.55513
1.55513
1.55532
1.55553
1.55555
1.55534
1.55515
1.55516
1.55534
1.55555
1.55556
1.55536
1.55517
1.55518
1.55536
1.55557
1.55558
1.55538
1.55519
1.5552
1.55538
1.55559
1.5556
1.55539
1.55521
1.55521
1.5554
1.55561
1.55562
1.55541
1.55522
1.55523
1.55541
1.55562
1.55563
1.55542
1.55524
1.55524
1.55543
1.55563
1.55564
1.55544
1.55525
1.55526
1.55544
1.55565
1.55565
1.55545
1.55526
1.55527
1.55545
1.55566
1.55566
1.55546
1.55528
1.55528
1.55546
1.55567
1.55567
1.55547
1.55528
1.55529
1.55547
1.55567
1.55568
1.55548
1.55529
1.5553
1.55548
1.55568
1.55569
1.55548
1.5553
1.55531
1.55549
1.55569
1.55569
1.55549
1.55531
1.55531
1.55549
1.5557
1.5557
1.5555
1.55531
1.55532
1.5555
1.5557
1.55571
1.5555
1.55532
1.55533
1.55551
1.55571
1.55571
1.55551
1.55533
1.55534
1.55551
1.55572
1.55571
1.55552
1.55533
1.55534
1.55552
1.55573
1.55572
1.55552
1.55533
1.55535
1.55552
1.55573
1.55571
1.55551
1.55533
1.55533
1.55549
1.5557
1.55567
1.55547
1.55528
1.55532
1.55551
1.55577
1.55609
1.55576
1.55557
1.5562
1.55641
1.55686
1.55708
1.55669
1.55653
1.55727
1.55762
1.55882
1.55991
1.56093
1.56158
1.56211
1.56247
1.56351
1.56428
1.56498
1.56549
1.56607
1.56665
1.5672
1.56771
1.56816
1.56857
1.56893
1.56924
1.56952
1.56975
1.56995
1.57013
1.57027
1.5704
1.57051
1.5706
1.57068
1.57074
1.5708
1.57084
1.57088
1.57091
1.57094
1.57096
1.57097
1.57097
1.57098
1.57098
1.57098
1.57097
1.57097
1.57096
1.57095
1.57094
1.57093
1.57091
1.5709
1.57088
1.57088
1.57086
1.57088
1.57084
1.57087
1.57081
1.57083
1.57106
1.57111
1.57112
1.57115
1.57117
1.5712
1.57122
1.57125
1.57128
1.57131
1.57135
1.57139
1.57143
1.57148
1.57153
1.57159
1.57166
1.57173
1.57181
1.57189
1.57199
1.5721
1.57221
1.57234
1.57247
1.57262
1.57277
1.57293
1.5731
1.57328
1.57345
1.57362
1.57378
1.57393
1.57406
1.57416
1.57421
1.57423
1.57423
1.57423
1.57423
1.57426
1.57431
1.57436
1.57443
1.5745
1.57458
1.57466
1.57475
1.57484
1.57493
1.57503
1.57512
1.57523
1.57534
1.57545
1.57557
1.5757
1.57583
1.57597
1.57613
1.57629
1.57646
1.57665
1.57686
1.57707
1.57731
1.57756
1.57784
1.57813
1.57844
1.57878
1.57913
1.57952
1.57992
1.58035
1.58081
1.5813
1.58181
1.58236
1.58293
1.58354
1.58418
1.58485
1.58556
1.58631
1.58708
1.5879
1.58875
1.58964
1.59057
1.59153
1.59253
1.59357
1.59464
1.59575
1.5969
1.59808
1.59929
1.60053
1.60181
1.60312
1.60445
1.60581
1.60719
1.6086
1.61003
1.61147
1.61293
1.61441
1.61589
1.61739
1.61889
1.6204
1.62191
1.62343
1.62494
1.62645
1.62795
1.62945
1.63093
1.63241
1.63388
1.63533
1.63676
1.63819
1.63959
1.64097
1.64234
1.64369
1.64501
1.64632
1.6476
1.64886
1.65009
1.65131
1.6525
1.65366
1.65481
1.65592
1.65702
1.65809
1.65913
1.66015
1.66115
1.66213
1.66308
1.66401
1.66492
1.6658
1.66666
1.6675
1.66832
1.66912
1.66989
1.67065
1.67139
1.6721
1.6728
1.67348
1.67414
1.67478
1.67541
1.67602
1.67661
1.67718
1.67774
1.67829
1.67882
1.67933
1.67983
1.68031
1.68079
1.68124
1.68169
1.68212
1.68254
1.68295
1.68335
1.68373
1.68411
1.68447
1.68482
1.68517
1.6855
1.68582
1.68614
1.68644
1.68674
1.68703
1.6873
1.68757
1.68784
1.68809
1.68834
1.68858
1.68881
1.68903
1.68925
1.68946
1.68967
1.68986
1.69005
1.69024
1.69042
1.69059
1.69075
1.69091
1.69107
1.69122
1.69136
1.6915
1.69163
1.69175
1.69187
1.69199
1.6921
1.6922
1.6923
1.69239
1.69248
1.69257
1.69265
1.69273
1.69281
1.69289
1.69299
1.69309
1.69322
1.69337
1.6935
1.69359
1.69362
1.69364
1.69364
1.69363
1.69363
1.69362
1.69362
1.69362
1.69362
1.69361
1.69361
1.69361
1.69361
1.69362
1.69363
1.69373
1.69388
1.69399
1.69405
1.69411
1.69417
1.69423
1.69429
1.69436
1.69442
1.69449
1.69456
1.69463
1.69471
1.69479
1.69487
1.69495
1.69504
1.69513
1.69522
1.69531
1.6954
1.6955
1.6956
1.6957
1.6958
1.69591
1.69601
1.69612
1.69623
1.69633
1.69644
1.69656
1.69667
1.69678
1.69689
1.69701
1.69712
1.69724
1.69735
1.69747
1.69759
1.6977
1.69782
1.69793
1.69805
1.69816
1.69828
1.69839
1.69851
1.69862
1.69873
1.69884
1.69895
1.69906
1.69917
1.69928
1.69938
1.69949
1.69959
1.69969
1.69979
1.69988
1.69998
1.70007
1.70016
1.70025
1.70033
1.70041
1.70049
1.70057
1.70064
1.70071
1.70078
1.70085
1.70092
1.70099
1.70105
1.70112
1.70122
1.70131
1.70133
1.7013
1.70127
1.70124
1.70122
1.70122
1.70127
1.70137
1.7016
1.70204
1.70247
1.70263
1.70266
1.70254
1.70242
1.70229
1.70218
1.70207
1.70197
1.70186
1.70177
1.70168
1.7016
1.70152
1.70146
1.70139
1.70134
1.70128
1.70123
1.70119
1.70115
1.70111
1.70108
1.70105
1.70103
1.70101
1.70099
1.70098
1.70097
1.70096
1.70096
1.70096
1.70096
1.70097
1.70097
1.70098
1.70099
1.70101
1.70102
1.70104
1.70106
1.70109
1.70111
1.70114
1.70117
1.7012
1.70123
1.70126
1.7013
1.70134
1.70138
1.70142
1.70146
1.70151
1.70156
1.70161
1.70166
1.70171
1.70176
1.70182
1.70188
1.70194
1.702
1.70206
1.70213
1.7022
1.70226
1.70233
1.7024
1.70248
1.70255
1.70263
1.70271
1.70279
1.70287
1.70296
1.70304
1.70313
1.70322
1.70332
1.7034
1.7035
1.7036
1.7037
1.7038
1.70391
1.704
1.70412
1.70422
1.70434
1.70444
1.70456
1.70467
1.7048
1.70491
1.70505
1.70516
1.7053
1.70542
1.70556
1.70569
1.70583
1.70596
1.70611
1.70625
1.7064
1.70654
1.7067
1.70685
1.70701
1.70716
1.70733
1.70748
1.70766
1.70782
1.70801
1.70817
1.70836
1.70852
1.70872
1.70889
1.7091
1.70927
1.70948
1.70966
1.70988
1.71006
1.71029
1.71048
1.71071
1.71091
1.71114
1.71134
1.71159
1.7118
1.71205
1.71226
1.71251
1.71273
1.713
1.71322
1.71349
1.71372
1.71399
1.71422
1.71451
1.71475
1.71503
1.71528
1.71557
1.71582
1.71612
1.71637
1.71668
1.71694
1.71725
1.71751
1.71782
1.71809
1.71841
1.71868
1.719
1.71927
1.7196
1.71987
1.7202
1.72048
1.7208
1.72108
1.72141
1.72169
1.72202
1.72229
1.72262
1.72289