/*--------------------------------*- C++ -*----------------------------------*\
| =========                 |                                                 |
| \\      /  F ield         | OpenFOAM: The Open Source CFD Toolbox           |
|  \\    /   O peration     | Version:  v2006                                 |
|   \\  /    A nd           | Website:  www.openfoam.com                      |
|    \\/     M anipulation  |                                                 |
\*---------------------------------------------------------------------------*/
FoamFile
{
    version     2.0;
    format      ascii;
    class       volScalarField;
    location    "0.04";
    object      Ma;
}
// * * * * * * * * * * * * * * * * * * * * * * * * * * * * * * * * * * * * * //

dimensions      [0 0 0 0 0 0 0];


internalField   nonuniform List<scalar> 
10108
(
0.191805
0.191807
0.191806
0.191805
0.191801
0.191791
0.191751
0.191633
0.191406
0.191098
0.190745
0.190377
0.190004
0.189628
0.189245
0.188849
0.188438
0.18801
0.187564
0.187101
0.186621
0.186126
0.185616
0.185091
0.184553
0.184003
0.18344
0.182867
0.182284
0.181693
0.181093
0.180487
0.179876
0.179261
0.178644
0.178024
0.177405
0.176787
0.176171
0.17556
0.174953
0.174353
0.173761
0.173178
0.172606
0.172045
0.171497
0.170964
0.170447
0.169946
0.169463
0.168996
0.168542
0.168097
0.167657
0.167226
0.166825
0.166503
0.166315
0.166264
0.166292
0.166345
0.166397
0.166419
0.166428
0.166387
0.166256
0.166
0.165596
0.164909
0.164069
0.160908
0.158881
0.164087
0.165095
0.165216
0.163901
0.156785
0.154737
0.163634
0.1653
0.165292
0.163272
0.152946
0.151203
0.1628
0.165195
0.165026
0.162311
0.149637
0.148166
0.161766
0.164817
0.164576
0.161251
0.146803
0.145562
0.160722
0.164307
0.164009
0.160179
0.144387
0.143303
0.159632
0.163708
0.163368
0.159082
0.142254
0.14128
0.158533
0.163037
0.162674
0.157988
0.140334
0.139439
0.157437
0.162317
0.161915
0.156874
0.138547
0.137705
0.156317
0.161533
0.161119
0.15576
0.136875
0.136085
0.155206
0.160725
0.160294
0.154648
0.135296
0.13454
0.154092
0.159885
0.159437
0.153531
0.133783
0.133054
0.152972
0.159013
0.158549
0.152406
0.13232
0.13161
0.151842
0.158111
0.157631
0.15127
0.130894
0.130197
0.1507
0.157178
0.156682
0.15012
0.129494
0.128807
0.149542
0.156214
0.155701
0.148954
0.128112
0.127432
0.148366
0.155217
0.154687
0.147767
0.126741
0.126063
0.147167
0.154186
0.153636
0.146556
0.125372
0.124693
0.145943
0.153117
0.152547
0.145317
0.124
0.123317
0.144688
0.152008
0.151417
0.144046
0.122619
0.121929
0.1434
0.150856
0.150242
0.142739
0.121222
0.120523
0.142074
0.149658
0.149019
0.141393
0.119805
0.119093
0.140707
0.148411
0.147746
0.140003
0.118362
0.117636
0.139293
0.14711
0.146417
0.138565
0.116889
0.116145
0.13783
0.145753
0.14503
0.137075
0.11538
0.114617
0.136311
0.144336
0.14358
0.135528
0.113831
0.113045
0.134734
0.142853
0.142063
0.133919
0.112235
0.111424
0.133092
0.1413
0.140473
0.132242
0.110587
0.109748
0.131379
0.139672
0.138805
0.130493
0.108882
0.108012
0.129591
0.137963
0.137053
0.128664
0.107113
0.106209
0.12772
0.136168
0.135212
0.12675
0.105275
0.104333
0.125761
0.13428
0.133275
0.124745
0.10336
0.102379
0.123708
0.132293
0.131237
0.122643
0.101365
0.100342
0.121556
0.130203
0.129094
0.120439
0.0992847
0.0982182
0.1193
0.128006
0.126841
0.11813
0.0971155
0.0960035
0.116936
0.125696
0.124473
0.11571
0.0948542
0.0936953
0.11446
0.123271
0.121988
0.113178
0.0924981
0.0912918
0.111871
0.120726
0.119384
0.110531
0.0900466
0.0887931
0.109167
0.118062
0.11666
0.107771
0.0875009
0.0862023
0.10635
0.11528
0.11382
0.1049
0.084866
0.0835262
0.103427
0.112384
0.11087
0.101927
0.0821507
0.0807764
0.100408
0.109383
0.107823
0.0988657
0.0793699
0.0779708
0.0973102
0.106293
0.104696
0.0957365
0.0765453
0.0751352
0.0941576
0.103136
0.101515
0.0925684
0.073707
0.072305
0.0909849
0.0999418
0.0983186
0.0894015
0.070896
0.069526
0.0878369
0.0967529
0.0951508
0.0862852
0.0681624
0.0668529
0.0847681
0.0936191
0.0920661
0.0832786
0.0655651
0.0643485
0.0818418
0.0905992
0.0891278
0.0804494
0.0631709
0.0620825
0.0791291
0.0877595
0.0864048
0.0778702
0.0610507
0.0601256
0.0767034
0.0851709
0.0839675
0.0756134
0.0592728
0.0585405
0.0746327
0.0829005
0.0818789
0.0737406
0.057892
0.0573717
0.0729696
0.0810042
0.080184
0.0722924
0.056939
0.0566329
0.0717397
0.0795143
0.0789013
0.0712786
0.0564103
0.0563054
0.0709384
0.0784352
0.0780207
0.0706792
0.0562766
0.0563692
0.0705369
0.0777315
0.0775003
0.0704392
0.0565112
0.056744
0.0704654
0.0773744
0.077312
0.0705092
0.0569991
0.0573241
0.0706724
0.0773286
0.0773904
0.0708338
0.0576553
0.0580365
0.0710919
0.0775123
0.077659
0.0713295
0.058408
0.058811
0.0716435
0.0778491
0.0780502
0.0719234
0.0591937
0.0595944
0.0722647
0.0782817
0.0785138
0.0725619
0.0599676
0.0603505
0.0729103
0.0787662
0.0790134
0.0732096
0.0607034
0.0610614
0.0735531
0.0792743
0.0795252
0.0738447
0.0613886
0.0617176
0.0741753
0.0797857
0.0800345
0.0744545
0.0620186
0.0623202
0.0747702
0.0802903
0.0805332
0.0750347
0.0625963
0.0628763
0.0753381
0.0807846
0.0810202
0.075588
0.0631304
0.0633848
0.0758729
0.0812605
0.0814869
0.076108
0.0636182
0.0638506
0.0763765
0.081717
0.0819338
0.0766159
0.0640698
0.0643318
0.0768668
0.0821896
0.0824555
0.0771557
0.0645903
0.0649456
0.0774685
0.082757
0.0830308
0.0777841
0.0652437
0.0654523
0.0780398
0.0832807
0.0836794
0.0784636
0.0659696
0.0664238
0.0788766
0.0840332
0.0891635
0.0922862
0.094419
0.0957939
0.0968772
0.0981644
0.0991057
0.100036
0.100769
0.101467
0.102044
0.102596
0.10306
0.10351
0.10388
0.104228
0.104492
0.104704
0.104795
0.104704
0.104338
0.103867
0.103301
0.101358
0.0967736
0.0920808
0.0790916
0.0776823
0.0908141
0.0955112
0.0911862
0.0831458
0.0629902
0.0662401
0.0859579
0.0938719
0.0940113
0.08603
0.0652518
0.0654479
0.0863348
0.0943212
0.0941497
0.0861013
0.0649171
0.0652839
0.0863797
0.0943543
0.0942528
0.0861732
0.0649837
0.0653937
0.0865036
0.0944837
0.0944259
0.0864945
0.0651374
0.065578
0.086856
0.0946985
0.094686
0.0867852
0.0656419
0.0660884
0.087165
0.0949728
0.0949739
0.0871794
0.0661758
0.0666225
0.0875651
0.0952658
0.0952761
0.0875907
0.0667242
0.0671821
0.087984
0.0955733
0.0955953
0.088022
0.0672999
0.0677686
0.0884228
0.0958976
0.0959293
0.0884721
0.0679012
0.0683823
0.0888811
0.0962368
0.0962809
0.0889443
0.0685329
0.0690267
0.0893626
0.0965954
0.0966513
0.0894399
0.0691946
0.0697035
0.0898692
0.0969729
0.0970442
0.0899635
0.0698933
0.0704187
0.0904057
0.0973756
0.0974626
0.0905193
0.0706313
0.0711767
0.0909776
0.097805
0.0979123
0.0911141
0.0714183
0.0719869
0.0915921
0.0982692
0.0983993
0.0917568
0.072262
0.0728612
0.0922608
0.0987746
0.098934
0.0924605
0.0731808
0.0738185
0.0929975
0.0993329
0.0995271
0.0932409
0.0741952
0.0748853
0.093821
0.0999558
0.100193
0.0941193
0.0753404
0.0761
0.0947525
0.100656
0.100949
0.0951254
0.0766707
0.0775475
0.0958421
0.101467
0.101838
0.0963205
0.0783003
0.0793589
0.0971512
0.102431
0.102901
0.0977647
0.0803795
0.0817816
0.0988059
0.103652
0.104416
0.099819
0.0833963
0.0853571
0.101196
0.1054
0.1061
0.102155
0.0869648
0.0884108
0.102993
0.106632
0.106661
0.103112
0.0891128
0.0896819
0.103129
0.106503
0.106202
0.103002
0.0900997
0.0905536
0.102772
0.105844
0.105323
0.102443
0.0907814
0.0909221
0.102041
0.104758
0.104101
0.101519
0.0909922
0.0911989
0.101092
0.103479
0.102693
0.100417
0.0911956
0.0911725
0.0997311
0.101819
0.100824
0.0989164
0.0911649
0.091263
0.0980943
0.0997414
0.0983284
0.0969244
0.0913173
0.0848908
0.0937946
0.0965454
0.096454
0.094486
0.0867119
0.0862842
0.0936834
0.0954576
0.0941162
0.0925973
0.0858263
0.0851131
0.0912869
0.0925731
0.0906635
0.0896312
0.0842416
0.0830668
0.0875735
0.0883313
0.0852627
0.0847691
0.0816256
0.0754295
0.081176
0.0826934
0.0802713
0.0789998
0.0746079
0.0717381
0.0755338
0.076383
0.0715731
0.0713301
0.0688273
0.0654049
0.0658611
0.0654498
0.0612131
0.0608156
0.0590227
0.0541702
0.0546546
0.0546839
0.0457658
0.0468242
0.048464
0.0323255
0.0289814
0.0298578
0.0233228
0.0189515
0.0192026
0.039938
0.0432151
0.0480717
0.0978853
0.0994198
0.106705
0.153499
0.147054
0.143485
0.167099
0.16882
0.168479
0.162023
0.166164
0.166732
0.169537
0.167332
0.156741
0.150394
0.161597
0.165289
0.159795
0.154922
0.142709
0.143897
0.156741
0.161213
0.157816
0.152699
0.139684
0.134106
0.146829
0.152825
0.155458
0.150528
0.137741
0.134668
0.147431
0.152922
0.148529
0.142735
0.129725
0.134128
0.146748
0.151553
0.149393
0.144057
0.131219
0.127055
0.139361
0.145261
0.148344
0.143683
0.131727
0.129512
0.141641
0.146809
0.143095
0.1375
0.125526
0.130362
0.141822
0.146245
0.145098
0.140177
0.128507
0.124889
0.136352
0.14174
0.144963
0.140697
0.129625
0.127662
0.13906
0.143883
0.14079
0.13547
0.124147
0.129227
0.140066
0.144176
0.14348
0.138775
0.127613
0.124409
0.135503
0.140641
0.144037
0.140042
0.129354
0.127807
0.138824
0.143451
0.140757
0.135688
0.124684
0.129581
0.140236
0.144165
0.143683
0.139074
0.128036
0.125012
0.136073
0.141135
0.14474
0.140951
0.130411
0.129035
0.139621
0.144324
0.141774
0.137044
0.125274
0.13107
0.141902
0.145512
0.143862
0.139487
0.128782
0.133167
0.143566
0.147238
0.147282
0.143041
0.132617
0.130322
0.140524
0.145138
0.148448
0.144772
0.134364
0.133285
0.143852
0.1484
0.14629
0.141816
0.13048
0.135812
0.146632
0.150106
0.148487
0.144126
0.133327
0.13824
0.148336
0.151833
0.152383
0.148357
0.138379
0.136062
0.145949
0.150351
0.153725
0.150097
0.139499
0.137475
0.148092
0.152439
0.156183
0.152882
0.143079
0.142962
0.152729
0.156671
0.154513
0.150095
0.140219
0.144073
0.154254
0.157702
0.156852
0.152787
0.142722
0.148148
0.157532
0.160561
0.16098
0.157196
0.147661
0.144869
0.15456
0.158889
0.162259
0.158996
0.149249
0.148182
0.157799
0.161623
0.165225
0.162308
0.152983
0.152218
0.16179
0.165538
0.163602
0.159295
0.149449
0.153966
0.163812
0.166877
0.166265
0.162508
0.152723
0.157614
0.16692
0.169713
0.170071
0.166549
0.156748
0.15431
0.163718
0.168249
0.171601
0.168672
0.158655
0.15736
0.16727
0.171002
0.174644
0.171912
0.162293
0.160645
0.17018
0.173774
0.176814
0.173891
0.164227
0.163712
0.173352
0.177211
0.175796
0.171953
0.161437
0.166367
0.176435
0.179424
0.178471
0.174649
0.164617
0.168588
0.178709
0.181556
0.18073
0.17697
0.166864
0.171723
0.181234
0.183905
0.18476
0.181135
0.171794
0.169205
0.179691
0.183366
0.18676
0.183651
0.173425
0.171329
0.181664
0.185593
0.188811
0.186031
0.176022
0.174972
0.184695
0.188275
0.191632
0.189057
0.179421
0.178068
0.187573
0.191026
0.193878
0.191333
0.18204
0.181159
0.190475
0.194163
0.192749
0.189034
0.178181
0.183256
0.19325
0.196305
0.195641
0.191889
0.18177
0.18623
0.196303
0.198811
0.198004
0.194496
0.184468
0.188181
0.198347
0.200999
0.200439
0.196795
0.186675
0.191783
0.201232
0.203677
0.204626
0.201142
0.191703
0.189263
0.199724
0.203355
0.206757
0.203763
0.193654
0.19148
0.201891
0.205738
0.20885
0.206149
0.195836
0.19455
0.204666
0.208336
0.21188
0.20942
0.199543
0.198257
0.207953
0.211418
0.214439
0.211978
0.20231
0.200944
0.210548
0.213979
0.217023
0.214633
0.205271
0.204796
0.214294
0.21779
0.216499
0.212818
0.202383
0.206943
0.216958
0.219849
0.219185
0.215475
0.205133
0.209668
0.220007
0.222473
0.221876
0.21833
0.208003
0.212092
0.222495
0.224977
0.224405
0.220808
0.210441
0.215159
0.225262
0.227685
0.227441
0.224019
0.213939
0.218643
0.228277
0.230581
0.231695
0.228378
0.218355
0.216454
0.226265
0.230466
0.233541
0.231019
0.220335
0.218334
0.229127
0.232918
0.236449
0.233969
0.2232
0.221776
0.232404
0.236067
0.239587
0.237228
0.226678
0.225094
0.235561
0.239075
0.242088
0.239635
0.229137
0.227703
0.238143
0.241704
0.244996
0.242685
0.232658
0.232402
0.242506
0.246052
0.244698
0.240894
0.229584
0.234306
0.245033
0.24816
0.247417
0.243497
0.232231
0.237241
0.248352
0.250942
0.250443
0.246642
0.235449
0.240519
0.251544
0.253982
0.253612
0.249957
0.239017
0.24374
0.254567
0.257041
0.256726
0.253084
0.242152
0.247203
0.257602
0.259999
0.261267
0.257749
0.246738
0.244902
0.255347
0.260107
0.263694
0.261297
0.249879
0.248121
0.259479
0.263389
0.267184
0.264702
0.253106
0.251187
0.262773
0.266693
0.270392
0.267841
0.256303
0.254795
0.266169
0.270049
0.273769
0.271283
0.260075
0.258908
0.270037
0.273769
0.27749
0.275153
0.264572
0.264446
0.275498
0.279005
0.277639
0.272952
0.262105
0.266277
0.278319
0.280859
0.280277
0.276114
0.264003
0.269408
0.281634
0.28421
0.284173
0.280063
0.268025
0.274498
0.286193
0.288555
0.288578
0.284806
0.27334
0.27823
0.289813
0.292326
0.291988
0.288048
0.276329
0.281544
0.292877
0.295499
0.297266
0.293311
0.281468
0.279551
0.291491
0.296326
0.300394
0.297543
0.284971
0.283636
0.296203
0.300499
0.305378
0.302964
0.290662
0.288558
0.300945
0.304906
0.308279
0.305433
0.292835
0.290807
0.303468
0.307752
0.311887
0.309184
0.297087
0.297323
0.309906
0.314033
0.31322
0.308319
0.295412
0.302036
0.314696
0.317665
0.317176
0.312829
0.299729
0.305525
0.318623
0.321493
0.321006
0.316575
0.303277
0.309486
0.322423
0.325372
0.325608
0.321235
0.308162
0.315402
0.327722
0.330341
0.333541
0.329626
0.316847
0.31572
0.328199
0.333016
0.337209
0.334289
0.320869
0.317939
0.331718
0.336429
0.340869
0.337903
0.324194
0.322697
0.33648
0.341076
0.346288
0.343534
0.330591
0.331854
0.34529
0.349573
0.349399
0.344392
0.330926
0.337849
0.351641
0.354402
0.353521
0.348954
0.334517
0.339851
0.354263
0.357524
0.357519
0.352596
0.338042
0.347075
0.360437
0.363248
0.366909
0.362443
0.34837
0.347855
0.361893
0.367204
0.373057
0.370314
0.356405
0.353241
0.367934
0.372517
0.376592
0.373357
0.358914
0.357766
0.373393
0.378369
0.37782
0.371019
0.356101
0.365671
0.381177
0.384007
0.386303
0.381384
0.366405
0.37731
0.391122
0.3933
0.395839
0.391478
0.376527
0.371998
0.388224
0.394039
0.399156
0.395111
0.379026
0.377092
0.393984
0.399621
0.407012
0.404141
0.389549
0.393665
0.409001
0.413165
0.413018
0.407253
0.392712
0.397832
0.414469
0.418003
0.417561
0.411821
0.394432
0.40449
0.420562
0.423867
0.428659
0.423037
0.406124
0.407601
0.424886
0.430827
0.439877
0.437428
0.421402
0.417494
0.434561
0.439478
0.444369
0.440754
0.42416
0.423216
0.441211
0.446923
0.448142
0.440941
0.422909
0.442232
0.455701
0.457802
0.464927
0.461562
0.447273
0.442534
0.458992
0.464478
0.469846
0.466014
0.448974
0.447971
0.467833
0.473287
0.475975
0.467651
0.449306
0.470758
0.485167
0.486643
0.494252
0.490436
0.474235
0.46846
0.487354
0.493713
0.500063
0.496553
0.477886
0.480744
0.500126
0.505959
0.509851
0.505149
0.483304
0.501248
0.519547
0.521404
0.526201
0.520877
0.498704
0.496553
0.519507
0.527324
0.538207
0.536998
0.523603
0.530888
0.546111
0.548287
0.552858
0.547575
0.52696
0.522184
0.545976
0.553738
0.563862
0.563164
0.549459
0.55476
0.571346
0.57296
0.577832
0.57335
0.54897
0.552501
0.579414
0.584577
0.583944
0.576674
0.548835
0.562147
0.586634
0.590168
0.590135
0.586424
0.560226
0.554433
0.584239
0.590344
0.588895
0.581092
0.543262
0.527144
0.572132
0.582642
0.568848
0.554957
0.497766
0.456989
0.525752
0.544408
0.518926
0.496358
0.418138
0.391918
0.475263
0.501114
0.488257
0.459488
0.371843
0.354356
0.444734
0.476487
0.466173
0.431711
0.338366
0.32458
0.419348
0.456404
0.448145
0.408825
0.312438
0.301923
0.398544
0.439879
0.43275
0.389672
0.292259
0.28364
0.380672
0.425299
0.418879
0.372932
0.275674
0.268508
0.364993
0.411977
0.406186
0.358343
0.261962
0.256148
0.351479
0.39997
0.394874
0.345891
0.250884
0.246211
0.339979
0.389207
0.384664
0.335289
0.242004
0.238294
0.330207
0.379581
0.375593
0.326288
0.23497
0.23203
0.321895
0.370946
0.367377
0.31858
0.229417
0.227132
0.314781
0.363206
0.360067
0.311973
0.225267
0.223514
0.308691
0.356277
0.353548
0.306324
0.22228
0.220934
0.303489
0.35016
0.347873
0.301604
0.220193
0.219165
0.299158
0.344807
0.342932
0.297607
0.218781
0.217992
0.2955
0.340216
0.338718
0.294328
0.217881
0.217283
0.292521
0.336277
0.33512
0.2916
0.217368
0.216919
0.290064
0.332979
0.332125
0.289446
0.217159
0.21683
0.288142
0.330201
0.329615
0.287707
0.217178
0.216932
0.286599
0.327924
0.327567
0.286397
0.217363
0.217197
0.285471
0.326049
0.325898
0.285401
0.217696
0.217578
0.284619
0.324559
0.324574
0.284726
0.218121
0.218059
0.284083
0.323366
0.323533
0.284279
0.218646
0.218613
0.28374
0.322461
0.322746
0.28407
0.219224
0.219235
0.283639
0.321774
0.322169
0.284022
0.219875
0.2199
0.283664
0.321305
0.321817
0.28415
0.220548
0.220604
0.283873
0.321022
0.321558
0.284388
0.221275
0.221338
0.284157
0.320842
0.32143
0.284745
0.22201
0.222102
0.284574
0.320772
0.321409
0.285172
0.222791
0.222886
0.285035
0.320813
0.321483
0.28569
0.223567
0.223677
0.285592
0.320924
0.321622
0.28624
0.224369
0.224477
0.286161
0.321111
0.321827
0.286854
0.225157
0.225275
0.286801
0.321344
0.322076
0.287475
0.225959
0.226071
0.287428
0.321628
0.322366
0.288135
0.22674
0.226847
0.288093
0.32193
0.322676
0.288774
0.227513
0.227621
0.288731
0.322274
0.323021
0.289443
0.228271
0.228361
0.289391
0.322617
0.323361
0.290068
0.228995
0.229078
0.29001
0.322985
0.323726
0.290715
0.229696
0.229765
0.29065
0.323348
0.324083
0.291311
0.230365
0.230422
0.291236
0.323725
0.324453
0.291915
0.231002
0.231045
0.291834
0.32409
0.324811
0.29247
0.231606
0.231633
0.292377
0.324465
0.325175
0.293028
0.232171
0.232182
0.292928
0.324819
0.325523
0.293538
0.232703
0.232702
0.293429
0.325185
0.325879
0.294057
0.233203
0.233187
0.29394
0.325529
0.326216
0.294527
0.233672
0.233644
0.2944
0.325882
0.326558
0.295006
0.234111
0.23407
0.294871
0.326211
0.32688
0.295436
0.234523
0.234471
0.295292
0.326547
0.327205
0.295877
0.234908
0.234846
0.295725
0.326859
0.32751
0.296271
0.235272
0.235198
0.29611
0.327177
0.327816
0.296674
0.23561
0.235527
0.296505
0.327467
0.3281
0.297031
0.235929
0.235838
0.296854
0.327764
0.328387
0.2974
0.236229
0.23613
0.297216
0.328035
0.328651
0.297725
0.236512
0.236405
0.297532
0.328312
0.328918
0.298061
0.236777
0.236663
0.297861
0.328562
0.329163
0.298353
0.237028
0.236907
0.298146
0.32882
0.32941
0.29866
0.237264
0.237137
0.298446
0.32905
0.329635
0.298924
0.237487
0.237352
0.298703
0.329288
0.329863
0.299202
0.237693
0.237554
0.298975
0.329499
0.330069
0.299438
0.237889
0.237743
0.299205
0.329717
0.330278
0.29969
0.23807
0.23792
0.299451
0.329908
0.330465
0.299901
0.238243
0.238086
0.299657
0.330109
0.330656
0.300129
0.238402
0.238242
0.29988
0.330283
0.330828
0.300318
0.238554
0.23839
0.300064
0.330467
0.331004
0.300526
0.238696
0.238529
0.300268
0.330627
0.331163
0.300697
0.238833
0.238662
0.300435
0.330798
0.331326
0.300888
0.23896
0.238788
0.300623
0.330945
0.331472
0.301043
0.239084
0.238908
0.300774
0.331105
0.331624
0.301219
0.2392
0.239021
0.300947
0.33124
0.331758
0.30136
0.239312
0.23913
0.301084
0.331388
0.331899
0.301522
0.239416
0.239234
0.301243
0.331513
0.332024
0.30165
0.239518
0.239332
0.301368
0.33165
0.332155
0.301799
0.239613
0.239426
0.301515
0.331765
0.332269
0.301915
0.239706
0.239515
0.301628
0.331893
0.33239
0.302053
0.239791
0.2396
0.301763
0.331998
0.332495
0.302157
0.239875
0.239681
0.301865
0.332116
0.332608
0.302284
0.239952
0.239757
0.301989
0.332212
0.332703
0.302378
0.240027
0.239829
0.30208
0.332321
0.332807
0.302494
0.240096
0.239897
0.302194
0.332408
0.332894
0.302578
0.240164
0.239963
0.302276
0.332509
0.332989
0.302685
0.240226
0.240025
0.302381
0.332588
0.33307
0.302761
0.240288
0.240085
0.302456
0.332683
0.33316
0.302862
0.240346
0.240143
0.302555
0.332757
0.333236
0.302932
0.240406
0.240202
0.302626
0.332848
0.333324
0.303031
0.240464
0.240261
0.302724
0.332921
0.333399
0.3031
0.240525
0.240322
0.302794
0.333013
0.333488
0.3032
0.240586
0.240385
0.302894
0.333088
0.333567
0.303273
0.240652
0.240451
0.302969
0.333183
0.333661
0.303377
0.240719
0.240521
0.303074
0.333264
0.333746
0.303456
0.240792
0.240595
0.303155
0.333366
0.333845
0.303566
0.240865
0.240669
0.303265
0.33345
0.333933
0.303647
0.240942
0.240745
0.303347
0.333554
0.334033
0.303757
0.241014
0.240817
0.303454
0.333637
0.334118
0.303834
0.241086
0.240886
0.303531
0.333737
0.334213
0.303938
0.241152
0.240951
0.303632
0.333815
0.334295
0.304034
0.241218
0.241015
0.303731
0.333916
0.334391
0.304107
0.241349
0.241143
0.303807
0.334026
0.334553
0.304221
0.241397
0.241182
0.303953
0.334179
0.334766
0.304426
0.241566
0.241336
0.304194
0.334449
0.335185
0.30476
0.241786
0.241596
0.30465
0.334939
0.335811
0.305273
0.242108
0.242458
0.305718
0.336431
0.339519
0.307832
0.244644
0.247805
0.311085
0.343497
0.346667
0.314423
0.25128
0.378759
0.397581
0.403214
0.406412
0.415825
0.420469
0.423834
0.426842
0.432862
0.43665
0.441201
0.444775
0.4474
0.449419
0.450919
0.452033
0.452858
0.453472
0.453935
0.454289
0.454565
0.454782
0.454956
0.455096
0.455211
0.455303
0.455379
0.455437
0.45548
0.455509
0.455525
0.455534
0.455544
0.455548
0.455553
0.455559
0.455564
0.455568
0.455569
0.455566
0.455558
0.455543
0.455519
0.455486
0.455443
0.455391
0.455333
0.455276
0.455219
0.455143
0.455028
0.454873
0.454686
0.454475
0.454241
0.453982
0.453695
0.453375
0.453018
0.45262
0.452174
0.451673
0.45111
0.450475
0.44976
0.448955
0.448051
0.447036
0.445899
0.444628
0.443209
0.44163
0.439876
0.437934
0.435791
0.433432
0.430848
0.428028
0.424966
0.421658
0.418103
0.414303
0.410267
0.406001
0.401522
0.396843
0.391987
0.386971
0.381821
0.376557
0.371207
0.365789
0.36033
0.354852
0.349373
0.343914
0.338492
0.333123
0.327822
0.322599
0.317468
0.312436
0.307512
0.302702
0.298009
0.293441
0.288998
0.284684
0.280498
0.276443
0.272517
0.268722
0.265054
0.261512
0.258096
0.254801
0.251629
0.248573
0.245634
0.242807
0.24009
0.23748
0.234975
0.23257
0.230264
0.228054
0.225936
0.223907
0.221966
0.220109
0.218333
0.216636
0.215015
0.213468
0.211992
0.210585
0.209244
0.207968
0.206754
0.2056
0.204504
0.203464
0.202479
0.201546
0.200664
0.199831
0.199045
0.198306
0.197612
0.196962
0.196354
0.195787
0.19526
0.194774
0.194325
0.193915
0.193541
0.193205
0.192906
0.192643
0.192417
0.192229
0.19208
0.191967
0.191886
0.191839
0.191819
0.191813
0.191809
0.191808
0.191805
0.191797
0.191766
0.191668
0.191471
0.191183
0.190837
0.190466
0.190089
0.189708
0.18932
0.188921
0.188506
0.188075
0.187626
0.18716
0.186677
0.186178
0.185665
0.185137
0.184597
0.184043
0.183478
0.182901
0.182315
0.18172
0.181118
0.180508
0.179894
0.179275
0.178654
0.17803
0.177407
0.176785
0.176165
0.175549
0.174938
0.174334
0.173737
0.173149
0.172572
0.172006
0.171453
0.170914
0.17039
0.169884
0.169394
0.168919
0.168455
0.167996
0.167539
0.167091
0.166685
0.166385
0.166239
0.166229
0.16629
0.166366
0.166427
0.166455
0.166452
0.166412
0.166232
0.166257
0.166244
0.166195
0.166119
0.166016
0.165891
0.165744
0.165581
0.165401
0.165201
0.164976
0.164742
0.164494
0.164238
0.163965
0.163683
0.163386
0.163081
0.162761
0.162434
0.162091
0.161741
0.161376
0.161005
0.160618
0.160225
0.159816
0.1594
0.158968
0.15853
0.158073
0.157611
0.15713
0.156642
0.156135
0.15562
0.155086
0.154543
0.153981
0.153409
0.152816
0.152212
0.151587
0.150951
0.150293
0.149622
0.148927
0.148219
0.147486
0.146739
0.145965
0.145175
0.144359
0.143524
0.142661
0.141778
0.140867
0.139934
0.138971
0.137986
0.13697
0.13593
0.134858
0.133762
0.132633
0.131478
0.130291
0.129076
0.127829
0.126555
0.125248
0.123914
0.122549
0.121158
0.119738
0.118295
0.116825
0.115336
0.113826
0.112301
0.110762
0.109217
0.107666
0.106118
0.104576
0.103049
0.101539
0.100059
0.0986104
0.0972074
0.0958514
0.0945584
0.0933258
0.0921735
0.091095
0.0901092
0.0892044
0.088401
0.0876792
0.0870622
0.0865209
0.0860806
0.0857062
0.0854282
0.0851929
0.0850521
0.0849317
0.0849023
0.084871
0.0849234
0.0849583
0.0850682
0.0851499
0.085297
0.08541
0.0855805
0.0857126
0.0858959
0.0860397
0.0862306
0.0863808
0.0865774
0.0867309
0.086926
0.0870785
0.0872694
0.0874221
0.0876214
0.0877958
0.0880591
0.088298
0.0885049
0.0887643
0.0921227
0.0943181
0.0942387
0.0919912
0.0918678
0.0941722
0.0941
0.0916947
0.0914234
0.0937878
0.0957304
0.0955751
0.0956245
0.0957004
0.0967627
0.0966219
0.0963987
0.0981063
0.0981017
0.0981264
0.0990704
0.0990246
0.0989267
0.0984664
0.0983525
0.0955049
0.0939003
0.0913787
0.0911783
0.0935792
0.093708
0.0911335
0.0909476
0.0934041
0.0953397
0.0952024
0.0935416
0.0909015
0.0907156
0.0932398
0.093388
0.0906742
0.0904937
0.093091
0.0950821
0.0949823
0.0932533
0.0904618
0.0902899
0.0929635
0.0931428
0.090271
0.090111
0.0928628
0.0949067
0.094858
0.0930618
0.0901094
0.089966
0.092795
0.0930178
0.0899855
0.0898676
0.0927721
0.094843
0.0948798
0.0930297
0.0899191
0.0898389
0.0928178
0.0931191
0.0899338
0.0899052
0.0929559
0.0949929
0.0952141
0.0933151
0.090064
0.090105
0.0932166
0.0936532
0.0903468
0.0904844
0.0936457
0.0955856
0.0961594
0.0941935
0.0908377
0.0910948
0.0943001
0.0949734
0.091577
0.0919815
0.0952226
0.0969848
0.0981084
0.0960415
0.0926106
0.0931865
0.0964542
0.0974305
0.0939762
0.0947341
0.0980173
0.099562
0.101353
0.0991515
0.0956868
0.0966237
0.0999096
0.101189
0.0977298
0.0988298
0.102103
0.10346
0.105838
0.103511
0.100071
0.101309
0.104559
0.106055
0.102659
0.104004
0.107199
0.108424
0.111152
0.108762
0.105429
0.106844
0.109977
0.111577
0.10832
0.109776
0.112835
0.113961
0.116802
0.114447
0.111277
0.11275
0.115724
0.117327
0.114253
0.115723
0.118601
0.119637
0.122431
0.120179
0.117212
0.11866
0.121435
0.122976
0.120118
0.121529
0.124202
0.125161
0.127807
0.125696
0.122946
0.12431
0.126883
0.128323
0.12568
0.12699
0.129464
0.130357
0.132802
0.130846
0.128307
0.129561
0.131938
0.133259
0.130822
0.132016
0.1343
0.135137
0.13736
0.135559
0.13322
0.134355
0.136548
0.137746
0.135501
0.136577
0.138683
0.139471
0.141473
0.139821
0.137667
0.138685
0.140706
0.141786
0.139719
0.140681
0.142622
0.143366
0.145156
0.143645
0.141662
0.14257
0.144433
0.145402
0.143499
0.144355
0.146143
0.146846
0.148439
0.147059
0.145235
0.146041
0.147755
0.148621
0.146872
0.147631
0.149274
0.149938
0.151348
0.150091
0.148416
0.149131
0.150704
0.151475
0.149873
0.150545
0.15205
0.152673
0.153919
0.152777
0.151246
0.15188
0.153317
0.154003
0.152542
0.153139
0.15451
0.155089
0.156187
0.155156
0.153765
0.154327
0.155631
0.15624
0.154918
0.155448
0.156686
0.157218
0.158183
0.157259
0.156006
0.156505
0.157678
0.158215
0.157032
0.157501
0.158608
0.159087
0.159932
0.159112
0.157998
0.158439
0.15948
0.159952
0.158906
0.159321
0.160296
0.16072
0.161452
0.160736
0.15976
0.16015
0.161058
0.161468
0.160562
0.160928
0.161769
0.162131
0.162758
0.16215
0.161314
0.161657
0.162431
0.162782
0.162017
0.162337
0.163044
0.163337
0.163867
0.163367
0.162673
0.162971
0.16361
0.163905
0.163282
0.163559
0.164129
0.164351
0.164787
0.164397
0.163845
0.164099
0.164602
0.164841
0.16436
0.164592
0.165027
0.165175
0.165515
0.165237
0.164827
0.165036
0.165403
0.165585
0.165244
0.165429
0.16573
0.165805
0.166049
0.165883
0.165611
0.165773
0.16601
0.166136
0.165929
0.166062
0.166237
0.166246
0.166384
0.166327
0.166178
0.166276
0.166398
0.166454
0.166358
0.166423
0.166498
0.166467
0.166502
0.166524
0.166469
0.166495
0.166538
0.166529
0.166496
0.166468
0.166499
0.166494
0.166431
0.166413
0.166372
0.166297
0.166179
0.166016
0.165809
0.165558
0.165262
0.16492
0.164534
0.164102
0.163626
0.163103
0.162532
0.161911
0.161238
0.16051
0.159726
0.158884
0.157982
0.157015
0.155981
0.154877
0.153698
0.152442
0.151104
0.14968
0.148165
0.146555
0.144844
0.143029
0.141104
0.139066
0.136914
0.134645
0.132261
0.129763
0.127156
0.12445
0.121659
0.118806
0.115923
0.11305
0.110248
0.107586
0.105143
0.102997
0.101222
0.0998527
0.098877
0.0982429
0.0978799
0.0977128
0.0976681
0.097688
0.0977463
0.09783
0.0979211
0.098011
0.0980992
0.0981852
0.0982676
0.100241
0.100287
0.100336
0.100037
0.100027
0.100028
0.100752
0.100727
0.100673
0.101493
0.101479
0.101472
0.102043
0.102032
0.102003
0.10175
0.101741
0.102907
0.102883
0.102652
0.10263
0.102614
0.103076
0.10308
0.10307
0.103608
0.103573
0.103544
0.103916
0.103938
0.103948
0.103821
0.103879
0.103927
0.102921
0.101726
0.101699
0.100188
0.100123
0.100043
0.101598
0.101658
0.102916
0.102925
0.103965
0.103994
0.104007
0.102888
0.102831
0.101512
0.0999468
0.0998297
0.101388
0.101216
0.0996912
0.0995314
0.100981
0.102289
0.102559
0.102729
0.10394
0.103995
0.105059
0.105007
0.104939
0.104864
0.104783
0.104695
0.104592
0.104395
0.104338
0.104287
0.104558
0.104606
0.104642
0.104965
0.104879
0.104798
0.104888
0.104974
0.105054
0.105128
0.105283
0.105115
0.105018
0.10495
0.104891
0.104816
0.104731
0.104
0.103968
0.1036
0.101571
0.0981334
0.0999233
0.102736
0.102806
0.100374
0.100615
0.10311
0.104047
0.104101
0.103156
0.102948
0.100506
0.100645
0.100573
0.103005
0.10323
0.104169
0.104236
0.104367
0.104481
0.105187
0.105292
0.105427
0.105568
0.105712
0.105859
0.1059
0.105792
0.105682
0.105577
0.105481
0.105375
0.104756
0.104625
0.103749
0.103504
0.103594
0.103351
0.10346
0.103219
0.103328
0.103094
0.100704
0.100755
0.100895
0.100862
0.101069
0.101045
0.101257
0.10124
0.101455
0.101444
0.103663
0.103903
0.103832
0.10167
0.101663
0.101891
0.104075
0.104912
0.105059
0.104247
0.104009
0.101899
0.102124
0.10215
0.104196
0.104437
0.105226
0.105391
0.105573
0.105761
0.106028
0.106139
0.106009
0.106155
0.105081
0.105033
0.103809
0.103547
0.103087
0.101888
0.100674
0.0993453
0.0991652
0.100287
0.0998651
0.0990726
0.0991521
0.0995693
0.0998286
0.100599
0.101331
0.102373
0.101359
0.100081
0.100197
0.102075
0.103441
0.104335
0.104829
0.10623
0.10627
0.106732
0.106602
0.106411
0.106293
0.106189
0.105966
0.105315
0.105074
0.105069
0.104832
0.104846
0.104606
0.104632
0.104395
0.102409
0.102379
0.102643
0.102694
0.102934
0.102991
0.10324
0.103321
0.10358
0.103675
0.105339
0.10558
0.105627
0.104072
0.103946
0.104358
0.105875
0.106429
0.106705
0.1062
0.10595
0.104506
0.104808
0.104998
0.106305
0.106572
0.107008
0.107401
0.106977
0.107105
0.107273
0.108205
0.107819
0.107602
0.107249
0.107027
0.106728
0.105574
0.105333
0.105959
0.106284
0.106782
0.107311
0.107951
0.108329
0.108591
0.108362
0.10792
0.108637
0.108716
0.108221
0.107073
0.105735
0.104518
0.102512
0.0997633
0.100154
0.101938
0.103589
0.104872
0.105904
0.106681
0.107767
0.106876
0.105632
0.106299
0.106934
0.107538
0.108003
0.10839
0.10862
0.108575
0.108353
0.107966
0.107511
0.106904
0.10626
0.105515
0.105561
0.104787
0.104119
0.102244
0.100079
0.0974709
0.0978665
0.0955981
0.0961785
0.0981769
0.0989904
0.0993522