/*--------------------------------*- C++ -*----------------------------------*\
| =========                 |                                                 |
| \\      /  F ield         | OpenFOAM: The Open Source CFD Toolbox           |
|  \\    /   O peration     | Version:  v2006                                 |
|   \\  /    A nd           | Website:  www.openfoam.com                      |
|    \\/     M anipulation  |                                                 |
\*---------------------------------------------------------------------------*/
FoamFile
{
    version     2.0;
    format      ascii;
    class       volScalarField;
    location    "0.04";
    object      nut;
}
// * * * * * * * * * * * * * * * * * * * * * * * * * * * * * * * * * * * * * //

dimensions      [0 2 -1 0 0 0 0];


internalField   nonuniform List<scalar> 
10108
(
17.9704
80.0663
30.6047
25.7221
20.8261
8.65075
2.7471
1.21657
0.731793
0.541683
0.452505
0.402598
0.368672
0.341463
0.31777
0.296708
0.278095
0.261833
0.247732
0.235521
0.224902
0.215603
0.207399
0.200117
0.193625
0.187823
0.182635
0.178002
0.173876
0.170218
0.166997
0.164189
0.161773
0.159734
0.158063
0.156752
0.155797
0.155197
0.154965
0.155109
0.15564
0.156579
0.157956
0.159812
0.162201
0.165197
0.168898
0.173421
0.178893
0.18542
0.193049
0.201753
0.211539
0.222889
0.237766
0.262204
0.311903
0.427332
0.721444
1.51542
3.34025
4.9777
3.73953
4.59949
1.48008
0.661608
0.343274
0.189947
0.0888873
0.018279
0.00337537
0.000113185
9.78753e-05
0.00165759
0.00725728
0.00462533
0.00121392
8.77833e-05
7.89214e-05
0.00105971
0.00372283
0.00317927
0.000964666
7.41943e-05
6.91186e-05
0.000880269
0.00283746
0.00256556
0.00083071
6.57507e-05
6.29381e-05
0.000787361
0.002414
0.00225235
0.000753106
6.05389e-05
5.8983e-05
0.000738713
0.00217471
0.00205647
0.000710254
5.73437e-05
5.63221e-05
0.000702516
0.00201348
0.00192587
0.0006796
5.50841e-05
5.43577e-05
0.000674733
0.00189486
0.001824
0.000655601
5.3392e-05
5.28443e-05
0.000651986
0.00180028
0.00174017
0.000635716
5.20698e-05
5.16343e-05
0.000632595
0.00172148
0.00166897
0.00061854
5.09845e-05
5.0625e-05
0.000615765
0.0016539
0.00160712
0.000603332
5.00663e-05
4.97614e-05
0.000600848
0.00159465
0.00155254
0.000589658
4.92691e-05
4.90032e-05
0.000587391
0.00154178
0.00150365
0.000577167
4.85604e-05
4.83236e-05
0.000575102
0.00149421
0.00145932
0.000565659
4.79186e-05
4.77039e-05
0.000563777
0.00145095
0.00141876
0.000554972
4.73286e-05
4.71311e-05
0.000553258
0.00141128
0.00138137
0.000544983
4.67793e-05
4.65955e-05
0.000543418
0.00137462
0.00134664
0.000535586
4.62628e-05
4.609e-05
0.000534151
0.00134053
0.00131416
0.000526688
4.57727e-05
4.56088e-05
0.000525368
0.00130863
0.00128369
0.000518217
4.53039e-05
4.51472e-05
0.000517002
0.00127868
0.001255
0.000510121
4.48523e-05
4.47014e-05
0.000509003
0.00125043
0.00122788
0.000502353
4.44146e-05
4.42684e-05
0.000501323
0.00122369
0.00120213
0.00049487
4.3988e-05
4.38455e-05
0.000493918
0.00119826
0.00117759
0.000487632
4.357e-05
4.34304e-05
0.000486751
0.001174
0.00115412
0.000480605
4.31583e-05
4.30209e-05
0.000479786
0.00115075
0.00113157
0.000473752
4.2751e-05
4.26151e-05
0.000472988
0.0011284
0.00110984
0.000467041
4.23461e-05
4.22111e-05
0.000466323
0.00110683
0.00108881
0.000460439
4.19419e-05
4.18072e-05
0.00045976
0.00108593
0.0010684
0.000453919
4.15367e-05
4.14017e-05
0.000453272
0.00106561
0.00104849
0.00044745
4.11286e-05
4.09929e-05
0.000446828
0.00104578
0.00102901
0.000441004
4.07161e-05
4.05791e-05
0.000440402
0.00102634
0.00100987
0.000434556
4.02974e-05
4.01584e-05
0.000433969
0.00100721
0.00099099
0.000428081
3.98705e-05
3.97289e-05
0.00042751
0.000988328
0.000972312
0.000421565
3.94337e-05
3.92889e-05
0.000420986
0.000969632
0.000953785
0.000414983
3.8985e-05
3.88364e-05
0.000414409
0.000951079
0.000935372
0.00040834
3.85229e-05
3.83703e-05
0.000407772
0.000932634
0.000917044
0.000401625
3.8046e-05
3.78891e-05
0.000401062
0.000914269
0.000898774
0.000394827
3.7553e-05
3.73915e-05
0.000394274
0.000895964
0.000880551
0.000387946
3.70426e-05
3.68764e-05
0.000387415
0.00087777
0.000862402
0.000380994
3.65135e-05
3.63425e-05
0.000380503
0.000859723
0.000844362
0.000373997
3.5965e-05
3.57893e-05
0.000373568
0.000841807
0.000826464
0.00036699
3.53967e-05
3.52164e-05
0.000366655
0.000824119
0.000808828
0.000360031
3.4809e-05
3.46242e-05
0.000359813
0.000806799
0.000791625
0.000353243
3.42032e-05
3.40148e-05
0.000353144
0.000790058
0.000775086
0.000346708
3.35816e-05
3.33911e-05
0.000346783
0.000774156
0.000759515
0.000340571
3.29483e-05
3.27583e-05
0.000340886
0.000759206
0.000745181
0.00033498
3.23096e-05
3.21234e-05
0.000335627
0.000745847
0.000732591
0.000330137
3.16744e-05
3.14961e-05
0.00033121
0.00073448
0.000722197
0.000326251
3.10533e-05
3.08878e-05
0.000327846
0.000725529
0.000714393
0.000323518
3.0459e-05
3.03111e-05
0.000325715
0.000719399
0.000709576
0.000322081
2.99046e-05
2.97783e-05
0.00032492
0.000716459
0.000707987
0.000322015
2.94021e-05
2.93006e-05
0.00032545
0.000716821
0.000709803
0.000323196
2.89613e-05
2.8884e-05
0.000327108
0.000720333
0.000714721
0.000325369
2.85872e-05
2.85264e-05
0.000329568
0.000726463
0.000722404
0.000328245
2.8281e-05
2.8225e-05
0.000332188
0.000734434
0.000731136
0.000329933
2.80532e-05
2.79791e-05
0.000333439
0.000742843
0.000739966
0.00033059
2.78378e-05
2.77488e-05
0.0003338
0.000751444
0.000748333
0.000330842
2.76161e-05
2.75233e-05
0.000333673
0.00075918
0.000755524
0.000330701
2.73977e-05
2.73121e-05
0.000333055
0.000765451
0.00076112
0.000330045
2.71944e-05
2.71268e-05
0.000331952
0.000770045
0.000765093
0.000328918
2.7017e-05
2.696e-05
0.000330449
0.000772999
0.000767607
0.000327446
2.68588e-05
2.68096e-05
0.000328683
0.000774602
0.000768868
0.000325758
2.67176e-05
2.66749e-05
0.000326738
0.000775088
0.000769255
0.000323956
2.6592e-05
2.65552e-05
0.000324749
0.000774719
0.000768996
0.000322139
2.64805e-05
2.64626e-05
0.00032283
0.000773812
0.000768141
0.000320385
2.63719e-05
2.63722e-05
0.000320982
0.000772441
0.000766917
0.000318648
2.62768e-05
2.62969e-05
0.000319206
0.000770834
0.000765447
0.000317337
2.61642e-05
2.63379e-05
0.000318619
0.00077047
0.000772549
0.00031788
2.62747e-05
2.69181e-05
0.00032411
0.000785768
0.0007962
0.000327547
2.69436e-05
2.74224e-05
0.000324439
0.000790532
0.000823399
0.000339495
2.75115e-05
3.43451e-05
0.000339269
0.000832809
0.00233437
0.00453891
0.00712425
0.0100314
0.012808
0.01592
0.0187969
0.0214647
0.0236987
0.0254696
0.0266477
0.0271748
0.0269806
0.0260367
0.0244058
0.0221278
0.0194478
0.0164551
0.0136379
0.0105223
0.00725149
0.00476232
0.00337137
0.00156275
0.000442713
0.000189638
2.2344e-05
1.53503e-05
0.000176978
0.000380433
0.000114513
4.49617e-05
1.028e-05
1.21105e-05
0.000112784
0.000294389
0.000272664
0.000101686
1.28108e-05
1.29044e-05
0.000113983
0.000302379
0.000281551
0.000104392
1.27741e-05
1.27877e-05
0.000109254
0.000292622
0.000279646
0.000103107
1.26816e-05
1.27481e-05
0.000109064
0.000292152
0.000282807
0.000104057
1.26144e-05
1.27324e-05
0.000109275
0.000297368
0.000287896
0.000104923
1.27132e-05
1.28425e-05
0.000110938
0.000303231
0.000294573
0.000107043
1.28113e-05
1.29319e-05
0.000112803
0.000309842
0.000300979
0.000108833
1.29102e-05
1.30361e-05
0.000114771
0.000316721
0.000307693
0.000110724
1.30139e-05
1.31451e-05
0.000116852
0.000323993
0.000314774
0.000112716
1.31224e-05
1.32596e-05
0.000119034
0.000331559
0.000322132
0.000114809
1.32362e-05
1.33795e-05
0.000121344
0.000339578
0.000329856
0.000117021
1.33554e-05
1.35049e-05
0.000123762
0.000347933
0.000338015
0.000119332
1.34799e-05
1.36366e-05
0.000126312
0.000356715
0.000346528
0.000121772
1.3611e-05
1.37744e-05
0.000128975
0.000365922
0.000355515
0.00012431
1.37484e-05
1.39189e-05
0.000131766
0.000375611
0.000364904
0.000126969
1.38919e-05
1.40695e-05
0.000134649
0.000385763
0.000374785
0.000129698
1.40413e-05
1.42265e-05
0.000137611
0.000396385
0.00038511
0.000132479
1.41966e-05
1.43903e-05
0.00014058
0.000407389
0.000395626
0.000135226
1.43591e-05
1.45672e-05
0.000143496
0.000418847
0.000406603
0.000137843
1.45367e-05
1.47754e-05
0.000146308
0.000430992
0.000418553
0.00014032
1.47547e-05
1.50333e-05
0.000149311
0.000445504
0.000433944
0.000143234
1.50607e-05
1.54008e-05
0.000153835
0.000465385
0.000456227
0.000148697
1.54549e-05
1.5795e-05
0.000164032
0.000497211
0.00048719
0.000158644
1.57387e-05
1.60375e-05
0.000176171
0.000534773
0.000521867
0.000169127
1.60058e-05
1.65659e-05
0.000188058
0.000574718
0.000564175
0.000185837
1.67182e-05
1.72527e-05
0.000199454
0.000614776
0.000611838
0.000204839
1.76654e-05
1.84002e-05
0.000220848
0.000663409
0.000658529
0.000218285
1.89939e-05
2.05013e-05
0.000241998
0.000722588
0.000716436
0.000235433
2.21473e-05
2.52864e-05
0.000266188
0.000783406
0.000798161
0.000271228
2.85206e-05
3.52716e-05
0.000332934
0.000891912
0.0008918
0.000399396
2.76631e-05
1.54735e-05
8.81097e-05
0.00029004
0.000810808
0.000273985
2.22448e-05
2.61906e-05
0.000267218
0.000820938
0.00102515
0.000350426
3.21116e-05
3.61916e-05
0.000367397
0.00106631
0.00121952
0.000430961
4.46232e-05
5.43229e-05
0.00049584
0.00134274
0.00133758
0.00057838
4.55405e-05
2.26569e-05
0.00013974
0.000471108
0.00119247
0.000433392
3.89374e-05
4.8995e-05
0.000424913
0.00123999
0.00152453
0.000543539
7.2001e-05
6.42091e-05
0.000651181
0.00161268
0.000650653
0.000198045
3.25136e-05
6.76658e-05
0.000625971
0.00169985
0.00215352
0.00078736
9.42725e-05
9.51549e-05
0.000974801
0.0024798
0.0018864
0.000772543
7.38511e-05
9.14095e-05
0.000926242
0.00129908
0.00111461
0.000698052
7.36795e-05
5.9179e-05
0.000721589
0.00155818
0.002917
0.00141642
9.04563e-05
6.1826e-05
0.000272002
0.000760456
0.0013493
0.00057508
6.39816e-05
6.70392e-05
0.000454495
0.00114565
0.000347773
0.000128218
3.45048e-05
4.07884e-05
0.000383667
0.000782714
0.000731501
0.000328125
4.63235e-05
2.62318e-05
0.000105037
0.000263043
0.000634183
0.000322807
3.23798e-05
3.73353e-05
0.000272142
0.000590871
0.000216716
9.25424e-05
2.2666e-05
2.77691e-05
0.000282076
0.000543605
0.000507964
0.000239647
3.27359e-05
2.02884e-05
8.29331e-05
0.000188372
0.000478879
0.00025036
2.47026e-05
2.92021e-05
0.000211283
0.000444187
0.000165803
7.48435e-05
1.86688e-05
2.24669e-05
0.000224925
0.000429095
0.000397033
0.000191517
2.69578e-05
1.76843e-05
6.942e-05
0.000150018
0.000388795
0.000203854
2.07551e-05
2.50972e-05
0.000173155
0.000353847
0.000135927
6.48699e-05
1.68433e-05
1.94133e-05
0.00018535
0.000352281
0.000319474
0.000159691
2.36104e-05
1.61079e-05
6.10694e-05
0.000124129
0.000318287
0.000168668
1.82207e-05
2.23083e-05
0.000145673
0.00028711
0.000113833
5.71055e-05
1.55172e-05
1.71078e-05
0.000153521
0.000286668
0.000260153
0.000132654
2.09164e-05
1.4972e-05
5.26634e-05
0.000104083
0.000254989
0.000139714
1.57079e-05
1.92394e-05
0.000118108
0.000228821
9.08199e-05
4.5315e-05
1.42144e-05
1.38928e-05
0.000140579
0.000200054
0.000106094
5.90704e-05
1.57653e-05
1.65276e-05
0.000138145
0.000258418
0.000223172
0.00011595
1.97354e-05
1.43239e-05
4.83074e-05
9.27049e-05
0.000210333
0.000118903
1.43937e-05
1.78715e-05
0.000103684
0.000189466
8.10246e-05
4.16825e-05
1.34905e-05
1.27846e-05
0.000118201
0.000166863
9.21053e-05
5.33307e-05
1.51312e-05
1.50847e-05
0.000121038
0.000218145
0.000187562
0.000102072
1.81145e-05
1.33668e-05
4.34349e-05
8.2869e-05
0.000164437
0.000111512
1.28153e-05
1.49231e-05
5.43749e-05
9.24711e-05
0.000212731
0.000118619
1.45932e-05
1.77077e-05
9.96053e-05
0.00018106
8.05412e-05
4.24175e-05
1.32174e-05
1.24733e-05
0.00010924
0.000155916
9.00973e-05
5.31469e-05
1.46684e-05
1.41694e-05
0.000110828
0.000192778
0.000167536
9.54955e-05
1.74734e-05
1.31755e-05
4.2076e-05
7.62322e-05
0.000143969
0.000106385
1.20952e-05
1.43883e-05
5.21188e-05
8.42485e-05
0.000177992
0.000103198
1.37402e-05
1.70472e-05
8.85484e-05
0.000154257
7.17679e-05
4.13886e-05
1.28801e-05
1.17451e-05
9.87924e-05
0.000130273
7.89517e-05
4.99526e-05
1.4121e-05
1.31875e-05
9.36047e-05
0.000154373
0.000134829
8.05202e-05
1.65322e-05
1.24087e-05
4.15207e-05
6.65494e-05
0.000115718
8.99953e-05
1.12108e-05
1.34511e-05
4.84303e-05
7.16777e-05
0.000129252
9.56294e-05
1.18988e-05
1.42516e-05
5.07922e-05
7.88083e-05
0.000148173
8.79169e-05
1.32212e-05
1.64315e-05
7.52723e-05
0.000126274
6.39515e-05
4.13923e-05
1.25773e-05
1.09505e-05
8.60696e-05
0.000106468
6.83538e-05
4.88839e-05
1.34336e-05
1.17872e-05
8.87201e-05
0.000118681
7.45657e-05
5.03062e-05
1.41592e-05
1.28646e-05
8.39562e-05
0.000135252
0.000117132
7.27298e-05
1.61454e-05
1.25637e-05
4.19038e-05
6.19212e-05
9.74063e-05
8.11436e-05
1.08098e-05
1.33519e-05
4.90246e-05
6.49406e-05
0.000105267
8.46082e-05
1.13755e-05
1.36428e-05
5.10389e-05
6.93731e-05
0.000115054
8.52658e-05
1.16945e-05
1.41074e-05
5.11573e-05
7.32369e-05
0.000130102
8.10329e-05
1.26889e-05
1.61168e-05
6.99708e-05
0.000111278
6.13243e-05
4.29936e-05
1.25853e-05
1.06121e-05
7.70477e-05
8.98842e-05
6.22593e-05
4.9632e-05
1.33255e-05
1.12062e-05
7.87544e-05
9.53309e-05
6.54497e-05
5.11595e-05
1.37116e-05
1.16972e-05
7.83254e-05
0.000103662
6.88968e-05
5.12219e-05
1.42571e-05
1.2621e-05
7.77619e-05
0.000118327
0.000103393
6.89292e-05
1.60794e-05
1.25901e-05
4.51634e-05
5.93552e-05
8.62656e-05
7.53312e-05
1.05927e-05
1.35506e-05
5.08947e-05
6.10854e-05
9.22154e-05
7.67943e-05
1.13111e-05
1.38042e-05
5.22078e-05
6.45559e-05
9.77311e-05
7.68848e-05
1.13969e-05
1.39774e-05
5.34387e-05
6.7688e-05
0.000103204
7.87404e-05
1.17153e-05
1.45375e-05
5.47042e-05
7.06721e-05
0.000118165
7.88638e-05
1.28316e-05
1.63775e-05
7.0274e-05
0.000103002
6.04674e-05
4.83757e-05
1.27997e-05
1.07609e-05
7.67859e-05
8.69049e-05
6.26336e-05
5.30065e-05
1.3827e-05
1.14496e-05
7.69537e-05
9.09566e-05
6.48596e-05
5.37742e-05
1.41928e-05
1.17535e-05
7.58234e-05
9.4245e-05
6.71085e-05
5.5289e-05
1.44982e-05
1.20478e-05
7.72196e-05
9.76857e-05
6.917e-05
5.76702e-05
1.50809e-05
1.32657e-05
7.75261e-05
0.000112193
9.94861e-05
7.0551e-05
1.69922e-05
1.32966e-05
5.2138e-05
6.08317e-05
8.72176e-05
7.70735e-05
1.13308e-05
1.44627e-05
5.55297e-05
6.38096e-05
9.21669e-05
7.75523e-05
1.19436e-05
1.48818e-05
5.66895e-05
6.65965e-05
9.53681e-05
7.77549e-05
1.21745e-05
1.51786e-05
5.8634e-05
6.90598e-05
9.90565e-05
7.90258e-05
1.26756e-05
1.58494e-05
6.21712e-05
7.13766e-05
0.000113247
7.94293e-05
1.37828e-05
1.7685e-05
7.26846e-05
0.000100301
6.23911e-05
5.47703e-05
1.40533e-05
1.16297e-05
7.94331e-05
8.75207e-05
6.50561e-05
5.78599e-05
1.50854e-05
1.22949e-05
7.79556e-05
9.1466e-05
6.74298e-05
5.85227e-05
1.55126e-05
1.26067e-05
7.73912e-05
9.33977e-05
6.90208e-05
6.02514e-05
1.57304e-05
1.29169e-05
7.82863e-05
9.6339e-05
7.0509e-05
6.38544e-05
1.63977e-05
1.42092e-05
7.88693e-05
0.000110426
9.90543e-05
7.3395e-05
1.83879e-05
1.44287e-05
5.79617e-05
6.34382e-05
8.86363e-05
8.07791e-05
1.21308e-05
1.5718e-05
6.10537e-05
6.67017e-05
9.39032e-05
7.96938e-05
1.28803e-05
1.63291e-05
6.23271e-05
7.00604e-05
9.69684e-05
8.02267e-05
1.32872e-05
1.66426e-05
6.4611e-05
7.24613e-05
0.000100714
8.24253e-05
1.36318e-05
1.72367e-05
6.84945e-05
7.44924e-05
0.000114762
8.30622e-05
1.48094e-05
1.91581e-05
7.74481e-05
0.000103124
6.67305e-05
6.20395e-05
1.51508e-05
1.28237e-05
8.4496e-05
9.28277e-05
7.0712e-05
6.53452e-05
1.66987e-05
1.36816e-05
8.34841e-05
9.72702e-05
7.34568e-05
6.61858e-05
1.71961e-05
1.37804e-05
8.37741e-05
9.94632e-05
7.53973e-05
6.82505e-05
1.74075e-05
1.42793e-05
8.45929e-05
0.000102916
7.73017e-05
7.27056e-05
1.82772e-05
1.57544e-05
8.62476e-05
0.000117511
0.000106667
8.14843e-05
2.04171e-05
1.63298e-05
6.74965e-05
7.11627e-05
9.81657e-05
8.95639e-05
1.36636e-05
1.78185e-05
7.12111e-05
7.56935e-05
0.000104545
8.94804e-05
1.45304e-05
1.85626e-05
7.3101e-05
7.97138e-05
0.000108867
8.99696e-05
1.52136e-05
1.92825e-05
7.69912e-05
8.17338e-05
0.000122519
9.03472e-05
1.6464e-05
2.13568e-05
8.53617e-05
0.000111288
7.49293e-05
7.06746e-05
1.70509e-05
1.40908e-05
9.3747e-05
0.000101161
7.87635e-05
7.44035e-05
1.86911e-05
1.52332e-05
9.1902e-05
0.000107364
8.2659e-05
7.64896e-05
1.9467e-05
1.58331e-05
9.26483e-05
0.000111964
8.52771e-05
8.15247e-05
2.02948e-05
1.74483e-05
9.50478e-05
0.000127549
0.000116448
9.04531e-05
2.24647e-05
1.80641e-05
7.6722e-05
8.00581e-05
0.000108374
9.89859e-05
1.51609e-05
2.0066e-05
8.1754e-05
8.48904e-05
0.000117672
9.962e-05
1.65262e-05
2.12027e-05
8.61588e-05
8.98022e-05
0.000133446
9.95868e-05
1.81053e-05
2.3398e-05
9.48033e-05
0.000121942
8.41892e-05
8.00799e-05
1.86508e-05
1.56195e-05
0.000103122
0.000112383
8.89007e-05
8.46973e-05
2.08271e-05
1.72089e-05
0.000102178
0.000121111
9.30401e-05
8.95635e-05
2.21432e-05
1.88699e-05
0.000103229
0.000137715
0.000126615
9.8971e-05
2.465e-05
1.97129e-05
8.52684e-05
8.90248e-05
0.000117865
0.000107619
1.63833e-05
2.2212e-05
9.1677e-05
9.27352e-05
0.000136882
0.00010418
1.91338e-05
2.5405e-05
0.000100282
0.000126438
9.00746e-05
8.62596e-05
2.02881e-05
1.70545e-05
0.000107183
0.000117173
9.37488e-05
9.30432e-05
2.25809e-05
1.92172e-05
0.000104496
0.000135675
0.000126119
0.000101322
2.585e-05
2.1386e-05
8.93032e-05
9.14734e-05
0.00011826
0.000108807
1.77484e-05
2.37884e-05
9.60877e-05
9.58794e-05
0.000136845
0.000107185
1.99447e-05
2.61537e-05
0.000103834
0.000127188
9.30036e-05
9.12889e-05
2.14e-05
1.81192e-05
0.000109446
0.000119208
9.74634e-05
9.88306e-05
2.45633e-05
2.09049e-05
0.000109719
0.000139083
0.000130237
0.000107523
2.78267e-05
2.25044e-05
9.74161e-05
9.73101e-05
0.000124955
0.000116349
1.84474e-05
2.54699e-05
0.000105431
0.000102534
0.000147318
0.000115212
2.19235e-05
2.94008e-05
0.000113165
0.000138607
0.000103072
0.000105418
2.44106e-05
2.07727e-05
0.000121284
0.000142156
0.000135801
0.000118846
2.84952e-05
2.51461e-05
0.000107212
0.000103916
0.000142038
0.000122675
2.20729e-05
3.06703e-05
0.000119467
0.000136293
0.0001055
0.000109668
2.57114e-05
2.20254e-05
0.000122238
0.000143141
0.000137263
0.000120114
3.05978e-05
2.694e-05
0.000112198
0.00010687
0.000144714
0.000124862
2.3512e-05
3.21043e-05
0.000121817
0.000139495
0.000109551
0.000114852
2.81485e-05
2.39357e-05
0.00012714
0.000147996
0.000142312
0.000125106
3.39962e-05
2.97321e-05
0.000122781
0.00011304
0.000157307
0.000135834
2.49671e-05
3.56701e-05
0.000141877
0.000150532
0.000141502
0.000137102
3.4318e-05
3.14293e-05
0.000128638
0.000118695
0.000162276
0.000139361
2.7299e-05
3.93435e-05
0.000138868
0.000158436
0.000146466
0.000147808
4.102e-05
3.65825e-05
0.000139371
0.000141926
0.000121332
0.000130211
3.4951e-05
3.09394e-05
0.000138068
0.000159897
0.000156703
0.000135731
4.61834e-05
4.6891e-05
0.000145431
0.000147334
0.000146473
0.000140318
4.98747e-05
5.34531e-05
0.000142978
0.000141312
0.000140172
0.000138693
5.86735e-05
6.28153e-05
0.000143331
0.000139609
0.000139601
0.000144206
6.55723e-05
6.53239e-05
0.00015236
0.000139467
0.000140113
0.000157122
6.29857e-05
6.0477e-05
0.000164701
0.000141612
0.00014403
0.000172475
5.77207e-05
5.51438e-05
0.000180589
0.000148066
0.000151078
0.000188515
5.25519e-05
5.0343e-05
0.000196635
0.000157803
0.000161195
0.000195937
4.82987e-05
4.65918e-05
0.00020164
0.000170142
0.000174732
0.000203707
4.50547e-05
4.37437e-05
0.000206672
0.000188153
0.000194035
0.000208926
4.25529e-05
4.15348e-05
0.00021169
0.000210026
0.00021659
0.000214115
4.06186e-05
3.98407e-05
0.000217427
0.000233016
0.000240266
0.000220335
3.91595e-05
3.85752e-05
0.000223933
0.000256898
0.000264526
0.000227309
3.81033e-05
3.76663e-05
0.000231304
0.00028126
0.000284052
0.000235046
3.73855e-05
3.70296e-05
0.000239218
0.000301366
0.000302671
0.000243493
3.69487e-05
3.66517e-05
0.000247887
0.000319762
0.000321129
0.000252261
3.6725e-05
3.64993e-05
0.000256588
0.000337433
0.000338631
0.000260927
3.6622e-05
3.64901e-05
0.000265071
0.000354339
0.000355266
0.000269114
3.66308e-05
3.65704e-05
0.000273043
0.000370017
0.000370738
0.000276823
3.67054e-05
3.66792e-05
0.000280595
0.000384807
0.000385295
0.000283934
3.68068e-05
3.68011e-05
0.000287394
0.000398332
0.000398733
0.000290401
3.69167e-05
3.69207e-05
0.000293659
0.000411075
0.000411336
0.000296177
3.7026e-05
3.70261e-05
0.000299105
0.000422818
0.000423082
0.000301338
3.71322e-05
3.71244e-05
0.000304022
0.00043401
0.00043415
0.000305874
3.7232e-05
3.72153e-05
0.000308191
0.000444415
0.000444529
0.000309796
3.73175e-05
3.72911e-05
0.000311929
0.000454447
0.000454447
0.000313202
3.73891e-05
3.73574e-05
0.000315035
0.000463769
0.000463797
0.000316128
3.74509e-05
3.74119e-05
0.000317844
0.000472886
0.000472741
0.000318662
3.75021e-05
3.74612e-05
0.000320034
0.0004815
0.000481186
0.000320845
3.75168e-05
3.75312e-05
0.000322109
0.000489703
0.000489508
0.000322615
3.7585e-05
3.75388e-05
0.000323856
0.000497761
0.000497553
0.000324262
3.76214e-05
3.75717e-05
0.000325464
0.000505627
0.000505161
0.000325697
3.76525e-05
3.76033e-05
0.000326733
0.000513192
0.00051255
0.000326909
3.76818e-05
3.76312e-05
0.000327922
0.000520438
0.000519484
0.00032796
3.77081e-05
3.76586e-05
0.000328823
0.000527232
0.000526074
0.000328825
3.77328e-05
3.76824e-05
0.000329655
0.000533565
0.000531995
0.000329528
3.77541e-05
3.77053e-05
0.000330216
0.000539546
0.000537798
0.000330079
3.77746e-05
3.77264e-05
0.00033072
0.000543266
0.000542836
0.000330453
3.77911e-05
3.7744e-05
0.000330974
0.000546129
0.000547593
0.000330705
3.78054e-05
3.77601e-05
0.000331173
0.000548533
0.000551682
0.000330765
3.78163e-05
3.77722e-05
0.000331118
0.000550607
0.000555542
0.000330715
3.78237e-05
3.77808e-05
0.000331039
0.000552323
0.000557121
0.000330516
3.78278e-05
3.77868e-05
0.000330744
0.000553684
0.000558361
0.00033023
3.78298e-05
3.77896e-05
0.000330431
0.000554681
0.000559153
0.000329798
3.78279e-05
3.77897e-05
0.000329909
0.000555454
0.000559879
0.000329296
3.7824e-05
3.77869e-05
0.000329409
0.000555966
0.000560243
0.000328689
3.78169e-05
3.77814e-05
0.000328733
0.000556344
0.000560618
0.00032805
3.78081e-05
3.77739e-05
0.000328119
0.000556526
0.000560681
0.000327344
3.77975e-05
3.77651e-05
0.000327361
0.000556624
0.000560867
0.000326636
3.77863e-05
3.77551e-05
0.000326697
0.000556593
0.000560657
0.000325891
3.77741e-05
3.77448e-05
0.000325911
0.000556462
0.000560776
0.000325163
3.77619e-05
3.77338e-05
0.000325246
0.000556307
0.000560411
0.000324421
3.77494e-05
3.77232e-05
0.000324459
0.000556023
0.000560375
0.000323701
3.77374e-05
3.77125e-05
0.00032382
0.000555727
0.000559869
0.000322989
3.77256e-05
3.77022e-05
0.000323058
0.000555322
0.000559719
0.000322316
3.77143e-05
3.7692e-05
0.000322449
0.000554926
0.000559116
0.000321636
3.77033e-05
3.76825e-05
0.000321715
0.000554444
0.000558894
0.000321002
3.7693e-05
3.76731e-05
0.00032114
0.00055399
0.00055824
0.00032036
3.76828e-05
3.76642e-05
0.000320445
0.000553463
0.000557968
0.000319767
3.76734e-05
3.76556e-05
0.00031991
0.000552969
0.000557273
0.000319164
3.76642e-05
3.76476e-05
0.000319255
0.000552413
0.000556976
0.000318605
3.76554e-05
3.76395e-05
0.00031876
0.0005519
0.00055626
0.000318042
3.76467e-05
3.7632e-05
0.000318143
0.000551313
0.000555955
0.000317521
3.76385e-05
3.76243e-05
0.000317687
0.000550801
0.000555221
0.000316998
3.76304e-05
3.76172e-05
0.00031711
0.000550213
0.000554913
0.000316515
3.76227e-05
3.761e-05
0.000316693
0.000549704
0.000554194
0.00031603
3.76152e-05
3.76034e-05
0.000316156
0.00054913
0.000553897
0.000315588
3.76081e-05
3.75967e-05
0.000315779
0.000548638
0.000553192
0.000315142
3.76012e-05
3.75906e-05
0.000315282
0.000548086
0.000552909
0.000314739
3.75948e-05
3.75845e-05
0.000314943
0.000547613
0.000552227
0.000314332
3.75886e-05
3.75791e-05
0.000314485
0.000547105
0.000551929
0.000313963
3.75829e-05
3.75738e-05
0.000314182
0.000546654
0.000551269
0.000313591
3.75775e-05
3.7569e-05
0.000313758
0.000546173
0.000550996
0.000313256
3.75725e-05
3.75643e-05
0.000313487
0.000545737
0.000550357
0.000312914
3.75677e-05
3.75601e-05
0.000313093
0.000545271
0.000550106
0.000312608
3.75633e-05
3.75559e-05
0.000312851
0.000544851
0.000549487
0.000312296
3.75591e-05
3.75523e-05
0.000312486
0.00054441
0.000549261
0.000312017
3.75552e-05
3.75486e-05
0.00031227
0.000544019
0.000548671
0.000311731
3.75515e-05
3.75454e-05
0.000311931
0.000543604
0.000548469
0.000311478
3.75482e-05
3.75422e-05
0.00031174
0.000543237
0.0005479
0.000311215
3.75449e-05
3.75394e-05
0.000311425
0.000542844
0.000547719
0.000310985
3.75421e-05
3.75365e-05
0.000311258
0.000542495
0.000547169
0.000310747
3.7539e-05
3.75339e-05
0.000310965
0.000542123
0.000547008
0.000310538
3.75364e-05
3.75312e-05
0.000310819
0.000541798
0.000546482
0.00031032
3.75336e-05
3.75288e-05
0.000310547
0.000541449
0.000546344
0.000310131
3.75312e-05
3.75263e-05
0.000310421
0.000541146
0.000545839
0.000309934
3.75287e-05
3.75242e-05
0.00031017
0.000540819
0.000545724
0.000309765
3.75266e-05
3.75221e-05
0.000310063
0.000540539
0.000545242
0.000309587
3.75244e-05
3.75203e-05
0.00030983
0.000540238
0.000545152
0.000309437
3.75227e-05
3.75187e-05
0.000309742
0.000539985
0.000544698
0.000309276
3.75211e-05
3.75176e-05
0.000309526
0.000539708
0.000544631
0.000309142
3.75202e-05
3.75167e-05
0.000309454
0.000539476
0.000544196
0.000308998
3.75198e-05
3.75166e-05
0.000309254
0.000539218
0.000544145
0.000308879
3.75199e-05
3.75167e-05
0.000309195
0.000539001
0.000543724
0.000308744
3.75205e-05
3.75176e-05
0.000309004
0.000538752
0.000543676
0.000308633
3.75215e-05
3.75188e-05
0.000308952
0.000538533
0.00054325
0.000308502
3.75227e-05
3.75204e-05
0.000308764
0.000538281
0.000543198
0.000308393
3.75242e-05
3.75219e-05
0.000308705
0.000538007
0.000542825
0.000308279
3.75245e-05
3.75224e-05
0.0003086
0.000537908
0.000542543
0.000308432
3.7551e-05
3.75675e-05
0.000308679
0.000537735
0.000542589
0.00030822
3.75705e-05
3.75867e-05
0.000308622
0.000537587
0.000542874
0.000308567
3.76497e-05
3.77243e-05
0.000309225
0.000538149
0.000545465
0.000309621
3.78894e-05
3.78917e-05
0.000310796
0.00054079
0.000549686
0.000311768
3.82914e-05
3.83537e-05
0.000312935
0.000545148
0.000564178
0.000318864
3.96333e-05
4.12085e-05
0.000328936
0.000596043
0.000629053
0.00034473
4.32487e-05
0.00105393
0.0017029
0.00253919
0.00285594
0.00462813
0.00773968
0.0104839
0.0116516
0.0162416
0.025004
0.0326284
0.0425128
0.0561513
0.0748597
0.100677
0.134939
0.179038
0.233533
0.298642
0.373979
0.458673
0.551304
0.650099
0.752673
0.856685
0.958069
1.05386
1.13739
1.20582
1.25498
1.28565
1.30009
1.31259
1.33525
1.36721
1.40728
1.45369
1.50605
1.56324
1.62604
1.69483
1.77093
1.85568
1.95099
2.05924
2.18375
2.32913
2.50225
2.12343
1.3777
0.975278
0.784837
0.685265
0.619539
0.563634
0.510843
0.461123
0.415266
0.373319
0.334873
0.29958
0.267316
0.238091
0.211882
0.188601
0.168004
0.149845
0.133841
0.119744
0.107309
0.0963494
0.0866963
0.0781908
0.0707258
0.0641716
0.058428
0.0534175
0.049042
0.0452381
0.0419413
0.0390841
0.0366257
0.0345135
0.0327094
0.0311772
0.0298849
0.0288063
0.0279158
0.0271946
0.0266235
0.0261893
0.0258769
0.0256781
0.0255809
0.0255782
0.0256633
0.0258308
0.0260762
0.0263957
0.0267864
0.027246
0.0277712
0.0283648
0.0290225
0.0297443
0.030531
0.031382
0.0322992
0.0332827
0.0343352
0.0354561
0.0366513
0.0379155
0.0392594
0.0406816
0.0421857
0.0437747
0.0454541
0.0472296
0.0491042
0.0510846
0.0531719
0.0553781
0.057706
0.0601636
0.0627596
0.0655028
0.0684024
0.0714694
0.0747151
0.0781515
0.081793
0.0856555
0.089756
0.0941137
0.0987499
0.103689
0.108958
0.114587
0.120613
0.127075
0.13402
0.141502
0.149584
0.158343
0.167867
0.178261
0.189654
0.202207
0.216115
0.231622
0.249042
0.268781
0.291371
0.317532
0.348263
0.385008
0.429959
0.486653
0.56125
0.665459
0.822154
1.07475
1.51794
2.43032
4.86135
11.2233
31.7527
21.1503
39.8232
14.824
7.9021
2.82404
1.38315
0.854399
0.638875
0.543382
0.494613
0.461829
0.432967
0.404795
0.377585
0.352346
0.329754
0.309952
0.292736
0.277788
0.26476
0.253351
0.243316
0.234464
0.226645
0.219737
0.213641
0.208275
0.203572
0.199474
0.195938
0.192927
0.190412
0.188377
0.186806
0.185689
0.185016
0.184803
0.185099
0.185913
0.187246
0.189142
0.191658
0.19486
0.198837
0.203704
0.209589
0.216606
0.224775
0.233907
0.243483
0.252758
0.261429
0.271289
0.289768
0.335643
0.450799
0.731399
1.35123
2.27828
1.81514
1.02564
0.379894
0.0912236
0.0390323
0.0130838
0.011173
0.0102734
0.00920407
0.00871933
0.00802561
0.00772497
0.00722324
0.00701749
0.00663319
0.00647967
0.00617446
0.00605558
0.00580438
0.0057093
0.00549647
0.00541874
0.00523433
0.00516958
0.00500709
0.00495188
0.00480708
0.00475902
0.00462865
0.00458628
0.00446766
0.00442991
0.00432098
0.00428704
0.00418627
0.00415553
0.00406176
0.00403377
0.00394606
0.00392039
0.00383793
0.00381424
0.00373631
0.00371429
0.0036403
0.00361971
0.00354919
0.00352978
0.00346234
0.00344391
0.00337916
0.00336158
0.00329919
0.00328231
0.00322195
0.00320566
0.00314703
0.0031312
0.00307402
0.00305854
0.00300257
0.00298733
0.00293237
0.0029173
0.00286319
0.00284821
0.00279485
0.00277986
0.0027271
0.00271206
0.0026598
0.00264467
0.00259283
0.00257759
0.00252615
0.0025108
0.00245975
0.00244433
0.00239374
0.00237831
0.00232829
0.00231294
0.00226368
0.00224857
0.00220051
0.00218574
0.00213936
0.00212512
0.00208096
0.0020675
0.00202625
0.00201386
0.00197526
0.0019664
0.00192992
0.00192478
0.00189122
0.00189088
0.00186076
0.00186586
0.00183966
0.00185076
0.00182883
0.00184582
0.00182811
0.00185044
0.00183665
0.00186366
0.00185292
0.00188329
0.00187477
0.00190624
0.00189934
0.00193094
0.00192463
0.00195582
0.00194954
0.00197993
0.00197304
0.00200235
0.00199513
0.00202268
0.00201551
0.00204115
0.00203371
0.00205775
0.00205005
0.00207248
0.00206442
0.00208566
0.00207713
0.00209888
0.00208497
0.00211251
0.00210886
0.00215318
0.00218283
0.00220752
0.00222863
0.00441633
0.00703718
0.00695451
0.00434853
0.00430087
0.00684268
0.00656853
0.0041996
0.00404669
0.00610609
0.0108713
0.0101169
0.0100612
0.0100417
0.0127526
0.0126288
0.0124237
0.0162007
0.0160831
0.0159876
0.0188538
0.0188944
0.0188527
0.0176651
0.017376
0.0106681
0.00659395
0.00412136
0.00400404
0.00603154
0.0065108
0.00407531
0.00397221
0.00598425
0.010582
0.010509
0.00645553
0.00404113
0.00393658
0.00593394
0.0063996
0.00400441
0.00389897
0.00588023
0.0104533
0.0103786
0.00634125
0.00396598