/*--------------------------------*- C++ -*----------------------------------*\
| =========                 |                                                 |
| \\      /  F ield         | OpenFOAM: The Open Source CFD Toolbox           |
|  \\    /   O peration     | Version:  v2006                                 |
|   \\  /    A nd           | Website:  www.openfoam.com                      |
|    \\/     M anipulation  |                                                 |
\*---------------------------------------------------------------------------*/
FoamFile
{
    version     2.0;
    format      ascii;
    class       volScalarField;
    location    "0.04";
    object      T;
}
// * * * * * * * * * * * * * * * * * * * * * * * * * * * * * * * * * * * * * //

dimensions      [0 0 0 1 0 0 0];


internalField   nonuniform List<scalar> 
10108
(
297.809
297.809
297.809
297.809
297.809
297.809
297.81
297.812
297.817
297.823
297.831
297.839
297.848
297.856
297.865
297.874
297.883
297.893
297.903
297.913
297.924
297.935
297.946
297.958
297.969
297.981
297.994
298.006
298.019
298.032
298.045
298.058
298.071
298.084
298.097
298.11
298.123
298.136
298.149
298.162
298.174
298.187
298.199
298.211
298.223
298.234
298.246
298.257
298.267
298.277
298.287
298.297
298.306
298.315
298.323
298.332
298.339
298.345
298.349
298.35
298.349
298.349
298.348
298.348
298.347
298.348
298.35
298.355
298.361
298.373
298.387
298.444
298.455
298.386
298.366
298.366
298.39
298.475
298.491
298.395
298.367
298.369
298.401
298.503
298.512
298.408
298.373
298.378
298.416
298.519
298.524
298.422
298.383
298.388
298.428
298.529
298.533
298.435
298.393
298.398
298.44
298.535
298.538
298.446
298.403
298.408
298.451
298.54
298.541
298.456
298.413
298.418
298.46
298.542
298.544
298.466
298.423
298.428
298.469
298.545
298.547
298.475
298.434
298.438
298.478
298.548
298.55
298.484
298.444
298.448
298.487
298.552
298.554
298.492
298.454
298.458
298.495
298.555
298.558
298.501
298.464
298.468
298.504
298.559
298.563
298.51
298.474
298.479
298.513
298.564
298.568
298.519
298.485
298.49
298.523
298.57
298.574
298.529
298.496
298.501
298.532
298.576
298.581
298.539
298.508
298.513
298.543
298.583
298.588
298.55
298.52
298.525
298.553
298.591
298.596
298.561
298.532
298.537
298.565
298.599
298.605
298.572
298.546
298.551
298.577
298.608
298.614
298.585
298.559
298.565
298.589
298.618
298.625
298.598
298.574
298.579
298.602
298.629
298.636
298.612
298.589
298.595
298.616
298.64
298.648
298.626
298.605
298.611
298.631
298.652
298.661
298.641
298.621
298.628
298.647
298.666
298.675
298.658
298.639
298.646
298.663
298.68
298.69
298.675
298.657
298.665
298.681
298.695
298.705
298.693
298.677
298.684
298.699
298.711
298.722
298.711
298.697
298.705
298.718
298.728
298.74
298.731
298.718
298.727
298.738
298.746
298.758
298.752
298.74
298.749
298.759
298.765
298.778
298.774
298.764
298.773
298.782
298.785
298.799
298.797
298.788
298.798
298.805
298.806
298.821
298.821
298.814
298.824
298.83
298.829
298.844
298.846
298.841
298.852
298.855
298.852
298.868
298.872
298.868
298.88
298.882
298.877
298.893
298.899
298.897
298.909
298.91
298.902
298.918
298.927
298.927
298.939
298.938
298.929
298.945
298.956
298.957
298.97
298.967
298.956
298.973
298.986
298.989
299.002
298.997
298.984
299.001
299.016
299.021
299.034
299.028
299.012
299.03
299.047
299.053
299.066
299.059
299.041
299.059
299.077
299.085
299.099
299.089
299.07
299.088
299.108
299.117
299.13
299.12
299.099
299.116
299.138
299.149
299.162
299.149
299.128
299.144
299.167
299.18
299.192
299.178
299.155
299.171
299.195
299.209
299.22
299.205
299.182
299.197
299.221
299.236
299.247
299.231
299.207
299.221
299.246
299.262
299.271
299.254
299.23
299.242
299.268
299.285
299.293
299.275
299.25
299.262
299.287
299.305
299.311
299.293
299.269
299.279
299.304
299.322
299.327
299.309
299.285
299.293
299.318
299.336
299.34
299.322
299.298
299.305
299.329
299.347
299.35
299.332
299.309
299.314
299.338
299.355
299.357
299.34
299.317
299.322
299.344
299.361
299.362
299.346
299.324
299.328
299.349
299.365
299.366
299.349
299.329
299.332
299.351
299.367
299.367
299.352
299.333
299.335
299.353
299.368
299.368
299.353
299.336
299.337
299.354
299.368
299.368
299.354
299.338
299.339
299.355
299.368
299.367
299.354
299.34
299.341
299.355
299.367
299.366
299.355
299.341
299.342
299.355
299.366
299.365
299.354
299.342
299.343
299.354
299.365
299.364
299.354
299.343
299.344
299.354
299.364
299.363
299.354
299.344
299.344
299.354
299.362
299.361
299.353
299.344
299.345
299.353
299.361
299.36
299.353
299.345
299.345
299.352
299.359
299.358
299.352
299.345
299.345
299.352
299.358
299.357
299.351
299.345
299.345
299.351
299.356
299.355
299.349
299.343
299.343
299.349
299.355
299.363
299.369
299.37
299.366
299.362
299.359
299.355
299.35
299.346
299.341
299.337
299.332
299.328
299.325
299.321
299.318
299.315
299.312
299.31
299.309
299.311
299.311
299.314
299.32
299.309
299.2
299.501
299.573
299.134
299.338
299.443
298.466
300.338
299.098
299.448
299.302
299.318
299.31
299.356
299.321
299.324
299.319
299.318
299.322
299.327
299.326
299.323
299.318
299.316
299.321
299.326
299.325
299.321
299.316
299.315
299.319
299.324
299.325
299.32
299.315
299.313
299.318
299.324
299.324
299.318
299.313
299.311
299.316
299.322
299.323
299.317
299.311
299.31
299.315
299.321
299.321
299.315
299.309
299.308
299.313
299.32
299.32
299.313
299.307
299.306
299.311
299.318
299.318
299.311
299.305
299.303
299.309
299.317
299.317
299.309
299.303
299.301
299.307
299.315
299.315
299.307
299.301
299.298
299.305
299.313
299.313
299.305
299.298
299.296
299.303
299.311
299.311
299.302
299.295
299.293
299.3
299.309
299.309
299.3
299.292
299.289
299.297
299.307
299.307
299.297
299.288
299.285
299.294
299.305
299.305
299.293
299.284
299.281
299.29
299.302
299.302
299.289
299.279
299.275
299.285
299.299
299.299
299.284
299.273
299.268
299.279
299.295
299.295
299.277
299.266
299.259
299.27
299.29
299.288
299.268
299.256
299.247
299.259
299.281
299.278
299.255
299.242
299.229
299.24
299.264
299.258
299.233
299.223
299.208
299.217
299.244
299.238
299.211
299.202
299.2
299.208
299.236
299.239
299.209
299.2
299.201
299.211
299.242
299.246
299.216
299.206
299.208
299.219
299.252
299.259
299.225
299.215
299.219
299.23
299.266
299.275
299.237
299.226
299.231
299.242
299.282
299.295
299.254
299.239
299.243
299.263
299.301
299.309
299.282
299.245
299.229
299.294
299.315
299.177
299.698
299.096
299.298
299.271
299.395
299.334
299.309
299.296
299.31
299.318
299.371
299.386
299.324
299.317
299.328
299.329
299.422
299.462
299.325
299.339
299.359
299.293
299.491
299.989
298.926
299.417
299.432
299.447
299.358
299.488
299.451
299.447
299.488
299.495
299.507
299.531
299.515
299.515
299.404
299.806
299.413
299.605
299.56
299.587
299.627
299.611
299.573
299.549
299.618
299.662
299.67
299.657
299.664
299.6
299.472
299.522
298.605
299.536
296.984
297.98
298.464
298.574
298.199
298.132
297.926
298.107
298.119
298.143
298.152
298.175
298.229
298.3
298.257
298.241
298.281
298.267
298.478
298.451
298.392
298.323
298.335
298.373
298.549
298.183
298.923
298.374
298.422
298.504
298.477
298.446
298.587
298.445
298.616
298.051
299.086
298.67
298.473
298.48
298.486
298.456
298.735
298.469
298.799
298.488
298.511
298.582
298.584
298.595
298.616
298.543
298.585
298.529
298.691
298.629
298.574
298.547
298.561
298.589
298.67
298.664
298.636
298.574
298.554
298.588
298.636
298.678
298.621
298.572
298.585
298.636
298.675
298.642
298.59
298.56
298.575
298.619
298.677
298.67
298.632
298.58
298.554
298.584
298.64
298.669
298.61
298.562
298.576
298.626
298.668
298.632
298.573
298.541
298.555
298.598
298.671
298.627
298.622
298.555
298.521
298.536
298.642
298.435
298.686
298.594
298.672
297.378
299.961
298.766
298.35
298.386
298.432
298.373
298.953
298.68
298.426
298.427
298.41
298.435
298.695
298.648
298.575
298.431
298.401
298.44
298.616
298.399
298.574
298.455
298.57
297.368
299.815
298.705
298.277
298.271
298.329
298.31
298.891
298.587
298.32
298.316
298.285
298.337
298.597
298.595
298.473
298.328
298.288
298.345
298.506
298.509
298.405
298.304
298.265
298.303
298.421
298.434
298.324
298.25
298.303
298.363
298.447
298.375
298.273
298.229
298.231
298.297
298.374
298.316
298.219
298.189
298.178
298.243
298.335
298.332
298.272
298.217
298.143
298.18
298.258
298.26
298.197
298.142
298.098
298.127
298.213
298.242
298.155
298.091
298.123
298.174
298.235
298.165
298.087
298.053
298.054
298.1
298.17
298.103
298.039
298.004
298.028
298.012
298.275
297.365
298.733
297.849
298.116
297.637
298.149
297.881
298.024
297.968
297.942
297.917
297.974
297.946
297.943
297.929
297.871
297.881
297.981
297.794
297.962
297.92
297.952
296.89
298.952
297.783
298.18
297.509
297.74
297.668
298.175
297.924
297.736
297.69
297.704
297.784
297.961
297.874
297.679
297.661
297.722
297.792
297.697
298.935
296.668
297.756
297.253
298.199
297.543
298.052
297.489
297.566
297.482
297.575
297.721
297.796
297.589
297.51
297.464
297.513
297.667
297.691
297.549
297.478
297.436
297.454
297.638
297.468
297.583
297.516
297.565
296.359
298.787
297.138
298.152
296.97
297.32
297.204
297.8
297.465
297.358
297.214
297.276
297.352
297.569
297.461
297.275
297.235
297.24
297.326
297.473
297.396
297.21
297.186
297.236
297.31
297.277
298.208
296.376
297.294
296.809
297.772
296.974
297.497
297.044
297.079
296.987
297.124
297.226
297.294
297.113
297.022
296.965
297.024
297.172
297.206
297.045
296.974
296.915
296.957
297.113
297.121
296.993
296.917
296.871
296.894
297.068
296.983
296.98
296.864
296.97
296.231
297.701
296.661
297.39
296.539
296.782
296.708
297.116
296.867
296.809
296.653
296.702
296.782
296.967
296.849
296.703
296.626
296.646
296.716
296.896
296.784
296.62
296.576
296.571
296.645
296.806
296.709
296.561
296.53
296.473
296.547
296.765
296.419
296.861
296.442
296.585
296.23
296.751
296.534
296.553
296.436
296.406
296.341
296.574
296.491
296.447
296.357
296.302
296.294
296.499
296.462
296.378
296.293
296.218
296.244
296.424
296.404
296.292
296.219
296.143
296.163
296.357
296.287
296.265
296.14
296.262
295.435
297.049
295.819
296.767
295.687
296.043
295.861
296.419
296.08
296.047
295.856
295.924
295.986
296.217
296.061
295.917
295.826
295.839
295.9
296.139
295.978
295.824
295.765
295.758
295.833
296.029
295.903
295.744
295.701
295.61
295.707
296.043
295.334
296.303
295.535
295.83
295.131
296.031
295.573
295.765
295.536
295.523
295.408
295.722
295.626
295.58
295.463
295.386
295.359
295.632
295.563
295.48
295.354
295.286
295.286
295.519
295.466
295.359
295.234
295.168
295.204
295.391
295.457
295.207
295.075
295.039
295.618
294.974
295.513
294.65
295.261
294.999
295.244
295.113
295.22
294.858
294.996
294.889
295.028
295.076
295.096
294.786
294.832
294.757
294.901
294.995
294.976
294.691
294.671
294.646
294.801
294.946
294.853
294.606
294.562
294.483
294.636
294.875
294.743
294.726
294.506
294.449
294.252
294.755
294.55
294.512
294.343
294.217
294.27
294.577
294.581
294.359
294.223
294.097
294.161
294.45
294.466
294.242
294.107
293.999
294.052
294.349
294.332
294.082
293.912
293.952
294.045
294.339
293.871
294.01
293.709
293.797
293.863
294.133
293.892
293.771
293.616
293.651
293.73
294.031
293.834
293.596
293.487
293.466
293.569
293.877
293.687
293.412
293.32
293.178
293.317
293.693
293.475
293.454
293.188
293.069
293.012
293.506
293.448
293.281
293.034
292.933
292.915
293.368
293.264
293.05
292.868
292.717
292.784
293.143
293.106
292.766
292.569
292.582
292.721
292.944
292.825
292.465
292.349
292.392
292.57
292.885
292.715
292.302
292.217
292.195
292.386
292.711
292.504
292.126
292.035
291.865
292.058
292.475
292.342
292.04
291.857
291.584
291.719
292.105
292.149
291.808
291.593
291.464
291.566
291.968
292.032
291.487
291.281
291.118
292.266
291.396
291.795
290.741
291.363
291
291.334
291.105
291.223
290.781
290.724
290.613
290.915
291.234
291.421
290.812
290.795
290.373
290.691
290.84
291.06
290.422
290.385
290.114
290.289
290.532
290.596
289.949
289.764
289.762
290.574
290.009
290.301
289.606
289.653
289.574
289.861
290.169
290.019
289.406
289.352
289.014
289.453
289.746
290.023
288.956
289.06
288.534
288.604
289.206
289.288
288.789
288.54
288.362
288.487
289.074
289.106
288.387
288.112
288.109
288.633
288.752
288.193
287.772
287.646
287.266
287.48
288.044
288.095
287.675
287.302
287.056
287.269
287.855
287.945
286.788
286.908
285.998
287.853
286.84
286.753
286.111
286.106
285.677
286.022
286.68
286.648
286.323
285.734
285.476
285.478
286.371
285.638
285.582
285.117
284.851
283.402
286.775
285.309
284.358
284.104
283.937
284.211
285.536
285.237
284.514
283.783
283.303
283.383
283.841
283.713
282.85
282.659
282.459
282.829
283.955
283.601
283.014
282.325
281.84
281.853
282.373
282.313
281.316
281.258
280.983
281.365
282.621
281.65
280.813
280.515
280.652
281.023
282.347
281.776
280.494
280.265
280.15
280.418
281.804
282.401
280.672
280.187
280.325
280.932
282.724
283.768
281.541
280.781
281.893
282.843
285.47
287.014
284.247
283.063
284.594
286.031
288.905
289.739
287.087
285.561
286.338
288.041
290.575
290.957
288.678
286.946
287.571
289.43
291.549
291.776
289.884
288.052
288.559
290.464
292.167
292.301
290.772
288.946
289.385
291.231
292.569
292.663
291.452
289.711
290.101
291.821
292.861
292.928
291.984
290.38
290.722
292.269
293.077
293.123
292.388
290.949
291.239
292.601
293.234
293.265
292.686
291.423
291.667
292.845
293.347
293.366
292.905
291.809
292.008
293.025
293.427
293.437
293.066
292.119
292.277
293.156
293.483
293.485
293.184
292.365
292.485
293.253
293.516
293.511
293.27
292.553
292.642
293.322
293.532
293.522
293.328
292.692
292.756
293.364
293.537
293.522
293.358
292.79
292.833
293.384
293.533
293.515
293.369
292.848
292.882
293.387
293.52
293.501
293.364
292.878
292.902
293.374
293.501
293.482
293.345
292.887
292.907
293.349
293.478
293.453
293.316
292.884
292.898
293.314
293.448
293.42
293.28
292.87
292.881
293.273
293.412
293.382
293.236
292.848
292.856
293.227
293.372
293.339
293.189
292.821
292.827
293.177
293.329
293.293
293.134
292.792
292.793
293.124
293.282
293.243
293.081
292.761
292.757
293.069
293.231
293.191
293.026
292.729
292.72
293.015
293.179
293.137
292.971
292.69
292.683
292.959
293.124
293.082
292.915
292.651
292.646
292.904
293.069
293.026
292.861
292.614
292.611
292.85
293.013
292.97
292.808
292.579
292.574
292.798
292.957
292.915
292.757
292.542
292.539
292.747
292.902
292.86
292.706
292.509
292.503
292.697
292.847
292.806
292.658
292.474
292.471
292.65
292.794
292.754
292.612
292.442
292.436
292.604
292.742
292.703
292.567
292.409
292.405
292.56
292.692
292.654
292.525
292.379
292.373
292.518
292.643
292.607
292.485
292.348
292.343
292.477
292.597
292.562
292.446
292.319
292.314
292.439
292.552
292.519
292.409
292.29
292.286
292.403
292.51
292.478
292.374
292.263
292.258
292.368
292.47
292.44
292.34
292.235
292.232
292.335
292.432
292.403
292.308
292.21
292.205
292.304
292.395
292.368
292.278
292.183
292.18
292.274
292.361
292.335
292.248
292.159
292.156
292.246
292.329
292.304
292.22
292.134
292.132
292.218
292.298
292.274
292.194
292.112
292.109
292.192
292.268
292.246
292.168
292.088
292.087
292.166
292.24
292.219
292.143
292.067
292.064
292.142
292.214
292.193
292.119
292.044
292.045
292.118
292.188
292.168
292.096
292.024
292.023
292.096
292.163
292.144
292.074
292.003
292.004
292.074
292.14
292.121
292.053
291.984
291.984
292.053
292.117
292.099
292.032
291.965
291.967
292.033
292.095
292.078
292.012
291.947
291.948
292.014
292.075
292.058
291.993
291.929
291.932
291.995
292.054
292.038
291.974
291.911
291.914
291.976
292.035
292.019
291.956
291.894
291.898
291.959
292.016
292
291.939
291.878
291.881
291.942
291.998
291.982
291.922
291.862
291.867
291.925
291.981
291.965
291.906
291.847
291.851
291.909
291.963
291.948
291.89
291.832
291.838
291.894
291.947
291.932
291.875
291.818
291.822
291.879
291.931
291.917
291.86
291.803
291.81
291.864
291.916
291.901
291.846
291.79
291.795
291.85
291.901
291.887
291.831
291.776
291.783
291.836
291.886
291.872
291.818
291.763
291.769
291.823
291.872
291.858
291.804
291.75
291.757
291.809
291.858
291.844
291.791
291.738
291.744
291.796
291.844
291.831
291.778
291.725
291.733
291.784
291.831
291.818
291.766
291.713
291.72
291.771
291.818
291.805
291.754
291.701
291.709
291.759
291.806
291.792
291.742
291.69
291.697
291.747
291.793
291.78
291.73
291.678
291.687
291.736
291.781
291.768
291.718
291.667
291.675
291.724
291.769
291.756
291.707
291.656
291.665
291.713
291.757
291.745
291.696
291.645
291.653
291.702
291.746
291.733
291.685
291.634
291.644
291.691
291.735
291.722
291.674
291.624
291.632
291.68
291.724
291.711
291.663
291.614
291.623
291.67
291.713
291.7
291.653
291.604
291.612
291.66
291.702
291.69
291.643
291.593
291.604
291.65
291.691
291.679
291.633
291.584
291.593
291.64
291.681
291.669
291.623
291.574
291.584
291.63
291.671
291.659
291.613
291.565
291.574
291.62
291.661
291.649
291.603
291.555
291.565
291.61
291.651
291.639
291.594
291.546
291.555
291.6
291.641
291.628
291.584
291.536
291.546
291.591
291.631
291.618
291.574
291.527
291.536
291.581
291.621
291.608
291.564
291.517
291.527
291.571
291.61
291.598
291.554
291.507
291.516
291.561
291.6
291.588
291.544
291.497
291.508
291.551
291.59
291.578
291.534
291.488
291.497
291.541
291.58
291.568
291.525
291.478
291.488
291.531
291.57
291.558
291.515
291.469
291.478
291.522
291.56
291.548
291.505
291.459
291.469
291.512
291.551
291.539
291.495
291.45
291.459
291.502
291.541
291.529
291.486
291.441
291.449
291.494
291.53
291.52
291.477
291.43
291.437
291.483
291.521
291.511
291.466
291.421
291.426
291.473
291.51
291.502
291.457
291.41
291.415
291.46
291.501
291.493
291.447
291.4
291.396
291.445
291.491
291.473
291.425
291.372
291.321
291.409
291.455
291.403
291.37
291.295
291.31
291.373
291.383
291.198
290.613
290.351
290.239
289.861
289.62
289.401
289.221
289.076
289.004
288.795
288.632
288.503
288.4
288.321
288.262
288.22
288.189
288.166
288.15
288.138
288.129
288.123
288.117
288.114
288.111
288.108
288.107
288.105
288.105
288.104
288.104
288.104
288.103
288.103
288.102
288.101
288.1
288.098
288.097
288.096
288.095
288.094
288.093
288.092
288.091
288.091
288.09
288.089
288.087
288.085
288.082
288.081
288.083
288.087
288.094
288.105
288.118
288.134
288.153
288.176
288.201
288.23
288.263
288.3
288.341
288.388
288.44
288.497
288.562
288.634
288.713
288.801
288.897
289.004
289.12
289.246
289.383
289.531
289.689
289.858
290.037
290.225
290.422
290.627
290.839
291.057
291.279
291.504
291.732
291.96
292.188
292.415
292.639
292.861
293.078
293.291
293.498
293.7
293.896
294.086
294.269
294.446
294.616
294.78
294.937
295.087
295.231
295.369
295.5
295.626
295.746
295.86
295.969
296.073
296.172
296.265
296.355
296.44
296.521
296.597
296.67
296.74
296.805
296.868
296.927
296.983
297.037
297.087
297.135
297.181
297.224
297.265
297.303
297.34
297.375
297.407
297.438
297.468
297.495
297.521
297.546
297.569
297.591
297.611
297.63
297.648
297.665
297.681
297.696
297.709
297.722
297.734
297.744
297.754
297.763
297.771
297.778
297.785
297.79
297.795
297.799
297.802
297.805
297.807
297.808
297.808
297.808
297.808
297.809
297.809
297.809
297.809
297.811
297.815
297.82
297.827
297.834
297.842
297.851
297.859
297.868
297.878
297.888
297.898
297.908
297.919
297.931
297.942
297.954
297.966
297.979
297.991
298.004
298.017
298.03
298.043
298.056
298.069
298.083
298.096
298.109
298.123
298.136
298.149
298.162
298.175
298.188
298.2
298.212
298.224
298.236
298.248
298.259
298.27
298.28
298.29
298.3
298.309
298.318
298.327
298.334
298.341
298.345
298.348
298.349
298.349
298.349
298.349
298.348
298.349
298.35
298.353
298.355
298.357
298.36
298.363
298.366
298.369
298.373
298.377
298.381
298.385
298.39
298.395
298.399
298.404
298.409
298.414
298.419
298.424
298.429
298.435
298.44
298.446
298.452
298.458
298.464
298.47
298.476
298.483
298.489
298.496
298.503
298.51
298.517
298.525
298.532
298.541
298.548
298.557
298.565
298.574
298.582
298.592
298.6
298.61
298.619
298.63
298.64
298.651
298.661
298.672
298.683
298.695
298.706
298.719
298.73
298.744
298.756
298.77
298.782
298.797
298.81
298.826
298.839
298.855
298.869
298.886
298.9
298.918
298.933
298.95
298.966
298.984
298.999
299.018
299.033
299.052
299.068
299.087
299.103
299.121
299.137
299.156
299.17
299.189
299.203
299.22
299.234
299.25
299.262
299.278
299.289
299.303
299.312
299.324
299.332
299.343
299.349
299.357
299.362
299.369
299.372
299.377
299.379
299.383
299.384
299.387
299.387
299.388
299.388
299.388
299.388
299.388
299.387
299.386
299.385
299.384
299.383
299.382
299.38
299.38
299.378
299.377
299.375
299.375
299.373
299.372
299.37
299.37
299.368
299.367
299.366
299.365
299.363
299.37
299.371
299.372
299.372
299.372
299.373
299.374
299.374
299.374
299.375
299.371
299.37
299.369
299.367
299.363
299.364
299.365
299.361
299.361
299.359
299.355
299.356
299.357
299.36
299.362
299.374
299.377
299.376
299.377
299.378
299.381
299.379
299.38
299.382
299.377
299.381
299.384
299.383
299.383
299.385
299.387
299.386
299.387
299.389
299.384
299.387
299.391
299.389
299.39
299.392
299.394
299.392
299.393
299.395
299.39
299.393
299.397
299.395
299.395
299.398
299.4
299.397
299.398
299.4
299.396
299.398
299.402
299.399
299.399
299.402
299.403
299.4
299.4
299.403
299.399
299.399
299.403
299.4
299.399
299.402
299.402
299.399
299.396
299.399
299.397
299.392
299.399
299.395
299.39
299.394
299.392
299.389
299.382
299.385
299.385
299.373
299.383
299.38
299.371
299.373
299.37
299.367
299.356
299.358
299.358
299.338
299.352
299.351
299.338
299.338
299.331
299.331
299.316
299.315
299.314
299.286
299.306
299.307
299.291
299.288
299.278
299.28
299.263
299.259
299.255
299.222
299.247
299.251
299.232
299.226
299.213
299.219
299.2
299.192
299.186
299.149
299.178
299.185
299.166
299.157
299.142
299.15
299.13
299.12
299.111
299.073
299.105
299.115
299.094
299.083
299.067
299.078
299.058
299.046
299.035
298.997
299.03
299.042
299.022
299.01
298.993
299.006
298.987
298.974
298.96
298.924
298.957
298.971
298.952
298.938
298.922
298.936
298.918
298.904
298.889
298.855
298.888
298.902
298.885
298.87
298.854
298.869
298.853
298.838
298.822
298.79
298.822
298.838
298.822
298.806
298.792
298.807
298.792
298.776
298.76
298.731
298.762
298.778
298.763
298.748
298.734
298.75
298.736
298.72
298.703
298.677
298.707
298.723
298.71
298.694
298.681
298.698
298.685
298.669
298.652
298.628
298.657
298.673
298.661
298.645
298.633
298.65
298.639
298.623
298.605
298.584
298.611
298.628
298.617
298.601
298.59
298.607
298.597
298.581
298.564
298.544
298.57
298.587
298.577
298.561
298.552
298.568
298.559
298.543
298.526
298.509
298.534
298.55
298.541
298.526
298.517
298.533
298.525
298.509
298.493
298.478
298.501
298.517
298.509
298.494
298.486
298.501
298.494
298.479
298.464
298.45
298.471
298.487
298.48
298.465
298.458
298.473
298.466
298.452
298.438
298.426
298.445
298.459
298.453
298.44
298.433
298.447
298.441
298.428
298.416
298.406
298.422
298.435
298.43
298.417
298.412
298.424
298.419
298.407
298.397
298.388
298.402
298.414
298.409
298.398
298.393
298.404
298.399
298.389
298.381
298.374
298.385
298.394
298.39
298.381
298.377
298.386
298.382
298.374
298.368
298.362
298.37
298.378
298.374
298.367
298.364
298.371
298.368
298.362
298.358
298.355
298.359
298.364
298.362
298.357
298.355
298.359
298.357
298.353
298.352
298.35
298.352
298.354
298.352
298.351
298.35
298.351
298.35
298.349
298.349
298.349
298.35
298.351
298.353
298.356
298.36
298.364
298.369
298.375
298.382
298.389
298.397
298.406
298.416
298.427
298.438
298.451
298.464
298.479
298.494
298.51
298.528
298.546
298.566
298.587
298.609
298.632
298.656
298.682
298.709
298.738
298.767
298.799
298.831
298.865
298.901
298.937
298.974
299.013
299.052
299.091
299.131
299.17
299.208
299.244
299.277
299.308
299.333
299.354
299.369
299.38
299.385
299.387
299.387
299.385
299.383
299.38
299.377
299.374
299.371
299.369
299.367
299.364
299.351
299.35
299.349
299.351
299.351
299.351
299.346
299.346
299.346
299.341
299.341
299.341
299.337
299.336
299.336
299.338
299.338
299.328
299.328
299.332
299.332
299.332
299.328
299.328
299.327
299.323
299.324
299.324
299.32
299.32
299.319
299.319
299.318
299.317
299.327
299.338
299.339
299.352
299.353
299.355
299.34
299.339
299.326
299.327
299.315
299.314
299.313
299.326
299.326
299.341
299.357
299.359
299.343
299.345
299.362
299.365
299.348
299.332
299.329
299.327
299.312
299.312
299.298
299.3
299.302
299.304
299.306
299.309
299.311
299.315
299.316
299.317
299.314
299.312
299.311
299.308
299.309
299.311
299.309
299.307
299.305
299.303
299.3
299.298
299.299
299.302
299.303
299.305
299.307
299.307
299.309
299.313
299.321
299.327
299.318
299.313
299.309
299.314
299.313
299.308
299.305
299.303
299.306
299.307
299.312
299.312
299.31
299.305
299.304
299.301
299.299
299.298
299.295
299.295
299.294
299.296
299.293
299.29
299.286
299.279
299.281
299.285
299.286
299.29
299.291
299.29
299.294
299.297
299.298
299.299
299.3
299.301
299.302
299.303
299.304
299.309
299.31
299.308
299.307
299.306
299.305
299.304
299.303
299.302
299.3
299.295
299.294
299.293
299.298
299.3
299.297
299.292
299.289
299.285
299.289
299.29
299.296
299.295
299.293
299.288
299.286
299.283
299.28
299.277
299.273
299.275
299.274
299.282
299.278
299.296
299.296
299.313
299.316
299.32
299.337
299.353
299.369
299.373
299.358
299.364
299.376
299.377
299.37
299.361
299.352
299.344
299.329
299.34
299.354
299.345
299.325
299.311
299.301
299.297
299.272
299.274
299.259
299.261
299.267
299.268
299.265
299.269
299.273
299.275
299.277
299.278
299.28
299.282
299.283
299.285
299.29
299.292
299.289
299.287
299.286
299.284
299.283
299.28
299.279
299.276
299.27
299.269
299.266
299.271
299.274
299.269
299.264
299.26
299.255
299.258
299.26
299.265
299.262
299.257
299.254
299.252
299.249
299.242
299.253
299.25
299.244
299.226
299.236
299.233
299.235
299.243
299.246
299.248
299.255
299.245
299.237
299.233
299.222
299.222
299.219
299.209
299.204
299.217
299.199
299.208
299.223
299.245
299.274
299.284
299.304
299.332
299.308
299.288
299.273
299.26
299.252
299.245
299.223
299.229
299.239
299.22
299.212
299.211
299.205
299.206
299.203
299.197
299.198
299.198
299.203
299.205
299.212
299.216
299.224
299.234
299.253
299.271
299.294
299.321
299.33
299.354
299.37
299.366
299.368
299.37
299.372
299.375
299.368
299.369
299.359
299.355
299.334
299.34
299.349
299.366
299.372
299.378
299.378
299.361
299.324
299.317
299.311
299.307
299.274
299.275
299.234
299.238
299.199
299.191
299.18
299.228
299.275
299.275
299.221
299.167
299.114
299.132
299.146
299.158
299.117
299.102
299.059
299.075
299.034
299.017
298.996
299.04
299.085
299.065
299.018
298.973
298.932
298.955
298.976
298.994
298.955
298.937
298.899
298.918
298.881
298.863
298.842
298.878
298.916
298.893
298.856
298.821
298.797
298.831
298.867
298.905
298.947
298.991
299.04
299.092
299.149
299.21
299.274
299.335
299.384
299.401
299.392
299.419
299.444
299.425
299.513
299.517
299.47
299.42
299.386
299.384
299.351
299.333
299.316
299.303
299.286
299.274
299.259
299.251
299.239
299.229
299.224
299.239
299.247
299.261
299.277
299.296
299.307
299.298
299.291
299.274
299.314
299.324
299.341
299.35
299.369
299.389
299.382
299.361
299.346
299.328
299.368
299.396
299.406
299.41
299.423
299.464
299.471
299.435
299.431
299.429
299.426
299.384
299.451
299.457
299.491
299.49
299.527
299.521
299.526
299.597
299.614
299.574
299.586
299.631
299.663
299.639
299.629
299.583
299.523
299.39
299.487
299.577
299.572
299.647
299.688
299.694
299.635
299.595
299.529
299.692
299.675
299.556
299.605
299.473
299.229
299.251
299.378
299.501
299.033
299.215
298.752
298.672
298.28
298.564
298.755
298.892
298.659
298.438
298.271
298.192
298.227
298.251
298.288
298.3
298.33
298.393
298.376
298.405
298.475
298.436
298.46
298.513
298.477
298.496
298.55
298.504
298.521
298.564
298.517
298.531
298.569
298.518
298.53
298.564
298.509
298.517
298.551
298.499
298.506
298.535
298.473
298.499
298.507
298.474
298.466
298.428
298.41
298.417
298.385
298.388
298.389
298.362
298.351
298.318
298.294
298.3
298.271
298.269
298.23
298.217
298.238
298.194
298.189
298.147
298.136
298.157
298.104
298.099
298.062
298.048
298.066
298.013
298.016
297.964
297.972
297.941
297.904
297.907
297.858
297.879
297.816
297.816
297.814
297.781
297.749
297.728
297.704
297.672
297.656
297.657
297.616
297.579
297.566
297.528
297.505
297.478
297.456
297.442
297.447
297.405
297.351
297.344
297.303
297.284
297.243
297.223
297.187
297.184
297.149
297.099
297.095
297.034
297.023
296.971
296.963
296.909
296.902
296.836
296.83
296.815
296.754
296.745
296.685
296.678
296.617
296.613
296.532
296.53
296.473
296.433
296.418
296.367
296.354
296.293
296.268
296.224
296.202
296.157
296.122
296.064
296.075
296.036
295.976
295.956
295.882
295.867
295.792
295.768
295.698
295.658
295.61
295.531
295.523
295.444
295.436
295.357
295.342
295.257
295.231
295.156
295.107
295.047
294.991
294.98
294.901
294.877
294.769
294.732
294.651
294.61
294.549
294.482
294.427
294.354
294.31
294.211
294.161
294.094
294.047
293.986
293.891
293.838
293.777
293.712
293.614
293.563
293.481
293.402
293.316
293.199
293.12
293.006
292.973
292.889
292.786
292.699
292.561
292.47
292.343
292.314
292.21
292.138
292.04
291.85
291.737
291.581
291.539
291.437
291.328
291.233
291.053
290.92
290.744
290.626
290.454
290.41
290.312
290.133
289.923
289.719
289.55
289.468
289.302
289.111
288.849
288.582
288.485
288.331
288.191
287.987
287.714
287.527
287.157
287.056
286.854
286.624
286.267
286.047
285.613
285.473
285.232
284.92
284.427
284.284
283.811
283.543
283.302
282.741
282.311
282.071
281.845
281.316
280.946
280.572
280.265
280.633
280.318
280.339
280.47
280.788
281.527
282.386
283.629
284.421
285.087
285.592
286.065
286.459
286.794
287.122
287.374
287.677
287.873
288.162
288.312
288.583
288.694
288.952
289.034
289.279
289.338
289.574
289.617
289.841
289.872
290.084
290.106
290.306
290.32
290.51
290.517
290.696
290.697
290.864
290.862
291.017
291.012
291.153
291.147
291.276
291.269
291.384
291.379
291.482
291.478
291.564
291.563
291.641
291.638
291.707
291.703
291.764
291.762
291.809
291.81
291.849
291.852