/*--------------------------------*- C++ -*----------------------------------*\
| =========                 |                                                 |
| \\      /  F ield         | OpenFOAM: The Open Source CFD Toolbox           |
|  \\    /   O peration     | Version:  v2006                                 |
|   \\  /    A nd           | Website:  www.openfoam.com                      |
|    \\/     M anipulation  |                                                 |
\*---------------------------------------------------------------------------*/
FoamFile
{
    version     2.0;
    format      ascii;
    class       volVectorField;
    location    "0.04";
    object      U;
}
// * * * * * * * * * * * * * * * * * * * * * * * * * * * * * * * * * * * * * //

dimensions      [0 1 -1 0 0 0 0];


internalField   nonuniform List<vector> 
10108
(
(66.3655 -0.00480342 -1.0193e-19)
(66.3659 0.0053146 2.51822e-19)
(66.3655 -0.00535476 1.45213e-20)
(66.3652 0.00224652 -1.42812e-19)
(66.3638 -0.00226669 0)
(66.3606 -0.000193318 2.31451e-19)
(66.3468 -0.00326648 -4.7109e-19)
(66.3062 -0.00925561 0)
(66.2282 -0.0198557 -7.0528e-19)
(66.1224 -0.0317982 7.35721e-19)
(66.001 -0.0433824 -1.1931e-20)
(65.8746 -0.0534213 0)
(65.7466 -0.0620985 -3.06685e-21)
(65.6175 -0.0696778 -1.54467e-21)
(65.4857 -0.0765436 3.8862e-22)
(65.3497 -0.0829061 0)
(65.2084 -0.0888898 0)
(65.0613 -0.0945358 0)
(64.9081 -0.0998507 0)
(64.7489 -0.104834 0)
(64.5841 -0.109493 0)
(64.4139 -0.113841 0)
(64.2385 -0.117895 0)
(64.0583 -0.121671 0)
(63.8734 -0.12518 0)
(63.6841 -0.128425 0)
(63.4908 -0.131407 0)
(63.2937 -0.13412 0)
(63.0933 -0.136557 0)
(62.8898 -0.13871 0)
(62.6837 -0.140569 0)
(62.4753 -0.142124 0)
(62.2652 -0.143366 0)
(62.0537 -0.144287 0)
(61.8412 -0.144877 0)
(61.6282 -0.145132 0)
(61.4151 -0.145047 0)
(61.2025 -0.144604 0)
(60.9907 -0.14381 0)
(60.7802 -0.142672 0)
(60.5715 -0.141172 0)
(60.3651 -0.13931 0)
(60.1614 -0.137081 0)
(59.9608 -0.134478 0)
(59.7638 -0.131489 0)
(59.5708 -0.128101 0)
(59.3823 -0.124296 0)
(59.1987 -0.120061 0)
(59.0206 -0.115389 0)
(58.8483 -0.110275 0)
(58.6819 -0.104708 0)
(58.5212 -0.0986204 0)
(58.3649 -0.0918068 0)
(58.2117 -0.083892 0)
(58.0602 -0.0742097 6.37222e-21)
(57.9116 -0.0621481 2.54452e-20)
(57.7735 -0.0477586 2.5282e-19)
(57.6627 -0.0332464 -9.98894e-20)
(57.5978 -0.021979 0)
(57.5803 -0.0159795 -3.25281e-19)
(57.5901 -0.013628 0)
(57.6083 -0.0129628 8.24433e-19)
(57.626 -0.0120464 3.31365e-18)
(57.6339 -0.00868251 2.59399e-18)
(57.6368 -0.0050649 -5.89222e-18)
(57.6229 -0.00950884 2.04113e-18)
(57.5775 -0.0171991 0)
(57.4894 -0.0305969 0)
(57.35 -0.0600746 4.84518e-19)
(57.1131 -0.0864443 -1.37414e-18)
(56.8238 -0.103245 0)
(55.7342 -0.151349 0)
(55.0329 -0.123321 0)
(56.8294 -0.162974 0)
(57.1767 -0.142831 -1.35231e-18)
(57.2187 -0.168914 3.92932e-18)
(56.7655 -0.184203 0)
(54.309 -0.119545 0)
(53.6009 -0.107807 0)
(56.6733 -0.178077 7.28011e-19)
(57.2478 -0.169455 7.5734e-20)
(57.2454 -0.166464 -9.09424e-19)
(56.5489 -0.164358 -3.74491e-19)
(52.9815 -0.0948844 -4.57841e-19)
(52.3785 -0.0824491 4.22155e-19)
(56.386 -0.149978 1.10266e-20)
(57.2119 -0.160516 5.86502e-19)
(57.1539 -0.157351 -3.00377e-19)
(56.2173 -0.140321 -1.14003e-20)
(51.8368 -0.0743025 0)
(51.3277 -0.06758 3.39411e-21)
(56.0292 -0.129898 0)
(57.0821 -0.152127 3.00475e-19)
(56.999 -0.149134 0)
(55.8515 -0.12359 4.57877e-20)
(50.8559 -0.0626939 -3.4695e-21)
(50.4262 -0.0579013 0)
(55.6689 -0.116995 -4.58426e-20)
(56.9066 -0.146151 0)
(56.8038 -0.142845 0)
(55.4812 -0.111312 0)
(50.0195 -0.0537548 0)
(49.6439 -0.0497885 0)
(55.2923 -0.105586 5.77053e-21)
(56.6999 -0.140165 0)
(56.5829 -0.137015 3.06999e-19)
(55.1023 -0.101382 -3.75337e-19)
(49.2809 -0.0470352 0)
(48.9437 -0.0440456 0)
(54.9126 -0.0970977 0)
(56.4686 -0.134927 0)
(56.3433 -0.132352 0)
(54.7242 -0.0936542 0)
(48.616 -0.0418952 0)
(48.3062 -0.039811 0)
(54.5337 -0.0906973 0)
(56.2201 -0.130745 0)
(56.0815 -0.128402 0)
(54.3393 -0.0879391 0)
(47.9973 -0.0382414 0)
(47.7057 -0.0362379 0)
(54.1466 -0.0854072 0)
(55.9498 -0.127567 0)
(55.8067 -0.125847 0)
(53.954 -0.0837732 0)
(47.4182 -0.035487 0)
(47.1445 -0.0337448 0)
(53.7628 -0.0816516 0)
(55.6707 -0.125236 0)
(55.5217 -0.123773 0)
(53.5697 -0.080381 0)
(46.8715 -0.0332758 0)
(46.6097 -0.0317532 0)
(53.3777 -0.0787014 0)
(55.3805 -0.123572 0)
(55.2258 -0.122494 0)
(53.1835 -0.0778528 0)
(46.3476 -0.0315697 0)
(46.095 -0.0302226 0)
(52.9904 -0.0765371 0)
(55.0796 -0.122659 0)
(54.9194 -0.121885 0)
(52.7946 -0.0760148 0)
(45.841 -0.0302605 0)
(45.5951 -0.0290343 0)
(52.5998 -0.0749727 0)
(54.7682 -0.122343 0)
(54.6024 -0.121821 0)
(52.402 -0.0747158 0)
(45.3471 -0.0292495 0)
(45.1063 -0.0281099 0)
(52.2049 -0.0738866 0)
(54.446 -0.122525 0)
(54.2746 -0.122226 0)
(52.0045 -0.0738553 0)
(44.8626 -0.0284739 0)
(44.6252 -0.027401 0)
(51.8047 -0.0732056 0)
(54.113 -0.123159 0)
(53.9358 -0.123083 0)
(51.6012 -0.0733827 0)
(44.3844 -0.0278971 0)
(44.149 -0.0268844 0)
(51.3981 -0.0729093 0)
(53.7688 -0.124272 0)
(53.5854 -0.124425 0)
(51.1909 -0.0732849 0)
(43.9098 -0.0275023 0)
(43.6752 -0.026541 0)
(50.9838 -0.0729756 0)
(53.4124 -0.125872 0)
(53.2226 -0.12625 0)
(50.7723 -0.0735384 0)
(43.4363 -0.0272714 0)
(43.2014 -0.0263529 0)
(50.5605 -0.0733759 0)
(53.0432 -0.127944 0)
(52.8464 -0.128536 0)
(50.3439 -0.074112 0)
(42.9616 -0.027186 0)
(42.7252 -0.0262977 0)
(50.1268 -0.0740711 0)
(52.6602 -0.130441 0)
(52.4559 -0.131242 0)
(49.9046 -0.0749701 0)
(42.4836 -0.0272254 0)
(42.2449 -0.0263664 0)
(49.6816 -0.0750539 0)
(52.2623 -0.133373 0)
(52.0501 -0.134386 0)
(49.453 -0.0761123 0)
(42.0004 -0.0273843 0)
(41.7584 -0.0265572 0)
(49.2233 -0.076332 0)
(51.8486 -0.136772 0)
(51.6279 -0.137985 0)
(48.9877 -0.0775375 0)
(41.5102 -0.0276586 0)
(41.2639 -0.0268554 0)
(48.7506 -0.0778769 0)
(51.4178 -0.140601 0)
(51.1879 -0.142004 0)
(48.5072 -0.0792185 0)
(41.0111 -0.0280338 0)
(40.7598 -0.0272546 0)
(48.262 -0.0796796 0)
(50.9686 -0.144857 0)
(50.729 -0.14646 0)
(48.0102 -0.081159 0)
(40.5014 -0.0285094 0)
(40.2442 -0.0277566 0)
(47.7562 -0.0817499 0)
(50.4998 -0.149567 0)
(50.2498 -0.151384 0)
(47.4952 -0.0833718 0)
(39.9795 -0.0290887 0)
(39.7155 -0.0283659 0)
(47.2315 -0.0841032 0)
(50.0101 -0.154767 0)
(49.7489 -0.156811 0)
(46.9604 -0.0858728 0)
(39.4435 -0.0297752 0)
(39.1718 -0.0290838 0)
(46.6862 -0.086752 0)
(49.4978 -0.160484 0)
(49.2246 -0.162766 0)
(46.4042 -0.0886736 0)
(38.8915 -0.0305697 0)
(38.6111 -0.0299109 0)
(46.1185 -0.0897109 0)
(48.9613 -0.166749 0)
(48.6752 -0.169281 0)
(45.8247 -0.0917893 0)
(38.3216 -0.0314744 0)
(38.0316 -0.0308503 0)
(45.5266 -0.0929953 0)
(48.3988 -0.173595 0)
(48.0989 -0.17639 0)
(45.2199 -0.0952359 0)
(37.7318 -0.0324929 0)
(37.431 -0.0319056 0)
(44.9084 -0.0966202 0)
(47.8084 -0.181053 0)
(47.4936 -0.184119 0)
(44.5877 -0.099025 0)
(37.12 -0.0336275 0)
(36.8074 -0.0330766 0)
(44.2617 -0.100591 0)
(47.1879 -0.189139 0)
(46.8573 -0.192463 0)
(43.9259 -0.103152 0)
(36.4839 -0.0348746 0)
(36.1585 -0.0343553 0)
(43.5843 -0.104891 0)
(46.5354 -0.197825 0)
(46.1878 -0.201369 0)
(43.2325 -0.107586 0)
(35.8216 -0.0362203 0)
(35.4825 -0.0357237 0)
(42.8744 -0.109477 0)
(45.8488 -0.207037 0)
(45.4835 -0.210765 0)
(42.5057 -0.112286 0)
(35.1314 -0.0376508 0)
(34.7778 -0.0371721 0)
(42.1301 -0.114319 0)
(45.1264 -0.216714 0)
(44.7426 -0.220604 0)
(41.7436 -0.117227 0)
(34.4117 -0.0391508 0)
(34.0429 -0.0386834 0)
(41.3499 -0.119392 0)
(44.3667 -0.226821 0)
(43.9636 -0.230851 0)
(40.9449 -0.122388 0)
(33.6612 -0.0407091 0)
(33.2766 -0.0402494 0)
(40.5323 -0.124673 0)
(43.5681 -0.237313 0)
(43.145 -0.241445 0)
(40.1082 -0.127733 0)
(32.8787 -0.0423147 0)
(32.4779 -0.0418534 0)
(39.676 -0.130113 0)
(42.7294 -0.248101 0)
(42.2857 -0.252265 0)
(39.2322 -0.1332 0)
(32.0634 -0.0439442 0)
(31.6461 -0.0434644 0)
(38.7802 -0.135628 0)
(41.8494 -0.259031 0)
(41.3849 -0.263122 0)
(38.3165 -0.138682 0)
(31.215 -0.0455588 0)
(30.7813 -0.0450357 0)
(37.8446 -0.141091 0)
(40.9279 -0.269869 0)
(40.4427 -0.273739 0)
(37.3613 -0.14403 0)
(30.3339 -0.0471025 0)
(29.8846 -0.0465022 0)
(36.8701 -0.146328 0)
(39.9653 -0.280295 0)
(39.46 -0.283747 0)
(36.3679 -0.149046 0)
(29.4218 -0.0484998 0)
(28.9582 -0.0477788 0)
(35.8585 -0.15111 0)
(38.9632 -0.289883 0)
(38.4393 -0.292658 0)
(35.339 -0.153462 0)
(28.4819 -0.0496548 0)
(28.0062 -0.048758 0)
(34.8135 -0.15513 0)
(37.9249 -0.298068 0)
(37.3846 -0.299832 0)
(34.2793 -0.156934 0)
(27.5191 -0.0504478 0)
(27.0347 -0.0492985 0)
(33.741 -0.158006 0)
(36.8554 -0.304136 0)
(36.3022 -0.304479 0)
(33.196 -0.159035 0)
(26.541 -0.050721 0)
(26.0528 -0.0492456 0)
(32.6496 -0.159277 0)
(35.7624 -0.307229 0)
(35.2013 -0.305647 0)
(32.0991 -0.159251 0)
(25.5581 -0.0502969 0)
(25.0727 -0.0483734 0)
(31.551 -0.158314 0)
(34.6567 -0.306275 0)
(34.0945 -0.302428 0)
(31.0025 -0.15701 0)
(24.5845 -0.0489794 0)
(24.1102 -0.0465327 0)
(30.4608 -0.154603 0)
(33.5525 -0.300423 0)
(32.9976 -0.293859 0)
(29.9232 -0.151774 0)
(23.6377 -0.0466247 0)
(23.1842 -0.0435822 0)
(29.3979 -0.147639 0)
(32.4674 -0.288684 0)
(31.9294 -0.278874 0)
(28.8819 -0.143054 0)
(22.738 -0.043067 0)
(22.3167 -0.0393704 0)
(28.3844 -0.137005 0)
(31.4216 -0.270112 0)
(30.9119 -0.256751 0)
(27.9019 -0.130508 0)
(21.9086 -0.0381846 0)
(21.5317 -0.0338103 0)
(27.4447 -0.122443 0)
(30.4382 -0.244185 0)
(29.9689 -0.227324 0)
(27.0085 -0.114054 0)
(21.1741 -0.0319706 0)
(20.8537 -0.026979 0)
(26.6044 -0.104015 0)
(29.5417 -0.211194 0)
(29.1248 -0.191497 0)
(26.2267 -0.0940824 0)
(20.5582 -0.0246562 0)
(20.3046 -0.0191855 0)
(25.8871 -0.082376 0)
(28.7554 -0.172153 0)
(28.4014 -0.150326 0)
(25.578 -0.071545 0)
(20.0799 -0.0165312 0)
(19.8998 -0.0108697 0)
(25.311 -0.0590771 0)
(28.0986 -0.129158 0)
(27.8144 -0.107104 -7.79198e-20)
(25.0763 -0.0481331 0)
(19.7499 -0.00830024 0)
(19.644 -0.00278223 0)
(24.885 -0.0356922 0)
(27.5826 -0.0856451 7.78395e-20)
(27.3702 -0.0646875 -7.79304e-20)
(24.7253 -0.0255073 0)
(19.567 -0.000533897 0)
(19.5308 0.00490948 0)
(24.6076 -0.0141105 0)
(27.2089 -0.0445375 7.78497e-20)
(27.0652 -0.0253509 -7.79371e-20)
(24.5178 -0.00427667 0)
(19.521 0.00670677 0)
(19.5532 0.0114092 0)
(24.4686 0.006507 0)
(26.9652 -0.00702466 7.78548e-20)
(26.8851 0.00765919 0)
(24.4348 0.0127853 0)
(19.6026 0.0125164 0)
(19.6835 0.0156486 0)
(24.4441 0.0214535 0)
(26.8415 0.0226921 0)
(26.82 0.0329919 0)
(24.4593 0.0252396 0)
(19.772 0.0155935 0)
(19.8849 0.0174792 0)
(24.5161 0.0324826 0)
(26.8258 0.044489 0)
(26.8473 0.0515117 -7.79365e-20)
(24.5721 0.03478 0)
(19.9998 0.0165526 0)
(20.1321 0.0178771 0)
(24.6617 0.0393441 0)
(26.8896 0.0587373 7.78515e-20)
(26.9405 0.0621794 -7.79323e-20)
(24.7441 0.039683 0)
(20.2611 0.0165111 0)
(20.4009 0.017392 0)
(24.8531 0.0423043 0)
(27.0065 0.0661791 7.78479e-20)
(27.0762 0.0671219 0)
(24.9502 0.0413466 0)
(20.5337 0.0157825 0)
(20.6728 0.0162883 0)
(25.0686 0.0424805 0)
(27.1565 0.0686664 0)
(27.237 0.0678596 0)
(25.1718 0.0406785 0)
(20.8022 0.0145709 0)
(20.9351 0.0149065 0)
(25.2926 0.0410174 0)
(27.3246 0.0680608 0)
(27.4103 0.066367 0)
(25.3965 0.0388075 0)
(21.0576 0.0132147 0)
(21.1818 0.0134546 0)
(25.5156 0.0386515 0)
(27.5009 0.0656442 0)
(27.5879 0.0634419 0)
(25.6168 0.0362533 0)
(21.2953 0.01182 0)
(21.4095 0.0120361 0)
(25.7315 0.0359225 0)
(27.6782 0.0623792 0)
(27.7645 0.0601267 0)
(25.8283 0.03373 0)
(21.5139 0.010638 0)
(21.6185 0.0106935 0)
(25.9379 0.0331489 0)
(27.8532 0.0587975 0)
(27.9375 0.0565336 0)
(26.0296 0.0312103 0)
(21.7143 0.00955707 0)
(21.8115 0.00979876 -5.63893e-20)
(26.1348 0.0308188 0)
(28.0246 0.0552497 0)
(28.1063 0.0528745 0)
(26.2215 0.028564 0)
(21.8996 0.00841537 5.63327e-20)
(21.9879 0.008848 -5.62755e-20)
(26.3203 0.0284687 -3.73298e-19)
(28.1897 0.0517672 3.10839e-19)
(28.2682 0.0492963 -7.73659e-20)
(26.4019 0.026224 9.282e-20)
(22.0689 0.00749101 1.11717e-19)
(22.1495 0.0078971 -5.58303e-20)
(26.495 0.0264555 -9.25416e-20)
(28.348 0.0486936 7.70198e-20)
(28.4231 0.0470061 -6.06206e-19)
(26.5781 0.0254485 3.60187e-19)
(22.2255 0.00792415 4.3256e-19)
(22.3164 0.00860799 -8.78879e-19)
(26.6651 0.0256995 1.81738e-19)
(28.5119 0.0477967 -1.50721e-19)
(28.604 0.0471752 -4.33544e-19)
(26.7653 0.0265858 -1.71824e-19)
(22.4061 0.0100385 0)
(22.5293 0.0111395 -2.21415e-19)
(26.8738 0.0261758 -7.24913e-19)
(28.7086 0.0463285 3.54238e-18)
(28.8036 0.0497297 -5.71266e-19)
(26.9832 0.027459 -6.81138e-19)
(22.6328 0.0102824 -2.02543e-19)
(22.7051 0.0123181 -4.79333e-19)
(27.0719 0.03081 0)
(28.8902 0.0549391 1.2599e-18)
(29.0285 0.0523953 -5.03137e-18)
(27.2188 0.034976 0)
(22.8845 0.00863813 8.95052e-19)
(23.0421 0.0186743 0)
(27.3621 0.0307251 8.15809e-19)
(29.1512 0.0504065 -7.63178e-19)
(30.9312 0.0883426 9.958e-19)
(32.0148 0.111109 -6.12746e-20)
(32.7547 0.121733 0)
(33.2314 0.136867 0)
(33.6068 0.178474 0)
(34.053 0.2026 8.24011e-19)
(34.3793 0.211769 -8.68675e-19)
(34.7018 0.223815 1.03059e-19)
(34.9556 0.225737 -5.15494e-20)
(35.1974 0.228542 0)
(35.3973 0.227359 0)
(35.5886 0.225231 0)
(35.7496 0.220793 0)
(35.9052 0.214454 0)
(36.0335 0.205543 8.55588e-19)
(36.1539 0.19519 -2.61318e-18)
(36.2453 0.182452 1.82917e-18)
(36.3189 0.167508 0)
(36.3506 0.144997 -9.93341e-19)
(36.319 0.108695 -3.11836e-17)
(36.1921 0.0779458 7.21033e-17)
(36.0291 0.0466239 0)
(35.8327 0.0172451 0)
(35.159 0.00144457 1.16823e-17)
(33.5683 0.0117812 0)
(31.9347 0.0436358 0)
(27.4435 -0.108595 7.93296e-18)
(26.9566 -0.268222 -1.05242e-17)
(31.4916 -0.145185 -7.0519e-17)
(33.1315 -0.184072 7.23521e-21)
(31.6322 -0.567433 2.95977e-17)
(28.7972 -0.442125 2.73194e-17)
(21.8837 -0.394327 0)
(22.9689 -0.0212788 -5.06166e-18)
(29.8234 -0.102898 1.47654e-17)
(32.5609 -0.184638 -7.01405e-18)
(32.6106 -0.0301892 -3.11655e-18)
(29.8417 -0.0291533 -2.91741e-18)
(22.636 -0.0205705 0)
(22.7027 -0.010403 0)
(29.9481 -0.00367601 -1.79216e-18)
(32.7182 0.00764434 0)
(32.6587 0.0124322 0)
(29.867 0.00459351 9.10533e-19)
(22.5188 -0.00199687 1.38373e-19)
(22.646 -0.000629417 3.82534e-25)
(29.9636 0.0119348 0)
(32.7296 0.0245892 -3.00429e-18)
(32.6943 0.0212116 7.56533e-19)
(29.8919 0.0121578 -9.2094e-19)
(22.5419 0.00282921 2.78303e-25)
(22.684 0.00139651 -2.34803e-18)
(30.0066 0.0177268 -3.01264e-25)
(32.7744 0.0315863 -1.51442e-18)
(32.7543 0.0263018 1.53217e-18)
(30.0033 0.0150296 -9.15174e-19)
(22.5951 0.00438346 -9.74839e-19)
(22.748 0.00620748 3.82319e-25)
(30.1287 0.0193641 0)
(32.8488 0.0328176 -1.53004e-18)
(32.8444 0.0308444 1.5238e-18)
(30.104 0.0213576 0)
(22.7701 0.0104873 2.7548e-25)
(22.925 0.00712557 -1.39239e-19)
(30.2358 0.0219682 0)
(32.9439 0.0360042 -1.52331e-18)
(32.9442 0.0342426 1.52347e-18)
(30.2407 0.0230563 0)
(22.9552 0.0102129 0)
(23.1102 0.00745979 0)
(30.3745 0.0229501 0)
(33.0454 0.0376899 -1.52299e-18)
(33.0489 0.0357107 1.52316e-18)
(30.3833 0.0239513 0)
(23.1454 0.0105755 0)
(23.3042 0.00798209 0)
(30.5197 0.0241964 0)
(33.152 0.0396248 -1.52267e-18)
(33.1595 0.0375157 1.52283e-18)
(30.5328 0.0250418 0)
(23.345 0.0110025 0)
(23.5077 0.00845348 0)
(30.6719 0.0253012 0)
(33.2643 0.0413818 -1.52232e-18)
(33.2752 0.0391146 1.52249e-18)
(30.6888 0.0260384 0)
(23.5536 0.0113818 0)
(23.7205 0.00901873 0)
(30.8307 0.0266798 0)
(33.3819 0.0434727 -1.52198e-18)
(33.3971 0.0412092 1.52212e-18)
(30.8525 0.0273291 0)
(23.7726 0.0118601 0)
(23.9439 0.00953278 0)
(30.9976 0.0279647 0)
(33.5061 0.0454907 0)
(33.5254 0.0431942 0)
(31.0244 0.0285684 0)
(24.0021 0.0123099 0)
(24.1786 0.0102029 0)
(31.1733 0.0296614 0)
(33.6369 0.0481721 -1.52121e-18)
(33.6616 0.0458818 1.52135e-18)
(31.2058 0.0301797 0)
(24.2444 0.0128787 0)
(24.4266 0.0108353 0)
(31.3592 0.0313636 0)
(33.7765 0.0508765 0)
(33.8065 0.0486887 0)
(31.3985 0.0319092 0)
(24.5003 0.0134684 0)
(24.6895 0.0116725 0)
(31.5575 0.0336303 0)
(33.9253 0.0545008 -1.52037e-18)
(33.9623 0.0523495 -1.52048e-18)
(31.6047 0.0341125 0)
(24.7732 0.0142066 0)
(24.9705 0.0125392 0)
(31.7705 0.0361034 0)
(34.0861 0.058449 1.51837e-18)
(34.1311 0.0567001 -1.52154e-18)
(31.8275 0.0367908 0)
(25.0658 0.0150965 0)
(25.2736 0.0137667 0)
(32.0023 0.0395456 0)
(34.2612 0.0639592 -1.51943e-18)
(34.3163 0.0623912 1.51951e-18)
(32.0714 0.0402838 0)
(25.3844 0.0162807 0)
(25.6056 0.0152447 0)
(32.2576 0.0436877 0)
(34.4546 0.0704967 -1.51891e-18)
(34.5217 0.0698277 1.51897e-18)
(32.3418 0.0450122 0)
(25.7362 0.017986 0)
(25.9755 0.0175725 0)
(32.543 0.0497309 0)
(34.6703 0.0796319 -1.51838e-18)
(34.7523 0.0798688 1.51839e-18)
(32.6463 0.0515903 0)
(26.1333 0.0204149 0)
(26.3967 0.0206373 0)
(32.8658 0.05772 0)
(34.9127 0.0917965 -1.5178e-18)
(35.014 0.0948136 1.51775e-18)
(32.9949 0.0615624 0)
(26.5945 0.0246464 0)
(26.8986 0.0260477 0)
(33.2434 0.0699007 0)
(35.1936 0.110234 -1.51719e-18)
(35.3217 0.116109 1.51701e-18)
(33.4089 0.0756314 0)
(27.1595 0.0319179 0)
(27.5266 0.0355013 0)
(33.6969 0.0871808 0)
(35.5273 0.138655 -1.51646e-18)
(35.6897 0.151115 1.51609e-18)
(33.9091 0.0957501 0)
(27.8803 0.0472432 0)
(28.3664 0.0561679 0)
(34.27 0.108781 0)
(35.9498 0.185686 -1.51553e-18)
(36.2137 0.2245 -1.52126e-18)
(34.6205 0.126011 0)
(28.9257 0.0968618 0)
(29.6049 0.218882 2.21758e-18)
(35.097 0.26168 -1.8354e-18)
(36.5534 0.382486 0)
(36.7919 0.624361 0)
(35.426 0.512154 -3.67677e-18)
(30.1589 0.47341 8.88476e-18)
(30.6542 0.768657 0)
(35.7096 0.860046 0)
(36.9687 0.967279 0)
(36.9672 1.32993 1.67363e-22)
(35.7384 1.27162 7.2356e-18)
(30.8846 1.18252 -1.76523e-17)
(31.0713 1.4429 0)
(35.7321 1.57358 0)
(36.9001 1.64038 0)
(36.7823 1.91524 -1.17346e-17)
(35.6749 1.85163 1.41342e-17)
(31.2031 1.70681 0)
(31.3457 1.96922 0)
(35.5799 2.12726 0)
(36.6431 2.18519 1.15707e-17)
(36.4458 2.44325 0)
(35.4486 2.39785 0)
(31.4084 2.21919 3.30385e-17)
(31.4422 2.42975 3.28826e-17)
(35.2934 2.62053 -2.73068e-17)
(36.2342 2.66711 3.49994e-19)
(35.99 2.87452 -3.36475e-17)
(35.0952 2.83763 2.73216e-17)
(31.4488 2.65412 5.07211e-19)
(31.5052 2.83843 3.1486e-17)
(34.932 3.01638 -2.6542e-17)
(35.758 3.06738 0)
(35.4644 3.29459 -2.28865e-17)
(34.6741 3.27345 2.70125e-17)
(31.4781 3.11723 -1.00008e-18)
(31.4482 3.33701 -2.99278e-17)
(34.4158 3.47723 -7.94713e-19)
(35.141 3.49325 2.21911e-17)
(34.7745 3.68628 2.46753e-17)
(34.1126 3.66526 2.14789e-17)
(31.4215 3.55876 -2.65305e-17)
(31.431 3.7746 1.72189e-17)
(33.8052 3.86015 -3.91389e-17)
(34.3741 3.89478 1.1735e-17)
(33.864 4.03089 1.15093e-16)
(33.3751 4.04911 2.06774e-18)
(31.4285 3.95175 9.53234e-18)
(29.177 3.9263 0)
(32.3017 4.06211 -5.57744e-18)
(33.2314 4.05026 0)
(33.1741 4.34058 2.62071e-17)
(32.4847 4.33546 -2.8931e-17)
(29.801 4.10576 3.9582e-17)
(29.6119 4.35933 -3.50703e-17)
(32.173 4.57295 2.75896e-17)
(32.7979 4.5436 -2.35366e-17)
(32.3028 4.72538 3.40818e-19)
(31.7612 4.78818 8.45727e-19)
(29.4135 4.61981 -1.04109e-18)
(29.1257 4.85373 6.09004e-17)
(31.2735 4.96963 -7.89192e-19)
(31.7366 4.89416 -1.79324e-17)
(31.0401 5.06023 1.66674e-17)
(30.6585 5.17299 -1.78973e-17)
(28.7715 5.13846 1.87456e-18)
(28.3034 5.43851 -6.80051e-18)
(29.894 5.40011 -5.14188e-18)
(30.1917 5.23053 7.72033e-18)
(29.1191 5.18952 -1.42295e-17)
(28.8911 5.46533 0)
(27.7654 5.58966 8.65136e-17)
(25.6372 5.37331 1.01912e-16)
(27.577 5.60041 1.41958e-18)
(28.1334 5.62076 1.29247e-18)
(27.2893 5.55929 0)
(26.7891 5.79787 -1.02467e-18)
(25.233 5.75812 8.1267e-17)
(24.1558 6.0076 0)
(25.5364 5.89068 0)
(25.9081 5.57629 0)
(24.1756 5.68196 4.44533e-17)
(23.9689 6.17005 -3.64966e-17)
(22.9894 6.4694 5.70546e-17)
(21.7154 6.59843 1.12048e-17)
(22.0518 5.99988 -1.8983e-17)
(22.081 5.31087 -1.62804e-17)
(20.4124 5.85903 -5.54856e-17)
(20.1505 6.30176 5.01084e-17)
(19.3893 6.5852 -1.77807e-18)
(17.6387 6.50403 1.34702e-18)
(18.0371 5.86375 0)
(18.2976 5.03341 5.24307e-17)
(15.4454 3.70439 7.39823e-17)
(15.3765 5.25698 1.26803e-17)
(15.3924 6.77726 -6.94016e-17)
(10.2316 4.59829 1.7836e-16)
(9.86724 1.95016 -1.6085e-16)
(10.3563 -0.372448 7.28399e-18)
(7.41439 -3.24888 5.70535e-17)
(6.55457 -0.550272 -1.5938e-16)
(6.20829 2.4243 1.00587e-16)
(-5.32856 -12.795 -1.90228e-16)
(-2.63611 -14.7608 0)
(1.38802 -16.6229 -9.7864e-17)
(2.84598 -33.7943 0)
(-1.62405 -34.461 4.54951e-17)
(-5.64357 -36.4348 -5.95109e-17)
(16.334 -50.5533 0)
(20.0459 -46.8269 8.55186e-17)
(19.5349 -45.711 -1.4287e-16)
(36.5415 -44.8543 8.99257e-17)
(37.353 -44.9497 -1.03899e-16)
(34.2921 -47.1557 1.72019e-16)
(39.3831 -39.9366 0)
(43.4161 -37.7357 -1.87843e-17)
(41.9763 -39.6214 0)
(46.4038 -35.9403 0)
(46.6072 -34.4099 0)
(42.7301 -33.4592 -8.77349e-17)
(42.7289 -29.7752 1.5168e-16)
(46.9089 -30.5048 -1.11663e-16)
(47.4883 -31.9438 0)
(47.2388 -28.815 -8.4641e-17)
(46.2052 -27.2553 1.91721e-16)
(41.7647 -26.4459 -1.08022e-16)
(43.1233 -24.9936 8.92364e-18)
(47.0672 -27.0495 0)
(48.0073 -28.4977 0)
(47.8681 -26.3746 -2.64467e-18)
(46.5437 -25.109 0)
(42.3797 -23.3601 -8.93651e-17)
(40.9808 -21.8257 -1.09824e-16)
(45.2236 -23.3551 -5.39868e-17)
(46.9524 -24.4311 4.24426e-17)
(47.6667 -25.0426 -7.82416e-17)
(46.3312 -23.9254 2.4299e-17)
(42.4488 -21.7849 2.88747e-18)
(41.6985 -20.9056 0)
(45.7118 -22.7907 -1.75653e-17)
(47.3021 -23.8356 1.04192e-17)
(46.222 -22.6228 2.09264e-17)
(44.4268 -21.6175 5.88396e-18)
(40.4071 -19.7639 1.04652e-16)
(41.8353 -20.2443 9.34087e-17)
(45.6511 -22.3576 7.63258e-17)
(47.0298 -23.3265 -1.1367e-16)
(46.5332 -22.6421 -1.02217e-17)
(44.9371 -21.6915 0)
(40.9907 -19.6866 0)
(39.6557 -19.0875 1.05708e-16)
(43.5587 -20.8683 -4.61838e-17)
(45.445 -21.6027 -5.64896e-17)
(46.1867 -22.5286 -1.3157e-16)
(44.7969 -21.7075 0)
(41.1573 -19.7192 0)
(40.4889 -19.3398 0)
(44.2316 -21.2576 0)
(45.7964 -22.1208 -8.12285e-17)
(44.7765 -21.2798 0)
(42.9865 -20.5202 0)
(39.2641 -18.7168 -1.04966e-16)
(40.6868 -19.6147 -1.77137e-16)
(44.1697 -21.5217 2.97519e-16)
(45.5249 -22.2336 -1.94802e-20)
(45.1797 -22.0372 0)
(43.6797 -21.2288 -1.04512e-16)
(40.1065 -19.3446 1.44372e-16)
(38.94 -18.8769 0)
(42.4929 -20.6478 -5.63238e-18)
(44.227 -21.339 0)
(45.0111 -22.2735 1.26095e-16)
(43.6996 -21.5976 -1.47245e-16)
(40.3442 -19.7368 2.63995e-16)
(39.7191 -19.4739 -1.41817e-16)
(43.1928 -21.3489 1.07749e-16)
(44.659 -22.1443 -5.01255e-18)
(43.731 -21.6065 1.00123e-17)
(42.0048 -20.9478 -9.01227e-17)
(38.5308 -19.1292 2.0284e-16)
(40.0208 -20.0799 2.52167e-16)
(43.2907 -21.9271 -1.29119e-16)
(44.572 -22.5425 0)
(44.2959 -22.5571 0)
(42.8596 -21.793 -1.34338e-17)
(39.4867 -19.903 8.97877e-18)
(38.4023 -19.5853 1.00075e-16)
(41.7794 -21.4182 0)
(43.4469 -22.057 0)
(44.3063 -22.9553 0)
(43.0612 -22.3546 -1.29992e-16)
(39.8547 -20.5031 2.55278e-16)
(39.3266 -20.3622 1.13019e-17)
(42.6282 -22.2774 -1.35611e-17)
(44.0422 -23.024 8.07245e-17)
(43.2416 -22.5433 0)
(41.6035 -21.8944 5.72867e-18)
(38.2816 -20.0261 4.87949e-22)
(39.6852 -20.9971 -9.18153e-17)
(42.8601 -22.8796 1.40978e-17)
(44.0924 -23.4555 -1.27548e-16)
(43.8362 -23.5828 0)
(42.4386 -22.8181 -1.37768e-17)
(39.1566 -20.8575 0)
(38.0814 -20.6377 0)
(41.3865 -22.5814 8.76972e-17)
(43.0349 -23.2089 -1.24189e-16)
(43.9646 -24.108 0)
(42.7684 -23.5619 4.86033e-18)
(39.647 -21.6764 0)
(39.1669 -21.5288 0)
(42.3254 -23.4358 0)
(43.7558 -24.201 0)
(42.8671 -23.9941 -5.52668e-18)
(41.3526 -23.1338 0)
(38.1438 -20.9151 -1.14647e-16)
(39.5472 -22.3455 -3.06681e-16)
(42.7257 -24.2816 1.83191e-16)
(43.8945 -24.7604 -6.93936e-17)
(43.3822 -24.5136 -7.94285e-18)
(42.012 -23.8484 -9.62568e-18)
(38.8764 -21.9491 0)
(40.0245 -22.9624 0)
(43.0489 -24.8893 -1.69945e-17)
(44.2188 -25.4062 1.18931e-16)
(44.0532 -25.7193 4.93462e-18)
(42.7447 -25.0513 1.19498e-16)
(39.7492 -23.0605 -7.58718e-17)
(39.0123 -22.7386 9.93628e-18)
(41.9916 -24.6347 -5.74638e-18)
(43.4547 -25.2757 -4.58653e-17)
(44.3046 -26.0879 6.12906e-17)
(43.1644 -25.5213 -1.44602e-17)
(40.1523 -23.5585 7.75486e-17)
(39.6459 -23.6478 9.5901e-18)
(42.667 -25.7545 1.42943e-17)
(44.0844 -26.4352 0)
(43.3779 -26.2103 4.4256e-17)
(41.9727 -25.3474 -9.3295e-17)
(38.9931 -23.0538 2.2899e-16)
(40.2473 -24.3924 3.07605e-16)
(43.3517 -26.4335 -1.77959e-16)
(44.4597 -26.9262 0)
(43.9547 -26.6873 0)
(42.6121 -25.9851 -4.82767e-18)
(39.5217 -23.9563 -8.78592e-17)
(40.6916 -25.2595 -5.20421e-18)
(43.5743 -27.2038 4.27022e-18)
(44.7311 -27.6357 0)
(44.7226 -28.0047 0)
(43.5049 -27.3309 0)
(40.6785 -25.3731 0)
(39.9877 -24.9637 5.18984e-22)
(42.8339 -26.8534 -1.83255e-16)
(44.199 -27.5224 7.85182e-17)
(45.0448 -28.3662 -6.68223e-17)
(43.9187 -27.8062 5.20501e-18)
(40.8909 -25.7512 0)
(40.1237 -25.6521 1.77491e-16)
(43.1198 -27.7766 -9.43322e-18)
(44.4903 -28.4116 7.81002e-18)
(45.4742 -29.273 -6.97053e-18)
(44.3918 -28.848 0)
(41.5985 -26.9341 5.16631e-18)
(41.5396 -26.9523 -1.4368e-16)
(44.3104 -28.8794 0)
(45.4728 -29.5837 -7.90885e-17)
(44.9157 -29.0777 1.30562e-16)
(43.5737 -28.3448 2.27188e-21)
(40.7441 -26.4352 1.08262e-16)
(41.616 -27.5288 -1.97699e-16)
(44.5017 -29.541 -1.04435e-17)
(45.6153 -30.0138 -4.44884e-18)
(45.2016 -30.1062 0)
(43.9367 -29.4763 9.42927e-18)
(41.1077 -27.4484 0)
(42.5891 -28.6044 1.03242e-17)
(45.2508 -30.4543 1.34922e-16)
(46.2233 -30.8817 -1.10823e-16)
(46.2194 -31.146 8.41606e-17)
(45.1324 -30.4253 -3.32605e-18)
(42.4368 -28.5318 -1.50956e-16)
(41.5702 -28.0869 -2.16622e-16)
(44.3178 -30.0057 9.97958e-17)
(45.632 -30.7289 -8.83872e-17)
(46.3821 -31.689 1.33798e-17)
(45.2934 -31.2847 -1.68094e-16)
(42.5445 -29.3389 1.99226e-16)
(42.193 -29.1979 0)
(44.9002 -31.1277 -4.79795e-18)
(46.0672 -31.7587 -1.58161e-17)
(47.0649 -32.5008 0)
(46.1442 -32.0618 2.15571e-17)
(43.5139 -30.2031 1.78076e-16)
(43.2817 -30.0772 -9.11621e-18)
(45.9667 -32.0074 -1.36021e-17)
(47.0219 -32.7522 0)
(46.4493 -32.407 -4.25707e-17)
(45.146 -31.6769 -9.64744e-17)
(42.3915 -29.6766 1.10853e-16)
(43.4371 -30.8972 -1.90652e-16)
(46.1851 -32.9019 2.6865e-16)
(47.2005 -33.2981 -1.27905e-16)
(46.9149 -33.3348 1.12902e-16)
(45.7873 -32.6841 -8.76838e-17)
(43.0553 -30.6919 -1.18305e-17)
(44.3645 -31.7619 1.81491e-16)
(46.9676 -33.6495 -1.73838e-17)
(47.8583 -34.0593 -1.42986e-17)
(47.8402 -34.302 -6.62467e-17)
(46.8594 -33.5754 1.3763e-17)
(44.1329 -31.5974 1.4359e-16)
(43.0988 -31.4471 -1.19378e-16)
(45.9122 -33.3304 4.71288e-20)
(47.3277 -33.9048 -9.7773e-17)
(48.0527 -34.9272 0)
(47.0788 -34.4624 -1.75291e-16)
(44.3883 -32.3512 1.28665e-17)
(43.8946 -32.2258 -6.18299e-18)
(46.6531 -34.2863 5.07514e-18)
(47.7767 -34.929 0)
(48.7958 -35.6664 -1.27643e-16)
(47.9235 -35.2527 1.30219e-16)
(45.2485 -33.2804 -1.75929e-17)
(44.788 -32.9397 -7.22437e-17)
(47.4568 -34.8801 9.1456e-17)
(48.5054 -35.5513 0)
(49.2687 -36.2788 1.2423e-16)
(48.3519 -35.8198 1.51578e-16)
(45.6989 -33.7988 -1.70191e-16)
(45.3933 -33.8813 -5.68316e-21)
(47.9785 -36.0222 -1.70045e-17)
(49.1243 -36.713 6.55839e-17)
(48.6041 -36.5957 -7.61716e-17)
(47.4827 -35.6973 1.04945e-16)
(44.9491 -33.3418 0)
(45.8992 -34.7356 -1.97776e-16)
(48.7485 -36.8107 1.77835e-16)
(49.6859 -37.169 -1.88423e-17)
(49.3415 -37.119 -1.10289e-16)
(48.2435 -36.3668 8.24526e-17)
(45.5227 -34.2915 -6.23016e-18)
(46.5186 -35.2134 -5.94884e-18)
(49.2717 -37.3472 3.81252e-22)
(50.1478 -37.8134 1.20311e-16)
(49.7693 -37.8424 -6.84658e-17)
(48.6636 -37.1611 7.41811e-17)
(45.9409 -34.9937 -1.80275e-16)
(47.1196 -36.2064 2.87576e-21)
(49.6984 -38.2183 1.36843e-16)
(50.592 -38.5676 1.18813e-16)
(50.6602 -38.9759 0)
(49.6039 -38.3041 0)
(47.0882 -36.2585 0)
(46.701 -35.4908 0)
(49.2177 -37.794 -9.31856e-17)
(50.2244 -38.7571 8.76345e-17)
(51.2116 -39.3103 -1.9157e-17)
(50.2729 -38.9328 7.23613e-17)
(47.3525 -36.8137 2.26274e-16)
(46.9031 -36.2928 -3.15969e-16)
(49.6578 -38.4813 9.29751e-17)
(50.7723 -39.2745 1.71506e-17)
(51.5431 -40.0817 0)
(50.6208 -39.7176 0)
(47.9221 -37.5729 0)
(47.6296 -37.3696 0)
(50.2513 -39.442 0)
(51.2821 -40.12 7.8972e-18)
(52.2187 -40.7987 -1.48606e-16)
(51.3887 -40.423 1.51148e-16)
(48.7628 -38.3972 -1.7251e-16)
(48.3914 -38.1165 -5.49242e-18)
(50.9809 -40.1175 6.7542e-17)
(51.9689 -40.7804 -1.04314e-16)
(52.7397 -41.388 1.11022e-16)
(51.9506 -40.9714 -1.3199e-16)
(49.4396 -38.9969 -1.56802e-17)
(49.1474 -38.8466 9.14073e-18)
(51.657 -40.8874 -3.40985e-18)
(52.6763 -41.6422 0)
(52.0907 -41.6019 0)
(51.0491 -40.6349 1.24322e-17)
(48.5213 -38.1976 0)
(49.2538 -39.8184 2.14545e-16)
(52.1665 -41.8901 -1.95408e-16)
(53.1304 -42.1619 1.90203e-17)
(52.8183 -42.2491 -7.7488e-17)
(51.7668 -41.4664 1.57188e-17)
(49.0758 -39.332 2.00752e-16)
(50.2325 -40.2982 1.98549e-16)
(52.9737 -42.4283 5.00259e-18)
(53.7407 -42.8306 -1.39823e-16)
(53.4633 -42.743 0)
(52.4875 -42.0349 -9.63726e-18)
(49.7765 -39.9107 -1.8206e-16)
(50.7138 -40.7761 -5.75104e-18)
(53.4436 -42.9566 1.51009e-16)
(54.2676 -43.3871 -1.40114e-16)
(53.929 -43.5004 1.48419e-17)
(52.8786 -42.8117 0)
(50.199 -40.5866 0)
(51.4719 -41.8079 0)
(53.999 -43.8443 0)
(54.8152 -44.1744 1.37433e-17)
(54.9463 -44.5435 -1.51716e-17)
(53.9634 -43.8569 1.08673e-16)
(51.4426 -41.779 -2.91231e-16)
(51.0253 -41.1164 2.32857e-16)
(53.543 -43.4248 9.83381e-17)
(54.5416 -44.3555 -8.10466e-17)
(55.568 -44.8647 -7.04429e-17)
(54.6913 -44.4851 -7.72882e-17)
(51.8053 -42.3476 -3.00517e-18)
(51.36 -41.7972 6.29562e-18)
(54.1083 -44.0399 -1.55082e-17)
(55.1735 -44.8439 -6.82263e-17)
(55.9658 -45.5563 4.89147e-17)
(55.1063 -45.1592 4.97839e-18)
(52.3581 -42.9078 -1.99748e-16)
(51.9539 -42.7115 5.87945e-18)
(54.6272 -44.933 2.31238e-16)
(55.6681 -45.6468 -4.74976e-17)
(56.6809 -46.3317 1.25932e-16)
(55.8826 -45.9758 -1.52948e-16)
(53.2294 -43.856 -5.83672e-18)
(52.896 -43.5675 1.79693e-16)
(55.5042 -45.6421 -4.61215e-18)
(56.4773 -46.3299 -7.64633e-18)
(57.327 -46.9282 2.26373e-17)
(56.543 -46.5512 4.58968e-18)
(53.9391 -44.4879 0)
(53.5497 -44.2195 1.65735e-16)
(56.1228 -46.2914 -1.31406e-16)
(57.0875 -46.9699 -6.50112e-17)
(57.9537 -47.5631 -2.01357e-17)
(57.1921 -47.1938 -1.56478e-16)
(54.6862 -45.1817 3.32186e-16)
(54.5313 -45.0951 -1.39272e-16)
(57.0509 -47.1976 2.20875e-16)
(58.014 -47.9057 -6.48589e-17)
(57.5946 -47.7335 1.17911e-16)
(56.5749 -46.8274 -1.88303e-16)
(54.051 -44.5006 1.02685e-16)
(54.8699 -45.7878 2.27195e-16)
(57.7024 -47.9354 -1.59552e-16)
(58.5757 -48.2769 -1.87361e-17)
(58.2591 -48.3489 1.70519e-17)
(57.2244 -47.5744 1.54966e-16)
(54.5066 -45.3326 -2.1665e-16)
(55.6636 -46.3448 1.52019e-17)
(58.444 -48.5756 0)
(59.21 -48.955 -6.54342e-17)