/*--------------------------------*- C++ -*----------------------------------*\
| =========                 |                                                 |
| \\      /  F ield         | OpenFOAM: The Open Source CFD Toolbox           |
|  \\    /   O peration     | Version:  v2006                                 |
|   \\  /    A nd           | Website:  www.openfoam.com                      |
|    \\/     M anipulation  |                                                 |
\*---------------------------------------------------------------------------*/
FoamFile
{
    version     2.0;
    format      ascii;
    class       volScalarField;
    location    "0.145";
    object      isentropic(p);
}
// * * * * * * * * * * * * * * * * * * * * * * * * * * * * * * * * * * * * * //

dimensions      [1 -1 -2 0 0 0 0];


internalField   nonuniform List<scalar> 
16277
(
150008
150014
150017
150003
150012
150010
150011
150012
150013
150013
150013
150012
150012
150011
150011
150011
150010
150010
150010
150010
150010
150010
150010
150009
150009
150009
150009
150009
150009
150009
150009
150009
150008
150008
150008
150008
150008
150008
150008
150008
150007
150007
150007
150007
150007
150007
150007
150007
150006
150006
150006
150006
150006
150006
150006
150006
150005
150005
150005
150005
150005
150005
150005
150005
150005
150004
150004
150004
150004
150004
150004
150004
150004
150004
150004
150003
150003
150003
150003
150002
150002
150001
150001
150000
150001
150003
150004
150005
150004
150006
150005
150007
150008
150011
150017
150015
149976
149936
150011
150022
150021
150002
149897
149860
149993
150018
150013
149981
149826
149796
149971
150008
150002
149959
149768
149744
149949
149997
149991
149938
149721
149703
149929
149986
149979
149919
149684
149669
149911
149975
149968
149901
149653
149640
149893
149964
149958
149884
149627
149616
149877
149953
149947
149868
149605
149595
149862
149943
149937
149854
149585
149577
149849
149934
149928
149841
149568
149561
149836
149925
149919
149829
149553
149547
149824
149916
149911
149817
149540
149534
149813
149908
149903
149807
149528
149523
149803
149901
149896
149797
149517
149513
149794
149893
149889
149788
149508
149504
149785
149887
149882
149779
149499
149496
149776
149880
149876
149771
149492
149489
149769
149874
149870
149763
149485
149483
149761
149868
149864
149756
149479
149477
149755
149863
149859
149750
149474
149473
149748
149857
149853
149744
149470
149469
149743
149852
149848
149738
149466
149465
149737
149847
149844
149733
149463
149463
149732
149843
149839
149728
149461
149461
149727
149839
149835
149724
149459
149459
149723
149835
149831
149720
149458
149458
149719
149831
149827
149716
149457
149458
149715
149827
149824
149712
149457
149458
149712
149824
149820
149709
149458
149459
149709
149820
149817
149706
149459
149460
149706
149817
149814
149704
149460
149462
149704
149814
149811
149702
149462
149464
149702
149811
149809
149700
149465
149467
149700
149809
149806
149698
149468
149470
149699
149806
149804
149697
149471
149474
149698
149804
149802
149696
149475
149478
149697
149802
149800
149695
149480
149483
149696
149801
149799
149695
149485
149488
149696
149799
149797
149695
149490
149493
149697
149798
149796
149696
149496
149499
149697
149797
149795
149696
149502
149506
149698
149796
149795
149698
149508
149512
149700
149796
149795
149700
149515
149519
149702
149796
149795
149702
149522
149526
149704
149796
149796
149704
149530
149534
149707
149797
149797
149708
149537
149541
149711
149799
149799
149711
149545
149549
149715
149801
149801
149716
149552
149557
149719
149804
149804
149721
149560
149564
149724
149807
149807
149726
149567
149571
149729
149810
149811
149731
149573
149578
149735
149814
149815
149737
149579
149583
149741
149819
149820
149742
149585
149588
149746
149823
149824
149748
149589
149591
149751
149828
149828
149753
149591
149593
149756
149832
149832
149757
149592
149594
149760
149835
149836
149760
149592
149593
149763
149839
149839
149763
149591
149591
149765
149842
149842
149765
149588
149588
149767
149844
149844
149767
149585
149584
149768
149846
149846
149767
149581
149580
149769
149848
149847
149767
149576
149574
149768
149849
149848
149767
149570
149568
149767
149850
149849
149765
149564
149562
149766
149850
149849
149764
149558
149556
149764
149850
149849
149762
149552
149550
149762
149850
149848
149760
149547
149544
149759
149849
149847
149758
149541
149539
149757
149848
149846
149755
149536
149533
149754
149846
149844
149751
149529
149530
149752
149845
149843
149748
149524
149524
149749
149844
149842
149748
149522
149518
149745
149841
149840
149744
149517
149514
149742
149840
149839
149742
149514
149511
149740
149838
149836
149737
149507
149509
149739
149837
149834
149734
149504
149504
149735
149835
149832
149731
149500
149502
149733
149833
149831
149730
149499
149496
149728
149830
149829
149728
149497
149494
149726
149828
149826
149723
149491
149493
149725
149827
149824
149722
149489
149489
149722
149825
149823
149719
149487
149483
149717
149822
149822
149719
149487
149484
149717
149820
149818
149711
149478
149482
149715
149819
149816
149711
149478
149480
149713
149819
149815
149709
149475
149482
149716
149820
149821
149717
149485
149494
149726
149831
149868
149776
149552
149515
149697
149792
149864
149922
149956
149966
149972
149984
149989
149994
149997
149999
149999
149998
149997
149993
149989
149979
149974
149967
149959
149946
149914
149843
149702
149543
149279
149253
149524
149694
149672
149507
149241
149232
149496
149659
149656
149492
149225
149226
149492
149655
149653
149492
149225
149225
149491
149653
149654
149491
149226
149227
149492
149654
149656
149494
149228
149229
149495
149657
149657
149496
149230
149231
149497
149659
149660
149498
149232
149233
149499
149661
149662
149501
149234
149235
149502
149663
149664
149502
149235
149236
149503
149665
149666
149505
149238
149238
149506
149667
149668
149507
149239
149240
149508
149669
149671
149510
149242
149243
149511
149672
149673
149512
149244
149244
149513
149674
149675
149515
149246
149246
149516
149676
149677
149516
149247
149247
149517
149678
149679
149519
149249
149250
149521
149681
149682
149522
149251
149252
149523
149683
149684
149524
149253
149254
149525
149686
149687
149527
149255
149256
149527
149687
149689
149529
149257
149258
149530
149690
149691
149531
149259
149260
149532
149692
149694
149534
149261
149263
149536
149695
149696
149537
149263
149264
149538
149698
149699
149539
149265
149266
149541
149700
149702
149542
149267
149268
149543
149703
149703
149544
149268
149269
149545
149705
149708
149547
149270
149271
149548
149709
149710
149548
149271
149273
149550
149711
149713
149553
149275
149274
149553
149714
149715
149554
149274
149275
149556
149717
149719
149558
149277
149277
149559
149720
149721
149560
149277
149278
149561
149723
149725
149563
149278
149278
149565
149728
149730
149566
149278
149278
149567
149730
149733
149569
149280
149280
149572
149735
149737
149573
149280
149279
149573
149739
149742
149576
149279
149279
149578
149746
149749
149580
149279
149278
149582
149751
149754
149584
149278
149278
149587
149757
149758
149590
149280
149282
149593
149760
149763
149596
149282
149283
149600
149766
149770
149604
149284
149285
149608
149775
149780
149613
149287
149291
149618
149782
149787
149622
149291
149289
149625
149796
149801
149632
149293
149304
149640
149801
149803
149648
149312
149319
149657
149811
149821
149669
149330
149338
149679
149828
149834
149690
149350
149365
149697
149841
149848
149711
149381
149399
149722
149855
149862
149734
149418
149436
149744
149870
149875
149754
149456
149477
149765
149878
149885
149775
149495
149514
149783
149887
149888
149792
149536
149568
149814
149898
149902
149827
149583
149300
149677
149784
149871
149730
149398
149410
149749
149884
149892
149761
149428
149459
149773
149897
149904
149790
149488
149516
149800
149907
149918
149814
149540
149559
149823
149930
149936
149838
149591
149623
149851
149933
149951
149869
149652
149678
149891
149958
149912
149692
149496
149566
149832
149947
149959
149853
149596
149627
149873
149968
149981
149890
149656
149688
149902
149977
149984
149916
149715
149743
149934
149999
149996
149946
149763
149623
149800
149951
149985
149903
149670
149699
149920
149995
150006
149934
149727
149752
149942
150010
150006
149962
149794
149834
149979
150009
149938
149933
149656
149770
149947
150010
150055
149964
149774
149829
149985
150041
150032
150006
149872
149901
150020
150044
149980
149991
149737
149864
150005
150047
150071
150017
149872
149922
150043
150072
150069
150053
149961
149830
150056
150017
150067
150063
149981
149976
150072
150097
150118
150098
150019
150033
150098
150109
150110
150084
150000
150072
150130
150142
150139
150144
150089
150104
150089
150175
150187
150184
150144
150184
150196
150182
150208
150213
150196
150274
150250
150216
150181
150222
150234
150278
150228
150188
150215
150261
150312
150293
150272
150233
150187
150213
150180
150035
150104
150103
150007
149953
149843
149889
149966
149978
149923
149868
149742
149795
149903
149931
149896
149859
149752
149577
149904
149806
149884
149814
149702
149644
149803
149848
149878
149851
149705
149680
149823
149853
149821
149760
149597
149645
149822
149882
149895
149790
149597
149548
149731
149823
149861
149823
149649
149664
149804
149806
149789
149732
149557
149626
149814
149876
149897
149764
149543
149502
149702
149812
149879
149802
149606
149531
149759
149907
149806
149695
149492
149617
149807
149871
149879
149777
149576
149503
149698
149796
149869
149803
149612
149561
149770
149883
149803
149703
149503
149635
149817
149871
149864
149784
149592
149581
149743
149791
149720
149775
149427
149616
149785
149841
149846
149771
149553
149523
149624
149811
149856
149803
149571
149535
149740
149841
149734
149732
149400
149594
149777
149844
149823
149758
149546
149501
149612
149782
149850
149796
149566
149528
149751
149840
149805
149604
149510
149582
149807
149845
149809
149745
149558
149415
149736
149742
149861
149774
149580
149546
149749
149844
149729
149735
149397
149589
149774
149849
149828
149752
149561
149390
149767
149713
149849
149782
149617
149536
149742
149798
149861
149817
149624
149598
149784
149842
149780
149695
149503
149639
149820
149853
149785
149799
149656
149545
149725
149782
149876
149838
149653
149632
149802
149831
149793
149717
149526
149616
149819
149882
149874
149772
149554
149500
149707
149809
149881
149822
149620
149580
149774
149866
149744
149793
149410
149625
149800
149877
149819
149747
149535
149640
149838
149872
149837
149812
149637
149530
149727
149802
149888
149833
149629
149596
149788
149857
149767
149790
149433
149620
149816
149886
149820
149741
149527
149648
149851
149900
149889
149819
149621
149523
149728
149820
149896
149843
149641
149620
149802
149859
149775
149801
149444
149627
149823
149895
149827
149745
149527
149663
149860
149896
149867
149825
149637
149531
149737
149818
149901
149842
149628
149563
149806
149902
149858
149579
149528
149580
149860
149896
149841
149742
149508
149644
149861
149914
149888
149820
149623
149453
149786
149798
149907
149834
149630
149529
149760
149840
149915
149843
149612
149543
149798
149925
149835
149663
149512
149596
149847
149900
149853
149763
149539
149654
149866
149913
149881
149827
149612
149567
149663
149837
149902
149865
149606
149517
149750
149845
149914
149865
149645
149624
149818
149870
149791
149777
149446
149636
149841
149911
149847
149765
149527
149616
149854
149925
149942
149814
149537
149527
149579
149865
149891
149901
149548
149503
149737
149845
149910
149848
149602
149521
149760
149851
149926
149874
149647
149607
149834
149909
149830
149698
149516
149596
149854
149906
149849
149755
149514
149600
149850
149925
149934
149811
149531
149516
149567
149863
149885
149899
149519
149473
149723
149836
149913
149854
149597
149520
149769
149858
149918
149870
149634
149613
149822
149875
149793
149792
149422
149591
149821
149913
149834
149740
149473
149586
149849
149910
149847
149751
149493
149599
149855
149926
149909
149806
149539
149508
149643
149838
149901
149872
149561
149474
149733
149840
149913
149853
149585
149498
149757
149852
149914
149860
149613
149585
149811
149880
149794
149753
149410
149574
149820
149906
149824
149726
149451
149574
149848
149909
149848
149751
149486
149613
149861
149909
149852
149805
149596
149357
149802
149765
149913
149776
149589
149421
149724
149810
149894
149836
149547
149451
149733
149829
149895
149845
149584
149566
149787
149838
149747
149792
149327
149585
149771
149910
149811
149717
149423
149540
149830
149894
149823
149724
149444
149546
149832
149897
149832
149732
149454
149570
149840
149903
149885
149795
149513
149478
149546
149817
149862
149876
149462
149395
149683
149809
149886
149814
149501
149418
149710
149818
149894
149828
149531
149437
149722
149826
149891
149835
149563
149537
149775
149839
149740
149762
149301
149530
149754
149887
149786
149685
149367
149489
149804
149873
149799
149692
149389
149507
149812
149879
149807
149698
149403
149541
149822
149882
149835
149761
149515
149267
149753
149729
149889
149721
149527
149339
149673
149774
149860
149792
149469
149352
149672
149781
149859
149788
149470
149366
149675
149789
149868
149795
149498
149423
149743
149852
149781
149450
149390
149364
149849
149819
149768
149631
149306
149441
149780
149855
149774
149652
149331
149443
149777
149852
149772
149655
149333
149453
149781
149854
149781
149667
149354
149479
149786
149852
149797
149714
149452
149162
149742
149680
149869
149637
149487
149251
149625
149728
149824
149746
149392
149277
149622
149741
149832
149756
149413
149293
149625
149749
149834
149757
149419
149311
149639
149758
149839
149766
149450
149400
149696
149799
149676
149653
149170
149411
149687
149830
149719
149598
149242
149373
149731
149812
149726
149602
149254
149375
149733
149814
149728
149602
149261
149397
149742
149820
149743
149622
149286
149420
149750
149822
149771
149676
149388
149086
149683
149638
149830
149613
149409
149185
149577
149692
149787
149703
149320
149185
149569
149696
149790
149710
149330
149195
149566
149700
149791
149709
149338
149227
149583
149711
149797
149719
149373
149328
149645
149756
149620
149604
149062
149340
149634
149790
149668
149538
149142
149284
149682
149768
149674
149540
149150
149300
149690
149774
149679
149541
149160
149304
149688
149773
149689
149555
149183
149333
149693
149774
149715
149607
149290
148956
149643
149576
149793
149515
149340
149068
149505
149630
149732
149636
149219
149087
149502
149638
149739
149649
149230
149091
149497
149642
149738
149645
149230
149105
149500
149643
149743
149653
149251
149126
149516
149656
149746
149660
149287
149216
149595
149716
149591
149376
149070
149188
149647
149709
149613
149452
149043
149190
149623
149714
149616
149464
149054
149199
149622
149716
149619
149470
149067
149211
149624
149719
149630
149487
149088
149243
149635
149723
149679
149553
149188
148915
149471
149533
149705
149536
149178
148968
149422
149573
149685
149590
149139
148981
149427
149582
149685
149589
149139
149000
149430
149584
149686
149590
149150
149015
149442
149592
149685
149590
149174
149086
149514
149648
149518
149266
148960
149057
149566
149639
149537
149360
148908
149072
149549
149652
149545
149376
148924
149095
149557
149658
149550
149386
148938
149104
149558
149658
149563
149405
148963
149139
149567
149663
149626
149483
149066
148795
149333
149462
149633
149477
149059
148823
149323
149491
149608
149495
148999
148840
149325
149497
149613
149502
149011
148857
149330
149502
149618
149511
149031
148873
149347
149514
149621
149520
149065
148992
149440
149587
149418
149256
148729
148974
149446
149585
149459
149285
148770
148966
149471
149585
149470
149295
148791
148991
149483
149589
149467
149290
148788
148973
149463
149573
149530
149363
148898
148534
149303
149334
149560
149348
148915
148654
149215
149399
149535
149411
148859
148668
149220
149407
149542
149422
148882
148697
149234
149424
149544
149433
148927
148810
149350
149511
149338
148978
148663
148765
149415
149475
149371
149150
148592
148790
149378
149495
149344
149133
148572
148786
149359
149485
149367
149168
148605
148822
149370
149496
149444
149250
148728
148308
149204
149216
149479
149226
148772
148457
149084
149288
149443
149311
148706
148497
149101
149311
149459
149326
148725
148513
149116
149327
149459
149336
148764
148673
149235
149419
149191
149053
148301
148601
149203
149398
149210
148986
148321
148599
149244
149385
149245
149019
148380
148616
149257
149399
149265
149041
148409
148656
149268
149405
149357
149154
148549
148189
148931
149127
149357
149161
148559
148269
148960
149188
149349
149197
148540
148306
148988
149211
149363
149230
148596
148517
149129
149321
149030
148895
147981
148410
149061
149277
149088
148838
148118
148401
149112
149273
149127
148873
148169
148442
149145
149300
149152
148906
148209
148487
149159
149311
149265
149043
148355
148060
148704
149021
149226
149090
148334
148089
148803
149082
149250
149107
148361
148122
148845
149106
149256
149135
148477
148205
148924
149166
148907
148607
147873
148195
148964
149141
148986
148710
147933
148225
149008
149181
149022
148752
147973
148281
149036
149202
149155
148902
148130
147787
148557
148879
149111
148919
148132
147840
148661
148956
149151
148982
148200
148042
148856
149118
148813
148479
147662
147968
148823
149018
148780
148454
147579
147905
148793
149004
148834
148523
147646
147995
148847
149041
148995
148701
147848
147410
148354
148684
148966
148722
147849
147515
148466
148786
149004
148812
147930
147726
148663
148965
148621
148248
147300
147750
148668
148906
148747
148417
147433
147778
148706
148904
148778
148441
147448
147025
148017
148449
148762
148525
147503
147151
148198
148571
148827
148607
147616
147423
148439
148782
148402
148031
146896
147437
148454
148743
148523
148153
147036
147537
148559
148785
148740
148392
147296
146809
147910
148349
148666
148394
147485
146735
147929
148321
148597
148325
147224
146993
148150
148510
148184
147640
146595
147055
148273
148521
148314
147869
146690
147194
148347
148588
148555
148156
146993
146409
147657
148114
148488
148182
147054
146599
147863
148276
148522
148331
147279
146986
148148
148494
147913
147380
146112
146722
147954
148275
148202
147781
146465
146026
147241
147860
148235
147969
146573
146136
147492
148000
148332
148070
146762
146528
147865
148303
147822
147274
145902
146618
147908
148202
148263
147859
146437
145693
147029
147703
147956
147530
146015
145677
147289
147823
147386
146666
145158
145914
147495
147875
147609
147033
145418
146207
147685
148017
147998
147495
145954
145283
146831
147464
147878
147554
146144
145977
147535
147972
147309
146586
145050
145405
147087
147567
147417
146810
145033
144477
146261
146979
147522
147104
145427
145140
146925
147517
147013
146274
144458
145457
147131
147521
147586
147017
145190
144511
146308
147013
147246
146788
145034
144280
146350
147026
146764
145976
143815
143040
145451
146259
146963
146445
144392
144033
146316
146995
146462
145470
143326
144632
146583
146974
147257
146728
144658
142961
145529
146470
145570
144483
141842
143340
145714
146346
146353
145571
142954
142577
145239
146259
145597
144750
141531
143626
145794
146344
146563
145898
143207
141291
144433
145599
144644
143476
140148
142319
144992
145714
145781
144950
141873
141551
144769
145867
145917
145085
141344
138769
142023
144132
145000
143760
140295
139950
143662
144968
144926
143553
139424
139356
143825
145166
144768
142959
137692
136407
141906
143963
142905
140239
135518
139351
143293
144423
144438
142997
138568
137347
142344
144102
143706
141912
136580
136166
141698
143480
143342
141249
135305
134884
141007
143246
143232
140855
134613
134333
140670
143208
143145
140449
134049
133796
140219
143057
142959
139991
133578
133395
139768
142855
142746
139553
133237
133103
139345
142632
142514
139147
132990
132896
138959
142392
142270
138783
132820
132759
138617
142147
142024
138462
132712
132677
138317
141900
141778
138182
132653
132637
138058
141655
141535
137943
132631
132632
137837
141415
141299
137740
132640
132653
137652
141183
141071
137571
132672
132695
137498
140961
140854
137432
132723
132754
137372
140748
140647
137319
132788
132824
137271
140548
140453
137228
132863
132902
137190
140360
140272
137156
132944
132985
137125
140187
140106
137098
133028
133071
137074
140028
139954
137053
133114
133157
137034
139883
139816
137018
133201
133243
137004
139751
139692
136992
133285
133327
136982
139634
139581
136973
133368
133408
136966
139530
139483
136960
133448
133487
136955
139438
139398
136951
133525
133562
136948
139358
139323
136946
133598
133632
136944
139288
139258
136944
133666
133699
136943
139228
139202
136944
133730
133760
136945
139176
139154
136947
133789
133816
136949
139132
139112
136952
133843
133867
136954
139093
139077
136958
133892
133915
136961
139061
139047
136965
133938
133958
136969
139033
139022
136974
133979
133998
136978
139010
139001
136983
134017
134035
136988
138991
138983
136993
134052
134068
136998
138974
138968
137003
134084
134098
137008
138960
138955
137013
134113
134126
137018
138949
138944
137023
134140
134152
137027
138939
138935
137032
134164
134175
137037
138930
138927
137041
134187
134197
137045
138923
138920
137050
134207
134216
137054
138916
138914
137058
134226
134234
137062
138910
138908
137066
134242
134250
137070
138906
138904
137074
134258
134265
137077
138901
138900
137081
134272
134278
137084
138898
138897
137088
134285
134291
137091
138895
138895
137095
134297
134302
137098
138893
138893
137101
134308
134313
137104
138891
138891
137108
134319
134323
137111
138890
138891
137114
134329
134333
137117
138889
138890
137121
134338
134342
137123
138889
138890
137127
134347
134351
137130
138889
138890
137133
134356
134360
137136
138889
138891
137140
134364
134368
137143
138890
138892
137146
134373
134377
137149
138892
138894
137153
134381
134385
137156
138893
138896
137160
134389
134393
137163
138895
138898
137167
134397
134401
137170
138898
138901
137174
134405
134409
137177
138901
138904
137181
134414
134417
137184
138904
138907
137188
134421
134425
137191
138908
138911
137195
134429
134433
137199
138911
138915
137203
134437
134441
137206
138916
138920
137210
134445
134449
137214
138920
138924
137218
134453
134457
137221
138925
138929
137226
134461
134465
137229
138930
138935
137233
134469
134472
137237
138936
138940
137241
134476
134480
137245
138942
138946
137249
134484
134488
137253
138947
138952
137258
134491
134495
137261
138954
138958
137266
134499
134503
137270
138960
138965
137274
134507
134510
137278
138967
138972
137282
134514
134517
137286
138973
138978
137291
134521
134525
137295
138980
138986
137299
134529
134532
137303
138988
138993
137308
134536
134539
137312
138995
139000
137316
134543
134546
137320
139002
139007
137324
134550
134553
137328
139010
139015
137333
134557
134560
137337
139017
139023
137341
134563
134567
137345
139025
139030
137350
134570
134573
137354
139033
139038
137358
134576
134580
137362
139040
139046
137366
134583
134586
137370
139048
139053
137374
134589
134592
137378
139056
139061
137383
134595
134598
137386
139064
139069
137391
134601
134604
137395
139071
139077
137399
134607
134610
137403
139079
139085
137407
134613
134615
137411
139087
139093
137415
134618
134621
137419
139095
139101
137423
134624
134626
137426
139103
139108
137431
134629
134632
137434
139111
139116
137438
134634
134637
137442
139119
139124
137446
134639
134641
137450
139127
139132
137454
134644
134646
137457
139134
139140
137461
134648
134650
137464
139142
139147
137468
134652
134654
137471
139149
139155
137475
134656
134658
137478
139157
139162
137482
134660
134662
137485
139164
139169
137489
134664
134665
137492
139171
139178
137495
134667
134668
137498
139179
139185
137503
134673
134675
137506
139189
139192
137511
134678
134680
137509
139189
139177
137498
134678
134670
137482
139159
139204
137503
134685
134760
137599
139355
139448
137673
134818
142056
144691
146369
146740
146890
147546
147883
148029
148174
148587
148855
149138
149349
149505
149620
149703
149763
149805
149836
149859
149877
149890
149901
149909
149916
149922
149926
149929
149931
149933
149934
149936
149936
149932
149934
149941
149946
149954
149962
149972
149983
149994
150005
150015
150021
150023
150022
150020
150017
150015
150013
150012
150010
150008
150007
150005
150003
150000
149998
149996
149994
149992
149990
149989
149988
149987
149986
149986
149986
149986
149987
149989
149991
149993
149997
150000
150005
150010
150015
150021
150027
150034
150040
150046
150052
150058
150063
150068
150072
150075
150078
150080
150081
150082
150081
150080
150079
150077
150074
150071
150068
150064
150061
150057
150053
150048
150044
150040
150036
150032
150028
150024
150020
150016
150013
150009
150006
150002
149999
149997
149994
149991
149989
149986
149984
149982
149980
149978
149977
149975
149974
149972
149971
149970
149969
149968
149967
149966
149965
149965
149964
149964
149963
149963
149963
149962
149962
149962
149962
149962
149962
149962
149962
149962
149962
149962
149962
149963
149963
149963
149963
149964
149964
149965
149965
149966
149966
149966
149967
149968
149968
149969
149969
149970
149971
149971
149972
149973
149973
149974
149975
149976
149976
149977
149978
149979
149980
149980
149981
149982
149983
149984
149985
149986
149987
149988
149989
149990
149991
149993
149994
149996
150000
150007
150013
150015
150015
150017
150004
150012
150012
150020
150026
150029
150029
150027
150026
150024
150022
150021
150020
150019
150018
150017
150016
150016
150015
150015
150014
150014
150013
150013
150012
150012
150012
150011
150011
150011
150011
150010
150010
150010
150010
150009
150009
150009
150009
150008
150008
150008
150008
150008
150007
150007
150007
150007
150006
150006
150006
150006
150006
150005
150005
150005
150005
150005
150004
150004
150004
150004
150003
150003
150003
150003
150002
150002
150002
150001
150001
150000
150000
149999
149999
149998
149997
149995
149994
149994
149995
149997
149999
150000
150004
150009
150019
150024
150024
150021
150019
150016
150013
150010
150008
150005
150003
150000
149998
149995
149993
149990
149988
149985
149983
149980
149979
149976
149975
149971
149970
149967
149966
149963
149963
149959
149959
149956
149955
149952
149952
149949
149949
149945
149945
149942
149942
149939
149939
149936
149936
149933
149934
149930
149931
149928
149928
149925
149926
149922
149923
149920
149921
149918
149918
149915
149916
149913
149913
149911
149911
149908
149909
149906
149907
149904
149905
149902
149903
149900
149901
149899
149899
149897
149898
149895
149896
149894
149895
149893
149894
149892
149893
149891
149893
149891
149893
149891
149893
149891
149894
149892
149895
149893
149896
149895
149898
149897
149900
149899
149902
149901
149905
149903
149907
149906
149910
149908
149912
149911
149915
149914
149917
149916
149920
149918
149922
149920
149923
149922
149925
149923
149926
149924
149927
149925
149927
149925
149928
149925
149927
149925
149928
149926
149925
149926
149927
149922
149927
149923
149925
149922
149924
149923
149922
149921
149924
149919
149921
149919
149921
149917
149919
149918
149916
149915
149917
149914
149918
149910
149912
149915
149912
149909
149913
149911
149910
149910
149916
149922
149931
149956
149954
149953
149965
149950
149951
149965
149951
149949
149966
149951
149954
149967
149947
149957
149968
149951
149955
149969
149952
149956
149969
149955
149955
149971
149953
149959
149971
149953
149961
149972
149956
149958
149973
149958
149957
149974
149958
149962
149975
149957
149963
149975
149957
149964
149976
149958
149963
149977
149960
149963
149977
149960
149964
149977
149960
149964
149978
149960
149965
149978
149960
149964
149978
149960
149965
149978
149960
149964
149978
149959
149963
149977
149958
149963
149977
149957
149961
149976
149956
149960
149975
149954
149958
149973
149952
149956
149972
149950
149954
149970
149948
149952
149968
149946
149950
149967
149944
149949
149965
149943
149947
149964
149941
149945
149964
149940
149944
149964
149939
149943
149962
149938
149942
149962
149938
149942
149963
149938
149943
149964
149938
149943
149964
149939
149944
149965
149939
149945
149966
149940
149946
149967
149941
149947
149969
149942
149948
149970
149944
149950
149971
149945
149951
149972
149946
149952
149974
149948
149954
149975
149949
149955
149976
149951
149957
149977
149952
149958
149979
149954
149960
149980
149955
149961
149981
149957
149962
149982
149958
149964
149983
149960
149965
149984
149961
149967
149986
149963
149968
149987
149965
149970
149988
149966
149972
149989
149968
149973
149990
149970
149975
149992
149971
149976
149993
149973
149978
149994
149975
149980
149995
149977
149981
149996
149979
149983
149998
149981
149985
149999
149983
149987
150000
149985
149989
150002
149987
149991
150003
149989
149993
150004
149991
149995
150006
149994
149997
150007
149996
150000
150008
149999
150002
150010
150002
150004
150011
150004
150007
150013
150007
150010
150014
150010
150013
150016
150013
150015
150017
150017
150018
150019
150020
150022
150020
150023
150013
150015
150015
150015
150015
150014
150014
150013
150013
150013
150012
150012
150011
150011
150011
150011
150010
150010
150010
150009
150009
150009
150008
150008
150008
150007
150007
150006
150006
150005
150005
150004
150004
150003
150002
150001
150001
150000
149999
149997
149996
149995
149994
149993
149992
149991
149991
149990
149992
149994
149996
149997
150000
150002
150005
150007
150009
150011
150012
150012
150012
150011
150011
150010
150008
150007
150006
150005
150004
150003
150001
150000
149999
149998
149997
149996
149995
149994
149993
149992
149991
149990
149989
149988
149988
149986
149969
149966
149966
149970
149985
149989
149989
149995
149995
149997
149997
149997
149998
149999
150000
150001
150002
150003
150004
150005
150006
150006
150008
150009
150010
150011
150015
150014
150012
150011
150010
150009
150008
150007
150006
150005
150004
150003
150002
150001
150001
150000
149999
149999
150000
149999
149999
149997
149998
150000
150000
150001
149994
149993
149993
149993
149993
149990
149990
149975
149977
149972
149972
149972
149973
149974
149976
149996