/*--------------------------------*- C++ -*----------------------------------*\
| =========                 |                                                 |
| \\      /  F ield         | OpenFOAM: The Open Source CFD Toolbox           |
|  \\    /   O peration     | Version:  v2006                                 |
|   \\  /    A nd           | Website:  www.openfoam.com                      |
|    \\/     M anipulation  |                                                 |
\*---------------------------------------------------------------------------*/
FoamFile
{
    version     2.0;
    format      ascii;
    class       volScalarField;
    location    "0.145";
    object      Ma;
}
// * * * * * * * * * * * * * * * * * * * * * * * * * * * * * * * * * * * * * //

dimensions      [0 0 0 0 0 0 0];


internalField   nonuniform List<scalar> 
16277
(
0.139392
0.139393
0.139392
0.13939
0.13939
0.139384
0.13937
0.139325
0.139223
0.139061
0.138856
0.138629
0.138396
0.138162
0.137926
0.137685
0.137437
0.137179
0.136911
0.136631
0.13634
0.136038
0.135725
0.135401
0.135066
0.13472
0.134364
0.133998
0.133622
0.133236
0.13284
0.132435
0.132021
0.131598
0.131167
0.130728
0.130281
0.129828
0.129367
0.1289
0.128427
0.127949
0.127466
0.126978
0.126487
0.125992
0.125494
0.124994
0.124492
0.123989
0.123485
0.122981
0.122477
0.121975
0.121474
0.120975
0.12048
0.119987
0.119499
0.119016
0.118538
0.118066
0.1176
0.117141
0.116691
0.116248
0.115815
0.115391
0.114977
0.114573
0.11418
0.113799
0.113431
0.113074
0.112732
0.112402
0.112086
0.111782
0.111486
0.111196
0.110909
0.110632
0.11039
0.110219
0.110144
0.110142
0.110172
0.110207
0.110235
0.110232
0.110211
0.11014
0.109962
0.109664
0.10918
0.108622
0.106571
0.105256
0.108647
0.109316
0.109386
0.108499
0.103772
0.102304
0.108323
0.10945
0.109443
0.108053
0.100955
0.0997105
0.107767
0.109402
0.109289
0.107397
0.0985494
0.0975
0.10706
0.10917
0.108998
0.106678
0.0965073
0.0956374
0.106347
0.108846
0.108639
0.105946
0.0947948
0.0940426
0.105608
0.108453
0.108216
0.105198
0.0933005
0.09263
0.104858
0.108009
0.107754
0.104448
0.0919645
0.0913629
0.104117
0.107538
0.107264
0.103703
0.0907492
0.0901905
0.103371
0.107034
0.106742
0.102953
0.0896134
0.0890907
0.102624
0.106503
0.106204
0.10221
0.0885511
0.0880586
0.101886
0.10596
0.105652
0.101472
0.0875444
0.0870735
0.10115
0.105401
0.105085
0.100735
0.0865786
0.0861246
0.100414
0.104828
0.104503
0.0999979
0.0856449
0.085204
0.0996769
0.104239
0.103906
0.0992579
0.0847358
0.0843046
0.0989354
0.103636
0.103293
0.0985129
0.0838448
0.0834205
0.0981876
0.103016
0.102664
0.0977606
0.0829667
0.0825473
0.0974314
0.102379
0.102018
0.0969993
0.0820975
0.0816809
0.0966653
0.101724
0.101353
0.0962274
0.0812336
0.0808184
0.0958877
0.101051
0.100669
0.0954432
0.080372
0.0799568
0.0950968
0.100357
0.0999649
0.0946449
0.0795101
0.0790936
0.0942909
0.0996428
0.099239
0.0938312
0.0786455
0.0782265
0.093469
0.0989062
0.0984903
0.0930003
0.0777755
0.077353
0.0926293
0.0981461
0.0977174
0.0921508
0.0768981
0.076471
0.09177
0.0973612
0.0969193
0.0912811
0.0760111
0.0755782
0.0908896
0.0965503
0.0960944
0.0903894
0.0751124
0.0746728
0.0899863
0.095712
0.0952414
0.089474
0.0741999
0.0737526
0.0890586
0.0948449
0.094359
0.0885335
0.0732717
0.0728158
0.0881049
0.0939476
0.0934459
0.0875663
0.072326
0.0718606
0.0871238
0.093019
0.0925008
0.0865711
0.0713613
0.0708857
0.0861141
0.0920579
0.0915229
0.0855467
0.0703761
0.0698899
0.0850746
0.0910635
0.0905113
0.0844922
0.0693695
0.0688723
0.0840049
0.0900351
0.0894656
0.0834074
0.0683411
0.0678329
0.0829047
0.0889727
0.088386
0.0822923
0.067291
0.0667724
0.0817746
0.0878765
0.0872734
0.0811481
0.0662205
0.0656924
0.0806162
0.0867481
0.0861295
0.0799767
0.0651316
0.0645955
0.0794321
0.0855897
0.0849572
0.0787814
0.0640276
0.0634855
0.0782262
0.0844049
0.0837607
0.0775668
0.062913
0.0623681
0.0770037
0.0831985
0.0825459
0.076339
0.0617943
0.0612505
0.0757721
0.0819773
0.0813204
0.0751066
0.06068
0.0601425
0.0745411
0.0807502
0.0800944
0.0738807
0.0595812
0.0590567
0.0733233
0.0795288
0.0788811
0.0726753
0.058512
0.0580087
0.0721341
0.0783277
0.0776966
0.0715078
0.0574896
0.0570177
0.0709931
0.0771651
0.0765612
0.0703996
0.0565353
0.056107
0.0699238
0.0760631
0.0754993
0.0693765
0.0556745
0.0553038
0.0689539
0.0750482
0.0745385
0.068468
0.0549357
0.0546415
0.0681127
0.0741497
0.0737104
0.0677057
0.0543528
0.0541651
0.0674348
0.0733979
0.0730469
0.0671247
0.0539674
0.0538992
0.0669591
0.0728344
0.0725838
0.0667601
0.0538025
0.0538654
0.0667139
0.0724856
0.0723471
0.0666368
0.0538774
0.0540752
0.0667172
0.0723712
0.0723523
0.0667679
0.0541988
0.0545176
0.0669665
0.0724922
0.0725853
0.067133
0.0547488
0.0552016
0.0674664
0.0728584
0.0730789
0.0677653
0.0555629
0.0561433
0.0682368
0.0734904
0.0738321
0.0686554
0.0566075
0.0572526
0.0692144
0.0743342
0.0747594
0.0697109
0.0577709
0.0584536
0.0703329
0.0753311
0.0758161
0.070881
0.058998
0.0596941
0.0715403
0.0764342
0.0769592
0.0721182
0.0602435
0.0609349
0.0727951
0.0776052
0.0781516
0.0733834
0.061472
0.0621419
0.074059
0.078807
0.0793568
0.0746396
0.0626495
0.0632833
0.0752969
0.0800043
0.0805412
0.0758536
0.0637479
0.0643342
0.0764786
0.0811662
0.0816768
0.0769985
0.0647457
0.0652764
0.0775807
0.0822676
0.0827412
0.0780539
0.0656283
0.0660986
0.0785849
0.0832887
0.0837166
0.0790022
0.0663895
0.0667965
0.0794767
0.0842137
0.084588
0.0798315
0.0670301
0.0673705
0.0802473
0.0850307
0.0853511
0.0805419
0.0675475
0.0678237
0.0808992
0.0857383
0.086005
0.0811348
0.0679472
0.0681635
0.0814353
0.086337
0.0865514
0.0816151
0.0682386
0.0684018
0.0818629
0.0868311
0.0869974
0.0819926
0.0684356
0.0685547
0.0821941
0.0872307
0.0873545
0.0822797
0.068554
0.0686388
0.0824427
0.087548
0.0876358
0.0824921
0.0686124
0.0686695
0.0826223
0.0877948
0.0878511
0.0826382
0.0686188
0.0686542
0.0827383
0.0879757
0.0880009
0.0827267
0.0685869
0.0686085
0.08281
0.0881147
0.0881333
0.0828004
0.0685535
0.0685491
0.0828542
0.0882147
0.0882022
0.0828041
0.0684565
0.0684648
0.0828592
0.088276
0.0882593
0.0828069
0.0683793
0.0683962
0.0828642
0.0883317
0.0883011
0.0827994
0.0683015
0.0682911
0.0828312
0.0883534
0.0883129
0.0827662
0.068204
0.0681926
0.0827932
0.088364
0.0883213
0.0827272
0.0681096
0.0681055
0.0827553
0.0883649
0.0883205
0.0826837
0.0680166
0.0680071
0.0827039
0.0883561
0.0883024
0.082624
0.0679129
0.0679222
0.0826576
0.0883451
0.0882885
0.082575
0.0678267
0.0678187
0.0825945
0.0883235
0.0882667
0.082519
0.0677355
0.0677294
0.0825375
0.0883013
0.088245
0.0824649
0.0676514
0.0676406
0.0824787
0.0882747
0.0882155
0.0823963
0.067549
0.0675803
0.0824425
0.0882598
0.0882032
0.0823573
0.0674842
0.0674844
0.0823821
0.0882537
0.0882116
0.0823264
0.0674116
0.0675086
0.0823978
0.0882975
0.0882809
0.0824024
0.0674859
0.067707
0.0826106
0.0884705
0.0886394
0.0828586
0.0681419
0.0689797
0.0834297
0.0891748
0.0907153
0.0857237
0.0722857
0.0715771
0.082991
0.0881979
0.0916112
0.094121
0.095585
0.0960814
0.0963881
0.0969926
0.0972351
0.0975013
0.0976208
0.0977232
0.0977459
0.0977142
0.0976404
0.0974458
0.097244
0.0967377
0.0964494
0.0961272
0.0957303
0.0950531
0.0933259
0.089586
0.0817656
0.0717737
0.0511942
0.0495976
0.0707414
0.0809392
0.0800894
0.0697828
0.0483379
0.0475309
0.0691472
0.0795559
0.0792987
0.0688932
0.0469444
0.0468552
0.0687695
0.0791909
0.0790785
0.0686587
0.0465315
0.0465173
0.0685857
0.0790849
0.0790991
0.0685994
0.0465343
0.0465641
0.0686259
0.0791236
0.0791502
0.0686604
0.0466038
0.046649
0.0687034
0.0791856
0.0792197
0.0687478
0.0466982
0.0467499
0.0687962
0.0792598
0.0792972
0.0688433
0.0468025
0.0468574
0.0688947
0.0793397
0.0793813
0.0689476
0.0469147
0.0469732
0.0690018
0.079426
0.0794658
0.0690529
0.0470291
0.047092
0.0691116
0.0795145
0.0795619
0.0691707
0.047156
0.0472155
0.0692259
0.0796071
0.0796491
0.0692794
0.0472745
0.0473422
0.0693429
0.0797024
0.0797529
0.0694055
0.0474105
0.0474714
0.0694614
0.0797983
0.0798407
0.0695159
0.0475325
0.0476025
0.0695813
0.0798956
0.0799473
0.0696452
0.0476727
0.0477341
0.0697013
0.0799929
0.080038
0.0697586
0.0477986
0.0478741
0.0698291
0.0800973
0.0801509
0.0698953
0.047947
0.0480114
0.069954
0.0801989
0.0802467
0.0700143
0.0480789
0.0481531
0.0700834
0.0803048
0.0803581
0.070149
0.0482255
0.0482948
0.0702128
0.0804112
0.0804636
0.070278
0.048367
0.0484405
0.0703459
0.080521
0.0805767
0.0704137
0.0485147
0.0485891
0.0704827
0.0806352
0.0806887
0.0705483
0.0486606
0.0487355
0.0706183
0.0807486
0.0808088
0.0706901
0.0488123
0.0488875
0.0707613
0.0808702
0.0809272
0.0708293
0.0489594
0.0490338
0.0709011
0.0809901
0.0810521
0.0709732
0.0491083
0.0491827
0.0710469
0.0811176
0.0811801
0.0711189
0.049255
0.0493282
0.0711926
0.0812469
0.0813123
0.0712659
0.0493998
0.0494769
0.0713462
0.0813872
0.0814586
0.0714256
0.0495519
0.0496204
0.0715011
0.0815286
0.0816
0.0715793
0.0496884
0.0497672
0.0716713
0.081688
0.0817727
0.0717603
0.0498412
0.0499017
0.071838
0.081849
0.0819323
0.0719246
0.049967
0.0500457
0.0720298
0.0820364
0.0821307
0.0721247
0.0501097
0.050161
0.0722104
0.0822191
0.0823211
0.072311
0.0502226
0.050295
0.0724275
0.0824415
0.0825539
0.0725357
0.0503539
0.0504001
0.0726386
0.0826638
0.0827841
0.0727538
0.0504522
0.0505116
0.0728842
0.0829214
0.0830626
0.0730188
0.0505692
0.0506242
0.0731566
0.0832097
0.0833566
0.0732967
0.0506767
0.050735
0.0734504
0.0835199
0.0836949
0.0736188
0.050803
0.0508787
0.0737982
0.0838805
0.0840674
0.0739831
0.0509553
0.0510411
0.0741849
0.0842714
0.0844945
0.0744116
0.0511483
0.0512668
0.0746527
0.0847268
0.0849689
0.0749077
0.0513984
0.0515572
0.0751871
0.0852326
0.0855118
0.0754896
0.0517485
0.0519759
0.0758172
0.0858081
0.0861183
0.0761688
0.0522443
0.0525696
0.0765576
0.0864529
0.0868058
0.0769828
0.0529542
0.0534015
0.0774456
0.0871828
0.0875816
0.0779446
0.05392
0.0545516
0.0785075
0.0880116
0.0884778
0.079141
0.0552904
0.0561458
0.0798506
0.0889991
0.089599
0.0806736
0.0571991
0.0585293
0.0816233
0.0902695
0.0909331
0.0826002
0.059861
0.0611212
0.0835384
0.0915293
0.0920149
0.0843207
0.0623445
0.0634179
0.0847681
0.0923414
0.0926045
0.0854151
0.0644721
0.0654418
0.0857898
0.0928164
0.0929639
0.0861992
0.066518
0.0676621
0.0866019
0.0931145
0.0931271
0.0868796
0.0686954
0.069596
0.0871395
0.0931153
0.0931074
0.0874175
0.0705726
0.0716133
0.0876743
0.0930998
0.093063
0.0879008
0.0726977
0.0733145
0.0881058
0.0928781
0.0922896
0.0877304
0.0732405
0.058381
0.0808101
0.089183
0.0916179
0.08395
0.0620949
0.0620896
0.084317
0.0917362
0.091632
0.0845294
0.063081
0.0643515
0.0846294
0.0914519
0.0915222
0.0850957
0.0658376
0.0674672
0.0854362
0.0915143
0.0915751
0.0859403
0.0690271
0.0704949
0.0861827
0.0914431
0.0914295
0.0866201
0.0719984
0.0734272
0.0869604
0.0913783
0.0912781
0.0872584
0.0746813
0.075081
0.0870774
0.0907583
0.0883046
0.0816585
0.0646613
0.0686793
0.0848071
0.0902473
0.0903578
0.0851489
0.0696252
0.0711814
0.0857571
0.0904096
0.0903752
0.0860752
0.0724165
0.0735716
0.086296
0.0902677
0.0901948
0.0866058
0.0747843
0.0754018
0.0866143
0.0899043
0.0892451
0.0862281
0.0756665
0.0667068
0.0817733
0.087158
0.0885949
0.0841937
0.070063
0.0709366
0.0843769
0.0884471
0.0880945
0.0844214
0.072096
0.0732282
0.0843345
0.0876635
0.0872988
0.0844437
0.0744537
0.0747861
0.0840686
0.0865229
0.0846135
0.0801964
0.0671226
0.0710306
0.0821869
0.085872
0.0855544
0.0824212
0.0720838
0.0731084
0.0823421
0.0850608
0.0845362
0.0822464
0.0737432
0.0737137
0.0815235
0.0835201
0.081882
0.0783411
0.0672233
0.0702914
0.079674
0.0825053
0.081597
0.0792383
0.0706887
0.0715572
0.0788166
0.0806531
0.0793395
0.0778848
0.0713735
0.0661481
0.0750985
0.0777312
0.0777723
0.0756909
0.0688346
0.0688639
0.0747687
0.0763898
0.0747544
0.073637
0.0688085
0.0677076
0.0717448
0.0724378
0.0701304
0.0686847
0.0631142
0.0635952
0.0675982
0.0684547
0.065066
0.0647263
0.0616449
0.0568378
0.0607866
0.0618448
0.0586418
0.058175
0.0558636
0.0517439
0.0526126
0.0525099
0.0452048
0.044917
0.043714
0.0348611
0.0347568
0.035189
0.0239819
0.0220395
0.0206171
0.00593485
0.00913423
0.0150051
0.0295583
0.027937
0.0283297
0.0536083
0.0519394
0.0512228
0.0693134
0.0707707
0.0721999
0.0833184
0.0831499
0.0822522
0.0866898
0.0866215
0.0854319
0.0890247
0.0917156
0.0917571
0.093221
0.0924394
0.0889872
0.0908702
0.0952193
0.0959008
0.0968705
0.0952796
0.0904936
0.0874187
0.0945057
0.0966287
0.0984291
0.0968713
0.0895158
0.0866848
0.0948878
0.0974592
0.0994259
0.0976322
0.0903647
0.0893245
0.0969864
0.0994454
0.0981265
0.0950412
0.0864368
0.0897169
0.0977342
0.0998352
0.0995341
0.096672
0.0881627
0.0851266
0.0945081
0.0980803
0.0998961
0.0974798
0.0887488
0.0871646
0.0964477
0.09955
0.0976628
0.0939272
0.08384
0.0878317
0.0969459
0.0994127
0.0992288
0.0961091
0.0867193
0.0832099
0.0934358
0.0974322
0.0991477
0.0965837
0.0875552
0.0866586
0.0958892
0.0990501
0.0971901
0.09324
0.083072
0.08687
0.0962065
0.0989059
0.0988201
0.0955322
0.0859782
0.0827853
0.0930242
0.0970112
0.0988021
0.0960779
0.0867429
0.0856404
0.0952844
0.0986211
0.0967671
0.0927291
0.0822857
0.0865578
0.0958476
0.098637
0.0986343
0.0953463
0.0855529
0.0838751
0.0940045
0.0979846
0.095573
0.0910124
0.0792655
0.0838401
0.094586
0.097622
0.0977348
0.0939641
0.0827824
0.0789363
0.0908594
0.0956053
0.097768
0.0945823
0.0837211
0.0824289
0.0936417
0.0976467
0.0954351
0.0908325
0.0785271
0.0835303
0.0945196
0.09762
0.0976818
0.0939126
0.0826
0.0788659
0.090814
0.0954907
0.0976643
0.0944117
0.0833456
0.0821388
0.0936855
0.0975866
0.0955525
0.0907296
0.0787813
0.0836963
0.0946322
0.0979451
0.0978919
0.0939439
0.082597
0.0789589
0.0909255
0.09561
0.0979148
0.0946324
0.0836677
0.0825302
0.0937116
0.0978584
0.095788
0.0910561
0.079014
0.0840019
0.095032
0.0982794
0.0982642
0.0940832
0.0829052
0.0786599
0.0910809
0.095834
0.0982685
0.0949465
0.0832859
0.0810366
0.0928924
0.097077
0.0996042
0.0966474
0.0863076
0.0857518
0.0960704
0.0996948
0.0976629
0.0933625
0.0826129
0.086616
0.0967081
0.0999009
0.0997722
0.0959762
0.0853748
0.0824222
0.093502
0.0978671
0.100395
0.097408
0.0873636
0.0866421
0.0970441
0.100655
0.0987128
0.0944483
0.0835792
0.0877144
0.0979081
0.100894
0.100681
0.0969619
0.0862991
0.0827679
0.0940649
0.0986766
0.101099
0.0979961
0.0876484
0.0870781
0.0975497
0.101431
0.099399
0.0950525
0.0835194
0.0875843
0.0987232
0.101732
0.100314
0.0963755
0.0850232
0.0887987
0.0994811
0.102532
0.102461
0.0987208
0.087791
0.0851348
0.0962602
0.100593
0.103068
0.100161
0.0898557
0.0889879
0.0995991
0.103304
0.101261
0.0969274
0.0855074
0.089633
0.100663
0.103611
0.102151
0.0981913
0.0869025
0.091043
0.101349
0.104342
0.104612
0.101047
0.0907422
0.0880795
0.0987144
0.102924
0.10521
0.102301
0.0923018
0.0914214
0.101673
0.105364
0.103357
0.0991231
0.0879092
0.0917417
0.10273
0.105659
0.104149
0.10017
0.088858
0.0930049
0.103291
0.106249
0.106623
0.103099
0.0927745
0.0900324
0.100843
0.104944
0.107181
0.104383
0.0942049
0.0932347
0.103849
0.107293
0.105274
0.100789
0.0898538
0.0935719
0.104646
0.107642
0.106175
0.102235
0.0907342
0.0950159
0.105466
0.108402
0.108674
0.105001
0.0946192
0.0915355
0.102648
0.106845
0.10934
0.106467
0.0955697
0.0934321
0.104502
0.10829
0.110605
0.107956
0.0978367
0.0966744
0.107022
0.110442
0.108291
0.103867
0.0932066
0.0964929
0.107386
0.110455
0.109373
0.105378
0.0942419
0.0992391
0.10917
0.111962
0.112108
0.108655
0.0984717
0.0953807
0.105811
0.110191
0.112571
0.10973
0.0992268
0.0968766
0.107732
0.111462
0.113681
0.110947
0.100909
0.0998236
0.109945
0.113508
0.111246
0.107044
0.0959932
0.0998106
0.110633
0.113455
0.112691
0.109026
0.0981037
0.102494
0.112624
0.115161
0.1153
0.112083
0.101725
0.0984412
0.108995
0.113385
0.115685
0.112889
0.101882
0.0994514
0.110658
0.114469
0.116748
0.114004
0.103285
0.100627
0.111486
0.115272
0.117185
0.114443
0.104345
0.103969
0.114069
0.117493
0.115863
0.111679
0.101257
0.105024
0.115535
0.118318
0.117299
0.113611
0.10282
0.106811
0.116953
0.119508
0.119418
0.116115
0.10571
0.102415
0.113008
0.117446
0.119712
0.116886
0.105628
0.102682
0.114333
0.118237
0.120404
0.117594
0.106404
0.104695
0.115826
0.119535
0.121993
0.11939
0.109307
0.10858
0.11873
0.122197
0.120372
0.116314
0.105496
0.108976
0.11995
0.122698
0.121417
0.117617
0.10643
0.110331
0.121139
0.123761
0.122589
0.119028
0.108298
0.11173
0.121884
0.124517
0.124262
0.120796
0.110416
0.10727
0.117968
0.122403
0.124904
0.122159
0.111272
0.109191
0.120279
0.123995
0.126408
0.123866
0.113176
0.11121
0.121885
0.125422
0.127583
0.125059
0.11516
0.114373
0.124276
0.127638
0.125769
0.121751
0.111157
0.114341
0.125177
0.127951
0.126535
0.1227
0.111659
0.115002
0.125969
0.128729
0.127752
0.124025
0.113155
0.117357
0.127397
0.130023
0.130231
0.126706
0.116727
0.113367
0.124471
0.128404
0.130717
0.128038
0.11677
0.114398
0.125895
0.129585
0.131832
0.129382
0.118226
0.116094
0.127184
0.130715
0.132813
0.130219
0.120012
0.119032
0.129184
0.13272
0.130558
0.126463
0.115201
0.118538
0.129853
0.132761
0.131813
0.127847
0.116542
0.120893
0.131847
0.134474
0.133466
0.129801
0.118998
0.122713
0.133291
0.135797
0.134745
0.13128
0.120736
0.124472
0.134335
0.136797
0.136766
0.133581
0.123553
0.120522
0.130583
0.134913
0.137136
0.134439
0.123355
0.120688
0.132136
0.135895
0.138112
0.135352
0.123952
0.121637
0.132999
0.136885
0.139228
0.136613
0.125854
0.124071
0.134712
0.138323
0.140585
0.138097
0.128166
0.127455
0.137361
0.140765
0.138977
0.135022
0.124133
0.127481
0.138592
0.141291
0.140153
0.136345
0.125058
0.128745
0.139908
0.142512
0.14129
0.137604
0.12655
0.130191
0.140909
0.143444
0.142229
0.138627
0.128033
0.131501
0.141582
0.144224
0.144343
0.140833
0.130837
0.127665
0.138612
0.14262
0.14505
0.142265
0.131105
0.128741
0.140115
0.143987
0.14643
0.143889
0.132643
0.130563
0.141659
0.14532
0.147472
0.144943
0.134134
0.132016
0.142782
0.146374
0.148439
0.145926
0.135936
0.135028
0.145223
0.148437
0.146533
0.142104
0.131819
0.134579
0.146065
0.148773
0.147607
0.143756
0.131912
0.136112
0.147526
0.1502
0.149173
0.14536
0.134194
0.137982
0.149023
0.151613
0.150505
0.146852
0.13591
0.139418
0.150165
0.152727
0.151684
0.148116
0.137495
0.141229
0.15133
0.153845
0.153953
0.1504
0.140422
0.136832
0.14818
0.152145
0.154512
0.151588
0.14026
0.137644
0.149201
0.153196
0.155444
0.152774
0.141164
0.138823
0.150291
0.154189
0.156602
0.153921
0.142804
0.140951
0.151847
0.155577
0.157924
0.155343
0.144582
0.142775
0.153442
0.157021
0.159328
0.156845
0.146894
0.146074
0.15604
0.159472
0.157676
0.153643
0.14266
0.146182
0.157289
0.160066
0.158928
0.155
0.143819
0.147702
0.158878
0.161497
0.160342
0.156589
0.145502
0.148984
0.159993
0.162611
0.161348
0.157605
0.146756
0.150335
0.160986
0.163595
0.162675
0.159128
0.148562
0.152332
0.162411
0.164912
0.165112
0.161588
0.151653
0.148176
0.159461
0.16339
0.165751
0.162874
0.151412
0.149018
0.160628
0.164633
0.167118
0.16453
0.152839
0.15053
0.162193
0.165962
0.168318
0.165744
0.154373
0.152339
0.163514
0.167181
0.169402
0.166813
0.15583
0.153941
0.164759
0.168386
0.170689
0.168189
0.158035
0.157244
0.167368
0.170901
0.169161
0.165083
0.153872
0.157345
0.168758
0.171601
0.170573
0.166619
0.155083
0.159059
0.170631
0.173236
0.172106
0.168295
0.15675
0.160637
0.171913
0.174513
0.173432
0.169757
0.158697
0.162213
0.173167
0.175762
0.174788
0.171152
0.160329
0.164299
0.174547
0.177074
0.177257
0.173607
0.163485
0.159743
0.171579
0.175536
0.178071
0.175051
0.163442
0.160986
0.172731
0.17687
0.179408
0.176732
0.164895
0.162601
0.174392
0.178282
0.180819
0.178162
0.166485
0.164428
0.175895
0.179704
0.182132
0.179484
0.168099
0.166091
0.177259
0.181047
0.183538
0.180952
0.170029
0.168222
0.179031
0.182658
0.184992
0.182458
0.172398
0.171567
0.181871
0.185294
0.183628
0.179296
0.168615
0.172038
0.183378
0.186134
0.185151
0.181272
0.169773
0.173877
0.185271
0.187881
0.186833
0.183051
0.171813
0.175583
0.186707
0.189318
0.188256
0.18451
0.173637
0.177319
0.188075
0.190664
0.189724
0.186133
0.175435
0.179377
0.189556
0.192063
0.192297
0.188748
0.178455
0.17531
0.186549
0.190636
0.19317
0.190348
0.178902
0.176338
0.187974
0.192004
0.194638
0.191986
0.180291
0.178257
0.189836
0.193656
0.196137
0.193533
0.182054
0.18019
0.191427
0.195196
0.19782
0.195296
0.184251
0.182539
0.193487
0.197062
0.199442
0.197005
0.186777
0.185514
0.196186
0.199629
0.197947
0.193462
0.182612
0.186213
0.197736
0.200588
0.1995
0.19548
0.183717
0.187854
0.199531
0.202272
0.201204
0.197245
0.18574
0.189853
0.201195
0.203873
0.20293
0.199148
0.18802
0.191874
0.202879
0.205492
0.204697
0.201011
0.190044
0.194394
0.20472
0.207249
0.207759
0.20419
0.193682
0.190751
0.202026
0.206272
0.209007
0.206187
0.194694
0.192415
0.20405
0.208004
0.210683
0.207994
0.196237
0.193868
0.205559
0.209536
0.212016
0.209288
0.197733
0.19563
0.207057
0.210956
0.213645
0.211015
0.19983
0.197886
0.2091
0.212823
0.215336
0.212769
0.202185
0.201473
0.212289
0.215891
0.214352
0.210034
0.198638
0.20241
0.21414
0.217077
0.216147
0.212078
0.20022
0.20477
0.21647
0.21918
0.218459
0.214553
0.202924
0.207906
0.219008
0.221474
0.220724
0.21717
0.206103
0.209619
0.220457
0.222999
0.223088
0.219282
0.208248
0.204701
0.217083
0.221371
0.224113
0.221099
0.208801
0.206319
0.218743
0.222986
0.225892
0.223113
0.210749
0.208456
0.220825
0.22492
0.227772
0.225
0.213138
0.211006
0.222922
0.226917
0.229676
0.22696
0.215868
0.215071
0.226706
0.230373
0.228866
0.223965
0.212553
0.216663
0.228984
0.231924
0.23135
0.227208
0.214614
0.220269
0.232317
0.234866
0.233861
0.229976
0.217953
0.221538
0.233547
0.236333
0.235186
0.23117
0.219078
0.223577
0.235052
0.237851
0.238153
0.233977
0.222329
0.21881
0.232005
0.236551
0.23968
0.236492
0.223809
0.221212
0.234105
0.238557
0.241623
0.238723
0.226013
0.223898
0.236593
0.240856
0.244202
0.24137
0.229055
0.226964
0.239438
0.243557
0.24662
0.243874
0.232173
0.231819
0.243805
0.247769
0.246671
0.242227
0.229574
0.234365
0.247075
0.249991
0.24848
0.244103
0.23103
0.235327
0.248219
0.251222
0.250029
0.245734
0.232819
0.237469
0.250129
0.253077
0.252122
0.247869
0.23515
0.240083
0.252117
0.255039
0.255654
0.251491
0.239119
0.236085
0.249159
0.25403
0.257252
0.254008
0.241025
0.238612
0.251918
0.256421
0.260062
0.257189
0.24435
0.24227
0.255417
0.259652
0.263136
0.260396
0.248191
0.248527
0.260837
0.264751
0.263329
0.258857
0.245779
0.249761
0.262934
0.266143
0.264474
0.259833
0.246358
0.251061
0.264419
0.267618
0.266545
0.261971
0.248531
0.253794
0.26687
0.269922
0.26918
0.264791
0.251649
0.257072
0.269429
0.272439
0.273338
0.269081
0.256246
0.253577
0.266568
0.271823
0.275249
0.271981
0.258776
0.256476
0.270013
0.274644
0.278721
0.275843
0.262693
0.261058
0.274438
0.278736
0.282609
0.280282
0.268823
0.268588
0.280391
0.283841
0.281754
0.276981
0.264148
0.267576
0.281116
0.284468
0.283169
0.278418
0.264414
0.269914
0.283566
0.286751
0.285996
0.281414
0.267489
0.273356
0.286381
0.28945
0.290455
0.286009
0.272414
0.269535
0.28344
0.288933
0.292517
0.289036
0.275341
0.272815
0.287068
0.291943
0.296164
0.293076
0.279745
0.279651
0.293753
0.298301
0.297626
0.292247
0.277917
0.285281
0.299052
0.30199
0.30074
0.296175
0.281964
0.285962
0.300386
0.303798
0.302265
0.297277
0.282426
0.288114
0.302135
0.305555
0.306276
0.301372
0.28685
0.28355
0.298785
0.304589
0.30858
0.304787
0.289825
0.287136
0.302732
0.307919
0.312304
0.309007
0.294571
0.294086
0.309298
0.314176
0.312906
0.306984
0.291242
0.298494
0.313711
0.317426
0.317742
0.312686
0.297106
0.30664
0.320391
0.323021
0.323922
0.319668
0.305118
0.299582
0.315309
0.321189
0.324444
0.320427
0.304529
0.300818
0.317436
0.323049
0.327233
0.323541
0.308162
0.307145
0.323259
0.328636
0.327068
0.320715
0.30378
0.311139
0.327595
0.331764
0.331198
0.325451
0.308365
0.317219
0.332866
0.336396
0.339039
0.333763
0.317174
0.31493
0.33208
0.338437
0.344293
0.341111
0.326383
0.324143
0.339419
0.344051
0.347739
0.344273
0.328791
0.325675
0.342391
0.347538
0.345032
0.338255
0.321135
0.32792
0.345077
0.349413
0.348408
0.342417
0.324558
0.332927
0.349402
0.353265
0.355371
0.34969
0.332401
0.32945
0.347367
0.354168
0.359476
0.355282
0.338314
0.336581
0.354295
0.360098
0.366653
0.363812
0.349038
0.352275
0.3673
0.371083
0.369755
0.364529
0.348867
0.352394
0.368831
0.372958
0.372448
0.366724
0.348664
0.343991
0.362506
0.369976
0.37512
0.370632
0.352235
0.349085
0.368273
0.374531
0.380241
0.376285
0.358881
0.359112
0.377488
0.383278
0.382735
0.375703
0.356779
0.367267
0.384503
0.388569
0.393195
0.387891
0.369292
0.369428
0.387519
0.393838
0.399738
0.395832
0.377941
0.372859
0.3932
0.399285
0.395869
0.387671
0.366623
0.37521
0.395568
0.40086
0.399617
0.392517
0.371414
0.382472
0.401296
0.405795
0.409061
0.402669
0.382885
0.38104
0.40127
0.408899
0.415668
0.411496
0.393725
0.397311
0.416291
0.421461
0.422785
0.41678
0.398367
0.407076
0.425229
0.428962
0.428237
0.42213
0.401329
0.394481
0.416566
0.42487
0.429943
0.424553
0.404261
0.402654
0.424527
0.4316
0.430754
0.422153
0.399629
0.41363
0.433724
0.438633
0.444326
0.437696
0.415919
0.418393
0.439867
0.447043
0.456335
0.453588
0.436057
0.432627
0.453003
0.457982
0.456776
0.448956
0.425308
0.415947
0.442962
0.452718
0.458702
0.452561
0.428515
0.427196
0.453365
0.461428
0.46168
0.451814
0.425432
0.446123
0.467523
0.472182
0.482358
0.478145
0.455641
0.459162
0.482017
0.487823
0.483719
0.47444
0.447591
0.45536
0.480896
0.487685
0.486781
0.478514
0.449444
0.446612
0.477128
0.487926
0.487763
0.476159
0.442819
0.471382
0.495549
0.499986
0.511403
0.506801
0.482226
0.481629
0.508266
0.51541
0.509248
0.498224
0.465664
0.476682
0.505547
0.513216
0.513699
0.505149
0.472612
0.472364
0.507618
0.517989
0.528566
0.519413
0.482561
0.483655
0.517062
0.528776
0.536047
0.5268
0.493976
0.481436
0.520938
0.532434
0.532165
0.519399
0.475524
0.478407
0.525188
0.537011
0.542288
0.528974
0.47996
0.468917
0.523779
0.540906
0.52958
0.507254
0.451557
0.483103
0.523146
0.535826
0.533309
0.521968
0.480618
0.469875
0.516817
0.530714
0.524462
0.508039
0.45169
0.434028
0.495867
0.514421
0.502368
0.481374
0.414024
0.39102
0.465977
0.49022
0.479039
0.451931
0.371102
0.355111
0.440251
0.46974
0.461928
0.430161
0.341456
0.329335
0.420974
0.454958
0.448543
0.412414
0.318414
0.308581
0.404397
0.442572
0.43697
0.396865
0.299625
0.291459
0.389764
0.43166
0.426594
0.38306
0.284013
0.277198
0.376719
0.421737
0.417087
0.370733
0.270982
0.265335
0.365097
0.412638
0.408373
0.359786
0.260205
0.255555
0.354788
0.404268
0.400312
0.350082
0.251331
0.247509
0.34566
0.396495
0.392812
0.341502
0.244056
0.24095
0.337599
0.389256
0.38582
0.33393
0.23816
0.235661
0.330489
0.382494
0.379276
0.32726
0.233425
0.231438
0.324242
0.376166
0.373163
0.321416
0.229675
0.228118
0.318774
0.370262
0.367459
0.316299
0.226743
0.225534
0.313987
0.364751
0.362137
0.311823
0.224474
0.223551
0.309801
0.359617
0.357191
0.307902
0.22275
0.222058
0.306125
0.354859
0.352618
0.304454
0.221462
0.220953
0.302888
0.350467
0.3484
0.301417
0.220519
0.220155
0.300037
0.346421
0.344523
0.298741
0.219852
0.219603
0.297526
0.342713
0.34098
0.296384
0.219402
0.219243
0.295313
0.339331
0.337758
0.294307
0.219119
0.219028
0.293364
0.336265
0.334842
0.292471
0.218969
0.21893
0.291631
0.333492
0.332207
0.290835
0.218918
0.218918
0.29009
0.33099
0.329833
0.289384
0.218936
0.218956
0.288724
0.328738
0.327699
0.288098
0.218987
0.219018
0.287515
0.326719
0.325788
0.286963
0.219055
0.219084
0.286446
0.32491
0.324074
0.285955
0.219119
0.219149
0.285499
0.32329
0.322543
0.285065
0.219182
0.219206
0.284661
0.321839
0.321169
0.284277
0.219236
0.219261
0.283924
0.320543
0.319948
0.283591
0.21929
0.219308
0.28328
0.319387
0.318851
0.282984
0.219328
0.219341
0.282711
0.31835
0.317872
0.282453
0.219357
0.219362
0.282213
0.317423
0.316992
0.281983
0.21937
0.219374
0.281772
0.316591
0.316206
0.281571
0.219381
0.21938
0.281381
0.315842
0.315492
0.281198
0.219382
0.219382
0.281029
0.315165
0.314851
0.280867
0.219384
0.219377
0.280714
0.314553
0.314265
0.280567
0.219374
0.219366
0.28043
0.313997
0.313738
0.280299
0.219362
0.21935
0.280175
0.313492
0.313254
0.280054
0.21934
0.219328
0.279944
0.313032
0.312817
0.279837
0.219318
0.219303
0.279735
0.312614
0.312415
0.279637
0.219289
0.219274
0.279546
0.31223
0.312052
0.27946
0.219262
0.219246
0.279377
0.311881
0.311719
0.279298
0.219231
0.219215
0.279224
0.311564
0.311422
0.279155
0.219203
0.21919
0.279092
0.311281
0.311153
0.279031
0.219178
0.219164
0.278973
0.311022
0.310909
0.278921
0.219154
0.219144
0.278872
0.310791
0.31069
0.278827
0.219137
0.219128
0.278785
0.310582
0.310493
0.278747
0.219124
0.219119
0.278713
0.310395
0.310317
0.278682
0.219119
0.219117
0.278653
0.310227
0.310159
0.278629
0.219121
0.219123
0.278607
0.310077
0.310018
0.278589
0.219131
0.219138
0.278572
0.309945
0.309896
0.278562
0.219152
0.219165
0.278551
0.309831
0.30979
0.278547
0.219183
0.219201
0.278543
0.309732
0.309701
0.278545
0.219224
0.219248
0.278547
0.30965
0.309627
0.278556
0.219276
0.219304
0.278563
0.309582
0.309568
0.278577
0.219337
0.219371
0.278591
0.309531
0.309523
0.27861
0.219408
0.219446
0.278628
0.309491
0.309492
0.278653
0.219488
0.21953
0.278676
0.309466
0.309474
0.278705
0.219576
0.219622
0.278732
0.309452
0.309468
0.278766
0.219672
0.219723
0.278799
0.309452
0.309473
0.278837
0.219775
0.219829
0.278873
0.309462
0.309489
0.278915
0.219885
0.219942
0.278955
0.309484
0.309515
0.279
0.22
0.22006
0.279044
0.309514
0.309551
0.279093
0.220121
0.220183
0.279141
0.309555
0.309596
0.279192
0.220247
0.220311
0.279243
0.309603
0.309649
0.279297
0.220377
0.220443
0.279351
0.309661
0.309711
0.279408
0.22051
0.220578
0.279464
0.309726
0.30978
0.279525
0.220648
0.220719
0.279584
0.309799
0.309857
0.279647
0.220791
0.220863
0.279709
0.30988
0.309942
0.279775
0.220937
0.221011
0.27984
0.309968
0.310034
0.279908
0.221086
0.221162
0.279975
0.310062
0.310132
0.280045
0.221239
0.221316
0.280115
0.310163
0.310236
0.280187
0.221393
0.221471
0.280258
0.310269
0.310345
0.280333
0.22155
0.22163
0.280405
0.310381
0.31046
0.280481
0.221708
0.221788
0.280555
0.310498
0.310578
0.280633
0.221867
0.221948
0.280708
0.310619
0.310701
0.280787
0.222027
0.222108
0.280863
0.310743
0.310828
0.280943
0.222188
0.222268
0.281021
0.310871
0.310957
0.281101
0.222348