/*--------------------------------*- C++ -*----------------------------------*\
| =========                 |                                                 |
| \\      /  F ield         | OpenFOAM: The Open Source CFD Toolbox           |
|  \\    /   O peration     | Version:  v2006                                 |
|   \\  /    A nd           | Website:  www.openfoam.com                      |
|    \\/     M anipulation  |                                                 |
\*---------------------------------------------------------------------------*/
FoamFile
{
    version     2.0;
    format      ascii;
    class       volScalarField;
    location    "0.145";
    object      omega;
}
// * * * * * * * * * * * * * * * * * * * * * * * * * * * * * * * * * * * * * //

dimensions      [0 0 -1 0 0 0 0];


internalField   nonuniform List<scalar> 
16277
(
0.00810686
0.00810683
0.00810561
0.00810518
0.00810387
0.00810381
0.008103
0.00810135
0.00809767
0.00809144
0.00808287
0.00807267
0.00806154
0.00804989
0.00803787
0.00802545
0.00801255
0.00799908
0.00798495
0.00797014
0.00795464
0.00793844
0.00792157
0.00790402
0.00788583
0.00786698
0.00784751
0.00782741
0.00780669
0.00778537
0.00776347
0.00774099
0.00771795
0.00769438
0.00767028
0.00764568
0.0076206
0.00759505
0.00756907
0.00754268
0.0075159
0.00748875
0.00746126
0.00743347
0.00740539
0.00737705
0.00734849
0.00731973
0.00729081
0.00726176
0.0072326
0.00720337
0.00717411
0.00714484
0.0071156
0.00708643
0.00705735
0.00702841
0.00699963
0.00697108
0.00694277
0.00691478
0.00688719
0.00686016
0.00683406
0.00680969
0.00678897
0.00677662
0.0067851
0.00684361
0.00700285
0.00737723
0.00820701
0.00999202
0.0137349
0.0213665
0.0365745
0.0665422
0.125302
0.238492
0.453843
0.842643
1.40752
1.82855
2.49778
2.99649
3.63699
6.62603
11.4691
14.4719
12.9716
34.2409
105.412
397.79
3406.78
18601.1
254898
251709
37848.5
8637.95
15117.7
52962.8
248574
245279
54893.1
17469.8
20705.9
58055.5
236456
232034
57495
21300.6
23279.4
58848.2
226110
223289
58184.9
23405.7
24488.9
58586.6
218920
216054
57190.3
24344
24967.3
57662.9
212519
210464
56434
24791.7
25247.6
56963.7
207750
206195
55926.7
25050.7
25438.4
56494.8
204000
202775
55590.6
25235.3
25590.3
56183
200921
199916
55356.6
25384.8
25720.4
55973
198291
197433
55192.8
25514.4
25837.5
55833.6
195972
195220
55088.4
25631.9
25945.6
55741.8
193877
193200
55020.1
25740
26045
55677.3
191943
191319
54970.9
25839.2
26137
55626.2
190128
189543
54930.3
25929.5
26221.4
55580.8
188404
187849
54892.5
26010.8
26296.6
55536.3
186750
186217
54853.9
26082.8
26362.8
55489.9
185150
184634
54812
26146
26420.7
55439.3
183594
183090
54764.6
26201.2
26470.9
55382.5
182071
181577
54710.4
26249.1
26514.5
55318.8
180575
180089
54649.2
26290.8
26552.2
55248
179102
178620
54580.4
26327
26584.7
55169.2
177644
177165
54503.4
26358.1
26612.2
55082
176197
175719
54417.5
26384.3
26635.1
54985.7
174755
174277
54322.5
26406.1
26653.6
54880
173315
172835
54217.8
26423.6
26667.9
54764.5
171871
171386
54103.2
26437
26678.1
54638.6
170419
169928
53977.9
26446.4
26684.2
54501.7
168955
168456
53841.3
26451.7
26686.2
54353.1
167474
166967
53692.8
26452.8
26683.8
54192.1
165975
165458
53531.6
26449.4
26676.7
54017.9
164453
163925
53356.7
26441.3
26664.5
53829.4
162907
162367
53167.3
26427.8
26646.7
53625.6
161334
160782
52960.5
26408.5
26622.5
53404.7
159733
159171
52731.7
26382.3
26591
53164.7
158106
157533
52485.2
26348.5
26551.3
52906.2
156453
155871
52218.1
26306.1
26502.4
52626.2
154777
154189
51927.9
26254
26442.8
52322.3
153082
152490
51611.8
26190.3
26370.6
51991.7
151375
150783
51267
26113.1
26283.6
51631.7
149664
149078
50889.9
26016.5
26178
51238.5
147961
147389
50476.8
25897.6
26051.4
50808.5
146282
145732
50024.4
25756.9
25901.6
50338.8
144646
144130
49529.1
25589.8
25724
49825.6
143077
142609
48987.1
25391.5
25513.9
49265.3
141603
141200
48395.3
25157.6
25267
48655.1
140257
139941
47759.7
24884.4
24979.7
47997.6
139085
138866
47101.6
24571.6
24652.2
47313.1
138140
138018
46412.4
24210.8
24278.1
46598.1
137441
137423
45700.9
23807.9
23865
45867.1
137044
137110
44988.2
23373.9
23424.1
45140.5
136901
137093
44299.1
22924.2
22971
44451.8
137044
137381
43654.7
22466.1
22512
43823
137433
137949
43083.4
22012.3
22064
43270.2
138106
138773
42619.3
21592.5
21655.9
42831
139007
139779
42265.8
21224.9
21304
42529.9
140070
140914
42005
20916.3
21012.6
42349.3
141248
142145
41864.3
20669.7
20783.2
42266.8
142507
143436
41833.7
20485
20615.9
42296.8
143810
144744
41912.7
20361.7
20510.1
42431.3
145117
146036
42089.7
20294.6
20461.6
42657.1
146396
147279
42353.9
20268.3
20463.7
42959.4
147617
148448
42686.3
20294.5
20518
43346
148756
149522
43074.3
20369.8
20635.2
43810
149796
150485
43533.8
20494.4
20785.6
44304.3
150718
151322
44019.9
20648.7
20958.2
44811
151512
152028
44515.6
20824.2
21147.7
45314.7
152175
152604
45006.1
21014.8
21346.9
45801
152711
153058
45478
21213.6
21549.5
46259.1
153127
153400
45921.5
21414.3
21750.2
46683.1
153434
153642
46331.4
21612.4
21943.7
47066.9
153646
153803
46701.2
21801.3
22125.9
47408.8
153782
153896
47031.7
21979.4
22296.1
47714.2
153874
153928
47323.2
22145.5
22453.6
47980.4
153894
153931
47581.9
22298.6
22599.1
48220.6
153877
153907
47811.7
22440.1
22728.1
48432.5
153812
153846
48009.6
22563.9
22844.3
48612.2
153729
153749
48176.6
22679.2
22950.1
48767
153629
153646
48317.8
22779
23042
48899.4
153516
153521
48439.6
22867.8
23127.4
49012.9
153389
153395
48550
22950.6
23205.8
49113.3
153240
153254
48643.7
23022.3
23272.4
49200
153092
153098
48724.6
23086.6
23333.5
49276.6
152944
152934
48796.3
23142.6
23386.2
49342
152827
152762
48852.7
23189.9
23446.2
49398.9
152675
152601
48947.1
23224.3
23467.1
49570.3
152633
151967
48751
23135
23268.1
48758.9
151422
149531
48555
22989.2
21917.5
46330.2
147100
138321
48502.7
22451.8
15523.5
27062.2
124071
139431
60776.5
28134.4
13626.6
7036.01
4374.24
3429.59
3055.14
2533.28
2312.59
2154.65
2089.06
2072.32
2105.9
2203.58
2337.73
2582.08
2861.1
3452.93
3782.01
4729.74
5754.13
7585.02
11738.4
22960.6
55796.7
128689
405714
435040
139442
61342.3
64705.9
147137
460857
483045
153750
68387
68355.7
155097
489266
495134
156323
69557.4
69725.6
157867
498942
499563
158262
69984.6
69908.1
158257
499348
499722
158300
69920.7
69912.4
158325
499559
499671
158312
69880.8
69868.2
158318
499799
499648
158305
69842.7
69816.6
158312
500347
500203
158282
69795.1
69766.6
158275
500325
500202
158259
69729.8
69711.2
158259
500622
501052
158180
69669.6
69650.9
158219
500623
501070
158141
69611.2
69593.1
158194
501224
501667
158086
69553.4
69537.2
158143
501257
501707
158061
69496.7
69476.7
158108
501865
502303
157993
69434.9
69419.2
158050
501895
502348
157967
69382.2
69364.6
158021
502517
502969
157908
69325.9
69311.3
157966
502573
503033
157883
69275.8
69258.6
157932
503206
503659
157816
69220.4
69206.2
157866
503554
503454
157833
69172.3
69157.7
157832
503913
504381
157755
69126.2
69114.2
157794
504274
504186
157769
69084.6
69071.8
157771
504649
505128
157702
69045.9
69036.5
157746
505025
504938
157724
69013.3
69005
157744
505401
505881
157685
68986.8
68981.4
157744
505780
505701
157733
68967.8
68965.1
157779
506168
506664
157740
68957.9
68967.1
157826
506554
506459
157845
68972
68984.2
157944
506912
507402
157929
68978.1
68976
158017
507302
507230
158037
68971.1
68992.6
158167
507687
508154
158183
68999
69011.7
158336
508021
507941
158397
69014.1
69029.5
158574
508409
508874
158635
69032.6
69060.9
158835
508436
508874
158960
69083.4
69130.2
159246
509010
509430
159392
69145.5
69163.2
159673
508992
509413
159854
69168.4
69201.7
160192
509540
509931
160438
69216.1
69239.3
160803
509732
509526
161104
69247
69282.9
161523
509906
510279
161882
69296
69302.1
162317
510066
509862
162681
69279.3
69260.2
163142
510252
510696
163450
69170.8
69082
163864
510327
510869
164177
68968.3
68892
164636
511142
511769
164912
68762.6
68690.4
165374
511898
512117
165656
68538.9
68371.1
165909
512992
513832
166058
68068.1
67930.2
166235
514713
515715
166297
67642.7
67172.7
166115
517082
519063
165444
66487.5
65928.3
164699
521293
523685
163622
65187.8
64102.8
160190
521040
518389
156563
63243.4
62706.4
154487
524751
522081
155416
62217.5
61186.6
146825
514291
511283
148043
61026.4
60475.2
143547
503222
496313
141240
60102.7
60131.2
138291
484714
470077
133419
59808.4
60245.8
131256
459573
452791
130505
61014.8
62057.6
131067
434513
405897
122780
62857
64509.8
121264
595176
974399
350115
142979
69426.3
172835
728438
656998
186979
74394.6
71594.5
176577
649111
642594
181765
73819.4
70769.9
169554
623871
601680
170999
71771.8
68670.2
155556
574782
548493
157964
70279.8
68369.8
144544
520443
489740
144885
69354.2
68155.2
132917
446396
637816
128083
68999.5
145338
371048
1.00027e+06
718521
165435
71613
74498.2
176994
605050
547520
145657
66940.6
67408.3
147169
512869
478356
135880
64968.5
65237.7
131835
447520
413699
122889
64646.4
67547
122546
597955
938212
343455
139445
72455.2
156168
683644
594169
167861
75658.2
72622.3
150529
556317
516514
155294
75046.4
74601.8
143414
465897
664557
135684
76699.9
155898
356925
1.01126e+06
704950
173094
78796
80329.7
174012
577518
500866
147066
72086.9
72579.7
139002
449756
653127
137001
75952.3
154913
358345
997855
704559
163704
80815.9
84173.7
177119
579384
510109
154366
78769.7
80997.7
147180
717411
1.04218e+06
374102
163268
80865.4
169102
705825
551748
174330
80296.5
69041.6
137789
485870
665118
139389
73981.9
148585
343009
902960
624402
152513
74292.5
77651.1
156436
789676
985460
373973
152743
66510.9
150624
656374
792492
146296
65279.6
128145
288405
833985
1.01281e+06
163621
64909.3
91552.3
198676
809446
827205
160517
58692.8
71130.1
191386
993490
1.02879e+06
196841
73012.1
65745.8
175159
915619
800497
104079
39069.1
153621
341382
806649
935837
161014
81525.4
186087
374603
846837
780946
189726
99448.4
105712
214592
672845
1.1176e+06
462559
226437
128426
175225
956011
825733
368772
192402
104292
177411
695165
575582
187430
105209
192999
393254
916953
717550
171343
107220
106711
180697
574656
927070
390143
190535
106420
168221
713510
572236
174842
104965
184684
379470
914262
699706
163264
103432
102862
170847
564336
907536
379666
182111
102342
162120
685394
549921
169544
101808
179949
369690
883592
657474
157725
100990
100852
165689
534409
873586
365123
176852
99066.7
155243
645635
518873
161860
98422.5
168751
344801
826714
601018
144834
94781.9
95595.7
162590
461824
635522
186429
102061
193497
406255
1.04461e+06
746172
172553
107119
105009
178193
594836
983041
405055
186819
103044
163869
714670
579600
172563
102167
184428
377467
973951
711252
162438
103962
102889
170020
575566
956944
392977
182436
101524
160378
694120
567600
169251
101351
180657
393220
966396
703786
161341
100878
100212
165690
566040
955543
382082
183494
102564
160636
694751
562395
171413
102941
186783
384544
968209
720488
164889
105007
104735
175722
590646
1.03798e+06
410755
198194
114715
145535
815127
729815
321022
167367
93609.3
142969
556795
476061
153432
94592.9
167858
346357
824842
614741
147092
95360.1
95642.9
156450
503302
844582
349324
169098
95451.1
147866
622223
513095
155223
95255
173130
362942
873620
650991
152325
97623.9
98413.6
163075
530374
899631
374525
178484
100101
158165
678259
565603
169028
101078
196725
407926
1.01396e+06
807850
143536
115242
173296
327558
738537
577635
153579
97433.6
98927.2
163600
496956
870098
365224
178022
101538
158057
663267
551872
166555
101917
193762
400993
968979
783231
143390
113854
170102
324426
719539
558005
149344
96099.6
98488.9
162410
486102
858441
364817
177555
101689
157812
651893
550694
171513
102699
197068
407877
987140
795000
147263
116575
174748
332505
734488
578100
155063
99335.2
101298
168675
506199
893309
376152
184127
105451
164542
669961
569000
179402
106265
203641
448951
1.01965e+06
823674
157198
119555
179587
340398
761007
593652
158756
102568
105998
179864
527038
983328
416713
203365
121186
151262
807440
761230
339474
180962
103837
163822
598674
519126
179338
106777
202140
423859
945856
786077
159231
121259
179194
334364
742922
591089
160192
103473
107083
180724
520714
968033
436554
204277
122574
156980
813470
762897
341297
182371
105477
165130
598498
529541
185444
108675
207914
420413
969999
803117
155821
125247
184986
340920
763292
614931
168525
107612
111747
188782
549273
1.01263e+06
458542
214729
130503
163371
857628
835689
366595
195589
119050
154651
715264
684463
328862
177351
106256
167795
562945
514212
189403
110811
210196
434667
966724
810719
162330
128148
188879
345206
768212
618559
172854
111108
115168
195988
556065
1.0349e+06
469305
220927
134474
170582
876607
847083
373766
200109
122606
159228
731401
715678
333704
181533
109167
173426
587351
529363
193291
113833
218000
437541
992060
845488
161626
133369
197656
358421
816652
714401
159262
122424
182058
332452
701770
583524
175260
110160
115754
199712
530809
988178
450926
219115
135366
167577
853578
836143
367823
200639
124525
159678
722164
707362
336677
184144
111443
176567
581053
529522
198741
116741
220749
440994
985984
836368
166551
136272
201250
364162
815544
717640
163548
125713
186236
340536
716139
601017
180324
113439
119136
204562
554849
1.04822e+06
455242
229693
142221
168427
897718
879628
382342
211767
131674
168883
757031
750614
357853
195857
118781
187892
616442
560988
210847
124100
235609
463358
1.04461e+06
890695
174145
145406
215809
393144
884962
772668
174908
134985
201452
366072
778001
705947
170095
129321
191209
342383
704630
587654
184049
117873
124970
211041
546279
1.03518e+06
483779
235753
147488
184451
910527
903942
400349
218138
138025
176975
790265
798885
374494
204584
132371
174373
715714
715012
351596
195143
120879
189195
603804
557539
212551
127145
239398
467390
1.04577e+06
905969
177208
149964
221061
398232
897665
781515
181799
139655
207028
373745
788822
708169
175082
134240
197131
353101
711576
602571
191286
122512
129654
216399
560127
1.05874e+06
475732
243448
152807
181838
921894
918524
406241
225805
144151
185280
814638
832246
392734
214854
139934
184153
746918
745683
368392
204674
127668
199247
624185
580321
226141
134245
251432
506989
1.07895e+06
932071
199304
158597
231316
417626
926647
814276
183223
146909
218395
394886
837358
775054
188681
142967
211153
380840
795036
719158
182406
139791
204963
361017
729430
627582
200962
128668
136268
228048
589059
1.12577e+06
502572
257023
162122
191949
969474
962469
429467
240168
154141
198021
837169
855322
410103
226965
149393
195134
782396
803402
390306
218589
144594
189351
733245
744378
370175
209607
131754
203951
628897
582213
228055
138604
256810
494864
1.08276e+06
926972
191889
163364
241426
427138
935170
833947
198260
154224
227909
408474
852101
772648
195159
149996
220622
392003
798885
734656
191687
146707
212562
370574
743172
632906
207654
134787
142484
235796
596664
1.12104e+06
507779
263729
168107
200191
964855
973773
437109
246675
160013
204474
870381
892603
422770
235624
156293
203028
809153
831534
404521
228222
151900
197584
745039
756796
382410
219955
139802
212493
639311
598632
239581
146596
268344
514837
1.1199e+06
966117
203358
171102
251631
442489
975916
862505
206732
162232
237525
421872
881659
803872
204523
157664
230691
406555
833137
758509
200425
154477
224129
390053
775694
662249
219101
142762
150823
249356
626515
1.18654e+06
534537
279453
178472
209833
1.01004e+06
1.02052e+06
463085
263294
170999
219246
897533
916707
442442
249888
166409
215009
837977
871596
424906
242272
162983
210349
796729
830087
410872
235969
158586
205090
758609
772274
391799
227330
144969
219991
646017
608437
248371
152309
277135
534095
1.12522e+06
967794
217578
178739
259236
452464
975260
856649
211765
168226
245468
429690
881513
798695
211316
163876
238100
415610
830857
758576
208600
159856
229701
392729
770345
653004
222682
147191
155846
253109
621328
1.15649e+06
539436
285202
183657
219712
991083
1.00039e+06
464098
266774
174892
221066
893610
922921
447389
254402
171223
220387
829918
863516
430121
247673
167353
216540
785920
803467
409287
239729
153623
231834
670362
632610
260838
161345
292317
560939
1.16506e+06
1.00202e+06
232715
189177
272462
472949
1.00492e+06
880426
222938
177711
257232
447186
907025
825751
222252
172745
249393
430284
859443
775263
218685
168144
240270
408631
795980
672856
232684
154838
163872
264876
643247
1.18685e+06
562972
297077
192340
231560
1.02569e+06
1.04387e+06
486416
279576
183845
232487
913478
943183
466539
266571
179956
232225
850597
884493
446284
259238
175587
227582
799990
819543
422554
250058
161097
240444
682791
651024
270073
168960
300865
563952
1.17746e+06
1.00671e+06
238090
195665
281762
482890
1.02481e+06
895059
229935
184578
266634
457604
927810
837193
229630
178952
258523
440606
861585
723503
251787
165368
174843
284479
692547
1.26954e+06
598138
319795
206546
248293
1.07945e+06
1.08903e+06
507546
297095
195459
242731
948357
983556
486392
281870
188618
244144
865768
884274
457881
270119
172970
259374
738208
703449
291087
181158
325162
620091
1.26376e+06
1.08462e+06
262363
211418
303028
520377
1.10341e+06
951509
246614
197881
285767
489748
985300
880193
247145
191574
276698
470224
914081
765929
267986
176969
186552
302860
731058
1.33603e+06
631560
338307
218377
262172
1.12966e+06
1.13782e+06
532234
313505
206723
255117
977439
1.01812e+06
507334
296756
198758
258380
899793
924940
479067
283604
181782
271860
770344
739190
302819
190054
339818
626869
1.32496e+06
1.11147e+06
265611
220346
317297
537270
1.13151e+06
976447
259256
207437
298215
505865
1.01531e+06
893799
258617
199856
286898
482049
928634
779965
276621
184037
193414
311095
750629
1.33859e+06
646453
347361
225515
276251
1.12446e+06
1.1472e+06
545040
322661
210993
266615
975110
994573
505526
300755
191370
286039
813574
779276
314668
199733
361419
670687
1.39192e+06
1.15142e+06
283754
232172
332273
557975
1.16594e+06
1.00157e+06
271395
217159
311190
524662
1.04533e+06
912016
269776
207622
296108
496139
948514
784392
282847
189653
200047
317768
754166
1.33142e+06
660338
355595
231364
288110
1.1281e+06
1.15245e+06
557068
329930
216326
275006
978754
1.00868e+06
516084
308000
195919
291978
826968
788593
324696
204435
363299
671040
1.3591e+06
1.1363e+06
294842
235815
337260
565553
1.16757e+06
985421
281098
219141
311790
519441
1.01113e+06
822890
294782
198115
208122
330093
789545
1.37196e+06
684694
369052
237534
303003
1.13837e+06
1.14363e+06
568382
338775
210009
307802
904556
859011
341159
217718
387184
721809
1.49837e+06
1.23126e+06
306152
249418
361802
614961
1.26059e+06
1.05825e+06
304992
233746
335394
562607
1.08372e+06
882453
318096
211792
221041
355193
848275
1.46232e+06
723623
392027
251893
322229
1.19949e+06
1.20605e+06
593995
357524
220553
320341
943683
894579
353202
228091
401975
744888
1.52276e+06
1.24589e+06
326121
258047
370490
617745
1.26608e+06
1.00206e+06
338132
227700
235551
376693
949579
1.62333e+06
800038
425729
269646
346468
1.2958e+06
1.29947e+06
646991
386205
234915
344469
1.01117e+06
953565
379302
242399
429437
793613
1.61853e+06
1.31168e+06
347668
273228
391927
650034
1.32239e+06
1.04186e+06
351754
239427
247604
389557
988652
1.69004e+06
827833
442014
279766
342719
1.35385e+06
1.37174e+06
680520
406111
244826
367347
1.05453e+06
991313
400552
252433
447000
828110
1.65666e+06
1.33063e+06
368072
283555
404141
668634
1.34039e+06
1.04462e+06
359263
245520
253425
395890
991010
1.66342e+06
826031
446344
282607
365435
1.33278e+06
1.34045e+06
665648
402523
242518
355105
1.02532e+06
965393
379041
248446
434080
798453
1.57293e+06
1.17726e+06
378363
261183
266402
408298
1.08516e+06
1.76336e+06
871590
469059
291481
382848
1.39259e+06
1.39671e+06
696341
417069
250094
366978
1.06735e+06
1.00641e+06
401934
258030
445178
814064
1.6198e+06
1.21831e+06
390401
266421
268828
406450
1.11656e+06
1.78754e+06
887942
471023
277425
413315
1.31315e+06
1.19031e+06
438377
279857
501335
943117
1.90233e+06
1.47081e+06
409131
308232
443244
735890
1.46533e+06
1.10156e+06
382592
260059
267842
415707
1.03113e+06
1.63682e+06
830891
458764
270043
397623
1.21617e+06
1.11191e+06
408706
272386
472151
872994
1.75857e+06
1.27353e+06
409343
276011
279170
433402
1.1497e+06
1.7735e+06
885583
483148
278519
413178
1.28086e+06
1.1559e+06
435029
280948
482120
882674
1.76928e+06
1.28805e+06
413253
279987
283670
437034
1.17457e+06
1.82316e+06
899309
488340
281043
416229
1.3065e+06
1.11977e+06
453361
286456
299536
512028
1.47138e+06
2.20161e+06
1.05823e+06
544497
304712
470358
1.50769e+06
1.33318e+06
485797
302938
524248
983073
1.98717e+06
1.38453e+06
447088
295297
295588
458204
1.18384e+06
1.54039e+06
526190
308603
569913
1.11928e+06
2.26696e+06
1.50927e+06
485053
308786
311885
506526
1.26835e+06
1.63704e+06
567468
326000
592565
1.13519e+06
2.4041e+06
1.59587e+06
492848
316401
317880
512612
1.34777e+06
1.68845e+06
578153
324669
591499
1.15825e+06
2.40251e+06
1.54809e+06
498337
312587
304441
490459
1.27139e+06
1.53368e+06
608804
333402
329803
550616
1.94722e+06
2.69862e+06
1.38887e+06
649261
331602
552472
1.69543e+06
1.37381e+06
552976
327461
334813
619926
1.59968e+06
1.80418e+06
591597
317704
342140
726664
1.95802e+06
2.15852e+06
731417
326518
637216
1.38041e+06
2.76065e+06
1.62169e+06
525472
311618
303374
516945
1.28778e+06
1.39766e+06
564358
303299
296566
560888
1.46967e+06
1.52433e+06
573297
291713
289252
600379
1.53566e+06
1.51924e+06
609162
287580
284656
614528
1.49708e+06
1.46167e+06
613281
282967
280266
608481
1.425e+06
1.38673e+06
599560
278201
275957
592510
1.34885e+06
1.31238e+06
587427
274792
273836
584029
1.27827e+06
1.24665e+06
582073
273895
274068
581062
1.2176e+06
1.19107e+06
580734
274966
275951
580645
1.16689e+06
1.14506e+06
580486
277559
278946
580127
1.12526e+06
1.10749e+06
579430
280721
282143
578241
1.0915e+06
1.07724e+06
576676
283686
284810
574538
1.06449e+06
1.05321e+06
572032
285875
286520
568966
1.0432e+06
1.03446e+06
565651
286991
286918
561813
1.0268e+06
1.02018e+06
557836
286727
286083
553382
1.0144e+06
1.00947e+06
548904
285334
283944
543999
1.00518e+06
1.00157e+06
539137
282811
281077
533887
998453
995848
528601
280008
278346
523051
993601
991757
517593
277324
275705
511945
990179
988910
506479
274697
273101
500871
987818
986946
495506
272098
270504
490037
986197
985605
484863
269476
267857
479620
985083
984704
474706
266792
265142
469751
984329
984052
465128
264039
262375
460511
983813
983614
456224
261262
259594
451944
983463
983311
447990
258479
256811
444039
983192
983021
440418
255698
254051
436798
982882
982669
433504
252946
251318
430205
982501
982232
427232
250241
248653
424239
982030
981715
421557
247602
246063
418848
981489
981126
416441
245042
243562
413992
980870
980477
411826
242567
241146
409613
980199
979776
407679
240180
238812
405687
979462
979022
403953
237857
236528
402154
978682
978230
400606
235606
234321
398979
977868
977416
397587
233428
232188
396109
977050
976597
394869
231334
230138
393533
976229
975780
392415
229319
228170
391199
975417
974960
390198
227396
226297
389089
974599
974144
388184
225562
224514
387167
973788
973344
386357
223823
222823
385424
972987
972547
384689
222173
221218
383825
972203
971782
383172
220608
219707
382377
971451
971043
381775
219125
218265
381035
970732
970344
380501
217724
216906
379818
970053
969680
379327
216396
215618
378696
969414
969067
378249
215140
214404
377671
968826
968500
377262
213957
213258
376732
968287
967985
376350
212838
212178
375866
967803
967524
375512
211784
211159
375066
967375
967125
374735
210787
210198
374323
967004
966785
374018
209849
209291
373632
966689
966506
373351
208964
208437
372989
966432
966286
372730
208130
207629
372387
966233
966126
372144
207342
206867
371821
966092
966022
371594
206600
206146
371287
966007
965978
371074
205897
205465
370784
965981
965979
370584
205232
204819
370309
966006
966022
370120
204602
204208
369861
966081
966113
369682
204006
203628
369437
966202
966251
369268
203439
203079
369038
966366
966433
368878
202903
202557
368661
966568
966651
368509
202393
202061
368306
966803
966900
368163
201909
201589
367972
967068
967178
367837
201449
201141
367659
967360
967482
367532
201011
200714
367364
967678
967811
367244
200594
200308
367090
968019
968162
366977
200196
199921
366833
968380
968532
366725
199816
199552
366593
968759
968920
366490
199453
199199
366368
969155
969325
366270
199105
198862
366159
969568
969745
366066
198773
198538
365963
969995
970180
365875
198454
198229
365783
970435
970627
365699
198149
197931
365616
970888
971086
365536
197856
197646
365463
971349
971551
365388
197575
197372
365321
971817
972024
365251
197305
197109
365193
972292
972500
365128
197045
196856
365075
972770
972979
365018
196795
196612
364970
973250
973460
364919
196556
196378
364875
973733
973943
364829
196325
196153
364793
974215
974425
364751
196103
195937
364720
974695
974905
364683
195890
195729
364658
975175
975384
364623
195684
195527
364603
975654
975863
364572
195485
195333
364556
976132
976341
364529
195294
195146
364515
976611
976818
364493
195109
194964
364481
977089
977296
364464
194929
194788
364453
977568
977775
364440
194755
194616
364431
978048
978255
364422
194585
194450
364414
978532
978740
364410
194421
194289
364406
979019
979228
364405
194262
194132
364405
979510
979720
364407
194107
193981
364410
980002
980210
364418
193957
193834
364424
980493
980699
364439
193813
193694
364448
980980
981182
364469
193675
193560
364483
981462
981658
364508
193544
193456
364532
981935
982118
364558
193393
193319
364577
982025
982582
364614
193307
193198
364634
983224
983011
364675
193206
193067
364702
983305
983436
364870
193093
192925
364498
983326
983259
364742
192885
192540
363957
982873
985040
365415
193120
193335
366404
988897
998164
371125
195206
196116
372100
993399
981196
361234
191010
188849
356489
963695
105137
57983.6
31340.2
19290.6
18001.8
12115.1
8886.15
7355.6
6960.01
5245.92
3817.39
2988.69
2263.54
1648.93
1168.03
815.105
573.653
411.575
303.357
229.999
179.257
143.364
117.439
98.3563
84.1042
73.3269
65.1971
59.0583
54.6134
51.4828
49.4711
48.3068
47.7816
47.2647
46.3366
45.0625
43.5273
41.8419
40.0479
38.2107
36.3225
34.3933
32.4041
30.3395
28.1706
25.41
21.3965
16.3555
11.4259
7.47629
4.67384
2.82293
1.66629
0.986382
0.622082
0.446531
0.367794
0.334594
0.320926
0.314974
0.312013
0.30969
0.307536
0.305486
0.303496
0.30153
0.299555
0.297542
0.295462
0.293288
0.290992
0.28855
0.285935
0.283122
0.280088
0.276808
0.273265
0.269438
0.265314
0.260882
0.256135
0.251074
0.245703
0.240034
0.234084
0.227876
0.221439
0.214802
0.208004
0.20108
0.194071
0.187015
0.17995
0.172913
0.165938
0.159056
0.152295
0.14568
0.139232
0.132969
0.126901
0.121044
0.115401
0.10998
0.104783
0.0998088
0.095057
0.0905265
0.0862098
0.0821044
0.0782031
0.0744993
0.0709858
0.0676554
0.0645002
0.0615127
0.058685
0.0560096
0.0534788
0.0510852
0.0488215
0.0466817
0.0446579
0.0427449
0.0409356
0.0392249
0.0376067
0.0360765
0.0346288
0.0332586
0.0319622
0.0307347
0.0295727
0.0284718
0.027429
0.026441
0.0255043
0.0246161
0.023774
0.022975
0.0222168
0.0214971
0.0208136
0.0201644
0.0195477
0.0189616
0.0184045
0.0178747
0.0173707
0.0168913
0.0164351
0.0160008
0.0155874
0.0151936
0.0148186
0.0144613
0.0141208
0.0137963
0.0134869
0.013192
0.0129109
0.0126427
0.012387
0.012143
0.0119104
0.0116884
0.0114767
0.0112747
0.0110821
0.0108983
0.0107231
0.010556
0.0103967
0.0102449
0.0101002
0.00996232
0.00983105
0.00970608
0.00958719
0.00947413
0.00936669
0.00926466
0.00916785
0.00907608
0.00898918
0.00890698
0.00882934
0.00875612
0.00868719
0.00862244
0.00856176
0.00850504
0.00845219
0.00840314
0.00835781
0.00831617
0.00827817
0.00824382
0.00821315
0.00818628
0.00816334
0.00814455
0.00813003
0.00812017
0.00811442
0.00811189
0.00811014
0.00810864
0.00810866
0.00810846
0.00810852
0.0081092
0.00811073
0.00811317
0.00811577
0.00811718
0.00811646
0.0081136
0.0081091
0.00810345
0.00809696
0.00808974
0.00808183
0.00807318
0.00806376
0.00805353
0.00804247
0.00803057
0.00801785
0.00800431
0.00798998
0.00797485
0.00795894
0.00794227
0.00792485
0.00790669
0.0078878
0.0078682
0.0078479
0.00782693
0.00780529
0.00778301
0.00776011
0.0077366
0.00771251
0.00768785
0.00766265
0.00763692
0.0076107
0.007584
0.00755686
0.00752928
0.00750131
0.00747297
0.00744428
0.00741527
0.00738598
0.00735643
0.00732666
0.0072967
0.00726658
0.00723635
0.00720606
0.00717578
0.00714568
0.00711608
0.00708773
0.00706229
0.00704365
0.00704039
0.00707207
0.00718172
0.00746276
0.0081133
0.00954276
0.0126139
0.0190729
0.0323354
0.0588933
0.110759
0.209734
0.394456
0.733119
1.34737
2.45569
4.43373
7.81108
12.9509
19.3033
25.407
30.6246
37.1995
54.6475
111.231
353.218
1710.32
5117.08
6290.95
6386.68
7291.31
7250.98
7981.9
7894.46
8501.65
8379.86
8920.41
8774.99
9266.54
9104.28
9558.24
9383.6
9807.91
9623.87
10024.4
9832.79
10213.9
10016.3
10381.3
10178.7
10529.7
10322.8
10661.4
10451
10779
10565.7
10884.6
10669
10980.1
10762.7
11067.3
10848.5
11147.5
10927.7
11221.8
11001.3
11291.2
11070.4
11356.6
11135.5
11418.4
11197.2
11477.1
11255.9
11533.2
11312
11587.1
11366
11638.8
11417.9
11688.7
11467.5
11737.1
11515
11782.9
11560.2
11826.5
11603.3
11868
11644.3
11907.3
11683.1
11944.1
11719.3
11978.1
11752.4
12008.6
11781.7
12034.6
11806
12055
11824
12067.9
11833.9
12071.1
11833.1
12062.4
11819
12038.8
11788.6
11996.8
11738.4
11932.9
11664.9
11843.3
11563.2
11725.1
11426
11577
11264.9
11404.9
11081.2
11210.9
10879.1
10999.2
10661.2
10775.1
10436.9
10548.1
10217.5
10328
10009.4
10120.7
9816.3
9929.54
9641.13
9757.32
9485.97
9605.9
9352.1
9476.38
9239.93
9368.91
9148.9
9282.75
9073.34
9215.51
9015.77
9168.46
8978.39
9142.81
8961.55
9137.36
8963.35
9149.38
8980.88
9175.58
9010.91
9212.86
9050.28
9258.57
9096.78
9311.13
9147.03
9365.46
9200.37
9419.37
9253.91
9474.32
9306.1
9527.52
9356.92
9578.68
9404.89
9625.97
9451.74
9671.78
9494.44
9714.41
9534.36
9753.34
9570.9
9790.42
9604.34
9822.18
9635.39
9851.98
9663.65
9878.37
9683.97
9912.81
9702.03
9944.73
9707.71
9956.12
9551.54
9876.22
8917.63
8756.16
7015.52
4674.83
5045.23
5504.47
3490.26
5967.1
5553.57
3508.23
6016.15
5556.37
3541.18
6029.19
5568.41
3536.5
6022.95
5562.77
3531.94
6009.35
5551.07
3522.9
5995.61
5538.37
3512.42
5981.33
5523.87
3501.6
5964.81
5509.06
3490.41
5947.22