/*--------------------------------*- C++ -*----------------------------------*\
| =========                 |                                                 |
| \\      /  F ield         | OpenFOAM: The Open Source CFD Toolbox           |
|  \\    /   O peration     | Version:  v2006                                 |
|   \\  /    A nd           | Website:  www.openfoam.com                      |
|    \\/     M anipulation  |                                                 |
\*---------------------------------------------------------------------------*/
FoamFile
{
    version     2.0;
    format      ascii;
    class       volScalarField;
    location    "0.145";
    object      turbulenceProperties:L;
}
// * * * * * * * * * * * * * * * * * * * * * * * * * * * * * * * * * * * * * //

dimensions      [0 1 0 0 0 0 0];


internalField   nonuniform List<scalar> 
16277
(
1998.52
1998.55
1998.94
1999.07
1999.47
1999.4
1999.41
1999.23
1998.77
1998.1
1997.36
1996.67
1996.08
1995.58
1995.13
1994.72
1994.32
1993.93
1993.54
1993.17
1992.81
1992.45
1992.11
1991.77
1991.44
1991.12
1990.8
1990.49
1990.19
1989.89
1989.59
1989.31
1989.03
1988.75
1988.49
1988.23
1987.98
1987.74
1987.51
1987.29
1987.08
1986.88
1986.69
1986.52
1986.36
1986.21
1986.07
1985.95
1985.85
1985.76
1985.69
1985.63
1985.59
1985.57
1985.57
1985.58
1985.62
1985.67
1985.75
1985.84
1985.94
1986.06
1986.18
1986.25
1986.18
1985.75
1984.4
1980.76
1971.2
1947.5
1896.71
1794.46
1607.82
1316.45
954.812
611.984
356.512
195.422
103.505
54.2393
28.4295
15.2747
9.12528
7.01399
5.13136
4.27694
3.52426
1.93482
1.11793
0.885956
0.988321
0.37416
0.121352
0.0320747
0.0037253
0.000676234
4.70418e-05
4.51109e-05
0.000325013
0.00146001
0.000819233
0.000221171
4.31574e-05
4.18663e-05
0.000207442
0.000698858
0.000573418
0.000187013
4.15216e-05
4.10403e-05
0.000185002
0.000550564
0.000489887
0.000173553
4.07296e-05
4.03716e-05
0.000173034
0.000482192
0.000449741
0.000166466
4.01594e-05
4.00757e-05
0.000168994
0.00044878
0.0004286
0.000163765
3.99808e-05
3.99174e-05
0.00016628
0.000428799
0.000413559
0.000161754
3.98363e-05
3.97865e-05
0.000164
0.000414579
0.000401805
0.000159924
3.97153e-05
3.96745e-05
0.000161965
0.000403229
0.000391935
0.000158198
3.96113e-05
3.95762e-05
0.000160129
0.000393602
0.000383336
0.000156562
3.95184e-05
3.94872e-05
0.000158432
0.00038515
0.000375644
0.00015499
3.94332e-05
3.94049e-05
0.000156802
0.000377548
0.00036864
0.000153467
3.93535e-05
3.93271e-05
0.000155237
0.000370606
0.000362204
0.000152004
3.92774e-05
3.92524e-05
0.000153744
0.000364216
0.000356242
0.000150607
3.92039e-05
3.91797e-05
0.000152326
0.000358304
0.000350689
0.000149279
3.91319e-05
3.91083e-05
0.000150979
0.000352808
0.000345518
0.000148014
3.90609e-05
3.90376e-05
0.000149698
0.000347689
0.000340693
0.000146811
3.89903e-05
3.89671e-05
0.000148481
0.000342911
0.000336184
0.000145666
3.89197e-05
3.88965e-05
0.000147327
0.000338444
0.000331963
0.000144581
3.88488e-05
3.88254e-05
0.000146233
0.000334257
0.000327999
0.000143554
3.87773e-05
3.87537e-05
0.000145197
0.000330319
0.00032426
0.000142578
3.8705e-05
3.8681e-05
0.000144214
0.000326599
0.00032072
0.000141651
3.86316e-05
3.86071e-05
0.000143278
0.000323071
0.000317355
0.000140767
3.85568e-05
3.85317e-05
0.000142386
0.000319715
0.000314147
0.000139922
3.84803e-05
3.84545e-05
0.000141533
0.00031651
0.000311076
0.000139112
3.84018e-05
3.83752e-05
0.000140714
0.000313439
0.000308127
0.000138332
3.8321e-05
3.82934e-05
0.000139925
0.000310487
0.000305287
0.000137579
3.82375e-05
3.82088e-05
0.000139163
0.000307641
0.000302544
0.00013685
3.8151e-05
3.8121e-05
0.000138426
0.00030489
0.000299889
0.000136143
3.8061e-05
3.80296e-05
0.000137711
0.000302227
0.000297314
0.000135456
3.79672e-05
3.79342e-05
0.000137016
0.000299644
0.000294816
0.000134787
3.78691e-05
3.78344e-05
0.000136341
0.000297138
0.000292391
0.000134138
3.77663e-05
3.77298e-05
0.000135686
0.000294707
0.00029004
0.000133507
3.76585e-05
3.76199e-05
0.000135056
0.000292352
0.000287763
0.000132899
3.75452e-05
3.75045e-05
0.000134462
0.000290076
0.000285567
0.000132318
3.7426e-05
3.73832e-05
0.000133892
0.000287886
0.000283456
0.000131761
3.73008e-05
3.72558e-05
0.000133352
0.000285784
0.000281436
0.000131234
3.71693e-05
3.71221e-05
0.000132848
0.000283782
0.000279519
0.000130744
3.70314e-05
3.69821e-05
0.000132389
0.000281893
0.000277725
0.000130302
3.68873e-05
3.68361e-05
0.000131986
0.000280139
0.000276076
0.000129918
3.67373e-05
3.66847e-05
0.000131652
0.000278585
0.000274616
0.000129607
3.65821e-05
3.65287e-05
0.000131406
0.000277266
0.000273379
0.000129389
3.64232e-05
3.63699e-05
0.000131266
0.000276186
0.000272396
0.000129285
3.62623e-05
3.62104e-05
0.000131256
0.000275406
0.000271732
0.000129317
3.61021e-05
3.60532e-05
0.000131405
0.000274995
0.000271459
0.000129519
3.59461e-05
3.59025e-05
0.000131743
0.000275032
0.000271659
0.000129925
3.57986e-05
3.57634e-05
0.00013228
0.000275597
0.000272418
0.000130559
3.56662e-05
3.56413e-05
0.000132967
0.000276745
0.000273773
0.000131339
3.55568e-05
3.55426e-05
0.000133827
0.000278613
0.000275848
0.000132314
3.54742e-05
3.54723e-05
0.000134873
0.0002812
0.000278626
0.000133478
3.54268e-05
3.54349e-05
0.000136073
0.000284444
0.000282051
0.000134804
3.54212e-05
3.54331e-05
0.000137376
0.000288222
0.000285977
0.000136177
3.54273e-05
3.54678e-05
0.000138698
0.000292478
0.000290363
0.000137506
3.54742e-05
3.55355e-05
0.000139925
0.000297093
0.00029504
0.000138745
3.5554e-05
3.56318e-05
0.000140947
0.000301677
0.000299589
0.00013977
3.56588e-05
3.57466e-05
0.000141752
0.000305924
0.000303737
0.000140493
3.57794e-05
3.58728e-05
0.000142399
0.000309676
0.000307376
0.000140976
3.59093e-05
3.60057e-05
0.000142804
0.000312843
0.000310434
0.000141282
3.60441e-05
3.61409e-05
0.000143007
0.000315385
0.000312855
0.000141326
3.61793e-05
3.62737e-05
0.000142984
0.000317299
0.000314591
0.000141163
3.63108e-05
3.64008e-05
0.000142759
0.00031857
0.000315615
0.00014082
3.64356e-05
3.65197e-05
0.000142352
0.000319406
0.000316051
0.000140336
3.65514e-05
3.66283e-05
0.000141812
0.000319582
0.000315835
0.000139667
3.66565e-05
3.67256e-05
0.000141166
0.000319114
0.000314767
0.000138811
3.675e-05
3.68108e-05
0.00014031
0.000317944
0.00031326
0.000137884
3.68312e-05
3.68834e-05
0.000139386
0.000316346
0.000311445
0.000136935
3.68997e-05
3.69436e-05
0.000138439
0.000314424
0.000309378
0.000136001
3.6956e-05
3.6992e-05
0.000137499
0.000312242
0.000307132
0.000135107
3.70008e-05
3.70296e-05
0.000136595
0.000309884
0.000304779
0.000134272
3.70354e-05
3.7058e-05
0.000135745
0.000307425
0.000302376
0.000133502
3.70608e-05
3.70777e-05
0.000134953
0.000304913
0.000299977
0.000132801
3.7078e-05
3.70906e-05
0.000134234
0.000302443
0.000297623
0.000132167
3.70894e-05
3.70983e-05
0.000133561
0.000300029
0.00029534
0.000131581
3.70962e-05
3.71012e-05
0.000132952
0.000297689
0.000293137
0.000131053
3.70976e-05
3.71011e-05
0.000132395
0.00029547
0.00029101
0.000130538
3.70965e-05
3.70988e-05
0.000131854
0.000293328
0.000288987
0.000130029
3.70916e-05
3.70934e-05
0.000131368
0.000291324
0.000287081
0.000129584
3.70846e-05
3.70859e-05
0.000130919
0.000289374
0.000285226
0.00012916
3.70757e-05
3.70771e-05
0.000130503
0.00028754
0.000283488
0.000128767
3.70661e-05
3.70669e-05
0.000130105
0.000285782
0.000281776
0.00012839
3.70557e-05
3.7056e-05
0.000129713
0.000284059
0.000280081
0.000128007
3.70436e-05
3.70442e-05
0.000129344
0.000282412
0.0002785
0.000127653
3.70311e-05
3.70314e-05
0.000128975
0.000280817
0.000276937
0.000127289
3.70181e-05
3.70183e-05
0.000128604
0.000279266
0.000275437
0.000126937
3.69976e-05
3.70136e-05
0.000128271
0.000277804
0.000273802
0.000126581
3.69757e-05
3.69993e-05
0.000127811
0.000276474
0.000272618
0.000125913
3.69319e-05
3.7117e-05
0.000128099
0.000276625
0.000274143
0.000128006
3.72227e-05
3.77423e-05
0.000128392
0.000277354
0.000290691
0.000134777
3.8447e-05
4.11148e-05
0.00012756
0.000283195
0.00042086
0.000235607
4.70797e-05
4.18588e-05
9.89353e-05
0.000220315
0.000497208
0.00104745
0.00181631
0.00244921
0.00284773
0.00358544
0.00402901
0.00441523
0.00461619
0.00469695
0.0046421
0.00443597
0.00416162
0.00372756
0.00331056
0.00266396
0.00237933
0.00181494
0.0014233
0.00102169
0.000619209
0.000299981
0.000116154
5.02102e-05
1.28612e-05
1.18176e-05
4.62688e-05
0.000105492
9.98899e-05
4.38528e-05
1.10116e-05
1.04014e-05
4.19817e-05
9.45019e-05
9.47629e-05
4.1681e-05
1.02031e-05
1.00844e-05
4.13927e-05
9.31863e-05
9.30667e-05
4.09977e-05
9.9638e-06
9.95422e-06
4.09245e-05
9.28595e-05
9.30346e-05
4.09549e-05
9.96339e-06
9.96215e-06
4.09599e-05
9.31284e-05
9.32049e-05
4.09836e-05
9.97367e-06
9.97903e-06
4.1012e-05
9.3367e-05
9.34419e-05
4.10362e-05
9.98515e-06
9.99741e-06
4.10739e-05
9.36075e-05
9.37034e-05
4.10918e-05
9.99232e-06
1.00049e-05
4.114e-05
9.3867e-05
9.39682e-05
4.11613e-05
1.0011e-05
1.00243e-05
4.12065e-05
9.41527e-05
9.42405e-05
4.12264e-05
1.0025e-05
1.00268e-05
4.12857e-05
9.44374e-05
9.45277e-05
4.13044e-05
1.00452e-05
1.00471e-05
4.13582e-05
9.47245e-05
9.48158e-05
4.13747e-05
1.00541e-05
1.00556e-05
4.14374e-05
9.50193e-05
9.51119e-05
4.14564e-05
1.00744e-05
1.00765e-05
4.15114e-05
9.53187e-05
9.54165e-05
4.15341e-05
1.00842e-05
1.00861e-05
4.15985e-05
9.56287e-05
9.57238e-05
4.16199e-05
1.01053e-05
1.01073e-05
4.16744e-05
9.59327e-05
9.60307e-05
4.16967e-05
1.01151e-05
1.0117e-05
4.17629e-05
9.62488e-05
9.63475e-05
4.17864e-05
1.01365e-05
1.0139e-05
4.18448e-05
9.65644e-05
9.66668e-05
4.18709e-05
1.01473e-05
1.01496e-05
4.19396e-05
9.68911e-05
9.69922e-05
4.1966e-05
1.01636e-05
1.01778e-05
4.20193e-05
9.72144e-05
9.7318e-05
4.20518e-05
1.01801e-05
1.01829e-05
4.21198e-05
9.75446e-05
9.76475e-05
4.21485e-05
1.0197e-05
1.02116e-05
4.22057e-05
9.78716e-05
9.79758e-05
4.22375e-05
1.0214e-05
1.02171e-05
4.23075e-05
9.82017e-05
9.83043e-05
4.23353e-05
1.02311e-05
1.02461e-05
4.23974e-05
9.85271e-05
9.86289e-05
4.24265e-05
1.02486e-05
1.02518e-05
4.24978e-05
9.88493e-05
9.89482e-05
4.2524e-05
1.02659e-05
1.02807e-05
4.25852e-05
9.91598e-05
9.92552e-05
4.2609e-05
1.0283e-05
1.02863e-05
4.26794e-05
9.94672e-05
9.95493e-05
4.26991e-05
1.03e-05
1.03147e-05
4.27561e-05
9.97458e-05
9.98247e-05
4.2767e-05
1.03167e-05
1.03198e-05
4.28354e-05
0.000100026
0.000100117
4.28593e-05
1.03337e-05
1.03489e-05
4.29218e-05
0.000100315
0.000100376
4.29284e-05
1.0351e-05
1.03538e-05
4.29889e-05
0.000100555
0.000100621
4.2994e-05
1.03668e-05
1.03811e-05
4.30466e-05
0.000100787
0.000100842
4.30407e-05
1.03823e-05
1.03844e-05
4.3088e-05
0.000100999
0.000101029
4.30781e-05
1.04024e-05
1.04035e-05
4.30968e-05
0.000101138
0.000101134
4.30641e-05
1.04094e-05
1.04092e-05
4.30661e-05
0.000101224
0.000101241
4.30307e-05
1.04256e-05
1.04249e-05
4.30139e-05
0.000101304
0.00010128
4.29556e-05
1.04301e-05
1.04288e-05
4.29082e-05
0.000101298
0.000101269
4.28231e-05
1.04387e-05
1.04484e-05
4.27476e-05
0.00010127
0.000101188
4.26302e-05
1.04463e-05
1.04438e-05
4.25115e-05
0.000101158
0.000101044
4.23677e-05
1.04538e-05
1.04641e-05
4.22283e-05
0.000101022
0.000100862
4.20347e-05
1.04631e-05
1.04632e-05
4.18811e-05
0.0001009
0.000100772
4.16779e-05
1.04826e-05
1.04859e-05
4.1484e-05
0.000100807
0.000100621
4.12234e-05
1.04968e-05
1.05047e-05
4.09932e-05
0.000100667
0.000100444
4.06784e-05
1.0526e-05
1.05521e-05
4.04109e-05
0.000100493
0.000100363
4.01057e-05
1.05724e-05
1.06076e-05
3.98444e-05
0.000100634
0.000100493
3.94956e-05
1.06445e-05
1.06922e-05
3.92121e-05
0.000100742
0.000101096
3.89427e-05
1.07517e-05
1.08269e-05
3.88316e-05
0.000101981
0.000102629
3.86398e-05
1.09082e-05
1.09981e-05
3.86095e-05
0.000103731
0.000105408
3.92626e-05
1.11772e-05
1.13523e-05
3.98094e-05
0.000106814
0.000107653
3.99511e-05
1.13301e-05
1.14697e-05
3.94601e-05
0.000108855
0.000110663
4.16704e-05
1.17293e-05
1.18784e-05
4.08778e-05
0.000111552
0.000112792
4.20199e-05
1.21547e-05
1.24031e-05
4.26359e-05
0.000114544
0.000114975
4.35978e-05
1.27628e-05
1.32341e-05
4.55626e-05
0.000117193
0.000117071
4.64952e-05
1.36249e-05
1.39308e-05
4.75145e-05
0.000117543
0.000116726
4.81152e-05
1.45809e-05
1.57265e-05
5.33293e-05
0.000118507
0.000116661
5.5349e-05
1.08306e-05
6.20469e-06
1.61574e-05
4.13977e-05
9.98644e-05
3.58454e-05
8.35975e-06
9.22608e-06
3.21108e-05
9.24954e-05
9.68011e-05
3.36974e-05
9.4489e-06
9.63925e-06
3.22723e-05
9.31799e-05
9.86335e-05
3.46768e-05
1.00419e-05
1.05082e-05
3.42315e-05
9.72217e-05
0.000104134
3.82237e-05
1.10873e-05
1.17028e-05
3.78107e-05
0.000101927
0.000108321
4.28005e-05
1.24549e-05
1.33767e-05
4.34403e-05
0.000108003
0.000115468
5.00706e-05
1.49006e-05
1.05501e-05
5.34913e-05
0.000116232
4.16749e-05
1.52818e-05
6.44689e-06
9.0102e-06
3.75225e-05
0.000104055
0.000100819
3.4923e-05
1.06394e-05
1.18136e-05
4.40045e-05
0.000118159
0.000118933
4.40172e-05
1.26714e-05
1.37137e-05
4.96024e-05
0.000128057
0.000129721
5.22714e-05
1.48675e-05
1.64538e-05
5.92721e-05
0.000136462
0.000131657
6.15255e-05
1.16447e-05
7.01617e-06
1.74764e-05
4.72647e-05
0.000114526
4.23859e-05
9.64685e-06
1.10853e-05
3.94147e-05
0.000110892
0.000120823
4.59925e-05
1.19911e-05
1.30347e-05
4.51973e-05
0.000117818
0.000125624
5.28033e-05
1.48239e-05
1.07651e-05
5.88445e-05
0.000124387
4.52897e-05
1.71363e-05
6.68109e-06
9.60299e-06
4.11e-05
0.000116368
0.000117043
4.19645e-05
1.17257e-05
1.38826e-05
5.43356e-05
0.00014006
0.000142675
6.0416e-05
1.59165e-05
1.1517e-05
6.5767e-05
0.000140233
5.17127e-05
1.86101e-05
6.88218e-06
9.90874e-06
4.89529e-05
0.000128225
0.000125032
4.62274e-05
1.2153e-05
1.45659e-05
6.01672e-05
0.000144962
0.000144324
6.68637e-05
1.08522e-05
6.73784e-06
1.93801e-05
5.6007e-05
0.000145995
5.4881e-05
1.04275e-05
1.36734e-05
5.54936e-05
0.000152053
0.00019317
8.10451e-05
1.68744e-05
1.27971e-05
8.33102e-05
0.000183096
7.68531e-05
2.5903e-05
8.22884e-06
1.35122e-05
7.87132e-05
0.000191168
0.000187068
8.02927e-05
1.12207e-05
7.72528e-06
2.62347e-05
8.35989e-05
0.000236862
9.07283e-05
1.40471e-05
1.24407e-05
9.88706e-05
0.000249148
0.00011997
4.20296e-05
9.66757e-06
1.10667e-05
0.000100663
0.000272863
0.000186729
7.29872e-05
1.01017e-05
1.36144e-05
0.000107822
0.000319904
0.000266173
9.03167e-05
1.12645e-05
1.11417e-05
8.69519e-05
0.000256873
0.000280053
9.68437e-05
1.30471e-05
1.7071e-05
0.000171694
0.000472473
0.000104837
3.92172e-05
1.4112e-05
1.31162e-05
9.56209e-05
0.000203436
7.48794e-05
3.1555e-05
1.21626e-05
1.35096e-05
6.92537e-05
0.000148314
0.000132975
5.60036e-05
1.47534e-05
8.16446e-06
1.94373e-05
4.85496e-05
9.8768e-05
6.37627e-05
9.90125e-06
1.04997e-05
2.46673e-05
5.44426e-05
0.000115087
5.82333e-05
1.28303e-05
1.47594e-05
5.11516e-05
0.00010903
4.59055e-05
1.97162e-05
8.93803e-06
1.17357e-05
5.31067e-05
0.000100633
9.6776e-05
4.73445e-05
1.39997e-05
8.55201e-06
1.8383e-05
4.19114e-05
9.34993e-05
4.95321e-05
1.12577e-05
1.36001e-05
4.53321e-05
9.02362e-05
4.00424e-05
1.8039e-05
8.50043e-06
1.10937e-05
4.7441e-05
8.88382e-05
8.47817e-05
4.35044e-05
1.34677e-05
8.42997e-06
1.73347e-05
3.80442e-05
8.40221e-05
4.5121e-05
1.09707e-05
1.3463e-05
4.13528e-05
8.03503e-05
3.63548e-05
1.69976e-05
8.5227e-06
1.11144e-05
4.39985e-05
8.01025e-05
7.60794e-05
4.02151e-05
1.35497e-05
8.50829e-06
1.66185e-05
3.51882e-05
7.73034e-05
4.26933e-05
1.10552e-05
1.3703e-05
3.93724e-05
7.40751e-05
3.54659e-05
1.7045e-05
8.85355e-06
1.16464e-05
4.44891e-05
7.79902e-05
7.17248e-05
3.77971e-05
1.50643e-05
1.11106e-05
3.14144e-05
6.24756e-05
2.82271e-05
1.33765e-05
7.10955e-06
9.10794e-06
3.32782e-05
6.04713e-05
5.88869e-05
3.12419e-05
1.15502e-05
7.27801e-06
1.32825e-05
2.83385e-05
5.93417e-05
3.362e-05
9.28658e-06
1.17778e-05
3.16014e-05
5.77267e-05
2.78586e-05
1.3818e-05
7.43758e-06
9.28016e-06
3.25912e-05
5.59468e-05
5.4707e-05
3.0905e-05
1.16808e-05
7.36646e-06
1.31238e-05
2.71015e-05
5.48819e-05
3.21742e-05
9.3205e-06
1.17717e-05
3.05108e-05
5.3519e-05
2.70098e-05
1.3049e-05
7.3153e-06
9.19896e-06
3.12079e-05
5.31842e-05
5.23018e-05
3.03664e-05
1.18004e-05
7.47752e-06
1.30518e-05
2.58111e-05
5.09668e-05
3.05145e-05
9.22523e-06
1.17146e-05
2.85831e-05
4.9181e-05
2.4752e-05
1.27245e-05
7.29297e-06
8.83213e-06
2.88343e-05
4.74551e-05
4.65326e-05
2.71284e-05
1.11763e-05
6.89155e-06
1.17854e-05
2.27532e-05
4.21062e-05
3.27832e-05
7.92694e-06
9.36113e-06
1.49718e-05
2.66113e-05
5.41583e-05
3.31902e-05
1.11625e-05
1.35776e-05
3.09063e-05
5.18952e-05
2.72704e-05
1.43921e-05
8.42452e-06
1.02715e-05
3.23656e-05
5.20466e-05
5.04346e-05
3.02136e-05
1.30546e-05
8.32453e-06
1.4318e-05
2.67557e-05
5.14004e-05
3.2093e-05
1.02069e-05
1.28633e-05
3.02158e-05
5.00711e-05
2.60656e-05
1.40168e-05
8.11622e-06
9.837e-06
3.06073e-05
4.82723e-05
4.68771e-05
2.81679e-05
1.25467e-05
7.91728e-06
1.36102e-05
2.47749e-05
4.59172e-05
2.90372e-05
9.42787e-06
1.1818e-05
2.68316e-05
4.42058e-05
2.22623e-05
1.24367e-05
7.1899e-06
8.05755e-06
3.07153e-05
3.89275e-05
2.46891e-05
1.48622e-05
9.43323e-06
1.09203e-05
2.90186e-05
4.6291e-05
4.38336e-05
2.68978e-05
1.32647e-05
8.15856e-06
1.39121e-05
2.40513e-05
4.35047e-05
2.81651e-05
9.67801e-06
1.21875e-05
2.63612e-05
4.13363e-05
2.19304e-05
1.28895e-05
7.5573e-06
8.32695e-06
2.94391e-05
3.72413e-05
2.41939e-05
1.49601e-05
9.78222e-06
1.13105e-05
2.88441e-05
4.46246e-05
4.196e-05
2.63888e-05
1.35912e-05
8.32138e-06
1.39677e-05
2.3422e-05
4.2164e-05
2.76384e-05
9.87159e-06
1.2316e-05
2.52996e-05
3.99619e-05
2.12956e-05
1.27884e-05
7.52308e-06
8.29816e-06
2.81219e-05
3.53508e-05
2.3184e-05
1.46698e-05
9.73975e-06
1.107e-05
2.73781e-05
4.22482e-05
3.96505e-05
2.51506e-05
1.32877e-05
8.15704e-06
1.37408e-05
2.21978e-05
3.92121e-05
2.59347e-05
9.76468e-06
1.2129e-05
2.37833e-05
3.73481e-05
2.02665e-05
1.21237e-05
7.29414e-06
8.14065e-06
2.58857e-05
3.3117e-05
2.20507e-05
1.4344e-05
9.57508e-06
1.08799e-05
2.59574e-05
3.94187e-05
3.66542e-05
2.3225e-05
1.29532e-05
7.6117e-06
1.26878e-05
2.00262e-05
3.23666e-05
2.65037e-05
8.23865e-06
9.60791e-06
1.44656e-05
2.17658e-05
3.87143e-05
2.51005e-05
1.08637e-05
1.32213e-05
2.30913e-05
3.62067e-05
2.01291e-05
1.27398e-05
7.8915e-06
8.50681e-06
2.54687e-05
3.2268e-05
2.2e-05
1.47629e-05
9.87642e-06
1.10013e-05
2.56232e-05
3.87309e-05
3.60115e-05
2.30999e-05
1.32668e-05
7.80575e-06
1.25971e-05
1.99731e-05
3.19464e-05
2.58255e-05
8.33134e-06
9.80593e-06
1.46709e-05
2.17177e-05
3.80174e-05
2.49218e-05
1.10614e-05
1.32608e-05
2.26425e-05
3.54727e-05
1.97746e-05
1.2981e-05
7.9367e-06
8.50876e-06
2.59499e-05
3.12367e-05
2.14391e-05
1.4791e-05
9.84943e-06
1.08894e-05
2.44532e-05
3.71698e-05
3.45362e-05
2.22291e-05
1.29399e-05
7.63641e-06
1.23771e-05
1.92594e-05
3.00908e-05
2.48638e-05
8.14349e-06
9.24996e-06
1.43876e-05
2.0838e-05
3.29167e-05
2.54284e-05
9.55201e-06
1.09013e-05
1.53264e-05
2.24535e-05
3.78429e-05
2.45861e-05
1.18128e-05
1.3742e-05
2.23524e-05
3.50269e-05
1.97805e-05
1.2945e-05
8.03959e-06
8.56517e-06
2.53306e-05
3.07975e-05
2.132e-05
1.49834e-05
1.00367e-05
1.10684e-05
2.41221e-05
3.6339e-05
3.38591e-05
2.18778e-05
1.30966e-05
7.663e-06
1.2415e-05
1.90617e-05
2.95167e-05
2.43129e-05
8.20195e-06
9.35819e-06
1.44079e-05
2.06911e-05
3.21928e-05
2.50064e-05
9.6246e-06
1.07277e-05
1.54057e-05
2.21827e-05
3.70275e-05
2.4055e-05
1.16119e-05
1.37164e-05
2.20865e-05
3.4234e-05
1.9437e-05
1.31031e-05
8.13412e-06
8.47964e-06
2.56258e-05
2.9891e-05
2.11208e-05
1.51018e-05
9.74365e-06
9.90747e-06
2.51944e-05
3.25847e-05
2.24889e-05
1.5805e-05
1.10619e-05
1.18677e-05
2.41216e-05
3.71995e-05
3.43148e-05
2.19267e-05
1.38851e-05
8.16412e-06
1.30914e-05
1.96313e-05
2.99179e-05
2.52939e-05
8.50881e-06
9.69678e-06
1.49946e-05
2.11668e-05
3.23991e-05
2.54368e-05
9.95205e-06
1.11424e-05
1.58445e-05
2.25114e-05
3.70623e-05
2.41993e-05
1.20537e-05
1.40823e-05
2.21725e-05
3.42309e-05
1.97516e-05
1.3458e-05
8.38833e-06
8.80206e-06
2.56349e-05
3.00184e-05
2.13794e-05
1.53519e-05
1.003e-05
1.01684e-05
2.535e-05
3.25179e-05
2.26484e-05
1.59729e-05
1.11526e-05
1.18356e-05
2.40514e-05
3.68691e-05
3.39641e-05
2.19158e-05
1.3705e-05
8.12259e-06
1.31749e-05
1.93327e-05
2.91299e-05
2.55748e-05
8.437e-06
9.57993e-06
1.4902e-05
2.06771e-05
3.13472e-05
2.46562e-05
9.87214e-06
1.09226e-05
1.5515e-05
2.1852e-05
3.54618e-05
2.33271e-05
1.17768e-05
1.37941e-05
2.14367e-05
3.27818e-05
1.90257e-05
1.31518e-05
8.26478e-06
8.5783e-06
2.50702e-05
2.87122e-05
2.05061e-05
1.47496e-05
9.59389e-06
9.71806e-06
2.40823e-05
3.08186e-05
2.17601e-05
1.54216e-05
1.06794e-05
1.05028e-05
2.47499e-05
3.21516e-05
2.26841e-05
1.64203e-05
1.1599e-05
1.23861e-05
2.4061e-05
3.60921e-05
3.31393e-05
2.18982e-05
1.42382e-05
8.28693e-06
1.31194e-05
1.93448e-05
2.89342e-05
2.45421e-05
8.57049e-06
9.65659e-06
1.48016e-05
2.07345e-05
3.06603e-05
2.42666e-05
9.803e-06
1.06605e-05
1.54014e-05
2.18204e-05
3.18342e-05
2.45853e-05
1.0568e-05
1.16341e-05
1.63548e-05
2.25797e-05
3.56296e-05
2.38084e-05
1.22808e-05
1.42212e-05
2.19109e-05
3.28918e-05
1.94088e-05
1.35608e-05
8.51293e-06
8.73432e-06
2.54517e-05
2.87358e-05
2.076e-05
1.50714e-05
9.85393e-06
1.00291e-05
2.39956e-05
3.078e-05
2.19564e-05
1.5699e-05
1.09572e-05
1.08646e-05
2.49156e-05
3.19612e-05
2.28233e-05
1.66168e-05
1.18881e-05
1.25386e-05
2.40417e-05
3.57536e-05
3.28859e-05
2.20504e-05
1.43966e-05
8.54882e-06
1.3598e-05
1.95388e-05
2.86724e-05
2.53565e-05
8.74002e-06
9.82459e-06
1.50554e-05
2.07451e-05
3.03011e-05
2.38964e-05
9.83909e-06
1.06756e-05
1.53464e-05
2.16066e-05
3.1182e-05
2.42282e-05
1.05747e-05
1.16672e-05
1.62935e-05
2.24133e-05
3.4727e-05
2.34232e-05
1.23872e-05
1.42489e-05
2.15687e-05
3.22474e-05
1.92775e-05
1.32644e-05
8.43205e-06
8.8719e-06
2.39409e-05
2.81578e-05
2.06846e-05
1.50224e-05
9.95663e-06
1.00109e-05
2.44739e-05
3.01928e-05
2.16747e-05
1.54897e-05
1.07685e-05
1.03841e-05
2.39549e-05
3.09632e-05
2.23097e-05
1.60051e-05
1.12256e-05
1.10834e-05
2.49786e-05
3.16895e-05
2.28116e-05
1.68792e-05
1.20384e-05
1.25353e-05
2.38238e-05
3.50625e-05
3.23855e-05
2.18736e-05
1.43056e-05
8.48396e-06
1.34731e-05
1.9409e-05
2.7942e-05
2.49675e-05
8.70456e-06
9.82306e-06
1.49023e-05
2.04433e-05
2.93411e-05
2.32716e-05
9.99655e-06
1.08161e-05
1.53278e-05
2.13271e-05
3.01825e-05
2.36366e-05
1.05113e-05
1.13434e-05
1.59631e-05
2.20049e-05
3.12601e-05
2.45911e-05
1.11287e-05
1.20928e-05
1.68743e-05
2.27598e-05
3.4917e-05
2.39403e-05
1.27626e-05
1.47239e-05
2.21854e-05
3.2416e-05
1.97871e-05
1.39667e-05
8.88234e-06
9.19148e-06
2.54605e-05
2.83708e-05
2.08339e-05
1.53263e-05
1.02244e-05
1.0159e-05
2.3936e-05
3.00983e-05
2.18236e-05
1.57171e-05
1.1049e-05
1.08461e-05
2.4286e-05
3.08705e-05
2.2443e-05
1.63009e-05
1.16097e-05
1.13021e-05
2.50448e-05
3.16822e-05
2.31083e-05
1.72048e-05
1.23267e-05
1.29612e-05
2.41332e-05
3.49898e-05
3.24311e-05
2.21598e-05
1.47047e-05
8.85215e-06
1.39474e-05
1.98662e-05
2.81179e-05
2.50326e-05
9.13555e-06
1.0129e-05
1.53011e-05
2.08864e-05
2.95517e-05
2.36753e-05
1.00913e-05
1.0913e-05
1.55741e-05
2.16812e-05
3.01483e-05
2.37488e-05
1.0705e-05
1.15195e-05
1.61599e-05
2.21893e-05
3.10751e-05
2.46312e-05
1.14652e-05
1.24135e-05
1.71341e-05
2.28269e-05
3.43545e-05
2.40677e-05
1.30918e-05
1.49725e-05
2.22592e-05
3.21093e-05
1.99439e-05
1.41169e-05
9.00992e-06
9.2904e-06
2.52387e-05
2.82383e-05
2.09887e-05
1.54725e-05
1.03077e-05
1.03413e-05
2.39128e-05
2.97555e-05
2.19638e-05
1.59005e-05
1.12142e-05
1.09557e-05
2.41505e-05
3.05589e-05
2.25244e-05
1.64119e-05
1.17003e-05
1.14979e-05
2.49197e-05
3.12646e-05
2.30002e-05
1.71825e-05
1.23988e-05
1.29768e-05
2.39332e-05
3.43386e-05
3.19536e-05
2.2035e-05
1.47455e-05
8.85712e-06
1.39636e-05
1.97597e-05
2.75723e-05
2.49705e-05
9.17474e-06
1.01604e-05
1.52228e-05
2.06502e-05
2.87005e-05
2.30968e-05
1.02249e-05
1.11106e-05
1.56141e-05
2.14316e-05
2.94061e-05
2.34723e-05
1.08325e-05
1.15307e-05
1.61203e-05
2.19514e-05
3.01406e-05
2.41127e-05
1.12653e-05
1.19747e-05
1.6682e-05
2.25729e-05
3.11616e-05
2.51e-05
1.1728e-05
1.27044e-05
1.75392e-05
2.32009e-05
3.45677e-05
2.43475e-05
1.3512e-05
1.54289e-05
2.25438e-05
3.23652e-05
2.03259e-05
1.44048e-05
9.32383e-06
9.69589e-06
2.51109e-05
2.8406e-05
2.14822e-05
1.59788e-05
1.07999e-05
1.0884e-05
2.45857e-05
3.00372e-05
2.24102e-05
1.6418e-05
1.16962e-05
1.14852e-05
2.46879e-05
3.0878e-05
2.30453e-05
1.69319e-05
1.22106e-05
1.19696e-05
2.54352e-05
3.1812e-05
2.37003e-05
1.78599e-05
1.29847e-05
1.36893e-05
2.46666e-05
3.49056e-05
3.2476e-05
2.2749e-05
1.55056e-05
9.39098e-06
1.45929e-05
2.04232e-05
2.83375e-05
2.54146e-05
9.7391e-06
1.08009e-05
1.59817e-05
2.15391e-05
2.95447e-05
2.42573e-05
1.07523e-05
1.15377e-05
1.62384e-05
2.22486e-05
3.00636e-05
2.42205e-05
1.14228e-05
1.21175e-05
1.67649e-05
2.27028e-05
3.08095e-05
2.48698e-05
1.19029e-05
1.28696e-05
1.76142e-05
2.32113e-05
3.39221e-05
2.41752e-05
1.37102e-05
1.56668e-05
2.25238e-05
3.18192e-05
2.03367e-05
1.45146e-05
9.48974e-06
9.84983e-06
2.48273e-05
2.80302e-05
2.1522e-05
1.61239e-05
1.10072e-05
1.11198e-05
2.45763e-05
2.96086e-05
2.24604e-05
1.65827e-05
1.19083e-05
1.16472e-05
2.45659e-05
3.03899e-05
2.30224e-05
1.71175e-05
1.24028e-05
1.22823e-05
2.52258e-05
3.13259e-05
2.37033e-05
1.80412e-05
1.32507e-05
1.39695e-05
2.46411e-05
3.43709e-05
3.20589e-05
2.28059e-05
1.57878e-05
9.62098e-06
1.47892e-05
2.0589e-05
2.82372e-05
2.54436e-05
9.90801e-06
1.09183e-05
1.61079e-05
2.16253e-05
2.93424e-05
2.42681e-05
1.10373e-05
1.18482e-05
1.64482e-05
2.23549e-05
2.98801e-05
2.42726e-05
1.16713e-05
1.2451e-05
1.70552e-05
2.28484e-05
3.06622e-05
2.49027e-05
1.22708e-05
1.33071e-05
1.80058e-05
2.34252e-05
3.37449e-05
2.4448e-05
1.42125e-05
1.61003e-05
2.28798e-05
3.17432e-05
2.08261e-05
1.51649e-05
9.94848e-06
1.03532e-05
2.54438e-05
2.84002e-05
2.19565e-05
1.66238e-05
1.1339e-05
1.14744e-05
2.51841e-05
2.99416e-05
2.28963e-05
1.71216e-05
1.22972e-05
1.20932e-05
2.52019e-05
3.08429e-05
2.33965e-05
1.77939e-05
1.31014e-05
1.39144e-05
2.40537e-05
3.35872e-05
3.14006e-05
2.24504e-05
1.57325e-05
9.66955e-06
1.48121e-05
2.03771e-05
2.75553e-05
2.49814e-05
1.00495e-05
1.106e-05
1.62577e-05
2.14644e-05
2.88277e-05
2.43786e-05
1.12188e-05
1.20347e-05
1.66583e-05
2.22765e-05
2.9708e-05
2.42717e-05
1.20694e-05
1.31206e-05
1.76023e-05
2.28731e-05
3.2495e-05
2.36989e-05
1.39398e-05
1.58382e-05
2.22629e-05
3.06597e-05
2.03056e-05
1.47116e-05
9.76597e-06
1.01545e-05
2.44299e-05
2.73302e-05
2.14853e-05
1.63407e-05
1.12139e-05
1.14219e-05
2.44829e-05
2.89903e-05
2.24344e-05
1.69312e-05
1.23001e-05
1.22e-05
2.45122e-05
2.99004e-05
2.29934e-05
1.76408e-05
1.3093e-05
1.38809e-05
2.36781e-05
3.25014e-05
3.05571e-05
2.22083e-05
1.57767e-05
9.72024e-06
1.48145e-05
2.03006e-05
2.7077e-05
2.47829e-05
1.00995e-05
1.11727e-05
1.63202e-05
2.13175e-05
2.83264e-05
2.41884e-05
1.14202e-05
1.22397e-05
1.67871e-05
2.2169e-05
2.93266e-05
2.40394e-05
1.22521e-05
1.32947e-05
1.77491e-05
2.28443e-05
3.21521e-05
2.3695e-05
1.41734e-05
1.60166e-05
2.241e-05
3.04291e-05
2.05008e-05
1.52057e-05
9.98589e-06
1.0477e-05
2.50151e-05
2.74256e-05
2.16148e-05
1.66953e-05
1.15452e-05
1.17581e-05
2.46273e-05
2.89942e-05
2.26795e-05
1.7313e-05
1.26288e-05
1.27054e-05
2.4688e-05
3.00738e-05
2.33905e-05
1.82103e-05
1.36555e-05
1.44632e-05
2.41708e-05
3.27779e-05
3.09556e-05
2.27788e-05
1.63039e-05
1.01931e-05
1.53682e-05
2.09087e-05
2.77098e-05
2.51438e-05
1.06763e-05
1.17108e-05
1.69795e-05
2.19942e-05
2.9302e-05
2.47881e-05
1.21085e-05
1.32726e-05
1.79359e-05
2.3041e-05
3.21459e-05
2.38501e-05
1.43603e-05
1.62226e-05
2.26672e-05
3.05228e-05
2.06061e-05
1.52865e-05
1.02176e-05
1.0764e-05
2.49468e-05
2.74854e-05
2.18763e-05
1.70258e-05
1.18564e-05
1.21321e-05
2.48548e-05
2.91168e-05
2.29817e-05
1.77102e-05
1.301e-05
1.31885e-05
2.49803e-05
3.04188e-05
2.39191e-05
1.87558e-05
1.41776e-05
1.52045e-05
2.4883e-05
3.33588e-05
3.14666e-05
2.35026e-05
1.71341e-05
1.07962e-05
1.60129e-05
2.1603e-05
2.84703e-05
2.57129e-05
1.12372e-05
1.23505e-05
1.76885e-05
2.2839e-05
3.02719e-05
2.55614e-05
1.2817e-05
1.39105e-05
1.87244e-05
2.39188e-05
3.3271e-05
2.483e-05
1.49505e-05
1.70195e-05
2.35936e-05
3.16728e-05
2.18504e-05
1.62884e-05
1.10589e-05
1.16395e-05
2.57824e-05
2.87457e-05
2.30549e-05
1.80522e-05
1.26784e-05
1.32036e-05
2.58606e-05
3.0724e-05
2.43632e-05
1.92167e-05
1.43435e-05
1.55843e-05
2.53503e-05
3.38203e-05
3.20767e-05
2.40278e-05
1.75664e-05
1.12365e-05
1.65169e-05
2.22215e-05
2.93528e-05
2.60697e-05
1.1879e-05
1.32403e-05
1.85792e-05
2.35445e-05
3.27957e-05
2.5001e-05
1.47057e-05
1.67538e-05
2.37489e-05
3.14328e-05
2.17531e-05
1.60474e-05
1.06963e-05
1.13347e-05
2.60719e-05
2.86038e-05
2.28383e-05
1.76764e-05
1.24686e-05
1.30292e-05
2.52275e-05
3.02024e-05
2.3984e-05
1.88465e-05
1.4198e-05
1.54114e-05
2.47764e-05
3.3055e-05
3.15705e-05
2.36179e-05
1.73501e-05
1.12045e-05
1.64812e-05
2.20963e-05
2.89638e-05
2.5689e-05
1.19881e-05
1.33249e-05
1.86952e-05
2.3441e-05
3.23965e-05
2.50387e-05
1.49344e-05
1.70168e-05
2.38907e-05
3.11603e-05
2.19996e-05
1.64058e-05
1.11135e-05
1.18645e-05
2.5757e-05
2.87541e-05
2.3142e-05
1.84379e-05
1.30781e-05
1.44368e-05
2.44281e-05
3.20032e-05
3.08036e-05
2.32551e-05
1.65358e-05
1.08027e-05
1.58828e-05
2.14771e-05
2.82031e-05
2.49524e-05
1.17732e-05
1.31052e-05
1.81981e-05
2.2867e-05
3.15616e-05
2.4405e-05
1.46992e-05
1.68272e-05
2.33716e-05
3.04427e-05
2.16225e-05
1.62088e-05
1.10301e-05
1.18575e-05
2.52378e-05
2.82497e-05
2.28969e-05
1.83659e-05
1.31326e-05
1.45874e-05
2.43654e-05
3.15201e-05
3.03832e-05
2.32355e-05
1.66368e-05
1.08469e-05
1.59631e-05
2.14851e-05
2.8127e-05
2.58113e-05
1.16372e-05
1.30098e-05
1.80863e-05
2.26906e-05
3.13521e-05
2.39282e-05
1.47772e-05
1.69807e-05
2.30433e-05
3.02816e-05
2.16424e-05
1.63175e-05
1.12776e-05
1.22561e-05
2.49219e-05
2.8211e-05
2.31441e-05
1.87275e-05
1.35846e-05
1.52497e-05
2.48693e-05
3.19183e-05
3.08324e-05
2.38493e-05
1.73361e-05
1.14884e-05
1.67079e-05
2.21767e-05
2.8945e-05
2.56491e-05
1.24706e-05
1.38611e-05
1.9182e-05
2.36818e-05
3.28532e-05
2.5618e-05
1.57449e-05
1.79873e-05
2.47809e-05
3.18743e-05
2.29907e-05
1.76702e-05
1.24161e-05
1.44394e-05
2.56024e-05
3.14946e-05
3.06941e-05
2.46059e-05
1.68584e-05
1.14975e-05
1.68187e-05
2.23119e-05
2.93973e-05
2.57576e-05
1.26748e-05
1.40558e-05
1.93462e-05
2.41068e-05
3.32185e-05
2.58779e-05
1.60294e-05