/*--------------------------------*- C++ -*----------------------------------*\
| =========                 |                                                 |
| \\      /  F ield         | OpenFOAM: The Open Source CFD Toolbox           |
|  \\    /   O peration     | Version:  v2006                                 |
|   \\  /    A nd           | Website:  www.openfoam.com                      |
|    \\/     M anipulation  |                                                 |
\*---------------------------------------------------------------------------*/
FoamFile
{
    version     2.0;
    format      ascii;
    class       surfaceScalarField;
    location    "0.01";
    object      phi;
}
// * * * * * * * * * * * * * * * * * * * * * * * * * * * * * * * * * * * * * //

dimensions      [1 0 -1 0 0 0 0];
oriented        oriented;


internalField   nonuniform List<scalar> 
21908
(
-2.90542e-05
-0.00184745
0.00182499
5.16334e-05
-0.00173172
0.00170279
6.31212e-06
0.000103344
-2.70569e-05
0.00196802
3.63895e-05
0.00214676
-7.24559e-05
0.0021644
-1.13966e-05
0.00220186
-3.36063e-05
0.00216084
-2.67968e-06
0.00214778
-6.01339e-06
0.00212152
-8.2037e-08
0.00210913
-1.9906e-06
0.00209799
-1.68166e-06
0.00209135
-2.09273e-06
0.00208559
-2.18283e-06
0.00208014
-2.36957e-06
0.00207485
-2.65186e-06
0.0020693
-2.8225e-06
0.00206328
-2.98541e-06
0.0020571
-3.14109e-06
0.00205066
-3.28984e-06
0.00204397
-3.43199e-06
0.00203704
-3.56775e-06
0.00202987
-3.69708e-06
0.00202248
-3.81982e-06
0.00201486
-3.93567e-06
0.00200703
-4.04421e-06
0.00199901
-4.14498e-06
0.00199079
-4.23761e-06
0.00198241
-4.32161e-06
0.00197386
-4.39648e-06
0.00196517
-4.46177e-06
0.00195636
-4.5173e-06
0.00194743
-4.56371e-06
0.00193842
-4.59704e-06
0.00192933
-4.61908e-06
0.00192018
-4.62928e-06
0.00191101
-4.62714e-06
0.00190182
-4.61228e-06
0.00189264
-4.58443e-06
0.0018835
-4.54338e-06
0.00187441
-4.48896e-06
0.0018654
-4.42095e-06
0.00185649
-4.33916e-06
0.00184771
-4.24338e-06
0.00183908
-4.13326e-06
0.00183062
-4.00843e-06
0.00182235
-3.8684e-06
0.00181429
-3.71287e-06
0.00180648
-3.54172e-06
0.00179893
-3.2654e-06
0.00179157
-2.26057e-06
0.00178389
-2.92805e-06
0.00177713
-2.67286e-06
0.00176717
-5.88758e-06
0.00175479
-8.1168e-06
0.00173558
-2.69174e-05
0.00170363
-4.03767e-05
0.00166553
-0.000111487
0.00160715
-0.000181829
0.00156815
-0.000424084
0.00156803
-0.000953353
0.00183087
-0.00028525
0.000450677
4.17957e-05
0.000795422
-2.97697e-05
0.000999479
-1.9367e-05
0.000944106
-6.21169e-05
0.000789809
-9.39497e-06
0.000720477
-6.29712e-06
0.000261608
-4.15619e-06
0.000217361
0.000175985
7.55274e-06
0.000168429
1.56137e-05
0.000209297
0.000254078
2.31397e-05
-8.16377e-06
0.000249851
1.23867e-05
-4.46124e-06
0.000205591
0.000163965
2.143e-06
0.000161819
1.65417e-06
0.000206077
0.000249052
2.44955e-06
-1.61403e-06
0.000250655
6.53751e-09
-1.92285e-06
0.000206382
0.000159894
1.05248e-06
0.000158838
2.54912e-06
0.000204882
0.000250421
2.77886e-06
-2.40245e-06
0.000250065
2.75509e-06
-2.51536e-06
0.000204992
0.00015632
1.60344e-06
0.000154714
2.33809e-06
0.000204254
0.000249652
2.74672e-06
-2.25592e-06
0.000248316
3.58832e-06
-1.49094e-06
0.000203486
0.000153221
1.39833e-06
0.000151821
2.1831e-06
0.000202699
0.000247793
2.70265e-06
-2.96925e-06
0.000248088
2.6719e-06
-1.32571e-06
0.000201053
0.000150493
1.25636e-06
0.000149235
1.22385e-06
0.000201083
0.000246638
2.67043e-06
-2.86157e-06
0.000246858
2.6388e-06
-1.20902e-06
0.000199429
0.000148025
1.15689e-06
0.000146867
1.14452e-06
0.00019944
0.000245353
2.64759e-06
-2.78504e-06
0.000245515
2.62209e-06
-1.12585e-06
0.00019778
0.000145741
1.08598e-06
0.000144655
1.0932e-06
0.000197772
0.000243966
2.64154e-06
-2.73278e-06
0.000244076
2.62202e-06
-1.06675e-06
0.000196106
0.000143588
1.03498e-06
0.000142553
1.06299e-06
0.000196079
0.000242489
2.65086e-06
-2.69805e-06
0.000242551
2.63629e-06
-1.02366e-06
0.000194405
0.000141531
9.97021e-07
0.000140535
1.04773e-06
0.000194356
0.000240928
2.67282e-06
-2.67539e-06
0.000240944
2.66206e-06
-9.90694e-07
0.000192674
0.000139547
9.67216e-07
0.000138582
1.04301e-06
0.000192601
0.000239285
2.705e-06
-2.66181e-06
0.000239253
2.69784e-06
-9.64711e-07
0.000190907
0.00013762
9.43908e-07
0.000136679
1.0473e-06
0.000190808
0.000237558
2.74695e-06
-2.65707e-06
0.000237476
2.7442e-06
-9.45171e-07
0.0001891
0.000135737
9.27377e-07
0.000134814
1.0614e-06
0.000188971
0.000235742
2.80026e-06
-2.66254e-06
0.000235607
2.8033e-06
-9.32825e-07
0.000187246
0.000133885
9.1863e-07
0.00013297
1.08711e-06
0.000187083
0.000233833
2.86742e-06
-2.67985e-06
0.000233642
2.87737e-06
-9.28668e-07
0.000185337
0.000132045
9.18377e-07
0.000131131
1.12574e-06
0.000185135
0.000231824
2.95013e-06
-2.70985e-06
0.000231573
2.96756e-06
-9.33137e-07
0.000183363
0.000130202
9.26797e-07
0.000129279
1.17786e-06
0.000183118
0.000229708
3.04913e-06
-2.7528e-06
0.000229393
3.07428e-06
-9.46198e-07
0.000181316
0.000128337
9.43638e-07
0.000127397
1.24354e-06
0.000181022
0.000227479
3.16475e-06
-2.80854e-06
0.000227096
3.19792e-06
-9.67405e-07
0.000179186
0.000126434
9.68331e-07
0.000125469
1.32271e-06
0.000178836
0.000225127
3.29764e-06
-2.87667e-06
0.000224671
3.33897e-06
-9.95987e-07
0.000176961
0.000124477
9.99929e-07
0.000123481
1.41484e-06
0.000176551
0.000222644
3.44815e-06
-2.95638e-06
0.000222109
3.49755e-06
-1.03084e-06
0.00017463
0.000122455
1.03723e-06
0.000121421
1.51905e-06
0.000174153
0.000220018
3.61633e-06
-3.04665e-06
0.000219397
3.67373e-06
-1.07078e-06
0.000172182
0.000120355
1.07924e-06
0.00011928
1.6346e-06
0.000171632
0.000217235
3.80249e-06
-3.14721e-06
0.000216519
3.86838e-06
-1.11518e-06
0.000169605
0.000118169
1.12583e-06
0.000117047
1.7621e-06
0.000168973
0.000214279
4.00826e-06
-3.25932e-06
0.00021346
4.08401e-06
-1.16444e-06
0.000166884
0.000115887
1.17784e-06
0.000114714
1.90359e-06
0.000166163
0.000211133
4.237e-06
-3.38553e-06
0.0002102
4.32479e-06
-1.21977e-06
0.000164002
0.000113498
1.23683e-06
0.000112266
2.06238e-06
0.000163182
0.000207774
4.49374e-06
-3.52948e-06
0.000206713
4.59647e-06
-1.28303e-06
0.000160941
0.000110987
1.30489e-06
0.000109686
2.24264e-06
0.000160008
0.000204177
4.78474e-06
-3.69516e-06
0.000202973
4.90522e-06
-1.35633e-06
0.000157674
0.000108334
1.38387e-06
0.000106954
2.44809e-06
0.000156615
0.000200312
5.11529e-06
-3.8851e-06
0.000198948
5.2547e-06
-1.44102e-06
0.000154175
0.000105517
1.47489e-06
0.000104046
2.68102e-06
0.000152974
0.000196146
5.48843e-06
-4.10276e-06
0.000194604
5.6504e-06
-1.53885e-06
0.000150414
0.000102511
1.5808e-06
0.000100933
2.9476e-06
0.000149052
0.000191643
5.91366e-06
-4.356e-06
0.000189899
6.1048e-06
-1.65354e-06
0.000146353
9.9283e-05
1.70615e-06
9.75799e-05
3.25784e-06
0.000144806
0.000186755
6.40639e-06
-4.65564e-06
0.00018478
6.63533e-06
-1.79009e-06
0.000141944
9.57927e-05
1.85657e-06
9.39388e-05
3.62443e-06
0.000140179
0.000181422
6.98681e-06
-5.01201e-06
0.000179179
7.25867e-06
-1.95329e-06
0.000137124
9.19882e-05
2.03469e-06
8.9956e-05
4.05403e-06
0.000135108
0.000175573
7.66427e-06
-5.44309e-06
0.000173015
8.00404e-06
-2.15132e-06
0.000131819
8.78072e-05
2.2553e-06
8.55543e-05
4.57887e-06
0.000129498
0.000169108
8.48945e-06
-5.98104e-06
0.000166171
8.92214e-06
-2.39924e-06
0.000125919
8.31576e-05
2.53594e-06
8.06239e-05
5.23727e-06
0.000123221
0.00016189
9.52152e-06
-6.67434e-06
0.000158478
1.00891e-05
-2.71982e-06
0.000119269
7.79065e-05
2.90601e-06
7.50026e-05
6.09472e-06
0.000116083
0.000153715
1.08606e-05
-7.6098e-06
0.000149688
1.16398e-05
-3.15384e-06
0.000111629
7.1851e-05
3.42137e-06
6.84315e-05
7.27064e-06
0.000107782
0.000144274
1.26877e-05
-8.94536e-06
0.000139405
1.38171e-05
-3.77395e-06
0.000102613
6.46592e-05
4.18052e-06
6.04803e-05
8.98167e-06
9.7814e-05
0.000133058
1.53306e-05
-1.09783e-05
0.000126968
1.70708e-05
-4.7216e-06
9.1559e-05
5.57601e-05
5.38518e-06
5.03762e-05
1.16604e-05
8.52857e-05
0.000119205
1.94258e-05
-1.43435e-05
0.000111216
2.23334e-05
-6.29927e-06
7.72424e-05
4.40778e-05
7.54814e-06
3.65312e-05
1.63177e-05
6.84751e-05
0.000101145
2.63911e-05
-2.06116e-05
8.98942e-05
3.18638e-05
-9.14072e-06
5.70039e-05
2.73863e-05
1.37123e-05
1.36901e-05
2.68961e-05
4.38215e-05
7.66518e-05
4.01384e-05
-3.38127e-05
6.27233e-05
4.77584e-05
-1.79222e-05
2.80119e-05
-4.12382e-06
1.00172e-05
-1.41258e-05
3.07078e-05
7.37801e-06
4.44516e-05
4.90673e-05
-2.26085e-05
2.1998e-05
4.51111e-05
-4.51833e-06
-1.06868e-05
-1.86218e-05
4.07976e-06
-2.26812e-05
1.34013e-05
-1.99845e-05
1.21821e-06
3.42112e-05
-6.56665e-06
-1.14922e-05
1.93048e-05
-1.96038e-06
-2.45692e-05
-2.46252e-05
-9.55157e-07
-2.36555e-05
-3.14094e-07
-2.51923e-05
-1.55714e-05
3.79344e-06
7.27267e-06
-1.69239e-05
-5.9057e-06
4.67991e-06
-2.25944e-05
-1.8964e-05
-6.91179e-06
-1.20417e-05
-1.08995e-05
-1.86014e-05
-1.85819e-05
-9.25076e-06
3.7579e-06
-2.18332e-05
-5.03234e-07
2.87324e-06
-1.77113e-05
-9.16239e-06
-2.28842e-07
-8.93173e-06
-5.89806e-08
-1.78808e-05
-2.26044e-05
7.1255e-07
-4.63744e-06
-2.60154e-05
8.04729e-06
-2.10881e-06
-2.04101e-05
-1.10405e-05
1.78127e-06
-1.28223e-05
3.65537e-06
-2.22863e-05
-2.79075e-05
5.54529e-06
-7.67746e-06
-3.29596e-05
1.27277e-05
-3.60118e-06
-2.63642e-05
-1.64234e-05
1.78884e-06
-1.8213e-05
3.68031e-06
-2.82587e-05
-3.46912e-05
5.40893e-06
-5.00804e-06
-3.80071e-05
8.31999e-06
-2.45157e-06
-3.08186e-05
-2.06651e-05
6.01134e-07
-2.12674e-05
1.05808e-06
-3.12793e-05
-3.81435e-05
1.18997e-06
-6.14782e-07
-3.85467e-05
1.01465e-06
-5.1993e-07
-3.13764e-05
-2.1787e-05
-7.48236e-07
-2.10384e-05
-1.92346e-06
-3.02033e-05
-3.68945e-05
-3.57897e-06
2.9146e-06
-3.51647e-05
-4.64955e-06
1.11916e-06
-2.84118e-05
-1.99204e-05
-1.6904e-06
-1.82328e-05
-3.8914e-06
-2.62164e-05
-3.23931e-05
-6.67016e-06
3.7677e-06
-3.01256e-05
-6.0434e-06
1.53444e-06
-2.39895e-05
-1.6702e-05
-1.71949e-06
-1.49859e-05
-3.99094e-06
-2.17239e-05
-2.73485e-05
-6.776e-06
4.50754e-06
-2.45741e-05
-7.28955e-06
1.88531e-06
-1.91067e-05
-1.31025e-05
-2.14013e-06
-1.0963e-05
-4.90786e-06
-1.63435e-05
-2.1267e-05
-8.2221e-06
5.83964e-06
-1.75733e-05
-9.54022e-06
2.50915e-06
-1.30184e-05
-8.45591e-06
-2.74199e-06
-5.7129e-06
-6.25034e-06
-9.51195e-06
-1.34519e-05
-1.03748e-05
7.06729e-06
-8.86424e-06
-1.16576e-05
3.04154e-06
-5.48775e-06
-2.67031e-06
-2.86752e-06
1.98785e-07
-6.76659e-06
-1.58949e-06
-4.34374e-06
-1.12891e-05
7.00107e-06
6.51919e-07
-1.19975e-05
2.88773e-06
2.52366e-06
3.08866e-06
-2.41929e-06
5.51043e-06
-5.91543e-06
6.02e-06
5.07105e-06
-1.03348e-05
6.14817e-06
9.39596e-06
-1.04728e-05
2.62461e-06
9.54425e-06
8.13802e-06
-2.35719e-06
1.04993e-05
-5.66871e-06
1.28579e-05
1.32981e-05
-9.5685e-06
5.33892e-06
1.71181e-05
-9.15591e-06
2.26082e-06
1.59388e-05
1.27651e-05
-2.07062e-06
1.48427e-05
-5.0816e-06
1.89551e-05
2.059e-05
-8.54704e-06
4.45976e-06
2.3938e-05
-7.79887e-06
1.84042e-06
2.15821e-05
1.66928e-05
-1.56538e-06
1.82723e-05
-4.10463e-06
2.41332e-05
2.68566e-05
-7.00942e-06
3.3718e-06
2.96869e-05
-6.18408e-06
1.28797e-06
2.62333e-05
1.95799e-05
-9.40001e-07
2.05469e-05
-2.93455e-06
2.82498e-05
3.19947e-05
-5.21866e-06
2.17245e-06
3.42602e-05
-4.41017e-06
6.67161e-07
2.97826e-05
2.12503e-05
-3.38685e-07
2.16349e-05
-1.78342e-06
3.12619e-05
3.59397e-05
-3.42883e-06
1.12484e-06
3.76196e-05
-2.76272e-06
1.77971e-07
3.2251e-05
2.18646e-05
-1.9773e-08
2.19351e-05
-9.44645e-07
3.3225e-05
3.8687e-05
-1.96099e-06
5.08618e-07
3.97953e-05
-1.56069e-06
4.88053e-08
3.37372e-05
2.20276e-05
-4.50285e-08
2.2105e-05
-5.53775e-07
3.42952e-05
4.02802e-05
-9.85732e-07
2.78471e-07
4.08741e-05
-8.3297e-07
1.39727e-07
3.44714e-05
2.22636e-05
-1.36436e-07
2.24065e-05
-4.59658e-07
3.48152e-05
4.09446e-05
-5.10756e-07
2.17774e-07
4.12595e-05
-5.31365e-07
1.64255e-07
3.48732e-05
2.25691e-05
-7.10626e-08
2.26284e-05
-3.50083e-07
3.51475e-05
4.11478e-05
-2.51527e-07
2.38699e-09
4.12867e-05
-1.96124e-07
1.64958e-08
3.51043e-05
2.26289e-05
1.45682e-07
2.24783e-05
-2.51018e-08
3.52552e-05
4.09927e-05
2.20797e-07
-4.26424e-07
4.09355e-05
4.57901e-07
-2.63399e-07
3.50879e-05
2.2214e-05
4.18754e-07
2.17874e-05
4.5383e-07
3.50524e-05
4.03311e-05
1.04509e-06
-9.07639e-07
3.97542e-05
1.46047e-06
-4.46088e-07
3.45801e-05
2.12685e-05
3.62649e-07
2.07127e-05
8.05058e-07
3.40573e-05
3.84808e-05
1.96493e-06
-1.17474e-06
3.72507e-05
2.16142e-06
-3.30018e-07
3.29788e-05
2.02272e-05
3.04163e-07
1.98273e-05
1.01241e-06
3.20823e-05
3.57242e-05
2.36727e-06
-1.27694e-06
3.45504e-05
2.3556e-06
-2.50753e-07
3.09442e-05
1.9526e-05
2.40294e-07
1.92607e-05
1.02494e-06
3.01035e-05
3.32487e-05
2.28046e-06
-1.15521e-06
3.23825e-05
1.99919e-06
-2.00931e-07
2.91231e-05
1.90469e-05
1.94781e-07
1.88442e-05
8.11446e-07
2.84933e-05
3.14413e-05
1.74024e-06
-8.66463e-07
3.0914e-05
1.38492e-06
-1.59496e-07
2.77782e-05
1.86788e-05
1.50688e-07
1.85232e-05
5.20208e-07
2.74022e-05
3.02865e-05
1.14039e-06
-5.90906e-07
3.0006e-05
8.65149e-07
-1.13678e-07
2.69199e-05
1.84052e-05
1.05009e-07
1.82964e-05
2.91322e-07
2.6729e-05
2.95815e-05
7.10307e-07
-3.97861e-07
2.94556e-05
5.18911e-07
-7.15309e-08
2.63986e-05
1.82216e-05
7.1339e-08
1.81473e-05
1.42787e-07
2.63236e-05
2.91546e-05
4.39421e-07
-2.75038e-07
2.90281e-05
3.97759e-07
-4.16766e-08
2.60872e-05
1.81031e-05
5.31716e-08
1.80477e-05
1.66863e-07
2.59708e-05
2.89025e-05
2.89199e-07
-2.05521e-07
2.88127e-05
2.92645e-07
-2.2397e-08
2.57855e-05
1.80236e-05
-2.10104e-08
1.80432e-05
-4.07841e-08
2.58036e-05
2.87976e-05
-2.764e-08
6.75896e-07
2.89602e-05
-8.39745e-07
3.61105e-07
2.61174e-05
1.84035e-05
-7.38736e-07
1.91418e-05
-1.3532e-06
2.67314e-05
2.95799e-05
-1.97349e-06
7.07186e-07
-1.04601e-06
2.76347e-07
-4.27918e-06
-6.70678e-05
-7.09428e-07
-5.82543e-05
-1.41323e-06
-5.27237e-05
9.03791e-07
-4.29424e-05
7.90834e-07
-4.17546e-05
1.28611e-06
-3.147e-05
1.27138e-06
-2.77911e-05
1.3868e-06
-2.06757e-05
1.63233e-06
-1.69683e-05
1.7154e-06
-1.07705e-05
1.97614e-06
-6.7722e-06
2.04224e-06
-1.36505e-06
2.22524e-06
1.83576e-06
2.22645e-06
3.81323e-06
2.34487e-06
2.55267e-06
2.69502e-06
-6.13144e-06
3.10632e-06
-1.59209e-05
5.52013e-06
-4.55417e-05
1.11703e-05
-5.21504e-05
2.18713e-05
-6.35637e-05
1.42893e-05
-4.26418e-05
7.54284e-06
-4.48776e-05
6.60865e-06
-4.24672e-05
2.28875e-06
-4.07939e-05
1.31199e-06
-1.50372e-05
4.90048e-07
-1.15202e-05
-5.51722e-06
-7.16105e-07
-4.80113e-06
-1.98709e-06
-1.02492e-05
-1.37728e-05
-3.25162e-06
1.60387e-06
-1.2618e-05
-2.75873e-06
6.9057e-07
-9.33599e-06
-4.11062e-06
-5.145e-07
-3.59621e-06
-1.31948e-06
-8.53112e-06
-1.19438e-05
-1.99379e-06
3.74308e-07
-1.18521e-05
-4.66246e-07
1.86771e-07
-8.34375e-06
-3.40958e-06
-1.16643e-07
-3.29313e-06
-4.44365e-07
-8.01627e-06
-1.1631e-05
-6.65813e-07
-1.05727e-07
-1.16111e-05
8.55061e-08
2.94781e-08
-8.15181e-06
-3.26393e-06
-7.07315e-08
-3.19356e-06
-2.83045e-07
-7.93994e-06
-1.14764e-05
-4.18324e-07
-1.36823e-07
-1.15644e-05
2.24209e-07
-5.15991e-08
-8.0257e-06
-3.2456e-06
-5.22333e-08
-3.19389e-06
-1.61452e-07
-7.91711e-06
-1.1428e-05
-2.98634e-07
-1.31077e-07
-1.14987e-05
2.00901e-07
-4.96415e-08
-7.99924e-06
-3.2441e-06
-6.21161e-08
-3.18258e-06
-1.80871e-07
-7.88121e-06
-1.13522e-05
-3.28258e-07
-1.34654e-07
-1.14273e-05
2.08878e-07
-5.04526e-08
-7.96615e-06
-3.23364e-06
-5.28914e-08
-3.18136e-06
-1.65919e-07
-7.85386e-06
-1.12855e-05
-3.08591e-07
-1.22874e-07
-1.13472e-05
1.83704e-07
-4.75999e-08
-7.92988e-06
-3.22958e-06
-6.37978e-08
-3.16643e-06
-1.86392e-07
-7.80806e-06
-1.11954e-05
-3.39151e-07
-1.27638e-07
-1.12633e-05
1.94494e-07
-4.84136e-08
-7.8881e-06
-3.21552e-06
-5.29765e-08
-3.16327e-06
-1.67923e-07
-7.77403e-06
-1.11187e-05
-3.13513e-07
-1.16361e-07
-1.11734e-05
1.69862e-07
-4.58613e-08
-7.84546e-06
-3.2099e-06
-6.42614e-08
-3.14647e-06
-1.88136e-07
-7.72258e-06
-1.10196e-05
-3.43068e-07
-1.22453e-07
-1.10823e-05
1.83886e-07
-4.68533e-08
-7.79922e-06
-3.19418e-06
-5.25716e-08
-3.14252e-06
-1.68031e-07
-7.68488e-06
-1.09371e-05
-3.14581e-07
-1.12376e-07
-1.09871e-05
1.60969e-07
-4.4892e-08
-7.75354e-06
-3.18839e-06
-6.38564e-08
-3.12557e-06
-1.87434e-07
-7.63121e-06
-1.08338e-05
-3.42313e-07
-1.1936e-07
-1.08928e-05
1.76776e-07
-4.60257e-08
-7.70584e-06
-3.17267e-06
-5.10916e-08
-3.12274e-06
-1.65061e-07
-7.59329e-06
-1.07493e-05
-3.10291e-07
-1.09893e-07
-1.07957e-05
1.54562e-07
-4.44862e-08
-7.66019e-06
-3.16846e-06
-6.33929e-08
-3.10635e-06
-1.86589e-07
-7.53854e-06
-1.06425e-05
-3.41664e-07
-1.16591e-07
-1.06977e-05
1.69815e-07
-4.52468e-08
-7.61148e-06
-3.15293e-06
-4.92156e-08
-3.10507e-06
-1.6063e-07
-7.5017e-06
-1.05578e-05
-3.02492e-07
-1.08597e-07
-1.06015e-05
1.50262e-07
-4.44524e-08
-7.56751e-06
-3.15091e-06
-6.21888e-08
-3.09012e-06
-1.83439e-07
-7.44794e-06
-1.04506e-05
-3.3633e-07
-1.15752e-07
-1.05037e-05
1.66763e-07
-4.52004e-08
-7.5202e-06
-3.13673e-06
-4.72804e-08
-3.09088e-06
-1.5585e-07
-7.41335e-06
-1.03675e-05
-2.94074e-07
-1.0898e-07
-1.04098e-05
1.49188e-07
-4.49297e-08
-7.47915e-06
-3.13727e-06
-5.99847e-08
-3.07876e-06
-1.77224e-07
-7.36369e-06
-1.02646e-05
-3.24605e-07
-1.17118e-07
-1.03182e-05
1.68494e-07
-4.59169e-08
-7.43668e-06
-3.12617e-06
-4.49635e-08
-3.08273e-06
-1.49818e-07
-7.33366e-06
-1.01866e-05
-2.83585e-07
-1.11567e-07
-1.023e-05
1.5269e-07
-4.61028e-08
-7.40099e-06
-3.13038e-06
-5.78022e-08
-3.07413e-06
-1.70883e-07
-7.28978e-06
-1.00907e-05
-3.1238e-07
-1.20016e-07
-1.01461e-05
1.73041e-07
-4.70104e-08
-7.36468e-06
-3.12271e-06
-4.16364e-08
-3.08265e-06
-1.40288e-07
-7.26792e-06
-1.00232e-05
-2.65398e-07
-1.17577e-07
-1.00708e-05
1.62797e-07
-4.83842e-08
-7.33902e-06
-3.13262e-06
-5.39229e-08
-3.08028e-06
-1.5955e-07
-7.23529e-06
-9.9417e-06
-2.90912e-07
-1.28389e-07
-1.00036e-05
1.87953e-07
-5.00245e-08
-7.31555e-06
-3.13189e-06
-3.75476e-08
-3.09592e-06
-1.28146e-07
-7.22687e-06
-9.89233e-06
-2.41695e-07
-1.27992e-07
-9.94841e-06
1.81751e-07
-5.20163e-08
-7.30477e-06
-3.14954e-06
-4.90116e-08
-3.10214e-06
-1.44763e-07
-7.21096e-06
-9.8335e-06
-2.62023e-07
-1.41404e-07
-9.90672e-06
2.12258e-07
-5.43267e-08
-7.29999e-06
-3.15809e-06
-3.20391e-08
-3.12771e-06
-1.10534e-07
-7.22349e-06
-9.81334e-06
-2.06332e-07
-1.46392e-07
-9.88654e-06
2.17128e-07
-5.7836e-08
-7.31409e-06
-3.18724e-06
-4.27144e-08
-3.14626e-06
-1.23713e-07
-7.23517e-06
-9.79393e-06
-2.18839e-07
-1.6444e-07
-9.8901e-06
2.58043e-07
-6.10725e-08
-7.34066e-06
-3.2091e-06
-2.43412e-08
-3.18658e-06
-8.27818e-08
-7.28441e-06
-9.82675e-06
-1.48778e-07
-1.77494e-07
-9.93062e-06
2.78671e-07
-6.63379e-08
-7.39779e-06
-3.25477e-06
-3.35661e-08
-3.2231e-06
-8.88103e-08
-7.34483e-06
-9.87396e-06
-1.48233e-07
-2.068e-07
-1.00088e-05
3.38867e-07
-7.20671e-08
-7.48189e-06
-3.29711e-06
-1.065e-09
-3.29801e-06
-1.82602e-08
-7.46706e-06
-9.90795e-06
-1.21993e-07
-2.4213e-07
-1.01446e-05
4.75866e-07
-8.92168e-08
-7.62236e-06
-3.38922e-06
1.23278e-08
-3.40356e-06
9.76681e-09
-7.62222e-06
-1.00481e-05
-8.96097e-08
-3.71236e-07
-1.02166e-05
5.36857e-07
-1.15673e-07
-7.8802e-06
-3.52124e-06
3.82215e-08
-3.56146e-06
4.50382e-08
-7.88946e-06
-1.03054e-05
1.30931e-07
-3.32598e-07
-1.06215e-05
6.45703e-07
-1.69929e-07
-8.05456e-06
-3.7334e-06
7.48183e-08
-3.81024e-06
1.51142e-07
-8.1333e-06
-1.05918e-05
1.18515e-07
-5.46432e-07
-1.08383e-05
7.90069e-07
-1.93304e-07
-8.48886e-06
-4.00557e-06
7.60726e-08
-4.08366e-06
1.50744e-07
-8.56597e-06
-1.10759e-05
3.85352e-07
-5.20078e-07
-1.13391e-05
7.80354e-07
-2.38921e-07
-8.84957e-06
-4.32461e-06
1.23097e-07
-4.44971e-06
3.04232e-07
-9.03313e-06
-1.14979e-05
4.6008e-07
-6.39835e-07
-1.18301e-05
9.69089e-07
-2.93275e-07
-9.38212e-06
-4.74499e-06
2.11198e-07
-4.95819e-06
3.99436e-07
-9.57277e-06
-1.2098e-05
6.64447e-07
-7.13675e-07
-1.2489e-05
1.10175e-06
-3.26165e-07
-9.96268e-06
-5.28634e-06
3.75342e-07
-5.66367e-06
5.85816e-07
-1.01756e-05
-1.27728e-05
8.6676e-07
-9.79752e-07
-1.31611e-05
1.36516e-06
-4.64749e-07
-1.06929e-05
-6.1304e-06
6.71437e-07
-6.80381e-06
9.66504e-07
-1.09904e-05
-1.35746e-05
1.37706e-06
-1.54048e-06
-2.62536e-05
1.42153e-05
-9.25295e-07
-1.1608e-05
-7.73107e-06
1.08673e-06
-8.81982e-06
1.14836e-05
-2.20084e-05
-2.03565e-05
5.58165e-06
-6.59061e-06
-2.02394e-05
6.46933e-06
-9.37199e-06
-1.92311e-05
-1.81946e-05
1.67206e-06
-1.98707e-05
4.52845e-06
-2.2092e-05
-2.6538e-05
1.08212e-05
4.42186e-06
-1.67631e-05
-1.42002e-05
1.06399e-06
-1.87377e-05
-1.88104e-05
1.15799e-06
-1.99719e-05
2.50761e-06
-2.00903e-05
-2.09467e-05
6.68875e-06
-4.47625e-06
-2.21471e-05
5.67265e-06
-2.38393e-06
-2.21865e-05
-2.23598e-05
2.01582e-06
-2.43801e-05
3.28842e-06
-2.34635e-05
-2.29428e-05
4.0795e-06
-2.16613e-06
-2.3165e-05
2.38281e-06
-1.57687e-06
-2.40576e-05
-2.59619e-05
1.32477e-06
-2.72917e-05
1.16325e-06
-2.39018e-05
-2.29822e-05
9.73731e-07
6.34397e-07
-2.17779e-05
-1.84826e-06
-6.79987e-07
-2.25944e-05
-2.79773e-05
-7.32922e-07
-2.72506e-05
-3.17324e-06
-2.01638e-05
-1.92819e-05
-5.68528e-06
8.55787e-06
-1.26524e-05
-1.52171e-05
3.48223e-06
-1.51023e-05
-2.37753e-05
-3.86561e-06
-1.9917e-05
-8.91073e-06
-1.00719e-05
-7.12772e-06
-1.44554e-05
5.81383e-06
-7.42576e-06
-5.53185e-06
3.26689e-06
-7.54136e-06
-1.66585e-05
-4.6858e-06
-1.19855e-05
-9.07462e-06
-3.17623e-06
-2.51166e-06
-1.4014e-05
1.5064e-05
5.5396e-06
-2.31442e-05
7.16079e-06
4.699e-06
-4.84556e-06
-1.32116e-05
8.34212e-06
-2.38635e-05
1.53278e-05
2.74995e-05
-4.58522e-05
1.23861e-05
1.62969e-05
-1.19703e-06
1.01348e-05
1.75628e-05
1.84536e-05
-1.00817e-05
2.85155e-05
-1.27315e-05
2.02022e-05
2.57026e-05
-2.21453e-05
9.59486e-06
1.67005e-05
-5.98496e-07
9.66227e-06
2.0127e-05
3.81602e-05
-1.16535e-05
4.97978e-05
-1.4648e-05
2.31151e-05
2.04658e-05
-1.84174e-05
2.40778e-05
2.78408e-05
-3.14584e-05
1.73514e-05
2.98349e-05
6.7134e-05
-2.27267e-05
8.98448e-05
-3.23604e-05
3.94621e-05
3.63289e-05
-4.08542e-05
3.86772e-05
6.35121e-05
-6.5866e-05
2.68745e-05
5.12592e-05
0.000116704
-2.65035e-05
0.000143193
-2.4994e-05
4.97455e-05
3.94676e-05
-9.52607e-07
3.91078e-05
4.48797e-05
-4.4522e-05
3.49368e-05
5.39132e-05
0.000178117
-5.22783e-05
0.000230381
-6.46747e-05
6.63064e-05
5.68212e-05
-7.6619e-05
8.18168e-05
0.000100621
-0.000125619
6.62633e-05
8.18576e-05
0.000296631
-7.03004e-05
0.000366919
-6.46177e-05
7.61735e-05
5.82567e-05
-2.2254e-05
8.60102e-05
5.79189e-05
-8.56728e-05
8.67815e-05
7.54011e-05
0.000453688
-0.000109575
0.000563252
-0.00012167
8.74957e-05
0.000107904
-0.000171656
0.000104077
5.95883e-05
-5.57614e-05
0.000115982
7.55916e-05
0.000679222
-0.000133272
0.000812483
-0.000127884
7.02042e-05
4.73786e-05
-0.000115674
0.000197348
0.000103833
-0.000253802
0.00016396
0.000103594
0.000976432
-0.000155197
0.00113162
-0.000175523
0.000123921
0.000132572
-0.000204262
0.000109954
0.000128334
-0.000105717
0.000114068
0.000119808
0.00124568
-6.82162e-05
0.00131389
-7.11018e-05
0.000122694
0.000131698
-7.44652e-05
3.80173e-05
0.000143612
-4.99313e-05
1.87928e-05
0.000141919
0.00133267
4.79606e-05
0.0012847
3.22345e-05
0.000157646
0.000172243
3.60492e-06
-0.000114009
0.000123957
0.000162296
-0.00010558
0.000149218
0.00117912
0.000121501
0.00105761
0.000101349
0.000169371
0.000202156
2.31519e-05
-0.000136641
0.000144807
0.00019399
-0.000134321
0.000167051
0.000923284
0.000128235
0.000795046
0.000112673
0.000182613
0.000237824
1.9656e-05
-0.000168214
0.000150825
0.000255213
-0.000137161
0.000151558
0.000657884
0.000111438
0.000546447
0.000121381
0.000141614
0.000131563
0.000140642
-7.92044e-05
0.000221281
-1.05142e-05
-9.0593e-05
0.000153001
0.000455855
8.70134e-05
0.000368842
0.000112341
0.000127672
0.000134343
0.000199277
-7.51608e-05
0.000114609
9.48944e-05
-6.581e-05
0.000118321
0.000303034
4.94726e-05
0.000253562
3.87513e-05
0.000129041
0.000198001
-4.46423e-05
-6.40409e-05
0.000134892
0.000127147
-4.66837e-05
0.000111683
0.00020688
3.72851e-05
0.000169595
4.79007e-05
0.000101067
0.000108276
7.45159e-05
-2.1744e-05
0.000183563
-5.35449e-05
-2.77609e-05
0.000107083
0.000141835
2.71238e-05
0.000114711
4.21796e-05
9.20267e-05
0.000120293
0.000105447
-2.78968e-05
0.000101531
4.66582e-05
-2.09352e-05
8.50646e-05
9.37752e-05
1.4022e-05
7.97525e-05
4.80062e-06
9.42849e-05
0.00019174
-8.54111e-05
-2.07676e-05
0.00013807
7.44349e-05
-1.4717e-05
8.82331e-05
6.50345e-05
1.3312e-05
5.17217e-05
1.06263e-05
9.0917e-05
0.000237033
-8.8343e-05
-4.2314e-05
0.000152187
0.000127152
-1.80755e-05
6.66773e-05
3.36452e-05
2.00131e-05
1.36292e-05
4.88793e-05
3.78094e-05
0.00010499
9.60729e-05
-3.77351e-05
7.85716e-05
6.41501e-05
-1.92911e-05
1.93618e-05
-5.6655e-06
1.23308e-05
-1.79995e-05
1.50428e-05
1.66451e-05
0.000137982
-4.43736e-05
-3.29859e-05
7.72618e-05
9.36968e-05
-1.52675e-05
-1.07881e-06
-3.32712e-05
1.6991e-05
-5.02642e-05
2.90499e-05
-1.31406e-05
5.32394e-05
5.30685e-05
-9.32792e-06
9.48644e-05
-3.23003e-05
-6.62057e-06
-1.58504e-05
-5.68865e-05
6.55731e-06
-6.34449e-05
1.86292e-05
-2.79243e-05
4.5759e-05
6.77289e-05
-5.88641e-06
1.71436e-05
3.4502e-05
1.58962e-06
-3.54002e-05
-6.18556e-05
-1.88307e-06
-5.99735e-05
-2.9433e-08
-3.72542e-05
3.69404e-06
1.34201e-05
-4.74273e-07
1.82961e-05
-1.41296e-05
2.50571e-06
-4.02372e-05
-5.74702e-05
-4.80961e-06
-5.26655e-05
-3.69131e-06
-4.1362e-05
-1.00875e-05
2.46784e-05
1.22582e-05
-2.01735e-05
-2.17384e-06
3.07722e-05
-5.98797e-05
-2.18957e-05
1.5547e-05
-3.74445e-05
-1.09384e-05
-3.33978e-05
-2.13352e-05
-9.78292e-06
1.17084e-05
-1.51801e-05
-1.78695e-05
5.70286e-06
-2.73946e-05
-3.17431e-05
-1.14273e-05
-2.03164e-05
-2.06108e-05
-1.82125e-05
-1.35882e-05
-2.22044e-05
1.20032e-05
-1.13456e-05
-1.42479e-05
6.76853e-06
-1.29801e-05
-1.35497e-05
9.32834e-06
-2.28804e-05
1.53741e-05
-1.90287e-05
-1.18959e-05
1.59208e-05
1.61689e-05
-1.3135e-06
-2.67553e-05
7.42111e-06
-1.0283e-05
-1.54604e-05
-5.81904e-06
-9.64195e-06
-9.45513e-06
-6.64749e-06
-1.26708e-06
-9.50227e-06
2.70728e-06
9.80298e-06
-1.37794e-05
-9.84763e-07
-2.95734e-06
-1.06283e-05
-2.41732e-06
-8.21226e-06
-6.47593e-06
1.09927e-06
1.3148e-05
-9.82459e-06
4.11607e-06
1.01568e-05
-1.12567e-06
3.8932e-06
1.32163e-06
-4.31966e-06
-2.49525e-06
-1.82426e-06
-3.40558e-06
2.23247e-06
7.11566e-06
-3.63803e-07
1.44329e-05
2.36398e-05
-3.09579e-05
4.74846e-06
1.19162e-05
2.92329e-06
1.43994e-06
1.48211e-06
2.90917e-06
1.04458e-05
2.17341e-05
4.81345e-06
-1.13699e-06
1.57351e-05
7.1356e-06
8.44655e-07
8.46411e-06
2.3267e-06
-1.14997e-05
1.3827e-05
-2.81573e-05
2.51223e-05
3.92834e-05
-5.17048e-05
-7.21655e-06
3.21861e-05
1.4315e-05
-2.70944e-06
2.0616e-05
1.11181e-05
2.68859e-06
8.42972e-06
8.0492e-06
1.52559e-05
2.33691e-05
1.68668e-05
3.50128e-05
5.13698e-05
-6.30124e-05
1.43007e-05
3.59688e-05
2.2731e-05
4.55305e-06
1.81785e-05
1.17703e-05
2.87526e-05
4.13826e-05
2.1759e-05
-1.29063e-05
3.01362e-05
2.41534e-05
-5.12337e-06
2.09703e-05
1.30554e-05
-1.73116e-05
3.03676e-05
-4.23656e-05
4.60251e-05
6.37413e-05
-7.59693e-05
-1.11009e-05
5.45509e-05
2.02933e-05
-4.24463e-06
3.91699e-05
2.61236e-05
6.09312e-06
2.00309e-05
1.49012e-05
3.03627e-05
4.19666e-05
2.74868e-05
-1.46265e-05
2.98159e-05
2.67778e-05
-5.90831e-06
2.1645e-05
1.41228e-05
-1.69902e-05
3.11133e-05
-4.12869e-05
4.59424e-05
6.123e-05
-7.27e-05
-1.6152e-05
4.8573e-05
2.88105e-05
-6.45477e-06
3.62461e-05
2.46591e-05
7.60738e-06
1.7052e-05
1.84744e-05
2.53796e-05
3.42374e-05
3.28108e-05
4.43426e-05
6.77683e-05
-7.78724e-05
1.8545e-05
5.11779e-05
3.55975e-05
8.34119e-06
2.7257e-05
2.00414e-05
3.94788e-05
5.23955e-05
3.54159e-05
-2.02419e-05
3.65618e-05
3.60763e-05
-8.33687e-06
2.75745e-05
1.89206e-05
-1.98645e-05
3.87858e-05
-4.7129e-05
5.48398e-05
7.15008e-05
-8.20669e-05
-2.07448e-05
5.59565e-05
3.62911e-05
-8.51895e-06
4.26152e-05
3.02677e-05
9.51671e-06
2.07517e-05
2.24607e-05
2.96719e-05
3.94793e-05
3.89388e-05
5.02273e-05
7.65554e-05
-8.73021e-05
2.0846e-05
5.90542e-05
4.15985e-05
9.37283e-06
3.22266e-05
2.30915e-05
4.5337e-05
5.91101e-05
4.05389e-05
-2.39341e-05
4.12295e-05
4.18156e-05
-1.00088e-05
3.14125e-05
2.22185e-05
-2.19798e-05
4.41992e-05
-5.21128e-05
6.15465e-05
7.91139e-05
-8.99957e-05
-2.48087e-05
6.11669e-05
4.2758e-05
-1.04217e-05
4.71612e-05
3.37786e-05
1.11841e-05
2.25952e-05
2.6557e-05
3.17893e-05
4.16796e-05
4.60453e-05
4.91542e-05
7.66826e-05
-8.41558e-05
2.10868e-05
5.98578e-05
4.36829e-05
1.31173e-05
3.05666e-05
3.04661e-05
4.25103e-05
5.4562e-05
5.25883e-05
6.40749e-05
0.000100715
-0.000110226
2.75817e-05
7.90052e-05
5.81497e-05
1.38171e-05
4.43344e-05
3.25116e-05
6.0313e-05
7.68939e-05
5.6336e-05
-3.21821e-05
5.38975e-05
5.51801e-05
-1.38466e-05
4.19789e-05
3.0489e-05
-2.8718e-05
5.92083e-05
-6.6582e-05
7.98446e-05
0.000101788
-0.00011447
-3.15631e-05
7.87025e-05
5.46522e-05
-1.3424e-05
6.17081e-05
4.57862e-05
1.41469e-05
3.16406e-05
3.27123e-05
4.31443e-05
5.49647e-05
5.64518e-05
6.86901e-05
0.000103921
-0.000117644
2.97702e-05
8.20662e-05
6.14125e-05
1.40045e-05
4.741e-05
3.23365e-05
6.37372e-05
8.06326e-05
5.56293e-05
-3.45727e-05
5.61254e-05
5.90818e-05
-1.46835e-05
4.38496e-05
3.2728e-05
-2.97225e-05
6.24523e-05
-6.90103e-05
8.31394e-05
0.000104756
-0.000117638
-3.49228e-05
7.98687e-05
5.98141e-05
-1.48889e-05
6.31085e-05
4.75657e-05
1.58612e-05
3.1706e-05
3.64939e-05
4.24775e-05
5.36017e-05
6.27628e-05
6.14435e-05
9.68777e-05
-0.000104717
2.6698e-05
7.72251e-05
5.84057e-05
1.76903e-05
4.07175e-05
4.08959e-05
5.40218e-05
6.8539e-05
6.92375e-05
7.74006e-05
0.00012223
-0.000131089
3.34373e-05
9.79879e-05
7.4157e-05
1.84385e-05
5.57212e-05
4.31174e-05
7.33128e-05
9.1896e-05
7.34568e-05
-4.03709e-05
6.33013e-05
6.89681e-05
-1.75705e-05
5.05145e-05
3.81527e-05
-3.28151e-05
7.097e-05
-7.57173e-05
9.34193e-05
0.000116067
-0.00012848
-3.9261e-05
8.86063e-05
6.67265e-05
-1.69109e-05
7.10729e-05
5.40619e-05
1.81461e-05
3.59177e-05
4.13052e-05
4.7916e-05
5.98896e-05
7.00243e-05
6.76751e-05
0.000107129
-0.000114912
2.95461e-05
8.60474e-05
6.5466e-05
1.94727e-05
4.59958e-05
4.51535e-05
6.03695e-05
7.57101e-05
7.65761e-05
8.54693e-05
0.000134866
-0.000144621
3.7133e-05
0.000108709
8.31316e-05
2.02148e-05
6.29203e-05
4.6712e-05
8.22166e-05
0.000102137
7.94478e-05
-4.53371e-05
7.03674e-05
7.71092e-05
-1.9691e-05
5.65732e-05
4.32317e-05
-3.63145e-05
7.9549e-05
-8.36946e-05
0.000103956
0.000128635
-0.000141959
-4.48902e-05
9.75031e-05
7.60286e-05
-1.95229e-05
7.85937e-05
6.00296e-05
2.01649e-05