/*--------------------------------*- C++ -*----------------------------------*\
| =========                 |                                                 |
| \\      /  F ield         | OpenFOAM: The Open Source CFD Toolbox           |
|  \\    /   O peration     | Version:  v2006                                 |
|   \\  /    A nd           | Website:  www.openfoam.com                      |
|    \\/     M anipulation  |                                                 |
\*---------------------------------------------------------------------------*/
FoamFile
{
    version     2.0;
    format      ascii;
    class       volScalarField;
    location    "0.159";
    object      isentropic(p);
}
// * * * * * * * * * * * * * * * * * * * * * * * * * * * * * * * * * * * * * //

dimensions      [1 -1 -2 0 0 0 0];


internalField   nonuniform List<scalar> 
16277
(
150008
150014
150017
150003
150012
150010
150011
150012
150013
150013
150013
150012
150012
150011
150011
150011
150010
150010
150010
150010
150010
150010
150010
150009
150009
150009
150009
150009
150009
150009
150009
150009
150008
150008
150008
150008
150008
150008
150008
150008
150007
150007
150007
150007
150007
150007
150007
150007
150006
150006
150006
150006
150006
150006
150006
150006
150005
150005
150005
150005
150005
150005
150005
150005
150005
150004
150004
150004
150004
150004
150004
150004
150004
150004
150004
150003
150003
150003
150003
150002
150002
150001
150001
150000
150001
150003
150004
150005
150004
150006
150005
150007
150008
150011
150017
150015
149976
149936
150011
150022
150021
150002
149897
149860
149993
150018
150013
149981
149826
149796
149971
150008
150002
149959
149768
149744
149949
149997
149991
149938
149721
149703
149929
149986
149979
149919
149684
149669
149911
149975
149968
149901
149653
149640
149893
149964
149958
149884
149627
149616
149877
149953
149947
149868
149605
149595
149862
149943
149937
149854
149585
149577
149849
149934
149928
149841
149568
149561
149836
149925
149919
149829
149553
149547
149824
149916
149911
149817
149540
149534
149813
149908
149903
149807
149528
149523
149803
149901
149896
149797
149517
149513
149794
149893
149889
149788
149508
149504
149785
149887
149882
149779
149499
149496
149776
149880
149876
149771
149492
149489
149769
149874
149870
149763
149485
149483
149761
149868
149864
149756
149479
149477
149755
149863
149859
149750
149474
149473
149748
149857
149853
149744
149470
149469
149743
149852
149848
149738
149466
149465
149737
149847
149844
149733
149463
149463
149732
149843
149839
149728
149461
149461
149727
149839
149835
149724
149459
149459
149723
149835
149831
149719
149458
149458
149719
149831
149827
149716
149457
149458
149715
149827
149824
149712
149457
149458
149712
149823
149820
149709
149458
149459
149709
149820
149817
149706
149459
149460
149706
149817
149814
149704
149460
149462
149704
149814
149811
149702
149462
149464
149702
149811
149809
149700
149465
149467
149700
149809
149806
149698
149468
149470
149699
149806
149804
149697
149471
149474
149698
149804
149802
149696
149475
149478
149697
149802
149800
149695
149480
149483
149696
149801
149799
149695
149485
149488
149696
149799
149797
149695
149490
149493
149697
149798
149796
149696
149496
149499
149697
149797
149795
149696
149502
149506
149698
149796
149795
149698
149508
149512
149700
149796
149795
149700
149515
149519
149702
149796
149795
149702
149522
149526
149704
149796
149796
149704
149530
149534
149707
149797
149797
149708
149537
149541
149710
149799
149799
149711
149545
149549
149715
149801
149801
149716
149552
149557
149719
149803
149804
149720
149560
149564
149724
149807
149807
149726
149567
149571
149729
149810
149811
149731
149573
149578
149735
149814
149815
149737
149579
149583
149741
149819
149820
149742
149585
149588
149746
149823
149824
149748
149589
149591
149751
149828
149828
149753
149591
149593
149756
149832
149832
149757
149593
149594
149760
149835
149836
149760
149592
149593
149763
149839
149839
149763
149591
149591
149766
149842
149842
149765
149589
149588
149767
149844
149844
149767
149585
149584
149768
149846
149846
149767
149581
149580
149769
149848
149847
149767
149576
149574
149768
149849
149848
149767
149570
149569
149767
149850
149849
149766
149564
149563
149766
149850
149849
149764
149558
149557
149764
149850
149849
149762
149552
149551
149762
149850
149848
149760
149546
149545
149760
149849
149847
149757
149541
149539
149757
149848
149846
149755
149535
149534
149755
149847
149845
149752
149530
149529
149752
149845
149843
149749
149525
149524
149749
149844
149842
149746
149521
149520
149746
149842
149840
149744
149516
149516
149743
149841
149838
149741
149512
149511
149740
149839
149836
149738
149509
149508
149738
149837
149834
149735
149505
149504
149735
149835
149833
149732
149502
149501
149732
149833
149831
149730
149498
149498
149729
149831
149829
149727
149495
149494
149726
149828
149826
149724
149492
149492
149725
149827
149824
149721
149489
149489
149722
149825
149823
149719
149487
149486
149719
149822
149821
149717
149484
149483
149716
149820
149818
149714
149481
149481
149714
149819
149817
149711
149478
149479
149713
149818
149816
149711
149477
149479
149714
149819
149821
149717
149484
149496
149727
149831
149867
149775
149551
149516
149697
149792
149864
149922
149955
149966
149972
149984
149989
149994
149997
149999
149999
149998
149997
149993
149989
149979
149974
149967
149959
149946
149913
149842
149703
149543
149279
149267
149527
149676
149683
149506
149231
149234
149497
149658
149655
149493
149227
149230
149493
149650
149653
149491
149224
149225
149491
149653
149654
149492
149226
149227
149493
149655
149656
149494
149228
149228
149494
149657
149658
149495
149229
149230
149497
149659
149660
149498
149231
149232
149499
149661
149662
149500
149233
149234
149501
149663
149664
149503
149236
149236
149504
149665
149666
149505
149237
149238
149506
149667
149668
149507
149239
149240
149508
149670
149671
149509
149241
149242
149511
149672
149673
149512
149243
149244
149513
149675
149676
149514
149245
149246
149515
149677
149678
149516
149247
149248
149518
149679
149680
149519
149248
149249
149520
149681
149682
149521
149250
149252
149523
149684
149685
149524
149253
149254
149525
149686
149687
149526
149255
149256
149528
149689
149689
149529
149257
149258
149530
149690
149692
149531
149259
149260
149533
149693
149694
149534
149261
149262
149535
149695
149697
149537
149263
149264
149538
149698
149699
149539
149265
149266
149540
149701
149702
149542
149267
149268
149543
149703
149704
149544
149269
149269
149546
149706
149707
149547
149270
149271
149548
149709
149710
149549
149272
149273
149551
149712
149713
149552
149274
149274
149554
149714
149716
149555
149275
149276
149556
149717
149719
149557
149276
149277
149559
149721
149722
149560
149277
149278
149562
149724
149726
149563
149278
149278
149565
149728
149730
149566
149279
149279
149568
149731
149734
149569
149279
149279
149571
149736
149737
149573
149280
149280
149575
149740
149742
149576
149280
149280
149578
149745
149747
149580
149280
149280
149583
149750
149752
149585
149280
149280
149588
149755
149759
149590
149280
149280
149593
149763
149767
149596
149280
149282
149600
149768
149772
149604
149283
149285
149608
149776
149780
149612
149286
149289
149617
149784
149788
149622
149292
149295
149628
149792
149796
149634
149300
149305
149641
149801
149807
149648
149309
149315
149656
149814
149821
149667
149327
149337
149679
149827
149835
149691
149351
149367
149700
149842
149849
149714
149383
149400
149723
149856
149861
149733
149417
149436
149744
149868
149875
149755
149458
149478
149767
149881
149885
149777
149497
149517
149786
149891
149895
149794
149536
149562
149814
149905
149903
149828
149587
149263
149707
149776
149876
149728
149396
149407
149750
149894
149898
149763
149428
149448
149769
149906
149903
149787
149485
149520
149800
149898
149909
149820
149554
149576
149828
149916
149936
149844
149600
149619
149854
149947
149947
149875
149658
149705
149895
149944
149839
149843
149415
149588
149833
149933
149938
149858
149616
149646
149876
149942
149981
149888
149653
149685
149901
149979
149983
149915
149714
149741
149934
149997
149978
149948
149773
149663
149764
149951
149968
149910
149688
149706
149923
149991
149995
149938
149740
149755
149944
150012
150018
149964
149791
149832
149979
150022
149933
149989
149613
149792
149950
149997
150000
149981
149832
149815
149984
150058
150046
150011
149866
149916
150020
150030
149976
150048
149679
149864
150005
150063
150063
150022
149886
149918
150042
150080
150090
150051
149950
149758
150112
150015
150112
150052
149946
149983
150072
150091
150117
150094
150015
150036
150101
150111
150109
150082
149996
150069
150128
150144
150135
150144
150084
150151
150054
150174
150181
150180
150137
150183
150193
150180
150211
150216
150199
150276
150252
150218
150180
150222
150233
150277
150227
150187
150214
150260
150311
150293
150272
150233
150187
150213
150180
150035
150104
150103
150007
149953
149843
149888
149966
149977
149922
149867
149741
149798
149906
149932
149910
149851
149748
149458
150019
149792
149906
149769
149723
149620
149791
149845
149889
149850
149698
149654
149817
149879
149824
149751
149583
149669
149829
149866
149818
149810
149675
149571
149743
149801
149878
149814
149628
149568
149779
149899
149815
149718
149523
149617
149811
149884
149905
149775
149554
149504
149707
149809
149881
149811
149622
149554
149772
149902
149807
149704
149503
149617
149809
149876
149896
149776
149564
149502
149701
149803
149860
149811
149631
149620
149787
149829
149783
149708
149524
149647
149816
149851
149843
149792
149613
149534
149730
149872
149709
149854
149300
149631
149779
149842
149773
149782
149597
149602
149545
149801
149853
149806
149570
149540
149742
149861
149730
149823
149331
149604
149785
149854
149826
149768
149548
149575
149550
149803
149851
149802
149576
149532
149765
149849
149814
149533
149586
149572
149805
149851
149848
149748
149551
149333
149808
149727
149853
149784
149598
149583
149754
149824
149721
149846
149329
149578
149776
149887
149907
149729
149497
149254
149867
149712
149875
149741
149620
149500
149722
149798
149829
149828
149662
149595
149788
149847
149795
149703
149507
149614
149816
149882
149889
149779
149560
149510
149714
149812
149896
149823
149615
149551
149784
149921
149814
149705
149491
149616
149821
149884
149880
149783
149567
149499
149704
149802
149881
149831
149630
149618
149783
149855
149725
149905
149311
149634
149770
149889
149814
149737
149514
149642
149838
149869
149872
149806
149603
149511
149718
149815
149895
149835
149624
149589
149787
149889
149753
149886
149333
149628
149796
149896
149821
149743
149519
149676
149858
149874
149879
149820
149624
149519
149724
149820
149899
149841
149633
149600
149792
149890
149759
149895
149335
149632
149795
149904
149829
149746
149516
149666
149863
149896
149874
149826
149635
149522
149736
149819
149905
149845
149632
149561
149812
149896
149864
149507
149663
149558
149890
149871
149839
149738
149514
149650
149861
149902
149860
149815
149645
149376
149864
149765
149913
149804
149635
149517
149759
149841
149912
149854
149634
149584
149816
149888
149845
149603
149600
149592
149863
149894
149851
149759
149539
149646
149863
149921
149901
149821
149586
149629
149585
149858
149891
149878
149586
149531
149753
149849
149926
149856
149621
149563
149796
149934
149786
149856
149350
149648
149815
149925
149852
149774
149522
149626
149863
149934
149948
149816
149525
149670
149503
149878
149852
149979
149496
149516
149735
149854
149944
149844
149563
149472
149744
149897
149969
149868
149608
149596
149823
149919
149819
149744
149486
149605
149843
149911
149852
149760
149514
149615
149858
149926
149922
149812
149527
149665
149484
149870
149842
149981
149462
149484
149718
149844
149927
149854
149574
149494
149760
149879
149944
149863
149604
149577
149805
149913
149777
149885
149324
149604
149787
149920
149833
149745
149473
149599
149854
149906
149837
149756
149506
149614
149859
149913
149896
149811
149545
149598
149564
149856
149881
149908
149529
149486
149733
149846
149915
149851
149577
149488
149751
149856
149925
149860
149605
149569
149803
149897
149779
149824
149345
149585
149793
149913
149825
149732
149449
149578
149850
149909
149845
149752
149489
149601
149858
149918
149896
149793
149564
149221
149913
149751
149944
149695
149639
149413
149736
149813
149894
149837
149556
149453
149733
149822
149900
149843
149577
149544
149777
149873
149726
149909
149187
149630
149689
149938
149810
149720
149416
149541
149830
149897
149823
149720
149438
149550
149832
149892
149822
149732
149460
149576
149841
149899
149880
149792
149499
149605
149447
149841
149823
149947
149405
149405
149682
149814
149884
149815
149500
149413
149706
149814
149894
149823
149524
149429
149717
149826
149898
149833
149553
149515
149764
149866
149721
149877
149180
149568
149684
149909
149784
149690
149361
149491
149804
149876
149799
149689
149385
149512
149812
149871
149794
149697
149409
149539
149822
149881
149854
149756
149508
149137
149872
149705
149919
149630
149583
149331
149682
149772
149868
149796
149475
149348
149670
149785
149859
149792
149476
149374
149679
149786
149866
149801
149510
149413
149743
149844
149801
149341
149544
149297
149941
149768
149775
149637
149315
149443
149783
149854
149770
149649
149329
149441
149776
149852
149772
149653
149330
149448
149777
149854
149781
149664
149349
149472
149785
149857
149820
149707
149442
148984
149883
149648
149912
149503
149578
149235
149633
149720
149830
149748
149395
149272
149619
149745
149835
149759
149416
149295
149628
149750
149832
149758
149422
149315
149641
149756
149840
149768
149451
149395
149691
149806
149657
149746
149080
149442
149628
149845
149715
149602
149237
149375
149732
149816
149727
149599
149247
149375
149733
149815
149729
149603
149262
149397
149742
149820
149741
149621
149285
149417
149749
149824
149788
149669
149382
148928
149820
149611
149867
149497
149477
149177
149578
149687
149795
149708
149325
149176
149566
149698
149792
149712
149332
149196
149567
149701
149790
149709
149338
149229
149584
149709
149799
149720
149373
149325
149641
149765
149598
149713
148951
149372
149560
149809
149664
149545
149138
149287
149681
149773
149675
149539
149141
149299
149689
149773
149679
149541
149160
149303
149687
149772
149686
149553
149182
149332
149695
149776
149732
149601
149287
148764
149794
149541
149843
149367
149435
149062
149500
149621
149741
149642
149227
149075
149500
149640
149742
149649
149230
149090
149499
149643
149740
149647
149232
149108
149503
149646
149743
149653
149252
149125
149515
149654
149749
149663
149290
149206
149589
149718
149606
149342
149118
149156
149665
149690
149621
149448
149053
149190
149630
149717
149616
149460
149053
149199
149622
149716
149619
149471
149068
149209
149622
149717
149627
149485
149086
149243
149637
149725
149687
149551
149177
148845
149540
149522
149716
149474
149204
148963
149427
149566
149690
149592
149145
148973
149424
149581
149683
149587
149136
148998
149429
149584
149686
149589
149150
149016
149442
149591
149687
149592
149176
149080
149510
149649
149538
149223
149020
149024
149590
149618
149546
149356
148919
149072
149555
149654
149544
149372
148923
149094
149555
149657
149549
149385
148938
149102
149556
149657
149560
149404
148962
149142
149571
149666
149629
149479
149058
148751
149397
149452
149643
149415
149084
148816
149341
149488
149617
149494
149010
148830
149326
149495
149610
149499
149009
148857
149331
149502
149618
149510
149031
148872
149346
149512
149623
149524
149067
148986
149436
149590
149409
149292
148699
148988
149426
149592
149456
149287
148757
148968
149468
149589
149470
149297
148785
148990
149480
149588
149464
149289
148786
148973
149467
149577
149535
149359
148899
148408
149420
149315
149579
149263
148942
148652
149221
149391
149540
149404
148874
148653
149224
149407
149540
149416
148880
148694
149234
149422
149547
149436
148930
148800
149340
149511
149372
148907
148765
148713
149458
149446
149384
149149
148609
148789
149389
149495
149345
149128
148577
148782
149354
149482
149361
149162
148599
148818
149369
149494
149444
149240
148726
148146
149352
149194
149506
149122
148803
148452
149089
149279
149452
149301
148728
148478
149105
149310
149456
149315
148721
148509
149119
149321
149460
149339
148769
148661
149227
149423
149176
149145
148237
148603
149165
149398
149206
149010
148319
148604
149247
149391
149248
149020
148379
148616
149258
149402
149263
149040
148407
148661
149274
149407
149362
149152
148548
148140
149011
149117
149364
149121
148572
148264
148974
149185
149359
149198
148553
148295
148986
149205
149362
149231
148598
148512
149120
149325
148999
149028
147865
148407
149020
149278
149080
148855
148120
148417
149119
149285
149128
148873
148163
148437
149140
149298
149147
148902
148203
148487
149159
149312
149268
149046
148355
148073
148693
149025
149216
149099
148314
148092
148797
149085
149256
149120
148358
148127
148839
149106
149253
149134
148473
148207
148923
149167
148907
148609
147873
148195
148963
149141
148985
148710
147932
148225
149007
149181
149022
148753
147972
148281
149035
149202
149154
148901
148129
147789
148554
148879
149108
148926
148125
147844
148659
148957
149151
148984
148198
148043
148855
149119
148813
148479
147661
147968
148823
149018
148780
148454
147578
147904
148792
149003
148832
148521
147645
147997
148850
149041
148994
148697
147841
147394
148384
148680
148975
148721
147871
147496
148462
148780
149006
148810
147932
147722
148662
148959
148618
148255
147296
147774
148654
148910
148751
148421
147424
147776
148706
148906
148778
148441
147447
147038
148010
148453
148761
148522
147505
147151
148197
148571
148828
148609
147618
147417
148434
148785
148394
148084
146874
147451
148426
148746
148517
148159
147021
147537
148552
148788
148736
148392
147289
146807
147911
148348
148674
148316
147502
146738
147944
148320
148597
148321
147228
146972
148146
148506
148192
147602
146652
147046
148292
148516
148312
147853
146683
147185
148360
148599
148553
148149
146994
146383
147683
148104
148484
148141
147075
146574
147873
148272
148529
148326
147274
146982
148150
148494
147912
147382
146113
146725
147955
148276
148201
147789
146459
146071
147208
147873
148227
148001
146543
146145
147470
148005
148333
148082
146744
146535
147856
148301
147821
147276
145900
146622
147906
148204
148261
147869
146424
145739
147003
147720
147957
147528
146028
145666
147281
147822
147396
146653
145193
145924
147490
147871
147610
147027
145413
146199
147684
148018
147998
147496
145957
145282
146834
147460
147878
147548
146150
145958
147547
147966
147321
146559
145097
145416
147089
147568
147419
146807
145037
144469
146268
146975
147522
147105
145426
145139
146927
147516
147013
146271
144459
145454
147132
147519
147586
147014
145191
144511
146312
147013
147246
146788
145034
144282
146352
147027
146765
145975
143814
143008
145470
146250
146972
146441
144402
144025
146331
146992
146463
145449
143353
144628
146589
146978
147260
146735
144661
142961
145531
146465
145570
144490
141843
143339
145715
146350
146354
145576
142950
142590
145199
146259
145526
144803
141396
143691
145813
146383
146555
145914
143184
141297
144431
145597
144631
143523
140103
142308
144979
145732
145776
144970
141864
141577
144716
145876
145862
145143
141172
138931
142008
144247
144983
143780
140381
139979
143619
144951
144925
143530
139425
139355
143814
145169
144769
142965
137694
136363
141923
143947
143004
140208
135666
139334
143271
144418
144417
142961
138588
137351
142340
144085
143704
141918
136574
136172
141714
143494
143351
141260
135320
134904
141017
143252
143236
140866
134630
134351
140681
143211
143148
140460
134070
133816
140228
143060
142963
139997
133594
133406
139771
142857
142745
139552
133244
133107
139343
142628
142509
139145
132992
132897
138956
142388
142267
138779
132819
132758
138611
142143
142019
138455
132710
132675
138309
141894
141771
138175
132651
132636
138051
141649
141529
137937
132630
132631
137832
141411
141295
137737
132639
132653
137649
141180
141068
137569
132672
132696
137496
140958
140851
137430
132723
132754
137370
140745
140644
137317
132787
132823
137268
140544
140449
137225
132861
132901
137187
140356
140268
137152
132942
132984
137121
140182
140101
137094
133026
133069
137070
140022
139948
137049
133113
133156
137031
139877
139810
137015
133199
133242
137001
139746
139687
136989
133285
133327
136979
139630
139577
136971
133368
133408
136964
139527
139481
136959
133448
133487
136954
139436
139396
136950
133525
133562
136947
139357
139322
136945
133598
133632
136944
139288
139258
136943
133666
133698
136943
139228
139202
136944
133730
133760
136945
139176
139154
136947
133789
133816
136949
139132
139113
136952
133843
133868
136954
139094
139077
136958
133892
133915
136961
139061
139048
136966
133938
133959
136969
139034
139022
136974
133979
133999
136979
139011
139001
136984
134017
134035
136988
138991
138983
136993
134052
134068
136998
138975
138968
137004
134084
134098
137008
138961
138955
137013
134113
134126
137018
138949
138944
137023
134140
134152
137027
138939
138935
137032
134164
134175
137036
138930
138927
137041
134186
134196
137045
138922
138919
137050
134207
134216
137054
138916
138913
137058
134225
134233
137061
138910
138908
137066
134242
134250
137069
138905
138903
137073
134257
134264
137076
138900
138899
137080
134271
134278
137083
138897
138896
137087
134285
134290
137090
138894
138894
137094
134297
134302
137097
138892
138892
137100
134308
134313
137103
138890
138890
137107
134318
134323
137110
138889
138890
137114
134328
134333
137116
138888
138889
137120
134338
134342
137123
138888
138889
137126
134347
134351
137129
138888
138890
137133
134356
134360
137136
138889
138891
137140
134364
134368
137142
138890
138892
137146
134373
134377
137149
138891
138894
137153
134381
134385
137156
138893
138896
137160
134389
134393
137163
138895
138898
137167
134397
134401
137170
138898
138901
137174
134406
134409
137177
138901
138904
137181
134414
134417
137184
138904
138907
137188
134422
134425
137191
138908
138911
137195
134430
134433
137199
138912
138915
137203
134437
134441
137206
138916
138920
137210
134445
134449
137214
138920
138924
137218
134453
134457
137221
138925
138929
137226
134461
134465
137229
138930
138935
137233
134469
134472
137237
138936
138940
137241
134476
134480
137245
138942
138946
137249
134484
134487
137253
138947
138952
137257
134491
134495
137261
138954
138958
137266
134499
134503
137270
138960
138965
137274
134506
134510
137278
138967
138971
137282
134514
134517
137286
138973
138978
137291
134521
134525
137295
138980
138985
137299
134528
134532
137303
138987
138993
137307
134536
134539
137311
138995
139000
137316
134543
134546
137320
139002
139007
137324
134550
134553
137328
139009
139015
137333
134556
134560
137337
139017
139022
137341
134563
134566
137345
139025
139030
137349
134570
134573
137353
139032
139038
137358
134576
134579
137362
139040
139045
137366
134583
134586
137370
139048
139053
137374
134589
134592
137378
139056
139061
137382
134595
134598
137386
139063
139069
137390
134601
134604
137394
139071
139077
137399
134607
134610
137402
139079
139084
137407
134613
134615
137410
139087
139092
137415
134618
134621
137418
139095
139100
137422
134624
134626
137426
139103
139108
137430
134629
134631
137434
139110
139116
137438
134634
134636
137442
139118
139124
137446
134639
134641
137449
139126
139132
137453
134644
134646
137457
139134
139139
137461
134648
134650
137464
139142
139147
137468
134652
134654
137471
139149
139154
137475
134656
134658
137478
139156
139162
137482
134660
134662
137485
139164
139169
137489
134664
134665
137491
139171
139177
137495
134667
134668
137498
139179
139185
137503
134673
134675
137506
139188
139191
137511
134678
134680
137509
139189
139176
137498
134677
134670
137482
139159
139203
137503
134685
134760
137599
139355
139448
137673
134818
142055
144691
146368
146740
146890
147546
147883
148029
148174
148587
148855
149138
149349
149505
149620
149703
149763
149805
149836
149859
149877
149890
149901
149909
149916
149922
149926
149929
149931
149933
149934
149936
149936
149932
149934
149941
149946
149954
149962
149972
149983
149994
150005
150015
150021
150023
150022
150020
150017
150015
150013
150012
150010
150009
150007
150005
150003
150000
149998
149996
149994
149992
149990
149989
149988
149987
149986
149986
149986
149986
149987
149989
149991
149993
149997
150000
150005
150010
150015
150021
150027
150033
150040
150046
150052
150058
150063
150068
150072
150075
150078
150080
150081
150081
150081
150080
150079
150077
150074
150071
150068
150064
150061
150057
150053
150048
150044
150040
150036
150032
150028
150024
150020
150016
150013
150009
150006
150002
149999
149997
149994
149991
149989
149986
149984
149982
149980
149978
149977
149975
149974
149972
149971
149970
149969
149968
149967
149966
149966
149965
149964
149964
149963
149963
149963
149962
149962
149962
149962
149962
149962
149962
149962
149962
149962
149962
149962
149963
149963
149963
149963
149964
149964
149965
149965
149966
149966
149966
149967
149968
149968
149969
149969
149970
149971
149971
149972
149973
149973
149974
149975
149975
149976
149977
149978
149979
149980
149980
149981
149982
149983
149984
149985
149986
149987
149988
149989
149990
149991
149993
149994
149996
150000
150007
150012
150015
150015
150017
150004
150012
150012
150020
150026
150029
150029
150027
150026
150024
150022
150021
150020
150019
150018
150017
150016
150016
150015
150015
150014
150014
150013
150013
150012
150012
150012
150011
150011
150011
150011
150010
150010
150010
150010
150009
150009
150009
150009
150008
150008
150008
150008
150008
150007
150007
150007
150007
150006
150006
150006
150006
150006
150005
150005
150005
150005
150005
150004
150004
150004
150004
150003
150003
150003
150003
150002
150002
150002
150001
150001
150000
150000
149999
149999
149998
149997
149995
149994
149994
149995
149997
149999
150000
150004
150010
150019
150024
150024
150021
150019
150016
150013
150010
150008
150005
150003
150000
149998
149995
149993
149990
149988
149985
149983
149980
149979
149976
149975
149971
149970
149967
149966
149963
149963
149959
149959
149956
149955
149952
149952
149949
149949
149945
149945
149942
149942
149939
149939
149936
149936
149933
149934
149930
149931
149928
149928
149925
149926
149922
149923
149920
149921
149918
149918
149915
149916
149913
149913
149911
149911
149908
149909
149906
149907
149904
149905
149902
149903
149900
149901
149899
149899
149897
149898
149895
149896
149894
149895
149893
149894
149892
149893
149891
149893
149891
149893
149891
149893
149891
149894
149892
149895
149893
149896
149895
149898
149897
149900
149899
149902
149901
149905
149903
149907
149906
149910
149909
149912
149911
149915
149914
149917
149916
149920
149918
149922
149920
149923
149922
149925
149923
149926
149924
149927
149925
149927
149925
149928
149926
149928
149926
149927
149925
149927
149925
149926
149924
149926
149924
149925
149923
149924
149922
149923
149921
149922
149920
149921
149919
149920
149918
149919
149917
149918
149915
149917
149915
149915
149913
149914
149912
149913
149911
149912
149910
149912
149910
149914
149922
149932
149956
149955
149953
149965
149949
149952
149965
149948
149953
149966
149950
149953
149967
149951
149954
149968
149951
149955
149969
149952
149956
149970
149953
149957
149970
149954
149958
149971
149955
149959
149972
149956
149959
149973
149956
149960
149974
149957
149961
149975
149958
149962
149975
149959
149962
149976
149959
149963
149977
149960
149963
149977
149960
149964
149977
149960
149964
149978
149961
149964
149978
149961
149965
149978
149960
149964
149978
149960
149964
149978
149959
149963
149977
149959
149963
149977
149957
149961
149976
149956
149960
149975
149954
149958
149973
149952
149956
149972
149951
149955
149970
149949
149953
149968
149947
149951
149967
149945
149949
149966
149943
149947
149965
149941
149945
149964
149940
149944
149964
149939
149943
149962
149938
149942
149962
149938
149942
149963
149938
149943
149963
149938
149943
149964
149939
149944
149965
149939
149945
149966
149940
149946
149967
149941
149947
149969
149942
149948
149970
149944
149950
149971
149945
149951
149972
149946
149952
149974
149948
149954
149975
149949
149955
149976
149951
149957
149977
149952
149958
149979
149954
149960
149980
149955
149961
149981
149957
149963
149982
149958
149964
149983
149960
149965
149984
149961
149967
149986
149963
149968
149987
149965
149970
149988
149966
149971
149989
149968
149973
149990
149970
149975
149992
149971
149976
149993
149973
149978
149994
149975
149980
149995
149977
149981
149996
149979
149983
149998
149981
149985
149999
149983
149987
150000
149985
149989
150002
149987
149991
150003
149989
149993
150004
149991
149995
150006
149994
149997
150007
149996
150000
150008
149999
150002
150010
150002
150004
150011
150004
150007
150013
150007
150010
150014
150010
150013
150016
150013
150015
150017
150017
150018
150019
150020
150022
150020
150023
150013
150015
150015
150015
150015
150014
150014
150013
150013
150013
150012
150012
150011
150011
150011
150011
150010
150010
150010
150009
150009
150009
150008
150008
150008
150007
150007
150006
150006
150005
150005
150004
150004
150003
150002
150002
150001
150000
149999
149997
149996
149995
149994
149993
149992
149991
149991
149990
149992
149994
149996
149997
150000
150002
150005
150007
150009
150011
150012
150012
150012
150011
150011
150010
150009
150007
150006
150005
150004
150003
150001
150000
149999
149998
149997
149996
149995
149994
149993
149992
149991
149990
149989
149988
149988
149986
149969
149966
149966
149970
149985
149989
149989
149995
149995
149997
149997
149997
149998
149999
150000
150001
150002
150003
150004
150005
150006
150007
150008
150009
150010
150011
150015
150014
150013
150011
150010
150009
150008
150007
150006
150005
150004
150003
150002
150001
150001
150000
149999
149999
150000
149999
149999
149997
149998
150000
150000
150001
149994
149993
149993
149993
149993
149990
149990
149975
149977
149972
149972
149972
149973
149974
149976
149996