/*--------------------------------*- C++ -*----------------------------------*\
| =========                 |                                                 |
| \\      /  F ield         | OpenFOAM: The Open Source CFD Toolbox           |
|  \\    /   O peration     | Version:  v2006                                 |
|   \\  /    A nd           | Website:  www.openfoam.com                      |
|    \\/     M anipulation  |                                                 |
\*---------------------------------------------------------------------------*/
FoamFile
{
    version     2.0;
    format      ascii;
    class       volScalarField;
    location    "0.159";
    object      turbulenceProperties:L;
}
// * * * * * * * * * * * * * * * * * * * * * * * * * * * * * * * * * * * * * //

dimensions      [0 1 0 0 0 0 0];


internalField   nonuniform List<scalar> 
16277
(
1998.78
1998.76
1999.14
1999.27
1999.61
1999.52
1999.5
1999.29
1998.81
1998.12
1997.37
1996.68
1996.08
1995.58
1995.13
1994.72
1994.32
1993.93
1993.54
1993.17
1992.81
1992.45
1992.11
1991.77
1991.44
1991.12
1990.8
1990.49
1990.19
1989.89
1989.59
1989.31
1989.03
1988.75
1988.49
1988.23
1987.98
1987.74
1987.51
1987.29
1987.08
1986.88
1986.69
1986.52
1986.36
1986.21
1986.07
1985.95
1985.85
1985.76
1985.69
1985.63
1985.59
1985.57
1985.57
1985.58
1985.62
1985.67
1985.75
1985.84
1985.95
1986.06
1986.18
1986.25
1986.18
1985.75
1984.4
1980.76
1971.2
1947.5
1896.7
1794.44
1607.77
1316.38
954.732
611.917
356.469
195.4
103.497
54.2399
28.4344
15.2825
9.13872
7.01561
5.13194
4.27742
3.52479
1.93515
1.11809
0.886064
0.988411
0.37417
0.121355
0.0320749
0.0037253
0.000676234
4.70418e-05
4.51109e-05
0.000325013
0.00146002
0.000819234
0.000221171
4.31575e-05
4.18663e-05
0.000207442
0.00069886
0.00057342
0.000187014
4.15217e-05
4.10403e-05
0.000185002
0.000550566
0.000489889
0.000173553
4.07296e-05
4.03716e-05
0.000173034
0.000482194
0.000449742
0.000166466
4.01594e-05
4.00757e-05
0.000168994
0.000448781
0.000428601
0.000163765
3.99808e-05
3.99174e-05
0.00016628
0.000428799
0.000413559
0.000161754
3.98364e-05
3.97865e-05
0.000164
0.000414578
0.000401805
0.000159924
3.97153e-05
3.96745e-05
0.000161964
0.000403228
0.000391934
0.000158198
3.96113e-05
3.95762e-05
0.000160129
0.000393601
0.000383336
0.000156562
3.95184e-05
3.94872e-05
0.000158432
0.00038515
0.000375644
0.00015499
3.94332e-05
3.94049e-05
0.000156802
0.000377548
0.00036864
0.000153467
3.93535e-05
3.93271e-05
0.000155237
0.000370605
0.000362204
0.000152004
3.92774e-05
3.92524e-05
0.000153744
0.000364216
0.000356242
0.000150607
3.92039e-05
3.91797e-05
0.000152326
0.000358304
0.000350689
0.000149278
3.91319e-05
3.91083e-05
0.000150978
0.000352808
0.000345518
0.000148014
3.90609e-05
3.90376e-05
0.000149698
0.000347689
0.000340693
0.000146811
3.89903e-05
3.89671e-05
0.000148481
0.000342911
0.000336183
0.000145666
3.89197e-05
3.88965e-05
0.000147327
0.000338443
0.000331962
0.000144581
3.88488e-05
3.88254e-05
0.000146233
0.000334257
0.000327999
0.000143554
3.87773e-05
3.87537e-05
0.000145197
0.000330319
0.00032426
0.000142578
3.8705e-05
3.8681e-05
0.000144214
0.000326599
0.00032072
0.000141651
3.86316e-05
3.86071e-05
0.000143278
0.000323071
0.000317355
0.000140767
3.85568e-05
3.85317e-05
0.000142386
0.000319715
0.000314147
0.000139922
3.84803e-05
3.84545e-05
0.000141533
0.00031651
0.000311075
0.000139111
3.84018e-05
3.83752e-05
0.000140714
0.000313439
0.000308126
0.000138332
3.8321e-05
3.82934e-05
0.000139925
0.000310486
0.000305286
0.000137579
3.82375e-05
3.82088e-05
0.000139163
0.000307641
0.000302544
0.00013685
3.8151e-05
3.8121e-05
0.000138426
0.00030489
0.000299889
0.000136143
3.8061e-05
3.80296e-05
0.000137711
0.000302226
0.000297314
0.000135456
3.79672e-05
3.79342e-05
0.000137016
0.000299644
0.000294816
0.000134787
3.78691e-05
3.78344e-05
0.000136341
0.000297137
0.000292391
0.000134138
3.77664e-05
3.77298e-05
0.000135686
0.000294706
0.00029004
0.000133507
3.76585e-05
3.76199e-05
0.000135056
0.000292351
0.000287763
0.000132899
3.75452e-05
3.75045e-05
0.000134462
0.000290076
0.000285567
0.000132318
3.7426e-05
3.73832e-05
0.000133892
0.000287886
0.000283456
0.00013176
3.73008e-05
3.72558e-05
0.000133352
0.000285784
0.000281436
0.000131233
3.71693e-05
3.71221e-05
0.000132848
0.000283781
0.000279519
0.000130744
3.70314e-05
3.69821e-05
0.000132389
0.000281893
0.000277725
0.000130302
3.68873e-05
3.68361e-05
0.000131986
0.000280139
0.000276076
0.000129917
3.67373e-05
3.66847e-05
0.000131652
0.000278585
0.000274616
0.000129607
3.65821e-05
3.65287e-05
0.000131406
0.000277266
0.000273379
0.000129389
3.64232e-05
3.63699e-05
0.000131266
0.000276186
0.000272397
0.000129285
3.62623e-05
3.62104e-05
0.000131256
0.000275406
0.000271732
0.000129318
3.61021e-05
3.60532e-05
0.000131405
0.000274995
0.000271459
0.000129519
3.59461e-05
3.59025e-05
0.000131743
0.000275032
0.000271659
0.000129925
3.57986e-05
3.57634e-05
0.00013228
0.000275597
0.000272418
0.000130558
3.56662e-05
3.56413e-05
0.000132967
0.000276744
0.000273772
0.000131339
3.55568e-05
3.55426e-05
0.000133827
0.000278613
0.000275848
0.000132313
3.54742e-05
3.54723e-05
0.000134872
0.0002812
0.000278626
0.000133478
3.54268e-05
3.54349e-05
0.000136073
0.000284444
0.000282051
0.000134803
3.54212e-05
3.54331e-05
0.000137375
0.000288221
0.000285976
0.000136177
3.54273e-05
3.54678e-05
0.000138698
0.000292478
0.000290363
0.000137506
3.54742e-05
3.55355e-05
0.000139925
0.000297092
0.00029504
0.000138744
3.5554e-05
3.56318e-05
0.000140946
0.000301676
0.000299588
0.000139769
3.56588e-05
3.57466e-05
0.000141751
0.000305922
0.000303736
0.000140493
3.57794e-05
3.58728e-05
0.000142399
0.000309674
0.000307374
0.000140976
3.59093e-05
3.60057e-05
0.000142804
0.000312842
0.000310432
0.000141282
3.60441e-05
3.61409e-05
0.000143006
0.000315383
0.000312854
0.000141325
3.61792e-05
3.62736e-05
0.000142983
0.000317297
0.000314589
0.000141162
3.63107e-05
3.64007e-05
0.000142758
0.000318568
0.000315613
0.00014082
3.64355e-05
3.65195e-05
0.000142351
0.000319404
0.000316049
0.000140336
3.65513e-05
3.66282e-05
0.000141812
0.000319581
0.000315834
0.000139667
3.66563e-05
3.67254e-05
0.000141166
0.000319113
0.000314766
0.000138811
3.67499e-05
3.68107e-05
0.00014031
0.000317943
0.000313258
0.000137884
3.68311e-05
3.68833e-05
0.000139385
0.000316343
0.000311441
0.000136934
3.68996e-05
3.69435e-05
0.000138438
0.00031442
0.000309376
0.000136
3.69559e-05
3.6992e-05
0.000137499
0.000312241
0.000307127
0.000135104
3.70008e-05
3.70296e-05
0.000136592
0.00030988
0.000304763
0.000134263
3.7035e-05
3.70575e-05
0.000135735
0.000307411
0.000302352
0.000133488
3.70601e-05
3.70774e-05
0.00013494
0.000304898
0.000299962
0.000132788
3.70779e-05
3.70906e-05
0.000134218
0.000302417
0.000297603
0.000132152
3.70896e-05
3.70983e-05
0.000133554
0.000300008
0.000295311
0.000131567
3.70958e-05
3.71011e-05
0.000132938
0.000297671
0.000293107
0.00013103
3.70975e-05
3.71011e-05
0.000132371
0.000295445
0.000291009
0.000130523
3.70963e-05
3.70987e-05
0.000131857
0.000293344
0.000289017
0.000130043
3.70917e-05
3.70934e-05
0.000131382
0.00029134
0.000287084
0.000129591
3.70844e-05
3.70855e-05
0.000130922
0.00028939
0.000285221
0.000129155
3.70749e-05
3.70761e-05
0.000130492
0.000287527
0.000283476
0.000128759
3.70653e-05
3.70664e-05
0.000130106
0.000285781
0.000281781
0.000128398
3.70554e-05
3.70562e-05
0.00012974
0.000284098
0.000280136
0.000128037
3.70444e-05
3.70447e-05
0.000129359
0.000282453
0.000278531
0.000127657
3.70314e-05
3.70317e-05
0.00012897
0.00028084
0.000276943
0.000127279
3.7018e-05
3.7018e-05
0.000128597
0.000279262
0.000275412
0.00012692
3.69962e-05
3.70122e-05
0.000128258
0.000277777
0.000273778
0.000126573
3.69755e-05
3.69994e-05
0.000127802
0.000276435
0.000272574
0.000125899
3.69314e-05
3.71165e-05
0.000128092
0.000276611
0.000274147
0.000128
3.72229e-05
3.7742e-05
0.000128389
0.000277354
0.000290709
0.000134785
3.8447e-05
4.11145e-05
0.000127559
0.000283194
0.000420864
0.00023561
4.70795e-05
4.18586e-05
9.89351e-05
0.000220315
0.000497209
0.00104741
0.0018163
0.0024492
0.00284773
0.00358544
0.004029
0.0044152
0.00461615
0.0046969
0.00464204
0.0044359
0.00416154
0.00372747
0.00331048
0.00266387
0.00237926
0.00181489
0.00142327
0.00102168
0.000619214
0.000300027
0.000116189
5.0235e-05
1.28691e-05
1.18228e-05
4.63107e-05
0.000105639
9.97837e-05
4.38422e-05
1.1014e-05
1.04048e-05
4.20072e-05
9.46836e-05
9.47293e-05
4.16898e-05
1.02056e-05
1.00874e-05
4.14073e-05
9.31983e-05
9.30655e-05
4.09944e-05
9.96396e-06
9.95359e-06
4.09246e-05
9.28533e-05
9.30188e-05
4.09458e-05
9.9629e-06
9.9616e-06
4.09519e-05
9.31111e-05
9.3184e-05
4.09753e-05
9.97308e-06
9.97883e-06
4.10058e-05
9.33502e-05
9.34246e-05
4.10284e-05
9.98487e-06
9.99713e-06
4.10677e-05
9.35994e-05
9.3703e-05
4.10894e-05
9.99212e-06
1.00049e-05
4.11394e-05
9.38737e-05
9.39746e-05
4.11604e-05
1.00111e-05
1.00243e-05
4.12053e-05
9.41515e-05
9.42434e-05
4.12255e-05
1.0025e-05
1.00268e-05
4.12848e-05
9.44372e-05
9.45253e-05
4.13016e-05
1.00449e-05
1.00467e-05
4.13543e-05
9.47157e-05
9.48027e-05
4.13707e-05
1.00538e-05
1.00553e-05
4.14311e-05
9.49978e-05
9.50874e-05
4.1447e-05
1.00738e-05
1.00756e-05
4.15027e-05
9.52944e-05
9.53895e-05
4.15239e-05
1.00834e-05
1.00851e-05
4.15868e-05
9.55996e-05
9.56957e-05
4.16077e-05
1.01042e-05
1.01063e-05
4.16651e-05
9.59059e-05
9.60029e-05
4.16865e-05
1.01142e-05
1.01163e-05
4.17536e-05
9.62197e-05
9.63174e-05
4.1775e-05
1.01357e-05
1.0138e-05
4.18338e-05
9.65337e-05
9.66345e-05
4.18575e-05
1.01463e-05
1.01488e-05
4.19276e-05
9.68661e-05
9.69727e-05
4.19546e-05
1.0163e-05
1.01774e-05
4.20133e-05
9.72051e-05
9.731e-05
4.2047e-05
1.018e-05
1.0183e-05
4.21152e-05
9.75342e-05
9.76384e-05
4.21423e-05
1.01969e-05
1.02114e-05
4.2201e-05
9.78624e-05
9.79657e-05
4.2232e-05
1.02137e-05
1.0217e-05
4.23016e-05
9.81913e-05
9.82937e-05
4.23286e-05
1.02309e-05
1.02458e-05
4.239e-05
9.85147e-05
9.86156e-05
4.24188e-05
1.02482e-05
1.02516e-05
4.24909e-05
9.88333e-05
9.893e-05
4.25158e-05
1.02655e-05
1.02805e-05
4.25781e-05
9.91371e-05
9.92302e-05
4.26003e-05
1.02827e-05
1.02859e-05
4.2669e-05
9.94375e-05
9.95305e-05
4.26897e-05
1.02997e-05
1.03148e-05
4.27546e-05
9.9741e-05
9.98325e-05
4.27744e-05
1.03172e-05
1.03207e-05
4.28461e-05
0.000100042
0.000100124
4.28624e-05
1.03345e-05
1.03491e-05
4.29201e-05
0.000100314
0.000100381
4.29276e-05
1.03508e-05
1.03535e-05
4.29906e-05
0.000100563
0.000100619
4.29946e-05
1.03668e-05
1.03809e-05
4.30395e-05
0.000100774
0.000100804
4.30317e-05
1.03818e-05
1.03836e-05
4.30697e-05
0.000100939
0.000100971
4.30539e-05
1.04015e-05
1.04027e-05
4.3073e-05
0.000101097
0.000101124
4.30535e-05
1.04091e-05
1.04095e-05
4.30624e-05
0.000101226
0.000101243
4.30266e-05
1.04269e-05
1.04266e-05
4.30119e-05
0.00010132
0.000101307
4.2955e-05
1.04319e-05
1.04305e-05
4.29172e-05
0.000101334
0.000101308
4.2833e-05
1.04407e-05
1.04506e-05
4.27625e-05
0.00010131
0.000101232
4.26538e-05
1.04489e-05
1.04463e-05
4.25449e-05
0.000101204
0.000101068
4.23851e-05
1.04554e-05
1.04644e-05
4.22306e-05
0.000101024
0.000100863
4.20292e-05
1.04627e-05
1.04633e-05
4.18709e-05
0.000100896
0.000100787
4.16606e-05
1.04828e-05
1.04872e-05
4.14685e-05
0.000100821
0.000100615
4.11945e-05
1.04981e-05
1.05054e-05
4.097e-05
0.000100649
0.000100462
4.0673e-05
1.05275e-05
1.05556e-05
4.04319e-05
0.00010059
0.00010042
4.01103e-05
1.05758e-05
1.06098e-05
3.98457e-05
0.000100624
0.000100571
3.95294e-05
1.06486e-05
1.06976e-05
3.92649e-05
0.000100919
0.000101154
3.89771e-05
1.07547e-05
1.08267e-05
3.88012e-05
0.000101887
0.000102634
3.86284e-05
1.09093e-05
1.10011e-05
3.86239e-05
0.000103783
0.000105455
3.92656e-05
1.11805e-05
1.13553e-05
3.98115e-05
0.000106845
0.000107704
3.99593e-05
1.13337e-05
1.14734e-05
3.94759e-05
0.000108961
0.000110778
4.16953e-05
1.1733e-05
1.18817e-05
4.09199e-05
0.0001117
0.000113001
4.20855e-05
1.21585e-05
1.24077e-05
4.27224e-05
0.000114752
0.00011513
4.36545e-05
1.27664e-05
1.32359e-05
4.56081e-05
0.000117308
0.000117244
4.65852e-05
1.36299e-05
1.39373e-05
4.7605e-05
0.000117753
0.000116942
4.82254e-05
1.45901e-05
1.57366e-05
5.35188e-05
0.000118722
0.00011714
5.57239e-05
1.08405e-05
6.21327e-06
1.63136e-05
4.16764e-05
9.99006e-05
3.58404e-05
8.3575e-06
9.22386e-06
3.20757e-05
9.24614e-05
9.66701e-05
3.36506e-05
9.44421e-06
9.62957e-06
3.21868e-05
9.29355e-05
9.85459e-05
3.45938e-05
1.00321e-05
1.05031e-05
3.42245e-05
9.72976e-05
0.000104688
3.8434e-05
1.10913e-05
1.17151e-05
3.80246e-05
0.000102531
0.00010825
4.27364e-05
1.24586e-05
1.33576e-05
4.30403e-05
0.000107509
0.000114159
4.89161e-05
1.48681e-05
1.05454e-05
5.35659e-05
0.000114709
4.08844e-05
1.56903e-05
6.49807e-06
9.01035e-06
3.75732e-05
0.000104162
0.000101117
3.50613e-05
1.06435e-05
1.18246e-05
4.4176e-05
0.000118518
0.000119173
4.41167e-05
1.26731e-05
1.37147e-05
4.95858e-05
0.000127969
0.000129497
5.20144e-05
1.48627e-05
1.64573e-05
5.90999e-05
0.00013593
0.000131238
6.10084e-05
1.16294e-05
7.00361e-06
1.73394e-05
4.69723e-05
0.000114561
4.23953e-05
9.64637e-06
1.10849e-05
3.94468e-05
0.000111062
0.000121499
4.6292e-05
1.20023e-05
1.30478e-05
4.54575e-05
0.000118563
0.000126742
5.33054e-05
1.48413e-05
1.07869e-05
5.98488e-05
0.000125633
4.59765e-05
1.73941e-05
6.69959e-06
9.61559e-06
4.15154e-05
0.000117468
0.000118117
4.24287e-05
1.17541e-05
1.3888e-05
5.44032e-05
0.000140798
0.000143488
6.06969e-05
1.59188e-05
1.15412e-05
6.67561e-05
0.000141309
5.21136e-05
1.87816e-05
6.89321e-06
9.90598e-06
4.90745e-05
0.000128581
0.000125577
4.64288e-05
1.21668e-05
1.45786e-05
6.06509e-05
0.000146124
0.000145366
6.79002e-05
1.08653e-05
6.74217e-06
1.9603e-05
5.66015e-05
0.000145679
5.46874e-05
1.0417e-05
1.36822e-05
5.55405e-05
0.000152123
0.000193129
8.10804e-05
1.68789e-05
1.2793e-05
8.32765e-05
0.000182953
7.68047e-05
2.59052e-05
8.22916e-06
1.35079e-05
7.84702e-05
0.000190857
0.000186549
7.98531e-05
1.12137e-05
7.72156e-06
2.60022e-05
8.28767e-05
0.000236857
9.06193e-05
1.40458e-05
1.24399e-05
9.88706e-05
0.000249138
0.00011998
4.20315e-05
9.66765e-06
1.10668e-05
0.000100662
0.00027286
0.000186729
7.29871e-05
1.01017e-05
1.36144e-05
0.000107823
0.000319912
0.000266172
9.0316e-05
1.12645e-05
1.11417e-05
8.69509e-05
0.000256868
0.000280047
9.68428e-05
1.30471e-05
1.7071e-05
0.000171697
0.000472467
0.000104835
3.92159e-05
1.41118e-05
1.31159e-05
9.56272e-05
0.000203417
7.48819e-05
3.15523e-05
1.21624e-05
1.35169e-05
6.92174e-05
0.000148319
0.000132972
5.60774e-05
1.47402e-05
8.17099e-06
1.93629e-05
4.88507e-05
9.94558e-05
6.56303e-05
9.92616e-06
1.05038e-05
2.49773e-05
5.47181e-05
0.000115343
5.81333e-05
1.28356e-05
1.47566e-05
5.09356e-05
0.000108997
4.58308e-05
1.97036e-05
8.93405e-06
1.17294e-05
5.30675e-05
0.000100592
9.69786e-05
4.74978e-05
1.40142e-05
8.55977e-06
1.84576e-05
4.20886e-05
9.36051e-05
4.96687e-05
1.12634e-05
1.35931e-05
4.52025e-05
9.00382e-05
3.98398e-05
1.79753e-05
8.49442e-06
1.10922e-05
4.7288e-05
8.86762e-05
8.4644e-05
4.33674e-05
1.34517e-05
8.42478e-06
1.72982e-05
3.80418e-05
8.41842e-05
4.51927e-05
1.09729e-05
1.34678e-05
4.14511e-05
8.073e-05
3.65311e-05
1.70226e-05
8.52927e-06
1.11271e-05
4.42441e-05
8.06658e-05
7.67334e-05
4.03951e-05
1.35574e-05
8.51216e-06
1.66229e-05
3.54053e-05
7.76695e-05
4.28384e-05
1.10615e-05
1.37189e-05
3.96052e-05
7.47072e-05
3.57056e-05
1.70972e-05
8.85647e-06
1.16412e-05
4.46051e-05
7.81162e-05
7.17016e-05
3.7785e-05
1.50606e-05
1.11014e-05
3.13565e-05
6.21917e-05
2.84504e-05
1.34878e-05
7.10078e-06
9.13985e-06
3.38061e-05
6.08756e-05
5.98193e-05
3.19008e-05
1.15785e-05
7.28676e-06
1.32437e-05
2.85546e-05
5.92051e-05
3.33845e-05
9.27843e-06
1.17832e-05
3.14918e-05
5.74844e-05
2.80048e-05
1.3939e-05
7.44275e-06
9.30758e-06
3.30309e-05
5.65191e-05
5.51477e-05
3.10981e-05
1.16919e-05
7.36073e-06
1.30502e-05
2.70925e-05
5.47273e-05
3.18851e-05
9.29471e-06
1.17662e-05
3.03704e-05
5.33823e-05
2.68941e-05
1.30327e-05
7.33425e-06
9.18663e-06
3.09042e-05
5.32e-05
5.21987e-05
3.02519e-05
1.17917e-05
7.47306e-06
1.31079e-05
2.58889e-05
5.11874e-05
3.08147e-05
9.25104e-06
1.17327e-05
2.87876e-05
4.94006e-05
2.48796e-05
1.27751e-05
7.2811e-06
8.86271e-06
2.92168e-05
4.76996e-05
4.67222e-05
2.7472e-05
1.12024e-05
6.88426e-06
1.17354e-05
2.29574e-05
4.22455e-05
3.39531e-05
7.96492e-06
9.41011e-06
1.51597e-05
2.66739e-05
5.43654e-05
3.26102e-05
1.11891e-05
1.3584e-05
3.06238e-05
5.21892e-05
2.72899e-05
1.44368e-05
8.41691e-06
1.02684e-05
3.24133e-05
5.19751e-05
5.03905e-05
3.01662e-05
1.30486e-05
8.31329e-06
1.4274e-05
2.66584e-05
5.14082e-05
3.20564e-05
1.02022e-05
1.28499e-05
3.00758e-05
4.99579e-05
2.6001e-05
1.3981e-05
8.09676e-06
9.83357e-06
3.06793e-05
4.84131e-05
4.70097e-05
2.82145e-05
1.25527e-05
7.91813e-06
1.36362e-05
2.48622e-05
4.60831e-05
2.90583e-05
9.43017e-06
1.18212e-05
2.71347e-05
4.42856e-05
2.24951e-05
1.24158e-05
7.18125e-06
8.08466e-06
3.15577e-05
3.87979e-05
2.4677e-05
1.49974e-05
9.44911e-06
1.09229e-05
2.84215e-05
4.62849e-05
4.39603e-05
2.65596e-05
1.32605e-05
8.15504e-06
1.39792e-05
2.40228e-05
4.34585e-05
2.81747e-05
9.67927e-06
1.21987e-05
2.64112e-05
4.13555e-05
2.21038e-05
1.29366e-05
7.56295e-06
8.35392e-06
2.99912e-05
3.73043e-05
2.41881e-05
1.50933e-05
9.79153e-06
1.12961e-05
2.83725e-05
4.46274e-05
4.20773e-05
2.61546e-05
1.35786e-05
8.32368e-06
1.40371e-05
2.34785e-05
4.22694e-05
2.77033e-05
9.88586e-06
1.23336e-05
2.53722e-05
4.0103e-05
2.15022e-05
1.28521e-05
7.52777e-06
8.32416e-06
2.86605e-05
3.54477e-05
2.31969e-05
1.4818e-05
9.74072e-06
1.10501e-05
2.69225e-05
4.22121e-05
3.967e-05
2.48664e-05
1.32751e-05
8.15819e-06
1.37765e-05
2.22138e-05
3.92607e-05
2.60311e-05
9.76795e-06
1.21146e-05
2.38164e-05
3.73386e-05
2.00812e-05
1.21276e-05
7.29813e-06
8.09878e-06
2.54171e-05
3.30753e-05
2.20308e-05
1.41116e-05
9.57859e-06
1.08938e-05
2.63765e-05
3.95013e-05
3.67533e-05
2.35712e-05
1.29794e-05
7.62383e-06
1.27182e-05
2.017e-05
3.24035e-05
2.67658e-05
8.26106e-06
9.60115e-06
1.45585e-05
2.17553e-05
3.87054e-05
2.48511e-05
1.08492e-05
1.32078e-05
2.29186e-05
3.61739e-05
2.00774e-05
1.27268e-05
7.88884e-06
8.49789e-06
2.53282e-05
3.22936e-05
2.20265e-05
1.47086e-05
9.88324e-06
1.1012e-05
2.57926e-05
3.87526e-05
3.60114e-05
2.31594e-05
1.32723e-05
7.80316e-06
1.26195e-05
1.98863e-05
3.18659e-05
2.5526e-05
8.31152e-06
9.80529e-06
1.44882e-05
2.16752e-05
3.79566e-05
2.50794e-05
1.10665e-05
1.32607e-05
2.28068e-05
3.54473e-05
1.98561e-05
1.29989e-05
7.93037e-06
8.52029e-06
2.61707e-05
3.12633e-05
2.14567e-05
1.48874e-05
9.85345e-06
1.08891e-05
2.428e-05
3.71937e-05
3.4535e-05
2.20852e-05
1.29269e-05
7.63802e-06
1.2404e-05
1.91083e-05
3.01482e-05
2.4637e-05
8.11645e-06
9.25841e-06
1.41926e-05
2.08066e-05
3.29624e-05
2.51169e-05
9.56656e-06
1.09034e-05
1.54277e-05
2.24722e-05
3.78677e-05
2.47336e-05
1.18093e-05
1.37354e-05
2.23152e-05
3.49555e-05
1.97655e-05
1.29408e-05
8.04946e-06
8.57206e-06
2.54631e-05
3.07947e-05
2.13129e-05
1.50172e-05
1.00325e-05
1.10642e-05
2.40965e-05
3.63037e-05
3.37979e-05
2.18303e-05
1.308e-05
7.66292e-06
1.24362e-05
1.89002e-05
2.94683e-05
2.40033e-05
8.17228e-06
9.35943e-06
1.41898e-05
2.05978e-05
3.22033e-05
2.46156e-05
9.63053e-06
1.07281e-05
1.55169e-05
2.22273e-05
3.70393e-05
2.43218e-05
1.16103e-05
1.37175e-05
2.21131e-05
3.42511e-05
1.94714e-05
1.30505e-05
8.13321e-06
8.49761e-06
2.57386e-05
2.97069e-05
2.1118e-05
1.52133e-05
9.74381e-06
9.90311e-06
2.51842e-05
3.25647e-05
2.24769e-05
1.57995e-05
1.1061e-05
1.18703e-05
2.41014e-05
3.71633e-05
3.4305e-05
2.19283e-05
1.38833e-05
8.16151e-06
1.31021e-05
1.95787e-05
2.99049e-05
2.51386e-05
8.49146e-06
9.70112e-06
1.4906e-05
2.11258e-05
3.23961e-05
2.52612e-05
9.95905e-06
1.11443e-05
1.58674e-05
2.25321e-05
3.70696e-05
2.43412e-05
1.20543e-05
1.40849e-05
2.22099e-05
3.42617e-05
1.97768e-05
1.34218e-05
8.3898e-06
8.81578e-06
2.56758e-05
2.99614e-05
2.13949e-05
1.54338e-05
1.00309e-05
1.01647e-05
2.55104e-05
3.25199e-05
2.26296e-05
1.59652e-05
1.11519e-05
1.18374e-05
2.39539e-05
3.69131e-05
3.39649e-05
2.19267e-05
1.37121e-05
8.11564e-06
1.31647e-05
1.94529e-05
2.89595e-05
2.58301e-05
8.46432e-06
9.5798e-06
1.50253e-05
2.06882e-05
3.13512e-05
2.46687e-05
9.86298e-06
1.09206e-05
1.55145e-05
2.18376e-05
3.54465e-05
2.32875e-05
1.17814e-05
1.38048e-05
2.14837e-05
3.27855e-05
1.91727e-05
1.31468e-05
8.25609e-06
8.605e-06
2.53644e-05
2.85736e-05
2.05115e-05
1.48574e-05
9.59754e-06
9.71184e-06
2.40223e-05
3.0816e-05
2.17444e-05
1.54141e-05
1.06769e-05
1.05077e-05
2.47976e-05
3.21461e-05
2.2691e-05
1.64358e-05
1.16015e-05
1.23868e-05
2.40751e-05
3.6112e-05
3.31632e-05
2.18727e-05
1.4233e-05
8.29485e-06
1.31574e-05
1.92403e-05
2.88915e-05
2.43685e-05
8.54491e-06
9.65875e-06
1.46761e-05
2.06552e-05
3.06249e-05
2.41572e-05
9.80987e-06
1.06593e-05
1.54192e-05
2.18343e-05
3.18547e-05
2.4635e-05
1.05626e-05
1.16342e-05
1.63455e-05
2.25818e-05
3.56638e-05
2.38159e-05
1.22832e-05
1.42282e-05
2.19407e-05
3.28979e-05
1.9484e-05
1.3505e-05
8.50667e-06
8.75788e-06
2.54881e-05
2.85347e-05
2.07612e-05
1.52072e-05
9.85784e-06
1.00209e-05
2.41093e-05
3.07756e-05
2.19442e-05
1.5701e-05
1.09528e-05
1.08673e-05
2.48908e-05
3.19553e-05
2.28337e-05
1.6631e-05
1.18908e-05
1.25395e-05
2.40692e-05
3.57671e-05
3.29203e-05
2.2077e-05
1.44028e-05
8.54116e-06
1.35415e-05
1.96245e-05
2.85626e-05
2.54514e-05
8.76762e-06
9.82891e-06
1.51894e-05
2.07943e-05
3.03135e-05
2.40012e-05
9.83115e-06
1.06714e-05
1.53507e-05
2.15983e-05
3.11697e-05
2.42389e-05
1.05778e-05
1.16696e-05
1.63102e-05
2.24182e-05
3.47147e-05
2.34426e-05
1.23891e-05
1.42423e-05
2.15477e-05
3.22549e-05
1.91738e-05
1.33269e-05
8.44758e-06
8.83831e-06
2.38092e-05
2.80638e-05
2.05705e-05
1.48765e-05
9.95723e-06
1.00229e-05
2.43592e-05
3.0202e-05
2.17099e-05
1.55134e-05
1.07694e-05
1.03779e-05
2.39977e-05
3.09962e-05
2.23121e-05
1.5973e-05
1.12235e-05
1.10839e-05
2.49348e-05
3.17016e-05
2.28148e-05
1.6894e-05
1.20402e-05
1.25358e-05
2.38387e-05
3.50827e-05
3.24065e-05
2.19007e-05
1.43125e-05
8.46941e-06
1.34116e-05
1.95309e-05
2.78879e-05
2.51358e-05
8.73998e-06
9.83023e-06
1.50416e-05
2.05442e-05
2.93551e-05
2.33719e-05
9.98733e-06
1.081e-05
1.53403e-05
2.13176e-05
3.01664e-05
2.36433e-05
1.05149e-05
1.13464e-05
1.59782e-05
2.20063e-05
3.12499e-05
2.46018e-05
1.11301e-05
1.20917e-05
1.68717e-05
2.2749e-05
3.49292e-05
2.39272e-05
1.27618e-05
1.47275e-05
2.21901e-05
3.24308e-05
1.98526e-05
1.39225e-05
8.87543e-06
9.2066e-06
2.5444e-05
2.82274e-05
2.08393e-05
1.54083e-05
1.02309e-05
1.01535e-05
2.40465e-05
3.00776e-05
2.1809e-05
1.57153e-05
1.10443e-05
1.0847e-05
2.42552e-05
3.08687e-05
2.24525e-05
1.63175e-05
1.16125e-05
1.13044e-05
2.50847e-05
3.16854e-05
2.31007e-05
1.72061e-05
1.23267e-05
1.29607e-05
2.41213e-05
3.50194e-05
3.24636e-05
2.21822e-05
1.4711e-05
8.8375e-06
1.3872e-05
1.99665e-05
2.80796e-05
2.50587e-05
9.16239e-06
1.0141e-05
1.54236e-05
2.09713e-05
2.95504e-05
2.38204e-05
1.00843e-05
1.09052e-05
1.5576e-05
2.16614e-05
3.01429e-05
2.37237e-05
1.0706e-05
1.1523e-05
1.61813e-05
2.22026e-05
3.10741e-05
2.46648e-05
1.14681e-05
1.24126e-05
1.71367e-05
2.28168e-05
3.43603e-05
2.40524e-05
1.30905e-05
1.49762e-05
2.22642e-05
3.21306e-05
2.00137e-05
1.40609e-05
9.00027e-06
9.30661e-06
2.51978e-05
2.81465e-05
2.101e-05
1.55542e-05
1.0318e-05
1.03368e-05
2.40546e-05
2.97664e-05
2.19504e-05
1.58969e-05
1.12075e-05
1.09547e-05
2.40973e-05
3.05582e-05
2.2538e-05
1.64283e-05
1.17031e-05
1.15012e-05
2.4963e-05
3.12812e-05
2.3003e-05
1.71904e-05
1.2399e-05
1.29758e-05
2.39164e-05
3.43444e-05
3.19772e-05
2.20467e-05
1.47519e-05
8.83644e-06
1.38644e-05
1.98781e-05
2.75006e-05
2.49549e-05
9.20222e-06
1.01768e-05
1.53413e-05
2.07382e-05
2.87619e-05
2.32826e-05
1.02191e-05
1.11002e-05
1.56228e-05
2.1439e-05
2.93933e-05
2.34339e-05
1.08317e-05
1.1535e-05
1.61433e-05
2.19563e-05
3.01432e-05
2.41593e-05
1.12701e-05
1.1975e-05
1.66827e-05
2.25685e-05
3.11553e-05
2.5087e-05
1.17276e-05
1.27039e-05
1.75323e-05
2.31952e-05
3.45701e-05
2.43456e-05
1.35125e-05
1.54281e-05
2.25465e-05
3.23717e-05
2.03158e-05
1.44314e-05
9.32982e-06
9.69156e-06
2.51324e-05
2.84021e-05
2.14636e-05
1.59606e-05
1.07965e-05
1.0885e-05
2.45458e-05
3.00317e-05
2.24128e-05
1.64239e-05
1.16974e-05
1.14848e-05
2.4707e-05
3.08832e-05
2.30413e-05
1.69213e-05
1.22092e-05
1.19683e-05
2.54149e-05
3.18119e-05
2.3704e-05
1.78586e-05
1.29852e-05
1.36904e-05
2.46741e-05
3.49092e-05
3.24835e-05
2.27633e-05
1.55098e-05
9.38163e-06
1.45456e-05
2.04624e-05
2.83565e-05
2.53699e-05
9.74643e-06
1.0808e-05
1.60131e-05
2.15763e-05
2.95642e-05
2.43452e-05
1.075e-05
1.15321e-05
1.62322e-05
2.22456e-05
3.00625e-05
2.41783e-05
1.14203e-05
1.21191e-05
1.67756e-05
2.27105e-05
3.08144e-05
2.4901e-05
1.19052e-05
1.28702e-05
1.7621e-05
2.32136e-05
3.39202e-05
2.41727e-05
1.37103e-05
1.56645e-05
2.25152e-05
3.18183e-05
2.03139e-05
1.45483e-05
9.4973e-06
9.84578e-06
2.48619e-05
2.80154e-05
2.14949e-05
1.61022e-05
1.10021e-05
1.11212e-05
2.45068e-05
2.95986e-05
2.2465e-05
1.65891e-05
1.19105e-05
1.16484e-05
2.46095e-05
3.03961e-05
2.30183e-05
1.71098e-05
1.24014e-05
1.22804e-05
2.51984e-05
3.1325e-05
2.37028e-05
1.80347e-05
1.32506e-05
1.39702e-05
2.46417e-05
3.43716e-05
3.20592e-05
2.2816e-05
1.5791e-05
9.61678e-06
1.47654e-05
2.06114e-05
2.82521e-05
2.54306e-05
9.91409e-06
1.09232e-05
1.61218e-05
2.16495e-05
2.93554e-05
2.43151e-05
1.10354e-05
1.18433e-05
1.64408e-05
2.23527e-05
2.98801e-05
2.42429e-05
1.16685e-05
1.24525e-05
1.70611e-05
2.2853e-05
3.0665e-05
2.49219e-05
1.22725e-05
1.33076e-05
1.801e-05
2.3427e-05
3.37432e-05
2.44424e-05
1.42128e-05
1.61017e-05
2.28798e-05
3.17438e-05
2.08387e-05
1.51494e-05
9.94564e-06
1.03554e-05
2.54356e-05
2.84105e-05
2.19739e-05
1.66333e-05
1.1341e-05
1.14735e-05
2.52254e-05
2.9952e-05
2.2898e-05
1.71199e-05
1.22948e-05
1.20915e-05
2.5183e-05
3.08441e-05
2.33997e-05
1.77943e-05
1.31016e-05
1.39149e-05
2.4056e-05
3.35878e-05
3.14008e-05
2.24586e-05
1.57366e-05
9.65142e-06
1.47217e-05
2.04131e-05
2.75726e-05
2.48456e-05
1.00529e-05
1.10765e-05
1.62987e-05
2.15274e-05
2.887e-05
2.45802e-05
1.12224e-05
1.20258e-05
1.66673e-05
2.22846e-05
2.97022e-05
2.42476e-05
1.20609e-05
1.31222e-05
1.75932e-05
2.28704e-05
3.25003e-05
2.37015e-05
1.39449e-05
1.58394e-05
2.22624e-05
3.06462e-05
2.02816e-05
1.47792e-05
9.78188e-06
1.01501e-05
2.44952e-05
2.73131e-05
2.13905e-05
1.6295e-05
1.12023e-05
1.14205e-05
2.42858e-05
2.8956e-05
2.24402e-05
1.69248e-05
1.23074e-05
1.22076e-05
2.45637e-05
2.99123e-05
2.3001e-05
1.766e-05
1.30914e-05
1.38763e-05
2.36682e-05
3.24978e-05
3.05709e-05
2.21994e-05
1.57774e-05
9.6966e-06
1.46946e-05
2.03408e-05
2.71015e-05
2.46015e-05
1.01016e-05
1.11948e-05
1.63732e-05
2.14061e-05
2.83942e-05
2.44246e-05
1.14285e-05
1.22304e-05
1.68178e-05
2.21909e-05
2.93255e-05
2.40303e-05
1.224e-05
1.32947e-05
1.7734e-05
2.28339e-05
3.21694e-05
2.36822e-05
1.41772e-05
1.6025e-05
2.24067e-05
3.04211e-05
2.0517e-05
1.51589e-05
9.98091e-06
1.04789e-05
2.4952e-05
2.74435e-05
2.16578e-05
1.67183e-05
1.15557e-05
1.17644e-05
2.47338e-05
2.90269e-05
2.26879e-05
1.73198e-05
1.26257e-05
1.27001e-05
2.46728e-05
3.00735e-05
2.33884e-05
1.82014e-05
1.36541e-05
1.44642e-05
2.41747e-05
3.27918e-05
3.09551e-05
2.27887e-05
1.63079e-05
1.0189e-05
1.53402e-05
2.09253e-05
2.77219e-05
2.51143e-05
1.0679e-05
1.17171e-05
1.69925e-05
2.20245e-05
2.93264e-05
2.48338e-05
1.21109e-05
1.32694e-05
1.79454e-05
2.30464e-05
3.21688e-05
2.38516e-05
1.43551e-05
1.62237e-05
2.26591e-05
3.0532e-05
2.06194e-05
1.52105e-05
1.02046e-05
1.07612e-05
2.48303e-05
2.75112e-05
2.19364e-05
1.70561e-05
1.18751e-05
1.21479e-05
2.49564e-05
2.91696e-05
2.30072e-05
1.7742e-05
1.30093e-05
1.3183e-05
2.50133e-05
3.04211e-05
2.39034e-05
1.87475e-05
1.41746e-05
1.52042e-05
2.48518e-05
3.33781e-05
3.1457e-05
2.34851e-05
1.71348e-05
1.08013e-05
1.60267e-05
2.15972e-05
2.8483e-05
2.57336e-05
1.12383e-05
1.23486e-05
1.76901e-05
2.28256e-05
3.0269e-05
2.55469e-05
1.28165e-05
1.39115e-05
1.8721e-05
2.3916e-05
3.32723e-05
2.48305e-05
1.49518e-05
1.70203e-05
2.35974e-05
3.16758e-05
2.18527e-05
1.62898e-05
1.10593e-05
1.16399e-05
2.57859e-05
2.87484e-05
2.30566e-05
1.80535e-05
1.26785e-05
1.32038e-05
2.58637e-05
3.0727e-05
2.4365e-05
1.92175e-05
1.43436e-05
1.55845e-05
2.53522e-05
3.38236e-05
3.20801e-05
2.40289e-05
1.75666e-05
1.12368e-05
1.65167e-05
2.22231e-05
2.93523e-05
2.60699e-05
1.18792e-05
1.32399e-05
1.85775e-05
2.35437e-05
3.27954e-05
2.4999e-05
1.47062e-05
1.67539e-05
2.37475e-05
3.14328e-05
2.1753e-05
1.60473e-05
1.06961e-05
1.13345e-05
2.60723e-05
2.86037e-05
2.28375e-05
1.76763e-05
1.24683e-05
1.30289e-05
2.52272e-05
3.02015e-05
2.39833e-05
1.88463e-05
1.41978e-05
1.5411e-05
2.47756e-05
3.30572e-05
3.15703e-05
2.36193e-05
1.7352e-05
1.12014e-05
1.64652e-05
2.21011e-05
2.89495e-05
2.56645e-05
1.19864e-05
1.3327e-05
1.8697e-05
2.34597e-05
3.24102e-05
2.50634e-05
1.49351e-05
1.70179e-05
2.39066e-05
3.11699e-05
2.20021e-05
1.64048e-05
1.11123e-05
1.18642e-05
2.57532e-05
2.87508e-05
2.31427e-05
1.84316e-05
1.3079e-05
1.44363e-05
2.44267e-05
3.20068e-05
3.08068e-05
2.32596e-05
1.6535e-05
1.08041e-05
1.58915e-05
2.14768e-05
2.82102e-05
2.49664e-05
1.17745e-05
1.31044e-05
1.81964e-05
2.28592e-05
3.15544e-05
2.43922e-05
1.46977e-05
1.68282e-05
2.3365e-05
3.04395e-05
2.16314e-05
1.61815e-05
1.10271e-05
1.18555e-05
2.51983e-05
2.82367e-05
2.29221e-05
1.83673e-05
1.31354e-05
1.45894e-05
2.43934e-05
3.15372e-05
3.03968e-05
2.32533e-05
1.66385e-05
1.08457e-05
1.59658e-05
2.1489e-05
2.81162e-05
2.58227e-05
1.16385e-05
1.30108e-05
1.80745e-05
2.2692e-05
3.13585e-05
2.39191e-05
1.47767e-05
1.69783e-05
2.30463e-05
3.02874e-05
2.16382e-05
1.63459e-05
1.12798e-05
1.22589e-05
2.49709e-05
2.82379e-05
2.31089e-05
1.8724e-05
1.35782e-05
1.52437e-05
2.48167e-05
3.18872e-05
3.08129e-05
2.38158e-05
1.73348e-05
1.14874e-05
1.66912e-05
2.21812e-05
2.89409e-05
2.56397e-05
1.24696e-05
1.38641e-05
1.91901e-05
2.37042e-05
3.28694e-05
2.56453e-05
1.57482e-05
1.799e-05
2.47997e-05
3.18868e-05
2.29934e-05
1.76747e-05
1.24161e-05
1.44391e-05
2.55948e-05
3.14965e-05
3.069e-05
2.45978e-05
1.6858e-05
1.15002e-05
1.6845e-05
2.22988e-05
2.9422e-05
2.58089e-05
1.26785e-05
1.40508e-05
1.93509e-05
2.40765e-05
3.31853e-05