/*--------------------------------*- C++ -*----------------------------------*\
| =========                 |                                                 |
| \\      /  F ield         | OpenFOAM: The Open Source CFD Toolbox           |
|  \\    /   O peration     | Version:  v2006                                 |
|   \\  /    A nd           | Website:  www.openfoam.com                      |
|    \\/     M anipulation  |                                                 |
\*---------------------------------------------------------------------------*/
FoamFile
{
    version     2.0;
    format      ascii;
    class       volVectorField;
    location    "0.159";
    object      U;
}
// * * * * * * * * * * * * * * * * * * * * * * * * * * * * * * * * * * * * * //

dimensions      [0 1 -1 0 0 0 0];


internalField   nonuniform List<vector> 
16277
(
(48.3129 0.00151211 -3.05554e-19)
(48.3132 -0.00385611 0)
(48.3129 0.00411919 0)
(48.3125 -0.00350587 0)
(48.3124 0.000458039 -4.77078e-21)
(48.3107 -0.00136549 -7.53419e-19)
(48.3059 -0.0013426 8.98651e-19)
(48.2905 -0.00365495 0)
(48.2551 -0.0080207 0)
(48.1992 -0.0140423 0)
(48.1283 -0.0207596 -3.42899e-21)
(48.0502 -0.0271596 -6.98941e-21)
(47.9698 -0.0328983 1.76983e-21)
(47.8888 -0.0379623 0)
(47.8072 -0.0425253 0)
(47.7241 -0.0467506 0)
(47.6385 -0.0507542 0)
(47.5495 -0.0545985 0)
(47.4569 -0.0583028 0)
(47.3603 -0.0618697 0)
(47.2597 -0.0652974 0)
(47.1553 -0.0685892 0)
(47.0471 -0.0717544 0)
(46.9352 -0.0748061 0)
(46.8195 -0.0777579 0)
(46.7002 -0.0806214 0)
(46.5773 -0.083405 0)
(46.4509 -0.0861139 0)
(46.3209 -0.0887506 0)
(46.1875 -0.0913151 0)
(46.0508 -0.0938057 0)
(45.9109 -0.0962196 0)
(45.7678 -0.0985534 0)
(45.6218 -0.100803 0)
(45.4728 -0.102964 0)
(45.3211 -0.105032 0)
(45.1668 -0.107002 0)
(45.0099 -0.108868 0)
(44.8508 -0.110627 0)
(44.6894 -0.112273 0)
(44.526 -0.113803 0)
(44.3608 -0.115212 0)
(44.1938 -0.116496 0)
(44.0253 -0.117651 0)
(43.8554 -0.118674 0)
(43.6843 -0.11956 0)
(43.5123 -0.120307 0)
(43.3394 -0.120911 0)
(43.1659 -0.12137 0)
(42.9919 -0.12168 0)
(42.8177 -0.121839 0)
(42.6435 -0.121845 0)
(42.4694 -0.121696 0)
(42.2957 -0.121393 0)
(42.1226 -0.120933 0)
(41.9502 -0.120286 0)
(41.7788 -0.119465 0)
(41.6086 -0.118505 0)
(41.4399 -0.117388 0)
(41.2727 -0.116105 0)
(41.1074 -0.114656 0)
(40.9441 -0.113042 0)
(40.7831 -0.111263 0)
(40.6245 -0.109321 0)
(40.4686 -0.107216 0)
(40.3156 -0.10495 0)
(40.1657 -0.102522 0)
(40.019 -0.0999326 0)
(39.8758 -0.097178 0)
(39.7362 -0.0942528 0)
(39.6004 -0.0911479 0)
(39.4686 -0.0878517 0)
(39.341 -0.0843517 0)
(39.2178 -0.0806383 0)
(39.0993 -0.0767073 0)
(38.9854 -0.0725567 0)
(38.8761 -0.0681693 0)
(38.7708 -0.0634741 0)
(38.6684 -0.0582791 -3.00489e-20)
(38.5679 -0.0522683 2.99839e-20)
(38.4686 -0.0449818 0)
(38.373 -0.0362069 8.95493e-20)
(38.289 -0.0265759 -5.91635e-20)
(38.23 -0.0181957 0)
(38.2039 -0.0128861 -1.71853e-18)
(38.2034 -0.0105384 1.11683e-18)
(38.2136 -0.00964155 0)
(38.2258 -0.00943681 0)
(38.2355 -0.00935852 0)
(38.2345 -0.00738688 1.73911e-17)
(38.2272 -0.00459706 -1.02945e-17)
(38.2028 -0.0102864 -1.26057e-17)
(38.1411 -0.0202392 -3.78887e-18)
(38.038 -0.0398388 2.1239e-18)
(37.8702 -0.0576773 0)
(37.6772 -0.0669749 0)
(36.9673 -0.102504 -2.76454e-19)
(36.5115 -0.0930303 2.3249e-18)
(37.6857 -0.113575 1.73388e-18)
(37.9173 -0.0967241 -5.82521e-18)
(37.9413 -0.119279 0)
(37.6343 -0.133698 1.79667e-18)
(35.9973 -0.092025 1.93165e-18)
(35.4886 -0.0845119 7.1972e-19)
(37.5735 -0.133345 4.01142e-19)
(37.9636 -0.124083 1.33768e-18)
(37.9612 -0.121242 1.33864e-18)
(37.48 -0.122899 0)
(35.0208 -0.0739635 -1.25572e-18)
(34.5896 -0.064316 1.16905e-19)
(37.381 -0.112508 0)
(37.9471 -0.118006 0)
(37.9079 -0.113525 1.65969e-19)
(37.253 -0.103542 0)
(34.187 -0.0571962 2.47614e-24)
(33.8232 -0.0518375 1.35714e-19)
(37.1364 -0.0967158 0)
(37.867 -0.111145 -1.66813e-19)
(37.8075 -0.107654 1.05542e-20)
(37.004 -0.0912561 3.94172e-19)
(33.4789 -0.0475951 -5.06972e-19)
(33.1772 -0.0430719 4.92619e-19)
(36.8892 -0.0858046 3.96105e-19)
(37.7547 -0.107182 -6.88737e-19)
(37.6832 -0.10301 -6.81579e-19)
(36.7504 -0.0811033 -7.9526e-19)
(32.885 -0.0400391 0)
(32.6241 -0.0364111 4.95041e-19)
(36.6334 -0.0770822 -4.10782e-19)
(37.6188 -0.102234 -1.06779e-20)
(37.5367 -0.0979763 6.94586e-19)
(36.4914 -0.0731236 -4.11021e-19)
(32.3667 -0.0343524 -4.95323e-19)
(32.1341 -0.0316044 0)
(36.3736 -0.0703011 0)
(37.4651 -0.0973866 0)
(37.3768 -0.0938568 6.84275e-19)
(36.2315 -0.0671191 0)
(31.9033 -0.0301983 0)
(31.6946 -0.0279266 0)
(36.1168 -0.0651654 0)
(37.3022 -0.0939993 0)
(37.2071 -0.0907356 0)
(35.9734 -0.0625676 0)
(31.4817 -0.027066 0)
(31.2879 -0.025198 0)
(35.8584 -0.0610071 0)
(37.1275 -0.0907354 0)
(37.0263 -0.0878911 0)
(35.7133 -0.0589326 0)
(31.0878 -0.0247432 0)
(30.9065 -0.0229791 0)
(35.5993 -0.0577713 0)
(36.9437 -0.088406 0)
(36.8402 -0.0857664 0)
(35.4557 -0.0562184 0)
(30.7193 -0.0230537 0)
(30.5485 -0.0211464 0)
(35.3435 -0.0551484 0)
(36.7556 -0.0866265 0)
(36.6489 -0.0843042 0)
(35.2 -0.0540723 0)
(30.3701 -0.0216461 0)
(30.2068 -0.0197298 0)
(35.0884 -0.0532103 0)
(36.5621 -0.0853511 0)
(36.4523 -0.0833464 0)
(34.9446 -0.0524828 0)
(30.0352 -0.0205119 0)
(29.8777 -0.0186424 0)
(34.8335 -0.0516973 0)
(36.3633 -0.0844365 0)
(36.2507 -0.0827256 0)
(34.6891 -0.0512532 0)
(29.7113 -0.019627 0)
(29.5584 -0.0177686 0)
(34.5779 -0.0505475 0)
(36.1595 -0.0839336 0)
(36.0439 -0.082497 0)
(34.4326 -0.0503636 0)
(29.396 -0.01893 0)
(29.2465 -0.0170645 0)
(34.3209 -0.0497115 0)
(35.9504 -0.0838075 0)
(35.8317 -0.0826183 0)
(34.1744 -0.0497623 0)
(29.087 -0.0183843 0)
(28.9399 -0.0164958 0)
(34.0617 -0.0491397 0)
(35.7356 -0.0840133 0)
(35.6137 -0.0830466 0)
(33.9136 -0.0494031 0)
(28.7825 -0.0179614 0)
(28.6371 -0.016119 0)
(33.7995 -0.0487873 0)
(35.5149 -0.0844559 0)
(35.3897 -0.0837139 0)
(33.6497 -0.0492321 0)
(28.4811 -0.0176812 0)
(28.3366 -0.0158146 0)
(33.534 -0.0485893 0)
(35.2881 -0.0851541 0)
(35.1595 -0.0846184 0)
(33.3822 -0.0492181 0)
(28.1815 -0.0174752 0)
(28.0375 -0.0156406 0)
(33.2645 -0.0485549 0)
(35.0548 -0.0860881 0)
(34.9226 -0.0857494 6.86094e-19)
(33.1104 -0.0493482 0)
(27.8827 -0.0173683 0)
(27.7388 -0.0155635 0)
(32.9904 -0.0486556 0)
(34.8146 -0.0872668 0)
(34.6785 -0.0871125 0)
(32.8337 -0.0496124 0)
(27.5839 -0.0173449 0)
(27.4395 -0.0155477 0)
(32.7111 -0.0488319 0)
(34.567 -0.0886734 0)
(34.4271 -0.0886219 0)
(32.5517 -0.0499571 0)
(27.2841 -0.0173828 0)
(27.1389 -0.0156009 0)
(32.4263 -0.0492148 0)
(34.3118 -0.090117 0)
(34.1676 -0.0902379 0)
(32.2637 -0.0504453 0)
(26.9825 -0.0174586 0)
(26.836 -0.0156816 0)
(32.1352 -0.0497375 0)
(34.0485 -0.0917514 0)
(33.8999 -0.0920571 6.86528e-19)
(31.9693 -0.0510675 0)
(26.6783 -0.0175698 0)
(26.5302 -0.0158028 0)
(31.8374 -0.0503772 0)
(33.7766 -0.0936035 0)
(33.6233 -0.094083 0)
(31.6679 -0.0518084 0)
(26.3708 -0.0177257 0)
(26.2207 -0.0159676 0)
(31.5323 -0.0511351 0)
(33.4956 -0.0956662 0)
(33.3375 -0.0963076 0)
(31.3588 -0.0526644 0)
(26.0592 -0.0179259 0)
(25.9068 -0.0161738 0)
(31.2192 -0.0520087 0)
(33.2051 -0.0979319 0)
(33.042 -0.0987225 0)
(31.0416 -0.0536305 0)
(25.7428 -0.018167 0)
(25.5878 -0.0164173 0)
(30.8977 -0.0529933 0)
(32.9047 -0.100391 0)
(32.7362 -0.101317 6.86956e-19)
(30.7156 -0.0547 0)
(25.421 -0.0184448 0)
(25.263 -0.016693 0)
(30.5672 -0.0540825 0)
(32.5937 -0.103031 0)
(32.4198 -0.104075 0)
(30.3804 -0.0558645 0)
(25.0931 -0.0187543 0)
(24.9318 -0.0169961 0)
(30.2271 -0.0552668 0)
(32.2719 -0.105836 0)
(32.0923 -0.106979 0)
(30.0354 -0.0571134 0)
(24.7587 -0.0190908 0)
(24.5938 -0.0173282 0)
(29.8771 -0.0565252 0)
(31.9389 -0.108774 0)
(31.7534 -0.109999 0)
(29.6803 -0.0584243 0)
(24.4171 -0.0194514 0)
(24.2485 -0.0176822 0)
(29.5168 -0.0578345 0)
(31.5942 -0.111816 0)
(31.4028 -0.113099 6.87397e-19)
(29.3148 -0.0597758 0)
(24.0681 -0.0198291 0)
(23.8957 -0.0180485 0)
(29.1459 -0.0591688 0)
(31.2378 -0.114913 0)
(31.0404 -0.116219 0)
(28.9387 -0.061133 0)
(23.7114 -0.0202093 0)
(23.5353 -0.0184093 0)
(28.7646 -0.0604861 0)
(30.8696 -0.117994 0)
(30.6662 -0.119276 0)
(28.5522 -0.062448 0)
(23.3473 -0.0205711 0)
(23.1676 -0.0187412 0)
(28.3728 -0.0617309 0)
(30.4897 -0.120962 0)
(30.2805 -0.122174 0)
(28.1556 -0.0636664 0)
(22.9762 -0.0209 0)
(22.7932 -0.019035 0)
(27.9713 -0.0628517 0)
(30.0986 -0.123717 0)
(29.8841 -0.124806 0)
(27.7495 -0.0647342 0)
(22.5987 -0.0211788 0)
(22.4129 -0.0192656 0)
(27.5609 -0.0637856 0)
(29.6971 -0.126142 0)
(29.4778 -0.127043 0)
(27.3352 -0.0655812 0)
(22.2159 -0.0213805 0)
(22.0281 -0.0194044 0)
(27.1428 -0.0644525 0)
(29.2865 -0.128088 0)
(29.0631 -0.12872 0)
(26.9141 -0.0661177 0)
(21.8295 -0.0214732 0)
(21.6406 -0.0194161 0)
(26.7191 -0.0647504 0)
(28.8684 -0.129366 0)
(28.6421 -0.129627 0)
(26.4886 -0.0662307 0)
(21.4417 -0.0214177 0)
(21.2532 -0.0192575 0)
(26.2922 -0.0645519 0)
(28.4451 -0.12974 0)
(28.2173 -0.129507 0)
(26.0614 -0.0657804 0)
(21.0554 -0.021167 0)
(20.8691 -0.0188783 0)
(25.8655 -0.063704 0)
(28.0199 -0.128924 0)
(27.7925 -0.128059 0)
(25.6365 -0.0646065 0)
(20.6745 -0.020665 0)
(20.4927 -0.018218 0)
(25.4433 -0.0620347 0)
(27.5965 -0.126593 0)
(27.3719 -0.124943 0)
(25.2186 -0.0625327 0)
(20.3038 -0.0198466 0)
(20.1293 -0.0172093 0)
(25.0311 -0.0593538 0)
(27.1802 -0.122379 0)
(26.9614 -0.119773 0)
(24.8139 -0.0593507 0)
(19.9493 -0.0186372 0)
(19.7857 -0.0157791 0)
(24.6355 -0.055432 0)
(26.7772 -0.115862 0)
(26.5678 -0.112112 0)
(24.4297 -0.0548211 0)
(19.6184 -0.0169468 0)
(19.47 -0.0138419 0)
(24.2648 -0.0500153 0)
(26.3952 -0.106565 0)
(26.1997 -0.101519 0)
(24.075 -0.048702 0)
(19.3199 -0.0146711 0)
(19.1914 -0.0113295 0)
(23.9285 -0.0428976 0)
(26.0434 -0.0940959 0)
(25.8666 -0.0876318 0)
(23.76 -0.0407934 0)
(19.0638 -0.0117835 0)
(18.9618 -0.00823329 0)
(23.6368 -0.03367 0)
(25.7319 -0.0779719 0)
(25.5796 -0.0698449 0)
(23.4957 -0.0305371 0)
(18.8617 -0.00809582 0)
(18.7966 -0.00430236 0)
(23.4018 -0.022511 0)
(25.4713 -0.0578738 0)
(25.3496 -0.0480262 0)
(23.2943 -0.0186845 0)
(18.7281 -0.00396082 0)
(18.7045 0.000150029 0)
(23.2369 -0.0102863 0)
(25.276 -0.0337984 0)
(25.1891 -0.0231037 0)
(23.1679 -0.00561574 0)
(18.671 0.000626567 0)
(18.6929 0.00493608 0)
(23.152 0.00353762 0)
(25.1551 -0.0073318 0)
(25.107 0.00334532 0)
(23.1252 0.00824351 0)
(18.697 0.00516154 0)
(18.7657 0.00978933 0)
(23.1531 0.0180038 0)
(25.1154 0.0200289 0)
(25.1088 0.0304329 0)
(23.1707 0.0223159 0)
(18.8086 0.00944398 0)
(18.9192 0.0139318 6.2193e-20)
(23.2396 0.0313655 0)
(25.1573 0.0453698 0)
(25.1896 0.0568866 0)
(23.2972 0.0364566 0)
(18.9994 0.013872 -6.2193e-20)
(19.1564 0.0187196 6.21883e-20)
(23.4129 0.0461444 0)
(25.2842 0.0733827 0)
(25.3605 0.0840284 0)
(23.5165 0.0504834 0)
(19.2817 0.0189963 -6.21882e-20)
(19.4831 0.0236893 6.2182e-20)
(23.68 0.0600992 0)
(25.5032 0.100617 0)
(25.6215 0.104465 0)
(23.8251 0.0598003 0)
(19.644 0.0216247 -6.21821e-20)
(19.8677 0.0257812 6.21748e-20)
(24.0189 0.0681475 0)
(25.7956 0.118422 0)
(25.9428 0.118464 0)
(24.1909 0.0657686 0)
(20.0473 0.0230188 -6.21751e-20)
(20.2841 0.0264534 6.2167e-20)
(24.4065 0.0724231 0)
(26.141 0.12947 0)
(26.309 0.126628 0)
(24.5965 0.0685177 0)
(20.4728 0.0232002 -6.21676e-20)
(20.7142 0.0262736 6.2159e-20)
(24.825 0.0741522 0)
(26.5232 0.13567 0)
(26.7051 0.130519 0)
(25.0253 0.0690942 0)
(20.9046 0.022651 -6.21599e-20)
(21.1443 0.0253941 6.21509e-20)
(25.2599 0.0737146 0)
(26.929 0.137639 0)
(27.1183 0.13043 0)
(25.4638 0.0676365 0)
(21.3304 0.0214845 -6.21521e-20)
(21.5628 0.0238683 6.21431e-20)
(25.698 0.0712526 0)
(27.3454 0.135634 0)
(27.5359 0.126763 0)
(25.8992 0.0643694 0)
(21.7387 0.0197386 -6.21446e-20)
(21.9586 0.0218289 6.21356e-20)
(26.1272 0.0670758 0)
(27.7605 0.130192 0)
(27.9466 0.120091 0)
(26.3202 0.0596346 0)
(22.1197 0.0175709 -6.21375e-20)
(22.3232 0.0194212 6.21287e-20)
(26.5371 0.0615645 0)
(28.1635 0.121953 0)
(28.3406 0.111014 0)
(26.7174 0.0537885 0)
(22.466 0.015092 -6.21309e-20)
(22.6503 0.0167489 6.21224e-20)
(26.9195 0.0550731 0)
(28.5456 0.111513 0)
(28.7098 0.100141 0)
(27.0836 0.0471578 0)
(22.7723 0.0124119 -6.21249e-20)
(22.9355 0.014019 6.21169e-20)
(27.2678 0.0479959 0)
(28.8997 0.0994894 0)
(29.0479 0.0880443 0)
(27.4123 0.0401823 0)
(23.0362 0.009885 -6.21195e-20)
(23.1774 0.0114605 5.59022e-19)
(27.5768 0.0407742 4.12929e-19)
(29.2202 0.0865929 -1.37616e-18)
(29.3498 0.0753824 0)
(27.6997 0.0332775 0)
(23.2582 0.00776217 -6.21146e-20)
(23.3762 0.00897108 6.21083e-20)
(27.8438 0.033477 0)
(29.5033 0.0734394 -6.88022e-19)
(29.6141 0.0627341 0)
(27.9457 0.0266389 0)
(23.4374 0.00552274 -6.21105e-20)
(23.533 0.00650685 6.21052e-20)
(28.0695 0.0264629 0)
(29.7482 0.0604397 0)
(29.8404 0.0504818 0)
(28.1509 0.0202601 0)
(23.5756 0.00342913 -6.21072e-20)
(23.6506 0.00440724 6.21027e-20)
(28.2551 0.0201181 0)
(29.9555 0.048253 0)
(30.0296 0.0393279 0)
(28.3172 0.0146786 0)
(23.6764 0.00169012 -6.21046e-20)
(23.7332 0.0026797 6.21009e-20)
(28.4032 0.0145941 0)
(30.1267 0.0373013 0)
(30.1842 0.029572 0)
(28.4478 0.00975656 0)
(23.7445 0.000209203 -6.21024e-20)
(23.7858 0.00120931 6.20995e-20)
(28.5178 0.00970259 0)
(30.2651 0.0278226 0)
(30.3077 0.021047 0)
(28.5471 0.0053137 0)
(23.7853 -0.00109362 -6.2101e-20)
(23.8144 9.23235e-06 6.20987e-20)
(28.6035 0.00542621 0)
(30.3746 0.0194805 0)
(30.4046 0.0140782 0)
(28.6201 0.00186783 0)
(23.8048 -0.00200867 -6.20999e-20)
(23.8244 -0.000726897 6.20982e-20)
(28.665 0.00240031 0)
(30.4597 0.012999 0)
(30.479 0.0085712 0)
(28.6713 -0.000355982 0)
(23.8079 -0.00239225 -6.20994e-20)
(23.8206 -0.000874851 6.20981e-20)
(28.7071 0.000806739 0)
(30.5244 0.00824128 0)
(30.535 0.00487304 0)
(28.7049 -0.00144882 0)
(23.7988 -0.00245617 -6.20988e-20)
(23.8059 -0.00116756 6.20976e-20)
(28.7331 -0.000697633 0)
(30.5724 0.00454148 0)
(30.5757 0.00122228 0)
(28.724 -0.0033579 0)
(23.7803 -0.00293393 -6.20987e-20)
(23.7841 -0.00169894 6.20982e-20)
(28.7467 -0.00290621 0)
(30.6068 0.000408161 0)
(30.6046 -0.00183562 0)
(28.7327 -0.00484103 0)
(23.7562 -0.00322701 -6.20991e-20)
(23.7577 -0.00171937 6.20981e-20)
(28.7512 -0.00366603 0)
(30.6307 -0.00183012 0)
(30.624 -0.00291721 0)
(28.7333 -0.00468261 0)
(23.7281 -0.00290657 -6.20987e-20)
(23.7276 -0.00149134 6.20984e-20)
(28.7482 -0.00348288 0)
(30.646 -0.002725 0)
(30.6358 -0.00323737 0)
(28.7273 -0.00402634 0)
(23.6969 -0.00247799 -6.20991e-20)
(23.6952 -0.00144824 6.20991e-20)
(28.7395 -0.00371104 0)
(30.6549 -0.00376173 0)
(30.642 -0.00544015 0)
(28.7165 -0.00589552 0)
(23.6642 -0.00316733 -6.20995e-20)
(23.6619 -0.00203457 6.20992e-20)
(28.7269 -0.00542508 0)
(30.6586 -0.00546148 0)
(30.6433 -0.00735388 0)
(28.7022 -0.00725749 0)
(23.6305 -0.00354433 -6.21002e-20)
(23.6302 -0.00212913 6.20997e-20)
(28.7129 -0.00600444 0)
(30.6593 -0.00667217 0)
(30.6422 -0.00605733 0)
(28.687 -0.00567707 0)
(23.5986 -0.00273266 -6.21e-20)
(23.5961 -0.0014703 6.20997e-20)
(28.6948 -0.00452801 0)
(30.6554 -0.00570882 0)
(30.6375 -0.00602471 0)
(28.6686 -0.00449845 0)
(23.5652 -0.00210955 -6.21e-20)
(23.5634 -0.000854972 6.20997e-20)
(28.676 -0.00321313 0)
(30.6499 -0.00502753 -6.87964e-19)
(30.6314 -0.00642038 0)
(28.6493 -0.00468196 0)
(23.5326 -0.00220872 -6.21001e-20)
(23.5318 -0.00124171 6.21001e-20)
(28.6573 -0.00412006 0)
(30.6442 -0.00605485 0)
(30.6236 -0.00781749 0)
(28.6289 -0.00610788 0)
(23.5002 -0.00275497 -6.21009e-20)
(23.5008 -0.00177639 6.2101e-20)
(28.6378 -0.00571718 0)
(30.6365 -0.00767626 0)
(30.6164 -0.00749559 0)
(28.6102 -0.0061151 0)
(23.4701 -0.00272571 -6.21009e-20)
(23.4697 -0.00182145 6.2101e-20)
(28.6178 -0.00568934 0)
(30.6281 -0.00710065 0)
(30.6083 -0.00630234 0)
(28.591 -0.00525182 0)
(23.4407 -0.00235054 -6.20709e-20)
(23.4419 -0.000985863 6.20092e-20)
(28.5994 -0.00378432 0)
(30.6205 -0.00512683 -6.86662e-19)
(30.602 -0.0049085 -6.83649e-19)
(28.5744 -0.00437395 3.07363e-19)
(23.4149 -0.00205904 -5.53963e-19)
(23.4177 -0.000687178 0)
(28.5851 -0.00205221 7.22255e-25)
(30.6206 -0.00134555 0)
(30.6051 -0.00151728 -6.67746e-19)
(28.5619 -0.00195637 9.95095e-20)
(23.3875 -0.000821174 0)
(23.4237 0.00104506 -9.6765e-19)
(28.589 0.000273352 -1.44367e-25)
(30.6355 0.00218157 -6.65863e-19)
(30.6306 0.0123731 0)
(28.5918 0.00665763 0)
(23.4169 0.00233448 9.04697e-19)
(23.4934 0.0122338 -2.44993e-19)
(28.664 0.0225108 -4.01867e-18)
(30.6965 0.0310575 -7.86086e-24)
(30.7536 0.0655168 5.1143e-18)
(28.7471 0.0504867 0)
(23.6403 0.0270857 -1.55965e-18)
(23.9296 0.0673605 -2.01046e-18)
(28.9436 0.0979042 1.59546e-17)
(30.9366 0.102742 6.06769e-23)
(31.4723 0.0693716 -3.71536e-17)
(29.741 0.132174 1.04349e-18)
(25.078 0.125328 0)
(24.8322 0.0641852 0)
(28.7928 0.128315 -8.818e-19)
(30.5996 0.191707 7.39055e-19)
(31.7843 0.285638 -7.49085e-18)
(32.657 0.135206 -4.26071e-22)
(33.1617 0.0299083 1.31332e-17)
(33.3349 0.00804436 -1.91318e-19)
(33.4411 0.0186333 -2.832e-18)
(33.6509 0.0240153 2.83624e-18)
(33.735 0.0192453 0)
(33.8273 0.0212756 0)
(33.8689 0.0199101 6.10501e-19)
(33.9043 0.0216943 7.87712e-19)
(33.9121 0.0203094 -1.7559e-19)
(33.9011 0.0216437 8.90256e-19)
(33.8755 0.0196693 -1.44748e-18)
(33.808 0.0197554 7.45339e-19)
(33.738 0.0126345 0)
(33.5623 0.0113889 -1.27925e-17)
(33.4624 0.00551772 -1.48593e-17)
(33.3508 0.00607928 0)
(33.2138 0.0185178 -5.28946e-19)
(32.979 0.01055 0)
(32.3788 -0.0285321 0)
(31.0814 -0.0697726 2.67783e-18)
(28.3647 -0.0678237 -6.93512e-18)
(24.9047 -0.0688355 0)
(17.7725 -0.0689085 -3.65541e-19)
(17.2238 -0.0484626 3.45102e-19)
(24.5509 -0.0851152 -8.53467e-18)
(28.0833 -0.086174 2.00732e-17)
(27.7907 -0.0865158 8.1174e-19)
(24.2138 -0.0641293 2.68896e-18)
(16.7759 -0.0439365 -2.84051e-18)
(16.4972 -0.024774 0)
(23.9926 -0.0371286 -1.43979e-18)
(27.6024 -0.0625292 -3.70365e-18)
(27.5127 -0.0391506 0)
(23.9021 -0.0278544 9.46207e-19)
(16.2883 -0.016338 0)
(16.2584 -0.00997219 0)
(23.8593 -0.0128328 2.22507e-19)
(27.4744 -0.0180884 -1.20494e-18)
(27.437 -0.0108296 2.60126e-24)
(23.8212 -0.0108952 -2.22575e-19)
(16.1443 -0.00583162 0)
(16.1399 0.000734688 0)
(23.7967 -0.00228296 0)
(27.4396 -0.00344032 -1.68554e-19)
(27.4442 0.00341912 0)
(23.8009 0.00176346 0)
(16.1454 0.000644688 0)
(16.1553 0.000996743 0)
(23.8095 0.00301805 0)
(27.4522 0.00566548 0)
(27.4618 0.0086186 0)
(23.8221 0.00459912 0)
(16.1697 0.00145619 0)
(16.1855 0.00143552 0)
(23.837 0.00462066 0)
(27.4741 0.00819347 0)
(27.4855 0.00998776 0)
(23.8519 0.00555768 0)
(16.2021 0.00182194 0)
(16.2202 0.00175757 0)
(23.8689 0.00548378 0)
(27.4994 0.00960232 -1.68207e-19)
(27.513 0.0111429 1.68536e-19)
(23.886 0.00622655 0)
(16.2391 0.00205349 0)
(16.2585 0.00186478 0)
(23.9042 0.00572617 0)
(27.528 0.0100696 0)
(27.5418 0.0109213 0)
(23.9219 0.00608492 0)
(16.2777 0.00200034 0)
(16.2981 0.00188372 0)
(23.9407 0.00572871 0)
(27.5574 0.0103486 0)
(27.5725 0.0115606 0)
(23.9599 0.00608873 0)
(16.3191 0.00201681 0)
(16.3404 0.00182155 0)
(23.9797 0.00555334 0)
(27.5889 0.0105077 0)
(27.6039 0.0114358 0)
(23.9985 0.00604621 0)
(16.3611 0.00202324 0)
(16.3824 0.00193145 0)
(24.0183 0.00583757 0)
(27.6203 0.0108511 0)
(27.6361 0.0121761 0)
(24.0381 0.00643511 0)
(16.4043 0.00216739 0)
(16.4259 0.00198036 0)
(24.0583 0.005924 0)
(27.653 0.0111313 0)
(27.6685 0.011983 0)
(24.0778 0.00626132 0)
(16.4471 0.00210319 0)
(16.4693 0.0019947 0)
(24.0985 0.00618235 0)
(27.6856 0.0114634 0)
(27.7021 0.0128345 0)
(24.1192 0.00702065 0)
(16.4923 0.00240621 0)
(16.5152 0.00223795 0)
(24.1405 0.00666226 0)
(27.7198 0.0118217 0)
(27.7362 0.012654 0)
(24.161 0.00706981 0)
(16.538 0.00243701 0)
(16.5612 0.00234921 0)
(24.1825 0.00688923 0)
(27.7539 0.0121286 0)
(27.7712 0.0133659 0)
(24.2041 0.00745291 0)
(16.5852 0.00258121 0)
(16.6091 0.0023762 0)
(24.2262 0.00693659 0)
(27.7896 0.0123065 0)
(27.8065 0.0131437 0)
(24.2474 0.00732854 0)
(16.6326 0.00252564 0)
(16.6568 0.00244225 0)
(24.2698 0.00717819 0)
(27.825 0.0126538 0)
(27.8429 0.01389 0)
(24.2921 0.00777549 0)
(16.6817 0.00268279 0)
(16.7066 0.00247895 0)
(24.3151 0.00726681 0)
(27.862 0.0128432 0)
(27.8798 0.013644 0)
(24.3374 0.00760994 0)
(16.7314 0.00262907 -1.44069e-19)
(16.7566 0.00254788 1.43923e-19)
(24.3606 0.00748495 0)
(27.8991 0.0131917 0)
(27.9177 0.0142782 0)
(24.3836 0.00801341 0)
(16.7821 0.00276006 0)
(16.808 0.00243686 0)
(24.4075 0.00736374 0)
(27.9379 0.0131331 0)
(27.9567 0.0138093 0)
(24.4305 0.00738312 0)
(16.8331 0.00249564 0)
(16.8586 0.00226802 0)
(24.4542 0.00696211 0)
(27.9768 0.0131836 0)
(27.9964 0.0142732 0)
(24.4782 0.00747052 0)
(16.8846 0.00244387 0)
(16.9106 0.00232953 0)
(24.5025 0.00703174 0)
(28.0173 0.01328 0)
(28.037 0.0140122 0)
(24.5261 0.00733205 0)
(16.936 0.00243956 0)
(16.962 0.00230847 0)
(24.5507 0.00712217 0)
(28.0582 0.0135466 0)
(28.0789 0.0146278 0)
(24.5753 0.0076062 0)
(16.9881 0.0024909 0)
(17.0141 0.00229427 0)
(24.6003 0.00706875 0)
(28.1009 0.0136329 0)
(28.1217 0.0143507 0)
(24.6246 0.00731549 0)
(17.0393 0.00236779 0)
(17.0651 0.00223248 0)
(24.65 0.00716054 0)
(28.1444 0.0139996 0)
(28.1667 0.0150894 0)
(24.6755 0.00763412 0)
(17.0907 0.00238911 0)
(17.1164 0.00216497 0)
(24.7017 0.00711862 0)
(28.1904 0.0142571 0)
(28.2132 0.01509 0)
(24.7275 0.00733614 0)
(17.1411 0.0021974 0)
(17.1667 0.00212401 0)
(24.7547 0.00743106 0)
(28.2381 0.0148605 0)
(28.2629 0.016049 0)
(24.7822 0.0080328 0)
(17.1923 0.00240134 0)
(17.2177 0.00227305 0)
(24.8104 0.00781831 0)
(28.2893 0.0153835 0)
(28.3154 0.016089 0)
(24.8385 0.00801492 0)
(17.2423 0.0022373 0)
(17.2673 0.0020093 0)
(24.8678 0.00764127 0)
(28.3435 0.0157632 0)
(28.3716 0.01665 0)
(24.8976 0.00772026 0)
(17.2917 0.00194391 0)
(17.316 0.00160435 0)
(24.9281 0.00700535 0)
(28.4015 0.0159806 0)
(28.4313 0.0167626 0)
(24.9588 0.00717025 0)
(17.3392 0.00153885 0)
(17.3625 0.00136692 0)
(24.991 0.00713049 0)
(28.4636 0.0166643 0)
(28.4963 0.0177361 0)
(25.0238 0.00747407 0)
(17.3849 0.00135134 0)
(17.407 0.00103278 0)
(25.0578 0.00694799 0)
(28.5311 0.0172528 0)
(28.5663 0.018357 0)
(25.0925 0.00716984 0)
(17.4279 0.00088518 0)
(17.4491 0.000715242 0)
(25.1293 0.0072015 0)
(28.6041 0.0185726 0)
(28.643 0.0201746 0)
(25.1673 0.00802808 0)
(17.4698 0.000882897 0)
(17.4901 0.000571173 0)
(25.2072 0.00787075 0)
(28.6849 0.0199886 0)
(28.7276 0.021323 0)
(25.2485 0.00824551 0)
(17.5099 0.000528414 0)
(17.5299 0.000272838 0)
(25.2924 0.00827446 0)
(28.7737 0.0216604 0)
(28.8216 0.023391 0)
(25.3383 0.00886517 0)
(17.5503 0.000235567 0)
(17.5702 -6.66474e-05 0)
(25.3865 0.00839935 0)
(28.8727 0.0235332 0)
(28.9252 0.0251907 0)
(25.4368 0.00861132 0)
(17.5901 -0.000324726 0)
(17.6113 -0.000689615 0)
(25.4909 0.00876053 0)
(28.9822 0.0260476 0)
(29.0417 0.0285574 0)
(25.5482 0.00991766 0)
(17.6335 -0.000626075 0)
(17.6563 -0.000641968 0)
(25.6093 0.0104094 0)
(29.1054 0.0296977 0)
(29.1718 0.0326093 0)
(25.674 0.0116584 0)
(17.6812 -0.000498762 0)
(17.7102 -0.000510871 0)
(25.7448 0.0129256 0)
(29.2437 0.0348013 0)
(29.3195 0.0388854 0)
(25.8216 0.014994 0)
(17.7454 -9.1468e-05 0)
(17.7871 0.000770048 0)
(25.9046 0.0169708 0)
(29.4001 0.0420955 0)
(29.4845 0.0470671 0)
(25.9937 0.0208207 0)
(17.8358 0.00198657 0)
(17.8952 0.00278432 0)
(26.0917 0.0240388 0)
(29.5764 0.0511993 0)
(29.6726 0.0569679 0)
(26.1963 0.0268948 0)
(17.9635 0.00423887 0)
(18.0437 0.00500407 0)
(26.3105 0.0292164 0)
(29.7747 0.061395 0)
(29.8827 0.0681571 0)
(26.4341 0.0328427 0)
(18.1395 0.00642061 0)
(18.2533 0.00827208 0)
(26.5698 0.0380578 0)
(29.9986 0.0750074 1.6789e-19)
(30.1212 0.0841108 -1.68212e-19)
(26.717 0.0443867 0)
(18.3861 0.0108678 0)
(18.5427 0.0136568 0)
(26.8785 0.0504572 0)
(30.2523 0.0930976 0)
(30.3912 0.104995 0)
(27.0545 0.0580913 0)
(18.725 0.0172946 0)
(18.9394 0.0215172 0)
(27.2494 0.0661934 0)
(30.5413 0.118069 0)
(30.7024 0.13489 0)
(27.4645 0.0761571 0)
(19.1887 0.0274105 0)
(19.4862 0.0355035 0)
(27.7086 0.0873197 0)
(30.8821 0.153937 0)
(31.0888 0.179908 1.6809e-19)
(27.9957 0.100558 0)
(19.8562 0.0473993 0)
(20.3188 0.0779388 0)
(28.3261 0.13694 0)
(31.3206 0.233802 -1.68611e-19)
(31.5515 0.347738 -2.70871e-18)
(28.6657 0.256095 1.92754e-23)
(20.7803 0.177113 2.29238e-18)
(21.2183 0.245579 -9.11795e-18)
(28.992 0.349402 -4.95041e-23)
(31.7587 0.464264 2.53648e-18)
(31.9237 0.627858 -2.52203e-18)
(29.2609 0.514754 -7.02422e-18)
(21.6418 0.381816 9.03202e-18)
(22.0109 0.545854 1.42533e-19)
(29.4112 0.700196 -6.99951e-18)
(32.0317 0.799596 5.333e-18)
(32.1168 0.966304 -5.46373e-18)
(29.6302 0.851243 0)
(22.3738 0.658715 0)
(22.7063 0.801047 1.80011e-17)
(29.7537 1.01235 -1.37463e-17)
(32.1831 1.12434 -5.09265e-18)
(32.2276 1.27113 0)
(29.8908 1.15028 -1.36024e-17)
(23.077 0.920936 1.78705e-17)
(23.4708 1.04657 1.77411e-17)
(30.0271 1.29357 -4.21941e-19)
(32.2758 1.42265 0)
(32.2768 1.5849 0)
(30.1182 1.47327 4.22564e-19)
(23.8236 1.20609 -5.53792e-19)
(24.1294 1.31854 -1.63624e-17)
(30.2013 1.60508 0)
(32.2651 1.71749 0)
(32.2566 1.82144 -1.02943e-17)
(30.2935 1.69778 1.35191e-17)
(24.4634 1.40412 -1.82898e-17)
(24.8208 1.52132 0)
(30.3799 1.81629 1.6582e-18)
(32.2512 1.92826 0)
(32.2288 2.05318 -9.745e-18)
(30.4484 1.93855 -1.64229e-18)
(25.1851 1.63021 -4.44081e-18)
(25.3831 1.71556 2.04792e-17)
(30.5009 2.10316 -3.46791e-17)
(32.147 2.21776 2.41339e-17)
(31.9418 2.13445 2.98751e-17)
(30.3748 2.04087 -5.54901e-17)
(25.3605 1.59629 -2.035e-17)
(20.2307 1.15522 -3.16602e-17)
(28.011 1.59246 -3.12293e-18)
(30.9098 1.66739 -1.5956e-17)
(31.7178 2.25127 -3.52737e-18)
(29.0605 2.1185 4.69775e-18)
(21.5006 1.59402 -3.10531e-18)
(21.4899 1.71878 1.39595e-18)
(29.171 2.3271 -2.11667e-18)
(31.7366 2.51276 -1.61029e-18)
(31.6849 2.63686 5.25971e-17)
(29.2265 2.43328 -7.72084e-22)
(21.8122 1.81599 -4.46502e-17)
(22.2376 1.97057 3.32689e-19)
(29.2442 2.56221 6.49027e-17)
(31.6097 2.75378 6.25317e-22)
(31.6251 2.85748 2.46401e-17)
(29.4026 2.65923 -3.18248e-17)
(22.752 2.08332 4.18109e-17)
(23.3113 2.20599 -3.18502e-19)
(29.5141 2.75393 1.20836e-19)
(31.6097 2.95852 2.33405e-17)
(31.619 3.08571 -2.38843e-17)
(29.6838 2.90387 3.02622e-17)
(23.8552 2.36964 -3.09633e-19)
(24.3658 2.49006 6.1757e-19)
(29.7656 2.98646 2.82947e-17)
(31.57 3.17862 -2.36266e-17)
(31.5536 3.29142 -1.8049e-17)
(29.8926 3.13471 -2.72405e-17)
(24.8578 2.65725 4.04823e-17)
(25.3235 2.75462 -2.37037e-18)
(29.9912 3.21131 0)
(31.5208 3.37728 -2.62665e-18)
(31.4655 3.51585 0)
(30.0788 3.33449 2.41241e-17)
(25.7372 2.8654 -6.88374e-17)
(25.8761 2.85457 5.0861e-17)
(30.0241 3.40123 0)
(31.2716 3.50059 -1.26531e-16)
(30.4809 3.14393 1.06713e-17)
(28.2486 2.89384 -3.13314e-18)
(22.315 2.24747 -3.77583e-18)
(23.6671 2.8633 0)
(29.1948 3.46694 -2.30887e-18)
(31.121 3.63155 -6.95114e-18)
(31.1193 3.84525 0)
(29.3244 3.64121 -3.20529e-17)
(23.9598 3.02521 4.2342e-17)
(24.4945 3.13904 6.33243e-19)
(29.5228 3.72954 -9.62154e-19)
(31.1201 3.94899 0)
(31.0955 4.09157 7.38249e-22)
(29.6098 3.92706 2.79999e-17)
(24.9041 3.35496 -3.89017e-17)
(25.2941 3.47366 3.45896e-17)
(29.6764 4.01956 3.49173e-18)
(31.0494 4.18228 0)
(30.9939 4.30032 1.98539e-17)
(29.7578 4.13986 -1.66704e-18)
(25.6921 3.60518 -2.24934e-18)
(25.8892 3.74403 4.10877e-18)
(29.7362 4.32755 0)
(30.8695 4.45085 -3.21844e-17)
(30.6543 4.41942 -3.70431e-18)
(29.6159 4.26958 2.28131e-18)
(25.9991 3.69818 4.60521e-17)
(22.8896 3.4383 0)
(28.0923 3.98251 -3.08301e-18)
(29.9518 4.11743 7.91279e-18)
(30.3918 4.62869 3.78609e-17)
(28.878 4.45791 -7.45238e-17)
(24.0203 3.77784 9.70253e-17)
(24.3009 3.94601 -4.37008e-17)
(28.9181 4.60115 -3.19157e-17)
(30.3096 4.81236 1.54691e-18)
(30.1651 4.96813 -2.38933e-17)
(28.9164 4.79337 -3.15749e-17)
(24.6874 4.18364 8.4163e-17)
(25.0567 4.36023 0)
(28.8779 4.89828 3.72984e-18)
(30.0146 5.0964 0)
(29.8525 5.2687 0)
(28.8813 5.05604 9.54793e-18)
(25.4435 4.54378 0)
(25.5282 4.68529 0)
(28.7029 5.27245 -1.9802e-17)
(29.5347 5.36935 0)
(28.8986 5.20083 -2.508e-17)
(27.4065 4.8674 2.58882e-17)
(22.9582 4.06715 0)
(24.2162 4.71725 1.01004e-16)
(28.0227 5.32503 2.94702e-19)
(29.259 5.52092 -1.78603e-18)
(29.1138 5.80302 -2.44428e-17)
(28.0444 5.6688 3.24067e-17)
(24.5048 5.06617 -8.7266e-17)
(24.8304 5.23149 8.10133e-17)
(27.9991 5.76156 -5.99886e-17)
(28.9405 5.93386 -2.18116e-17)
(28.7002 6.1347 -3.46676e-17)
(27.927 5.97072 8.85711e-17)
(25.0224 5.44806 -1.5277e-16)
(24.9805 5.55649 2.11447e-16)
(27.6222 6.13859 9.80212e-17)
(28.3085 6.20541 -4.51166e-21)
(27.752 6.14959 -7.07745e-19)
(26.5721 5.74225 -8.25499e-19)
(22.8139 4.94242 -1.0038e-18)
(23.7024 5.84029 1.02219e-16)
(26.8962 6.4434 6.00603e-19)
(27.8622 6.56811 0)
(27.5006 6.7741 9.76954e-17)
(26.7087 6.60624 -6.65261e-17)
(23.7837 6.07841 -2.45646e-18)
(23.998 6.40748 2.48647e-18)
(26.4865 6.86863 0)
(27.1115 7.02289 -5.61162e-17)
(26.5884 7.15911 -3.3781e-17)
(26.0756 7.13606 0)
(23.8595 6.62584 3.31162e-18)
(22.1488 6.00016 -1.39994e-16)
(25.1383 6.77608 1.10118e-16)
(25.9922 7.22091 0)
(25.8753 7.61173 -5.78726e-17)
(25.1479 7.55017 7.72913e-17)
(22.8155 7.09589 2.01998e-19)
(22.7605 7.3438 8.85037e-17)
(24.7998 7.66455 0)
(25.3392 7.76599 0)
(24.6761 8.02186 0)
(24.2556 8.05916 -5.40275e-17)
(22.5665 7.8254 1.55637e-16)
(22.0967 8.00387 0)
(23.5151 8.19517 0)
(23.8123 8.07574 -8.03539e-18)
(22.8307 8.43936 1.09646e-17)
(22.3465 8.29848 0)
(20.3999 7.97532 -1.32077e-16)
(20.3116 8.61551 -1.2074e-17)
(21.7517 8.77334 -1.32749e-16)
(22.1224 8.65024 5.44949e-22)
(20.8693 8.60225 -4.65554e-18)
(20.6368 8.86445 5.91284e-18)
(19.487 8.81093 1.87941e-17)
(17.6116 8.89088 -4.51448e-18)
(19.0893 8.99715 -1.47147e-17)
(19.4903 8.98414 1.79545e-17)
(18.3286 8.87138 -8.52714e-17)
(17.9661 9.23058 1.22604e-16)
(16.9634 9.4213 -1.24225e-17)
(15.3053 9.40668 2.46752e-16)
(15.9928 8.82773 -1.52627e-16)
(16.3263 8.12471 0)
(13.3838 8.18931 -7.22781e-17)
(12.9507 8.68055 -1.20292e-17)
(12.1187 9.13001 0)
(9.30949 7.72777 0)
(9.92428 6.85736 1.78622e-17)
(10.7036 5.87943 -9.0295e-18)
(7.3326 3.94253 -1.32494e-16)
(5.87092 4.90596 3.63368e-16)
(4.96375 5.15627 -2.44734e-16)
(1.89461 0.808529 1.99175e-16)
(3.16326 -0.219349 -2.7064e-16)
(5.08185 -1.14608 1.83589e-16)
(3.76942 -9.54489 0)
(1.55772 -9.573 -4.39394e-17)
(-0.182772 -9.83316 1.27274e-16)
(3.37771 -18.2994 -9.60397e-19)
(5.06815 -17.302 4.64712e-17)
(6.51321 -16.5448 -3.20302e-17)