/*--------------------------------*- C++ -*----------------------------------*\
| =========                 |                                                 |
| \\      /  F ield         | OpenFOAM: The Open Source CFD Toolbox           |
|  \\    /   O peration     | Version:  v2006                                 |
|   \\  /    A nd           | Website:  www.openfoam.com                      |
|    \\/     M anipulation  |                                                 |
\*---------------------------------------------------------------------------*/
FoamFile
{
    version     2.0;
    format      ascii;
    class       volScalarField;
    location    "0.218";
    object      turbulenceProperties:I;
}
// * * * * * * * * * * * * * * * * * * * * * * * * * * * * * * * * * * * * * //

dimensions      [0 0 0 0 0 0 0];


internalField   nonuniform List<scalar> 
10108
(
0.149978
0.149978
0.149985
0.149989
0.14999
0.149992
0.149993
0.149999
0.150007
0.150015
0.150019
0.150019
0.150018
0.150016
0.150013
0.150011
0.150009
0.150008
0.150007
0.150006
0.150005
0.150004
0.150004
0.150004
0.150003
0.150003
0.150003
0.150002
0.150002
0.150002
0.150002
0.150002
0.150002
0.150002
0.150001
0.150001
0.150001
0.150001
0.150001
0.150001
0.150001
0.150001
0.150001
0.15
0.15
0.15
0.15
0.15
0.149999
0.149999
0.149998
0.149997
0.149996
0.149995
0.149996
0.15
0.15001
0.150024
0.150035
0.150032
0.150016
0.15
0.149985
0.149978
0.149982
0.149975
0.149977
0.149991
0.150003
0.149841
0.149182
0.144317
0.137098
0.145147
0.148539
0.146034
0.139757
0.131472
0.127026
0.135079
0.143357
0.140427
0.130763
0.123534
0.120885
0.127119
0.137915
0.13513
0.123739
0.118631
0.117129
0.121396
0.133197
0.130834
0.118789
0.115618
0.114778
0.117481
0.129388
0.127363
0.115454
0.113741
0.113266
0.114725
0.126309
0.124589
0.113145
0.112531
0.112264
0.11273
0.123792
0.122303
0.111464
0.111725
0.111585
0.111226
0.121694
0.120402
0.110219
0.111197
0.111137
0.110087
0.119939
0.11879
0.109263
0.110837
0.110826
0.109199
0.118433
0.117404
0.108511
0.110592
0.110619
0.1085
0.11713
0.116208
0.107916
0.110435
0.110487
0.107946
0.115992
0.115169
0.107443
0.11034
0.110413
0.107507
0.115
0.114262
0.10707
0.110295
0.110383
0.107162
0.114134
0.113467
0.106781
0.110288
0.11039
0.106898
0.113376
0.112773
0.106563
0.110315
0.110429
0.106704
0.112715
0.112169
0.10641
0.110371
0.110495
0.106572
0.112142
0.111647
0.106315
0.110453
0.110588
0.106498
0.111651
0.111204
0.106274
0.11056
0.110706
0.106478
0.111237
0.110835
0.106285
0.110691
0.110848
0.10651
0.110897
0.110538
0.106346
0.110846
0.111014
0.106593
0.11063
0.110312
0.106457
0.111024
0.111205
0.106728
0.110434
0.110156
0.106619
0.111228
0.111421
0.106913
0.110308
0.110069
0.106831
0.111456
0.111663
0.107151
0.110252
0.110052
0.107095
0.111711
0.111933
0.107442
0.110267
0.110105
0.107413
0.111994
0.112232
0.107788
0.110353
0.110231
0.107785
0.112308
0.112563
0.108191
0.110515
0.110431
0.108216
0.112653
0.112928
0.108656
0.110753
0.11071
0.10871
0.113034
0.113331
0.109186
0.111072
0.11107
0.10927
0.113453
0.113774
0.109786
0.111476
0.111517
0.109901
0.113914
0.114261
0.110462
0.11197
0.112056
0.110609
0.114421
0.114796
0.111219
0.11256
0.112693
0.111401
0.114977
0.115383
0.112063
0.113251
0.113433
0.112282
0.115586
0.116026
0.113001
0.114051
0.114285
0.11326
0.116252
0.11673
0.114043
0.114967
0.115256
0.114345
0.116981
0.1175
0.115197
0.116009
0.116357
0.115546
0.117779
0.118343
0.116474
0.117186
0.117597
0.116873
0.118651
0.119263
0.117883
0.118509
0.118986
0.118336
0.119601
0.120266
0.119436
0.119987
0.120535
0.119946
0.120634
0.121353
0.121141
0.12163
0.122251
0.12171
0.121753
0.122527
0.123006
0.123444
0.124138
0.123635
0.122955
0.123782
0.125032
0.125432
0.126197
0.125722
0.124234
0.125109
0.127217
0.12759
0.128421
0.127961
0.125576
0.126489
0.129546
0.129904
0.13079
0.130334
0.126957
0.127891
0.131989
0.132346
0.133265
0.1328
0.12834
0.12927
0.134497
0.134871
0.135796
0.135302
0.129673
0.130567
0.136998
0.137413
0.138308
0.137759
0.130891
0.131707
0.139395
0.139886
0.1407
0.14006
0.131913
0.132605
0.141562
0.142175
0.142852
0.142071
0.132655
0.133177
0.143362
0.144157
0.144641
0.143657
0.133041
0.133359
0.144661
0.145712
0.145962
0.144692
0.133027
0.133129
0.145361
0.146751
0.146746
0.145104
0.132618
0.132501
0.145419
0.14723
0.146977
0.144893
0.131857
0.131495
0.144817
0.147175
0.146668
0.143965
0.1308
0.130235
0.143541
0.146585
0.145822
0.142416
0.129488
0.128804
0.141753
0.145495
0.144547
0.140479
0.128013
0.127283
0.139675
0.144044
0.14298
0.138346
0.126491
0.125781
0.13748
0.14237
0.141248
0.136154
0.125022
0.124384
0.135281
0.140583
0.139451
0.134001
0.123679
0.123107
0.133159
0.138772
0.137663
0.131954
0.122465
0.121957
0.131164
0.136997
0.135933
0.130048
0.121381
0.120934
0.12932
0.135299
0.134292
0.128298
0.120419
0.120026
0.127633
0.133694
0.132753
0.126704
0.119567
0.119222
0.126096
0.132188
0.13131
0.125252
0.118807
0.118511
0.124708
0.130791
0.129978
0.123946
0.118137
0.117888
0.123443
0.129492
0.128751
0.122771
0.117523
0.11731
0.122294
0.12823
0.12762
0.121649
0.116946
0.116808
0.121373
0.127261
0.126745
0.120917
0.116608
0.116417
0.120264
0.126143
0.12598
0.120214
0.116115
0.115908
0.119477
0.125449
0.138618
0.150697
0.161037
0.170561
0.178625
0.185298
0.190859
0.195238
0.198881
0.201722
0.203999
0.205597
0.206634
0.206953
0.206601
0.205391
0.203336
0.200148
0.195875
0.189858
0.180697
0.169986
0.160576
0.144165
0.125501
0.11777
0.117669
0.122422
0.121855
0.127266
0.109153
0.111738
0.133555
0.128876
0.122349
0.123151
0.12234
0.120762
0.129374
0.12971
0.122818
0.124482
0.123841
0.121972
0.130139
0.130338
0.122776
0.124778
0.12458
0.122463
0.130587
0.130761
0.123345
0.125689
0.125522
0.122853
0.13091
0.130965
0.123647
0.126717
0.126476
0.123237
0.130765
0.130851
0.12414
0.127748
0.127491
0.123671
0.130616
0.130709
0.124541
0.128795
0.128522
0.124057
0.130458
0.130565
0.124962
0.12987
0.129585
0.124463
0.130295
0.130415
0.125404
0.130993
0.130701
0.12489
0.130127
0.130261
0.125866
0.132153
0.131842
0.125335
0.129954
0.130103
0.126352
0.133364
0.133042
0.125802
0.129775
0.129937
0.12685
0.134611
0.134265
0.126277
0.129584
0.129761
0.127366
0.135905
0.135547
0.126768
0.129385
0.129572
0.127882
0.137234
0.136845
0.127251
0.129167
0.129361
0.128395
0.138606
0.138196
0.127723
0.128923
0.129118
0.128871
0.139998
0.139544
0.128144
0.128633
0.128823
0.129287
0.141416
0.140928
0.128489
0.128279
0.128454
0.129595
0.142845
0.142298
0.128706
0.127833
0.128002
0.129773
0.144318
0.143721
0.128766
0.127277
0.127464
0.129797
0.145847
0.145181
0.128656
0.126611
0.12679
0.129767
0.147508
0.146793
0.128525
0.125891
0.125992
0.129802
0.14924
0.148221
0.128214
0.124676
0.124258
0.129858
0.150844
0.149905
0.128228
0.122585
0.122452
0.130892
0.153682
0.15343
0.129973
0.12129
0.121751
0.133755
0.158391
0.158779
0.133501
0.121062
0.121437
0.137498
0.164253
0.165395
0.138165
0.121185
0.122302
0.142492
0.17169
0.173458
0.143278
0.122625
0.125611
0.149138
0.180996
0.183573
0.150453
0.128407
0.134387
0.159414
0.193022
0.197758
0.163442
0.138617
0.146543
0.178289
0.209927
0.215964
0.191109
0.150671
0.134495
0.14672
0.176187
0.217661
0.179878
0.141449
0.145964
0.183472
0.223202
0.240474
0.201058
0.156032
0.161567
0.208027
0.249926
0.267783
0.226131
0.173945
0.185039
0.244013
0.285548
0.302453
0.268937
0.199456
0.168263
0.210314
0.261285
0.323601
0.275574
0.195932
0.210249
0.292937
0.349466
0.400262
0.34242
0.243769
0.2753
0.398926
0.454064
0.427686
0.341271
0.235651
0.335841
0.507672
0.577889
0.735258
0.635497
0.408338
0.721385
1
1
1
1
1
0.646583
0.845861
0.807237
0.406734
0.37859
0.250832
0.18193
0.252045
0.272942
0.234493
0.229692
0.18766
0.165208
0.177765
0.20876
0.203155
0.190238
0.169177
0.16522
0.182117
0.1986
0.164771
0.142945
0.148658
0.149477
0.162511
0.179457
0.175561
0.155914
0.146554
0.13484
0.126912
0.142004
0.162566
0.146148
0.135881
0.133699
0.139703
0.158248
0.126495
0.115944
0.126607
0.126936
0.133614
0.148957
0.144988
0.127957
0.125865
0.120437
0.108973
0.116101
0.138526
0.124321
0.12014
0.119355
0.118669
0.134184
0.1077
0.102244
0.115743
0.114595
0.116071
0.12974
0.125261
0.111079
0.114271
0.112153
0.097327
0.101145
0.122077
0.108999
0.110142
0.110457
0.104843
0.117249
0.0955156
0.0934761
0.109641
0.106436
0.102771
0.115034
0.109984
0.0993438
0.106978
0.107171
0.0899698
0.0904517
0.108448
0.0970868
0.1032
0.104125
0.0942939
0.103552
0.0862703
0.0868409
0.105555
0.100313
0.0921695
0.102311
0.0979128
0.0896022
0.101329
0.104322
0.0835725
0.0824398
0.0964737
0.0875505
0.0969861
0.098255
0.0852317
0.0921206
0.0788715
0.0797503
0.104118
0.0956215
0.0829635
0.0892253
0.0785806
0.0787396
0.0978873
0.0927931
0.0827701
0.0920317
0.0867106
0.080189
0.0942944
0.0987494
0.0767944
0.07496
0.0850924
0.078642
0.0908928
0.0927711
0.0765754
0.0811972
0.0719713
0.0736504
0.098936
0.0898809
0.073948
0.0788192
0.0708849
0.0724386
0.0942443
0.0870525
0.0747627
0.082017
0.0768832
0.0724333
0.088637
0.0941323
0.0712833
0.0693531
0.0753695
0.0710947
0.086973
0.0911899
0.0699001
0.0682244
0.0782791
0.0713684
0.0838258
0.0860178
0.0695995
0.073303
0.0668916
0.0691928
0.0922835
0.0845269
0.0682542
0.0718926
0.0658768
0.0675011
0.0886986
0.0809749
0.0674038
0.0728915
0.0690151
0.0664779
0.0837225
0.0902482
0.0670302
0.0637248
0.0677879
0.0652404
0.0819543
0.086327
0.0651408
0.0625389
0.068987
0.064316
0.0789205
0.0821517
0.0636451
0.0653886
0.0611208
0.0657179
0.0888661
0.0802128
0.0620335
0.063787
0.0598996
0.0631757
0.0850655
0.0768245
0.0604781
0.0636143
0.0604513
0.059714
0.0803799
0.0868635
0.0651346
0.0580755
0.0598373
0.0582847
0.0781628
0.0837379
0.061981
0.0570132
0.0596707
0.0570371
0.075387
0.0809112
0.0599259
0.056474
0.059872
0.0571552
0.0740523
0.0778228
0.0566978
0.0566992
0.0553608
0.0623085
0.0850771
0.075787
0.0547483
0.056006
0.054226
0.0603381
0.0818474
0.0738657
0.0542248
0.0559258
0.0535597
0.0581792
0.0795674
0.0717773
0.0542817
0.0560165
0.0531644
0.0538717
0.0755023
0.0832047
0.0608068
0.0529719
0.0522744
0.0519256
0.0740463
0.0804488
0.0589848
0.0516198
0.0521593
0.0510106
0.071695
0.0776521
0.0572074
0.0510016
0.0522
0.0505367
0.0699
0.0760086
0.0554378
0.0504955
0.0526081
0.0513606
0.068917
0.0733725
0.0515511
0.0501016
0.0509818
0.0592993
0.0813081
0.0716754
0.0490542
0.0486383
0.0487953
0.0571656
0.0783304
0.0695243
0.0477487
0.0481174
0.0480493
0.0554081
0.0761045
0.0683806
0.0475282
0.0483131
0.0474926
0.0536521
0.074707
0.0668576
0.0484349
0.0486869
0.0465495
0.0486409
0.0710631
0.078647
0.0579914
0.0481315
0.0458715
0.0467976
0.0694005
0.0766211
0.05548
0.0465663
0.0456228
0.0456269
0.0677702
0.0743027
0.0539455
0.0459741
0.0453104
0.044943
0.0659492
0.0727131
0.05306
0.0456056
0.0453879
0.0449505
0.0651363
0.0718001
0.0520473
0.0453237
0.0460893
0.0462611
0.0645897
0.0690724
0.0469313
0.0443452
0.046367
0.0569479
0.0765095
0.0674691
0.0453222
0.044079
0.045049
0.0539443
0.0747606
0.0661906
0.0437488
0.0435317
0.0443292
0.0526008
0.0732643
0.0653098
0.0432825
0.0431459
0.0439243
0.0521288
0.0723255
0.0643683
0.0430838
0.0428762
0.0433408
0.0513441
0.0711634
0.0636262
0.0441787
0.0435244
0.0420059
0.0450037
0.0681212
0.0752854
0.0565486
0.0445289
0.0423857
0.043989
0.0666484
0.0740986
0.0531284
0.0436693
0.0418846
0.0423156
0.0652837
0.0723644
0.0516492
0.0429981
0.0414886
0.0418238
0.064137
0.0713138
0.0511051
0.0425876
0.0413549
0.0418087
0.0636305
0.0705355
0.0511196
0.0422312
0.0420549
0.0429514
0.0629408
0.0675627
0.0441672
0.0407585
0.0437467
0.0560261
0.075487
0.0662576
0.0430916
0.041127
0.0428118
0.0525679
0.0739103
0.064872
0.0413105
0.0406296
0.0420939
0.0511522
0.0722619
0.0638504
0.0407332
0.0401657
0.0416177
0.0507166
0.0711901
0.0630946
0.0407002
0.0399151
0.0410082
0.0504998
0.0702447
0.0623821
0.0417658
0.0406058
0.0393743
0.0429342
0.0670646
0.0743676
0.0557205
0.0425582
0.0400772
0.0420107
0.0652312
0.0729798
0.051938
0.0418554
0.039576
0.0403369
0.0640801
0.0715615
0.0505161
0.0412196
0.0392065
0.0398912
0.0631429
0.0704268
0.0500412
0.040817
0.0390121
0.0398487
0.0622853
0.0693211
0.0498572
0.040258
0.0395143
0.0408919
0.0614549
0.06615
0.0423234
0.0384961
0.0419404
0.0552589
0.0738252
0.0650559
0.0415779
0.0394515
0.0414514
0.0516544
0.0729437
0.0639579
0.039752
0.0389381
0.0407503
0.0503055
0.0713228
0.0624877
0.0392433
0.0384184
0.0401796
0.0496395
0.0698502
0.0617658
0.0392276
0.0381384
0.0396185
0.04953
0.0689845
0.0612295
0.0402909
0.0386759
0.0376746
0.0415921
0.0657878
0.0733585
0.054539
0.0412627
0.0385963
0.0408683
0.06441
0.0720354
0.050764
0.0405706
0.0380358
0.038883
0.0627734
0.0702771
0.0495153
0.0399538
0.0378687
0.0389213
0.0623014
0.0694441
0.0494977
0.0395569
0.0382584
0.0400309
0.0614452
0.0660255
0.0414183
0.0373257
0.0412541
0.0544775
0.0736734
0.0640905
0.0404018
0.0381472
0.0404803
0.0508197
0.0721043
0.0630163
0.0388671
0.0378054
0.0398485
0.0495899
0.0704749
0.0618496
0.0386358
0.0374582
0.0390365
0.0490112
0.0687969
0.0606405
0.0393639
0.0376238
0.0365532
0.0403703
0.0647555
0.0721958
0.0535662
0.0404956
0.0375318
0.0398404
0.0632795
0.0711711
0.0502994
0.0399107
0.0373782
0.0385225
0.0622458
0.0691697
0.0489906
0.0390446
0.0373649
0.0390461
0.0606631
0.0649581
0.040421
0.036407
0.0404726
0.0533053
0.0723207
0.0631469
0.0394618
0.0371245
0.0397602
0.0500762
0.0712325
0.0623662
0.0382744
0.0370125
0.0388607
0.0489765
0.0692691
0.0603823
0.0387172
0.0370061
0.0359889
0.0399526
0.0645736
0.0717378
0.0528368
0.0400462
0.036521
0.0389775
0.062266
0.0701708
0.0497214
0.0389489
0.0367451
0.0386482
0.0614754
0.0661303
0.0400116
0.0358889
0.040468
0.0539947
0.0734346
0.0632954
0.0389528
0.0363501
0.0387346
0.0494398
0.070293
0.0605215
0.037731
0.035747
0.034896
0.0390455
0.0651951
0.0735266
0.0534999
0.0399013
0.0357389
0.0386721
0.063552
0.0709637
0.049559
0.0385946
0.0353388
0.0376108
0.0608637
0.0645818
0.0381684
0.0341897
0.0393543
0.0530253
0.0723351
0.062876
0.0378879
0.0349645
0.0379994
0.0490458
0.0705342
0.0606162
0.0369009
0.0346492
0.0337709
0.0380651
0.0647325
0.0716498
0.0515948
0.0384541
0.0340488
0.0366915
0.0609169
0.0688508
0.0481364
0.0371244
0.0340362
0.0364682
0.0597626
0.0640573
0.0377136
0.0333772
0.0378225
0.051631
0.0709506
0.0594873
0.0367461
0.0336018
0.0326004
0.0370924
0.0629779
0.071416
0.0516668
0.0376731
0.0333374
0.0371249
0.0615592
0.0659266
0.0374818
0.0325949
0.0376234
0.0522238
0.0728207
0.060535
0.0361508
0.0327586
0.031762
0.0367038
0.064318
0.0727781
0.0519105
0.0373933
0.0325578
0.0364977
0.0620595
0.0654701
0.0362269
0.0316603
0.0370152
0.0511326
0.0729054
0.0607769
0.0355189
0.0317296
0.0309685
0.035905
0.0651233
0.0726189
0.0508
0.0360878
0.0312953
0.0344778
0.0589159
0.06129
0.0363703
0.0301719
0.0296674
0.0376648
0.0664567
0.0745565
0.0519415
0.0361625
0.03056
0.034534
0.0604522
0.0625452
0.0339199
0.029236
0.0293319
0.0391721
0.0686983
0.0708191
0.0364376
0.0284782
0.0370803
0.0547572
0.0792227
0.0649463
0.0355505
0.0301703
0.029319
0.0346158
0.0687694
0.0732605
0.0394769
0.0292965
0.0289604
0.0385901
0.0786986
0.0838716
0.0424352
0.0293595
0.0296709
0.043038
0.0911523
0.0988232
0.0471987
0.0310295
0.0322714
0.0499585
0.106124
0.109815
0.0537333
0.0335734
0.0342507
0.0555691
0.111183
0.112025
0.0586376
0.0353977
0.0360251
0.0605664
0.112427
0.112555
0.0637791
0.0374076
0.0380353
0.0658288
0.112336
0.112102
0.0693189
0.0397608
0.0405134
0.071392
0.111884
0.111738
0.0744156
0.0425479
0.0434708
0.0767296
0.111679
0.111642
0.0790155
0.0461221
0.0472009
0.0811233
0.111661
0.111654
0.0831165
0.050125
0.0511922
0.0849784
0.111703
0.11172
0.0868062
0.0541422
0.0552422
0.0885137
0.111817
0.111846
0.0901567
0.0581657
0.0592381
0.0917078
0.112002
0.112033
0.0931922
0.0621576
0.0631861
0.0946097
0.112278
0.112244
0.0959258
0.0659422
0.0668742
0.0971874
0.11256
0.112464
0.0983487
0.0694696
0.0703083
0.0994183
0.112825
0.112725
0.100411
0.0726945
0.0733894
0.101264
0.113015
0.112974
0.102075
0.0755822
0.076148
0.102768
0.113189
0.113197
0.10344
0.0781187
0.0785421
0.103955
0.113329
0.113344
0.104502
0.0803208
0.0806267
0.104896
0.113414
0.113428
0.105328
0.0821876
0.0823792
0.105584
0.113445
0.113451
0.105919
0.0837595
0.0838637
0.106088
0.113431
0.113417
0.106339
0.0850592
0.0850781
0.106415
0.113386
0.113346
0.106585
0.0861279
0.0860793
0.106614
0.113308
0.113251
0.106715
0.0869817
0.0868702
0.106674
0.113202
0.113123
0.106721
0.0876581
0.0874985
0.106652
0.113063
0.112976
0.106652
0.0881723
0.0879696
0.106532
0.112911
0.112807
0.106498
0.0885557
0.0883215
0.106363
0.112736
0.112633
0.106301
0.0888199
0.0885393
0.106127
0.112557
0.112445
0.106045
0.0889815
0.0887018
0.105867
0.112366
0.112253
0.105767
0.089084
0.0887793
0.105562
0.112178
0.112056
0.105449
0.0891213
0.0887982
0.105243
0.111977
0.111858
0.105115
0.0890987
0.0887542
0.104888
0.111782
0.111659
0.104756
0.0890234
0.0886651
0.104534
0.11158
0.111462
0.104392
0.0889011
0.0885174
0.104152
0.111386
0.111266
0.104006
0.0887328
0.0883348
0.103776
0.111186
0.111072
0.103621
0.0885323
0.0881205
0.103376
0.110995
0.110884
0.103223
0.0883025
0.0878835
0.102989
0.110803
0.110694
0.102829
0.0880435
0.0876141
0.10258
0.110614
0.110514
0.102427
0.0877657
0.0873384
0.102192
0.110433
0.110336
0.102036
0.0874737
0.0870435
0.101788
0.110254
0.110163
0.101638
0.0871736
0.0867409
0.101408
0.110081
0.109997
0.10126
0.0868605
0.0864227
0.101019
0.109915
0.109836
0.100877
0.0865419
0.0861089
0.100654
0.109754
0.109683
0.100516
0.0862215
0.0857912
0.100285
0.109602
0.109537
0.100155
0.0859064
0.0854834
0.0999419
0.109455
0.109396
0.0998173
0.0855933
0.0851756
0.0995968
0.109316
0.109263
0.0994825
0.08529
0.0848813
0.0992812
0.109184
0.109137
0.0991741
0.0849917
0.0845902
0.0989654
0.10906
0.109018
0.0988692
0.0847061
0.0843132
0.0986795
0.108942
0.108906
0.098591
0.0844258
0.0840416
0.0983937
0.108832
0.108801
0.0983168
0.0841604
0.0837846
0.0981377
0.108728
0.108702
0.0980671
0.0839005
0.0835327
0.0978807
0.108631
0.10861
0.097823
0.0836557
0.0832959
0.0976534
0.10854
0.108523
0.0976001
0.0834156
0.0830633
0.0974248
0.108455
0.108441
0.0973806
0.0831901
0.0828449
0.097222
0.108374
0.108365
0.0971815
0.0829688
0.0826305
0.0970178
0.1083
0.108293
0.0969846
0.082762
0.0824314
0.096837
0.108229
0.108226
0.0968067
0.0825594
0.0822346
0.0966533
0.108163
0.108163
0.0966299
0.0823704
0.0820527
0.0964922
0.1081
0.108104
0.0964716
0.0821851
0.0818729
0.0963281
0.108043
0.108048
0.0963137
0.0820131
0.0817076
0.0961854
0.107988
0.107996
0.0961731
0.081843
0.0815444
0.0960386
0.107937
0.107948
0.0960323
0.0816877
0.0813938
0.0959123
0.107889
0.107902
0.0959077
0.0815329
0.0812448
0.0957809
0.107845
0.107859
0.0957816
0.0813917
0.081109
0.0956689
0.107802
0.107819
0.095671
0.0812509
0.0809734
0.0955509
0.107762
0.107781
0.0955579
0.081123
0.0808502
0.0954515
0.107724
0.107744
0.0954594
0.0809949
0.0807261
0.0953451
0.107689
0.10771
0.0953576
0.0808787
0.0806147
0.0952566
0.107655
0.107678
0.0952698
0.0807634
0.0804992
0.0951605
0.107623
0.107647
0.095178
0.0806582
0.0803982
0.0950817
0.107593
0.107618
0.0950996
0.0805533
0.0802925
0.0949946
0.107565
0.107591
0.0950165
0.0804569
0.0802009
0.0949243
0.107538
0.107565
0.0949464
0.0803607
0.0801044
0.0948454
0.107513
0.107541
0.0948713
0.080273
0.0800214
0.0947828
0.107488
0.107518
0.0948086
0.0801854
0.079933
0.0947111
0.107466
0.107496
0.0947406
0.0801058
0.0798584
0.0946555
0.107444
0.107476
0.0946849
0.0800265
0.079778
0.0945907
0.107425
0.107456
0.0946235
0.0799547
0.079711
0.0945416
0.107405
0.107438
0.0945742
0.0798826
0.0796378
0.0944831
0.107388
0.107421
0.094519
0.0798179
0.0795772
0.0944399
0.107371
0.107405
0.0944752
0.079752
0.0795098
0.0943866
0.107356
0.10739
0.0944249
0.079693
0.0794551
0.0943481
0.10734
0.107375
0.0943858
0.0796328
0.0793931
0.0942991
0.107326
0.10736
0.0943395
0.0795788
0.0793428
0.0942642
0.107311
0.107346
0.0943036
0.0795227
0.0792845
0.0942181
0.107297
0.107332
0.0942598
0.0794721
0.0792374
0.0941854
0.107281
0.107317
0.0942257
0.0794188
0.0791814
0.0941406
0.107267
0.107302
0.094183
0.0793704
0.0791364
0.0941088
0.107252
0.107287
0.0941496
0.0793189
0.079082
0.0940645
0.107237
0.107272
0.0941071
0.0792717
0.0790377
0.0940326
0.107221
0.107256
0.0940735
0.0792209
0.078984
0.0939883
0.107206
0.107241
0.0940312
0.0791748
0.0789414
0.0939571
0.107191
0.107227
0.0939987
0.0791259
0.0788901
0.0939144
0.107177
0.107213
0.0939585
0.0790822
0.0788503
0.0938858
0.107164
0.107201
0.0939291
0.0790367
0.0788023
0.0938463
0.107153
0.10719
0.093891
0.0789967
0.0787622
0.0938092
0.10714
0.107178
0.0938546
0.0789459
0.0787178
0.0937807
0.107116
0.107155
0.0938226
0.0788994
0.0786561
0.0937374
0.107109
0.107153
0.0937797
0.0788403
0.0785701
0.0936685
0.107075
0.107125
0.0937084
0.0787127
0.0783962
0.0935769
0.107031
0.107067
0.0936083
0.0785039
0.0781439
0.0934532
0.106947
0.106841
0.0933093
0.0780137
0.0768933
0.0925147
0.106344
0.105599
0.0913743
0.0754447
0.073988
0.0903517
0.104834
0.0584565
0.0492218
0.048307
0.0491136
0.0524828
0.0553811
0.0576957
0.0587105
0.0617483
0.0635
0.0637681
0.0636249
0.0633245
0.0629102
0.0625093
0.0621742
0.0619149
0.0617219
0.0615803
0.0614765
0.0614
0.061343
0.0613
0.0612674
0.0612423
0.061223
0.0612081
0.0611971
0.0611892
0.0611839
0.061181
0.0611796
0.0611784
0.0611788
0.0611793
0.0611802
0.0611814
0.061183
0.0611853
0.0611884
0.0611927
0.0611984
0.0612057
0.0612151
0.0612267
0.0612405
0.0612562
0.0612733
0.0612931
0.0613226
0.0613694
0.0614317
0.0615021
0.0615755
0.0616506
0.0617281
0.0618088
0.0618934
0.0619822
0.0620755
0.0621734
0.0622763
0.062385
0.0625008
0.0626251
0.0627598
0.0629069
0.0630685
0.0632468
0.0634441
0.063663
0.063906
0.0641759
0.0644755
0.0648077
0.0651758
0.0655824
0.0660305
0.0665231
0.0670621
0.0676503
0.0682893
0.0689803
0.069725
0.0705232
0.0713756
0.0722812
0.0732401
0.07425
0.0753105
0.0764186
0.0775733
0.0787713
0.0800104
0.0812878
0.0826007
0.0839463
0.0853216
0.0867236
0.0881493
0.0895957
0.0910599
0.0925391
0.0940301
0.095531
0.097038
0.0985497
0.100062
0.101575
0.103083
0.104586
0.106082
0.107567
0.109042
0.110502
0.111948
0.113376
0.114786
0.116176
0.117545
0.118891
0.120214
0.121512
0.122784
0.124029
0.125247
0.126437
0.127598
0.12873
0.129832
0.130904
0.131946
0.132957
0.133937
0.134886
0.135805
0.136692
0.137549
0.138375
0.13917
0.139935
0.140669
0.141374
0.142049
0.142695
0.143312
0.1439
0.144459
0.144991
0.145495
0.145972
0.146422
0.146845
0.147242
0.147612
0.147957
0.148276
0.148569
0.148836
0.149076
0.14929
0.149475
0.14963
0.149756
0.149851
0.149913
0.149944
0.149958
0.14997
0.149968
0.149967
0.14996
0.149952
0.149947
0.149953
0.149966
0.149981
0.149991
0.149995
0.149995
0.149993
0.14999
0.149987
0.149985
0.149983
0.149982
0.149982
0.149982
0.149981
0.149982
0.149982
0.149982
0.149983
0.149984
0.149985
0.149987
0.149988
0.14999
0.149992
0.149995
0.149997
0.15
0.150002
0.150005
0.150008
0.150011
0.150015
0.150018
0.150021
0.150025
0.150029
0.150033
0.150038
0.150042
0.150048
0.150053
0.150059
0.150067
0.150077
0.150094
0.150122
0.15016
0.150202
0.150223
0.150198
0.15013
0.150041
0.149953
0.14986
0.149698
0.149047
0.148194
0.14587
0.144509
0.143457
0.142103
0.141157
0.13985
0.139019
0.137768
0.137048
0.135852
0.135241
0.134115
0.133602
0.132535
0.132099
0.131092
0.130729
0.12978
0.12948
0.128587
0.128339
0.127505
0.127299
0.126523
0.126356
0.125631
0.1255
0.124824
0.124728
0.124098
0.124037
0.123452
0.123425
0.122883
0.12289
0.122391
0.122432
0.121975
0.122049
0.121633
0.121742
0.121366
0.12151
0.121174
0.121355
0.121059
0.121277
0.121023
0.121281
0.121068
0.121367
0.121197
0.12154
0.121414
0.121804
0.121723
0.122163
0.12213
0.122623
0.122639
0.123189
0.123257
0.123869
0.123991
0.124668
0.124847
0.125595
0.125834
0.126658
0.126961
0.127865
0.128235
0.129225
0.129664
0.130745
0.131254
0.132428
0.133007
0.134275
0.134921
0.13628
0.136985
0.138426
0.139179
0.140687
0.14147
0.143024
0.143807
0.145376
0.146128
0.147667
0.148342
0.149799
0.150354
0.151675
0.152066
0.153201
0.153401
0.154309
0.154301
0.15496
0.154744
0.155161
0.154756
0.154938
0.154377
0.154344
0.153649
0.153439
0.152641
0.152306
0.151436
0.151023
0.150112
0.149658
0.148738
0.148264
0.147359
0.146885
0.146005
0.145543
0.144697
0.144246
0.143432
0.143012
0.142235
0.141829
0.141096
0.14069
0.140068
0.139839
0.139419
0.138961
0.138654
0.150761
0.161356
0.161473
0.150832
0.151129
0.161557
0.16101
0.151177
0.151017
0.15936
0.175887
0.172375
0.171729
0.171188
0.179254
0.179616
0.179941
0.187401
0.186706
0.186007
0.191537
0.19221
0.192743
0.19136
0.192158
0.176827
0.162376
0.15194
0.151832
0.16016
0.163085
0.152886
0.152793
0.161085
0.177692
0.17873
0.164
0.153895
0.153804
0.162015
0.16494
0.154926
0.154841
0.16295
0.179752
0.180723
0.16588
0.155979
0.155896
0.163886
0.166823
0.157051
0.156965
0.164832
0.181679
0.182633
0.167772
0.158137
0.15804
0.165791
0.16873
0.159229
0.15911
0.166757
0.183603
0.184547
0.16968
0.160307
0.160147
0.167719
0.170615
0.16134
0.161118
0.168657
0.185478
0.186362
0.171509
0.162282
0.161968
0.169548
0.172327
0.163082
0.162632
0.170254
0.187136
0.187715
0.172979
0.163665
0.16304
0.170734
0.173375
0.163968
0.163127
0.17091
0.187999
0.187877
0.173419
0.163921
0.162829
0.170705
0.173037
0.163457
0.162106
0.170066
0.187267
0.186135
0.172193
0.162552
0.160961
0.168986
0.170898
0.161232
0.159438
0.167503
0.184499
0.182445
0.1692
0.159545
0.157605
0.165674
0.167202
0.157574
0.155545
0.16363
0.180078
0.177523
0.16501
0.155421
0.153364
0.161444
0.162713
0.153183
0.151143
0.159199
0.174904
0.172272
0.160383
0.150932
0.148943
0.156962
0.158088
0.148729
0.146813
0.154789
0.169697
0.16722
0.155878
0.146617
0.144792
0.152719
0.153786
0.14463
0.142909
0.150773
0.164876
0.162682
0.151833
0.142788
0.141173
0.148971
0.15003
0.1411
0.139591
0.147318
0.16065
0.158782
0.148383
0.139568
0.138162
0.145816
0.146889
0.138191
0.136883
0.144462
0.157076
0.155526
0.145544
0.136963
0.135748
0.143251
0.144342
0.135878
0.134749
0.142175
0.154124
0.152862
0.143275
0.134927
0.133879
0.141227
0.142334
0.134102
0.13313
0.1404
0.151728
0.150715
0.141513
0.133396
0.132495
0.139683
0.140804
0.132803
0.131967
0.139072
0.149813
0.149016
0.140199
0.132315
0.13154
0.138562
0.139694
0.131927
0.13121
0.138148
0.148322
0.147723
0.139283
0.131633
0.13097
0.137824
0.138957
0.131428
0.130815
0.137582
0.14721
0.146777
0.138713
0.131306
0.130741
0.137418
0.138543
0.131264
0.130743
0.137327
0.146418
0.146125
0.138445
0.131296
0.130819
0.137306
0.138414
0.131403
0.130969
0.137352
0.145895
0.145723
0.138447
0.13158
0.131189
0.137461
0.138541
0.131825
0.131476
0.137631
0.145606
0.145538
0.138694
0.132137
0.13183
0.137859
0.138906
0.132515
0.132249
0.138143
0.145518
0.145545
0.139174
0.132959
0.132733
0.138483
0.139496
0.133467
0.133283
0.138878
0.145613
0.145718
0.139873
0.134042
0.133899
0.139331
0.140309
0.13468
0.134578
0.139835
0.145853
0.146021
0.140796
0.13538
0.135316
0.140383
0.141323
0.136138
0.136115
0.140972
0.14622
0.146451
0.141889
0.136956
0.136975
0.141603
0.142494
0.137836
0.1379
0.142275
0.14671
0.146998
0.143138
0.13878
0.138891
0.142986
0.143815
0.139791
0.139952
0.143744
0.147311
0.14764
0.144523
0.140867
0.141083
0.144533
0.145252
0.141983
0.142278
0.145346
0.147983
0.148343
0.146008
0.143162
0.143541
0.146182
0.146783
0.144394
0.144843
0.147025
0.148712
0.149074
0.147557
0.145655
0.146167
0.147852
0.148318
0.146932
0.147494
0.148653
0.149414
0.149751
0.149616
0.149467
0.149318
0.149182
0.149063
0.148962
0.148881
0.148825
0.148795
0.148791
0.148816
0.14887
0.148957
0.149078
0.149237
0.149438
0.149685
0.149978
0.150321
0.150718
0.151175
0.151698
0.152292
0.152964
0.153721
0.15457
0.155522
0.156575
0.157735
0.159015
0.160428
0.161989
0.163709
0.165601
0.167677
0.169947
0.17242
0.175101
0.177988
0.18107
0.184325
0.187719
0.191185
0.194674
0.197912
0.200758
0.203068
0.204677
0.205524
0.205666
0.205258
0.204482
0.203507
0.20246
0.201412
0.200369
0.199308
0.198227
0.197121
0.195976
0.194758
0.193548
0.203958
0.202243
0.200804
0.197359
0.196639
0.195897
0.19956
0.200357
0.200989
0.204045
0.203232
0.202404
0.204734
0.205651
0.20649
0.207089
0.209028
0.213294
0.210951
0.208276
0.207313
0.206359
0.207463
0.208505
0.2096
0.210065
0.208936
0.207836
0.207567
0.208751
0.209976
0.212399
0.215075
0.218
0.21576
0.211102
0.213033
0.205515
0.207034
0.208488
0.216752
0.214919
0.220392
0.218092
0.22079
0.223589
0.226388
0.222659
0.224903
0.218536
0.209888
0.211241
0.220279
0.221992
0.212556
0.213854
0.223693
0.23161
0.229353
0.227128
0.232035
0.229199
0.230798
0.227254
0.223794
0.220389
0.217076
0.213618
0.210617
0.208807
0.207586
0.206393
0.204347
0.205572
0.206871
0.202786
0.201909
0.200887
0.195774
0.196656
0.197957
0.202904
0.206176
0.191907
0.187346
0.18781
0.187392
0.186569
0.185808
0.169446
0.16882
0.16327
0.145323
0.132657
0.135939
0.149536
0.146467
0.134413
0.137511
0.152167
0.168669
0.169542
0.152867
0.14824
0.136206
0.138047
0.137291
0.149505
0.154331
0.170569
0.171923
0.174614
0.176056
0.191336
0.196248
0.210153
0.21411
0.21829
0.222627
0.210851
0.205582
0.205708
0.200531
0.200834
0.195796
0.180506
0.179026
0.161934
0.156608
0.159755
0.154607
0.158028
0.152864
0.155999
0.151018
0.138608
0.139424
0.140853
0.140065
0.142419
0.141543
0.144019
0.14314
0.145653
0.144726
0.15849
0.163735
0.160618
0.146445
0.147306
0.149101
0.166101
0.183688
0.185285
0.16803
0.162639
0.148145
0.150877
0.149993
0.164924
0.170573
0.188686
0.190408
0.194044
0.195919
0.210999
0.216291
0.227166
0.231923
0.234443
0.238249
0.234923
0.237932
0.241149
0.233933
0.225412
0.215186
0.216539
0.227196
0.229003
0.217805
0.21886
0.230557
0.24126
0.238864
0.236343
0.244604
0.248154
0.251722
0.263793
0.257933
0.25221
0.246971
0.242354
0.242592
0.236961
0.228049
0.222788
0.222033
0.216742
0.201838
0.199795
0.180625
0.174599
0.177647
0.171933
0.175392
0.169566
0.172648
0.167105
0.15182
0.152807
0.154722
0.153814
0.156805
0.155787
0.158881
0.157946
0.161143
0.16009
0.177188
0.183084
0.180092
0.162447
0.16341
0.165905
0.186329
0.205963
0.208166
0.189036
0.182946
0.164824
0.168445
0.167459
0.186147
0.192586
0.212543
0.214818
0.229069
0.234269
0.235843
0.22214
0.219447
0.199252
0.19273