/*--------------------------------*- C++ -*----------------------------------*\
| =========                 |                                                 |
| \\      /  F ield         | OpenFOAM: The Open Source CFD Toolbox           |
|  \\    /   O peration     | Version:  v2006                                 |
|   \\  /    A nd           | Website:  www.openfoam.com                      |
|    \\/     M anipulation  |                                                 |
\*---------------------------------------------------------------------------*/
FoamFile
{
    version     2.0;
    format      ascii;
    class       volScalarField;
    location    "0.015";
    object      p;
}
// * * * * * * * * * * * * * * * * * * * * * * * * * * * * * * * * * * * * * //

dimensions      [1 -1 -2 0 0 0 0];


internalField   nonuniform List<scalar> 
38932
(
146890
146889
146888
146889
146889
146890
146891
146892
146894
146896
146899
146901
146904
146908
146911
146915
146920
146924
146929
146934
146940
146946
146952
146958
146965
146972
146979
146986
146994
147002
147010
147019
147028
147037
147046
147055
147065
147075
147085
147095
147106
147116
147127
147138
147150
147161
147173
147184
147196
147208
147220
147233
147245
147257
147270
147283
147296
147308
147321
147334
147348
147361
147374
147387
147400
147414
147427
147440
147453
147467
147480
147493
147506
147519
147532
147545
147558
147571
147584
147597
147609
147622
147634
147646
147658
147670
147682
147694
147705
147717
147728
147739
147749
147760
147770
147781
147790
147800
147810
147819
147828
147837
147845
147854
147862
147870
147877
147884
147891
147898
147904
147911
147917
147922
147928
147933
147937
147942
147946
147950
147953
147956
147959
147961
147961
147960
147935
147991
147545
148349
146167
150973
148240
147832
148241
148033
148006
148033
148010
148000
148003
147995
147993
147995
147988
147988
147989
147989
147988
147987
147988
147988
147989
147991
147990
147990
147993
147993
147994
147997
147996
147996
147999
147999
148000
148004
148003
148003
148007
148008
148009
148013
148013
148012
148018
148018
148019
148024
148024
148023
148029
148030
148030
148037
148036
148036
148043
148043
148044
148051
148050
148050
148058
148058
148059
148066
148066
148066
148074
148074
148075
148084
148083
148083
148092
148092
148093
148102
148102
148101
148111
148111
148112
148122
148122
148121
148132
148132
148133
148144
148143
148143
148155
148155
148155
148167
148167
148167
148179
148179
148180
148193
148192
148192
148205
148205
148206
148220
148219
148219
148233
148233
148234
148249
148248
148248
148263
148263
148264
148280
148279
148279
148295
148295
148296
148313
148312
148312
148329
148329
148330
148348
148347
148347
148365
148366
148366
148385
148385
148384
148404
148404
148405
148426
148425
148424
148445
148446
148446
148468
148467
148467
148489
148490
148490
148513
148513
148512
148536
148536
148537
148561
148561
148560
148585
148586
148586
148612
148611
148611
148637
148638
148639
148666
148665
148665
148693
148693
148694
148723
148722
148721
148751
148751
148752
148783
148782
148781
148812
148813
148814
148846
148845
148844
148877
148877
148879
148912
148911
148910
148944
148945
148946
148981
148980
148979
149015
149016
149017
149053
149052
149051
149088
149089
149090
149128
149127
149126
149164
149165
149166
149205
149203
149202
149241
149242
149244
149283
149282
149280
149320
149321
149323
149362
149360
149359
149398
149399
149401
149440
149438
149436
149474
149476
149478
149515
149513
149511
149546
149548
149550
149584
149582
149580
149612
149614
149616
149646
149643
149641
149668
149671
149673
149698
149695
149693
149715
149717
149719
149738
149735
149733
149749
149751
149753
149765
149763
149761
149771
149773
149775
149782
149780
149779
149784
149785
149787
149790
149789
149788
149791
149792
149793
149794
149793
149793
149794
149795
149795
149796
149795
149795
149795
149795
149795
149794
149794
149794
149793
149793
149793
149791
149791
149791
149789
149789
149789
149787
149787
149787
149785
149785
149786
149784
149784
149784
149783
149783
149783
149782
149782
149781
149781
149781
149781
149780
149781
149781
149781
149781
149781
149781
149781
149781
149782
149782
149782
149784
149784
149784
149786
149786
149786
149788
149788
149788
149791
149791
149790
149793
149793
149793
149796
149796
149795
149798
149798
149798
149801
149801
149800
149802
149803
149803
149805
149805
149804
149806
149806
149806
149808
149808
149807
149808
149808
149808
149809
149809
149809
149809
149810
149810
149810
149810
149810
149810
149810
149810
149810
149810
149810
149810
149811
149811
149810
149810
149810
149810
149810
149810
149810
149810
149810
149810
149810
149810
149810
149810
149810
149810
149810
149811
149811
149811
149811
149811
149811
149812
149812
149812
149812
149812
149813
149813
149813
149813
149813
149813
149813
149813
149813
149813
149813
149813
149813
149813
149813
149813
149813
149813
149813
149813
149813
149813
149813
149813
149813
149813
149813
149813
149813
149813
149813
149813
149813
149813
149813
149813
149813
149813
149813
149813
149813
149813
149813
149813
149813
149813
149813
149813
149813
149813
149813
149813
149813
149813
149813
149813
149813
149813
149813
149813
149813
149813
149813
149813
149813
149813
149813
149813
149813
149813
149813
149813
149813
149813
149813
149813
149813
149813
149813
149813
149813
149814
149814
149814
149814
149814
149814
149814
149814
149814
149814
149814
149814
149814
149814
149814
149814
149814
149814
149814
149814
149814
149814
149814
149814
149814
149814
149814
149814
149814
149814
149814
149814
149814
149814
149814
149813
149813
149813
149814
149813
149813
149814
149814
149814
149814
149813
149814
149813
149813
149814
149814
149813
149813
149814
149813
149813
149813
149814
149815
149811
149811
149815
149814
149812
149814
149813
149814
149813
149812
149815
149815
149812
149813
149814
149813
149813
149812
149816
149816
149807
149803
149818
149818
149811
149813
149815
149815
149794
149797
149853
149889
149777
149774
149818
149819
149809
149810
149839
149836
149762
149773
149831
149833
149810
149811
149810
149810
149833
149829
149763
149683
149870
149879
149806
149802
149822
149820
149755
149762
149919
149819
149812
149812
149815
149811
149826
149821
149719
149732
150006
150082
149698
149679
149825
149832
149819
149817
149758
149766
149937
150137
149663
149645
149828
149837
149799
149802
149888
149882
149675
149809
149811
149810
149808
149814
149800
149804
149879
149868
149659
149511
149953
149965
149794
149784
149810
149814
149807
149798
149799
149542
149930
149946
149795
149787
149817
149817
149759
149763
149888
149636
149884
149898
149800
149795
149832
149824
149647
149670
150129
150035
149720
149701
149820
149824
149824
149819
149680
149699
150085
150372
149574
149531
149832
149847
149802
149799
149839
149841
149771
150091
149665
149654
149821
149826
149790
149795
149890
149881
149638
149709
149849
149852
149795
149799
149803
149803
149808
149805
149772
149564
149916
149925
149788
149782
149800
149805
149798
149791
149792
149566
149913
149922
149787
149781
149800
149801
149805
149801
149764
149494
149944
149956
149781
149773
149797
149803
149793
149785
149788
149498
149931
149949
149781
149773
149815
149811
149670
149687
150042
149908
149752
149743
149805
149802
149801
149802
149729
149740
149956
150330
149563
149527
149819
149831
149780
149783
149873
149866
149648
149828
149768
149770
149798
149792
149782
149785
149854
149843
149640
149413
149969
149984
149769
149758
149803
149802
149690
149703
149973
149759
149806
149804
149786
149788
149797
149797
149695
149709
149994
150329
149553
149516
149812
149824
149772
149775
149873
149867
149625
149816
149765
149765
149791
149784
149775
149779
149843
149834
149647
149489
149923
149934
149766
149760
149781
149787
149778
149767
149770
149440
149935
149954
149763
149753
149798
149796
149654
149671
150021
149802
149772
149773
149787
149777
149792
149790
149650
149670
150064
150509
149474
149418
149810
149826
149758
149762
149900
149891
149551
149766
149782
149780
149765
149780
149771
149782
149763
149759
149796
149778
149767
149783
149765
149778
149775
149756
149814
149824
149694
149782
149743
149816
149726
149792
149759
149811
149721
149820
149760
149789
149752
149787
149771
149778
149777
149777
149775
149777
149774
149776
149776
149776
149777
149777
149778
149777
149777
149776
149776
149775
149776
149776
149777
149778
149778
149777
149776
149776
149775
149775
149776
149777
149777
149778
149779
149778
149777
149777
149776
149776
149777
149778
149779
149780
149781
149780
149779
149778
149777
149778
149780
149781
149782
149783
149785
149784
149783
149782
149779
149784
149786
149786
149787
149788
149791
149791
149790
149790
149789
149791
149794
149793
149794
149794
149798
149797
149797
149797
149794
149798
149801
149800
149801
149801
149805
149805
149804
149805
149801
149804
149809
149808
149809
149809
149812
149811
149811
149813
149806
149810
149817
149815
149816
149817
149819
149819
149818
149821
149814
149817
149824
149822
149823
149823
149827
149826
149826
149828
149821
149824
149833
149830
149831
149831
149836
149835
149834
149836
149829
149832
149841
149839
149840
149841
149848
149846
149845
149845
149837
149842
149849
149849
149850
149852
149857
149856
149854
149854
149846
149851
149860
149860
149861
149864
149865
149865
149865
149865
149857
149862
149871
149869
149870
149872
149876
149875
149875
149876
149868
149874
149882
149880
149880
149881
149887
149886
149886
149888
149880
149886
149895
149892
149893
149893
149899
149899
149899
149902
149894
149900
149908
149905
149906
149906
149914
149913
149912
149914
149907
149913
149921
149919
149918
149917
149925
149925
149925
149928
149920
149928
149935
149931
149931
149930
149936
149937
149938
149942
149935
149943
149949
149945
149944
149943
149950
149951
149952
149955
149950
149958
149962
149960
149959
149959
149963
149965
149967
149968
149965
149971
149974
149974
149973
149973
149979
149981
149981
149982
149978
149994
149993
149992
149990
149987
149997
150000
150002
150004
150006
150017
150016
150013
150011
150008
150021
150023
150025
150027
150029
150041
150039
150036
150031
150027
150041
150043
150046
150048
150050
150059
150058
150056
150052
150048
150058
150062
150067
150070
150073
150084
150082
150078
150074
150069
150082
150087
150092
150096
150100
150111
150109
150105
150101
150097
150104
150111
150118
150122
150124
150138
150135
150131
150126
150122
150131
150137
150143
150148
150150
150165
150163
150157
150150
150143
150157
150165
150173
150179
150185
150200
150195
150189
150182
150176
150183
150194
150204
150212
150217
150231
150227
150220
150213
150206
150216
150226
150236
150244
150249
150268
150261
150252
150242
150230
150250
150260
150270
150279
150286
150304
150298
150287
150273
150257
150283
150294
150306
150316
150324
150342
150334
150322
150308
150293
150308
150325
150341
150355
150365
150387
150376
150361
150345
150329
150336
150360
150381
150397
150409
150430
150417
150401
150383
150367
150375
150398
150419
150438
150451
150475
150460
150438
150414
150388
150408
150434
150460
150485
150503
150526
150508
150481
150448
150410
150445
150473
150502
150529
150549
150571
150549
150518
150484
150448
150460
150498
150536
150569
150594
150616
150589
150552
150507
150457
150487
150526
150568
150607
150639
150661
150624
150578
150530
150482
150482
150538
150590
150640
150681
150688
150652
150600
150537
150468
150493
150551
150610
150663
150701
150716
150672
150615
150549
150478
150456
150539
150616
150679
150727
150738
150682
150613
150534
150459
150418
150512
150601
150679
150745
150747
150670
150581
150479
150378
150331
150435
150547
150649
150742
150729
150613
150490
150359
150229
150152
150266
150404
150545
150688
150611
150428
150262
150101
149972
149718
149864
150040
150232
150469
150170
149908
149717
149587
149542
148973
149121
149250
149364
149431
148056
148640
148700
148703
148793
148147
148210
148247
148211
147781
147685
147871
147859
147879
148017
147312
147324
147366
147420
147345
146564
146740
146741
146812
146976
146222
146073
145908
145651
144479
144000
144942
145216
145412
145600
145081
144874
144674
144456
143819
143162
143856
144101
144330
144565
144006
143718
143435
143142
141468
141167
142568
142907
143187
143416
143046
142711
142414
142082
140860
140547
141650
141962
142235
142433
142323
141928
141564
141221
139693
139823
141040
141348
141683
141964
141970
141595
141260
140999
139935
140282
141038
141254
141537
141793
141862
141557
141290
141116
140685
140785
141131
141308
141554
141777
141861
141565
141281
141065
140304
140590
141176
141343
141620
141856
141990
141760
141544
141436
141194
141472
141668
141770
141937
142105
142259
142085
141942
141847
141721
141888
141984
142067
142181
142313
142413
142290
142182
142098
142003
142029
142190
142279
142385
142504
142609
142495
142377
142291
142098
142281
142422
142503
142601
142715
142789
142708
142638
142579
142507
142661
142715
142769
142840
142922
143001
142930
142877
142833
142795
142908
142932
142967
143007
143056
143167
143105
143055
143017
142994
143070
143094
143126
143163
143215
143255
143219
143190
143164
143149
143205
143225
143258
143299
143349
143379
143348
143315
143280
143227
143295
143344
143379
143424
143476
143517
143477
143446
143419
143392
143475
143493
143514
143535
143562
143663
143620
143585
143561
143545
143608
143623
143642
143664
143693
143729
143710
143695
143678
143664
143725
143735
143755
143785
143820
143841
143819
143802
143786
143775
143829
143836
143848
143859
143873
143956
143925
143899
143882
143872
143918
143926
143940
143954
143972
143999
143989
143980
143970
143963
144006
144013
144027
144049
144077
144090
144075
144063
144053
144047
144082
144090
144099
144106
144114
144187
144162
144143
144131
144125
144160
144166
144176
144185
144198
144220
144214
144209
144202
144197
144228
144236
144248
144267
144289
144300
144288
144277
144268
144261
144294
144299
144305
144313
144327
144350
144345
144339
144332
144326
144358
144365
144374
144390
144408
144414
144406
144400
144394
144386
144420
144424
144427
144430
144432
144489
144473
144460
144453
144450
144475
144479
144483
144488
144494
144511
144509
144508
144504
144499
144530
144532
144538
144550
144564
144569
144564
144561
144558
144554
144580
144582
144584
144584
144585
144636
144623
144612
144607
144603
144628
144630
144633
144635
144639
144654
144655
144655
144653
144652
144676
144677
144681
144691
144702
144705
144702
144701
144699
144698
144717
144719
144720
144720
144719
144765
144754
144746
144742
144743
144764
144762
144764
144765
144767
144780
144781
144783
144782
144787
144803
144801
144806
144813
144823
144824
144823
144822
144819
144823
144844
144837
144840
144839
144836
144877
144869
144862
144856
144864
144885
144874
144879
144878
144879
144890
144894
144897
144891
144906
144923
144907
144918
144923
144930
144930
144931
144933
144923
144942
144964
144939
144951
144945
144942
144979
144974
144971
144956
144985
145001
144972
144989
144980
144980
144991
144995
145003
144990
145018
145036
145010
145019
145023
145027
145027
145030
145035
145017
145072
145015
145057
145046
145044
145038
145069
145067
145072
145017
145238
144858
145108
145076
145077
145074
145081
145088
145100
145046
145447
144871
145120
145113
145112
145108
145116
145127
145133
145119
145333
145118
145142
145156
145157
145150
145163
145169
145175
145160
145214
145212
145174
145197
145185
145185
145202
145207
145219
145195
145233
145251
145224
145240
145243
145248
145245
145255
145260
145250
145270
145287
145274
145283
145287
145290
145296
145299
145303
145298
145309
145331
145323
145325
145318
145311
145360
145355
145352
145350
145358
145375
145370
145370
145365
145362
145374
145381
145387
145389
145391
145412
145411
145411
145416
145420
145421
145425
145429
145430
145433
145451
145448
145446
145440
145433
145477
145472
145468
145468
145471
145488
145486
145484
145480
145477
145487
145494
145500
145503
145506
145525
145523
145522
145525
145528
145527
145532
145538
145541
145548
145562
145556
145551
145544
145536
145574
145571
145569
145570
145572
145587
145584
145581
145576
145571
145579
145587
145595
145599
145601
145625
145616
145614
145615
145616
145612
145618
145625
145629
145634
145642
145639
145635
145627
145618
145651
145651
145651
145654
145658
145670
145667
145662
145656
145644
145675
145675
145676
145678
145681
145692
145689
145685
145678
145672
145677
145687
145696
145701
145706
145728
145717
145713
145711
145710
145704
145712
145720
145726
145734
145739
145732
145727
145718
145707
145734
145736
145738
145741
145744
145755
145750
145745
145738
145725
145752
145753
145755
145759
145764
145773
145766
145760
145753
145745
145748
145758
145767
145773
145779
145791
145782
145778
145776
145774
145766
145775
145782
145787
145792
145799
145794
145788
145779
145768
145793
145795
145798
145802
145808
145816
145810
145805
145796
145783
145806
145808
145812
145817
145824
145829
145821
145815
145806
145798
145798
145809
145818
145824
145830
145836
145830
145826
145823
145820
145811
145821
145828
145834
145841
145843
145837
145831
145822
145812
145832
145835
145839
145843
145848
145855
145848
145843
145834
145821
145841
145844
145847
145852
145857
145864
145854
145848
145840
145831
145829
145840
145850
145856
145862
145866
145860
145855
145851
145847
145835
145850
145859
145866
145873
145877
145867
145861
145857
145853
145842
145851
145860
145866
145874
145870
145865
145859
145849
145837
145854
145859
145863
145867
145872
145879
145872
145865
145856
145842
145858
145862
145868
145874
145886
145880
145871
145865
145855
145846
145840
145851
145861
145867
145870
145873
145868
145863
145859
145855
145842
145855
145864
145870
145877
145876
145869
145864
145860
145856
145843
145852
145860
145866
145869
145869
145865
145859
145849
145837
145852
145858
145863
145868
145876
145886
145874
145865
145855
145840
145852
145858
145865
145872
145885
145877
145866
145858
145849
145838
145828
145840
145851
145858
145866
145859
145853
145849
145844
145839
145825
145838
145845
145850
145854
145852
145848
145843
145839
145834
145820
145829
145837
145843
145849
145848
145839
145832
145823
145811
145823
145828
145833
145838
145843
145840
145837
145832
145823
145809
145819
145825
145831
145838
145849
145845
145835
145827
145817
145803
145810
145815
145821
145827
145835
145823
145817
145811
145803
145793
145781
145793
145803
145809
145815
145813
145807
145802
145797
145791
145776
145790
145799
145805
145814
145806
145800
145795
145789
145784
145768
145777
145786
145793
145803
145794
145786
145778
145767
145755
145763
145770
145775
145780
145786
145783
145776
145770
145762
145748
145753
145759
145764
145769
145773
145769
145762
145756
145747
145736
145739
145744
145749
145754
145760
145751
145745
145738
145730
145721
145707
145719
145729
145736
145744
145733
145730
145726
145721
145715
145699
145714
145722
145727
145731
145737
145726
145719
145712
145705
145687
145701
145712
145721
145730
145720
145710
145703
145696
145690
145670
145680
145689
145696
145705
145693
145684
145676
145666
145653
145658
145665
145669
145673
145676
145669
145666
145662
145655
145641
145644
145650
145656
145661
145668
145658
145653
145646
145637
145625
145625
145631
145637
145643
145653
145639
145630
145623
145615
145605
145587
145599
145610
145617
145624
145612
145608
145603
145598
145591
145574
145588
145595
145601
145605
145601
145593
145587
145582
145575
145555
145566
145575
145582
145587
145577
145569
145564
145559
145553
145531
145540
145548
145554
145560
145546
145540
145534
145524
145512
145516
145523
145527
145532
145536
145529
145525
145520
145512
145499
145499
145507
145513
145519
145528
145516
145509
145502
145492
145480
145477
145484
145491
145497
145502
145494
145485
145477
145467
145454
145450
145457
145463
145470
145479
145462
145451
145444
145435
145425
145403
145415
145425
145431
145436
145420
145418
145415
145410
145404
145385
145397
145404
145409
145412
145405
145399
145394
145389
145383
145361
145373
145380
145385
145387
145376
145374
145369
145364
145358
145335
145347
145357
145364
145372
145364
145351
145345
145338
145331
145306
145317
145326
145334
145344
145328
145317
145308
145296
145283
145283
145291
145297
145302
145310
145292
145287
145282
145274
145263
145257
145263
145267
145270
145272
145254
145255
145251
145244
145233
145227
145234
145239
145244
145251
145233
145228
145222
145214
145203
145196
145202
145207
145211
145218
145204
145193
145186
145177
145168
145143
145156
145166
145172
145177
145161
145158
145154
145150
145143
145123
145135
145143
145149
145156
145138
145135
145130
145125
145118
145094
145105
145114
145120
145127
145112
145105
145099
145093
145086
145059
145070
145079
145085
145091
145073
145065
145060
145055
145049
145019
145027
145034
145038
145041
145023
145019
145013
145003
144992
144990
144997
145002
145007
145015
144992
144991
144987
144981
144970
144964
144970
144974
144977
144978
144971
144965
144959
144950
144939
144932
144939
144945
144950
144952
144950
144937
144928
144918
144905
144895
144903
144910
144918
144930
144892
144890
144885
144876
144864
144852
144858
144862
144867
144875
144849
144841
144835
144826
144817
144787
144799
144809
144815
144821
144795
144795
144792
144789
144782
144758
144769
144776
144781
144786
144768
144764
144760
144756
144750
144722
144733
144739
144742
144740
144733
144728
144723
144718
144712
144683
144694
144703
144710
144717
144696
144688
144683
144677
144671
144637
144646
144655
144663
144676
144640
144635
144629
144618
144606
144600
144608
144612
144616
144621
144608
144599
144594
144586
144576
144565
144571
144575
144577
144577
144556
144555
144552
144545
144535
144523
144528
144532
144536
144542
144508
144511
144508
144502
144492
144479
144484
144488
144492
144496
144471
144469
144464
144456
144446
144433
144438
144442
144448
144455
144429
144420
144412
144404
144395
144361
144374
144383
144390
144398
144367
144367
144365
144362
144355
144329
144340
144348
144353
144361
144341
144334
144330
144325
144318
144287
144297
144305
144309
144312
144284
144284
144282
144278
144273
144238
144249
144256
144260
144263
144246
144238
144233
144229
144224
144188
144198
144205
144208
144207
144178
144180
144179
144176
144172
144135
144145
144152
144156
144159
144136
144131
144127
144123
144119
144078
144087
144094
144101
144108
144077
144071
144064
144054
144042
144033
144040
144043
144047
144052
144029
144025
144021
144014
144004
143990
143995
143999
144002
144004
143978
143976
143972
143965
143955
143939
143944
143947
143950
143951
143926
143923
143919
143912
143902
143884
143889
143893
143896
143898
143869
143867
143862
143855
143845
143825
143830
143833
143836
143838
143807
143802
143797
143790
143781
143742
143755
143765
143772
143778
143754
143748
143743
143739
143732
143701
143712
143719
143724
143736
143692
143693
143693
143690
143685
143647
143657
143662
143663
143660
143637
143638
143636
143634
143630
143591
143601
143607
143612
143612
143594
143586
143581
143577
143572
143532
143541
143548
143551
143552
143515
143517
143515
143513
143509
143464
143472
143478
143482
143486
143457
143451
143444
143435
143423
143411
143418
143422
143426
143433
143406
143401
143396
143389
143378
143360
143366
143370
143375
143383
143335
143337
143336
143330
143321
143298
143302
143304
143304
143301
143274
143273
143270
143265
143256
143232
143236
143239
143242
143243
143207
143207
143203
143197
143188
143162
143165
143167
143169
143171
143129
143127
143123
143119
143112
143066
143077
143085
143089
143092
143057
143060
143059
143057
143052
143017
143028
143034
143040
143046
143020
143015
143010
143006
143000
142959
142969
142976
142979
142981
142943
142943
142942
142939
142935
142890
142899
142904
142907
142906
142873
142872
142870
142867
142863
142817
142825
142830
142834
142836
142792
142793
142792
142790
142787
142734
142741
142744
142746
142740
142723
142714
142705
142696
142685
142668
142674
142677
142682
142690
142650
142647
142643
142638
142628
142605
142608
142609
142608
142606
142558
142568
142570
142567
142560
142533
142536
142538
142540
142542
142505
142504
142500
142495
142487
142457
142461
142462
142462
142453
142430
142426
142422
142417
142409
142377
142381
142383
142385
142382
142349
142341
142335
142329
142322
142267
142280
142289
142296
142299
142277
142264
142258
142254
142248
142206
142216
142223
142226
142234
142175
142183
142185
142183
142179
142131
142138
142142
142145
142146
142092
142099
142101
142101
142099
142049
142054
142056
142057
142058
141998
142009
142013
142014
142013
141962
141966
141967
141966
141955
141917
141924
141926
141927
141926
141870
141875
141877
141880
141880
141843
141839
141832
141824
141814
141793
141798
141800
141803
141806
141771
141769
141765
141760
141751
141723
141728
141729
141731
141732
141687
141689
141687
141682
141675
141640
141644
141645
141646
141644
141599
141599
141597
141593
141586
141546
141549
141550
141550
141548
141494
141496
141496
141494
141489
141444
141445
141444
141440
141428
141385
141386
141385
141384
141380
141316
141325
141331
141334
141328
141298
141294
141293
141293
141289
141243
141250
141252
141252
141244
141208
141213
141213
141214
141211
141159
141165
141169
141173
141179
141113
141121
141122
141122
141119
141062
141066
141069
141069
141061
141019
141020
141020
141019
141017
140951
140957
140961
140966
140968
140913
140908
140902
140894
140883
140852
140858
140860
140862
140865
140819
140817
140814
140809
140800
140761
140765
140765
140766
140766
140705
140707
140708
140706
140701
140651
140651
140650
140647
140639
140573
140581
140584
140585
140586
140529
140526
140520
140514
140502
140409
140436
140447
140453
140456
140383
140387
140386
140383
140370
140346
140352
140351
140355
140353
140306
140312
140314
140318
140316
140271
140275
140274
140275
140271
140215
140221
140224
140228
140226
140173
140175
140174
140174
140170
140106
140112
140116
140119
140119
140060
140058
140057
140055
140052
139975
139980
139983
139987
139989
139921
139915
139909
139903
139893
139849
139853
139851
139851
139853
139784
139787
139790
139792
139789
139735
139734
139726
139716
139702
139611
139641
139655
139664
139670
139611
139604
139591
139576
139541
139506
139527
139533
139541
139547
139491
139488
139481
139478
139464
139404
139417
139417
139420
139419
139341
139350
139355
139364
139372
139321
139314
139309
139308
139302
139245
139252
139254
139255
139255
139176
139192
139196
139198
139195
139127
139131
139132
139135
139136
139061
139064
139065
139067
139065
138989
138988
138987
138983
138970
138902
138903
138908
138913
138915
138825
138823
138818
138811
138788
138717
138729
138731
138733
138729
138674
138674
138667
138662
138655
138583
138594
138601
138607
138609
138547
138544
138533
138519
138482
138445
138457
138462
138470
138477
138408
138403
138393
138387
138360
138294
138311
138314
138321
138324
138233
138238
138239
138243
138241
138183
138185
138184
138186
138183
138118
138122
138122
138123
138120
138047
138054
138055
138058
138056
137977
137976
137974
137972
137968
137859
137878
137886
137894
137897
137799
137795
137789
137785
137781
137675
137688
137691
137693
137690
137622
137621
137613
137609
137610
137484
137511
137526
137539
137548
137469
137458
137438
137414
137367
137283
137332
137352
137372
137389
137308
137296
137278
137265
137223
137175
137194
137198
137211
137220
137119
137122
137119
137124
137119
137054
137061
137057
137063
137061
136990
136993
136990
136991
136983
136909
136916
136916
136919
136917
136829
136827
136824
136824
136819
136722
136723
136726
136731
136732
136619
136613
136606
136600
136590
136459
136476
136483
136488
136488
136398
136394
136383
136376
136371
136228
136258
136275
136292
136307
136204
136188
136163
136135
136092
135917
136003
136039
136072
136097
135979
135964
135939
135920
135869
135840
135879
135884
135904
135914
135846
135841
135831
135834
135825
135772
135772
135768
135775
135775
135688
135682
135676
135675
135658
135575
135575
135575
135582
135585
135467
135460
135452
135449
135436
135328
135321
135321
135325
135323
135218
135214
135202
135188
135169
135020
135057
135078
135097
135115
134991
134975
134951
134927
134892
134704
134775
134805
134838
134866
134717
134697
134670
134649
134606
134502
134542
134564
134595
134615
134524
134495
134460
134428
134331
134295
134350
134369
134400
134421
134317
134296
134270
134264
134239
134142
134166
134167
134179
134184
134092
134090
134080
134083
134080
133977
133980
133978
133986
133995
133872
133867
133855
133848
133840
133646
133680
133697
133718
133735
133565
133555
133539
133526
133502
133359
133383
133401
133422
133435
133317
133284
133251
133223
133182
132986
133045
133089
133133
133165
133023
132970
132905
132847
132673
132614
132719
132759
132815
132855
132746
132718
132676
132659
132605
132555
132591
132598
132628
132655
132538
132523
132500
132496
132477
132325
132355
132361
132388
132410
132237
132227
132210
132208
132202
132025
132052
132065
132086
132096
131966
131933
131904
131887
131874
131618
131673
131714
131755
131785
131616
131559
131493
131432
131275
131156
131257
131298
131357
131402
131239
131200
131143
131109
130993
130924
130974
131000
131055
131102
130927
130894
130847
130822
130787
130542
130658
130701
130753
130785
130668
130619
130565
130526
130423
130385
130427
130442
130481
130511
130364
130325
130287
130285
130275
130070
130090
130096
130123
130146
129944
129921
129889
129870
129853
129590
129613
129649
129702
129757
129502
129443
129373
129310
129241
128720
128988
129097
129199
129274
129104
128996
128870
128775
128519
128551
128683
128725
128825
128905
128758
128706
128636
128607
128530
128446
128501
128525
128587
128650
128473
128428
128373
128342
128278
128051
128130
128164
128237
128306
128049
127995
127927
127898
127807
127592
127662
127704
127765
127815
127619
127534
127452
127400
127339
126976
127080
127158
127254
127336
127071
126977
126854
126726
126405
126223
126514
126592
126750
126879
126633
126535
126412
126370
126224
126171
126247
126272
126356
126423
126259
126171
126071
126054