/*--------------------------------*- C++ -*----------------------------------*\
| =========                 |                                                 |
| \\      /  F ield         | OpenFOAM: The Open Source CFD Toolbox           |
|  \\    /   O peration     | Version:  v2006                                 |
|   \\  /    A nd           | Website:  www.openfoam.com                      |
|    \\/     M anipulation  |                                                 |
\*---------------------------------------------------------------------------*/
FoamFile
{
    version     2.0;
    format      ascii;
    class       volScalarField;
    location    "0.038";
    object      k;
}
// * * * * * * * * * * * * * * * * * * * * * * * * * * * * * * * * * * * * * //

dimensions      [0 2 -2 0 0 0 0];


internalField   nonuniform List<scalar> 
41981
(
105.981
105.98
105.979
105.98
105.982
105.984
105.987
105.99
105.991
105.994
105.99
105.97
105.92
105.831
105.704
105.548
105.375
105.194
105.011
104.831
104.652
104.475
104.297
104.117
103.934
103.747
103.556
103.361
103.16
102.956
102.747
102.534
102.316
102.095
101.869
101.639
101.406
101.168
100.926
100.68
100.43
100.176
99.9186
99.6569
99.3914
99.1222
98.8492
98.5726
98.2924
98.0087
97.7215
97.4311
97.1374
96.8406
96.5406
96.2377
95.932
95.6235
95.3123
94.9986
94.6824
94.3639
94.0431
93.7203
93.3955
93.0688
92.7403
92.4103
92.0787
91.7458
91.4116
91.0763
90.74
90.4028
90.0649
89.7263
89.3873
89.0479
88.7083
88.3686
88.029
87.6895
87.3503
87.0116
86.6734
86.3359
85.9993
85.6636
85.329
84.9956
84.6635
84.3329
84.0039
83.6767
83.3513
83.0278
82.7065
82.3874
82.0707
81.7564
81.4446
81.1356
80.8294
80.5262
80.226
79.9289
79.6351
79.3446
79.0577
78.7742
78.4945
78.2185
77.9464
77.6782
77.4141
77.154
76.8982
76.6466
76.3993
76.1564
75.918
75.684
75.4546
75.2297
75.0094
74.7939
74.5833
74.3777
74.1775
73.9826
73.7931
73.6086
73.4282
73.2505
73.0732
72.8943
72.7119
72.5267
72.3438
72.1762
72.045
71.9694
71.9528
71.9754
72.0057
72.029
72.0682
72.0932
72.1208
72.1485
72.1643
72.1543
72.1043
72.0181
71.8935
71.6832
71.3454
70.8889
70.0595
68.7155
62.3528
55.8033
65.3172
69.0204
65.963
57.877
49.1389
44.1851
54.0426
63.8827
59.2816
47.7335
39.3972
36.3994
45.7397
57.7336
53.7855
41.2096
33.2708
31.4067
40.1444
52.6765
49.784
37.4547
29.4734
28.2659
36.79
49.0431
46.737
34.9682
26.9059
26.1283
34.6837
46.3153
44.4674
33.4312
25.1682
24.6319
33.2835
44.1976
42.6462
32.3242
24.0735
23.8001
32.2631
42.4752
41.1382
31.4981
23.4111
23.2233
31.4862
41.0323
39.8512
30.8464
22.9049
22.7532
30.8547
39.787
38.7188
30.2871
22.4713
22.3382
30.3043
38.6819
37.7004
29.7889
22.0807
21.9602
29.8122
37.6833
36.7732
29.3388
21.7217
21.6107
29.3661
36.7713
35.9255
28.928
21.3883
21.2845
28.958
35.9327
35.1413
28.55
21.0761
20.9784
28.5816
35.1555
34.4121
28.1997
20.7819
20.6896
28.2325
34.4322
33.7334
27.8743
20.5035
20.4159
27.9078
33.7591
33.1021
27.5706
20.2391
20.1557
27.6047
33.1333
32.515
27.2866
19.9872
19.9075
27.3213
32.551
31.9673
27.0207
19.7465
19.6702
27.0558
32.0072
31.4548
26.7709
19.516
19.4428
26.806
31.4977
30.9735
26.535
19.2947
19.2243
26.57
31.0188
30.5199
26.3112
19.0817
19.0138
26.3457
30.5671
30.091
26.0973
18.8759
18.8102
26.1312
30.1396
29.6843
25.8918
18.6766
18.6129
25.9251
29.7339
29.2977
25.6939
18.4831
18.421
25.7265
29.348
28.9294
25.5029
18.2947
18.2342
25.5347
28.9803
28.578
25.3178
18.1109
18.0519
25.3489
28.6294
28.2424
25.1382
17.9313
17.8735
25.1685
28.294
27.9214
24.9635
17.7555
17.6989
24.9932
27.9732
27.6138
24.7933
17.5832
17.5275
24.8222
27.6656
27.3187
24.6271
17.4139
17.3592
24.6553
27.3704
27.035
24.4644
17.2474
17.1935
24.4919
27.0866
26.7618
24.3048
17.0833
17.0301
24.3314
26.813
26.498
24.1477
16.9213
16.8688
24.1735
26.5487
26.2427
23.9926
16.7612
16.7092
24.0176
26.2929
25.9951
23.8392
16.6027
16.5511
23.8633
26.0448
25.7546
23.6871
16.4454
16.3941
23.7103
25.8035
25.5204
23.5359
16.2892
16.2381
23.5582
25.5686
25.292
23.3853
16.1337
16.0828
23.4067
25.3394
25.0689
23.235
15.9788
15.928
23.2555
25.1155
24.8505
23.0849
15.8242
15.7734
23.1046
24.8963
24.6365
22.9348
15.6698
15.619
22.9536
24.6815
24.4266
22.7844
15.5153
15.4644
22.8023
24.4707
24.2204
22.6338
15.3607
15.3096
22.6508
24.2637
24.0175
22.4826
15.2056
15.1543
22.4988
24.06
23.8179
22.3308
15.0501
14.9985
22.3462
23.8595
23.6211
22.1783
14.8939
14.842
22.1929
23.662
23.4272
22.0249
14.7369
14.6844
22.0381
23.4672
23.2357
21.8697
14.5788
14.5248
21.8806
23.2748
23.046
21.7118
14.4191
14.3632
21.7209
23.0843
22.8581
21.5525
14.2577
14.2
21.56
22.8955
22.6718
21.3923
14.0948
14.0353
21.3983
22.7085
22.4872
21.2311
13.9305
13.8693
21.2358
22.5232
22.3042
21.069
13.7646
13.7018
21.0724
22.3395
22.1226
20.9058
13.5972
13.5329
20.9079
22.1573
21.9423
20.7412
13.4283
13.3625
20.7421
21.9765
21.7632
20.5754
13.2578
13.1905
20.575
21.7967
21.5851
20.4082
13.0856
13.017
20.4063
21.6181
21.4078
20.239
12.9117
12.8416
20.2357
21.4402
21.2313
20.0678
12.7359
12.6646
20.0631
21.2632
21.0555
19.8943
12.5582
12.4856
19.8885
21.0869
20.8802
19.7187
12.3785
12.3047
19.7117
20.911
20.7051
19.5407
12.1968
12.1219
19.5327
20.7354
20.5301
19.3603
12.013
11.937
19.3513
20.56
20.3552
19.1774
11.8271
11.7501
19.1676
20.3845
20.1801
18.9918
11.6391
11.5612
18.9813
20.209
20.0048
18.8037
11.4489
11.3702
18.7924
20.0333
19.8292
18.6128
11.2567
11.1772
18.601
19.8572
19.653
18.4193
11.0624
10.9823
18.407
19.6807
19.4763
18.223
10.8662
10.7855
18.2103
19.5036
19.299
18.024
10.6681
10.587
18.011
19.3259
19.1209
17.8222
10.4682
10.3868
17.8091
19.1474
18.9419
17.6178
10.2667
10.1853
17.6048
18.9681
18.7621
17.4108
10.0639
9.98248
17.3979
18.788
18.5813
17.2012
9.85977
9.77864
17.1885
18.6068
18.3993
16.9891
9.65474
9.57404
16.9767
18.4245
18.2161
16.7745
9.44904
9.369
16.7626
18.241
18.0317
16.5577
9.24305
9.16389
16.5464
18.0563
17.846
16.339
9.03717
8.95916
16.3285
17.8703
17.6589
16.1186
8.83189
8.75531
16.109
17.6829
17.4704
15.8969
8.62773
8.55287
15.8882
17.4941
17.2804
15.674
8.42528
8.35247
15.6665
17.3038
17.089
15.4506
8.2252
8.15476
15.4443
17.112
16.8962
15.2269
8.0282
7.96049
15.2221
16.9189
16.7022
15.0036
7.83505
7.77043
15.0005
16.7246
16.5073
14.7814
7.64663
7.58536
14.7801
16.5295
16.3119
14.5614
7.46404
7.40585
14.5619
16.3338
16.1161
14.3444
7.28839
7.23325
14.3465
16.1378
15.92
14.1304
7.1204
7.0684
14.1337
15.9413
15.7235
13.9196
6.96057
6.9119
13.924
15.7443
15.5264
13.7127
6.80965
6.76474
13.7185
15.5467
15.3289
13.5108
6.66875
6.62794
13.5181
15.3487
15.1313
13.3148
6.5388
6.50236
13.3237
15.1504
14.9336
13.1252
6.42053
6.38868
13.1356
14.9521
14.7362
12.9422
6.31453
6.28739
12.9541
14.754
14.5393
12.7663
6.22116
6.19883
12.7796
14.5565
14.3434
12.5978
6.14069
6.12331
12.6125
14.3599
14.1491
12.438
6.07313
6.06297
12.4506
14.1655
13.9571
12.2786
6.0207
6.01602
12.2896
13.9729
13.7665
12.122
5.98019
5.98069
12.1323
13.7817
13.578
11.971
5.95196
5.95789
11.9813
13.5928
13.3928
11.8279
5.93352
5.94524
11.8385
13.4074
13.2121
11.6942
5.92563
5.94293
11.7056
13.227
13.0377
11.5701
5.92852
5.95088
11.5823
13.0531
12.8707
11.4531
5.94235
5.96792
11.4662
12.8866
12.7109
11.3439
5.96387
5.99232
11.3588
12.7276
12.5599
11.2457
5.99217
6.02299
11.2628
12.5776
12.4188
11.1598
6.02599
6.06031
11.1791
12.4377
12.2882
11.0861
6.06585
6.10286
11.1069
12.3085
12.1688
11.0237
6.11107
6.15062
11.0465
12.1906
12.0608
10.9719
6.16088
6.20171
10.9973
12.0844
11.9647
10.9321
6.21317
6.25426
10.9601
11.9901
11.8807
10.9043
6.26665
6.30776
10.9347
11.9084
11.8095
10.8882
6.32095
6.3621
10.9207
11.8397
11.751
10.8831
6.37598
6.41688
10.9175
11.7834
11.7043
10.8883
6.43111
6.4714
10.9241
11.7389
11.6684
10.8988
6.4846
6.52321
10.9374
11.707
11.6416
10.9159
6.53555
6.57266
10.9573
11.6842
11.6238
10.9396
6.58417
6.61982
10.9839
11.6701
11.6144
10.9697
6.63049
6.66466
11.0165
11.6643
11.613
11.0054
6.67448
6.70715
11.0543
11.6663
11.6189
11.0456
6.71607
6.74725
11.0968
11.6754
11.6318
11.0896
6.75526
6.785
11.1431
11.691
11.6509
11.1371
6.79227
6.82063
11.1924
11.7126
11.6755
11.1871
6.82748
6.85454
11.2431
11.7393
11.7048
11.2383
6.86085
6.88648
11.2949
11.7702
11.7379
11.2904
6.89226
6.91649
11.3473
11.8048
11.7742
11.343
6.92174
6.94465
11.3999
11.8422
11.813
11.3957
6.94943
6.97112
11.4524
11.882
11.8539
11.4483
6.97545
6.99603
11.5046
11.9235
11.8962
11.5002
6.99996
7.01957
11.556
11.9663
11.9395
11.5514
7.02314
7.0419
11.6064
12.0097
11.9832
11.6015
7.04515
7.06317
11.6556
12.0534
12.0268
11.6503
7.06614
7.08354
11.7033
12.0969
12.0701
11.6976
7.08626
7.10309
11.7493
12.1397
12.1124
11.7428
7.10553
7.1218
11.7935
12.1815
12.1534
11.7859
7.12397
7.13972
11.8357
12.2218
12.1929
11.827
7.14163
7.15689
11.8758
12.2603
12.2304
11.8659
7.15856
7.17337
11.9136
12.2968
12.2658
11.9024
7.1748
7.18916
11.949
12.3311
12.2988
11.9365
7.19034
7.20424
11.9819
12.3628
12.3292
11.9681
7.20515
7.21858
12.0123
12.3918
12.3569
11.9973
7.21923
7.23217
12.0403
12.4181
12.3818
12.0239
7.23256
7.24501
12.0657
12.4415
12.4038
12.0481
7.24514
7.25707
12.0887
12.4621
12.4229
12.0698
7.25693
7.2684
12.1093
12.4797
12.4392
12.0892
7.26798
7.2791
12.1275
12.4944
12.4526
12.1064
7.27837
7.28915
12.1436
12.5063
12.4633
12.1214
7.28815
7.29866
12.1575
12.5155
12.4712
12.1344
7.29743
7.30777
12.1696
12.5219
12.4766
12.1456
7.3064
7.31674
12.1798
12.5258
12.4793
12.1553
7.31537
7.32614
12.1885
12.527
12.4794
12.1639
7.32515
7.33884
12.1952
12.5248
12.4723
12.1648
7.33625
7.4152
12.2022
12.5218
12.4727
12.0972
7.38518
7.45673
12.1422
12.537
12.4654
12.0932
7.47807
7.65708
12.1201
12.5301
12.6183
12.2515
7.78788
7.85523
12.2318
12.5771
12.5872
12.2844
7.9075
7.96818
12.226
12.5289
14.4212
16.437
19.3054
22.2476
25.5852
28.2375
30.5572
32.5526
34.336
35.9214
37.3579
38.6513
39.8254
40.8854
41.8427
42.7018
43.4682
44.1452
44.7352
45.2388
45.6564
45.9863
46.2279
46.3767
46.429
46.3782
46.2169
45.9359
45.5227
44.9655
44.243
43.3354
42.2211
40.8898
39.3053
37.4951
35.3926
33.2318
30.833
27.9184
25.0257
23.2826
20.3807
18.0329
16.9015
14.227
12.3045
5.20716
5.16278
12.273
14.2809
14.0988
12.0696
4.99242
4.84937
12.1074
14.1215
14.1639
12.047
4.84624
4.84494
12.0721
14.1682
14.1426
12.0145
4.85243
4.69889
12.0257
14.1449
14.1984
12.0441
4.69941
4.68044
11.9861
14.1978
14.2464
12.035
4.69995
4.70201
12.0437
14.26
14.2918
12.0681
4.71271
4.71998
12.0791
14.3057
14.3381
12.1044
4.73019
4.73805
12.1157
14.3523
14.3855
12.1419
4.74871
4.75711
12.1538
14.4
14.4338
12.1806
4.76811
4.77667
12.1927
14.4486
14.4831
12.2201
4.78801
4.79695
12.2327
14.4983
14.5334
12.2606
4.80851
4.81752
12.2732
14.5489
14.5847
12.3017
4.82938
4.83874
12.3148
14.6005
14.6369
12.3437
4.85079
4.8602
12.3569
14.653
14.6902
12.3864
4.87253
4.88228
12.4
14.7066
14.7445
12.4299
4.8948
4.90458
12.4436
14.7612
14.7999
12.4741
4.91736
4.92747
12.4883
14.817
14.8563
12.5192
4.94043
4.95057
12.5335
14.8737
14.9139
12.565
4.96379
4.97425
12.5797
14.9317
14.9726
12.6117
4.98765
4.99813
12.6265
14.9907
15.0324
12.6591
5.0118
5.02261
12.6744
15.0511
15.0936
12.7075
5.03645
5.0473
12.7228
15.1125
15.1558
12.7566
5.06142
5.0726
12.7724
15.1753
15.2195
12.8067
5.08692
5.09815
12.8226
15.2392
15.2844
12.8576
5.11277
5.12435
12.874
15.3047
15.3507
12.9095
5.13918
5.15083
12.9261
15.3714
15.4185
12.9624
5.16599
5.17801
12.9795
15.4396
15.4877
13.0165
5.1934
5.2055
13.0338
15.5093
15.5584
13.0715
5.22124
5.2337
13.0894
15.5805
15.6307
13.1278
5.24968
5.26224
13.1458
15.6533
15.7045
13.1851
5.27857
5.2915
13.2037
15.7277
15.7801
13.2436
5.3081
5.32115
13.2625
15.8037
15.8573
13.3034
5.33813
5.35157
13.3228
15.8816
15.9363
13.3646
5.36885
5.38243
13.3843
15.9611
16.0171
13.427
5.4001
5.41407
13.4474
16.0426
16.0999
13.491
5.43205
5.44617
13.5117
16.1259
16.1845
13.5564
5.46456
5.4791
13.5777
16.2112
16.2712
13.6234
5.49784
5.51255
13.645
16.2984
16.3598
13.6919
5.53175
5.5469
13.7142
16.3879
16.4507
13.7622
5.5665
5.58185
13.785
16.4793
16.5437
13.8342
5.60195
5.61779
13.8578
16.5731
16.639
13.9082
5.63833
5.65439
13.9323
16.669
16.7365
13.9842
5.67544
5.692
14.009
16.7674
16.8365
14.0623
5.71355
5.73036
14.0878
16.8681
16.9389
14.1426
5.75247
5.76982
14.1689
16.9714
17.0438
14.2253
5.79246
5.81009
14.2523
17.077
17.1511
14.3103
5.83335
5.85153
14.3383
17.1852
17.261
14.398
5.87536
5.89386
14.4267
17.2957
17.3732
14.4883
5.91836
5.93744
14.518
17.4089
17.4879
14.5816
5.96257
5.982
14.6121
17.5242
17.6049
14.6778
6.00789
6.02795
14.7095
17.642
17.7241
14.7777
6.05457
6.07506
14.8105
17.7618
17.8454
14.8816
6.10255
6.1237
14.9159
17.8837
17.9683
14.9903
6.15204
6.17359
15.0263
18.0069
18.0922
15.1048
6.20281
6.22488
15.143
18.131
18.2157
15.2261
6.2548
6.2769
15.2666
18.254
18.3367
15.3547
6.30723
6.32916
15.3981
18.3737
18.4516
15.4909
6.3592
6.37987
15.5368
18.4855
18.5544
15.6323
6.40841
6.42677
15.6797
18.5833
18.6371
15.7732
6.45184
6.46599
15.8191
18.6574
18.6882
15.9007
6.48427
6.49287
15.9399
18.6959
18.7041
15.9915
6.49898
6.49974
16.0129
18.6798
18.6667
16.023
6.49671
6.48297
16.0074
18.5958
18.552
15.9638
6.46215
6.42825
15.8693
18.4367
18.3631
15.776
6.39815
6.36211
15.6147
18.2112
18.1134
15.4611
6.34453
6.33474
15.2435
17.9332
17.8163
15.048
6.33666
6.35443
14.7843
17.619
17.496
14.5616
6.40347
6.47521
14.2757
17.2988
17.1953
14.0509
6.59774
6.76849
13.77
17.0242
16.9447
13.5662
7.02017
7.3157
13.4603
16.8391
16.7639
13.4294
7.56602
7.78076
13.2209
16.6721
16.6274
12.7968
8.033
8.37412
12.5255
16.5331
16.6241
12.3695
8.73528
9.09259
12.3819
16.6309
16.6929
12.1699
9.46574
9.93874
12.1971
16.7581
17.0265
12.177
10.3284
10.7394
12.397
17.0766
17.3828
12.4465
11.1878
11.6893
12.6907
17.4503
17.9964
12.8432
12.1177
12.4093
13.3899
18.3019
19.1309
14.4557
12.5329
12.467
15.1051
19.6686
20.1727
16.0472
12.173
6.15189
9.07016
10.9809
16.4726
11.5737
7.21646
7.03092
10.6997
15.6712
15.4219
10.1804
7.28337
7.72111
10.1585
15.4986
15.1201
9.90789
8.21819
8.85186
10.0039
15.2848
15.1119
9.87225
9.5529
10.274
10.2601
15.642
15.4935
10.1504
10.9108
11.714
10.8459
16.2424
16.4205
11.0851
12.3616
12.7027
12.3249
17.7054
18.4702
13.1489
12.784
12.6095
14.642
19.7655
9.89727
8.20707
8.41271
9.9021
10.8474
16.2562
16.1677
10.5669
10.2041
10.9558
11.4544
17.6697
17.8035
11.5167
11.3985
12.0231
12.1456
18.8192
19.1414
12.5006
12.5502
13.0179
13.25
20.1435
21.0022
13.7147
13.2414
13.3378
15.3429
22.3399
22.6624
16.2875
13.2991
9.0885
8.45912
10.2965
17.5714
10.9933
10.4232
10.7046
10.343
17.1105
18.0475
11.0317
11.712
12.3933
11.844
18.9583
19.1837
12.1966
13.0092
13.6124
13.847
21.1475
22.1966
14.9705
13.9383
14.1101
17.2208
23.9488
11.0584
8.82181
10.4513
12.1632
11.8917
19.8505
20.4779
12.2599
12.6856
13.4542
13.9076
23.2923
24.1725
14.6826
13.848
14.3875
16.1888
26.3752
27.841
17.8091
14.8164
15.1221
19.9792
28.5054
12.8291
9.82721
11.4537
12.9023
13.3591
23.3095
24.1709
13.734
13.3603
14.2604
16.0471
26.9016
27.9001
17.3069
14.7441
15.2552
21.0005
30.2006
13.6405
9.8283
11.2609
13.1596
14.3191
25.9933
27.297
15.1409
13.7125
14.5299
17.879
31.7953
33.3377
19.1422
15.1865
16.2253
23.3229
37.3066
37.7368
25.6968
17.0317
12.4125
11.9235
17.3756
33.0439
17.7797
14.2967
15.0559
18.9133
34.2994
40.5828
25.0842
16.5
17.5169
28.3331
42.3975
21.0648
12.8253
12.8199
15.0687
21.5562
40.377
43.4133
24.4486
16.0594
17.8409
31.9067
51.0536
51.8428
35.3183
19.2873
13.1788
15.7403
27.3946
49.9991
28.344
15.9649
17.3805
31.6577
53.1953
58.8633
40.699
20.4222
13.0393
16.9132
32.9252
59.6294
33.9939
16.9249
19.6323
40.2459
65.5526
73.1157
52.3419
23.5852
13.8715
23.3575
45.9551
78.2556
50.4647
20.1667
23.0031
57.0379
81.9485
56.071
27.4548
13.5896
22.2665
63.0284
94.0017
99.9015
71.8241
25.9257
13.4342
37.1747
74.7481
116.108
83.003
27.4061
33.0954
95.9614
126.125
110.225
67.0228
15.7758
31.6715
104.272
135.767
141.546
106.273
28.8809
43.4698
123.67
156.861
155.934
120.142
41.7053
42.3623
114.414
153.367
154.771
117.641
49.234
54.7971
119.917
155.322
163.176
146.132
80.5373
57.4523
75.1079
115.123
130.441
109.516
67.8752
51.7753
59.8786
83.2121
102.376
84.5799
57.8124
47.2366
49.0038
64.1305
83.5942
65.7665
49.3994
41.7853
42.3071
53.5971
70.8308
55.996
44.311
38.2759
37.4722
46.886
61.3099
46.005
39.2748
36.6544
39.2673
53.3401
31.205
25.9791
34.5913
33.3366
32.2113
45.6005
39.1088
28.8715
31.9287
31.9752
20.9853
23.4472
34.7955
26.6946
29.9123
29.6841
20.6972
23.9114
35.0135
25.0123
28.0389
27.8634
22.5511
29.8611
19.0923
18.0989
28.5188
25.7652
21.3955
28.1495
24.793
19.4637
25.9584
27.1424
16.3475
16.5425
24.0445
18.4952
23.9472
24.497
16.9208
21.3444
14.6589
14.7597
25.6183
22.2994
16.438
20.9178
18.6437
15.2596
23.2215
25.1502
13.6696
13.3127
18.2592
14.6322
21.2076
22.1025
13.9453
16.6406
12.1404
12.6892
24.1189
20.0711
13.3057
16.4735
15.125
12.9645
21.1758
23.3551
12.0529
11.3102
15.232
12.4933
19.2847
20.0531
11.7464
13.2393
12.2249
11.7466
21.3283
23.0189
10.8597
10.1243
11.587
10.1794
18.2296
19.5486
10.2427
11.1045
8.8226
10.0411
21.7985
17.382
9.38068
10.7572
10.3164
9.73811
18.9214
21.065
9.82023
8.40293
9.82066
8.74415
16.8732
18.4788
9.22348
9.49952
7.96565
9.56642
20.8126
16.6344
8.62476
9.48635
9.09971
8.6699
18.2107
20.6547
9.68541
7.64204
8.53207
8.20318
16.3344
17.9505
8.2533
8.34504
7.29119
9.44614
20.6153
16.3139
8.06689
8.37556
8.10324
8.00048
17.9764
20.4779
9.63963
7.12086
7.73855
7.67265
16.1492
17.787
7.65658
7.57614
6.80778
9.41634
20.1499
15.867
7.41641
7.49064
7.34867
7.54495
17.6603
20.2482
9.30063
6.69276
7.16397
7.20948
16.0196
17.741
7.27098
6.93181
6.4816
9.34444
20.2822
15.8125
7.11431
7.0217
6.66403
7.04547
17.5377
20.1105
9.32982
6.3235
6.77857
6.92328
15.8122
17.5757
6.84254
6.33515
6.20054
9.5007
20.0581
15.963
6.8741
6.68749
6.13745
6.77668
17.6303
20.0635
9.48349
6.11388
6.42446
6.69945
15.6579
17.492
6.65592
5.92674
5.957
9.53367
20.172
15.9477
6.59976
6.33674
5.74749
6.42394
17.636
20.2699
9.53781
5.86246
6.02051
6.39949
15.8167
17.6509
6.42605
5.53297
5.65806
9.35415
20.2171
15.7853
6.23776
5.86906
5.32236
6.13877
17.6023
20.3044
9.42623
5.51885
5.57787
6.03683
15.8763
17.8199
6.09363
5.11845
5.37939
9.40873
20.4914
15.6994
5.88008
5.41622
4.97471
6.0791
17.6725
20.0471
9.75489
5.3982
4.93259
5.14487
15.7742
18.9874
7.90398
4.87752
5.16689
5.36416
15.1013
17.2912
5.65881
4.76385
5.10652
9.39581
20.2226
16.0162
5.67748
5.17624
4.77316
5.87827
18.044
20.8718
9.646
5.16798
5.09308
5.71771
15.9076
17.9098
5.81452
4.70564
5.11311
9.49285
20.7924
16.148
5.62207
5.00315
4.60453
5.67692
18.2439
21.2365
9.86322
5.23553
4.64164
4.95577
16.2949
19.5674
7.97104
4.71634
4.92541
5.22159
15.5693
17.6826
5.48214
4.5628
5.05449
9.75908
20.7995
16.2756
5.71772
5.05897
4.71351
5.81974
18.4125
21.5527
9.93977
5.23583
5.0913
5.7013
16.713
19.0098
5.96985
4.7192
5.41587
10.3268
22.2048
17.1386
5.08965
4.77359
4.90307
8.54544
20.5256
16.0867
5.2973
4.98633
4.61285
5.7735
18.4726
21.6909
10.3576
5.22682
4.99373
5.69583
16.6677
19.0593
6.01082
4.64168
5.44469
10.5092
22.4483
17.4734
5.05371
4.71021
4.84761
8.57971
21.1082
16.6842
5.2695
4.89787
4.52963
5.66321
19.0762
22.4554
10.4938
5.23322
4.97416
5.75515
17.5023
19.8295
5.97971
4.64865
5.54053
10.9663
23.3082
17.8609
5.33613
4.80486
4.98719
8.82552
21.3377
16.9907
5.37047
4.97024
4.58311
5.76255
19.5916
23.0961
11.2161
5.50656
4.7786
5.14328
17.9205
21.8942
9.21344
5.04136
5.03858
5.48118
17.3742
19.9606
5.91408
4.67529
5.66949
11.3816
23.7597
18.7202
5.42482
4.91419
5.19354
9.33046
22.4475
17.3279
5.55325
5.10984
4.78478
6.16813
19.8044
23.3594
11.359
5.63545
5.17769
6.06294
18.5546
21.1867
6.39813
4.86171
5.93134
11.8524
25.0973
19.4896
5.53806
5.01838
5.32136
9.65762
23.3737
18.4954
5.63123
5.10826
4.73406
6.07486
21.0999
24.6893
12.0705
5.8354
4.99553
5.49038
19.3902
23.3443
9.78103
5.3588
5.13783
5.6731
18.4179
21.0873
6.24209
4.798
5.86225
12.2752
24.7915
19.7951
5.62952
5.02869
5.3959
9.77282
24.0412
18.9286
5.67759
5.12454
4.76305
6.15986
21.7519
25.6396
12.5157
6.01462
5.10549
5.57804
20.198
24.4567
10.2473
5.56828
5.23371
5.79336
19.2552
22.1812
6.49076
4.90805
6.17432
12.5785
26.3466
20.7029
5.87907
5.18712
5.61514
10.2132
24.8035
19.2544
5.83132
5.2448
4.88853
6.39843
22.159
26.5139
12.876
6.29369
5.2499
5.64234
20.8481
25.5849
11.3314
6.04331
5.19894
5.23562
19.612
24.5808
10.4997
5.741
5.39396
5.87356
19.1305
22.3509
6.80274
5.1219
6.49059
13.5405
26.8377
21.29
6.08496
5.48846
6.06013
11.1662
26.0489
20.3105
6.20123
5.58379
5.25084
6.95599
23.3313
27.4069
13.7879
6.67723
5.57919
6.16549
21.7015
26.8959
11.8572
6.43094
5.48751
5.61997
20.9755
25.7877
10.9702
6.08584
5.6539
6.22277
20.6055
23.8472
7.01151
5.33312
6.83894
14.1657
28.3854
23.0475
6.4214
5.72155
6.29804
11.4989
27.7091
21.4887
6.40384
5.73347
5.41561
7.22196
24.693
29.4215
14.3214
7.02572
5.77582
6.40964
23.035
27.9403
12.4481
6.71349
5.68756
5.80491
21.5693
26.7905
11.3104
6.31751
5.78952
6.35343
20.825
24.2916
7.30921
5.49856
7.17308
14.6152
29.6938
23.3023
6.65638
5.88182
6.65412
12.3858
28.73
22.3111
6.64983
5.9345
5.63522
7.63084
25.846
30.5961
15.3499
7.43392
5.96602
6.64451
24.2885
29.7487
13.2082
7.08382
5.88796
6.07947
22.7122
28.1065
12.3202
6.67212
5.99461
6.76174
22.374
25.7958
7.63236
5.68623
7.63901
15.3496
31.0406
24.5732
6.78415
5.98916
7.07368
13.0781
30.1418
23.8087
5.9583
5.85407
6.65027
12.1901
29.2308
22.9484
6.6939
5.96357
5.64834
7.56019
26.4941
31.5799
15.9184
7.69335
6.07288
6.8038
25.3936
31.2132
13.4365
7.27091
5.98797
6.06463
24.1465
29.9642
12.8732
7.0692
5.98202
6.19181
23.5805
29.1258
12.84
6.90268
6.2012
6.94761
22.7353
26.4201
8.06001
5.9618
8.01322
16.3143
31.8275
25.4139
7.20227
6.38157
7.64475
14.1213
31.9192
24.8208
6.5905
6.29641
7.19498
13.0533
30.6198
23.9033
7.14606
6.40445
6.10947
8.17893
27.7021
33.9212
16.9603
8.34423
6.50556
7.43793
26.5251
32.7956
14.4
7.86898
6.44036
6.61635
25.7259
31.6101
13.38
7.43301
6.51603
7.25223
24.485
28.3164
8.4423
6.24543
8.65698
17.4307
34.5237
27.418
7.65012
6.61487
8.13205
14.9894
33.7177
26.0619
6.63415
6.46317
7.78311
13.9102
32.5179
25.2798
6.57261
6.39261
7.5221
13.8892
31.5706
24.5412
7.37468
6.53746
6.28061
8.63214
28.6299
34.8252
17.7786
8.75376
6.73001
7.72084
27.8148
34.6766
15.2349
8.35623
6.63182
6.90588
26.8189
33.3274
14.4724
8.08482
6.65728
6.97532
26.1841
32.586
14.5738
7.86985
6.81391
7.73075
25.2856
29.5468
9.19255
6.58755
9.25392
18.4148
36.4543
28.7029
8.19519
7.02801
8.70963
15.6601
35.4366
27.5324
7.16125
6.84199
8.21301
15.0026
33.8581
26.2633
7.84751
6.89391
6.62717
9.10221
30.5847
37.7916
18.8437
9.33178
7.01764
8.0712
29.6216
36.8571
16.0709
8.83893
6.80608
7.10337
28.4743
35.69
15.2459
8.46729
6.76788
7.02189
27.832
34.8793
15.2079
8.40695
6.8715
7.32873
27.3218
34.0002
15.3705
8.31807
7.0635
8.20444
26.8316
31.2658
9.62652
6.85254
9.84531
19.9707
38.3641
30.4994
8.60911
7.39237
9.30969
16.7387
37.9921
29.4631
7.53044
7.13313
8.86191
15.8995
36.4829
28.3944
7.54428
7.04907
8.62544
15.8735
35.2697
27.9011
8.39107
7.16355
6.92008
9.57203
32.2952
39.3708
20.3553
9.95203
7.42469
8.68965
31.1909
39.268
17.4042
9.50657
7.23812
7.71819
30.263
37.6336
16.1965
9.08692
7.16033
7.58588
29.5808
36.7253
16.3102
8.86182
7.29141
8.56162
28.6011
33.2687
10.1328
7.08469
10.465
20.9261
41.1011
32.5184
9.11416
7.6538
9.85053
17.9576
40.4964
31.7519
7.91619
7.37893
9.4463
16.9799
39.2892
30.4594
7.76305
7.26407
9.28823
16.8459
38.2659
30.0786
7.98385
7.25109
9.06282
16.8396
37.5953
29.3147
8.78503
7.40521
7.18042
10.2874
34.0502
41.7895
21.5914
10.5975
7.79705
9.40117
33.4363
41.8706
18.3496
10.0888
7.58289
8.09277
32.4297
40.273
17.4703
9.73147
7.51964
8.19746
31.5772
39.272
17.5549
9.53592
7.59872
9.24047
31.0245
35.973
10.7928
7.41119
11.182
22.9973
43.8175
34.9287
9.59158
7.99211
10.4648
19.3588
43.6835
33.7103
8.34092
7.65534
9.96526
17.961
41.8831
32.7633
8.09569
7.48149
9.77553
17.9151
40.9092
31.9678
8.33957
7.49151
9.60958
18.0108
40.0943
31.4746
9.27544
7.59734
7.39695
10.8643
36.5547
44.9922
23.4222
11.2862
8.11387
9.9275
35.3638
44.5242
19.7885
10.7303
7.87672
8.49671
34.5787
43.2789
18.5234
10.2822
7.77008
8.45514
33.9547
42.4193
18.6209
10.2221
7.82185
8.73989
33.0804
41.216
18.6462
10.1143
7.92554
9.81522
32.7119
38.1698
11.6889
7.78409
12.1281
23.9705
47.7946
37.6215
10.1767
8.49256
11.2782
20.6143
47.0991
35.9661
8.85105
8.11245
10.7724
19.461
44.9557
34.8779
8.71039
7.96778
10.5542
19.3676
43.8795
34.3736
9.01151
7.97943
10.3501
19.2504
42.9541
33.7428
9.94754
8.04177
7.86062
11.7066
39.1593
48.5804
24.5393
12.2291
8.67459
10.4046
38.1286
48.1894
21.2318
11.6048
8.39755
9.2501
36.8989
46.4506
20.2416
11.1234
8.29541
9.18347
36.3548
45.3939
19.9212
11.0335
8.3294
9.26633
35.6002
44.6688
19.9387
11.0086
8.41074
9.53596
34.9764
43.4794
20.0676
10.9407
8.52265
10.6143
34.3022
39.913
12.5562
8.40994
13.0751
26.0969
49.5902
39.448
11.266
9.25458
12.3263
22.0537
49.9554
38.8591
9.72157
8.905
11.8056
21.2673
48.5811
37.523
9.77894
8.75348
11.6736
21.1488
46.8947
36.5592
10.0136
8.72947
11.4318
21.0928
45.7276
35.8436
10.9303
8.74915
8.60725
12.7965
41.5554
51.3474
26.6846
13.46
9.40747
11.5622
40.5588
51.6592
23.2861
12.7108
9.11414
10.1237
39.8509
49.9866
21.885
12.1598
8.98381
10.0496
38.5835
48.2913
21.7851
11.9932
8.99408
10.3545
37.5168
46.7315
21.7371
11.8248
9.0019
11.3279
36.8383
42.856
13.4528
8.93463
14.1124
27.9286
53.2396
42.3008
12.061
9.83885
13.3531
24.1678
53.9312
41.3349
10.6195
9.41669
12.7324
22.9761
51.6556
40.4889
10.569
9.25223
12.5026
22.6315
50.7534
39.7767
10.5941
9.19454
12.2053
22.5296
49.5658
38.5696
11.5616
9.16946
9.065
13.6593
44.6089
55.3686
28.5684
14.5257
9.99594
12.2822
43.6003
55.6284
24.9093
13.7039
9.62241
10.8235
42.6898
53.6575
23.6362
13.0934
9.50104
10.7022
41.5749
52.1348
23.057
12.8501
9.50341
10.7382
40.9955
51.3481
23.1666
12.8467
9.58858
11.1464
40.4772
50.4398
23.1561
12.741
9.60879
12.2081
39.8196
46.3776
14.6943
9.57298
15.3518
30.4065
57.8194
45.6717
13.1142
10.584
14.4418
25.9777
57.9394
45.0678
11.5
10.0773
13.6627
24.4999
55.9372
43.4626
11.1605
9.84147
13.4776
24.3595
53.9668
42.2594
11.5981
9.87621
13.2271
24.2936
52.4253
41.0171
12.5792
9.8203
9.74433
14.7757
47.3978
58.9417
31.1293
15.7014
10.8064
13.5271
46.3631
59.404
26.9674
14.8727
10.3881
11.8321
45.4714
56.8189
25.3287
14.1423
10.2391
11.6234
44.513
55.8558
25.1452
13.9774
10.273
11.938
43.4498
54.2248
25.2119
13.8188
10.247
13.1928
42.724
49.5019
15.6434
10.239
16.5801
32.7401
61.5733
49.2734
14.3084
11.3236
15.5642
27.8525
62.6392
48.11
12.0926
10.764
14.8573
26.6438
59.646
46.3871
12.2009
10.5484
14.5389
26.3008
58.0805
45.207
12.4168
10.5489
14.1883
26.1031
56.0472
43.5515
13.448
10.4515
10.4228
16.0867
50.6064
63.4244
33.6437
17.0156
11.6167
14.6469
49.5509
63.4281
28.6798
15.94
11.101
12.7119
49.0229
60.858
27.1343
15.1999
10.9433
12.5708
47.4474
59.2133
26.8506
14.9886
10.9643
12.9443
46.8676
57.9591
26.6534
14.7424
10.9082
14.1258
45.8667
52.9776
16.6591
10.9244
17.9604
35.4302
66.0894
52.0202
15.546
12.1964
16.876
30.0167
66.2621
51.165
13.2309
11.5951
16.024
28.3911
63.4102
49.4354
13.2149
11.2887
15.3692
28.2269
61.0694
47.6535
14.4755
11.0756
11.062
17.0023
55.0006
68.2333
35.89
18.2813
12.2943
15.5895
53.6354
68.5897
30.7112
17.09
11.7387
13.2892
52.9581
65.7238
29.2052
16.3461
11.5339
13.2677
50.6923
63.5231
28.8776
16.0646
11.5286
13.6688
49.2434
61.2688
28.8595
15.7391
11.426
14.9633
48.0602
55.6148
17.7566
11.4847
19.0814
37.4167
69.7754
54.7157
16.2655
12.893
18.0598
32.1426
70.6756
54.0412
14.2026
12.3348
17.1751
30.6503
67.6488
52.8994
14.32
12.0172
16.5113
29.9701
65.1581
50.9696
15.3278
11.6578
11.6822
18.1561
58.6849
72.8352
38.6984
19.578
13.0815
16.737
56.4213
72.351
33.3667
18.4465
12.5157
14.7186
55.8239
69.6492
30.9967
17.4376
12.2386
14.3027
54.5721
67.8047
30.7043
17.1378
12.2038
14.6441
52.7744
65.3287
30.5899
16.7363
12.0775
15.8884
51.3984
59.5973
19.1868
12.1748
20.3767
39.6348
74.6055
58.6245
17.2975
13.659
19.237
34.5452
75.0363
57.7296
15.2377
13.0331
18.3313
32.6002
72.3563
55.8564
15.0746
12.7039
17.5391
31.9394
69.1785
54.136
16.3823
12.4166
12.4662
19.3632
62.2145
77.2053
41.0683
20.9074
13.985
18.0099
60.7222
77.5139
35.3233
19.654
13.3762
15.6171
59.1245
73.0755
33.2097
18.6559
13.0975
15.6038
56.8402
70.2492
32.7336
18.1178
12.8879
17.0524
55.3675
63.7325
20.0649
12.9662
21.7578
42.1147
79.7532
62.5998
18.4856
14.5108
20.5308
36.3661
80.1412
60.9592
16.0455
13.8384
19.4461
34.4896
75.5481
58.5363
16.0185
13.4611
18.6786
33.8029
72.3682
56.7325
17.4996
13.1828
13.2254
20.2017
65.0387
80.9725
42.851
22.1529
14.8385
18.643
63.8297
82.2173
37.4162
20.9577
14.2586
16.5632
63.4291
78.3113
35.3631
19.9786
14.0191
16.7385
60.7975
74.5532
34.8867
19.4053
13.7557
18.2025
58.3136
66.9778
21.5336
13.8517
23.15
44.6152
83.1117
65.5658
19.7815
15.4958
21.8946
38.8231
83.2966
63.5224
17.686
14.7555
20.2948
36.2348
77.8408
60.4822
18.4274
13.9881
14.0265
21.5868
69.265
85.8318
45.3664
23.5484
15.7232
19.9702
67.0522
85.3372
39.7719
22.2763
15.0584
17.8878
65.3322
81.14
37.4311
21.243
14.7669
17.6201
62.5919
77.1723
36.6464
20.4586
14.4029
19.2366
60.6612
69.8235
22.5106
14.5406
24.4616
47.1489
88.1168
69.4285
21.1247
16.3848
23.1406
41.0537
88.0147
67.4985
18.6327
15.6417
21.7927
38.5267
82.2513
63.5304
19.6503
14.9153
15.0093
22.9883
72.6764
90.0738
48.1369
25.0918
16.6882
21.6051
70.4762
89.3333
41.7112
23.5383
15.8811
18.928
68.448
83.4894
39.0643
22.0649
15.2002
20.084
64.5622
74.0452
23.7568
15.3459
25.8113
49.5315
92.1976
72.4073
22.0012
17.1969
24.3945
42.6945
91.9918
71.2588
19.4701
16.3868
22.8619
40.206
87.2239
67.6812
20.675
15.5574
15.6465
23.8827
77.4943
96.9253
50.8941
26.4561
17.4809
22.461
75.8626
96.2207
44.2453
24.9611
16.6958
19.8528
73.5998
89.4958
41.893
23.4202
15.9404
21.2059
68.4766
78.3189
25.1726
16.1369
27.3614
52.7727
97.322
75.6841
23.6176
18.0629
25.6402
45.3091
95.9504
73.8629
20.7149
17.1614
23.9871
42.5538
90.3378
69.478
21.5412
16.2576
16.3814
25.0404
79.3386
98.294
52.5636
27.5155
18.1987
23.8191
77.3566
97.2694
45.8035
25.6437
16.9978
22.3486
74.8517
85.6657
25.9653
17.0942
29.0616
55.931
106.561
82.3517
24.1454
18.9631
27.1837
47.6713
104.22
79.2635
21.1111
17.8728
25.5381
45.9454
98.3159
75.1188
23.1161
16.9975
17.1397