/*--------------------------------*- C++ -*----------------------------------*\
| =========                 |                                                 |
| \\      /  F ield         | OpenFOAM: The Open Source CFD Toolbox           |
|  \\    /   O peration     | Version:  v2006                                 |
|   \\  /    A nd           | Website:  www.openfoam.com                      |
|    \\/     M anipulation  |                                                 |
\*---------------------------------------------------------------------------*/
FoamFile
{
    version     2.0;
    format      ascii;
    class       volScalarField;
    location    "0.038";
    object      omega;
}
// * * * * * * * * * * * * * * * * * * * * * * * * * * * * * * * * * * * * * //

dimensions      [0 0 -1 0 0 0 0];


internalField   nonuniform List<scalar> 
41981
(
0.00939878
0.00939886
0.0093984
0.00939817
0.00939814
0.00939827
0.00939844
0.00939843
0.0093986
0.00939863
0.00939854
0.00939792
0.00939626
0.00939322
0.00938876
0.0093831
0.00937659
0.00936962
0.00936245
0.00935522
0.00934797
0.00934069
0.00933333
0.00932584
0.00931818
0.00931032
0.00930223
0.00929391
0.00928536
0.00927659
0.00926759
0.00925838
0.00924895
0.00923933
0.00922949
0.00921946
0.00920922
0.00919878
0.00918814
0.00917729
0.00916625
0.00915501
0.00914357
0.00913193
0.0091201
0.00910808
0.00909587
0.00908346
0.00907087
0.0090581
0.00904514
0.00903201
0.0090187
0.00900522
0.00899157
0.00897775
0.00896377
0.00894963
0.00893534
0.0089209
0.00890631
0.00889158
0.00887671
0.00886171
0.00884659
0.00883133
0.00881596
0.00880048
0.00878489
0.00876919
0.0087534
0.00873752
0.00872154
0.00870549
0.00868936
0.00867316
0.0086569
0.00864058
0.00862421
0.00860779
0.00859133
0.00857484
0.00855832
0.00854177
0.00852521
0.00850865
0.00849208
0.00847551
0.00845896
0.00844242
0.00842591
0.00840943
0.00839298
0.00837658
0.00836024
0.00834396
0.00832775
0.00831163
0.00829561
0.00827972
0.00826396
0.0082484
0.00823306
0.00821803
0.00820341
0.00818935
0.00817608
0.00816392
0.00815338
0.00814516
0.00814033
0.00814044
0.00814775
0.00816558
0.00819872
0.00825413
0.00834182
0.00847616
0.00867764
0.00897536
0.00941045
0.0100407
0.0109466
0.0122402
0.0140753
0.0166618
0.0202819
0.02531
0.0322321
0.0416639
0.0543651
0.0712486
0.0933971
0.122093
0.158864
0.205523
0.263638
0.330334
0.373654
0.372766
0.424807
0.433176
0.357558
0.230248
0.123984
0.0577175
0.0667606
0.353727
1.10514
3.092
7.69968
17.3786
38.6423
51.847
44.0492
110.577
314.252
1127.84
10095
55676.4
730409
740937
115091
26211.7
48644.6
169227
751279
754916
175635
55583
66816.9
183607
732726
720433
179941
67075.2
73219.6
183880
703874
691494
177463
72476.2
74932.5
180220
677667
674214
176291
74049
76051.1
176600
664251
658506
173430
74598.5
76444.2
174171
651331
647288
171994
74962.8
76753.7
173063
643058
640966
171561
75309.5
77122.8
172903
637994
636544
171696
75731.9
77583.1
173285
634097
632917
172260
76233.3
78117.4
174051
630739
629700
173030
76786.7
78680.3
174845
627694
626752
173820
77345.7
79234.7
175648
624886
624013
174613
77885.8
79764.8
176439
622266
621446
175389
78398.1
80265.6
177199
619802
619027
176134
78880.6
80737.1
177923
617470
616735
176839
79334.1
81179.7
178601
615255
614554
177507
79760
81596.5
179251
613143
612474
178143
80162
81991.3
179866
611124
610483
178745
80544
82367.4
180447
609188
608572
179312
80908.1
82726
180993
607328
606735
179844
81255.6
83068.3
181504
605536
604964
180343
81587.5
83395.6
181982
603806
603252
180809
81905.2
83709.2
182436
602130
601591
181246
82209.9
84009.7
182860
600501
599977
181652
82501.6
84297
183252
598914
598403
182027
82780.2
84571
183615
597366
596866
182373
83046.1
84832.2
183949
595851
595362
182692
83299.4
85080.7
184256
594367
593886
182984
83540.3
85316.8
184538
592909
592437
183252
83769.3
85541.1
184795
591477
591012
183495
83987
85754.1
185027
590066
589608
183715
84193.8
85956.4
185237
588675
588222
183913
84390.7
86148.9
185425
587300
586852
184090
84578.1
86332.2
185592
585940
585496
184246
84756.7
86506.6
185738
584592
584150
184383
84926.9
86672.5
185865
583253
582814
184500
85088.9
86830.4
185973
581922
581485
184599
85243.3
86980.6
186062
580596
580160
184680
85390.4
87123.4
186134
579273
578838
184744
85530.4
87259.1
186190
577952
577516
184792
85663.6
87388
186229
576631
576193
184824
85790.2
87510.4
186252
575307
574868
184840
85910.6
87626.4
186259
573980
573539
184841
86025
87736.2
186252
572647
572204
184828
86133.4
87840
186230
571309
570862
184801
86236
87938
186193
569962
569512
184759
86333.2
88030.5
186143
568606
568152
184704
86425.1
88117.8
186079
567240
566780
184635
86511.6
88199.5
186003
565860
565386
184553
86592.2
88274.9
185914
564463
563971
184459
86666.7
88344.4
185812
563048
562539
184353
86735.7
88408.7
185700
561616
561089
184236
86799.9
88468
185575
560166
559624
184106
86859.5
88522.7
185437
558700
558142
183963
86914.8
88572.9
185285
557216
556643
183807
86965.6
88618.5
185120
555714
555126
183636
87012
88659.2
184939
554193
553591
183451
87053.8
88695.2
184743
552654
552037
183250
87090.9
88726
184531
551094
550463
183033
87123
88751.4
184303
549512
548868
182799
87150
88771.5
184058
547909
547251
182549
87171.7
88785.9
183795
546283
545612
182282
87188
88794.6
183515
544633
543950
181998
87198.6
88797.2
183218
542959
542265
181695
87203.3
88793.4
182901
541261
540555
181374
87201.7
88783
182566
539538
538821
181034
87193.4
88765.4
182210
537789
537062
180673
87178.1
88740.2
181834
536015
535279
180291
87155.1
88706.9
181437
534217
533472
179888
87124
88664.9
181017
532393
531641
179463
87084.2
88613.5
180574
530546
529787
179014
87034.9
88552.1
180108
528676
527912
178538
86975.5
88479.8
179616
526784
526016
178034
86904.8
88395.5
179099
524872
524102
177506
86822.1
88298.6
178558
522942
522171
176951
86726.7
88188.2
177989
520995
520225
176369
86617.2
88062.8
177392
519034
518267
175757
86492.5
87921.2
176765
517063
516302
175115
86351
87761.8
176107
515085
514332
174441
86191.1
87583
175418
513105
512363
173735
86011.2
87383.1
174695
511129
510400
172994
85809.4
87160.1
173938
509161
508449
172220
85583.8
86912.1
173147
507208
506517
171409
85332.3
86637
172320
505278
504611
170563
85052.7
86332.8
171457
503379
502739
169681
84743.1
85997.3
170558
501518
500909
168763
84401.1
85628.4
169624
499708
499127
167809
84024.7
85224.3
168654
497961
497408
166821
83612.4
84783.7
167652
496283
495760
165802
83162.7
84305.4
166620
494681
494189
164754
82674.3
83788.2
165561
493163
492708
163681
82146.7
83232.3
164478
491741
491326
162587
81580.5
82638.7
163377
490426
490053
161478
80977.1
82009.2
162262
489225
488898
160360
80338.5
81346.6
161142
488145
487865
159242
79668.3
80654.8
160025
487191
486960
158132
78970.4
79938.1
158918
486367
486186
157037
78248.1
79199.2
157819
485673
485564
156003
77504.8
78450.1
156776
485132
485078
155012
76760.4
77701.2
155778
484713
484712
154071
76017.7
76956.3
154836
484419
484473
153192
75282.6
76221.8
153959
484225
484339
152385
74563.2
75505.4
153156
484140
484311
151654
73859.5
74812.3
152439
484165
484388
151008
73182.8
74154.2
151828
484302
484558
150470
72545.4
73540.4
151321
484518
484804
150012
71951.1
72971.4
150907
484805
485115
149635
71402.1
72449.5
150582
485147
485493
149353
70902.1
71978.9
150353
485552
485925
149161
70452.2
71559.5
150209
486011
486410
149054
70054
71192.5
150151
486517
486930
149034
69709.3
70882.1
150184
487049
487464
149104
69421.7
70630.3
150306
487592
488008
149257
69191.2
70434.3
150503
488144
488560
149477
69014.2
70290.5
150762
488703
489116
149757
68888.2
70196.7
151078
489263
489669
150092
68811.1
70148.4
151441
489806
490195
150471
68776.8
70141.5
151858
490323
490697
150892
68782.4
70172.5
152306
490816
491175
151344
68824.3
70237.9
152781
491285
491629
151821
68899.1
70334.2
153274
491731
492060
152314
69003.1
70457.6
153778
492152
492465
152817
69132.6
70604.1
154286
492549
492847
153322
69283.4
70769.7
154792
492923
493207
153821
69451.6
70950.9
155293
493279
493550
154313
69634.2
71144.1
155779
493616
493872
154788
69827.2
71345.5
156244
493932
494174
155243
70027
71551.4
156686
494229
494458
155675
70229.9
71758.6
157104
494508
494724
156082
70433.3
71964.7
157497
494769
494974
156464
70635
72167.9
157869
495015
495209
156819
70833
72366.2
158213
495248
495433
157147
71025.6
72557.9
158528
495468
495646
157447
71211.3
72741.8
158817
495678
495849
157721
71389
72917.2
159080
495879
496044
157972
71558.3
73083.8
159321
496070
496230
158200
71718.9
73241.3
159540
496254
496408
158408
71870.6
73389.9
159738
496429
496579
158596
72013.6
73529.4
159918
496597
496742
158767
72147.7
73660.1
160081
496758
496899
158922
72273.3
73782.3
160229
496912
497048
159062
72390.8
73896.6
160364
497059
497190
159191
72500.6
74003.3
160488
497198
497324
159308
72603.1
74102.9
160601
497330
497451
159417
72698.9
74195.9
160706
497454
497570
159517
72788.4
74282.8
160803
497571
497682
159611
72872.1
74363.9
160893
497680
497787
159698
72950.1
74439.6
160978
497782
497887
159780
73022.7
74509.9
161058
497879
497980
159857
73090.1
74574.9
161132
497970
498070
159928
73151.9
74633.9
161200
498059
498159
159993
73207.2
74685.4
161259
498147
498252
160046
73253.2
74723.3
161293
498244
498378
160050
73271.1
74847.9
161560
498634
494138
158571
73240.1
74649.7
162650
494940
494270
157839
72147.6
73485
158692
487111
463676
149336
68264.8
64112.4
142139
440300
419735
138643
63492.3
60875.8
133080
410611
399887
131651
59888.8
24302.4
13171.3
9012.55
7335.92
5715.55
4812.24
4172.57
3740
3409.58
3161.88
2963.88
2808.68
2683.04
2583.73
2504.58
2443.91
2398.69
2367.98
2350.4
2345.54
2353.2
2373.31
2406.38
2452.77
2514.06
2590.95
2686.42
2801.68
2941.99
3109.14
3312.58
3555.29
3854.61
4213.04
4666.63
5211.9
5936.91
6668.91
7769.05
9722.48
12171.8
13626.1
19602.4
31376.4
63610.7
162505
366772
1.27073e+06
1.30033e+06
367961
162386
172551
383497
1.33065e+06
1.36697e+06
386193
172213
173745
389486
1.3585e+06
1.36529e+06
390523
174704
176842
392588
1.38971e+06
1.4167e+06
397846
177394
176991
397114
1.41496e+06
1.41655e+06
401948
178740
178239
400761
1.41316e+06
1.41499e+06
400989
178307
178302
401033
1.41511e+06
1.41519e+06
401135
178317
178299
401143
1.4153e+06
1.41538e+06
401249
178308
178289
401264
1.4155e+06
1.41559e+06
401358
178296
178273
401362
1.41572e+06
1.41581e+06
401459
178278
178256
401470
1.41593e+06
1.41603e+06
401559
178261
178236
401561
1.41616e+06
1.41626e+06
401655
178239
178216
401667
1.41639e+06
1.41649e+06
401753
178219
178194
401755
1.41663e+06
1.41673e+06
401848
178197
178173
401859
1.41687e+06
1.41697e+06
401944
178176
178150
401947
1.41711e+06
1.41722e+06
402039
178153
178129
402050
1.41736e+06
1.41747e+06
402134
178132
178106
402137
1.41762e+06
1.41773e+06
402229
178109
178085
402240
1.41787e+06
1.41799e+06
402324
178089
178063
402328
1.41814e+06
1.41825e+06
402420
178067
178044
402432
1.41841e+06
1.41852e+06
402517
178048
178024
402521
1.41868e+06
1.4188e+06
402614
178029
178007
402628
1.41895e+06
1.41908e+06
402713
178012
177990
402719
1.41924e+06
1.41936e+06
402813
177996
177976
402829
1.41952e+06
1.41965e+06
402916
177982
177961
402924
1.41981e+06
1.41994e+06
403019
177969
177950
403037
1.42011e+06
1.42024e+06
403125
177959
177940
403136
1.42041e+06
1.42055e+06
403232
177949
177933
403251
1.42072e+06
1.42086e+06
403341
177944
177927
403354
1.42104e+06
1.42118e+06
403452
177939
177925
403474
1.42136e+06
1.4215e+06
403567
177939
177925
403582
1.42169e+06
1.42183e+06
403684
177940
177930
403709
1.42202e+06
1.42217e+06
403807
177947
177937
403825
1.42236e+06
1.42251e+06
403931
177956
177950
403959
1.42271e+06
1.42286e+06
404062
177972
177966
404084
1.42306e+06
1.42322e+06
404196
177990
177988
404228
1.42342e+06
1.42358e+06
404339
178015
178014
404365
1.42379e+06
1.42395e+06
404487
178047
178050
404524
1.42417e+06
1.42434e+06
404644
178085
178089
404677
1.42455e+06
1.42472e+06
404809
178131
178140
404852
1.42495e+06
1.42512e+06
404985
178186
178195
405024
1.42535e+06
1.42553e+06
405170
178249
178264
405221
1.42576e+06
1.42595e+06
405369
178322
178339
405418
1.42619e+06
1.42638e+06
405580
178407
178429
405641
1.42662e+06
1.42681e+06
405809
178503
178528
405869
1.42707e+06
1.42726e+06
406054
178613
178645
406128
1.42752e+06
1.42773e+06
406321
178737
178773
406396
1.42799e+06
1.4282e+06
406609
178879
178922
406699
1.42847e+06
1.42868e+06
406924
179038
179086
407018
1.42897e+06
1.42918e+06
407269
179219
179276
407381
1.42947e+06
1.4297e+06
407649
179422
179487
407767
1.42999e+06
1.43022e+06
408066
179652
179728
408207
1.43053e+06
1.43077e+06
408531
179912
179997
408684
1.43109e+06
1.43133e+06
409049
180204
180303
409231
1.43166e+06
1.4319e+06
409634
180534
180645
409842
1.43224e+06
1.43249e+06
410291
180905
181034
410559
1.43283e+06
1.43308e+06
411063
181324
181469
411387
1.43342e+06
1.43365e+06
411966
181790
181961
412388
1.43397e+06
1.43418e+06
413066
182311
182508
413600
1.43447e+06
1.43463e+06
414416
182891
183116
415121
1.43485e+06
1.43495e+06
416125
183531
183774
417043
1.43503e+06
1.43505e+06
418330
184220
184472
419589
1.43503e+06
1.43489e+06
421164
184917
185165
422717
1.43468e+06
1.43432e+06
424563
185615
185903
426423
1.43401e+06
1.43363e+06
428560
186370
186658
430820
1.43346e+06
1.43338e+06
433232
187045
187232
435521
1.43342e+06
1.43365e+06
438015
187382
187409
440298
1.43422e+06
1.43505e+06
442665
187289
186764
444637
1.43644e+06
1.43836e+06
445899
185995
184599
446336
1.44119e+06
1.4445e+06
446215
182871
179701
438337
1.42036e+06
1.39478e+06
429111
176792
174939
428307
1.40105e+06
1.42727e+06
426569
174692
170783
428855
1.43491e+06
1.41168e+06
409151
167467
165748
412192
1.3905e+06
1.371e+06
394871
162160
159124
391120
1.3492e+06
1.30864e+06
373692
155659
153410
366209
1.26996e+06
1.25198e+06
351948
153028
152042
348461
1.25462e+06
1.2132e+06
348406
152753
151690
315503
1.14253e+06
1.0703e+06
313597
153791
157655
300311
1.6768e+06
2.97717e+06
908930
373221
198480
510010
2.18578e+06
2.03621e+06
557934
221431
220302
562184
1.98304e+06
1.896e+06
533944
207638
209534
527667
1.82054e+06
1.79017e+06
494458
197499
197949
500827
1.71981e+06
1.66055e+06
443204
182607
187023
457659
1.59945e+06
1.51516e+06
413386
177599
179237
411920
1.45938e+06
1.3636e+06
381792
174219
175051
360872
1.20617e+06
1.82084e+06
316543
172095
389199
970675
2.99918e+06
2.10097e+06
473635
191801
202751
515153
1.78911e+06
1.61553e+06
432133
175128
176368
423017
1.52528e+06
1.4459e+06
399575
164582
163723
377799
1.34474e+06
1.27947e+06
347877
158532
158476
345321
1.19176e+06
1.09212e+06
310023
156812
163557
309166
1.69217e+06
2.84211e+06
924007
366666
186498
447862
2.02188e+06
1.84495e+06
493074
201736
194911
491819
1.72486e+06
1.58738e+06
417928
183816
185448
420126
1.49568e+06
1.36323e+06
381961
178768
178659
352995
1.20706e+06
1.82347e+06
319819
177944
389564
960431
3.01699e+06
2.04202e+06
472371
190069
195450
473125
1.68985e+06
1.49437e+06
399728
170363
168700
367334
1.33198e+06
1.19926e+06
341776
162545
163665
314717
1.08395e+06
1.66066e+06
312018
170709
367839
905610
2.78236e+06
1.93093e+06
429825
189208
194708
448648
1.62337e+06
1.45837e+06
391084
183035
186406
380630
1.27291e+06
1.89571e+06
340598
186510
401636
1.00456e+06
3.11069e+06
2.08294e+06
476440
197369
200157
466700
1.67415e+06
1.44382e+06
379157
173809
174154
367580
1.26409e+06
1.11717e+06
320986
168149
179407
322207
1.67882e+06
2.77051e+06
905414
376768
195560
434667
1.9175e+06
1.53918e+06
450540
202288
187010
361075
1.2866e+06
1.89393e+06
360048
193575
402496
987337
2.99753e+06
1.90986e+06
448798
197696
192924
407669
1.46132e+06
1.22008e+06
342874
174145
186138
343043
1.79755e+06
2.73909e+06
916248
381756
197570
405618
1.76084e+06
1.36773e+06
405094
199644
200593
379266
2.0618e+06
3.03655e+06
980001
411815
203940
441464
1.80591e+06
1.36583e+06
398843
193562
189536
361715
1.96564e+06
2.69532e+06
898791
381397
194201
405669
1.68011e+06
2.25724e+06
407104
201509
396269
943051
2.92092e+06
1.77364e+06
417799
189517
190300
413420
2.29906e+06
2.8075e+06
824899
349602
175150
390283
1.67952e+06
2.03734e+06
385614
169744
249223
557770
2.25366e+06
2.44362e+06
468880
201373
192406
435355
2.10082e+06
1.9225e+06
401568
174520
208380
497755
2.56745e+06
3.12789e+06
598234
251139
248452
604732
3.26671e+06
2.79614e+06
544286
219076
133249
295458
2.30505e+06
2.47801e+06
1.07961e+06
498153
259094
478446
2.92085e+06
2.8082e+06
1.21789e+06
611850
326878
514071
2.85917e+06
2.73755e+06
1.23583e+06
618341
346122
531671
2.61524e+06
2.4801e+06
1.06992e+06
568284
335074
478612
2.36126e+06
2.17224e+06
1.01277e+06
525346
300511
472400
1.85607e+06
1.5703e+06
540156
311490
579688
1.18563e+06
2.73824e+06
2.21205e+06
515029
326905
325120
534635
1.79848e+06
3.22767e+06
1.34142e+06
619180
356863
434714
2.6231e+06
2.32916e+06
1.02786e+06
523253
293540
458606
1.87246e+06
1.51819e+06
490850
296129
522965
1.06859e+06
2.54818e+06
1.91918e+06
451564
296325
294840
472423
1.55805e+06
2.73702e+06
1.12864e+06
526807
295115
464577
2.00588e+06
1.54524e+06
477586
291440
513983
1.0743e+06
2.60619e+06
1.94098e+06
440541
286787
284424
465086
1.54518e+06
2.63207e+06
1.06274e+06
508216
282310
438169
1.89987e+06
1.50649e+06
461334
279013
495918
1.03766e+06
2.59506e+06
1.85079e+06
423551
273140
271076
447347
1.46622e+06
2.5001e+06
1.0086e+06
480365
264568
402394
1.71879e+06
1.26484e+06
442166
260171
275215
522732
1.80606e+06
3.19764e+06
1.22396e+06
549651
287890
475535
2.23762e+06
1.67237e+06
479078
280351
515073
1.10629e+06
2.86107e+06
2.10462e+06
444510
275387
271823
466840
1.63842e+06
2.81113e+06
1.08951e+06
501848
270534
429455
2.02409e+06
1.5895e+06
460648
269824
501150
1.10237e+06
2.84275e+06
2.02996e+06
437704
268491
264395
451014
1.56198e+06
2.71363e+06
1.06887e+06
491806
265156
427268
1.95293e+06
1.52373e+06
449511
263216
492485
1.05722e+06
2.6881e+06
1.95141e+06
424731
262498
260478
442498
1.52518e+06
2.68039e+06
1.05714e+06
490111
261483
423380
1.90911e+06
1.48992e+06
450764
260476
479002
1.02854e+06
2.59459e+06
1.85947e+06
411673
256929
254317
444711
1.48265e+06
2.61115e+06
1.00561e+06
478662
256602
410914
1.86126e+06
1.4893e+06
446414
257228
480911
1.02379e+06
2.59896e+06
1.87333e+06
414669
256382
254909
438048
1.48695e+06
2.57867e+06
1.00961e+06
476696
254796
410089
1.8378e+06
1.45185e+06
442003
255052
477480
1.01424e+06
2.52269e+06
1.84163e+06
410069
255334
256398
442801
1.45197e+06
2.52808e+06
1.00421e+06
476397
254435
410475
1.8335e+06
1.47285e+06
444001
255921
487021
1.04718e+06
2.63702e+06
1.90113e+06
424550
257552
257129
444030
1.47556e+06
2.58224e+06
1.03483e+06
489940
260349
424258
1.89945e+06
1.50719e+06
465806
262525
496195
1.04368e+06
2.68655e+06
1.93554e+06
426800
262252
262042
454538
1.52213e+06
2.65062e+06
1.05074e+06
495275
264247
431290
1.9555e+06
1.57243e+06
472478
264654
516202
1.08736e+06
2.81232e+06
1.98233e+06
442004
272427
274724
495629
1.58048e+06
2.96397e+06
1.2046e+06
544883
307473
370679
2.43854e+06
2.20681e+06
947009
472170
251388
405695
1.66247e+06
1.39762e+06
457420
256599
482151
1.00985e+06
2.5478e+06
1.84941e+06
417798
261738
264148
465753
1.51555e+06
2.74439e+06
1.07679e+06
504049
269161
446302
1.95568e+06
1.54891e+06
482992
269265
517258
1.08733e+06
2.79683e+06
2.0416e+06
452075
274737
275575
489700
1.63434e+06
3.06538e+06
1.22241e+06
561018
308442
388585
2.44343e+06
2.13828e+06
933050
471629
252432
407803
1.63876e+06
1.36587e+06
453362
258535
485742
1.01403e+06
2.44276e+06
1.86346e+06
426709
263870
265006
464603
1.52871e+06
2.77264e+06
1.0888e+06
516513
277030
445404
2.02223e+06
1.65089e+06
502886
281705
566828
1.22302e+06
3.10939e+06
2.46773e+06
385568
318595
491967
975766
2.24007e+06
1.70754e+06
421924
264658
271883
482197
1.44289e+06
2.73168e+06
1.10705e+06
523146
285108
457477
1.99547e+06
1.62472e+06
511601
288528
579222
1.23273e+06
3.11613e+06
2.50689e+06
392862
327533
497636
975872
2.25155e+06
1.72413e+06
429077
267069
272975
479263
1.45092e+06
2.69741e+06
1.09228e+06
523205
285078
459539
2.02674e+06
1.63855e+06
509241
289468
587430
1.25175e+06
3.07582e+06
2.47782e+06
413728
325931
499804
981753
2.23407e+06
1.79242e+06
429840
273115
280697
489106
1.52754e+06
2.95789e+06
1.23202e+06
564110
326668
386856
2.3879e+06
2.14924e+06
961146
495798
270206
434035
1.72616e+06
1.47051e+06
491321
280544
557074
1.17238e+06
2.82098e+06
2.33358e+06
394264
319236
482298
936639
2.11953e+06
1.61066e+06
421516
266871
275838
482783
1.37123e+06
2.62737e+06
1.08513e+06
523503
290157
462923
2.02909e+06
1.66706e+06
519972
294005
596620
1.27629e+06
3.13384e+06
2.54618e+06
416326
336692
511981
1.01452e+06
2.31256e+06
1.80908e+06
451805
281208
289134
508890
1.54566e+06
2.96098e+06
1.24775e+06
577521
337681
402102
2.45922e+06
2.23144e+06
989773
512411
283576
451177
1.76506e+06
1.52965e+06
517773
294334
578746
1.27544e+06
3.01308e+06
2.54942e+06
412853
335342
513040
1.00121e+06
2.314e+06
1.82186e+06
455478
284908
293677
512292
1.56004e+06
2.99009e+06
1.2568e+06
588596
347789
406032
2.46574e+06
2.27382e+06
994161
525521
291353
464019
1.82618e+06
1.58553e+06
535404
302211
602440
1.25767e+06
3.0777e+06
2.52464e+06
431213
347346
527182
1.02262e+06
2.31911e+06
1.82115e+06
458003
293679
304036
520648
1.55395e+06
3.01293e+06
1.27381e+06
606934
366076
406713
2.55907e+06
2.42524e+06
1.04892e+06
558200
322481
415336
2.09874e+06
2.0026e+06
942841
493954
283351
449140
1.63342e+06
1.44754e+06
527109
297301
586689
1.23658e+06
2.8692e+06
2.37208e+06
411595
350090
526990
990938
2.20222e+06
1.76032e+06
461222
295013
307736
531658
1.51688e+06
2.9222e+06
1.26329e+06
596759
364058
413496
2.52691e+06
2.39668e+06
1.02915e+06
550134
323832
423822
2.08275e+06
1.98079e+06
923823
492446
285624
454785
1.68463e+06
1.50675e+06
526119
298991
588763
1.23743e+06
2.87069e+06
2.4462e+06
424535
348871
523574
999624
2.28836e+06
1.80171e+06
462050
297103
307411
537236
1.58633e+06
3.09197e+06
1.28748e+06
610265
367180
426779
2.5494e+06
2.44643e+06
1.07139e+06
561759
330282
419655
2.15478e+06
2.05349e+06
947698
503475
293063
461865
1.67391e+06
1.49271e+06
540591
308350
605721
1.25585e+06
2.93619e+06
2.44103e+06
431610
357226
541584
1.03837e+06
2.29747e+06
1.84991e+06
482940
309305
320931
564545
1.61874e+06
3.12052e+06
1.34006e+06
631746
384328
437275
2.61624e+06
2.55154e+06
1.11033e+06
585357
346539
452578
2.19656e+06
2.09686e+06
1.00179e+06
526098
306381
494370
1.78992e+06
1.58982e+06
570728
322812
649591
1.34981e+06
3.14906e+06
2.7148e+06
457407
386812
577998
1.09346e+06
2.53434e+06
2.23641e+06
442964
347004
525997
997224
2.17748e+06
1.79338e+06
491055
309450
322991
560823
1.58864e+06
3.07944e+06
1.34598e+06
641944
395695
445218
2.68609e+06
2.57294e+06
1.09452e+06
590531
352215
453146
2.25353e+06
2.23285e+06
1.0219e+06
540685
332831
433597
2.03105e+06
1.99435e+06
944020
504461
300509
472507
1.65639e+06
1.48965e+06
553458
318971
623427
1.29774e+06
2.95052e+06
2.5574e+06
436143
388885
581018
1.08537e+06
2.4893e+06
2.19807e+06
452025
348398
526277
982276
2.09089e+06
1.73156e+06
486266
310494
327207
565383
1.55273e+06
3.12685e+06
1.35823e+06
650335
392284
461925
2.6392e+06
2.47384e+06
1.09233e+06
590158
354714
454289
2.21119e+06
2.13213e+06
989676
536226
319190
494128
1.73775e+06
1.55823e+06
578643
336880
669403
1.3825e+06
3.13577e+06
2.74748e+06
468835
410161
618016
1.15866e+06
2.63813e+06
2.34606e+06
472600
373899
569522
1.06635e+06
2.32861e+06
2.10747e+06
460096
353650
528942
982436
2.04817e+06
1.69089e+06
494296
318213
333918
576378
1.53275e+06
3.00473e+06
1.33896e+06
652014
405141
461492
2.58317e+06
2.53037e+06
1.10538e+06
606599
367546
469149
2.24931e+06
2.22967e+06
1.03578e+06
559808
349000
453837
2.06495e+06
2.02968e+06
974578
522804
313810
489983
1.68013e+06
1.54255e+06
583112
335288
665984
1.36157e+06
3.14236e+06
2.62686e+06
478757
404706
605301
1.10635e+06
2.49939e+06
2.19643e+06
459830
369888
557644
1.0361e+06
2.1794e+06
1.82453e+06
521559
331572
349697
605959
1.62313e+06
3.24674e+06
1.41947e+06
689817
421920
485203
2.75133e+06
2.64721e+06
1.16659e+06
634776
385467
498446
2.38725e+06
2.36818e+06
1.09699e+06
587414
369715
479245
2.17844e+06
2.20276e+06
1.03741e+06
561335
355861
461621
2.01141e+06
1.99109e+06
971004
530090
322676
499530
1.69105e+06
1.56028e+06
588953
344269
682021
1.41403e+06
3.14033e+06
2.70101e+06
482223
423578
628990
1.14028e+06
2.58043e+06
2.29236e+06
489590
386152
580835
1.07901e+06
2.2985e+06
2.09376e+06
476345
367755
548932
1.00862e+06
2.06102e+06
1.7597e+06
517727
332410
351292
595911
1.58714e+06
3.06912e+06
1.40762e+06
683984
428977
484307
2.6798e+06
2.62727e+06
1.16601e+06
641426
390630
503207
2.33709e+06
2.29306e+06
1.07329e+06
588485
370282
473336
2.10903e+06
2.10877e+06
1.0169e+06
555366
337727
523111
1.75977e+06
1.60926e+06
614827
359857
708947
1.43111e+06
3.20728e+06
2.75403e+06
506141
438820
652141
1.19095e+06
2.67918e+06
2.41967e+06
508221
402747
612543
1.13834e+06
2.44969e+06
2.26665e+06
503100
389839
589201
1.09211e+06
2.29414e+06
2.12934e+06
487903
377040
562027
1.02432e+06
2.10704e+06
1.75352e+06
529368
342607
361537
613156
1.58926e+06
3.11829e+06
1.4226e+06
699195
430972
509466
2.72013e+06
2.64397e+06
1.16854e+06
643026
397667
501469
2.34966e+06
2.36198e+06
1.10781e+06
602812
383105
493729
2.18635e+06
2.19247e+06
1.0616e+06
579096
350781
553042
1.87933e+06
1.69385e+06
643984
374266
737763
1.53626e+06
3.3349e+06
2.91854e+06
526298
460742
685368
1.26546e+06
2.83061e+06
2.50899e+06
544141
423015
636346
1.17139e+06
2.49172e+06
2.29505e+06
518572
405851
610149
1.12213e+06
2.3522e+06
2.18572e+06
505365
391602
582766
1.06359e+06
2.16911e+06
1.82781e+06
551566
357174
377653
638649
1.67002e+06
3.29382e+06
1.51369e+06
734412
454098
532338
2.82271e+06
2.71857e+06
1.23079e+06
676742
418037
530658
2.44798e+06
2.46967e+06
1.15435e+06
630697
402619
518165
2.28296e+06
2.34268e+06
1.11836e+06
610114
392417
508373
2.15021e+06
2.14244e+06
1.05617e+06
586888
360718
560307
1.86309e+06
1.72137e+06
658554
383533
757064
1.52006e+06
3.45199e+06
2.94569e+06
538629
469897
698203
1.27324e+06
2.85833e+06
2.52787e+06
548559
433329
656137
1.20378e+06
2.54659e+06
2.35059e+06
537935
419230
629344
1.15095e+06
2.38612e+06
2.21093e+06
520617
404577
598996
1.07902e+06
2.19963e+06
1.85539e+06
567247
368026
388343
654978
1.69788e+06
3.31018e+06
1.49009e+06
749442
468412
532060
2.83607e+06
2.80006e+06
1.25238e+06
696723
431759
550786
2.51582e+06
2.51764e+06
1.19697e+06
650997
416556
537612
2.31728e+06
2.37892e+06
1.13907e+06
628440
407423
524319
2.21591e+06
2.2598e+06
1.09503e+06
608248
395572
506227
2.06784e+06
2.07965e+06
1.04173e+06
586599
362751
558142
1.79318e+06
1.64456e+06
651428
387531
747594
1.50004e+06
3.22195e+06
2.81584e+06
541717
472548
697446
1.23136e+06
2.7612e+06
2.4898e+06
545099
436539
656592
1.20479e+06
2.54306e+06
2.31011e+06
546955
424078
634991
1.15338e+06
2.34544e+06
2.17243e+06
530892
412158
609446
1.0892e+06
2.16335e+06
1.82923e+06
577083
376246
396750
662432
1.66825e+06
3.24072e+06
1.49777e+06
755509
477884
547650
2.82082e+06
2.79447e+06
1.2733e+06
709823
441618
556150
2.51688e+06
2.54567e+06
1.20996e+06
664918
427561
552818
2.31064e+06
2.3462e+06
1.15763e+06
639262
414465
535664
2.1429e+06
2.13451e+06
1.0872e+06
611318
378608
580382
1.84056e+06
1.68996e+06
675677
404279
774073
1.53592e+06
3.30274e+06
2.8884e+06
559023
488323
724609
1.30138e+06
2.86854e+06
2.54022e+06
578361
455540
683242
1.24314e+06
2.56231e+06
2.40349e+06
571313
442720
660101
1.19155e+06
2.44736e+06
2.26176e+06
550955
430104
633685
1.12668e+06
2.25886e+06
1.87776e+06
598597
393491
414302
687454
1.71233e+06
3.3225e+06
1.53848e+06
786530
496026
565953
2.89175e+06
2.87221e+06
1.30819e+06
735941
459221
578160
2.5786e+06
2.61058e+06
1.25323e+06
692166
446134
577415
2.39912e+06
2.42843e+06
1.18175e+06
664373
434274
551777
2.24829e+06
2.32889e+06
1.14283e+06
643748
423359
543416
2.16432e+06
2.17837e+06
1.09066e+06
623148
390132
593689
1.85852e+06
1.73693e+06
695477
414369
790569
1.58013e+06
3.39338e+06
2.9037e+06
581985
500367
734641
1.30473e+06
2.85344e+06
2.55594e+06
585800
465069
688988
1.24137e+06
2.59251e+06
2.34115e+06
573881
449705
670129
1.19222e+06
2.40883e+06
2.22624e+06
562480
437908
642001
1.12998e+06
2.22466e+06
1.87537e+06
607544
399930
422103
695702
1.71556e+06
3.31013e+06
1.5669e+06
797726
503134
584465
2.88086e+06
2.86881e+06
1.32338e+06
744750
467637
592062
2.53269e+06
2.54123e+06
1.24186e+06
695913
452064
574323
2.36562e+06
2.44828e+06
1.20153e+06
674891
441654
567767
2.23621e+06
2.24847e+06
1.14548e+06
652488
406315
619938
1.92158e+06
1.76364e+06
716898
431803
817903
1.61268e+06
3.38168e+06
2.99402e+06
608891
513745
755713
1.34289e+06
2.95556e+06
2.56657e+06
598011
481685
716950
1.28393e+06
2.62357e+06
2.43623e+06
598330
467981
695089
1.23331e+06
2.49166e+06
2.25945e+06
580800
454149
661447
1.15869e+06
2.26017e+06
1.89773e+06
625897
413731
437399
722921
1.75619e+06
3.45161e+06
1.62921e+06
829152
519876
611450
2.94302e+06
2.87261e+06
1.33159e+06
758899
480049
603274
2.53241e+06
2.57322e+06
1.2596e+06
711099
464050
595543
2.36347e+06
2.42292e+06
1.20706e+06
685772
451396
579289
2.24034e+06
2.25645e+06
1.13993e+06
659236
414142
628332
1.92363e+06
1.78792e+06
725023
440039
842652
1.66325e+06
3.45587e+06
2.99852e+06
632851
528595
775786
1.361e+06
2.92351e+06
2.57519e+06
616075
494064
729909
1.28472e+06
2.61115e+06
2.37556e+06
601762
475056
695073
1.22042e+06
2.39664e+06
2.01286e+06
658664
432318
455865
749869
1.8401e+06
3.54151e+06
1.67392e+06
860423
541960
633705
3.0746e+06
3.00742e+06
1.38397e+06
792883
501222
620018
2.6361e+06
2.71007e+06
1.32206e+06
746368
485890
619456
2.47279e+06
2.53423e+06
1.26662e+06
720483
472445
604902
2.29152e+06
2.30131e+06
1.19511e+06
688551
431289
650738
1.94883e+06
1.798e+06
748704
458558
865582
1.68181e+06
3.49016e+06
3.0363e+06
634911
547815
806387
1.40309e+06
3.01048e+06
2.64915e+06
646781
512881
755576
1.33183e+06
2.6616e+06
2.41901e+06
632062
492939
714570
1.23809e+06
2.41971e+06
2.02528e+06
673540
449147
472921
768726
1.87021e+06
3.57775e+06
1.71645e+06
883888
555793
653848
3.04718e+06
3.01464e+06
1.42937e+06
815689
517112
651805
2.6918e+06
2.71757e+06
1.33293e+06
761090
497974
634126
2.47823e+06
2.56809e+06
1.28306e+06
733830
484566