/*--------------------------------*- C++ -*----------------------------------*\
| =========                 |                                                 |
| \\      /  F ield         | OpenFOAM: The Open Source CFD Toolbox           |
|  \\    /   O peration     | Version:  v2006                                 |
|   \\  /    A nd           | Website:  www.openfoam.com                      |
|    \\/     M anipulation  |                                                 |
\*---------------------------------------------------------------------------*/
FoamFile
{
    version     2.0;
    format      ascii;
    class       volScalarField;
    location    "0.18";
    object      Co;
}
// * * * * * * * * * * * * * * * * * * * * * * * * * * * * * * * * * * * * * //

dimensions      [0 0 0 0 0 0 0];


internalField   nonuniform List<scalar> 
38932
(
0.00737358
0.00701464
0.00761685
0.00793572
0.00799627
0.00783828
0.0078645
0.00776108
0.00771366
0.00770442
0.00766852
0.00766048
0.00765243
0.00764865
0.00764443
0.00764019
0.0076352
0.00762982
0.00762408
0.00761796
0.00761149
0.00760465
0.00759745
0.00758989
0.00758199
0.00757374
0.00756514
0.0075562
0.00754692
0.00753729
0.00752735
0.00751708
0.00750648
0.00749557
0.00748435
0.00747282
0.00746098
0.00744884
0.00743642
0.00742371
0.00741071
0.00739744
0.0073839
0.0073701
0.00735605
0.00734174
0.0073272
0.00731242
0.00729741
0.00728217
0.00726673
0.00725107
0.00723522
0.00721918
0.00720296
0.00718657
0.00717002
0.0071533
0.00713644
0.00711944
0.00710232
0.00708506
0.0070677
0.00705025
0.00703271
0.00701509
0.00699738
0.00697962
0.00696182
0.00694398
0.00692611
0.00690822
0.00689033
0.00687244
0.00685456
0.00683672
0.00681891
0.00680115
0.00678345
0.00676583
0.0067483
0.00673086
0.00671352
0.00669631
0.00667923
0.00666229
0.00664551
0.00662888
0.00661245
0.00659621
0.00658016
0.00656432
0.00654871
0.00653333
0.00651821
0.00650333
0.00648873
0.00647441
0.00646038
0.00644665
0.00643323
0.00642012
0.00640735
0.00639492
0.00638282
0.00637109
0.00635972
0.00634873
0.0063381
0.00632787
0.00631802
0.00630857
0.00629952
0.00629087
0.00628264
0.00627483
0.00626743
0.00626046
0.00625392
0.00625092
0.00624619
0.00624201
0.00626768
0.0062682
0.0063026
0.00638953
0.00640089
0.00652712
0.00669473
0.00668324
0.00723844
0.00579229
0.00542018
0.0054715
0.00595611
0.00554956
0.00549171
0.00568214
0.00478433
0.00480627
0.00492085
0.00490603
0.00495402
0.00493219
0.00445505
0.00467911
0.00476716
0.00485328
0.00480331
0.00455439
0.00441907
0.00473878
0.00482086
0.00485802
0.00477629
0.00443058
0.00437386
0.00475458
0.00485424
0.00485387
0.00474826
0.00434578
0.00429964
0.00472328
0.0048406
0.00482628
0.00470055
0.00426032
0.00422158
0.0046757
0.00480981
0.00479282
0.00465133
0.00418545
0.00415148
0.00462744
0.00477565
0.00475833
0.00460396
0.0041193
0.00408858
0.00458084
0.00474088
0.00472331
0.00455803
0.00405907
0.00403055
0.00453545
0.00470561
0.00468777
0.00451304
0.00400283
0.00397577
0.00449076
0.00466978
0.00465161
0.00446854
0.00394924
0.00392312
0.00444633
0.00463323
0.00461462
0.00442408
0.00389732
0.00387176
0.00440174
0.00459575
0.00457659
0.00437927
0.00384635
0.00382104
0.00435662
0.00455711
0.00453728
0.00433376
0.00379576
0.00377045
0.00431063
0.00451707
0.00449646
0.00428722
0.00374507
0.00371956
0.00426348
0.00447543
0.00445393
0.00423937
0.0036939
0.00366803
0.00421488
0.00443196
0.00440949
0.00418996
0.00364191
0.00361552
0.00416459
0.00438648
0.00436292
0.00413874
0.00358882
0.00356176
0.00411237
0.00433878
0.00431403
0.00408546
0.00353432
0.00350646
0.00405797
0.00428863
0.00426257
0.00402986
0.00347814
0.00344931
0.0040011
0.0042358
0.0042083
0.00397166
0.00341995
0.00339001
0.00394149
0.00418002
0.00415093
0.00391055
0.00335945
0.00332823
0.00387881
0.00412099
0.00409017
0.00384622
0.00329631
0.00326364
0.00381274
0.00405842
0.00402569
0.00377832
0.00323017
0.00319586
0.0037429
0.00399193
0.00395709
0.00370644
0.00316063
0.00312445
0.00366886
0.00392112
0.00388396
0.00363012
0.00308725
0.00304897
0.00359016
0.00384554
0.00380582
0.0035489
0.00300955
0.00296894
0.00350629
0.00376472
0.00372219
0.00346227
0.00292707
0.00288388
0.00341678
0.00367817
0.00363259
0.00336974
0.00283932
0.00279331
0.00332108
0.00358538
0.00353647
0.00327074
0.00274578
0.00269665
0.00321861
0.00348576
0.00343317
0.0031646
0.00264582
0.0025932
0.00310861
0.00337858
0.00332189
0.00305052
0.00253868
0.00248215
0.00299022
0.00326298
0.00320171
0.00292758
0.00242348
0.00236257
0.00286247
0.00313797
0.00307162
0.00279476
0.00229928
0.0022335
0.00272431
0.00300252
0.00293053
0.00265099
0.00216511
0.00209397
0.00257466
0.0028555
0.00277728
0.00249517
0.00201998
0.00194299
0.00241237
0.0026957
0.00261059
0.00232612
0.00186289
0.00177957
0.00223626
0.00252179
0.0024291
0.00214265
0.0016929
0.00160279
0.00204512
0.00233234
0.00223131
0.00194356
0.00150917
0.00141201
0.00183785
0.00212583
0.00201573
0.0017279
0.0013113
0.00120715
0.0016137
0.00190087
0.00178114
0.00149528
0.00109974
0.000989355
0.0013728
0.0016565
0.00152697
0.00124649
0.000876466
0.000761728
0.0011168
0.00139271
0.00125402
0.000984347
0.000646037
0.000530576
0.000850068
0.0011115
0.000966015
0.000715173
0.000416816
0.00030655
0.000581545
0.000819259
0.000672515
0.000450635
0.000201466
0.000103758
0.000327912
0.00053103
0.000392754
0.000208566
8.03574e-05
0.000132492
0.000140737
0.000258027
0.000186134
0.000161701
0.000183868
0.000225188
0.000212992
0.000205516
0.000255383
0.000257363
0.000259666
0.000288471
0.000294963
0.000297524
0.000332717
0.000326273
0.000311863
0.000331101
0.000354025
0.000364475
0.000395513
0.000380482
0.000347581
0.000362804
0.000407411
0.000427599
0.00045926
0.000434446
0.000377191
0.0003917
0.000461488
0.000490739
0.000522184
0.000489995
0.000409027
0.000427599
0.000515627
0.000549498
0.000573112
0.000538865
0.000446972
0.000466457
0.000560391
0.00059407
0.000608403
0.000577188
0.000484401
0.000500241
0.000591493
0.000620807
0.000627007
0.000601305
0.000513521
0.000523077
0.000606661
0.000629429
0.000629899
0.00061011
0.000530225
0.000533849
0.000608472
0.00062427
0.00062294
0.000606406
0.000534508
0.000534241
0.000606325
0.000624781
0.000623075
0.000603052
0.000531046
0.000525089
0.000597822
0.00061967
0.000610463
0.0005878
0.000515703
0.000503391
0.000575807
0.000600384
0.000585633
0.00056043
0.000488664
0.000470831
0.000541635
0.000568183
0.000549868
0.000522367
0.000451822
0.000430343
0.000499608
0.000527882
0.000504012
0.00047508
0.00040727
0.00038328
0.00045017
0.000479862
0.000452631
0.000422954
0.000357999
0.000331949
0.00039519
0.000425426
0.000396908
0.000366413
0.000304686
0.000276843
0.000336273
0.000366977
0.00033587
0.000304665
0.000246869
0.000217626
0.000273007
0.000304435
0.000269592
0.000237269
0.00018317
0.000155979
0.000206798
0.000238315
0.000202265
0.000167779
0.000117287
9.32665e-05
0.000141169
0.000174152
0.000137911
0.000101891
5.57556e-05
2.94077e-05
7.01822e-05
0.00010475
5.32354e-05
3.10809e-05
1.40593e-05
1.56992e-05
2.16334e-05
1.81963e-05
2.25625e-05
5.09037e-05
7.89611e-05
0.000112579
0.000134794
0.000160887
0.000178554
0.000193691
0.000201827
0.000204851
0.000205559
0.000204531
0.000197139
0.000192617
0.000174824
0.000249181
0.000212309
0.00016882
0.000121739
9.53957e-05
5.93841e-05
4.02158e-05
4.72383e-05
4.78261e-05
9.13478e-05
0.000103514
9.4362e-05
0.000101389
0.0001068
7.25183e-05
7.92891e-05
6.23297e-05
4.00174e-05
1.68036e-05
5.05224e-05
9.3548e-05
0.000122181
0.000129851
0.000110301
0.000118385
0.000115933
0.000112101
9.76089e-05
5.963e-05
7.16343e-05
0.000107955
0.000116024
0.000112326
0.000100902
7.45354e-05
9.32534e-05
0.000102983
0.0001017
7.76751e-05
7.83743e-05
9.71769e-05
9.25619e-05
8.26635e-05
6.35976e-05
7.17018e-05
7.95411e-05
8.63769e-05
9.0376e-05
7.72279e-05
7.74652e-05
9.28747e-05
9.10769e-05
8.58917e-05
7.83365e-05
8.12989e-05
8.82068e-05
9.19269e-05
9.16296e-05
7.49698e-05
6.9608e-05
8.57377e-05
8.67404e-05
8.39016e-05
7.71574e-05
7.19469e-05
7.62192e-05
7.79167e-05
7.65196e-05
6.23818e-05
5.37601e-05
6.52628e-05
6.65866e-05
6.51951e-05
6.60646e-05
7.03684e-05
5.38349e-05
5.21388e-05
5.18977e-05
4.42781e-05
3.48555e-05
3.7274e-05
3.86934e-05
5.52913e-05
8.45138e-05
0.000103687
7.2562e-05
4.30536e-05
2.53433e-05
2.55051e-05
1.53471e-05
2.44909e-05
5.54337e-05
8.4657e-05
0.000114198
0.000126897
9.70289e-05
6.75678e-05
3.69618e-05
9.35207e-06
1.07778e-05
4.51545e-05
7.49302e-05
0.000103102
0.000133148
0.00014008
0.000108343
7.99565e-05
5.16207e-05
1.63549e-05
2.07536e-05
5.98858e-05
9.1396e-05
0.000112855
0.000139546
0.000156455
0.000135023
0.000125984
0.000103205
2.91492e-05
5.09307e-05
8.028e-05
0.000122603
0.000235916
0.00022314
0.000217361
0.000132097
9.12863e-05
9.90986e-05
8.10432e-05
0.000314933
0.000324186
0.000145025
0.00018896
0.000209109
0.000280001
0.000327551
0.000207949
0.000679684
0.00076911
0.000720883
0.000656884
0.000218891
0.000295381
0.000272488
0.000278531
0.000476863
0.0004512
0.00162629
0.00184208
0.00296316
0.00251913
0.00063593
0.000752925
0.000398061
0.000591693
0.000826829
0.000596849
0.00242995
0.0028249
0.00113619
0.00102906
0.000347955
0.000473434
0.000467515
0.000616271
0.0011342
0.00101705
0.00418913
0.00490112
0.00611116
0.00532743
0.00124815
0.00144223
0.00079449
0.000526648
0.00053997
0.000416639
0.00126091
0.00135413
0.00355564
0.00322564
0.000835778
0.00107503
0.000855701
0.000926772
0.00145548
0.00128977
0.00540373
0.00605751
0.00714694
0.00612505
0.00143944
0.00181717
0.00107137
0.00097014
0.00133737
0.000982127
0.00366929
0.00424832
0.00103954
0.00102716
0.000461102
0.000680848
0.000760494
0.000892893
0.00101029
0.000767425
0.0025902
0.00288172
0.00542976
0.00485393
0.00127229
0.00160674
0.00115918
0.000691613
0.000799001
0.000779192
0.00128188
0.00122843
0.00296059
0.00271453
0.00093328
0.00112496
0.000905005
0.000886886
0.00137622
0.00124137
0.0040661
0.00458356
0.00196982
0.00192956
0.000907868
0.0009003
0.000736508
0.00101403
0.00142087
0.00128783
0.00427337
0.00475731
0.00651257
0.00565268
0.00157249
0.00191519
0.00124658
0.000880648
0.00081584
0.000661217
0.000607331
0.000494003
0.00470878
0.0041783
0.00140776
0.00153045
0.00100396
0.00122047
0.00169274
0.00141833
0.00436495
0.00500795
0.00352978
0.00325192
0.00115594
0.00154152
0.00137948
0.00140805
0.00147601
0.00115853
0.00319493
0.00342592
0.00781489
0.00701961
0.00199436
0.00245473
0.00178962
0.00116098
0.00122263
0.00114117
0.0015781
0.00147366
0.00565477
0.00515307
0.00170707
0.00206364
0.00162515
0.0013589
0.00200017
0.00187241
0.00560522
0.0062047
0.00319826
0.00307872
0.00145194
0.00153436
0.00125152
0.00131733
0.00150382
0.00137835
0.00301256
0.00312386
0.00822235
0.00720687
0.00226967
0.00264975
0.0017413
0.00178385
0.00210396
0.001622
0.00409099
0.00458131
0.00110701
0.00132302
0.00126275
0.00150606
0.00161398
0.00192711
0.00221607
0.00180919
0.00498788
0.00544783
0.00907005
0.00826254
0.00252539
0.00305028
0.00231087
0.00183659
0.0022869
0.00193287
0.00491443
0.00531491
0.00186496
0.00197393
0.00138759
0.00162109
0.00161358
0.00166412
0.00196665
0.00189828
0.00410918
0.00419407
0.00975665
0.00858066
0.00283221
0.00324337
0.00215269
0.00224684
0.00273057
0.00217185
0.00548068
0.00614277
0.000880554
0.00116641
0.0013056
0.00180728
0.00214004
0.0023934
0.00264919
0.00217998
0.00560273
0.00602605
0.0104002
0.00948642
0.00303722
0.00366194
0.00280135
0.0019382
0.00223659
0.00210918
0.00373828
0.00383588
0.00634305
0.00593317
0.00248712
0.0028799
0.00237913
0.00219936
0.00279088
0.00267664
0.00648655
0.00687737
0.00798477
0.00721577
0.00283678
0.00318269
0.00237573
0.00233183
0.00230215
0.00192513
0.00245218
0.00224853
0.00822192
0.00753523
0.00308495
0.00318412
0.00228643
0.00257619
0.0033879
0.00308753
0.00760642
0.00843614
0.00517488
0.00500549
0.00243191
0.00298314
0.00279702
0.00296684
0.00303033
0.00251412
0.0054229
0.00557067
0.0127818
0.0116936
0.00391491
0.00461674
0.0034937
0.00260577
0.00295243
0.00276133
0.00444694
0.00445121
0.00820887
0.00772821
0.00328486
0.00372482
0.00306366
0.00266463
0.00344001
0.00335201
0.0074363
0.00787855
0.00676069
0.00657481
0.00337051
0.00340939
0.00271653
0.00275227
0.00251876
0.00224967
0.00201081
0.00142897
0.0128284
0.0116579
0.00438576
0.00474389
0.00334146
0.00342333
0.00451548
0.00401846
0.00974848
0.0108355
0.0045321
0.00470868
0.00284168
0.00351246
0.00359083
0.00343137
0.00309534
0.00280554
0.00233548
0.00153692
0.0117875
0.0110602
0.00437847
0.00509509
0.004155
0.00388003
0.00339546
0.00273923
0.00305199
0.00237742
0.010344
0.0101519
0.0044529
0.00501264
0.00440152
0.00404412
0.00617894
0.00618441
0.0130281
0.0137231
0.00405539
0.00528255
0.00418846
0.00530495
0.00522486
0.0112313
0.00813522
0.00639295
0.00478539
0.00249636
0.00341718
0.00535445
0.00643232
0.00705638
0.00691248
0.00656587
0.00641784
0.00599838
0.00520643
0.00362807
0.0038062
0.00504352
0.00571251
0.00610405
0.00620989
0.00598095
0.00582473
0.00547371
0.0049295
0.00393218
0.00400729
0.00483448
0.00533935
0.0056501
0.00577181
0.00559981
0.00544397
0.00520143
0.00481122
0.00411656
0.00422454
0.004806
0.00514312
0.00534491
0.00533535
0.00549945
0.00534462
0.00514651
0.00484111
0.00431875
0.00438484
0.00486081
0.00513049
0.00531436
0.00545678
0.00546983
0.00530717
0.00513208
0.00488367
0.00447045
0.00457731
0.00495635
0.00514189
0.00529951
0.00546402
0.00524777
0.0052621
0.00520393
0.00502911
0.00469089
0.00510029
0.00517871
0.00530855
0.00533745
0.00519492
0.00549996
0.00545282
0.00535196
0.00522259
0.00517409
0.00520527
0.00525853
0.0053771
0.00540797
0.00545896
0.00534599
0.0053659
0.00536715
0.0053295
0.00538809
0.00546803
0.00534559
0.00532322
0.00529487
0.0052389
0.0050716
0.00510775
0.00525428
0.00540082
0.00560825
0.00567432
0.00563195
0.00548583
0.00508208
0.00413165
0.00987736
0.00732618
0.00655557
0.00623751
0.00602698
0.00621164
0.00647343
0.00682774
0.00730173
0.00914675
0.00721921
0.00710265
0.0068709
0.00667592
0.00655211
0.0067998
0.0069542
0.00696135
0.00686534
0.00668581
0.00638868
0.00667757
0.00693939
0.0072127
0.00709149
0.00724261
0.00729069
0.00688553
0.00649757
0.00611827
0.00576688
0.00623867
0.00685506
0.00739892
0.00740645
0.00748912
0.0076045
0.00713295
0.00652712
0.0057648
0.00568149
0.00728866
0.00783798
0.00804202
0.00771282
0.00781905
0.0086583
0.00899048
0.00970271
0.0123389
0.0118204
0.0107368
0.00986207
0.0091623
0.00819417
0.00833386
0.00943329
0.00993032
0.00992918
0.00799691
0.0154869
0.0116537
0.0104679
0.00967255
0.0085101
0.00868227
0.00971531
0.0105827
0.0117523
0.013234
0.00947712
0.00982448
0.00975724
0.00943456
0.00867647
0.0087099
0.00920894
0.00935983
0.00930017
0.00914067
0.00922905
0.00927268
0.00928633
0.00920311
0.008875
0.0089182
0.0092303
0.00936286
0.00938394
0.00933726
0.00924973
0.00928711
0.00934721
0.00933913
0.00903063
0.00910809
0.00937458
0.00934726
0.00920427
0.00892991
0.00797358
0.00964301
0.00997113
0.00978624
0.00930018
0.00951721
0.0105938
0.0113333
0.0127446
0.0172606
0.0153899
0.0125056
0.0114289
0.0105875
0.00969372
0.00976932
0.0103994
0.0107688
0.0112285
0.0116605
0.0104121
0.0104757
0.0103157
0.0101309
0.00976539
0.00967462
0.0100086
0.0100369
0.00987192
0.0097013
0.00879742
0.0092446
0.00980701
0.0102837
0.00990131
0.0101231
0.0109207
0.0106644
0.00999954
0.00800975
0.0178308
0.0135319
0.0123533
0.0117964
0.010368
0.0104195
0.0118224
0.0121466
0.0128893
0.0159181
0.0119259
0.0115867
0.0112111
0.0112515
0.0102832
0.0106219
0.0107213
0.010717
0.0106283
0.0104078
0.00946948
0.00978409
0.0101015
0.0104161
0.0104123
0.0102861
0.0101275
0.00963939
0.00906742
0.00848
0.00768074
0.00961907
0.0102644
0.0103964
0.0102448
0.0103657
0.0108766
0.0113963
0.0125351
0.0164986
0.0146792
0.0119463
0.0112603
0.0108197
0.0101948
0.0100263
0.0102718
0.0103321
0.010665
0.0108677
0.0093427
0.00962093
0.00981698
0.00996316
0.00991011
0.00969056
0.0094831
0.00904632
0.00864829
0.00828616
0.00761118
0.00814012
0.00874929
0.00931959
0.00960306
0.00942605
0.00949434
0.00931885
0.0086851
0.00693265
0.0144151
0.011138
0.0101805
0.00986221
0.00958313
0.00947328
0.00979729
0.0100208
0.0105495
0.0124461
0.00874693
0.0088523
0.00898688
0.00921401
0.00923299
0.008996
0.00869119
0.00832166
0.00783544
0.00737256
0.00685394
0.00741024
0.00796812
0.00842711
0.00881083
0.00868964
0.00851221
0.0082243
0.00768743
0.00614935
0.0120434
0.00952811
0.00890429
0.00870599
0.00861386
0.00843458
0.00853566
0.00869357
0.00905086
0.009973
0.0068913
0.00732471
0.00764054
0.00789226
0.00813835
0.00776738
0.00741309
0.00706317
0.00665607
0.00617431
0.00533605
0.00663703
0.00714171
0.00738674
0.00759515
0.00743099
0.00737108
0.00748835
0.00793532
0.00964812
0.00758306
0.00735571
0.0070928
0.00705248
0.00710796
0.00668787
0.00641589
0.00620587
0.00602437
0.00581211
0.00508615
0.00534242
0.00564841
0.00592387
0.00637051
0.00598604
0.00565968
0.00543524
0.00510403
0.00421175
0.00632241
0.00566273
0.00538982
0.00540014
0.00559796
0.00519339
0.00496795
0.00499307
0.0052676
0.00555472
0.00435124
0.00426876
0.00426188
0.00436003
0.00470333
0.00422225
0.00380815
0.00365226
0.00362635
0.0037599
0.00331982
0.00306151
0.00312066
0.00320603
0.00368855
0.00305394
0.00268002
0.00267742
0.00268282
0.00339321
0.00457978
0.00304509
0.00226967
0.00210917
0.00241074
0.00172502
0.0017241
0.00263334
0.00388748
0.00477898
0.00588791
0.00490484
0.00369794
0.00218563
0.000982289
0.000892037
0.00327422
0.00485025
0.00612868
0.00672173
0.0110594
0.00816428
0.0063187
0.00446586
0.0017193
0.00283528
0.00556344
0.0073881
0.00892511
0.00995443
0.0103055
0.00955137
0.00839766
0.00673213
0.00420594
0.00585753
0.00821011
0.00987954
0.0110491
0.0112357
0.0185862
0.014204
0.0118042
0.00981675
0.00693637
0.00807487
0.0111627
0.013145
0.0146877
0.0154423
0.0166699
0.0162015
0.0148658
0.0129192
0.0093761
0.0108124
0.0149525
0.0173896
0.0202459
0.0262526
0.0211292
0.0207348
0.0191285
0.0166018
0.0122738
0.0143392
0.0190933
0.021288
0.0228049
0.0229989
0.0356894
0.028219
0.0249915
0.0218104
0.0162011
0.0188062
0.0246168
0.0273199
0.0287958
0.0287638
0.0304848
0.03209
0.0309417
0.0285811
0.0221548
0.0262995
0.0336224
0.0363168
0.0398763
0.0484072
0.0374928
0.0392244
0.0394123
0.0389923
0.0318314
0.0398096
0.0444415
0.0445336
0.0427304
0.0360449
0.060159
0.05263
0.0522607
0.0527608
0.0522062
0.0594421
0.0580863
0.057076
0.0554659
0.046823
0.0707636
0.0615957
0.0602334
0.0592646
0.058597
0.0602776
0.0613568
0.062062
0.0614146
0.0524285
0.0725075
0.063517
0.0623928
0.0621716
0.0644904
0.0743514
0.0664089
0.0630435
0.0569367
0.0455334
0.0567242
0.0618309
0.0684166
0.0768393
0.086834
0.0875042
0.0856235
0.0757129
0.0691266
0.0641762
0.0677404
0.07268
0.0808713
0.0935481
0.0923265
0.0996509
0.0948744
0.0806596
0.0730371
0.067597
0.0625646
0.0659279
0.0706155
0.0809024
0.0963841
0.0962344
0.0867795
0.072746
0.0602469
0.0465229
0.0946618
0.0813975
0.084089
0.0923711
0.0979155
0.0994702
0.095976
0.0903065
0.0850076
0.0812822
0.107684
0.0930524
0.0932611
0.0959239
0.0974259
0.0945278
0.0978537
0.0944026
0.0894047
0.0886116
0.109245
0.0936132
0.0936649
0.0948111
0.0898265
0.085484
0.0928937
0.0899598
0.0864218
0.0909021
0.104507
0.0906099
0.0895017
0.0897997
0.0823438
0.0829443
0.0877083
0.0855702
0.0811391
0.0886209
0.0992051
0.0840839
0.0820504
0.0812133
0.0778764
0.0688373
0.0750183
0.0758794
0.0732496
0.0846807
0.0880195
0.0735329
0.0713973
0.0710697
0.0648699
0.0615622
0.0681731
0.0682745
0.0650679
0.0766679
0.0656843
0.0684253
0.0684373
0.0666023
0.0593592
0.0572557
0.0662199
0.0716503
0.0797655
0.104107
0.0888942
0.0690307
0.0675136
0.0638133
0.0561778
0.0546669
0.0608557
0.0636136
0.0671848
0.0815235
0.07611
0.0604854
0.0585052
0.0570651
0.0517844
0.0484852
0.0556281
0.058258
0.0590048
0.0571035
0.0883279
0.067099
0.0596688
0.0545118
0.0467191
0.0456974
0.0536591
0.0568766
0.0583937
0.0763548
0.0567794
0.0580077
0.056013
0.0519999
0.0435717
0.0429585
0.0515925
0.0570605
0.0646749
0.0856743
0.0750109
0.0563414
0.0540861
0.0500741
0.0420226
0.0408963
0.0491856
0.0534948
0.0560787
0.0556244
0.0838926
0.0625245
0.0544203
0.0485925
0.0404135
0.039718
0.046675
0.0510262
0.0563589
0.0773013
0.0638745
0.0517702
0.0485143
0.0447288
0.0382778
0.0367981
0.0429205
0.0462191
0.0503295
0.0656329
0.0450667
0.04593
0.0444749
0.0416441
0.0356366
0.0350105
0.0416003
0.0459485
0.0521295
0.0701501
0.0660612
0.0478639
0.043675
0.0406099
0.0343484
0.0338233
0.0401077
0.0434857
0.0455483
0.0449766
0.0680364
0.0504729
0.0443796
0.0399571
0.0332333
0.0329193
0.0390867
0.0421756
0.0467151
0.0644877
0.0433615
0.0437932
0.0417752
0.0385255
0.0323341
0.0322288
0.0385024
0.0426587
0.0485689
0.0654028
0.0629651
0.0451037
0.0404815
0.0376167
0.0317077
0.0312949
0.0370971
0.0402095
0.0420974
0.0415636
0.0626914
0.0465276
0.040967
0.0370421
0.0310583
0.0306555
0.0361717
0.0392074
0.0437101
0.0608655
0.0398051
0.040437
0.0386274
0.0357609
0.0303938
0.0299987
0.0356223
0.0393039
0.0446599
0.0602473
0.0593458
0.0423183
0.0379155
0.0350056
0.0298338
0.0293613
0.0343565
0.0369091
0.0384087
0.037763
0.0572148
0.0425942
0.0377276
0.0344743
0.0294332
0.0289747
0.0336498
0.0360806
0.0404113
0.0568128
0.0337533
0.0357504
0.0354821
0.0335157
0.0288789
0.0289594
0.0344178
0.0380106
0.0418155
0.0455911
0.0618506
0.0453943
0.0391596
0.0347672
0.0289405
0.0285854
0.0338762
0.0368145
0.041196
0.0583645
0.0372721
0.0378014
0.0360582
0.0333062
0.028174
0.0281646
0.0333513
0.0368617
0.0419471
0.0566477
0.0565679
0.0405337
0.035767
0.0327374
0.0279592
0.0278194
0.0323026
0.0346285
0.0359592
0.0352322
0.0547297
0.040571
0.0357368
0.0324978
0.0276181
0.0275586
0.0320133
0.0349045
0.0395072
0.0553425
0.0344327
0.0352182
0.0340124
0.0318887
0.0274126
0.0274577
0.0320285
0.0352102
0.0398366
0.0536209
0.0541365
0.0390842
0.0345623
0.0318016
0.0272878
0.0271236
0.0314829
0.0335689
0.0346674
0.0339216
0.0527989
0.0393147
0.034771
0.0317632
0.0271386
0.0270476
0.031478
0.0341731
0.0386391
0.0535073
0.0335966
0.034381
0.0333243
0.0312579
0.0269877
0.0268881
0.0315787
0.0344841
0.0388676
0.0522089
0.0529135
0.0382088
0.0338439
0.0312405
0.0267324
0.0266871
0.0311084
0.0331456
0.0342208
0.0334043
0.05196
0.0386177
0.0342586
0.031459
0.0267808
0.0265425
0.0312957
0.033827
0.0375209
0.0518695
0.0332873
0.0340799
0.0329892
0.0310471
0.0263774
0.0264316
0.0313241
0.0341505
0.0385448
0.051778
0.0518731
0.0374605
0.0335729
0.031149
0.0260145
0.0259806
0.0308838
0.0328351
0.0339495
0.0331622
0.051368
0.0382679
0.0339847
0.0312107
0.025864
0.025739
0.0308099
0.0331366
0.0372495
0.0519705
0.0326794
0.0334483
0.0324393
0.0306767
0.0252065
0.0251561
0.0307262
0.0333326
0.0375723
0.0504973
0.0520525
0.0370858
0.0326126
0.0300433
0.024477
0.0236953
0.0285191
0.030753
0.0319082
0.0314105
0.0480097
0.0355922
0.0315589
0.028618
0.0231404
0.0228831
0.0288144
0.0322117
0.0372191
0.0527536
0.0296843
0.0314387
0.0311265
0.0285056
0.0226382
0.0223516
0.0292626
0.0324288
0.0356426
0.0452099
0.0522528
0.0377634
0.0328545
0.0289253
0.0224345
0.0218216
0.0292368
0.031499
0.032291
0.0268517
0.0427222
0.0352652
0.0323055
0.0288669
0.0216049
0.0216511
0.0290979
0.0330467
0.0381987
0.0512094
0.0337848
0.0337718
0.0302728
0.0270443
0.0196148
0.0194575
0.0240625
0.026128
0.0285816
0.0343609
0.0151663
0.0199611
0.0214451
0.0210356
0.0181979
0.0175478
0.0188153
0.0192263
0.019915
0.0214636
0.0311053
0.022684
0.0200126
0.0184307
0.0171106
0.0167538
0.0183432
0.0206619
0.0239987
0.0333108
0.0241539
0.021546
0.0199876
0.0179428
0.016386
0.0160998
0.0171765
0.0188657
0.0209452
0.0271124
0.0158147
0.0167696
0.0170252
0.016397
0.0158931
0.0157898
0.0163572
0.0175572
0.0196706
0.026701
0.0277644
0.0200727
0.0177617
0.0162971
0.0140772
0.0140596
0.0159497
0.0168283
0.0172374
0.0167167
0.0270614
0.0200298
0.0176829
0.0162102
0.014117
0.0140676
0.0162429
0.0177073
0.0200637
0.0277906
0.0168991
0.0173686
0.0169082
0.0160297
0.014069
0.0140705
0.0162217
0.0177468
0.0201325
0.027264
0.0276744
0.0199768
0.0176478
0.0161939
0.0140551
0.0140778
0.016052
0.0169816
0.0174191
0.0169214
0.027352
0.020195
0.0177893
0.0162809
0.0141671
0.0141351
0.0163316
0.0177713
0.0201057
0.0278373
0.0169883
0.0174923
0.0170449
0.0161421
0.0141485
0.0143103
0.0164507
0.0179843
0.020408
0.027603
0.0281653
0.0203231
0.0178962
0.0164661
0.0143684
0.0144611
0.0164206
0.0173519
0.0177826
0.0172504
0.0281144
0.0208144
0.0183643
0.0167887
0.0145091
0.0146271
0.0167072
0.0181488
0.0206734
0.028587
0.018109
0.0185143
0.0179264
0.0168294
0.0147585
0.0149194
0.0172968
0.0189918
0.0217401
0.0296567
0.0306658
0.0224987
0.0197018
0.0177326
0.0151414
0.015252
0.0177062
0.0193979
0.0205687
0.0237151
0.0263815
0.0205351
0.0187061
0.0173929
0.0152339
0.0150462
0.0168201
0.0173571
0.0173136
0.016646
0.0281202
0.0208841
0.0185603
0.0172152
0.0151665
0.0151902
0.0173175
0.0186568
0.0209155
0.0286804
0.0185136
0.0189872
0.0184548
0.0174426
0.0153758
0.0156105
0.0178965
0.0195941
0.0222945
0.0302558
0.0312966
0.0228605
0.0201572
0.0182898
0.0157357
0.0158313
0.0182368
0.0199383
0.0211096
0.0243267
0.0270352
0.0210286
0.0192986
0.0180003
0.015832
0.0157911
0.0175076
0.0179552
0.0179339
0.0171827
0.0289595
0.0215931
0.0192738
0.0179236
0.0158883
0.0160175
0.0180365
0.0193546
0.0215195
0.02942
0.0191312
0.019652
0.0191585
0.0181664
0.0161059
0.0163293
0.0186628
0.0203562
0.0231132
0.0312853
0.0321082
0.0235501
0.0208157
0.0189552
0.0164306
0.0165525
0.0190416
0.0206523
0.0218089
0.0251958
0.0277532
0.0216889
0.0199735
0.0186936
0.0165719
0.0164866
0.0181924
0.0186903
0.0186524
0.0178564
0.0300621
0.0224735
0.0200947
0.0187104
0.0166684
0.0167598
0.0188205
0.0200172
0.0221825
0.0303619
0.0199509
0.0205373
0.0200466
0.0190351
0.0169541
0.0171357
0.0195284
0.0213158
0.0241752
0.0326927
0.0331655
0.0244831
0.0216954
0.0198347
0.0172992
0.0173847
0.0198922
0.0214866
0.0225313
0.0263143
0.0289462
0.022672
0.0208898
0.0195969
0.0173935
0.0174302
0.0192688
0.0199201
0.0200573
0.0193472
0.0327365
0.0242582
0.021499
0.0198661
0.0175937
0.0178629
0.0203187
0.0221222
0.0247955
0.0333619
0.0267276
0.0230093
0.0220514
0.0205406
0.0179758
0.0179808
0.0200891
0.0212179
0.0229088
0.0293908
0.0197926
0.0205932
0.0204642
0.0198097
0.0179973
0.0182608
0.0205421
0.0221344
0.0248762
0.0334392
0.0339707
0.0252708
0.022555
0.0208212
0.018376
0.0183697
0.0207701
0.0222878
0.0232372
0.0271449
0.0298927
0.0234313
0.0217279
0.0206087
0.0184574
0.0184999
0.0203152
0.0209681
0.0211124
0.020321
0.0342606
0.0254907
0.0226418
0.020973
0.018665
0.0188617
0.0213562
0.0230598
0.0257769
0.0347775
0.0278065
0.0238076
0.022996
0.0214945
0.0189887
0.0190993
0.0212144
0.0223995
0.0240783
0.0305652
0.0207895
0.0216344
0.0215393
0.0209048
0.0190342
0.0192095
0.0216039
0.0232942
0.0261635
0.0350328
0.0353713
0.0262411
0.023469
0.0217266
0.01929
0.0194512
0.022044
0.0234759
0.0244231
0.0285725
0.0310612
0.0243744
0.022762
0.0215659
0.0193863
0.0195003
0.0214393
0.0221285
0.022239
0.0213862
0.0361697
0.0269723
0.0239848
0.02224
0.0198025
0.0199061
0.0224201
0.0241482
0.0268409
0.0360916
0.0292873
0.024876
0.0239698
0.0224784
0.0200637
0.0200828
0.0222739
0.0233249
0.0250348
0.0318285
0.0222461
0.0231227
0.0229664
0.0222006
0.0201088
0.0204607
0.0230657
0.0249336
0.0281051
0.0376411
0.0376836
0.0279542
0.0250806
0.0232417
0.0205261
0.0207909
0.0237261
0.0254248
0.0264104
0.0312015
0.0346018
0.0274741
0.0253852
0.0236455
0.0207898
0.0208815
0.0233077
0.0246101
0.0250636
0.0287273
0.0316664
0.0250925
0.0236794
0.0229584
0.0209178
0.020871
0.0227056
0.0232419
0.0232124
0.0222314
0.0379897
0.0284432
0.0253862
0.0236599
0.0211906
0.0212049
0.0237017
0.025358
0.0281261
0.0378636
0.0307841
0.0260387
0.0252444
0.0238111
0.0213561
0.0212282
0.0233668
0.0245353
0.0262626
0.0332903
0.0235316
0.0244896
0.0243679
0.0235954
0.0214311
0.0217316
0.0244809
0.026484
0.0298292
0.0399268
0.0394706
0.0295299
0.0265341
0.0245297
0.0218015
0.0221029
0.0250131
0.0267576
0.0277564
0.0331009
0.0364076
0.0289998
0.0268498
0.0252063
0.0222648
0.0222172
0.0247209
0.0260168
0.0264165
0.030494
0.033324
0.0265071
0.0250798
0.0241993
0.0221347
0.0222504
0.024345
0.0249877
0.0250089
0.0240156
0.0410002
0.030756
0.0273946
0.0254308
0.0226885
0.0227265
0.0254805
0.027162
0.0300518
0.0405323
0.0339974
0.0285138
0.0276393
0.0257369
0.0226967
0.0229617
0.0258651
0.0275658
0.0298772
0.0374254
0.0312711
0.0269733
0.0266922
0.0254981
0.0229263
0.0227911
0.0248379
0.0256268
0.0271636
0.0342214
0.0246521
0.0257111
0.0257107
0.0250439
0.02292
0.0233896
0.026196
0.0282256
0.031694
0.0423095
0.0413495
0.0308789
0.028005
0.0262327
0.023452
0.0235123
0.026494
0.0282818
0.0292919
0.0350576
0.0384945
0.0305632
0.0283369
0.0266253
0.0237111
0.0236783
0.0263562
0.0275602
0.0276978
0.032194
0.0350863
0.028012
0.0264425
0.0255416
0.0234522
0.0237449
0.0259536
0.0266124
0.0266204
0.0255591
0.0436356
0.032723
0.0291534
0.0270486
0.0240929
0.0241605
0.0270254
0.0288925
0.0320344
0.0429325
0.0361309
0.0301798
0.02922
0.0275243
0.0244187
0.0245172
0.0275379
0.0292791
0.031544
0.0395955
0.0333515
0.0287079
0.0284764
0.0272734
0.0245157
0.0243091
0.0264285
0.0273095
0.0287548
0.0361555
0.0264516
0.0275726
0.0275796
0.0268746
0.024588
0.024971
0.0280937
0.0303407
0.0341175
0.045411
0.0440927
0.0329433
0.0299538
0.0281913
0.0250742
0.0251679
0.0284311
0.0302922
0.0315328
0.0380499
0.0413321
0.0330431
0.0307031
0.0286738
0.025353
0.0254007
0.0284817
0.0300668
0.0305044
0.0358593
0.0395805
0.031908
0.0298845
0.028464
0.0255598
0.0254078
0.028117
0.029255
0.0291301
0.0339206
0.0369999
0.0296183
0.0281341
0.0274708
0.0253964
0.0256816
0.0279928
0.0286968
0.0286881
0.0275564
0.0471661
0.0354639
0.0316007
0.0292899
0.0260659
0.0261483
0.0293597
0.0311009
0.0341699
0.045734
0.0396592
0.032831
0.0315513
0.0296551
0.0262807
0.0263707
0.0296297
0.0316868
0.0340291
0.0427187
0.0371436
0.0314318
0.0310325
0.0295952
0.0264997
0.0264671
0.0294098
0.0309701
0.0331444
0.0409935
0.0351633
0.0299461
0.0300262
0.0290241
0.0262635
0.0261702
0.028217
0.028991
0.0304551
0.0379132
0.0285131
0.0297151
0.0297266
0.0289564
0.0264188
0.0269054
0.0302917
0.0327369
0.0367544
0.0488044
0.0467783
0.0351161
0.0322734
0.030482
0.0271115
0.0272862
0.0306565
0.0324641