/*--------------------------------*- C++ -*----------------------------------*\
| =========                 |                                                 |
| \\      /  F ield         | OpenFOAM: The Open Source CFD Toolbox           |
|  \\    /   O peration     | Version:  v2006                                 |
|   \\  /    A nd           | Website:  www.openfoam.com                      |
|    \\/     M anipulation  |                                                 |
\*---------------------------------------------------------------------------*/
FoamFile
{
    version     2.0;
    format      ascii;
    class       volScalarField;
    location    "0.18";
    object      nut;
}
// * * * * * * * * * * * * * * * * * * * * * * * * * * * * * * * * * * * * * //

dimensions      [0 2 -1 0 0 0 0];


internalField   nonuniform List<scalar> 
38932
(
0.0606736
0.0606749
0.0606914
0.0606897
0.0606855
0.0606787
0.0606683
0.0606548
0.0606379
0.060618
0.0605949
0.0605691
0.0605402
0.0605084
0.0604737
0.060436
0.0603954
0.0603518
0.0603054
0.060256
0.0602038
0.0601487
0.0600908
0.0600302
0.0599667
0.0599005
0.0598316
0.05976
0.0596857
0.0596088
0.0595293
0.0594472
0.0593626
0.0592755
0.0591859
0.059094
0.0589996
0.058903
0.058804
0.0587028
0.0585994
0.0584938
0.0583861
0.0582764
0.0581647
0.058051
0.0579354
0.057818
0.0576988
0.0575779
0.0574553
0.0573311
0.0572053
0.0570781
0.0569494
0.0568194
0.0566882
0.0565557
0.0564221
0.0562874
0.0561517
0.0560151
0.0558776
0.0557394
0.0556005
0.0554609
0.0553209
0.0551804
0.0550395
0.0548983
0.054757
0.0546155
0.054474
0.0543325
0.0541913
0.0540502
0.0539095
0.0537692
0.0536294
0.0534902
0.0533517
0.053214
0.0530772
0.0529414
0.0528066
0.052673
0.0525406
0.0524096
0.05228
0.052152
0.0520255
0.0519008
0.0517779
0.0516569
0.0515378
0.0514208
0.051306
0.0511934
0.0510832
0.0509753
0.0508699
0.0507671
0.0506669
0.0505694
0.0504746
0.0503828
0.0502938
0.0502077
0.0501247
0.0500447
0.0499678
0.0498941
0.0498236
0.0497563
0.0496923
0.0496316
0.0495742
0.0495203
0.0494699
0.0494231
0.0493796
0.0493386
0.0492961
0.0492359
0.0491583
0.0489659
0.0483703
0.0458489
0.0372642
0.0132525
0.00491967
0.0001789
0.000189015
0.00205051
0.00547073
0.00380131
0.00138069
0.000186429
0.000181467
0.00108456
0.00297251
0.00255685
0.000915706
0.000176217
0.000169518
0.000814904
0.00226789
0.00209274
0.000757996
0.000164069
0.000158624
0.00071066
0.0019812
0.00190766
0.000686279
0.00015423
0.000150777
0.000668312
0.00185273
0.00181008
0.00065462
0.000147906
0.000145447
0.000643637
0.00177443
0.00174318
0.000634363
0.00014334
0.000141514
0.000626174
0.00171461
0.00168765
0.000618632
0.000139912
0.00013849
0.000611492
0.00166182
0.00163684
0.000604616
0.000137209
0.000136042
0.000597933
0.00161261
0.00158908
0.000591412
0.000134964
0.000133959
0.000585044
0.00156623
0.00154407
0.000578833
0.000133012
0.000132112
0.000572783
0.00152259
0.0015018
0.000566903
0.000131251
0.000130421
0.000561199
0.00148171
0.00146229
0.000555674
0.000129617
0.000128836
0.000550331
0.00144354
0.00142543
0.000545167
0.000128072
0.000127324
0.00054018
0.00140794
0.00139104
0.000535366
0.000126589
0.000125865
0.000530718
0.00137471
0.00135892
0.000526232
0.000125149
0.00012444
0.0005219
0.00134364
0.00132884
0.000517716
0.000123736
0.000123036
0.000513673
0.00131451
0.00130062
0.000509766
0.000122339
0.000121643
0.000505988
0.00128714
0.00127407
0.000502333
0.000120947
0.00012025
0.000498798
0.00126137
0.00124903
0.000495376
0.000119551
0.000118849
0.000492062
0.00123704
0.00122537
0.000488854
0.000118142
0.00011743
0.000485745
0.00121402
0.00120298
0.000482733
0.000116712
0.000115986
0.000479814
0.00119222
0.00118174
0.000476985
0.000115252
0.000114509
0.000474243
0.00117153
0.00116158
0.000471585
0.000113755
0.00011299
0.000469009
0.00115187
0.00114241
0.000466513
0.000112213
0.000111422
0.000464095
0.00113318
0.00112417
0.000461754
0.000110617
0.000109796
0.00045949
0.00111539
0.00110682
0.000457302
0.000108959
0.000108104
0.00045519
0.00109846
0.00109032
0.000453154
0.00010723
0.000106337
0.000451194
0.00108239
0.00107466
0.000449312
0.000105421
0.000104483
0.00044751
0.00106714
0.00105983
0.000445789
0.000103522
0.000102535
0.000444151
0.00105273
0.00104584
0.000442598
0.000101521
0.000100479
0.000441136
0.00103917
0.00103272
0.000439767
9.9407e-05
9.83043e-05
0.000438498
0.0010265
0.00102051
0.000437334
9.71689e-05
9.59994e-05
0.000436283
0.00101477
0.00100929
0.000435353
9.4794e-05
9.35514e-05
0.000434557
0.00100409
0.000999193
0.000433907
9.22698e-05
9.09481e-05
0.000433416
0.000994611
0.000990386
0.000433103
8.95843e-05
8.81778e-05
0.000432993
0.000986558
0.000983152
0.000433103
8.6727e-05
8.5232e-05
0.000433474
0.000980239
0.000977834
0.000434123
8.36915e-05
8.2107e-05
0.000435111
0.000976061
0.00097492
0.00043646
8.04782e-05
7.88082e-05
0.000438251
0.000974595
0.000975071
0.000440522
7.70993e-05
7.53568e-05
0.000443361
0.000976567
0.000979194
0.000446849
7.35865e-05
7.1799e-05
0.000451099
0.000983133
0.000988415
0.00045616
7.00033e-05
6.82143e-05
0.000462176
0.000995429
0.00100428
0.000469243
6.6447e-05
6.47225e-05
0.000477411
0.00101502
0.00102731
0.000486485
6.30412e-05
6.14219e-05
0.00049663
0.00104192
0.00105842
0.000507597
5.98626e-05
5.83497e-05
0.000519098
0.00107694
0.00109725
0.000531068
5.68886e-05
5.53181e-05
0.000541027
0.00111827
0.00113958
0.000548209
5.43927e-05
5.40879e-05
0.000550012
0.0011612
0.00118507
0.000549643
5.3384e-05
5.21443e-05
0.000544692
0.00120232
0.00120696
0.000532419
5.02881e-05
4.79014e-05
0.000512086
0.00119544
0.00116664
0.000483943
4.50472e-05
4.18422e-05
0.000447552
0.00111801
0.00104746
0.000403379
3.85677e-05
3.5544e-05
0.0003541
0.000955277
0.00083345
0.000297822
3.29228e-05
3.1456e-05
0.000236996
0.000689608
0.000584787
0.000201386
3.101e-05
3.10171e-05
0.000185171
0.0005282
0.00050284
0.000176816
3.13668e-05
3.17584e-05
0.000172728
0.000492281
0.000489919
0.000172712
3.22226e-05
3.26529e-05
0.00017517
0.000495305
0.000506056
0.000179083
3.30238e-05
3.33313e-05
0.000183406
0.000517754
0.000530004
0.000188189
3.35528e-05
3.36645e-05
0.000192696
0.000542358
0.000553249
0.000196606
3.36953e-05
3.36754e-05
0.000199554
0.000562854
0.000572887
0.000202987
3.35662e-05
3.33467e-05
0.00020531
0.000580119
0.000585871
0.000207386
3.3062e-05
3.26924e-05
0.000208899
0.000589948
0.000591985
0.000209841
3.22442e-05
3.17378e-05
0.000210271
0.000592268
0.000590515
0.000210035
3.11428e-05
3.04958e-05
0.000209322
0.000587
0.000581551
0.000207986
2.9784e-05
2.9001e-05
0.000206071
0.000574268
0.000565171
0.000203637
2.81612e-05
2.72657e-05
0.000200667
0.000554297
0.000541549
0.000197125
2.62947e-05
2.52748e-05
0.00019312
0.000526974
0.000510272
0.000188495
2.41573e-05
2.30201e-05
0.000183371
0.000491187
0.000469101
0.000177386
2.17422e-05
2.02909e-05
0.000170423
0.000442953
0.000409899
0.000161476
1.8547e-05
1.66004e-05
0.00014941
0.000365781
0.000304753
0.000131764
1.40419e-05
1.09429e-05
0.000105091
0.000220944
0.000111755
5.67379e-05
8.08581e-06
5.1857e-06
2.49187e-05
2.81896e-05
3.53746e-05
4.78746e-05
5.93252e-05
7.13432e-05
7.92262e-05
8.69596e-05
9.23162e-05
9.73909e-05
0.000101371
0.000104858
0.000107775
0.000110309
0.000111452
0.000112782
0.000112904
0.000125038
0.000120086
0.000115031
0.000106077
6.72436e-05
3.75511e-05
4.66572e-05
5.55092e-05
3.74414e-05
1.79001e-05
1.94992e-05
2.04113e-05
1.88032e-05
1.65813e-05
1.45236e-05
8.50574e-06
6.58387e-06
5.25625e-06
4.23949e-06
3.20338e-06
7.02029e-06
1.29684e-05
2.08249e-05
3.5712e-05
8.90187e-05
6.24293e-05
3.79356e-05
1.59901e-05
4.04048e-06
5.10832e-06
3.00889e-05
7.13314e-05
0.000111044
0.000150098
0.000197148
0.000143314
9.1032e-05
3.78677e-05
5.9277e-06
6.34211e-06
4.30736e-05
0.000104362
0.000166727
0.000229188
0.000248544
0.000181571
0.000112264
4.61505e-05
6.62988e-06
6.66082e-06
4.70241e-05
0.000114775
0.000186181
0.000255315
0.000254982
0.000185474
0.000114088
4.66409e-05
6.54616e-06
6.35272e-06
4.58708e-05
0.000112016
0.000182195
0.000250993
0.000244795
0.000178107
0.000109643
4.51313e-05
6.11337e-06
5.90618e-06
4.46959e-05
0.000108011
0.000174996
0.000240286
0.000238734
0.000173396
0.000107221
4.47129e-05
5.73126e-06
5.58025e-06
4.47724e-05
0.000106643
0.000172411
0.000237738
0.000237076
0.000171356
0.000105918
4.46585e-05
5.39664e-06
5.17313e-06
4.38547e-05
0.000104121
0.000169308
0.000235568
0.000230086
0.000163922
0.00010003
4.17669e-05
4.83139e-06
4.49415e-06
3.77093e-05
9.23971e-05
0.000154589
0.000220868
0.000207637
0.000141221
8.14487e-05
3.20063e-05
4.01769e-06
3.23175e-06
2.41502e-05
6.65388e-05
0.000123325
0.000190308
0.000166459
9.96248e-05
4.51588e-05
1.27281e-05
2.03003e-06
1.35657e-06
6.11636e-06
2.84209e-05
7.00717e-05
0.000132916
9.08927e-05
3.86683e-05
1.69968e-05
4.9164e-06
1.43103e-06
1.66978e-06
3.01666e-06
9.69623e-06
2.57945e-05
5.12919e-05
3.55194e-05
1.34805e-05
4.84412e-06
3.11655e-06
3.07576e-06
2.57322e-06
3.196e-06
5.1961e-06
1.42687e-05
3.68871e-05
3.65004e-05
1.52704e-05
6.27253e-06
3.50602e-06
2.69478e-06
2.85476e-06
3.52765e-06
7.42986e-06
1.79029e-05
4.07569e-05
4.46988e-05
1.81376e-05
6.65017e-06
3.27567e-06
3.43399e-06
3.3258e-06
3.61529e-06
7.10994e-06
1.96133e-05
4.79366e-05
5.11012e-05
2.23556e-05
8.46019e-06
3.35903e-06
3.25436e-06
3.83912e-06
3.6305e-06
8.53546e-06
2.1599e-05
5.12653e-05
4.94343e-05
2.14255e-05
8.7762e-06
4.78021e-06
3.27602e-06
3.18122e-06
4.47459e-06
9.39503e-06
2.12326e-05
4.77609e-05
4.59121e-05
2.03834e-05
9.47179e-06
4.61589e-06
4.37303e-06
4.66296e-06
4.62169e-06
1.00699e-05
2.17562e-05
4.95478e-05
5.36782e-05
2.31505e-05
1.00263e-05
4.71197e-06
4.37764e-06
3.98413e-06
5.35019e-06
1.099e-05
2.50329e-05
5.62714e-05
6.05574e-05
2.96731e-05
1.27475e-05
5.25579e-06
3.32015e-06
3.69465e-06
4.83768e-06
1.42694e-05
3.26896e-05
6.55574e-05
7.17855e-05
3.5967e-05
1.4455e-05
4.89913e-06
3.59426e-06
3.52304e-06
5.6979e-06
1.52708e-05
3.62502e-05
7.2523e-05
7.92102e-05
3.96253e-05
1.61986e-05
4.88692e-06
4.05544e-06
4.27161e-06
5.94483e-06
1.53136e-05
3.47853e-05
7.22257e-05
7.17483e-05
3.66516e-05
1.63565e-05
5.92313e-06
4.12746e-06
4.84842e-06
6.14069e-06
1.68733e-05
3.51832e-05
7.15708e-05
7.52062e-05
3.87637e-05
1.72328e-05
6.49092e-06
4.03814e-06
4.13909e-06
6.98287e-06
1.91095e-05
4.03231e-05
7.67344e-05
8.29503e-05
4.43081e-05
1.98632e-05
5.89849e-06
4.08003e-06
4.50258e-06
6.64988e-06
2.03452e-05
4.32623e-05
8.4175e-05
8.90096e-05
4.81951e-05
2.15275e-05
6.88084e-06
3.9102e-06
4.59848e-06
6.43992e-06
2.25545e-05
4.72479e-05
8.99144e-05
9.235e-05
4.85696e-05
2.19691e-05
7.07253e-06
4.54669e-06
4.46229e-06
7.89029e-06
2.33598e-05
4.76653e-05
8.8879e-05
9.28076e-05
4.93518e-05
2.30111e-05
6.93413e-06
4.9965e-06
5.21329e-06
8.27895e-06
2.37423e-05
4.67346e-05
8.95892e-05
9.41078e-05
5.21814e-05
2.4764e-05
8.49817e-06
4.52158e-06
5.40299e-06
7.89805e-06
2.65787e-05
5.24698e-05
9.67432e-05
0.000101687
5.57726e-05
2.64504e-05
7.65059e-06
4.89691e-06
4.92014e-06
9.75582e-06
2.80176e-05
5.57984e-05
0.000101672
0.000106598
6.00946e-05
2.8538e-05
8.41652e-06
4.68628e-06
5.39204e-06
8.05378e-06
2.98147e-05
5.71691e-05
0.000105389
0.000106279
5.75464e-05
2.8399e-05
8.72709e-06
5.72595e-06
5.19063e-06
1.099e-05
3.09958e-05
5.92808e-05
0.000106068
0.000112473
6.40953e-05
3.11036e-05
1.00317e-05
5.19067e-06
6.0605e-06
9.23238e-06
3.35435e-05
6.48571e-05
0.000117213
0.000120512
6.70623e-05
3.27908e-05
8.9151e-06
5.51988e-06
5.65744e-06
1.1305e-05
3.46022e-05
6.65282e-05
0.000119171
0.000123866
7.0879e-05
3.43592e-05
9.86156e-06
5.28112e-06
6.10089e-06
9.58765e-06
3.65359e-05
6.67546e-05
0.000121713
0.000122845
6.87796e-05
3.46365e-05
1.06194e-05
6.14259e-06
5.66572e-06
1.21915e-05
3.85748e-05
7.23689e-05
0.000123525
0.00013068
7.50548e-05
3.69636e-05
1.08021e-05
6.07724e-06
6.82529e-06
1.13668e-05
3.99433e-05
7.38731e-05
0.000132924
0.000138954
8.02844e-05
3.95628e-05
1.17897e-05
5.99447e-06
6.35981e-06
1.24191e-05
4.24142e-05
8.32477e-05
0.000143009
0.000145199
8.22152e-05
4.09238e-05
1.05495e-05
6.19518e-06
6.74467e-06
1.27062e-05
4.36505e-05
7.92089e-05
0.000140643
0.000145958
8.49887e-05
4.24266e-05
1.26511e-05
6.15944e-06
6.93786e-06
1.14948e-05
4.6242e-05
8.14211e-05
0.000145361
0.000147416
8.45023e-05
4.34346e-05
1.29746e-05
7.01439e-06
6.52353e-06
1.42461e-05
4.82527e-05
8.99378e-05
0.000150131
0.000157489
9.09665e-05
4.53828e-05
1.28457e-05
7.07009e-06
7.60291e-06
1.41653e-05
4.91113e-05
9.00675e-05
0.000158819
0.000168163
9.89516e-05
4.92702e-05
1.54534e-05
6.85259e-06
7.75863e-06
1.3304e-05
5.07167e-05
9.87328e-05
0.000172848
0.000166369
9.26382e-05
4.87983e-05
1.25159e-05
7.37332e-06
7.68499e-06
1.57856e-05
5.1621e-05
9.05365e-05
0.000157603
0.000161384
9.47298e-05
4.99649e-05
1.66219e-05
7.60461e-06
7.30673e-06
1.37912e-05
5.3363e-05
9.98953e-05
0.000170082
0.000176326
0.00010369
5.21758e-05
1.73004e-05
7.35079e-06
7.34191e-06
1.37834e-05
4.96703e-05
0.000102337
0.000181118
0.000187885
9.80945e-05
4.88183e-05
1.42611e-05
9.2919e-06
9.40374e-06
1.60484e-05
5.06202e-05
0.000116386
0.000207148
0.000287785
0.000158933
7.11452e-05
2.46453e-05
1.26201e-05
1.61064e-05
4.23421e-05
0.000126136
0.000284709
0.000514057
0.000638276
0.000390321
0.00019598
6.78412e-05
2.02654e-05
2.46491e-05
0.000101534
0.000270449
0.000496354
0.000770679
0.000893257
0.00059977
0.000343452
0.000136327
2.87567e-05
3.22668e-05
0.000170602
0.000411074
0.00069399
0.00100623
0.00111135
0.000781836
0.000472977
0.000198952
3.50866e-05
3.79261e-05
0.000226323
0.000529027
0.000860748
0.00120522
0.0012797
0.000930046
0.000581007
0.000253226
4.06419e-05
4.30504e-05
0.000280861
0.000633877
0.00100364
0.00137151
0.00145804
0.00106941
0.000678643
0.000302535
4.51617e-05
4.76325e-05
0.000318983
0.000720466
0.00113519
0.00154884
0.00164252
0.00120361
0.00076435
0.000340302
5.07066e-05
5.58146e-05
0.000359641
0.000808304
0.0012665
0.00171671
0.00179132
0.00133684
0.000863025
0.000392293
6.09963e-05
6.52256e-05
0.000427777
0.000925633
0.00142394
0.00190173
0.00201347
0.00151255
0.000988535
0.000459819
6.91052e-05
7.30443e-05
0.000496956
0.00105148
0.00159978
0.00212102
0.00223002
0.00168181
0.00111022
0.000533947
7.55933e-05
7.60857e-05
0.000552899
0.00114322
0.00173421
0.00233142
0.00224779
0.00169909
0.00112224
0.000541048
7.46222e-05
7.30332e-05
0.000525226
0.00108609
0.00162904
0.00211862
0.00222419
0.00167184
0.0011036
0.000528774
7.43509e-05
7.52318e-05
0.000552543
0.00115175
0.00174825
0.00232537
0.00242616
0.0018261
0.0012056
0.000584197
7.72015e-05
7.75091e-05
0.000600483
0.00125152
0.0018975
0.002521
0.0026075
0.00196119
0.00129145
0.00061829
7.9724e-05
7.77271e-05
0.000619214
0.00130553
0.00199577
0.00267395
0.00265976
0.00196663
0.0012842
0.000610882
7.66249e-05
7.13465e-05
0.000575896
0.00121048
0.00183834
0.00241834
0.00216176
0.00166926
0.00111068
0.000528683
6.58368e-05
6.03693e-05
0.000487905
0.00103172
0.00157558
0.00212241
0.00199546
0.00149269
0.000971329
0.000453983
5.66974e-05
5.28554e-05
0.000425746
0.000913586
0.00139682
0.00184101
0.00187028
0.00138038
0.000892786
0.000414705
5.23195e-05
5.13529e-05
0.000411194
0.000894561
0.00139229
0.0018904
0.00188565
0.00139306
0.000895605
0.000411951
5.16429e-05
5.13342e-05
0.000412757
0.000895376
0.00139282
0.00188725
0.0018947
0.00139667
0.000896438
0.000414222
5.20386e-05
5.10614e-05
0.000414356
0.00090064
0.00140673
0.00191377
0.00193239
0.00140393
0.000898569
0.000414357
5.1124e-05
4.92299e-05
0.000402424
0.000869912
0.0013525
0.00182925
0.00171394
0.00128768
0.000830774
0.000383352
4.74511e-05
4.78929e-05
0.000384599
0.000840414
0.00131358
0.00179213
0.00186812
0.0013689
0.000873867
0.000400426
4.981e-05
5.11314e-05
0.00042122
0.000912206
0.00142624
0.00194288
0.00201567
0.00147725
0.000945205
0.000436062
5.13349e-05
5.04524e-05
0.000435723
0.000950742
0.00149625
0.00206889
0.00196581
0.00144972
0.00092594
0.00042244
4.84533e-05
4.60134e-05
0.000405667
0.000894031
0.00138953
0.0018515
0.00194583
0.00142416
0.000905295
0.000405388
4.53229e-05
4.74967e-05
0.000419158
0.000941467
0.00148782
0.00204092
0.00212876
0.00155314
0.000983738
0.000437903
4.93301e-05
5.05727e-05
0.000453591
0.00101633
0.0016094
0.00221078
0.00227795
0.0016357
0.00103015
0.000460913
5.10908e-05
5.04266e-05
0.000456461
0.00101118
0.00159238
0.00217
0.00205614
0.00153961
0.000989731
0.000449041
4.98954e-05
5.02511e-05
0.000454373
0.00101034
0.00158619
0.00216708
0.00228082
0.00166478
0.00105407
0.000471419
5.17462e-05
5.43315e-05
0.000490896
0.00110221
0.00174252
0.00238988
0.00249285
0.0018152
0.00114715
0.000516796
5.60767e-05
5.66973e-05
0.000522918
0.00116803
0.00185234
0.00258064
0.00246585
0.00180765
0.00114927
0.000519242
5.59103e-05
5.49148e-05
0.000515922
0.00113409
0.00176091
0.00234938
0.00248308
0.00181991
0.0011608
0.000523583
5.53122e-05
5.68603e-05
0.000544294
0.00121653
0.00191657
0.00262148
0.00275784
0.0020088
0.00126949
0.000568056
5.9593e-05
6.14023e-05
0.000583881
0.00129872
0.00206031
0.00287169
0.00275668
0.00202474
0.00129239
0.000584381
6.14116e-05
6.05717e-05
0.000582809
0.00127873
0.00198534
0.00264268
0.00280269
0.0020571
0.00131093
0.000592525
6.13874e-05
6.40043e-05
0.000616883
0.00136964
0.00216139
0.00296824
0.0031081
0.0022245
0.00140462
0.000635965
6.62464e-05
6.57059e-05
0.000637038
0.00139927
0.00219449
0.00299316
0.00288546
0.00216469
0.0013954
0.000637244
6.59555e-05
6.74041e-05
0.000654579
0.00144314
0.00225791
0.00307244
0.00326525
0.00238171
0.00150986
0.000682426
6.99628e-05
7.21373e-05
0.000703455
0.00155343
0.00246324
0.00344022
0.00332732
0.00244309
0.00156383
0.00071397
7.31364e-05
7.39766e-05
0.000726051
0.00157385
0.00242717
0.00322543
0.00344942
0.00254154
0.00163344
0.000747569
7.51543e-05
7.64314e-05
0.00077418
0.00171581
0.00269868
0.00368899
0.00391128
0.00281123
0.00177734
0.00080725
8.16063e-05
8.61309e-05
0.000838738
0.00180811
0.0028096
0.00381294
0.00373044
0.00281744
0.00184006
0.000862803
9.05561e-05
9.52582e-05
0.000899423
0.0019098
0.00295515
0.00400105
0.0042731
0.00308634
0.00198024
0.000933055
9.94386e-05
0.000101193
0.000953381
0.00200758
0.00309238
0.00418072
0.00410771
0.00310558
0.00203339
0.000965687
9.92764e-05
9.65542e-05
0.000968236
0.00208946
0.00325432
0.00441266
0.00472887
0.00338978
0.00213704
0.000957351
8.9403e-05
9.10656e-05
0.000958867
0.00216115
0.00340951
0.0046459
0.00460887
0.00345346
0.00221838
0.00100481
9.98497e-05
0.000108825
0.00105543
0.00230197
0.0036047
0.00498493
0.00496391
0.00367675
0.0023759
0.00110495
0.000116949
0.00012652
0.00116509
0.00246388
0.00377248
0.00497758
0.00541514
0.00396064
0.00257123
0.00122434
0.000135442
0.000144208
0.00128233
0.00266261
0.00405722
0.00542553
0.00546463
0.00418014
0.00277284
0.00134761
0.000153779
0.000162888
0.00141684
0.00290297
0.00440618
0.00596009
0.00600316
0.00452995
0.00301486
0.00148113
0.000172458
0.000182961
0.00155309
0.00314463
0.00468784
0.00606346
0.00658552
0.0049104
0.00325485
0.00160694
0.000188775
0.000180967
0.00160292
0.00326633
0.00494287
0.00657913
0.00655826
0.00491042
0.00320659
0.00154325
0.000177655
0.000191706
0.00154115
0.00317724
0.004892
0.00656875
0.00677008
0.00502361
0.00326059
0.00160239
0.000216414
0.000225796
0.00167811
0.00340681
0.00519073
0.00692203
0.00738925
0.00551233
0.00358558
0.00172577
0.000217368
0.000198152
0.00169359
0.00363974
0.00565531
0.00771305
0.00756673
0.00563318
0.00365706
0.00174013
0.000209895
0.000255807
0.00187494
0.00373141
0.00560961
0.00743935
0.0073239
0.00556857
0.00379829
0.00200303
0.000295271
0.0003118
0.00204084
0.00372935
0.005445
0.00715835
0.00689919
0.00517199
0.0034537
0.00177968
0.000313614
0.000300861
0.00143188
0.00300362
0.00469339
0.00643836
0.00544048
0.00396248
0.0024946
0.00112776
0.000266681
0.000228867
0.000908665
0.00211081
0.00346159
0.00484868
0.00426805
0.00303331
0.00187049
0.000834144
0.000207197
0.000192824
0.000727663
0.00168418
0.00278564
0.00398491
0.00358351
0.00252682
0.00152997
0.000653236
0.00017627
0.000162805
0.0005837
0.00141889
0.00239159
0.00345428
0.00313264
0.00217672
0.00128488
0.000512843
0.00014462
0.000121633
0.000463853
0.00122666
0.00212388
0.00311267
0.00286299
0.00198827
0.00116005
0.000432103
0.00010874
0.000109809
0.00047469
0.00118322
0.00200971
0.00293233
0.00274413
0.00194119
0.00117962
0.000497591
0.000109084
0.000107239
0.000523298
0.00121384
0.00199616
0.00285877
0.00277033
0.00194183
0.00120361
0.000530898
0.000104999
0.000100083
0.000516227
0.00114767
0.00180745
0.00244047
0.00252141
0.00182828
0.00116129
0.000523879
9.52387e-05
9.42692e-05
0.000553794
0.00117161
0.0018064
0.00245269
0.00260964
0.00189687
0.0012252
0.000588772
9.70535e-05
0.000100089
0.000607154
0.00123819
0.00189182
0.00260486
0.00238063
0.00181622
0.00122149
0.000617783
0.000102375
0.000102586
0.000613639
0.00123219
0.00185405
0.00248655
0.00248154
0.00183207
0.00122254
0.000610351
0.000101651
9.90727e-05
0.000587734
0.00118215
0.00175411
0.00228302
0.00238007
0.00178277
0.00117997
0.000567303
9.50892e-05
9.09627e-05
0.000560078
0.00116493
0.0017585
0.00237939
0.00219342
0.00168768
0.00113053
0.000543059
8.71728e-05
8.356e-05
0.000544657
0.00114185
0.00171889
0.00228114
0.00227277
0.00173156
0.00116495
0.000571258
8.26697e-05
8.52838e-05
0.000603402
0.00121987
0.00182507
0.00242481
0.00246163
0.00183998
0.00123834
0.0006206
8.74008e-05
8.83244e-05
0.000621284
0.00122824
0.00179374
0.00230925
0.00242052
0.00184377
0.0012473
0.000628944
8.87924e-05
8.93502e-05
0.000633966
0.00125203
0.0018464
0.00245165
0.00230141
0.00179631
0.0012335
0.000627039
8.91939e-05
8.94494e-05
0.000634161
0.00125298
0.00184314
0.00240885
0.00243959
0.00183907
0.00124712
0.000627297
8.90435e-05
8.83282e-05
0.000621482
0.00122764
0.00178961
0.00229481
0.00239808
0.00183215
0.0012394
0.000620968
8.75458e-05
8.66388e-05
0.000612451
0.0012351
0.00183167
0.00243141
0.0022875
0.0017808
0.00121374
0.0006049
8.52182e-05
8.42644e-05
0.000605603
0.00122858
0.00182417
0.002391
0.00242661
0.00182389
0.00122588
0.000603989
8.32066e-05
8.18176e-05
0.000592223
0.00120551
0.00177833
0.0022864
0.00239206
0.001826
0.00122873
0.000607114
8.15158e-05
8.13539e-05
0.000603905
0.00122716
0.00182743
0.00243323
0.00229633
0.00178456
0.00120985
0.000598178
8.06344e-05
7.98844e-05
0.00059651
0.00122886
0.00183401
0.00240726
0.00245325
0.00183654
0.00122149
0.000590282
7.85443e-05
7.60893e-05
0.000561117
0.00117604
0.00176483
0.00232809
0.00217403
0.00168337
0.00112533
0.000534204
7.31344e-05
7.13149e-05
0.000534015
0.00113071
0.00171063
0.00226069
0.00229636
0.00170739
0.0011275
0.0005358
7.02535e-05
6.96766e-05
0.000536059
0.00111369
0.00166669
0.0021642
0.00226808
0.00171505
0.00113569
0.00054327
6.95593e-05
6.91728e-05
0.000540129
0.00113494
0.0017176
0.00230979
0.00217799
0.00167775
0.00112
0.000536771
6.85019e-05
6.82911e-05
0.000536893
0.00113705
0.0017236
0.00228165
0.00232519
0.00172763
0.00113881
0.000542309
6.79181e-05
6.7629e-05
0.000530152
0.00112106
0.00168638
0.00219036
0.0022941
0.0017314
0.00114024
0.000538096
6.70831e-05
6.7054e-05
0.000535142
0.00113738
0.00173072
0.00233419
0.00219637
0.00168792
0.0011204
0.000529725
6.6438e-05
6.62862e-05
0.000535344
0.00113748
0.0017311
0.00229804
0.00233708
0.00173123
0.0011346
0.000530559
6.60132e-05
6.52193e-05
0.000523018
0.00111518
0.00168449
0.00219615
0.00229591
0.00172566
0.00113
0.000528385
6.50698e-05
6.47143e-05
0.000523104
0.00112539
0.00172461
0.00233456
0.00219065
0.00167605
0.00110267
0.000511312
6.3654e-05
6.29355e-05
0.000516944
0.00111787
0.00171458
0.0022882
0.00232326
0.00171002
0.00111292
0.000516711
6.25571e-05
6.18952e-05
0.000504999
0.00109115
0.00166344
0.00217937
0.00227557
0.0017017
0.00110578
0.000508953
6.11803e-05
6.09535e-05
0.000508069
0.00110059
0.00169821
0.00230858
0.0021661
0.00165199
0.00108305
0.000498818
6.02332e-05
5.93254e-05
0.000499045
0.00109423
0.00168965
0.0022627
0.00229634
0.00168552
0.00109005
0.000500653
5.87908e-05
5.84419e-05
0.0004895
0.00107333
0.00164416
0.00215888
0.00226191
0.00168812
0.00109126
0.000497358
5.82304e-05
5.85302e-05
0.000496437
0.00109356
0.0016939
0.00230734
0.0021878
0.00166528
0.00108855
0.000497474
5.83964e-05
5.97871e-05
0.000509561
0.001119
0.00172945
0.00231349
0.00238107
0.0017554
0.00113728
0.000519784
6.07203e-05
6.25606e-05
0.000532643
0.00115848
0.0017629
0.00230336
0.00247185
0.00186895
0.00122105
0.000559973
6.3665e-05
6.88676e-05
0.000591462
0.00127604
0.0019495
0.0026231
0.00259717
0.00200327
0.00133266
0.000622263
7.09314e-05
8.06072e-05
0.000681411
0.00144958
0.00215965
0.00277415
0.00303726
0.00238105
0.00160904
0.000756977
8.76789e-05
0.000100251
0.000853237
0.00182429
0.00274191
0.00357312
0.00388202
0.00292731
0.00194555
0.000911433
0.000106873
0.000111882
0.000923608
0.0019543
0.00293035
0.00385602
0.00365337
0.00285057
0.00191936
0.000912006
0.000113021
0.00011539
0.000923267
0.00195154
0.00291999
0.00380619
0.00385203
0.00297078
0.00199921
0.000950832
0.000119805
0.000124501
0.000993302
0.00208898
0.00313962
0.00410453
0.00420247
0.00317547
0.002119
0.00101336
0.000129162
0.000132215
0.00100968
0.00209294
0.00309853
0.00397078
0.00415045
0.0031795
0.0021255
0.00101735
0.000126794
0.000125659
0.00101512
0.00211854
0.00317769
0.00421526
0.00396017
0.00308248
0.00207419
0.000995871
0.000123894
0.000123345
0.00100684
0.0021061
0.00315924
0.00413241
0.00419233
0.00315709
0.00210379
0.00100973
0.000123435
0.000122733
0.000992603
0.00206135
0.00306121
0.00393653
0.00410839
0.00313514
0.00208802
0.000997705
0.000122001
0.00012151
0.000997786
0.00208359
0.00313297
0.00416848
0.00391189
0.00303481
0.00203667
0.000972171
0.000120471
0.0001202
0.00098261
0.00206524
0.00311
0.00408527
0.00414522
0.00310869
0.00206179
0.000983906
0.000120148
0.000118976
0.000965317
0.00201901
0.00301197
0.00388817
0.00405961
0.00308437
0.00204431
0.000969974
0.000118367
0.000117747
0.000961171
0.00203122
0.00307677
0.00411323
0.00385082
0.00297423
0.00198336
0.00094037
0.000116531
0.000115582
0.000938207
0.00199986
0.00303847
0.00401691
0.00405463
0.00302285
0.00198653
0.00093211
0.00011407
0.000113129
0.000918324
0.00194084
0.0029188
0.00378766
0.00392806
0.00297643
0.00196631
0.000927511
0.000113785
0.000115592
0.000942199
0.00199482
0.00300142
0.00393422
0.00416978
0.00314849
0.00206476
0.000967939
0.000118124
0.000119306
0.000970664
0.00207296
0.00315184
0.00422439
0.00395137
0.00304359
0.00202131
0.000955036
0.000118964
0.000118245
0.000955357
0.00203888
0.00310525
0.00411592
0.0041383
0.00307656
0.0020141
0.000943156
0.000116704
0.000115114
0.000917955
0.00195871
0.00296128
0.00384947
0.00398719
0.00300928
0.0019757
0.00092289
0.00011468
0.000115884
0.00093317
0.00199724
0.00302459
0.00397961
0.00421519
0.00316726
0.00206346
0.00095674
0.000117551
0.000118206
0.000959766
0.00206444
0.00316067
0.00425629
0.0039628
0.00303965
0.00200608
0.000937395
0.000117438
0.000116353
0.000936073
0.00201909
0.00309863
0.00412836
0.00414201
0.00306287
0.00199095
0.000920447
0.000115129
0.000114053
0.000899809
0.00193206
0.00293709
0.00383524
0.00397209
0.00298175
0.00194507
0.000900846
0.000113875
0.000114824
0.000910876
0.00196385
0.00299093
0.00395558
0.00419215
0.00313207
0.00202499
0.000931513
0.000116565
0.000116906
0.000932169
0.00202473
0.00312265
0.00422632
0.00391588
0.00299322
0.00196495
0.000911625
0.000115915
0.000114977
0.000908043
0.001972
0.00304579
0.00407819
0.00408492
0.00300774
0.00194221
0.000890779
0.000113773
0.000111968
0.000859723
0.00187394
0.00286914
0.0037656
0.00389871
0.00291098
0.00188159
0.000862374
0.000111455
0.000112099
0.000869755
0.00189642
0.00290883
0.00386869
0.00410195
0.00304111
0.00194884
0.000887968
0.000113248
0.000113684
0.000888066
0.00194379
0.00302
0.00411696
0.00379176
0.00288483
0.00188282
0.000867753
0.000112528
0.000112698
0.000868066
0.00189172
0.00292761
0.00392616
0.00389294
0.00292715
0.00190864
0.000878255
0.000114024
0.000115348
0.00089328
0.00195524
0.00305119
0.00412258
0.00413452
0.00303007
0.00194478
0.000887835
0.000115041
0.000113465
0.000855323
0.00187602
0.0028823
0.00379337
0.00392625
0.00291966
0.00187744
0.000853952
0.000112755
0.000113245
0.000858175
0.00188413
0.00290837
0.00388162
0.00411049
0.00303046
0.00193129
0.000873422
0.000113968
0.000113791
0.000870985
0.00192107
0.00300486
0.00411533
0.00376658
0.00285532
0.00185362
0.000848818
0.000112911
0.000112828
0.000844941
0.00185696
0.00289282
0.00389998
0.0038524
0.00288131
0.0018652
0.000850185
0.000113423
0.000114427
0.000865037
0.00191238
0.00300601
0.00408341
0.00408788
0.00297781
0.00189834
0.000861701
0.000114513
0.00011344
0.000827235
0.00182588
0.00282313
0.00373221
0.00386465
0.00285562
0.00182219
0.000821105
0.000112596
0.000113003
0.000830222
0.00183081
0.00284294
0.00381399
0.00404044
0.0029636
0.00187653
0.000843863
0.000113868
0.000113143
0.000838502
0.00186021
0.00293259
0.00403969
0.00367544
0.0027736
0.0017862
0.000806805
0.000111485
0.000110341
0.000800633
0.00178246
0.00280366
0.0038069
0.0037442
0.00278262
0.00178321
0.000802039
0.000110456
0.000111197
0.000815403
0.00182341
0.00289553
0.00396844
0.00396225
0.00286243
0.00180507
0.000800093
0.000110599
0.000108278
0.000761032
0.00171977
0.00269431
0.00358732
0.00371457
0.00271744
0.00171272
0.000756556
0.000106833
0.000108004
0.000768258
0.0017197
0.0027007
0.00364858
0.00385149
0.00281002
0.00177545
0.000793968
0.000110653
0.00011256
0.000808474
0.00179955
0.00281427
0.00379586
0.00403428
0.00294159
0.00184827
0.00082597
0.000114271
0.000114368
0.000820939
0.00183757
0.00291102
0.00402518
0.00363895
0.00273261
0.00174545
0.000776845
0.000112501
0.000111238
0.000770905
0.00173566
0.00275695
0.00377301
0.0036956
0.00272872
0.00173321
0.000772583
0.000111058
0.000111107
0.000782058
0.00176737
0.00283805
0.00391798
0.00390228
0.00279912
0.0017478
0.000762842
0.000109973
0.000107698
0.00073475
0.00166208
0.00262262
0.00351355
0.00364256
0.00264691
0.00165404
0.000729099
0.000106887
0.000107113
0.000732133
0.0016558
0.00262023
0.00356268
0.00376883
0.00272701
0.00170571
0.000754572
0.000108872
0.000111181
0.000767926
0.0017262
0.00272411
0.00369702
0.00393073
0.00284434
0.00176751
0.000777513
0.000112305
0.000111882
0.000775976