/*--------------------------------*- C++ -*----------------------------------*\
| =========                 |                                                 |
| \\      /  F ield         | OpenFOAM: The Open Source CFD Toolbox           |
|  \\    /   O peration     | Version:  v2006                                 |
|   \\  /    A nd           | Website:  www.openfoam.com                      |
|    \\/     M anipulation  |                                                 |
\*---------------------------------------------------------------------------*/
FoamFile
{
    version     2.0;
    format      ascii;
    class       surfaceScalarField;
    location    "0.1";
    object      phi;
}
// * * * * * * * * * * * * * * * * * * * * * * * * * * * * * * * * * * * * * //

dimensions      [1 0 -1 0 0 0 0];
oriented        oriented;


internalField   nonuniform List<scalar> 
32242
(
-2.61532e-05
-0.0013544
0.00133512
4.55285e-05
-0.00127013
0.00124391
8.34919e-06
7.76911e-05
-3.49631e-06
0.00146285
3.80263e-05
0.00159993
-3.29077e-05
0.00165138
-3.66854e-06
0.00169139
-1.63743e-05
0.00168406
-2.3297e-06
0.00168002
-2.43058e-06
0.00166947
-4.47662e-07
0.00166257
-1.01576e-06
0.00165676
-1.15358e-06
0.0016531
-1.27963e-06
0.00164974
-1.48016e-06
0.00164692
-1.51072e-06
0.00164385
-1.61919e-06
0.00164092
-1.72363e-06
0.00163777
-1.82404e-06
0.0016345
-1.92049e-06
0.00163109
-2.01316e-06
0.00162755
-2.1024e-06
0.00162388
-2.1886e-06
0.00162008
-2.27211e-06
0.00161616
-2.35323e-06
0.00161211
-2.43213e-06
0.00160794
-2.50895e-06
0.00160365
-2.5837e-06
0.00159924
-2.65636e-06
0.00159471
-2.72687e-06
0.00159008
-2.79514e-06
0.00158533
-2.86106e-06
0.00158047
-2.92451e-06
0.00157551
-2.98535e-06
0.00157045
-3.04346e-06
0.0015653
-3.09869e-06
0.00156005
-3.15091e-06
0.00155472
-3.19996e-06
0.00154931
-3.24573e-06
0.00154383
-3.28811e-06
0.00153827
-3.32696e-06
0.00153265
-3.36217e-06
0.00152697
-3.39364e-06
0.00152124
-3.42126e-06
0.00151546
-3.44492e-06
0.00150964
-3.46455e-06
0.00150378
-3.48005e-06
0.0014979
-3.49133e-06
0.00149199
-3.4983e-06
0.00148606
-3.50091e-06
0.00148013
-3.49907e-06
0.00147419
-3.49278e-06
0.00146826
-3.48204e-06
0.00146234
-3.46671e-06
0.00145643
-3.44524e-06
0.00145056
-3.42006e-06
0.00144471
-3.39056e-06
0.0014389
-3.35622e-06
0.00143315
-3.31713e-06
0.00142744
-3.27328e-06
0.0014218
-3.22469e-06
0.00141622
-3.17138e-06
0.00141073
-3.11336e-06
0.00140531
-3.05067e-06
0.00139999
-2.98334e-06
0.00139476
-2.91134e-06
0.00138963
-2.83463e-06
0.00138462
-2.75309e-06
0.00137973
-2.6665e-06
0.00137495
-2.57457e-06
0.00137031
-2.47694e-06
0.0013658
-2.37327e-06
0.00136144
-2.26336e-06
0.00135722
-2.14709e-06
0.00135316
-2.02419e-06
0.00134926
-1.89345e-06
0.00134552
-1.75138e-06
0.00134191
-9.22101e-07
0.00133772
-1.40005e-06
0.00133426
-1.1699e-06
0.00132816
-2.8955e-06
0.00131955
-4.6166e-06
0.00130742
-1.96295e-05
0.00128696
-3.00954e-05
0.00126105
-8.36235e-05
0.00122473
-0.000143177
0.00120262
-0.000328503
0.00121428
-0.000736196
0.00140183
-0.000202563
0.000361196
2.04325e-05
0.000599541
4.44663e-06
0.000786407
-3.85985e-05
0.000696037
-1.24937e-05
0.000609994
-7.50921e-06
0.000220539
-4.58124e-06
0.000183625
0.000148435
8.52639e-06
0.000139909
1.73475e-05
0.000174804
0.000210943
2.69429e-05
-1.36292e-05
0.000203716
2.08568e-05
-6.80518e-06
0.00016798
0.000133103
2.50444e-06
0.000130599
4.12781e-06
0.000166356
0.00020248
5.36311e-06
-4.65158e-06
0.000200395
6.73665e-06
-2.8715e-06
0.000164576
0.000127728
1.54675e-06
0.000126181
2.02867e-06
0.000164094
0.00020028
2.14361e-06
-4.45896e-06
0.000198717
6.02263e-06
-2.60025e-06
0.000162236
0.000123581
1.26908e-06
0.000122311
1.14649e-06
0.000162358
0.000198482
1.38151e-06
-3.62731e-06
0.000197499
4.61055e-06
-1.77607e-06
0.000160507
0.000120535
4.71926e-07
0.000120064
3.54563e-07
0.000160624
0.000197859
-6.29713e-09
-2.83711e-06
0.00019616
4.53628e-06
-1.60635e-06
0.000159394
0.000118457
3.42429e-07
0.000118115
2.39646e-07
0.000159496
0.000196461
-6.07694e-08
-2.71689e-06
0.000195374
3.8038e-06
-1.48143e-06
0.000158261
0.000116633
2.51144e-07
0.000116382
1.47936e-07
0.000158364
0.00019564
-1.1856e-07
-2.62298e-06
0.000194523
3.74037e-06
-1.38808e-06
0.000157129
0.000114994
1.8339e-07
0.000114811
8.27076e-08
0.00015723
0.000194759
-1.5348e-07
-2.54961e-06
0.000193618
3.69068e-06
-1.31737e-06
0.000155998
0.000113493
1.32272e-07
0.000113361
2.73441e-08
0.000156103
0.000193833
-1.87667e-07
-2.48674e-06
0.000192677
3.64343e-06
-1.26182e-06
0.000154878
0.000112099
9.25957e-08
0.000112007
-1.2727e-08
0.000154983
0.000192873
-2.09166e-07
-2.43707e-06
0.000191704
3.60576e-06
-1.22106e-06
0.000153767
0.000110786
6.11204e-08
0.000110725
-4.22203e-08
0.000153871
0.000191884
-2.22174e-07
-2.39751e-06
0.000190702
3.57961e-06
-1.18739e-06
0.00015266
0.000109537
3.88187e-08
0.000109498
-6.16291e-08
0.000152761
0.000190868
-2.27502e-07
-2.36733e-06
0.000189674
3.5613e-06
-1.16011e-06
0.000151554
0.000108338
2.28683e-08
0.000108315
-7.47063e-08
0.000151651
0.000189826
-2.2639e-07
-2.34309e-06
0.000188621
3.54832e-06
-1.13781e-06
0.000150446
0.000107178
1.16472e-08
0.000107166
-8.11593e-08
0.000150539
0.000188757
-2.1804e-07
-2.32499e-06
0.000187541
3.54191e-06
-1.11995e-06
0.000149334
0.000106046
4.40547e-09
0.000106042
-8.17289e-08
0.00014942
0.000187662
-2.02876e-07
-2.31218e-06
0.000186432
3.54141e-06
-1.10575e-06
0.000148213
0.000104936
4.86541e-10
0.000104935
-7.71969e-08
0.000148291
0.000186537
-1.81577e-07
-2.30385e-06
0.000185295
3.54619e-06
-1.09461e-06
0.000147082
0.000103841
-1.13753e-09
0.000103842
-6.88838e-08
0.00014715
0.000185382
-1.55885e-07
-2.29901e-06
0.000184126
3.55501e-06
-1.08598e-06
0.000145937
0.000102756
-4.21159e-10
0.000102756
-5.69958e-08
0.000145993
0.000184194
-1.25718e-07
-2.29728e-06
0.000182924
3.56774e-06
-1.07929e-06
0.000144775
0.000101677
2.10575e-09
0.000101675
-4.17581e-08
0.000144819
0.000182973
-9.10887e-08
-2.29851e-06
0.000181687
3.5844e-06
-1.0744e-06
0.000143595
0.000100601
6.36133e-09
0.000100594
-2.3278e-08
0.000143625
0.000181716
-5.19626e-08
-2.30262e-06
0.000180413
3.60513e-06
-1.07119e-06
0.000142393
9.9523e-05
1.19712e-08
9.9511e-05
-2.39365e-09
0.000142408
0.000180421
-9.6823e-09
-2.30852e-06
0.000179101
3.62803e-06
-1.06923e-06
0.000141168
9.84418e-05
1.98676e-08
9.84219e-05
2.25993e-08
0.000141165
0.000179084
3.93083e-08
-2.31633e-06
0.000177748
3.65301e-06
-1.06834e-06
0.000139917
9.73536e-05
2.92269e-08
9.73244e-05
5.04301e-08
0.000139896
0.000177706
9.25009e-08
-2.32665e-06
0.000176351
3.68158e-06
-1.06878e-06
0.000138638
9.62556e-05
4.00043e-08
9.62156e-05
8.10827e-08
0.000138597
0.000176282
1.49821e-07
-2.33941e-06
0.000174908
3.71369e-06
-1.0705e-06
0.000137329
9.51452e-05
5.22353e-08
9.5093e-05
1.14628e-07
0.000137266
0.000174811
2.11476e-07
-2.35451e-06
0.000173416
3.7492e-06
-1.07344e-06
0.000135985
9.40196e-05
6.58853e-08
9.39537e-05
1.51013e-07
0.0001359
0.00017329
2.77455e-07
-2.37181e-06
0.000171874
3.78793e-06
-1.07753e-06
0.000134606
9.28763e-05
8.08894e-08
9.27954e-05
1.90134e-07
0.000134497
0.000171717
3.47648e-07
-2.39115e-06
0.000170278
3.82965e-06
-1.08267e-06
0.000133188
9.17128e-05
9.71575e-08
9.16157e-05
2.31831e-07
0.000133054
0.000170088
4.2185e-07
-2.41231e-06
0.000168626
3.87406e-06
-1.08873e-06
0.00013173
9.0527e-05
1.14575e-07
9.04124e-05
2.75892e-07
0.000131569
0.000168403
4.99763e-07
-2.43503e-06
0.000166917
3.9208e-06
-1.09558e-06
0.000130229
8.93168e-05
1.33017e-07
8.91838e-05
3.22082e-07
0.00013004
0.000166658
5.80947e-07
-2.45886e-06
0.000165147
3.96921e-06
-1.10301e-06
0.000128684
8.80807e-05
1.5224e-07
8.79284e-05
3.69922e-07
0.000128467
0.000164853
6.64738e-07
-2.48332e-06
0.000163317
4.0186e-06
-1.11077e-06
0.000127094
8.68175e-05
1.71961e-07
8.66455e-05
4.18823e-07
0.000126847
0.000162986
7.5022e-07
-2.5076e-06
0.000161425
4.06774e-06
-1.11846e-06
0.000125458
8.55269e-05
1.91694e-07
8.53351e-05
4.6781e-07
0.000125181
0.000161057
8.3594e-07
-2.53061e-06
0.000159473
4.11497e-06
-1.12552e-06
0.000123776
8.42095e-05
2.10791e-07
8.39986e-05
5.15605e-07
0.000123471
0.000159068
9.19907e-07
-2.5511e-06
0.000157461
4.15828e-06
-1.13143e-06
0.000122051
8.28671e-05
2.28763e-07
8.26383e-05
5.60916e-07
0.000121719
0.000157022
9.99952e-07
-2.56774e-06
0.000155394
4.19546e-06
-1.13561e-06
0.000120287
8.15026e-05
2.44867e-07
8.12577e-05
6.02181e-07
0.00011993
0.000154922
1.07358e-06
-2.57889e-06
0.000153277
4.22389e-06
-1.13729e-06
0.000118488
8.01203e-05
2.58193e-07
7.98621e-05
6.3744e-07
0.000118109
0.000152777
1.13767e-06
-2.58244e-06
0.000151119
4.24021e-06
-1.13551e-06
0.000116662
7.87265e-05
2.676e-07
7.84589e-05
6.64204e-07
0.000116265
0.000150595
1.18823e-06
-2.5758e-06
0.000148931
4.24022e-06
-1.12909e-06
0.000114818
7.73297e-05
2.7167e-07
7.70581e-05
6.79357e-07
0.000114411
0.00014839
1.22026e-06
-2.55574e-06
0.000146727
4.21878e-06
-1.11661e-06
0.000112971
7.59415e-05
2.68706e-07
7.56728e-05
6.79126e-07
0.000112561
0.000146178
1.22771e-06
-2.51853e-06
0.000144527
4.16983e-06
-1.09637e-06
0.000111139
7.45765e-05
2.56741e-07
7.43198e-05
6.59226e-07
0.000110737
0.000143983
1.20361e-06
-2.46004e-06
0.000142356
4.08654e-06
-1.06648e-06
0.000109343
7.32533e-05
2.33577e-07
7.30197e-05
6.14829e-07
0.000108962
0.000141831
1.14003e-06
-2.37545e-06
0.000140245
3.96105e-06
-1.02486e-06
0.000107611
7.19949e-05
1.96671e-07
7.17982e-05
5.40243e-07
0.000107268
0.000139758
1.0277e-06
-2.25938e-06
0.000138233
3.78453e-06
-9.69168e-07
0.000105977
7.08291e-05
1.43191e-07
7.06859e-05
4.29194e-07
0.000105691
0.000137806
8.5624e-07
-2.10655e-06
0.000136364
3.5482e-06
-8.97142e-07
0.000104482
6.97888e-05
7.09386e-08
6.97179e-05
2.76628e-07
0.000104276
0.000136024
6.17296e-07
-1.91251e-06
0.00013469
3.24564e-06
-8.05123e-07
0.000103169
6.89128e-05
-2.44538e-08
6.89374e-05
7.56476e-08
0.000103069
0.000134467
2.99591e-07
-1.66784e-06
0.000133269
2.86599e-06
-6.86943e-07
0.000102088
6.82505e-05
-1.47787e-07
6.83984e-05
-1.81693e-07
0.000102122
0.000133191
-1.03374e-07
-1.37942e-06
0.000132167
2.40353e-06
-5.53363e-07
0.000101297
6.78452e-05
-2.84674e-07
6.813e-05
-4.7911e-07
0.000101491
0.000132264
-5.76306e-07
-1.05648e-06
0.000131439
1.88213e-06
-4.06284e-07
0.000100841
6.77239e-05
-4.35542e-07
6.81595e-05
-8.11158e-07
0.000101217
0.000131738
-1.1108e-06
-7.17135e-07
0.000131124
1.33121e-06
-2.53847e-07
0.000100754
6.79058e-05
-5.90766e-07
6.84966e-05
-1.15854e-06
0.000101321
0.000131642
-1.6765e-06
-3.74242e-07
0.000131249
7.68226e-07
-1.0167e-07
0.000101049
6.8395e-05
-7.34478e-07
6.91295e-05
-1.48534e-06
0.0001018
0.000131979
-2.21623e-06
-4.14443e-08
0.000131798
2.2306e-07
5.01422e-08
0.000101708
6.91797e-05
-8.96038e-07
7.00757e-05
-1.84885e-06
0.000102661
0.000132765
-2.81582e-06
3.00275e-07
0.000132807
-3.42285e-07
2.00175e-07
0.000102761
7.02759e-05
-1.05461e-06
7.13306e-05
-2.20173e-06
0.000103908
0.000134009
-3.40363e-06
5.40377e-07
0.000134235
-7.66972e-07
2.896e-07
0.000104159
7.16202e-05
-1.14242e-06
7.27627e-05
-2.42815e-06
0.000105445
0.000135613
-3.80527e-06
6.9314e-07
0.000135971
-1.05175e-06
3.41778e-07
0.000105796
7.31045e-05
-1.18846e-06
7.4293e-05
-2.56617e-06
0.000107174
0.000137471
-4.0653e-06
7.67309e-07
0.000137917
-1.21361e-06
3.57535e-07
0.000107584
7.46506e-05
-1.20773e-06
7.58584e-05
-2.64375e-06
0.00010902
0.000139502
-4.22847e-06
7.86772e-07
0.000140001
-1.28641e-06
3.49609e-07
0.000109457
7.6208e-05
-1.20405e-06
7.74121e-05
-2.66848e-06
0.000110922
0.000141638
-4.30473e-06
7.56037e-07
0.000142157
-1.27554e-06
3.20396e-07
0.000111358
7.77326e-05
-1.17866e-06
7.89113e-05
-2.64332e-06
0.000112822
0.000143812
-4.29764e-06
6.80691e-07
0.000144321
-1.18928e-06
2.72165e-07
0.000113231
7.91836e-05
-1.13518e-06
8.03189e-05
-2.57508e-06
0.000114671
0.000145963
-4.21716e-06
5.6873e-07
0.000146434
-1.03947e-06
2.09248e-07
0.000115031
8.05282e-05
-1.07767e-06
8.1606e-05
-2.47203e-06
0.000116425
0.000148038
-4.07597e-06
4.28686e-07
0.000148449
-8.39163e-07
1.35605e-07
0.000116718
8.17418e-05
-1.00965e-06
8.27515e-05
-2.34192e-06
0.000118051
0.000149993
-3.88603e-06
2.68451e-07
0.000150325
-6.01011e-07
5.53064e-08
0.000118264
8.28069e-05
-9.36739e-07
8.37437e-05
-2.19268e-06
0.00011952
0.000151793
-3.66002e-06
9.64325e-08
0.000152034
-3.37633e-07
-2.68565e-08
0.000119643
8.37168e-05
-8.64314e-07
8.45811e-05
-2.03437e-06
0.000120813
0.000153411
-3.41145e-06
-7.94048e-08
0.000153551
-6.09364e-08
-1.08017e-07
0.000120842
8.4473e-05
-7.8959e-07
8.52625e-05
-1.87276e-06
0.000121925
0.000154832
-3.15394e-06
-2.49649e-07
0.000154873
2.09283e-07
-1.86225e-07
0.000121861
8.50761e-05
-7.17479e-07
8.57934e-05
-1.7141e-06
0.000122858
0.000156056
-2.89739e-06
-4.11175e-07
0.000155997
4.69908e-07
-2.58818e-07
0.000122705
8.55345e-05
-6.51345e-07
8.61856e-05
-1.56545e-06
0.000123619
0.000157084
-2.65326e-06
-5.58489e-07
0.00015693
7.12325e-07
-3.23127e-07
0.000123384
8.58622e-05
-5.93278e-07
8.64549e-05
-1.43135e-06
0.000124221
0.000157928
-2.42866e-06
-6.85509e-07
0.000157689
9.26773e-07
-3.76324e-07
0.000123912
8.60775e-05
-5.46149e-07
8.66219e-05
-1.31763e-06
0.000124684
0.000158608
-2.23253e-06
-7.90524e-07
0.000158293
1.11043e-06
-4.17968e-07
0.000124311
8.6201e-05
-5.09615e-07
8.6707e-05
-1.22483e-06
0.000125026
0.000159142
-2.06729e-06
-8.75472e-07
0.000158764
1.26381e-06
-4.49703e-07
0.0001246
8.62523e-05
-4.81694e-07
8.67282e-05
-1.15038e-06
0.000125269
0.000159555
-1.93164e-06
-9.42603e-07
0.000159123
1.38725e-06
-4.73468e-07
0.000124799
8.62481e-05
-4.60592e-07
8.67019e-05
-1.09157e-06
0.00012543
0.000159867
-1.82311e-06
-9.94488e-07
0.000159391
1.48413e-06
-4.9088e-07
0.000124926
8.62032e-05
-4.4488e-07
8.66405e-05
-1.04563e-06
0.000125527
0.000160095
-1.7367e-06
-1.03318e-06
0.000159585
1.55896e-06
-5.02706e-07
0.000124996
8.61296e-05
-4.34194e-07
8.65546e-05
-1.01129e-06
0.000125572
0.000160256
-1.66778e-06
-1.06113e-06
0.000159719
1.61408e-06
-5.10282e-07
0.000125022
8.6036e-05
-4.25343e-07
8.64529e-05
-9.83402e-07
0.00012558
0.000160366
-1.61345e-06
-1.07827e-06
0.000159809
1.65284e-06
-5.13425e-07
0.000125015
8.59289e-05
-4.19778e-07
8.63407e-05
-9.6488e-07
0.000125561
0.000160435
-1.57308e-06
-1.08968e-06
0.000159863
1.67936e-06
-5.13818e-07
0.000124984
8.58151e-05
-4.20829e-07
8.62243e-05
-9.60534e-07
0.000125521
0.000160477
-1.55563e-06
-1.11138e-06
0.00015989
1.71123e-06
-5.21853e-07
0.000124937
8.57002e-05
-4.14176e-07
8.61034e-05
-9.46341e-07
0.000125463
0.00016049
-1.53955e-06
-1.11918e-06
0.000159896
1.71787e-06
-5.25477e-07
0.000124874
8.55812e-05
-4.03888e-07
8.59865e-05
-9.29746e-07
0.000125398
0.000160484
-1.52633e-06
-1.12738e-06
0.000159882
1.72296e-06
-5.28533e-07
0.000124801
8.54616e-05
-3.95011e-07
8.58637e-05
-9.15653e-07
0.000125322
0.000160475
-1.51751e-06
-1.13432e-06
0.000159856
1.72908e-06
-5.33364e-07
0.000124717
8.53363e-05
-3.89978e-07
8.57531e-05
-9.06584e-07
0.000125249
0.000160448
-1.50675e-06
-1.13097e-06
0.000159822
1.72935e-06
-5.2881e-07
0.000124637
8.52252e-05
-3.92094e-07
8.56317e-05
-9.0709e-07
0.000125154
0.000160404
-1.50949e-06
-1.13541e-06
0.000159786
1.74049e-06
-5.30991e-07
0.000124554
8.51137e-05
-4.11411e-07
8.5513e-05
-9.39779e-07
0.00012506
0.000160353
-1.53701e-06
-1.14246e-06
0.000159739
1.74071e-06
-5.3522e-07
0.000124465
8.50016e-05
-3.98639e-07
8.54246e-05
-9.15897e-07
0.000124999
0.000160321
-1.49981e-06
-1.08381e-06
0.000159689
1.68567e-06
-4.99945e-07
0.000124379
8.48941e-05
-3.98306e-07
8.53249e-05
-9.09078e-07
0.000124918
0.000160278
-1.49585e-06
-1.11703e-06
0.000159678
1.71788e-06
-5.16765e-07
0.000124317
8.48116e-05
-4.4394e-07
8.52241e-05
-1.00371e-06
0.000124849
0.000160807
-2.13313e-06
-5.46463e-07
0.000159717
1.65166e-06
-4.68896e-07
0.000124796
8.47756e-05
-9.41933e-07
8.5701e-05
-1.57875e-06
0.000125428
0.000161463
-3.31522e-06
1.72103e-07
0.000161534
-2.41038e-07
7.70187e-08
0.000125516
8.57724e-05
-1.65143e-06
8.74428e-05
-4.52622e-06
0.00012841
0.000164085
-7.06739e-06
6.13601e-06
0.000168403
-1.04513e-05
2.97896e-06
0.000131562
9.04138e-05
-8.6649e-06
9.9069e-05
-1.96842e-05
0.000142567
0.00018198
-3.32772e-05
4.32865e-05
0.000211512
-7.28162e-05
1.94472e-05
0.000166415
0.000118528
3.93467e-05
9.49952e-05
0.000165987
3.99782e-05
-0.000288202
-5.72854e-05
-0.000326085
-6.18133e-05
-0.000510469
-2.49781e-05
-0.000550482
-1.59399e-05
-0.000577078
-3.11797e-06
-0.000579754
-2.5623e-06
-0.000584689
-2.02699e-07
-0.000585159
-8.03036e-07
-0.000585848
9.65555e-07
-0.000585304
1.55007e-06
-0.000583077
5.07551e-06
-0.000577012
9.78161e-06
-0.000568949
2.14752e-05
-0.000554885
3.83981e-05
-0.000540861
8.52429e-05
-0.000536063
0.000189246
-0.000544787
8.52791e-05
-0.000335919
4.86827e-05
-0.000332973
2.72061e-05
-0.000323181
2.72304e-05
-0.000275558
7.94208e-06
-0.000237154
4.58624e-06
-8.35388e-05
1.91653e-06
-5.64711e-05
-3.05193e-05
-2.27411e-06
-2.82592e-05
-5.95529e-06
-5.27794e-05
-7.83822e-05
-1.10698e-05
3.96657e-06
-7.53568e-05
-7.16107e-06
1.33233e-06
-5.01378e-05
-2.68274e-05
-8.63339e-07
-2.58456e-05
-1.59382e-06
-4.93896e-05
-7.35766e-05
-3.57382e-06
7.35199e-07
-7.29237e-05
-1.31518e-06
1.99236e-07
-4.8859e-05
-2.56873e-05
-4.86816e-07
-2.52537e-05
-6.20915e-07
-4.87383e-05
-7.23103e-05
-1.13547e-06
5.38862e-07
-7.27559e-05
-8.74173e-08
7.56312e-08
-4.82789e-05
-2.51839e-05
-1.69234e-09
-2.51775e-05
-2.16333e-08
-4.82554e-05
-7.27621e-05
-1.90793e-08
-2.46336e-08
-7.27781e-05
4.12732e-08
-1.26178e-08
-4.8266e-05
-2.51884e-05
2.18007e-08
-2.52064e-05
4.33599e-08
-4.82863e-05
-7.27989e-05
5.92038e-08
-5.64431e-08
-7.28327e-05
8.88588e-08
-2.60496e-08
-4.83166e-05
-2.52319e-05
1.98233e-08
-2.52556e-05
4.79785e-08
-4.83457e-05
-7.28605e-05
8.26564e-08
-5.5769e-08
-7.28971e-05
1.00539e-07
-2.31429e-08
-4.83794e-05
-2.52837e-05
2.27905e-08
-2.5311e-05
5.4824e-08
-4.84126e-05
-7.29309e-05
9.54575e-08
-6.44581e-08
-7.29727e-05
1.14426e-07
-2.72552e-08
-4.84502e-05
-2.53423e-05
2.46187e-08
-2.53712e-05
5.945e-08
-4.84856e-05
-7.30089e-05
1.0409e-07
-6.51035e-08
-7.30501e-05
1.1518e-07
-2.73636e-08
-4.85234e-05
-2.54026e-05
2.6265e-08
-2.54335e-05
6.27076e-08
-4.85605e-05
-7.30878e-05
1.09641e-07
-7.06043e-08
-7.31328e-05
1.2503e-07
-3.00083e-08
-4.86016e-05
-2.54683e-05
2.74143e-08
-2.55e-05
6.5022e-08
-4.86395e-05
-7.31717e-05
1.13446e-07
-6.96559e-08
-7.32154e-05
1.2283e-07
-2.96319e-08
-4.86799e-05
-2.5534e-05
2.80168e-08
-2.55672e-05
6.66924e-08
-4.87196e-05
-7.32559e-05
1.16398e-07
-7.3973e-08
-7.33033e-05
1.30293e-07
-3.16049e-08
-4.87628e-05
-2.56037e-05
2.89762e-08
-2.56366e-05
6.84331e-08
-4.88025e-05
-7.33442e-05
1.18869e-07
-7.22447e-08
-7.33906e-05
1.2754e-07
-3.07625e-08
-4.88452e-05
-2.56726e-05
2.94004e-08
-2.57071e-05
6.97555e-08
-4.88866e-05
-7.34331e-05
1.21623e-07
-7.70444e-08
-7.34819e-05
1.35127e-07
-3.31147e-08
-4.89311e-05
-2.57448e-05
2.95434e-08
-2.57793e-05
7.02982e-08
-4.89728e-05
-7.35252e-05
1.23119e-07
-7.38549e-08
-7.35725e-05
1.31754e-07
-3.09916e-08
-4.90163e-05
-2.58158e-05
2.96271e-08
-2.58515e-05
7.10729e-08
-4.90589e-05
-7.36165e-05
1.25544e-07
-7.79331e-08
-7.3667e-05
1.38943e-07
-3.29201e-08
-4.91049e-05
-2.58904e-05
3.06791e-08
-2.59262e-05
7.29595e-08
-4.91477e-05
-7.37116e-05
1.27596e-07
-7.82669e-08
-7.37609e-05
1.36411e-07
-3.38694e-08
-4.91928e-05
-2.59646e-05
3.27524e-08
-2.6002e-05
7.59596e-08
-4.92369e-05
-7.38065e-05
1.31059e-07
-8.24632e-08
-7.38577e-05
1.44258e-07
-3.57438e-08
-4.92834e-05
-2.60418e-05
3.28086e-08
-2.60786e-05
7.65613e-08
-4.93272e-05
-7.39039e-05
1.3274e-07
-7.80735e-08
-7.39557e-05
1.4038e-07
-3.33404e-08
-4.93736e-05
-2.6118e-05
3.28971e-08
-2.61558e-05
7.72335e-08
-4.94183e-05
-7.40014e-05
1.34195e-07
-8.94272e-08
-7.40555e-05
1.424e-07
-4.1536e-08
-4.94659e-05
-2.61964e-05
4.21997e-08
-2.62344e-05
8.8775e-08
-4.95122e-05
-7.41043e-05
1.27058e-07
-9.31778e-08
-7.41575e-05
1.35318e-07
-4.49925e-08
-4.95595e-05
-2.62738e-05
4.33143e-08
-2.63128e-05
9.06925e-08
-4.96066e-05
-7.42075e-05
1.30968e-07
-9.78706e-08
-7.42643e-05
1.43293e-07
-4.70577e-08
-4.96571e-05
-2.63549e-05
4.4737e-08
-2.63939e-05
9.32707e-08
-4.97049e-05
-7.43159e-05
1.33724e-07
-9.83272e-08
-7.43725e-05
1.42612e-07
-4.72306e-08
-4.97551e-05
-2.64348e-05
4.79018e-08
-2.64749e-05
9.8532e-08
-4.98048e-05
-7.44274e-05
1.38757e-07
-9.79428e-08
-7.44873e-05
1.54254e-07
-4.47458e-08
-4.98574e-05
-2.65171e-05
3.55142e-08
-2.65561e-05
8.52265e-08
-4.99068e-05
-7.45419e-05
1.49133e-07
-8.40842e-08
-7.46015e-05
1.58224e-07
-3.36233e-08
-4.99588e-05
-2.65975e-05
3.41552e-08
-2.66379e-05
8.39289e-08
-5.00102e-05
-7.46594e-05
1.52669e-07
-9.02361e-08
-7.47232e-05
1.6347e-07
-3.75722e-08
-5.0064e-05
-2.66801e-05
3.1773e-08
-2.67188e-05
8.22768e-08
-5.01155e-05
-7.47828e-05
1.54876e-07
-8.37951e-08
-7.48468e-05
1.62608e-07
-3.16539e-08
-5.01694e-05
-2.6759e-05
3.68996e-08
-2.67981e-05
9.02727e-08
-5.02234e-05
-7.49099e-05
1.54809e-07
-1.02919e-07
-7.49803e-05
1.62211e-07
-4.55622e-08
-5.02807e-05
-2.6839e-05
4.59389e-08
-2.68761e-05
1.02781e-07
-5.03362e-05
-7.50478e-05
1.54308e-07
-1.02662e-07
-7.51201e-05
1.6383e-07
-4.39465e-08
-5.03941e-05
-2.69142e-05
4.22121e-08
-2.69513e-05
1.01399e-07
-5.0453e-05
-7.51928e-05
1.62224e-07
-1.05959e-07
-7.52725e-05
1.73664e-07
-4.36816e-08
-5.05153e-05
-2.69899e-05
4.17071e-08
-2.70253e-05
1.03586e-07
-5.05761e-05
-7.53495e-05
1.68503e-07
-1.07448e-07
-7.54323e-05
1.78938e-07
-4.24067e-08
-5.06398e-05
-2.70614e-05
4.16375e-08
-2.70969e-05
1.08163e-07
-5.07054e-05
-7.55165e-05
1.79683e-07
-1.14282e-07
-7.56077e-05
1.93408e-07
-4.36528e-08
-5.07746e-05
-2.71334e-05
4.20391e-08
-2.71672e-05
1.13052e-07
-5.08439e-05
-7.5698e-05
1.89526e-07
-1.19032e-07
-7.57966e-05
2.01155e-07
-4.37768e-08
-5.09174e-05
-2.72014e-05
3.43036e-08
-2.72338e-05
1.09582e-07
-5.09928e-05
-7.58972e-05
2.07252e-07
-1.06095e-07
-7.60065e-05
2.26671e-07
-2.74491e-08
-5.10722e-05
-2.72666e-05
2.12835e-08
-2.72958e-05
9.9931e-08
-5.11522e-05
-7.61148e-05
2.25768e-07
-1.08019e-07
-7.6233e-05
2.39463e-07
-2.38379e-08
-5.12371e-05
-2.73253e-05
2.08279e-08
-2.7353e-05
1.08526e-07
-5.13252e-05
-7.63546e-05
2.45211e-07
-1.16962e-07
-7.6487e-05
2.63712e-07
-2.26163e-08
-5.142e-05
-2.73825e-05
2.13061e-08
-2.74101e-05
1.17649e-07
-5.15176e-05
-7.66224e-05
2.65859e-07
-1.25773e-07
-7.6769e-05
2.86199e-07
-2.26714e-08
-5.16228e-05
-2.74408e-05
2.04851e-08
-2.74725e-05
1.29002e-07
-5.17345e-05
-7.69208e-05
2.99474e-07
-1.44798e-07
-7.70851e-05
3.26592e-07
-2.59748e-08
-5.18559e-05
-2.75104e-05
3.98131e-08
-2.75494e-05
1.67667e-07
-5.19836e-05
-7.7255e-05
3.33924e-07
-2.00315e-07
-7.74404e-05
3.5982e-07
-5.89987e-08
-5.21229e-05
-2.75955e-05
6.77888e-08
-2.76464e-05
2.20127e-07
-5.22729e-05
-7.76346e-05
3.81158e-07
-2.47164e-07
-7.78441e-05
4.18367e-07
-8.05138e-08
-5.24374e-05
-2.77067e-05
7.16757e-08
-2.77756e-05
2.44306e-07
-5.26112e-05
-7.80633e-05
4.58436e-07
-2.53526e-07
-7.82989e-05
5.18156e-07
-6.76446e-08
-5.27993e-05
-2.78587e-05
7.71022e-08
-2.7956e-05
2.76458e-07
-5.30032e-05
-7.85448e-05
5.62341e-07
-3.16785e-07
-7.88094e-05
6.18856e-07
-9.83374e-08
-5.32255e-05
-2.80729e-05
1.11808e-07
-2.82089e-05
3.4891e-07
-5.34662e-05
-7.90866e-05
6.71133e-07
-3.96292e-07
-7.93851e-05
7.43824e-07
-1.36507e-07
-5.37296e-05
-2.83706e-05
1.6106e-07
-2.85596e-05
4.42842e-07
-5.40148e-05
-7.97016e-05
8.14779e-07
-4.92598e-07
-8.00368e-05
8.98962e-07
-1.86831e-07
-5.43282e-05
-2.87848e-05
2.15149e-07
-2.90495e-05
5.50533e-07
-5.4672e-05
-8.03825e-05
9.88903e-07
-6.86207e-07
-8.07673e-05
1.08284e-06
-3.10093e-07
-5.50458e-05
-2.93615e-05
4.17448e-07
-2.97273e-05
8.47869e-07
-5.54662e-05
-8.11872e-05
1.17193e-06
-9.17406e-07
-8.16481e-05
1.35053e-06
-4.47772e-07
-5.59313e-05
-3.01579e-05
4.45344e-07
-3.06639e-05
9.53877e-07
-5.64522e-05
-8.2137e-05
1.56591e-06
-1.11383e-06
-8.27004e-05
1.78823e-06
-5.33575e-07
-5.70467e-05
-3.12574e-05
8.2775e-07
-3.20865e-05
1.56952e-06
-5.77885e-05
-8.28038e-05
1.6764e-06
-1.54563e-06
-8.3318e-05
2.03256e-06
-9.55019e-07
-5.83745e-05
-3.3025e-05
7.44121e-07
-3.37634e-05
1.39881e-06
-5.90307e-05
-8.38579e-05
1.92161e-06
-1.22574e-06
-8.53472e-05
2.71489e-06
-2.86589e-07
-5.99752e-05
-3.40557e-05
1.27919e-06
-3.53415e-05
1.66269e-06
-6.03642e-05
-8.61443e-05
2.46501e-06
-1.97616e-06
-8.69295e-05
2.76245e-06
-5.90703e-07
-6.17481e-05
-3.59292e-05
9.23263e-07
-3.68497e-05
1.69823e-06
-6.25171e-05
-8.81963e-05
2.96864e-06
-2.35168e-06
-8.88899e-05
3.0505e-06
-1.02862e-06
-6.38336e-05
-3.78732e-05
1.10088e-06
-3.89669e-05
1.94143e-06
-6.46664e-05
-9.06749e-05
3.72838e-06
-2.65527e-06
-9.18589e-05
3.84293e-06
-1.39342e-06
-6.59233e-05
-4.03551e-05
1.36739e-06
-4.17048e-05
2.60781e-06
-6.71657e-05
-9.29599e-05
3.67313e-06
-2.57292e-06
-9.47595e-05
4.33246e-06
-1.14757e-06
-6.85969e-05
-4.28357e-05
1.09208e-06
-4.38919e-05
2.89035e-06
-7.03969e-05
-9.6587e-05
4.64772e-06
-4.31115e-06
-9.95691e-05
7.2903e-06
-2.42994e-06
-7.22831e-05
-4.63227e-05
2.51163e-06
-4.88092e-05
6.35914e-06
-7.61461e-05
-0.000103731
1.04975e-05
6.79701e-05
-5.0513e-05
-0.000121041
2.71036e-05
-3.53933e-05
-2.1687e-05
5.90688e-06
-2.60597e-05
1.44571e-05
-4.58625e-05
-6.59648e-05
3.0413e-05
-8.76766e-06
-7.30779e-05
1.57329e-05
-3.03271e-06
-5.14772e-05
-2.91022e-05
9.8214e-07
-3.01577e-05
2.28693e-06
-5.28107e-05
-7.4328e-05
3.62941e-06
-1.17845e-07
-7.44796e-05
2.90844e-07
-3.0666e-07
-5.26119e-05
-3.04683e-05
1.47363e-06
-3.19437e-05
3.25547e-06
-5.43977e-05
-7.61659e-05
4.95639e-06
-2.39793e-06
-7.74211e-05
3.68035e-06
-1.16233e-06
-5.56482e-05
-3.31062e-05
2.14224e-06
-3.53047e-05
4.22109e-06
-5.77334e-05
-7.98404e-05
6.78826e-06
-2.50882e-06
-8.1909e-05
4.96063e-06
-1.36772e-06
-5.8935e-05
-3.68547e-05
2.38589e-06
-3.9243e-05
4.96429e-06
-6.15086e-05
-8.44573e-05
7.56005e-06
-4.54729e-06
-8.71948e-05
7.06925e-06
-2.11409e-06
-6.39047e-05
-4.12485e-05
2.85028e-06
-4.39545e-05
6.5838e-06
-6.7593e-05
-9.22517e-05
1.13872e-05
-9.69067e-06
-9.91915e-05
1.62861e-05
-4.42856e-06
-7.28719e-05
-4.82196e-05
-2.56322e-05
-2.25835e-05
-6.32168e-05
-3.5427e-05
-4.94803e-05
-0.000112622
-1.63545e-05
-6.56967e-05
3.35134e-05
-8.44764e-06
-4.63924e-05
-2.89382e-05
3.83326e-06
-3.35134e-05
1.15982e-05
-5.41969e-05
-7.41627e-05
2.12762e-05
-7.41726e-06
-8.06434e-05
1.37609e-05
-3.69162e-06
-5.79099e-05
-3.71406e-05
2.86519e-06
-3.96191e-05
6.86456e-06
-6.17979e-05
-8.45361e-05
1.00473e-05
-5.442e-06
-8.8103e-05
9.04153e-06
-2.40643e-06
-6.48364e-05
-4.20742e-05
2.49101e-06
-4.47533e-05
5.53495e-06
-6.79268e-05
-9.17408e-05
9.53076e-06
-7.17153e-06
-9.69292e-05
1.21094e-05
-3.07224e-06
-7.19669e-05
-4.76942e-05
3.12107e-06
-5.08581e-05
6.85549e-06
-7.57551e-05
-0.000101483
1.15174e-05
6.56079e-05
-5.03841e-05
-0.000116778
2.69295e-05
-3.69358e-05
-2.40088e-05
5.7348e-06
-3.07446e-05
1.7967e-05
-4.79868e-05
-6.62035e-05
3.36813e-05
-1.18432e-05
-7.57262e-05
2.07277e-05
-4.78794e-06
-5.50535e-05
-3.51113e-05
2.63473e-06
-3.79349e-05
5.86564e-06
-5.83139e-05
-7.90352e-05
9.50786e-06
-3.57565e-06
-8.09565e-05
6.03759e-06
-1.55051e-06
-6.04035e-05
-3.97499e-05
3.1291e-06
-4.29712e-05
6.52756e-06
-6.3828e-05
-8.66408e-05
1.24078e-05
-9.60898e-06
-9.27585e-05
1.53642e-05
-4.46026e-06
-6.89079e-05
-4.72925e-05
-2.40013e-05
-2.31222e-05
-5.8845e-05
-3.42355e-05
-4.68565e-05
-0.000104694
-1.78789e-05
-6.23215e-05
3.40911e-05
-8.96338e-06
-4.60619e-05
-2.97819e-05
6.20501e-06
-3.59424e-05
1.42121e-05
-5.38753e-05
-7.23596e-05
2.40298e-05
-9.65388e-06
-8.06834e-05
1.80884e-05
-4.08987e-06
-5.95172e-05
-4.01426e-05
4.49536e-06
-4.47467e-05
9.4623e-06
-6.45428e-05
-8.72967e-05
1.62984e-05
-7.78339e-06
-9.17202e-05
1.19029e-05
-3.48223e-06
-6.88108e-05
-4.81116e-05
-2.50046e-05
-2.30918e-05
-5.97139e-05
-3.42875e-05
-4.60681e-05
-0.000105113
-1.71231e-05
-6.05986e-05
3.23434e-05
-9.16639e-06
-4.49558e-05
-3.01914e-05
4.79954e-06
-3.54855e-05
1.17149e-05
-5.18643e-05
-6.96411e-05
2.15194e-05
-9.28422e-06
-7.60037e-05
1.53331e-05
-4.19675e-06
-5.69226e-05
-3.9492e-05
4.64161e-06
-4.40878e-05
1.04589e-05
-6.27826e-05
-8.28573e-05
1.72094e-05
5.34875e-05
-4.24709e-05
-9.35479e-05
2.22408e-05
-3.17544e-05
-2.19061e-05
9.68653e-06
-2.90961e-05
1.75466e-05
-4.27803e-05
-5.66888e-05
3.23453e-05
-1.40135e-05
-6.81647e-05
2.66598e-05
-5.8911e-06
-5.09311e-05
-3.58313e-05
5.55701e-06
-4.11778e-05
1.2673e-05
-5.7969e-05
-7.68484e-05
2.09542e-05
-7.64942e-06
-8.14474e-05
1.23209e-05
-3.98294e-06
-6.16712e-05
-4.52027e-05
-2.26131e-05
-2.25944e-05
-5.2577e-05
-3.16905e-05
-4.18833e-05
-9.21065e-05
-1.88321e-05
-5.59993e-05
3.29651e-05
-7.59058e-06
-4.29405e-05
-3.01866e-05
6.85759e-06
-3.69902e-05
1.40842e-05
-5.0122e-05
-6.54129e-05
2.34994e-05
4.23135e-05
-3.41488e-05
-7.36052e-05
1.80638e-05
-2.57557e-05
-1.89824e-05
5.72629e-06
-2.60029e-05
1.71902e-05
-3.58854e-05
-4.73425e-05
3.02497e-05
-1.3689e-05
-5.55416e-05
2.19466e-05
-6.59141e-06
-4.30795e-05
-3.25951e-05
-1.64094e-05
-1.62323e-05
-3.79219e-05
-2.1573e-05
-2.78403e-05
-6.55495e-05
-1.08058e-05
-3.52757e-05
1.82406e-05
-5.0736e-06
-2.73055e-05
-2.13052e-05
-1.2713e-05
-8.59492e-06
-2.85086e-05
-1.15114e-05
-1.52066e-05
-4.85773e-05
7.87179e-07
-1.65225e-05
5.30027e-07
5.64352e-07
-1.12868e-05
-8.02999e-06
-1.3605e-05
5.57654e-06
-3.24053e-05
7.51619e-06
9.60866e-06
-5.85348e-05
2.53869e-05
2.64225e-05
-4.22004e-05
1.17333e-05
2.11707e-05
1.73108e-05
-1.08388e-05
2.81497e-05
-2.39409e-05
3.42727e-05
4.28891e-05
-4.04078e-05
2.75694e-05
6.34872e-05
-4.81683e-05
1.1536e-05
5.03055e-05
3.96856e-05
-1.34818e-05
5.31679e-05
-3.28837e-05
6.97073e-05
8.96942e-05
-5.90912e-05
-4.88804e-05
5.56658e-05
8.2903e-05
-2.13144e-05
4.21397e-05
3.1853e-05
-1.91266e-05
5.09955e-05
-4.36867e-05
6.67132e-05
8.72946e-05
-7.53073e-05
-4.04114e-05
5.92941e-05
6.83983e-05
-1.84185e-05
4.47138e-05
3.258e-05
-2.38946e-05
5.66905e-05
-5.55099e-05
7.63713e-05
9.9635e-05
-9.62789e-05
-3.77495e-05
7.50612e-05
6.20399e-05
-1.66487e-05
5.55431e-05
3.97785e-05
1.72203e-05
2.64728e-05
3.18218e-05
3.66087e-05
4.89682e-05
5.85207e-05
4.79891e-05
8.61549e-05
-8.51326e-05
2.00217e-05
6.47933e-05
4.6309e-05
1.38159e-05
3.22908e-05
3.28256e-05
4.56849e-05
6.01818e-05
5.90881e-05
5.98494e-05
0.000107306
-0.000106982
2.47712e-05
8.08102e-05