/*--------------------------------*- C++ -*----------------------------------*\
| =========                 |                                                 |
| \\      /  F ield         | OpenFOAM: The Open Source CFD Toolbox           |
|  \\    /   O peration     | Version:  v2006                                 |
|   \\  /    A nd           | Website:  www.openfoam.com                      |
|    \\/     M anipulation  |                                                 |
\*---------------------------------------------------------------------------*/
FoamFile
{
    version     2.0;
    format      ascii;
    class       volScalarField;
    location    "0.13";
    object      isentropic(p);
}
// * * * * * * * * * * * * * * * * * * * * * * * * * * * * * * * * * * * * * //

dimensions      [1 -1 -2 0 0 0 0];


internalField   nonuniform List<scalar> 
16277
(
150008
150014
150017
150003
150013
150010
150010
150012
150013
150013
150013
150012
150012
150011
150011
150011
150010
150010
150010
150010
150010
150010
150010
150009
150009
150009
150009
150009
150009
150009
150009
150009
150008
150008
150008
150008
150008
150008
150008
150008
150007
150007
150007
150007
150007
150007
150007
150007
150006
150006
150006
150006
150006
150006
150006
150006
150005
150005
150005
150005
150005
150005
150005
150005
150005
150004
150004
150004
150004
150004
150004
150004
150004
150004
150004
150003
150003
150003
150003
150002
150002
150001
150001
150000
150001
150003
150004
150005
150004
150006
150005
150007
150008
150011
150017
150015
149976
149936
150011
150022
150021
150002
149897
149860
149993
150018
150013
149981
149826
149796
149971
150008
150002
149959
149768
149744
149949
149997
149991
149938
149721
149703
149929
149986
149979
149919
149684
149669
149911
149975
149968
149901
149653
149640
149893
149964
149958
149884
149627
149616
149877
149953
149947
149868
149605
149595
149862
149943
149937
149854
149585
149577
149849
149934
149928
149841
149568
149561
149836
149925
149919
149829
149553
149547
149824
149916
149911
149817
149540
149534
149813
149908
149903
149807
149528
149523
149803
149901
149896
149797
149517
149513
149794
149893
149889
149788
149508
149504
149785
149887
149882
149779
149499
149496
149776
149880
149876
149771
149492
149489
149769
149874
149870
149763
149485
149483
149761
149868
149864
149756
149479
149477
149755
149863
149859
149750
149474
149473
149748
149857
149853
149744
149470
149469
149743
149852
149848
149738
149466
149465
149737
149847
149844
149733
149463
149463
149732
149843
149839
149728
149461
149461
149727
149839
149835
149724
149459
149459
149723
149835
149831
149720
149458
149458
149719
149831
149827
149716
149457
149458
149715
149827
149824
149712
149457
149458
149712
149824
149821
149709
149458
149459
149709
149820
149817
149706
149459
149460
149706
149817
149814
149704
149460
149462
149704
149814
149811
149702
149462
149464
149702
149811
149809
149700
149465
149467
149700
149809
149806
149698
149468
149470
149699
149806
149804
149697
149471
149474
149698
149804
149802
149696
149475
149478
149697
149802
149800
149695
149480
149483
149696
149801
149799
149695
149485
149488
149696
149799
149797
149695
149490
149493
149697
149798
149796
149696
149496
149499
149697
149797
149795
149696
149502
149506
149698
149796
149795
149698
149508
149512
149700
149796
149795
149700
149515
149519
149702
149796
149795
149702
149522
149526
149704
149796
149796
149704
149530
149534
149707
149797
149797
149708
149537
149542
149711
149799
149799
149711
149545
149549
149715
149801
149801
149716
149552
149557
149719
149804
149804
149721
149560
149564
149724
149807
149807
149726
149567
149571
149729
149810
149811
149731
149573
149578
149735
149814
149815
149737
149579
149583
149741
149819
149820
149742
149585
149588
149746
149823
149824
149748
149589
149591
149751
149828
149828
149753
149591
149593
149756
149832
149832
149757
149592
149594
149760
149835
149836
149760
149592
149593
149763
149839
149839
149763
149591
149591
149765
149842
149842
149765
149588
149588
149767
149844
149844
149766
149585
149584
149768
149846
149846
149767
149580
149579
149768
149848
149847
149767
149575
149574
149768
149849
149848
149766
149570
149568
149767
149850
149849
149765
149564
149562
149766
149850
149849
149764
149558
149556
149764
149850
149848
149762
149552
149550
149762
149850
149848
149760
149546
149544
149760
149849
149847
149757
149541
149539
149757
149848
149846
149754
149535
149534
149754
149847
149845
149752
149530
149529
149752
149845
149843
149749
149525
149524
149749
149844
149841
149746
149521
149519
149746
149842
149840
149743
149516
149515
149743
149840
149838
149740
149512
149511
149740
149838
149836
149738
149509
149508
149738
149837
149835
149735
149505
149504
149735
149835
149833
149733
149502
149501
149732
149833
149831
149730
149499
149498
149730
149831
149829
149727
149496
149495
149727
149829
149827
149725
149493
149492
149725
149827
149825
149722
149490
149489
149722
149825
149823
149719
149487
149486
149719
149823
149821
149717
149484
149483
149717
149821
149818
149714
149481
149480
149714
149819
149817
149712
149478
149479
149712
149818
149816
149711
149477
149479
149714
149819
149821
149716
149484
149496
149727
149831
149867
149776
149553
149516
149697
149792
149864
149922
149955
149966
149972
149984
149989
149994
149997
149999
149999
149998
149997
149993
149989
149979
149974
149967
149960
149946
149914
149842
149704
149542
149277
149259
149525
149687
149668
149507
149243
149234
149497
149658
149655
149493
149227
149227
149492
149654
149652
149491
149225
149225
149491
149653
149654
149492
149226
149227
149493
149655
149656
149493
149228
149229
149495
149657
149658
149496
149230
149231
149497
149659
149660
149498
149232
149232
149499
149661
149662
149500
149233
149234
149501
149663
149664
149502
149235
149236
149504
149665
149666
149505
149237
149238
149506
149667
149669
149507
149239
149240
149508
149670
149671
149509
149241
149242
149510
149672
149673
149512
149243
149244
149513
149674
149675
149514
149245
149246
149515
149676
149677
149516
149247
149248
149518
149679
149680
149519
149249
149250
149520
149681
149682
149522
149251
149252
149523
149684
149685
149524
149253
149254
149525
149686
149687
149526
149255
149256
149528
149688
149689
149529
149257
149258
149530
149690
149692
149531
149259
149260
149533
149693
149694
149534
149261
149262
149535
149696
149697
149536
149263
149264
149538
149698
149699
149539
149265
149265
149540
149701
149702
149542
149266
149267
149543
149703
149705
149544
149268
149269
149545
149706
149707
149547
149270
149271
149548
149709
149710
149550
149272
149273
149551
149712
149713
149552
149273
149274
149553
149715
149716
149555
149275
149275
149556
149717
149719
149557
149276
149277
149559
149721
149722
149560
149277
149278
149562
149724
149726
149563
149278
149279
149565
149728
149729
149566
149279
149279
149568
149731
149733
149569
149279
149279
149571
149735
149738
149573
149279
149279
149574
149740
149742
149576
149279
149279
149578
149745
149747
149580
149279
149279
149582
149750
149752
149584
149279
149279
149587
149755
149758
149590
149280
149280
149593
149762
149766
149596
149280
149281
149600
149769
149773
149603
149282
149284
149607
149776
149780
149612
149285
149288
149616
149783
149788
149621
149290
149293
149627
149793
149799
149634
149297
149303
149641
149804
149808
149648
149309
149316
149656
149813
149820
149668
149328
149338
149679
149827
149835
149691
149351
149367
149700
149842
149849
149713
149383
149400
149723
149856
149862
149733
149417
149436
149744
149868
149875
149755
149458
149477
149767
149881
149886
149777
149496
149516
149786
149890
149895
149794
149537
149563
149814
149905
149906
149831
149585
149311
149653
149801
149872
149729
149397
149409
149752
149892
149895
149763
149430
149457
149771
149894
149905
149786
149482
149508
149797
149912
149922
149818
149544
149569
149827
149926
149937
149843
149599
149621
149853
149944
149952
149874
149656
149691
149897
149951
149874
149764
149480
149584
149834
149929
149947
149856
149608
149630
149872
149961
149971
149891
149664
149683
149900
149979
149982
149916
149715
149744
149934
149997
149997
149944
149762
149612
149823
149929
149976
149905
149680
149699
149920
149997
150003
149937
149735
149760
149946
150008
150021
149964
149790
149828
149986
150020
149971
149902
149678
149770
149947
150009
150033
149976
149808
149832
149988
150040
150053
150008
149864
149891
150022
150050
150011
149958
149760
149863
150007
150054
150066
150023
149884
149918
150041
150078
150078
150059
149954
149849
150014
150050
150092
150057
149955
149975
150071
150098
150116
150096
150017
150037
150102
150112
150109
150082
149997
150068
150129
150144
150137
150134
150090
150092
150123
150148
150180
150180
150146
150181
150193
150178
150210
150215
150198
150275
150252
150217
150180
150222
150234
150277
150228
150187
150215
150260
150311
150293
150272
150233
150188
150213
150180
150035
150104
150104
150007
149953
149843
149889
149966
149977
149922
149868
149742
149798
149905
149931
149912
149855
149732
149622
149825
149857
149885
149833
149679
149628
149789
149852
149893
149849
149694
149655
149815
149875
149824
149755
149589
149651
149828
149886
149880
149795
149615
149559
149738
149818
149873
149820
149639
149597
149785
149869
149806
149722
149533
149634
149818
149871
149868
149782
149589
149518
149711
149800
149870
149817
149637
149587
149779
149867
149796
149709
149518
149628
149813
149867
149868
149781
149587
149514
149705
149794
149865
149810
149626
149587
149779
149863
149793
149706
149514
149636
149816
149867
149852
149788
149604
149561
149743
149824
149766
149691
149442
149597
149799
149846
149832
149767
149557
149489
149657
149769
149857
149791
149586
149551
149752
149836
149771
149694
149445
149593
149799
149848
149833
149763
149552
149479
149656
149767
149855
149792
149586
149552
149763
149837
149767
149654
149487
149585
149791
149856
149837
149754
149551
149443
149686
149767
149850
149796
149588
149558
149756
149838
149770
149690
149442
149587
149797
149852
149832
149751
149551
149424
149687
149762
149855
149794
149579
149503
149719
149805
149875
149822
149624
149590
149785
149860
149793
149702
149505
149628
149818
149869
149844
149791
149606
149520
149715
149799
149875
149825
149631
149608
149794
149849
149792
149707
149510
149613
149824
149892
149877
149781
149564
149503
149710
149808
149876
149827
149633
149591
149786
149867
149792
149722
149460
149602
149820
149879
149822
149734
149516
149625
149835
149891
149874
149805
149604
149516
149720
149810
149889
149835
149628
149589
149791
149870
149799
149726
149470
149606
149828
149884
149826
149741
149522
149649
149852
149905
149891
149820
149621
149523
149728
149820
149897
149845
149642
149604
149801
149877
149807
149736
149479
149608
149833
149892
149833
149744
149519
149656
149861
149909
149894
149825
149623
149519
149731
149822
149897
149843
149633
149588
149812
149882
149801
149672
149526
149601
149833
149890
149832
149739
149507
149651
149861
149906
149879
149818
149625
149485
149737
149810
149897
149839
149609
149525
149754
149841
149923
149856
149627
149570
149810
149913
149825
149702
149505
149606
149841
149905
149850
149765
149541
149639
149864
149929
149913
149818
149584
149515
149701
149827
149905
149843
149608
149527
149759
149845
149925
149861
149628
149581
149805
149905
149820
149731
149464
149621
149855
149912
149854
149766
149529
149641
149864
149913
149889
149826
149593
149528
149681
149808
149894
149855
149590
149499
149743
149838
149912
149851
149602
149516
149756
149847
149926
149871
149643
149602
149825
149907
149826
149731
149494
149603
149847
149911
149852
149758
149514
149623
149858
149912
149887
149817
149574
149510
149669
149802
149890
149848
149565
149468
149730
149829
149915
149856
149595
149514
149766
149857
149925
149865
149619
149575
149809
149900
149816
149731
149448
149571
149834
149904
149836
149739
149476
149591
149853
149914
149849
149755
149498
149607
149859
149924
149899
149810
149554
149482
149690
149819
149905
149848
149574
149476
149741
149838
149911
149851
149584
149495
149755
149849
149921
149860
149608
149564
149805
149895
149810
149715
149435
149559
149830
149900
149828
149725
149454
149575
149849
149912
149850
149752
149487
149602
149858
149917
149890
149797
149557
149395
149722
149804
149901
149819
149550
149428
149720
149826
149898
149837
149547
149447
149730
149830
149904
149842
149573
149527
149778
149875
149786
149702
149362
149541
149813
149896
149822
149711
149424
149539
149829
149897
149824
149720
149440
149546
149833
149898
149831
149731
149453
149573
149841
149904
149876
149791
149517
149435
149633
149782
149869
149819
149497
149393
149692
149801
149883
149813
149500
149413
149707
149814
149892
149824
149528
149433
149718
149823
149895
149832
149555
149502
149765
149866
149773
149684
149341
149493
149789
149873
149795
149680
149371
149488
149804
149876
149800
149690
149386
149505
149811
149880
149806
149696
149401
149535
149822
149887
149859
149756
149490
149316
149673
149764
149870
149773
149479
149345
149666
149786
149866
149795
149470
149350
149668
149785
149864
149793
149474
149369
149679
149792
149869
149801
149509
149435
149743
149838
149734
149564
149355
149414
149779
149827
149758
149642
149308
149441
149780
149852
149771
149651
149328
149443
149777
149853
149771
149653
149331
149450
149777
149851
149778
149665
149352
149472
149784
149856
149824
149710
149424
149215
149628
149720
149839
149717
149414
149257
149608
149742
149828
149748
149391
149273
149617
149743
149835
149758
149414
149293
149627
149751
149835
149759
149420
149312
149640
149759
149841
149768
149450
149383
149690
149807
149700
149591
149216
149380
149720
149817
149725
149593
149245
149373
149732
149815
149727
149598
149250
149375
149734
149816
149729
149602
149261
149396
149742
149820
149742
149621
149285
149415
149749
149824
149791
149670
149364
149143
149578
149678
149802
149682
149342
149187
149563
149705
149793
149708
149320
149179
149562
149698
149793
149712
149332
149196
149567
149701
149791
149709
149338
149228
149584
149711
149799
149720
149371
149312
149640
149765
149647
149531
149109
149299
149668
149774
149677
149534
149145
149282
149682
149771
149675
149535
149145
149299
149691
149775
149679
149541
149160
149303
149687
149772
149687
149554
149182
149329
149695
149776
149738
149602
149266
149018
149515
149617
149758
149612
149253
149074
149486
149645
149740
149643
149220
149080
149493
149640
149742
149650
149228
149090
149496
149642
149739
149647
149231
149106
149502
149645
149743
149653
149251
149126
149515
149656
149750
149662
149289
149211
149590
149717
149586
149410
149047
149189
149620
149708
149614
149461
149045
149194
149626
149717
149615
149464
149050
149200
149623
149718
149619
149470
149067
149209
149622
149717
149628
149486
149087
149243
149637
149726
149688
149548
149168
148959
149413
149554
149689
149567
149140
148973
149415
149578
149687
149590
149139
148975
149421
149581
149685
149589
149138
148999
149430
149585
149686
149590
149150
149015
149442
149591
149687
149591
149176
149083
149510
149648
149511
149312
148925
149061
149537
149638
149537
149368
148909
149075
149551
149653
149543
149375
148921
149095
149556
149658
149549
149386
148937
149102
149556
149657
149561
149403
148961
149140
149569
149665
149628
149475
149051
148828
149307
149474
149621
149493
149028
148835
149320
149500
149614
149499
149002
148836
149320
149496
149612
149502
149009
148857
149330
149502
149617
149510
149030
148872
149345
149512
149624
149524
149067
148978
149432
149590
149427
149243
148749
148959
149457
149582
149463
149279
148770
148964
149475
149588
149470
149291
148789
148989
149483
149589
149465
149287
148787
148973
149468
149576
149529
149355
148887
148605
149215
149372
149540
149386
148861
148656
149208
149407
149537
149412
148858
148663
149214
149408
149542
149422
148881
148697
149232
149423
149548
149436
148932
148801
149340
149508
149326
149062
148611
148780
149370
149477
149362
149160
148589
148792
149374
149492
149344
149140
148573
148785
149358
149484
149364
149164
148601
148821
149373
149496
149439
149238
148714
148400
149101
149266
149455
149275
148699
148455
149072
149299
149447
149312
148708
148490
149094
149311
149460
149324
148722
148514
149114
149324
149463
149343
148769
148649
149221
149423
149212
149007
148352
148571
149214
149380
149222
148987
148333
148602
149247
149390
149248
149021
148382
148619
149260
149402
149265
149041
148410
148664
149275
149410
149359
149142
148528
148233
148914
149146
149346
149177
148529
148283
148959
149200
149356
149208
148541
148309
148982
149211
149367
149238
148599
148490
149111
149327
149055
148821
148047
148375
149073
149258
149099
148839
148129
148410
149120
149284
149130
148875
148170
148442
149145
149301
149149
148903
148207
148486
149159
149311
149265
149038
148351
148051
148720
149019
149227
149073
148344
148084
148811
149080
149254
149104
148367
148118
148850
149103
149255
149131
148479
148205
148927
149167
148907
148608
147874
148195
148964
149141
148986
148710
147933
148225
149008
149181
149022
148753
147973
148281
149036
149202
149155
148901
148130
147786
148557
148879
149111
148921
148130
147841
148659
148956
149151
148982
148199
148041
148856
149119
148813
148479
147662
147968
148823
149018
148780
148454
147578
147904
148792
149003
148832
148522
147645
147999
148851
149043
148992
148693
147831
147444
148350
148699
148968
148747
147849
147509
148453
148784
149007
148815
147927
147728
148659
148961
148621
148249
147304
147743
148682
148908
148751
148409
147437
147777
148704
148905
148778
148441
147447
147022
148028
148446
148763
148523
147504
147150
148196
148570
148828
148609
147619
147406
148427
148779
148422
148024
146943
147403
148467
148738
148530
148143
147045
147523
148560
148785
148743
148389
147300
146811
147913
148348
148653
148391
147403
146765
147918
148338
148599
148328
147228
146972
148127
148503
148181
147689
146594
147074
148259
148530
148309
147876
146680
147200
148348
148596
148545
148147
146973
146437
147656
148127
148485
148196
147016
146610
147855
148284
148523
148327
147257
146991
148146
148496
147913
147381
146113
146727
147956
148277
148204
147779
146461
146013
147284
147854
148244
147941
146587
146124
147508
147998
148334
148060
146766
146518
147862
148295
147822
147278
145903
146622
147912
148203
148263
147851
146438
145670
147070
147693
147957
147529
146021
145671
147275
147823
147376
146707
145147
145918
147488
147875
147605
147023
145417
146201
147681
148017
147998
147494
145953
145281
146828
147461
147878
147556
146139
145979
147525
147973
147301
146619
145043
145409
147086
147565
147414
146805
145036
144476
146264
146976
147522
147102
145427
145138
146926
147516
147013
146270
144459
145454
147132
147520
147586
147011
145190
144505
146315
147011
147246
146789
145034
144281
146355
147028
146763
145968
143810
143068
145411
146274
146963
146464
144390
144026
146295
146995
146453
145523
143303
144625
146568
146976
147254
146731
144634
142977
145537
146467
145570
144492
141849
143351
145717
146347
146358
145583
142955
142540
145216
146242
145620
144626
141563
143580
145838
146350
146571
145893
143213
141297
144435
145609
144686
143481
140156
142293
145020
145707
145799
144972
141886
141508
144780
145856
145913
144974
141341
138700
142174
144094
144993
143763
140385
139995
143644
144942
144907
143524
139458
139385
143795
145145
144747
142918
137722
136394
141914
143960
142848
140387
135506
139374
143227
144445
144428
142955
138587
137360
142333
144096
143707
141899
136592
136188
141692
143485
143339
141245
135316
134889
141009
143243
143232
140861
134619
134344
140677
143209
143145
140453
134062
133806
140219
143057
142959
139988
133585
133399
139764
142854
142744
139549
133239
133104
139343
142629
142512
139146
132990
132895
138958
142391
142269
138781
132818
132757
138614
142146
142023
138460
132711
132677
138316
141900
141778
138182
132653
132639
138058
141657
141538
137944
132633
132633
137839
141419
141302
137742
132641
132654
137654
141186
141073
137573
132673
132696
137499
140961
140854
137432
132723
132754
137372
140748
140647
137318
132788
132824
137270
140547
140452
137227
132862
132902
137189
140360
140272
137155
132943
132984
137124
140186
140105
137097
133027
133070
137073
140027
139953
137052
133114
133157
137034
139882
139815
137018
133200
133243
137004
139750
139691
136992
133286
133327
136982
139633
139580
136973
133369
133408
136966
139529
139483
136960
133448
133487
136954
139438
139397
136951
133525
133562
136947
139358
139322
136945
133598
133632
136943
139288
139257
136943
133666
133698
136943
139227
139201
136943
133730
133759
136944
139175
139153
136946
133788
133816
136948
139131
139112
136951
133843
133867
136954
139093
139077
136958
133892
133915
136961
139061
139047
136966
133938
133959
136970
139034
139022
136974
133979
133998
136979
139011
139001
136984
134017
134035
136988
138991
138983
136994
134052
134068
136998
138975
138968
137004
134084
134099
137008
138961
138955
137013
134113
134126
137018
138949
138944
137023
134140
134152
137027
138939
138935
137032
134164
134175
137036
138930
138926
137041
134186
134196
137045
138922
138919
137050
134207
134216
137053
138916
138913
137058
134225
134233
137061
138910
138907
137066
134242
134250
137069
138905
138903
137073
134257
134264
137076
138900
138899
137080
134272
134278
137084
138897
138896
137087
134285
134291
137091
138894
138894
137094
134297
134302
137097
138892
138892
137101
134308
134313
137104
138891
138891
137108
134319
134324
137111
138890
138891
137114
134329
134333
137117
138889
138890
137121
134338
134343
137124
138889
138890
137127
134347
134352
137130
138889
138891
137134
134356
134360
137137
138890
138892
137140
134365
134369
137143
138891
138893
137147
134373
134377
137150
138892
138894
137153
134381
134385
137156
138894
138896
137160
134390
134393
137163
138896
138899
137167
134398
134401
137170
138899
138901
137174
134406
134409
137177
138901
138904
137181
134414
134417
137184
138905
138908
137188
134422
134425
137191
138908
138911
137195
134430
134433
137199
138912
138915
137203
134437
134441
137206
138916
138920
137210
134445
134449
137214
138921
138924
137218
134453
134457
137221
138925
138929
137226
134461
134465
137229
138930
138935
137233
134469
134472
137237
138936
138940
137241
134476
134480
137245
138942
138946
137249
134484
134487
137253
138947
138952
137258
134491
134495
137261
138954
138958
137266
134499
134503
137270
138960
138965
137274
134506
134510
137278
138967
138971
137282
134514
134517
137286
138973
138978
137291
134521
134525
137295
138980
138985
137299
134528
134532
137303
138987
138993
137307
134536
134539
137311
138995
139000
137316
134543
134546
137320
139002
139007
137324
134550
134553
137328
139009
139015
137333
134556
134560
137337
139017
139022
137341
134563
134566
137345
139025
139030
137349
134570
134573
137353
139032
139038
137358
134576
134579
137362
139040
139045
137366
134583
134586
137370
139048
139053
137374
134589
134592
137378
139056
139061
137382
134595
134598
137386
139063
139069
137391
134601
134604
137394
139071
139077
137399
134607
134610
137403
139079
139085
137407
134613
134615
137411
139087
139093
137415
134618
134621
137418
139095
139100
137423
134624
134626
137426
139103
139108
137431
134629
134632
137434
139111
139116
137438
134634
134637
137442
139119
139124
137446
134639
134641
137450
139126
139132
137454
134644
134646
137457
139134
139140
137461
134648
134650
137464
139142
139147
137468
134652
134654
137471
139149
139155
137475
134656
134658
137478
139157
139162
137482
134660
134662
137485
139164
139169
137489
134664
134665
137492
139171
139178
137495
134667
134668
137498
139179
139185
137503
134673
134675
137507
139189
139192
137511
134678
134680
137509
139189
139177
137498
134678
134670
137482
139159
139204
137503
134685
134760
137599
139355
139448
137673
134818
142056
144691
146369
146740
146890
147546
147883
148029
148174
148587
148855
149138
149349
149505
149620
149703
149762
149805
149836
149859
149877
149890
149901
149909
149916
149922
149926
149929
149931
149933
149934
149936
149936
149932
149934
149941
149946
149954
149962
149972
149983
149994
150005
150015
150021
150023
150022
150020
150017
150015
150013
150012
150010
150008
150007
150005
150003
150000
149998
149996
149994
149992
149990
149989
149988
149987
149986
149986
149986
149986
149987
149989
149991
149993
149997
150000
150005
150010
150015
150021
150027
150033
150040
150046
150052
150058
150063
150068
150072
150075
150078
150080
150081
150082
150081
150080
150079
150077
150074
150071
150068
150064
150061
150057
150053
150048
150044
150040
150036
150032
150028
150024
150020
150016
150013
150009
150006
150002
149999
149997
149994
149991
149989
149986
149984
149982
149980
149978
149977
149975
149974
149972
149971
149970
149969
149968
149967
149966
149965
149965
149964
149964
149963
149963
149963
149962
149962
149962
149962
149962
149962
149962
149962
149962
149962
149962
149962
149963
149963
149963
149963
149964
149964
149965
149965
149966
149966
149967
149967
149968
149968
149969
149969
149970
149971
149971
149972
149973
149973
149974
149975
149975
149976
149977
149978
149979
149980
149980
149981
149982
149983
149984
149985
149986
149987
149988
149989
149990
149991
149993
149994
149996
150000
150007
150012
150015
150015
150018
150004
150012
150012
150020
150026
150029
150029
150027
150026
150024
150022
150021
150020
150019
150018
150017
150016
150016
150015
150015
150014
150014
150013
150013
150012
150012
150012
150011
150011
150011
150011
150010
150010
150010
150010
150009
150009
150009
150009
150008
150008
150008
150008
150008
150007
150007
150007
150007
150006
150006
150006
150006
150006
150005
150005
150005
150005
150005
150004
150004
150004
150004
150003
150003
150003
150003
150002
150002
150002
150001
150001
150000
150000
149999
149999
149998
149997
149995
149994
149994
149995
149997
149999
150000
150004
150009
150019
150024
150024
150021
150019
150016
150013
150010
150008
150005
150003
150000
149998
149995
149993
149990
149988
149985
149983
149980
149979
149976
149975
149971
149971
149967
149966
149963
149963
149959
149959
149956
149955
149952
149952
149949
149949
149945
149945
149942
149942
149939
149939
149936
149936
149933
149934
149930
149931
149928
149928
149925
149926
149922
149923
149920
149921
149918
149918
149915
149916
149913
149913
149911
149911
149908
149909
149906
149907
149904
149905
149902
149903
149900
149901
149899
149899
149897
149898
149895
149896
149894
149895
149893
149894
149892
149893
149891
149893
149891
149893
149891
149893
149891
149894
149892
149895
149893
149896
149895
149898
149897
149900
149899
149902
149901
149905
149903
149907
149906
149910
149909
149912
149911
149915
149914
149917
149916
149919
149918
149921
149920
149923
149922
149925
149923
149926
149924
149927
149925
149927
149925
149927
149925
149927
149925
149927
149925
149927
149925
149927
149924
149926
149924
149925
149923
149924
149922
149923
149921
149922
149920
149921
149919
149920
149918
149919
149917
149918
149916
149917
149914
149915
149913
149914
149912
149913
149911
149912
149910
149912
149910
149914
149922
149932
149956
149955
149953
149965
149949
149952
149965
149949
149953
149966
149949
149953
149967
149950
149954
149968
149951
149955
149969
149952
149956
149970
149953
149956
149971
149954
149957
149972
149954
149958
149972
149955
149959
149973
149956
149960
149974
149957
149961
149975
149958
149962
149975
149959
149963
149976
149960
149963
149976
149960
149964
149977
149960
149964
149977
149960
149964
149978
149960
149964
149978
149960
149964
149978
149960
149964
149978
149960
149964
149978
149959
149963
149977
149958
149962
149976
149957
149961
149976
149956
149960
149974
149954
149958
149973
149952
149956
149972
149950
149954
149970
149948
149952
149968
149946
149950
149967
149945
149949
149966
149943
149947
149965
149941
149945
149964
149940
149944
149964
149939
149943
149962
149938
149942
149962
149938
149942
149963
149938
149943
149964
149938
149943
149964
149939
149944
149965
149939
149945
149966
149940
149946
149967
149941
149947
149969
149942
149948
149970
149944
149950
149971
149945
149951
149972
149946
149952
149974
149948
149954
149975
149949
149955
149976
149951
149957
149977
149952
149958
149978
149954
149960
149980
149955
149961
149981
149957
149962
149982
149958
149964
149983
149960
149965
149985
149961
149967
149986
149963
149968
149987
149965
149970
149988
149966
149972
149989
149968
149973
149990
149970
149975
149992
149971
149976
149993
149973
149978
149994
149975
149980
149995
149977
149981
149996
149979
149983
149998
149981
149985
149999
149983
149987
150000
149985
149989
150002
149987
149991
150003
149989
149993
150004
149991
149995
150006
149994
149997
150007
149996
150000
150008
149999
150002
150010
150002
150004
150011
150004
150007
150013
150007
150010
150014
150010
150013
150016
150013
150015
150017
150017
150018
150019
150020
150022
150020
150023
150013
150015
150015
150015
150015
150014
150014
150013
150013
150013
150012
150012
150011
150011
150011
150011
150010
150010
150010
150009
150009
150009
150008
150008
150008
150007
150007
150006
150006
150005
150005
150004
150004
150003
150002
150001
150001
150000
149999
149997
149996
149995
149994
149993
149992
149991
149991
149990
149992
149994
149996
149997
150000
150002
150005
150007
150009
150011
150012
150012
150012
150011
150011
150010
150008
150007
150006
150005
150004
150003
150001
150000
149999
149998
149997
149996
149995
149994
149993
149992
149991
149990
149989
149988
149988
149986
149969
149965
149966
149970
149985
149989
149989
149995
149995
149997
149997
149997
149998
149999
150000
150001
150002
150003
150004
150005
150006
150007
150008
150009
150010
150011
150015
150014
150013
150011
150010
150009
150008
150007
150006
150005
150004
150003
150002
150001
150001
150000
149999
149999
150000
149999
149999
149997
149998
150000
150000
150001
149994
149993
149993
149993
149993
149990
149990
149975
149977
149972
149972
149972
149973
149974
149976
149996