/*--------------------------------*- C++ -*----------------------------------*\
| =========                 |                                                 |
| \\      /  F ield         | OpenFOAM: The Open Source CFD Toolbox           |
|  \\    /   O peration     | Version:  v2006                                 |
|   \\  /    A nd           | Website:  www.openfoam.com                      |
|    \\/     M anipulation  |                                                 |
\*---------------------------------------------------------------------------*/
FoamFile
{
    version     2.0;
    format      ascii;
    class       volScalarField;
    location    "0.046";
    object      isentropic(p);
}
// * * * * * * * * * * * * * * * * * * * * * * * * * * * * * * * * * * * * * //

dimensions      [1 -1 -2 0 0 0 0];


internalField   nonuniform List<scalar> 
24416
(
150082
150082
150082
150082
150082
150082
150082
150082
150082
150082
150082
150082
150082
150082
150082
150083
150084
150084
150084
150084
150083
150082
150082
150081
150081
150080
150080
150080
150079
150079
150078
150078
150078
150077
150077
150076
150076
150076
150075
150075
150075
150074
150074
150073
150073
150073
150072
150072
150071
150071
150071
150070
150070
150069
150069
150069
150068
150068
150068
150067
150067
150066
150066
150066
150065
150065
150065
150064
150064
150063
150063
150063
150062
150062
150062
150061
150061
150061
150061
150060
150060
150060
150059
150059
150058
150057
150056
150055
150055
150056
150057
150057
150058
150058
150058
150059
150060
150060
150061
150060
150059
150061
150059
150066
150067
150064
150076
150102
150099
149944
149780
150079
150125
150125
150050
149637
149496
150015
150116
150102
149977
149369
149256
149939
150084
150065
149897
149154
149065
149857
150046
150025
149814
148979
148902
149779
150005
149985
149745
148832
148768
149711
149965
149945
149678
148710
148656
149646
149925
149905
149615
148606
148561
149585
149886
149866
149556
148518
148478
149529
149848
149829
149502
148440
148405
149476
149811
149793
149451
148372
148340
149427
149776
149759
149404
148310
148282
149381
149743
149726
149359
148255
148230
149338
149711
149695
149317
148205
148182
149298
149680
149665
149278
148160
148138
149260
149651
149637
149241
148118
148098
149224
149624
149610
149207
148079
148061
149190
149597
149584
149174
148043
148027
149158
149572
149559
149142
148010
147995
149128
149547
149535
149113
147979
147965
149099
149524
149512
149085
147951
147938
149072
149502
149490
149058
147924
147912
149045
149480
149469
149033
147899
147888
149021
149459
149449
149008
147876
147866
148997
149440
149429
148985
147855
147845
148974
149421
149411
148963
147835
147825
148953
149402
149393
148942
147816
147807
148932
149385
149375
148922
147799
147791
148913
149368
149359
148903
147783
147775
148894
149351
149343
148885
147768
147761
148876
149335
149327
148867
147754
147748
148859
149320
149312
148850
147741
147735
148843
149306
149298
148835
147730
147724
148827
149292
149284
148819
147719
147714
148812
149278
149271
148805
147709
147705
148798
149265
149258
148791
147701
147697
148785
149252
149245
148778
147693
147689
148772
149240
149233
148766
147686
147683
148760
149228
149222
148754
147680
147677
148749
149217
149211
148743
147675
147672
148738
149206
149200
148732
147670
147668
148727
149196
149190
148722
147667
147665
148717
149186
149180
148712
147664
147663
148708
149176
149170
148703
147662
147661
148699
149166
149161
148695
147660
147660
148691
149157
149152
148687
147660
147660
148684
149149
149144
148680
147660
147661
148676
149140
149136
148673
147661
147662
148670
149132
149128
148666
147663
147664
148663
149125
149120
148660
147665
147667
148658
149117
149113
148655
147668
147670
148652
149110
149106
148650
147672
147675
148647
149103
149100
148645
147677
147679
148643
149097
149094
148641
147682
147685
148639
149091
149088
148637
147688
147692
148636
149085
149082
148634
147695
147699
148633
149080
149077
148631
147702
147707
148630
149075
149072
148629
147711
147715
148628
149070
149067
148627
147720
147725
148627
149065
149062
148626
147730
147735
148626
149061
149058
148625
147740
147746
148625
149057
149054
148624
147752
147758
148625
149053
149051
148624
147764
147770
148625
149049
149047
148625
147777
147784
148626
149046
149044
148626
147790
147798
148627
149043
149042
148627
147805
147813
148628
149041
149039
148629
147820
147828
148630
149038
149037
148631
147836
147845
148633
149036
149035
148634
147853
147862
148636
149035
149034
148638
147871
147881
148640
149033
149032
148642
147890
147900
148644
149032
149031
148646
147909
147920
148648
149031
149031
148651
147930
147940
148654
149031
149030
148656
147951
147962
148659
149031
149030
148662
147973
147985
148665
149031
149031
148668
147996
148008
148672
149031
149031
148675
148020
148032
148679
149032
149032
148683
148045
148057
148687
149033
149033
148691
148070
148083
148695
149035
149035
148700
148097
148110
148704
149036
149037
148709
148124
148138
148714
149039
149040
148719
148152
148166
148724
149041
149042
148729
148181
148196
148735
149044
149046
148740
148210
148225
148746
149048
149049
148752
148241
148256
148758
149052
149054
148764
148271
148287
148770
149056
149058
148776
148301
148316
148783
149061
149063
148789
148331
148346
148795
149065
149067
148801
148361
148376
148808
149070
149073
148814
148390
148405
148821
149076
149078
148827
148420
148435
148834
149081
149084
148840
148450
148465
148847
149087
149090
148854
148480
148495
148861
149093
149096
148868
148510
148525
148875
149100
149103
148882
148541
148556
148890
149107
149110
148898
148571
148587
148905
149114
149118
148913
148602
148618
148921
149122
149127
148929
148633
148649
148938
149131
149136
148946
148664
148680
148955
149141
149145
148964
148695
148710
148973
149151
149156
148981
148725
148741
148991
149162
149167
149000
148755
148770
149009
149173
149179
149018
148785
148800
149028
149185
149191
149037
148814
148828
149047
149198
149204
149056
148842
148856
149066
149211
149217
149076
148869
148883
149085
149224
149231
149095
148896
148908
149104
149238
149245
149113
148921
148933
149123
149252
149258
149132
148945
148957
149141
149266
149272
149150
148968
148979
149159
149280
149286
149168
148990
149001
149177
149293
149300
149185
149011
149021
149194
149307
149313
149202
149030
149040
149210
149320
149327
149218
149049
149058
149226
149333
149339
149233
149066
149075
149241
149346
149352
149248
149083
149091
149255
149358
149364
149262
149098
149106
149268
149370
149374
149274
149113
149120
149281
149380
149385
149287
149127
149133
149292
149390
149394
149297
149139
149144
149302
149398
149405
149308
149150
149160
149318
149416
149423
149325
149169
149546
149642
149714
149763
149788
149847
149876
149917
149942
149972
149993
150017
150034
150054
150069
150086
150100
150115
150128
150142
150154
150168
150179
150193
150204
150217
150229
150241
150253
150266
150278
150291
150302
150316
150327
150341
150353
150367
150379
150394
150405
150419
150429
150441
150445
150445
150444
150436
150400
150294
150132
149705
149665
150106
150277
150260
150081
149627
149594
150059
150245
150236
150045
149573
149572
150046
150238
150236
150044
149569
149580
150052
150244
150245
150055
149586
149598
150066
150254
150255
150068
149603
149616
150079
150264
150267
150082
149623
149637
150094
150276
150277
150097
149643
149656
150109
150287
150290
150113
149664
149678
150125
150299
150301
150129
149685
149699
150140
150310
150314
150145
149708
149723
150158
150324
150326
150162
149730
149745
150174
150335
150339
150179
149755
149770
150192
150349
150352
150197
149778
149794
150209
150362
150366
150216
149805
149821
150229
150377
150380
150234
149831
149847
150247
150390
150395
150254
149859
149877
150268
150406
150410
150274
149887
149905
150288
150420
150426
150296
149918
149937
150310
150437
150442
150318
149949
149969
150333
150454
150461
150342
149984
150005
150358
150473
150479
150368
150020
150043
150385
150492
150500
150397
150062
150086
150415
150513
150521
150427
150107
150139
150450
150538
150556
150473
150172
150217
150505
150580
150599
150527
150253
150297
150555
150621
150637
150575
150332
150369
150594
150652
150665
150610
150404
150450
150637
150685
150687
150655
150486
150300
150645
150621
150701
150689
150469
150531
150685
150736
150747
150721
150584
150646
150747
150757
150768
150764
150721
150793
150814
150793
150802
150832
150812
150847
150849
150798
150788
150853
150868
150896
150873
150815
150800
150872
150911
150928
150851
150767
150708
150801
150920
150896
150733
150659
150537
150629
150834
150799
150588
150535
150481
150531
150768
150710
150490
150470
150434
150454
150683
150642
150494
150522
150438
150430
150608
150539
150460
150474
150563
150544
150521
150406
150360
150347
150492
150534
150431
150352
150537
150472
150412
150498
150359
150167
150876
150655
151136
151212
149744
148686
150975
151197
151229
150638
147946
146778
149819
150866
149949
148783
145835
144724
147900
149378
148592
146912
144002
143117
145813
147370
146985
145243
142780
142473
144610
146284
145435
144066
142361
142321
143895
145540
145007
143637
142390
142129
142933
144213
144425
143146
142546
142612
143118
144251
143582
143070
142178
143148
143896
144637
144439
143888
143090
142997
143366
144128
144865
144535
143541
143623
144312
144831
144351
144176
143222
144083
144725
145277
145121
144715
143975
143883
144200
144879
145384
145274
144255
144262
145047
145377
145148
144461
144165
144460
145566
145564
145356
145231
144333
144934
145628
145962
145847
145529
144856
144804
145070
145657
146128
145826
145200
145066
145746
146049
145879
145285
145024
145401
146004
146294
146209
145940
145243
145188
145417
146017
146290
146403
145328
145153
146046
146149
146599
146323
145672
145552
146236
146487
146335
145709
145526
145633
146619
146564
146408
146311
145452
145929
146605
146822
146765
146458
145916
145505
146369
146432
146865
146825
145922
145971
146504
146846
146497
146527
145497
146219
146494
147105
146805
146227
145934
146246
146743
147123
146911
146496
146018
146366
146996
147223
147130
146899
146202
146170
146368
146956
147138
147229
146184
145995
146914
147026
147409
147155
146502
146328
147072
147295
147116
146456
146254
146302
147385
147270
147128
147124
146057
146574
147277
147534
147270
147059
146286
146680
147410
147615
147537
147206
146631
146054
147179
147186
147792
147183
146846
146581
146920
147452
147708
147542
146765
146533
147166
147529
147835
147593
146875
146703
147495
147736
147552
146875
146651
146687
147799
147691
147536
147480
146356
146750
147781
147854
147631
147467
146510
147008
147779
147989
147898
147642
146834
146780
147022
147665
147782
147979
146752
146367
147600
147666
148093
147757
146967
146607
147573
147759
148134
147822
147112
146751
147566
147858
148171
147934
147155
146939
147784
148053
147847
147200
146897
147285
147606
148242
147936
147251
146906
147033
147989
148131
147983
147468
146828
147051
148025
148203
147974
147574
146776
147179
148034
148286
148055
147715
146889
147276
148111
148344
148249
147964
147091
146868
147407
147968
148423
147701
147352
146980
147449
148035
148388
147952
147270
146911
147674
148097
148413
148076
147264
146867
147755
148122
148428
148192
147263
146961
147846
148186
148482
148242
147374
147145
148065
148369
148080
147508
146966
147361
147889
148485
148165
147482
146992
147179
148209
148395
148194
147654
146883
147149
148228
148425
148186
147760
146846
147234
148223
148491
148240
147870
146925
147342
148276
148524
148417
148105
147095
146886
147419
148084
148363
148228
147099
146642
147818
148144
148526
148150
147161
146678
147832
148172
148533
148192
147205
146754
147830
148205
148516
148276
147170
146861
147893
148265
148557
148324
147270
147128
148051
148451
147996
147713
146389
146826
148373
148345
148122
147954
146380
146965
148208
148515
148118
147857
146504
147082
148170
148514
148147
147788
146583
147061
148170
148498
148185
147795
146654
147160
148247
148519
148413
148049
146884
146599
147383
148016
148324
148187
146846
146453
147522
148076
148400
148183
146813
146430
147583
148078
148418
148148
146831
146497
147651
148110
148448
148190
146941
146546
147694
148141
148468
148187
147053
146803
147964
148362
147867
147258
146263
146758
147914
148328
147999
147371
146303
146655
148056
148312
148019
147455
146282
146716
148109
148325
148013
147503
146287
146779
148079
148336
148234
147787
146527
145867
147125
147695
148180
147851
146473
145943
147266
147843
148230
148001
146450
146050
147386
147899
148228
147968
146533
145967
147318
147833
148200
147895
146545
146400
147599
148133
147548
147154
145521
146325
147688
148113
147695
147217
145637
146448
147750
148132
147671
147193
145665
146280
147694
148045
147917
147474
145949
145436
146667
147386
147852
147605
145918
145423
146926
147550
147931
147689
146044
145454
146959
147538
147889
147544
146005
145665
147211
147748
147107
146445
144849
145636
147304
147688
147331
146729
145027
145896
147395
147797
147362
146805
145156
145606
147281
147643
147493
146926
145244
144525
146181
146864
147452
147046
145274
144689
146477
147123
147561
147230
145583
145231
146954
147518
146532
145736
143924
144742
146654
147126
146729
146046
144115
145073
146872
147278
147252
146637
144693
143906
145688
146488
146973
146510
144558
143569
145588
146368
146923
146471
144417
144179
146088
146866
146120
145406
143161
144384
146298
146797
146407
145740
143610
143951
146145
146625
146432
145685
143417
142629
144815
145703
146412
145966
143790
143612
145752
146554
145693
144858
142398
142801
145377
145990
145841
144928
142320
141203
143926
144958
145825
145210
142960
142520
145360
146024
144758
143422
140884
141882
144519
145301
145196
144185
141205
140310
143130
144322
145129
144835
142435
141156
144077
145090
143495
142193
139136
140948
143716
144423
144666
143760
140685
139603
142596
143904
143967
143008
139579
138985
142689
143849
143643
142515
138667
136943
140877
142566
143014
141837
137772
137370
141822
143101
143089
141719
136833
134183
140229
142189
142099
140433
133783
131381
139013
141313
140842
138346
130425
127458
134944
138125
140451
138016
131409
130246
137015
139610
139649
136856
129881
129630
136781
139740
139805
136657
129380
129055
136408
139743
139615
136107
128742
128459
135797
139454
139278
135489
128227
128034
135186
139090
138895
134898
127883
127769
134624
138695
138491
134369
127683
127622
134131
138288
138085
133911
127583
127561
133709
137883
137687
133527
127555
127562
133362
137495
137308
133214
127580
127608
133082
137128
136955
132965
127646
127691
132861
136788
136629
132771
127744
127803
132692
136478
136335
132625
127868
127938
132567
136199
136072
132518
128012
128089
132477
135952
135840
132444
128170
128253
132417
135735
135637
132396
128339
128426
132381
135546
135462
132372
128514
128603
132367
135384
135311
132366
128693
128783
132369
135246
135186
132376
128873
128962
132386
135131
135082
132399
129051
129139
132414
135039
135000
132432
129226
129312
132453
134966
134936
132474
129397
129480
132498
134911
134890
132524
129562
129642
132551
134873
134859
132579
129720
129797
132609
134849
134842
132639
129873
129946
132671
134838
134836
132704
130018
130088
132737
134838
134841
132771
130157
130224
132806
134847
134855
132841
130290
130354
132877
134865
134876
132913
130417
130479
132950
134890
134905
132986
130538
130598
133024
134921
134938
133061
130655
130712
133099
134957
134976
133137
130766
130821
133176
134997
135018
133213
130873
130926
133252
135041
135063
133290
130977
131027
133329
135087
135110
133367
131076
131125
133407
135136
135160
133445
131172
131219
133485
135186
135211
133523
131265
131311
133563
135237
135263
133601
131356
131401
133640
135291
135317
133678
131444
131487
133718
135346
135374
133756
131530
131572
133794
135404
135432
133832
131613
131654
133870
135462
135490
133907
131694
131734
133945
135521
135549
133981
131773
131812
134018
135580
135609
134054
131850
131888
134091
135640
135668
134126
131924
131961
134162
135699
135729
134197
131997
132033
134233
135760
135789
134267
132068
132103
134302
135820
135849
134337
132137
132171
134371
135880
135909
134405
132204
132237
134440
135940
135970
134473
132269
132302
134507
136001
136030
134540
132333
132365
134573
136061
136090
134606
132396
132427
134639
136121
136150
134672
132457
132488
134704
136181
136211
134737
132518
132548
134769
136241
136270
134800
132577
132606
134832
136301
136330
134864
132634
132663
134895
136360
136389
134926
132691
132719
134957
136419
136448
134988
132746
132774
135019
136478
136506
135049
132801
132828
135079
136536
136565
135109
132854
132880
135139
136594
136622
135168
132906
132932
135198
136651
136679
135227
132957
132982
135256
136708
136735
135284
133007
133031
135313
136764
136791
135341
133055
133080
135369
136820
136846
135397
133103
133127
135424
136874
136901
135452
133150
133173
135479
136929
136955
135506
133195
133218
135532
136982
137008
135559
133239
133261
135585
137035
137060
135611
133283
133304
135637
137087
137112
135662
133325
133346
135687
137138
137163
135712
133366
133386
135737
137189
137213
135761
133406
133426
135786
137238
137262
135810
133445
133464
135834
137287
137311
135857
133483
133502
135881
137335
137358
135903
133520
133538
135926
137382
137405
135949
133556
133574
135971
137429
137451
135993
133591
133608
136015
137474
137496
136037
133625
133641
136058
137519
137540
136079
133658
133674
136100
137563
137584
136121
133690
133706
136141
137606
137626
136161
133721
133736
136182
137648
137668
136201
133751
133766
136221
137689
137709
136240
133780
133795
136259
137730
137749
136278
133809
133823
136297
137770
137789
136315
133836
133850
136333
137809
137827
136351
133863
133876
136369
137847
137865
136386
133889
133902
136404
137884
137902
136421
133914
133927
136438
137920
137938
136455
133938
133951
136471
137956
137973
136487
133962
133974
136504
137991
138008
136519
133985
133996
136535
138025
138042
136551
134007
134018
136566
138059
138074
136581
134029
134039
136596
138091
138107
136611
134050
134060
136625
138123
138138
136640
134070
134080
136654
138154
138169
136668
134090
134099
136682
138185
138199
136695
134109
134118
136709
138215
138229
136722
134127
134136
136735
138244
138258
136748
134145
134154
136761
138272
138286
136773
134162
134171
136786
138300
138313
136798
134179
134187
136810
138327
138340
136822
134195
134203
136834
138354
138366
136846
134211
134219
136857
138379
138392
136869
134226
134234
136880
138405
138417
136891
134241
134248
136902
138429
138441
136913
134255
134262
136923
138453
138465
136934
134269
134276
136944
138477
138488
136954
134282
134289
136965
138500
138511
136974
134296
134302
136984
138522
138533
136994
134308
134314
137003
138544
138554
137013
134320
134326
137022
138565
138575
137031
134332
134338
137040
138585
138595
137049
134344
134349
137058
138605
138615
137066
134355
134360
137075
138625
138634
137083
134365
134371
137092
138644
138653
137100
134376
134381
137108
138662
138671
137116
134386
134391
137123
138680
138689
137131
134395
134400
137139
138697
138706
137146
134405
134409
137153
138714
138723
137160
134413
134418
137168
138731
138739
137175
134422
134426
137182
138747
138755
137188
134431
134435
137195
138763
138770
137202
134439
134443
137208
138778
138785
137214
134446
134450
137221
138792
138799
137227
134454
134458
137233
138807
138813
137239
134461
134465
137245
138821
138827
137251
134468
134472
137256
138834
138840
137262
134475
134478
137268
138847
138853
137273
134481
134484
137278
138860
138866
137284
134487
134491
137289
138872
138878
137294
134493
134496
137299
138884
138890
137304
134499
134502
137309
138896
138901
137314
134505
134507
137318
138907
138912
137323
134510
134513
137327
138918
138923
137332
134515
134518
137336
138928
138933
137340
134520
134523
137345
138939
138943
137349
134525
134527
137353
138949
138953
137357
134529
134532
137361
138958
138963
137365
134534
134536
137369
138968
138972
137373
134538
134540
137376
138977
138981
137380
134542
134544
137383
138985
138990
137387
134546
134548
137390
138994
138998
137394
134549
134551
137397
139002
139006
137400
134553
134555
137404
139010
139014
137407
134556
134558
137410
139018
139022
137413
134559
134561
137416
139025
139029
137419
134562
134564
137422
139033
139036
137425
134565
134567
137428
139040
139043
137430
134568
134570
137433
139047
139050
137436
134571
134572
137438
139053
139056
137441
134573
134575
137443
139060
139063
137446
134576
134577
137448
139066
139069
137451
134578
134579
137453
139072
139075
137455
134581
134582
137458
139078
139080
137460
134583
134584
137462
139083
139086
137464
134585
134586
137466
139089
139091
137468
134587
134588
137470
139094
139097
137472
134588
134589
137474
139099
139102
137476
134590
134591
137478
139104
139107
137480
134592
134593
137482
139109
139111
137484
134593
134594
137485
139114
139116
137487
134595
134596
137489
139118
139120
137490
134596
134597
137492
139123
139125
137494
134598
134598
137495
139127
139129
137497
134599
134600
137498
139131
139133
137500
134600
134601
137501
139135
139137
137503
134601
134602
137504
139139
139140
137505
134602
134603
137507
139142
139144
137508
134603
134604
137509
139146
139147
137510
134604
134605
137512
139149
139151
137513
134605
134606
137514
139153
139154
137515
134606
134606
137516
139156
139157
137518
134607
134607
137519
139159
139160
137520
134607
134608
137521
139162
139163
137522
134608
134608
137523
139165
139166
137524
134608
134609
137525
139168
139169
137526
134609
134609
137527
139170
139171
137527
134609
134610
137528
139173
139174
137529
134610
134610
137530
139175
139176
137531
134610
134610
137532
139178
139179
137532
134610
134611
137533
139180
139181
137534
134611
134611
137535
139182
139183
137535
134611
134611
137536
139185
139185
137537
134611
134611
137537
139187
139188
137538
134611
134611
137539
139189
139190
137539
134611
134611
137540
139191
139192
137541
134611
134611
137541
139193
139193
137542
134611
134611
137542
139195
139195
137543
134611
134611
137543
139196
139197
137544
134611
134611
137545
139198
139199
137545
134611
134611
137546
139200
139201
137546
134610
134610
137546
139202
139202
137547
134610
134610
137547
139203
139204
137548
134609
134609
137548
139205
139205
137548
134609
134608
137549
139206
139206
137549
134608
134607
137549
139207
139208
137549
134607
134607
137550
139208
139209
137550
134606
134606
137550
139209
139210
137550
134605
134605
137550
139211
139211
137550
134604
134604
137551
139212
139212
137551
134603
134604
137552
139214
139213
137552
134604
134604
137550
139212
139208
137543
134599
134607
137555
139232
139339
137619
134661
134787
137769
139544
139707
137912
134905
141850
143403
144279
144709
145204
145653
145901
146112
146675
147040
147469
147822
148118
148374
148591
148775
148929
149060
149171
149265
149345
149414
149472
149523
149567
149604
149637
149666
149691
149713
149733
149750
149765
149778
149790
149800
149809
149816
149823
149829
149834
149839
149843
149846
149849
149851
149853
149854
149855
149856
149857
149857
149860
149857
149861
149856
149858
149880
149884
149886
149889
149891
149894
149897
149900
149903
149907
149910
149914
149918
149923
149928
149934
149940
149946
149954
149962
149970
149979
149989
150000
150011
150023
150035
150048
150061
150074
150087
150099
150110
150119
150126
150129
150129
150127
150121
150115
150108
150103
150097
150092
150087
150083
150078
150073
150069
150064
150059
150054
150050
150045
150040
150035
150030
150025
150020
150015
150009
150004
149999
149994
149989
149984
149979
149974
149969
149964
149960
149955
149951
149946
149942
149938
149934
149930
149926
149922
149918
149915
149911
149908
149905
149902
149899
149896
149894
149891
149889
149887
149885
149883
149881
149879
149877
149876
149874
149873
149871
149870
149869
149867
149866
149865
149864
149863
149862
149860
149859
149858
149857
149856
149855
149854
149853
149852
149851
149850
149849
149848
149847
149846
149845
149845
149844
149843
149842
149842
149841
149840
149840
149839
149839
149839
149838
149838
149838
149838
149838
149838
149838
149838
149838
149839
149839
149840
149840
149841
149841
149842
149843
149844
149844
149845
149846
149847
149849
149850
149851
149852
149854
149855
149857
149858
149860
149861
149863
149864
149866
149868
149870
149872
149874
149875
149877
149879
149881
149883
149885
149888
149890
149892
149894
149896
149898
149901
149903
149905
149907
149910
149912
149914
149917
149919
149921
149924
149926
149928
149931
149933
149936
149938
149940
149943
149945
149947
149950
149952
149954
149957
149959
149962
149964
149966
149969
149971
149973
149975
149977
149980
149982
149985
149989
149994
149999
150006
150013
150021
150028
150035
150043
150054
150067
150076
150081
150082
150082
150082
150082
150082
150082
150082
150082
150082
150082
150082
150082
150082
150085
150096
150108
150111
150110
150108
150106
150103
150100
150097
150095
150093
150092
150090
150089
150088
150086
150085
150084
150083
150082
150082
150081
150080
150079
150079
150078
150077
150077
150076
150075
150075
150074
150074
150073
150072
150072
150071
150071
150070
150070
150069
150069
150068
150067
150067
150066
150066
150065
150065
150064
150064
150063
150062
150062
150061
150060
150060
150059
150058
150057
150057
150056
150055
150054
150053
150052
150051
150049
150046
150044
150040
150037
150034
150033
150035
150044
150053
150057
150058
150058
150058
150059
150061
150067
150078
150097
150128
150157
150161
150150
150144
150138
150130
150122
150113
150105
150095
150086
150076
150067
150056
150047
150036
150027
150017
150008
149997
149989
149979
149970
149960
149952
149942
149934
149925
149917
149908
149901
149892
149885
149876
149869
149861
149854
149846
149840
149831
149826
149817
149812
149804
149799
149791
149786
149778
149773
149766
149761
149754
149750
149742
149738
149731
149727
149720
149716
149710
149706
149699
149696
149689
149686
149679
149676
149670
149667
149661
149658
149652
149649
149643
149640
149635
149632
149626
149624
149618
149616
149610
149608
149603
149601
149595
149593
149588
149586
149581
149579
149574
149572
149567
149566
149561
149559
149554
149553
149548
149547
149542
149540
149536
149535
149530
149529
149524
149523
149518
149517
149513
149512
149507
149507
149502
149501
149497
149496
149492
149491
149487
149486
149482
149482
149478
149477
149473
149472
149468
149468
149464
149464
149460
149459
149455
149455
149451
149451
149447
149447
149443
149443
149439
149439
149436
149435
149432
149432
149428
149428
149425
149425
149422
149421
149418
149418
149415
149415
149412
149412
149409
149409
149407
149407
149404
149404
149402
149402
149399
149400
149397
149398
149395
149396
149394
149394
149392
149392
149391
149391
149389
149390
149388
149389
149388
149389
149388
149389
149388
149389
149388
149390
149390
149391
149391
149393
149393
149396
149396
149399
149400
149403
149404
149407
149409
149412
149414
149418
149420
149424
149426
149431
149433
149438
149441
149446
149449
149453
149457
149461
149465
149470
149473
149478
149481
149486
149489
149494
149497
149502
149505
149509
149512
149516
149518
149523
149529
149537
149640
149636
149716
149717
149765
149764
149760
149711
149630
149623
149699
149708
149624
149619
149697
149758
149757
149706
149620
149615
149695
149705
149616
149611
149693
149757
149757
149703
149612
149607
149691
149702
149608
149602
149690
149757
149758
149701
149603
149598
149689
149701
149599
149594
149688
149759
149760
149700
149595
149590
149687
149700
149592
149587
149687
149762
149764
149700
149588
149583
149686
149701
149585
149580
149687
149766
149768
149701
149582
149578
149687
149703
149580
149575
149689
149771
149774
149704
149578
149574
149690
149706
149576
149573
149692
149778
149781
149708
149575
149573
149694
149711
149575
149572
149697
149785
149789
149714
149575
149573
149700
149718
149576
149574
149703
149793
149797
149721
149577
149576
149706
149725
149579
149578
149710
149802
149806
149729
149581
149580
149714
149733
149584
149583
149718
149811
149815
149737
149586
149586
149722
149741
149590
149589
149726
149820
149824
149746
149593
149592
149730
149750
149596
149596
149734
149828
149832
149754
149600
149599
149739
149758
149604
149603
149743
149837
149840
149763
149607
149607
149747
149767
149612
149611
149751
149844
149848
149771
149616
149615
149755
149775
149620
149619
149759
149852
149855
149778
149624
149624
149763
149782
149629
149628
149766
149859
149862
149786
149633
149632
149770
149789
149637
149636
149774
149865
149868
149793
149641
149640
149778
149797
149645
149644
149781
149872
149875
149800
149649
149648
149785
149804
149654
149652
149788
149878
149881
149807
149658
149656
149792
149810
149662
149660
149795
149883
149886
149813
149666
149664
149798
149817
149670
149668
149802
149889
149892
149820
149674
149672
149805
149823
149678
149676
149808
149895
149897
149826
149682
149681
149812
149829
149687
149685
149815
149900
149902
149832
149691
149689
149818
149835
149695
149693
149821
149905
149908
149838
149699
149697
149824
149841
149703
149701
149827
149910
149913
149844
149707
149705
149830
149847
149711
149709
149834
149915
149918
149850
149715
149713
149837
149854
149719
149717
149840
149920
149923
149856
149723
149721
149843
149859
149727
149725
149846
149926
149928
149863
149731
149729
149850
149866
149736
149734
149853
149931
149933
149869
149740
149738
149856
149872
149744
149742
149859
149936
149938
149875
149749
149747
149863
149878
149753
149751
149866
149941
149944
149881
149758
149756
149869
149885
149762
149761
149873
149946
149949
149888
149767
149765
149876
149891
149772
149770
149880
149952
149955
149895
149777
149775
149883
149898
149781
149780
149887
149957
149960
149901
149787
149785
149890
149905
149791
149790
149894
149963
149966
149908
149796
149795
149898
149912
149802
149800
149902
149969
149972
149916
149807
149806
149906
149919
149812
149811
149910
149975
149978
149923
149818
149817
149914
149927
149823
149823
149918
149981
149984