/*--------------------------------*- C++ -*----------------------------------*\
| =========                 |                                                 |
| \\      /  F ield         | OpenFOAM: The Open Source CFD Toolbox           |
|  \\    /   O peration     | Version:  v2006                                 |
|   \\  /    A nd           | Website:  www.openfoam.com                      |
|    \\/     M anipulation  |                                                 |
\*---------------------------------------------------------------------------*/
FoamFile
{
    version     2.0;
    format      ascii;
    class       volVectorField;
    location    "0.046";
    object      U;
}
// * * * * * * * * * * * * * * * * * * * * * * * * * * * * * * * * * * * * * //

dimensions      [0 1 -1 0 0 0 0];


internalField   nonuniform List<vector> 
31566
(
(82.5465 -5.40566e-05 -6.5724e-22)
(82.5465 -1.76752e-05 0)
(82.5465 -5.7022e-06 0)
(82.5465 -1.74968e-05 -7.41661e-22)
(82.5466 -3.03602e-05 1.26212e-21)
(82.5467 -4.32728e-05 -2.3847e-22)
(82.5468 -5.86993e-05 0)
(82.547 -7.2947e-05 1.18005e-22)
(82.5472 -8.70248e-05 9.29774e-23)
(82.5474 -9.53442e-05 -9.83405e-23)
(82.5477 -9.89843e-05 -9.16021e-25)
(82.5479 -9.77249e-05 0)
(82.5482 -8.99595e-05 0)
(82.5482 -8.03679e-05 0)
(82.5463 -0.000193092 0)
(82.5351 -0.00125786 -2.19027e-23)
(82.5051 -0.004522 0)
(82.4551 -0.00958469 0)
(82.3901 -0.0152333 0)
(82.3159 -0.0206916 0)
(82.2369 -0.0255443 0)
(82.1563 -0.029657 0)
(82.0758 -0.0330906 0)
(81.9958 -0.0359825 0)
(81.9161 -0.038472 0)
(81.8361 -0.0406706 0)
(81.7554 -0.0426567 0)
(81.6734 -0.0444782 0)
(81.5899 -0.0461619 0)
(81.5048 -0.0477237 0)
(81.4178 -0.049172 0)
(81.3291 -0.0505126 0)
(81.2388 -0.0517515 0)
(81.1468 -0.0528962 0)
(81.0534 -0.0539546 0)
(80.9585 -0.0549348 0)
(80.8622 -0.0558448 0)
(80.7646 -0.0566925 0)
(80.6658 -0.057484 0)
(80.5658 -0.0582243 0)
(80.4646 -0.0589171 0)
(80.3623 -0.0595648 0)
(80.259 -0.0601691 0)
(80.1547 -0.0607306 0)
(80.0495 -0.0612496 0)
(79.9435 -0.061726 0)
(79.8367 -0.0621593 0)
(79.7293 -0.0625488 0)
(79.6212 -0.0628938 0)
(79.5126 -0.0631934 0)
(79.4035 -0.0634468 0)
(79.294 -0.0636533 0)
(79.1842 -0.0638121 0)
(79.0743 -0.0639226 0)
(78.9642 -0.0639843 0)
(78.854 -0.063997 0)
(78.7439 -0.0639593 0)
(78.6339 -0.0638688 0)
(78.5241 -0.063727 0)
(78.4145 -0.0635418 1.57131e-22)
(78.3054 -0.0633095 0)
(78.1967 -0.0630228 0)
(78.0885 -0.0626843 0)
(77.981 -0.062295 0)
(77.8741 -0.0618558 0)
(77.7681 -0.0613668 0)
(77.6628 -0.0608272 0)
(77.5585 -0.0602355 0)
(77.4552 -0.0595897 0)
(77.3529 -0.0588865 0)
(77.2518 -0.0581218 0)
(77.1519 -0.0572908 0)
(77.0533 -0.0563881 0)
(76.9561 -0.055409 0)
(76.8605 -0.0543511 0)
(76.7666 -0.0532151 0)
(76.6745 -0.0520063 0)
(76.5842 -0.0507342 0)
(76.4958 -0.0494095 0)
(76.409 -0.0480385 0)
(76.3233 -0.0466083 0)
(76.238 -0.0450719 0)
(76.1521 -0.0433301 1.47329e-22)
(76.0646 -0.0412067 0)
(75.9745 -0.0384339 0)
(75.8824 -0.0346706 0)
(75.7907 -0.0296912 0)
(75.7056 -0.0236953 0)
(75.6368 -0.017487 0)
(75.5945 -0.0123919 -9.18978e-23)
(75.5829 -0.00965687 -1.0252e-22)
(75.5941 -0.00896473 -1.25824e-22)
(75.6148 -0.0089399 -4.06708e-23)
(75.6374 -0.00897116 0)
(75.6601 -0.00897744 0)
(75.6825 -0.00896511 0)
(75.7042 -0.00893584 0)
(75.7243 -0.00901755 -7.07201e-21)
(75.7414 -0.0092461 0)
(75.7528 -0.0102313 0)
(75.7543 -0.0122673 0)
(75.7314 -0.0113822 0)
(75.6926 -0.00802889 0)
(75.6228 -0.0219542 0)
(75.4958 -0.0422472 -5.26045e-19)
(75.3313 -0.0694131 7.09359e-19)
(75.1185 -0.107672 0)
(74.7893 -0.143794 5.88283e-19)
(74.4178 -0.16242 -7.68418e-19)
(72.9943 -0.224051 0)
(72.0515 -0.197359 0)
(74.4038 -0.254057 0)
(74.859 -0.235424 -6.05015e-18)
(74.8907 -0.273543 1.19586e-18)
(74.2957 -0.291569 -3.75101e-19)
(71.025 -0.19225 2.33713e-19)
(70.0113 -0.17481 -1.00574e-18)
(74.1385 -0.283518 3.31662e-19)
(74.9093 -0.278161 -1.08972e-18)
(74.9016 -0.262132 1.06366e-18)
(73.9535 -0.255775 8.17022e-20)
(69.0832 -0.151632 8.12336e-19)
(68.2366 -0.129818 -4.69082e-20)
(73.7583 -0.23374 -7.70692e-20)
(74.8662 -0.247789 -6.37342e-20)
(74.8091 -0.229948 6.38994e-20)
(73.5238 -0.209233 0)
(67.4765 -0.112236 4.7186e-20)
(66.7916 -0.100024 0)
(73.2931 -0.19057 -4.82513e-21)
(74.7412 -0.215705 0)
(74.6604 -0.199169 0)
(73.0387 -0.171909 4.83013e-21)
(66.1362 -0.0904443 0)
(65.5326 -0.0841672 -2.95917e-21)
(72.8317 -0.162068 4.81777e-21)
(74.5771 -0.188728 -4.00428e-21)
(74.4864 -0.180848 4.02704e-21)
(72.6233 -0.151988 -4.82703e-21)
(64.9835 -0.0770497 1.48232e-21)
(64.4867 -0.0697397 7.5832e-26)
(72.4186 -0.140449 -1.20735e-21)
(74.3945 -0.172423 0)
(74.2953 -0.165393 5.16472e-19)
(72.213 -0.131969 1.20821e-21)
(64.0225 -0.0640778 1.48345e-21)
(63.5966 -0.0586418 0)
(72.0115 -0.122962 0)
(74.1934 -0.158472 0)
(74.0859 -0.152913 -5.1712e-19)
(71.8108 -0.116726 0)
(63.1933 -0.0546099 0)
(62.8205 -0.050465 0)
(71.615 -0.109523 0)
(73.9772 -0.14717 0)
(73.8642 -0.142721 -5.17632e-19)
(71.4201 -0.104922 0)
(62.4635 -0.0475729 0)
(62.1311 -0.044273 0)
(71.2306 -0.0989341 0)
(73.7513 -0.137926 0)
(73.6349 -0.134224 0)
(71.0419 -0.0955691 0)
(61.8103 -0.0422034 0)
(61.5091 -0.0395842 0)
(70.8583 -0.0907028 0)
(73.5196 -0.129871 -5.18261e-19)
(73.4009 -0.126937 0)
(70.6752 -0.088115 0)
(61.2165 -0.0380085 0)
(60.94 -0.0358675 0)
(70.4974 -0.0840458 0)
(73.2844 -0.123134 0)
(73.1644 -0.120766 0)
(70.3197 -0.0820494 0)
(60.6701 -0.0346662 0)
(60.4139 -0.0328637 0)
(70.1472 -0.0785223 0)
(73.0474 -0.11737 -5.18941e-19)
(72.927 -0.115485 0)
(69.9746 -0.0770164 0)
(60.1626 -0.0319578 0)
(59.9229 -0.030418 0)
(69.8071 -0.0739199 0)
(72.81 -0.112468 0)
(72.6897 -0.110643 0)
(69.6394 -0.072607 0)
(59.6873 -0.0296672 0)
(59.462 -0.0284537 0)
(69.4767 -0.0701649 0)
(72.5734 -0.10829 -5.19499e-19)
(72.4541 -0.106371 0)
(69.3143 -0.0686844 0)
(59.2404 -0.0276393 0)
(59.0268 -0.0267602 0)
(69.1558 -0.0668347 0)
(72.3386 -0.104519 0)
(72.2175 -0.103391 0)
(68.9952 -0.0660868 0)
(58.8142 -0.0262848 0)
(58.6096 -0.0252438 0)
(68.8395 -0.06393 0)
(72.1017 -0.101492 -5.1998e-19)
(71.9812 -0.100836 0)
(68.6825 -0.0636605 0)
(58.4067 -0.0250341 0)
(58.2108 -0.0240119 0)
(68.53 -0.0614375 0)
(71.8659 -0.0986341 5.20199e-19)
(71.7455 -0.0982532 0)
(68.376 -0.061383 0)
(58.0159 -0.0238995 0)
(57.8274 -0.0229443 0)
(68.2263 -0.059293 0)
(71.6307 -0.096184 0)
(71.5103 -0.0960728 0)
(68.0747 -0.0594424 0)
(57.6394 -0.0229271 0)
(57.4571 -0.0220182 0)
(67.9273 -0.0574311 0)
(71.3957 -0.0940643 0)
(71.2753 -0.0941891 0)
(67.7779 -0.0577575 0)
(57.2751 -0.0220832 0)
(57.0984 -0.021207 0)
(67.6325 -0.0557992 0)
(71.161 -0.0922145 0)
(71.0404 -0.092551 -5.20852e-19)
(67.485 -0.0562804 0)
(56.9217 -0.0213422 0)
(56.7498 -0.0204908 0)
(67.3414 -0.0543602 0)
(70.9261 -0.0905957 0)
(70.8054 -0.0910848 0)
(67.1954 -0.0549604 0)
(56.5777 -0.0206806 0)
(56.4101 -0.0198607 0)
(67.0533 -0.0531031 0)
(70.6911 -0.0892208 0)
(70.5701 -0.089871 0)
(66.9087 -0.053828 0)
(56.242 -0.020107 0)
(56.0781 -0.0193036 0)
(66.7678 -0.052 0)
(70.4555 -0.0880431 0)
(70.334 -0.088857 0)
(66.6242 -0.0528429 0)
(55.9135 -0.0196008 0)
(55.7529 -0.018811 0)
(66.4842 -0.0510368 0)
(70.2191 -0.0870408 0)
(70.0971 -0.087984 -5.21514e-19)
(66.3414 -0.0519724 0)
(55.5914 -0.0191483 0)
(55.4336 -0.0183732 0)
(66.2022 -0.0501947 0)
(69.9818 -0.0862004 0)
(69.8591 -0.0872569 0)
(66.0601 -0.051214 0)
(55.2748 -0.018747 0)
(55.1195 -0.0179774 0)
(65.9213 -0.0494462 0)
(69.7432 -0.0854841 0)
(69.6198 -0.0866262 0)
(65.7797 -0.0505302 0)
(54.9631 -0.0183792 0)
(54.8101 -0.0176197 0)
(65.6413 -0.0487846 0)
(69.5033 -0.0849014 0)
(69.3791 -0.0861525 0)
(65.5 -0.0499502 0)
(54.6558 -0.0180563 0)
(54.5047 -0.0172995 0)
(65.3618 -0.0482094 0)
(69.2617 -0.0844426 0)
(69.1365 -0.0858281 -5.22096e-19)
(65.2205 -0.0494649 0)
(54.3523 -0.0177719 0)
(54.2028 -0.0170179 0)
(65.0824 -0.047725 0)
(69.0182 -0.0841065 0)
(68.8919 -0.0855688 0)
(64.9411 -0.0490345 0)
(54.052 -0.0175122 0)
(53.904 -0.0167715 0)
(64.8028 -0.0473245 0)
(68.7726 -0.0839039 0)
(68.6451 -0.0854579 0)
(64.6612 -0.0487058 0)
(53.7545 -0.0172958 0)
(53.6076 -0.0165545 0)
(64.5226 -0.0469941 0)
(68.5246 -0.0837999 0)
(68.3959 -0.0854781 0)
(64.3806 -0.0484564 0)
(53.4592 -0.0171101 0)
(53.3132 -0.0163714 0)
(64.2415 -0.0467467 0)
(68.274 -0.0838129 0)
(68.1439 -0.0855899 0)
(64.099 -0.0482718 0)
(53.1656 -0.0169513 0)
(53.0203 -0.0162225 0)
(63.9592 -0.0465819 0)
(68.0207 -0.0839544 0)
(67.8891 -0.0858158 0)
(63.8159 -0.048166 0)
(52.8732 -0.0168261 0)
(52.7284 -0.0160981 0)
(63.6753 -0.0464746 0)
(67.7642 -0.084181 0)
(67.6311 -0.0860934 0)
(63.5311 -0.0480972 0)
(52.5817 -0.0167168 0)
(52.4372 -0.0159954 0)
(63.3896 -0.0464221 0)
(67.5046 -0.0845084 0)
(67.3697 -0.0865382 0)
(63.2444 -0.0481249 0)
(52.2907 -0.0166458 0)
(52.1462 -0.0159188 0)
(63.1018 -0.0464326 0)
(67.2413 -0.0849217 0)
(67.1046 -0.0870175 0)
(62.9554 -0.0481754 0)
(51.9997 -0.0165832 0)
(51.8551 -0.0158715 0)
(62.8115 -0.0465193 0)
(66.9743 -0.0854769 0)
(66.8356 -0.0876929 0)
(62.6638 -0.0483448 0)
(51.7084 -0.0165684 0)
(51.5634 -0.0158509 0)
(62.5184 -0.0466734 0)
(66.7031 -0.0861236 0)
(66.5623 -0.0884322 0)
(62.3691 -0.0485508 0)
(51.4162 -0.0165655 0)
(51.2707 -0.0158573 0)
(62.222 -0.0468984 0)
(66.4275 -0.0868934 0)
(66.2845 -0.0892568 0)
(62.0711 -0.0488155 0)
(51.1228 -0.0165868 0)
(50.9765 -0.0158855 0)
(61.9222 -0.047181 0)
(66.1472 -0.0877683 0)
(66.0019 -0.0902137 0)
(61.7694 -0.0491559 0)
(50.8279 -0.0166367 0)
(50.6806 -0.0159349 0)
(61.6186 -0.0475209 0)
(65.8619 -0.0887376 0)
(65.7141 -0.0912795 0)
(61.4637 -0.0495546 0)
(50.5309 -0.0167069 0)
(50.3825 -0.0160125 0)
(61.3107 -0.0479362 0)
(65.5713 -0.0898345 0)
(65.4207 -0.0924731 0)
(61.1536 -0.0500299 0)
(50.2315 -0.0168059 0)
(50.0817 -0.0161178 0)
(60.9982 -0.0484264 0)
(65.2749 -0.0910548 0)
(65.1215 -0.0937858 0)
(60.8387 -0.0505758 0)
(49.9292 -0.0169304 0)
(49.7779 -0.0162484 0)
(60.6807 -0.0489872 0)
(64.9725 -0.0923935 0)
(64.8161 -0.095216 0)
(60.5185 -0.0511906 0)
(49.6237 -0.0170792 0)
(49.4705 -0.0164032 0)
(60.3577 -0.049616 0)
(64.6636 -0.0938471 0)
(64.5042 -0.0967566 0)
(60.1927 -0.0518692 0)
(49.3144 -0.0172502 0)
(49.1592 -0.0165798 0)
(60.029 -0.0503075 0)
(64.3481 -0.0954065 0)
(64.1853 -0.0983975 0)
(59.861 -0.052606 0)
(49.001 -0.0174406 0)
(48.8436 -0.0167807 0)
(59.6941 -0.0510706 0)
(64.0254 -0.0970875 0)
(63.8592 -0.10021 0)
(59.5229 -0.0534381 0)
(48.6831 -0.017664 0)
(48.5233 -0.0170067 0)
(59.3526 -0.0519058 0)
(63.6953 -0.0988863 0)
(63.5255 -0.102057 0)
(59.178 -0.0542904 0)
(48.3602 -0.0178922 0)
(48.1978 -0.0172538 0)
(59.0042 -0.0527992 0)
(63.3574 -0.100773 0)
(63.1838 -0.104001 0)
(58.826 -0.0552087 0)
(48.0321 -0.0181422 0)
(47.867 -0.0175256 0)
(58.6485 -0.0537656 0)
(63.0113 -0.102728 0)
(62.8337 -0.106126 0)
(58.4665 -0.056246 0)
(47.6983 -0.0184326 0)
(47.5301 -0.0178094 0)
(58.2851 -0.0547866 0)
(62.6568 -0.104899 0)
(62.475 -0.108338 0)
(58.0991 -0.0573043 0)
(47.3583 -0.0187343 0)
(47.187 -0.0181242 0)
(57.9135 -0.0558711 0)
(62.2937 -0.107202 0)
(62.1074 -0.110691 0)
(57.7233 -0.0584368 0)
(47.0119 -0.0190664 0)
(46.8372 -0.0184579 0)
(57.5335 -0.0570126 0)
(61.9213 -0.109619 0)
(61.7301 -0.113206 0)
(57.3389 -0.0596428 0)
(46.6586 -0.0194214 0)
(46.4803 -0.0188208 0)
(57.1445 -0.0582383 0)
(61.5391 -0.112196 0)
(61.3428 -0.115862 0)
(56.9451 -0.0609229 0)
(46.2979 -0.0198005 0)
(46.1158 -0.0192078 0)
(56.7459 -0.0595397 0)
(61.1464 -0.114913 0)
(60.9448 -0.118661 0)
(56.5416 -0.0622798 0)
(45.9294 -0.0202035 0)
(45.7432 -0.0196195 0)
(56.3373 -0.060919 0)
(60.743 -0.117773 0)
(60.5358 -0.121601 0)
(56.1278 -0.0637129 0)
(45.5527 -0.0206306 0)
(45.3622 -0.0200555 0)
(55.9182 -0.0623748 0)
(60.3282 -0.120775 0)
(60.1152 -0.124683 0)
(55.7032 -0.0652221 0)
(45.1672 -0.0210816 0)
(44.9722 -0.0205162 0)
(55.4881 -0.0639075 0)
(59.9017 -0.12392 0)
(59.6826 -0.127909 0)
(55.2674 -0.0668087 0)
(44.7726 -0.021557 0)
(44.5729 -0.0210021 0)
(55.0465 -0.0655193 0)
(59.4629 -0.127212 0)
(59.2376 -0.131284 0)
(54.8199 -0.0684751 0)
(44.3683 -0.0220577 0)
(44.1637 -0.0215138 0)
(54.5929 -0.0672125 0)
(59.0114 -0.130657 0)
(58.7795 -0.134815 0)
(54.3602 -0.0702236 0)
(43.954 -0.0225842 0)
(43.7441 -0.0220519 0)
(54.1268 -0.0689892 0)
(58.5466 -0.134259 0)
(58.3078 -0.138505 0)
(53.8876 -0.0720571 0)
(43.529 -0.0231371 0)
(43.3137 -0.0226187 0)
(53.6476 -0.0708572 0)
(58.0679 -0.138035 0)
(57.822 -0.142413 0)
(53.4016 -0.074005 0)
(43.0929 -0.0237277 0)
(42.8718 -0.0232128 0)
(53.1547 -0.0728171 0)
(57.5748 -0.141977 0)
(57.3215 -0.146456 0)
(52.9017 -0.0760198 0)
(42.6451 -0.0243356 0)
(42.418 -0.023834 0)
(52.6476 -0.0748629 0)
(57.0667 -0.146089 0)
(56.8058 -0.150626 0)
(52.3873 -0.0781061 0)
(42.1852 -0.0249654 0)
(41.9519 -0.0244728 0)
(52.1258 -0.0769726 0)
(56.5432 -0.150328 0)
(56.2744 -0.154944 0)
(51.8579 -0.0802656 0)
(41.7128 -0.0256162 0)
(41.4731 -0.0251333 0)
(51.5888 -0.0791557 0)
(56.0037 -0.154714 0)
(55.7267 -0.159405 0)
(51.3131 -0.0824969 0)
(41.2274 -0.0262877 0)
(40.9812 -0.0258147 0)
(51.0361 -0.0814113 0)
(55.4476 -0.159243 0)
(55.1622 -0.16401 0)
(50.7523 -0.0848022 0)
(40.7287 -0.0269802 0)
(40.4757 -0.0265184 0)
(50.4671 -0.0837433 0)
(54.8745 -0.16392 0)
(54.5803 -0.168765 0)
(50.1751 -0.0871852 0)
(40.2163 -0.027695 0)
(39.9562 -0.0272452 0)
(49.8815 -0.0861543 0)
(54.2838 -0.168749 0)
(53.9806 -0.173674 0)
(49.5808 -0.0896483 0)
(39.6896 -0.0284333 0)
(39.4223 -0.0279953 0)
(49.2786 -0.0886456 0)
(53.6749 -0.173732 0)
(53.3624 -0.178734 0)
(48.9691 -0.0921902 0)
(39.1483 -0.0291945 0)
(38.8735 -0.0287655 0)
(48.6579 -0.0912071 0)
(53.0473 -0.178849 0)
(52.7254 -0.183875 0)
(48.3394 -0.0947741 0)
(38.5919 -0.0299643 0)
(38.3095 -0.0295561 0)
(48.019 -0.0938367 0)
(52.4006 -0.184106 0)
(52.0689 -0.189175 0)
(47.6912 -0.0974487 0)
(38.0201 -0.0307635 0)
(37.7299 -0.0303631 0)
(47.3615 -0.0965321 0)
(51.7342 -0.189478 0)
(51.3924 -0.194676 0)
(47.0242 -0.100223 0)
(37.4326 -0.0315913 0)
(37.1343 -0.0311885 0)
(46.6848 -0.0993006 0)
(51.0475 -0.194977 0)
(50.6956 -0.200241 0)
(46.3377 -0.103026 0)
(36.8287 -0.0324193 0)
(36.5223 -0.0320239 0)
(45.9886 -0.102114 0)
(50.3404 -0.200574 0)
(49.9782 -0.205837 0)
(45.6317 -0.105848 0)
(36.2085 -0.0332495 0)
(35.894 -0.0328507 0)
(45.2728 -0.104923 0)
(49.6126 -0.206174 0)
(49.2401 -0.21144 0)
(44.9061 -0.108669 0)
(35.572 -0.0340722 0)
(35.2493 -0.0336687 0)
(44.5374 -0.107725 0)
(48.8641 -0.211767 0)
(48.4813 -0.217019 0)
(44.1608 -0.111472 0)
(34.9192 -0.0348827 0)
(34.5886 -0.0344713 0)
(43.7824 -0.1105 0)
(48.0949 -0.217319 0)
(47.7017 -0.22254 0)
(43.3961 -0.11424 0)
(34.2504 -0.0356749 0)
(33.9119 -0.03525 0)
(43.0081 -0.113224 0)
(47.305 -0.22278 0)
(46.9016 -0.227903 0)
(42.6122 -0.116921 0)
(33.566 -0.036429 0)
(33.2199 -0.0360068 0)
(42.2148 -0.115894 0)
(46.4947 -0.228151 0)
(46.0811 -0.233219 0)
(41.8094 -0.119588 0)
(32.8663 -0.037178 0)
(32.5128 -0.0367167 0)
(41.4027 -0.118465 0)
(45.6642 -0.233316 0)
(45.2408 -0.238373 0)
(40.9882 -0.122149 0)
(32.1519 -0.0378771 0)
(31.7913 -0.0374029 0)
(40.5725 -0.120975 0)
(44.814 -0.238381 0)
(44.381 -0.243314 0)
(40.1492 -0.124603 0)
(31.4234 -0.0385407 0)
(31.056 -0.0380394 0)
(39.7249 -0.123357 0)
(43.9449 -0.243209 0)
(43.5027 -0.248092 0)
(39.2931 -0.126972 0)
(30.6815 -0.0391764 0)
(30.3075 -0.038685 0)
(38.8605 -0.125761 0)
(43.0574 -0.248024 0)
(42.6062 -0.253326 0)
(38.4202 -0.129891 0)
(29.9265 -0.0401982 0)
(29.5414 -0.0407712 0)
(37.9791 -0.129551 0)
(42.1524 -0.254016 0)
(41.6937 -0.259744 0)
(37.5303 -0.134086 0)
(29.1434 -0.0429289 0)
(28.7434 -0.043295 0)
(37.0809 -0.13356 0)
(41.2327 -0.260343 0)
(40.7667 -0.265626 0)
(36.6235 -0.137786 0)
(28.3318 -0.045056 0)
(27.9196 -0.0450491 0)
(36.1659 -0.136925 0)
(40.2987 -0.265744 0)
(39.8259 -0.270625 0)
(35.7007 -0.140892 0)
(27.4971 -0.0465076 0)
(27.0756 -0.0461795 0)
(35.2359 -0.139593 0)
(39.3517 -0.270073 0)
(38.8733 -0.274406 0)
(34.7644 -0.143186 0)
(26.6455 -0.0473804 0)
(26.2178 -0.0468387 0)
(34.2941 -0.141515 0)
(38.3941 -0.273287 0)
(37.9113 -0.276826 0)
(33.8179 -0.144647 0)
(25.7828 -0.0477995 0)
(25.3519 -0.0470119 0)
(33.3442 -0.142468 0)
(37.4287 -0.27492 0)
(36.9432 -0.277826 0)
(32.8655 -0.145206 0)
(24.9152 -0.0477877 0)
(24.4843 -0.0467513 0)
(32.3906 -0.142458 0)
(36.4591 -0.275009 0)
(35.9731 -0.277251 0)
(31.9119 -0.144765 0)
(24.0492 -0.0473515 0)
(23.6214 -0.0461112 0)
(31.4385 -0.14149 0)
(35.4895 -0.273545 0)
(35.0053 -0.274879 0)
(30.9626 -0.143274 0)
(23.1909 -0.046515 0)
(22.7696 -0.0450434 0)
(30.4935 -0.139399 0)
(34.5248 -0.270143 0)
(34.0449 -0.270561 0)
(30.0234 -0.140667 0)
(22.3472 -0.0452624 0)
(21.9359 -0.0435665 0)
(29.562 -0.136191 0)
(33.5704 -0.264769 0)
(33.0976 -0.264256 0)
(29.1009 -0.136936 0)
(21.5251 -0.0436046 0)
(21.1273 -0.0416897 0)
(28.6504 -0.131856 0)
(32.6319 -0.257391 0)
(32.1692 -0.255962 0)
(28.2017 -0.132092 0)
(20.7314 -0.0415601 0)
(20.3503 -0.0394378 0)
(27.7653 -0.126426 0)
(31.7153 -0.248036 0)
(31.2657 -0.245726 0)
(27.3323 -0.126178 0)
(19.9728 -0.0391587 0)
(19.6116 -0.0368468 0)
(26.9134 -0.119958 0)
(30.8266 -0.236773 0)
(30.393 -0.23364 0)
(26.4991 -0.119264 0)
(19.2553 -0.0364399 0)
(18.9168 -0.0339634 0)
(26.1008 -0.11254 0)
(29.9717 -0.223724 0)
(29.557 -0.219854 0)
(25.7084 -0.111452 0)
(18.5845 -0.0334547 0)
(18.2714 -0.0308385 0)
(25.3335 -0.10428 0)
(29.1563 -0.209056 0)
(28.7632 -0.204502 0)
(24.9656 -0.102836 0)
(17.9654 -0.0302438 0)
(17.6795 -0.027561 0)
(24.6167 -0.0953959 0)
(28.3856 -0.193091 0)
(28.016 -0.188007 5.35391e-19)
(24.2752 -0.0937091 0)
(17.4012 -0.0269227 0)
(17.1439 -0.0241921 0)
(23.954 -0.0860576 0)
(27.6637 -0.176081 0)
(27.3199 -0.170915 0)
(23.6411 -0.0843364 0)
(16.8946 -0.0235924 0)
(16.6663 -0.0208398 0)
(23.3489 -0.076564 0)
(26.9943 -0.158699 0)
(26.6778 -0.153161 0)
(23.0652 -0.0750127 0)
(16.446 -0.0202164 0)
(16.2467 -0.0174321 0)
(22.8026 -0.0672931 0)
(26.3801 -0.140686 5.35891e-19)
(26.0917 -0.135506 0)
(22.5489 -0.0656569 0)
(16.0552 -0.0169378 0)
(15.8842 -0.0142948 0)
(22.316 -0.0580237 0)
(25.8224 -0.123214 5.36053e-19)
(25.5622 -0.11827 0)
(22.0919 -0.0565 0)
(15.7204 -0.0139209 0)
(15.5765 -0.0113876 0)
(21.8883 -0.0490713 0)
(25.3213 -0.106224 5.36201e-19)
(25.089 -0.101769 0)
(21.6929 -0.0478252 0)
(15.439 -0.0111602 0)
(15.3204 -0.00876204 0)
(21.5174 -0.0407274 0)
(24.8759 -0.0901386 5.36334e-19)
(24.6706 -0.0863556 0)
(21.3492 -0.0398543 0)
(15.2071 -0.00870507 0)
(15.1113 -0.00643366 0)
(21.2001 -0.0330956 0)
(24.4843 -0.0751902 5.36453e-19)
(24.3049 -0.0721339 0)
(21.0573 -0.0326044 0)
(15.0198 -0.00654608 0)
(14.9445 -0.00443453 0)
(20.9327 -0.0262966 0)
(24.1439 -0.0616054 5.36559e-19)
(23.9887 -0.059244 0)
(20.8132 -0.0261596 0)
(14.8723 -0.00469061 0)
(14.8149 -0.00272865 0)
(20.7107 -0.0203239 0)
(23.8511 -0.0493525 5.36653e-19)
(23.7183 -0.0479858 0)
(20.6124 -0.0203974 0)
(14.7595 -0.00317402 0)
(14.7173 -0.00137018 0)
(20.5296 -0.015092 0)
(23.6017 -0.0389728 0)
(23.4891 -0.0380983 0)
(20.4496 -0.0156001 0)
(14.676 -0.00193188 0)
(14.6463 -0.000348314 0)
(20.3837 -0.0111688 0)
(23.3912 -0.0297959 0)
(23.2958 -0.0297373 0)
(20.3191 -0.0120541 0)
(14.6158 -0.00103519 0)
(14.5957 0.000397167 0)
(20.268 -0.0076254 0)
(23.2174 -0.0225237 0)
(23.1359 -0.0232658 0)
(20.2166 -0.00908322 0)
(14.574 -0.000494758 0)
(14.5611 0.000745042 0)
(20.1774 -0.00500799 0)
(23.0725 -0.0169615 0)
(23.0021 -0.0185357 0)
(20.136 -0.00694437 0)
(14.5454 -0.000242989 0)
(14.5371 0.000799493 0)
(20.1054 -0.00333566 0)
(22.9502 -0.0131863 0)
(22.8883 -0.0156182 0)
(20.0711 -0.00573153 0)
(14.5247 -0.000290874 0)
(14.518 0.00056522 0)
(20.046 -0.00265104 0)
(22.8445 -0.0112486 0)
(22.7884 -0.014617 0)
(20.0155 -0.00552918 0)
(14.5059 -0.000667843 0)
(14.4977 -8.71611e-06 0)
(19.9924 -0.00304501 0)
(22.749 -0.0113343 0)
(22.6958 -0.0157075 0)
(19.9623 -0.00634122 0)
(14.4819 -0.00134254 0)
(14.4714 -0.000526434 0)
(19.9391 -0.00381111 0)
(22.6573 -0.0136183 0)
(22.5934 -0.0176382 0)
(19.8991 -0.00830383 0)
(14.4474 -0.00353975 -9.75938e-20)
(14.4276 -0.000406124 -4.73311e-24)
(19.8759 -0.00806273 0)
(22.5491 -0.020154 0)
(22.4838 -0.0258414 1.3592e-19)
(19.8275 -0.0130984 -1.62779e-19)
(14.3939 -0.00374292 9.89741e-20)
(14.3583 -0.0034765 0)
(19.7781 -0.0139581 1.64096e-19)
(22.4318 -0.0286792 -1.3656e-19)
(22.3518 -0.0390052 1.43842e-18)
(19.7128 -0.0216758 -3.5115e-19)
(14.3066 -0.00957656 0)
(14.23 -0.00972182 0)
(19.6403 -0.0215953 3.60128e-19)
(22.2783 -0.0380804 -3.01874e-19)
(22.2677 -0.0297586 3.38158e-19)
(19.611 -0.0136681 -2.05074e-18)
(14.1776 -0.00304938 -1.00674e-18)
(14.2571 -0.00315726 7.49409e-19)
(19.6619 -0.00206282 -3.34013e-18)
(22.3473 -0.0361903 1.41922e-18)
(22.3632 -0.0456534 -1.50448e-18)
(19.6809 -0.0147223 2.69899e-18)
(14.3331 0.013817 -8.11458e-19)
(25.2887 -0.096369 0)
(27.3552 -0.213376 5.60744e-19)
(28.8459 -0.37542 -2.4873e-18)
(29.7507 -0.512205 -2.11271e-18)
(30.2833 -0.53262 0)
(31.3486 -0.638613 -5.21602e-19)
(31.9273 -0.742665 1.75542e-23)
(32.6263 -0.843886 -6.51987e-20)
(33.0801 -0.936922 6.49222e-20)
(33.5774 -1.02436 0)
(33.9358 -1.10262 1.61157e-20)
(34.3183 -1.1754 -1.60282e-20)
(34.6126 -1.24041 0)
(34.9221 -1.29933 0)
(35.1714 -1.35142 0)
(35.4315 -1.39673 0)
(35.6489 -1.43571 0)
(35.8752 -1.46765 0)
(36.0702 -1.49355 -4.92251e-19)
(36.2736 -1.51278 0)
(36.4531 -1.5262 0)
(36.6412 -1.53328 0)
(36.8104 -1.53475 0)
(36.989 -1.53037 0)
(37.152 -1.52067 0)
(37.3252 -1.50577 0)
(37.485 -1.48585 0)
(37.6561 -1.46134 0)
(37.8153 -1.43198 0)
(37.9869 -1.39871 0)
(38.1472 -1.36069 4.71698e-19)
(38.3218 -1.31927 -4.79907e-19)
(38.4847 -1.27345 6.67542e-20)
(38.6635 -1.22464 6.58375e-19)
(38.8291 -1.17219 -2.43039e-19)
(39.011 -1.11735 -4.94789e-19)
(39.1759 -1.06082 1.02525e-18)
(39.3529 -1.00381 -1.31408e-19)
(39.4999 -0.947215 0)
(39.6576 -0.878698 1.98744e-17)
(39.7936 -0.828828 -3.96754e-17)
(39.9161 -0.780585 1.01566e-17)
(40.038 -0.729462 0)
(40.1544 -0.679085 0)
(40.261 -0.629657 -3.78833e-19)
(40.3567 -0.580018 0)
(40.4407 -0.52917 5.09262e-20)
(40.5106 -0.476291 -5.15615e-20)
(40.5592 -0.42102 0)
(40.5765 -0.361966 4.21044e-19)
(40.5377 -0.300777 -9.05492e-19)
(40.4071 -0.235253 8.98072e-19)
(40.0821 -0.170823 -4.16167e-18)
(39.3814 -0.113488 2.61124e-18)
(37.4099 -0.0630306 -1.42396e-18)
(34.635 -0.0403464 0)
(26.2887 -0.038174 2.60994e-19)
(26.0606 -0.00478376 -1.19965e-18)
(34.4656 -0.0387443 -2.39816e-18)
(37.2542 -0.0535579 5.89558e-24)
(37.1135 -0.0467762 0)
(34.3093 -0.0194475 0)
(25.8593 -0.00589107 0)
(25.896 0.00587938 0)
(34.2683 -0.00643919 -6.763e-19)
(37.0565 -0.0313843 0)
(37.0362 -0.0185241 0)
(34.275 -0.00194739 6.53439e-19)
(25.964 0.00541599 0)
(26.0001 0.00579556 0)
(34.2807 0.00126983 6.1087e-19)
(37.0096 -0.0109488 -8.63413e-25)
(36.9721 -0.00714791 0)
(34.2662 0.00325181 -7.56719e-20)
(26.0242 0.00679567 2.76725e-19)
(26.0498 0.00729254 8.7999e-24)
(34.2503 0.00551843 0)
(36.9329 -0.00346034 0)
(36.8922 -0.00178248 0)
(34.232 0.00750667 0)
(26.0784 0.00787291 -1.82123e-19)
(26.1134 0.00774885 0)
(34.2173 0.00876178 0)
(36.8556 0.000251647 0)
(36.8188 0.00170371 0)
(34.204 0.0100597 0)
(26.1508 0.00811067 0)
(26.1923 0.00841619 0)
(34.1919 0.0111665 2.97774e-19)
(36.7833 0.00281124 0)
(36.7487 0.00384364 0)
(34.1813 0.0118908 1.37718e-23)
(26.2366 0.00875648 0)
(26.2828 0.00925168 0)
(34.1718 0.0121656 -2.98869e-19)
(36.7147 0.00469747 0)
(36.6812 0.00544172 0)
(34.1628 0.012398 0)
(26.3299 0.0096715 0)
(26.3794 0.00993444 0)
(34.1546 0.0127778 0)
(36.6473 0.0058511 0)
(36.6135 0.00603141 0)
(34.1459 0.0131087 0)
(26.4298 0.0100967 0)
(26.4815 0.0101825 0)
(34.1375 0.0134455 0)
(36.5788 0.00598266 0)
(36.5435 0.00571064 0)
(34.1281 0.0138094 0)
(26.5335 0.0102164 0)
(26.5874 0.0103245 0)
(34.1181 0.0139 0)
(36.5071 0.00539925 0)
(36.4696 0.00499123 0)
(34.1074 0.0139187 0)
(26.6398 0.0104341 0)
(26.6943 0.0105373 0)
(34.0956 0.0138554 0)
(36.4306 0.00443788 0)
(36.3903 0.00378518 0)
(34.0826 0.0137492 0)
(26.7469 0.0106096 0)
(26.8013 0.0106631 0)
(34.0681 0.0135675 0)
(36.348 0.00300645 0)
(36.304 0.00215122 0)
(34.0521 0.0133572 0)
(26.8535 0.0106861 0)
(26.9071 0.0106792 0)
(34.0343 0.0130895 0)
(36.2578 0.00117943 0)
(36.2096 0.000192574 0)
(34.0146 0.0128979 0)
(26.9585 0.0106543 0)
(27.0108 0.0105888 0)
(33.9929 0.0126292 2.97746e-19)
(36.1585 -0.000924155 0)
(36.1056 -0.00214571 0)
(33.9693 0.0120301 -2.98268e-19)
(27.0619 0.0106546 0)
(27.111 0.0106254 0)
(33.9434 0.0117409 2.97069e-19)
(36.05 -0.00328582 0)
(35.9916 -0.00446712 0)
(33.9153 0.0114568 -2.97587e-19)
(27.1608 0.0106055 0)
(27.2095 0.010778 0)
(33.885 0.0108493 0)
(35.9306 -0.00562125 0)
(35.8671 -0.0066592 0)
(33.8525 0.0104934 0)
(27.2565 0.0108692 0)
(27.3043 0.0110632 0)
(33.8181 0.0101348 0)
(35.8007 -0.00754966 0)
(35.732 -0.00811455 0)
(33.7817 0.00975016 0)
(27.351 0.0113488 0)
(27.3983 0.0115544 0)
(33.7441 0.00980623 0)
(35.6604 -0.00868148 0)
(35.587 -0.00894258 0)
(33.7046 0.0101548 0)
(27.4465 0.0118573 0)
(27.4966 0.012295 0)
(33.665 0.0108698 0)
(35.5111 -0.00878667 0)
(35.434 -0.00815839 0)
(33.6249 0.0120919 0)
(27.5494 0.012953 0)
(27.607 0.0139438 0)
(33.5858 0.0139141 0)
(35.3559 -0.00635904 0)
(35.2773 -0.0033196 0)
(33.549 0.0165422 0)
(27.6717 0.0153818 0)
(27.7467 0.017459 0)
(33.5161 0.0201898 0)
(35.1997 0.00135122 0)
(35.1242 0.00850989 0)
(33.4892 0.0253462 0)
(27.8353 0.0206182 0)
(27.9426 0.0256829 0)
(33.4705 0.0327048 0)
(35.0526 0.0191773 0)
(34.9902 0.0344853 0)
(33.4665 0.0417175 0)
(28.0782 0.0335552 0)
(28.267 0.046409 0)
(33.4952 0.0514371 0)
(34.9475 0.0576291 0)
(34.9367 0.108221 2.46238e-19)
(33.5744 0.0788056 0)
(28.5468 0.0818923 0)
(28.8757 0.204886 -1.45971e-18)
(33.6724 0.194397 1.49586e-18)
(34.933 0.231663 0)
(34.8824 0.435959 -5.16854e-23)
(33.719 0.400264 -2.70156e-18)
(29.1621 0.414964 -1.83118e-19)
(29.2911 0.732699 -5.67626e-18)
(33.6365 0.725793 9.5943e-18)
(34.727 0.72145 -4.19872e-18)
(34.454 1.00796 -7.70101e-18)
(33.4076 1.03442 4.5243e-18)
(29.2469 1.02725 0)
(29.0814 1.33419 1.17567e-17)
(33.0653 1.35524 -9.30427e-18)
(34.0801 1.29257 0)
(33.6333 1.52005 0)
(32.6399 1.5975 0)
(28.8199 1.56145 0)
(28.5978 1.73516 -1.02618e-17)
(32.2117 1.77109 9.54316e-18)
(33.1695 1.69453 7.79561e-18)
(32.6812 1.86592 7.53422e-18)
(31.7859 1.93844 -9.44367e-18)
(28.4277 1.9098 1.48249e-18)
(28.1879 2.10101 -2.49204e-17)
(31.3133 2.15949 1.66453e-17)
(32.133 2.0772 0)
(31.3913 2.14617 9.10771e-17)
(30.6645 2.24778 0)
(27.8552 2.14471 1.96892e-18)
(24.2376 1.77477 -2.5568e-18)
(29.1175 2.18928 4.5667e-18)
(30.5189 2.31907 -4.17477e-18)
(30.4339 2.45155 1.35532e-18)
(29.3021 2.59196 0)
(25.4346 2.3822 0)
(25.204 2.44521 -9.20676e-19)
(28.9064 2.71714 -3.72957e-19)
(29.8938 2.6337 -1.81298e-18)
(29.2714 2.72743 1.9387e-17)
(28.3858 2.83983 -2.25141e-17)
(25.1194 2.62233 2.9303e-17)
(24.7882 2.78325 -2.68279e-17)
(27.7771 2.97154 -2.16317e-17)
(28.5835 2.82743 1.74426e-17)
(27.8349 2.85713 -8.6972e-22)
(27.0953 3.01507 2.11792e-17)
(24.3928 2.87716 -6.15842e-19)
(23.9996 2.97418 7.81868e-19)
(26.4066 3.04489 -2.15426e-17)
(27.0575 2.87139 -2.06085e-18)
(26.163 2.89741 -1.35329e-17)
(25.6021 3.11213 -1.82326e-17)
(23.4802 3.12402 2.45204e-17)
(22.8002 3.28751 -4.52916e-17)
(24.656 3.20916 3.45779e-22)
(25.1114 2.93492 2.53467e-17)
(23.8004 2.81 1.41066e-21)
(23.4554 3.13446 1.08397e-16)
(21.9729 3.27386 0)
(19.1446 2.76282 -4.36426e-17)
(22.0365 3.13946 3.29574e-17)
(22.8013 3.13428 0)
(21.9324 2.9852 -2.16342e-17)
(21.3059 3.30948 2.83801e-17)
(19.3755 3.21281 1.04218e-18)
(18.3027 3.17904 0)
(20.0303 3.19673 0)
(20.5969 2.8169 0)
(19.0629 2.50198 -1.55148e-17)
(18.5575 2.9806 4.43971e-17)
(17.1515 3.11712 1.93046e-21)
(15.683 3.00331 3.33198e-18)
(16.8298 2.67624 -4.68003e-17)
(17.2773 2.06201 -2.03793e-18)
(15.1434 1.55856 0)
(14.8283 2.42248 4.48832e-18)
(13.9808 3.00226 -5.14869e-17)
(11.8439 2.59609 -1.3985e-16)
(12.1088 1.8221 5.70195e-17)
(12.27 0.921181 9.72636e-17)
(10.5233 1.19764 0)
(10.0087 1.79588 0)
(8.81952 2.0544 9.21312e-17)
(6.39656 1.38049 -7.08099e-17)
(7.17925 0.820095 5.43867e-17)
(7.83498 -0.112479 2.11722e-17)
(5.047 -2.26855 3.82951e-17)
(4.60241 -0.681484 1.71883e-20)
(4.08313 0.589422 -5.88836e-17)
(-1.56131 -1.25659 7.82017e-17)
(-1.50593 -2.74877 -6.58241e-17)
(-0.847012 -4.41121 1.00178e-16)
(-3.86052 -5.48428 2.65099e-17)
(-5.01232 -4.14062 4.0369e-17)
(-5.81103 -3.16001 -9.16464e-17)
(-12.1382 -7.48594 -1.40776e-16)
(-10.6727 -9.47299 -1.18725e-17)
(-9.00159 -11.6636 1.41397e-16)
(-17.2468 -19.7541 0)
(-18.9121 -17.1314 1.52271e-16)
(-20.0927 -13.8273 -1.62521e-16)
(-29.904 -31.2283 -1.74316e-16)
(-25.0876 -33.1707 1.25903e-16)
(-20.0167 -35.5197 -1.31085e-17)
(-19.1264 -64.6615 9.6938e-18)
(-24.1857 -64.5097 1.04524e-16)
(-31.7914 -64.6432 0)
(-1.45103 -96.7903 6.61276e-20)
(8.5898 -91.3599 -1.00419e-17)
(5.0389 -89.2412 -3.56099e-18)
(38.5396 -91.0336 -5.06468e-18)
(47.76 -87.8594 0)
(37.5728 -91.7294 7.77664e-17)
(55.4984 -70.6035 -1.12441e-16)
(64.795 -72.632 7.66708e-17)
(59.9405 -77.8138 -1.19584e-16)
(65.1553 -60.1125 1.32274e-16)
(65.8647 -55.0704 -1.59365e-16)
(55.1973 -54.0835 2.29014e-16)
(48.3494 -40.356 0)
(60.8823 -42.0834 4.76132e-18)
(63.1942 -47.2541 -4.02221e-18)
(63.1304 -46.1228 9.93478e-18)
(59.8577 -39.9566 5.98597e-17)
(48.4547 -32.5221 -1.62121e-16)
(45.4479 -27.7838 0)
(56.5568 -33.8644 3.00515e-18)
(61.0834 -38.5948 -8.80956e-18)
(57.2702 -31.94 0)
(51.506 -28.6132 7.64709e-17)
(40.5937 -23.8417 -9.62627e-17)
(43.9822 -23.4381 4.35874e-20)
(54.1137 -30.3739 8.12027e-17)
(59.0064 -34.863 -1.07113e-16)
(56.8325 -30.5759 7.28999e-17)
(51.428 -27.0527 -1.2045e-17)
(41.6868 -21.5399 0)
(37.7588 -18.4279 -2.95464e-18)
(47.2503 -23.7537 5.06588e-18)
(52.8783 -26.791 -2.18115e-17)
(55.7154 -29.3722 -1.06552e-16)
(51.0123 -26.2177 -4.01304e-18)
(41.5724 -20.572 -7.66044e-17)
(40.181 -19.3963 -2.03038e-18)
(49.1092 -24.2296 0)
(53.9378 -27.1128 -6.75617e-17)
(50.7965 -23.6673 -4.33402e-18)
(45.3489 -21.8931 8.45741e-17)
(36.4353 -18.0961 -9.32745e-17)
(40.864 -19.3164 2.42233e-18)
(49.142 -24.185 -3.97017e-18)
(53.3697 -26.8993 1.06507e-16)
(52.0944 -25.3698 0)
(47.5906 -23.0354 2.92447e-18)