/*--------------------------------*- C++ -*----------------------------------*\
| =========                 |                                                 |
| \\      /  F ield         | OpenFOAM: The Open Source CFD Toolbox           |
|  \\    /   O peration     | Version:  v2006                                 |
|   \\  /    A nd           | Website:  www.openfoam.com                      |
|    \\/     M anipulation  |                                                 |
\*---------------------------------------------------------------------------*/
FoamFile
{
    version     2.0;
    format      ascii;
    class       volScalarField;
    location    "0.012";
    object      nut;
}
// * * * * * * * * * * * * * * * * * * * * * * * * * * * * * * * * * * * * * //

dimensions      [0 2 -1 0 0 0 0];


internalField   nonuniform List<scalar> 
41981
(
17.9147
18.0196
65.8932
65.9653
61.1423
54.0926
40.5495
26.8649
15.103
7.93397
4.29711
2.52558
1.63382
1.15835
0.886708
0.719424
0.60888
0.531504
0.474923
0.432115
0.398602
0.371452
0.348792
0.32934
0.312145
0.296621
0.28252
0.269687
0.258011
0.247396
0.237747
0.228964
0.220944
0.213591
0.206819
0.200553
0.19473
0.189299
0.184217
0.179448
0.174959
0.170726
0.166725
0.162935
0.159341
0.155926
0.152677
0.149584
0.146634
0.143821
0.141134
0.13856
0.136101
0.13376
0.131521
0.129378
0.127328
0.125366
0.123488
0.12169
0.119969
0.118323
0.116747
0.115239
0.113796
0.112415
0.111094
0.109831
0.108624
0.107471
0.106369
0.105318
0.104315
0.103359
0.10245
0.101585
0.100764
0.0999861
0.0992498
0.0985547
0.0979002
0.0972858
0.0967111
0.0961758
0.0956798
0.0952228
0.0948049
0.0944261
0.0940864
0.0937861
0.0935253
0.0933043
0.0931234
0.0929832
0.092884
0.0928264
0.0928112
0.0928389
0.0929106
0.093027
0.0931894
0.093399
0.0936569
0.0939648
0.0943243
0.0947371
0.0952052
0.0957309
0.0963163
0.096964
0.097677
0.0984583
0.0993112
0.10024
0.101248
0.102341
0.103523
0.104802
0.106184
0.107677
0.109291
0.111035
0.112924
0.114971
0.117193
0.11962
0.122294
0.125259
0.128568
0.132284
0.136469
0.141175
0.14642
0.152164
0.158303
0.164706
0.171368
0.178725
0.188165
0.203121
0.231374
0.2895
0.418828
0.744757
1.71404
4.93177
12.4392
17.4349
13.1194
5.82927
2.35147
1.07454
0.479517
0.210113
0.13343
0.0738017
0.0468375
0.0256975
0.00662807
0.00117615
4.36226e-05
3.73798e-05
0.000540517
0.00251639
0.00129483
0.000325511
3.18762e-05
2.78318e-05
0.000292752
0.00109789
0.000847339
0.000247109
2.49671e-05
2.30022e-05
0.000241596
0.000822068
0.000701186
0.000212774
2.11325e-05
2.00453e-05
0.000214626
0.000693514
0.000633228
0.000196939
1.89692e-05
1.81791e-05
0.000197534
0.000630781
0.000584377
0.000187054
1.74534e-05
1.71279e-05
0.000188486
0.000589684
0.000551248
0.000180567
1.67816e-05
1.66411e-05
0.000181534
0.000557914
0.000524508
0.000175079
1.64221e-05
1.63454e-05
0.000176096
0.000531701
0.000501735
0.000170399
1.61807e-05
1.61304e-05
0.000171355
0.000509031
0.000481565
0.000166042
1.59929e-05
1.59549e-05
0.00016705
0.000488813
0.000463361
0.000162154
1.58339e-05
1.58029e-05
0.000163184
0.000470578
0.000446865
0.000158617
1.56938e-05
1.56672e-05
0.000159655
0.000454071
0.000431878
0.000155365
1.55667e-05
1.55433e-05
0.000156404
0.000439059
0.000418186
0.000152352
1.54498e-05
1.54285e-05
0.000153387
0.00042531
0.000405578
0.00014954
1.53405e-05
1.53207e-05
0.000150568
0.00041262
0.000393912
0.000146905
1.52372e-05
1.52184e-05
0.000147926
0.000400849
0.000383067
0.000144435
1.51389e-05
1.51208e-05
0.00014545
0.000389896
0.000372941
0.00014212
1.5045e-05
1.50277e-05
0.000143129
0.000379668
0.000363463
0.000139951
1.49553e-05
1.49388e-05
0.000140955
0.000370087
0.000354576
0.000137919
1.487e-05
1.48544e-05
0.000138918
0.000361102
0.000346255
0.000136018
1.47891e-05
1.47745e-05
0.000137013
0.00035269
0.000338484
0.000134242
1.47126e-05
1.46992e-05
0.000135235
0.000344837
0.000331255
0.000132586
1.46405e-05
1.4628e-05
0.000133578
0.000337534
0.000324553
0.000131045
1.45723e-05
1.45608e-05
0.000132035
0.000330766
0.00031835
0.0001296
1.45076e-05
1.44969e-05
0.000130596
0.0003245
0.000312607
0.000128254
1.44459e-05
1.44359e-05
0.000129254
0.000318692
0.000307271
0.000126992
1.43866e-05
1.43771e-05
0.000127994
0.000313289
0.000302288
0.0001258
1.43293e-05
1.43201e-05
0.0001268
0.000308237
0.000297614
0.000124665
1.42733e-05
1.42643e-05
0.000125662
0.000303496
0.000293214
0.000123578
1.42182e-05
1.42093e-05
0.000124571
0.000299029
0.000289052
0.00012253
1.41637e-05
1.41548e-05
0.00012352
0.000294798
0.000285092
0.000121515
1.41096e-05
1.41007e-05
0.000122499
0.000290767
0.000281297
0.000120525
1.40555e-05
1.40465e-05
0.000121502
0.000286896
0.000277635
0.000119552
1.40013e-05
1.39922e-05
0.000120522
0.000283155
0.000274081
0.000118591
1.3947e-05
1.39377e-05
0.000119553
0.000279518
0.000270618
0.00011764
1.38923e-05
1.38828e-05
0.000118593
0.000275973
0.000267239
0.000116697
1.38373e-05
1.38276e-05
0.000117643
0.000272512
0.000263943
0.000115765
1.3782e-05
1.37721e-05
0.000116703
0.000269138
0.000260738
0.000114843
1.37266e-05
1.37162e-05
0.000115775
0.000265858
0.000257624
0.000113931
1.3671e-05
1.36594e-05
0.000114852
0.000262669
0.000254586
0.000113016
1.36143e-05
1.36002e-05
0.000113808
0.000259558
0.000251618
0.000112088
1.35554e-05
1.35391e-05
0.000112718
0.000256523
0.000248719
0.000111166
1.34953e-05
1.34771e-05
0.000111643
0.000253557
0.00024588
0.000110257
1.34344e-05
1.34142e-05
0.000110586
0.000250649
0.000243081
0.000109348
1.33721e-05
1.33499e-05
0.000109533
0.000247776
0.000240303
0.000108427
1.33084e-05
1.32841e-05
0.000108477
0.000244923
0.000237535
0.000107494
1.32429e-05
1.32168e-05
0.000107416
0.000242079
0.000234769
0.000106546
1.31756e-05
1.31475e-05
0.000106345
0.000239234
0.000231998
0.00010558
1.3106e-05
1.30759e-05
0.000105262
0.000236386
0.000229228
0.000104596
1.30338e-05
1.30023e-05
0.000104168
0.00023355
0.000226493
0.000103602
1.29596e-05
1.29274e-05
0.000103076
0.000230766
0.00022383
0.000102539
1.28842e-05
1.28517e-05
0.000102001
0.000228054
0.000221222
0.000101468
1.28078e-05
1.2775e-05
0.000100942
0.000225382
0.000218645
0.000100412
1.27305e-05
1.26975e-05
9.99018e-05
0.000222744
0.000216111
9.93767e-05
1.26524e-05
1.26193e-05
9.88852e-05
0.000220155
0.000213639
9.83691e-05
1.25737e-05
1.25405e-05
9.78985e-05
0.000217635
0.00021125
9.73944e-05
1.24945e-05
1.24613e-05
9.69465e-05
0.000215201
0.000208956
9.64562e-05
1.24147e-05
1.23815e-05
9.60318e-05
0.000212867
0.000206767
9.55547e-05
1.23342e-05
1.23009e-05
9.51533e-05
0.000210642
0.000204684
9.46865e-05
1.22526e-05
1.2219e-05
9.43063e-05
0.000208525
0.000202699
9.38442e-05
1.21693e-05
1.21353e-05
9.34825e-05
0.000206507
0.000200794
9.3017e-05
1.20837e-05
1.20491e-05
9.26713e-05
0.000204568
0.000198946
9.21355e-05
1.19948e-05
1.196e-05
9.18575e-05
0.000202682
0.000197124
9.1192e-05
1.19011e-05
1.18666e-05
9.10174e-05
0.000200819
0.0001953
9.02213e-05
1.18027e-05
1.17683e-05
9.0143e-05
0.000198951
0.000193453
8.92143e-05
1.16989e-05
1.16646e-05
8.92238e-05
0.000197062
0.000191574
8.81716e-05
1.15895e-05
1.15553e-05
8.82701e-05
0.000195136
0.000189651
8.70956e-05
1.14743e-05
1.14404e-05
8.72866e-05
0.000193163
0.000187683
8.59855e-05
1.13532e-05
1.13199e-05
8.62742e-05
0.000191144
0.000185673
8.48399e-05
1.12258e-05
1.11931e-05
8.52326e-05
0.000189086
0.000183626
8.36561e-05
1.10916e-05
1.10597e-05
8.41585e-05
0.000186989
0.000181539
8.24301e-05
1.09498e-05
1.09188e-05
8.30475e-05
0.000184851
0.000179406
8.11603e-05
1.07998e-05
1.07691e-05
8.18285e-05
0.000182666
0.000177226
7.98477e-05
1.06415e-05
1.0609e-05
8.05055e-05
0.000180429
0.000174985
7.84774e-05
1.04732e-05
1.04383e-05
7.91317e-05
0.000178125
0.000172669
7.70546e-05
1.02938e-05
1.02562e-05
7.76984e-05
0.000175748
0.000170283
7.55646e-05
1.01022e-05
1.00616e-05
7.61952e-05
0.000173301
0.000167827
7.40011e-05
9.89707e-06
9.85288e-06
7.46146e-05
0.000170779
0.000165289
7.2356e-05
9.67645e-06
9.62822e-06
7.29522e-05
0.000168171
0.000162661
7.06299e-05
9.43906e-06
9.38707e-06
7.12088e-05
0.00016547
0.000159939
6.88216e-05
9.13729e-06
8.8971e-06
6.93996e-05
0.000162657
0.000157093
6.69784e-05
8.49373e-06
8.24601e-06
6.75568e-05
0.000159721
0.000154137
6.50945e-05
7.83222e-06
7.57921e-06
6.56636e-05
0.000156676
0.000151081
6.315e-05
7.15714e-06
6.9018e-06
6.37151e-05
0.000153531
0.000147933
6.11455e-05
6.47427e-06
6.21924e-06
6.17062e-05
0.000150299
0.000144702
5.90627e-05
5.7879e-06
5.53528e-06
5.96141e-05
0.000146986
0.000141385
5.68791e-05
5.10259e-06
4.85618e-06
5.74299e-05
0.000143593
0.000137998
5.46078e-05
4.42777e-06
4.19466e-06
5.5192e-05
0.000140159
0.000134606
5.23099e-05
3.78005e-06
3.5697e-06
5.29783e-05
0.000136761
0.000131275
5.00706e-05
3.18068e-06
3.005e-06
5.08946e-05
0.000133684
0.000128445
4.81177e-05
2.66028e-06
2.52702e-06
4.91995e-05
0.000131342
0.000126357
4.65516e-05
2.23377e-06
2.13525e-06
4.77917e-05
0.000129758
0.000124866
4.51124e-05
1.88135e-06
1.81137e-06
4.64495e-05
0.000128734
0.000123813
4.36925e-05
1.59012e-06
1.5455e-06
4.51175e-05
0.000128059
0.000123105
4.23031e-05
1.35422e-06
1.32971e-06
4.37817e-05
0.000127767
0.000122655
4.08851e-05
1.16251e-06
1.15277e-06
4.23675e-05
0.000127639
0.000122361
3.93901e-05
1.00608e-06
1.00602e-06
4.08244e-05
0.000127434
0.000121844
3.77445e-05
8.76253e-07
8.80502e-07
3.90274e-05
0.000126722
0.000120584
3.57785e-05
7.62433e-07
7.70456e-07
3.67242e-05
0.000125002
0.000118364
3.34643e-05
6.63829e-07
6.78479e-07
3.41295e-05
0.000122275
0.000115233
3.09245e-05
5.81167e-07
6.01263e-07
3.13734e-05
0.000118773
0.00011112
2.81659e-05
5.16014e-07
5.34675e-07
2.83925e-05
0.000114253
0.000105534
2.50068e-05
4.55882e-07
4.66551e-07
2.49325e-05
0.000107999
9.81666e-05
2.12553e-05
3.88542e-07
3.86773e-07
2.07401e-05
9.99115e-05
8.82548e-05
1.6292e-05
3.03291e-07
2.85958e-07
1.48132e-05
8.8205e-05
7.08553e-05
9.39022e-06
2.1787e-07
2.11309e-07
7.3831e-06
6.52936e-05
4.52591e-05
4.14929e-06
1.94288e-07
2.06603e-07
3.3002e-06
3.82091e-05
2.71594e-05
2.14614e-06
2.12903e-07
2.32323e-07
2.03248e-06
2.51824e-05
2.02446e-05
1.669e-06
2.42836e-07
2.61443e-07
1.74223e-06
2.07266e-05
1.90352e-05
1.64094e-06
2.70504e-07
2.87259e-07
1.8241e-06
2.04324e-05
1.98321e-05
1.79056e-06
2.93723e-07
3.08587e-07
2.09098e-06
2.24627e-05
2.2182e-05
2.07774e-06
3.13333e-07
3.2727e-07
2.44678e-06
2.56087e-05
2.52005e-05
2.43079e-06
3.31276e-07
3.45446e-07
2.83771e-06
2.88165e-05
2.82056e-05
2.81119e-06
3.49353e-07
3.6436e-07
3.24962e-06
3.19117e-05
3.11112e-05
3.21229e-06
3.68718e-07
3.85122e-07
3.67651e-06
3.48879e-05
3.38823e-05
3.62453e-06
3.90141e-07
4.08087e-07
4.10481e-06
3.76518e-05
3.64569e-05
4.03653e-06
4.13765e-07
4.33287e-07
4.53498e-06
4.02216e-05
3.88744e-05
4.45276e-06
4.39517e-07
4.60515e-07
4.97041e-06
4.26642e-05
4.11964e-05
4.87493e-06
4.67302e-07
4.89846e-07
5.409e-06
4.50244e-05
4.3446e-05
5.29888e-06
4.97327e-07
5.21553e-07
5.84079e-06
4.72677e-05
4.55634e-05
5.7131e-06
5.29884e-07
5.55918e-07
6.2527e-06
4.93144e-05
4.74702e-05
6.10533e-06
5.65232e-07
5.93167e-07
6.6343e-06
5.10994e-05
4.91133e-05
6.46615e-06
6.03568e-07
6.3344e-07
6.97608e-06
5.25804e-05
5.0455e-05
6.7862e-06
6.45026e-07
6.76869e-07
7.2683e-06
5.37195e-05
5.14566e-05
7.05634e-06
6.89719e-07
7.23549e-07
7.50348e-06
5.44846e-05
5.20866e-05
7.27003e-06
7.37713e-07
7.73523e-07
7.67712e-06
5.48505e-05
5.23238e-05
7.42337e-06
7.89028e-07
8.2683e-07
7.78781e-06
5.48186e-05
5.21549e-05
7.5155e-06
8.43737e-07
8.83641e-07
7.83863e-06
5.44046e-05
5.15654e-05
7.55035e-06
9.02063e-07
9.44271e-07
7.83483e-06
5.36752e-05
5.05984e-05
7.53349e-06
9.64386e-07
1.00922e-06
7.78397e-06
5.25726e-05
4.92893e-05
7.47321e-06
1.03126e-06
1.0791e-06
7.69915e-06
5.11155e-05
4.76524e-05
7.38348e-06
1.10338e-06
1.15471e-06
7.59265e-06
4.93177e-05
4.57252e-05
7.28126e-06
1.1816e-06
1.23699e-06
7.4814e-06
4.72268e-05
4.35657e-05
7.18572e-06
1.26691e-06
1.32701e-06
7.38669e-06
4.49015e-05
4.1244e-05
7.1163e-06
1.36041e-06
1.42573e-06
7.33149e-06
4.242e-05
3.88451e-05
7.08942e-06
1.46313e-06
1.53405e-06
7.34189e-06
3.98721e-05
3.64583e-05
7.13071e-06
1.57596e-06
1.65269e-06
7.42409e-06
3.73335e-05
3.41497e-05
7.2508e-06
1.69965e-06
1.78241e-06
7.59926e-06
3.4912e-05
3.20418e-05
7.48002e-06
1.83459e-06
1.92306e-06
7.86275e-06
3.27488e-05
3.02307e-05
7.81297e-06
1.98027e-06
2.07374e-06
8.17149e-06
3.09002e-05
2.87601e-05
8.23102e-06
2.13614e-06
2.23293e-06
8.53991e-06
2.93661e-05
2.76669e-05
8.73461e-06
2.30176e-06
2.39917e-06
8.97231e-06
2.81637e-05
2.68887e-05
9.25181e-06
2.47252e-06
2.57117e-06
9.43608e-06
2.73368e-05
2.64552e-05
9.76033e-06
2.64706e-06
2.74811e-06
9.93714e-06
2.69153e-05
2.63127e-05
1.02857e-05
2.82512e-06
2.92822e-06
1.04688e-05
2.65267e-05
2.62202e-05
1.08212e-05
3.00542e-06
3.11048e-06
1.10266e-05
2.62912e-05
2.62318e-05
1.13741e-05
3.18708e-06
3.29368e-06
1.16064e-05
2.62099e-05
2.63685e-05
1.19454e-05
3.36883e-06
3.47636e-06
1.22104e-05
2.62957e-05
2.66051e-05
1.25401e-05
3.54911e-06
3.65664e-06
1.28359e-05
2.65144e-05
2.69574e-05
1.31577e-05
3.7262e-06
3.83264e-06
1.34777e-05
2.68415e-05
2.74029e-05
1.37972e-05
3.89859e-06
4.00299e-06
1.41366e-05
2.72733e-05
2.79552e-05
1.44525e-05
4.06499e-06
4.167e-06
1.48092e-05
2.78078e-05
2.85919e-05
1.51236e-05
4.2252e-06
4.32528e-06
1.54921e-05
2.84316e-05
2.93068e-05
1.5806e-05
4.38129e-06
4.4849e-06
1.61892e-05
2.91496e-05
3.00862e-05
1.6509e-05
4.54174e-06
4.75596e-06
1.7064e-05
2.99037e-05
3.08808e-05
1.72048e-05
4.78448e-06
4.93977e-06
1.77401e-05
3.09629e-05
3.18348e-05
1.81818e-05
5.14157e-06
5.67578e-06
1.91857e-05
3.22599e-05
3.28521e-05
2.00815e-05
5.99204e-06
6.30955e-06
2.12153e-05
3.41882e-05
3.45566e-05
2.1603e-05
6.39385e-06
7.90386e-06
2.32904e-05
3.58393e-05
5.23253e-05
0.000123336
0.000192823
0.000222606
0.000330742
0.000424991
0.00045385
0.000520185
0.000583216
0.000615826
0.000669587
0.000692913
0.000723913
0.000739794
0.000758495
0.000766597
0.00077595
0.000780172
0.000788207
0.000791726
0.000797488
0.000796064
0.000790442
0.000781309
0.000763374
0.000746499
0.000716125
0.000691507
0.000646942
0.000614298
0.000553364
0.000515356
0.000436854
0.000400711
0.000311099
0.0002885
0.000186638
0.000170507
0.00015356
9.7885e-05
6.28086e-05
5.46429e-05
3.1769e-05
1.83921e-05
1.54353e-05
4.50598e-06
8.02558e-07
3.73181e-07
3.48219e-07
7.96439e-07
4.56093e-06
4.21283e-06
7.12519e-07
3.26722e-07
3.19774e-07
7.0683e-07
4.2009e-06
4.29564e-06
7.10825e-07
3.24505e-07
3.22574e-07
7.09797e-07
4.29647e-06
4.28643e-06
6.9375e-07
3.15666e-07
3.02078e-07
7.03962e-07
4.35745e-06
4.51534e-06
7.27163e-07
3.02412e-07
2.99309e-07
7.0714e-07
4.50237e-06
4.65588e-06
7.30542e-07
3.01327e-07
3.0099e-07
7.38887e-07
4.72441e-06
4.86746e-06
7.57714e-07
3.01214e-07
3.01086e-07
7.67252e-07
4.95227e-06
5.09651e-06
7.86035e-07
3.01134e-07
3.0082e-07
7.9766e-07
5.20277e-06
5.35892e-06
8.17138e-07
3.00784e-07
3.00325e-07
8.3187e-07
5.50056e-06
5.68696e-06
8.53935e-07
3.00215e-07
2.99697e-07
8.7355e-07
5.88548e-06
6.13138e-06
9.01019e-07
2.9959e-07
2.99106e-07
9.28788e-07
6.4187e-06
6.76771e-06
9.66224e-07
2.99085e-07
2.98801e-07
1.00735e-06
7.18965e-06
7.70397e-06
1.06196e-06
2.99051e-07
2.99126e-07
1.12458e-06
8.3229e-06
9.07258e-06
1.20723e-06
2.99913e-07
3.00723e-07
1.30274e-06
9.94589e-06
1.09809e-05
1.42702e-06
3.02474e-07
3.04571e-07
1.56806e-06
1.21309e-05
1.34501e-05
1.74666e-06
3.07835e-07
3.11774e-07
1.94152e-06
1.48341e-05
1.63633e-05
2.18064e-06
3.171e-07
3.23311e-07
2.42735e-06
1.78133e-05
1.93551e-05
2.71947e-06
3.31097e-07
3.39751e-07
3.00033e-06
2.07769e-05
2.22718e-05
3.32484e-06
3.50037e-07
3.60931e-07
3.61382e-06
2.35615e-05
2.49191e-05
3.94675e-06
3.73461e-07
3.86147e-07
4.21938e-06
2.6003e-05
2.71719e-05
4.54037e-06
4.00414e-07
4.14268e-07
4.77937e-06
2.80224e-05
2.89922e-05
5.07723e-06
4.29699e-07
4.44135e-07
5.27681e-06
2.96316e-05
3.04339e-05
5.54976e-06
4.60227e-07
4.74846e-07
5.71353e-06
3.09117e-05
3.15865e-05
5.967e-06
4.91337e-07
5.05976e-07
6.10419e-06
3.19468e-05
3.2524e-05
6.34634e-06
5.2274e-07
5.37375e-07
6.46588e-06
3.27969e-05
3.33026e-05
6.70183e-06
5.54435e-07
5.69149e-07
6.8108e-06
3.35321e-05
3.40172e-05
7.04533e-06
5.86556e-07
6.01503e-07
7.15069e-06
3.42358e-05
3.47284e-05
7.3896e-06
6.19445e-07
6.34838e-07
7.49723e-06
3.49576e-05
3.54759e-05
7.74364e-06
6.53467e-07
6.6949e-07
7.85749e-06
3.57307e-05
3.62872e-05
8.11533e-06
6.88995e-07
7.05798e-07
8.23848e-06
3.65717e-05
3.71596e-05
8.50745e-06
7.26229e-07
7.43772e-07
8.63643e-06
3.74569e-05
3.80538e-05
8.90916e-06
7.64985e-07
7.831e-07
9.03691e-06
3.82946e-05
3.88811e-05
9.31504e-06
8.05078e-07
8.23942e-07
9.45072e-06
3.91347e-05
3.974e-05
9.73752e-06
8.46802e-07
8.66311e-07
9.87671e-06
4.00094e-05
4.06198e-05
1.0169e-05
8.89906e-07
9.09907e-07
1.03102e-05
4.09017e-05
4.15039e-05
1.06019e-05
9.33958e-07
9.54205e-07
1.07405e-05
4.17927e-05
4.23856e-05
1.10279e-05
9.78484e-07
9.98813e-07
1.11639e-05
4.26728e-05
4.32644e-05
1.14467e-05
1.02316e-06
1.04352e-06
1.15807e-05
4.35497e-05
4.41526e-05
1.1862e-05
1.06793e-06
1.08829e-06
1.19955e-05
4.44445e-05
4.50604e-05
1.2275e-05
1.11268e-06
1.13298e-06
1.24066e-05
4.53578e-05
4.59841e-05
1.26848e-05
1.15736e-06
1.17754e-06
1.2815e-05
4.62862e-05
4.692e-05
1.30909e-05
1.20182e-06
1.22184e-06
1.32188e-05
4.72253e-05
4.78674e-05
1.34931e-05
1.24602e-06
1.26584e-06
1.36193e-05
4.81769e-05
4.88264e-05
1.38914e-05
1.28983e-06
1.30942e-06
1.40153e-05
4.91389e-05
4.97947e-05
1.42855e-05
1.33324e-06
1.35255e-06
1.44076e-05
5.011e-05
5.07706e-05
1.46752e-05
1.37611e-06
1.39513e-06
1.47955e-05
5.10878e-05
5.17538e-05
1.50605e-05
1.41846e-06
1.43718e-06
1.51799e-05
5.20736e-05
5.27432e-05
1.54417e-05
1.4602e-06
1.47863e-06
1.55597e-05
5.30644e-05
5.37381e-05
1.58187e-05
1.50138e-06
1.51951e-06
1.59363e-05
5.40611e-05
5.47372e-05
1.61921e-05
1.54192e-06
1.55975e-06
1.63083e-05
5.50609e-05
5.57401e-05
1.65617e-05
1.58189e-06
1.59944e-06
1.66774e-05
5.60652e-05
5.6746e-05
1.6928e-05
1.62124e-06
1.6385e-06
1.70422e-05
5.70713e-05
5.77544e-05
1.72911e-05
1.66007e-06
1.67707e-06
1.74049e-05
5.80806e-05
5.8764e-05
1.76521e-05
1.69837e-06
1.71514e-06
1.77648e-05
5.90895e-05
5.97731e-05
1.80118e-05
1.73629e-06
1.75286e-06
1.81247e-05
6.00983e-05
6.07782e-05
1.83715e-05
1.77379e-06
1.79014e-06
1.84838e-05
6.11003e-05
6.17739e-05
1.87318e-05
1.81093e-06
1.82701e-06
1.88447e-05
6.20922e-05
6.27566e-05
1.90939e-05
1.84751e-06
1.86321e-06
1.92063e-05
6.30655e-05
6.37124e-05
1.94574e-05
1.88334e-06
1.89842e-06
1.95699e-05
6.4007e-05
6.4623e-05
1.98194e-05
1.91772e-06
1.93177e-06
1.99291e-05
6.48906e-05
6.54546e-05
2.01694e-05
1.94964e-06
1.96194e-06
2.02722e-05
6.56843e-05
6.61639e-05
2.04876e-05
1.97729e-06
1.98695e-06
2.05726e-05
6.63342e-05
6.66881e-05
2.07379e-05
1.99851e-06
2.00476e-06
2.07898e-05
6.67748e-05
6.6956e-05
2.08605e-05
2.01009e-06
2.01179e-06
2.08498e-05
6.69285e-05
6.69421e-05
2.08144e-05
2.01199e-06
2.00894e-06
2.06937e-05
6.6726e-05
6.66202e-05
2.05141e-05
2.00377e-06
1.99712e-06
2.02248e-05
6.61705e-05
6.59599e-05
1.99112e-05
1.99196e-06
1.98929e-06
1.94682e-05
6.54087e-05
6.51606e-05
1.9053e-05
1.99311e-06
2.00493e-06
1.85367e-05
6.47264e-05
6.45684e-05
1.81235e-05
2.03451e-06
2.08443e-06
1.77161e-05
6.44947e-05
6.47941e-05
1.7523e-05
2.16769e-06
2.27401e-06
1.74356e-05
6.52578e-05
6.64274e-05
1.77608e-05
2.41463e-06
2.54496e-06
1.79342e-05
6.73029e-05
6.8189e-05
1.74212e-05
2.62903e-06
2.71677e-06
1.70962e-05
6.79578e-05
7.06647e-05
1.68356e-05
2.86329e-06
3.08352e-06
1.77511e-05
7.23808e-05
7.42008e-05
1.74414e-05
3.32297e-06
3.63062e-06
1.85589e-05
7.67255e-05
8.06194e-05
1.89376e-05
3.92584e-06
4.31756e-06
2.06045e-05
8.36053e-05
8.793e-05
2.13919e-05
4.75376e-06
5.17532e-06
2.31978e-05
8.95781e-05
9.49543e-05
2.43465e-05
5.49012e-06
6.01711e-06
2.59867e-05
9.71621e-05
0.000105034
3.24197e-05
6.59531e-06
7.10891e-06
3.54174e-05
0.000107812
0.000108426
4.20354e-05
4.38859e-06
9.11735e-07
5.98112e-06
2.19796e-05
6.86538e-05
1.44177e-05
1.56906e-06
1.58471e-06
1.23043e-05
5.76412e-05
5.69754e-05
1.15394e-05
1.63339e-06
1.81773e-06
1.2015e-05
6.08449e-05
5.9149e-05
1.18175e-05
2.02532e-06
2.25005e-06
1.27921e-05
6.43313e-05
6.35999e-05
1.25257e-05
2.59011e-06
2.97826e-06
1.5158e-05
7.29401e-05
7.05313e-05
1.45581e-05
3.37387e-06
3.99213e-06
1.79405e-05
8.01335e-05
8.08097e-05
1.88054e-05
4.54622e-06
5.23553e-06
2.34512e-05
9.21674e-05
9.62605e-05
2.79942e-05
6.1123e-06
4.01314e-06
3.80061e-05
0.000105046
2.00394e-05
5.05107e-06
1.17498e-06
2.17669e-06
1.55883e-05
7.56989e-05
7.05616e-05
1.37005e-05
2.66674e-06
3.30737e-06
1.85422e-05
9.16008e-05
9.20046e-05
1.93899e-05
3.72267e-06
4.28001e-06
2.22979e-05
0.000106182
0.000110322
2.47796e-05
4.9668e-06
5.61197e-06
2.97947e-05
0.00012191
0.000128762
3.21117e-05
6.35719e-06
7.19033e-06
4.23769e-05
0.000138815
0.00013536
4.68636e-05
4.60476e-06
1.32039e-06
5.99634e-06
2.5055e-05
9.22388e-05
1.84817e-05
2.31478e-06
2.58622e-06
1.53981e-05
8.21786e-05
9.03057e-05
1.63755e-05
3.14504e-06
3.77646e-06
2.14223e-05
0.000103145
0.000103984
2.22014e-05
4.34451e-06
5.27023e-06
2.89383e-05
0.000121433
0.000128025
3.60801e-05
6.42066e-06
4.3844e-06
4.8945e-05
0.000136824
2.65436e-05
5.82354e-06
1.36659e-06
2.66072e-06
1.93017e-05
0.000107633
0.000106987
2.00822e-05
3.50807e-06
4.46913e-06
2.88624e-05
0.000143556
0.000151926
3.43903e-05
5.3716e-06
6.50771e-06
4.24214e-05
0.000173265
0.000184074
5.30209e-05
7.76016e-06
5.32217e-06
6.22125e-05
0.000178903
3.72888e-05
7.44911e-06
1.60131e-06
2.95463e-06
2.67853e-05
0.000135671
0.000134838
2.63662e-05
3.76541e-06
4.8172e-06
3.72417e-05
0.000161853
0.000164817
4.23943e-05
6.03707e-06
4.50076e-06
5.99254e-05
0.000177025
3.81152e-05
6.71146e-06
1.27835e-06
2.64185e-06
2.66231e-05
0.000146231
0.000150311
2.93462e-05
3.6388e-06
4.84692e-06
4.56117e-05
0.000205722
0.000217693
5.14713e-05
6.07512e-06
8.05638e-06
7.2385e-05
0.000251889
0.000240183
8.26196e-05
5.80057e-06
1.54405e-06
1.00675e-05
5.74967e-05
0.000194109
4.02169e-05
3.10739e-06
4.3462e-06
4.09681e-05
0.000194802
0.000249243
6.83405e-05
6.58882e-06
4.97582e-06
8.03981e-05
0.000251109
6.62507e-05
1.09563e-05
1.39801e-06
3.38735e-06
5.01783e-05
0.000234363
0.000267379
6.62764e-05
5.26817e-06
7.91807e-06
9.73674e-05
0.000348963
0.000334436
0.000109253
6.07348e-06
1.56553e-06
1.77397e-05
0.000100796
0.000306334
7.72941e-05
4.10733e-06
6.18401e-06
9.07538e-05
0.000340609
0.000346932
0.000106058
5.07009e-06
1.22236e-06
2.04998e-05
0.000118703
0.000351234
9.0045e-05
4.23637e-06
7.49068e-06
0.000124019
0.000443301
0.000459659
0.000142004
6.39377e-06
1.38181e-06
3.86497e-05
0.0002023
0.000446457
0.000126954
5.62542e-06
4.75022e-06
0.000127681
0.000444946
0.000266499
6.16629e-05
1.34106e-06
6.06439e-06
0.000146295
0.000498265
0.000446831
0.000123231
4.07173e-06
3.61839e-06
0.000112388
0.00040435
0.000698854
0.000230377
1.45687e-05
6.50045e-06
0.000101009
0.00039369
0.000674957
0.000230642
1.34099e-05
7.86829e-06
7.73908e-05
0.000285063
0.000727746
0.000275095
1.93044e-05
2.19129e-05
0.000235215
0.000690681
0.00062161
0.000197089
1.73179e-05
1.44653e-05
0.000163926
0.000528067
0.000549035
0.000169746
1.43721e-05
1.63323e-05
0.00019328
0.000626145
0.00101839
0.000537334
2.48753e-05
1.78897e-05
6.60765e-05
0.000202953
0.000422902
0.000209025
1.81802e-05
1.56465e-05
5.04619e-05
0.000123964
0.000262426
0.000145886
1.62836e-05
1.4615e-05
4.05096e-05
9.51245e-05
0.000197341
0.000108951
1.51769e-05
1.38753e-05
3.91989e-05
8.51803e-05
0.00017004
0.00010145
1.42273e-05
1.38281e-05
3.57667e-05
7.90704e-05
0.000165006
8.38021e-05
1.43715e-05
1.57495e-05
6.55412e-05
0.000135216
4.8875e-05
2.22436e-05
1.09043e-05
1.09963e-05
5.61235e-05
0.000111112
9.60716e-05
4.85776e-05
1.27879e-05
9.28638e-06
1.52371e-05
3.44557e-05
7.80155e-05
5.21783e-05
8.9338e-06
1.03426e-05
1.88902e-05
3.97397e-05
9.23482e-05
4.66432e-05
9.88025e-06
1.21278e-05
3.97166e-05
7.81086e-05
3.23207e-05
1.56897e-05
9.40545e-06
9.06804e-06
3.96994e-05
7.24398e-05
6.42243e-05
3.48386e-05
1.11926e-05
8.69995e-06
1.32675e-05
2.73855e-05
6.06564e-05
3.2417e-05
8.13358e-06
1.0664e-05
2.97446e-05
5.52822e-05
2.42592e-05
1.2347e-05
8.55891e-06
7.70785e-06
2.95025e-05
5.29265e-05
4.90694e-05
2.73274e-05
9.99722e-06
8.28654e-06
1.13824e-05
2.17557e-05
4.54617e-05
2.60245e-05
7.49729e-06
9.79003e-06
2.45778e-05
4.3596e-05
1.97834e-05
1.06201e-05
8.04129e-06
7.18715e-06
2.42934e-05
4.2321e-05
4.06035e-05
2.32999e-05
9.50244e-06
8.01828e-06
1.02492e-05
1.87909e-05
4.01509e-05
2.38935e-05
7.20209e-06
9.85873e-06
2.05324e-05
3.68513e-05
3.27893e-05
1.87744e-05
8.72861e-06
6.39761e-06
7.82738e-06
1.46174e-05
2.93958e-05
1.69111e-05
6.10136e-06
8.47371e-06
1.6772e-05
2.92992e-05
1.34642e-05
7.96781e-06
6.68508e-06
6.05796e-06
1.63362e-05
2.76324e-05
2.72157e-05
1.58656e-05
8.30591e-06
6.55651e-06
7.8683e-06
1.28534e-05
2.57488e-05
1.55768e-05
5.99617e-06
8.25265e-06
1.52319e-05
2.52663e-05
1.21415e-05
7.57982e-06
6.36197e-06
5.92269e-06
1.49404e-05
2.49196e-05
2.43957e-05
1.43799e-05
8.20937e-06
6.58269e-06
7.77713e-06
1.18213e-05
2.34452e-05
1.45693e-05
5.95625e-06
8.18897e-06
1.38429e-05
2.27189e-05
1.13079e-05
7.69854e-06
6.59763e-06
5.95907e-06
1.43782e-05
2.32019e-05
2.19639e-05
1.36629e-05
8.20368e-06
6.56865e-06
7.76655e-06
1.10556e-05
2.20683e-05
1.3874e-05
5.96217e-06
8.22753e-06
1.30945e-05
2.08485e-05
1.08985e-05
7.80901e-06
6.6424e-06
5.91555e-06
1.39165e-05
2.20377e-05
2.06989e-05
1.32745e-05
8.16564e-06
6.60583e-06
7.91352e-06
1.07835e-05
2.11439e-05
1.3562e-05
6.01148e-06
8.18171e-06
1.28203e-05
1.94882e-05
1.04337e-05
7.77417e-06
6.61691e-06
5.91265e-06
1.34083e-05
2.09033e-05
1.91637e-05
1.26143e-05
8.08777e-06
6.62951e-06
7.85448e-06
1.02966e-05
2.00832e-05
1.3097e-05
5.95099e-06
8.20535e-06
1.20656e-05
1.84052e-05
1.00225e-05
7.93991e-06
6.75436e-06
6.00836e-06
1.30079e-05
1.9781e-05
1.79682e-05
1.1979e-05
8.26334e-06
6.71131e-06
7.96509e-06
9.91515e-06
1.90957e-05
1.26553e-05
5.89111e-06
8.06289e-06
1.17149e-05
1.74478e-05
9.4689e-06
7.68891e-06
6.48089e-06
5.88217e-06
1.21063e-05
1.86652e-05
1.6979e-05
1.13474e-05
8.155e-06
6.62711e-06
7.7519e-06
9.31578e-06
1.78052e-05
1.18197e-05
5.85029e-06
8.10435e-06
1.09784e-05
1.62443e-05
8.97116e-06
7.55625e-06
6.32138e-06
5.77664e-06
1.15709e-05
1.73626e-05
1.58283e-05
1.07721e-05
7.98876e-06
6.44532e-06
7.54314e-06
8.83983e-06
1.66309e-05
1.11589e-05
5.77753e-06
7.94628e-06
1.04427e-05
1.53076e-05
8.37193e-06
7.29422e-06
6.11266e-06
5.67899e-06
1.0735e-05
1.58987e-05
1.45169e-05
1.00144e-05
7.91709e-06
5.69429e-06
6.82314e-06
8.06753e-06
1.28216e-05
1.13136e-05
5.16036e-06
7.02566e-06
6.92913e-06
8.3359e-06
1.64946e-05
1.0712e-05
5.93709e-06
8.08875e-06
1.01621e-05
1.4937e-05
8.64704e-06
7.935e-06
6.76422e-06
5.97284e-06
1.11181e-05
1.60202e-05
1.47269e-05
1.04265e-05
8.1281e-06
6.44297e-06
7.62736e-06
8.4616e-06
1.54233e-05
1.05332e-05
5.75654e-06
8.00811e-06
9.97636e-06
1.43168e-05
8.17434e-06
7.42143e-06
6.28196e-06
5.70594e-06
1.02731e-05
1.49637e-05
1.37858e-05
9.64598e-06
7.89256e-06
5.83374e-06
6.85583e-06
7.74888e-06
1.24694e-05
1.05936e-05
5.22061e-06
7.26893e-06
7.18955e-06
8.28637e-06
1.61876e-05
1.06866e-05
6.10891e-06
8.26634e-06
1.01803e-05
1.46444e-05
8.73242e-06
8.28913e-06
7.19679e-06
5.99798e-06
1.12068e-05
1.59343e-05
1.48364e-05
1.05409e-05
8.15645e-06
6.64694e-06
7.84711e-06
8.52242e-06
1.53216e-05
1.07152e-05
5.82339e-06
8.03709e-06
1.00102e-05
1.40042e-05
8.03695e-06
7.2501e-06
6.08213e-06
5.40411e-06
1.11353e-05
1.24995e-05
8.3263e-06
7.43779e-06
7.34646e-06
6.06802e-06
1.05186e-05
1.56983e-05
1.4161e-05
1.01395e-05
8.28302e-06
6.85979e-06
8.09916e-06
8.44343e-06
1.46335e-05
1.0472e-05
5.82543e-06
8.09537e-06
9.95939e-06
1.34989e-05
7.94261e-06
7.37018e-06
6.18106e-06
5.4273e-06
1.08339e-05
1.21568e-05
8.23255e-06
7.50789e-06
7.42e-06
6.22229e-06
1.03973e-05
1.53997e-05
1.39538e-05
1.00943e-05
8.44688e-06
7.14281e-06
8.37188e-06
8.51831e-06
1.47054e-05
1.0625e-05
5.97043e-06
8.23892e-06
1.00279e-05
1.35859e-05
8.04725e-06
7.61381e-06
6.54196e-06
5.54944e-06
1.1102e-05
1.24977e-05
8.50696e-06
7.73685e-06
7.53079e-06
6.15285e-06
1.05591e-05
1.53062e-05
1.37635e-05
1.00575e-05
8.34483e-06
6.82059e-06
7.94822e-06
8.35059e-06
1.23936e-05
1.13953e-05
5.51857e-06
7.69306e-06
8.3074e-06
8.69225e-06
1.57232e-05
1.07233e-05
6.34374e-06
8.5938e-06
1.03295e-05
1.40859e-05
8.74962e-06
8.53749e-06
7.15076e-06
5.8523e-06
1.19134e-05
1.311e-05
9.25997e-06
8.68394e-06
7.92404e-06
6.52789e-06
1.11977e-05
1.61662e-05
1.46981e-05
1.09942e-05
8.82203e-06
7.30774e-06
9.24031e-06
9.26903e-06
1.51639e-05
1.12294e-05
6.15107e-06
8.46976e-06
1.06327e-05
1.41214e-05
8.60477e-06
8.18575e-06
7.01971e-06
5.74908e-06
1.15958e-05
1.27443e-05
8.96862e-06
8.31847e-06
7.77415e-06
6.49202e-06
1.0656e-05
1.54272e-05
1.39469e-05
1.03149e-05
8.71072e-06
7.19542e-06
8.55215e-06
8.75668e-06
1.26894e-05
1.18797e-05
5.78792e-06
7.88019e-06
8.66998e-06
9.06042e-06
1.54251e-05
1.0798e-05
6.55217e-06
8.73965e-06
1.04691e-05
1.39351e-05
8.80992e-06
8.53976e-06
7.12997e-06
5.74817e-06
1.1973e-05
1.29292e-05
9.1497e-06
8.59876e-06
7.86018e-06
6.49602e-06
1.07287e-05
1.53829e-05
1.39195e-05
1.04622e-05
8.78083e-06
7.26521e-06
8.87148e-06
8.93187e-06
1.2668e-05
1.20727e-05
5.8991e-06
7.97821e-06
9.12421e-06
9.25051e-06
1.54032e-05
1.07869e-05
6.55329e-06
8.81983e-06
1.06013e-05
1.39867e-05
9.00559e-06
8.94638e-06
7.28866e-06
6.00186e-06
1.20215e-05
1.29697e-05
9.33216e-06
8.85661e-06
8.05185e-06
6.52805e-06
1.10624e-05
1.54069e-05
1.39185e-05
1.07862e-05
8.82856e-06
7.31009e-06
9.0748e-06
9.17419e-06
1.2594e-05
1.21581e-05
5.85047e-06
7.90833e-06
9.61657e-06
9.60884e-06
1.40976e-05
1.10175e-05
6.06528e-06
8.29636e-06
9.98806e-06
1.02884e-05
1.64826e-05
1.14309e-05
6.71471e-06
9.03554e-06
1.14383e-05
1.49997e-05
9.90026e-06
9.91068e-06
7.48341e-06
6.13858e-06
1.31531e-05
1.37204e-05
1.02075e-05
1.01313e-05
8.35953e-06
6.8642e-06
1.1794e-05
1.64806e-05
1.49246e-05
1.16098e-05
9.24984e-06
7.59927e-06
9.89991e-06
1.00704e-05
1.34869e-05
1.31398e-05
6.03228e-06
8.17813e-06
1.03439e-05
1.04267e-05
1.49009e-05
1.16788e-05
6.39345e-06
8.59737e-06
1.07364e-05
1.1003e-05
1.73042e-05
1.20735e-05
6.99394e-06
9.25879e-06