/*--------------------------------*- C++ -*----------------------------------*\
| =========                 |                                                 |
| \\      /  F ield         | OpenFOAM: The Open Source CFD Toolbox           |
|  \\    /   O peration     | Version:  v2006                                 |
|   \\  /    A nd           | Website:  www.openfoam.com                      |
|    \\/     M anipulation  |                                                 |
\*---------------------------------------------------------------------------*/
FoamFile
{
    version     2.0;
    format      ascii;
    class       volScalarField;
    location    "0.012";
    object      T;
}
// * * * * * * * * * * * * * * * * * * * * * * * * * * * * * * * * * * * * * //

dimensions      [0 0 0 1 0 0 0];


internalField   nonuniform List<scalar> 
41981
(
298.465
298.465
298.465
298.465
298.465
298.465
298.465
298.465
298.466
298.466
298.466
298.467
298.468
298.469
298.471
298.472
298.475
298.477
298.479
298.482
298.484
298.487
298.49
298.493
298.496
298.499
298.502
298.505
298.508
298.512
298.515
298.518
298.522
298.526
298.529
298.533
298.537
298.541
298.545
298.549
298.553
298.558
298.562
298.566
298.571
298.575
298.58
298.585
298.589
298.594
298.599
298.604
298.609
298.614
298.619
298.624
298.629
298.634
298.64
298.645
298.65
298.656
298.661
298.666
298.672
298.677
298.683
298.688
298.694
298.699
298.705
298.711
298.716
298.722
298.728
298.733
298.739
298.744
298.75
298.756
298.761
298.767
298.773
298.778
298.784
298.789
298.795
298.801
298.806
298.812
298.817
298.823
298.828
298.833
298.839
298.844
298.85
298.855
298.86
298.865
298.87
298.875
298.88
298.885
298.89
298.895
298.9
298.905
298.91
298.914
298.919
298.924
298.928
298.932
298.937
298.941
298.945
298.949
298.953
298.957
298.961
298.965
298.969
298.973
298.976
298.98
298.983
298.987
298.99
298.993
298.996
298.999
299.002
299.005
299.008
299.011
299.013
299.016
299.018
299.021
299.023
299.025
299.027
299.027
299.027
299.027
299.027
299.026
299.026
299.025
299.025
299.025
299.026
299.026
299.027
299.03
299.034
299.039
299.048
299.057
299.096
299.107
299.059
299.045
299.047
299.065
299.126
299.146
299.072
299.049
299.053
299.08
299.16
299.172
299.088
299.057
299.064
299.096
299.18
299.186
299.102
299.067
299.074
299.11
299.191
299.193
299.115
299.079
299.085
299.121
299.197
299.199
299.127
299.09
299.096
299.131
299.202
299.204
299.137
299.101
299.106
299.141
299.206
299.209
299.148
299.112
299.117
299.151
299.211
299.214
299.157
299.124
299.128
299.161
299.216
299.219
299.167
299.134
299.138
299.171
299.221
299.224
299.177
299.145
299.149
299.18
299.226
299.229
299.186
299.156
299.16
299.189
299.231
299.235
299.196
299.167
299.171
299.199
299.238
299.243
299.206
299.178
299.182
299.209
299.247
299.253
299.217
299.19
299.194
299.221
299.256
299.262
299.229
299.202
299.206
299.233
299.266
299.272
299.241
299.215
299.219
299.244
299.275
299.281
299.252
299.228
299.231
299.256
299.284
299.289
299.263
299.24
299.244
299.266
299.292
299.296
299.274
299.252
299.255
299.276
299.299
299.303
299.283
299.263
299.266
299.286
299.306
299.31
299.292
299.273
299.276
299.294
299.312
299.317
299.301
299.283
299.286
299.303
299.319
299.324
299.309
299.293
299.295
299.311
299.326
299.331
299.318
299.302
299.305
299.32
299.333
299.338
299.326
299.312
299.314
299.328
299.341
299.346
299.335
299.321
299.324
299.337
299.349
299.354
299.344
299.331
299.334
299.346
299.357
299.363
299.353
299.341
299.344
299.356
299.366
299.371
299.363
299.351
299.354
299.365
299.374
299.38
299.373
299.362
299.364
299.375
299.383
299.389
299.383
299.372
299.375
299.385
299.392
299.399
299.393
299.383
299.386
299.395
299.402
299.409
299.403
299.394
299.397
299.406
299.412
299.419
299.414
299.405
299.408
299.416
299.422
299.43
299.425
299.416
299.419
299.427
299.433
299.441
299.436
299.428
299.431
299.439
299.444
299.452
299.447
299.439
299.442
299.45
299.455
299.463
299.459
299.451
299.454
299.462
299.466
299.474
299.471
299.464
299.467
299.473
299.477
299.484
299.482
299.476
299.479
299.485
299.488
299.495
299.494
299.488
299.491
299.496
299.498
299.504
299.505
299.5
299.503
299.507
299.507
299.513
299.515
299.512
299.515
299.518
299.516
299.522
299.526
299.524
299.526
299.528
299.524
299.53
299.535
299.535
299.537
299.537
299.532
299.538
299.545
299.545
299.547
299.547
299.54
299.545
299.554
299.555
299.557
299.555
299.548
299.553
299.562
299.565
299.567
299.564
299.555
299.561
299.57
299.574
299.576
299.572
299.563
299.568
299.579
299.583
299.585
299.58
299.571
299.577
299.587
299.592
299.594
299.589
299.579
299.586
299.596
299.601
299.603
299.598
299.588
299.595
299.605
299.61
299.612
299.607
299.598
299.605
299.614
299.62
299.621
299.616
299.608
299.615
299.624
299.629
299.631
299.626
299.618
299.625
299.634
299.639
299.641
299.636
299.629
299.636
299.645
299.649
299.652
299.647
299.64
299.647
299.655
299.66
299.662
299.658
299.651
299.658
299.666
299.671
299.674
299.669
299.662
299.669
299.678
299.683
299.685
299.68
299.673
299.68
299.689
299.694
299.697
299.692
299.684
299.691
299.701
299.706
299.709
299.703
299.695
299.702
299.712
299.718
299.72
299.714
299.705
299.712
299.723
299.73
299.732
299.725
299.715
299.723
299.734
299.741
299.743
299.736
299.726
299.733
299.744
299.752
299.755
299.747
299.736
299.742
299.755
299.764
299.766
299.757
299.745
299.752
299.765
299.775
299.777
299.767
299.755
299.762
299.775
299.786
299.788
299.777
299.765
299.771
299.785
299.796
299.798
299.787
299.774
299.781
299.795
299.807
299.809
299.797
299.783
299.79
299.805
299.817
299.819
299.807
299.793
299.799
299.814
299.827
299.829
299.816
299.802
299.809
299.824
299.837
299.839
299.825
299.811
299.818
299.833
299.847
299.848
299.835
299.821
299.828
299.842
299.856
299.858
299.844
299.83
299.837
299.851
299.866
299.867
299.853
299.84
299.847
299.861
299.875
299.876
299.863
299.849
299.856
299.87
299.884
299.886
299.872
299.859
299.865
299.879
299.893
299.895
299.881
299.868
299.874
299.888
299.902
299.904
299.889
299.877
299.883
299.896
299.911
299.912
299.898
299.885
299.891
299.904
299.919
299.92
299.906
299.892
299.898
299.912
299.927
299.928
299.913
299.899
299.903
299.918
299.934
299.935
299.919
299.904
299.908
299.923
299.94
299.94
299.923
299.908
299.91
299.927
299.945
299.944
299.927
299.91
299.91
299.929
299.948
299.947
299.928
299.911
299.913
299.929
299.949
299.948
299.93
299.921
299.931
299.934
299.95
299.952
299.943
299.958
299.98
299.952
299.956
299.966
299.975
300.032
300.065
299.992
299.975
299.995
300.033
300.141
300.184
300.058
300.009
300.044
300.119
300.281
300.331
300.151
300.065
300.115
300.229
300.443
300.496
300.266
300.141
300.205
300.357
300.617
300.669
300.397
300.235
300.311
300.497
300.793
300.843
300.538
300.344
300.429
300.644
300.966
301.013
300.686
300.465
300.559
300.796
301.131
301.173
300.837
300.596
300.696
300.946
301.283
301.321
300.984
300.732
300.832
301.09
301.424
301.461
301.127
300.868
300.971
301.233
301.554
301.589
301.274
301.009
301.119
301.382
301.663
301.688
301.427
301.164
301.282
301.532
301.729
301.733
301.581
301.341
301.464
301.656
301.736
301.714
301.682
301.534
301.618
301.697
301.693
301.65
301.683
301.647
301.657
301.66
301.621
301.571
301.615
301.642
301.611
301.581
301.541
301.493
301.528
301.561
301.517
301.494
301.464
301.418
301.441
301.461
301.418
301.409
301.392
301.351
301.358
301.362
301.323
301.33
301.329
301.292
301.283
301.271
301.238
301.26
301.273
301.242
301.218
301.19
301.163
301.198
301.226
301.199
301.16
301.12
301.098
301.144
301.185
301.161
301.11
301.059
301.04
301.096
301.15
301.129
301.066
301.005
300.989
301.054
301.119
301.101
301.027
300.956
300.943
301.016
301.093
301.077
300.991
300.913
300.901
300.983
301.07
301.056
300.96
300.873
300.863
300.952
301.05
301.039
300.932
300.837
300.828
300.926
301.035
301.025
300.907
300.804
300.797
300.903
301.022
301.014
300.886
300.774
300.768
300.883
301.013
301.007
300.868
300.748
300.743
300.866
301.006
301.002
300.854
300.724
300.721
300.853
301.002
300.999
300.842
300.704
300.702
300.842
301.001
300.999
300.833
300.687
300.686
300.835
301.001
301
300.828
300.672
300.673
300.83
301.004
301.004
300.824
300.66
300.661
300.827
301.008
301.009
300.823
300.65
300.652
300.827
301.014
301.015
300.823
300.642
300.644
300.829
301.021
301.022
300.826
300.635
300.638
300.833
301.029
301.031
300.83
300.63
300.634
300.839
301.038
301.04
300.837
300.627
300.632
300.846
301.047
301.049
300.845
300.627
300.633
300.855
301.056
301.058
300.854
300.628
300.636
300.865
301.065
301.067
300.864
300.631
300.64
300.877
301.074
301.077
300.876
300.636
300.647
300.888
301.083
301.086
300.887
300.643
300.655
300.9
301.092
301.094
300.9
300.652
300.665
300.912
301.101
301.103
300.912
300.663
300.677
300.924
301.109
301.112
300.924
300.675
300.69
300.936
301.118
301.12
300.936
300.688
300.704
300.948
301.126
301.129
300.948
300.702
300.718
300.96
301.134
301.136
300.96
300.717
300.733
300.972
301.141
301.143
300.972
300.732
300.749
300.984
301.147
301.148
300.984
300.748
300.765
300.995
301.151
301.152
300.995
300.764
300.782
301.006
301.154
301.154
301.006
300.781
300.8
301.016
301.154
301.153
301.016
300.799
300.818
301.025
301.152
301.149
301.025
300.817
300.836
301.032
301.145
301.141
301.031
300.836
300.854
301.037
301.134
301.129
301.035
300.854
300.871
301.039
301.119
301.113
301.037
300.871
300.886
301.037
301.098
301.09
301.032
300.885
300.898
301.03
301.073
301.06
301.023
300.896
300.905
301.02
301.043
301.023
301.007
300.901
300.906
301.001
301.008
300.98
300.984
300.894
300.885
300.975
300.969
300.944
300.958
300.882
300.876
300.95
300.933
300.9
300.932
300.874
300.601
300.403
300.32
300.26
300.065
300.038
300.015
300.009
300.006
300.005
300.005
300.005
300.005
300.005
300.005
300.004
300.003
300.002
300.002
300.002
300.002
300.004
300.006
300.009
300.012
300.015
300.02
300.023
300.028
300.032
300.038
300.042
300.047
300.052
300.06
300.066
300.076
300.08
300.085
300.086
300.087
300.082
300.086
300.092
300.093
300.084
300.078
300.077
300.081
300.083
300.087
300.087
300.084
300.082
300.086
300.088
300.092
300.094
300.09
300.088
300.092
300.094
300.098
300.1
300.096
300.095
300.098
300.1
300.105
300.106
300.102
300.1
300.103
300.105
300.109
300.112
300.108
300.107
300.109
300.11
300.114
300.118
300.114
300.112
300.115
300.116
300.119
300.123
300.119
300.118
300.12
300.122
300.124
300.127
300.124
300.123
300.126
300.127
300.128
300.131
300.13
300.129
300.131
300.132
300.132
300.133
300.134
300.134
300.137
300.137
300.134
300.134
300.139
300.14
300.142
300.141
300.133
300.132
300.142
300.145
300.147
300.144
300.13
300.127
300.145
300.149
300.151
300.145
300.122
300.117
300.146
300.154
300.155
300.145
300.11
300.103
300.144
300.157
300.158
300.142
300.095
300.087
300.14
300.16
300.16
300.137
300.079
300.07
300.134
300.161
300.161
300.13
300.062
300.053
300.125
300.16
300.16
300.121
300.045
300.037
300.115
300.159
300.157
300.11
300.03
300.022
300.104
300.155
300.153
300.098
300.015
300.007
300.092
300.15
300.147
300.086
300
299.992
300.08
300.143
300.139
300.074
299.985
299.977
300.067
300.135
300.131
300.06
299.97
299.961
300.053
300.126
300.121
300.046
299.954
299.945
300.038
300.115
300.109
300.031
299.938
299.928
300.022
300.103
300.097
300.015
299.921
299.911
300.006
300.09
300.083
299.998
299.903
299.893
299.988
300.075
300.067
299.98
299.885
299.875
299.97
300.059
300.05
299.961
299.867
299.857
299.95
300.041
300.032
299.941
299.85
299.84
299.93
300.022
300.013
299.921
299.832
299.823
299.91
300.002
299.992
299.901
299.816
299.806
299.89
299.981
299.971
299.881
299.8
299.791
299.87
299.959
299.949
299.862
299.785
299.777
299.851
299.937
299.927
299.843
299.772
299.765
299.833
299.914
299.905
299.825
299.76
299.753
299.816
299.893
299.883
299.809
299.749
299.743
299.8
299.872
299.863
299.793
299.74
299.735
299.785
299.852
299.843
299.779
299.731
299.727
299.772
299.833
299.825
299.767
299.724
299.72
299.76
299.815
299.808
299.755
299.718
299.715
299.749
299.799
299.792
299.746
299.713
299.711
299.74
299.784
299.779
299.737
299.71
299.708
299.733
299.771
299.766
299.73
299.707
299.706
299.727
299.76
299.756
299.725
299.705
299.705
299.722
299.75
299.747
299.721
299.705
299.705
299.719
299.743
299.74
299.718
299.705
299.705
299.717
299.736
299.735
299.717
299.705
299.706
299.716
299.732
299.731
299.716
299.707
299.708
299.716
299.729
299.729
299.717
299.709
299.71
299.717
299.728
299.728
299.718
299.711
299.712
299.719
299.728
299.728
299.72
299.713
299.715
299.721
299.729
299.73
299.722
299.716
299.718
299.724
299.73
299.732
299.725
299.719
299.72
299.726
299.733
299.734
299.728
299.722
299.723
299.729
299.735
299.737
299.731
299.725
299.726
299.732
299.738
299.74
299.734
299.728
299.729
299.736
299.742
299.743
299.737
299.731
299.733
299.739
299.745
299.746
299.74
299.734
299.736
299.742
299.748
299.749
299.743
299.737
299.739
299.745
299.751
299.752
299.747
299.74
299.742
299.748
299.754
299.755
299.75
299.743
299.745
299.751
299.757
299.758
299.753
299.746
299.748
299.755
299.76
299.761
299.756
299.749
299.751
299.758
299.763
299.764
299.759
299.752
299.753
299.761
299.766
299.767
299.762
299.754
299.755
299.764
299.769
299.77
299.766
299.756
299.757
299.767
299.772
299.773
299.769
299.758
299.758
299.77
299.775
299.776
299.771
299.758
299.759
299.772
299.779
299.783
299.773
299.759
299.76
299.774
299.785
299.789
299.775
299.76
299.762
299.777
299.79
299.796
299.779
299.763
299.765
299.781
299.798
299.803
299.783
299.767
299.769
299.784
299.805
299.809
299.788
299.772
299.774
299.79
299.812
299.814
299.791
299.776
299.779
299.793
299.814
299.814
299.796
299.781
299.785
299.8
299.815
299.815
299.802
299.788
299.796
299.806
299.811
299.798
299.796
299.796
299.8
299.809
299.818
299.828
299.813
299.797
299.805
299.821
299.832
299.842
299.826
299.808
299.812
299.83
299.846
299.854
299.835
299.816
299.818
299.837
299.857
299.864
299.841
299.823
299.826
299.844
299.867
299.871
299.848
299.83
299.833
299.85
299.871
299.871
299.853
299.837
299.841
299.855
299.872
299.864
299.857
299.848
299.856
299.861
299.863
299.884
299.868
299.856
299.855
299.872
299.89
299.899
299.877
299.862
299.865
299.88
299.903
299.908
299.885
299.87
299.873
299.888
299.911
299.913
299.891
299.877
299.881
299.894
299.914
299.917
299.899
299.887
299.894
299.902
299.914
299.912
299.909
299.902
299.901
299.914
299.936
299.943
299.919
299.904
299.91
299.925
299.948
299.953
299.929
299.913
299.918
299.932
299.955
299.958
299.937
299.924
299.928
299.939
299.959
299.954
299.94
299.934
299.942
299.949
299.962
299.977
299.956
299.946
299.946
299.958
299.98
299.985
299.964
299.953
299.957
299.967
299.988
299.991
299.972
299.963
299.968
299.977
299.994
299.993
299.98
299.975
299.98
299.987
299.996
300.016
299.995
299.985
299.989
299.998
300.018
300.023
300.005
299.995
300.001
300.009
300.024
300.023
300.013
300.01
300.017
300.022
300.032
300.045
300.027
300.017
300.021
300.027
300.045
300.052
300.036
300.029
300.034
300.04
300.055
300.057
300.045
300.04
300.046
300.049
300.055
300.068
300.057
300.053
300.058
300.063
300.078
300.08
300.068
300.062
300.07
300.073
300.083
300.084
300.078
300.076
300.081
300.084
300.093
300.101
300.09
300.088
300.092
300.095
300.102
300.11
300.102
300.101
300.107
300.109
300.113
300.116
300.111
300.111
300.121
300.122
300.128
300.134
300.128
300.127
300.136
300.137
300.14
300.147
300.139
300.14
300.149
300.15
300.15
300.156
300.155
300.156
300.165
300.163
300.162
300.169
300.168
300.168
300.176
300.175
300.174
300.178
300.18
300.181
300.184
300.183
300.181
300.186
300.187
300.188
300.184
300.184
300.184
300.173
300.176
300.178
300.17
300.168
300.164
300.158
300.152
300.148
300.11
300.093
300.088
300.064
300.062
300.047
300.008
299.993
300.008
299.901
299.845
299.838
299.647
299.647
299.707
299.488
299.387
299.377
299.131
299.109
299.086
299.02
298.956
298.976
298.911
298.883
298.845
299.004
298.94
298.94
298.91
298.924
298.957
299.154
299.047
299.002
299.017
299.016
299.053
299.216
299.144
299.089
299.134
299.182
299.301
299.3
299.22
299.182
299.185
299.248
299.403
299.425
299.323
299.256
299.229
299.274
299.369
299.449
299.351
299.286
299.345
299.422
299.47
299.491
299.378
299.323
299.338
299.402
299.508
299.547
299.486
299.414
299.376
299.433
299.57
299.577
299.495
299.423
299.387
299.431
299.531
299.576
299.475
299.409
299.476
299.547
299.602
299.589
299.488
299.436
299.439
299.5
299.596
299.624
299.565
299.504
299.458
299.511
299.591
299.637
299.534
299.466
299.524
299.596
299.648
299.605
299.523
299.481
299.489
299.551
299.639
299.659
299.608
299.548
299.5
299.543
299.623
299.652
299.568
299.505
299.552
299.617
299.661
299.63
299.553
299.513
299.519
299.576
299.655
299.672
299.626
299.568
299.529
299.571
299.651
299.665
299.582
299.53
299.55
299.616
299.693
299.699
299.66
299.591
299.551
299.591
299.664
299.708
299.622
299.558
299.606
299.667
299.712
299.672
299.598
299.558
299.567
299.629
299.714
299.716
299.674
299.61
299.571
299.609
299.683
299.72
299.642
299.579
299.627
299.687
299.727
299.693
299.622
299.583
299.59
299.652
299.733
299.743
299.702
299.641
299.598
299.637
299.708
299.744
299.669
299.605
299.657
299.711
299.75
299.716
299.646
299.608
299.615
299.677
299.755
299.763
299.723
299.665
299.627
299.665
299.741
299.767
299.693
299.634
299.681
299.736
299.778
299.745
299.672
299.634
299.642
299.702
299.781
299.789
299.746
299.689
299.649
299.684
299.755
299.791
299.715
299.657
299.707
299.757
299.798
299.763
299.691
299.656
299.659
299.715
299.789
299.795
299.753
299.704
299.658
299.691
299.758
299.791
299.719
299.664
299.703
299.752
299.79
299.76
299.693
299.661
299.667
299.721
299.793
299.793
299.755
299.703
299.66
299.692
299.758
299.781
299.715
299.661
299.701
299.744
299.784
299.749
299.685
299.653
299.657
299.71
299.782
299.781
299.743
299.695
299.651
299.685
299.75
299.778
299.711
299.656
299.691
299.74
299.779
299.742
299.676
299.644
299.646
299.697
299.772
299.771
299.731
299.68
299.638
299.67
299.734
299.764
299.696
299.642
299.681
299.725
299.765
299.732
299.667
299.635
299.645
299.702
299.767
299.761
299.725
299.674
299.625
299.657
299.733
299.741
299.691
299.644
299.611
299.641
299.718
299.731
299.666
299.615
299.651
299.7
299.742
299.707
299.639
299.607
299.61
299.664
299.739
299.741
299.701
299.649
299.605
299.641
299.711
299.73
299.663
299.605
299.643
299.692
299.733
299.694
299.624
299.59
299.592
299.652
299.726
299.722
299.68
299.626
299.585
299.619
299.684
299.708
299.655
299.606
299.569
299.6
299.675
299.705
299.63
299.574
299.619
299.67
299.712
299.674
299.601
299.565
299.561
299.62
299.696
299.693
299.651
299.597
299.551
299.583
299.655
299.684
299.611
299.553
299.59
299.64
299.684
299.661
299.573
299.543
299.564
299.613
299.67
299.637
299.561
299.532
299.537
299.595
299.666
299.674
299.635
299.582
299.533
299.568
299.637
299.665
299.596
299.531
299.567
299.618
299.66
299.63
299.546
299.516
299.537
299.584
299.644
299.607
299.531
299.503
299.506
299.565
299.642
299.64
299.598
299.545
299.498
299.532
299.603
299.637
299.561
299.501
299.543
299.597
299.641
299.605
299.532
299.497
299.514
299.566
299.622
299.583
299.504
299.476
299.478
299.54
299.618
299.611
299.566
299.512
299.471
299.503
299.573
299.598
299.541
299.492
299.454
299.483
299.561
299.596
299.519
299.458
299.496
299.547
299.592
299.57
299.482
299.45
299.474
299.524
299.585
299.576
299.475
299.436
299.438
299.495
299.579
299.583
299.534
299.469
299.422
299.458
299.539
299.575
299.488
299.421
299.461
299.519
299.569
299.543
299.443
299.411
299.431
299.485
299.553
299.516
299.426
299.395
299.4
299.466
299.55
299.551
299.499
299.444
299.386
299.422
299.518
299.536
299.47
299.414
299.375
299.409
299.508
299.522
299.443
299.375
299.41
299.473
299.522
299.484
299.396
299.358
299.378
299.434
299.499
299.458
299.37
299.34
299.341
299.408
299.496
299.489
299.437
299.384
299.329
299.362
299.463
299.474
299.406
299.349
299.313
299.345
299.434
299.471
299.385
299.318
299.363
299.422
299.476
299.447
299.347
299.311
299.334
299.392
299.461
299.412
299.322
299.291
299.29
299.364
299.445
299.433
299.383
299.33
299.275
299.307
299.411
299.42
299.349
299.295
299.254
299.286
299.388
299.4
299.332
299.276
299.239
299.272
299.361
299.397
299.314
299.244
299.285
299.346
299.394
299.375
299.269
299.235
299.26
299.317
299.388
299.348
299.255
299.221
299.228
299.303
299.393
299.381
299.328
299.267
299.209
299.244
299.348
299.361
299.284
299.232
299.188
299.222
299.324
299.342
299.268
299.209
299.17
299.201
299.299
299.34
299.243
299.172
299.22
299.28
299.34
299.319
299.199
299.164
299.189
299.248
299.33
299.283
299.181
299.149
299.153
299.227
299.325
299.32
299.264
299.203
299.147
299.184
299.313
299.32
299.238
299.174
299.126
299.162
299.278
299.289
299.211
299.151
299.107
299.141
299.24
299.275
299.183
299.108
299.156
299.218
299.273
299.252
299.135
299.098
299.12
299.184
299.26
299.21
299.114
299.08
299.086
299.164
299.26
299.252
299.196
299.132
299.078
299.113
299.244
299.252
299.166
299.104
299.061
299.103
299.21
299.243
299.163
299.094
299.048
299.092
299.204
299.243
299.144
299.053
299.106
299.178
299.239
299.21
299.079
299.038
299.066
299.133
299.228
299.196
299.054
299.019
299.047
299.111
299.206
299.152
299.037
298.999
299.003
299.09
299.198
299.194
299.129
299.059
298.994
299.033
299.162
299.179
299.086
299.024
298.975
299.012
299.16
299.157
299.069
299.001
298.962
299.001
299.143
299.156
299.063
298.996
298.948
298.99
299.108
299.148
299.044
298.955
299.011
299.085
299.153
299.108
298.981
298.937
298.955
299.03
299.119
299.071
298.958
298.918
298.948
299.012
299.105
299.054
298.935
298.899
298.901
298.987
299.1
299.093
299.025
298.956
298.89
298.935
299.058
299.081
298.989
298.915
298.871
298.906
299.061
299.078
298.972
298.906
298.856
298.894
299.019
299.066
298.956
298.861
298.92
298.995
299.053
299.05
298.901
298.86
298.895
298.966
299.068
299.031
298.875
298.836
298.858
298.936
299.029
299.002
298.857
298.82
298.854
298.921
299.018
298.961
298.842
298.801
298.806
298.902
299.007
298.988
298.929
298.859
298.797
298.835
298.997
298.99
298.889
298.823
298.769
298.812
298.97
298.983
298.876
298.801
298.75
298.79
298.952
298.966
298.86
298.785
298.735
298.78
298.914
298.945
298.833
298.741
298.802
298.887
298.962
298.935
298.79
298.742
298.776
298.854
298.962
298.915
298.765
298.721
298.742
298.828
298.929
298.872
298.742
298.7
298.705
298.803
298.928
298.919
298.845
298.77
298.692
298.74
298.909
298.902
298.8
298.718
298.667
298.71
298.9
298.903
298.783
298.706
298.646
298.692
298.875
298.878
298.766
298.682
298.633
298.677
298.851
298.865
298.753
298.672
298.617
298.664
298.804
298.851
298.728
298.623
298.688
298.773
298.839
298.848
298.667
298.623
298.66
298.736
298.848
298.841
298.647
298.602
298.631
298.723
298.84
298.791
298.634
298.587
298.62
298.703
298.809
298.749
298.611
298.566
298.571
298.677
298.809
298.788
298.716
298.636
298.564
298.605
298.788
298.789
298.672
298.596
298.538
298.584
298.76
298.782
298.657
298.576
298.515
298.56
298.74
298.76
298.639
298.557
298.5
298.547
298.696
298.743
298.613
298.505
298.577
298.663
298.74
298.746
298.552
298.504
298.54
298.621
298.739
298.749
298.531
298.48
298.522
298.611
298.742
298.71
298.508
298.458
298.493
298.585
298.707
298.677
298.485
298.438
298.473
298.568
298.69
298.621
298.471
298.422
298.428
298.543
298.677
298.656
298.577
298.497
298.413
298.463
298.651
298.653
298.531
298.445
298.385
298.433
298.652
298.648
298.514
298.425
298.364
298.413
298.621
298.63
298.499
298.399
298.349
298.402
298.559
298.626
298.483
298.36
298.434
298.523
298.603
298.607
298.398
298.35
298.392
298.478
298.61
298.606
298.383
298.33
298.372
298.465
298.6
298.583
298.361
298.307
298.34
298.444
298.577
298.532
298.336
298.286
298.332
298.42
298.553
298.479
298.315
298.262
298.264
298.387
298.534
298.515
298.433
298.337
298.256
298.308
298.511
298.519
298.385
298.294
298.222
298.273
298.493
298.487
298.353
298.261
298.201
298.254
298.484
298.482
298.34
298.241
298.181
298.237
298.433
298.457
298.323
298.223
298.159
298.214
298.383
298.45
298.292
298.165
298.242
298.342
298.429
298.441
298.212
298.158
298.203
298.3
298.446
298.418
298.188
298.131
298.17
298.267
298.401
298.398
298.156
298.101
298.144
298.249
298.397
298.355
298.134
298.08
298.12
298.226
298.37
298.289
298.114
298.057
298.062
298.191
298.355
298.336
298.246
298.14
298.052
298.108
298.334
298.324
298.185
298.089
298.014
298.069
298.303
298.31
298.16
298.064
297.991
298.052
298.296
298.287
298.138
298.028
297.968
298.025
298.266
298.271
298.119
298.01
297.951
298.011
298.212
298.232
298.097
297.989
297.927
297.984
298.156
298.23
298.063
297.934
298.019
298.12
298.214
298.215
297.98
297.925
297.957
298.057
298.201
298.197
297.942
297.891
297.934
298.033
298.186
298.178
297.93
297.87
297.914
298.022
298.18
298.13
297.901
297.843
297.888
298.001
298.151
298.067
297.886
297.827
297.834
297.973
298.143
298.114
298.018
297.917
297.819
297.874
298.121
298.113
297.961
297.858
297.784
297.839
298.097
298.093
297.933
297.828
297.76
297.823
298.066
298.086
297.922
297.804
297.739
297.807
298.004
298.039
297.9
297.782
297.718
297.779
297.964
298.049
297.868
297.727
297.812
297.923
298.026
298.018
297.774
297.716
297.759
297.868
298.037
297.968
297.752
297.684
297.731
297.853
298.026
297.988
297.731
297.66
297.708
297.826
297.989
297.951
297.694
297.634
297.682
297.803
297.972
297.878
297.678
297.616
297.626
297.777
297.959
297.926
297.823
297.718
297.607
297.669
297.936
297.922
297.759
297.651
297.566
297.629
297.914
297.903
297.731
297.616
297.539
297.603
297.889
297.885
297.709
297.588
297.517
297.58
297.859
297.859
297.686
297.563
297.492
297.554
297.81
297.829
297.659
297.539
297.468
297.53
297.732
297.812
297.623
297.475
297.571
297.687
297.795
297.797
297.531
297.47
297.519
297.629
297.801
297.791
297.502
297.439
297.485
297.603
297.781
297.755
297.477
297.409
297.455
297.592
297.783
297.688
297.464
297.389
297.437
297.562
297.723
297.636
297.427
297.361
297.368
297.519
297.723
297.703
297.586
297.467
297.357
297.421
297.699
297.696
297.519
297.397
297.317
297.387
297.643
297.675
297.49
297.371
297.28
297.345
297.64
297.639
297.456
297.327
297.253
297.318
297.589
297.606
297.429
297.3
297.226
297.292
297.501
297.596
297.395
297.238
297.343
297.463
297.582
297.582
297.293
297.227
297.273
297.391
297.572
297.584
297.261
297.193
297.244
297.374
297.568
297.538
297.23
297.161
297.21
297.351
297.553
297.453
297.215
297.138
297.194
297.323
297.498
297.403
297.175
297.101
297.106
297.267
297.483
297.485
297.342
297.212
297.092
297.172
297.41
297.461
297.274
297.14
297.052
297.126
297.439
297.429
297.234
297.097
297.015
297.084
297.398
297.413
297.203
297.066
296.983
297.06
297.318
297.356
297.168
297.035
296.942
297.014
297.25
297.34
297.11
296.947
297.053
297.195
297.336
297.264
297.038
296.954
297.002
297.139
297.327
297.305
296.989
296.918
296.979
297.113
297.336
297.253
296.957
296.881
296.932
297.08
297.28
297.174
296.925
296.846
296.858
297.042
297.275
297.239
297.102
296.967
296.84
296.91
297.234
297.241
297.024
296.896
296.796
296.869
297.221
297.206
296.989
296.847
296.753
296.826
297.154
297.172
296.951
296.811
296.714
296.796
297.065
297.105
296.915
296.768
296.674
296.752
297.001
297.091
296.863
296.679
296.784
296.918
297.078
296.971
296.741
296.656
296.697
296.838
297.044
296.982
296.688
296.608
296.681
296.817
297.042
296.965
296.67
296.589
296.647
296.795
297.011
296.896
296.626
296.545
296.557
296.744
297.006
296.985
296.824
296.682
296.538
296.626
296.922
296.95
296.74
296.593
296.482
296.566
296.927
296.917
296.689
296.541
296.436
296.52
296.9
296.898
296.654
296.487
296.396
296.487
296.77
296.825
296.614
296.459
296.352
296.436
296.709
296.812
296.554
296.359
296.476
296.622
296.778
296.742
296.414
296.331
296.382
296.527
296.755
296.698
296.336
296.261
296.302
296.457
296.692
296.584
296.294
296.212
296.282
296.422
296.648
296.541
296.262
296.185
296.199
296.386
296.66
296.656
296.477
296.323
296.175
296.268
296.576
296.622
296.386
296.229
296.121
296.215
296.524
296.583
296.347
296.182
296.072
296.156
296.514
296.541
296.299
296.135
296.032
296.118
296.41
296.509
296.239
296.038
296.163
296.318
296.496
296.405
296.104
296.011
296.061
296.216
296.453
296.354
296.04
295.951
296.008
296.17
296.412
296.329
295.969
295.889
295.944
296.103
296.351
296.211
295.911
295.831
295.825
296.04
296.293
296.233
296.055
295.926
295.774
295.845
296.184
296.232
295.976
295.844
295.735
295.817
296.22
296.245
295.967
295.814
295.688
295.775
296.156
296.169
295.921
295.748
295.646
295.743
296.058
296.126
295.838
295.654
295.775
295.953
296.155
296.047
295.733
295.63
295.679
295.855
296.1
296.001
295.658
295.566
295.628
295.801
296.058
295.915
295.595
295.503
295.504
295.712
296.025
296.013
295.803
295.639
295.466
295.567
295.894
295.934
295.685
295.506
295.383
295.477
295.824
295.865
295.602
295.439
295.302
295.395
295.732
295.763
295.516
295.346
295.222
295.299
295.601
295.678
295.384
295.204
295.351
295.506
295.704
295.694
295.31
295.214
295.278
295.453
295.728
295.602
295.253
295.154
295.216
295.398
295.653
295.511
295.187
295.095
295.105
295.333
295.643
295.606
295.389
295.229
295.067
295.175
295.501
295.568
295.304
295.125
294.989
295.087
295.461
295.501
295.227
295.044
294.906
295.003
295.343
295.459
295.126
294.91
295.055
295.228
295.462
295.301
294.975
294.863
294.903
295.092
295.358
295.256
294.86
294.771
294.809
294.988
295.281
295.118
294.76
294.691
294.656
294.899
295.189
295.13
294.88
294.757
294.6
294.715
295.03
295.185
294.879
294.704
294.561
294.659
295.11
295.158
294.84
294.659
294.489
294.602
294.98
295.073
294.725
294.488
294.642
294.86
295.088
294.938
294.6
294.466
294.522
294.738
295.011
294.863
294.495
294.384
294.447
294.642
294.928
294.77
294.409
294.311
294.307
294.533
294.894
294.888
294.634
294.449
294.238
294.36
294.71
294.764
294.484
294.277
294.144
294.234
294.6
294.712
294.34
294.108
294.251
294.438
294.712
294.513
294.138
294.021
294.035
294.226
294.558
294.429
293.987
293.874
293.981
294.152
294.497
294.341
293.957