/*--------------------------------*- C++ -*----------------------------------*\
| =========                 |                                                 |
| \\      /  F ield         | OpenFOAM: The Open Source CFD Toolbox           |
|  \\    /   O peration     | Version:  v2006                                 |
|   \\  /    A nd           | Website:  www.openfoam.com                      |
|    \\/     M anipulation  |                                                 |
\*---------------------------------------------------------------------------*/
FoamFile
{
    version     2.0;
    format      ascii;
    class       volVectorField;
    location    "0.105";
    object      U;
}
// * * * * * * * * * * * * * * * * * * * * * * * * * * * * * * * * * * * * * //

dimensions      [0 1 -1 0 0 0 0];


internalField   nonuniform List<vector> 
38932
(
(60.3234 -0.00468629 0)
(60.3253 -0.00155207 0)
(60.323 -0.000581469 0)
(60.3211 -0.00179935 0)
(60.3171 -0.00310274 6.34194e-20)
(60.3101 -0.00445207 -2.77922e-19)
(60.3 -0.00604258 2.22718e-19)
(60.2865 -0.00749208 1.05232e-19)
(60.2696 -0.0090882 -1.07169e-19)
(60.2498 -0.0105829 0)
(60.2269 -0.0121288 -5.38048e-20)
(60.2011 -0.013634 5.05475e-20)
(60.1724 -0.015139 -4.22481e-22)
(60.1407 -0.0166286 2.11337e-22)
(60.1061 -0.0181131 -5.28566e-23)
(60.0686 -0.0195891 0)
(60.0281 -0.0210579 0)
(59.9847 -0.0225186 0)
(59.9385 -0.0239703 0)
(59.8893 -0.0254126 0)
(59.8373 -0.0268448 0)
(59.7825 -0.0282661 0)
(59.7248 -0.0296761 0)
(59.6643 -0.0310741 0)
(59.6011 -0.0324594 0)
(59.5351 -0.0338314 0)
(59.4664 -0.0351894 0)
(59.3951 -0.0365329 0)
(59.3211 -0.0378611 0)
(59.2444 -0.0391733 0)
(59.1652 -0.0404689 0)
(59.0834 -0.0417472 0)
(58.9991 -0.0430076 0)
(58.9123 -0.0442493 0)
(58.823 -0.0454716 0)
(58.7314 -0.0466739 0)
(58.6374 -0.0478557 -1.05848e-22)
(58.5411 -0.0490161 0)
(58.4424 -0.0501544 0)
(58.3416 -0.05127 0)
(58.2386 -0.0523623 0)
(58.1334 -0.0534305 0)
(58.0261 -0.0544741 0)
(57.9168 -0.0554921 0)
(57.8055 -0.0564842 0)
(57.6923 -0.0574495 0)
(57.5771 -0.0583874 0)
(57.4602 -0.0592972 0)
(57.3415 -0.0601783 0)
(57.221 -0.0610298 0)
(57.0989 -0.0618512 0)
(56.9753 -0.0626417 0)
(56.8501 -0.0634006 0)
(56.7234 -0.0641273 0)
(56.5953 -0.0648217 0)
(56.4659 -0.0654832 0)
(56.3352 -0.0661098 0)
(56.2034 -0.0667009 0)
(56.0703 -0.067256 0)
(55.9363 -0.0677748 0)
(55.8012 -0.0682564 0)
(55.6653 -0.0687004 0)
(55.5285 -0.0691061 0)
(55.391 -0.0694727 0)
(55.2527 -0.0697995 1.06144e-22)
(55.1139 -0.0700863 0)
(54.9746 -0.0703323 0)
(54.8348 -0.0705366 0)
(54.6947 -0.0706987 0)
(54.5543 -0.0708188 0)
(54.4137 -0.0708961 0)
(54.273 -0.07093 0)
(54.1323 -0.0709199 0)
(53.9917 -0.0708651 0)
(53.8512 -0.0707654 0)
(53.711 -0.0706206 0)
(53.5711 -0.0704307 0)
(53.4316 -0.0701954 0)
(53.2927 -0.0699148 0)
(53.1544 -0.0695883 0)
(53.0168 -0.069215 1.06338e-22)
(52.88 -0.0687949 -1.0635e-22)
(52.744 -0.0683282 0)
(52.6091 -0.0678145 0)
(52.4752 -0.0672542 0)
(52.3425 -0.0666471 0)
(52.211 -0.0659933 0)
(52.0809 -0.0652931 0)
(51.9522 -0.0645467 -5.32151e-23)
(51.8251 -0.0637542 0)
(51.6996 -0.0629158 0)
(51.5757 -0.0620319 0)
(51.4537 -0.0611027 0)
(51.3336 -0.0601291 0)
(51.2155 -0.0591116 0)
(51.0994 -0.0580508 0)
(50.9854 -0.0569474 0)
(50.8737 -0.0558023 0)
(50.7643 -0.0546165 0)
(50.6573 -0.0533908 0)
(50.5528 -0.0521265 0)
(50.4508 -0.0508248 0)
(50.3514 -0.0494869 0)
(50.2547 -0.0481142 0)
(50.1608 -0.0467085 5.32925e-23)
(50.0697 -0.0452713 0)
(49.9815 -0.0438044 0)
(49.8962 -0.0423098 0)
(49.8138 -0.0407897 0)
(49.7346 -0.0392462 0)
(49.6584 -0.0376817 0)
(49.5853 -0.0360988 0)
(49.5154 -0.0344999 0)
(49.4487 -0.0328877 0)
(49.3853 -0.0312644 0)
(49.3251 -0.0296318 0)
(49.2683 -0.0279905 -1.06662e-22)
(49.2149 -0.0263389 0)
(49.165 -0.0246709 0)
(49.1189 -0.0229733 2.68425e-20)
(49.077 -0.0211835 -2.72007e-20)
(49.0401 -0.0192461 -5.77162e-20)
(49.0101 -0.0168508 5.37287e-20)
(48.9914 -0.0134726 -1.08143e-19)
(48.9942 -0.0088806 1.59337e-19)
(49.0248 0.0165063 0)
(49.2333 -0.013028 0)
(49.2963 0.326813 6.42361e-20)
(51.1328 -0.46796 0)
(49.658 3.19175 0)
(53.0014 -1.57572 5.33038e-20)
(33.7914 10.9238 0)
(50.1474 0.688445 -9.48416e-19)
(46.5582 0.0944517 -4.89557e-20)
(49.4777 1.39908 6.74949e-19)
(49.3946 0.148289 5.74952e-19)
(47.463 0.0481087 9.06586e-19)
(49.6181 0.0513332 -6.19495e-20)
(48.4309 -0.166893 -1.56641e-19)
(48.1623 -0.169867 0)
(49.0403 -0.112449 0)
(48.9069 -0.189342 2.9176e-19)
(48.3501 -0.1927 -3.58236e-19)
(47.4465 -0.188259 1.88918e-23)
(46.572 -0.152943 2.00118e-19)
(48.312 -0.188485 4.19971e-20)
(48.8331 -0.214194 0)
(48.7448 -0.214656 0)
(48.1615 -0.181034 -2.16499e-19)
(45.7956 -0.124379 0)
(45.1105 -0.102354 0)
(47.9555 -0.167691 1.71122e-19)
(48.6436 -0.204268 0)
(48.5369 -0.194609 -1.81082e-20)
(47.7435 -0.156251 0)
(44.5064 -0.0864699 0)
(43.9736 -0.0743028 0)
(47.5237 -0.145312 -5.42561e-21)
(48.4214 -0.18603 1.81505e-20)
(48.2939 -0.177744 0)
(47.2981 -0.135126 8.17329e-21)
(43.492 -0.064648 0)
(43.0504 -0.0571472 0)
(47.0677 -0.126107 -2.7251e-21)
(48.1544 -0.170658 0)
(48.0076 -0.164983 0)
(46.8375 -0.118506 0)
(42.6443 -0.051343 0)
(42.269 -0.0467527 0)
(46.6098 -0.111928 0)
(47.8559 -0.159869 0)
(47.6994 -0.155383 0)
(46.3838 -0.106278 0)
(41.9177 -0.0430539 0)
(41.586 -0.0400715 0)
(46.1592 -0.101523 0)
(47.5386 -0.151604 0)
(47.3742 -0.148486 0)
(45.9361 -0.0975605 0)
(41.2703 -0.0376664 0)
(40.9679 -0.0357156 0)
(45.7142 -0.0942713 0)
(47.2065 -0.145962 0)
(47.0359 -0.14398 0)
(45.4934 -0.0915616 0)
(40.6764 -0.0341323 0)
(40.3939 -0.0328383 0)
(45.2733 -0.0893383 0)
(46.8626 -0.142483 0)
(46.6864 -0.14142 0)
(45.0535 -0.0875386 0)
(40.1187 -0.0317817 0)
(39.8493 -0.0309214 0)
(44.8336 -0.0861157 0)
(46.5074 -0.140742 0)
(46.3255 -0.14041 0)
(44.6133 -0.0850169 0)
(39.5847 -0.0302191 0)
(39.3238 -0.0296483 0)
(44.3921 -0.0842006 0)
(46.1404 -0.140398 0)
(45.952 -0.140682 0)
(44.1696 -0.0836336 0)
(39.0656 -0.0291892 0)
(38.8095 -0.0288267 0)
(43.9455 -0.0832887 0)
(45.7601 -0.141244 0)
(45.5645 -0.142068 0)
(43.7193 -0.0831442 0)
(38.5546 -0.0285492 0)
(38.3004 -0.0283474 0)
(43.4908 -0.0831825 0)
(45.3649 -0.143142 0)
(45.161 -0.144453 0)
(43.2594 -0.0833896 0)
(38.0462 -0.0282139 0)
(37.7916 -0.0281429 0)
(43.025 -0.0837539 0)
(44.9527 -0.145993 0)
(44.7396 -0.147756 0)
(42.787 -0.0842666 0)
(37.536 -0.0281298 0)
(37.279 -0.0281706 0)
(42.5453 -0.0849203 0)
(44.5215 -0.149735 0)
(44.2981 -0.151927 0)
(42.2995 -0.0857094 0)
(37.0202 -0.0282626 0)
(36.7591 -0.0284032 0)
(42.0492 -0.0866295 0)
(44.0693 -0.154328 0)
(43.8347 -0.156939 0)
(41.7942 -0.0876774 0)
(36.4954 -0.0285905 0)
(36.2287 -0.0288232 0)
(41.5342 -0.088851 0)
(43.5941 -0.159757 0)
(43.3472 -0.162786 0)
(41.2688 -0.090149 0)
(35.9586 -0.0291002 0)
(35.6848 -0.0294207 0)
(40.9977 -0.0915711 0)
(43.0937 -0.166026 0)
(42.8334 -0.169482 0)
(40.7206 -0.0931178 0)
(35.4068 -0.0297845 0)
(35.1243 -0.0301913 0)
(40.4371 -0.0947898 0)
(42.5658 -0.173157 0)
(42.2907 -0.177057 0)
(40.1468 -0.096589 0)
(34.837 -0.0306413 0)
(34.5444 -0.0311348 0)
(39.8495 -0.0985174 0)
(42.0077 -0.181187 0)
(41.7165 -0.185556 0)
(39.5448 -0.100578 0)
(34.2461 -0.0316722 0)
(33.9419 -0.0322543 0)
(39.2322 -0.102773 0)
(41.4167 -0.190169 0)
(41.1079 -0.195038 0)
(38.9113 -0.105109 0)
(33.6311 -0.0328822 0)
(33.3135 -0.0335571 0)
(38.5818 -0.107588 0)
(40.7897 -0.200171 0)
(40.4617 -0.20558 0)
(38.2431 -0.110217 0)
(32.9886 -0.0342805 0)
(32.6559 -0.0350539 0)
(37.8948 -0.113001 0)
(40.1233 -0.211278 0)
(39.7741 -0.217277 0)
(37.5363 -0.115947 0)
(32.315 -0.0358793 0)
(31.9652 -0.0367588 0)
(37.1672 -0.119062 0)
(39.4135 -0.223592 0)
(39.0409 -0.230239 0)
(36.7868 -0.122354 0)
(31.6061 -0.0376944 0)
(31.2371 -0.0386888 0)
(36.3946 -0.12583 0)
(38.6558 -0.237233 0)
(38.2576 -0.244594 0)
(35.99 -0.129501 0)
(30.8576 -0.0397446 0)
(30.4671 -0.0408647 0)
(35.5723 -0.133375 0)
(37.8456 -0.25234 0)
(37.4192 -0.260493 0)
(35.1408 -0.137463 0)
(30.0649 -0.0420523 0)
(29.6504 -0.0433108 0)
(34.6948 -0.141777 0)
(36.9776 -0.269074 0)
(36.52 -0.278108 0)
(34.2338 -0.146329 0)
(29.2229 -0.0446437 0)
(28.7818 -0.0460548 0)
(33.7568 -0.151129 0)
(36.0459 -0.287616 0)
(35.5543 -0.297626 0)
(33.2631 -0.156192 0)
(28.3263 -0.0475481 0)
(27.8557 -0.0491279 0)
(32.752 -0.161531 0)
(35.0445 -0.308164 0)
(34.5155 -0.319257 0)
(32.2225 -0.167159 0)
(27.3693 -0.0507987 0)
(26.8661 -0.0525656 0)
(31.6737 -0.173094 0)
(33.9664 -0.330938 0)
(33.3961 -0.343238 0)
(31.1047 -0.179351 0)
(26.3454 -0.0544342 0)
(25.806 -0.0564099 0)
(30.5143 -0.185949 0)
(32.8037 -0.35619 0)
(32.1877 -0.369827 0)
(29.9014 -0.192902 0)
(25.247 -0.0584978 0)
(24.6674 -0.0607043 0)
(29.2648 -0.200232 0)
(31.5472 -0.384187 0)
(30.8806 -0.399305 0)
(28.6033 -0.207954 0)
(24.0659 -0.0630353 0)
(23.4414 -0.0654946 0)
(27.9154 -0.216083 0)
(30.1867 -0.415206 0)
(29.4639 -0.431924 0)
(27.1999 -0.224633 0)
(22.7927 -0.068087 0)
(22.1185 -0.0708203 0)
(26.4553 -0.233625 0)
(28.7109 -0.449494 0)
(27.9259 -0.467936 0)
(25.6801 -0.243066 0)
(21.4174 -0.0736971 0)
(20.6882 -0.0767187 0)
(24.8728 -0.25296 0)
(27.1074 -0.487262 0)
(26.2536 -0.507481 0)
(24.0317 -0.26331 0)
(19.9294 -0.079886 0)
(19.1397 -0.0831979 0)
(23.1554 -0.274106 0)
(25.3628 -0.528582 0)
(24.4334 -0.550537 0)
(22.2423 -0.285332 0)
(18.3179 -0.0866491 0)
(17.4627 -0.0902263 0)
(21.291 -0.296954 0)
(23.4636 -0.573291 0)
(22.4519 -0.596746 0)
(20.3 -0.30892 0)
(16.573 -0.0939069 0)
(15.6481 -0.0976642 0)
(19.2682 -0.321159 0)
(21.3969 -0.62078 0)
(20.2972 -0.645153 0)
(18.1948 -0.333542 0)
(14.6873 -0.101454 0)
(13.6907 -0.105223 0)
(17.0796 -0.345906 0)
(19.1523 -0.66958 0)
(17.962 -0.693645 0)
(15.9227 -0.358016 0)
(12.659 -0.108885 0)
(11.5938 -0.112335 0)
(14.7254 -0.369559 0)
(16.7267 -0.716778 0)
(15.4478 -0.738226 0)
(13.4897 -0.380129 0)
(10.4974 -0.115441 0)
(9.37374 -0.118031 0)
(12.2192 -0.389223 0)
(14.128 -0.757088 0)
(12.7714 -0.772132 0)
(10.9187 -0.396168 0)
(8.22812 -0.119874 0)
(7.06827 -0.120699 0)
(9.59565 -0.400144 0)
(11.3843 -0.781825 0)
(9.97532 -0.784371 0)
(8.25999 -0.400189 0)
(5.9042 -0.120192 0)
(4.74947 -0.118008 0)
(6.92523 -0.39526 0)
(8.55695 -0.777869 0)
(7.14408 -0.760446 0)
(5.60753 -0.384361 0)
(3.6201 -0.113793 0)
(2.53577 -0.107722 0)
(4.32676 -0.36744 0)
(5.75593 -0.731601 0)
(4.41088 -0.689377 0)
(3.10036 -0.343005 0)
(1.51055 -0.0990521 0)
(0.578779 -0.0945356 0)
(1.95885 -0.31963 0)
(3.13775 -0.641296 0)
(1.95432 -0.576954 0)
(0.9023 -0.2827 0)
(-0.326135 -0.0792564 0)
(-1.03101 -0.0578023 0)
(-0.0382639 -0.231511 0)
(0.878453 -0.496659 0)
(-0.0969501 -0.413842 0)
(-0.853004 -0.187545 0)
(-1.60911 -0.0456241 0)
(-2.06553 -0.0366009 0)
(-1.50886 -0.151457 0)
(-0.915662 -0.337723 0)
(-1.60472 -0.284291 0)
(-2.05752 -0.126311 0)
(-2.44361 -0.0301429 0)
(-2.76032 -0.0246846 0)
(-2.51891 -0.106647 0)
(-2.17876 -0.241198 0)
(-2.66567 -0.203726 0)
(-2.91199 -0.088614 0)
(-3.0241 -0.0191859 0)
(-3.23704 -0.0143991 0)
(-3.24656 -0.0748737 0)
(-3.07991 -0.175861 0)
(-3.4477 -0.159884 0)
(-3.54658 -0.0668338 0)
(-3.41694 -0.0106874 0)
(-3.57747 -0.00765981 0)
(-3.83207 -0.062854 -4.39153e-20)
(-3.79161 -0.152682 0)
(-4.12711 -0.149458 0)
(-4.11517 -0.0609216 4.39124e-20)
(-3.72585 -0.00554574 0)
(-3.86802 -0.00695717 0)
(-4.39649 -0.0615671 0)
(-4.45866 -0.147836 0)
(-4.77624 -0.146027 0)
(-4.66634 -0.0647244 0)
(-4.0286 -0.0119479 0)
(-4.21167 -0.016425 0)
(-4.922 -0.0677917 0)
(-5.06983 -0.142975 0)
(-5.33608 -0.137224 0)
(-5.16431 -0.0685859 0)
(-4.40834 -0.0188668 0)
(-4.60715 -0.0197014 0)
(-5.3888 -0.0660601 -4.38896e-20)
(-5.5727 -0.127298 0)
(-5.77747 -0.113562 0)
(-5.58953 -0.0606386 4.38391e-20)
(-4.79758 -0.0192618 0)
(-4.96908 -0.0175479 0)
(-5.76111 -0.0527009 -4.38758e-20)
(-5.94776 -0.0964237 0)
(-6.08088 -0.0767159 0)
(-5.89913 -0.0429694 4.38688e-20)
(-5.1141 -0.0149766 0)
(-5.22956 -0.0121029 0)
(-6.00308 -0.0325492 0)
(-6.17798 -0.0561791 0)
(-6.23892 -0.0350128 0)
(-6.07196 -0.0215206 -4.38551e-20)
(-5.31441 -0.00892014 0)
(-5.36542 -0.00554659 0)
(-6.10469 -0.0103317 4.38043e-20)
(-6.26331 -0.0136831 0)
(-6.25185 0.0076104 0)
(-6.10175 0.00075816 0)
(-5.38334 -0.00215115 0)
(-5.36851 0.00129482 0)
(-6.06318 0.0119486 0)
(-6.20534 0.0287566 0)
(-6.12529 0.0492046 0)
(-5.99028 0.0230644 0)
(-5.32083 0.00468967 0)
(-5.24075 0.00801643 0)
(-5.88496 0.033717 0)
(-6.0136 0.0685502 0)
(-5.87275 0.08652 0)
(-5.74964 0.0435132 0)
(-5.13027 0.0112206 0)
(-4.99217 0.0141753 0)
(-5.58685 0.0524518 0)
(-5.705 0.102975 0)
(-5.51338 0.117822 0)
(-5.39952 0.0604769 0)
(-4.82907 0.0169664 -2.6444e-20)
(-4.6435 0.0193346 2.64141e-20)
(-5.19022 0.0675204 0)
(-5.30017 0.130967 0)
(-5.06787 0.142448 0)
(-4.96141 0.0737359 0)
(-4.43897 0.0213908 -2.64384e-20)
(-4.21668 0.0232754 -5.4779e-25)
(-4.71576 0.0790953 0)
(-4.8191 0.152345 0)
(-4.55559 0.160629 0)
(-4.45514 0.0836586 0)
(-3.97963 0.0245944 2.64068e-20)
(-3.73022 0.0256879 0)
(-4.18166 0.0875865 -4.37794e-20)
(-4.27952 0.167585 0)
(-3.99338 0.173446 0)
(-3.89785 0.0908215 4.37314e-20)
(-3.47005 0.0267468 0)
(-3.20134 0.0275455 0)
(-3.60519 0.0934399 0)
(-3.69847 0.17829 0)
(-3.39704 0.182314 0)
(-3.30569 0.0957012 0)
(-2.92619 0.028263 0)
(-2.64448 0.0288098 0)
(-3.00011 0.0975986 0)
(-3.08997 0.185631 0)
(-2.77801 0.188842 0)
(-2.68925 0.0995482 -4.34235e-20)
(-2.35848 0.0295192 0)
(-2.06452 0.029602 0)
(-2.37127 0.101299 4.33826e-20)
(-2.45986 0.19217 0)
(-2.13534 0.196077 -1.41931e-19)
(-2.04596 0.103406 1.69616e-19)
(-1.76604 0.0308549 0)
(-1.44694 0.0317913 0)
(-1.70545 0.106177 -1.70705e-19)
(-1.79987 0.200615 0)
(-1.45518 0.206538 0)
(-1.35644 0.11006 6.47923e-19)
(-1.12267 0.0329485 0)
(-0.775015 0.0342825 0)
(-0.990072 0.113604 -6.88996e-19)
(-1.10014 0.21287 -1.40545e-19)
(-0.744086 0.211558 4.14247e-19)
(-0.624692 0.112747 0)
(-0.434535 0.0339098 0)
(-0.103722 0.029599 0)
(-0.274265 0.101729 -7.55981e-19)
(-0.408073 0.193686 3.0688e-19)
(-0.135558 0.123366 -6.26374e-19)
(0.0102826 0.0480224 1.47737e-18)
(0.142337 0.00881994 -8.75746e-19)
(0.133106 -0.0230349 0)
(0.127328 -0.0461898 0)
(0.0658418 -0.0667751 3.35021e-19)
(-0.099799 0.0263155 -1.21977e-19)
(-0.163895 0.30591 0)
(-0.164007 0.620321 -8.29386e-19)
(-0.155941 0.962796 8.2359e-19)
(-0.13454 1.26627 -1.93649e-19)
(-0.113413 1.5414 3.92496e-19)
(-0.0870234 1.75586 -3.90013e-19)
(-0.0614727 1.91968 0)
(-0.0345804 2.02402 2.46502e-20)
(-0.00795996 2.06967 -2.47526e-20)
(0.0197505 2.05665 4.96119e-20)
(0.0474013 1.98709 -5.02515e-20)
(0.0764715 1.86313 5.08631e-20)
(0.10502 1.68195 -5.4129e-20)
(0.12957 1.46562 -1.79093e-18)
(0.169117 1.26973 -1.00877e-17)
(0.191024 1.09568 1.17838e-17)
(0.199187 0.94183 0)
(0.254702 0.745597 0)
(0.179108 0.5523 8.57297e-18)
(0.0916664 0.371441 0)
(0.140774 0.198399 5.44542e-17)
(0.129566 0.113693 -4.27447e-17)
(0.0926074 -0.0895684 2.1693e-17)
(0.0375839 -0.159984 -5.72122e-23)
(0.0492848 -0.215471 -5.2444e-17)
(0.0311031 -0.247956 1.00687e-16)
(0.0241961 -0.271942 -1.0828e-16)
(0.00726167 -0.275021 0)
(-0.00586813 -0.290833 4.64205e-17)
(-0.0106933 -0.228772 -1.89901e-16)
(-0.0224694 -0.188834 1.20639e-16)
(-0.0386057 -0.138649 0)
(-0.0528593 -0.05116 0)
(-0.0929641 -0.00126276 0)
(-0.130871 -0.0260794 1.41257e-17)
(-0.142311 -0.0553582 -2.21212e-24)
(-0.142122 -0.087104 -1.28067e-17)
(-0.122404 -0.12045 -2.19289e-18)
(-0.114811 -0.0535635 -3.17559e-25)
(-0.142098 -0.0487307 7.40125e-18)
(-0.15596 -0.0375824 0)
(-0.151806 -0.0224215 0)
(-0.103477 -0.00478633 0)
(-0.13961 -0.00829557 0)
(-0.184568 -0.0284243 7.61964e-19)
(-0.182857 -0.0414336 -7.28348e-19)
(-0.164429 -0.0534881 -1.36853e-18)
(-0.135653 -0.066361 -4.53872e-18)
(-0.149456 -0.0275067 -1.01853e-18)
(-0.17822 -0.0272176 -1.33574e-18)
(-0.198544 -0.0242329 -2.77647e-18)
(-0.205596 -0.019032 -2.81768e-18)
(-0.16279 -0.00613616 1.48796e-18)
(-0.179403 -0.00403335 -2.10603e-18)
(-0.216349 -0.0110595 2.73083e-18)
(-0.201545 -0.0113206 2.99052e-18)
(-0.174822 -0.00935183 2.23427e-18)
(-0.140898 -0.00454141 0)
(-0.129868 0.0225777 2.26585e-18)
(-0.166257 0.0109639 2.42988e-18)
(-0.197486 0.00316564 2.58436e-18)
(-0.217843 -0.00196465 -2.66963e-18)
(-0.186463 -0.00146871 6.93099e-19)
(-0.184107 0.000424609 -2.80446e-18)
(-0.209642 0.004879 1.36144e-18)
(-0.185555 0.0139793 -3.53994e-25)
(-0.151829 0.0253723 2.52045e-18)
(-0.113349 0.0397478 -1.42998e-17)
(-0.0932892 0.0547614 2.49371e-18)
(-0.132422 0.0375368 0)
(-0.167326 0.0230391 0)
(-0.193541 0.0107387 0)
(-0.173507 0.00224732 1.45529e-18)
(-0.157707 0.00281096 1.53249e-18)
(-0.171485 0.0133595 -1.50365e-18)
(-0.143601 0.0271203 0)
(-0.107914 0.0430451 5.63326e-18)
(-0.0681911 0.0613132 5.29575e-18)
(-0.0425876 0.0658193 0)
(-0.0808983 0.0467432 1.49578e-18)
(-0.116409 0.029783 3.08002e-18)
(-0.145345 0.0149433 -4.76469e-18)
(-0.13822 0.00313986 0)
(-0.117573 0.00316594 -1.69255e-18)
(-0.116248 0.0160876 1.66336e-18)
(-0.0848528 0.03201 -1.62264e-18)
(-0.048699 0.0501749 -7.84086e-18)
(-0.0101918 0.0703002 6.04391e-18)
(0.0300851 0.0717942 0)
(-0.00990175 0.0507891 8.02981e-19)
(-0.0475168 0.0321927 1.67462e-18)
(-0.0815053 0.0160039 5.32101e-25)
(-0.092469 0.00302 1.76427e-18)
(-0.0717252 0.00245909 -1.12273e-26)
(-0.049501 0.0150812 3.58864e-18)
(-0.0115209 0.0309488 -3.47819e-18)
(0.0280828 0.0492729 2.46757e-18)
(0.0691032 0.070114 0)
(0.114152 0.0740892 0)
(0.0712159 0.0519385 -4.15961e-19)
(0.0295752 0.0328093 -3.58944e-18)
(-0.0125489 0.0164541 1.8624e-18)
(-0.0463273 0.00280191 -1.92386e-18)
(-0.0224234 0.00228096 2.02442e-18)
(0.0238824 0.0152559 0)
(0.0705656 0.0308885 9.22388e-19)
(0.115251 0.0496994 4.24446e-19)
(0.160904 0.0717669 -9.72199e-20)
(0.206354 0.0714068 6.51068e-18)
(0.158207 0.0482252 0)
(0.110474 0.0291632 2.8994e-18)
(0.0589696 0.0140326 -8.39362e-18)
(0.0011877 0.00188199 -6.24517e-25)
(0.0240428 0.00101713 2.41096e-18)
(0.0931519 0.011954 1.25634e-17)
(0.149352 0.025518 5.17801e-19)
(0.19946 0.0434343 -6.97309e-18)
(0.24978 0.0653883 0)
(0.291876 0.0642123 0)
(0.238514 0.0426093 -1.4824e-18)
(0.184822 0.0246921 8.52321e-18)
(0.123129 0.0113461 -1.66744e-17)
(0.0427141 0.000985217 2.73699e-18)
(0.053501 -0.00060896 1.37345e-17)
(0.14449 0.0096062 -1.19215e-17)
(0.211709 0.0210436 -2.17076e-17)
(0.269577 0.0379889 1.05923e-18)
(0.329223 0.0591903 -8.64174e-19)
(0.368395 0.0477528 -1.35242e-17)
(0.302053 0.0307155 0)
(0.228851 0.0182405 2.39324e-17)
(0.147058 0.00825828 -2.0169e-17)
(0.0526403 -0.00107289 -2.27693e-17)
(0.0331854 0.0132288 0)
(0.110762 0.0111632 0)
(0.207623 -0.00748999 2.81217e-17)
(0.288656 0.00396834 -2.48058e-17)
(0.366861 0.0229149 8.46663e-19)
(0.373593 0.0300625 -1.02295e-18)
(0.309734 0.0230184 0)
(0.244111 0.0329005 0)
(0.171358 -0.0374066 0)
(0.0647864 -0.047656 0)
(0.0835572 -0.152848 0)
(0.0717031 -0.0561454 0)
(0.195807 0.0955454 0)
(0.297778 0.0610662 0)
(0.343428 0.10341 0)
(0.457666 0.0765085 0)
(0.40549 -0.111483 0)
(0.320666 -0.328686 0)
(0.273819 0.597406 0)
(0.261864 0.681172 0)
(-0.266298 0.608445 0)
(-0.138964 0.580912 0)
(0.0858705 -0.246302 0)
(0.223343 -0.0601046 0)
(0.468936 0.148914 0)
(0.597237 -0.173854 0)
(0.463296 0.1333 0)
(0.542446 0.35691 0)
(0.603171 -0.763096 0)
(0.364817 -0.818758 0)
(-0.192522 -0.836824 0)
(-0.314603 -0.776711 0)
(0.0182556 0.372435 0)
(0.392724 0.138989 0)
(0.562246 -0.176211 0)
(0.681648 0.0895761 0)
(0.608212 -0.0850349 0)
(0.426558 -0.255455 0)
(0.378605 0.550641 0)
(0.371703 0.583453 0)
(-0.0907799 0.392525 0)
(0.0485636 0.35835 0)
(0.305096 -0.188419 0)
(0.512705 -0.0627867 0)
(0.736332 0.0841519 0)
(0.826904 0.0556946 0)
(0.653935 0.129425 0)
(0.514749 0.192455 0)
(0.363608 -0.289431 0)
(0.180766 -0.368283 0)
(0.0380966 -0.107257 0)
(0.147083 -0.106612 0)
(0.409482 0.0449862 0)
(0.658316 0.0158991 0)
(0.853208 -0.0248353 0)
(0.964612 -0.0214825 0)
(0.782023 0.0354951 0)
(0.589165 0.0753257 0)
(0.377801 -0.22179 0)
(0.149279 -0.241266 0)
(0.177573 -0.64289 0)
(0.230066 -0.54624 0)
(0.532069 0.305297 0)
(0.817973 0.178344 0)
(0.996881 0.04039 0)
(1.08663 0.184366 0)
(0.927593 -0.0477382 0)
(0.643335 -0.275066 0)
(0.388665 0.591344 0)
(0.339099 0.64664 0)
(0.151617 0.595114 0)
(0.331424 0.552426 0)
(0.647761 -0.260666 0)
(0.912547 -0.0356686 0)
(1.15058 0.203393 0)
(1.23734 0.169402 0)
(1.01724 0.0036296 0)
(0.734837 -0.128967 0)
(0.426545 0.320246 0)
(0.198782 0.328315 0)
(0.1409 0.650219 0)
(0.378659 0.610614 0)
(0.745318 -0.284927 0)
(1.02199 -0.0516898 0)
(1.29673 0.176528 0)
(1.41366 0.0325643 0)
(1.15666 0.104839 0)
(0.90771 0.152342 0)
(0.598701 -0.253383 0)
(0.314986 -0.319822 0)
(0.203979 0.190506 0)
(0.494008 0.183977 0)
(0.864751 -0.0648742 0)
(1.18823 -0.024542 0)
(1.47035 0.0129251 0)
(1.5745 -0.104854 0)
(1.29429 0.0796549 0)
(0.983749 0.222119 0)
(0.598931 -0.481191 0)
(0.312595 -0.556276 0)
(0.274701 -0.253913 0)
(0.537316 -0.203187 0)
(0.969411 0.104222 0)
(1.33872 0.0315484 0)
(1.63567 -0.0673749 0)
(1.76458 -0.15053 0)
(1.45856 0.0592717 0)
(1.15254 0.224295 0)
(0.724883 -0.538847 0)
(0.361402 -0.613401 0)
(0.416585 -0.913421 0)
(0.644383 -0.823676 0)
(1.12433 0.363532 0)
(1.50637 0.0949399 0)
(1.82458 -0.21624 0)
(1.93085 -0.143404 0)
(1.64035 0.0295984 0)
(1.2508 0.173592 0)
(0.771432 -0.434144 0)
(0.404582 -0.465293 0)
(0.469825 -0.91396 0)
(0.683014 -0.78628 0)
(1.24043 0.389262 0)
(1.68536 0.164565 0)
(1.99355 -0.0915994 0)
(2.10919 0.0429622 0)
(1.82395 -0.0143065 0)
(1.42586 -0.0904406 0)
(0.951757 0.196201 0)
(0.585683 0.196291 0)
(0.474396 -0.530266 0)
(0.885139 -0.445657 0)
(1.41987 0.216983 0)
(1.85506 0.135229 0)
(2.20161 0.00740325 0)
(2.31196 0.0846783 0)
(1.97192 0.00124982 0)
(1.52367 -0.0886588 0)
(0.957163 0.176746 0)
(0.519068 0.178687 0)
(0.543343 -0.516901 0)
(0.93564 -0.390637 0)
(1.53727 0.238032 0)
(2.03743 0.188899 0)
(2.38993 0.110683 0)
(2.51828 0.234676 0)
(2.18433 -0.0511151 0)
(1.70188 -0.341069 0)
(1.09851 0.719793 0)
(0.796119 0.781422 0)
(0.664749 0.513912 0)
(1.08564 0.489969 0)
(1.72313 -0.223777 0)
(2.20887 0.000884457 0)
(2.60577 0.237604 0)
(2.71133 0.272392 0)
(2.33863 0.00622341 0)
(1.83565 -0.229753 0)
(1.14937 0.575358 0)
(0.686894 0.606326 0)
(0.744019 0.835933 0)
(1.17002 0.781926 0)
(1.87247 -0.349971 0)
(2.38528 -0.0251601 0)
(2.80051 0.301115 0)
(2.92397 0.26332 0)
(2.53705 0.0275542 0)
(2.02156 -0.158663 0)
(1.30417 0.476084 0)
(0.723691 0.478414 0)
(0.865798 1.09147 0)
(1.30478 0.993972 0)
(2.05108 -0.465749 0)
(2.58222 -0.0696746 0)
(3.01283 0.311639 0)
(3.14509 0.258458 0)
(2.72968 0.0301257 0)
(2.19565 -0.146392 0)
(1.43515 0.400137 0)
(0.752478 0.40494 0)
(0.917888 0.976238 0)
(1.41142 0.907335 0)
(2.20919 -0.404742 0)
(2.77246 -0.0456882 0)
(3.22557 0.326108 0)
(3.3534 0.245823 0)
(2.92103 0.0354927 0)
(2.35688 -0.111955 0)
(1.57168 0.351979 0)
(0.8163 0.337973 0)
(1.0098 1.06764 0)
(1.52987 0.978846 0)
(2.37251 -0.46054 0)
(2.96412 -0.0803895 0)
(3.44199 0.295428 0)
(3.57473 0.211269 0)
(3.1206 0.0140741 0)
(2.52459 -0.124429 0)
(1.70556 0.328451 0)
(0.886585 0.323195 0)
(1.05288 1.16821 0)
(1.63523 1.06864 0)
(2.54347 -0.512858 0)
(3.14607 -0.113071 0)
(3.66011 0.269276 0)
(3.80238 0.0831838 0)
(3.3236 0.0671055 0)
(2.72827 0.0738354 0)
(1.89589 -0.0551843 0)
(1.07289 -0.117954 0)
(1.11632 1.09762 0)
(1.82821 0.990673 0)
(2.76885 -0.461017 0)
(3.38349 -0.118456 0)
(3.90392 0.17273 0)
(4.0545 0.0024585 0)
(3.53399 0.167814 0)
(2.93381 0.283597 0)
(2.04008 -0.549576 0)
(1.24779 -0.661729 0)
(1.12205 0.324814 0)
(2.02743 0.339864 0)
(2.9351 -0.100546 0)
(3.60573 -0.0118463 0)
(4.13443 0.0695847 0)
(4.27357 -0.113102 0)
(3.7274 0.111609 0)
(3.09188 0.269668 0)
(2.13428 -0.622794 0)
(1.27399 -0.728034 0)
(1.35088 -0.532885 0)
(2.0938 -0.428205 0)
(3.08399 0.224313 0)
(3.80026 0.0879249 0)
(4.37487 -0.0941944 0)
(4.56109 -0.150894 0)
(3.99766 0.061859 0)
(3.3514 0.233215 0)
(2.36051 -0.589328 0)
(1.37632 -0.645597 0)
(1.59518 -1.32235 0)
(2.13651 -1.14804 0)
(3.24335 0.573853 0)
(4.03546 0.247478 0)
(4.60975 -0.127907 0)
(4.78032 0.0609017 0)
(4.26749 -0.0272819 0)
(3.53767 -0.138273 0)
(2.56534 0.319881 0)
(1.66841 0.338768 0)
(1.55985 -0.872512 0)
(2.45061 -0.696856 0)
(3.55156 0.379956 0)
(4.34162 0.277436 0)
(4.91381 0.12569 0)
(5.07058 0.309611 0)
(4.53433 -0.0519706 0)
(3.72066 -0.381884 0)
(2.61696 0.892698 0)
(1.90567 0.949462 0)
(1.6589 1.04447 0)
(2.53192 0.975061 0)
(3.72677 -0.458026 0)
(4.4923 -0.0857539 0)
(5.16137 0.301435 0)
(5.31117 0.115784 0)
(4.71544 0.0806977 0)
(3.96253 0.100418 0)
(2.88931 -0.0510744 0)
(1.77547 -0.143165 0)
(1.76781 1.35301 0)
(2.75864 1.20538 0)
(4.02531 -0.544089 0)
(4.7756 -0.180866 0)
(5.44068 0.125098 0)
(5.64694 -0.195184 0)
(4.98598 0.153036 0)
(4.28621 0.434334 0)
(3.1809 -1.02389 0)
(2.11574 -1.14769 0)
(2.0406 -0.622627 0)
(2.9616 -0.532415 0)
(4.19422 0.260538 0)
(5.07986 0.0769411 0)
(5.73109 -0.143739 0)
(5.96278 -0.140139 0)
(5.31565 0.0649132 0)
(4.56084 0.203447 0)
(3.3627 -0.567757 0)
(1.97225 -0.607564 0)
(2.40367 -1.68441 0)
(3.11611 -1.48481 0)
(4.4564 0.718062 0)
(5.36917 0.31322 0)
(6.0362 -0.177046 0)
(6.20176 0.0532575 0)
(5.61375 -0.022977 0)
(4.74355 -0.11979 0)
(3.51416 0.284996 0)
(2.27251 0.305811 0)
(2.39429 -1.27871 0)
(3.43869 -1.07019 0)
(4.81022 0.50439 0)
(5.71599 0.336642 0)
(6.36699 0.0535196 0)
(6.57864 0.222677 0)
(5.93351 -0.0705224 0)
(5.01412 -0.373658 0)
(3.64762 0.783749 0)
(2.59547 0.846082 0)
(2.33954 -0.0929095 0)
(3.80855 0.00372993 0)
(5.10551 0.111426 0)
(6.02966 0.13544 0)
(6.71063 0.187932 0)
(6.8806 0.326683 0)
(6.2377 -0.046058 0)
(5.25896 -0.386597 0)
(3.79113 0.873925 0)
(2.6346 0.934547 0)
(2.68592 1.27178 0)
(3.80865 1.17685 0)
(5.31964 -0.556435 0)
(6.25692 -0.10274 0)
(7.0401 0.351297 0)
(7.25221 0.163644 0)
(6.56535 0.106412 0)
(5.62664 0.073016 0)
(4.23657 0.0361189 0)
(2.57523 -0.0210335 0)
(2.84534 1.61295 0)
(4.08941 1.47093 0)
(5.72976 -0.65432 0)
(6.68686 -0.131995 0)
(7.41763 0.339393 0)
(7.71608 0.0472339 0)
(6.97396 0.252034 0)
(6.09746 0.34906 0)
(4.58281 -0.768806 0)
(2.9924 -0.967929 0)
(3.01761 -0.121924 0)
(4.7274 -0.0522604 0)
(6.29605 0.122793 0)
(7.18142 0.0583995 0)
(7.97781 -0.0578818 0)
(8.37984 -0.592553 0)
(7.54317 0.296633 0)
(6.70164 0.852246 0)
(5.14939 -2.22255 0)
(3.91928 -2.30836 0)
(3.83591 -3.28252 0)
(4.25282 -3.05265 0)
(6.35787 1.36097 0)
(7.83186 0.656634 0)
(8.53778 -0.500916 0)
(8.96975 0.443703 0)
(8.49507 -0.262273 0)
(7.42098 -1.02306 0)
(6.00166 2.39531 0)
(5.17203 2.62346 0)
(4.40242 -0.536959 0)
(7.0491 -0.265952 0)
(8.53961 0.112903 3.54354e-19)
(9.13143 -0.00118201 0)
(9.53424 0.100244 0)
(10.0004 0.467051 -2.76348e-17)
(9.72023 0.343769 3.29201e-17)
(9.19844 0.305455 -2.99387e-19)
(8.05783 0.269361 0)
(5.81131 0.145276 0)
(7.02611 0.284639 -4.11514e-18)
(8.82539 0.35927 0)
(9.6352 0.399436 -4.45203e-19)
(10.0228 0.464358 1.39495e-18)
(10.2457 0.50492 -2.11349e-18)
(10.4318 0.551579 1.95032e-18)
(10.2951 0.500839 -1.06304e-17)
(10.0185 0.456423 1.16685e-17)
(9.44925 0.390649 -3.35525e-18)
(8.01444 0.302252 3.16873e-18)
(8.73666 0.326159 2.60026e-18)
(9.91835 0.412736 2.81717e-18)
(10.3361 0.480222 0)
(10.5186 0.531605 0)
(10.5962 0.585039 -1.44363e-17)
(10.7402 0.616883 0)
(10.7053 0.564898 -7.886e-18)
(10.5815 0.514745 1.33588e-17)
(10.2586 0.451654 -4.96567e-18)
(9.22854 0.363855 -9.02266e-18)
(9.61734 0.373822 2.34922e-24)
(10.5427 0.457894 2.24117e-18)
(10.7927 0.52927 -6.1385e-18)
(10.8705 0.586144 3.695e-18)
(10.8716 0.64234 6.58118e-18)
(10.9951 0.677365 -9.39113e-18)
(11.0234 0.622696 6.97936e-18)
(10.9814 0.568019 -2.86294e-18)
(10.7834 0.503642 2.04668e-18)
(9.94609 0.423169 5.74826e-18)
(10.2253 0.460239 9.0472e-19)
(10.9927 0.538217 -1.91333e-18)
(11.1518 0.607538 3.36344e-24)
(11.1644 0.663771 -3.36365e-18)
(11.1127 0.71782 1.57082e-18)
(11.2256 0.756088 1.48432e-18)
(11.2948 0.707321 -4.09767e-19)
(11.3061 0.656553 -2.59428e-18)
(11.1801 0.593489 -1.82189e-18)
(10.4665 0.518768 8.62964e-19)
(10.6816 0.563226 3.32348e-18)
(11.3517 0.634259 0)
(11.4465 0.704207 0)
(11.4129 0.755699 3.97247e-19)
(11.324 0.803223 3.04727e-18)
(11.4155 0.85501 0)
(11.5227 0.81165 0)
(11.5768 0.765257 -1.6013e-18)
(11.5084 0.700152 4.97286e-18)
(10.8724 0.638399 -3.23792e-18)
(11.0461 0.710077 3.14187e-18)
(11.6525 0.758128 -1.60338e-18)
(11.697 0.828983 7.73891e-19)
(11.6213 0.871357 7.36997e-19)
(11.493 0.911024 -2.7822e-18)
(11.5601 0.977711 0)
(11.709 0.946025 -1.07783e-18)
(11.8066 0.911115 1.50993e-18)
(11.7887 0.838174 3.11968e-18)
(11.2211 0.81955 -3.0729e-23)
(11.2778 0.965075 6.22417e-18)
(11.8664 0.9608 -3.05573e-18)
(11.8796 1.00768 0)
(11.7729 1.02735 -3.58092e-19)
(11.6167 1.04612 -2.75173e-18)
(11.6491 1.09054 -6.96253e-19)
(11.8092 1.08112 -1.06232e-18)
(11.9222 1.07094 -7.22895e-19)
(11.916 1.02907 3.73722e-18)
(11.3098 1.0218 5.91647e-18)
(11.4012 1.04814 -1.41734e-17)
(11.9797 1.05795 -3.64262e-18)
(11.9623 1.11275 2.11091e-18)
(11.8347 1.1227 3.42738e-19)
(11.6614 1.1302 3.33177e-19)
(11.6741 1.15856 1.29647e-18)
(11.8614 1.1546 -1.67616e-18)
(12.0051 1.14779 0)
(12.0497 1.08967 0)
(11.5221 1.09506 0)
(11.6389 1.12856 0)
(12.1139 1.11933 -2.8387e-18)
(12.0443 1.17595 6.15622e-18)
(11.8852 1.1782 -2.28126e-18)
(11.6848 1.17902 -1.27015e-18)
(11.6874 1.19211 1.18585e-18)
(11.9048 1.19366 0)
(12.0798 1.19783 2.03674e-18)
(12.1714 1.13927 -1.44408e-18)
(11.7599 1.14863 1.92387e-17)
(11.8738 1.18036 4.00272e-22)
(12.2237 1.16156 1.51942e-18)
(12.1154 1.22339 -2.82839e-18)
(11.9273 1.2125 -9.95814e-18)
(11.6925 1.20632 7.72462e-18)
(11.774 1.22257 2.94878e-17)
(11.98 1.23255 -6.78835e-18)
(12.161 1.2488 -3.36001e-18)
(12.2787 1.17774 0)
(11.9693 1.21698 -2.37783e-17)
(12.0326 1.25148 6.25758e-18)
(12.3287 1.19 -7.46687e-18)
(12.2068 1.25946 -3.87213e-18)
(12.0324 1.23742 -5.29687e-18)
(11.8374 1.23156 5.90512e-18)
(11.8154 1.22834 -4.60941e-19)
(12.0355 1.24136 -2.89271e-18)
(12.2263 1.26717 8.65265e-18)
(12.3596 1.20366 -2.87023e-18)
(12.0943 1.27649 3.26722e-18)
(12.1864 1.30162 3.33407e-18)
(12.3875 1.21778 -1.94961e-18)
(12.2343 1.27538 -9.42776e-19)
(12.0307 1.24706 0)
(11.799 1.22746 -8.40702e-19)
(11.7781 1.22706 -8.09343e-19)
(12.0219 1.25238 -3.47665e-18)
(12.2347 1.2872 3.74224e-18)
(12.4042 1.23942 -1.00146e-18)
(12.2664 1.32914 8.19648e-23)
(12.3264 1.36019 3.17813e-17)