/*--------------------------------*- C++ -*----------------------------------*\
| =========                 |                                                 |
| \\      /  F ield         | OpenFOAM: The Open Source CFD Toolbox           |
|  \\    /   O peration     | Version:  v2006                                 |
|   \\  /    A nd           | Website:  www.openfoam.com                      |
|    \\/     M anipulation  |                                                 |
\*---------------------------------------------------------------------------*/
FoamFile
{
    version     2.0;
    format      ascii;
    class       volScalarField;
    location    "0.09";
    object      alphat;
}
// * * * * * * * * * * * * * * * * * * * * * * * * * * * * * * * * * * * * * //

dimensions      [1 -1 -1 0 0 0 0];


internalField   nonuniform List<scalar> 
38932
(
0.104095
0.104098
0.104126
0.104123
0.104116
0.104104
0.104087
0.104065
0.104037
0.104003
0.103965
0.103922
0.103874
0.103821
0.103764
0.103701
0.103633
0.103561
0.103483
0.103401
0.103314
0.103223
0.103126
0.103025
0.102919
0.102809
0.102694
0.102575
0.102451
0.102323
0.10219
0.102054
0.101912
0.101767
0.101618
0.101464
0.101307
0.101146
0.10098
0.100811
0.100639
0.100463
0.100283
0.100099
0.0999128
0.0997229
0.0995298
0.0993335
0.0991343
0.0989321
0.0987272
0.0985195
0.0983091
0.0980963
0.0978811
0.0976636
0.0974439
0.0972221
0.0969984
0.0967728
0.0965455
0.0963167
0.0960863
0.0958547
0.0956218
0.0953879
0.095153
0.0949173
0.094681
0.0944441
0.0942069
0.0939694
0.0937318
0.0934942
0.0932569
0.0930199
0.0927835
0.0925476
0.0923126
0.0920786
0.0918457
0.0916141
0.0913839
0.0911553
0.0909284
0.0907035
0.0904806
0.09026
0.0900417
0.089826
0.0896129
0.0894028
0.0891956
0.0889916
0.0887909
0.0885936
0.0884
0.0882101
0.0880241
0.0878421
0.0876643
0.0874907
0.0873216
0.0871571
0.0869972
0.086842
0.0866917
0.0865464
0.0864062
0.0862711
0.0861413
0.0860168
0.0858977
0.085784
0.0856758
0.0855732
0.0854763
0.0853853
0.0853001
0.0852209
0.0851474
0.085078
0.0850059
0.0849029
0.084769
0.0844372
0.0833984
0.0790843
0.0640919
0.022916
0.00837933
0.000314725
0.000326274
0.00353314
0.00945237
0.00655839
0.00238179
0.000321369
0.000312774
0.00187069
0.00512718
0.00440984
0.00157919
0.000303694
0.000292132
0.00140518
0.00391114
0.00360885
0.00130693
0.000282736
0.000273351
0.00122525
0.00341638
0.00328945
0.00118316
0.00026578
0.000259831
0.00115215
0.00319464
0.00312104
0.00112853
0.000254888
0.000250655
0.0011096
0.00305957
0.00300566
0.0010936
0.000247029
0.000243888
0.00107948
0.0029564
0.00290992
0.00106649
0.000241135
0.000238691
0.0010542
0.00286541
0.00282239
0.00104237
0.000236492
0.000234487
0.00103087
0.00278064
0.00274011
0.00101965
0.000232639
0.000230915
0.00100869
0.00270076
0.00266259
0.000998006
0.000229291
0.000227749
0.000987603
0.00262562
0.00258984
0.000977494
0.000226274
0.000224853
0.00096769
0.00255526
0.00252185
0.000958197
0.000223478
0.000222141
0.000949018
0.00248959
0.00245844
0.000940151
0.000220835
0.000219557
0.000931591
0.00242837
0.00239933
0.00092333
0.0002183
0.000217063
0.000915359
0.00237126
0.00234413
0.000907667
0.00021584
0.00021463
0.000900244
0.00231789
0.00229249
0.000893078
0.000213429
0.000212236
0.000886159
0.0022679
0.00224406
0.000879474
0.000211047
0.00020986
0.000873013
0.00222095
0.00219853
0.000866767
0.000208675
0.000207487
0.000860727
0.00217676
0.00215562
0.000854883
0.000206297
0.000205101
0.000849228
0.00213508
0.0021151
0.000843753
0.000203898
0.000202687
0.000838453
0.00209567
0.00207677
0.000833321
0.000201465
0.00020023
0.00082835
0.00205836
0.00204044
0.000823536
0.000198982
0.000197718
0.000818874
0.00202299
0.00200598
0.00081436
0.000196436
0.000195135
0.000809989
0.0019894
0.00197325
0.000805759
0.000193813
0.000192468
0.000801667
0.0019575
0.00194215
0.000797711
0.000191099
0.000189702
0.00079389
0.00192718
0.0019126
0.000790202
0.000188278
0.000186823
0.000786647
0.00189839
0.00188454
0.000783226
0.000185335
0.000183814
0.00077994
0.00187106
0.00185795
0.000776789
0.000182256
0.000180659
0.000773777
0.00184519
0.0018328
0.000770906
0.000179021
0.00017734
0.000768182
0.00182077
0.00180912
0.000765608
0.000175613
0.000173837
0.000763192
0.00179784
0.00178695
0.00076094
0.000172011
0.000170131
0.000758864
0.00177645
0.00176638
0.000756971
0.000168195
0.0001662
0.00075528
0.00175673
0.00174754
0.000753799
0.000164142
0.00016202
0.000752554
0.00173885
0.00173067
0.000751563
0.00015983
0.00015757
0.000750853
0.00172305
0.00171605
0.000750451
0.000155236
0.000152829
0.000750404
0.00170974
0.00170417
0.000750741
0.000150343
0.000147781
0.000751533
0.00169945
0.00169562
0.000752809
0.000145139
0.000142421
0.000754675
0.00169288
0.00169125
0.000757168
0.000139624
0.000136755
0.000760432
0.00169103
0.0016922
0.000764528
0.000133818
0.000130821
0.000769612
0.00169515
0.00170006
0.000775822
0.000127775
0.000124697
0.000783359
0.00170724
0.00171675
0.000792301
0.000121602
0.000118518
0.000802902
0.00172927
0.00174497
0.000815324
0.000115469
0.000112492
0.000829665
0.00176395
0.00178559
0.000845563
0.000109587
0.00010679
0.00086334
0.00181128
0.0018402
0.000882499
0.000104091
0.000101475
0.000902651
0.00187267
0.00190813
0.000923521
9.89387e-05
9.62461e-05
0.000941596
0.0019455
0.00198406
0.000954778
9.45973e-05
9.4062e-05
0.000958338
0.00202321
0.00206444
0.000957808
9.29077e-05
9.08926e-05
0.000949982
0.00209559
0.0021057
0.00092973
8.78148e-05
8.3779e-05
0.000894971
0.0020872
0.00203857
0.000846447
7.88848e-05
7.3352e-05
0.000783544
0.00195531
0.00183367
0.000706888
6.76638e-05
6.23885e-05
0.000621109
0.00167422
0.00146423
0.000523722
5.77967e-05
5.51728e-05
0.000416297
0.00121169
0.00102576
0.000352974
5.43728e-05
5.43842e-05
0.000324045
0.000925054
0.000879872
0.000309244
5.50034e-05
5.57e-05
0.000302039
0.00086123
0.000856808
0.000301884
5.65224e-05
5.72898e-05
0.000306171
0.000866162
0.000884983
0.000313014
5.7952e-05
5.85036e-05
0.000320594
0.000905578
0.000927115
0.000329003
5.89061e-05
5.91141e-05
0.000336918
0.000948895
0.000968126
0.000343824
5.91786e-05
5.91561e-05
0.000348986
0.000984985
0.00100278
0.000355036
5.89752e-05
5.86016e-05
0.000359155
0.00101558
0.00102585
0.00036285
5.81124e-05
5.7474e-05
0.000365563
0.00103319
0.00103697
0.000367285
5.66969e-05
5.5817e-05
0.000368116
0.0010377
0.00103486
0.000367785
5.47805e-05
5.36516e-05
0.000366617
0.00102893
0.00101959
0.000364349
5.24079e-05
5.10385e-05
0.000361053
0.00100701
0.000991276
0.000356853
4.95689e-05
4.80019e-05
0.000351725
0.00097246
0.000950249
0.00034553
4.62983e-05
4.45083e-05
0.000338519
0.000924809
0.000895516
0.000330356
4.25455e-05
4.05468e-05
0.000321317
0.000861987
0.000823259
0.000310759
3.83013e-05
3.57529e-05
0.000298527
0.000777459
0.00071969
0.000282898
3.26863e-05
2.92664e-05
0.000262004
0.000642863
0.000536416
0.000231338
2.47612e-05
1.9292e-05
0.000184692
0.00038933
0.000197553
0.000100122
1.42337e-05
9.11563e-06
4.38569e-05
4.97098e-05
6.25535e-05
8.4697e-05
0.000104865
0.000126125
0.000140028
0.000153697
0.000163163
0.000172148
0.000179202
0.000185397
0.000190596
0.000195109
0.000197168
0.00019956
0.000199826
0.000221339
0.000212613
0.000203681
0.000187838
0.000119187
6.65859e-05
8.27087e-05
9.84048e-05
6.63662e-05
3.17414e-05
3.45744e-05
3.61889e-05
3.33347e-05
2.93937e-05
2.57439e-05
1.50748e-05
1.16663e-05
9.31001e-06
7.51053e-06
5.66979e-06
1.23923e-05
2.28937e-05
3.67955e-05
6.32229e-05
0.000157564
0.000110395
6.69835e-05
2.81952e-05
7.16048e-06
9.05373e-06
5.2917e-05
0.00012584
0.000196308
0.000265682
0.000348988
0.000253369
0.000160661
6.66761e-05
1.04948e-05
1.12336e-05
7.58971e-05
0.000184281
0.000294872
0.000405816
0.000440283
0.000321313
0.000198394
8.14281e-05
1.17439e-05
1.18027e-05
8.30733e-05
0.00020301
0.000329686
0.000452517
0.000452197
0.000328658
0.000201958
8.24737e-05
1.16036e-05
1.12671e-05
8.11952e-05
0.000198468
0.000323099
0.000445426
0.000434746
0.000316115
0.000194453
7.99768e-05
1.08492e-05
1.04898e-05
7.92813e-05
0.000191739
0.000310861
0.000427075
0.000424707
0.000308337
0.000190563
7.94241e-05
1.01862e-05
9.92823e-06
7.96139e-05
0.000189737
0.00030689
0.000423323
0.000422515
0.000305312
0.000188652
7.95089e-05
9.60997e-06
9.22086e-06
7.81732e-05
0.000185652
0.000301946
0.00042018
0.000410677
0.000292531
0.00017846
7.44907e-05
8.6222e-06
8.03723e-06
6.72052e-05
0.000164858
0.000276004
0.000394458
0.000371079
0.000252312
0.000145438
5.71025e-05
7.18857e-06
5.79225e-06
4.30603e-05
0.000118837
0.000220494
0.00034037
0.000298227
0.000178465
8.07475e-05
2.27217e-05
3.63812e-06
2.44958e-06
1.07811e-05
5.05254e-05
0.000125672
0.000239245
0.000165183
6.9147e-05
2.95047e-05
8.36093e-06
2.68646e-06
3.31448e-06
5.07056e-06
1.55511e-05
4.40205e-05
9.10301e-05
5.97112e-05
2.06991e-05
8.02115e-06
6.47692e-06
6.52083e-06
5.47871e-06
6.69671e-06
9.22374e-06
2.41756e-05
6.50402e-05
7.30059e-05
3.05182e-05
1.20279e-05
7.01864e-06
4.40377e-06
4.25292e-06
7.04801e-06
1.52722e-05
3.79365e-05
8.24805e-05
8.47256e-05
3.46358e-05
1.26077e-05
5.96616e-06
6.57037e-06
6.61865e-06
6.32033e-06
1.28179e-05
3.50015e-05
8.55554e-05
9.16848e-05
4.20961e-05
1.64846e-05
7.40082e-06
4.73333e-06
5.6854e-06
7.07495e-06
1.73525e-05
4.34236e-05
9.47635e-05
9.90782e-05
4.53392e-05
1.78493e-05
7.34978e-06
5.7395e-06
6.58132e-06
7.47921e-06
1.79294e-05
4.40133e-05
9.85287e-05
0.000103381
4.6017e-05
1.77641e-05
7.83179e-06
6.82135e-06
6.28887e-06
9.44179e-06
1.93217e-05
4.63085e-05
0.00010138
0.00010515
4.84242e-05
1.99725e-05
7.95601e-06
7.4928e-06
7.87714e-06
9.02659e-06
2.02265e-05
4.66448e-05
0.000103833
0.0001084
5.18478e-05
2.21856e-05
9.92624e-06
6.62078e-06
7.6591e-06
9.40855e-06
2.47344e-05
5.52242e-05
0.000112869
0.000120849
5.96149e-05
2.47367e-05
1.00454e-05
6.69239e-06
7.35362e-06
1.04499e-05
2.6428e-05
5.96283e-05
0.000119681
0.000128812
6.31442e-05
2.70687e-05
9.71686e-06
7.69622e-06
7.93432e-06
1.1872e-05
2.81145e-05
6.15237e-05
0.000126175
0.000135464
6.92372e-05
3.041e-05
1.0111e-05
7.41936e-06
8.71609e-06
1.18597e-05
3.1097e-05
6.4888e-05
0.000133266
0.000142229
7.45273e-05
3.32956e-05
1.16415e-05
7.07944e-06
8.70349e-06
1.19943e-05
3.55752e-05
7.27521e-05
0.000144206
0.000153915
8.25224e-05
3.67094e-05
1.22326e-05
6.88598e-06
8.45211e-06
1.22127e-05
3.79417e-05
7.85978e-05
0.000151548
0.000157739
8.3841e-05
3.72864e-05
1.23007e-05
7.9925e-06
7.94645e-06
1.48272e-05
4.08087e-05
8.39785e-05
0.000156209
0.000165901
9.08991e-05
4.08827e-05
1.27658e-05
7.71926e-06
8.0695e-06
1.57093e-05
4.27447e-05
8.79987e-05
0.00016187
0.000168932
9.17951e-05
4.2123e-05
1.28251e-05
8.68955e-06
9.00136e-06
1.69511e-05
4.4715e-05
8.87657e-05
0.0001653
0.000175546
9.59078e-05
4.4639e-05
1.29765e-05
9.11004e-06
1.04056e-05
1.59952e-05
4.72495e-05
9.08012e-05
0.00017153
0.000182508
0.000102302
4.80689e-05
1.4772e-05
8.86045e-06
1.11367e-05
1.49301e-05
5.14459e-05
9.83938e-05
0.00018292
0.000189701
0.000106673
5.11511e-05
1.69271e-05
8.96316e-06
1.0797e-05
1.52666e-05
5.42405e-05
0.000106892
0.000190877
0.000198085
0.000108225
5.34673e-05
1.59845e-05
9.8825e-06
1.02383e-05
1.98291e-05
5.76256e-05
0.000111454
0.000196246
0.000209344
0.000116286
5.68946e-05
1.59964e-05
9.63745e-06
1.10229e-05
1.95277e-05
6.03361e-05
0.000112405
0.000204627
0.00021894
0.00012471
6.04192e-05
1.73804e-05
9.39741e-06
1.14671e-05
1.93636e-05
6.50253e-05
0.000117353
0.000215683
0.00022635
0.000131076
6.39027e-05
1.94434e-05
9.42994e-06
1.14884e-05
1.94537e-05
6.83385e-05
0.000122976
0.000224391
0.000228252
0.000132049
6.53693e-05
2.09033e-05
1.05311e-05
1.09415e-05
2.12234e-05
7.10128e-05
0.000132639
0.000230651
0.000234457
0.000132581
6.64533e-05
1.8494e-05
1.18788e-05
1.207e-05
2.53967e-05
7.37393e-05
0.000132517
0.000231094
0.000244537
0.000142949
7.05189e-05
2.05398e-05
1.14468e-05
1.39299e-05
2.04377e-05
7.74991e-05
0.000138308
0.000245429
0.000252292
0.000146056
7.47281e-05
2.3018e-05
1.18445e-05
1.30044e-05
2.17185e-05
8.05212e-05
0.000154531
0.000258929
0.000265453
0.000150716
7.7851e-05
2.1834e-05
1.19901e-05
1.28722e-05
2.76227e-05
8.41851e-05
0.000154188
0.000264303
0.00027632
0.000158884
8.0203e-05
2.29695e-05
1.18101e-05
1.37943e-05
2.58951e-05
8.95723e-05
0.000151192
0.000270246
0.000280312
0.000165821
8.4666e-05
2.75388e-05
1.22444e-05
1.35164e-05
2.53376e-05
9.2234e-05
0.000159477
0.00028377
0.000285702
0.000164817
8.58432e-05
2.41726e-05
1.42454e-05
1.3507e-05
3.27286e-05
9.5935e-05
0.000172386
0.000291736
0.000304398
0.000173915
8.54546e-05
2.28073e-05
1.41407e-05
1.66972e-05
2.51341e-05
9.50003e-05
0.000160534
0.000285276
0.00028266
0.000163836
9.19245e-05
2.84984e-05
1.46527e-05
1.46388e-05
2.97802e-05
9.71067e-05
0.000180523
0.000294802
0.000308756
0.000182802
9.46349e-05
3.27367e-05
1.39284e-05
1.39652e-05
2.99978e-05
9.1307e-05
0.000183636
0.00031898
0.00032788
0.000175189
8.84627e-05
2.73641e-05
1.51294e-05
1.65787e-05
2.80736e-05
8.7507e-05
0.000203438
0.000359865
0.000500991
0.000276934
0.000123501
4.29536e-05
2.19107e-05
2.8123e-05
7.35919e-05
0.0002195
0.000495566
0.000895592
0.00111215
0.000679859
0.000341156
0.000118122
3.53535e-05
4.30001e-05
0.000176714
0.000470935
0.000864684
0.001343
0.00155685
0.00104506
0.00059823
0.000237361
5.01611e-05
5.62807e-05
0.000297079
0.000716121
0.00120937
0.0017539
0.00193727
0.00136256
0.000824021
0.000346491
6.11973e-05
6.61471e-05
0.000394201
0.000921819
0.00150025
0.00210105
0.00223102
0.00162114
0.00101246
0.000441092
7.08818e-05
7.50796e-05
0.000489273
0.00110472
0.00174958
0.00239124
0.00254227
0.00186441
0.00118292
0.000527181
7.87592e-05
8.30582e-05
0.0005559
0.00125591
0.00197919
0.0027007
0.00286415
0.00209859
0.00133253
0.000593147
8.83985e-05
9.73146e-05
0.000626917
0.00140921
0.00220832
0.00299359
0.00312377
0.00233103
0.00150467
0.000683847
0.000106347
0.000113723
0.000745714
0.00161386
0.00248296
0.00331638
0.00351133
0.00263755
0.0017236
0.000801624
0.000120487
0.000127356
0.000866391
0.00183339
0.00278972
0.00369896
0.00388913
0.00293282
0.00193584
0.000930886
0.000131801
0.000132662
0.000963945
0.00199341
0.00302422
0.00406602
0.00392009
0.00296297
0.00195684
0.000943293
0.000130111
0.000127343
0.000915721
0.0018938
0.00284084
0.00369487
0.00387901
0.00291551
0.00192437
0.000921926
0.000129642
0.00013118
0.00096339
0.00200837
0.0030488
0.00405553
0.00423139
0.00318464
0.00210233
0.00101861
0.000134616
0.000135154
0.00104702
0.00218242
0.00330922
0.00439687
0.00454781
0.00342036
0.0022521
0.00107809
0.000139018
0.000135538
0.00107971
0.0022767
0.00348071
0.00466382
0.00463908
0.00342992
0.00223952
0.00106519
0.000133618
0.000124417
0.0010042
0.00211097
0.00320617
0.00421796
0.00377043
0.00291129
0.00193694
0.000921871
0.000114811
0.000105279
0.000850779
0.00179925
0.00274796
0.00370192
0.00348045
0.00260339
0.00169397
0.000791641
9.88791e-05
9.21815e-05
0.000742427
0.00159329
0.00243621
0.00321109
0.00326217
0.00240756
0.00155702
0.000723184
9.12489e-05
8.95654e-05
0.000717076
0.00156014
0.00242836
0.00329731
0.00328908
0.00242975
0.00156199
0.000718417
9.00736e-05
8.95383e-05
0.000719836
0.00156161
0.00242935
0.00329191
0.00330496
0.0024361
0.00156347
0.000722395
9.07708e-05
8.90705e-05
0.000722611
0.00157079
0.00245367
0.0033383
0.00337085
0.00244882
0.00156716
0.000722572
8.9187e-05
8.5898e-05
0.000701728
0.0015172
0.00235915
0.00319096
0.00298991
0.00224617
0.00144901
0.000668529
8.27951e-05
8.35681e-05
0.000670752
0.00146591
0.00229146
0.00312643
0.00325913
0.00238808
0.00152439
0.000698449
8.69118e-05
8.92095e-05
0.000734809
0.00159136
0.00248823
0.00338968
0.00351678
0.00257726
0.00164892
0.00076066
8.95733e-05
8.80405e-05
0.000760048
0.0016586
0.00261048
0.0036098
0.00342998
0.00252935
0.00161533
0.00073683
8.45677e-05
8.03103e-05
0.000707613
0.00155974
0.00242445
0.00323069
0.00339545
0.00248501
0.00157948
0.000707153
7.91087e-05
8.29082e-05
0.000731294
0.00164279
0.00259631
0.00356163
0.00371519
0.00271055
0.00171674
0.000764126
8.61106e-05
8.82745e-05
0.000791606
0.0017738
0.00280896
0.00385864
0.00397619
0.00285508
0.00179804
0.000804444
8.91893e-05
8.80358e-05
0.000796724
0.00176505
0.00277958
0.00378785
0.00358941
0.00268767
0.0017277
0.000783812
8.71155e-05
8.77386e-05
0.000793184
0.0017638
0.00276915
0.00378326
0.00398206
0.00290654
0.00184028
0.000823011
9.03578e-05
9.48785e-05
0.000857089
0.00192449
0.00304249
0.00417275
0.0043529
0.00316967
0.00200312
0.000902389
9.79352e-05
9.9027e-05
0.000913159
0.00203975
0.00323479
0.00450662
0.00430631
0.00315695
0.00200715
0.000906813
9.76601e-05
9.593e-05
0.00090109
0.0019808
0.0030756
0.00410337
0.00433712
0.00317887
0.00202761
0.000914545
9.66314e-05
9.93463e-05
0.000950819
0.00212516
0.00334798
0.0045792
0.00481784
0.00350945
0.0022179
0.00099244
0.000104133
0.000107306
0.0010202
0.00226922
0.00359981
0.00501733
0.00481658
0.00353794
0.00225838
0.00102118
0.000107333
0.000105875
0.00101854
0.00223474
0.00346951
0.00461808
0.004898
0.00359522
0.00229124
0.00103564
0.000107314
0.000111902
0.00107834
0.00239411
0.00377788
0.0051878
0.00543294
0.00388865
0.00245556
0.00111184
0.000115836
0.000114905
0.00111385
0.00244649
0.00383654
0.00523228
0.00504488
0.00378496
0.00244002
0.00111435
0.000115357
0.000117904
0.0011448
0.00252378
0.00394832
0.00537213
0.00570985
0.0041653
0.00264079
0.00119368
0.000122399
0.000126222
0.00123065
0.00271739
0.00430847
0.00601667
0.0058195
0.00427365
0.00273596
0.00124922
0.000127989
0.000129479
0.00127054
0.00275387
0.00424649
0.00564246
0.00603467
0.00444704
0.00285851
0.00130839
0.000131559
0.000133817
0.00135518
0.00300306
0.00472255
0.0064544
0.00684432
0.00492024
0.00311126
0.00141332
0.000142905
0.000150853
0.0014687
0.00316562
0.00491791
0.00667247
0.0065297
0.00493254
0.00322205
0.00151109
0.00015863
0.000166895
0.00157547
0.0033446
0.0051741
0.00700363
0.00748063
0.00540448
0.00346845
0.00163465
0.000174248
0.000177352
0.00167054
0.00351685
0.00541551
0.007319
0.00719281
0.00543948
0.00356255
0.00169237
0.000174025
0.000169283
0.00169707
0.00366116
0.00570035
0.00772679
0.0082809
0.00593818
0.00374499
0.00167824
0.000156773
0.000159701
0.0016811
0.00378768
0.00597307
0.00813534
0.00807221
0.00605093
0.00388844
0.00176186
0.00017513
0.000190903
0.00185085
0.00403535
0.00631625
0.00873057
0.00869318
0.00644255
0.00416529
0.00193793
0.000205183
0.000222007
0.00204361
0.00431981
0.00661067
0.00871798
0.00948268
0.00694
0.00450812
0.00214771
0.000237695
0.000253111
0.00224955
0.00466824
0.00710853
0.00949953
0.00956615
0.00732275
0.00486107
0.00236407
0.00026993
0.000285946
0.00248534
0.00508813
0.00771606
0.010428
0.0105002
0.00792953
0.0052823
0.00259746
0.000302719
0.000321073
0.00272226
0.00550585
0.00819881
0.010595
0.0114908
0.00857698
0.00569222
0.00281396
0.000331101
0.000316939
0.00280214
0.00570225
0.00862084
0.0114705
0.0113939
0.00854066
0.00558286
0.00268952
0.000309924
0.00033157
0.00267417
0.00551372
0.00848804
0.0114028
0.0117045
0.00869046
0.00564315
0.00277331
0.000373599
0.000389606
0.00289882
0.00588324
0.00896321
0.0119619
0.0127122
0.00948674
0.00617434
0.00297371
0.000374403
0.000340183
0.00290741
0.00624508
0.00970439
0.0132459
0.0129355
0.00962315
0.00624295
0.00296734
0.000355508
0.000431781
0.00318272
0.00634248
0.00954396
0.0126694
0.0124333
0.00944302
0.00643477
0.00339011
0.000498203
0.00052386
0.00344122
0.00629551
0.00920228
0.0121132
0.011633
0.00870663
0.00580537
0.00298756
0.00052124
0.000498831
0.00239482
0.0050317
0.0078739
0.0108144
0.00911713
0.00662713
0.00416544
0.00187998
0.000440958
0.000377827
0.0015104
0.00351378
0.00577068
0.00809126
0.00711725
0.00504571
0.00310485
0.00138217
0.000339697
0.000316242
0.00120369
0.00279074
0.00462508
0.00662693
0.00595886
0.00419153
0.00253256
0.00107953
0.000288928
0.000267318
0.000964309
0.00234747
0.00396414
0.00573474
0.0052026
0.00360753
0.00212553
0.00084721
0.000237994
0.000200424
0.000766256
0.00202893
0.00351878
0.00516454
0.00475207
0.00329326
0.0019175
0.00071311
0.000178469
0.000180344
0.00078346
0.00195553
0.00332839
0.00486475
0.00455576
0.00321703
0.00195153
0.000822252
0.000179806
0.000177037
0.000865676
0.00201043
0.00331097
0.00474822
0.00460481
0.00322312
0.00199517
0.000879014
0.000173597
0.000165637
0.000855302
0.00190354
0.00300116
0.00405675
0.00419341
0.00303737
0.00192724
0.000868519
0.000157746
0.000156158
0.000918555
0.00194527
0.00300235
0.00408085
0.00434432
0.00315443
0.00203518
0.000977055
0.000160807
0.000166014
0.00100826
0.00205809
0.00314762
0.0043385
0.00396602
0.00302339
0.00203179
0.00102682
0.000170035
0.000170546
0.00102074
0.00205111
0.00308866
0.00414574
0.004139
0.00305351
0.00203631
0.00101599
0.000169136
0.000164968
0.000978939
0.00197003
0.0029247
0.00380864
0.00397329
0.00297423
0.00196744
0.000945413
0.000158428
0.00015163
0.000933826
0.00194319
0.00293468
0.00397309
0.00366307
0.00281733
0.00188653
0.000905862
0.000145393
0.000139425
0.000908903
0.00190622
0.00287086
0.00381185
0.00379839
0.00289282
0.00194547
0.000953618
0.000137959
0.000142381
0.00100768
0.00203799
0.00305049
0.00405501
0.00411746
0.00307632
0.00206968
0.00103689
0.000146005
0.000147627
0.00103852
0.00205365
0.00300003
0.0038634
0.00405223
0.00308536
0.00208647
0.0010518
0.00014848
0.000149476
0.00106063
0.00209514
0.00309058
0.004105
0.00385411
0.00300754
0.00206483
0.00104943
0.000149272
0.000149762
0.00106175
0.00209824
0.00308744
0.00403647
0.00408845
0.00308127
0.00208907
0.00105061
0.000149134
0.000147991
0.00104122
0.00205705
0.00299914
0.00384645
0.00402177
0.00307175
0.00207746
0.00104068
0.000146725
0.000145251
0.00102671
0.00207081
0.00307152
0.00407803
0.00383721
0.00298685
0.00203552
0.00101435
0.000142913
0.000141356
0.00101582
0.00206106
0.00306083
0.00401292
0.00407298
0.00306085
0.00205702
0.00101339
0.000139621
0.000137324
0.000993893
0.00202331
0.00298498
0.00383818
0.00401751
0.00306616
0.00206289
0.00101917
0.000136858
0.000136618
0.00101403
0.00206071
0.003069
0.0040869
0.00385747
0.00299755
0.00203209
0.00100465
0.000135445
0.000134215
0.00100208
0.00206454
0.0030817
0.00404572
0.00412326
0.00308638
0.00205257
0.000991838
0.000131994
0.000127897
0.00094303
0.00197658
0.00296634
0.00391354
0.0036551
0.00283001
0.00189175
0.00089799
0.000122958
0.000119925
0.000897869
0.00190126
0.00287672
0.00380231
0.0038624
0.00287157
0.00189619
0.00090105
0.000118163
0.00011722
0.000901666
0.00187329
0.00280354
0.00364052
0.00381676
0.00288574
0.00191073
0.000913983
0.000117046
0.000116417
0.00090886
0.00190978
0.00289031
0.00388705
0.00366563
0.00282365
0.00188494
0.000903368
0.000115307
0.000114976
0.000903747
0.00191404
0.00290163
0.00384152
0.00391492
0.0029087
0.0019173
0.000913025
0.000114367
0.000113901
0.000892703
0.0018877
0.00283961
0.00368828
0.00386433
0.00291621
0.00192038
0.000906235
0.000113
0.000112969
0.000901407
0.00191583
0.00291531
0.00393193
0.00370013
0.00284357
0.00188751
0.000892424
0.000111951
0.000111714
0.000902038
0.00191663
0.00291706
0.00387271
0.00393854
0.00291749
0.00191204
0.00089411
0.000111271
0.000109947
0.00088152
0.00187957
0.00283906
0.00370138
0.00387077
0.00290916
0.00190488
0.000890708
0.000109714
0.000109131
0.000881933
0.00189735
0.00290759
0.00393596
0.00369366
0.00282602
0.00185928
0.000862166
0.00010736
0.000106161
0.000871779
0.00188521
0.00289165
0.0038593
0.00391845
0.00288414
0.00187708
0.000871498
0.000105537
0.000104435
0.000851847
0.00184058
0.00280586
0.00367605
0.00383941
0.00287101
0.00186553
0.000858626
0.000103243
0.000102876
0.000857241
0.00185701
0.00286531
0.00389516
0.00365502
0.00278762
0.00182764
0.000841735
0.000101675
0.000100157
0.000842197
0.00184677
0.00285175
0.00381907
0.00387589
0.00284494
0.00183991
0.000845027
9.92642e-05
9.86913e-05
0.000826269
0.00181191
0.00277541
0.00364415
0.00381906
0.00285017
0.00184242
0.000839639
9.83481e-05
9.88633e-05
0.000838155
0.0018465
0.00286003
0.00389577
0.00369417
0.00281196
0.00183825
0.000840004
9.86597e-05
0.000100944
0.000860695
0.0018897
0.0029209
0.00390733
0.00402148
0.00296466
0.00192117
0.00087721
0.000102928
0.000104814
0.000900698
0.00195589
0.00297789
0.00389029
0.00417586
0.00315679
0.00206359
0.000943052
0.000109629
0.000113245
0.00100062
0.00215382
0.0032934
0.0044313
0.00438768
0.00338382
0.00225202
0.00104782
0.000124183
0.000132744
0.00115229
0.00244822
0.00364905
0.00468748
0.00513247
0.00402364
0.00271912
0.00127821
0.000151038
0.000168767
0.00144252
0.00308362
0.00463475
0.00603962
0.00656259
0.00494892
0.00328939
0.00154117
0.000181328
0.00018943
0.00156214
0.00330504
0.00495487
0.0065198
0.00617815
0.00482093
0.00324663
0.00154275
0.000191437
0.000195417
0.00156212
0.00330166
0.00493968
0.00643871
0.00651623
0.00502608
0.00338279
0.00160906
0.000202884
0.000210842
0.00168115
0.00353525
0.00531298
0.00694571
0.00711187
0.00537422
0.00358659
0.00171534
0.000218751
0.000223937
0.0017094
0.00354302
0.00524475
0.00672061
0.00702716
0.00538325
0.0035988
0.00172266
0.000214787
0.000212884
0.00171913
0.0035875
0.00538063
0.00713707
0.00670581
0.00521999
0.00351281
0.00168674
0.000209912
0.000209007
0.00170556
0.00356745
0.0053513
0.00699975
0.00710135
0.00534804
0.00356398
0.00171068
0.000209187
0.000208019
0.00168187
0.00349249
0.00518614
0.00666859
0.00696189
0.00531262
0.00353824
0.00169074
0.000206805
0.000205998
0.0016911
0.00353115
0.00530929
0.00706378
0.00662944
0.00514343
0.00345201
0.00164788
0.00020426
0.000203827
0.00166581
0.003501
0.00527205
0.00692535
0.00702705
0.00527019
0.00349557
0.00166823
0.000203771
0.000201805
0.00163688
0.00342338
0.00510661
0.00659165
0.00688424
0.00523043
0.00346674
0.00164495
0.000200787
0.000199756
0.0016302
0.00344489
0.00521782
0.00697519
0.00653051
0.00504431
0.00336403
0.0015951
0.000197714
0.000196135
0.00159163
0.00339251
0.00515431
0.00681402
0.00687804
0.00512807
0.00337021
0.00158145
0.000193588
0.000192002
0.00155818
0.00329296
0.00495188
0.00642542
0.0066652
0.00505052
0.00333658
0.00157395
0.000193141
0.000196226
0.00159904
0.00338527
0.00509313
0.00667538
0.00707672
0.00534352
0.00350434
0.00164288
0.000200542
0.000202566
0.00164765
0.00351853
0.00534944
0.00716942
0.0067063
0.00516603
0.00343113
0.00162127
0.000202005
0.000200815
0.00162201
0.00346142
0.00527167
0.00698729
0.00702518
0.00522312
0.0034196
0.00160142
0.000198213
0.000195522
0.00155873
0.00332576
0.00502767
0.00653507
0.00677027
0.00510991
0.00335491
0.00156722
0.000194795
0.000196858
0.00158482
0.00339174
0.00513602
0.00675703
0.00715846
0.00537897
0.00350451
0.00162497
0.000199706
0.000200833
0.00163023
0.00350635
0.00536787
0.00722813
0.00672989
0.00516258
0.00340743
0.00159232
0.000199541
0.000197715
0.0015902
0.00342987
0.00526356
0.00701252
0.00703552
0.00520288
0.00338224
0.00156375
0.000195641
0.000193827
0.00152877
0.00328237
0.0049894
0.00651457
0.00674834
0.00506596
0.00330475
0.00153065
0.000193538
0.000195166
0.00154781
0.00333688
0.00508164
0.00671987
0.00712306
0.00532202
0.00344101
0.00158298
0.000198138
0.00019873
0.00158417
0.0034407
0.00530606
0.00718093
0.00665354
0.00508627
0.00333924
0.00154932
0.000197051
0.00019547
0.00154332
0.00335148
0.00517626
0.00693058
0.00694178
0.00511164
0.00330098
0.00151406
0.00019343
0.000190369
0.00146133
0.00318507
0.00487618
0.0063992
0.00662652
0.00494787
0.0031983
0.00146591
0.000189508
0.000190615
0.00147855
0.00322365
0.00494426
0.00657506
0.0069726
0.00516955
0.00331293
0.00150957
0.000192576
0.000193328
0.0015098
0.00330444
0.00513364
0.00699787
0.00644507
0.00490394
0.00320086
0.0014753
0.000191364
0.000191665
0.00147591
0.0032162
0.00497719
0.00667455
0.00661763
0.00497643
0.00324511
0.00149332
0.000193932
0.000196196
0.00151893
0.0033245
0.00518771
0.00700902
0.007029
0.00515175
0.00330676
0.00150969
0.000195671
0.000192992
0.00145443
0.00318986
0.00490049
0.00644892
0.00667578
0.00496449
0.00319244
0.00145214
0.000191789
0.000192635
0.00145939
0.00320395
0.00494529
0.00659943
0.00698952
0.00515326
0.00328429
0.0014854
0.00019388
0.000193578
0.00148126
0.00326692
0.00510962
0.00699738
0.00640425
0.00485528
0.0031522
0.00144355
0.00019207
0.000191939
0.00143699
0.00315799
0.00491945
0.00663192
0.00655054
0.00489983
0.00317208
0.00144596
0.000192958
0.000194672
0.00147125
0.00325243
0.00511218
0.00694419
0.00695142
0.00506411
0.00322854
0.00146558
0.000194814
0.000192989
0.00140697
0.0031053
0.004801
0.00634644
0.00657251
0.00485669
0.00309919
0.0013966
0.000191565
0.000192274
0.00141219
0.00311398
0.00483512
0.00648591
0.00687179
0.00504061
0.00319184
0.00143543
0.000193753
0.000192512
0.00142628
0.00316403
0.00498769
0.00687009
0.00625036
0.00471713
0.00303807
0.00137233
0.000189685
0.000187735
0.00136183
0.00303176
0.00476854
0.00647459
0.00636743
0.00473262
0.00303301
0.00136422
0.000187928
0.000189191
0.00138696
0.00310143
0.00492483
0.00674942
0.00673845
0.00486834
0.00307018
0.00136091
0.000188173
0.000184225
0.00129446
0.00292507
0.0045823
0.00610057
0.00631766
0.00462195
0.00291316
0.00128686
0.00018177
0.000183759
0.00130678
0.00292506
0.0045934
0.00620494
0.00655065
0.00477952
0.00301996
0.00135056
0.000188285
0.000191528
0.00137524
0.00306094
0.0047866
0.00645548
0.00686148
0.00500326
0.00314378
0.00140497
0.000194434
0.000194586
0.00139636
0.00312547
0.00495099
0.00684547
0.00618828
0.00464738
0.0029687
0.00132133
0.000191405
0.000189257
0.00131123
0.00295211
0.00468904
0.00641687
0.0062847
0.0046409
0.00294795
0.0013141
0.000188959
0.000189037
0.00133021
0.00300604
0.00482698
0.00666342
0.00663623
0.00476051
0.00297267
0.0012975
0.000187106
0.000183233
0.00124969
0.0028268
0.00446015
0.00597481
0.00619474
0.00450167
0.00281314
0.00124005
0.000181845
0.000182235
0.00124522
0.00281611
0.00445615
0.00605836
0.00640938
0.00463779
0.00290097
0.00128336
0.000185219
0.000189147
0.00130605
0.00293573
0.00463263
0.00628662
0.00668443
0.00483715
0.00300594
0.00132232
0.000191053
0.000190325
0.00131966
0.00298621
0.0047766
0.00665616
0.00597231
0.00445676
0.00281164
0.00122376
0.000186455
0.000183196
0.00121531
0.00278583
0.00447845
0.00618599
0.00603362
0.00442746
0.00278423
0.00121979
0.000183861
0.000186268
0.00125677
0.002863
0.00460773
0.00638894
0.00624945
0.00459202
0.00289575
0.00128119