/*--------------------------------*- C++ -*----------------------------------*\
| =========                 |                                                 |
| \\      /  F ield         | OpenFOAM: The Open Source CFD Toolbox           |
|  \\    /   O peration     | Version:  v2006                                 |
|   \\  /    A nd           | Website:  www.openfoam.com                      |
|    \\/     M anipulation  |                                                 |
\*---------------------------------------------------------------------------*/
FoamFile
{
    version     2.0;
    format      ascii;
    class       volScalarField;
    location    "0.09";
    object      yPlus;
}
// * * * * * * * * * * * * * * * * * * * * * * * * * * * * * * * * * * * * * //

dimensions      [0 0 0 0 0 0 0];


internalField   uniform 0;

boundaryField
{
    bottomEmptyFaces
    {
        type            empty;
    }
    topEmptyFaces
    {
        type            empty;
    }
    inlet
    {
        type            calculated;
        value           uniform 0;
    }
    outlet
    {
        type            calculated;
        value           uniform 0;
    }
    walls
    {
        type            calculated;
        value           nonuniform List<scalar> 
1343
(
7.76899
7.76641
7.76389
7.76115
7.75862
7.75615
7.7536
7.75109
7.74865
7.7461
7.74381
7.74125
7.73886
7.73655
7.73419
7.73181
7.72957
7.72729
7.72501
7.72285
7.72051
7.71845
7.71616
7.71411
7.71196
7.70982
7.70772
7.70576
7.70356
7.70164
7.69937
7.69761
7.69535
7.69349
7.69141
7.68958
7.68763
7.68584
7.6838
7.68203
7.67989
7.67828
7.67619
7.67446
7.67252
7.67082
7.66893
7.66722
7.66549
7.66366
7.66202
7.66025
7.65858
7.65677
7.65518
7.65337
7.65165
7.65006
7.64832
7.64669
7.64501
7.64343
7.64177
7.64021
7.63857
7.63701
7.63542
7.63385
7.63228
7.63079
7.62918
7.62768
7.62613
7.6246
7.62312
7.62157
7.62002
7.6186
7.61701
7.61557
7.61407
7.61267
7.61121
7.60975
7.60831
7.60683
7.60543
7.604
7.60264
7.6012
7.59979
7.59846
7.59705
7.5957
7.59425
7.59298
7.5916
7.59025
7.5889
7.58755
7.58615
7.58488
7.58353
7.58224
7.58093
7.57961
7.57837
7.577
7.57582
7.57441
7.57329
7.57189
7.57081
7.5694
7.56823
7.56695
7.56574
7.56449
7.5633
7.56204
7.56086
7.55959
7.55836
7.5572
7.55597
7.55481
7.55353
7.55243
7.55115
7.55005
7.54879
7.54771
7.54645
7.54538
7.54414
7.54307
7.54184
7.54078
7.53956
7.53851
7.53729
7.53625
7.53505
7.53402
7.53281
7.53179
7.5306
7.52958
7.52839
7.52738
7.52621
7.52521
7.52403
7.52304
7.52187
7.52089
7.51973
7.51874
7.5176
7.51661
7.51554
7.51453
7.51346
7.51243
7.51128
7.5103
7.50926
7.50828
7.50723
7.50622
7.50518
7.50417
7.50314
7.50214
7.50112
7.50013
7.4991
7.49812
7.49711
7.49613
7.49512
7.49415
7.49315
7.49218
7.49118
7.49021
7.48922
7.48826
7.48727
7.48631
7.48533
7.48438
7.48341
7.48246
7.4815
7.48056
7.47959
7.47866
7.47771
7.47679
7.47584
7.47492
7.47399
7.47308
7.47215
7.47125
7.47033
7.46944
7.46853
7.46765
7.46675
7.46588
7.46498
7.46413
7.46325
7.4624
7.46153
7.4607
7.45985
7.45903
7.45818
7.45739
7.45656
7.45577
7.45495
7.45418
7.45338
7.45262
7.45182
7.45107
7.45029
7.44955
7.44878
7.44805
7.44729
7.44657
7.44583
7.44511
7.44439
7.44369
7.44299
7.44235
7.44164
7.44101
7.4403
7.43969
7.43908
7.43847
7.43793
7.43733
7.43686
7.43629
7.4359
7.43535
7.43502
7.43453
7.43425
7.43387
7.43367
7.43342
7.43327
7.43319
7.43322
7.43327
7.43348
7.43371
7.43423
7.43477
7.43556
7.43644
7.43778
7.43915
7.44119
7.44339
7.44669
7.45031
7.45597
7.46237
7.47384
7.48925
7.52772
7.50525
7.68594
11.0089
16.1853
19.7761
22.6243
24.7911
26.5362
27.821
28.9326
30.2294
31.8837
33.8344
35.8137
37.9119
39.9405
41.6289
42.7506
42.3408
40.8899
35.561
27.7021
27.5284
27.4283
26.2634
26.7818
26.2717
25.8663
26.0404
26.3815
26.2654
24.835
24.6924
25.5742
25.2147
24.8451
25.3025
27.1877
27.102
26.7531
26.2966
26.0019
25.7363
25.4158
25.0976
26.4628
26.1073
26.9224
25.792
26.285
25.7325
25.5809
27.2318
26.8617
26.3814
24.9343
24.8271
24.9702
25.5543
26.7197
26.5562
25.9362
25.6581
25.6962
26.8502
27.0072
26.6124
26.747
26.4758
25.9961
26.2052
25.6589
25.6002
25.449
26.5819
26.0095
26.4738
26.0957
26.2741
26.6184
26.7761
25.8219
25.918
26.6233
26.2106
26.4526
25.7118
25.5461
25.8386
25.8194
25.5913
25.6724
25.4558
25.4728
24.9792
24.378
25.3542
25.1005
24.8267
24.1298
24.3136
24.5788
24.1824
25.8168
25.0826
25.0718
25.1106
25.3954
25.7964
25.4099
25.6995
25.5023
25.5353
24.903
25.1611
24.9623
25.0971
24.9291
24.1141
24.4389
25.408
25.5965
25.5345
25.2742
25.6346
25.415
25.3745
26.3478
25.6461
25.9163
26.1254
26.2688
25.8744
25.1269
25.2408
25.9475
26.0168
25.7159
25.4335
25.5928
25.4656
24.4014
24.9261
25.4746
25.8829
25.7084
25.315
24.9117
24.4977
24.1801
24.2842
24.8025
25.324
24.8229
25.7893
25.6573
24.4526
24.261
25.033
24.5747
25.0214
24.1657
24.5236
24.3052
24.1084
25.2177
25.0268
25.4905
25.2054
24.7217
24.4015
25.3488
24.4525
24.8365
24.6826
24.4611
25.2488
24.9752
24.564
24.1945
24.935
24.0421
24.3895
25.5142
24.5642
24.3972
24.4232
24.8789
25.7795
25.6852
25.311
24.8312
25.6922
25.4815
26.4983
26.3963
26.1488
25.0922
25.5311
25.2893
24.8559
25.6319
24.6039
25.044
24.5803
24.4385
26.0288
25.7029
25.8819
25.4348
25.1183
24.9859
25.2579
24.3131
24.7448
33.3066
32.7713
32.4876
33.3547
33.1188
33.1959
33.2979
32.9457
32.4467
31.8717
31.3505
31.0703
32.5606
32.916
19.8052
19.8428
19.778
19.2452
18.7292
18.9354
19.7596
19.4405
19.6083
18.1015
17.7831
17.9461
39.8176
40.1669
40.1932
39.9865
15.6563
17.4888
39.168
16.9461
15.8898
16.2916
39.3471
18.4993
18.1331
18.195
40.4946
41.8101
41.0903
40.377
40.0105
40.0945
40.5346
40.3797
40.885
40.4584
39.7219
40.7936
40.8248
15.1535
14.7433
14.9683
14.9723
15.0917
14.802
14.8334
13.9838
13.1529
42.7436
13.6312
13.6799
13.8378
13.2711
13.4722
43.006
42.6962
14.4599
14.5371
14.568
14.0664
14.2252
15.425
15.5083
15.5313
15.2341
15.278
43.6583
43.4141
43.2411
43.7627
43.7065
43.8077
45.6134
47.4
46.7829
47.5109
47.7161
47.2735
47.0301
47.0281
43.7767
44.5807
44.1056
42.2364
42.5927
42.3757
35.0057
34.8856
34.7761
34.2586
34.4458
66.5187
37.6818
37.6385
69.5232
37.6559
69.8105
37.1644
36.7115
36.4431
36.4185
37.0302
36.6898
37.6658
37.435
37.0917
36.999
36.3076
35.71
35.9956
36.4812
36.529
36.1904
35.973
36.2843
36.3519
35.9753
36.1876
35.7568
35.0861
34.6705
23.487
23.8622
23.0258
20.9206
21.9673
22.4142
18.8667
18.2816
34.4301
20.0928
20.994
21.861
18.476
19.2664
22.0081
21.3213
20.709
22.6025
22.5372
26.6517
31.6339
42.1265
45.2721
35.5495
38.4464
23.9458
23.722
50.3851
58.7765
33.8237
33.8641
33.4843
33.6596
33.3542
34.4563
34.0646
33.2675
33.4834
35.3767
35.3231
35.0106
34.3951
33.98
33.7877
34.026
34.8703
35.0582
32.9739
32.5647
32.4591
32.7899
38.7282
39.4338
39.0296
38.6562
38.5541
38.5141
37.9922
66.374
57.4863
47.3353
45.2621
51.7336
49.7359
44.0225
49.6024
42.0193
41.1245
43.8783
40.0949
42.5351
37.8676
33.511
35.7413
31.4671
27.159
29.3879
25.2673
21.1354
23.1785
20.7469
22.4014
23.4677
23.0281
23.0562
22.0826
19.346
19.6733
19.5605
19.9592
20.9886
18.9072
17.7044
17.4054
16.9325
17.1298
16.6985
16.1925
15.5977
15.2006
15.2604
15.3235
14.803
14.1959
14.1981
14.0055
49.5837
50.522
51.7494
51.163
50.9004
52.5764
51.3087
51.3554
52.5788
52.0355
49.8914
51.8118
50.8172
52.1212
52.1781
52.6027
52.3978
52.8304
53.395
53.0037
52.1172
51.3624
49.5972
46.905
43.9365
40.7503
37.3061
33.5952
29.5074
25.0973
20.3271
48.5116
47.633
47.2868
48.9522
48.6581
48.6106
14.1944
13.7746
13.1413
15.8372
12.9081
10.6739
9.37061
9.25087
8.99816
8.69729
8.43548
8.21833
8.04861
7.91795
7.8452
7.81071
7.79748
7.79678
7.81242
7.82623
7.84667
7.86413
7.88267
7.89913
7.91671
7.93144
7.94583
12.7821
12.9179
12.6892
7.95909
13.0986
7.97049
12.9541
7.97951
7.98834
7.99643
8.00354
8.00964
8.01466
12.5497
11.9517
11.6052
11.6443
11.5226
11.7968
11.6757
11.3894
10.9658
10.4632
11.1851
10.6221
8.01873
8.02172
11.6443
8.02368
11.8469
8.02431
8.02408
8.02291
8.02087
8.01786
8.01419
8.01021
8.00541
8.00032
7.99476
7.98904
7.98301
7.97693
7.97093
7.96481
7.95846
7.95236
7.94607
7.9401
7.93368
7.9282
7.92227
7.91672
7.91101
7.9057
7.90023
7.89519
7.88998
7.88517
7.88021
7.87565
7.87069
7.86661
7.86188
7.85777
7.85375
7.84981
7.84573
7.84198
7.83807
7.83446
7.83048
7.82705
7.82345
7.82011
7.81663
7.81344
7.81023
7.80695
7.80384
7.80066
7.79768
7.79474
7.79169
7.78877
7.78588
7.78295
7.78002
7.77734
7.77442
7.77189
13.6363
22.4026
15.0423
14.5164
13.8987
17.6508
16.4389
20.0265
24.0513
25.1237
27.9503
26.8975
25.9102
25.3857
28.9969
28.4688
29.6826
28.2164
27.7018
27.8221
27.7254
27.4094
27.5705
27.3024
27.0146
27.072
13.0999
13.0316
13.077
13.3764
13.073
11.7987
11.4947
11.0524
11.3604
10.9501
11.7953
11.7798
12.0046
11.8416
11.9123
11.845
12.0675
13.0764
12.1908
13.9227
16.4534
15.1832
17.67
17.9237
18.3838
17.8727
17.8014
17.3468
17.1433
17.205
16.8391
17.542
17.4281
16.8402
15.9317
15.0371
14.0617
12.8673
11.6883
10.982
10.4135
9.92683
9.37173
8.74558
8.09107
7.44089
6.63177
5.68492
4.67397
3.71752
2.89151
2.1886
2.07711
1.9475
1.94325
2.04408
2.04625
2.34028
1.95287
1.9054
1.97633
1.91967
1.7043
1.95553
1.6478
1.80846
1.67336
1.81407
1.64759
1.95019
1.58464
1.70037
1.64727
1.54661
1.46495
1.62727
1.3123
1.62074
1.30812
1.55138
1.3424
1.43152
1.37566
1.50639
1.24135
1.55601
1.22562
1.45921
1.26014
1.26355
1.20354
1.13266
1.06859
1.1148
1.10814
1.18884
0.955323
1.22365
0.98435
1.22486
1.03247
1.10887
1.07086
1.02355
0.92632
1.06462
0.917323
1.0995
1.03684
0.878259
0.946622
0.921103
0.797466
0.792925
0.656678
0.922688
0.91308
0.590333
0.610974
0.762408
0.905579
0.453417
0.364066
0.331061
0.49098
0.780718
0.967837
1.08094
1.15839
1.23748
1.28827
1.32944
1.36246
1.40155
1.44808
1.50248
1.54607
1.57145
1.56263
1.49385
1.39486
1.20272
0.752848
0.950859
28.7954
28.3549
29.5314
29.3646
28.9616
28.6127
29.2021
28.0194
28.5527
28.0677
27.8762
29.2197
29.1168
28.8807
27.5527
28.1126
27.8919
27.5335
28.3101
27.1779
27.6753
27.2545
27.0552
28.7606
28.2974
28.1803
27.7779
27.4283
27.309
30.8791
30.3812
29.9917
29.6913
30.4296
30.6433
30.4219
29.9368
29.615
29.2359
28.9136
30.988
30.8965
29.5838
29.3106
30.4054
29.9513
30.7411
29.6845
30.0936
29.2756
29.8146
30.4836
30.1572
32.2168
31.9234
32.0596
31.1025
31.5107
31.4566
30.9025
31.284
31.4785
31.2709
30.237
30.7114
30.1822
29.9923
30.0655
29.1089
29.5465
29.6203
29.2414
27.0257
26.6735
28.5523
28.4335
28.1048
27.6516
27.2905
26.9652
26.6401
26.5288
28.2036
28.0842
27.8276
26.6966
27.1715
27.7775
27.4164
27.8704
27.7862
27.5687
27.1773
27.6028
26.4621
26.9502
26.4004
26.3348
26.7153
26.3255
26.097
26.029
72.309
0.997586
43.2118
42.5647
41.4273
40.2249
38.6937
37.4493
36.2063
35.2036
34.4157
33.7611
33.2006
32.7205
32.3047
31.9402
31.6165
31.3253
31.0599
30.8151
30.5867
30.3716
30.1673
29.9718
29.7835
29.6012
29.424
29.2509
29.0814
28.9147
28.7506
28.5884
28.4278
28.2685
28.1101
27.9523
27.7948
27.6374
27.4798
27.3217
27.1629
27.0032
26.8422
26.6799
26.516
26.3501
26.1822
26.0119
25.839
25.6634
25.4847
25.3027
25.1172
24.9279
24.7346
24.537
24.3348
24.1278
23.9156
23.698
23.4747
23.2453
23.0095
22.767
22.5173
22.2602
21.9952
21.7221
21.4403
21.1496
20.8496
20.54
20.2205
19.8908
19.5509
19.2005
18.84
18.4692
18.0889
17.6995
17.3023
16.8986
16.4908
16.0809
15.6723
15.2685
14.8743
14.4897
14.1193
13.7621
13.4158
13.0802
12.7239
12.5052
12.4324
12.2768
12.0087
11.6016
11.0689
10.4236
9.69403
8.94381
8.2479
7.64207
7.29618
7.19133
7.19373
7.27647
7.36945
7.47905
7.58139
7.66978
7.74355
7.79757
7.82583
7.83509
7.83281
7.80954
7.76071
7.69655
7.61258
7.5102
7.39414
7.25726
7.10809
6.9436
6.76238
6.56776
6.36017
6.13434
5.89695
5.63652
5.37118
5.07298
4.73442
4.32701
3.87254
3.27418
2.54827
1.87649
1.19794
41.6963
3.91754
4.44466
4.82709
4.61305
4.23566
8.85829
13.1396
11.0445
8.89073
15.914
25.0824
27.1966
28.386
29.5472
26.6698
26.6272
26.3006
26.0185
25.4096
24.7095
23.8773
22.9311
21.7279
20.4613
18.6347
16.7772
13.9391
11.2362
8.25549
0.997586
1.2377
1.5521
2.0067
3.42901
1.19794
5.76546
6.5399
)
;
    }
    symmetryLine
    {
        type            symmetryPlane;
    }
}


// ************************************************************************* //
