/*--------------------------------*- C++ -*----------------------------------*\
| =========                 |                                                 |
| \\      /  F ield         | OpenFOAM: The Open Source CFD Toolbox           |
|  \\    /   O peration     | Version:  v2006                                 |
|   \\  /    A nd           | Website:  www.openfoam.com                      |
|    \\/     M anipulation  |                                                 |
\*---------------------------------------------------------------------------*/
FoamFile
{
    version     2.0;
    format      ascii;
    class       volScalarField;
    location    "0.068";
    object      k;
}
// * * * * * * * * * * * * * * * * * * * * * * * * * * * * * * * * * * * * * //

dimensions      [0 2 -2 0 0 0 0];


internalField   nonuniform List<scalar> 
24416
(
230.491
230.491
230.491
230.491
230.492
230.492
230.493
230.493
230.493
230.493
230.486
230.446
230.323
230.094
229.779
229.406
229
228.579
228.157
227.738
227.321
226.905
226.487
226.065
225.635
225.197
224.749
224.293
223.827
223.353
222.871
222.38
221.883
221.378
220.866
220.348
219.823
219.292
218.755
218.212
217.665
217.112
216.554
215.993
215.427
214.858
214.286
213.711
213.134
212.555
211.974
211.393
210.811
210.228
209.646
209.064
208.484
207.905
207.328
206.754
206.182
205.614
205.049
204.488
203.932
203.381
202.834
202.294
201.759
201.23
200.708
200.193
199.686
199.186
198.695
198.214
197.742
197.28
196.827
196.383
195.945
195.509
195.07
194.624
194.168
193.706
193.253
192.843
192.525
192.345
192.314
192.38
192.466
192.535
192.613
192.682
192.759
192.841
192.916
192.963
192.955
192.889
192.747
192.389
191.772
190.954
189.884
187.85
184.641
168.22
150.264
175.689
185.428
180.147
163.328
135.54
124.07
152.995
174.356
167.646
142.143
114.246
107.098
134.82
161.897
155.387
126.636
100.767
96.2472
121.579
150.767
145.179
115.229
91.9072
88.6467
111.509
141.616
136.701
107.16
85.5243
83.2688
104.806
134.052
129.941
101.56
80.9644
79.3287
99.9845
127.943
124.42
97.4291
77.5521
76.3067
96.3189
122.888
119.816
94.2418
74.8886
73.8928
93.3896
118.594
115.895
91.6728
72.7253
71.8965
90.96
114.853
112.474
89.5051
70.9044
70.1933
88.8891
111.564
109.429
87.6201
69.3277
68.7022
87.0739
108.621
106.682
85.9416
67.9305
67.3693
85.448
105.955
104.174
84.4205
66.6697
66.1584
83.9679
103.514
101.863
83.023
65.5159
65.0453
82.6042
101.258
99.7186
81.7269
64.4486
64.0092
81.3359
99.1609
97.7161
80.5145
63.4501
63.0372
80.1468
97.1984
95.836
79.3729
62.5099
62.1195
79.0256
95.3533
94.0644
78.2935
61.6196
61.2485
77.9641
93.613
92.3903
77.2691
60.7724
60.4182
76.9559
91.9671
90.8043
76.2941
59.963
59.6235
75.9955
90.4065
89.2987
75.3638
59.1871
58.8606
75.0785
88.9241
87.8671
74.4742
58.4409
58.1261
74.2011
87.5139
86.5035
73.6219
57.7213
57.4169
73.3599
86.1704
85.2045
72.8041
57.0257
56.7306
72.5527
84.8905
83.9669
72.0189
56.3518
56.0653
71.7775
83.6706
82.7863
71.2644
55.6978
55.4191
71.0322
82.5059
81.6572
70.538
55.0621
54.7905
70.3141
81.3914
80.5753
69.837
54.4429
54.1777
69.6206
80.323
79.5378
69.1591
53.8386
53.5793
68.9494
79.2978
78.5409
68.502
53.2478
52.9937
68.2985
78.3122
77.5811
67.8637
52.6692
52.4197
67.6657
77.363
76.6564
67.2424
52.1012
51.8558
67.0493
76.448
75.7645
66.6366
51.5428
51.301
66.4481
75.5651
74.9031
66.045
50.9928
50.7542
65.8605
74.7117
74.0688
65.466
50.4502
50.2144
65.2852
73.8849
73.2603
64.8983
49.9142
49.6808
64.7206
73.0829
72.4747
64.3403
49.3837
49.1522
64.1652
72.3035
71.7108
63.7908
48.8577
48.6278
63.618
71.5452
70.9671
63.2487
48.3354
48.1067
63.0779
70.8064
70.2411
62.7129
47.8159
47.5881
62.5437
70.0848
69.531
62.1822
47.2985
47.0712
62.0141
69.3785
68.8353
61.6554
46.7823
46.5552
61.4881
68.6862
68.1528
61.1314
46.2665
46.0392
60.9646
68.0067
67.4823
60.6094
45.7503
45.5224
60.4428
67.3389
66.8227
60.0886
45.233
45.0043
59.9221
66.6817
66.1731
59.5685
44.714
44.4842
59.4018
66.0342
65.5322
59.0483
44.1925
43.9614
58.8812
65.3952
64.9
58.5275
43.6681
43.4353
58.3599
64.7647
64.2752
58.0058
43.1402
42.9056
57.8375
64.1413
63.6566
57.4823
42.6083
42.3717
57.3131
63.5237
63.0438
56.9564
42.0719
41.833
56.7864
62.9119
62.436
56.4283
41.5304
41.2891
56.2573
62.3047
61.8321
55.8974
40.9836
40.7397
55.7251
61.701
61.2309
55.3626
40.4308
40.184
55.1886
61.0997
60.6315
54.823
39.8715
39.6216
54.647
60.5
60.0334
54.2777
39.3051
39.0519
54.0995
59.9014
59.4356
53.7261
38.731
38.4742
53.5456
59.3029
58.8378
53.1677
38.1488
37.8882
52.9847
58.7042
58.2392
52.6019
37.558
37.2935
52.4163
58.1046
57.6394
52.0284
36.9582
36.6895
51.8399
57.5036
57.0378
51.4466
36.349
36.076
51.2552
56.9007
56.4337
50.856
35.73
35.4525
50.6615
56.2952
55.8271
50.2563
35.1007
34.8185
50.0586
55.6872
55.218
49.6475
34.461
34.1739
49.4464
55.0764
54.6056
49.0291
33.8105
33.5185
48.8246
54.4622
53.9892
48.4008
33.1491
32.8522
48.1926
53.8438
53.3681
47.762
32.4766
32.1747
47.5499
53.2203
52.7414
47.112
31.7929
31.4859
46.8959
52.5911
52.1086
46.4505
31.0978
30.7857
46.2301
51.9556
51.4691
45.7768
30.3912
30.074
45.5521
51.3132
50.8225
45.0906
29.6731
29.3509
44.8614
50.6635
50.1678
44.3915
28.9435
28.6163
44.1576
50.0054
49.504
43.6788
28.2025
27.8704
43.4402
49.3382
48.8314
42.9523
27.4501
27.1131
42.7089
48.6624
48.1504
42.2122
26.6866
26.345
41.9641
47.9781
47.4607
41.4588
25.9125
25.5667
41.2063
47.2851
46.7622
40.6925
25.1287
24.779
40.4356
46.5832
46.0546
39.9136
24.336
23.9829
39.6524
45.8721
45.3377
39.1224
23.5354
23.1795
38.857
45.1515
44.6107
38.3188
22.7283
22.3699
38.0492
44.4209
43.8739
37.5033
21.916
21.555
37.2297
43.6803
43.1272
36.6761
21.1002
20.7354
36.3988
42.9303
42.3715
35.8383
20.2839
19.9103
35.5576
42.1712
41.6072
34.9918
19.4728
19.0745
34.7063
41.4037
40.8341
34.1334
18.6804
18.3926
33.8544
40.628
40.0557
33.2947
18.0509
17.7853
33.0237
39.8489
39.2773
32.4786
17.4537
17.1902
32.2146
39.0713
38.5035
31.6826
16.8595
16.5949
31.4249
38.299
37.7361
30.9046
16.264
15.9987
30.6529
37.5339
36.9767
30.1436
15.6688
15.4042
29.8975
36.7773
36.2274
29.3988
15.0768
14.8146
29.1583
36.0315
35.4899
28.67
14.4913
14.2333
28.4352
35.2979
34.7653
27.9574
13.9158
13.6638
27.7285
34.5777
34.0546
27.2618
13.3541
13.1101
27.0391
33.8716
33.3586
26.5837
12.8099
12.5755
26.3675
33.1804
32.6778
25.924
12.2867
12.0637
25.7146
32.5047
32.0127
25.2834
11.7878
11.5777
25.081
31.8446
31.3635
24.6625
11.3162
11.1202
24.4675
31.2006
30.7307
24.0625
10.8743
10.6936
23.875
30.5729
30.1133
23.4831
10.464
10.2992
23.3031
29.9604
29.5108
22.9246
10.0867
9.93788
22.7523
29.3642
28.9244
22.388
9.74259
9.60964
22.2224
28.7834
28.3537
21.8709
9.43111
9.3136
21.7127
28.2175
27.7985
21.3746
9.15139
9.04866
21.2236
27.6666
27.2575
20.8984
8.90197
8.81301
20.754
27.1295
26.7296
20.4407
8.68055
8.60393
20.3026
26.6056
26.2158
20.0011
8.48459
8.41901
19.8692
26.0958
25.7164
19.5798
8.31161
8.25574
19.4536
25.5994
25.2319
19.1754
8.15891
8.11138
19.0553
25.117
24.7596
18.7888
8.02401
7.98346
18.6736
24.6475
24.2981
18.4168
7.90413
7.86844
18.3058
24.1896
23.8492
18.0574
7.79598
7.76376
17.9519
23.7441
23.4124
17.7134
7.69728
7.66758
17.6123
23.31
22.9859
17.3818
7.6054
7.57699
17.2834
22.8855
22.5679
17.0586
7.51704
7.4885
16.9612
22.4689
22.1525
16.7314
7.42618
7.39997
16.6564
22.0665
21.7289
16.3783
7.33161
7.30169
16.3186
21.633
21.3235
16.0711
7.23632
7.19196
15.9694
21.2192
20.9218
15.7338
7.13478
7.0508
15.5413
20.7056
20.5791
15.4228
6.98358
7.04388
15.5968
20.6905
20.8101
15.6973
7.10158
29.0944
35.8749
42.3156
49.1709
55.9569
64.1108
70.9521
77.736
83.8973
89.9568
95.6716
101.276
106.645
111.897
116.97
121.927
126.737
131.433
136
140.452
144.783
148.994
153.085
157.046
160.879
164.568
168.112
171.488
174.695
177.698
180.487
183.04
185.318
187.285
188.875
190.039
190.668
190.675
189.907
188.194
185.325
181.024
174.949
166.608
157.445
143.252
126.786
106.695
82.5485
56.9127
41.5621
22.9819
22.2149
39.5971
54.4977
53.1616
38.5956
21.3958
20.5987
37.043
51.3344
51.3982
37.1152
20.1136
19.9388
37.1157
51.6796
51.4881
36.8245
19.7511
19.8441
37.2454
52.5154
52.4927
37.1499
19.8103
20.0134
37.8375
53.7094
53.5522
37.6255
19.9559
20.21
38.3907
54.8463
54.8181
38.2755
20.1972
20.4694
39.1213
56.1717
56.0287
38.9206
20.4259
20.7238
39.7897
57.4895
57.5071
39.689
20.7247
21.0373
40.64
59.0129
58.8846
40.4467
20.9976
21.3396
41.4332
60.5286
60.5903
41.3467
21.3487
21.6949
42.4098
62.2578
62.1435
42.2243
21.6593
22.0388
43.3357
63.9891
64.0941
43.2641
22.0552
22.436
44.4526
65.949
65.8538
44.2753
22.4024
22.8215
45.5248
67.9244
68.0787
45.4695
22.8442
23.2641
46.7993
70.1443
70.0697
46.632
23.2323
23.6993
48.0462
72.409
72.627
48.0124
23.7299
24.1988
49.5117
74.9477
74.9023
49.3585
24.1703
24.6987
50.9731
77.5769
77.8829
50.9653
24.7413
25.2706
52.657
80.5185
80.5142
52.5141
25.2485
25.8549
54.3483
83.6147
84.0312
54.3593
25.9176
26.5329
56.2511
87.0834
87.1701
56.105
26.5455
27.3146
58.2538
90.8774
91.4912
58.3269
27.4747
28.4257
60.6792
95.2749
95.6088
60.5827
28.6729
29.8854
63.6537
100.321
100.889
63.5092
30.0039
30.931
66.9108
105.667
105.346
65.9202
30.6205
31.1339
68.6756
110.26
110.366
67.7239
30.8218
31.6057
70.0214
115.648
116.663
69.9284
32.5259
36.4508
77.7702
123.346
124.085
89.2835
41.8387
23.4345
38.0338
73.2065
114.32
65.826
28.4956
29.0913
64.3381
114.924
133.63
71.7825
34.7662
45.6828
81.7221
166.112
218.371
126.158
65.7293
90.1614
184.249
244.961
267.139
199.426
97.4715
111.731
233.129
294.502
304.082
245.334
116.951
118.729
245.843
302.402
325.605
272.575
138.674
158.561
298.956
347.3
369.312
326.594
180.047
206.412
354.064
392.01
412.994
380.031
231.687
254.455
400.84
424.418
428.635
413.289
271.046
291.292
423.595
431.985
424.168
423.371
309.711
321.56
420.435
417.354
407.688
414.857
329.127
335.374
402.02
387.626
375.177
388.22
336.63
336.455
378.146
365.991
356.926
368.986
334.583
331.505
368.303
358.103
358.74
371.048
327.312
321.793
377.87
374.86
382.797
366.508
315.619
309.428
337.575
367.518
363.858
326.71
304.534
298.356
309.329
336.282
306.794
296.13
292.953
285.092
282.154
290.296
272.72
265.752
278.536
268.236
248.014
247.958
234.195
229.704
255.131
237.005
210.903
218.62
191.944
191.562
215.888
187.667
168.998
183.582
167.153
153.371
163.751
132.184
122.035
131.701
127.115
98.1464
85.6993
68.649
80.1221
110.154
66.8137
45.9062
49.9848
49.0016
62.2524
74.9256
66.9541
54.2691
44.7408
36.5756
36.4077
43.1021
49.798
41.8551
39.0387
37.4353
38.5046
45.0439
31.3871
27.7337
35.375
34.592
32.4266
37.4755
34.4249
30.1253
34.5007
33.8449
25.2132
25.3497
28.8557
25.1964
32.203
33.152
24.3171
27.1772
20.962
22.257
34.0119
32.3822
23.0965
25.9675
20.9463
21.1533
35.2109
30.8246
22.8967
27.1703
25.3547
22.4026
32.4518
35.4313
21.7243
19.6774
26.9839
22.7922
31.588
33.8701
22.3968
25.3934
19.7548
21.9255
37.1804
32.6245
22.4652
25.993
24.6593
22.373
35.3377
39.4157
22.4455
19.7281
23.1513
21.3803
35.0834
39.8129
21.323
19.4826
24.171
21.2822
33.7644
36.4428
21.4661
22.855
19.1797
23.4053
40.8095
35.7268
20.1165
21.9014
19.143
21.7443
41.2836
34.4589
20.3308
21.9072
20.675
20.0436
36.9862
43.1156
22.5125
18.8984
20.8159
19.9397
36.1697
39.527
20.1807
19.9237
18.765
23.1244
47.2815
38.009
19.4364
19.7578
18.3733
25.0141
44.3346
37.4732
19.1197
20.719
18.7519
22.8694
43.681
36.721
20.1752
21.3671
19.8982
19.8034
40.7996
46.841
27.0452
19.0523
20.616
19.0835
40.1135
47.5976
23.4788
19.0238
21.0564
20.6959
39.0908
43.5342
20.5097
19.4126
19.4955
29.6594
50.4616
42.6114
18.782
19.5101
19.1203
25.4552
51.8713
41.5949
18.4327
19.7792
18.9779
24.9314
49.3757
40.5259
20.6189
21.0614
19.4339
20.9042
45.1186
55.5412
28.7096
20.3696
19.07
19.4463
43.9938
53.1722
29.3469
19.4623
20.4557
19.4815
44.2294
52.9038
26.3923
19.7676
21.7506
21.4894
43.8349
49.3314
21.7952
20.1485
21.1842
34.2037
57.7949
48.2638
20.1269
20.412
20.7533
29.5706
60.6764
48.1321
19.4151
20.4792
20.4264
28.2038
57.5948
46.4758
21.9601
21.8567
20.2737
22.5237
52.4225
62.1537
36.6808
21.8723
20.8672
20.7556
51.6162
65.3262
31.4478
21.5354
20.8487
20.0129
51.0102
61.8764
31.3702
21.5844
21.4813
20.8412
50.0005
60.5778
30.9484
21.7885
23.01
23.1688
49.1886
55.9707
24.3413
21.5122
23.5581
39.9271
66.9002
54.6723
23.4634
21.5193
22.7985
36.7751
67.7211
55.9561
21.8942
22.161
23.1103
35.0927
67.7813
55.5257
21.9708
22.5339
23.431
34.7805
67.5528
54.8823
22.4428
22.8911
23.4067
33.9774
66.0284
53.6129
24.8208
24.3155
22.7046
25.8822
60.6914
74.3279
42.992
25.6181
22.9893
25.1535
59.9642
74.0193
39.8009
24.7175
23.6341
23.6961
60.2795
72.9938
38.1945
25.0065
24.1034
23.8327
59.8993
72.8533
37.7211
25.3294
24.4409
24.2202
59.2254
71.2994
37.7446
25.3896
25.958
26.6975
57.8774
65.9672
28.3109
24.4163
27.7742
47.4521
80.3677
65.2597
27.3611
24.8819
27.0412
43.8033
80.913
66.4305
25.5294
25.1067
27.0799
42.0847
81.2449
65.8509
25.5207
25.1878
26.9985
41.2316
80.005
64.922
25.6794
25.3508
26.7839
41.4294
78.088
63.0557
28.19
27.0789
25.4601
29.9776
71.5145
88.5122
51.1907
29.6412
26.9176
27.9664
72.5206
92.3185
44.2594
29.2221
26.3603
26.1076
72.6825
88.8086
43.4083
28.7802
26.4609
26.2918
71.0885
86.6955
43.9931
28.8695
26.9526
27.3365
70.1584
84.3832
44.7044
28.7539
28.577
30.0367
68.0435
77.4249
32.6343
27.1076
32.0337
54.4259
98.278
79.1163
29.791
28.6747
31.7302
48.7783
100.977
78.3661
28.1777
28.1472
31.1438
47.7521
96.2155
76.859
28.5406
28.0832
31.1468
48.5634
94.6089
75.7999
29.5586
28.4571
30.7475
48.9241
91.8741
74.0504
32.1983
30.126
28.5219
34.15
84.3206
103.504
60.8909
34.1815
30.4089
33.0115
83.6518
105.709
54.7119
33.7678
30.2596
31.0697
84.1452
103.138
52.5676
33.4992
30.3135
31.0431
82.1365
99.8425
52.2074
33.552
30.6803
31.8371
80.2269
97.3694
52.3297
33.185
32.0976
34.4542
78.1445
89.8873
37.3874
30.7386
37.0282
65.5502
112.155
91.341
36.1879
32.5724
36.5341
59.5289
114.302
90.6671
33.7203
32.5945
36.2184
57.2122
110.198
88.0046
34.0357
32.6312
35.5108
56.4478
106.608
86.0262
36.5519
33.8874
32.2259
39.1193
98.5855
122.825
70.0977
39.532
34.4484
38.0114
98.8442
122.789
62.6039
38.835
34.5142
35.3441
96.9576
116.917
59.8385
38.468
34.5265
35.8624
93.5711
113.398
60.1668
37.8077
35.7764
38.7693
90.2341
103.637
42.6353
34.4446
42.8897
73.8415
131.208
104.065
40.3509
36.8362
41.8363
66.8769
130.213
102.097
38.0608
36.8042
40.6934
64.7547
124.603
98.2567
41.1344
38.0995
36.4585
44.426
113.285
139.423
81.3523
45.7393
39.046
43.5492
111.938
138.752
71.3223
44.4533
39.096
40.5984
108.417
132.012
68.6253
43.1672
40.0955
43.5358
104.852
121.436
47.5045
38.5211
48.7764
86.0168
151.377
119.555
45.7181
40.9919
47.4473
75.6868
147.501
115.136
42.9809
41.0195
45.7052
72.984
141.331
111.417
45.9368
42.338
40.5095
49.5903
128.847
159.318
90.9509
51.4389
43.1601
48.878
125.454
154.841
79.4638
48.8439
44.1246
48.3022
120.639
139.178
51.6703
42.0605
55.0857
98.7184
174.404
135.465
51.4079
44.8116
51.7768
84.7271
167.392
128.744
50.07
45.422
43.5578
53.9992
148.752
181.977
102.049
56.8738
46.3745
52.9384
140.72
176.637
90.9471
54.5888
47.3745
52.7007
137.064
158.036
57.5391
45.5832
60.2858
107.883
194.816
148.358
55.0878
48.422
56.6033
93.352
185.071
142.939
54.7288
49.2101
47.0402
58.1706
165.063
203.5
112.548
60.6474
50.4396
60.1466
156.759
179.01
62.3378
48.7328
64.5736
119.783
223.597
168.946
62.4042
52.0555
50.0906
65.1812
194.157
240.709
127.739
67.8196
53.2112
66.1227
180.348
205.947
64.8974
51.5826
71.0446
139.378
252.866
190.092
68.9961
54.8864
53.1835
70.4129
219.584
268.85
143.454
73.8175
56.6458
69.7001
199.278
227.347
72.709
54.512
77.296
152.216
285.072
211.54
74.1795
58.2442
56.2023
73.505
240.052
297.208
155.212
77.964
59.5124
75.1243
219.517
252.398
86.4273
57.4711
56.3038
86.2783
287.488
352.629
183.292
87.142
62.62
82.2324
253.457
294.39
85.9253
59.8067
57.1567
91.8297
324.635
377.696
115.271
58.0141
54.7554
99.1767
406.808
455.463
129.012
57.3446
53.2241
101.8
463.325
506.045
249.411
103.982
62.5589
93.1227
323.515
343.994
96.1186
60.1516
58.2984
105.06
365.258
364.9
110.24
56.8515
55.3884
114.785
359.634
347.293
118.776
54.3466
53.5466
122.782
328.888
308.434
126.716
53.2442
53.3687
130.63
287.458
266.931
135.307
53.8081
54.7914
139.518
247.44
229.446
144.671
55.9392
57.9101
149.177
213.059
198.329
153.707
59.7267
62.4248
157.214
185.118
173.322
159.928
65.4705
69.4078
161.6
162.769
153.34
163.001
73.2245
77.2519
164.308
144.946
137.482
165.491
81.1383
85.2155
166.603
130.866
125.005
167.613
89.1055
93.2067
168.572
119.832
115.269
169.436
97.0503
101.126
170.266
111.259
107.741
171.011
104.872
108.662
171.721
104.67
101.989
172.342
112.131
115.631
172.92
99.6604
97.6419
173.387
118.796
121.999
173.783
95.8985
94.3948
174.069
124.874
127.773
174.284
93.0991
91.9916
174.373
130.324
132.899
174.346
91.0345
90.2173
174.255
135.126
137.375
174.064
89.5121
88.9096
173.759
139.263
141.18
173.353
88.3817
87.926
172.866
142.747
144.343
172.293
87.5166
87.161
171.647
145.592
146.879
170.911
86.8312
86.5376
170.133
147.844
148.843
169.284
86.2541
85.9987
168.401
149.541
150.277
167.45
85.743
85.5066
166.491
150.737
151.218
165.485
85.2625
85.0365
164.471
151.473
151.737
163.419
84.7965
84.5757
162.373
151.844
151.918
161.324
84.3287
84.1214
160.257
151.889
151.842
159.209
83.8718
83.6736
158.15
151.708
151.592
157.125
83.4327
83.242
156.085
151.336
151.174
155.091
83.0087
82.8271
154.088
150.837
150.636
153.133
82.5987
82.4287
152.181
150.253
150.011
151.27
82.2117
82.0574
150.378
149.613
149.346
149.516
81.8502
81.7124
148.688
148.944
148.664
147.877
81.5232
81.4056
147.117
148.275
147.989
146.359
81.2329
81.1352
145.664
147.618
147.326
144.956
80.9852
80.9126
144.329
146.985
146.689
143.672
80.7821
80.7315
143.112
146.383
146.085
142.485
80.6288
80.5932
141.997
145.828
145.527
141.423
80.5156
80.496
140.996
145.327
145.017
140.467
80.4493
80.4443
140.1
144.815
144.479
139.611
80.4257
80.434
139.278
144.284
143.942
138.826
80.4361
80.4561
138.521
143.765
143.433
138.105
80.4678
80.5059
137.827
143.271
142.957
137.433
80.5274
80.5821
137.19
142.815
142.529
136.83
80.6112
80.679
136.611
142.402
142.146
136.286
80.7174
80.8011
136.093
142.039
141.819
135.803
80.8465
80.9425
135.632
141.729
141.542
135.378
80.997
81.1081
135.235
141.471
141.319
135.015
81.1718
81.2923
134.895
141.262
141.138
134.711
81.3704
81.5018
134.618
141.096
141
134.466
81.592
81.731
134.394
140.97
140.896
134.273
81.8355
81.9847
134.223
140.879
140.826
134.13
82.1004
82.2559
134.095
140.816
140.779
134.029
82.3844
82.5485
134.009
140.777
140.755
133.967
82.6863
82.8555
133.957
140.758
140.746
133.936
83.0034
83.1802
133.937
140.755
140.747
133.938
83.3342
83.517
133.944
140.758
140.755
133.952
83.6773
83.8664
133.974
140.769
140.763
133.989
84.0299
84.2233
134.02
140.78
140.777
134.039
84.3913
84.5881
134.081
140.792
140.787
134.104
84.7583
84.957
134.153
140.799
140.793
134.178
85.1299
85.3308
134.233
140.803
140.793
134.261
85.5047
85.7054
134.318
140.799
140.786
134.349
85.881
86.0824
134.405
140.79
140.771
134.444
86.2571
86.4584
134.5
140.771
140.746
134.533
86.6333
86.8335
134.592
140.744
140.714
134.631
87.0064
87.2058
134.689
140.706
140.668
134.72
87.3779
87.5752
134.783
140.654
140.612
134.813
87.7452
87.9395
134.874
140.594
140.544
134.904
88.1082
88.3003
134.963
140.522
140.465
134.992
88.4663
88.6545
135.048
140.439
140.373
135.076
88.8185
89.0039
135.129
140.347
140.274
135.161
89.1639
89.3462
135.21
140.243
140.16
135.234
89.5038
89.6822
135.283
140.128
140.043
135.311
89.8357
90.0106
135.356
140.005
139.91
135.377
90.1615
90.3324
135.423
139.871
139.776
135.444
90.4791
90.6457
135.489
139.731
139.629
135.507
90.7902
90.9533
135.548
139.582
139.476
135.565
91.0937
91.2522
135.603
139.426
139.314
135.619
91.3892
91.5447
135.653
139.267
139.152
135.67
91.6772
91.8281
135.705
139.098
138.979
135.719
91.9583
92.1052
135.752
138.923
138.804
135.765
92.2316
92.3742
135.797
138.746
138.622
135.809
92.4974
92.6368
135.838
138.566
138.441
135.85
92.7559
92.8915
135.877
138.381
138.251
135.887
93.0082
93.1399
135.913
138.19
138.062
135.922
93.2532
93.3808
135.947
137.999
137.869
135.955
93.4913
93.6155
135.979
137.806
137.675
135.987
93.7229
93.8428
136.009
137.611
137.479
136.015
93.948
94.0636
136.036
137.415
137.276
136.057
94.167
94.2804
136.073
137.213
137.078
136.08
94.3799
94.4895
136.078
137.021
136.892
136.085
94.5816
94.6891
136.103
136.826
136.687
136.109
94.78
94.885
136.127
136.625
136.493
136.134
94.9731
95.0755
136.15
136.429
136.292
136.155
95.1619
95.2614
136.17
136.231
136.101
136.176
95.3449
95.4417
136.19
136.037
135.903
136.194
95.5233
95.6171
136.208
135.842
135.714
136.213
95.6958
95.7871
136.226
135.651
135.519
136.229
95.864
95.9525
136.242
135.459
135.333
136.247
96.0268
96.1129
136.258
135.271
135.141
136.261
96.1855
96.2689
136.273
135.082
134.96
136.277
96.3391
96.4202
136.288
134.897
134.773
136.291
96.4888
96.5675
136.301
134.712
134.596
136.306
96.6337
96.7102
136.316
134.531
134.413
136.318
96.775
96.8491
136.328
134.35
134.241
136.333
96.9119
96.9839
136.343
134.176
134.066
136.346
97.0456
97.1159
136.351
133.993
133.891
136.356
97.1752
97.2433
136.363
133.822
133.715
136.365
97.3011
97.3669
136.372
133.649
133.549
136.376
97.4228
97.4867
136.384
133.482
133.38
136.385
97.5414
97.6037
136.387
133.306
133.209
136.39
97.6562
97.7159
136.396
133.144
133.042
136.396
97.7674
97.8253
136.4
132.976
132.878
136.4
97.8751
97.931
136.402
132.808
132.718
136.402
97.9788
98.0333
136.401
132.64
132.556
136.403
98.0791
98.1317
136.403
132.483
132.392
136.401
98.1762
98.2267
136.402
132.324
132.24
136.404
98.2696
98.3189
136.403
132.171
132.078
136.4
98.3605
98.4077
136.401
132.017
131.928
136.399
98.4481
98.4936
136.399
131.864
131.779
136.397
98.5324
98.5768
136.397
131.711
131.636
136.397
98.6139
98.6572
136.394
131.566
131.484
136.393
98.6929
98.7345
136.392
131.428
131.34
136.389
98.7697
98.8096
136.388
131.283
131.198
136.384
98.8433
98.8819
136.383
131.141
131.061
136.379
98.9147
98.9517
136.377
131.001
130.927
136.375
98.9831
99.0192
136.368
130.859
130.791
136.367
99.049
99.0835
136.365
130.731
130.661
136.362
99.1126
99.1465
136.355
130.593
130.53
136.354
99.1739
99.2065
136.35
130.469
130.398
136.346
99.2331
99.2643
136.341
130.34
130.278
136.34
99.2897
99.3202
136.336
130.218
130.15
136.331
99.3449
99.3739
136.326
130.093
130.034
136.325
99.3973
99.4258
136.32
129.975
129.909
136.315
99.4486
99.4756
136.31
129.855
129.799
136.308
99.4971
99.5236
136.303
129.742
129.679
136.298
99.5446
99.5698
136.293
129.626
129.573
136.291
99.5895
99.6142
136.286
129.518
129.457
136.281
99.6335
99.657
136.276
129.407
129.356
136.274
99.6751
99.6982
136.269
129.304
129.246
136.264
99.7159
99.7379
136.259
129.198
129.149
136.257
99.7545
99.7761
136.252
129.099
129.043
136.248
99.7924
99.813
136.243
128.999
128.951
136.241
99.8282
99.8487
136.237
128.905
128.848
136.23
99.8636
99.8827
136.228
128.812
128.757
136.224
99.8975
99.9157
136.221
128.718
128.67
136.218
99.9299
99.9478
136.213
128.624
128.588
136.212
99.961
99.9788
136.206
128.536
128.499
136.205
99.9915
100.009
136.2
128.452
128.412
136.199
100.021
100.037
136.196
128.374
128.332
136.193
100.05
100.066
136.186
128.287
128.25
136.186
100.077
100.093
136.183
128.213
128.166
136.178
100.104
100.119
136.177
128.138
128.091
136.173
100.13
100.144
136.172
128.064
128.017
136.168
100.154
100.168
136.167
127.991
127.945
136.164
100.179
100.192
136.163
127.92
127.875
136.159
100.202
100.215
136.158
127.85
127.806
136.155
100.225
100.237
136.154
127.782
127.739
136.151
100.246
100.259
136.15
127.715
127.675
136.147
100.268
100.28
136.146
127.649
127.612
136.143
100.288
100.3
136.142
127.585
127.551
136.139
100.308
100.319
136.138
127.522
127.492
136.136
100.327
100.338
136.134
127.459
127.43
136.131
100.345
100.356
136.13
127.405
127.374
136.128
100.363
100.374
136.127
127.346
127.314
136.124
100.381
100.391
136.124
127.295
127.258
136.121
100.398
100.408
136.121
127.241
127.205
136.119
100.414
100.424
136.118
127.187
127.152
136.115
100.43
100.44
136.115
127.135
127.1
136.113
100.446
100.456
136.112
127.084
127.05
136.11
100.462
100.471
136.109
127.034
127.002
136.107
100.477
100.486
136.106
126.984
126.956
136.105
100.492
100.501
136.103
126.933
126.914
136.103
100.506
100.516
136.101
126.888
126.86
136.099
100.521
100.53
136.097
126.839
126.821
136.098
100.535
100.544
136.096
126.797
126.77
136.094
100.549
100.558
136.092
126.75
126.733
136.093
100.563
100.572
136.09
126.71
126.683
136.088
100.577
100.586
136.087
126.665
126.647
136.088
100.591
100.6
136.086
126.626
126.598
136.083
100.605
100.614
136.083
126.586
126.559
136.081
100.619
100.629
136.081
126.546
126.52
136.079
100.634
100.644
136.078
126.506
126.485
136.079
100.65
100.659
136.079
126.472
126.444
136.077
100.667
100.676
136.078
126.432
126.394
136.09
100.686
100.696
136.07
126.392
126.377
136.07
100.702
100.714
136.068
126.35
126.338
136.071
100.721
100.734
136.069
126.318
126.296
136.069
100.742
100.755
136.069
126.28
126.268
136.072
100.764
100.778
136.071
126.248
126.227
136.071
100.787
100.801
136.071
126.211
126.199
136.074
100.81
100.825
136.074
126.18
126.159
136.074
100.834
100.849
136.075
126.144
126.132
136.079
100.858
100.872
136.079
126.114
126.093
136.08
100.881
100.895
136.082
126.081
126.059
136.083
100.903
100.915
136.086
126.05
126.03
136.087
100.923
100.935
136.09
126.021
126.002
136.092
100.943
100.954
136.095
125.994
125.972
136.096
100.965
100.975
136.103
125.972
125.948
136.102
100.997
100.995
136.097
125.942
125.92
136.131
101.047
101.065
136.075
125.915
125.857
135.97
101.066
101.13
135.842
125.785
125.656
135.523
101.89
103.222
135.145
125.635
125.685
135.624
105.013
121.975
105.855
100.482
102.131
111.063
127.949
139.347
146.528
164.471
179.819
190.283
199.161
206.495
212.262
216.625
219.688
221.694
222.867
223.429
223.562
223.409
223.076
222.641
222.156
221.658
221.169
220.703
220.267
219.865
219.497
219.163
218.861
218.589
218.344
218.124
217.926
217.749
217.59
217.447
217.319
217.204
217.102
217.01
216.928
216.854
216.789
216.732
216.681
216.637
216.598
216.565
216.537
216.515
216.498
216.486
216.479
216.476
216.473
216.471
216.468
216.463
216.458
216.452
216.445
216.438
216.429
216.42
216.411
216.4
216.389
216.377
216.365
216.351
216.338
216.323
216.308
216.293
216.277
216.261
216.245
216.228
216.211
216.195
216.178
216.161
216.144
216.127
216.11
216.093
216.077
216.06
216.043
216.026
216.009
215.991
215.968
215.937
215.896
215.847
215.792
215.731
215.668
215.604
215.54
215.479
215.424
215.378
215.342
215.318
215.308
215.31
215.325
215.352
215.391
215.442
215.502
215.57
215.644
215.724
215.807
215.893
215.979
216.066
216.152
216.237
216.321
216.404
216.485
216.565
216.645
216.723
216.802
216.881
216.96
217.039
217.119
217.201
217.283
217.367
217.452
217.54
217.629
217.72
217.814
217.909
218.008
218.108
218.212
218.318
218.427
218.538
218.652
218.769
218.889
219.011
219.136
219.263
219.393
219.525
219.659
219.795
219.933
220.073
220.214
220.357
220.501
220.646
220.792
220.938
221.085
221.233
221.38
221.527
221.674
221.821
221.967
222.112
222.256
222.399
222.541
222.682
222.822
222.959
223.096
223.23
223.363
223.494
223.623
223.75
223.875
223.998
224.119
224.238
224.355
224.469
224.582
224.692
224.801
224.907
225.011
225.113
225.213
225.311
225.407
225.501
225.593
225.683
225.771
225.858
225.942
226.025
226.107
226.186
226.264
226.341
226.416
226.489
226.561
226.632
226.701
226.769
226.836
226.902
226.966
227.03
227.092
227.153
227.214
227.273
227.332
227.389
227.446
227.503
227.558
227.613
227.667
227.721
227.774
227.827
227.879
227.931
227.983
228.034
228.085
228.136
228.186
228.237
228.287
228.337
228.388
228.438
228.488
228.539
228.59
228.641
228.692
228.743
228.795
228.847
228.899
228.952
229.005
229.059
229.113
229.168
229.224
229.28
229.337
229.394
229.452
229.511
229.57
229.63
229.691
229.752
229.814
229.876
229.938
229.999
230.06
230.12
230.178
230.234
230.287
230.336
230.383
230.423
230.453
230.471
230.48
230.485
230.488
230.49
230.491
230.491
230.491
230.492
230.492
230.492
230.492
230.492
230.492
230.491
230.481
230.434
230.314
230.107
229.82
229.47
229.079
228.669
228.252
227.834
227.417
226.998
226.577
226.149
225.715
225.273
224.821
224.361
223.892
223.414
222.928
222.434
221.933
221.425
220.91
220.389
219.861
219.327
218.788
218.243
217.693
217.138
216.579
216.016
215.448
214.878
214.304
213.728
213.149
212.569
211.988
211.405
210.822
210.238
209.655
209.073
208.491
207.912
207.334
206.758
206.186
205.617
205.051
204.489
203.932
203.38
202.833
202.291
201.755
201.226
200.703
200.188
199.68
199.18
198.689
198.207
197.734
197.272
196.818
196.373
195.935
195.499
195.064
194.626
194.186
193.752
193.341
192.986
192.727
192.582
192.535
192.539
192.556
192.578
192.614
192.65
192.684
192.713
192.729
192.709
192.59
192.15
190.464
188.222
182.252
179.276
176.853
173.693
171.508
168.27
166.33
163.189
161.491
158.468
156.997
154.105
152.827
150.081
148.949
146.353
145.322
142.887
141.94
139.65
138.774
136.61
135.797
133.743
132.987
131.036
130.327
128.466
127.8
126.017
125.393
123.686
123.098
121.46
120.906
119.332
118.808
117.298
116.802
115.351
114.883
113.485
113.045
111.703
111.29
110
109.609
108.367
107.994
106.796
106.442
105.284
104.95
103.832
103.513
102.431
102.127
101.078
100.79
99.7742
99.5007
98.5155
98.2547
97.2987
97.0474
96.117
95.8779
94.9732
94.7424
93.8605
93.6405
92.7809
92.5697
91.7319
91.5266
90.7075
90.5089
89.7073
89.5151
88.7302
88.5441
87.7751
87.5945
86.8403
86.6648
85.9246
85.7538
85.0266
84.86
84.1443
83.9835
83.2807
83.1221
82.4298
82.274
81.5902
81.4389
80.7657
80.6153
79.9502
79.8013
79.1432
78.9958
78.3442
78.1982
77.5528
77.4079
76.7682
76.6242
75.9897
75.8464
75.2166
75.0737
74.4481
74.3054
73.6836
73.541
72.9224
72.7796
72.163
72.0214
71.4082
71.2665
70.656
70.5136
69.9046
69.7611
69.1529
69.0081
68.4002
68.2538
67.6458
67.4976
66.8891
66.7389
66.1294
65.977
65.3669
65.2106
64.5977
64.4384
63.822
63.6615
63.0433
62.8804
62.2603
62.0946
61.4715
61.3028
60.6763
60.5042
59.8738
59.6982
59.0644
58.8837
58.2437
58.0603
57.416
57.229
56.5806
56.3899
55.7368
55.5423
54.8845
54.6862
54.0243
53.82
53.1511
52.9421
52.2667
52.0559
51.3794
51.1653
50.4872
50.2712
49.592