/*--------------------------------*- C++ -*----------------------------------*\
| =========                 |                                                 |
| \\      /  F ield         | OpenFOAM: The Open Source CFD Toolbox           |
|  \\    /   O peration     | Version:  v2006                                 |
|   \\  /    A nd           | Website:  www.openfoam.com                      |
|    \\/     M anipulation  |                                                 |
\*---------------------------------------------------------------------------*/
FoamFile
{
    version     2.0;
    format      ascii;
    class       volScalarField;
    location    "0.122";
    object      Co;
}
// * * * * * * * * * * * * * * * * * * * * * * * * * * * * * * * * * * * * * //

dimensions      [0 0 0 0 0 0 0];


internalField   nonuniform List<scalar> 
16277
(
0.00667558
0.00636324
0.00690631
0.00717063
0.00720881
0.00705767
0.00705395
0.00693502
0.00688328
0.00686931
0.00683133
0.00681694
0.00680301
0.00679309
0.00678212
0.00677103
0.00675935
0.00674703
0.00673432
0.00672105
0.00670719
0.00669278
0.00667781
0.00666229
0.00664624
0.00662967
0.00661257
0.00659496
0.00657684
0.00655823
0.00653914
0.00651959
0.00649958
0.00647914
0.00645827
0.006437
0.00641535
0.00639334
0.00637097
0.00634829
0.0063253
0.00630203
0.0062785
0.00625475
0.00623078
0.00620662
0.00618231
0.00615787
0.00613332
0.00610869
0.006084
0.0060593
0.0060346
0.00600993
0.00598532
0.0059608
0.0059364
0.00591216
0.00588809
0.00586424
0.00584062
0.00581728
0.00579424
0.00577152
0.00574917
0.00572721
0.00570566
0.00568455
0.00566392
0.00564378
0.00562415
0.00560508
0.00558657
0.00556865
0.00555137
0.00553473
0.0055187
0.00550321
0.00548673
0.00547182
0.00545857
0.00544913
0.00544698
0.00547998
0.00554387
0.00571756
0.00603152
0.00674942
0.00842129
0.0120079
0.0180064
0.0141662
0.0127269
0.0121916
0.0119232
0.0116587
0.0111343
0.0100969
0.0110785
0.011718
0.0109169
0.0108005
0.0101608
0.00838902
0.00903184
0.00923832
0.0091877
0.00918528
0.00861699
0.00783943
0.00854702
0.00871998
0.00898912
0.00883168
0.00804551
0.00782623
0.00863097
0.00881672
0.00902053
0.00879872
0.00789151
0.00779221
0.00867077
0.008864
0.00903344
0.00877071
0.00779515
0.00769442
0.00864164
0.00886474
0.00899151
0.00871285
0.00767606
0.00758018
0.00858032
0.00883321
0.00895172
0.00864751
0.00756387
0.00747366
0.00851551
0.00879355
0.00890871
0.00858237
0.00746172
0.00737607
0.00845152
0.00875179
0.00886408
0.00851834
0.00736743
0.00728536
0.0083894
0.008709
0.00881844
0.00845548
0.00727929
0.00719986
0.0083291
0.00866563
0.00877194
0.00839333
0.00719582
0.00711856
0.00826891
0.00862053
0.00872457
0.00833164
0.00711596
0.00704046
0.00820869
0.00857392
0.00867625
0.00827019
0.00703888
0.00696482
0.00814829
0.0085258
0.008627
0.0082088
0.00696396
0.00689106
0.0080875
0.00847614
0.00857672
0.00814723
0.00689065
0.00681866
0.00802615
0.0084249
0.00852529
0.00808526
0.0068185
0.0067473
0.00796415
0.00837209
0.00847262
0.00802271
0.00674716
0.00667648
0.00790121
0.00831766
0.00841863
0.00795944
0.00667632
0.00660604
0.00783732
0.00826151
0.00836321
0.00789529
0.00660574
0.00653578
0.00777232
0.00820358
0.00830628
0.00783011
0.0065352
0.00646544
0.00770609
0.0081438
0.00824769
0.00776376
0.00646448
0.00639485
0.00763972
0.00808476
0.00818732
0.0076961
0.00639337
0.00632379
0.00757214
0.00802451
0.00812513
0.00762702
0.0063217
0.0062521
0.00750309
0.00796241
0.00806099
0.00755639
0.0062493
0.00617957
0.00743243
0.00789834
0.00799481
0.00748406
0.00617597
0.00610605
0.00736002
0.00783219
0.00792644
0.00740989
0.00610156
0.00603137
0.00728572
0.00776385
0.00785578
0.00733373
0.00602589
0.00595537
0.0072094
0.00769319
0.00778271
0.00725547
0.00594882
0.00587791
0.00713093
0.0076201
0.00770711
0.00717497
0.00587022
0.00579886
0.0070502
0.00754448
0.00762888
0.00709214
0.00578997
0.00571812
0.00696712
0.00746623
0.00754794
0.00700687
0.00570798
0.00563563
0.00688161
0.00738526
0.0074642
0.00691912
0.0056242
0.00555136
0.00679361
0.00730152
0.00737761
0.00682884
0.00553864
0.00546534
0.00670312
0.00721498
0.00728819
0.00673608
0.00545138
0.00537771
0.00661024
0.00712565
0.00719599
0.00664097
0.00536258
0.00528864
0.00651511
0.00703365
0.00710116
0.00654369
0.00527247
0.00519842
0.00641796
0.00693914
0.00700391
0.00644453
0.00518138
0.00510746
0.00631912
0.00684237
0.00690456
0.0063439
0.00508981
0.00501631
0.00621908
0.00674372
0.00680355
0.00624237
0.00499841
0.00492574
0.0061185
0.0066437
0.00670152
0.00614071
0.00490804
0.00483669
0.00601823
0.006543
0.00659929
0.00603991
0.00481978
0.00475039
0.00591936
0.00644254
0.00649789
0.0059412
0.004735
0.00466832
0.00582324
0.00634346
0.00639865
0.00584612
0.00465533
0.00459229
0.00573157
0.0062472
0.00630324
0.00575657
0.00458279
0.00452444
0.00564641
0.00615561
0.0062137
0.00567471
0.00451964
0.00446887
0.00557123
0.00607068
0.0061321
0.00560271
0.00446871
0.00443362
0.00552229
0.00600748
0.00606125
0.00554402
0.00443349
0.00441597
0.00549528
0.0059788
0.00600467
0.00550172
0.00441587
0.00441769
0.00548837
0.00596982
0.0059655
0.00547848
0.00441763
0.00443942
0.00550225
0.00598098
0.00594265
0.00547307
0.00443938
0.0044804
0.00553577
0.00601081
0.00594578
0.00549612
0.00448364
0.00454176
0.00559103
0.00606259
0.00599479
0.00555891
0.00455476
0.00462322
0.00566707
0.00613466
0.00607015
0.00563941
0.00464206
0.00471624
0.00575501
0.00621734
0.0061555
0.00573089
0.0047385
0.00481571
0.00585117
0.00630756
0.00624682
0.0058286
0.00483901
0.0049175
0.00595226
0.00640294
0.00634201
0.00592973
0.00494032
0.0050186
0.00605519
0.00650073
0.00643822
0.00603122
0.00503955
0.00511622
0.00615693
0.00659804
0.00653278
0.00613028
0.00513405
0.00520792
0.00625493
0.00669239
0.00662346
0.00622458
0.00522168
0.00529184
0.00634709
0.00678177
0.00670844
0.00631228
0.00530083
0.00536658
0.00643174
0.00686452
0.00678631
0.00639194
0.00537036
0.00543137
0.00650767
0.00693941
0.00685605
0.00646396
0.00543156
0.00548612
0.00657411
0.00700569
0.00692056
0.0065335
0.00548629
0.00553071
0.00663058
0.00706291
0.00699002
0.00659822
0.00553087
0.00556551
0.00667749
0.0071113
0.00705282
0.00665294
0.00556565
0.00559127
0.00671542
0.00715134
0.00710615
0.00669786
0.00559137
0.00560906
0.00674521
0.00718368
0.00715029
0.00673358
0.00560906
0.00562008
0.00676779
0.00720935
0.00718606
0.00676135
0.00562021
0.00562562
0.00678416
0.00722926
0.00721431
0.00678206
0.00562597
0.00562706
0.00679571
0.00724456
0.00723635
0.00679686
0.00562754
0.00562544
0.00680331
0.00725596
0.00725292
0.00680677
0.00562596
0.00562154
0.00680778
0.00726445
0.00726498
0.00681265
0.00562201
0.00561625
0.00681007
0.00727044
0.0072736
0.00681522
0.00561634
0.00561003
0.0068107
0.00727456
0.00727948
0.00681574
0.00560961
0.00560278
0.0068095
0.00727711
0.0072831
0.00681474
0.00560226
0.00559513
0.00680708
0.00727828
0.0072854
0.00681264
0.00559472
0.00558751
0.00680415
0.00727871
0.00728652
0.00680968
0.00558705
0.00557995
0.00680058
0.00727826
0.0072864
0.00680609
0.00557944
0.00557201
0.00679593
0.00727687
0.00728616
0.00680269
0.00557222
0.00556444
0.00679183
0.0072762
0.00728523
0.00679866
0.00556477
0.00555661
0.00678652
0.00727384
0.00728358
0.00679383
0.00555719
0.00554939
0.00678199
0.00727194
0.00728138
0.00678886
0.00554982
0.00554277
0.00677819
0.007271
0.0072799
0.00678486
0.00554056
0.00552782
0.00676063
0.0072551
0.00723037
0.00672958
0.00548712
0.00547327
0.00669817
0.00719986
0.0070578
0.00652799
0.00531244
0.00541528
0.00662401
0.00711261
0.00680943
0.00626093
0.00506621
0.00559691
0.00684451
0.00731024
0.00731113
0.00661115
0.00526089
0.00651069
0.00811021
0.00881175
0.00956741
0.00848057
0.00655635
0.00821788
0.0119329
0.014953
0.0140244
0.0182192
0.0155663
0.0146089
0.0139329
0.0137457
0.0136305
0.0136582
0.0136655
0.0136889
0.0137011
0.0137569
0.0138606
0.0140271
0.0143937
0.0152799
0.0195528
0.027904
0.0299316
0.0272885
0.02583
0.0235802
0.0211018
0.0180668
0.0123999
0.0110308
0.0165726
0.0198932
0.017753
0.0154219
0.0105277
0.00876783
0.0129461
0.0150968
0.0141153
0.0123633
0.00848814
0.00784438
0.0115576
0.0133569
0.0131195
0.0114414
0.0077446
0.00761687
0.0112329
0.012948
0.0129664
0.0112333
0.00761154
0.00760877
0.0112273
0.0129461
0.0129555
0.0112363
0.00762428
0.00763266
0.0112449
0.0129616
0.0129706
0.011254
0.00764143
0.00764174
0.0112386
0.0129631
0.0129967
0.011293
0.00766628
0.00766713
0.0112772
0.0129894
0.0129972
0.0112863
0.00767645
0.00767786
0.011272
0.0129768
0.0130378
0.0113155
0.00769578
0.00771303
0.0113238
0.013018
0.0130256
0.0113102
0.00770723
0.00772657
0.0113217
0.0130078
0.01307
0.0113548
0.00773725
0.00775468
0.0113632
0.0130501
0.0130589
0.011351
0.0077499
0.00776681
0.011358
0.0130389
0.0131002
0.0113918
0.00777837
0.00779719
0.0114018
0.0130814
0.0130907
0.0113894
0.00779247
0.00781243
0.0114014
0.0130732
0.0131363
0.0114354
0.00782411
0.00784258
0.0114445
0.0131166
0.0131247
0.0114314
0.00783784
0.00785608
0.0114398
0.0131061
0.0131694
0.0114759
0.00786889
0.00788818
0.0114859
0.0131509
0.0131613
0.0114856
0.00789221
0.00789744
0.0114759
0.0131437
0.0132061
0.0115206
0.00791668
0.00793507
0.0115287
0.0131869
0.0131972
0.0115294
0.00793951
0.00794385
0.0115179
0.0131798
0.0132446
0.0115655
0.00796487
0.00798525
0.0115769
0.0132266
0.0132362
0.0115757
0.00798854
0.00799276
0.0115639
0.0132191
0.0132837
0.0116114
0.0080136
0.00803296
0.0116217
0.0132657
0.0132764
0.0116216
0.00803679
0.0080408
0.0116101
0.0132599
0.0133252
0.0116576
0.00806116
0.00808239
0.0116713
0.0133091
0.0133214
0.0116723
0.00808607
0.00808893
0.01166
0.0133053
0.0133709
0.0117069
0.00810826
0.00812854
0.0117202
0.0133552
0.0133683
0.0117219
0.00813189
0.00813471
0.0117112
0.0133539
0.0134217
0.0117598
0.00815391
0.00817288
0.0117729
0.0134073
0.0134232
0.0117788
0.00817744
0.00817888
0.0117684
0.013411
0.0134821
0.0118201
0.00819809
0.0082163
0.0118355
0.0134704
0.0134885
0.0118292
0.00821021
0.00822628
0.0118433
0.0134785
0.013553
0.0118865
0.00823652
0.0082541
0.0119049
0.0135456
0.0135692
0.0119045
0.00824871
0.00826558
0.0119248
0.0135649
0.0136445
0.0119713
0.00827477
0.00829184
0.0119941
0.0136418
0.0136695
0.0120048
0.0082915
0.00829425
0.0120093
0.0136718
0.01376
0.0120768
0.00831474
0.00833566
0.0121087
0.0137659
0.0138026
0.0121312
0.00834135
0.00834722
0.0121414
0.0138115
0.0139062
0.0122148
0.00837186
0.00839935
0.0122548
0.0139179
0.0139622
0.0122751
0.00840605
0.00844191
0.0123235
0.013981
0.0140885
0.0123993
0.00847489
0.00852763
0.0124646
0.0141165
0.0141788
0.0125201
0.00856892
0.00863265
0.0125886
0.0142292
0.0143301
0.0126727
0.00869421
0.00877544
0.0127633
0.0143924
0.0144782
0.0128676
0.00887194
0.00898571
0.0129835
0.0145726
0.0146716
0.0130977
0.00910953
0.00925868
0.0132297
0.014781
0.0149297
0.0134264
0.00946306
0.00969872
0.0136343
0.0150712
0.0152198
0.0138217
0.00994641
0.0101135
0.013928
0.0152757
0.0154252
0.0139814
0.0102656
0.0105902
0.0142478
0.0155035
0.0155926
0.0142999
0.0106627
0.0108973
0.014396
0.0156384
0.015763
0.0145606
0.0111184
0.011361
0.014657
0.0158643
0.0161148
0.015028
0.0117547
0.0119661
0.0151451
0.0162196
0.0165911
0.0155734
0.0124946
0.0126691
0.0156674
0.0166711
0.0167766
0.0162347
0.0135436
0.0131574
0.0150157
0.0146465
0.0435967
0.0321085
0.0187773
0.012565
0.020771
0.0288603
0.0191513
0.0169439
0.0119055
0.0110682
0.0150588
0.0163581
0.0157499
0.0147098
0.0110928
0.0111838
0.0149347
0.0162575
0.0160115
0.0148058
0.0113423
0.0117886
0.0152307
0.0164897
0.0162176
0.0150697
0.0119796
0.012755
0.0159435
0.0169761
0.0168648
0.0158529
0.0129342
0.013706
0.0163981
0.0171692
0.0149852
0.0153519
0.0136518
0.0190835
0.0314219
0.042251
0.0297458
0.0218697
0.0140474
0.0135971
0.0180643
0.0200485
0.0179624
0.016763
0.0132413
0.0132106
0.0163848
0.0174615
0.0172624
0.0163174
0.013459
0.0135849
0.0162877
0.0171655
0.0171015
0.0165328
0.0141559
0.0137685
0.015038
0.0144235
0.0421069
0.031502
0.0194307
0.0152723
0.0226102
0.029708
0.0200045
0.0182288
0.0140914
0.0137337
0.0167283
0.0174791
0.016811
0.0162386
0.013782
0.0141961
0.0165284
0.0171011
0.0147173
0.015389
0.0141398
0.0193593
0.0309602
0.0409967
0.0302467
0.0224832
0.0149811
0.0148682
0.0185772
0.0204895
0.0182993
0.0170528
0.0143348
0.0149593
0.0172153
0.0175534
0.0142404
0.015062
0.0142108
0.019798
0.0309206
0.0407931
0.0298579
0.022766
0.0156114
0.0149387
0.0182592
0.019679
0.0172843
0.0168601
0.014641
0.0144267
0.0152625
0.0144521
0.0390441
0.0298376
0.0193655
0.0157935
0.0227382
0.0298131
0.0200144
0.0184287
0.0152809
0.015006
0.0170092
0.0174702
0.0135436
0.0146729
0.0144729
0.0193832
0.0288994
0.0366183
0.0275205
0.0221415
0.0164255
0.0147016
0.0156711
0.0149946
0.0341694
0.0271595
0.0184286
0.0158582
0.0211315
0.0258048
0.013166
0.0139813
0.0132941
0.01562
0.0218116
0.0260632
0.0138631
0.0128675
0.0109763
0.0110492
0.0160998
0.0195643
0.00483277
0.00459333
0.00428079
0.00562272
0.00910736
0.0111681
0.0138912
0.0120627
0.00869372
0.0142757
0.0170873
0.0185978
0.0224115
0.0213105
0.0188442
0.0206869
0.0219232
0.0215744
0.0370734
0.032193
0.0244747
0.0252104
0.0330963
0.0383092
0.0373875
0.0329418
0.0255965
0.0269199
0.036453
0.0428355
0.0266551
0.0268157
0.0236429
0.0245032
0.0354627
0.0458589
0.0488429
0.0386353
0.0263262
0.024021
0.0315331
0.0366745
0.045299
0.0371209
0.0262745
0.0221203
0.025416
0.0257717
0.0429396
0.0337602
0.0240625
0.0260139
0.0384792
0.048914
0.0251191
0.024843
0.0214253
0.0232832
0.0330288
0.0420059
0.0487515
0.038114
0.0254111
0.0209183
0.0242617
0.0245732
0.0415183
0.0323677
0.0227341
0.0250425
0.0377398
0.0485382
0.0245384
0.0241883
0.0206875
0.0226393
0.0320373
0.0411276
0.0483943
0.0376717
0.0251332
0.0206779
0.0240348
0.0243003
0.040883
0.0319342
0.0223852
0.0247559
0.0374706
0.0480617
0.0243847
0.0239625
0.0204998
0.0222274
0.0315587
0.0406009
0.0480559
0.037302
0.0246446
0.020077
0.0233851
0.0238687
0.0395165
0.0307107
0.0216707
0.0241905
0.0367111
0.0474716
0.0211242
0.0214125
0.0191594
0.0197528
0.0247271
0.0278139
0.0407357
0.0302393
0.0200996
0.0235114
0.0366834
0.0477834
0.0227976
0.0225109
0.019196
0.0216791
0.0312231
0.0401051
0.047322
0.0366007
0.0237908
0.0193869
0.0228869
0.0236393
0.0407359
0.030905
0.0206675
0.0236988
0.0368546
0.0475936
0.0235625
0.0232318
0.0195881
0.0218334
0.0315695
0.0406428
0.0477969
0.036704
0.0238085
0.0194663
0.0232707
0.0239609
0.0405905
0.0315979
0.0219581
0.0239579
0.0368163
0.0477821
0.0236747
0.0230357
0.0194026
0.0212798
0.0314478
0.0408348
0.0478469
0.0370358
0.024032
0.0198446
0.0236386
0.0242313
0.0415129
0.0315742
0.0212892
0.0242802
0.0372516
0.048141
0.024401
0.0238281
0.0200906
0.0213607
0.0323447
0.0429771
0.0476676
0.0368951
0.0239268
0.0216202
0.0294698
0.0349847
0.044427
0.0360555
0.0245212
0.0207556
0.0245909
0.0253486
0.0417369
0.0324961
0.0226159
0.0248877
0.0376608
0.0482525
0.0250291
0.0242155
0.0203768
0.0223157
0.0321596
0.0413971
0.0485457
0.0378316
0.0248605
0.0207158
0.0244213
0.0248864
0.0422379
0.0327821
0.0227501
0.025026
0.0380305
0.048824
0.0252535
0.0245075
0.0206448
0.0228066
0.0329309
0.0424622
0.0492227
0.0383077
0.0253588
0.0212118
0.0249392
0.0256383
0.0448691
0.0339453
0.0226784
0.0250398
0.0381285
0.0491466
0.037063
0.0313562
0.0229475
0.0250318
0.0366334
0.0451747
0.0263762
0.0254912
0.0213615
0.0236337
0.0341625
0.043791
0.0499705
0.0392383
0.025909
0.0217018
0.0256242
0.0263058
0.0459263
0.0350801
0.0235472
0.025558
0.0387034
0.049956
0.03765
0.0318186
0.0234931
0.0258273
0.0374775
0.0461944
0.027365
0.026493
0.0222934
0.0244435
0.0349706
0.0448884
0.0510039
0.0399753
0.026685
0.022436
0.0263866
0.0270511
0.0469497
0.0357449
0.0241473
0.026161
0.0393765
0.0506172
0.0386337
0.0326635
0.024049
0.0263938
0.0382152
0.0468814
0.0277085
0.0269181
0.0228556
0.0249603
0.035924
0.0462002
0.0519997
0.041077
0.0273556
0.0229943
0.0271425
0.0277043
0.0479709
0.0377323
0.0265003
0.0269956
0.0404557
0.0518447
0.0396992
0.0336163
0.0246589
0.0271335
0.0392078
0.0478353
0.0289021
0.0279914
0.0236626
0.025649
0.0375366
0.04917
0.0525258
0.0411411
0.0274961
0.0255355
0.0344599
0.0406986
0.0487856
0.0400358
0.027951
0.0239632
0.0284461
0.0293146
0.0495505
0.0385995
0.0268306
0.0278917
0.0414002
0.0528406
0.0412183
0.0348813
0.0258585
0.0284628
0.0405302
0.0494031
0.0301158
0.029245
0.0245788
0.0276687
0.0394759
0.0506601
0.0540416
0.0424893
0.0287988
0.0265111
0.035689
0.0421295
0.0501636
0.0411383
0.0288299
0.0250328
0.0294474
0.0303453
0.0514143
0.0397605
0.0269789
0.0288651
0.0430134
0.0546244
0.0429934
0.0362933
0.0268832
0.0292758
0.0417497
0.0509365
0.0311393
0.0302381
0.0254671
0.0291545
0.0415866
0.0526987
0.0551833
0.0437211
0.0297039
0.0278175
0.0381173
0.0452015
0.0508108
0.0416676
0.0294012
0.0274261
0.0370852
0.0435482
0.0509061
0.0421171
0.0296794
0.026218
0.0311307
0.0321894
0.0537982
0.0417578
0.0290809
0.030412
0.0447363
0.0565532
0.0450598
0.0381301
0.0283018
0.0305331
0.0435191
0.0525166
0.0322605
0.0314418
0.0266363
0.0304468
0.0431857
0.0548042
0.0570991
0.0451526
0.0307832
0.0286735
0.0393321
0.0469721
0.0526572
0.0429709
0.0302197
0.0286671
0.0385206
0.045473
0.0530342
0.0440073
0.0313591
0.0272965
0.0323071
0.0334841
0.0565947
0.0438119
0.030147
0.0315411
0.0463997
0.058739
0.0485331
0.0405572
0.0296647
0.0312889
0.0442666
0.0538325
0.0471064
0.039977
0.0297748
0.0317737
0.044743
0.05376
0.0342453
0.0330671
0.0278942
0.0312037
0.0446469
0.0574096
0.059362
0.0471155
0.0322186
0.0305294
0.0416586
0.0495747
0.0551044
0.045438
0.0321708
0.0305876
0.040889
0.047918
0.0552466
0.0461324
0.0328954
0.0289409
0.0341358
0.0352092
0.0588378
0.0456818
0.0316704
0.0331288
0.0483188
0.0608362
0.0505759
0.042262
0.0308918
0.0327288
0.0460787
0.0558744
0.0491703
0.0415832
0.0309968
0.033752
0.0469767
0.0562967
0.0358534
0.0346538
0.0295836
0.0320585
0.0469479
0.0608128
0.0622447
0.0490174
0.0333299
0.0318895
0.043682
0.0520301
0.057503
0.0474929
0.0335188
0.0321157
0.0430156
0.0503693
0.0577233
0.0481011
0.0345103
0.0302147
0.0354643
0.0366092
0.0620208
0.0475938
0.0326365
0.0341849
0.0500805
0.0634235
0.0533369
0.0446755
0.0329489
0.034737
0.0485782
0.0585402
0.0537674
0.0453528
0.0332664
0.0350019
0.0486
0.0585851
0.052348
0.0444969
0.0330969
0.0358013
0.0497515
0.0591496
0.0385634
0.0373578
0.03146
0.035819
0.0504128
0.0637631
0.0649625
0.0516751
0.0359335
0.0339533
0.04625
0.0549367
0.0594804
0.0493428
0.0353721
0.0340263
0.0460792
0.0549886
0.0598964
0.0498318
0.0360994
0.0341184
0.0457103
0.0535353
0.0608544
0.0510129
0.0368362
0.0323449
0.0379962
0.0392521
0.0660809
0.051431
0.0354988
0.0367615
0.0534192
0.0668745
0.0566684
0.0476375
0.0351613
0.0367754
0.0511448
0.0617316
0.0568274
0.0481172
0.0353127
0.0370445
0.0513279
0.0614652
0.0552306
0.0470567
0.03523
0.0377829
0.0520797
0.0624047
0.0406048
0.0392236
0.0332947
0.0365419
0.0528542
0.0679581
0.0688661
0.0545413
0.0375894
0.0361648
0.0488956
0.0584122
0.0631254
0.0523849
0.0378199
0.0366309
0.0495689
0.0588181
0.0633908
0.052878
0.0383401
0.0362539
0.0481565
0.056783
0.0642459
0.0538359
0.0392153
0.0343369
0.0403297
0.0413528
0.0695031
0.0552001
0.0391973
0.0393795
0.056566
0.0706557
0.0601223
0.0504576
0.0370788
0.0389462
0.054274
0.0651761
0.0608315
0.0512716
0.0379042
0.0394843
0.0541719
0.0646835
0.061267
0.0513067
0.0378197
0.0400093
0.0547491
0.0655108
0.0597915
0.0507573
0.0379542
0.0405026
0.0556521
0.0663851
0.043132
0.0417975
0.0358761
0.03895
0.0560733
0.0729445
0.0733056
0.0580807
0.0401922
0.0386911
0.0523005
0.0622064
0.0671295
0.0561311
0.0403667
0.0391369
0.0526846
0.0624004
0.0667182
0.0559936
0.0409124
0.0392823
0.0529893
0.062761
0.0677293
0.0565403
0.0413922
0.039285
0.0519536
0.0613274
0.0689694
0.0578214
0.0423922
0.0370385
0.0431733
0.0447488
0.0752332
0.0587277
0.0410759
0.0424881
0.0608772
0.0759111
0.0648028
0.0549794
0.0408474
0.0423672
0.0583776
0.069881
0.0649499
0.0551201
0.0409359
0.0426113
0.0580687
0.0692498
0.0656285
0.0554219
0.0411383
0.043115
0.0587719
0.0700139
0.0640726
0.0541636
0.0407487
0.0437674
0.0596669
0.0710036
0.0463778
0.0451509
0.0387185
0.0419816
0.0604449
0.0777969
0.078704
0.0624488
0.0432552
0.0419198
0.0563098
0.0669365
0.0723148
0.0598214
0.0435146
0.0421773
0.0567605
0.0672554
0.0714601
0.0602425
0.0441124
0.0423701
0.0570131
0.0679727
0.0728373
0.0611172
0.0446315
0.0423788
0.0561775
0.0657303
0.073882
0.0624756
0.0455691
0.0400946
0.0465032
0.0478438
0.0810874
0.0628583
0.0441527
0.0454061
0.064831
0.0818075
0.0695691
0.058847
0.0437851
0.045503
0.0626834
0.0750664
0.0699402
0.0588284
0.0438922
0.0458722
0.0621732
0.0743154
0.0706299
0.0594832
0.0441968
0.0464016
0.0630001
0.0750083
0.0688108
0.058508
0.0441877
0.0472945
0.0644763
0.0763696
0.0496324
0.0483189
0.041773
0.0451478
0.0649251
0.0841785
0.0849473
0.0672915
0.0466727
0.045507
0.060841
0.0720994
0.0775875
0.0650223
0.0472999
0.0456126
0.0613236
0.0724892
0.0772064
0.0648595
0.0475508
0.0459168
0.0617857
0.0732814
0.0777877
0.0654993
0.0482459
0.0462989
0.0620191
0.0733982
0.0787063
0.0662388
0.0488868
0.046139
0.0606144
0.0711932
0.0800202
0.067435
0.0498515
0.043669
0.0505477
0.0520211
0.0873539
0.0686243
0.0488818
0.0501388
0.0710673
0.0882785
0.0753395
0.0637665
0.0477305
0.0496662
0.0680856
0.0814486
0.0758041
0.0642832
0.0481056
0.0502709
0.0681898
0.0808052
0.0763666
0.0646044
0.0485241
0.0508134
0.0685434
0.0819372
0.0741477
0.0632392
0.0480908
0.0514185
0.0697631
0.0827802
0.0544175
0.0527897
0.0455531
0.0504629
0.0713158
0.0910584
0.0917925
0.0737688
0.0517107
0.0495473
0.0660835
0.0781285
0.0839658
0.0699963
0.0514042
0.0497344
0.0664925
0.078571
0.0836707
0.0705341
0.0519675
0.0502347
0.0669814
0.0789932
0.084671
0.0713152
0.0526336
0.0500191
0.0656135
0.0767739
0.0862114
0.0730258
0.0537277
0.0470416
0.0543633
0.0558621
0.0942292
0.0743037
0.0532825
0.0543624
0.0766828
0.0951607
0.0810914
0.0685937
0.0514789
0.0536366
0.073244
0.0876811
0.0815558
0.0691194
0.0519176
0.0543338
0.0733305
0.0873026
0.0821568
0.0694854
0.0521734
0.0548664
0.0740677
0.0882595
0.0798706
0.0682023
0.0520631
0.0558602
0.0755321
0.0892323
0.0586651
0.0570173
0.0493328
0.0548671
0.0770614
0.098383
0.0992664
0.0794023
0.056336
0.0541599
0.0717513
0.0845915
0.090728
0.0761808
0.0561064
0.0541971
0.0719011
0.0847821
0.0907039
0.0762633
0.0566364
0.0543793
0.0722513
0.0851458
0.0916935
0.0773024
0.0572218
0.0539208
0.0705739
0.0825465
0.0932361
0.0789987
0.0581896
0.0511636
0.0588347
0.0603818
0.101583
0.0797178
0.0568479
0.0584547
0.0825502
0.103052
0.0874632
0.0740964
0.0560083
0.0584866
0.0793879
0.0950983
0.0881102
0.0748501
0.056569
0.0592559
0.079622
0.0947984
0.0862689
0.0738223
0.0564018
0.059858
0.0812813
0.096375
0.0621773
0.0607646
0.0530188
0.0583275
0.082354
0.105492
0.106487
0.0855608
0.0601645
0.0577113
0.0763512
0.0902209
0.0980964
0.0816693
0.0599641
0.0579796
0.0766612
0.0901931
0.0981097
0.0824225
0.0609662
0.057736
0.0753947
0.0880034
0.0996282
0.0842732
0.0622448
0.0544363
0.0624952
0.0639264
0.10871
0.0859155
0.0618455
0.063098
0.0889827
0.110486
0.0936199
0.0793908
0.0598673
0.0628026
0.0854219
0.101859
0.0940841
0.0801854
0.0605122
0.0628998
0.085039
0.10144
0.0918962
0.0785522
0.0601133
0.0643616
0.0870617
0.103255
0.0659348
0.0645815
0.0564264
0.062212
0.0877747
0.112862
0.114425
0.09147
0.0645833
0.0616273
0.0815516
0.0962908
0.104925
0.0880775
0.0645384
0.062236
0.0821273
0.0964695
0.105114
0.0881961
0.0652375
0.0618565
0.0806538
0.0940621
0.107024
0.0905355
0.0667421
0.058678
0.0670031
0.0684281
0.117389
0.0919894
0.0654625
0.0676465
0.0960088
0.119538
0.100104
0.0850088
0.0643265
0.0672307
0.0913581
0.109619
0.100318
0.0853173
0.0644927
0.0675137
0.09144
0.108888
0.0978711
0.0837969
0.0641965
0.0688552
0.0931428
0.110462
0.0705537
0.0690184
0.0603802
0.0671804
0.0940643
0.11984
0.123091
0.0983748
0.069522
0.0663543
0.0871246
0.10246
0.113542
0.0946387
0.0695582
0.0660711
0.0856163
0.0993424
0.114634
0.0967919
0.0710952
0.0628959
0.0714045
0.0725365
0.124945
0.0980805
0.069935
0.0724725
0.102848
0.127942
0.106246
0.0901868
0.0685065
0.0716994
0.0971948
0.116728
0.106229
0.0904537
0.0686263
0.072411
0.0980031
0.116641
0.103423
0.0887482
0.0683932
0.0739079
0.09981
0.11859
0.0760159
0.0741289
0.0644917
0.0727957
0.100776
0.127491
0.130749
0.105157
0.0750045
0.0710287
0.0931234
0.10924
0.12161
0.101542
0.0745386
0.0710556
0.0915017
0.105962
0.122757
0.103555
0.0771186
0.0674634
0.076489
0.077494
0.131104
0.103443
0.0744066
0.077322
0.10904
0.135598
0.111886
0.0951542
0.0725985
0.0771738
0.104671
0.125524
0.108255
0.0931084
0.072015
0.0780888
0.105899
0.125765
0.0797102
0.0778543
0.067929
0.076562
0.10568
0.133673
0.140151
0.112184
0.079789
0.0738417
0.095086
0.110476
0.130406
0.109273
0.0801277
0.0697865
0.0789733
0.0799445
0.138956
0.109491
0.0789944
0.0824679
0.115968
0.143898
0.118993
0.101829
0.0779256
0.0811662
0.11064
0.132699
0.114851
0.0989539
0.0765768
0.0818084
0.111296
0.132555
0.0826542
0.0813127
0.071693
0.0795417
0.110359
0.140198
0.147593
0.117875
0.0833355
0.0770239
0.0993389
0.115497
0.13745
0.115108
0.0837731
0.0725081
0.081998
0.0830943
0.14409
0.113586
0.0817854
0.0857491
0.121784
0.152201
0.120601
0.103699
0.0804209
0.0870842
0.118784
0.142187
0.0851557
0.0847924
0.0755972
0.0834453
0.116057
0.147514
0.156765
0.125196
0.0880452
0.0810941
0.104478
0.121113
0.144825
0.121027
0.0880272
0.0760289
0.0856499
0.086504
0.150822
0.118408
0.0850168
0.0895493
0.127484
0.160313
0.125121
0.10761
0.0832713
0.0900768
0.124268
0.148603
0.0885308
0.0879867
0.0781754
0.0881427
0.12224
0.15531
0.167178
0.13407
0.0943507
0.0876188
0.111975
0.128718
0.153886
0.128333
0.093343
0.0801779
0.0900191
0.0907722
0.157748
0.124536
0.0899747
0.0944426
0.133958
0.168324
0.130422
0.112265
0.0870607
0.0944254
0.129991
0.156669
0.0925372
0.0919779
0.0818479
0.0915482
0.126598
0.160556
0.173149
0.138715
0.0975618
0.0895944
0.11437
0.132266
0.163256
0.1362
0.0993514
0.0857159
0.0950282
0.0951246
0.161075
0.128942
0.094739
0.100855
0.144175
0.180029
0.0949231
0.0943303
0.0845596
0.095025
0.131316
0.166065
0.180113
0.14341
0.100483
0.0917531
0.117655
0.136009
0.167086
0.138943
0.100774
0.0864976
0.0970271
0.0977798
0.164138
0.130773
0.0961546
0.104885
0.150242
0.187624
0.0964259
0.0969292
0.0880482
0.100143
0.135773
0.169753
0.194275
0.154192
0.108044
0.0887652
0.0983465
0.0983349
0.17578
0.13901
0.100525
0.10754
0.153791
0.194103
0.143661
0.124431
0.09741
0.107735
0.149206
0.179347
0.103153
0.102524
0.0916752
0.101976
0.137571
0.171844
0.200356
0.160196
0.112271
0.0935375
0.102541
0.102227
0.177505
0.142519
0.105794
0.114386
0.163503
0.205492
0.103208
0.103073
0.093332
0.103619
0.140269
0.175623
0.207646
0.164746
0.114568
0.0937786
0.103428
0.103482
0.177418
0.141628
0.104705
0.116094
0.167381
0.210407
0.105896
0.105995
0.0960588
0.107794
0.144781
0.18104
0.21805
0.173872
0.121248
0.0939309
0.097535
0.092685
0.123267
0.115115
0.0980758
0.104952
0.144544
0.185249
0.224948
0.175221
0.119083
0.0957526
0.104537
0.103548
0.182479
0.145572
0.107675
0.123563
0.17988
0.228077
0.0927411
0.0977735
0.0957733
0.105801
0.123004
0.130271
0.191713
0.150482
0.109586
0.12361
0.183345
0.236817
0.0933743
0.097811
0.0939461
0.101002
0.118736
0.127583
0.191356
0.148083
0.107847
0.12914
0.191368
0.243427
0.0923153
0.098794
0.0973953
0.106456
0.12382
0.130108
0.190542
0.148164
0.107496
0.127656
0.190748
0.246644
0.0911713
0.0966583
0.0942948
0.0990863
0.110653
0.114038
0.130293
0.119792
0.10208
0.116344
0.158626
0.197323
0.248753
0.189894
0.124971
0.0906973
0.0938135
0.0891032
0.103833
0.10218
0.0925337
0.0915533
0.100214
0.102502
0.107757
0.105565
0.0936799
0.0924491
0.111894
0.120141
0.17714
0.13661
0.097978
0.123921
0.189886
0.250341
0.0841664
0.0895315
0.0875023
0.0868052
0.0961036
0.0967078
0.0918348
0.0881583
0.0776283
0.0764452
0.087578
0.0900432
0.086823
0.0834021
0.0707736
0.0662642
0.0796438
0.0837152
0.080686
0.0760933
0.0619277
0.0590435
0.0737862
0.0788395
0.0768975
0.0716139
0.0563907
0.0542041
0.0698288
0.0755734
0.0741939
0.0681724
0.0522495
0.0505893
0.0667738
0.0731591
0.0721156
0.0654719
0.0490887
0.0477206
0.0642503
0.0712199
0.0703511
0.0632195
0.046562
0.0453287
0.0620062
0.069541
0.0686135
0.0609701
0.0442858
0.0433377
0.0599958
0.0678749
0.067083
0.0590746
0.0424744
0.0416919
0.058211
0.0664067
0.0656714
0.0573947
0.0409817
0.0403406
0.0566309
0.0650474
0.0643619
0.0559075
0.0397592
0.0392347
0.0552306
0.0637839
0.0631425
0.0545888
0.0387588
0.0383323
0.0539902
0.062605
0.0620026
0.0534231
0.0379488
0.0376095
0.0528977
0.0615034
0.0609401
0.052401
0.0373063
0.0370398
0.0519423
0.0604781
0.0599502
0.0515072
0.0368016
0.0365942
0.0511069
0.0595222
0.0590291
0.0507267
0.0364097
0.0362508
0.0503777
0.0586354
0.0581764
0.0500443
0.0361094
0.0359902
0.0497397
0.0578158
0.0573896
0.0494474
0.0358847
0.0357977
0.0491816
0.057061
0.0566664
0.0489254
0.0357207
0.0356592
0.0486936
0.0563682
0.0560033
0.0484681
0.0356046
0.0355624
0.0482649
0.0557342
0.0553982
0.0480659
0.0355246
0.0354976
0.0478878
0.0551567
0.0548471
0.0477117
0.0354731
0.0354578
0.0475552
0.0546318
0.0543485
0.0474037
0.0354499
0.0354434
0.0472656
0.0541581
0.0538981
0.0471316
0.0354441
0.0354431
0.047009
0.053731
0.0534939
0.0468901
0.0354477
0.0354491
0.0467814
0.0533482
0.0531302
0.0466752
0.0354559
0.0354586
0.0465789
0.0530034
0.052805
0.0464848
0.0354657
0.035468
0.0463994
0.0526956
0.0525129
0.0463154
0.0354751
0.0354775
0.0462403
0.0524191
0.0522528
0.0461662
0.035484
0.0354852
0.0460999
0.0521732
0.0520186
0.0460337
0.0354916
0.0354932
0.0459756
0.0519512
0.0518109
0.0459178
0.0354987
0.0354986
0.0458669
0.0517555
0.0516245
0.045815
0.035503
0.0355026
0.04577
0.0515777
0.0514581
0.0457245
0.0355059
0.035504
0.045685
0.0514203
0.0513079
0.0456441
0.0355065
0.0355046
0.0456094
0.051277
0.0511741
0.0455736
0.0355064
0.0355034
0.0455427
0.0511504
0.0510527
0.0455098
0.0355047
0.0355019
0.0454821
0.0510342
0.0509439
0.0454529
0.0355026
0.0354986
0.0454281
0.050931
0.0508443
0.045401
0.0354989
0.0354952
0.0453787
0.0508352
0.0507549
0.0453548
0.0354951
0.0354908
0.0453351
0.0507503
0.0506725
0.0453123
0.0354899
0.035486
0.0452946
0.0506707
0.0505985
0.0452748
0.0354851