/*--------------------------------*- C++ -*----------------------------------*\
| =========                 |                                                 |
| \\      /  F ield         | OpenFOAM: The Open Source CFD Toolbox           |
|  \\    /   O peration     | Version:  v2006                                 |
|   \\  /    A nd           | Website:  www.openfoam.com                      |
|    \\/     M anipulation  |                                                 |
\*---------------------------------------------------------------------------*/
FoamFile
{
    version     2.0;
    format      ascii;
    class       volScalarField;
    location    "0.122";
    object      isentropic(p);
}
// * * * * * * * * * * * * * * * * * * * * * * * * * * * * * * * * * * * * * //

dimensions      [1 -1 -2 0 0 0 0];


internalField   nonuniform List<scalar> 
16277
(
150008
150014
150017
150003
150012
150010
150011
150012
150013
150013
150013
150012
150012
150011
150011
150011
150010
150010
150010
150010
150010
150010
150010
150009
150009
150009
150009
150009
150009
150009
150009
150009
150008
150008
150008
150008
150008
150008
150008
150008
150007
150007
150007
150007
150007
150007
150007
150007
150006
150006
150006
150006
150006
150006
150006
150006
150005
150005
150005
150005
150005
150005
150005
150005
150005
150004
150004
150004
150004
150004
150004
150004
150004
150004
150004
150003
150003
150003
150003
150002
150002
150001
150001
150000
150001
150003
150004
150005
150004
150006
150005
150007
150008
150011
150017
150015
149976
149936
150011
150022
150021
150002
149897
149860
149993
150018
150013
149981
149826
149796
149971
150008
150002
149959
149768
149744
149949
149997
149991
149938
149721
149703
149929
149986
149979
149919
149684
149669
149911
149975
149968
149901
149653
149640
149893
149964
149958
149884
149627
149616
149877
149953
149947
149868
149605
149595
149862
149943
149937
149854
149585
149577
149849
149934
149928
149841
149568
149561
149836
149925
149919
149829
149553
149547
149824
149916
149911
149817
149540
149534
149813
149908
149903
149807
149528
149523
149803
149901
149896
149797
149517
149513
149794
149893
149889
149788
149508
149504
149785
149887
149882
149779
149499
149496
149776
149880
149876
149771
149492
149489
149769
149874
149870
149764
149485
149483
149762
149868
149864
149757
149479
149477
149755
149863
149859
149750
149474
149473
149748
149857
149853
149744
149470
149469
149743
149852
149849
149738
149466
149465
149737
149848
149844
149733
149463
149463
149732
149843
149839
149728
149461
149461
149727
149839
149835
149724
149459
149459
149723
149835
149831
149720
149458
149458
149719
149831
149827
149716
149457
149458
149715
149827
149824
149712
149457
149458
149712
149824
149820
149709
149458
149459
149709
149820
149817
149706
149459
149460
149706
149817
149814
149704
149460
149462
149704
149814
149811
149702
149462
149464
149702
149811
149809
149700
149465
149467
149700
149809
149806
149698
149468
149470
149699
149807
149804
149697
149471
149474
149698
149804
149802
149696
149475
149478
149697
149802
149800
149695
149480
149483
149696
149801
149799
149695
149485
149488
149696
149799
149797
149695
149490
149494
149697
149798
149796
149696
149496
149499
149697
149797
149795
149697
149502
149506
149698
149796
149795
149698
149509
149512
149700
149796
149795
149700
149515
149519
149702
149796
149795
149702
149522
149527
149704
149796
149796
149705
149530
149534
149707
149797
149797
149708
149537
149542
149711
149799
149799
149711
149545
149549
149715
149801
149801
149716
149552
149557
149719
149804
149804
149721
149560
149564
149724
149807
149807
149726
149567
149571
149729
149810
149811
149731
149573
149578
149735
149814
149815
149737
149579
149583
149741
149819
149820
149742
149585
149588
149746
149823
149824
149748
149589
149591
149751
149828
149828
149753
149591
149593
149756
149832
149832
149757
149592
149594
149760
149835
149836
149760
149592
149593
149763
149839
149839
149763
149591
149591
149765
149842
149842
149765
149589
149588
149767
149844
149844
149767
149585
149584
149768
149846
149846
149767
149581
149580
149769
149848
149847
149767
149576
149574
149768
149849
149848
149767
149570
149568
149767
149850
149849
149765
149564
149563
149766
149850
149849
149764
149558
149556
149764
149850
149849
149762
149552
149550
149762
149850
149848
149760
149546
149545
149760
149849
149847
149757
149541
149539
149757
149848
149846
149755
149535
149534
149755
149847
149845
149752
149530
149529
149752
149845
149843
149749
149525
149524
149749
149844
149842
149746
149521
149520
149746
149842
149840
149744
149517
149515
149743
149841
149839
149741
149513
149512
149741
149839
149837
149738
149509
149508
149738
149837
149835
149735
149505
149504
149735
149835
149833
149733
149502
149501
149732
149833
149830
149729
149498
149498
149730
149831
149829
149727
149495
149494
149726
149828
149826
149724
149492
149492
149724
149827
149824
149722
149489
149489
149722
149825
149822
149719
149486
149486
149719
149823
149820
149716
149484
149483
149716
149820
149819
149714
149481
149481
149714
149819
149817
149711
149478
149479
149713
149818
149816
149712
149478
149479
149713
149819
149821
149717
149484
149496
149727
149832
149868
149775
149551
149515
149697
149792
149863
149921
149955
149966
149972
149984
149989
149994
149997
149999
149999
149998
149997
149993
149989
149979
149974
149968
149960
149947
149915
149843
149702
149540
149274
149256
149523
149685
149670
149506
149239
149230
149495
149659
149654
149492
149226
149227
149492
149653
149652
149491
149225
149225
149491
149653
149654
149492
149226
149227
149493
149655
149656
149494
149228
149229
149495
149657
149658
149496
149230
149231
149498
149660
149660
149498
149232
149233
149499
149661
149663
149501
149234
149234
149501
149663
149664
149502
149235
149236
149504
149666
149666
149504
149237
149238
149506
149667
149669
149507
149239
149240
149508
149670
149671
149509
149241
149242
149511
149672
149673
149511
149242
149244
149513
149674
149675
149514
149245
149246
149515
149676
149678
149517
149247
149248
149518
149679
149680
149519
149249
149250
149520
149681
149682
149522
149251
149252
149523
149683
149685
149524
149253
149254
149526
149686
149687
149526
149255
149256
149528
149688
149690
149529
149257
149258
149530
149691
149692
149532
149259
149260
149533
149693
149694
149534
149261
149262
149535
149696
149697
149537
149263
149264
149538
149698
149699
149539
149265
149266
149541
149701
149702
149542
149267
149268
149543
149703
149705
149544
149269
149270
149546
149706
149707
149547
149270
149271
149548
149709
149710
149549
149272
149273
149551
149711
149713
149552
149273
149274
149553
149714
149715
149554
149275
149275
149556
149717
149719
149557
149276
149277
149559
149720
149722
149560
149277
149277
149561
149724
149725
149563
149278
149278
149564
149727
149729
149566
149279
149279
149568
149731
149733
149569
149279
149280
149571
149735
149738
149573
149279
149280
149575
149740
149742
149577
149280
149280
149579
149745
149748
149581
149281
149280
149583
149750
149753
149585
149280
149280
149588
149756
149759
149590
149280
149280
149593
149762
149765
149595
149280
149281
149599
149768
149771
149602
149282
149283
149606
149775
149779
149611
149285
149287
149616
149784
149788
149622
149291
149295
149628
149793
149799
149634
149298
149303
149641
149804
149807
149647
149308
149316
149656
149813
149821
149668
149329
149338
149679
149827
149835
149691
149351
149366
149699
149842
149848
149711
149381
149398
149721
149855
149860
149730
149414
149432
149741
149867
149874
149753
149454
149475
149764
149879
149884
149774
149493
149515
149784
149889
149894
149793
149535
149564
149815
149906
149907
149831
149586
149311
149651
149800
149873
149731
149396
149409
149751
149889
149895
149762
149428
149451
149770
149901
149911
149786
149477
149503
149796
149918
149925
149815
149538
149567
149825
149924
149931
149842
149601
149621
149851
149939
149949
149870
149654
149688
149891
149950
149871
149763
149478
149584
149837
149933
149940
149858
149615
149633
149874
149960
149972
149890
149662
149684
149900
149977
149982
149912
149709
149743
149933
149995
149998
149944
149757
149613
149825
149932
149979
149906
149682
149708
149924
149991
150004
149938
149736
149761
149947
150009
150022
149966
149794
149831
149986
150025
149971
149903
149675
149757
149946
150023
150041
149971
149795
149835
149986
150032
150053
150007
149862
149893
150020
150049
150009
149959
149761
149867
150010
150051
150057
150023
149890
149919
150042
150079
150078
150057
149954
149849
150016
150048
150090
150059
149958
149974
150070
150098
150116
150095
150017
150036
150101
150111
150110
150082
149996
150067
150129
150146
150138
150137
150090
150097
150120
150151
150179
150180
150147
150181
150193
150178
150210
150215
150198
150275
150251
150217
150180
150222
150233
150278
150228
150187
150215
150261
150311
150293
150272
150233
150188
150213
150181
150035
150104
150103
150007
149953
149843
149888
149966
149977
149922
149867
149741
149800
149905
149930
149910
149858
149732
149627
149834
149853
149884
149829
149683
149626
149788
149851
149894
149849
149692
149655
149815
149876
149824
149752
149584
149660
149827
149873
149852
149802
149641
149558
149735
149812
149866
149820
149645
149626
149793
149840
149798
149719
149533
149638
149814
149859
149833
149787
149618
149519
149708
149791
149860
149816
149644
149618
149786
149833
149786
149703
149514
149627
149806
149852
149831
149781
149612
149511
149701
149788
149860
149809
149628
149608
149784
149842
149794
149704
149510
149641
149810
149851
149841
149783
149604
149533
149738
149852
149769
149695
149433
149599
149797
149853
149835
149760
149554
149491
149657
149771
149851
149792
149583
149540
149751
149841
149768
149693
149441
149592
149793
149847
149824
149758
149557
149484
149657
149766
149854
149795
149582
149549
149761
149841
149771
149652
149486
149582
149793
149852
149842
149756
149543
149442
149687
149766
149856
149794
149591
149561
149760
149838
149768
149696
149448
149593
149795
149854
149832
149754
149550
149429
149692
149758
149853
149787
149584
149502
149716
149803
149880
149820
149617
149587
149783
149858
149792
149698
149500
149622
149816
149871
149847
149784
149595
149511
149710
149801
149876
149826
149633
149617
149799
149848
149796
149708
149508
149615
149817
149877
149857
149782
149580
149502
149704
149795
149880
149827
149627
149591
149789
149864
149788
149725
149462
149606
149814
149878
149822
149736
149520
149624
149836
149895
149876
149806
149604
149511
149718
149811
149888
149833
149627
149596
149796
149863
149795
149731
149477
149609
149822
149884
149826
149740
149523
149648
149851
149904
149891
149819
149620
149523
149727
149820
149900
149844
149640
149598
149802
149881
149805
149738
149480
149611
149828
149892
149832
149744
149522
149654
149860
149911
149895
149823
149619
149517
149729
149821
149898
149842
149628
149594
149807
149877
149804
149674
149535
149594
149842
149889
149829
149742
149511
149642
149859
149913
149890
149817
149609
149485
149735
149814
149902
149839
149615
149529
149757
149846
149912
149856
149637
149599
149814
149882
149814
149701
149506
149600
149839
149900
149848
149760
149535
149649
149865
149919
149891
149821
149607
149523
149706
149824
149905
149848
149607
149524
149758
149847
149916
149860
149635
149587
149810
149900
149813
149735
149476
149628
149853
149911
149852
149766
149530
149633
149864
149921
149900
149819
149584
149525
149678
149818
149896
149862
149578
149500
149743
149838
149912
149849
149599
149515
149756
149850
149924
149874
149648
149607
149830
149909
149824
149730
149499
149605
149847
149909
149850
149759
149516
149615
149858
149920
149897
149811
149569
149511
149668
149814
149894
149857
149554
149470
149730
149831
149915
149855
149592
149511
149765
149859
149926
149866
149621
149578
149815
149900
149816
149731
149456
149575
149829
149902
149836
149739
149479
149592
149853
149913
149848
149755
149499
149610
149859
149921
149893
149809
149562
149481
149695
149821
149907
149852
149571
149473
149740
149841
149911
149851
149583
149494
149754
149848
149919
149859
149608
149564
149808
149895
149808
149710
149442
149561
149827
149898
149827
149725
149455
149575
149848
149911
149849
149752
149488
149603
149859
149919
149896
149801
149551
149404
149723
149801
149897
149814
149557
149429
149722
149822
149897
149837
149549
149450
149731
149830
149905
149842
149574
149522
149782
149880
149782
149703
149370
149548
149805
149891
149818
149711
149424
149539
149829
149895
149823
149719
149440
149547
149832
149897
149830
149731
149454
149571
149840
149903
149875
149787
149519
149431
149631
149788
149872
149827
149489
149393
149691
149803
149885
149812
149498
149412
149706
149815
149893
149825
149528
149434
149719
149825
149897
149833
149556
149499
149770
149869
149770
149683
149353
149500
149785
149872
149793
149681
149372
149490
149805
149875
149800
149690
149388
149507
149811
149879
149806
149697
149402
149536
149821
149887
149861
149760
149485
149327
149670
149759
149865
149767
149485
149346
149668
149782
149865
149795
149472
149351
149668
149783
149862
149792
149474
149370
149679
149790
149870
149801
149505
149438
149738
149838
149740
149562
149352
149403
149791
149832
149762
149640
149308
149440
149781
149854
149771
149649
149325
149443
149777
149852
149772
149654
149332
149451
149779
149853
149779
149666
149353
149475
149785
149856
149827
149715
149419
149232
149629
149715
149834
149711
149427
149257
149613
149736
149828
149750
149396
149276
149618
149742
149834
149758
149415
149294
149627
149750
149834
149758
149420
149312
149640
149759
149841
149768
149451
149381
149695
149808
149698
149584
149228
149382
149716
149811
149723
149593
149246
149374
149732
149814
149726
149599
149251
149375
149733
149815
149728
149602
149262
149396
149742
149820
149742
149621
149284
149416
149747
149823
149792
149674
149357
149158
149574
149673
149796
149673
149352
149188
149567
149700
149792
149709
149323
149182
149563
149697
149792
149712
149333
149198
149568
149701
149792
149710
149338
149228
149584
149711
149799
149720
149372
149308
149645
149766
149644
149525
149124
149303
149664
149770
149673
149533
149146
149283
149682
149770
149675
149536
149147
149300
149690
149773
149678
149541
149161
149303
149687
149773
149687
149554
149182
149331
149694
149776
149740
149608
149258
149039
149511
149612
149750
149603
149267
149073
149491
149638
149738
149645
149224
149085
149495
149640
149741
149650
149231
149093
149498
149643
149739
149647
149232
149107
149502
149645
149743
149654
149252
149126
149515
149656
149750
149663
149288
149212
149587
149717
149588
149415
149046
149190
149622
149710
149614
149459
149044
149193
149625
149717
149615
149463
149048
149199
149623
149717
149620
149471
149068
149210
149623
149718
149628
149486
149087
149243
149636
149725
149690
149553
149165
148971
149403
149551
149682
149564
149143
148973
149415
149575
149687
149591
149141
148978
149422
149581
149684
149588
149139
149000
149431
149585
149686
149590
149151
149016
149442
149592
149687
149592
149175
149086
149507
149647
149510
149317
148920
149059
149540
149640
149538
149367
148908
149075
149551
149655
149544
149375
148920
149095
149557
149658
149550
149387
148938
149103
149557
149658
149561
149404
148962
149141
149569
149666
149629
149479
149047
148838
149305
149474
149616
149492
149033
148833
149320
149496
149612
149499
149002
148838
149321
149496
149611
149501
149011
148859
149331
149502
149617
149511
149031
148872
149346
149512
149624
149523
149067
148979
149437
149592
149424
149237
148752
148963
149459
149581
149461
149277
148769
148964
149475
149588
149471
149292
148791
148990
149483
149589
149465
149288
148788
148974
149466
149576
149534
149363
148880
148627
149203
149366
149531
149379
148869
148658
149207
149403
149535
149413
148857
148668
149216
149408
149540
149420
148883
148698
149232
149421
149546
149434
148928
148805
149335
149504
149328
149067
148601
148770
149374
149481
149364
149159
148587
148790
149374
149496
149348
149142
148574
148786
149360
149487
149365
149166
148601
148821
149370
149495
149447
149249
148706
148426
149081
149257
149448
149268
148716
148459
149071
149292
149445
149314
148708
148494
149097
149311
149457
149323
148723
148517
149116
149324
149461
149341
148771
148647
149228
149428
149211
149001
148369
148576
149210
149377
149219
148986
148337
148602
149246
149389
149247
149020
148382
148618
149258
149401
149263
149040
148409
148661
149272
149408
149364
149150
148531
148242
148904
149142
149339
149171
148527
148281
148954
149194
149354
149207
148541
148312
148984
149212
149366
149235
148600
148482
149118
149334
149056
148819
148075
148386
149065
149255
149095
148837
148134
148413
149121
149284
149127
148874
148169
148440
149142
149298
149148
148903
148207
148486
149159
149311
149267
149039
148354
148047
148724
149021
149230
149073
148343
148080
148808
149080
149256
149104
148367
148116
148849
149103
149255
149130
148478
148204
148927
149168
148907
148608
147874
148195
148963
149141
148985
148710
147933
148225
149007
149181
149022
148752
147973
148281
149035
149202
149155
148901
148130
147787
148556
148879
149110
148921
148130
147841
148659
148956
149151
148982
148199
148042
148856
149119
148813
148479
147662
147969
148823
149018
148781
148454
147579
147905
148793
149004
148833
148523
147646
147998
148850
149043
148995
148697
147831
147449
148348
148698
148963
148740
147846
147509
148452
148780
149004
148813
147926
147729
148660
148960
148622
148248
147311
147744
148683
148906
148750
148412
147436
147777
148705
148905
148778
148440
147451
147020
148029
148447
148762
148527
147501
147150
148198
148570
148828
148609
147618
147406
148435
148783
148419
148014
146951
147408
148464
148734
148526
148141
147046
147524
148561
148785
148741
148388
147299
146817
147909
148349
148643
148393
147404
146767
147932
148336
148597
148332
147230
146986
148129
148503
148187
147697
146581
147057
148261
148529
148310
147879
146674
147199
148348
148598
148549
148152
146973
146443
147656
148127
148481
148197
147021
146611
147854
148281
148525
148329
147260
146993
148147
148498
147913
147380
146115
146725
147959
148277
148198
147764
146466
146001
147293
147860
148242
147947
146579
146118
147509
147998
148334
148060
146765
146518
147867
148298
147823
147277
145903
146623
147912
148205
148257
147832
146434
145667
147082
147703
147958
147542
146009
145671
147274
147818
147384
146707
145135
145922
147528
147879
147605
147023
145406
146195
147681
148015
147995
147489
145950
145287
146836
147465
147881
147559
146143
145981
147508
147967
147308
146636
145037
145403
147096
147568
147415
146811
145028
144471
146264
146976
147521
147102
145426
145140
146926
147517
147014
146274
144460
145459
147130
147521
147582
147005
145180
144516
146318
147016
147247
146790
145034
144282
146348
147023
146768
145979
143797
143090
145419
146273
146962
146462
144408
144031
146272
146994
146442
145507
143291
144611
146568
146976
147254
146744
144631
142987
145547
146477
145569
144483
141848
143342
145716
146348
146347
145560
142957
142502
145230
146238
145599
144582
141604
143603
145797
146344
146592
145882
143264
141306
144418
145615
144676
143459
140191
142293
144994
145695
145783
144935
141899
141487
144790
145841
145916
144913
141432
138652
142221
144093
144988
143814
140346
139903
143689
144934
144910
143570
139410
139360
143832
145153
144765
142969
137707
136449
141859
143967
142872
140531
135409
139334
143293
144433
144426
143018
138556
137364
142371
144100
143717
141928
136605
136199
141722
143499
143352
141273
135328
134898
141030
143252
143237
140873
134622
134340
140682
143211
143147
140455
134056
133800
140221
143059
142961
139990
133579
133395
139766
142857
142747
139550
133235
133099
139341
142632
142514
139144
132985
132890
138957
142394
142273
138782
132815
132755
138617
142151
142028
138463
132708
132675
138319
141905
141784
138186
132652
132637
138062
141662
141542
137948
132632
132632
137842
141423
141306
137745
132640
132653
137656
141189
141076
137574
132672
132696
137500
140964
140856
137433
132723
132754
137373
140749
140648
137319
132787
132824
137270
140548
140453
137228
132862
132902
137189
140360
140272
137155
132943
132985
137124
140186
140105
137097
133027
133070
137073
140026
139952
137052
133114
133157
137033
139881
139814
137018
133200
133243
137004
139750
139691
136992
133285
133327
136981
139633
139580
136973
133368
133408
136965
139529
139483
136960
133448
133487
136954
139438
139397
136951
133525
133562
136947
139358
139322
136946
133598
133632
136944
139288
139258
136943
133666
133698
136943
139228
139202
136944
133730
133759
136945
139176
139154
136947
133789
133816
136949
139132
139113
136952
133843
133868
136955
139094
139078
136958
133892
133915
136962
139062
139048
136966
133938
133959
136970
139034
139023
136975
133979
133999
136979
139011
139002
136984
134018
134035
136988
138992
138984
136993
134052
134068
136998
138975
138968
137004
134084
134098
137008
138961
138955
137013
134113
134126
137018
138949
138944
137023
134140
134152
137027
138939
138935
137032
134164
134175
137036
138930
138926
137041
134186
134196
137045
138922
138919
137050
134207
134216
137054
138916
138913
137058
134225
134233
137061
138910
138908
137066
134242
134250
137069
138905
138903
137073
134257
134264
137076
138901
138899
137080
134272
134278
137084
138897
138896
137087
134285
134291
137090
138894
138894
137094
134297
134302
137097
138892
138892
137101
134308
134313
137104
138891
138891
137107
134319
134323
137110
138890
138890
137114
134329
134333
137117
138889
138890
137120
134338
134342
137123
138889
138890
137127
134347
134351
137130
138889
138890
137133
134356
134360
137136
138889
138891
137140
134365
134369
137143
138890
138892
137146
134373
134377
137149
138892
138894
137153
134381
134385
137156
138894
138896
137160
134389
134393
137163
138896
138898
137167
134398
134401
137170
138898
138901
137174
134406
134409
137177
138901
138904
137181
134414
134417
137184
138904
138907
137188
134422
134425
137191
138908
138911
137195
134430
134433
137199
138912
138915
137203
134438
134441
137206
138916
138920
137210
134445
134449
137214
138921
138925
137218
134453
134457
137222
138926
138930
137226
134461
134465
137230
138931
138935
137234
134469
134472
137237
138936
138940
137242
134476
134480
137245
138942
138946
137250
134484
134488
137253
138948
138952
137258
134492
134495
137262
138954
138959
137266
134499
134503
137270
138960
138965
137274
134507
134510
137278
138967
138972
137282
134514
134518
137286
138974
138979
137291
134521
134525
137295
138981
138986
137299
134529
134532
137303
138988
138993
137308
134536
134539
137312
138995
139000
137316
134543
134546
137320
139002
139008
137324
134550
134553
137329
139010
139015
137333
134557
134560
137337
139017
139023
137341
134563
134567
137345
139025
139030
137350
134570
134573
137354
139033
139038
137358
134576
134580
137362
139040
139046
137366
134583
134586
137370
139048
139053
137374
134589
134592
137378
139056
139061
137383
134595
134598
137387
139064
139069
137391
134601
134604
137395
139072
139077
137399
134607
134610
137403
139079
139085
137407
134613
134615
137411
139087
139093
137415
134618
134621
137419
139095
139101
137423
134624
134626
137427
139103
139109
137431
134629
134632
137434
139111
139117
137438
134634
134637
137442
139119
139124
137446
134639
134641
137450
139127
139132
137454
134644
134646
137457
139134
139140
137461
134648
134650
137464
139142
139147
137468
134652
134654
137471
139149
139155
137475
134656
134658
137478
139157
139162
137482
134660
134662
137485
139164
139169
137489
134664
134665
137492
139171
139178
137495
134667
134668
137498
139179
139185
137503
134673
134675
137507
139189
139192
137511
134678
134680
137509
139189
139177
137498
134678
134670
137482
139159
139204
137503
134685
134760
137599
139355
139448
137673
134818
142056
144691
146369
146740
146890
147546
147883
148029
148174
148587
148855
149138
149349
149505
149620
149703
149763
149805
149836
149859
149877
149890
149901
149909
149916
149922
149926
149929
149931
149933
149934
149936
149936
149932
149934
149941
149946
149954
149962
149972
149983
149994
150005
150015
150021
150023
150022
150020
150017
150015
150013
150012
150010
150009
150007
150005
150003
150000
149998
149996
149994
149992
149991
149989
149988
149987
149986
149986
149986
149986
149987
149989
149991
149993
149997
150000
150005
150010
150015
150021
150027
150033
150040
150046
150052
150058
150063
150068
150072
150075
150078
150080
150081
150081
150081
150080
150079
150077
150074
150071
150068
150064
150061
150057
150053
150048
150044
150040
150036
150032
150028
150024
150020
150016
150013
150009
150006
150002
149999
149997
149994
149991
149989
149986
149984
149982
149980
149978
149977
149975
149974
149972
149971
149970
149969
149968
149967
149966
149965
149965
149964
149964
149963
149963
149963
149962
149962
149962
149962
149962
149962
149962
149962
149962
149962
149962
149962
149963
149963
149963
149963
149964
149964
149965
149965
149966
149966
149966
149967
149968
149968
149969
149969
149970
149971
149971
149972
149973
149973
149974
149975
149976
149976
149977
149978
149979
149980
149980
149981
149982
149983
149984
149985
149986
149987
149988
149989
149990
149991
149993
149994
149996
150000
150007
150012
150015
150015
150017
150004
150012
150012
150020
150026
150029
150029
150027
150026
150024
150022
150021
150020
150019
150018
150017
150016
150016
150015
150015
150014
150014
150013
150013
150012
150012
150012
150011
150011
150011
150011
150010
150010
150010
150010
150009
150009
150009
150009
150008
150008
150008
150008
150008
150007
150007
150007
150007
150006
150006
150006
150006
150006
150005
150005
150005
150005
150005
150004
150004
150004
150004
150003
150003
150003
150003
150002
150002
150002
150001
150001
150000
150000
149999
149999
149998
149997
149995
149994
149994
149995
149997
149999
150000
150004
150009
150019
150024
150024
150021
150019
150016
150013
150010
150008
150005
150003
150000
149998
149995
149993
149990
149988
149985
149983
149980
149979
149976
149975
149971
149971
149967
149967
149963
149963
149959
149959
149956
149955
149952
149952
149949
149949
149945
149945
149942
149942
149939
149939
149936
149936
149933
149934
149930
149931
149928
149928
149925
149926
149922
149923
149920
149921
149918
149918
149915
149916
149913
149913
149911
149911
149908
149909
149906
149907
149904
149905
149902
149903
149900
149901
149899
149900
149897
149898
149895
149896
149894
149895
149893
149894
149892
149893
149891
149893
149891
149893
149891
149893
149891
149894
149892
149895
149893
149896
149895
149898
149897
149900
149899
149902
149901
149905
149903
149907
149906
149910
149909
149912
149911
149915
149914
149917
149916
149920
149918
149922
149920
149923
149922
149925
149923
149926
149924
149927
149925
149927
149925
149927
149926
149928
149926
149927
149926
149927
149925
149927
149925
149926
149924
149925
149923
149924
149922
149923
149921
149922
149920
149921
149919
149920
149918
149919
149917
149918
149916
149917
149914
149916
149913
149914
149912
149913
149911
149912
149909
149912
149910
149914
149922
149931
149956
149955
149953
149965
149949
149952
149965
149949
149953
149966
149949
149953
149967
149950
149954
149968
149951
149955
149969
149952
149956
149970
149953
149957
149971
149954
149958
149971
149955
149959
149972
149956
149960
149973
149957
149961
149974
149958
149961
149975
149958
149962
149975
149959
149963
149976
149959
149963
149977
149959
149963
149977
149960
149964
149977
149960
149964
149978
149960
149964
149978
149961
149964
149978
149960
149964
149978
149960
149964
149978
149959
149963
149977
149958
149963
149977
149957
149961
149976
149956
149960
149975
149954
149958
149973
149952
149956
149972
149950
149954
149970
149948
149952
149968
149946
149950
149967
149945
149949
149965
149943
149947
149964
149941
149945
149964
149940
149944
149964
149939
149943
149962
149938
149942
149962
149938
149942
149963
149938
149943
149964
149938
149943
149964
149939
149944
149965
149939
149945
149966
149940
149946
149968
149941
149947
149969
149942
149948
149970
149944
149950
149971
149945
149951
149972
149946
149953
149974
149948
149954
149975
149949
149955
149976
149951
149957
149977
149952
149958
149979
149954
149960
149980
149955
149961
149981
149957
149963
149982
149958
149964
149983
149960
149965
149984
149961
149967
149986
149963
149968
149987
149965
149970
149988
149966
149972
149989
149968
149973
149990
149970
149975
149992
149971
149976
149993
149973
149978
149994
149975
149980
149995
149977
149981
149997
149979
149983
149998
149981
149985
149999
149983
149987
150000
149985
149989
150002
149987
149991
150003
149989
149993
150004
149991
149995
150006
149994
149997
150007
149996
150000
150008
149999
150002
150010
150002
150004
150011
150004
150007
150013
150007
150010
150014
150010
150013
150016
150013
150015
150017
150017
150018
150019
150020
150022
150020
150023
150013
150015
150015
150015
150015
150014
150014
150013
150013
150013
150012
150012
150012
150011
150011
150011
150010
150010
150010
150009
150009
150009
150008
150008
150008
150007
150007
150006
150006
150005
150005
150004
150004
150003
150002
150002
150001
150000
149999
149998
149996
149995
149994
149993
149992
149991
149991
149990
149992
149994
149996
149997
150000
150002
150005
150007
150009
150011
150012
150012
150012
150011
150011
150010
150008
150007
150006
150005
150004
150003
150001
150000
149999
149998
149997
149996
149995
149994
149993
149992
149991
149990
149989
149988
149988
149986
149969
149966
149966
149970
149985
149989
149989
149995
149995
149997
149997
149997
149998
149999
150000
150001
150002
150003
150004
150005
150006
150007
150008
150009
150010
150011
150015
150014
150013
150011
150010
150009
150008
150007
150006
150005
150004
150003
150002
150001
150001
150000
149999
149999
150000
149999
149999
149997
149998
150000
150000
150001
149995
149993
149993
149993
149993
149990
149990
149976
149977
149972
149972
149972
149973
149974
149976
149996