/*--------------------------------*- C++ -*----------------------------------*\
| =========                 |                                                 |
| \\      /  F ield         | OpenFOAM: The Open Source CFD Toolbox           |
|  \\    /   O peration     | Version:  v2006                                 |
|   \\  /    A nd           | Website:  www.openfoam.com                      |
|    \\/     M anipulation  |                                                 |
\*---------------------------------------------------------------------------*/
FoamFile
{
    version     2.0;
    format      ascii;
    class       volScalarField;
    location    "0.122";
    object      nut;
}
// * * * * * * * * * * * * * * * * * * * * * * * * * * * * * * * * * * * * * //

dimensions      [0 2 -1 0 0 0 0];


internalField   nonuniform List<scalar> 
16277
(
24.83
18.2881
52.4694
12.961
18.732
9.59519
3.75596
1.52231
0.819586
0.553168
0.435086
0.375142
0.339214
0.313117
0.29119
0.271496
0.253585
0.237476
0.223186
0.210615
0.19957
0.189821
0.181146
0.173358
0.166309
0.159884
0.153997
0.14858
0.14358
0.138954
0.134664
0.130679
0.126973
0.123521
0.120305
0.117306
0.11451
0.111904
0.109476
0.107215
0.105112
0.103159
0.101349
0.0996752
0.0981327
0.0967165
0.0954223
0.0942469
0.0931877
0.0922427
0.0914105
0.0906902
0.090082
0.0895861
0.0892022
0.0889343
0.0887846
0.0887569
0.0888556
0.0890832
0.0894471
0.0899547
0.0906151
0.0914392
0.0924395
0.0936307
0.0950307
0.096661
0.0985488
0.100729
0.103249
0.10617
0.10957
0.113542
0.118176
0.123535
0.129622
0.136392
0.143906
0.152821
0.165447
0.188334
0.238314
0.35922
0.669095
1.40678
2.48385
2.65606
1.5738
1.03953
0.511831
0.23337
0.126889
0.0598646
0.0141837
0.00255185
8.45544e-05
7.33876e-05
0.00119942
0.00552393
0.00304385
0.000777233
6.4281e-05
5.75595e-05
0.000708652
0.0025597
0.0020425
0.000609133
5.31904e-05
4.97642e-05
0.000590345
0.00193701
0.00167605
0.000531768
4.68457e-05
4.48784e-05
0.000522634
0.00163263
0.001486
0.000487047
4.29388e-05
4.18903e-05
0.000489991
0.0014709
0.00137594
0.000463937
4.0609e-05
3.99203e-05
0.000468107
0.00136753
0.00129544
0.000447127
3.89748e-05
3.84986e-05
0.000451263
0.00129168
0.00123209
0.000433466
3.77598e-05
3.74144e-05
0.000437484
0.00123093
0.0011793
0.000421822
3.68144e-05
3.65546e-05
0.000425823
0.0011798
0.00113386
0.000411598
3.60472e-05
3.58423e-05
0.000415615
0.00113545
0.00109377
0.000402367
3.53965e-05
3.52295e-05
0.000406336
0.00109609
0.00105777
0.000393854
3.48288e-05
3.46883e-05
0.000397773
0.00106061
0.00102507
0.000385931
3.43204e-05
3.41987e-05
0.000389809
0.00102829
0.000995101
0.000378524
3.38557e-05
3.37477e-05
0.000382366
0.000998659
0.000967436
0.00037157
3.34241e-05
3.33266e-05
0.000375375
0.000971295
0.000941809
0.000365009
3.30186e-05
3.29292e-05
0.000368776
0.000945926
0.000917992
0.000358798
3.2634e-05
3.2551e-05
0.000362526
0.000922335
0.000895814
0.000352903
3.22664e-05
3.21885e-05
0.000356602
0.000900356
0.000875122
0.000347311
3.19129e-05
3.18393e-05
0.000350982
0.000879828
0.000855754
0.000341998
3.15715e-05
3.15018e-05
0.000345639
0.000860583
0.000837547
0.000336934
3.12406e-05
3.11742e-05
0.000340542
0.000842465
0.00082036
0.00033209
3.09185e-05
3.08549e-05
0.000335663
0.000825338
0.00080407
0.000327439
3.06038e-05
3.05424e-05
0.000330974
0.000809084
0.000788571
0.000322955
3.02948e-05
3.02353e-05
0.000326448
0.000793599
0.000773765
0.000318612
2.99902e-05
2.99321e-05
0.00032206
0.000778788
0.000759571
0.000314387
2.96888e-05
2.96317e-05
0.000317787
0.000764575
0.000745919
0.000310259
2.93891e-05
2.93326e-05
0.000313609
0.00075089
0.000732745
0.000306211
2.90902e-05
2.90339e-05
0.000309509
0.000737671
0.000719994
0.000302229
2.87907e-05
2.87343e-05
0.000305475
0.000724869
0.00070762
0.0002983
2.84898e-05
2.84329e-05
0.000301492
0.000712441
0.000695594
0.000294414
2.81864e-05
2.81288e-05
0.000297555
0.000700357
0.000683887
0.000290566
2.78796e-05
2.78212e-05
0.000293656
0.000688595
0.000672481
0.000286751
2.75687e-05
2.75093e-05
0.000289803
0.000677137
0.000661364
0.000282973
2.7253e-05
2.71927e-05
0.000286018
0.000665978
0.000650538
0.000279243
2.69323e-05
2.68711e-05
0.000282272
0.000655116
0.000639997
0.000275549
2.66061e-05
2.6544e-05
0.000278574
0.000644549
0.000629745
0.000271903
2.62742e-05
2.62114e-05
0.000274937
0.000634286
0.000619802
0.000268321
2.59366e-05
2.58732e-05
0.00027138
0.000624354
0.000610199
0.000264824
2.55936e-05
2.55302e-05
0.000267926
0.000614792
0.000600986
0.000261441
2.52459e-05
2.51829e-05
0.000264613
0.000605739
0.000592258
0.000258212
2.48947e-05
2.4833e-05
0.000261483
0.000597275
0.000584096
0.000255186
2.45417e-05
2.44824e-05
0.000258589
0.000589411
0.000576569
0.000252417
2.41894e-05
2.41341e-05
0.00025599
0.000582283
0.000569824
0.000249971
2.3841e-05
2.37914e-05
0.000253762
0.00057605
0.000564037
0.000247929
2.35004e-05
2.34594e-05
0.000251989
0.000570898
0.0005594
0.000246397
2.31723e-05
2.31445e-05
0.000250712
0.000567021
0.000556137
0.000245444
2.28669e-05
2.28483e-05
0.000249832
0.000564565
0.000554316
0.000244846
2.25962e-05
2.25805e-05
0.000249371
0.000563812
0.000554215
0.000244737
2.23597e-05
2.23463e-05
0.000249399
0.000564775
0.00055581
0.000245155
2.21768e-05
2.21542e-05
0.000249899
0.000567346
0.000559037
0.000246088
2.20456e-05
2.20163e-05
0.000250805
0.000571306
0.000563589
0.000247298
2.19199e-05
2.19332e-05
0.000251939
0.000576548
0.000569401
0.00024858
2.18384e-05
2.18881e-05
0.00025306
0.000582869
0.000576191
0.000249886
2.18042e-05
2.18978e-05
0.000254002
0.000589534
0.00058311
0.000251018
2.18285e-05
2.19527e-05
0.000254781
0.000595926
0.000589631
0.000251841
2.18978e-05
2.20458e-05
0.000255527
0.000601756
0.00059558
0.000252498
2.20056e-05
2.21747e-05
0.000256122
0.00060689
0.000600857
0.000253103
2.21487e-05
2.23345e-05
0.000256662
0.000611279
0.000605359
0.000253439
2.23204e-05
2.25162e-05
0.000257065
0.000614997
0.000608951
0.000253658
2.25131e-05
2.27138e-05
0.000257337
0.000617892
0.000611471
0.000253773
2.27201e-05
2.29203e-05
0.000257478
0.000620333
0.000613224
0.000253817
2.29343e-05
2.31291e-05
0.000257536
0.000621821
0.000614015
0.000253664
2.31491e-05
2.33346e-05
0.000257515
0.000622301
0.000613353
0.000253245
2.33589e-05
2.35313e-05
0.000257114
0.000621526
0.000611918
0.000252694
2.35569e-05
2.37123e-05
0.000256571
0.000619924
0.00060987
0.000252078
2.37373e-05
2.38737e-05
0.000255947
0.000617618
0.000607236
0.000251441
2.38967e-05
2.40132e-05
0.000255262
0.000614649
0.000604083
0.000250806
2.40333e-05
2.41301e-05
0.000254556
0.00061112
0.000600505
0.00025019
2.41463e-05
2.42238e-05
0.000253847
0.000607149
0.000596572
0.000249592
2.42359e-05
2.42968e-05
0.000253132
0.000602801
0.000592367
0.000249005
2.4305e-05
2.43481e-05
0.000252413
0.000598204
0.000587908
0.00024841
2.43544e-05
2.43831e-05
0.000251677
0.000593484
0.00058334
0.000247792
2.43876e-05
2.44048e-05
0.000250915
0.000588693
0.000578741
0.000247158
2.44075e-05
2.4418e-05
0.000250153
0.000583958
0.000574101
0.000246455
2.44152e-05
2.44212e-05
0.000249355
0.00057921
0.000569426
0.000245672
2.44076e-05
2.44124e-05
0.000248543
0.000574451
0.000564781
0.000244885
2.43933e-05
2.43976e-05
0.000247728
0.000569729
0.000560161
0.000244087
2.43736e-05
2.43766e-05
0.000246892
0.000565026
0.000555547
0.000243253
2.43483e-05
2.43501e-05
0.000246016
0.00056033
0.000550904
0.000242391
2.43177e-05
2.43188e-05
0.000245113
0.000555637
0.000546227
0.000241479
2.42825e-05
2.42818e-05
0.000244146
0.000550922
0.000541554
0.000240521
2.42432e-05
2.42427e-05
0.000243157
0.000546212
0.000536887
0.000239521
2.42017e-05
2.4199e-05
0.000242137
0.000541526
0.000532302
0.000238505
2.41457e-05
2.41647e-05
0.000241138
0.000536952
0.000527373
0.000237466
2.40883e-05
2.41153e-05
0.000239869
0.000532587
0.000523215
0.000235754
2.39971e-05
2.41443e-05
0.000239999
0.000531127
0.000524623
0.000239679
2.40816e-05
2.44765e-05
0.000240077
0.000530455
0.000555561
0.00025246
2.46595e-05
2.62699e-05
0.000236755
0.000540108
0.000824766
0.000344081
2.96276e-05
3.19785e-05
0.000178467
0.00040967
0.00101062
0.00231581
0.00432919
0.00617204
0.00743307
0.00977019
0.0112624
0.0126013
0.0133551
0.0137157
0.0136144
0.0130088
0.0121465
0.0107634
0.00940736
0.00735145
0.00642332
0.00467401
0.00349695
0.00237536
0.00135003
0.000618998
0.000225358
9.34844e-05
1.80336e-05
1.17834e-05
8.68111e-05
0.000205047
0.000193977
8.25313e-05
1.13539e-05
1.09188e-05
7.96811e-05
0.000183207
0.000184109
7.86e-05
1.08079e-05
1.07386e-05
7.81562e-05
0.000181103
0.000181235
7.73748e-05
1.06306e-05
1.06218e-05
7.73324e-05
0.000181043
0.00018152
7.73739e-05
1.06387e-05
1.06394e-05
7.74821e-05
0.000181929
0.000182175
7.76101e-05
1.06561e-05
1.06628e-05
7.7719e-05
0.000182716
0.000182983
7.78457e-05
1.06719e-05
1.06909e-05
7.80095e-05
0.000183604
0.000183933
7.81573e-05
1.06865e-05
1.07047e-05
7.83172e-05
0.000184526
0.000184846
7.84207e-05
1.07133e-05
1.07328e-05
7.85907e-05
0.000185456
0.000185744
7.86835e-05
1.07332e-05
1.07367e-05
7.89172e-05
0.000186368
0.000186652
7.89671e-05
1.07596e-05
1.07633e-05
7.92017e-05
0.000187307
0.000187676
7.93074e-05
1.07734e-05
1.07785e-05
7.9557e-05
0.000188408
0.00018875
7.96575e-05
1.08054e-05
1.08106e-05
7.98883e-05
0.000189459
0.000189785
8.00043e-05
1.08212e-05
1.08242e-05
8.02243e-05
0.000190461
0.000190771
8.03083e-05
1.08491e-05
1.08524e-05
8.05417e-05
0.000191472
0.000191867
8.06738e-05
1.08635e-05
1.08699e-05
8.09476e-05
0.000192706
0.000193087
8.10708e-05
1.08978e-05
1.09035e-05
8.13243e-05
0.000193818
0.000194156
8.14447e-05
1.09153e-05
1.09191e-05
8.16857e-05
0.000194898
0.000195259
8.18427e-05
1.09379e-05
1.09578e-05
8.20516e-05
0.000196108
0.000196544
8.22208e-05
1.09636e-05
1.09712e-05
8.2533e-05
0.000197372
0.000197749
8.26748e-05
1.09907e-05
1.10124e-05
8.29042e-05
0.000198558
0.00019894
8.30486e-05
1.10158e-05
1.10228e-05
8.3361e-05
0.000199787
0.000200179
8.35176e-05
1.1043e-05
1.10646e-05
8.37514e-05
0.000201015
0.000201405
8.39016e-05
1.10681e-05
1.1076e-05
8.42292e-05
0.00020224
0.000202619
8.43693e-05
1.10953e-05
1.11169e-05
8.46041e-05
0.000203434
0.000203797
8.4735e-05
1.11189e-05
1.11256e-05
8.50762e-05
0.00020466
0.000205093
8.52347e-05
1.11454e-05
1.117e-05
8.55022e-05
0.00020594
0.000206321
8.56386e-05
1.1174e-05
1.11803e-05
8.59498e-05
0.000207145
0.000207466
8.60681e-05
1.11983e-05
1.12196e-05
8.62872e-05
0.000208235
0.000208478
8.63698e-05
1.122e-05
1.12241e-05
8.66602e-05
0.000209217
0.00020952
8.67385e-05
1.12392e-05
1.12588e-05
8.69317e-05
0.000210225
0.000210535
8.70013e-05
1.12584e-05
1.12621e-05
8.72563e-05
0.000211211
0.000211482
8.72457e-05
1.12847e-05
1.12861e-05
8.74072e-05
0.000212035
0.0002121
8.73436e-05
1.12892e-05
1.12831e-05
8.73956e-05
0.000212454
0.000212595
8.72706e-05
1.12987e-05
1.1292e-05
8.72842e-05
0.000212909
0.000213008
8.71426e-05
1.12928e-05
1.12835e-05
8.70463e-05
0.00021317
0.00021306
8.67711e-05
1.12884e-05
1.12893e-05
8.64865e-05
0.00021299
0.00021273
8.60772e-05
1.12692e-05
1.125e-05
8.57506e-05
0.000212669
0.000212292
8.53195e-05
1.12481e-05
1.12484e-05
8.48632e-05
0.000212374
0.000211727
8.42475e-05
1.12315e-05
1.12125e-05
8.36556e-05
0.000211407
0.000210459
8.27934e-05
1.12116e-05
1.11913e-05
8.20796e-05
0.000209969
0.000208797
8.1117e-05
1.11758e-05
1.11555e-05
8.03181e-05
0.000208308
0.000207238
7.93813e-05
1.11555e-05
1.11709e-05
7.86128e-05
0.000207095
0.000206108
7.77179e-05
1.11755e-05
1.12017e-05
7.7022e-05
0.000206261
0.000205869
7.62706e-05
1.12393e-05
1.13013e-05
7.57557e-05
0.000206706
0.000206629
7.50799e-05
1.13778e-05
1.14747e-05
7.45967e-05
0.000207379
0.000208027
7.36347e-05
1.15698e-05
1.16706e-05
7.31559e-05
0.000210374
0.000213576
7.40807e-05
1.17934e-05
1.19088e-05
7.43114e-05
0.000216195
0.000217759
7.38669e-05
1.19394e-05
1.20234e-05
7.2516e-05
0.000220975
0.00022466
7.64083e-05
1.21935e-05
1.23145e-05
7.42612e-05
0.000228035
0.000231092
7.61951e-05
1.25222e-05
1.26714e-05
7.71827e-05
0.000236684
0.00023836
7.88189e-05
1.2877e-05
1.31645e-05
8.26451e-05
0.000244866
0.00024559
8.45764e-05
1.34526e-05
1.36904e-05
8.77726e-05
0.000251619
0.000253769
9.08596e-05
1.41829e-05
1.52485e-05
0.000105398
0.000265164
0.000264529
0.000111635
1.14424e-05
8.81738e-06
2.73417e-05
7.43292e-05
0.000208237
6.46033e-05
1.03981e-05
1.09164e-05
5.79885e-05
0.000191416
0.000201945
6.03632e-05
1.11876e-05
1.1374e-05
5.68949e-05
0.000192718
0.000206779
6.11986e-05
1.17027e-05
1.20259e-05
6.00966e-05
0.000203572
0.000222498
6.77922e-05
1.23953e-05
1.2792e-05
6.71755e-05
0.000217879
0.00023901
7.83933e-05
1.32973e-05
1.40424e-05
8.09057e-05
0.000241418
0.000269988
9.79174e-05
1.55128e-05
1.18439e-05
0.000108186
0.000276087
7.40547e-05
2.56388e-05
9.49373e-06
1.13357e-05
6.96098e-05
0.000232053
0.000227212
6.47014e-05
1.22969e-05
1.30648e-05
8.52719e-05
0.000281431
0.000287191
8.64633e-05
1.36507e-05
1.44368e-05
0.000100757
0.000319188
0.000327902
0.000107016
1.53965e-05
1.72477e-05
0.000128271
0.000358239
0.00034798
0.00013889
1.34586e-05
1.01394e-05
3.14125e-05
9.16671e-05
0.000281002
8.29149e-05
1.19931e-05
1.2991e-05
7.71542e-05
0.00027521
0.000316362
9.50113e-05
1.38536e-05
1.48382e-05
9.52934e-05
0.000312324
0.000355682
0.000121724
1.71057e-05
1.36703e-05
0.000140708
0.000358613
9.67461e-05
3.11537e-05
1.01801e-05
1.26495e-05
8.79138e-05
0.000318893
0.000328448
9.19895e-05
1.42195e-05
1.6464e-05
0.000129381
0.000422707
0.000442586
0.000152581
1.92581e-05
1.57784e-05
0.000176525
0.00044782
0.000123577
3.63532e-05
1.06843e-05
1.37715e-05
0.000116809
0.000395888
0.000393988
0.000113313
1.60445e-05
2.02003e-05
0.00016932
0.000500911
0.000510125
0.000197179
1.67576e-05
1.12886e-05
4.1293e-05
0.000154978
0.000518102
0.000152574
1.6095e-05
2.03335e-05
0.000161476
0.000558349
0.000774717
0.000272522
2.78125e-05
2.31608e-05
0.000290545
0.000744771
0.000263315
6.9102e-05
1.51239e-05
2.69759e-05
0.000283176
0.000812081
0.000812632
0.000302761
2.51624e-05
1.70783e-05
7.78898e-05
0.0003207
0.00111927
0.000372331
3.72915e-05
3.67992e-05
0.000428996
0.00121573
0.000553374
0.00015285
2.33841e-05
3.72139e-05
0.000497406
0.00144983
0.000957696
0.000317524
2.4781e-05
4.59973e-05
0.000559829
0.00112929
0.000968718
0.00046834
3.78189e-05
3.83131e-05
0.000446467
0.00106258
0.0013632
0.000492825
4.39676e-05
6.07734e-05
0.000920435
0.00227268
0.000506494
0.000157499
3.45622e-05
3.53814e-05
0.000441685
0.00101212
0.00031303
0.000111892
2.46876e-05
2.67581e-05
0.000273202
0.000656228
0.000560711
0.000201317
2.69421e-05
1.47986e-05
5.15966e-05
0.000160607
0.00037768
0.000206738
1.76734e-05
1.66886e-05
6.65611e-05
0.000171275
0.00041585
0.000180826
1.90934e-05
2.03983e-05
0.000147595
0.000376482
0.00012254
4.60422e-05
1.3488e-05
1.6063e-05
0.000144812
0.000325694
0.00029878
0.000121116
1.80068e-05
1.25609e-05
3.94437e-05
9.98683e-05
0.000277179
0.000123459
1.45794e-05
1.6791e-05
0.000107281
0.000254734
8.8329e-05
3.69951e-05
1.21896e-05
1.37415e-05
0.000109862
0.000244908
0.000221558
9.65545e-05
1.60824e-05
1.19468e-05
3.41153e-05
7.88205e-05
0.000215753
9.86083e-05
1.29937e-05
1.55243e-05
8.68506e-05
0.000196189
7.11262e-05
3.2158e-05
1.1775e-05
1.26316e-05
9.18539e-05
0.000194416
0.00017523
8.05826e-05
1.5069e-05
1.15513e-05
3.03066e-05
6.56512e-05
0.000177201
8.4728e-05
1.20905e-05
1.47579e-05
7.51339e-05
0.000161336
6.32819e-05
3.00204e-05
1.16034e-05
1.20842e-05
8.57191e-05
0.000172341
0.000145951
6.9099e-05
1.52572e-05
1.28113e-05
5.48079e-05
0.000118605
4.68378e-05
2.14612e-05
1.04905e-05
1.00977e-05
5.72799e-05
0.000116513
0.000111147
5.32796e-05
1.29278e-05
1.04943e-05
2.2047e-05
4.55572e-05
0.000110078
5.61147e-05
1.00636e-05
1.29494e-05
5.14566e-05
0.000101458
4.2421e-05
2.11643e-05
1.04079e-05
9.64839e-06
5.12431e-05
9.64507e-05
9.23443e-05
4.87338e-05
1.23808e-05
1.02677e-05
2.06221e-05
4.04454e-05
9.28083e-05
5.02452e-05
9.7286e-06
1.25603e-05
4.74205e-05
8.7213e-05
3.88841e-05
2.00044e-05
1.02072e-05
9.45805e-06
4.66507e-05
8.46411e-05
8.09919e-05
4.50914e-05
1.23557e-05
1.01989e-05
1.9538e-05
3.68305e-05
7.96398e-05
4.4918e-05
9.24332e-06
1.20837e-05
4.16045e-05
7.54552e-05
3.48812e-05
1.933e-05
9.95456e-06
8.95986e-06
4.1549e-05
7.16014e-05
6.83526e-05
3.79924e-05
1.18171e-05
9.76471e-06
1.77523e-05
3.08349e-05
6.1277e-05
4.5087e-05
8.54485e-06
1.09694e-05
2.1726e-05
3.56258e-05
8.15141e-05
4.70819e-05
9.86554e-06
1.25238e-05
4.40076e-05
7.60179e-05
3.68757e-05
2.13296e-05
1.02889e-05
9.40834e-06
4.55701e-05
7.61016e-05
7.23672e-05
4.24723e-05
1.23651e-05
1.02746e-05
2.11426e-05
3.58621e-05
7.54649e-05
4.52049e-05
9.34653e-06
1.21979e-05
4.21888e-05
7.13726e-05
3.49666e-05
2.10942e-05
1.01849e-05
9.2458e-06
4.2591e-05
6.83193e-05
6.43205e-05
3.84893e-05
1.2274e-05
1.02172e-05
2.07419e-05
3.27025e-05
6.30644e-05
3.98463e-05
9.02707e-06
1.19071e-05
3.60941e-05
5.88509e-05
2.89999e-05
1.90213e-05
9.79986e-06
8.3728e-06
3.90724e-05
5.20202e-05
3.17534e-05
2.18454e-05
1.09405e-05
9.71098e-06
3.90595e-05
6.24436e-05
5.72672e-05
3.56121e-05
1.23843e-05
1.01219e-05
2.12021e-05
3.07178e-05
5.69861e-05
3.72539e-05
9.00947e-06
1.19028e-05
3.43084e-05
5.16761e-05
2.75976e-05
1.97605e-05
9.87207e-06
8.36653e-06
3.66129e-05
4.70849e-05
2.9896e-05
2.16982e-05
1.10443e-05
9.64291e-06
3.75782e-05
5.76425e-05
5.22399e-05
3.41982e-05
1.2259e-05
1.00825e-05
2.14682e-05
2.93207e-05
5.41509e-05
3.61223e-05
8.99182e-06
1.19312e-05
3.27995e-05
4.90954e-05
2.66192e-05
1.98666e-05
9.838e-06
8.38028e-06
3.4402e-05
4.36294e-05
2.81701e-05
2.13509e-05
1.10783e-05
9.53114e-06
3.49982e-05
5.32791e-05
4.79835e-05
3.21309e-05
1.21869e-05
1.00463e-05
2.13883e-05
2.73162e-05
4.86658e-05
3.32075e-05
8.97216e-06
1.18837e-05
3.04869e-05
4.42602e-05
2.51896e-05
1.98783e-05
9.87312e-06
8.43184e-06
3.2094e-05
3.91217e-05
2.61307e-05
2.11407e-05
1.11452e-05
9.4116e-06
3.18598e-05
4.7685e-05
4.2721e-05
2.89598e-05
1.20562e-05
9.72589e-06
2.00298e-05
2.4368e-05
3.82693e-05
3.16685e-05
8.14774e-06
1.09364e-05
2.1341e-05
2.58599e-05
4.70362e-05
3.1209e-05
9.26827e-06
1.21254e-05
2.88709e-05
4.21551e-05
2.46667e-05
2.07313e-05
9.95893e-06
8.38308e-06
3.11086e-05
3.77978e-05
2.59329e-05
2.18543e-05
1.10174e-05
9.18652e-06
3.13342e-05
4.6319e-05
4.15299e-05
2.8796e-05
1.19912e-05
9.85767e-06
2.07406e-05
2.4437e-05
3.74618e-05
3.16462e-05
8.2043e-06
1.10718e-05
2.20384e-05
2.57876e-05
4.57318e-05
3.07699e-05
9.33195e-06
1.21756e-05
2.85142e-05
4.10473e-05
2.43616e-05
2.11604e-05
9.97033e-06
8.34342e-06
3.13401e-05
3.67859e-05
2.56049e-05
2.23757e-05
1.10815e-05
9.3189e-06
3.04314e-05
4.48896e-05
4.00672e-05
2.81738e-05
1.20871e-05
1.00078e-05
2.11015e-05
2.40948e-05
3.49687e-05
3.10863e-05
8.3397e-06
1.09769e-05
2.30379e-05
2.53422e-05
3.86559e-05
2.98537e-05
8.79776e-06
1.1386e-05
2.32089e-05
2.6837e-05
4.57734e-05
3.05e-05
9.5374e-06
1.21241e-05
2.84202e-05
4.07918e-05
2.46898e-05
2.18278e-05
9.88591e-06
8.2367e-06
3.1374e-05
3.65083e-05
2.57576e-05
2.32685e-05
1.11617e-05
9.36297e-06
3.01142e-05
4.40837e-05
3.95619e-05
2.81524e-05
1.21943e-05
1.00423e-05
2.17419e-05
2.42287e-05
3.47756e-05
3.08582e-05
8.46915e-06
1.1163e-05
2.35686e-05
2.56082e-05
3.81361e-05
2.99397e-05
9.01172e-06
1.13671e-05
2.37838e-05
2.68188e-05
4.50512e-05
3.0136e-05
9.40544e-06
1.21685e-05
2.82402e-05
4.01101e-05
2.465e-05
2.26156e-05
9.97549e-06
8.24415e-06
3.14847e-05
3.58295e-05
2.6504e-05
2.44305e-05
1.11313e-05
8.94404e-06
3.04039e-05
3.91151e-05
2.76843e-05
2.49468e-05
1.14546e-05
9.55664e-06
3.05908e-05
4.57768e-05
4.08405e-05
2.88135e-05
1.23646e-05
1.00886e-05
2.31368e-05
2.53408e-05
3.61191e-05
3.2262e-05
8.36481e-06
1.11636e-05
2.48643e-05
2.68996e-05
3.91994e-05
3.11009e-05
8.97223e-06
1.14851e-05
2.54167e-05
2.80188e-05
4.60041e-05
3.10767e-05
9.57336e-06
1.23246e-05
2.92994e-05
4.10633e-05
2.57794e-05
2.39607e-05
1.01262e-05
8.4565e-06
3.26448e-05
3.68556e-05
2.76102e-05
2.57078e-05
1.13285e-05
9.17679e-06
3.15324e-05
3.99384e-05
2.86912e-05
2.60905e-05
1.15267e-05
9.53641e-06
3.13216e-05
4.63167e-05
4.13055e-05
2.94961e-05
1.22491e-05
1.00861e-05
2.37795e-05
2.56951e-05
3.63944e-05
3.25657e-05
8.40392e-06
1.1314e-05
2.53094e-05
2.71922e-05
3.88637e-05
3.07679e-05
9.1315e-06
1.16064e-05
2.58408e-05
2.80893e-05
4.47143e-05
3.05963e-05
9.61667e-06
1.24197e-05
2.90443e-05
4.00399e-05
2.55378e-05
2.40987e-05
1.02511e-05
8.45831e-06
3.24855e-05
3.60886e-05
2.72572e-05
2.5537e-05
1.12395e-05
8.91815e-06
3.0395e-05
3.84976e-05
2.86562e-05
2.6121e-05
1.1403e-05
9.07594e-06
3.12647e-05
4.00651e-05
2.94706e-05
2.77124e-05
1.15707e-05
9.64187e-06
3.18932e-05
4.60171e-05
4.1151e-05
3.03212e-05
1.23564e-05
1.01667e-05
2.51154e-05
2.65917e-05
3.6778e-05
3.35545e-05
8.57211e-06
1.14071e-05
2.63558e-05
2.80021e-05
3.88506e-05
3.12157e-05
9.17878e-06
1.15496e-05
2.66878e-05
2.92284e-05
4.02924e-05
3.17215e-05
9.15044e-06
1.16103e-05
2.82427e-05
2.9889e-05
4.61203e-05
3.22362e-05
9.63715e-06
1.2386e-05
3.06232e-05
4.12923e-05
2.69397e-05
2.57117e-05
1.02546e-05
8.46632e-06
3.40907e-05
3.73264e-05
2.86129e-05
2.7049e-05
1.14308e-05
9.18578e-06
3.14592e-05
3.9778e-05
3.00135e-05
2.76343e-05
1.1651e-05
9.3035e-06
3.2619e-05
4.11655e-05
3.08011e-05
2.92876e-05
1.17743e-05
9.80378e-06
3.31579e-05
4.69222e-05
4.20876e-05
3.14887e-05
1.25168e-05
1.02554e-05
2.6301e-05
2.77641e-05
3.76559e-05
3.46813e-05
8.50681e-06
1.14958e-05
2.75574e-05
2.914e-05
3.97556e-05
3.17878e-05
9.15582e-06
1.1655e-05
2.77476e-05
3.01645e-05
4.08264e-05
3.24326e-05
9.2614e-06
1.18337e-05
2.93659e-05
3.08383e-05
4.60934e-05
3.27353e-05
9.78509e-06
1.25831e-05
3.15022e-05
4.17815e-05
2.8152e-05
2.69294e-05
1.04041e-05
8.85357e-06
3.45758e-05
3.76629e-05
2.96617e-05
2.83141e-05
1.16798e-05
9.23916e-06
3.2772e-05
4.0081e-05
3.07189e-05
2.84532e-05
1.16411e-05
9.17082e-06
3.25478e-05
4.10658e-05
3.15122e-05
2.92546e-05
1.16558e-05
9.34208e-06
3.41349e-05
4.21498e-05
3.20337e-05
3.09047e-05
1.17915e-05
9.80191e-06
3.43248e-05
4.75403e-05
4.2998e-05
3.27557e-05
1.25517e-05
1.03757e-05
2.72875e-05
2.89475e-05
3.80229e-05
3.54192e-05
8.53777e-06
1.16702e-05
2.85173e-05
3.01061e-05
3.99045e-05
3.22098e-05
9.34669e-06
1.1834e-05
2.8887e-05
3.10931e-05
4.09469e-05
3.27292e-05
9.29608e-06
1.17514e-05
2.99127e-05
3.18375e-05
4.23698e-05
3.44346e-05
9.40364e-06
1.18812e-05
3.15973e-05
3.25077e-05
4.80988e-05
3.49349e-05
9.86189e-06
1.26983e-05
3.35587e-05
4.36508e-05
3.00378e-05
2.8852e-05
1.05028e-05
8.67541e-06
3.70845e-05
3.95235e-05
3.14384e-05
3.00891e-05
1.16382e-05
9.21416e-06
3.41522e-05
4.19141e-05
3.26021e-05
3.02604e-05
1.18048e-05
9.39255e-06
3.4519e-05
4.29299e-05
3.3377e-05
3.1288e-05
1.1811e-05
9.4093e-06
3.61209e-05
4.41456e-05
3.39952e-05
3.28906e-05
1.19404e-05
9.9953e-06
3.62112e-05
4.94479e-05
4.49833e-05
3.46738e-05
1.27242e-05
1.05497e-05
2.94921e-05
3.10838e-05
3.98941e-05
3.73591e-05
8.79168e-06
1.17986e-05
3.0668e-05
3.22935e-05
4.19137e-05
3.44539e-05
9.44154e-06
1.20206e-05
3.07529e-05
3.32711e-05
4.27297e-05
3.4351e-05
9.50793e-06
1.19944e-05
3.17611e-05
3.38116e-05
4.40327e-05
3.60731e-05
9.61635e-06
1.20884e-05
3.36854e-05
3.43461e-05
4.94177e-05
3.68233e-05
1.00138e-05
1.28978e-05
3.54987e-05
4.53151e-05
3.18814e-05
3.06278e-05
1.06503e-05
8.85029e-06
3.86568e-05
4.08975e-05
3.32405e-05
3.17951e-05
1.18494e-05
9.44563e-06
3.55614e-05
4.30567e-05
3.43907e-05
3.19831e-05
1.20471e-05
9.5541e-06
3.57561e-05
4.42271e-05
3.51816e-05
3.29018e-05
1.19905e-05
9.608e-06
3.74433e-05
4.53459e-05
3.55554e-05
3.45689e-05
1.20839e-05
1.00387e-05
3.75923e-05
5.04481e-05
4.61748e-05
3.62286e-05
1.29558e-05
1.07464e-05
3.10574e-05
3.25818e-05
4.07362e-05
3.89344e-05
8.85356e-06
1.196e-05
3.21798e-05
3.36873e-05
4.22487e-05
3.52007e-05
9.51726e-06
1.21622e-05
3.23422e-05
3.44841e-05
4.32263e-05
3.5462e-05
9.63128e-06
1.20734e-05
3.3189e-05
3.5117e-05
4.44724e-05
3.68496e-05
9.61182e-06
1.20258e-05
3.43416e-05
3.60608e-05
4.61093e-05
3.86896e-05
9.60403e-06
1.21436e-05
3.60664e-05
3.6602e-05
5.18833e-05
3.89994e-05
1.01102e-05
1.31364e-05
3.78259e-05
4.77913e-05
3.43756e-05
3.33017e-05
1.08923e-05
9.07194e-06
4.12321e-05
4.32493e-05
3.5889e-05
3.46642e-05
1.20992e-05
9.64707e-06
3.83532e-05
4.55125e-05
3.6962e-05
3.4741e-05
1.21948e-05
9.6614e-06
3.8627e-05
4.68363e-05
3.79006e-05
3.57255e-05
1.21055e-05
9.67811e-06
4.04477e-05
4.85031e-05
3.87034e-05
3.7572e-05
1.22527e-05
1.02519e-05
4.06783e-05
5.38058e-05
4.93306e-05
3.932e-05
1.3276e-05
1.09616e-05
3.43735e-05
3.56396e-05
4.42599e-05
4.24697e-05
9.11217e-06
1.21829e-05
3.55724e-05
3.71254e-05
4.57961e-05
3.91017e-05
9.74545e-06
1.23074e-05
3.53767e-05
3.77891e-05
4.64553e-05
3.87487e-05
9.82908e-06
1.22471e-05
3.62853e-05
3.83375e-05
4.76892e-05
4.02411e-05
9.7839e-06
1.24029e-05
3.81217e-05
3.87607e-05
5.30373e-05
4.06309e-05
1.03243e-05
1.3531e-05
3.96819e-05
4.90093e-05
3.63124e-05
3.55092e-05
1.11533e-05
9.22804e-06
4.31007e-05
4.45959e-05
3.78696e-05
3.68761e-05
1.23364e-05
9.85005e-06
4.03231e-05
4.67357e-05
3.89237e-05
3.68963e-05
1.23957e-05
9.80516e-06
4.02611e-05
4.78337e-05
3.96227e-05
3.78102e-05
1.23268e-05
9.89987e-06
4.17003e-05
4.94721e-05
4.04851e-05
3.98802e-05
1.25966e-05
1.04797e-05
4.23999e-05
5.48736e-05
5.05257e-05
4.13479e-05
1.3632e-05
1.12307e-05
3.68917e-05
3.77464e-05
4.60185e-05
4.4919e-05
9.29213e-06
1.23562e-05
3.78622e-05
3.92161e-05
4.74793e-05
4.11185e-05
9.88186e-06
1.25619e-05
3.78591e-05
3.9971e-05
4.82179e-05
4.10363e-05
9.94376e-06
1.25905e-05
3.89629e-05
4.06301e-05
4.95514e-05
4.23804e-05
1.00227e-05
1.28723e-05
4.11211e-05
4.11822e-05
5.50406e-05
4.31186e-05
1.07804e-05
1.40645e-05
4.2401e-05
5.10798e-05
3.91235e-05
3.88689e-05
1.15702e-05
9.62356e-06
4.62106e-05
4.73428e-05
4.07422e-05
4.00273e-05
1.26137e-05
1.00531e-05
4.37719e-05
4.9627e-05
4.193e-05
4.02438e-05
1.27951e-05
1.00599e-05
4.37488e-05
5.10737e-05
4.24734e-05
4.18624e-05
1.30046e-05
1.09226e-05
4.37525e-05
5.59811e-05
5.17276e-05
4.30291e-05
1.43377e-05
1.1755e-05
3.91676e-05
3.96959e-05
4.70286e-05
4.63464e-05
9.68349e-06
1.28088e-05
4.02815e-05
4.10581e-05
4.86947e-05
4.34312e-05
1.02392e-05
1.30703e-05
4.04972e-05
4.19461e-05
4.99455e-05
4.30634e-05
1.03099e-05
1.33404e-05
4.2558e-05
4.24529e-05
5.48763e-05
4.37934e-05
1.10419e-05
1.45611e-05
4.34156e-05
5.11556e-05
4.03781e-05
4.04777e-05
1.18777e-05
9.84174e-06
4.72531e-05
4.76166e-05
4.1939e-05
4.17103e-05
1.30285e-05
1.02667e-05
4.41861e-05
4.98622e-05
4.3124e-05
4.20641e-05
1.32589e-05
1.05146e-05
4.45394e-05
5.13201e-05
4.3821e-05
4.38881e-05
1.3519e-05
1.11954e-05
4.50169e-05
5.59867e-05
5.21773e-05
4.47153e-05
1.48641e-05
1.21211e-05
4.127e-05
4.16089e-05
4.797e-05
4.81074e-05
9.85721e-06
1.32297e-05
4.2571e-05
4.27257e-05
4.9741e-05
4.49052e-05
1.05187e-05
1.35109e-05
4.293e-05
4.37452e-05
5.13049e-05
4.47393e-05
1.06624e-05
1.38867e-05
4.52826e-05
4.44727e-05
5.65066e-05
4.59339e-05
1.15575e-05
1.52185e-05
4.57901e-05
5.29115e-05
4.28785e-05
4.3479e-05
1.23605e-05
1.01332e-05
4.99194e-05
4.97691e-05
4.44665e-05
4.49481e-05
1.35895e-05
1.08008e-05
4.7245e-05
5.22953e-05
4.5966e-05
4.54407e-05
1.39605e-05
1.11119e-05
4.71626e-05
5.41785e-05
4.70661e-05
4.79031e-05
1.4422e-05
1.19797e-05
4.85003e-05
5.9321e-05
5.56032e-05
4.84689e-05
1.58418e-05
1.28859e-05
4.5769e-05
4.55491e-05
5.19571e-05
5.23843e-05
1.05328e-05
1.39944e-05
4.71608e-05
4.6816e-05
5.43387e-05
4.91329e-05
1.11615e-05
1.47125e-05
4.87653e-05
4.7879e-05
5.92899e-05
4.87962e-05
1.22427e-05
1.61196e-05
4.84984e-05
5.57962e-05
4.59319e-05
4.68052e-05
1.32341e-05
1.07126e-05
5.28671e-05
5.24794e-05
4.76582e-05
4.8508e-05
1.43673e-05
1.14455e-05
5.02676e-05
5.52141e-05
4.92862e-05
4.93534e-05
1.48759e-05
1.18398e-05
5.04777e-05
5.76228e-05
5.08416e-05
5.2363e-05
1.54336e-05
1.28328e-05
5.25858e-05
6.33529e-05
5.94892e-05
5.27519e-05
1.69786e-05
1.38665e-05
5.0921e-05
4.99139e-05
5.63961e-05
5.73037e-05
1.12455e-05
1.50756e-05
5.23938e-05
5.16919e-05
5.95038e-05
5.39688e-05
1.20658e-05
1.58573e-05
5.43034e-05
5.28805e-05
6.50615e-05
5.39849e-05
1.29611e-05
1.73354e-05
5.41899e-05
6.15076e-05
5.19832e-05
5.33809e-05
1.46044e-05
1.19878e-05
5.87399e-05
5.83984e-05
5.37189e-05
5.52448e-05
1.5945e-05
1.2776e-05
5.6339e-05
6.20088e-05
5.5485e-05
5.75173e-05
1.67905e-05
1.40005e-05
5.68143e-05
6.79555e-05
6.42222e-05
5.7166e-05
1.85206e-05
1.51476e-05
5.60382e-05
5.46688e-05
6.13931e-05
6.1777e-05
1.22718e-05
1.67179e-05
5.88584e-05
5.63397e-05
6.77662e-05
5.77224e-05
1.39407e-05
1.86296e-05
5.77322e-05
6.45376e-05
5.49696e-05
5.57676e-05
1.517e-05
1.21141e-05
6.24375e-05
6.12257e-05
5.66158e-05
5.7646e-05
1.65192e-05
1.32357e-05
5.82327e-05
6.39664e-05
5.7877e-05
5.99491e-05
1.75805e-05
1.46395e-05
5.85873e-05
6.94297e-05
6.60918e-05
5.94408e-05
1.94787e-05
1.59597e-05
5.89135e-05
5.7398e-05
6.33043e-05
6.37265e-05
1.30896e-05
1.77586e-05
6.22395e-05
5.89224e-05
6.94615e-05
6.02503e-05
1.48849e-05
1.98808e-05
6.04917e-05
6.64491e-05
5.83548e-05
6.01361e-05
1.63973e-05
1.3255e-05
6.48703e-05
6.39948e-05
5.95152e-05
6.29708e-05
1.78792e-05
1.46046e-05
6.055e-05
6.99727e-05
6.70718e-05
6.11456e-05
1.99556e-05
1.66867e-05
6.05992e-05
5.89559e-05
6.44168e-05
6.47748e-05
1.36682e-05
1.8634e-05
6.43178e-05
6.06071e-05
7.02141e-05
6.15708e-05
1.54555e-05
2.0841e-05
6.21733e-05
6.74005e-05
6.0207e-05
6.2485e-05
1.71505e-05
1.3891e-05
6.63458e-05
6.52826e-05
6.16314e-05
6.57205e-05
1.88154e-05
1.55452e-05
6.26703e-05
7.13868e-05
6.85804e-05
6.31242e-05
2.09299e-05
1.72034e-05
6.32709e-05
6.11891e-05
6.63888e-05
6.8459e-05
1.34645e-05
1.88279e-05
6.67096e-05
6.2705e-05
7.21976e-05
6.31327e-05
1.58794e-05
2.17193e-05
6.38816e-05
6.94613e-05
6.29086e-05
6.62923e-05
1.8126e-05
1.48231e-05
6.87169e-05
6.79151e-05
6.50019e-05
7.04609e-05
2.01582e-05
1.67815e-05
6.67161e-05
7.50647e-05
7.23035e-05
6.75887e-05
2.25017e-05
1.85644e-05
6.91432e-05
6.5865e-05
7.09946e-05
7.20931e-05
1.50376e-05
2.04798e-05
7.34578e-05
6.77421e-05
7.8567e-05
6.99741e-05
1.68895e-05
2.24812e-05
6.98712e-05
7.57436e-05
6.88033e-05
7.47748e-05
1.96277e-05
1.69292e-05
7.4339e-05
7.76908e-05
7.52565e-05
7.41438e-05
2.35283e-05
1.99235e-05
7.40499e-05
7.00763e-05
7.57747e-05
7.62844e-05
1.63684e-05
2.22011e-05
7.8274e-05
7.27422e-05