/*--------------------------------*- C++ -*----------------------------------*\
| =========                 |                                                 |
| \\      /  F ield         | OpenFOAM: The Open Source CFD Toolbox           |
|  \\    /   O peration     | Version:  v2006                                 |
|   \\  /    A nd           | Website:  www.openfoam.com                      |
|    \\/     M anipulation  |                                                 |
\*---------------------------------------------------------------------------*/
FoamFile
{
    version     2.0;
    format      ascii;
    class       volScalarField;
    location    "0.122";
    object      turbulenceProperties:L;
}
// * * * * * * * * * * * * * * * * * * * * * * * * * * * * * * * * * * * * * //

dimensions      [0 1 0 0 0 0 0];


internalField   nonuniform List<scalar> 
16277
(
1998.79
1998.77
1999.15
1999.27
1999.61
1999.52
1999.5
1999.29
1998.81
1998.12
1997.37
1996.68
1996.08
1995.58
1995.13
1994.72
1994.32
1993.93
1993.54
1993.17
1992.81
1992.45
1992.11
1991.77
1991.44
1991.12
1990.8
1990.49
1990.19
1989.89
1989.59
1989.31
1989.03
1988.75
1988.49
1988.23
1987.98
1987.74
1987.51
1987.29
1987.08
1986.88
1986.69
1986.52
1986.36
1986.21
1986.07
1985.95
1985.85
1985.76
1985.69
1985.63
1985.59
1985.57
1985.57
1985.58
1985.62
1985.67
1985.75
1985.84
1985.95
1986.06
1986.18
1986.25
1986.18
1985.75
1984.4
1980.76
1971.2
1947.5
1896.7
1794.43
1607.75
1316.35
954.694
611.882
356.444
195.383
103.487
54.2321
28.4274
15.2748
9.12723
7.01402
5.13162
4.27749
3.52493
1.93517
1.11805
0.886004
0.988346
0.374167
0.121353
0.0320748
0.0037253
0.000676235
4.70418e-05
4.51109e-05
0.000325013
0.00146002
0.000819233
0.000221171
4.31575e-05
4.18663e-05
0.000207442
0.000698858
0.000573419
0.000187014
4.15217e-05
4.10403e-05
0.000185002
0.000550566
0.000489889
0.000173554
4.07296e-05
4.03716e-05
0.000173035
0.000482194
0.000449743
0.000166466
4.01594e-05
4.00757e-05
0.000168994
0.000448782
0.000428602
0.000163765
3.99808e-05
3.99174e-05
0.000166281
0.0004288
0.00041356
0.000161754
3.98364e-05
3.97865e-05
0.000164
0.000414579
0.000401805
0.000159924
3.97153e-05
3.96745e-05
0.000161964
0.000403228
0.000391934
0.000158198
3.96113e-05
3.95762e-05
0.000160129
0.000393601
0.000383336
0.000156562
3.95184e-05
3.94872e-05
0.000158432
0.00038515
0.000375644
0.00015499
3.94332e-05
3.94049e-05
0.000156802
0.000377548
0.00036864
0.000153467
3.93535e-05
3.93271e-05
0.000155237
0.000370606
0.000362204
0.000152004
3.92774e-05
3.92524e-05
0.000153744
0.000364216
0.000356242
0.000150607
3.92039e-05
3.91797e-05
0.000152326
0.000358304
0.000350689
0.000149278
3.91319e-05
3.91083e-05
0.000150978
0.000352808
0.000345518
0.000148014
3.90609e-05
3.90376e-05
0.000149698
0.000347689
0.000340693
0.000146811
3.89903e-05
3.89671e-05
0.000148481
0.000342911
0.000336184
0.000145666
3.89197e-05
3.88965e-05
0.000147327
0.000338443
0.000331963
0.000144581
3.88488e-05
3.88254e-05
0.000146233
0.000334257
0.000327999
0.000143554
3.87773e-05
3.87537e-05
0.000145197
0.000330319
0.00032426
0.000142578
3.8705e-05
3.8681e-05
0.000144214
0.000326599
0.00032072
0.000141651
3.86316e-05
3.86071e-05
0.000143278
0.000323071
0.000317355
0.000140767
3.85567e-05
3.85317e-05
0.000142386
0.000319715
0.000314147
0.000139922
3.84803e-05
3.84545e-05
0.000141533
0.00031651
0.000311076
0.000139112
3.84018e-05
3.83752e-05
0.000140714
0.000313439
0.000308127
0.000138332
3.8321e-05
3.82934e-05
0.000139925
0.000310487
0.000305287
0.000137579
3.82375e-05
3.82088e-05
0.000139164
0.000307641
0.000302544
0.00013685
3.8151e-05
3.8121e-05
0.000138426
0.000304891
0.000299889
0.000136143
3.8061e-05
3.80296e-05
0.000137711
0.000302227
0.000297315
0.000135456
3.79672e-05
3.79342e-05
0.000137016
0.000299644
0.000294816
0.000134788
3.78691e-05
3.78344e-05
0.000136342
0.000297138
0.000292392
0.000134138
3.77663e-05
3.77298e-05
0.000135687
0.000294707
0.00029004
0.000133508
3.76585e-05
3.76199e-05
0.000135056
0.000292352
0.000287763
0.000132899
3.75452e-05
3.75045e-05
0.000134462
0.000290077
0.000285567
0.000132318
3.74261e-05
3.73832e-05
0.000133892
0.000287886
0.000283456
0.000131761
3.73008e-05
3.72558e-05
0.000133352
0.000285785
0.000281436
0.000131234
3.71693e-05
3.71221e-05
0.000132848
0.000283782
0.00027952
0.000130745
3.70315e-05
3.69821e-05
0.00013239
0.000281893
0.000277725
0.000130302
3.68873e-05
3.68361e-05
0.000131986
0.000280139
0.000276076
0.000129918
3.67373e-05
3.66847e-05
0.000131652
0.000278585
0.000274617
0.000129607
3.65821e-05
3.65287e-05
0.000131406
0.000277266
0.00027338
0.00012939
3.64232e-05
3.63699e-05
0.000131266
0.000276186
0.000272397
0.000129285
3.62623e-05
3.62104e-05
0.000131257
0.000275406
0.000271732
0.000129318
3.61021e-05
3.60532e-05
0.000131405
0.000274995
0.000271459
0.000129519
3.59461e-05
3.59025e-05
0.000131743
0.000275032
0.000271659
0.000129925
3.57986e-05
3.57634e-05
0.000132281
0.000275597
0.000272418
0.000130559
3.56662e-05
3.56413e-05
0.000132968
0.000276745
0.000273773
0.000131339
3.55568e-05
3.55426e-05
0.000133828
0.000278613
0.000275848
0.000132314
3.54742e-05
3.54723e-05
0.000134873
0.000281201
0.000278626
0.000133478
3.54268e-05
3.54349e-05
0.000136073
0.000284445
0.000282051
0.000134804
3.54211e-05
3.54331e-05
0.000137376
0.000288222
0.000285977
0.000136178
3.54273e-05
3.54678e-05
0.000138698
0.000292478
0.000290364
0.000137506
3.54742e-05
3.55354e-05
0.000139925
0.000297093
0.00029504
0.000138745
3.5554e-05
3.56317e-05
0.000140947
0.000301677
0.000299589
0.00013977
3.56588e-05
3.57466e-05
0.000141752
0.000305924
0.000303738
0.000140493
3.57794e-05
3.58728e-05
0.000142399
0.000309676
0.000307376
0.000140976
3.59093e-05
3.60057e-05
0.000142804
0.000312843
0.000310434
0.000141282
3.60441e-05
3.61409e-05
0.000143007
0.000315385
0.000312855
0.000141326
3.61793e-05
3.62737e-05
0.000142984
0.000317298
0.000314591
0.000141163
3.63108e-05
3.64008e-05
0.000142759
0.00031857
0.000315615
0.000140821
3.64356e-05
3.65196e-05
0.000142352
0.000319406
0.000316051
0.000140337
3.65513e-05
3.66282e-05
0.000141813
0.000319583
0.000315836
0.000139668
3.66564e-05
3.67255e-05
0.000141167
0.000319115
0.000314768
0.000138811
3.675e-05
3.68108e-05
0.00014031
0.000317945
0.00031326
0.000137884
3.68312e-05
3.68834e-05
0.000139386
0.000316345
0.000311443
0.000136935
3.68997e-05
3.69436e-05
0.000138438
0.000314422
0.000309374
0.000135999
3.6956e-05
3.69919e-05
0.000137497
0.000312239
0.000307125
0.000135104
3.70007e-05
3.70296e-05
0.000136592
0.000309879
0.000304771
0.000134267
3.70352e-05
3.70578e-05
0.00013574
0.000307418
0.000302366
0.000133495
3.70605e-05
3.70779e-05
0.000134948
0.00030491
0.000299963
0.000132791
3.70783e-05
3.70908e-05
0.000134219
0.000302418
0.000297591
0.000132149
3.70897e-05
3.70982e-05
0.000133549
0.000299992
0.000295293
0.000131561
3.70958e-05
3.71011e-05
0.000132931
0.000297653
0.000293099
0.000131027
3.70976e-05
3.71011e-05
0.000132371
0.000295442
0.000290998
0.00013052
3.70961e-05
3.70984e-05
0.000131848
0.000293327
0.000288982
0.000130029
3.7091e-05
3.70928e-05
0.000131365
0.000291303
0.000287066
0.000129581
3.70842e-05
3.70857e-05
0.000130925
0.000289384
0.000285243
0.000129169
3.70759e-05
3.70771e-05
0.000130512
0.000287552
0.000283494
0.000128775
3.70663e-05
3.70673e-05
0.000130116
0.000285792
0.00028179
0.000128398
3.70558e-05
3.70564e-05
0.000129734
0.000284093
0.000280125
0.000128025
3.7044e-05
3.70444e-05
0.00012935
0.000282437
0.000278513
0.000127656
3.70315e-05
3.70318e-05
0.000128977
0.000280835
0.00027695
0.000127291
3.70183e-05
3.70187e-05
0.000128611
0.000279288
0.000275454
0.000126935
3.69972e-05
3.70131e-05
0.000128269
0.000277821
0.000273819
0.000126578
3.69759e-05
3.69995e-05
0.000127807
0.000276474
0.000272608
0.000125905
3.69317e-05
3.71167e-05
0.000128105
0.00027665
0.00027415
0.000128002
3.72231e-05
3.7742e-05
0.000128377
0.000277332
0.000290675
0.000134774
3.84466e-05
4.11144e-05
0.000127553
0.000283162
0.000420818
0.000235591
4.70794e-05
4.18585e-05
9.8937e-05
0.000220314
0.00049721
0.00104742
0.00181633
0.00244927
0.00284782
0.00358553
0.00402909
0.00441531
0.00461626
0.00469702
0.00464218
0.00443604
0.00416169
0.00372762
0.00331061
0.00266398
0.00237935
0.00181496
0.00142327
0.00102159
0.00061913
0.000299795
0.000115619
4.99769e-05
1.28327e-05
1.18173e-05
4.6183e-05
0.000105564
0.000100029
4.38671e-05
1.1015e-05
1.04033e-05
4.19599e-05
9.4506e-05
9.47709e-05
4.16961e-05
1.02047e-05
1.00864e-05
4.13963e-05
9.3158e-05
9.30728e-05
4.09956e-05
9.96389e-06
9.95392e-06
4.09271e-05
9.28724e-05
9.30322e-05
4.09525e-05
9.96354e-06
9.96204e-06
4.09562e-05
9.31248e-05
9.31865e-05
4.09758e-05
9.9733e-06
9.9783e-06
4.10004e-05
9.33385e-05
9.34147e-05
4.10234e-05
9.9843e-06
9.99698e-06
4.10682e-05
9.36036e-05
9.37129e-05
4.10939e-05
9.99224e-06
1.00051e-05
4.11454e-05
9.38873e-05
9.39902e-05
4.11669e-05
1.0011e-05
1.0024e-05
4.12077e-05
9.41579e-05
9.42365e-05
4.12252e-05
1.0025e-05
1.00262e-05
4.12776e-05
9.44088e-05
9.44873e-05
4.12876e-05
1.0044e-05
1.0046e-05
4.13373e-05
9.4676e-05
9.4796e-05
4.13649e-05
1.00534e-05
1.00555e-05
4.14313e-05
9.5021e-05
9.51256e-05
4.14573e-05
1.00749e-05
1.00766e-05
4.1516e-05
9.53296e-05
9.54187e-05
4.1536e-05
1.0084e-05
1.00854e-05
4.15878e-05
9.56024e-05
9.56864e-05
4.16045e-05
1.01041e-05
1.01061e-05
4.16522e-05
9.58806e-05
9.60031e-05
4.16828e-05
1.01144e-05
1.01171e-05
4.17583e-05
9.6259e-05
9.63724e-05
4.17928e-05
1.0137e-05
1.01393e-05
4.18501e-05
9.6573e-05
9.66619e-05
4.18695e-05
1.0147e-05
1.01489e-05
4.19248e-05
9.68595e-05
9.69585e-05
4.19515e-05
1.01626e-05
1.0177e-05
4.20095e-05
9.72039e-05
9.73363e-05
4.20521e-05
1.01803e-05
1.01837e-05
4.21287e-05
9.75682e-05
9.76705e-05
4.21513e-05
1.0197e-05
1.02114e-05
4.22086e-05
9.78879e-05
9.79897e-05
4.22377e-05
1.02138e-05
1.0217e-05
4.23073e-05
9.82174e-05
9.83224e-05
4.23394e-05
1.02314e-05
1.02461e-05
4.23974e-05
9.85445e-05
9.86451e-05
4.24299e-05
1.02485e-05
1.02519e-05
4.24989e-05
9.88541e-05
9.89456e-05
4.25212e-05
1.02655e-05
1.028e-05
4.25789e-05
9.91458e-05
9.92311e-05
4.25947e-05
1.0282e-05
1.02856e-05
4.26668e-05
9.94544e-05
9.95718e-05
4.27001e-05
1.03001e-05
1.03158e-05
4.27711e-05
9.97881e-05
9.98811e-05
4.27943e-05
1.03182e-05
1.03208e-05
4.28562e-05
0.000100081
0.000100142
4.28713e-05
1.03341e-05
1.03486e-05
4.29237e-05
0.000100317
0.000100344
4.2922e-05
1.03501e-05
1.03525e-05
4.29764e-05
0.000100511
0.000100569
4.29756e-05
1.03655e-05
1.03803e-05
4.3025e-05
0.000100737
0.000100808
4.30288e-05
1.03818e-05
1.03842e-05
4.30797e-05
0.000100974
0.00010103
4.30779e-05
1.04028e-05
1.04043e-05
4.31036e-05
0.000101155
0.000101126
4.30681e-05
1.04097e-05
1.04089e-05
4.30588e-05
0.000101183
0.000101204
4.30141e-05
1.04256e-05
1.04257e-05
4.30025e-05
0.000101278
0.000101298
4.29603e-05
1.04316e-05
1.04304e-05
4.29306e-05
0.00010134
0.000101284
4.28363e-05
1.04403e-05
1.0449e-05
4.27537e-05
0.000101241
0.000101159
4.2619e-05
1.04454e-05
1.04429e-05
4.25087e-05
0.000101147
0.000101082
4.23798e-05
1.04542e-05
1.04661e-05
4.22745e-05
0.000101178
0.00010105
4.21004e-05
1.04658e-05
1.04638e-05
4.19211e-05
0.000100983
0.000100754
4.16704e-05
1.04796e-05
1.04813e-05
4.14381e-05
0.000100631
0.000100347
4.113e-05
1.04904e-05
1.04974e-05
4.08638e-05
0.000100258
0.00010007
4.056e-05
1.05209e-05
1.05507e-05
4.03225e-05
0.000100184
0.000100082
4.00201e-05
1.05716e-05
1.06056e-05
3.97808e-05
0.000100357
0.000100541
3.95107e-05
1.06467e-05
1.06981e-05
3.93088e-05
0.000101115
0.000101416
3.9066e-05
1.07562e-05
1.08251e-05
3.88323e-05
0.00010195
0.000102495
3.85875e-05
1.09039e-05
1.09951e-05
3.86029e-05
0.000103722
0.000105389
3.92619e-05
1.11761e-05
1.13502e-05
3.97697e-05
0.000106714
0.000107555
3.99173e-05
1.13288e-05
1.14688e-05
3.94356e-05
0.000108775
0.000110612
4.16469e-05
1.17293e-05
1.188e-05
4.08993e-05
0.00011167
0.000112983
4.20925e-05
1.21584e-05
1.24069e-05
4.27078e-05
0.000114635
0.000114918
4.35869e-05
1.27618e-05
1.32286e-05
4.53963e-05
0.000116534
0.000116286
4.63044e-05
1.36207e-05
1.39233e-05
4.73151e-05
0.000117079
0.000116777
4.80752e-05
1.45814e-05
1.57417e-05
5.35878e-05
0.00011879
0.000117342
5.53798e-05
1.08368e-05
6.20203e-06
1.60257e-05
4.17654e-05
0.000100106
3.59332e-05
8.36029e-06
9.22582e-06
3.21543e-05
9.26844e-05
9.70784e-05
3.3769e-05
9.44716e-06
9.63159e-06
3.23029e-05
9.33349e-05
9.86198e-05
3.46719e-05
1.00306e-05
1.04974e-05
3.42101e-05
9.71157e-05
0.000103576
3.80705e-05
1.10769e-05
1.16952e-05
3.75908e-05
0.000101255
0.000107404
4.23521e-05
1.24429e-05
1.33604e-05
4.29508e-05
0.000107284
0.000114296
4.91139e-05
1.48752e-05
1.05281e-05
5.26183e-05
0.00011472
4.08575e-05
1.52452e-05
6.46533e-06
9.00354e-06
3.74221e-05
0.000103779
0.000100779
3.48924e-05
1.06311e-05
1.18222e-05
4.42155e-05
0.000118592
0.000119384
4.43292e-05
1.26892e-05
1.37218e-05
4.98064e-05
0.000127783
0.000129056
5.18422e-05
1.48493e-05
1.64298e-05
5.88311e-05
0.00013534
0.000130481
6.14628e-05
1.16453e-05
7.00947e-06
1.75967e-05
4.65823e-05
0.00011309
4.1954e-05
9.63407e-06
1.10738e-05
3.90838e-05
0.00010963
0.000120468
4.58642e-05
1.19873e-05
1.30457e-05
4.52822e-05
0.000117988
0.000126693
5.34441e-05
1.48531e-05
1.07738e-05
5.87355e-05
0.000125478
4.56122e-05
1.68675e-05
6.67955e-06
9.6094e-06
4.12557e-05
0.000116166
0.000116802
4.20634e-05
1.17291e-05
1.38743e-05
5.41465e-05
0.000139719
0.000142598
6.06213e-05
1.59297e-05
1.15218e-05
6.53728e-05
0.000140394
5.15398e-05
1.81769e-05
6.86535e-06
9.9029e-06
4.8784e-05
0.000127561
0.00012499
4.62155e-05
1.21584e-05
1.45919e-05
6.06737e-05
0.000146339
0.000145502
6.67186e-05
1.08616e-05
6.72718e-06
1.89399e-05
5.6338e-05
0.000146089
5.48126e-05
1.04291e-05
1.36828e-05
5.55641e-05
0.000152323
0.000193528
8.12132e-05
1.68872e-05
1.27979e-05
8.33451e-05
0.000183179
7.6825e-05
2.58974e-05
8.22679e-06
1.35053e-05
7.87146e-05
0.00019064
0.000186525
8.04539e-05
1.12133e-05
7.72179e-06
2.66071e-05
8.36154e-05
0.000236843
9.08062e-05
1.40491e-05
1.24403e-05
9.88678e-05
0.00024917
0.000119978
4.20312e-05
9.66769e-06
1.10668e-05
0.000100662
0.000272853
0.000186732
7.29883e-05
1.01019e-05
1.36144e-05
0.000107822
0.000319905
0.00026617
9.03161e-05
1.12645e-05
1.11417e-05
8.69511e-05
0.000256867
0.000280044
9.68428e-05
1.30471e-05
1.7071e-05
0.000171694
0.000472442
0.000104833
3.9216e-05
1.41117e-05
1.31158e-05
9.56279e-05
0.000203422
7.48839e-05
3.15536e-05
1.21624e-05
1.35115e-05
6.92762e-05
0.000148313
0.000132908
5.58852e-05
1.4759e-05
8.14924e-06
1.9125e-05
4.86107e-05
9.91526e-05
6.17418e-05
9.90712e-06
1.05088e-05
2.44141e-05
5.44662e-05
0.000115456
5.83109e-05
1.28431e-05
1.47658e-05
5.12578e-05
0.000109291
4.60177e-05
1.9774e-05
8.9357e-06
1.17246e-05
5.30634e-05
0.00010055
9.64648e-05
4.72504e-05
1.39921e-05
8.56081e-06
1.83722e-05
4.17819e-05
9.31701e-05
4.95057e-05
1.12591e-05
1.36189e-05
4.52069e-05
8.97884e-05
3.98665e-05
1.80479e-05
8.51344e-06
1.10972e-05
4.72832e-05
8.8586e-05
8.44596e-05
4.33569e-05
1.34625e-05
8.43726e-06
1.73286e-05
3.79629e-05
8.37495e-05
4.50283e-05
1.09716e-05
1.34772e-05
4.1346e-05
8.01905e-05
3.63606e-05
1.70491e-05
8.53933e-06
1.11252e-05
4.40854e-05
8.0157e-05
7.61553e-05
4.02762e-05
1.35672e-05
8.52368e-06
1.66489e-05
3.52011e-05
7.71688e-05
4.26301e-05
1.10601e-05
1.37129e-05
3.93291e-05
7.3857e-05
3.53376e-05
1.70503e-05
8.86617e-06
1.16366e-05
4.43479e-05
7.76016e-05
7.10826e-05
3.75671e-05
1.50434e-05
1.11054e-05
3.1274e-05
6.21884e-05
2.83956e-05
1.3026e-05
7.0877e-06
9.09358e-06
3.31857e-05
6.05569e-05
5.99611e-05
3.16279e-05
1.15812e-05
7.3213e-06
1.36882e-05
2.8694e-05
5.97393e-05
3.39937e-05
9.33331e-06
1.17927e-05
3.16007e-05
5.74221e-05
2.76007e-05
1.34771e-05
7.41379e-06
9.22837e-06
3.22627e-05
5.55705e-05
5.4782e-05
3.08613e-05
1.16513e-05
7.37544e-06
1.33993e-05
2.7264e-05
5.51964e-05
3.24727e-05
9.35621e-06
1.18058e-05
3.06365e-05
5.34621e-05
2.6741e-05
1.31773e-05
7.30957e-06
9.18942e-06
3.11045e-05
5.26084e-05
5.16424e-05
3.01363e-05
1.17717e-05
7.44272e-06
1.28805e-05
2.58365e-05
5.10145e-05
3.04131e-05
9.20046e-06
1.17144e-05
2.8405e-05
4.96492e-05
2.50116e-05
1.27839e-05
7.30417e-06
8.84033e-06
2.8928e-05
4.79145e-05
4.69038e-05
2.68331e-05
1.11989e-05
6.89778e-06
1.18014e-05
2.28007e-05
4.23577e-05
3.16944e-05
7.89521e-06
9.36562e-06
1.50216e-05
2.671e-05
5.40009e-05
3.32888e-05
1.11816e-05
1.3603e-05
3.09607e-05
5.17701e-05
2.70143e-05
1.43313e-05
8.4358e-06
1.02609e-05
3.20674e-05
5.1404e-05
4.99112e-05
2.99754e-05
1.30438e-05
8.31228e-06
1.42121e-05
2.64575e-05
5.10769e-05
3.1835e-05
1.01815e-05
1.28389e-05
2.99931e-05
4.96218e-05
2.58386e-05
1.39219e-05
8.10313e-06
9.81941e-06
3.04621e-05
4.80851e-05
4.64782e-05
2.80058e-05
1.25224e-05
7.89587e-06
1.35842e-05
2.46705e-05
4.57219e-05
2.89504e-05
9.41539e-06
1.18057e-05
2.66443e-05
4.39953e-05
2.2144e-05
1.22468e-05
7.17491e-06
8.02079e-06
2.96537e-05
3.88827e-05
2.47793e-05
1.48893e-05
9.44422e-06
1.09448e-05
2.92391e-05
4.63544e-05
4.39656e-05
2.69957e-05
1.32881e-05
8.16884e-06
1.39238e-05
2.39585e-05
4.31463e-05
2.79876e-05
9.66933e-06
1.21704e-05
2.61441e-05
4.09497e-05
2.17275e-05
1.26548e-05
7.54319e-06
8.30018e-06
2.8805e-05
3.70859e-05
2.42075e-05
1.49356e-05
9.78474e-06
1.13149e-05
2.90377e-05
4.47383e-05
4.2071e-05
2.65448e-05
1.35994e-05
8.33019e-06
1.40141e-05
2.34722e-05
4.21063e-05
2.7609e-05
9.87802e-06
1.23146e-05
2.52143e-05
3.98645e-05
2.11749e-05
1.2575e-05
7.50706e-06
8.2828e-06
2.75454e-05
3.53029e-05
2.31834e-05
1.46231e-05
9.73685e-06
1.10654e-05
2.74758e-05
4.23128e-05
3.97396e-05
2.52233e-05
1.32889e-05
8.16229e-06
1.37798e-05
2.2242e-05
3.91648e-05
2.59191e-05
9.76593e-06
1.21253e-05
2.3827e-05
3.71896e-05
2.03566e-05
1.23604e-05
7.29351e-06
8.13959e-06
2.6646e-05
3.30133e-05
2.20183e-05
1.44102e-05
9.57355e-06
1.08864e-05
2.57635e-05
3.9359e-05
3.66345e-05
2.31069e-05
1.29516e-05
7.60093e-06
1.2534e-05
1.99645e-05
3.24675e-05
2.6193e-05
8.22802e-06
9.62301e-06
1.44705e-05
2.18436e-05
3.89481e-05
2.52554e-05
1.08738e-05
1.32386e-05
2.32117e-05
3.63682e-05
2.02101e-05
1.28605e-05
7.91167e-06
8.52311e-06
2.56775e-05
3.22442e-05
2.19505e-05
1.47659e-05
9.87644e-06
1.0999e-05
2.54727e-05
3.85827e-05
3.58827e-05
2.30223e-05
1.32742e-05
7.81842e-06
1.27041e-05
1.99582e-05
3.18714e-05
2.61439e-05
8.33004e-06
9.80082e-06
1.46868e-05
2.16934e-05
3.7925e-05
2.48905e-05
1.10556e-05
1.32418e-05
2.26059e-05
3.53967e-05
1.97258e-05
1.28309e-05
7.91245e-06
8.48663e-06
2.5679e-05
3.12694e-05
2.14841e-05
1.47807e-05
9.85212e-06
1.08923e-05
2.45814e-05
3.73463e-05
3.4677e-05
2.23707e-05
1.29498e-05
7.64881e-06
1.25055e-05
1.9427e-05
2.98301e-05
2.58566e-05
8.15343e-06
9.24895e-06
1.45428e-05
2.07788e-05
3.29032e-05
2.52702e-05
9.55449e-06
1.09025e-05
1.53113e-05
2.24492e-05
3.78844e-05
2.46033e-05
1.1817e-05
1.37409e-05
2.23537e-05
3.50391e-05
1.97817e-05
1.29581e-05
8.04357e-06
8.56408e-06
2.5434e-05
3.08393e-05
2.13206e-05
1.49829e-05
1.00316e-05
1.10655e-05
2.40699e-05
3.63886e-05
3.38904e-05
2.19046e-05
1.30997e-05
7.66742e-06
1.25373e-05
1.91842e-05
2.93364e-05
2.51891e-05
8.20465e-06
9.35395e-06
1.45743e-05
2.065e-05
3.22025e-05
2.50208e-05
9.62502e-06
1.07269e-05
1.53822e-05
2.21742e-05
3.71034e-05
2.40366e-05
1.16151e-05
1.37199e-05
2.20306e-05
3.42679e-05
1.94093e-05
1.3051e-05
8.12719e-06
8.46738e-06
2.51964e-05
2.99352e-05
2.11461e-05
1.50418e-05
9.7548e-06
9.9149e-06
2.52573e-05
3.26533e-05
2.25275e-05
1.58156e-05
1.10665e-05
1.18684e-05
2.4125e-05
3.72421e-05
3.4324e-05
2.19524e-05
1.38876e-05
8.17228e-06
1.31395e-05
1.96423e-05
2.97911e-05
2.55671e-05
8.51452e-06
9.69276e-06
1.50467e-05
2.11346e-05
3.23834e-05
2.55012e-05
9.95072e-06
1.11402e-05
1.58631e-05
2.25149e-05
3.70897e-05
2.42169e-05
1.20531e-05
1.40808e-05
2.21524e-05
3.4234e-05
1.97334e-05
1.3406e-05
8.3813e-06
8.79496e-06
2.53881e-05
3.00214e-05
2.13823e-05
1.53197e-05
1.00369e-05
1.01732e-05
2.53503e-05
3.25504e-05
2.26684e-05
1.5981e-05
1.1156e-05
1.18383e-05
2.40638e-05
3.69055e-05
3.39817e-05
2.19126e-05
1.36991e-05
8.10324e-06
1.30975e-05
1.93077e-05
2.92011e-05
2.49872e-05
8.40651e-06
9.58865e-06
1.47953e-05
2.06618e-05
3.13451e-05
2.46549e-05
9.87737e-06
1.09242e-05
1.55066e-05
2.18611e-05
3.54297e-05
2.32888e-05
1.17785e-05
1.37873e-05
2.14185e-05
3.27897e-05
1.90128e-05
1.30475e-05
8.24403e-06
8.5435e-06
2.45789e-05
2.87377e-05
2.04948e-05
1.46742e-05
9.60256e-06
9.72515e-06
2.40972e-05
3.08061e-05
2.17684e-05
1.54178e-05
1.06838e-05
1.05074e-05
2.47536e-05
3.2154e-05
2.26828e-05
1.64303e-05
1.15972e-05
1.23817e-05
2.40507e-05
3.60959e-05
3.31514e-05
2.19057e-05
1.4242e-05
8.29816e-06
1.3231e-05
1.9391e-05
2.88046e-05
2.49966e-05
8.57948e-06
9.65303e-06
1.48865e-05
2.06858e-05
3.06131e-05
2.42599e-05
9.79832e-06
1.06539e-05
1.54199e-05
2.18184e-05
3.18347e-05
2.46291e-05
1.05639e-05
1.16345e-05
1.63596e-05
2.25839e-05
3.56477e-05
2.38189e-05
1.22841e-05
1.42184e-05
2.18945e-05
3.2881e-05
1.93665e-05
1.34592e-05
8.49635e-06
8.70942e-06
2.49528e-05
2.8828e-05
2.07575e-05
1.49875e-05
9.86093e-06
1.00343e-05
2.40355e-05
3.08092e-05
2.19799e-05
1.56975e-05
1.09616e-05
1.08691e-05
2.49189e-05
3.19937e-05
2.28379e-05
1.66275e-05
1.18881e-05
1.25365e-05
2.40593e-05
3.57534e-05
3.29052e-05
2.20174e-05
1.43878e-05
8.53224e-06
1.34918e-05
1.95013e-05
2.86137e-05
2.48378e-05
8.71154e-06
9.83375e-06
1.49734e-05
2.07071e-05
3.02913e-05
2.39129e-05
9.84734e-06
1.06807e-05
1.53417e-05
2.16216e-05
3.11953e-05
2.42305e-05
1.05794e-05
1.1667e-05
1.63052e-05
2.24254e-05
3.47117e-05
2.34183e-05
1.2385e-05
1.42542e-05
2.15774e-05
3.22406e-05
1.93364e-05
1.33816e-05
8.44027e-06
8.88866e-06
2.44982e-05
2.8158e-05
2.06971e-05
1.51289e-05
9.95441e-06
1.00054e-05
2.44195e-05
3.01538e-05
2.16541e-05
1.5499e-05
1.07616e-05
1.03782e-05
2.39807e-05
3.09224e-05
2.22878e-05
1.59995e-05
1.12232e-05
1.10837e-05
2.49568e-05
3.16865e-05
2.28186e-05
1.68879e-05
1.20409e-05
1.25381e-05
2.38669e-05
3.50873e-05
3.24292e-05
2.18608e-05
1.43e-05
8.46967e-06
1.33617e-05
1.93756e-05
2.79116e-05
2.43462e-05
8.66205e-06
9.83505e-06
1.47935e-05
2.04077e-05
2.9358e-05
2.32882e-05
1.00094e-05
1.08223e-05
1.5319e-05
2.13569e-05
3.02381e-05
2.3633e-05
1.05176e-05
1.13449e-05
1.59808e-05
2.20482e-05
3.12791e-05
2.46405e-05
1.11291e-05
1.20889e-05
1.6876e-05
2.27494e-05
3.49028e-05
2.39035e-05
1.27577e-05
1.4717e-05
2.21379e-05
3.24032e-05
1.97448e-05
1.38757e-05
8.87125e-06
9.17513e-06
2.51093e-05
2.84074e-05
2.08237e-05
1.5273e-05
1.02303e-05
1.01649e-05
2.39687e-05
3.00855e-05
2.18292e-05
1.57145e-05
1.10529e-05
1.08493e-05
2.42729e-05
3.08903e-05
2.24625e-05
1.63097e-05
1.16117e-05
1.13026e-05
2.50758e-05
3.16824e-05
2.30954e-05
1.72041e-05
1.23246e-05
1.29587e-05
2.41151e-05
3.49772e-05
3.24362e-05
2.21205e-05
1.46957e-05
8.8385e-06
1.38345e-05
1.98196e-05
2.80609e-05
2.45262e-05
9.09731e-06
1.0135e-05
1.5209e-05
2.0851e-05
2.95195e-05
2.36953e-05
1.01011e-05
1.09202e-05
1.55676e-05
2.1679e-05
3.01896e-05
2.37351e-05
1.07111e-05
1.15226e-05
1.61739e-05
2.22307e-05
3.11078e-05
2.46849e-05
1.14675e-05
1.24108e-05
1.71431e-05
2.28278e-05
3.43456e-05
2.40481e-05
1.30876e-05
1.49648e-05
2.22158e-05
3.21094e-05
1.99044e-05
1.40198e-05
8.99738e-06
9.2697e-06
2.48809e-05
2.81963e-05
2.09591e-05
1.54177e-05
1.03124e-05
1.03481e-05
2.3943e-05
2.97232e-05
2.19567e-05
1.58962e-05
1.12187e-05
1.0959e-05
2.41275e-05
3.05779e-05
2.25504e-05
1.64198e-05
1.17035e-05
1.15006e-05
2.49616e-05
3.1296e-05
2.30056e-05
1.71927e-05
1.23978e-05
1.29743e-05
2.3929e-05
3.43309e-05
3.19491e-05
2.1989e-05
1.47348e-05
8.84491e-06
1.38388e-05
1.97102e-05
2.75195e-05
2.43969e-05
9.12642e-06
1.01668e-05
1.51179e-05
2.06092e-05
2.86692e-05
2.31294e-05
1.02397e-05
1.11182e-05
1.56081e-05
2.14325e-05
2.94197e-05
2.34281e-05
1.08373e-05
1.15349e-05
1.61259e-05
2.1981e-05
3.01779e-05
2.41756e-05
1.127e-05
1.19737e-05
1.66958e-05
2.25845e-05
3.1149e-05
2.50896e-05
1.17248e-05
1.27012e-05
1.75205e-05
2.3174e-05
3.45473e-05
2.43088e-05
1.35087e-05
1.54305e-05
2.25315e-05
3.23403e-05
2.03227e-05
1.44435e-05
9.32726e-06
9.70417e-06
2.52278e-05
2.84012e-05
2.14843e-05
1.60001e-05
1.07998e-05
1.08815e-05
2.45732e-05
3.00291e-05
2.2406e-05
1.64183e-05
1.16938e-05
1.14834e-05
2.46902e-05
3.08647e-05
2.30344e-05
1.69296e-05
1.22091e-05
1.19682e-05
2.54227e-05
3.17968e-05
2.36957e-05
1.78571e-05
1.29851e-05
1.36912e-05
2.46728e-05
3.48992e-05
3.24716e-05
2.27424e-05
1.55052e-05
9.38139e-06
1.45253e-05
2.04131e-05
2.83154e-05
2.51978e-05
9.72467e-06
1.08014e-05
1.59401e-05
2.15237e-05
2.95363e-05
2.42703e-05
1.07558e-05
1.15397e-05
1.62361e-05
2.22459e-05
3.00715e-05
2.42067e-05
1.14238e-05
1.21193e-05
1.67665e-05
2.27145e-05
3.08275e-05
2.48905e-05
1.19047e-05
1.28696e-05
1.76216e-05
2.32211e-05
3.39315e-05
2.4176e-05
1.37086e-05
1.56697e-05
2.25281e-05
3.18281e-05
2.03418e-05
1.45579e-05
9.49245e-06
9.85925e-06
2.49748e-05
2.80435e-05
2.15317e-05
1.6153e-05
1.10061e-05
1.11162e-05
2.45584e-05
2.96153e-05
2.24639e-05
1.65838e-05
1.19065e-05
1.16461e-05
2.458e-05
3.03856e-05
2.30152e-05
1.71185e-05
1.24011e-05
1.22803e-05
2.52144e-05
3.1313e-05
2.36961e-05
1.80364e-05
1.32504e-05
1.39708e-05
2.46399e-05
3.43632e-05
3.20511e-05
2.28031e-05
1.57894e-05
9.6164e-06
1.47553e-05
2.05821e-05
2.82203e-05
2.53274e-05
9.90055e-06
1.09152e-05
1.60748e-05
2.16081e-05
2.93295e-05
2.42585e-05
1.10387e-05
1.18491e-05
1.64382e-05
2.23504e-05
2.98836e-05
2.42607e-05
1.1672e-05
1.24531e-05
1.70552e-05
2.28544e-05
3.06733e-05
2.49124e-05
1.22726e-05
1.33075e-05
1.80096e-05
2.34325e-05
3.37514e-05
2.4451e-05
1.42129e-05
1.61001e-05
2.28759e-05
3.17498e-05
2.08269e-05
1.51451e-05
9.94553e-06
1.0347e-05
2.53863e-05
2.8401e-05
2.19501e-05
1.66083e-05
1.13388e-05
1.14749e-05
2.518e-05
2.99324e-05
2.28908e-05
1.71159e-05
1.22975e-05
1.20933e-05
2.51917e-05
3.08381e-05
2.33972e-05
1.77913e-05
1.31023e-05
1.39172e-05
2.40625e-05
3.35864e-05
3.13988e-05
2.24332e-05
1.57281e-05
9.66217e-06
1.47272e-05
2.0344e-05
2.75184e-05
2.46567e-05
1.00267e-05
1.10585e-05
1.6186e-05
2.14318e-05
2.88031e-05
2.43899e-05
1.12259e-05
1.20389e-05
1.66538e-05
2.2266e-05
2.97007e-05
2.42454e-05
1.20701e-05
1.31253e-05
1.75953e-05
2.28785e-05
3.25166e-05
2.37035e-05
1.39458e-05
1.58522e-05
2.22965e-05
3.06764e-05
2.03369e-05
1.47819e-05
9.76819e-06
1.01725e-05
2.47171e-05
2.74257e-05
2.15038e-05
1.64137e-05
1.12146e-05
1.14179e-05
2.44811e-05
2.90074e-05
2.24356e-05
1.69307e-05
1.22954e-05
1.21973e-05
2.45181e-05
2.98966e-05
2.29879e-05
1.76431e-05
1.30888e-05
1.38767e-05
2.3679e-05
3.24786e-05
3.05353e-05
2.21722e-05
1.57651e-05
9.7132e-06
1.47172e-05
2.02481e-05
2.70134e-05
2.43816e-05
1.00732e-05
1.11691e-05
1.62246e-05
2.12551e-05
2.82923e-05
2.41391e-05
1.14271e-05
1.22456e-05
1.67872e-05
2.21576e-05
2.93212e-05
2.40339e-05
1.22536e-05
1.33001e-05
1.77494e-05
2.28485e-05
3.21825e-05
2.37126e-05
1.41824e-05
1.60251e-05
2.24178e-05
3.04583e-05
2.05059e-05
1.51719e-05
9.98537e-06
1.0473e-05
2.48899e-05
2.7439e-05
2.16107e-05
1.66566e-05
1.15391e-05
1.17563e-05
2.46279e-05
2.89947e-05
2.26696e-05
1.7303e-05
1.26272e-05
1.27032e-05
2.46565e-05
3.00602e-05
2.33803e-05
1.81992e-05
1.36559e-05
1.4465e-05
2.41657e-05
3.27745e-05
3.09476e-05
2.27719e-05
1.63067e-05
1.01903e-05
1.53443e-05
2.09021e-05
2.7701e-05
2.50594e-05
1.06732e-05
1.17085e-05
1.69478e-05
2.19846e-05
2.92959e-05
2.47459e-05
1.21121e-05
1.32698e-05
1.79201e-05
2.30336e-05
3.21297e-05
2.38484e-05
1.43591e-05
1.62229e-05
2.26394e-05
3.0514e-05
2.05821e-05
1.5219e-05
1.02061e-05
1.07487e-05
2.47157e-05
2.74403e-05
2.18464e-05
1.69555e-05
1.18483e-05
1.21313e-05
2.47753e-05
2.91058e-05
2.29744e-05
1.76958e-05
1.30112e-05
1.31885e-05
2.49808e-05
3.04145e-05
2.39198e-05
1.87646e-05
1.41785e-05
1.52061e-05
2.48915e-05
3.33644e-05
3.14784e-05
2.35145e-05
1.71392e-05
1.08008e-05
1.60307e-05
2.16188e-05
2.85093e-05
2.5772e-05
1.12435e-05
1.23553e-05
1.77095e-05
2.28562e-05
3.02891e-05
2.5588e-05
1.28211e-05
1.3913e-05
1.87353e-05
2.39286e-05
3.328e-05
2.48334e-05
1.4951e-05
1.70198e-05
2.35939e-05
3.16754e-05
2.18438e-05
1.62864e-05
1.10576e-05
1.16376e-05
2.57748e-05
2.87368e-05
2.30465e-05
1.80477e-05
1.26766e-05
1.32018e-05
2.58507e-05
3.07143e-05
2.43569e-05
1.92134e-05
1.43426e-05
1.55838e-05
2.53469e-05
3.38138e-05
3.20709e-05
2.4026e-05
1.75661e-05
1.12367e-05
1.65168e-05
2.22204e-05
2.93496e-05
2.60689e-05
1.18791e-05
1.32398e-05
1.8578e-05
2.35436e-05
3.27948e-05
2.50005e-05
1.47058e-05
1.67538e-05
2.37485e-05
3.14327e-05
2.17533e-05
1.60473e-05
1.06962e-05
1.13347e-05
2.60722e-05
2.86045e-05
2.28385e-05
1.76764e-05
1.24685e-05
1.30291e-05
2.52279e-05
3.02029e-05
2.3984e-05
1.88466e-05
1.41979e-05
1.54113e-05
2.47773e-05
3.30573e-05
3.15705e-05
2.36141e-05
1.73512e-05
1.12026e-05
1.64699e-05
2.20945e-05
2.89391e-05
2.56456e-05
1.19846e-05
1.33231e-05
1.86713e-05
2.34346e-05
3.23979e-05
2.50285e-05
1.49355e-05
1.7016e-05
2.38801e-05
3.11622e-05
2.19967e-05
1.64044e-05
1.1114e-05
1.18642e-05
2.57499e-05
2.87508e-05
2.31359e-05
1.84276e-05
1.30768e-05
1.44375e-05
2.44169e-05
3.19999e-05
3.08024e-05
2.32548e-05
1.6537e-05
1.08037e-05
1.58903e-05
2.14798e-05
2.82172e-05
2.49784e-05
1.17747e-05
1.31065e-05
1.82077e-05
2.28701e-05
3.15632e-05
2.44098e-05
1.47001e-05
1.6829e-05
2.33685e-05
3.04437e-05
2.16232e-05
1.61961e-05
1.10289e-05
1.18582e-05
2.51801e-05
2.82179e-05
2.28905e-05
1.83353e-05
1.31292e-05
1.45897e-05
2.43547e-05
3.15213e-05
3.03852e-05
2.32251e-05
1.66343e-05
1.0848e-05
1.59668e-05
2.14819e-05
2.81232e-05
2.57985e-05
1.16424e-05
1.30013e-05
1.80788e-05
2.26811e-05
3.13423e-05
2.39127e-05
1.47758e-05
1.69838e-05
2.30322e-05
3.02769e-05
2.16444e-05
1.63398e-05
1.12778e-05
1.22579e-05
2.50017e-05
2.82534e-05
2.3147e-05
1.87646e-05
1.35895e-05
1.52528e-05
2.48826e-05
3.19223e-05
3.08361e-05
2.38628e-05
1.73416e-05
1.14881e-05
1.67089e-05
2.21806e-05
2.89351e-05
2.56318e-05
1.24733e-05
1.38573e-05
1.91614e-05
2.36789e-05
3.28576e-05
2.56051e-05
1.57491e-05
1.79858e-05
2.47714e-05
3.18778e-05
2.29851e-05
1.76684e-05
1.24143e-05
1.44371e-05
2.55934e-05
3.14907e-05
3.06873e-05
2.4594e-05
1.6858e-05
1.1494e-05
1.68331e-05
2.23063e-05
2.94373e-05
2.58283e-05
1.26737e-05
1.40605e-05
1.93851e-05
2.41105e-05