/*--------------------------------*- C++ -*----------------------------------*\
| =========                 |                                                 |
| \\      /  F ield         | OpenFOAM: The Open Source CFD Toolbox           |
|  \\    /   O peration     | Version:  v2006                                 |
|   \\  /    A nd           | Website:  www.openfoam.com                      |
|    \\/     M anipulation  |                                                 |
\*---------------------------------------------------------------------------*/
FoamFile
{
    version     2.0;
    format      ascii;
    class       volVectorField;
    location    "0.072";
    object      U;
}
// * * * * * * * * * * * * * * * * * * * * * * * * * * * * * * * * * * * * * //

dimensions      [0 1 -1 0 0 0 0];


internalField   nonuniform List<vector> 
16277
(
(48.3132 0.00150815 -3.13102e-19)
(48.3136 -0.00395407 0)
(48.3132 0.00425505 0)
(48.3128 -0.00366173 0)
(48.3127 0.000453488 -4.9444e-21)
(48.311 -0.00141131 -7.68137e-19)
(48.3061 -0.00138925 9.06117e-19)
(48.2906 -0.00370073 0)
(48.2552 -0.00805482 0)
(48.1992 -0.0140692 0)
(48.1283 -0.0207794 -3.42953e-21)
(48.0501 -0.0271648 -6.99019e-21)
(47.9697 -0.0328871 1.76996e-21)
(47.8887 -0.0379415 0)
(47.8072 -0.0425042 0)
(47.7241 -0.0467356 0)
(47.6385 -0.050747 0)
(47.5495 -0.054598 0)
(47.4569 -0.0583067 0)
(47.3603 -0.0618757 0)
(47.2598 -0.065304 0)
(47.1554 -0.0685954 0)
(47.0471 -0.0717597 0)
(46.9352 -0.0748103 0)
(46.8195 -0.0777612 0)
(46.7002 -0.0806237 0)
(46.5773 -0.0834066 0)
(46.4509 -0.0861148 0)
(46.3209 -0.088751 0)
(46.1875 -0.0913149 0)
(46.0508 -0.093805 0)
(45.9109 -0.0962185 0)
(45.7678 -0.098552 0)
(45.6218 -0.100801 0)
(45.4728 -0.102962 0)
(45.3211 -0.10503 0)
(45.1668 -0.106999 0)
(45.01 -0.108866 0)
(44.8508 -0.110624 0)
(44.6895 -0.11227 0)
(44.5261 -0.1138 0)
(44.3608 -0.115209 0)
(44.1938 -0.116493 0)
(44.0253 -0.117648 0)
(43.8555 -0.118671 0)
(43.6844 -0.119558 0)
(43.5123 -0.120305 0)
(43.3395 -0.120909 0)
(43.1659 -0.121369 0)
(42.992 -0.121679 0)
(42.8178 -0.121839 0)
(42.6436 -0.121845 0)
(42.4695 -0.121696 0)
(42.2958 -0.121394 0)
(42.1226 -0.120934 0)
(41.9503 -0.120287 0)
(41.7789 -0.119466 0)
(41.6087 -0.118506 0)
(41.4399 -0.11739 0)
(41.2727 -0.116107 0)
(41.1074 -0.114659 0)
(40.9441 -0.113044 0)
(40.7831 -0.111266 0)
(40.6245 -0.109324 0)
(40.4686 -0.107219 0)
(40.3156 -0.104953 0)
(40.1657 -0.102525 0)
(40.019 -0.0999359 0)
(39.8758 -0.0971813 0)
(39.7362 -0.094256 0)
(39.6004 -0.091151 0)
(39.4686 -0.0878547 0)
(39.341 -0.0843545 0)
(39.2178 -0.0806409 0)
(39.0992 -0.0767097 0)
(38.9853 -0.0725588 0)
(38.876 -0.0681712 0)
(38.7707 -0.0634758 0)
(38.6684 -0.0582805 -3.00514e-20)
(38.5679 -0.0522695 2.99864e-20)
(38.4686 -0.0449827 0)
(38.373 -0.0362075 8.95566e-20)
(38.289 -0.0265764 -5.91684e-20)
(38.23 -0.0181956 0)
(38.2039 -0.0128851 -1.71866e-18)
(38.2033 -0.0105368 1.11686e-18)
(38.2136 -0.00964004 0)
(38.2257 -0.00943534 0)
(38.2355 -0.00935707 0)
(38.2345 -0.0073857 1.73895e-17)
(38.2271 -0.00459637 -1.0294e-17)
(38.2027 -0.0102852 -1.26062e-17)
(38.1411 -0.0202378 -3.78914e-18)
(38.038 -0.0398377 2.12406e-18)
(37.8701 -0.0576766 0)
(37.6772 -0.0669744 0)
(36.9673 -0.102504 -2.76478e-19)
(36.5115 -0.09303 2.3251e-18)
(37.6856 -0.113575 1.73403e-18)
(37.9172 -0.0967228 -5.82569e-18)
(37.9413 -0.119278 0)
(37.6343 -0.133697 1.79682e-18)
(35.9972 -0.0920247 1.93182e-18)
(35.4886 -0.0845116 7.19781e-19)
(37.5734 -0.133344 4.01177e-19)
(37.9636 -0.124081 1.33779e-18)
(37.9611 -0.121242 1.33875e-18)
(37.48 -0.122899 0)
(35.0208 -0.0739637 -1.25582e-18)
(34.5896 -0.0643161 1.16915e-19)
(37.3809 -0.112508 0)
(37.9471 -0.118006 0)
(37.9079 -0.113526 1.65983e-19)
(37.2529 -0.103542 0)
(34.1869 -0.0571963 2.47584e-24)
(33.8231 -0.0518376 1.35726e-19)
(37.1364 -0.0967161 0)
(37.8669 -0.111146 -1.66827e-19)
(37.8074 -0.107655 1.05551e-20)
(37.0039 -0.0912563 3.94206e-19)
(33.4788 -0.0475952 -5.07016e-19)
(33.1772 -0.0430719 4.92661e-19)
(36.8892 -0.0858047 3.96139e-19)
(37.7546 -0.107183 -6.88795e-19)
(37.6832 -0.10301 -6.81637e-19)
(36.7503 -0.0811035 -7.95328e-19)
(32.8849 -0.0400391 0)
(32.624 -0.0364111 4.95083e-19)
(36.6333 -0.0770824 -4.10818e-19)
(37.6187 -0.102235 -1.06788e-20)
(37.5366 -0.0979776 6.94646e-19)
(36.4913 -0.073124 -4.11057e-19)
(32.3666 -0.0343524 -4.95366e-19)
(32.134 -0.0316046 0)
(36.3735 -0.0703018 0)
(37.465 -0.0973893 0)
(37.3767 -0.0938558 6.84334e-19)
(36.2314 -0.0671182 0)
(31.9032 -0.030198 0)
(31.6945 -0.0279263 0)
(36.1167 -0.0651647 0)
(37.3021 -0.0939986 0)
(37.207 -0.0907361 0)
(35.9732 -0.0625677 0)
(31.4816 -0.027066 0)
(31.2878 -0.0251976 0)
(35.8582 -0.0610068 0)
(37.1274 -0.0907359 0)
(37.0262 -0.0878915 0)
(35.7131 -0.0589336 0)
(31.0876 -0.0247445 0)
(30.9064 -0.0229782 0)
(35.5992 -0.057771 0)
(36.9436 -0.0884076 0)
(36.84 -0.0857678 0)
(35.4556 -0.0562189 0)
(30.7192 -0.0230544 0)
(30.5484 -0.0211456 0)
(35.3433 -0.0551499 0)
(36.7555 -0.0866291 0)
(36.6488 -0.0843066 0)
(35.1998 -0.054074 0)
(30.37 -0.0216459 0)
(30.2067 -0.0197304 0)
(35.0883 -0.0532119 0)
(36.5619 -0.0853531 0)
(36.4522 -0.0833486 0)
(34.9445 -0.0524843 0)
(30.035 -0.0205125 0)
(29.8776 -0.018643 0)
(34.8333 -0.0516987 0)
(36.3631 -0.0844386 0)
(36.2505 -0.0827277 0)
(34.6889 -0.0512545 0)
(29.7112 -0.0196275 0)
(29.5583 -0.0177691 0)
(34.5777 -0.0505486 0)
(36.1593 -0.0839355 0)
(36.0438 -0.0824989 0)
(34.4324 -0.0503646 0)
(29.3959 -0.0189304 0)
(29.2463 -0.017065 0)
(34.3207 -0.0497125 0)
(35.9502 -0.0838094 0)
(35.8315 -0.0826201 0)
(34.1742 -0.0497633 0)
(29.0869 -0.0183847 0)
(28.9398 -0.0164961 0)
(34.0615 -0.0491406 0)
(35.7355 -0.0840153 0)
(35.6136 -0.0830484 0)
(33.9135 -0.049404 0)
(28.7824 -0.0179616 0)
(28.6369 -0.0161189 0)
(33.7994 -0.0487881 0)
(35.5148 -0.0844579 0)
(35.3896 -0.0837156 0)
(33.6496 -0.049233 0)
(28.481 -0.0176813 0)
(28.3365 -0.0158149 0)
(33.5339 -0.0485903 0)
(35.288 -0.085156 0)
(35.1594 -0.0846202 0)
(33.3821 -0.049219 0)
(28.1814 -0.0174754 0)
(28.0375 -0.0156412 0)
(33.2644 -0.0485559 0)
(35.0547 -0.08609 0)
(34.9225 -0.0857515 6.86152e-19)
(33.1103 -0.0493494 0)
(27.8827 -0.0173688 0)
(27.7387 -0.0155641 0)
(32.9903 -0.0486569 0)
(34.8145 -0.0872692 0)
(34.6784 -0.0871151 0)
(32.8336 -0.0496139 0)
(27.5838 -0.0173455 0)
(27.4395 -0.0155483 0)
(32.711 -0.0488333 0)
(34.5669 -0.0886763 0)
(34.427 -0.0886247 0)
(32.5516 -0.0499586 0)
(27.284 -0.0173834 0)
(27.1388 -0.0156016 0)
(32.4262 -0.0492164 0)
(34.3117 -0.0901196 0)
(34.1676 -0.0902403 0)
(32.2637 -0.0504467 0)
(26.9824 -0.0174591 0)
(26.836 -0.0156821 0)
(32.1352 -0.0497387 0)
(34.0484 -0.0917536 0)
(33.8998 -0.0920586 6.86587e-19)
(31.9693 -0.0510683 0)
(26.6782 -0.0175701 0)
(26.5302 -0.015803 0)
(31.8374 -0.0503778 0)
(33.7765 -0.0936046 0)
(33.6233 -0.0940835 0)
(31.6678 -0.0518087 0)
(26.3707 -0.0177259 0)
(26.2207 -0.0159677 0)
(31.5322 -0.0511353 0)
(33.4955 -0.0956664 0)
(33.3375 -0.0963075 0)
(31.3588 -0.0526644 0)
(26.0591 -0.0179259 0)
(25.9068 -0.0161739 0)
(31.2192 -0.0520087 0)
(33.2051 -0.0979318 0)
(33.0419 -0.0987228 0)
(31.0415 -0.0536308 0)
(25.7428 -0.0181672 0)
(25.5877 -0.0164176 0)
(30.8976 -0.0529938 0)
(32.9046 -0.100392 0)
(32.7361 -0.101319 6.87014e-19)
(30.7155 -0.0547012 0)
(25.4209 -0.0184453 0)
(25.2629 -0.0166937 0)
(30.5671 -0.0540843 0)
(32.5937 -0.103034 0)
(32.4197 -0.10408 0)
(30.3803 -0.0558671 0)
(25.0931 -0.0187553 0)
(24.9318 -0.0169972 0)
(30.227 -0.05527 0)
(32.2718 -0.105841 0)
(32.0922 -0.106986 0)
(30.0353 -0.0571173 0)
(24.7586 -0.0190922 0)
(24.5937 -0.0173297 0)
(29.877 -0.0565297 0)
(31.9388 -0.108782 0)
(31.7533 -0.110008 0)
(29.6802 -0.0584291 0)
(24.417 -0.0194529 0)
(24.2485 -0.0176838 0)
(29.5167 -0.0578395 0)
(31.5942 -0.111825 0)
(31.4027 -0.113108 6.87456e-19)
(29.3148 -0.0597805 0)
(24.068 -0.0198306 0)
(23.8957 -0.01805 0)
(29.146 -0.0591736 0)
(31.2378 -0.114921 0)
(31.0404 -0.116226 0)
(28.9388 -0.0611371 0)
(23.7115 -0.0202106 0)
(23.5354 -0.0184106 0)
(28.7646 -0.0604901 0)
(30.8697 -0.118001 0)
(30.6663 -0.119281 0)
(28.5523 -0.0624513 0)
(23.3474 -0.0205721 0)
(23.1677 -0.0187423 0)
(28.3729 -0.0617343 0)
(30.4898 -0.120968 0)
(30.2807 -0.122179 0)
(28.1557 -0.0636692 0)
(22.9763 -0.0209009 0)
(22.7933 -0.019036 0)
(27.9715 -0.0628549 0)
(30.0988 -0.123723 0)
(29.8843 -0.124811 0)
(27.7497 -0.064737 0)
(22.5989 -0.0211797 0)
(22.4131 -0.0192667 0)
(27.5611 -0.0637888 0)
(29.6973 -0.126147 0)
(29.478 -0.127048 0)
(27.3354 -0.0655839 0)
(22.2161 -0.0213813 0)
(22.0283 -0.0194053 0)
(27.1431 -0.0644552 0)
(29.2867 -0.128092 0)
(29.0634 -0.128723 0)
(26.9144 -0.0661194 0)
(21.8298 -0.0214737 0)
(21.6409 -0.0194166 0)
(26.7193 -0.0647517 0)
(28.8686 -0.129368 0)
(28.6423 -0.129626 0)
(26.4888 -0.0662306 0)
(21.4419 -0.0214177 0)
(21.2534 -0.0192574 0)
(26.2924 -0.0645513 0)
(28.4453 -0.129738 0)
(28.2175 -0.129503 0)
(26.0616 -0.0657784 0)
(21.0556 -0.0211665 0)
(20.8693 -0.0188776 0)
(25.8656 -0.0637014 0)
(28.02 -0.128919 0)
(27.7926 -0.128052 0)
(25.6366 -0.0646031 0)
(20.6746 -0.0206641 0)
(20.4927 -0.0182169 0)
(25.4434 -0.0620306 0)
(27.5966 -0.126586 0)
(27.3719 -0.124935 0)
(25.2186 -0.0625283 0)
(20.3038 -0.0198454 0)
(20.1293 -0.0172078 0)
(25.0311 -0.0593485 0)
(27.1802 -0.122369 0)
(26.9613 -0.119764 0)
(24.8138 -0.0593455 0)
(19.9492 -0.0186357 0)
(19.7856 -0.0157772 0)
(24.6354 -0.0554259 0)
(26.7771 -0.115851 0)
(26.5677 -0.112102 0)
(24.4296 -0.0548154 0)
(19.6183 -0.0169451 0)
(19.4698 -0.0138401 0)
(24.2647 -0.0500093 0)
(26.3951 -0.106555 0)
(26.1995 -0.101511 0)
(24.0748 -0.048697 0)
(19.3198 -0.0146695 0)
(19.1913 -0.0113279 0)
(23.9284 -0.0428925 0)
(26.0433 -0.0940875 0)
(25.8665 -0.0876262 0)
(23.7598 -0.0407898 0)
(19.0636 -0.0117822 0)
(18.9617 -0.00823257 0)
(23.6367 -0.0336666 0)
(25.7318 -0.0779668 0)
(25.5794 -0.0698423 0)
(23.4955 -0.0305352 0)
(18.8615 -0.0080954 0)
(18.7965 -0.00430201 0)
(23.4017 -0.0225105 0)
(25.4712 -0.0578727 0)
(25.3494 -0.0480276 0)
(23.2941 -0.0186853 0)
(18.7279 -0.00396089 0)
(18.7044 0.000149637 0)
(23.2368 -0.0102881 0)
(25.2759 -0.0338021 0)
(25.189 -0.0231123 0)
(23.1678 -0.00561948 0)
(18.6708 0.000625552 0)
(18.6927 0.00493514 0)
(23.1518 0.00353418 0)
(25.155 -0.00734003 0)
(25.1069 0.00333288 0)
(23.1251 0.00823792 0)
(18.6969 0.00516015 0)
(18.7656 0.00978852 0)
(23.153 0.0179979 0)
(25.1153 0.0200124 0)
(25.1088 0.0304155 0)
(23.1706 0.022307 0)
(18.8085 0.00944153 0)
(18.9191 0.0139258 6.21984e-20)
(23.2395 0.0313466 0)
(25.1573 0.0453379 0)
(25.1895 0.0568642 0)
(23.2972 0.0364428 0)
(18.9994 0.0138685 -6.21984e-20)
(19.1565 0.0187183 6.21937e-20)
(23.4129 0.0461362 0)
(25.2843 0.0733667 0)
(25.3606 0.0840176 0)
(23.5166 0.0504761 0)
(19.2818 0.0189944 -6.21936e-20)
(19.4832 0.0236897 6.21874e-20)
(23.6801 0.0600958 0)
(25.5034 0.100609 0)
(25.6217 0.104461 0)
(23.8252 0.0597994 0)
(19.6442 0.0216259 -6.21875e-20)
(19.8679 0.0257821 6.21801e-20)
(24.0191 0.0681455 0)
(25.7958 0.118416 0)
(25.9431 0.11846 0)
(24.1911 0.0657659 0)
(20.0476 0.023019 -6.21804e-20)
(20.2844 0.0264536 6.21724e-20)
(24.4068 0.0724204 0)
(26.1412 0.129466 0)
(26.3092 0.126625 0)
(24.5967 0.0685154 0)
(20.4731 0.0232004 -6.21729e-20)
(20.7145 0.026274 6.21643e-20)
(24.8253 0.0741503 0)
(26.5235 0.135667 0)
(26.7053 0.130516 0)
(25.0255 0.0690922 0)
(20.9049 0.0226513 -6.21652e-20)
(21.1446 0.0253948 6.21563e-20)
(25.2602 0.0737136 0)
(26.9293 0.137637 0)
(27.1186 0.130431 0)
(25.4641 0.0676368 0)
(21.3308 0.0214855 -6.21575e-20)
(21.5631 0.02387 6.21484e-20)
(25.6983 0.0712551 0)
(27.3457 0.135639 0)
(27.5362 0.126774 0)
(25.8995 0.0643756 0)
(21.739 0.0197413 -6.215e-20)
(21.9589 0.0218326 6.21409e-20)
(26.1275 0.0670853 0)
(27.7608 0.130209 0)
(27.9469 0.120114 0)
(26.3205 0.0596478 0)
(22.12 0.0175756 -6.21428e-20)
(22.3235 0.0194267 6.2134e-20)
(26.5374 0.0615807 0)
(28.1638 0.121981 0)
(28.3408 0.111045 0)
(26.7177 0.053806 0)
(22.4663 0.015098 -6.21362e-20)
(22.6505 0.0167552 6.21278e-20)
(26.9198 0.0550921 0)
(28.5459 0.111547 0)
(28.71 0.100176 0)
(27.0838 0.0471779 0)
(22.7726 0.0124186 -6.21302e-20)
(22.9357 0.0140262 6.21223e-20)
(27.268 0.0480183 0)
(28.8999 0.0995291 0)
(29.0481 0.0880821 0)
(27.4125 0.0402036 0)
(23.0365 0.00989098 -6.21248e-20)
(23.1776 0.0114663 5.5907e-19)
(27.577 0.0407926 4.12964e-19)
(29.2204 0.0866259 -1.37628e-18)
(29.35 0.0754082 0)
(27.6999 0.0332913 0)
(23.2585 0.00776608 -6.212e-20)
(23.3764 0.00897264 6.21136e-20)
(27.844 0.0334848 0)
(29.5035 0.073461 -6.8808e-19)
(29.6143 0.062761 0)
(27.946 0.0266536 0)
(23.4376 0.00552704 -6.21159e-20)
(23.5333 0.00652876 6.21105e-20)
(28.0697 0.0265213 0)
(29.7485 0.0605102 0)
(29.8407 0.0505744 0)
(28.1512 0.0203321 0)
(23.5759 0.00345494 -6.21125e-20)
(23.6509 0.00440638 6.2108e-20)
(28.2554 0.0201363 0)
(29.9557 0.048327 0)
(30.0299 0.0393416 0)
(28.3175 0.0146051 0)
(23.6767 0.00165271 -6.21099e-20)
(23.7334 0.00262483 6.21062e-20)
(28.4035 0.0144766 0)
(30.1269 0.0372622 0)
(30.1844 0.0295036 0)
(28.4481 0.00968769 0)
(23.7447 0.000183998 -6.21079e-20)
(23.7861 0.0012274 6.2105e-20)
(28.5181 0.00971935 0)
(30.2653 0.0277061 0)
(30.308 0.0211249 0)
(28.5475 0.00559068 0)
(23.7857 -0.000957943 -6.21064e-20)
(23.8149 0.000174221 6.21041e-20)
(28.6038 0.00582218 0)
(30.3749 0.0196599 0)
(30.4049 0.0141293 0)
(28.6205 0.00226509 0)
(23.8052 -0.00181001 -6.21053e-20)
(23.8249 -0.000591757 6.21035e-20)
(28.6655 0.00270186 0)
(30.4601 0.0130277 0)
(30.4794 0.00847412 0)
(28.6716 -0.000313397 0)
(23.8082 -0.00240109 -6.21045e-20)
(23.8208 -0.00108727 6.21032e-20)
(28.7074 0.000366968 0)
(30.5248 0.00782261 0)
(30.5353 0.00417265 0)
(28.7051 -0.00214503 0)
(23.799 -0.0027528 -6.21041e-20)
(23.8063 -0.00134233 6.2103e-20)
(28.7335 -0.00119203 0)
(30.5728 0.00399543 0)
(30.5761 0.00118044 0)
(28.7245 -0.00326339 0)
(23.7809 -0.00288566 -6.21039e-20)
(23.7844 -0.00144392 6.21031e-20)
(28.7471 -0.00220606 0)
(30.6071 0.00114774 0)
(30.6048 -0.000717216 0)
(28.7329 -0.00382505 0)
(23.7563 -0.00286018 -6.2104e-20)
(23.7574 -0.00148381 6.21036e-20)
(28.7512 -0.00291384 0)
(30.6309 -0.000911524 0)
(30.6241 -0.00258951 0)
(28.7331 -0.00456292 0)
(23.7278 -0.00292966 -6.21044e-20)
(23.7274 -0.00165459 6.21042e-20)
(28.7481 -0.00384128 0)
(30.6463 -0.0029336 0)
(30.6361 -0.00452285 0)
(28.7274 -0.00541189 0)
(23.6968 -0.00304459 -6.2105e-20)
(23.6956 -0.00184688 6.21045e-20)
(28.7399 -0.00477944 0)
(30.6552 -0.00480709 0)
(30.6424 -0.00583507 0)
(28.7172 -0.00579927 0)
(23.6647 -0.00296675 -6.21051e-20)
(23.6624 -0.00171823 6.21044e-20)
(28.7274 -0.00484101 0)
(30.6588 -0.00554864 0)
(30.6433 -0.00669042 0)
(28.7025 -0.00607977 0)
(23.6309 -0.0029537 -6.21045e-20)
(23.63 -0.001443 6.21043e-20)
(28.7126 -0.00431745 0)
(30.659 -0.00530709 0)
(30.6426 -0.00647553 0)
(28.6874 -0.00554258 0)
(23.5992 -0.00259308 -6.2104e-20)
(23.5966 -0.00124656 6.21045e-20)
(28.6953 -0.00373076 0)
(30.656 -0.00449783 0)
(30.6369 -0.0068916 0)
(28.6674 -0.00547885 0)
(23.5638 -0.00250349 -6.21046e-20)
(23.5636 -0.00156294 6.21043e-20)
(28.6766 -0.00480833 0)
(30.6506 -0.00645957 -6.88026e-19)
(30.6321 -0.00645056 0)
(28.6497 -0.00529556 0)
(23.5328 -0.00250126 -6.21055e-20)
(23.5305 -0.00161239 6.21047e-20)
(28.6564 -0.00520354 0)
(30.6435 -0.00710953 0)
(30.6233 -0.00722235 0)
(28.6285 -0.00547462 0)
(23.4995 -0.00245219 -6.2106e-20)
(23.5 -0.00174254 6.21061e-20)
(28.6373 -0.00568079 0)
(30.6363 -0.00793337 0)
(30.6158 -0.00810496 0)
(28.6096 -0.00597339 0)
(23.4693 -0.00255593 -6.21053e-20)
(23.4688 -0.00126079 6.21055e-20)
(28.6168 -0.004541 0)
(30.6271 -0.00668806 0)
(30.6089 -0.00798469 0)
(28.5917 -0.00598294 0)
(23.4415 -0.00257831 -6.20751e-20)
(23.4421 -0.000961611 6.20131e-20)
(28.5998 -0.00363161 0)
(30.6209 -0.00506343 -6.86724e-19)
(30.5994 -0.0055058 -6.83708e-19)
(28.5713 -0.00449335 3.07386e-19)
(23.4114 -0.00212235 -5.54e-19)
(23.4176 -0.00112911 0)
(28.585 -0.00346722 4.71287e-25)
(30.6205 -0.00427733 0)
(30.607 -0.00128295 -6.67803e-19)
(28.5641 -0.00124515 9.95181e-20)
(23.3896 -0.000420794 0)
(23.4235 0.00139637 -9.67724e-19)
(28.5889 0.000896599 -1.35695e-24)
(30.6356 0.00225251 -6.65921e-19)
(30.6317 0.0103105 0)
(28.5928 0.00540405 0)
(23.4177 0.00176498 9.04775e-19)
(23.4928 0.0121523 -2.45023e-19)
(28.6636 0.0223438 -4.01901e-18)
(30.6962 0.0305923 -1.85378e-23)
(30.7513 0.0628741 5.11472e-18)
(28.7447 0.0489673 0)
(23.6384 0.0267542 -1.55981e-18)
(23.9322 0.0674866 -2.01065e-18)
(28.9449 0.097442 1.59559e-17)
(30.937 0.101336 2.91635e-23)
(31.4735 0.0683042 -3.71566e-17)
(29.7428 0.133962 1.04357e-18)
(25.0805 0.126807 0)
(24.8334 0.0644837 0)
(28.7941 0.128344 -8.81877e-19)
(30.601 0.19073 7.39113e-19)
(31.7837 0.283858 -7.49147e-18)
(32.6557 0.135422 -4.14306e-22)
(33.1614 0.0304481 1.31343e-17)
(33.3355 0.00816916 -1.91334e-19)
(33.4415 0.0184628 -2.83224e-18)
(33.6511 0.0239583 2.83648e-18)
(33.7351 0.0192737 0)
(33.8273 0.0213694 0)
(33.8689 0.020058 6.10552e-19)
(33.9044 0.021869 7.87778e-19)
(33.9122 0.0205179 -1.75605e-19)
(33.9012 0.0219 8.90331e-19)
(33.8757 0.0199866 -1.4476e-18)
(33.8082 0.0201676 7.45402e-19)
(33.7383 0.013166 0)
(33.5627 0.0120577 -1.27935e-17)
(33.4628 0.00632436 -1.48606e-17)
(33.3515 0.00702714 0)
(33.2145 0.0195297 -5.2899e-19)
(32.9793 0.011483 0)
(32.3782 -0.0274343 0)
(31.0809 -0.0698855 2.67807e-18)
(28.3572 -0.0667861 -6.93711e-18)
(24.8988 -0.0632412 0)
(17.7683 -0.0656333 -3.65322e-19)
(17.2062 -0.0371083 3.45044e-19)
(24.5426 -0.0663589 -8.5358e-18)
(28.086 -0.0827815 2.00759e-17)
(27.7882 -0.0970546 8.11786e-19)
(24.2124 -0.0982633 2.68903e-18)
(16.772 -0.0587293 -2.84053e-18)
(16.4916 -0.00966928 0)
(23.9903 -0.0037622 -1.43999e-18)
(27.5988 -0.0530637 -3.70392e-18)
(27.5152 -0.0456756 0)
(23.9002 -0.0474095 9.46263e-19)
(16.2836 -0.0245971 0)
(16.2582 -0.0037202 0)
(23.8582 -0.00133707 2.22534e-19)
(27.4714 -0.0148519 -1.20504e-18)
(27.4377 -0.0123686 1.96582e-24)
(23.8208 -0.0146501 -2.22594e-19)
(16.1435 -0.0074986 0)
(16.1395 0.0009379 0)
(23.7959 -0.00232152 0)
(27.4381 -0.00365044 -1.6857e-19)
(27.4434 0.0026778 0)
(23.8007 0.00114212 0)
(16.1454 0.000401103 0)
(16.1562 0.000953099 0)
(23.8101 0.00294515 0)
(27.4519 0.00531466 0)
(27.4614 0.00807811 0)
(23.8223 0.00422261 0)
(16.1697 0.00131736 0)
(16.1854 0.00102823 0)
(23.8372 0.00377393 0)
(27.4739 0.00784815 0)
(27.4856 0.00979276 0)
(23.8523 0.00471684 0)
(16.2021 0.00143785 0)
(16.2195 0.00119482 0)
(23.8688 0.00427934 0)
(27.4992 0.00943213 -1.68222e-19)
(27.5132 0.0109932 1.6855e-19)
(23.8862 0.00557554 0)
(16.2393 0.00171025 0)
(16.2581 0.00199015 0)
(23.9036 0.00615235 0)
(27.5276 0.0109607 0)
(27.5403 0.0118397 0)
(23.9198 0.00655374 0)
(16.2757 0.00218564 0)
(16.2971 0.00209603 0)
(23.9396 0.00628518 0)
(27.5569 0.0114658 0)
(27.572 0.0124495 0)
(23.959 0.00653833 0)
(16.3185 0.00215499 0)
(16.3391 0.00226956 0)
(23.978 0.00662515 0)
(27.5876 0.011339 0)
(27.6038 0.0119933 0)
(23.998 0.00758515 0)
(16.361 0.00269337 0)
(16.3822 0.0023983 0)
(24.0182 0.00704878 0)
(27.6205 0.011142 0)
(27.636 0.0117614 0)
(24.0379 0.00647391 0)
(16.4036 0.00217818 0)
(16.4263 0.00172029 0)
(24.0594 0.00532475 0)
(27.6537 0.0105758 0)
(27.6694 0.0109807 0)
(24.0795 0.00530972 0)
(16.4481 0.00166821 0)
(16.4699 0.00177758 0)
(24.0998 0.0054872 0)
(27.6861 0.0106867 0)
(27.7032 0.0119734 0)
(24.1209 0.00601082 0)
(16.4935 0.00203605 0)
(16.5163 0.0015765 0)
(24.1422 0.00509707 0)
(27.7208 0.0114288 0)
(27.7365 0.0124265 0)
(24.1622 0.00564014 0)
(16.5389 0.00177588 0)
(16.5628 0.00230404 0)
(24.1837 0.00677328 0)
(27.7542 0.0127067 0)
(27.7716 0.0139131 0)
(24.2053 0.00787556 0)
(16.5869 0.00280234 0)
(16.6103 0.00257442 0)
(24.227 0.0073957 0)
(27.7899 0.0132157 0)
(27.8066 0.0135328 0)
(24.2479 0.00713346 0)
(16.6334 0.002459 0)
(16.6578 0.00196587 0)
(24.2703 0.00609246 0)
(27.8249 0.0125763 0)
(27.843 0.0138197 0)
(24.2929 0.00729387 0)
(16.6831 0.00246479 0)
(16.7072 0.00262075 0)
(24.3154 0.00752407 0)
(27.862 0.0126981 0)
(27.8795 0.0131872 0)
(24.3371 0.00765162 0)
(16.731 0.00269165 -1.44083e-19)
(16.7562 0.00258159 1.43941e-19)
(24.3606 0.00737489 0)
(27.8994 0.0127561 0)
(27.9179 0.0136804 0)
(24.3836 0.00638567 0)
(16.7814 0.00202747 0)
(16.8065 0.00182962 0)
(24.4067 0.00581049 0)
(27.9373 0.012669 0)
(27.9558 0.0133839 0)
(24.4297 0.00597721 0)
(16.8322 0.00184776 0)
(16.8578 0.00287984 0)
(24.4531 0.00836048 0)
(27.9756 0.0139296 0)
(27.9953 0.0152271 0)
(24.4764 0.00932466 0)
(16.883 0.00330313 0)
(16.9088 0.00275466 0)
(24.5007 0.00790207 0)
(28.0164 0.0140902 0)
(28.0358 0.0139242 0)
(24.5244 0.00656974 0)
(16.9342 0.00210994 0)
(16.9605 0.00216659 0)
(24.549 0.00690004 0)
(28.0567 0.0135619 0)
(28.0774 0.0148872 0)
(24.5734 0.00916473 0)
(16.9864 0.00318673 0)
(17.0122 0.00299627 0)
(24.5987 0.00869876 0)
(28.0998 0.0139242 0)
(28.1213 0.0144135 0)
(24.6237 0.00803483 0)
(17.0377 0.00268824 0)
(17.0635 0.0020852 0)
(24.6495 0.00667662 0)
(28.1439 0.0135776 0)
(28.1658 0.014366 0)
(24.6751 0.00650767 0)
(17.0892 0.00194471 0)
(17.1156 0.00176565 0)
(24.7016 0.00601403 0)
(28.1898 0.0135665 0)
(28.2129 0.0145218 0)
(24.7276 0.00605408 0)
(17.1409 0.00169546 0)
(17.1664 0.0015276 0)
(24.7542 0.00591652 0)
(28.2374 0.0143228 0)
(28.2617 0.0154516 0)
(24.7812 0.00665287 0)
(17.192 0.00177581 0)
(17.2174 0.00222276 0)
(24.8088 0.00766221 0)
(28.2876 0.0153495 0)
(28.3134 0.016539 0)
(24.8364 0.00905216 0)
(17.2417 0.00273093 0)
(17.2667 0.00279786 0)
(24.8657 0.00955377 0)
(28.3415 0.0165534 0)
(28.3697 0.0175281 0)
(24.8956 0.0097604 0)
(17.2912 0.00280655 0)
(17.3152 0.00227107 0)
(24.9264 0.00845377 0)
(28.3998 0.0166741 0)
(28.4296 0.0168272 0)
(24.9574 0.00658447 0)
(17.3384 0.00133808 0)
(17.362 0.000667851 0)
(24.9898 0.00553006 0)
(28.4616 0.0162688 0)
(28.4941 0.0174458 0)
(25.0226 0.00593058 0)
(17.3847 0.00068346 0)
(17.4067 0.000640832 0)
(25.0564 0.00607427 0)
(28.5288 0.0172668 0)
(28.5635 0.0185468 0)
(25.0905 0.00711126 0)
(17.4273 0.00088938 0)
(17.448 0.00125347 0)
(25.1267 0.00846813 0)
(28.6012 0.0191676 0)
(28.6403 0.0210221 0)
(25.1642 0.00977421 0)
(17.468 0.00165733 0)
(17.4867 0.000874329 0)
(25.2033 0.00828705 0)
(28.682 0.0205474 0)
(28.7244 0.021198 0)
(25.2439 0.00654435 0)
(17.5055 -0.000270587 0)
(17.5247 -0.000768919 0)
(25.2871 0.00604759 0)
(28.7698 0.0213369 0)
(28.817 0.0236555 0)
(25.3321 0.00909817 0)
(17.5441 0.000280179 0)
(17.5631 0.000695503 0)
(25.38 0.0105804 0)
(28.8685 0.0241797 0)
(28.9218 0.0257182 0)
(25.4306 0.0105146 0)
(17.5823 0.000515501 0)
(17.6035 -0.00067514 0)
(25.4852 0.00861515 0)
(28.979 0.025724 0)
(29.0385 0.0280088 0)
(25.5432 0.00974922 0)
(17.6268 -0.000512694 0)
(17.651 -0.000720877 0)
(25.6046 0.00966203 0)
(29.1023 0.0287268 0)
(29.1688 0.0308451 0)
(25.6699 0.00958353 0)
(17.6775 -0.00119679 0)
(17.7078 -0.00149458 0)
(25.7408 0.0104012 0)
(29.2401 0.0325683 0)
(29.3153 0.037138 0)
(25.8169 0.0153789 0)
(17.7427 0.000193427 0)
(17.7834 0.00170201 0)
(25.8995 0.0193669 0)
(29.3967 0.0407176 0)
(29.4823 0.045609 0)
(25.9883 0.0212507 0)
(17.8302 0.00224659 0)
(17.8867 0.00205576 0)
(26.0858 0.0217719 0)
(29.5737 0.0497715 0)
(29.6698 0.0560567 0)
(26.1909 0.0237839 0)
(17.9537 0.00270573 0)
(18.0339 0.00338965 0)
(26.3053 0.0255574 0)
(29.772 0.0614347 0)
(29.8797 0.0680869 0)
(26.4292 0.0274105 0)
(18.1299 0.0038722 0)
(18.2451 0.00667099 0)
(26.5649 0.0347433 0)
(29.9943 0.0757179 1.67912e-19)
(30.1179 0.0876915 -1.68234e-19)
(26.7128 0.0505198 0)
(18.3788 0.0136939 0)
(18.5344 0.0153755 0)
(26.8756 0.0533385 0)
(30.2521 0.0960868 0)
(30.3922 0.104197 0)
(27.0543 0.0496639 0)
(18.7186 0.0134794 0)
(18.9383 0.0169057 0)
(27.2503 0.0558868 0)
(30.5398 0.116353 0)
(30.699 0.137328 0)
(27.4648 0.0822179 0)
(19.1919 0.0304984 0)
(19.4902 0.0427888 0)
(27.7085 0.102938 0)
(30.8814 0.158947 0)
(31.0903 0.181999 1.68098e-19)
(27.9965 0.105683 0)
(19.8601 0.0497309 0)
(20.3248 0.0758118 0)
(28.3282 0.131731 0)
(31.3206 0.232607 -1.68617e-19)
(31.5502 0.346846 -2.70885e-18)
(28.6683 0.25282 2.29753e-23)
(20.7878 0.175718 2.29245e-18)
(21.2241 0.245446 -9.11792e-18)
(28.9939 0.349039 -5.08623e-23)
(31.758 0.464027 2.53662e-18)
(31.9241 0.627366 -2.52211e-18)
(29.2619 0.514131 -7.02441e-18)
(21.6425 0.3812 9.03214e-18)
(22.0066 0.543058 1.4254e-19)
(29.4106 0.695301 -6.99979e-18)
(32.0318 0.797879 5.33301e-18)
(32.116 0.96522 -5.4635e-18)
(29.6279 0.848901 0)
(22.3654 0.657192 0)
(22.6971 0.799162 1.80041e-17)
(29.7515 1.01049 -1.37467e-17)
(32.1826 1.12361 -5.09215e-18)
(32.2273 1.27211 0)
(29.8892 1.15245 -1.36029e-17)
(23.0699 0.921142 1.78745e-17)
(23.4672 1.04757 1.77452e-17)
(30.0269 1.29688 -4.21953e-19)
(32.2765 1.42449 0)
(32.2777 1.58601 0)
(30.1204 1.47299 4.22577e-19)
(23.8258 1.20523 -5.53872e-19)
(24.1379 1.31799 -1.63619e-17)
(30.2056 1.60588 0)
(32.2645 1.71834 0)
(32.2554 1.82257 -1.02943e-17)
(30.2989 1.70404 1.35185e-17)
(24.477 1.40583 -1.82891e-17)
(24.8389 1.52172 0)
(30.3869 1.82215 1.65817e-18)
(32.2525 1.92771 0)
(32.2272 2.04697 -9.74443e-18)
(30.4517 1.93457 -1.64226e-18)
(25.204 1.62862 -4.44118e-18)
(25.3848 1.71448 2.04803e-17)
(30.4979 2.10333 -3.46734e-17)
(32.1618 2.21462 2.41363e-17)
(31.9621 2.10653 2.98801e-17)
(30.3773 1.92227 -5.54786e-17)
(25.38 1.56353 -2.03393e-17)
(20.2108 1.47464 -3.16105e-17)
(27.9161 1.64787 -3.12623e-18)
(30.911 1.51969 -1.59527e-17)
(31.7216 2.21853 -3.52859e-18)
(29.112 1.98558 4.69817e-18)
(21.4775 1.53115 -3.10522e-18)
(21.5103 1.67999 1.39575e-18)
(29.1879 2.23735 -2.11698e-18)
(31.7276 2.48332 -1.61067e-18)
(31.6707 2.64782 5.25971e-17)
(29.2355 2.45022 6.77375e-22)
(21.8312 1.82936 -4.46495e-17)
(22.2262 2.00479 3.34531e-19)
(29.2427 2.63486 6.48968e-17)
(31.615 2.78071 -5.97745e-22)
(31.6328 2.84903 2.46361e-17)
(29.4152 2.61797 -3.18253e-17)
(22.755 2.06548 4.18051e-17)
(23.3216 2.22557 -3.18518e-19)
(29.5231 2.78781 1.20813e-19)
(31.6156 2.97262 2.33329e-17)
(31.6301 3.07483 -2.38802e-17)
(29.7018 2.85206 3.02619e-17)
(23.8721 2.34814 -3.09616e-19)
(24.3861 2.491 6.17583e-19)
(29.7739 2.98882 2.82926e-17)
(31.5665 3.17712 -2.36184e-17)
(31.553 3.27952 -1.80442e-17)
(29.8988 3.11927 -2.72409e-17)
(24.8781 2.64339 4.04935e-17)
(25.3474 2.74914 -2.3715e-18)
(29.99 3.21084 0)
(31.5164 3.36835 -2.6261e-18)
(31.5056 3.52908 0)
(30.0619 3.33679 2.41232e-17)
(25.7045 2.85061 -6.88713e-17)
(25.9122 2.70925 5.08021e-17)
(30.0954 3.04628 0)
(31.3155 3.40894 -1.26616e-16)
(30.474 2.90381 1.06675e-17)
(28.14 2.96219 -3.14122e-18)
(22.2736 2.7294 -3.76578e-18)
(23.6418 2.73605 0)
(29.2694 3.19945 -2.30917e-18)
(31.1255 3.55613 -6.95406e-18)
(31.0808 3.80964 0)
(29.3343 3.52439 -3.20576e-17)
(23.9907 2.97407 4.23605e-17)
(24.477 3.17809 6.33464e-19)
(29.5017 3.81408 -9.62169e-19)
(31.1015 3.97352 0)
(31.1039 4.08382 4.69742e-22)
(29.5993 3.90406 2.80046e-17)
(24.8698 3.34472 -3.89121e-17)
(25.2698 3.47495 3.45934e-17)
(29.6652 4.02091 3.49211e-18)
(31.0433 4.18501 0)
(30.9912 4.30308 1.98579e-17)
(29.7512 4.13575 -1.66725e-18)
(25.6695 3.60302 -2.24929e-18)
(25.8836 3.7472 4.1084e-18)
(29.7306 4.33374 0)
(30.8495 4.45113 -3.21884e-17)
(30.6329 4.44368 -3.70429e-18)
(29.5997 4.37265 2.283e-18)
(25.9736 3.7238 4.60489e-17)
(22.9101 3.15846 0)
(28.1472 3.95809 -3.07659e-18)
(29.9683 4.26753 7.91805e-18)
(30.4128 4.61101 3.78792e-17)
(28.8476 4.42247 -7.4511e-17)
(24.0384 3.76944 9.69611e-17)
(24.3246 3.94592 -4.3672e-17)
(28.9237 4.59617 -3.19143e-17)
(30.3004 4.81233 1.54673e-18)
(30.1581 4.9836 -2.38993e-17)
(28.9044 4.8388 -3.15714e-17)
(24.6924 4.2018 8.41115e-17)
(25.0555 4.35103 0)
(28.8694 4.8909 3.72986e-18)
(30.0118 5.09077 0)
(29.8803 5.28178 0)
(28.8658 5.05846 9.54634e-18)
(25.4111 4.5272 0)
(25.565 4.58383 0)
(28.7673 4.99731 -1.9793e-17)
(29.5771 5.3001 0)
(28.8971 4.96421 -2.50625e-17)
(27.3112 4.96959 2.59516e-17)
(22.8936 4.57244 0)
(24.2355 4.64911 1.0097e-16)
(28.1007 5.19761 2.94788e-19)
(29.2353 5.49294 -1.7872e-18)
(29.1031 5.83555 -2.44452e-17)
(28.0294 5.77428 3.24015e-17)
(24.5245 5.11207 -8.72593e-17)
(24.8328 5.21808 8.10311e-17)
(28.0029 5.73147 -5.99976e-17)
(28.9518 5.92398 -2.18115e-17)
(28.7213 6.15173 -3.46709e-17)
(27.9152 5.97973 8.85614e-17)
(24.9979 5.4397 -1.52821e-16)
(25.021 5.47553 2.11315e-16)
(27.6947 5.892 9.80511e-17)
(28.3522 6.149 1.04495e-20)
(27.7598 5.91243 -7.07607e-19)
(26.4948 5.85011 -8.2755e-19)
(22.7388 5.44163 -1.00106e-18)
(23.7199 5.77315 1.02226e-16)
(26.9767 6.32561 6.00471e-19)
(27.8329 6.53657 0)
(27.4731 6.79827 9.76665e-17)
(26.6806 6.69978 -6.65112e-17)
(23.7919 6.11225 -2.45696e-18)
(23.9679 6.39453 2.48701e-18)
(26.4784 6.8503 0)
(27.1411 7.02459 -5.61251e-17)
(26.6258 7.12477 -3.37876e-17)
(26.108 6.96791 0)
(23.8856 6.59446 3.31396e-18)
(21.9937 6.52083 -1.39511e-16)
(25.0661 6.79774 1.10524e-16)
(26.061 6.91175 0)
(25.8688 7.51509 -5.78945e-17)
(25.2912 7.25786 7.73523e-17)
(22.8568 6.95545 2.02136e-19)
(22.7867 7.36864 8.85136e-17)
(24.79 7.70908 0)
(25.2959 7.77817 0)
(24.6788 8.02042 0)
(24.2538 8.05595 -5.40329e-17)
(22.5569 7.82498 1.5565e-16)
(22.0913 8.01315 0)
(23.5071 8.21004 0)
(23.8116 8.07952 -8.03631e-18)
(22.8302 8.43697 1.09658e-17)
(22.3446 8.29919 0)
(20.3944 7.97631 -1.3207e-16)
(20.3173 8.61809 -1.20715e-17)
(21.7449 8.78427 -1.32773e-16)
(22.1168 8.65314 1.92871e-21)
(20.8596 8.5944 -4.65544e-18)
(20.6436 8.90488 5.91618e-18)
(19.4803 8.80361 1.87856e-17)
(17.7556 8.56454 -4.52537e-18)
(19.1296 8.98593 -1.46774e-17)
(19.4427 9.16607 1.79578e-17)
(18.3511 8.86923 -8.52748e-17)
(17.9291 9.22455 1.2262e-16)
(16.964 9.43605 -1.24234e-17)
(15.3077 9.40192 2.46768e-16)
(16.0003 8.82368 -1.52637e-16)
(16.3279 8.12378 0)
(13.3828 8.18956 -7.22836e-17)
(12.9504 8.68124 -1.20302e-17)
(12.1193 9.13116 0)
(9.30939 7.72762 0)
(9.92394 6.85732 1.78637e-17)
(10.7041 5.8794 -9.03027e-18)
(7.33272 3.94188 -1.32505e-16)
(5.87093 4.90565 3.63398e-16)
(4.9637 5.15608 -2.44755e-16)
(1.89475 0.808922 1.99192e-16)
(3.16347 -0.218996 -2.70663e-16)
(5.08231 -1.14586 1.83604e-16)
(3.77002 -9.54409 0)
(1.55801 -9.57208 -4.39431e-17)
(-0.182526 -9.83214 1.27284e-16)
(3.37773 -18.2989 -9.60478e-19)
(5.06823 -17.3016 4.64751e-17)
(6.51357 -16.5444 -3.20329e-17)