/*--------------------------------*- C++ -*----------------------------------*\
| =========                 |                                                 |
| \\      /  F ield         | OpenFOAM: The Open Source CFD Toolbox           |
|  \\    /   O peration     | Version:  v2006                                 |
|   \\  /    A nd           | Website:  www.openfoam.com                      |
|    \\/     M anipulation  |                                                 |
\*---------------------------------------------------------------------------*/
FoamFile
{
    version     2.0;
    format      ascii;
    class       volScalarField;
    location    "0.006";
    object      Ma;
}
// * * * * * * * * * * * * * * * * * * * * * * * * * * * * * * * * * * * * * //

dimensions      [0 0 0 0 0 0 0];


internalField   nonuniform List<scalar> 
31566
(
0.0326516
0.0326504
0.0326252
0.0326226
0.0326241
0.032629
0.0326409
0.0326525
0.0326496
0.0326426
0.0326296
0.0326086
0.0325805
0.0325453
0.0325024
0.0324515
0.0323925
0.032326
0.0322527
0.0321735
0.0320891
0.0320004
0.031908
0.0318124
0.0317136
0.0316118
0.0315065
0.0313973
0.031284
0.0311679
0.0310504
0.0309328
0.0308163
0.0307022
0.0305916
0.0304855
0.0303846
0.0302894
0.0301999
0.0301146
0.0300309
0.029945
0.0298535
0.0297543
0.0296453
0.0295233
0.029384
0.0292223
0.0290333
0.0288163
0.0285746
0.0283121
0.0280316
0.027736
0.0274294
0.0271166
0.0268014
0.0264872
0.0261771
0.0258731
0.0255763
0.0252862
0.0250007
0.0247178
0.024437
0.0241592
0.0238856
0.0236175
0.0233541
0.0230956
0.0228412
0.0225909
0.0223447
0.022103
0.0218657
0.021632
0.0214011
0.0211725
0.020945
0.0207178
0.0204903
0.0202628
0.0200357
0.01981
0.0195866
0.0193674
0.0191559
0.018957
0.0187741
0.0186076
0.0184583
0.0183293
0.0182234
0.0181422
0.018085
0.0180482
0.0180258
0.0180137
0.0180107
0.0180129
0.0180148
0.0180343
0.0178687
0.0178687
0.0177784
0.0176794
0.0175167
0.0172537
0.0169864
0.0154668
0.0140505
0.0167771
0.0172987
0.0173512
0.0165691
0.0126977
0.0111237
0.01633
0.0174367
0.0175133
0.0160322
0.00959648
0.00819571
0.0156701
0.0175006
0.0173887
0.01525
0.00709031
0.00621243
0.014803
0.0171984
0.0169797
0.0143296
0.00547285
0.00477367
0.0139075
0.0167718
0.0166031
0.0135371
0.00410309
0.00346982
0.0132153
0.0164728
0.0163746
0.0129429
0.00289912
0.00242053
0.0127198
0.0163068
0.0162612
0.0125208
0.0020373
0.00177279
0.0123304
0.0162302
0.0161987
0.0121454
0.00160583
0.00152627
0.0119913
0.0161664
0.0161303
0.0118734
0.00150519
0.00154324
0.0118004
0.0161
0.0160756
0.0117604
0.00161
0.0017021
0.0117529
0.0160669
0.0160673
0.0117626
0.00180286
0.00191764
0.0117891
0.0160822
0.0161016
0.0118222
0.00203729
0.00217137
0.0118686
0.0161316
0.0161608
0.011923
0.00230928
0.00246338
0.0119941
0.0162003
0.0162374
0.0120734
0.00261429
0.00277943
0.012171
0.016289
0.0163382
0.0122703
0.00293445
0.00310358
0.012385
0.0164051
0.0164688
0.0124976
0.00326389
0.00343961
0.0126254
0.0165518
0.016631
0.0127508
0.00360562
0.00378642
0.0128919
0.0167302
0.0168258
0.0130298
0.00395649
0.00414013
0.0131826
0.016941
0.0170523
0.0133311
0.0043136
0.00450082
0.0134929
0.0171818
0.0173057
0.0136493
0.00467923
0.00487011
0.0138174
0.0174451
0.0175776
0.0139792
0.00505278
0.00524739
0.0141519
0.0177236
0.0178621
0.0143177
0.00543459
0.00563362
0.0144936
0.0180126
0.0181542
0.0146615
0.00582463
0.00602692
0.0148383
0.0183064
0.018448
0.015007
0.0062251
0.00643329
0.0151836
0.0185994
0.0187386
0.0153509
0.00663099
0.00683691
0.0155249
0.0188872
0.0190228
0.0156886
0.00703192
0.00723274
0.0158568
0.0191653
0.0192937
0.0160121
0.00741755
0.00760967
0.0161731
0.0194299
0.0195551
0.0163245
0.00779322
0.00798348
0.0164827
0.0196899
0.019812
0.0166278
0.00815652
0.00833017
0.0167759
0.0199403
0.0200557
0.0169097
0.00848921
0.00865094
0.0170474
0.0201774
0.0202868
0.0171716
0.00880045
0.00895004
0.0172991
0.0204021
0.0205046
0.0174112
0.00908296
0.00921137
0.0175231
0.0206099
0.0207011
0.0176189
0.00932895
0.0094437
0.0177134
0.0207929
0.0208672
0.0177884
0.00954176
0.00963411
0.0178607
0.0209412
0.0209973
0.0179128
0.00970793
0.00977527
0.0179584
0.0210494
0.0210826
0.017982
0.00982196
0.00986095
0.0179959
0.0211079
0.0211096
0.017982
0.00987408
0.00988184
0.0179578
0.0211016
0.0210667
0.0179033
0.00986273
0.00984005
0.017836
0.0210183
0.0209439
0.0177394
0.0097929
0.00975273
0.0176364
0.0208613
0.0207532
0.0175051
0.00969001
0.00964043
0.0173684
0.0206364
0.0204923
0.0172021
0.00956736
0.0095154
0.017034
0.0203391
0.020152
0.0168296
0.00943509
0.00937914
0.0166239
0.0199527
0.0197175
0.0163798
0.00929621
0.00925158
0.0161497
0.0194796
0.0192046
0.0158783
0.00918005
0.00915454
0.015638
0.0189379
0.0186512
0.0153793
0.00912035
0.00913266
0.0151677
0.0183899
0.0181195
0.0149561
0.00913642
0.00917584
0.0147958
0.0178868
0.0176568
0.0146456
0.00920265
0.00926264
0.0145494
0.0174784
0.0173089
0.0144612
0.00930414
0.00938009
0.014432
0.0172019
0.0170975
0.0144009
0.00943184
0.00952008
0.0144312
0.0170648
0.0170202
0.0144498
0.00957909
0.00967374
0.0145273
0.0170537
0.0170614
0.0145857
0.0097384
0.00983479
0.0146967
0.017146
0.0171939
0.0147844
0.00990108
0.0099957
0.0149176
0.0173157
0.0173954
0.0150258
0.0100597
0.0101506
0.0151742
0.0175423
0.0176472
0.0152976
0.010211
0.0102998
0.0154596
0.0178149
0.0179427
0.0155982
0.0103596
0.0104506
0.015776
0.0181317
0.0182843
0.0159336
0.0105142
0.0106115
0.0161305
0.0184968
0.0186765
0.0163101
0.010683
0.0107927
0.0165313
0.0189173
0.0191281
0.0167371
0.0108773
0.0110002
0.0169827
0.0193969
0.0196384
0.0172143
0.0110982
0.011236
0.0174855
0.0199364
0.020209
0.0177428
0.011349
0.0115025
0.0180388
0.0205361
0.0208391
0.0183205
0.0116315
0.0118002
0.0186391
0.0211943
0.0215251
0.0189419
0.0119439
0.0121251
0.0192787
0.0219054
0.0222613
0.0195985
0.0122816
0.012472
0.0199493
0.0226636
0.0230417
0.0202833
0.0126396
0.0128372
0.0206463
0.0234646
0.0238636
0.0209952
0.0130146
0.0132174
0.0213702
0.0243055
0.024723
0.0217326
0.0134002
0.0136031
0.0221151
0.025178
0.0256034
0.022481
0.013782
0.0139711
0.0228547
0.0260546
0.0264642
0.0232008
0.0141259
0.0142774
0.0235388
0.0268837
0.027251
0.0238392
0.0143845
0.014484
0.0241233
0.0276203
0.027939
0.0243726
0.0145426
0.014599
0.0246111
0.028266
0.0285541
0.0248269
0.014625
0.0146613
0.0250425
0.0288623
0.0291434
0.0252473
0.0146805
0.014718
0.0254607
0.0294533
0.0297409
0.0256685
0.0147454
0.0147916
0.0258851
0.0300578
0.0303484
0.0260919
0.0148232
0.0148632
0.0262984
0.0306606
0.0309369
0.0264855
0.0148803
0.0149003
0.0266651
0.0312286
0.0314805
0.0268223
0.0148973
0.0148982
0.0269722
0.0317482
0.031977
0.0271021
0.0148792
0.0148663
0.0272277
0.0322249
0.0324344
0.0273359
0.0148395
0.0148167
0.0274393
0.0326642
0.0328494
0.0275215
0.014772
0.0147254
0.0275917
0.0330503
0.0332005
0.0276391
0.0146616
0.0145982
0.0276748
0.0333673
0.0334788
0.0276879
0.0145161
0.0144278
0.0276852
0.0336053
0.0336713
0.027658
0.0143195
0.0142049
0.0276148
0.0337538
0.0337749
0.0275494
0.0140721
0.0139347
0.0274701
0.0338168
0.0337977
0.0273716
0.0137813
0.0136241
0.027261
0.0338026
0.0337522
0.0271312
0.0134575
0.0132855
0.0269911
0.0337221
0.0336383
0.0268312
0.0130947
0.0128809
0.0266501
0.0335552
0.0334273
0.0264433
0.0126467
0.0123914
0.0262098
0.033281
0.0330978
0.0259372
0.0121054
0.011785
0.0256252
0.0328761
0.0326086
0.0252689
0.0114296
0.011055
0.0248889
0.0323049
0.0319687
0.0244963
0.0106937
0.010401
0.024132
0.0316177
0.0312698
0.0237824
0.0103032
0.0103944
0.0235502
0.0309504
0.0306612
0.0234995
0.0107021
0.0111791
0.0236281
0.0305254
0.0305339
0.0240354
0.0119761
0.0129041
0.024623
0.0307127
0.0311975
0.0256406
0.0143257
0.0158387
0.0268619
0.0319014
0.0330571
0.0286193
0.0179292
0.0199773
0.0305276
0.0343965
0.0361574
0.0329164
0.0224752
0.0245113
0.0351309
0.037839
0.0396185
0.0375681
0.0267745
0.0280057
0.0393545
0.0409062
0.0420379
0.0412318
0.0297151
0.0303475
0.0424111
0.0428051
0.0432605
0.0435357
0.0317837
0.0321293
0.0440706
0.0435418
0.0433593
0.0443387
0.0331994
0.0333315
0.0441667
0.0431411
0.0423304
0.0436248
0.0335414
0.0332101
0.0428401
0.0415994
0.0404132
0.0418579
0.032686
0.0320153
0.0408408
0.0394712
0.0381999
0.039763
0.0311233
0.0303409
0.0387885
0.0373084
0.0361294
0.0377953
0.0294299
0.0287043
0.036939
0.0353221
0.0342821
0.0361094
0.0279808
0.027431
0.0353715
0.0335205
0.0326227
0.0346942
0.0270968
0.0268034
0.0340662
0.0318956
0.0310027
0.0334208
0.0267285
0.0267259
0.032966
0.0304092
0.0295128
0.0323433
0.0267392
0.0268487
0.0320173
0.0290339
0.0282753
0.0315532
0.0269223
0.0270424
0.0314033
0.0279719
0.0273816
0.0311486
0.0271448
0.0272381
0.031183
0.0272417
0.0267816
0.0311009
0.0273015
0.0272725
0.0312097
0.026736
0.026359
0.0312002
0.0271552
0.026902
0.0312556
0.0263096
0.025914
0.0311919
0.0265897
0.0262127
0.0310706
0.0257461
0.0252558
0.0308579
0.0258668
0.0254557
0.0305237
0.0249707
0.0243772
0.0301709
0.0250968
0.0245917
0.029658
0.0239848
0.0232423
0.0291709
0.0241263
0.023477
0.0284951
0.0227246
0.0219052
0.0279467
0.0229363
0.0221528
0.0271281
0.0212501
0.0203222
0.0265864
0.0215931
0.0208763
0.0258401
0.0198107
0.0186008
0.0251154
0.0201023
0.0197505
0.0246612
0.0185243
0.0164147
0.0232601
0.018262
0.0176316
0.0225414
0.015477
0.0132722
0.0209816
0.0161925
0.00997963
0.0220727
0.052029
0.0714434
0.0815818
0.117178
0.127858
0.149441
0.155925
0.174025
0.180893
0.198984
0.206559
0.225745
0.234482
0.255152
0.26532
0.287898
0.299675
0.324295
0.337782
0.364537
0.379845
0.408858
0.426177
0.457611
0.477142
0.510868
0.532499
0.568904
0.59285
0.631466
0.657583
0.714848
0.755848
1.07171
1.09405
1.09081
1.08854
1.08768
1.0875
1.0874
1.08746
1.0877
1.08833
1.08949
1.09065
1.09196
1.09338
1.09443
1.09078
0.90371
0.597518
0.296289
0.205871
0.162389
0.0957579
0.0925331
0.159682
0.20369
0.201408
0.156394
0.0882052
0.0833234
0.153016
0.199304
0.198037
0.150374
0.0797024
0.0772882
0.148554
0.19934
0.203858
0.147731
0.0761672
0.0756571
0.147893
0.211259
0.220206
0.149308
0.0758838
0.0765516
0.151608
0.230284
0.240888
0.154899
0.0775551
0.0788169
0.159081
0.251687
0.26267
0.164241
0.0805965
0.0831709
0.170474
0.273999
0.285548
0.17791
0.0869258
0.091987
0.186282
0.296826
0.30798
0.195477
0.0983437
0.10584
0.205205
0.318692
0.329207
0.215436
0.114391
0.123733
0.225832
0.339282
0.349163
0.23657
0.133783
0.144259
0.247297
0.358644
0.368001
0.258232
0.155061
0.165898
0.269048
0.377059
0.386027
0.279898
0.176735
0.187237
0.290364
0.394622
0.403164
0.300795
0.197655
0.208392
0.311342
0.411784
0.420869
0.322378
0.219725
0.231011
0.333461
0.430091
0.439296
0.344468
0.242118
0.253049
0.355303
0.448423
0.45786
0.366349
0.264009
0.274994
0.377324
0.467327
0.477228
0.388592
0.286089
0.297319
0.399926
0.487219
0.4978
0.411681
0.308775
0.32055
0.423649
0.508592
0.520156
0.436242
0.332684
0.345364
0.449209
0.532169
0.545198
0.463072
0.358575
0.372687
0.47754
0.558887
0.574024
0.493334
0.387629
0.404069
0.510134
0.59018
0.608458
0.528848
0.42184
0.442108
0.54942
0.628235
0.651275
0.573443
0.465306
0.492395
0.599663
0.676164
0.704035
0.629146
0.520937
0.549877
0.657976
0.731784
0.759888
0.686511
0.576193
0.599461
0.712098
0.785694
0.811213
0.736582
0.619761
0.637328
0.758185
0.834487
0.861741
0.782145
0.655961
0.683772
0.812188
0.891994
0.863259
0.79408
0.693902
0.721972
0.832461
0.900022
0.919038
0.851545
0.731794
0.736904
0.863832
0.931042
0.945526
0.879441
0.746562
0.764446
0.900929
0.966101
0.992495
0.926992
0.785826
0.80593
0.949949
1.01607
1.0444
0.977073
0.828965
0.858212
1.00672
1.07319
1.05111
0.987129
0.870935
0.906695
1.0243
1.08442
1.1078
1.04987
0.926781
0.945327
1.07609
1.13355
1.15945
1.10225
0.96737
0.990912
1.13667
1.19397
1.23267
1.17852
1.03166
1.06147
1.17359
1.22849
1.27747
1.22785
1.11794
1.16654
1.27879
1.32694
1.37726
1.33589
1.21763
1.25745
1.34425
1.38954
1.45519
1.42881
1.34766
1.40721
1.48553
1.51127
1.4636
1.4431
1.38878
1.19641
1.25068
1.33514
0.777218
0.674681
0.537491
0.522885
0.480563
0.424993
0.154884
0.15546
0.136242
0.242146
0.256548
0.253802
0.25582
0.250101
0.214692
0.230052
0.26813
0.277269
0.28419
0.274144
0.240513
0.250848
0.292821
0.300934
0.308154
0.296643
0.254099
0.262674
0.299003
0.311444
0.325758
0.315955
0.271951
0.274317
0.317621
0.329782
0.33146
0.318139
0.280759
0.2893
0.33379
0.344217
0.346404
0.333936
0.290836
0.295667
0.33294
0.34676
0.358609
0.347851
0.303482
0.304174
0.347311
0.360008
0.35964
0.345637
0.308035
0.3154
0.359828
0.370712
0.371598
0.358881
0.316302
0.319587
0.356899
0.370997
0.381977
0.371028
0.327025
0.32773
0.369985
0.382631
0.381697
0.367542
0.330605
0.337829
0.381523
0.392446
0.392709
0.379935
0.338081
0.340081
0.377314
0.39166
0.40233
0.391401
0.347608
0.347862
0.389747
0.402516
0.401457
0.387237
0.350172
0.358105
0.401449
0.412139
0.412016
0.399423
0.357682
0.360356
0.396123
0.410468
0.421504
0.410156
0.370622
0.368371
0.404556
0.418519
0.428168
0.416925
0.374151
0.373677
0.415926
0.428771
0.427869
0.413797
0.376829
0.383497
0.427107
0.438175
0.438236
0.425495
0.382902
0.38474
0.422211
0.436447
0.446531
0.435642
0.391559
0.391565
0.43419
0.446878
0.44565
0.431474
0.395131
0.405675
0.445306
0.45663
0.453179
0.438943
0.402853
0.408821
0.451493
0.462721
0.463105
0.450287
0.40824
0.411849
0.447529
0.461557
0.472497
0.461125
0.421235
0.419135
0.456424
0.470468
0.481062
0.470325
0.427221
0.425783
0.468016
0.480666
0.478037
0.463092
0.424416
0.430899
0.476457
0.488021
0.488695
0.475646
0.431672
0.436406
0.472853
0.487056
0.49772
0.486969
0.44714
0.444773
0.480726
0.494673
0.505528
0.494222
0.4549
0.453191
0.489203
0.502787
0.512273
0.502089
0.459952
0.455974
0.498769
0.511398
0.509677
0.49484
0.456096
0.468313
0.509996
0.521672
0.519242
0.505591
0.469092
0.476176
0.518772
0.528893
0.527474
0.514693
0.47184
0.471844
0.51054
0.525658
0.538463
0.526806
0.485684
0.486741
0.521856
0.535937
0.545804
0.534696
0.495539
0.489793
0.527105
0.541365
0.550419
0.539074
0.495238
0.492841
0.537301
0.550704
0.549319
0.534673
0.496683
0.509108
0.549812
0.560975
0.557536
0.543202
0.507043
0.515603
0.556358
0.567948
0.56433
0.549471
0.510365
0.517798
0.56313
0.574369
0.574679
0.561746
0.516804
0.518172
0.557534
0.572207
0.582877
0.571709
0.529378
0.526783
0.564627
0.579179
0.590493
0.578787
0.536894
0.533792
0.572777
0.58731
0.597447
0.58688
0.541563
0.53818
0.583712
0.596546
0.592911
0.577853
0.537724
0.548547
0.592024
0.603373
0.600042
0.585474
0.546716
0.559293
0.600929
0.612433
0.608783
0.594334
0.556863
0.565594
0.607244
0.618465
0.613513
0.598716
0.558945
0.565336
0.611682
0.622948
0.622381
0.608821
0.562546
0.562993
0.603811
0.619301
0.630666
0.619019
0.574917
0.573264
0.611714
0.626641
0.637585
0.626332
0.584886
0.580835
0.61881
0.633268
0.643592
0.632298
0.590606
0.586796
0.625101
0.639671
0.650262
0.638897
0.596598
0.591659
0.631312
0.646067
0.65553
0.644818
0.598803
0.594252
0.640609
0.653907
0.649497
0.633633
0.592838
0.603747
0.648203
0.660137
0.655955
0.640939
0.601412
0.613788
0.656272
0.667521
0.663175
0.648742
0.610643
0.62019
0.662207
0.673543
0.66884
0.65385
0.615176
0.624002
0.667099
0.678758
0.6737
0.658404
0.616961
0.623997
0.671818
0.683199
0.682207
0.668262
0.6211
0.621067
0.662504
0.678391
0.689473
0.677777
0.632933
0.629788
0.669286
0.684333
0.694787
0.683425
0.640322
0.635373
0.674546
0.689688
0.700368
0.688413
0.645654
0.640621
0.679902
0.695358
0.70546
0.693625
0.649818
0.642264
0.684393
0.699977
0.709535
0.698135
0.64922
0.644965
0.693749
0.707955
0.703638
0.687089
0.64464
0.656767
0.702617
0.714839
0.709428
0.693662
0.653124
0.664356
0.708391
0.720594
0.715238
0.699372
0.659939
0.670149
0.713658
0.725974
0.720427
0.704328
0.6642
0.673611
0.718506
0.730818
0.725061
0.70886
0.665805
0.67286
0.723033
0.734793
0.732809
0.718257
0.668465
0.66668
0.711043
0.72792
0.739219
0.726859
0.67899
0.675488
0.717291
0.733359
0.744638
0.732177
0.687014
0.682672
0.722697
0.738674
0.749046
0.736911
0.692554
0.684393
0.726475
0.742669
0.753018
0.74053
0.693451
0.68662
0.730896
0.747306
0.757507
0.745592
0.694312
0.690876
0.740612
0.755279
0.74963
0.732524
0.688143
0.699854
0.748448
0.760606
0.753492
0.737412
0.694217
0.704338
0.751442
0.763915
0.757874
0.741633
0.699546
0.710975
0.756564
0.769152
0.763038
0.746887
0.705351
0.714506
0.76104
0.773435
0.767128
0.750749
0.707562
0.714953
0.765316
0.777146
0.774251
0.759134
0.709148
0.706295
0.750768
0.768535
0.780436
0.767094
0.718591
0.713666
0.757042
0.774198
0.785776
0.772892
0.725661
0.720612
0.76249
0.778909
0.789276
0.776779
0.729525
0.720575
0.765548
0.782249
0.792127
0.779901
0.727621
0.721818
0.773563
0.788808
0.782512
0.764745
0.719641
0.731925
0.781178
0.794493
0.787292
0.770281
0.726601
0.737816
0.785671
0.798592
0.79066
0.773678
0.730639
0.738934
0.787436
0.800836
0.793528
0.7759
0.72974
0.737239
0.791137
0.804329
0.801968
0.786126
0.733372
0.732567
0.77813
0.796126
0.808065
0.794601
0.745026
0.739607
0.782435
0.799726
0.810348
0.796967
0.748042
0.736626
0.784063
0.802195
0.812878
0.799284
0.744073
0.739921
0.793777
0.810047
0.803954
0.785377
0.73858
0.751491
0.802701
0.816486
0.808044
0.790542
0.74684
0.755297
0.805061
0.818636
0.809681
0.791244
0.743554
0.750279
0.806509
0.820297
0.817503
0.800921
0.745211
0.744159
0.79291
0.811792
0.824928
0.810659
0.758006
0.754299
0.799065
0.816825
0.827125
0.813519
0.762733
0.749701
0.798321
0.817138
0.82766
0.813192
0.756005
0.751166
0.807616
0.824572
0.818385
0.79875
0.749122
0.76221
0.816872
0.831838
0.823922
0.805979
0.758212
0.766364
0.822782
0.835948
0.829452
0.812644
0.757691
0.748893
0.79948
0.820435
0.834394
0.817653
0.760745
0.755622
0.807058
0.827344
0.841756
0.826632
0.766524
0.762455
0.819322
0.836924
0.82731
0.80635
0.757133
0.766847
0.823822
0.84116
0.832786
0.810421
0.756851
0.765407
0.829454
0.848024
0.84705
0.826904
0.765669
0.768231
0.818954
0.840552
0.855037
0.837677
0.779067
0.765126
0.820565
0.843945
0.858451
0.838229
0.770684
0.76971
0.836316
0.858035
0.853781
0.830259
0.770372
0.781845
0.853729
0.87182
0.865256
0.844441
0.777009
0.766095
0.828645
0.854683
0.872016
0.84937
0.772854
0.777746
0.8503
0.87443
0.872293
0.847054
0.783241
0.798382
0.874523
0.893776
0.89169
0.868937
0.796983
0.790118
0.859741
0.888427
0.915028
0.889956
0.805463
0.825303
0.902807
0.92796
0.932626
0.906976
0.841435
0.856809
0.939509
0.961372
0.979054
0.952154
0.866326
0.884553
0.96456
0.9925
1.02785
1.00703
0.912572
0.922995
1.01324
1.03719
1.03632
1.00638
0.918684
0.928459
1.03874
1.0635
1.06033
1.03694
0.932694
0.9314
1.03001
1.05528
1.04574
1.01601
0.917871
0.918588
1.04228
1.06634
1.04272
1.02184
0.907054
0.89352
1.00034
1.02448
0.999203
0.976625
0.878978
0.853547
0.939294
0.964634
0.922929
0.896283
0.814818
0.766374
0.845427
0.877123
0.824159
0.779022
0.696425
0.661974
0.774547
0.819293
0.774764
0.728713
0.61345
0.584418
0.699613
0.74626
0.724345
0.677066
0.561207
0.541972
0.657846
0.705622
0.690449
0.642146
0.526007
0.512115
0.628164
0.676905
0.665587
0.616451
0.500283
0.489939
0.605845
0.65513
0.646238
0.596747
0.480896
0.472688
0.588363
0.638001
0.630903
0.581136
0.465571
0.459001
0.574381
0.624257
0.618418
0.568475
0.453244
0.447876
0.562912
0.612928
0.608053
0.558004
0.443128
0.43866
0.553344
0.60344
0.599308
0.549203
0.434682
0.430908
0.545244
0.59538
0.591835
0.541709
0.427532
0.424312
0.538306
0.588455
0.585389
0.535266
0.421418
0.418637
0.532319
0.582454
0.579768
0.529666
0.416129
0.413705
0.527087
0.577192
0.574823
0.524759
0.411514
0.409387
0.522484
0.572548
0.570449
0.520431
0.407459
0.405576
0.518416
0.568426
0.566547
0.516586
0.403867
0.402189
0.514786
0.564732
0.56305
0.513146
0.400662
0.399157
0.511528
0.561407
0.559886
0.510051
0.397787
0.396431
0.508593
0.558402
0.557019
0.507257
0.395194
0.393966
0.505931
0.555665
0.5544
0.504714
0.392841
0.391722
0.503503
0.553158
0.551992
0.502387
0.390692
0.389666
0.501275
0.550847
0.549769
0.500246
0.388721
0.387775
0.499223
0.548711
0.54771
0.498271
0.386902
0.386027
0.49732
0.546724
0.545789
0.496432
0.385215
0.384398
0.495542
0.544867
0.543982
0.494709
0.383639
0.382874
0.493874
0.543112
0.542273
0.493091
0.382162
0.381439
0.492303
0.541451
0.540655
0.49156
0.380767
0.380081
0.490811
0.539872
0.539111
0.490103
0.379442
0.378789
0.489391
0.538361
0.537634
0.488712
0.378178
0.377552
0.488028
0.536913
0.536212
0.487372
0.376963
0.376361
0.486715
0.535516
0.53484
0.486082
0.375794
0.375215
0.485448
0.534169
0.533516
0.484833
0.374665
0.374104
0.484215
0.532862
0.532222
0.483615
0.373566
0.373019
0.483007
0.531578
0.530945
0.482421
0.372494
0.37196
0.481824
0.530316
0.529696
0.481246
0.371447
0.370924
0.48066
0.529079
0.528471
0.480087
0.37042
0.369906
0.479511
0.527862
0.527262
0.478944
0.369407
0.368901
0.478374
0.52666
0.526066
0.477815
0.368408
0.367909
0.477249
0.525472
0.524885
0.476695
0.367422
0.366929
0.476134
0.524298
0.523717
0.47558
0.366446
0.365958
0.475023
0.523133
0.522558
0.474474
0.36548
0.364998
0.473921
0.521979
0.521411
0.473375
0.364526
0.36405
0.472828
0.520839
0.520275
0.472284
0.363582
0.363112
0.471739
0.519708
0.519147
0.471197
0.362647
0.362182
0.470652
0.518584
0.518026
0.470117
0.361722
0.361261
0.469574
0.517469
0.516916
0.469041
0.360808
0.360351
0.468502
0.516366
0.515817
0.46797
0.359903
0.359451
0.467436
0.515268
0.514721
0.466907
0.359007
0.358561
0.466378
0.514174
0.513634
0.465851
0.358121
0.357682
0.465325
0.51309
0.512557
0.464805
0.357247
0.356814
0.464285
0.512019
0.511489
0.46377
0.356385
0.355957
0.463254
0.510957
0.51043
0.462741
0.355532
0.35511
0.462228
0.5099
0.509372
0.461724
0.354692
0.354275
0.461219
0.508848
0.508326
0.460719
0.353863
0.353451
0.46022
0.507806
0.507288
0.459725
0.353044
0.352638
0.459229
0.506769
0.506251
0.458741
0.352237
0.351837
0.458253
0.505737
0.505223
0.457771
0.351442
0.351046
0.457287
0.504709
0.504194
0.456808
0.350657
0.350267
0.456333
0.503679
0.503169
0.455861
0.349883
0.3495
0.455392
0.502655
0.502144
0.454924
0.34912
0.348742
0.454458
0.501629
0.501114
0.453998
0.348368
0.347994
0.453536
0.500598
0.50008
0.45308
0.347626
0.347257
0.452625
0.499562
0.499042
0.452172
0.346893
0.346528
0.451719
0.498519
0.497997
0.451268
0.346169
0.345809
0.450821
0.497468
0.49694
0.450373
0.345453
0.345098
0.449928
0.496405
0.495871
0.449483
0.344746
0.344394
0.449039
0.495327
0.494785
0.448594
0.344045
0.343695
0.448151
0.494231
0.493679
0.447706
0.343349
0.343002
0.447262
0.493115
0.492548
0.446818
0.342657
0.342312
0.446371
0.491974
0.491394
0.445924
0.341969
0.341624
0.445474
0.490805
0.490209
0.445021
0.341281
0.340938
0.444568
0.489602
0.488988
0.44411
0.340594
0.340251
0.443651
0.488362
0.487729
0.443188
0.339905
0.339561
0.44272
0.487082
0.486424
0.442252
0.339214
0.338867
0.441775
0.485756
0.485073
0.441298
0.33852
0.33817
0.440814
0.484379
0.483673
0.440326
0.33782
0.337465
0.43983
0.482952
0.482217
0.439329
0.33711
0.336752
0.438821
0.481467
0.480702
0.438307
0.336391
0.336027
0.437785
0.479919
0.47912
0.437255
0.33566
0.335289
0.436716
0.478303
0.47747
0.436169
0.334914
0.334535
0.435612
0.476618
0.475747
0.435047
0.334152
0.333764
0.43447
0.474857
0.473948
0.433883
0.333371
0.332973
0.433285
0.473014
0.472064
0.432675
0.332569
0.33216
0.432053
0.471087
0.470094
0.431417
0.331743
0.331321
0.430767
0.469072
0.468036
0.430105
0.330892
0.330459
0.429428
0.466973
0.465894
0.428737
0.330017
0.32957
0.428029
0.464784
0.463659
0.427305
0.329112
0.328649
0.426561
0.462505
0.461327
0.425803
0.328176
0.327695
0.425023
0.460123
0.458894
0.424226
0.327204
0.326705
0.423407
0.457634
0.456358
0.422568
0.326195
0.325677
0.421706
0.455044
0.453711
0.420824
0.325147
0.32461
0.419916
0.452341
0.45095
0.418986
0.324058
0.323499
0.418027
0.449521
0.448058
0.417046
0.322924
0.322341
0.416036
0.446572
0.445051
0.415003
0.321745
0.321139
0.41394
0.443505
0.44192
0.412852
0.320519
0.319888
0.411733
0.44031
0.438661
0.410589
0.319243
0.318585
0.409413
0.436986
0.435271
0.408207
0.317911
0.317221
0.406966
0.43353
0.431745
0.40569
0.316518
0.315798
0.404381
0.429935
0.42809
0.403034
0.31506
0.314303
0.401648
0.426215
0.424294
0.400222
0.313529
0.312737
0.398759
0.42235
0.420365
0.397258
0.311927
0.311097
0.395715
0.418349
0.416303
0.394128
0.310247
0.309373
0.3925
0.414212
0.412095
0.390826
0.308476
0.307557
0.389102
0.409926
0.407735
0.387336
0.306615
0.305649
0.385522
0.405498
0.403231
0.383664
0.304652
0.303625
0.38176
0.400932
0.398589
0.379813
0.302563
0.301465
0.377821
0.39622
0.393805
0.375782
0.30033
0.299159
0.373696
0.391344
0.388866
0.371571
0.297948
0.296696
0.369394
0.38633
0.383775
0.36718
0.295401
0.294062
0.364918
0.38117
0.378521
0.362612
0.292681
0.291254
0.360265
0.375845
0.37313
0.357874
0.289778
0.288255
0.355441
0.370383
0.36759
0.352968
0.286683
0.285062
0.350451
0.364765
0.361909
0.347895
0.283391
0.28167
0.345297
0.359005
0.35608
0.342663
0.279896
0.278069
0.339978
0.353094
0.350093
0.337262
0.276197
0.274287
0.334496
0.347032
0.343946
0.331696
0.272338
0.27035
0.328854
0.340823
0.337665
0.325975
0.268322
0.266254
0.323055
0.33447
0.33125
0.320101
0.264146
0.262002
0.317102
0.327972
0.324676
0.314072
0.25982
0.257598
0.311004
0.321345
0.31799
0.307903
0.255335
0.253034
0.304762
0.314588
0.311143
0.301582
0.250693
0.248313
0.298378
0.307689
0.304179
0.295127
0.2459
0.243454
0.29185
0.300653
0.297097
0.288538
0.240972
0.238456
0.285193
0.29351
0.289892
0.281814
0.235903
0.233314
0.278402
0.286245
0.282568
0.274957
0.230688
0.228025
0.271479
0.278861
0.275124
0.267969
0.225325
0.222587
0.264426
0.271358
0.267564
0.260852
0.219811
0.217
0.257248
0.263742
0.259895
0.253617
0.214154
0.211276
0.24996
0.256023
0.252128
0.246276
0.208366
0.205422
0.242566
0.248209
0.244282
0.238841
0.202448
0.19945
0.235079
0.240306
0.236337
0.231308
0.196422
0.193368
0.227498
0.232317
0.228303
0.223677
0.190284
0.187179
0.219817
0.224239
0.220182
0.215946
0.184055
0.180909
0.212056
0.2161
0.212006
0.208153
0.17774
0.174552
0.204222
0.207888
0.203751
0.200272
0.171346
0.168125
0.196306
0.1996
0.195421
0.192316
0.164889
0.161634
0.188323
0.191258
0.187053
0.1843
0.158367
0.15509
0.180274
0.182862
0.178646
0.176237
0.1518
0.148502
0.172191
0.174438
0.170206
0.168135
0.145192
0.141872
0.164077
0.165989
0.161735
0.159996
0.138547
0.135218
0.155918
0.157496
0.153251
0.151832
0.131881
0.128536
0.147749
0.149016
0.144747
0.143645
0.125189
0.121836
0.139552
0.140507
0.136235
0.13544
0.118481
0.115118
0.131338
0.131991
0.127726
0.127223
0.111749
0.108379
0.123106
0.123458
0.119176
0.118978
0.105006
0.101626
0.114862
0.114921
0.110636
0.110727
0.0982471
0.0948715
0.106605
0.106378
0.102108
0.102486
0.0914969
0.0881237
0.0983804
0.0978654
0.0936
0.0942632
0.0847561
0.0813958
0.0901692
0.0893705
0.0851253
0.0860697
0.0780435
0.0746992
0.0819933
0.0809177
0.0767048
0.0779182
0.0713597
0.0680335
0.0738561
0.0725022
0.068301
0.0697995
0.0647197
0.0614179
0.0657684
0.0641375
0.0599618
0.0617345
0.058126
0.0548472
0.057726
0.0558216
0.0516724
0.0537174
0.0515807
0.0483306
0.0497375
0.0475607
0.0434427
0.0457584
0.0450929
0.0418722
0.0418085
0.039362
0.0352809
0.0378643
0.0386675
0.0354814
0.0339485
0.0312353
0.027192
0.0300395
0.0323093
0.0291557
0.026158
0.0231845
0.0191938
0.0222857
0.0260165
0.0228976
0.018439
0.0152388
0.0113363
0.0146215
0.0198014
0.0167318
0.010838
0.00753156
0.00402883
0.00708104
0.0136665
0.0105996
0.00340227
0.00258253
0.00522872
0.00132501
0.00754442
0.00450313
0.00444749
0.00880399
0.012474
0.00801528
0.00150438
0.0015063
0.0116091
0.0161891
0.0198971
0.0151802
0.0044255
0.00732161
0.0187276
0.0235798
0.0272532
0.0222523
0.0101956
0.0130498
0.0257477
0.0308867
0.0345134
0.0292185
0.0158818
0.0186907
0.0326511
0.0380922
0.0416526
0.0360596
0.0214691
0.0242279
0.0394461
0.0451994
0.0487012
0.0427898
0.0269693
0.0296812
0.0461127
0.0521841
0.0556505
0.0494122
0.0323709
0.0350425
0.0526751
0.0590743
0.0624865
0.0559121
0.0376902
0.0403159
0.0591193
0.0658549
0.069213
0.0623001
0.0429197
0.0455028
0.0654452
0.0725245
0.0758309
0.0685761
0.0480595
0.0505972
0.0716703
0.0790947
0.0823487
0.0747409
0.0531135
0.0556088
0.0777863
0.0855696
0.0887671
0.0808073
0.0580813
0.0605283
0.0838049
0.0919323
0.0950863
0.0867789
0.0629513
0.0653546
0.089728
0.0982008
0.101305
0.0926521
0.0677374
0.0701008
0.0955434
0.104365
0.10742
0.0984211
0.0724396
0.0747602
0.101265
0.110432
0.113433
0.104082
0.077061
0.0793421
0.106876
0.116401
0.119331
0.109634
0.0816028
0.0838369
0.112378
0.122255
0.125132
0.115083
0.0860552
0.0882495
0.117775
0.128004
0.130832
0.12043
0.0904305
0.0925773
0.123056
0.133635
0.1364
0.125644
0.0946963
0.0968245
0.128239
0.139171
0.141932
0.13083
0.0989678
0.10107
0.133404
0.144687
0.147381
0.135924
0.103141
0.10519
0.138433
0.150073
0.152727
0.140912
0.107232
0.109253
0.143385
0.155382
0.158001
0.145827
0.111262
0.113247
0.148262
0.160621
0.163205
0.150668
0.115214
0.117152
0.153061
0.165781
0.168352
0.155448
0.119061
0.120947
0.157811
0.170889
0.173428
0.160169
0.122814
0.124665
0.162499
0.175929
0.178429
0.164821
0.126499
0.12832
0.167115
0.180892
0.183353
0.169399
0.130126
0.131919
0.171656
0.185777
0.1882
0.173903
0.133699
0.135466
0.176123
0.190586
0.192962
0.17833
0.13722
0.138961
0.180518
0.19532
0.197661
0.182691
0.140693
0.142415
0.184849
0.199987
0.202307
0.186998
0.14413
0.145838
0.189127
0.204596
0.206889
0.191252
0.14754
0.149238
0.193359
0.209155
0.211426
0.195465
0.150933
0.152625
0.197556
0.213673
0.215929
0.19965
0.15432
0.156013
0.201732
0.218164
0.22041
0.203819
0.157713
0.159414
0.205897
0.222638
0.22488
0.207984
0.161124
0.16284
0.21007
0.227117
0.229356
0.212162
0.16457
0.166309
0.21426
0.231614
0.233862
0.21637
0.168066
0.169838
0.218491
0.236122
0.238403
0.220629
0.171629
0.173462
0.222778
0.240696
0.242974
0.224932
0.175132
0.176846
0.227048
0.245207
0.247253
0.228931
0.178335
0.179801
0.230632
0.249175
0.251157
0.232396
0.181265
0.183715
0.234808
0.253604
0.256851
0.238112
0.187231
0.271532
0.278482
0.284747
0.290423
0.297137
0.304069
0.31143
0.318687
0.326096
0.333668
0.341416
0.348517
0.353198
0.356387
0.361066
0.364555
0.377897
0.389814
0.3911
0.404811
0.419157
0.432249
0.445304
0.457001
0.467676
0.476901
0.484543
0.490508
0.494607
0.496749
0.49705
0.49577