/*--------------------------------*- C++ -*----------------------------------*\
| =========                 |                                                 |
| \\      /  F ield         | OpenFOAM: The Open Source CFD Toolbox           |
|  \\    /   O peration     | Version:  v2006                                 |
|   \\  /    A nd           | Website:  www.openfoam.com                      |
|    \\/     M anipulation  |                                                 |
\*---------------------------------------------------------------------------*/
FoamFile
{
    version     2.0;
    format      ascii;
    class       volScalarField;
    location    "0.006";
    object      rho;
}
// * * * * * * * * * * * * * * * * * * * * * * * * * * * * * * * * * * * * * //

dimensions      [1 -3 0 0 0 0 0];


internalField   nonuniform List<scalar> 
31566
(
1.74067
1.74067
1.74066
1.74065
1.74064
1.74064
1.74064
1.74063
1.74063
1.74064
1.74064
1.74064
1.74064
1.74065
1.74065
1.74065
1.74066
1.74066
1.74066
1.74066
1.74066
1.74066
1.74066
1.74066
1.74066
1.74066
1.74066
1.74066
1.74066
1.74066
1.74067
1.74067
1.74068
1.74069
1.7407
1.74071
1.74073
1.74074
1.74076
1.74077
1.74078
1.74078
1.74078
1.74078
1.74078
1.74077
1.74076
1.74075
1.74074
1.74073
1.74072
1.74072
1.74073
1.74074
1.74076
1.74078
1.74081
1.74084
1.74087
1.7409
1.74092
1.74095
1.74097
1.74099
1.74101
1.74103
1.74105
1.74107
1.74108
1.7411
1.74111
1.74113
1.74115
1.74117
1.74118
1.7412
1.74122
1.74123
1.74125
1.74126
1.74127
1.74129
1.74129
1.7413
1.74131
1.74131
1.74132
1.74131
1.74131
1.74131
1.7413
1.74131
1.74131
1.74131
1.74132
1.74132
1.74133
1.74134
1.74135
1.74136
1.74138
1.74136
1.7413
1.74131
1.74132
1.74133
1.74135
1.74136
1.74137
1.74137
1.74155
1.74157
1.74154
1.74169
1.7417
1.74163
1.74163
1.74174
1.74179
1.74185
1.74178
1.74168
1.74178
1.74186
1.74192
1.742
1.74196
1.74188
1.74197
1.74205
1.74209
1.74219
1.74216
1.74208
1.74218
1.74227
1.74231
1.74243
1.74238
1.74229
1.7424
1.7425
1.74256
1.74268
1.74262
1.74252
1.74264
1.74274
1.74281
1.74293
1.74286
1.74275
1.74288
1.74298
1.74306
1.74317
1.74309
1.743
1.74312
1.74321
1.74329
1.74341
1.74333
1.74324
1.74337
1.74345
1.74353
1.74364
1.74357
1.74349
1.74361
1.74369
1.74375
1.74386
1.7438
1.74372
1.74384
1.74391
1.74397
1.74407
1.74402
1.74395
1.74406
1.74412
1.74418
1.74428
1.74423
1.74417
1.74428
1.74433
1.74438
1.74448
1.74444
1.74438
1.74449
1.74454
1.74458
1.74468
1.74464
1.74459
1.74469
1.74474
1.74478
1.74487
1.74484
1.74478
1.74488
1.74493
1.74497
1.74506
1.74503
1.74497
1.74507
1.74512
1.74516
1.74525
1.74522
1.74516
1.74525
1.74531
1.74535
1.74544
1.7454
1.74534
1.74543
1.74549
1.74553
1.74562
1.74558
1.74552
1.7456
1.74566
1.7457
1.74579
1.74575
1.74569
1.74579
1.74584
1.74588
1.74596
1.74593
1.74588
1.74598
1.74602
1.74605
1.74615
1.74611
1.74608
1.74618
1.74621
1.74624
1.74634
1.74632
1.74629
1.74641
1.74643
1.74645
1.74656
1.74655
1.74653
1.74666
1.74667
1.74668
1.74681
1.7468
1.74679
1.74692
1.74693
1.74694
1.74708
1.74707
1.74706
1.74721
1.74722
1.74723
1.74737
1.74737
1.74735
1.7475
1.74752
1.74753
1.74768
1.74767
1.74766
1.74781
1.74783
1.74784
1.748
1.74799
1.74797
1.74813
1.74815
1.74817
1.74833
1.74831
1.74828
1.74844
1.74847
1.74849
1.74865
1.74863
1.7486
1.74876
1.74879
1.74882
1.74897
1.74895
1.74891
1.74906
1.7491
1.74913
1.74928
1.74925
1.74921
1.74936
1.7494
1.74943
1.74957
1.74954
1.7495
1.74964
1.74968
1.74971
1.74985
1.74982
1.74977
1.7499
1.74995
1.74998
1.7501
1.75007
1.75002
1.75014
1.75019
1.75022
1.75032
1.75028
1.75021
1.75026
1.75037
1.75041
1.75049
1.75042
1.75025
1.75022
1.75047
1.75056
1.7506
1.75046
1.75003
1.74985
1.75043
1.75063
1.75061
1.75029
1.74942
1.74903
1.75015
1.75058
1.75043
1.74981
1.74834
1.7477
1.74948
1.75028
1.74994
1.74889
1.74679
1.74599
1.74834
1.74961
1.74903
1.7475
1.74501
1.74424
1.74677
1.74849
1.74774
1.74587
1.74342
1.74284
1.74517
1.74711
1.74631
1.74438
1.74224
1.74184
1.74382
1.7457
1.745
1.74322
1.74143
1.74118
1.74284
1.74451
1.74397
1.74242
1.7409
1.74073
1.74218
1.74364
1.74327
1.74191
1.74053
1.7404
1.74175
1.74305
1.7428
1.74155
1.74023
1.74012
1.74143
1.74265
1.74247
1.74128
1.73997
1.73988
1.74118
1.74236
1.74222
1.74105
1.73975
1.73967
1.74096
1.74213
1.742
1.74084
1.73955
1.73949
1.74076
1.74192
1.74179
1.74064
1.73939
1.73934
1.74057
1.74172
1.74159
1.74045
1.73926
1.73922
1.74038
1.7415
1.74136
1.74026
1.73914
1.73909
1.74017
1.74127
1.74111
1.74004
1.739
1.73894
1.73994
1.74099
1.7408
1.73978
1.73884
1.73876
1.73965
1.74066
1.74045
1.73948
1.73863
1.73853
1.73933
1.74027
1.74004
1.73913
1.73839
1.73827
1.73895
1.73985
1.7396
1.73874
1.73812
1.73798
1.73855
1.73938
1.73911
1.73833
1.73782
1.73766
1.73812
1.73887
1.73859
1.73789
1.73749
1.73732
1.73767
1.73833
1.73803
1.73743
1.73714
1.73695
1.73719
1.73775
1.73742
1.73694
1.73673
1.73651
1.73668
1.73712
1.73678
1.7364
1.73626
1.736
1.73612
1.73644
1.73609
1.73582
1.73573
1.73545
1.73552
1.73576
1.73543
1.73523
1.73517
1.73492
1.73497
1.73515
1.73489
1.73474
1.73469
1.7345
1.73454
1.73468
1.73449
1.73437
1.73434
1.7342
1.73423
1.73434
1.7342
1.7341
1.73407
1.73394
1.73398
1.73407
1.73394
1.73384
1.73381
1.73367
1.7337
1.73379
1.73362
1.73354
1.73351
1.73333
1.73336
1.73344
1.73325
1.73317
1.73314
1.73294
1.73297
1.73306
1.73287
1.73278
1.73275
1.73256
1.7326
1.73269
1.73251
1.73243
1.73239
1.73221
1.73226
1.73235
1.73218
1.73209
1.73204
1.73186
1.73192
1.73201
1.73183
1.73173
1.73167
1.73147
1.73154
1.73164
1.73145
1.73134
1.73127
1.73106
1.73115
1.73126
1.73106
1.73095
1.73086
1.73065
1.73075
1.73087
1.73067
1.73054
1.73044
1.73024
1.73034
1.73048
1.73029
1.73015
1.73003
1.72984
1.72995
1.7301
1.72991
1.72976
1.72965
1.72946
1.72957
1.72973
1.72955
1.72939
1.72927
1.72909
1.7292
1.72937
1.72919
1.72902
1.72891
1.72874
1.72884
1.72902
1.72884
1.72867
1.72858
1.72842
1.72851
1.72868
1.72852
1.72836
1.72828
1.72815
1.72822
1.72838
1.72824
1.72808
1.72803
1.72791
1.72796
1.72811
1.72799
1.72785
1.72782
1.72773
1.72774
1.72788
1.72777
1.72766
1.72766
1.7276
1.72758
1.72769
1.72761
1.72752
1.72756
1.72751
1.72746
1.72755
1.72751
1.72743
1.72749
1.72745
1.72739
1.72747
1.72746
1.72738
1.72744
1.7274
1.72736
1.72743
1.72747
1.72737
1.7274
1.72736
1.72733
1.72744
1.72753
1.72737
1.72735
1.72726
1.72729
1.72748
1.72762
1.72736
1.72725
1.72707
1.72721
1.7275
1.72771
1.72728
1.72703
1.72676
1.72705
1.72752
1.72788
1.72725
1.72681
1.72647
1.72696
1.7276
1.72802
1.72731
1.72667
1.72629
1.72693
1.72759
1.72798
1.72734
1.72663
1.72624
1.72689
1.72747
1.72785
1.72729
1.72665
1.72631
1.72687
1.72736
1.72773
1.72726
1.72674
1.72645
1.72689
1.72729
1.72762
1.72722
1.72681
1.72652
1.72688
1.72724
1.72751
1.72716
1.72681
1.72657
1.72686
1.72719
1.72744
1.7271
1.72684
1.72663
1.72684
1.72717
1.72745
1.72711
1.7269
1.72668
1.72687
1.72722
1.72757
1.72716
1.72693
1.7267
1.72695
1.72738
1.72784
1.72728
1.72693
1.72678
1.72718
1.72779
1.72844
1.72769
1.72714
1.72712
1.72771
1.72846
1.72911
1.72833
1.72769
1.72778
1.72838
1.72908
1.72948
1.72878
1.72812
1.728
1.72865
1.7293
1.72943
1.72872
1.728
1.72771
1.72844
1.72917
1.72923
1.7284
1.72762
1.72737
1.72816
1.72903
1.72935
1.72831
1.72752
1.72798
1.72852
1.72942
1.72997
1.72932
1.72897
1.72927
1.72947
1.7299
1.73021
1.72992
1.72978
1.7297
1.72982
1.73
1.73018
1.73005
1.72995
1.72976
1.72985
1.72993
1.73012
1.73001
1.72992
1.72969
1.72977
1.72985
1.73004
1.72995
1.72986
1.72966
1.72974
1.72981
1.72988
1.7298
1.72972
1.7297
1.72977
1.72985
1.72985
1.72977
1.7297
1.72993
1.72992
1.72994
1.72991
1.72996
1.72992
1.72995
1.7299
1.72994
1.72989
1.72992
1.72988
1.7299
1.72987
1.72989
1.72986
1.72987
1.72985
1.72985
1.72984
1.72982
1.72983
1.72979
1.72981
1.72977
1.7298
1.72973
1.72979
1.72969
1.72977
1.72965
1.72974
1.7296
1.72978
1.7295
1.72972
1.72948
1.72959
1.72967
1.72974
1.72987
1.72989
1.7299
1.72989
1.72988
1.72987
1.72986
1.72984
1.72981
1.72976
1.72959
1.72847
1.72936
1.73063
1.72947
1.72948
1.72948
1.72938
1.72943
1.72978
1.73004
1.72974
1.72974
1.73023
1.73019
1.73072
1.73127
1.7306
1.73067
1.73092
1.73087
1.73171
1.73251
1.73106
1.73107
1.73105
1.73115
1.73341
1.73463
1.7314
1.73108
1.73116
1.73167
1.73583
1.7373
1.73228
1.73135
1.73168
1.73292
1.73874
1.74045
1.7341
1.73223
1.73294
1.73522
1.74211
1.74406
1.73711
1.73411
1.73542
1.73887
1.74594
1.74803
1.74133
1.73729
1.73905
1.74347
1.74987
1.75192
1.7461
1.74141
1.74335
1.74824
1.75361
1.75544
1.75076
1.74591
1.74774
1.75264
1.75681
1.75826
1.7548
1.75015
1.75162
1.75619
1.75915
1.76007
1.75779
1.75355
1.75455
1.75857
1.76044
1.76105
1.75982
1.75616
1.75684
1.76018
1.76109
1.76111
1.76076
1.75772
1.75745
1.76008
1.76012
1.75951
1.75995
1.75751
1.75678
1.75878
1.75811
1.7571
1.7582
1.7562
1.75487
1.75636
1.75505
1.75345
1.75515
1.75344
1.75142
1.75251
1.75065
1.74843
1.7506
1.74904
1.74628
1.74706
1.74476
1.74178
1.74431
1.74274
1.73904
1.73959
1.73698
1.733
1.73576
1.73398
1.72906
1.72947
1.72669
1.72134
1.72421
1.72198
1.71537
1.71574
1.7129
1.70549
1.70833
1.70538
1.6962
1.69661
1.69381
1.68321
1.686
1.68197
1.66762
1.66765
1.66534
1.6487
1.65074
1.64362
1.61999
1.62444
1.62375
1.60376
1.60465
1.59647
1.5708
1.57884
1.57852
1.56113
1.56156
1.55234
1.53113
1.53981
1.53937
1.53295
1.53241
1.52059
1.50177
1.50459
1.4993
1.47982
1.47987
1.4733
1.48361
1.48201
1.48546
1.48837
1.48325
1.48236
1.47925
1.48234
1.48723
1.48332
1.47819
1.46807
1.44842
1.4604
1.46764
1.44447
1.43909
1.4271
1.39927
1.41116
1.4162
1.40489
1.39974
1.38204
1.35689
1.36516
1.36795
1.33103
1.32721
1.31765
1.32594
1.32454
1.33253
1.32911
1.31881
1.31573
1.29486
1.30771
1.32198
1.29589
1.28189
1.27203
1.24047
1.26882
1.28245
1.24419
1.23166
1.20577
1.1483
1.16572
1.18003
1.14094
1.12173
1.11136
1.0948
1.10819
1.13257
1.10255
1.07847
1.05277
0.966591
0.988991
1.02141
0.95417
0.923345
0.897121
0.843228
0.878632
0.919999
0.856814
0.8052
0.743206
0.706892
0.772263
0.837523
0.870231
0.799632
0.676531
1.18654
1.14993
1.12086
0.968802
0.957826
0.935874
1.02263
1.02543
1.0303
1.01163
1.0083
1.0044
1.00527
1.00746
1.00928
1.0067
1.00385
1.00131
1.00219
1.00486
1.00637
1.00346
1.00184
0.999842
0.996364
0.998359
1.00067
1.00158
1.00038
0.997162
0.994774
0.996942
0.998474
0.996
0.993947
0.99215
0.992458
0.996161
0.99731
0.994357
0.99295
0.990775
0.988656
0.990369
0.992236
0.993728
0.992613
0.988799
0.98716
0.98946
0.990753
0.988886
0.987169
0.985378
0.985648
0.989424
0.990451
0.987498
0.986332
0.983975
0.982228
0.983914
0.98554
0.987122
0.986081
0.982082
0.98068
0.98313
0.984311
0.982424
0.980789
0.979125
0.978905
0.983058
0.984097
0.981389
0.980294
0.977851
0.97575
0.977647
0.979354
0.98113
0.980128
0.975806
0.974686
0.977202
0.978279
0.97614
0.974391
0.972318
0.972326
0.976979
0.978011
0.97516
0.974019
0.971372
0.968751
0.970733
0.972493
0.973919
0.972603
0.96842
0.968534
0.970198
0.971788
0.973293
0.972358
0.96813
0.965234
0.968161
0.969567
0.967565
0.965751
0.963619
0.963909
0.968477
0.969402
0.966238
0.964772
0.961601
0.960625
0.962711
0.964515
0.966448
0.965506
0.960717
0.958525
0.961433
0.962678
0.959949
0.957954
0.955465
0.955881
0.96035
0.961681
0.959453
0.95779
0.955932
0.955427
0.960161
0.961056
0.956998
0.95522
0.951837
0.949696
0.952132
0.954325
0.955362
0.954399
0.949974
0.948202
0.950416
0.952351
0.953785
0.952408
0.946524
0.94587
0.949449
0.951048
0.949202
0.947285
0.945065
0.944924
0.950269
0.951158
0.946598
0.944747
0.941003
0.938663
0.941675
0.94408
0.945649
0.944379
0.939201
0.937953
0.940283
0.942018
0.942739
0.941343
0.936158
0.935001
0.938097
0.940208
0.941952
0.940954
0.935003
0.93362
0.937188
0.938569
0.934727
0.932862
0.930411
0.927447
0.933598
0.935284
0.932835
0.930609
0.927347
0.926895
0.933447
0.934631
0.931709
0.930367
0.926801
0.922388
0.925021
0.927091
0.927426
0.925558
0.91919
0.919216
0.922101
0.924563
0.926211
0.924529
0.919087
0.919336
0.922065
0.924185
0.925745
0.925001
0.919449
0.914887
0.918712
0.920431
0.916871
0.914098
0.910637
0.910407
0.916515
0.918254
0.914985
0.912442
0.909284
0.909522
0.914949
0.916259
0.913353
0.91115
0.908245
0.906566
0.913699
0.914911
0.909835
0.907757
0.903017
0.900697
0.904352
0.907145
0.908804
0.907052
0.900343
0.899199
0.902374
0.904723
0.905517
0.904058
0.897807
0.896369
0.9002
0.902715
0.904574
0.90327
0.895603
0.893539
0.898507
0.900617
0.89807
0.895202
0.89114
0.891531
0.898379
0.899818
0.894503
0.892082
0.888444
0.886072
0.893271
0.895234
0.892364
0.88947
0.885601
0.885968
0.892469
0.894281
0.891993
0.889479
0.885707
0.885414
0.892854
0.893806
0.888839
0.886544
0.881308
0.878565
0.882727
0.885771
0.887494
0.885815
0.878181
0.876542
0.880567
0.883386
0.884705
0.882543
0.874922
0.874368
0.878213
0.881034
0.882055
0.880529
0.873673
0.87151
0.875293
0.878198
0.879492
0.877736
0.870479
0.870104
0.874416
0.877321
0.879152
0.877874
0.869489
0.867311
0.873003
0.875444
0.872669
0.869637
0.865415
0.865145
0.872787
0.874386
0.869613
0.866734
0.862421
0.860496
0.868569
0.870842
0.867152
0.864033
0.859972
0.859636
0.866763
0.868457
0.865305
0.862145
0.857912
0.857713
0.865166
0.867068
0.864831
0.861805
0.857077
0.856952
0.86556
0.866613
0.861683
0.859131
0.853147
0.850989
0.855352
0.858601
0.860478
0.858412
0.849915
0.848868
0.853595
0.856861
0.85867
0.856592
0.848718
0.847319
0.851505
0.854605
0.855824
0.853893
0.846283
0.844793
0.849182
0.852486
0.854345
0.852236
0.844165
0.844126
0.849019
0.852182
0.85407
0.852901
0.843921
0.840983
0.8469
0.849419
0.84617
0.842622
0.837638
0.837576
0.846097
0.848231
0.844028
0.840665
0.835861
0.835131
0.843401
0.845719
0.841584
0.838006
0.833317
0.83314
0.841036
0.843162
0.83956
0.836018
0.831348
0.830652
0.839209
0.841466
0.839343
0.835929
0.830715
0.83056
0.840008
0.841292
0.83672
0.833956
0.827614
0.824073
0.829746
0.833551
0.83593
0.833723
0.82473
0.823349
0.828281
0.831624
0.833348
0.830809
0.821906
0.8208
0.825898
0.829642
0.831676
0.829267
0.820846
0.819823
0.824643
0.828214
0.830057
0.827903
0.819183
0.81848
0.824026
0.827542
0.829471
0.828049
0.818137
0.814918
0.821918
0.825207
0.822418
0.81836
0.812474
0.813199
0.822738
0.825147
0.821718
0.818253
0.812779
0.813028
0.821639
0.823763
0.818996
0.815685
0.810834
0.808645
0.817818
0.82049
0.816987
0.813161
0.808025
0.807775
0.816616
0.819006
0.816866
0.813055
0.807319
0.807348
0.817325
0.818821
0.814722
0.811782
0.80543
0.80101
0.806955
0.811011
0.813484
0.811165
0.80245
0.80008
0.805253
0.808889
0.810977
0.8079
0.798028
0.798074
0.80365
0.807789
0.810141
0.807492
0.798422
0.798409
0.804326
0.808156
0.810016
0.808747
0.799007
0.796552
0.803169
0.806185
0.802527
0.79844
0.792435
0.793703
0.802649
0.805245
0.80127
0.797196
0.791324
0.790902
0.80079
0.803897
0.80102
0.796858
0.791403
0.792234
0.800714
0.803239
0.800794
0.797002
0.791469
0.791039
0.80113
0.802632
0.797383
0.794008
0.787253
0.783426
0.789606
0.794024
0.797113
0.793937
0.784225
0.78363
0.78999
0.794592
0.797596
0.79477
0.786215
0.785794
0.791569
0.795461
0.797463
0.795778
0.785517
0.782213
0.789021
0.792257
0.788648
0.784325
0.77836
0.778068
0.78835
0.791646
0.789092
0.784055
0.777576
0.780167
0.789618
0.792708
0.790833
0.786892
0.781143
0.781185
0.791159
0.792822
0.787409
0.784384
0.777649
0.772571
0.778757
0.783187
0.785961
0.782562
0.772444
0.770628
0.777542
0.78325
0.787879
0.78453
0.774701
0.776655
0.782301
0.786208
0.788118
0.786135
0.776368
0.773075
0.779901
0.782815
0.778772
0.7742
0.767972
0.767263
0.778036
0.78178
0.77955
0.774351
0.766325
0.768468
0.779713
0.782878
0.780807
0.777488
0.770844
0.765886
0.772087
0.776556
0.779266
0.775968
0.76691
0.763775
0.770039
0.774892
0.777509
0.773783
0.761489
0.761131
0.770115
0.774785
0.771606
0.766303
0.7604
0.761951
0.770903
0.774854
0.770791
0.766338
0.761219
0.759448
0.769531
0.772458
0.764577
0.75963
0.752296
0.746771
0.753658
0.761185
0.76682
0.761807
0.750495
0.7546
0.759865
0.764405
0.765756
0.762501
0.753908
0.745342
0.752567
0.756985
0.752762
0.746442
0.739704
0.738584
0.751853
0.757655
0.755935
0.750845
0.740819
0.742766
0.747851
0.752899
0.755085
0.751634
0.742456
0.731223
0.738152
0.743935
0.737796
0.730574
0.722097
0.721125
0.735469
0.741381
0.736695
0.732421
0.72581
0.716561
0.721012
0.726857
0.726819
0.721163
0.710698
0.694578
0.702801
0.709959
0.701563
0.693586
0.68395
0.689113
0.698217
0.702753
0.68307
0.679115
0.67275
0.649423
0.660168
0.667419
0.668626
0.659892
0.641369
0.642817
0.655016
0.662579
0.656953
0.649912
0.640883
0.637232
0.65458
0.664677
0.663844
0.65582
0.639144
0.639907
0.653732
0.661805
0.662954
0.652659
0.64159
0.649672
0.674232
0.685695
0.692823
0.687785
0.663762
0.681712
0.696932
0.706705
0.722799
0.71384
0.688857
0.730611
0.743135
0.752656
0.77247
0.762619
0.751052
0.784395
0.792857
0.799093
0.822013
0.822009
0.819232
0.850829
0.853872
0.855069
0.87365
0.872795
0.86911
0.879164
0.882712
0.884341
0.896685
0.895205
0.891724
0.900081
0.90323
0.904721
0.913409
0.912014
0.909054
0.91539
0.918058
0.919414
0.926
0.92472
0.922201
0.927162
0.929424
0.930662
0.93588
0.934711
0.932581
0.936547
0.938482
0.939621
0.94388
0.942809
0.94098
0.944275
0.945944
0.947002
0.95057
0.949577
0.947992
0.950787
0.95224
0.953234
0.956281
0.955355
0.953973
0.956387
0.95766
0.958601
0.961247
0.960378
0.959164
0.961282
0.962407
0.963303
0.965631
0.964812
0.963736
0.965616
0.966616
0.967473
0.969542
0.968768
0.967813
0.969506
0.970396
0.971218
0.973083
0.972346
0.971494
0.973032
0.97383
0.97462
0.976316
0.975611
0.974848
0.976255
0.976974
0.977733
0.979283
0.978607
0.977928
0.979227
0.979874
0.980605
0.982041
0.981387
0.980778
0.981985
0.982572
0.983276
0.984613
0.983981
0.983435
0.984564
0.9851
0.985781
0.98703
0.986417
0.985926
0.986988
0.987476
0.988134
0.989311
0.988717
0.988276
0.989282
0.989727
0.990365
0.991479
0.990902
0.990507
0.991465
0.99187
0.992488
0.993548
0.992987
0.992633
0.993551
0.99392
0.994519
0.99553
0.994986
0.994668
0.99555
0.995885
0.996462
0.997434
0.996907
0.996625
0.997477
0.99778
0.998337
0.999271
0.998763
0.998513
0.999341
0.999611
1.00015
1.00106
1.00056
1.00034
1.00115
1.00139
1.00191
1.00279
1.00231
1.00212
1.00291
1.00312
1.00363
1.00448
1.00402
1.00385
1.00463
1.00481
1.0053
1.00614
1.00569
1.00555
1.00631
1.00647
1.00694
1.00775
1.00732
1.00721
1.00796
1.00809
1.00854
1.00934
1.00893
1.00884
1.00958
1.00969
1.01012
1.01091
1.01051
1.01044
1.01118
1.01126
1.01167
1.01245
1.01207
1.01202
1.01275
1.01281
1.01321
1.01398
1.01361
1.01359
1.01432
1.01435
1.01473
1.0155
1.01515
1.01514
1.01586
1.01588
1.01624
1.017
1.01666
1.01668
1.0174
1.0174
1.01774
1.01849
1.01817
1.0182
1.01893
1.0189
1.01923
1.01998
1.01968
1.01972
1.02045
1.02041
1.02072
1.02146
1.02117
1.02124
1.02196
1.0219
1.0222
1.02294
1.02267
1.02275
1.02347
1.02339
1.02367
1.02442
1.02415
1.02425
1.02498
1.02488
1.02515
1.02589
1.02564
1.02576
1.02649
1.02637
1.02662
1.02737
1.02713
1.02726
1.02799
1.02786
1.0281
1.02884
1.02862
1.02876
1.0295
1.02935
1.02958
1.03032
1.03011
1.03027
1.031
1.03085
1.03106
1.03181
1.03161
1.03178
1.03251
1.03235
1.03255
1.0333
1.03311
1.03329
1.03403
1.03385
1.03404
1.0348
1.03461
1.0348
1.03555
1.03536
1.03555
1.03631
1.03613
1.03632
1.03707
1.03688
1.03707
1.03783
1.03765
1.03785
1.03861
1.03841
1.03859
1.03936
1.03918
1.03939
1.04014
1.03994
1.04012
1.04089
1.04072
1.04093
1.04169
1.04149
1.04166
1.04244
1.04227
1.04248
1.04325
1.04304
1.04322
1.044
1.04383
1.04404
1.04482
1.04461
1.04479
1.04558
1.0454
1.04561
1.04639
1.04619
1.04636
1.04716
1.04698
1.04719
1.04798
1.04777
1.04795
1.04876
1.04858
1.04879
1.04958
1.04937
1.04956
1.05037
1.05018
1.05039
1.05119
1.05099
1.05117
1.05199
1.0518
1.052
1.05281
1.05261
1.05281
1.05363
1.05343
1.05362
1.05443
1.05425
1.05445
1.05528
1.05508
1.05526
1.05608
1.0559
1.05612
1.05695
1.05674
1.05691
1.05774
1.05757
1.0578
1.05864
1.05841
1.05858
1.05941
1.05926
1.05949
1.06035
1.06011
1.06026
1.0611
1.06096
1.06121
1.06208
1.06182
1.06195
1.06281
1.06268
1.06294
1.06382
1.06355
1.06367
1.06453
1.06442
1.0647
1.06559
1.06531
1.06541
1.06628
1.06619
1.06648
1.06738
1.06708
1.06716
1.06805
1.06797
1.06828
1.06919
1.06888
1.06894
1.06984
1.06978
1.0701
1.07103
1.0707
1.07075
1.07165
1.07162
1.07195
1.07289
1.07255
1.07257
1.07349
1.07348
1.07383
1.07478
1.07442
1.07442
1.07536
1.07536
1.07573
1.07669
1.07632
1.0763
1.07725
1.07728
1.07766
1.07864
1.07825
1.07821
1.07918
1.07923
1.07962
1.08062
1.08022
1.08016
1.08114
1.08121
1.08162
1.08264
1.08222
1.08213
1.08313
1.08323
1.08365
1.08468
1.08425
1.08414
1.08516
1.08528
1.08572
1.08677
1.08633
1.08619
1.08723
1.08738
1.08782
1.08889
1.08844
1.08828
1.08934
1.08951
1.08996
1.09105
1.0906
1.09041
1.09149
1.09169
1.09214
1.09324
1.09279
1.09258
1.09368
1.0939
1.09436
1.09548
1.09503
1.0948
1.09592
1.09616
1.09661
1.09775
1.09731
1.09705
1.0982
1.09847
1.09891
1.10007
1.09964
1.09936
1.10052
1.10082
1.10124
1.10243
1.10201
1.10171
1.1029
1.10322
1.10363
1.10484
1.10444
1.10411
1.10532
1.10567
1.10606
1.10729
1.10692
1.10656
1.10781
1.10818
1.10854
1.10979
1.10945
1.10907
1.11034
1.11074
1.11106
1.11235
1.11204
1.11164
1.11294
1.11336
1.11365
1.11496
1.1147
1.11427
1.1156
1.11604
1.11629
1.11763
1.11741
1.11696
1.11832
1.11878
1.11898
1.12035
1.12018
1.11971
1.12111
1.12159
1.12173
1.12312
1.12301
1.12253
1.12396
1.12445
1.12454
1.12597
1.12591
1.12541
1.12687
1.12738
1.12741
1.12886
1.12887
1.12836
1.12986
1.13038
1.13033
1.13182
1.1319
1.13138
1.13291
1.13344
1.13332
1.13484
1.13499
1.13447
1.13605
1.13657
1.13637
1.13792
1.13816
1.13764
1.13926
1.13977
1.13949
1.14108
1.1414
1.14089
1.14254
1.14304
1.14268
1.1443
1.14471
1.14422
1.14591
1.14639
1.14594
1.1476
1.14809
1.14763
1.14936
1.14981
1.14927
1.15097
1.15155
1.15112
1.15289
1.1533
1.15267
1.1544
1.15508
1.15468
1.1565
1.15687
1.15615
1.15792
1.15868
1.15834
1.16019
1.16051
1.1597
1.1615
1.16236
1.16207
1.16396
1.16422
1.16332
1.16516
1.1661
1.16588
1.16781
1.168
1.16701
1.16888
1.16992
1.16977
1.17174
1.17185
1.17077
1.17269
1.17381
1.17374
1.17576
1.17578
1.17462
1.17657
1.17777
1.1778
1.17985
1.17978
1.17854
1.18053
1.18181
1.18193
1.18402
1.18385
1.18254
1.18457
1.18592
1.18614
1.18827
1.188
1.18661
1.18867
1.1901
1.19043
1.19259
1.19222
1.19075
1.19285
1.19435
1.19478
1.19698
1.1965
1.19496
1.19709
1.19866
1.1992
1.20144
1.20084
1.19923
1.2014
1.20304
1.20369
1.20596
1.20525
1.20357
1.20577
1.20748
1.20824
1.21054
1.20973
1.20798
1.21021
1.21199
1.21285
1.21518
1.21426
1.21244
1.21469
1.21654
1.21752
1.21988
1.21884
1.21695
1.21923
1.22115
1.22225
1.22463
1.22347
1.22153
1.22383
1.2258
1.22702
1.22943
1.22815
1.22614
1.22847
1.23051
1.23185
1.23428
1.23288
1.23081
1.23316
1.23526
1.23672
1.23918
1.23765
1.23553
1.2379
1.24005
1.24164
1.24411
1.24246
1.24029
1.24268
1.24489
1.2466
1.24909
1.24731
1.24508
1.24749
1.24975
1.25159
1.2541
1.25219
1.24991
1.25233
1.25464
1.2566
1.25911
1.25708
1.25475
1.25717
1.25953
1.26163
1.26414
1.26198
1.25959
1.26202
1.26443
1.26665
1.26916
1.26688
1.26444
1.26686
1.26932
1.27166
1.27417
1.27176
1.26928
1.2717
1.27421
1.27667
1.27917
1.27664
1.27411
1.27653
1.27908
1.28167
1.28416
1.28151
1.27893
1.28134
1.28394
1.28665
1.28913
1.28637
1.28375
1.28616
1.28879
1.29162
1.2941
1.29122
1.28856
1.29095
1.29363
1.29657
1.29903
1.29603
1.29333
1.29571
1.29842
1.30148
1.30393
1.30081
1.29808
1.30044
1.30319
1.30635
1.30877
1.30555
1.30279
1.30513
1.3079
1.31117
1.31356
1.31024
1.30745
1.30976
1.31256
1.31593
1.31829
1.31487
1.31205
1.31433
1.31715
1.32062
1.32294
1.31942
1.31658
1.31882
1.32167
1.32524
1.32752
1.32391
1.32105
1.32326
1.32613
1.32978
1.33202
1.32833
1.32545
1.32761
1.3305
1.33424
1.33644
1.33266
1.32976
1.33189
1.33479
1.33861
1.34076
1.33691
1.33399
1.33608
1.339
1.34289
1.345
1.34106
1.33813
1.34018
1.34311
1.34707
1.34913
1.34513
1.3422
1.3442
1.34714
1.35116
1.35317
1.34912
1.34617
1.34813
1.35108
1.35515
1.35711
1.35301
1.35006
1.35196
1.35492
1.35905
1.36095
1.35679
1.35384
1.35569
1.35865
1.36282
1.36466
1.36047
1.35751
1.3593
1.36226
1.36647
1.36825
1.36402
1.36106
1.36279
1.36575
1.37
1.37171
1.36745
1.36449
1.36616
1.36912
1.37339
1.37504
1.37075
1.36779
1.3694
1.37236
1.37665
1.37823
1.37393
1.37097
1.37252
1.37547
1.37978
1.38129
1.37698
1.37403
1.37552
1.37847
1.38277
1.38422
1.37992
1.37697
1.37841
1.38135
1.38565
1.38704
1.38275
1.37981
1.38117
1.38412
1.3884
1.38972
1.38544
1.3825
1.38382
1.38675
1.39101
1.39227
1.38802
1.38509
1.38633
1.38927
1.39349
1.39468
1.39048
1.38755
1.38874
1.39168
1.39586
1.39698
1.39283
1.3899
1.39104
1.39396
1.39808
1.39915
1.39506
1.39214
1.39321
1.39613
1.40018
1.40119
1.39716
1.39424
1.39525
1.39816
1.40216
1.40309
1.39913
1.39622
1.39716
1.40007
1.40399
1.40485
1.40098
1.39807
1.39896
1.40186
1.40569
1.4065
1.4027
1.39981
1.40063
1.40352
1.40727
1.40802
1.40431
1.40142
1.40219
1.40507
1.40873
1.40942
1.40581
1.40293
1.40365
1.40651
1.41009
1.41072
1.40719
1.40434
1.405
1.40785
1.41133
1.41191
1.40847
1.40563
1.40624
1.40908
1.41246
1.41299
1.40965
1.40683
1.40739
1.4102
1.41349
1.41397
1.41073
1.40793
1.40844
1.41123
1.41442
1.41485
1.4117
1.40893
1.40939
1.41215
1.41525
1.41563
1.41257
1.40983
1.41024
1.41297
1.41598
1.41631
1.41334
1.41063
1.41099
1.41369
1.41662
1.4169
1.41401
1.41134
1.41165
1.41431
1.41716
1.41739
1.41459
1.41195
1.41222
1.41485
1.41761
1.4178
1.41508
1.41247
1.41271
1.41529
1.41796
1.41811
1.41548
1.41291
1.4131
1.41565
1.41824
1.41835
1.41579
1.41327
1.41342
1.41593
1.41844
1.41852
1.41604
1.41355
1.41368
1.41614
1.41857
1.41861
1.41622
1.41378
1.41385
1.41627
1.41862
1.41861
1.4163
1.4139
1.41394
1.41632
1.4186
1.41856
1.41632
1.41396
1.41397
1.4163
1.41851
1.41842
1.41626
1.41395
1.41392
1.41621
1.41834
1.41822
1.41613
1.41387
1.4138
1.41604
1.41809
1.41794
1.41593
1.41371
1.41361
1.41581
1.41779
1.41761
1.41566
1.41348
1.41334
1.4155
1.41742
1.41721
1.41532
1.41318
1.41301
1.41513
1.417
1.41676
1.41492
1.41282
1.41262
1.4147
1.41651
1.41624
1.41446
1.4124
1.41216
1.41421
1.41596
1.41567
1.41394
1.41191
1.41165
1.41365
1.41536
1.41504
1.41336
1.41137
1.41108
1.41304
1.41469
1.41435
1.41271
1.41077
1.41044
1.41236
1.41397
1.41359
1.412
1.4101
1.40974
1.41162
1.41318
1.41278
1.41123
1.40936
1.40897
1.41082
1.41233
1.41189
1.41039
1.40856
1.40814
1.40994
1.41141
1.41094
1.40948
1.40769
1.40723
1.409
1.41042
1.40992
1.40849
1.40674
1.40625
1.40798
1.40936
1.40882
1.40743
1.40572
1.40518
1.40688
1.40821
1.40764
1.40628
1.40461
1.40403
1.40569
1.40698
1.40637
1.40504
1.4034
1.40278
1.40441
1.40566
1.40501
1.4037
1.4021
1.40142
1.40302
1.40419
1.40351
1.40222
1.40066
1.39991
1.40147
1.40257
1.40176
1.40059
1.39911
1.39846
1.39995
1.40108
1.40037
1.39924
1.39777
1.39721
1.39867
1.3998
1.39441
1.3908
1.3872
1.38335
1.3794
1.37559
1.37241
1.36992
1.36815
1.3672
1.367
1.36713
1.36739
1.36768
1.36866
1.36988
1.37239
1.37583
1.37745
1.37934
1.37978
1.38052
1.38351
1.38795
1.39534
1.40595
1.41918
1.43462
1.45073
1.4658
1.47911
1.49066
1.50082
1.5098
1.51773
1.52473
1.53098
1.53659
1.54164
1.5462
1.55033
1.55407
1.55748
1.56056
1.56333
1.56582
1.56805
1.57004
1.57181
1.57335
1.5747
1.57587
1.57687
1.57771
1.57842
1.579
1.57948
1.57988
1.58022
1.58046
1.58065
1.58075
1.58077
1.58074
1.58043
1.57989
1.57886
1.57777
1.57666
1.57551
1.57435
1.57319
1.57204
1.57091
1.56979
1.56866
1.56751
1.56629
1.56499
1.56356
1.56199
1.56027
1.55837
1.5563
1.55404
1.55159
1.54893
1.54607
1.54301
1.53973
1.53625
1.53258
1.52873
1.52472
1.52058
1.51633
1.51201
1.50764
1.50325
1.49887
1.49452
1.49023
1.48599
1.48182
1.47771
1.47365
1.46961
1.46556
1.46148
1.45732
1.45304
1.44861
1.44398
1.43911
1.43399
1.42858
1.42287
1.41687
1.41059
1.40403
1.39722
1.39017
1.38288
1.37536
1.36758
1.35958
1.35138
1.34305
1.3347
1.32645
1.31842
1.31073
1.30348
1.29677
1.29065
1.2852
1.28046
1.27644
1.27315
1.27055
1.2686
1.26724
1.26641
1.26605
1.26607
1.26638
1.26686
1.26737
1.26774
1.26775
1.26715
1.26562
1.26267
1.25749
1.24848
1.23266
1.20557
1.16468
1.11795
1.07679
1.04468
1.02429
1.01535
1.01146
1.00978
1.00911
1.00893
1.00896
1.00904
1.01123
1.01595
1.02196
1.02928
1.03774
1.04722
1.05761
1.06885
1.08084
1.09355
1.10691
1.12088
1.13541
1.15046
1.16601
1.182
1.19841
1.21521
1.23237
1.24986
1.26763
1.28567
1.30392
1.32234
1.3409
1.35953
1.37821
1.39686
1.41544
1.43388
1.45212
1.4701
1.48775
1.50501
1.5218
1.53808
1.55378
1.56885
1.58324
1.59691
1.60983
1.62199
1.63336
1.64394
1.65375
1.66281
1.67114
1.67879
1.68581
1.69217
1.69786
1.70293
1.70746
1.71137
1.7148
1.71781
1.72043
1.72274
1.72478
1.72659
1.72817
1.72954
1.73073
1.73177
1.73267
1.73348
1.73422
1.73486
1.73544
1.73595
1.73641
1.73683
1.7372
1.73754
1.73784
1.7381
1.73834
1.73855
1.73877
1.739
1.73921
1.73937
1.73949
1.73961
1.73971
1.7398
1.73989
1.74
1.74011
1.74019
1.74025
1.74031
1.74037
1.74044
1.74052
1.74061
1.74091
1.74121
1.74094
1.74086
1.7409
1.74086
1.74086
1.74084
1.7408
1.74074
1.74069
1.74062
1.74052
1.74051
1.7405
1.7405
1.74052
1.74056
1.74061
1.74066
1.74072
1.74075
1.74078
1.7408
1.74081
1.74079
1.74075
1.7407
1.74065
1.74061
1.74057
1.74057
1.74059
1.74064
1.74071
1.74077
1.74079
1.74076
1.74075
1.74074
1.74073
1.74071
1.74069
1.74068
1.74068
1.74069
1.7407
1.74071
1.74072
1.74073
1.74073
1.74074
1.74073
1.74072
1.74071
1.74069
1.74067
1.74064
1.74061
1.74059
1.74056
1.74054
1.74052
1.74051
1.74049
1.74049
1.7405
1.74052
1.74055
1.74059
1.74064
1.7407
1.74076
1.74082
1.74086
1.74089
1.7409
1.74091
1.74089
1.74086
1.74081
1.74075
1.74066
1.74057
1.74048
1.74041
1.74036
1.74033
1.74032
1.74034
1.74039
1.74045
1.74053
1.74062
1.7407
1.74077
1.74084
1.7409
1.74096
1.74101
1.74105
1.74109
1.74112
1.74115
1.74119
1.74123
1.74127
1.74131
1.74136
1.74142
1.74147
1.74152
1.74157
1.74161
1.74165
1.74168
1.7417
1.74171
1.74171
1.7417
1.74169
1.74167
1.74164
1.7416
1.74156
1.74154
1.74153
1.74154
1.74156
1.74159
1.74163
1.74168
1.74173
1.74178
1.74183
1.74187
1.74192
1.74203
1.74202
1.74198
1.74204
1.74213
1.74222
1.74234
1.74246
1.74259
1.74272
1.74285
1.74298
1.74311
1.74323
1.74336
1.74347
1.74359
1.74371
1.74382
1.74393
1.74403
1.74413
1.74424
1.74433
1.74443
1.74453
1.74463
1.74472
1.74482
1.74491
1.74501
1.7451
1.74519
1.74529
1.74538
1.74547
1.74556
1.74565
1.74574
1.74583
1.74591
1.746
1.74609
1.74618
1.74628
1.74637
1.74648
1.74659
1.74671
1.74683
1.74696