/*--------------------------------*- C++ -*----------------------------------*\
| =========                 |                                                 |
| \\      /  F ield         | OpenFOAM: The Open Source CFD Toolbox           |
|  \\    /   O peration     | Version:  v2006                                 |
|   \\  /    A nd           | Website:  www.openfoam.com                      |
|    \\/     M anipulation  |                                                 |
\*---------------------------------------------------------------------------*/
FoamFile
{
    version     2.0;
    format      ascii;
    class       volScalarField;
    location    "0.006";
    object      turbulenceProperties:I;
}
// * * * * * * * * * * * * * * * * * * * * * * * * * * * * * * * * * * * * * //

dimensions      [0 0 0 0 0 0 0];


internalField   nonuniform List<scalar> 
24416
(
0.150473
0.150378
0.150079
0.150095
0.150102
0.150064
0.15004
0.150357
0.151618
0.152553
0.152683
0.152597
0.152471
0.152326
0.15217
0.152
0.151814
0.151608
0.151386
0.15114
0.150866
0.150572
0.150262
0.149932
0.149644
0.149355
0.14905
0.148678
0.148267
0.147839
0.147399
0.146948
0.14649
0.146027
0.145562
0.145097
0.144638
0.144192
0.143765
0.143364
0.142992
0.142653
0.142347
0.142071
0.141828
0.141622
0.141454
0.141324
0.141232
0.141177
0.141161
0.141183
0.14124
0.141327
0.141435
0.141549
0.141656
0.141759
0.141887
0.142082
0.142374
0.142772
0.14327
0.143854
0.144505
0.145208
0.145949
0.146716
0.147501
0.148295
0.149073
0.149826
0.150561
0.151359
0.152251
0.153198
0.15416
0.155131
0.156103
0.157065
0.158006
0.158908
0.159761
0.160564
0.161329
0.162077
0.162808
0.163537
0.164327
0.165199
0.166158
0.167247
0.168523
0.169987
0.171478
0.17281
0.174024
0.175209
0.176275
0.174327
0.166621
0.167455
0.153946
0.168037
0.173744
0.175451
0.173806
0.172628
0.173436
0.172409
0.196501
0.196268
0.201771
0.211092
0.198571
0.208928
0.21437
0.191924
0.207847
0.188263
0.160495
0.214165
0.219146
0.129048
0.156038
0.135547
0.11403
0.226799
0.235368
0.11368
0.131097
0.13519
0.119806
0.243834
0.252258
0.134199
0.150221
0.163045
0.145137
0.260787
0.269793
0.152713
0.171989
0.176955
0.158193
0.279393
0.289326
0.162419
0.180192
0.181134
0.16479
0.298741
0.306766
0.164965
0.18114
0.177099
0.159958
0.312623
0.316413
0.154112
0.170041
0.161099
0.149184
0.318113
0.317996
0.147145
0.154857
0.14915
0.146767
0.316291
0.31328
0.14763
0.14692
0.145204
0.148865
0.309348
0.304722
0.149439
0.144978
0.144325
0.149233
0.299748
0.294514
0.148658
0.144122
0.143108
0.147241
0.289183
0.283807
0.146094
0.142418
0.141384
0.145035
0.278513
0.27323
0.1444
0.141095
0.140678
0.143841
0.268097
0.263114
0.143762
0.140762
0.141059
0.143842
0.258352
0.253845
0.14501
0.142812
0.14369
0.145227
0.249433
0.245298
0.146549
0.146195
0.14701
0.146639
0.241204
0.237399
0.147809
0.149382
0.150052
0.147808
0.233599
0.230081
0.148847
0.152241
0.152737
0.14871
0.226537
0.223232
0.14946
0.154595
0.154829
0.149115
0.219878
0.216734
0.149478
0.156238
0.156229
0.148958
0.213549
0.210546
0.149012
0.15724
0.15705
0.148369
0.207514
0.204643
0.148205
0.15778
0.157472
0.147477
0.201753
0.199001
0.147133
0.158006
0.157587
0.146318
0.196235
0.193591
0.145766
0.157886
0.157353
0.144886
0.190944
0.188443
0.144212
0.157443
0.156905
0.143395
0.185963
0.183678
0.142921
0.15706
0.156683
0.1423
0.181402
0.17935
0.142206
0.157193
0.157003
0.141751
0.177264
0.175397
0.141902
0.157826
0.157739
0.141532
0.17347
0.171744
0.141767
0.158704
0.158649
0.141431
0.169951
0.168327
0.141631
0.159609
0.159531
0.141289
0.16664
0.165087
0.141369
0.160377
0.160249
0.141003
0.163488
0.161992
0.140903
0.160934
0.160758
0.140504
0.160446
0.159022
0.140256
0.161264
0.161055
0.139869
0.157521
0.156145
0.139544
0.161358
0.161145
0.138958
0.154624
0.153295
0.138584
0.161279
0.160996
0.137816
0.151755
0.150457
0.137453
0.161124
0.160683
0.136516
0.148881
0.147607
0.136152
0.160833
0.160231
0.135008
0.145975
0.144706
0.13463
0.160395
0.159613
0.133249
0.143008
0.141753
0.132874
0.159818
0.158905
0.131286
0.139993
0.138749
0.130933
0.159193
0.158205
0.12916
0.136923
0.135697
0.128813
0.158591
0.157489
0.12677
0.133777
0.132537
0.126326
0.157893
0.156429
0.123749
0.130431
0.12907
0.123064
0.156674
0.154628
0.119886
0.126804
0.125452
0.119136
0.154805
0.152634
0.116045
0.123413
0.122295
0.115573
0.153095
0.151539
0.113522
0.120735
0.119879
0.113695
0.152565
0.152565
0.113321
0.11882
0.118216
0.114242
0.154224
0.155471
0.115007
0.117411
0.117041
0.116353
0.15747
0.159102
0.117555
0.116518
0.116354
0.119833
0.161878
0.163448
0.120998
0.115999
0.115879
0.123198
0.166083
0.167114
0.123919
0.115504
0.115291
0.125402
0.168931
0.169217
0.125499
0.114817
0.114441
0.125956
0.169878
0.169388
0.125339
0.113816
0.113271
0.124795
0.168864
0.167496
0.123459
0.112479
0.11181
0.122229
0.166204
0.163717
0.120007
0.110881
0.110155
0.118353
0.161888
0.158693
0.11554
0.109157
0.108398
0.113575
0.156492
0.152705
0.110206
0.107343
0.106559
0.107908
0.150143
0.145707
0.103886
0.105457
0.104664
0.101219
0.142746
0.137535
0.0964497
0.103561
0.102814
0.0934167
0.134138
0.128054
0.0879266
0.101804
0.101171
0.0846177
0.124223
0.11726
0.0786309
0.100369
0.0999123
0.0752229
0.11306
0.105379
0.0692051
0.0993967
0.0992932
0.065872
0.100936
0.0929546
0.0606575
0.0990756
0.0992061
0.0577521
0.088409
0.0809969
0.0538059
0.0992569
0.0995352
0.0516299
0.0767218
0.0704441
0.0490174
0.0997826
0.100164
0.0476233
0.0668793
0.0620454
0.0461747
0.100535
0.100994
0.0454323
0.0594233
0.0560085
0.0447891
0.101434
0.101956
0.044557
0.0542528
0.0519676
0.0443542
0.102439
0.103
0.0446468
0.0508147
0.0493191
0.0446439
0.103516
0.104112
0.0452098
0.0485416
0.0476077
0.0453901
0.104667
0.105303
0.0461343
0.0470529
0.0464725
0.0464536
0.105899
0.10658
0.0473377
0.0460608
0.0456317
0.047775
0.107219
0.107943
0.048779
0.0454133
0.0451108
0.0493596
0.108628
0.109393
0.0504898
0.0450597
0.0448524
0.051168
0.110118
0.110936
0.0523268
0.0449429
0.0448393
0.0530764
0.111717
0.112572
0.0543006
0.0450811
0.0450701
0.0551863
0.113391
0.114283
0.0564353
0.0454174
0.0454913
0.0573281
0.11515
0.116103
0.0586155
0.045952
0.046114
0.059578
0.117044
0.118086
0.0609631
0.0466922
0.0469469
0.0620688
0.119122
0.120263
0.0635237
0.0475957
0.0480721
0.0648893
0.121422
0.122652
0.0663635
0.0487062
0.0493313
0.0679082
0.12394
0.125272
0.069499
0.0500459
0.0508066
0.0711109
0.126656
0.128115
0.0728412
0.0515064
0.0523834
0.0745563
0.129626
0.131232
0.0763639
0.053105
0.0540438
0.0781716
0.132895
0.134653
0.0800984
0.0548253
0.0558287
0.0818848
0.136453
0.138371
0.0838796
0.0565931
0.0577005
0.0858207
0.140355
0.142467
0.0878394
0.0585256
0.059714
0.0898375
0.144709
0.147144
0.0921159
0.0607173
0.0619506
0.0943456
0.149797
0.152737
0.0967341
0.0632232
0.0648391
0.0993632
0.15601
0.159545
0.10176
0.066161
0.0679464
0.10441
0.163189
0.167449
0.107353
0.0692144
0.0707506
0.110241
0.170484
0.172084
0.111912
0.0716766
0.0723904
0.112222
0.17268
0.171297
0.111252
0.0724103
0.0715846
0.108329
0.167647
0.162324
0.103845
0.0695325
0.0664866
0.0969454
0.154753
0.14801
0.0893374
0.0619761
0.0581331
0.0792635
0.139951
0.134383
0.0704419
0.0550457
0.0533957
0.0641372
0.129904
0.129857
0.0601426
0.0544762
0.0657619
0.0590467
0.129294
0.133067
0.059288
0.0723217
0.0920348
0.0649378
0.133981
0.1367
0.068565
0.0978374
0.114871
0.0783337
0.139042
0.143245
0.0835454
0.117731
0.125607
0.0905886
0.14776
0.151664
0.0937408
0.126525
0.134157
0.097933
0.155784
0.158413
0.101962
0.139332
0.15311
0.109894
0.160895
0.161366
0.11619
0.163843
0.183629
0.126987
0.162703
0.162336
0.130744
0.191302
0.204214
0.136984
0.163398
0.16308
0.138838
0.209462
0.223871
0.144219
0.164419
0.164446
0.146708
0.234931
0.2599
0.154414
0.163129
0.162968
0.164616
0.291423
0.350497
0.191644
0.16729
0.168644
0.208385
0.381753
0.41563
0.224172
0.170332
0.167285
0.223985
0.425528
0.451366
0.225169
0.164614
0.161008
0.21404
0.443992
0.457855
0.204987
0.159076
0.154435
0.179719
0.431757
0.446528
0.167939
0.152434
0.150652
0.154766
0.439119
0.494026
0.158481
0.150711
0.150305
0.160399
0.529532
0.632635
0.171736
0.150735
0.150172
0.178357
0.693968
0.895955
0.19247
0.150337
0.149302
0.198119
1
1
0.213033
0.149053
0.147394
0.214213
1
1
0.231913
0.146768
0.145212
0.236229
1
1
0.271352
0.145971
0.145757
0.299815
0.880554
0.505428
0.446535
0.147349
0.144515
0.942996
0.33131
0.243225
0.514818
0.154949
0.203802
0.362136
0.203177
0.165608
0.288332
0.789328
0.0657222
0.049401
0.0291033
0.0229796
0.0199636
0.0154083
0.0140236
0.0123142
0.011736
0.0106439
0.0101846
0.00932997
0.00894097
0.00823151
0.0078974
0.00729784
0.00700904
0.00649551
0.00624322
0.00579356
0.00557269
0.00517958
0.00498647
0.00464163
0.00447218
0.00417144
0.0040229
0.00376002
0.00363028
0.00340098
0.00328891
0.00309103
0.00299524
0.00282588
0.00274246
0.00259831
0.00252197
0.00240089
0.00232949
0.00245231
0.0027908
0.00321885
0.00330694
0.00338374
0.00341472
0.0034308
0.00346126
0.00352899
0.00360322
0.00388894
0.00408981
0.00517113
0.00788193
0.0042649
0.00391114
0.00396675
0.00483672
0.0137234
0.021683
0.00678481
0.00418436
0.00429176
0.00750802
0.0318231
0.0410013
0.0102931
0.00468416
0.00475671
0.0112073
0.0493909
0.0578054
0.0144818
0.00528452
0.00526389
0.0153111
0.0660729
0.0734687
0.0194865
0.00604637
0.00610791
0.0205874
0.0800323
0.0854281
0.0250214
0.00725056
0.0072552
0.0258815
0.0898631
0.0932808
0.0301357
0.00872068
0.00892693
0.0311493
0.0959237
0.0979196
0.0350326
0.0106758
0.0107648
0.0357259
0.0993279
0.100386
0.0392282
0.0126392
0.0129048
0.0400674
0.101023
0.101577
0.0432995
0.0148081
0.0148982
0.0439054
0.101738
0.101963
0.046929
0.0168132
0.0170528
0.0476923
0.1019
0.102026
0.0505719
0.0189581
0.0190216
0.0511288
0.101626
0.101654
0.0538245
0.02095
0.0211812
0.0544742
0.101291
0.101314
0.0570051
0.0231166
0.0231413
0.0574018
0.100838
0.100851
0.0596994
0.0250692
0.0252462
0.0601297
0.100401
0.100502
0.0622314
0.0271431
0.0270714
0.0623753
0.0999085
0.100034
0.064206
0.0288821
0.0289555
0.0643408
0.0995458
0.0997031
0.0659353
0.0307163
0.0305091
0.0657617
0.0991011
0.0992066
0.0670562
0.0321371
0.0320516
0.0668409
0.0986487
0.098748
0.0679035
0.0335261
0.033141
0.0673511
0.0980266
0.098025
0.0680803
0.0344611
0.0341102
0.0674077
0.0972218
0.0970319
0.0677095
0.0350795
0.0343812
0.066583
0.0959451
0.0954207
0.0663295
0.035024
0.0340151
0.064626
0.0938347
0.0926854
0.0636169
0.0340947
0.0327984
0.0614066
0.0910294
0.0902482
0.0601407
0.0324183
0.0312628
0.0583772
0.0899043
0.0897544
0.0573199
0.0307143
0.0295781
0.0559144
0.0904322
0.0899692
0.0550206
0.0283831
0.0275473
0.053521
0.0904145
0.0839578
0.0398809
0.016047
0.0384481
0.0605426
0.0880873
0.0854837
0.0522847
0.0347111
0.0308679
0.0474201
0.0843594
0.0847587
0.0439027
0.0302955
0.0255018
0.0440503
0.0828171
0.0843848
0.0348383
0.0190822
0.0148608
0.0254042
0.0577476
0.052525
0.0221814
0.0117501
0.00995675
0.0187298
0.0489331
0.0467438
0.0156552
0.00707235
0.00941432
0.0164107
0.0472005
0.0451868
0.0154888
0.0089729
0.00773359
0.0131405
0.0422258
0.0391935
0.0113484
0.00694667
0.00567745
0.00972075
0.0363608
0.0335402
0.00836358
0.00525967
0.00391903
0.00709903
0.0309538
0.0289945
0.00664624
0.00429341
0.0039032
0.00585996
0.0270992
0.0251027
0.00475294
0.0034183
0.00284589
0.00449235
0.023721
0.0234232
0.00446294
0.00318416
0.00306181
0.00416594
0.023648
0.0253745
0.000755248
0.00323685
0.00524761
0.00894739
0.0294376
0.035916
0.0233615
0.00800301
0.0361003
0.040375
0.0414379
0.0437596
0.0473444
0.0489844
0.0558689
0.0536732
0.0490356
0.0743572
0.0719657
0.059498
0.0313969
0.0436036
0.0879865
0.0840517
0.0381956
0.0360055
0.0352431
0.0353255
0.0799296
0.0752118
0.0337285
0.0359873
0.033381
0.0331734
0.0716942
0.0693831
0.0319857
0.0318783
0.0321942
0.0312601
0.067053
0.0667095
0.0308983
0.030399
0.0298522
0.0311753
0.0673072
0.0673706
0.0309675
0.0303821
0.0293874
0.0321075
0.0694749
0.0713651
0.0347146
0.0295263
0.0299898
0.0353513
0.0714587
0.0775814
0.0433246
0.030905
0.0327509
0.0576478
0.117366
0.104201
0.0435995
0.0339767
0.0389966
0.0534336
0.11425
0.115792
0.0636486
0.0439004
0.0345606
0.0362669
0.104209
0.115203
0.0563935
0.0401671
0.0446613
0.064027
0.115469
0.104018
0.0368643
0.0354577
0.0403659
0.0563029
0.114126
0.114742
0.0642666
0.0448999
0.0356532
0.0368323
0.103243
0.114014
0.0566042
0.0413102
0.0458635
0.0645872
0.11518
0.103224
0.0380621
0.0368982
0.0423206
0.0576312
0.113743
0.113619
0.0681861
0.0480029
0.0386028
0.0444408
0.0979881
0.107949
0.0620472
0.0443319
0.0360107
0.0377452
0.0976025
0.108041
0.0557039
0.0408782
0.0446302
0.0630779
0.108764
0.098935
0.0374305
0.0361514
0.041222
0.056019
0.109501
0.109272
0.063129
0.0448972
0.0366013
0.0377717
0.0988389
0.109841
0.0569452
0.0422703
0.0471898
0.0669179
0.10991
0.0950917
0.0433347
0.0382225
0.0445871
0.06095
0.105685
0.0957883
0.0381647
0.0366072
0.0416443
0.0558441
0.106317
0.106047
0.0654413
0.0468416
0.0381118
0.0432236
0.0925566
0.102821
0.0601393
0.0434498
0.0356824
0.0368851
0.0932462
0.103255
0.053871
0.0401894
0.0442734
0.0616261
0.105339
0.0961793
0.037294
0.036292
0.0420718
0.0557997
0.107034
0.106807
0.0657049
0.0472314
0.0387324
0.0438245
0.0915808
0.101024
0.0622156
0.0454968
0.037657
0.0423993
0.0891521
0.0987258
0.0585562
0.0429557
0.0357531
0.0368371
0.0897192
0.101049
0.0541701
0.0408678
0.0456992
0.0635802
0.102076
0.0896386
0.0423933
0.0374417
0.0434499
0.0585894
0.098976
0.0897792
0.0365388
0.0359128
0.041139
0.0539658
0.10097
0.101981
0.0641296
0.0466416
0.0384135
0.0437234
0.0878871
0.0962033
0.0607559
0.0445735
0.0370586
0.0412578
0.084641
0.0948526
0.056997
0.0424154
0.035723
0.0363598
0.0870083
0.0978758
0.0530849
0.0406521
0.0456643
0.0629671
0.0990704
0.0853164
0.0422452
0.0376173
0.0436407
0.0593873
0.0943249
0.0838643
0.0404692
0.0363945
0.0420792
0.0563867
0.0944359
0.0864609
0.0361713
0.0352219
0.0402046
0.0524661
0.0969376
0.0974419
0.0622133
0.0455135
0.0375666
0.0422578
0.0837831
0.0929212
0.0592541
0.0437684
0.036546
0.0406388
0.0823267
0.0921317
0.0559997
0.0417857
0.035067
0.0353373
0.0840686
0.0948713
0.0516716
0.0399712
0.0450847
0.0614416
0.0957489
0.0825907
0.0419065
0.0375673
0.0438629
0.0592421
0.0919072
0.0800348
0.0413317
0.0367286
0.0424751
0.057465
0.088767
0.0789789
0.0396211
0.0357094
0.0408771
0.0547945
0.0892245
0.0822017
0.0350186
0.0345383
0.0396491
0.0512297
0.0934117
0.0947372
0.0604856
0.0446341
0.0371937
0.0409216
0.0820616
0.0908932
0.0578822
0.0436609
0.0369173
0.0409037
0.0794528
0.0887387
0.0573395
0.0429867
0.0366074
0.0409045
0.0778973
0.0863705
0.0563425
0.0423167
0.0358247
0.0393729
0.0770323
0.0863756
0.0535467
0.0405658
0.0346899
0.0347178
0.0795116
0.089538
0.0498379
0.0392224
0.0438642
0.0589733
0.0913125
0.0792646
0.0406165
0.0369392
0.0428682
0.0567571
0.087455
0.076543
0.0402005
0.0364819
0.0419759
0.0557171
0.0853221
0.0750541
0.0399876
0.0359143
0.0412119
0.0547712
0.0831933
0.0746109
0.038603
0.0351139
0.0398174
0.0526697
0.0843704
0.0779071
0.0342246
0.0339739
0.0385648
0.0492929
0.0880966
0.0890141
0.0579818
0.0432015
0.0363528
0.0398468
0.0773931
0.0860959
0.0558425
0.0424194
0.0362319
0.0399485
0.0753132
0.0841602
0.0554556
0.0418371
0.0357805
0.0396867
0.0739878
0.0819059
0.0541035
0.0410955
0.0351721
0.0384344
0.0733775
0.0826497
0.0519289
0.0396688
0.0341881
0.0340174
0.0763213
0.0862198
0.0485433
0.0383932
0.0427459
0.0571038
0.08767
0.0761584
0.0394093
0.0362237
0.0418653
0.0548252
0.0844355
0.0740839
0.0393503
0.0359534
0.0411953
0.0542194
0.0822376
0.0724169
0.0390491
0.0354369
0.0404258
0.0532266
0.0803664
0.0721416
0.0378457
0.0347089
0.0391652
0.0513231
0.0813268
0.0752374
0.0336855
0.0337398
0.0381393
0.0482873
0.0855759
0.0863851
0.0567282
0.042585
0.036121
0.0395592
0.0747783
0.0831619
0.054999
0.0419066
0.0359384
0.0393926
0.0728888
0.0811403
0.0541631
0.0411822
0.0356197
0.0392615
0.0712883
0.0794936
0.0532124
0.0406266
0.0351302
0.0379785
0.0715098
0.0806704
0.0509667
0.0393498
0.0343287
0.0340978
0.0745784
0.0833746
0.0477032
0.0381725
0.0422827
0.0562463
0.0844363
0.0730619
0.0391739
0.0362057
0.0416015
0.0540417
0.0814611
0.0713372
0.0393438
0.0360887
0.0411081
0.0536448
0.0794224
0.0700096
0.039182
0.0356726
0.0403927
0.0527904
0.0779821
0.0701651
0.0378204
0.0349854
0.0391064
0.0506053
0.0791127
0.0730084
0.0337786
0.0341794
0.0381865
0.0475064
0.0828756
0.0840123
0.0557765
0.0422305
0.0363636
0.0397046
0.0728437
0.0804334
0.0540322
0.0415872
0.0360755
0.039482
0.0705716
0.0784826
0.0529292
0.0405879
0.0354309
0.0377419
0.0704637
0.0793151
0.0503066
0.0395385
0.0349297
0.0343696
0.0733005
0.082041
0.0474624
0.0384232
0.0423028
0.0554557
0.083051
0.0722432
0.039792
0.0366958
0.0414337
0.0535714
0.0792403
0.0697207
0.0394068
0.0362695
0.0408025
0.0525182
0.0773777
0.069917
0.038506
0.0359011
0.0398255
0.0507922
0.0785769
0.0724662
0.0349394
0.035328
0.0387685
0.0476565
0.0813347
0.0818984
0.0555075
0.0422948
0.0367505
0.0398238
0.0712381
0.0783582
0.0531209
0.0414262
0.036411
0.0385906
0.0701561
0.0789279
0.0510326
0.0403344
0.0359418
0.0353267
0.0728323
0.0813114
0.0477998
0.0392113
0.0425704
0.0555325
0.0820758
0.0713418
0.0402234
0.0372311
0.0416728
0.0532562
0.0781488
0.070002
0.0387597
0.0368142
0.0405432
0.0508715
0.078597
0.0727152
0.0358372
0.0364647
0.0397712
0.0481687
0.0813657
0.0817783
0.0557973
0.0429846
0.037814
0.0406547
0.071278
0.078025
0.0532729
0.0420728
0.037456
0.0394083
0.0697682
0.0782683
0.0512383
0.0408883
0.0369527
0.0364351
0.0725001
0.0801206
0.0483067
0.0398443
0.0428423
0.0552798
0.0807531
0.0717866
0.0401776
0.0379012
0.041612
0.0519048
0.0787691
0.0721843
0.0366019
0.0372987
0.0406119
0.0488245
0.0805415
0.0814191
0.0559085
0.0437215
0.0389818
0.0411958
0.0726618
0.0799831
0.0527663
0.0423641
0.0380609
0.0375102
0.0733019
0.080569
0.0491085
0.0409923
0.0439525
0.0557123
0.0804031
0.0722049
0.0415137
0.0395325
0.0431405
0.0532112
0.0803658
0.0741519
0.03897
0.039175
0.0417515
0.049972
0.0810989
0.0804509
0.0561871
0.0444479
0.0398159
0.0418433
0.0717407
0.0794172
0.0532108
0.0433289
0.0395862
0.0393027
0.0738784
0.0797925
0.0497811
0.041848
0.0437586
0.0546908
0.0820162
0.0746585
0.039004
0.0393864
0.0422234
0.0500753
0.080547
0.0819288
0.0554246
0.0443915
0.040376
0.0404284
0.0763821
0.0820109
0.0512331
0.0431397
0.0448841
0.055988
0.0828694
0.0753503
0.0401437
0.0403461
0.0436313
0.0513488
0.0813404
0.0833769
0.0565785
0.045439
0.0411253
0.0415151
0.0770573
0.0815958
0.0517686
0.0437549
0.0454701
0.0564944
0.0814629
0.074658
0.0406176
0.0408208
0.0435701
0.0519224
0.0816186
0.0836583
0.0564052
0.0446846
0.0397181
0.0398547
0.0757426
0.0811261
0.0504587
0.0417275
0.0432666
0.0552395
0.0851209
0.0785281
0.0360299
0.0382359
0.0396026
0.0464727
0.0823988
0.083316
0.0482109
0.0401148
0.0422007
0.0554134
0.0886814
0.0814424
0.0308163
0.0360984
0.0371179
0.0415001
0.0853624
0.0830496
0.0423272
0.0378576
0.03916
0.0447452
0.0835731
0.0776848
0.0451877
0.0408075
0.0432502
0.049067
0.0799586
0.0792459
0.0536462
0.0463579
0.0499972
0.0621881
0.0825831
0.0811511
0.0523649
0.0442895
0.0488008
0.0611031
0.0887175
0.0897303
0.0636916
0.050486
0.0518672
0.0656709
0.0917602
0.0927415
0.0673533
0.0530448
0.0540582
0.0688137
0.0940736
0.0947659
0.0700922
0.0549618
0.0557559
0.0712096
0.095669
0.0961664
0.072199
0.0564839
0.057132
0.0730875
0.0968398
0.0972255
0.0738674
0.0577037
0.0582385
0.074585
0.0977223
0.0980313
0.0752124
0.0586984
0.0591454
0.0758048
0.0984101
0.0986645
0.0763205
0.0595218
0.0599
0.0768163
0.0989609
0.0991717
0.0772449
0.0602042
0.0605353
0.0776651
0.0994085
0.0995861
0.0780253
0.0607899
0.0610673
0.0783845
0.0997798
0.0999292
0.0786897
0.0612807
0.0615207
0.0789976
0.10009
0.100218
0.0792595
0.0616977
0.0619066
0.0795268
0.100353
0.10046
0.0797501
0.0620472
0.0622348
0.079984
0.100574
0.100666
0.0801748
0.0623516
0.06251
0.0803811
0.100764
0.100841
0.0805436
0.062602
0.062744
0.0807251
0.100925
0.100991
0.0808636
0.0628179
0.0629379
0.0810241
0.101065
0.10112
0.0811409
0.0629915
0.0630987
0.081282
0.101184
0.101231
0.0813802
0.0631387
0.0632274
0.0815045
0.101288
0.101326
0.081586
0.0632508
0.0633307
0.0816942
0.101375
0.101407
0.081761
0.0633421
0.0634072
0.081856
0.10145
0.101476
0.0819092
0.063404
0.0634634
0.0819915
0.101512
0.101533
0.0820326
0.0634508
0.0634966
0.0821044
0.101566
0.101582
0.0821343
0.0634718
0.0635141
0.0821961
0.101609
0.101622
0.0822158
0.063482
0.0635115
0.0822691
0.101646
0.101654
0.0822794
0.0634699
0.0634963
0.0823243
0.101674
0.101679
0.0823262
0.063449
0.0634647
0.0823639
0.101697
0.101699
0.082358
0.0634089
0.0634226
0.0823885
0.101713
0.101713
0.0823755
0.0633622
0.0633661
0.0823997
0.101725
0.101721
0.0823808
0.0633029
0.0632985
0.0823976
0.101731
0.101726
0.082374
0.0632322
0.0632219
0.0823847
0.101733
0.101726
0.082356
0.0631517
0.0631354
0.0823604
0.101731
0.101722
0.0823276
0.0630616
0.0630411
0.0823269
0.101725
0.101714
0.0822894
0.0629633
0.062938
0.0822831
0.101715
0.101703
0.0822419
0.0628566
0.062828
0.0822313
0.101702
0.101688
0.0821858
0.062743
0.0627102
0.0821706
0.101686
0.101671
0.0821219
0.062622
0.0625865
0.082103
0.101667
0.101651
0.0820498
0.0624906
0.0624583
0.0820278
0.101645
0.101628
0.0819704
0.0623594
0.0623213
0.0819456
0.101621
0.101602
0.0818844
0.0622167
0.0621814
0.0818566
0.101594
0.101574
0.0817916
0.0620748
0.0620333
0.0817611
0.101565
0.101543
0.0816931
0.0619269
0.0618803
0.0816589
0.101533
0.10151
0.0815889
0.0617736
0.0617239
0.0815519
0.1015
0.101476
0.0814788
0.0616109
0.0615652
0.0814391
0.101463
0.101439
0.0813628
0.0614501
0.0613992
0.0813209
0.101426
0.1014
0.0812422
0.0612846
0.0612291
0.0811971
0.101385
0.101359
0.0811167
0.0611145
0.0610562
0.0810687
0.101344
0.101316
0.0809861
0.0609409
0.0608793
0.080935
0.101299
0.101271
0.0808509
0.0607633
0.0606998
0.0807974
0.101254
0.101225
0.080711
0.0605826
0.0605163
0.0806543
0.101206
0.101177
0.0805667
0.0603984
0.0603303
0.0805075
0.101158
0.101128
0.080418
0.0602114
0.0601405
0.0803555
0.101107
0.101077
0.0802648
0.060021
0.0599487
0.0802
0.101055
0.101024
0.0801074
0.059828
0.0597533
0.0800395
0.101001
0.100969
0.0799453
0.0596317
0.0595559
0.0798754
0.100946
0.100914
0.0797791
0.059433
0.0593553
0.0797066
0.100889
0.100856
0.0796088
0.0592314
0.0591527
0.0795341
0.100832
0.100798
0.0794338
0.0590226
0.0589497
0.0793575
0.100772
0.100737
0.0792545
0.0588175
0.0587408
0.0791766
0.100711
0.100676
0.079071
0.0586044
0.058532
0.0789912
0.100648
0.100612
0.0788829
0.0583949
0.0583175
0.0788013
0.100584
0.100547
0.0786909
0.0581822
0.058101
0.0786064
0.100518
0.10048
0.0784947
0.0579668
0.0578833
0.0784079
0.10045
0.100412
0.078294
0.0577494
0.0576633
0.0782041
0.100381
0.100342
0.0780891
0.0575298
0.0574425
0.077997
0.10031
0.10027
0.0778797
0.0573038
0.0572223
0.0777851
0.100237
0.100197
0.0776652
0.0570825
0.0569975
0.077569
0.100164
0.100122
0.0774469
0.0568545
0.0567742
0.0773482
0.100087
0.100045
0.0772231
0.0566312
0.0565467
0.0771227
0.100009
0.0999657
0.0769956
0.0564064
0.0563189
0.0768919
0.0999291
0.0998849
0.0767632
0.0561808
0.0560918
0.076657
0.0998475
0.099802
0.0765262
0.055955
0.0558646
0.0764166
0.0997632
0.0997174
0.0762842
0.0557293
0.055639
0.0761722
0.099678
0.0996308
0.0760376
0.0554999
0.0554163
0.0759228
0.0995899
0.099542
0.0757851
0.0552774
0.0551918
0.0756683
0.0995003
0.099451
0.0755282
0.0550513
0.0549713
0.0754086
0.0994076
0.0993575
0.0752653
0.0548327
0.0547502
0.0751438
0.0993135
0.0992623
0.0749984
0.0546115
0.0545301
0.0748743
0.0992171
0.0991651
0.0747264
0.0543963
0.0543137
0.0745995
0.0991188
0.0990652
0.0744493
0.0541833
0.0541001
0.0743189
0.0990174
0.098963
0.0741669
0.0539728
0.0538949
0.0740337
0.098914
0.0988579
0.073879
0.0537638
0.0536916
0.0737434
0.0988072
0.0987503
0.0735856
0.053564
0.0534901
0.0734481
0.0986985
0.0986399
0.0732881
0.053368
0.0532937
0.0731473
0.0985867
0.0985275
0.0729857
0.0531765
0.0531034
0.0728427
0.0984734
0.0984125
0.0726791
0.0529858
0.0529201
0.0725331
0.0983565
0.0982946
0.0723667
0.0528057
0.0527393
0.072219
0.0982373
0.0981736
0.0720507
0.0526303
0.0525645
0.0719002
0.0981148
0.0980502
0.0717307
0.0524604
0.0523963
0.0715784
0.0979899
0.0979233
0.0714072
0.0522961
0.0522336
0.0712523
0.097861
0.0977931
0.0710802
0.0521372
0.0520772
0.070924
0.097729
0.0976591
0.0707387
0.0519867
0.0519291
0.0705884
0.0975942
0.097523
0.0704061
0.0518415
0.0517873
0.0702643
0.0974573
0.0973828
0.0700763
0.0517008
0.0516575
0.0699284
0.0973154
0.0972392
0.0697443
0.0515743
0.0515339
0.0695944
0.0971703
0.0970919
0.0694135
0.051454
0.0514225
0.0692616
0.0970203
0.0969405
0.0690828
0.0513489
0.0513197
0.0689315
0.0968668
0.0967847
0.0687553
0.0512516
0.0512312
0.0686039
0.0967081
0.0966243
0.0684298
0.0511707
0.0511532
0.0682802
0.0965455
0.0964591
0.0681091
0.0510996
0.0510915
0.0679604
0.0963772
0.0962889
0.0677921
0.0510468
0.0510427
0.0676464
0.0962046
0.0961138
0.0674819
0.051006
0.0510121
0.0673381
0.0960267
0.095934
0.0671774
0.0509851
0.0509964
0.0670379
0.0958447
0.0957493
0.066882
0.0509781
0.0510008
0.0667458
0.095657
0.0955595
0.0665954
0.0509926
0.0510221
0.0664657
0.095465
0.0953651
0.0663226
0.0510228
0.0510648
0.0661994
0.0952686
0.0951687
0.0660644
0.0510755
0.0511254
0.0659505
0.0950735
0.0949757
0.0658248
0.0511452
0.0512058
0.0657199
0.0948833
0.0947898
0.0656028
0.0512372
0.0513092
0.0655076
0.0947032
0.0946168
0.0654004
0.0513475
0.0514322
0.0653157
0.09454
0.0944672
0.065219
0.0514808
0.0515742
0.0651463
0.0944075
0.0943545
0.0650602
0.0516319
0.0517365
0.064998
0.0943181
0.0942931
0.0649206
0.0518057
0.0519216
0.064868
0.0942899
0.0943048
0.064799
0.051998
0.0521255
0.0647553
0.0943357
0.0943646
0.0646924
0.0522139
0.0523521
0.0646564
0.0943975
0.094429
0.0645999
0.0524519
0.0526015
0.0645715
0.0944647
0.0944995
0.0645222
0.0527131
0.0528766
0.064502
0.0945384
0.0945754
0.06446
0.052997
0.0531758
0.0644487
0.0946173
0.0946583
0.0644153
0.0533083
0.0534996
0.0644145
0.0947043
0.0947482
0.0643892
0.0536439
0.0538509
0.064397
0.0947973
0.0948451
0.0643803
0.0540089
0.0542284
0.0643991
0.0948982
0.0949492
0.064391
0.0544011
0.0546344
0.0644206
0.0950067
0.0950632
0.0644234
0.0548227
0.0550703
0.0644643
0.0951261
0.0951867
0.0644775
0.0552727
0.0555382
0.0645292
0.0952546
0.0953214
0.0645541
0.0557574
0.056037
0.0646171
0.0953943
0.095464
0.0646518
0.0562747
0.05657
0.0647263
0.0955416
0.095618
0.0647739
0.0568268
0.0571396
0.0648605
0.0957018
0.0957831
0.0649198
0.057415
0.0577467
0.0650186
0.0958732
0.0959621
0.0650909
0.0580422
0.0583943
0.0652021
0.0960595
0.0961557
0.0652874
0.0587101
0.0590832
0.0654107
0.0962614
0.0963657
0.0655069
0.0594224
0.0598174
0.0656407
0.0964786
0.0965898
0.065747
0.06018
0.0605991
0.0658905
0.0967115
0.0968339
0.0660062
0.0609883
0.0614327
0.0661576
0.0969674
0.097101
0.0662785
0.0618506
0.0623226
0.0664329
0.0972472
0.0973939
0.066566
0.0627734
0.063277
0.0667442
0.0975507
0.0977059
0.066898
0.0637628
0.064299
0.0670978
0.0978715
0.0980377
0.0672765
0.0648234
0.0653971
0.0675007
0.098215
0.0983918
0.0677033
0.0659624
0.0665732
0.0679536
0.0985789
0.098767
0.0681874
0.0671807
0.0678347
0.0684692
0.0989659
0.0991646
0.0687336
0.0684873
0.0691828
0.0690475
0.0993744
0.0995863
0.0693482
0.0698838
0.0706306
0.0696995
0.0998103
0.100036
0.0700372
0.0713852
0.0721815
0.0704281
0.100275
0.100517
0.0708092
0.0729937
0.0738517
0.0712444
0.100772
0.101029
0.0716699
0.0747279
0.0756458
0.0721526
0.1013
0.101575
0.0726277
0.076588
0.0775789
0.0731645
0.101863
0.102156
0.073691
0.0785909
0.0796586
0.0742845
0.102463
0.102775
0.0748698
0.0807483
0.0818978
0.0755262
0.103101
0.103432
0.0761761
0.0830738
0.0843142
0.0769013
0.103782
0.104136
0.0776238
0.0855844
0.0869227
0.0784237
0.104508
0.104885
0.0792202
0.088298
0.0897447
0.0801016
0.105283
0.105687
0.0809814
0.0912324
0.0928002
0.0819567
0.106113
0.106546
0.0829319
0.0944169
0.096129
0.0840101
0.107006
0.107472
0.0850898
0.0978851
0.0997399
0.0862831
0.107962
0.108459
0.08748
0.101659
0.103681
0.0887996
0.108986
0.10952
0.09013
0.105769
0.10798
0.0915896
0.110083
0.110652
0.0930673
0.110263
0.112692
0.0946901
0.111258
0.11187
0.0963442
0.115205
0.117882
0.0981595
0.112517
0.113176
0.100018
0.120663
0.123635
0.102057
0.113893
0.114631
0.104152
0.126725
0.130018
0.106442
0.115419
0.116221
0.10879
0.133463
0.137154
0.111357
0.117086
0.117965
0.114003
0.141014
0.145162
0.116914
0.11891
0.119886
0.119956
0.149534
0.154263
0.123323
0.120979
0.122115
0.126815
0.159239
0.16458
0.130618
0.123327
0.12454
0.134551
0.170238
0.176401
0.138864
0.125857
0.127287
0.143564
0.183002
0.190279
0.148781
0.128936
0.130689
0.154403
0.198079
0.20656
0.160469
0.132551
0.134367
0.166696
0.215553
0.225524
0.173684
0.136352
0.138678
0.181592
0.236539
0.24922
0.190696
0.14151
0.144543
0.200658
0.263081
0.278424
0.211333
0.147604
0.150583
0.222608
0.294981
0.314049
0.235871
0.154358
0.159195
0.251942
0.336727
0.363663
0.270732
0.164806
0.170431
0.291337
0.394372
0.428222
0.313663
0.175885
0.183431
0.340798
0.469194
0.522069
0.375739
0.192771
0.205086
0.420558
0.591652
0.673191
0.470351
0.215924
0.231083
0.534665
0.780959
0.925811
0.61707
0.248389
0.276861
0.748676
1
1
0.929742
0.307086
0.351042
1
1
1
1
0.407945
0.512693
1
1
1
1
0.687359
1
1
1
1
1
1
1
1
1
0.962452
1
1
0.905057
0.817443
0.804145
0.693422
0.683454
0.657449
0.521782
0.587105
0.607695
0.54139
0.51457
0.436916
0.380287
0.459275
0.488276
0.445308
0.414883
0.339145
0.308401
0.379042
0.409109
0.378442
0.348686
0.283636
0.264383
0.32371
0.35228
0.329676
0.30185
0.248159
0.234992
0.283383
0.309785
0.292154
0.266773
0.223357
0.213757
0.25263
0.276616
0.262691
0.239691
0.205156
0.19785
0.228491
0.250101
0.238662
0.218053
0.191108
0.185373
0.209022
0.228403
0.218951
0.200502
0.180037
0.175404
0.193056
0.210342
0.202345
0.185963
0.171006
0.167189
0.179787
0.19509
0.188281
0.173836
0.163549
0.160321
0.168599
0.182037
0.176131
0.163508
0.157196
0.15444
0.159039
0.170739
0.165609
0.154653
0.151784
0.149397
0.150778
0.160889
0.156367
0.146953
0.147056
0.144964
0.143592
0.152228
0.148242
0.140246
0.142932
0.141088
0.137297
0.144577
0.141021
0.134337
0.139259
0.137601