/*--------------------------------*- C++ -*----------------------------------*\
| =========                 |                                                 |
| \\      /  F ield         | OpenFOAM: The Open Source CFD Toolbox           |
|  \\    /   O peration     | Version:  v2006                                 |
|   \\  /    A nd           | Website:  www.openfoam.com                      |
|    \\/     M anipulation  |                                                 |
\*---------------------------------------------------------------------------*/
FoamFile
{
    version     2.0;
    format      ascii;
    class       volScalarField;
    location    "0.093";
    object      nut;
}
// * * * * * * * * * * * * * * * * * * * * * * * * * * * * * * * * * * * * * //

dimensions      [0 2 -1 0 0 0 0];


internalField   nonuniform List<scalar> 
16277
(
25.2178
18.9314
52.3481
13.3867
19.3308
9.72905
3.7722
1.52424
0.820006
0.55336
0.435134
0.375065
0.339083
0.313015
0.291143
0.271485
0.253588
0.237481
0.22319
0.210618
0.199572
0.189821
0.181146
0.173358
0.166308
0.159883
0.153995
0.148579
0.143579
0.138953
0.134663
0.130678
0.126972
0.123521
0.120305
0.117308
0.114512
0.111907
0.10948
0.107219
0.105117
0.103165
0.101355
0.0996816
0.0981391
0.0967228
0.0954285
0.0942529
0.0931933
0.0922478
0.0914149
0.0906941
0.0900852
0.0895886
0.089204
0.0889353
0.088785
0.0887566
0.0888547
0.0890816
0.0894449
0.0899521
0.090612
0.0914358
0.0924358
0.0936268
0.0950265
0.0966567
0.0985444
0.100725
0.103245
0.106165
0.109565
0.113536
0.11817
0.123528
0.129615
0.136384
0.143898
0.152813
0.165438
0.18832
0.238282
0.35914
0.668893
1.40637
2.48344
2.65595
1.57384
1.03971
0.511874
0.23338
0.126893
0.0598649
0.0141836
0.00255185
8.45543e-05
7.33876e-05
0.00119942
0.00552393
0.00304385
0.000777232
6.4281e-05
5.75594e-05
0.000708652
0.0025597
0.0020425
0.000609132
5.31904e-05
4.97641e-05
0.000590344
0.00193701
0.00167605
0.000531766
4.68456e-05
4.48784e-05
0.000522632
0.00163262
0.00148599
0.000487045
4.29388e-05
4.18903e-05
0.000489989
0.00147089
0.00137594
0.000463936
4.0609e-05
3.99202e-05
0.000468106
0.00136752
0.00129544
0.000447126
3.89748e-05
3.84986e-05
0.000451263
0.00129168
0.00123209
0.000433466
3.77598e-05
3.74144e-05
0.000437484
0.00123092
0.0011793
0.000421822
3.68144e-05
3.65546e-05
0.000425823
0.0011798
0.00113386
0.000411598
3.60471e-05
3.58423e-05
0.000415615
0.00113545
0.00109377
0.000402367
3.53964e-05
3.52295e-05
0.000406336
0.00109609
0.00105777
0.000393854
3.48287e-05
3.46883e-05
0.000397773
0.00106061
0.00102507
0.000385931
3.43204e-05
3.41987e-05
0.000389809
0.00102829
0.000995102
0.000378524
3.38556e-05
3.37476e-05
0.000382367
0.000998661
0.000967437
0.00037157
3.3424e-05
3.33265e-05
0.000375375
0.000971296
0.000941811
0.00036501
3.30185e-05
3.29291e-05
0.000368776
0.000945927
0.000917993
0.000358798
3.26339e-05
3.25508e-05
0.000362527
0.000922336
0.000895814
0.000352903
3.22662e-05
3.21883e-05
0.000356602
0.000900357
0.000875122
0.000347311
3.19127e-05
3.18391e-05
0.000350982
0.000879827
0.000855753
0.000341998
3.15713e-05
3.15016e-05
0.000345638
0.000860582
0.000837545
0.000336933
3.12405e-05
3.11741e-05
0.000340541
0.000842463
0.000820359
0.000332089
3.09184e-05
3.08548e-05
0.000335662
0.000825336
0.000804068
0.000327439
3.06037e-05
3.05424e-05
0.000330973
0.000809083
0.000788569
0.000322955
3.02947e-05
3.02353e-05
0.000326448
0.000793597
0.000773764
0.000318612
2.99902e-05
2.99322e-05
0.00032206
0.000778787
0.00075957
0.000314386
2.96888e-05
2.96317e-05
0.000317786
0.000764574
0.000745919
0.000310258
2.93893e-05
2.93328e-05
0.000313608
0.000750889
0.000732744
0.000306211
2.90904e-05
2.90341e-05
0.000309509
0.000737671
0.000719994
0.000302229
2.8791e-05
2.87346e-05
0.000305474
0.000724868
0.00070762
0.0002983
2.84901e-05
2.84332e-05
0.000301492
0.000712441
0.000695594
0.000294414
2.81866e-05
2.81291e-05
0.000297555
0.000700357
0.000683887
0.000290566
2.78798e-05
2.78214e-05
0.000293656
0.000688595
0.000672481
0.000286751
2.75689e-05
2.75095e-05
0.000289803
0.000677137
0.000661364
0.000282973
2.72531e-05
2.71928e-05
0.000286018
0.000665978
0.000650537
0.000279243
2.69323e-05
2.68711e-05
0.000282272
0.000655116
0.000639996
0.000275549
2.66061e-05
2.6544e-05
0.000278574
0.000644549
0.000629745
0.000271903
2.62741e-05
2.62112e-05
0.000274937
0.000634286
0.000619801
0.00026832
2.59364e-05
2.58731e-05
0.000271379
0.000624353
0.000610199
0.000264824
2.55934e-05
2.55299e-05
0.000267926
0.000614791
0.000600985
0.00026144
2.52456e-05
2.51826e-05
0.000264612
0.000605737
0.000592257
0.000258211
2.48943e-05
2.48326e-05
0.000261483
0.000597274
0.000584095
0.000255185
2.45413e-05
2.44821e-05
0.000258588
0.00058941
0.000576568
0.000252416
2.41891e-05
2.41337e-05
0.00025599
0.000582282
0.000569823
0.00024997
2.38407e-05
2.37911e-05
0.000253761
0.00057605
0.000564036
0.000247929
2.35001e-05
2.34591e-05
0.000251988
0.000570897
0.000559399
0.000246396
2.3172e-05
2.31443e-05
0.000250711
0.00056702
0.000556136
0.000245444
2.28667e-05
2.28483e-05
0.000249832
0.000564564
0.000554316
0.000244846
2.25962e-05
2.25805e-05
0.000249371
0.000563812
0.000554215
0.000244737
2.23598e-05
2.23464e-05
0.000249399
0.000564775
0.00055581
0.000245156
2.2177e-05
2.21544e-05
0.0002499
0.000567346
0.000559038
0.000246089
2.20458e-05
2.20165e-05
0.000250805
0.000571307
0.00056359
0.000247299
2.19201e-05
2.19334e-05
0.000251939
0.000576548
0.000569402
0.000248581
2.18387e-05
2.18884e-05
0.00025306
0.00058287
0.000576194
0.000249887
2.18045e-05
2.18981e-05
0.000254003
0.000589536
0.000583112
0.000251019
2.18288e-05
2.19529e-05
0.000254782
0.000595928
0.000589632
0.000251841
2.1898e-05
2.2046e-05
0.000255528
0.000601757
0.000595582
0.000252499
2.20058e-05
2.21748e-05
0.000256123
0.000606892
0.000600859
0.000253104
2.21488e-05
2.23346e-05
0.000256663
0.000611281
0.000605361
0.00025344
2.23205e-05
2.25162e-05
0.000257065
0.000615
0.000608953
0.000253658
2.25131e-05
2.27138e-05
0.000257338
0.000617893
0.000611472
0.000253773
2.27201e-05
2.29203e-05
0.000257478
0.000620334
0.000613224
0.000253817
2.29343e-05
2.31291e-05
0.000257536
0.000621821
0.000614014
0.000253664
2.31491e-05
2.33346e-05
0.000257515
0.0006223
0.000613353
0.000253245
2.33589e-05
2.35313e-05
0.000257114
0.000621526
0.000611917
0.000252694
2.35568e-05
2.37122e-05
0.000256571
0.000619923
0.000609869
0.000252078
2.37372e-05
2.38736e-05
0.000255946
0.000617616
0.000607234
0.00025144
2.38967e-05
2.40132e-05
0.000255261
0.000614646
0.000604078
0.000250804
2.40332e-05
2.41298e-05
0.000254554
0.000611115
0.000600501
0.000250186
2.41461e-05
2.4224e-05
0.000253843
0.000607146
0.000596573
0.000249589
2.42362e-05
2.42972e-05
0.000253129
0.0006028
0.000592366
0.000249
2.43053e-05
2.43482e-05
0.000252407
0.000598201
0.000587898
0.000248403
2.43545e-05
2.43833e-05
0.000251669
0.000593478
0.000583332
0.000247787
2.43879e-05
2.44051e-05
0.000250911
0.000588686
0.000578726
0.00024715
2.44077e-05
2.44177e-05
0.000250145
0.000583939
0.000574094
0.000246451
2.44147e-05
2.44209e-05
0.000249353
0.000579208
0.000569445
0.00024567
2.44078e-05
2.44128e-05
0.000248539
0.000574472
0.000564808
0.000244882
2.43934e-05
2.43974e-05
0.00024772
0.000569753
0.000560186
0.000244082
2.43729e-05
2.43758e-05
0.000246883
0.000565048
0.000555572
0.000243254
2.43471e-05
2.43489e-05
0.000246011
0.000560351
0.000550916
0.000242386
2.43166e-05
2.43176e-05
0.000245098
0.000555641
0.000546227
0.000241476
2.42822e-05
2.42825e-05
0.000244145
0.000550925
0.000541557
0.000240528
2.42439e-05
2.42429e-05
0.000243168
0.000546223
0.000536907
0.000239539
2.42014e-05
2.42e-05
0.000242157
0.000541534
0.000532273
0.000238512
2.41464e-05
2.4164e-05
0.000241136
0.000536893
0.000527292
0.000237454
2.40875e-05
2.41153e-05
0.000239856
0.0005325
0.000523156
0.000235748
2.39969e-05
2.41441e-05
0.000239991
0.00053109
0.000524651
0.000239689
2.40828e-05
2.44773e-05
0.000240114
0.000530532
0.000555656
0.000252498
2.46603e-05
2.62728e-05
0.000236778
0.000540163
0.000824847
0.000344152
2.96324e-05
3.19789e-05
0.00017848
0.000409698
0.00101068
0.00231591
0.00432922
0.006172
0.00743301
0.00977015
0.0112623
0.0126013
0.0133551
0.0137157
0.0136145
0.0130088
0.0121466
0.0107635
0.0094074
0.00735145
0.00642332
0.00467389
0.0034969
0.00237511
0.00135009
0.000619869
0.000225854
9.38785e-05
1.81409e-05
1.1856e-05
8.73398e-05
0.000204831
0.000193633
8.27766e-05
1.13857e-05
1.09353e-05
7.97028e-05
0.000183189
0.000183817
7.862e-05
1.08044e-05
1.07341e-05
7.81205e-05
0.00018147
0.000180985
7.73901e-05
1.06317e-05
1.06223e-05
7.73343e-05
0.000181121
0.000181546
7.73863e-05
1.06381e-05
1.06396e-05
7.74931e-05
0.00018194
0.000182202
7.76159e-05
1.06564e-05
1.06644e-05
7.77335e-05
0.000182744
0.000182997
7.78511e-05
1.06736e-05
1.06902e-05
7.79852e-05
0.000183567
0.000183873
7.81182e-05
1.06831e-05
1.07014e-05
7.82952e-05
0.000184474
0.000184803
7.84089e-05
1.07103e-05
1.07308e-05
7.85932e-05
0.000185442
0.000185745
7.86845e-05
1.0732e-05
1.07371e-05
7.89347e-05
0.000186397
0.000186696
7.89901e-05
1.07608e-05
1.07648e-05
7.9217e-05
0.000187367
0.000187681
7.93164e-05
1.0775e-05
1.07779e-05
7.95361e-05
0.000188352
0.000188663
7.96162e-05
1.08028e-05
1.08059e-05
7.98472e-05
0.00018936
0.000189714
7.99739e-05
1.08173e-05
1.08223e-05
8.02179e-05
0.000190466
0.000190814
8.03278e-05
1.08497e-05
1.08544e-05
8.05632e-05
0.000191554
0.000191906
8.06927e-05
1.0866e-05
1.08703e-05
8.09491e-05
0.000192689
0.000193047
8.10643e-05
1.0898e-05
1.09027e-05
8.13091e-05
0.000193798
0.000194155
8.14411e-05
1.09145e-05
1.09184e-05
8.16934e-05
0.00019494
0.000195304
8.18552e-05
1.09386e-05
1.09586e-05
8.20533e-05
0.000196081
0.00019645
8.21914e-05
1.09623e-05
1.09671e-05
8.24854e-05
0.000197265
0.000197648
8.26424e-05
1.09866e-05
1.10084e-05
8.28728e-05
0.00019849
0.000198888
8.30261e-05
1.10135e-05
1.10214e-05
8.33478e-05
0.000199743
0.000200141
8.34947e-05
1.10416e-05
1.10649e-05
8.37377e-05
0.000200982
0.000201375
8.38818e-05
1.10684e-05
1.10763e-05
8.42094e-05
0.000202218
0.000202605
8.43518e-05
1.10952e-05
1.11177e-05
8.46008e-05
0.000203438
0.000203825
8.47409e-05
1.1121e-05
1.11287e-05
8.50805e-05
0.000204677
0.000205065
8.52287e-05
1.11483e-05
1.1171e-05
8.54806e-05
0.000205907
0.000206274
8.56128e-05
1.11734e-05
1.11802e-05
8.59493e-05
0.000207115
0.00020746
8.60754e-05
1.11981e-05
1.12194e-05
8.63022e-05
0.00020826
0.000208543
8.64011e-05
1.12199e-05
1.12242e-05
8.66991e-05
0.000209292
0.000209573
8.67789e-05
1.12402e-05
1.12588e-05
8.6952e-05
0.000210247
0.000210529
8.69957e-05
1.12575e-05
1.12602e-05
8.72264e-05
0.000211152
0.000211402
8.72096e-05
1.1283e-05
1.12839e-05
8.73596e-05
0.000211952
0.000212108
8.73114e-05
1.12874e-05
1.1284e-05
8.7412e-05
0.00021258
0.000212702
8.73202e-05
1.13034e-05
1.1298e-05
8.73204e-05
0.000213018
0.000212953
8.71232e-05
1.12952e-05
1.12816e-05
8.70192e-05
0.000213087
0.00021302
8.67582e-05
1.12831e-05
1.12844e-05
8.64755e-05
0.000213018
0.000212736
8.60971e-05
1.12678e-05
1.12503e-05
8.57632e-05
0.000212668
0.000212141
8.52768e-05
1.12485e-05
1.12461e-05
8.47668e-05
0.000212102
0.00021152
8.4147e-05
1.12278e-05
1.12111e-05
8.36264e-05
0.000211425
0.000210596
8.28483e-05
1.12145e-05
1.11989e-05
8.22249e-05
0.000210388
0.000209285
8.13265e-05
1.11886e-05
1.11738e-05
8.0554e-05
0.000208993
0.000207839
7.95848e-05
1.11752e-05
1.11885e-05
7.87708e-05
0.000207702
0.000206646
7.7829e-05
1.11922e-05
1.12156e-05
7.71072e-05
0.000206626
0.000205804
7.62523e-05
1.12464e-05
1.13028e-05
7.56625e-05
0.000206244
0.000206056
7.49136e-05
1.13674e-05
1.14636e-05
7.4482e-05
0.000207187
0.000207991
7.35886e-05
1.15598e-05
1.16696e-05
7.31492e-05
0.000210422
0.000213557
7.39911e-05
1.17897e-05
1.19105e-05
7.43749e-05
0.000216418
0.000218052
7.39758e-05
1.19425e-05
1.20296e-05
7.26478e-05
0.000221422
0.00022513
7.65863e-05
1.22023e-05
1.23184e-05
7.43214e-05
0.000228225
0.000231131
7.61721e-05
1.25195e-05
1.26665e-05
7.7137e-05
0.000236606
0.000237961
7.87001e-05
1.28759e-05
1.31706e-05
8.26188e-05
0.000244795
0.000245906
8.46623e-05
1.3457e-05
1.37084e-05
8.81666e-05
0.000252442
0.000255112
9.14242e-05
1.42189e-05
1.52465e-05
0.000105768
0.000266297
0.000264395
0.000111139
1.14254e-05
8.79343e-06
2.71254e-05
7.40127e-05
0.000207358
6.44575e-05
1.0402e-05
1.08964e-05
5.77117e-05
0.000190633
0.000201432
6.01582e-05
1.11746e-05
1.13737e-05
5.67605e-05
0.000192338
0.000206388
6.10676e-05
1.16795e-05
1.20268e-05
6.03107e-05
0.000203878
0.000224014
6.89222e-05
1.2475e-05
1.29212e-05
6.84366e-05
0.000219684
0.000241527
7.98494e-05
1.34594e-05
1.41166e-05
8.166e-05
0.000243165
0.000269011
9.7109e-05
1.54606e-05
1.18094e-05
0.000107635
0.000276961
7.40554e-05
2.56191e-05
9.49318e-06
1.14018e-05
7.03951e-05
0.000233238
0.000228681
6.51271e-05
1.23358e-05
1.30774e-05
8.53923e-05
0.000281813
0.000287169
8.64207e-05
1.36672e-05
1.44126e-05
0.000100207
0.000319018
0.000328178
0.000106709
1.53497e-05
1.73149e-05
0.000128799
0.000358269
0.000350706
0.000139446
1.34988e-05
1.02121e-05
3.18913e-05
9.2869e-05
0.000283635
8.39394e-05
1.20602e-05
1.30723e-05
7.80671e-05
0.000278075
0.000320002
9.6495e-05
1.39685e-05
1.49378e-05
9.66126e-05
0.000315769
0.000358038
0.000122413
1.71485e-05
1.35827e-05
0.000139233
0.000357748
9.59945e-05
3.08438e-05
1.01521e-05
1.26825e-05
8.84274e-05
0.000321159
0.000331502
9.29632e-05
1.43083e-05
1.66153e-05
0.000131697
0.000427494
0.000446744
0.000152528
1.92159e-05
1.56931e-05
0.000174965
0.000446044
0.000122761
3.59008e-05
1.06654e-05
1.38476e-05
0.000117836
0.000399911
0.000398787
0.000114296
1.61115e-05
2.01811e-05
0.000169869
0.000502513
0.000507406
0.000195095
1.66299e-05
1.1213e-05
4.05017e-05
0.000152499
0.000516936
0.000152344
1.61023e-05
2.0328e-05
0.000161313
0.000558042
0.000772991
0.00027211
2.77735e-05
2.31057e-05
0.000289766
0.000742377
0.000261948
6.87666e-05
1.5072e-05
2.69695e-05
0.000283228
0.000810141
0.000813419
0.000303758
2.52203e-05
1.70971e-05
7.846e-05
0.00032287
0.00111975
0.000371887
3.72727e-05
3.68001e-05
0.000429262
0.00121578
0.000553359
0.000152846
2.33839e-05
3.72121e-05
0.000497382
0.00144982
0.000957704
0.000317521
2.47792e-05
4.59963e-05
0.000559842
0.00112958
0.000968691
0.000468347
3.78196e-05
3.83144e-05
0.000446475
0.00106244
0.00136311
0.000492833
4.39659e-05
6.0773e-05
0.000920465
0.00227341
0.000506507
0.000157501
3.45658e-05
3.53803e-05
0.000441675
0.00101207
0.000313046
0.000111879
2.46859e-05
2.67754e-05
0.000273801
0.000656836
0.000560149
0.000201218
2.69651e-05
1.4774e-05
5.13053e-05
0.000159107
0.000376402
0.000204807
1.74061e-05
1.6575e-05
6.59519e-05
0.000170359
0.000413991
0.000178941
1.90677e-05
2.03941e-05
0.000147486
0.000376505
0.000123196
4.61967e-05
1.34861e-05
1.60021e-05
0.000144935
0.00032719
0.000300131
0.000121452
1.81167e-05
1.26552e-05
3.97991e-05
0.000100846
0.000277917
0.000123569
1.46359e-05
1.6988e-05
0.000108022
0.000255803
8.98064e-05
3.76363e-05
1.23546e-05
1.38571e-05
0.000111052
0.000246899
0.000224059
9.77448e-05
1.62666e-05
1.21228e-05
3.45598e-05
8.03487e-05
0.000218236
9.96875e-05
1.31064e-05
1.56987e-05
8.79205e-05
0.000199005
7.25901e-05
3.25506e-05
1.19391e-05
1.27232e-05
9.28905e-05
0.000196732
0.000178004
8.15368e-05
1.52179e-05
1.16837e-05
3.0599e-05
6.70056e-05
0.000179627
8.59542e-05
1.21978e-05
1.47955e-05
7.60064e-05
0.000163487
6.36243e-05
3.00243e-05
1.15919e-05
1.21495e-05
8.60309e-05
0.000172491
0.000146347
6.91445e-05
1.51712e-05
1.26785e-05
5.42865e-05
0.000118196
4.59284e-05
2.10962e-05
1.0357e-05
9.95383e-06
5.59637e-05
0.000114658
0.000109987
5.23824e-05
1.27876e-05
1.04665e-05
2.22586e-05
4.58927e-05
0.000111103
5.6913e-05
1.01979e-05
1.30787e-05
5.19351e-05
0.000101691
4.19712e-05
2.09102e-05
1.03874e-05
9.54593e-06
5.05052e-05
9.52196e-05
9.18559e-05
4.83583e-05
1.22866e-05
1.02607e-05
2.08888e-05
4.10435e-05
9.45864e-05
5.12164e-05
9.87226e-06
1.26861e-05
4.82443e-05
8.87026e-05
3.94211e-05
2.02067e-05
1.02267e-05
9.49252e-06
4.68048e-05
8.52409e-05
8.00127e-05
4.44941e-05
1.24005e-05
1.01913e-05
1.9447e-05
3.62955e-05
7.90132e-05
4.45833e-05
9.16688e-06
1.19691e-05
4.05579e-05
7.43054e-05
3.48838e-05
1.9405e-05
9.88812e-06
8.8988e-06
4.18208e-05
7.21046e-05
6.87151e-05
3.79179e-05
1.17903e-05
9.78422e-06
1.7766e-05
3.10732e-05
6.20516e-05
4.54011e-05
8.47056e-06
1.08237e-05
2.16846e-05
3.62785e-05
8.23377e-05
4.75287e-05
9.85785e-06
1.25754e-05
4.43934e-05
7.6694e-05
3.69887e-05
2.13332e-05
1.03216e-05
9.41006e-06
4.54601e-05
7.6485e-05
7.18638e-05
4.21395e-05
1.23859e-05
1.03545e-05
2.14176e-05
3.61834e-05
7.53248e-05
4.56599e-05
9.46128e-06
1.23289e-05
4.25441e-05
7.18706e-05
3.49184e-05
2.10471e-05
1.01768e-05
9.1776e-06
4.24995e-05
6.831e-05
6.42962e-05
3.85104e-05
1.22346e-05
1.02877e-05
2.09662e-05
3.31251e-05
6.37133e-05
4.01932e-05
9.12219e-06
1.2016e-05
3.63458e-05
5.92414e-05
2.91928e-05
1.90768e-05
9.85121e-06
8.3504e-06
3.99101e-05
5.24155e-05
3.17394e-05
2.17392e-05
1.08305e-05
9.6556e-06
3.87686e-05
6.25858e-05
5.77232e-05
3.57048e-05
1.23829e-05
1.0135e-05
2.12734e-05
3.08672e-05
5.71138e-05
3.73252e-05
9.00098e-06
1.19173e-05
3.43154e-05
5.16538e-05
2.74688e-05
1.96708e-05
9.87848e-06
8.31379e-06
3.66316e-05
4.71108e-05
2.9812e-05
2.1536e-05
1.09761e-05
9.61498e-06
3.73965e-05
5.77847e-05
5.24947e-05
3.43209e-05
1.22668e-05
1.01003e-05
2.1564e-05
2.94682e-05
5.42113e-05
3.61762e-05
8.99776e-06
1.194e-05
3.2804e-05
4.91977e-05
2.65307e-05
1.9774e-05
9.81614e-06
8.27846e-06
3.45765e-05
4.37368e-05
2.80507e-05
2.11687e-05
1.09836e-05
9.48336e-06
3.46506e-05
5.32696e-05
4.81621e-05
3.21305e-05
1.21765e-05
1.00478e-05
2.14632e-05
2.74352e-05
4.88208e-05
3.32545e-05
8.96249e-06
1.18834e-05
3.06162e-05
4.43553e-05
2.53918e-05
2.00615e-05
9.86101e-06
8.49982e-06
3.21134e-05
3.89197e-05
2.60815e-05
2.12416e-05
1.12174e-05
9.43851e-06
3.1979e-05
4.76296e-05
4.26448e-05
2.89082e-05
1.20305e-05
9.65943e-06
1.98989e-05
2.42575e-05
3.81418e-05
3.16048e-05
8.07456e-06
1.08835e-05
2.12001e-05
2.57394e-05
4.70493e-05
3.09842e-05
9.24511e-06
1.21383e-05
2.88915e-05
4.21999e-05
2.48495e-05
2.09102e-05
1.00062e-05
8.43944e-06
3.13347e-05
3.79202e-05
2.59863e-05
2.19551e-05
1.10616e-05
9.20323e-06
3.1284e-05
4.63182e-05
4.14367e-05
2.869e-05
1.20148e-05
9.89197e-06
2.0849e-05
2.44869e-05
3.741e-05
3.16802e-05
8.28055e-06
1.11098e-05
2.21691e-05
2.58022e-05
4.55782e-05
3.07597e-05
9.36243e-06
1.21781e-05
2.83345e-05
4.11005e-05
2.41821e-05
2.09599e-05
9.9215e-06
8.25004e-06
3.1175e-05
3.66365e-05
2.54671e-05
2.22005e-05
1.09697e-05
9.25299e-06
3.0277e-05
4.49571e-05
4.00103e-05
2.82649e-05
1.20467e-05
1.00423e-05
2.14546e-05
2.44195e-05
3.50291e-05
3.13544e-05
8.49481e-06
1.10175e-05
2.30688e-05
2.53024e-05
3.86115e-05
2.95722e-05
8.8104e-06
1.1367e-05
2.32905e-05
2.68203e-05
4.57022e-05
3.05433e-05
9.52856e-06
1.21107e-05
2.84537e-05
4.07685e-05
2.4703e-05
2.1812e-05
9.89345e-06
8.25577e-06
3.14245e-05
3.6514e-05
2.5832e-05
2.3385e-05
1.11674e-05
9.36022e-06
3.02686e-05
4.42628e-05
3.95822e-05
2.82442e-05
1.21746e-05
1.00311e-05
2.19772e-05
2.44594e-05
3.46599e-05
3.08881e-05
8.60405e-06
1.11889e-05
2.35647e-05
2.54753e-05
3.80307e-05
2.98877e-05
9.01749e-06
1.13458e-05
2.38545e-05
2.67707e-05
4.50681e-05
3.00676e-05
9.3925e-06
1.21574e-05
2.82179e-05
4.00385e-05
2.45354e-05
2.25049e-05
9.96832e-06
8.19681e-06
3.13738e-05
3.57472e-05
2.64554e-05
2.43354e-05
1.11036e-05
8.94585e-06
3.03303e-05
3.91331e-05
2.77083e-05
2.49746e-05
1.14729e-05
9.56841e-06
3.06408e-05
4.57636e-05
4.09285e-05
2.88554e-05
1.23854e-05
1.01011e-05
2.31954e-05
2.54824e-05
3.58517e-05
3.2269e-05
8.41173e-06
1.11871e-05
2.49786e-05
2.67863e-05
3.9083e-05
3.11016e-05
8.97976e-06
1.14791e-05
2.54416e-05
2.79653e-05
4.59619e-05
3.10276e-05
9.56888e-06
1.23214e-05
2.93061e-05
4.10403e-05
2.57307e-05
2.39097e-05
1.01176e-05
8.42104e-06
3.25723e-05
3.68082e-05
2.75629e-05
2.56374e-05
1.13045e-05
9.17598e-06
3.14383e-05
3.99282e-05
2.86985e-05
2.6062e-05
1.15377e-05
9.54188e-06
3.13486e-05
4.61524e-05
4.13861e-05
2.95036e-05
1.22562e-05
1.00723e-05
2.36453e-05
2.55824e-05
3.64105e-05
3.25393e-05
8.32097e-06
1.12595e-05
2.51798e-05
2.71879e-05
3.89016e-05
3.05637e-05
9.1181e-06
1.16078e-05
2.57907e-05
2.81201e-05
4.44328e-05
3.06242e-05
9.61371e-06
1.24228e-05
2.90506e-05
4.00792e-05
2.54263e-05
2.39411e-05
1.02419e-05
8.37824e-06
3.24762e-05
3.60982e-05
2.72574e-05
2.53994e-05
1.11627e-05
8.89374e-06
3.03093e-05
3.85753e-05
2.8722e-05
2.61903e-05
1.14027e-05
9.07045e-06
3.14332e-05
4.00776e-05
2.94416e-05
2.76443e-05
1.15637e-05
9.64034e-06
3.1803e-05
4.6016e-05
4.1186e-05
3.0324e-05
1.23656e-05
1.014e-05
2.5189e-05
2.67402e-05
3.65782e-05
3.34983e-05
8.64161e-06
1.14298e-05
2.64607e-05
2.78896e-05
3.87181e-05
3.12309e-05
9.1833e-06
1.15323e-05
2.66634e-05
2.91442e-05
4.02491e-05
3.16916e-05
9.14557e-06
1.16051e-05
2.82919e-05
2.98763e-05
4.60798e-05
3.22703e-05
9.63282e-06
1.23865e-05
3.06191e-05
4.13265e-05
2.68709e-05
2.56418e-05
1.02714e-05
8.41241e-06
3.40365e-05
3.72752e-05
2.85699e-05
2.69489e-05
1.13909e-05
9.1789e-06
3.13407e-05
3.98175e-05
3.0058e-05
2.76822e-05
1.16567e-05
9.30293e-06
3.27144e-05
4.11952e-05
3.08112e-05
2.92761e-05
1.1771e-05
9.80205e-06
3.30835e-05
4.68549e-05
4.21088e-05
3.14534e-05
1.25232e-05
1.02702e-05
2.62298e-05
2.76719e-05
3.76139e-05
3.46505e-05
8.44478e-06
1.14697e-05
2.74565e-05
2.91177e-05
3.98458e-05
3.16725e-05
9.15728e-06
1.16662e-05
2.78181e-05
3.02566e-05
4.09065e-05
3.26615e-05
9.26377e-06
1.18314e-05
2.93561e-05
3.08648e-05
4.61887e-05
3.26542e-05
9.78675e-06
1.25933e-05
3.15235e-05
4.18137e-05
2.82868e-05
2.7033e-05
1.036e-05
8.93223e-06
3.46024e-05
3.76879e-05
2.96301e-05
2.84524e-05
1.1726e-05
9.25471e-06
3.27923e-05
3.99854e-05
3.06222e-05
2.84039e-05
1.1629e-05
9.16809e-06
3.24355e-05
4.09686e-05
3.14707e-05
2.93267e-05
1.16498e-05
9.33656e-06
3.42485e-05
4.20854e-05
3.19905e-05
3.0865e-05
1.17862e-05
9.80547e-06
3.42375e-05
4.74827e-05
4.29949e-05
3.27323e-05
1.25632e-05
1.04123e-05
2.72065e-05
2.88684e-05
3.78564e-05
3.5329e-05
8.45342e-06
1.16217e-05
2.83299e-05
2.99337e-05
3.98775e-05
3.1906e-05
9.33727e-06
1.18494e-05
2.89351e-05
3.12123e-05
4.10662e-05
3.30802e-05
9.30596e-06
1.1749e-05
2.99594e-05
3.18972e-05
4.24554e-05
3.43768e-05
9.40065e-06
1.18842e-05
3.15593e-05
3.25695e-05
4.81356e-05
3.50091e-05
9.86656e-06
1.27006e-05
3.3601e-05
4.3706e-05
2.99988e-05
2.87862e-05
1.05194e-05
8.63225e-06
3.70235e-05
3.94744e-05
3.13743e-05
3.00013e-05
1.15991e-05
9.20531e-06
3.40571e-05
4.19335e-05
3.26627e-05
3.03056e-05
1.18153e-05
9.39996e-06
3.47046e-05
4.30218e-05
3.34152e-05
3.13028e-05
1.18126e-05
9.40902e-06
3.6054e-05
4.4187e-05
3.40279e-05
3.28682e-05
1.19439e-05
9.99633e-06
3.62445e-05
4.94028e-05
4.49887e-05
3.46646e-05
1.27274e-05
1.05904e-05
2.94009e-05
3.10219e-05
3.97551e-05
3.72395e-05
8.72649e-06
1.17555e-05
3.05085e-05
3.21362e-05
4.18572e-05
3.41606e-05
9.43014e-06
1.20345e-05
3.0774e-05
3.3317e-05
4.28303e-05
3.46372e-05
9.51803e-06
1.19943e-05
3.18268e-05
3.38671e-05
4.41101e-05
3.60522e-05
9.61488e-06
1.20929e-05
3.36424e-05
3.44086e-05
4.94406e-05
3.68652e-05
1.00182e-05
1.29002e-05
3.55257e-05
4.53385e-05
3.18469e-05
3.05655e-05
1.06798e-05
8.80805e-06
3.85856e-05
4.08216e-05
3.3134e-05
3.1681e-05
1.18052e-05
9.43041e-06
3.53801e-05
4.30133e-05
3.44109e-05
3.19934e-05
1.20537e-05
9.56267e-06
3.59421e-05
4.43028e-05
3.52287e-05
3.29572e-05
1.19936e-05
9.60881e-06
3.74455e-05
4.54067e-05
3.56019e-05
3.45436e-05
1.20891e-05
1.00422e-05
3.76262e-05
5.04715e-05
4.61795e-05
3.625e-05
1.29644e-05
1.08106e-05
3.09843e-05
3.25364e-05
4.05943e-05
3.88438e-05
8.78375e-06
1.19037e-05
3.19893e-05
3.34719e-05
4.21772e-05
3.48457e-05
9.49516e-06
1.21771e-05
3.23191e-05
3.45315e-05
4.3319e-05
3.57408e-05
9.64475e-06
1.20746e-05
3.33003e-05
3.51832e-05
4.45568e-05
3.68537e-05
9.61014e-06
1.20305e-05
3.42853e-05
3.61195e-05
4.62008e-05
3.87064e-05
9.61112e-06
1.21454e-05
3.61312e-05
3.66605e-05
5.19266e-05
3.90577e-05
1.01068e-05
1.31327e-05
3.7811e-05
4.78272e-05
3.4387e-05
3.33016e-05
1.08742e-05
9.08961e-06
4.12309e-05
4.32888e-05
3.59165e-05
3.47099e-05
1.21187e-05
9.65392e-06
3.84303e-05
4.55346e-05
3.69546e-05
3.47347e-05
1.21881e-05
9.65416e-06
3.85647e-05
4.68432e-05
3.79068e-05
3.57007e-05
1.21035e-05
9.67948e-06
4.0462e-05
4.85059e-05
3.87066e-05
3.76032e-05
1.22527e-05
1.02487e-05
4.06794e-05
5.37861e-05
4.93163e-05
3.9303e-05
1.32746e-05
1.09919e-05
3.43452e-05
3.56269e-05
4.42196e-05
4.24745e-05
9.09277e-06
1.21623e-05
3.55405e-05
3.70843e-05
4.57722e-05
3.90282e-05
9.73913e-06
1.23152e-05
3.53842e-05
3.78012e-05
4.64794e-05
3.88338e-05
9.83708e-06
1.22498e-05
3.63312e-05
3.83616e-05
4.77215e-05
4.02668e-05
9.78416e-06
1.24063e-05
3.8106e-05
3.87823e-05
5.30775e-05
4.06358e-05
1.03271e-05
1.3538e-05
3.9705e-05
4.90433e-05
3.63291e-05
3.55371e-05
1.1121e-05
9.24488e-06
4.3112e-05
4.46418e-05
3.79116e-05
3.69182e-05
1.23623e-05
9.8623e-06
4.03836e-05
4.67667e-05
3.89198e-05
3.68969e-05
1.23909e-05
9.79714e-06
4.02041e-05
4.7829e-05
3.96161e-05
3.7768e-05
1.23224e-05
9.89974e-06
4.16847e-05
4.94642e-05
4.04877e-05
3.99108e-05
1.25971e-05
1.04784e-05
4.24192e-05
5.48564e-05
5.05135e-05
4.13412e-05
1.36289e-05
1.12548e-05
3.68749e-05
3.77437e-05
4.59966e-05
4.4923e-05
9.28665e-06
1.23477e-05
3.78534e-05
3.91991e-05
4.74649e-05
4.10951e-05
9.87833e-06
1.25678e-05
3.78621e-05
3.99786e-05
4.82283e-05
4.10637e-05
9.94872e-06
1.25947e-05
3.89941e-05
4.06453e-05
4.95645e-05
4.2406e-05
1.00248e-05
1.2875e-05
4.11173e-05
4.11907e-05
5.5059e-05
4.31152e-05
1.07829e-05
1.40711e-05
4.24104e-05
5.10915e-05
3.91175e-05
3.88566e-05
1.15755e-05
9.61519e-06
4.62025e-05
4.73212e-05
4.07119e-05
3.99966e-05
1.25969e-05
1.00442e-05
4.37262e-05
4.96025e-05
4.19217e-05
4.0231e-05
1.27963e-05
1.00603e-05
4.37577e-05
5.10686e-05
4.24786e-05
4.18815e-05
1.30063e-05
1.09209e-05
4.37541e-05
5.59743e-05
5.17259e-05
4.30206e-05
1.43351e-05
1.18297e-05
3.91483e-05
3.96814e-05
4.7002e-05
4.63591e-05
9.66432e-06
1.27453e-05
4.01848e-05
4.09292e-05
4.86158e-05
4.32819e-05
1.02021e-05
1.30499e-05
4.03698e-05
4.18779e-05
4.99489e-05
4.29731e-05
1.03021e-05
1.33429e-05
4.25712e-05
4.2497e-05
5.4885e-05
4.38772e-05
1.10433e-05
1.45722e-05
4.34802e-05
5.12071e-05
4.04495e-05
4.05126e-05
1.18241e-05
9.86638e-06
4.72858e-05
4.77211e-05
4.20293e-05
4.18113e-05
1.30854e-05
1.03016e-05
4.4283e-05
4.99389e-05
4.31482e-05
4.21199e-05
1.32649e-05
1.0511e-05
4.45486e-05
5.13399e-05
4.37984e-05
4.38239e-05
1.35064e-05
1.11855e-05
4.4962e-05
5.6016e-05
5.21656e-05
4.4712e-05
1.48561e-05
1.22121e-05
4.12624e-05
4.15486e-05
4.79064e-05
4.81277e-05
9.83126e-06
1.31516e-05
4.24461e-05
4.25666e-05
4.96158e-05
4.47176e-05
1.04691e-05
1.34875e-05
4.27822e-05
4.36398e-05
5.12892e-05
4.46194e-05
1.06522e-05
1.3891e-05
4.52839e-05
4.45232e-05
5.6527e-05
4.60397e-05
1.15608e-05
1.524e-05
4.58836e-05
5.29568e-05
4.29535e-05
4.34975e-05
1.24025e-05
1.01394e-05
4.99763e-05
4.98433e-05
4.44658e-05
4.49366e-05
1.35691e-05
1.07884e-05
4.72376e-05
5.22978e-05
4.59488e-05
4.53937e-05
1.39469e-05
1.11035e-05
4.71214e-05
5.41912e-05
4.70849e-05
4.78881e-05
1.44188e-05
1.19764e-05
4.85285e-05
5.93323e-05
5.56103e-05
4.84891e-05
1.58378e-05
1.29108e-05
4.57536e-05
4.55441e-05
5.19549e-05
5.23845e-05
1.05242e-05
1.39722e-05
4.71257e-05
4.67779e-05
5.43177e-05
4.90998e-05
1.1148e-05
1.47045e-05
4.87298e-05
4.78623e-05
5.93275e-05
4.88074e-05
1.22386e-05
1.61425e-05
4.85068e-05
5.58227e-05
4.59175e-05
4.68082e-05
1.32961e-05
1.07108e-05
5.28706e-05
5.24816e-05
4.76039e-05
4.84564e-05
1.43162e-05
1.14097e-05
5.02318e-05
5.51601e-05
4.92078e-05
4.92489e-05
1.48408e-05
1.18143e-05
5.0386e-05
5.76027e-05
5.08533e-05
5.23235e-05
1.54268e-05
1.28335e-05
5.26286e-05
6.33759e-05
5.95055e-05
5.28079e-05
1.69831e-05
1.38602e-05
5.0943e-05
4.99532e-05
5.64634e-05
5.73326e-05
1.1256e-05
1.50973e-05
5.24406e-05
5.17531e-05
5.95707e-05
5.40364e-05
1.20883e-05
1.58692e-05
5.43566e-05
5.29421e-05
6.51016e-05
5.40363e-05
1.29681e-05
1.73389e-05
5.42223e-05
6.15458e-05
5.20109e-05
5.3389e-05
1.46085e-05
1.19919e-05
5.87507e-05
5.84214e-05
5.3731e-05
5.5253e-05
1.59498e-05
1.27785e-05
5.63398e-05
6.20042e-05
5.54734e-05
5.75106e-05
1.67873e-05
1.39956e-05
5.67896e-05
6.79281e-05
6.41945e-05
5.71391e-05
1.85135e-05
1.51444e-05
5.60234e-05
5.46501e-05
6.13699e-05
6.17559e-05
1.22682e-05
1.67173e-05
5.88518e-05
5.63306e-05
6.77587e-05
5.77214e-05
1.39404e-05
1.86302e-05
5.77338e-05
6.45343e-05
5.49726e-05
5.57701e-05
1.51707e-05
1.21146e-05
6.24417e-05
6.12295e-05
5.66207e-05
5.76491e-05
1.65197e-05
1.32364e-05
5.82382e-05
6.3973e-05
5.78825e-05
5.99537e-05
1.75813e-05
1.46409e-05
5.8595e-05
6.9438e-05
6.60993e-05
5.9449e-05
1.94777e-05
1.59789e-05
5.89145e-05
5.73968e-05
6.32953e-05
6.373e-05
1.30792e-05
1.77547e-05
6.22188e-05
5.88995e-05
6.94292e-05
6.02073e-05
1.48746e-05
1.98624e-05
6.04395e-05
6.64179e-05
5.8326e-05
6.00928e-05
1.63856e-05
1.32405e-05
6.48546e-05
6.39791e-05
5.95117e-05
6.29625e-05
1.7874e-05
1.46013e-05
6.05509e-05
6.99635e-05
6.70621e-05
6.1141e-05
1.99501e-05
1.66757e-05
6.05866e-05
5.89475e-05
6.44119e-05
6.47724e-05
1.36642e-05
1.86363e-05
6.43238e-05
6.06194e-05
7.023e-05
6.15919e-05
1.5461e-05
2.08467e-05
6.21977e-05
6.7413e-05
6.02076e-05
6.2492e-05
1.71773e-05
1.38939e-05
6.63453e-05
6.52941e-05
6.15975e-05
6.56948e-05
1.88002e-05
1.55326e-05
6.26262e-05
7.13573e-05
6.85465e-05
6.30683e-05
2.09075e-05
1.71896e-05
6.32278e-05
6.11584e-05
6.63761e-05
6.84792e-05
1.34448e-05
1.88317e-05
6.67082e-05
6.27115e-05
7.22068e-05
6.31237e-05
1.58804e-05
2.17189e-05
6.39093e-05
6.94709e-05
6.28923e-05
6.6266e-05
1.80721e-05
1.4812e-05
6.87085e-05
6.79364e-05
6.49642e-05
7.04528e-05
2.01603e-05
1.67858e-05
6.66697e-05
7.50591e-05
7.22952e-05
6.75719e-05
2.24917e-05
1.8575e-05
6.91397e-05
6.58575e-05
7.10069e-05
7.21003e-05
1.50299e-05
2.04808e-05
7.34433e-05
6.77148e-05
7.85523e-05
6.99386e-05
1.68864e-05
2.24658e-05
6.98374e-05
7.57313e-05
6.8789e-05
7.47404e-05
1.96157e-05
1.69246e-05
7.43632e-05
7.77032e-05
7.52794e-05
7.41313e-05
2.35403e-05
1.98542e-05
7.40287e-05
7.00646e-05
7.57436e-05
7.63263e-05
1.63518e-05