/*--------------------------------*- C++ -*----------------------------------*\
| =========                 |                                                 |
| \\      /  F ield         | OpenFOAM: The Open Source CFD Toolbox           |
|  \\    /   O peration     | Version:  v2006                                 |
|   \\  /    A nd           | Website:  www.openfoam.com                      |
|    \\/     M anipulation  |                                                 |
\*---------------------------------------------------------------------------*/
FoamFile
{
    version     2.0;
    format      ascii;
    class       volVectorField;
    location    "0.093";
    object      U;
}
// * * * * * * * * * * * * * * * * * * * * * * * * * * * * * * * * * * * * * //

dimensions      [0 1 -1 0 0 0 0];


internalField   nonuniform List<vector> 
16277
(
(48.313 0.00152502 -2.97881e-19)
(48.3133 -0.00375466 0)
(48.3129 0.00398018 0)
(48.3126 -0.00334431 0)
(48.3125 0.000466436 -4.59117e-21)
(48.3109 -0.00132603 -7.42773e-19)
(48.306 -0.00131002 8.95908e-19)
(48.2906 -0.00362201 0)
(48.2552 -0.00798725 0)
(48.1992 -0.0140258 0)
(48.1283 -0.0207654 -3.42961e-21)
(48.0502 -0.0271783 -6.99068e-21)
(47.9698 -0.0329188 1.77015e-21)
(47.8888 -0.0379779 0)
(47.8072 -0.0425345 0)
(47.7241 -0.0467553 0)
(47.6385 -0.0507567 0)
(47.5495 -0.0546003 0)
(47.4569 -0.0583045 0)
(47.3603 -0.0618714 0)
(47.2597 -0.0652991 0)
(47.1553 -0.0685908 0)
(47.0471 -0.071756 0)
(46.9352 -0.0748077 0)
(46.8195 -0.0777596 0)
(46.7002 -0.0806231 0)
(46.5773 -0.0834069 0)
(46.4508 -0.0861159 0)
(46.3209 -0.0887527 0)
(46.1875 -0.0913171 0)
(46.0508 -0.0938077 0)
(45.9109 -0.0962216 0)
(45.7678 -0.0985553 0)
(45.6217 -0.100805 0)
(45.4728 -0.102966 0)
(45.3211 -0.105033 0)
(45.1667 -0.107003 0)
(45.0099 -0.108869 0)
(44.8507 -0.110627 0)
(44.6894 -0.112273 0)
(44.526 -0.113803 0)
(44.3607 -0.115211 0)
(44.1938 -0.116495 0)
(44.0252 -0.11765 0)
(43.8554 -0.118672 0)
(43.6843 -0.119558 0)
(43.5123 -0.120305 0)
(43.3394 -0.120909 0)
(43.1659 -0.121368 0)
(42.9919 -0.121678 0)
(42.8177 -0.121837 0)
(42.6435 -0.121842 0)
(42.4694 -0.121693 0)
(42.2957 -0.12139 0)
(42.1226 -0.12093 0)
(41.9502 -0.120281 0)
(41.7789 -0.119461 0)
(41.6087 -0.118503 0)
(41.4399 -0.117386 0)
(41.2727 -0.116104 0)
(41.1074 -0.114655 0)
(40.9441 -0.113041 0)
(40.7831 -0.111262 0)
(40.6245 -0.109321 0)
(40.4686 -0.107216 0)
(40.3156 -0.104951 0)
(40.1657 -0.102523 0)
(40.019 -0.0999343 0)
(39.8758 -0.09718 0)
(39.7362 -0.094255 0)
(39.6004 -0.0911503 0)
(39.4686 -0.0878542 0)
(39.341 -0.0843542 0)
(39.2178 -0.0806407 0)
(39.0992 -0.0767096 0)
(38.9854 -0.0725589 0)
(38.876 -0.0681714 0)
(38.7707 -0.0634761 0)
(38.6684 -0.058281 -3.00539e-20)
(38.5679 -0.0522701 2.99889e-20)
(38.4686 -0.0449835 0)
(38.373 -0.0362084 8.9564e-20)
(38.289 -0.0265773 -5.91732e-20)
(38.23 -0.0181966 0)
(38.2039 -0.0128864 -1.71879e-18)
(38.2033 -0.0105382 1.11696e-18)
(38.2136 -0.00964123 0)
(38.2257 -0.0094364 0)
(38.2355 -0.009358 0)
(38.2345 -0.00738643 1.73922e-17)
(38.2271 -0.00459678 -1.02951e-17)
(38.2027 -0.0102859 -1.26072e-17)
(38.1411 -0.0202388 -3.78943e-18)
(38.038 -0.0398385 2.12424e-18)
(37.8701 -0.0576771 0)
(37.6772 -0.0669747 0)
(36.9673 -0.102504 -2.76502e-19)
(36.5115 -0.0930301 2.3253e-18)
(37.6856 -0.113575 1.73418e-18)
(37.9172 -0.0967237 -5.82618e-18)
(37.9413 -0.119279 0)
(37.6343 -0.133698 1.79698e-18)
(35.9972 -0.0920247 1.93199e-18)
(35.4886 -0.0845117 7.19844e-19)
(37.5734 -0.133345 4.01211e-19)
(37.9636 -0.124082 1.3379e-18)
(37.9611 -0.121242 1.33887e-18)
(37.48 -0.122899 0)
(35.0208 -0.0739635 -1.25593e-18)
(34.5896 -0.0643159 1.16925e-19)
(37.3809 -0.112508 0)
(37.9471 -0.118006 0)
(37.9079 -0.113525 1.65997e-19)
(37.2529 -0.103542 0)
(34.1869 -0.057196 2.47676e-24)
(33.8231 -0.0518373 1.35738e-19)
(37.1364 -0.0967156 0)
(37.8669 -0.111145 -1.66842e-19)
(37.8075 -0.107654 1.0556e-20)
(37.004 -0.0912558 3.9424e-19)
(33.4788 -0.0475949 -5.0706e-19)
(33.1772 -0.0430718 4.92704e-19)
(36.8892 -0.0858044 3.96173e-19)
(37.7547 -0.107182 -6.88855e-19)
(37.6832 -0.103009 -6.81696e-19)
(36.7504 -0.0811032 -7.95396e-19)
(32.8849 -0.040039 0)
(32.6241 -0.036411 4.95126e-19)
(36.6333 -0.0770821 -4.10853e-19)
(37.6187 -0.102234 -1.06797e-20)
(37.5367 -0.0979769 6.94706e-19)
(36.4914 -0.0731239 -4.11092e-19)
(32.3666 -0.0343525 -4.95409e-19)
(32.1341 -0.0316044 0)
(36.3736 -0.0703013 0)
(37.4651 -0.0973874 0)
(37.3767 -0.0938566 6.84393e-19)
(36.2315 -0.067119 0)
(31.9032 -0.0301982 0)
(31.6946 -0.0279265 0)
(36.1167 -0.0651652 0)
(37.3022 -0.093999 0)
(37.207 -0.0907355 0)
(35.9733 -0.0625676 0)
(31.4817 -0.027066 0)
(31.2879 -0.0251978 0)
(35.8583 -0.0610068 0)
(37.1275 -0.0907353 0)
(37.0263 -0.0878905 0)
(35.7132 -0.0589326 0)
(31.0877 -0.0247436 0)
(30.9064 -0.0229785 0)
(35.5992 -0.0577708 0)
(36.9437 -0.088406 0)
(36.8401 -0.0857666 0)
(35.4556 -0.0562184 0)
(30.7193 -0.0230539 0)
(30.5484 -0.0211459 0)
(35.3434 -0.0551486 0)
(36.7555 -0.0866269 0)
(36.6489 -0.0843043 0)
(35.1999 -0.0540724 0)
(30.3701 -0.0216457 0)
(30.2067 -0.0197297 0)
(35.0884 -0.0532103 0)
(36.562 -0.0853509 0)
(36.4523 -0.0833468 0)
(34.9445 -0.0524831 0)
(30.0351 -0.020512 0)
(29.8777 -0.0186425 0)
(34.8334 -0.0516974 0)
(36.3632 -0.0844366 0)
(36.2506 -0.0827259 0)
(34.689 -0.0512534 0)
(29.7112 -0.019627 0)
(29.5583 -0.0177688 0)
(34.5778 -0.050548 0)
(36.1594 -0.0839342 0)
(36.0438 -0.0824979 0)
(34.4325 -0.0503642 0)
(29.3959 -0.0189303 0)
(29.2464 -0.0170649 0)
(34.3208 -0.0497122 0)
(35.9503 -0.0838085 0)
(35.8316 -0.0826194 0)
(34.1743 -0.0497631 0)
(29.0869 -0.0183847 0)
(28.9398 -0.0164962 0)
(34.0616 -0.0491406 0)
(35.7355 -0.0840146 0)
(35.6136 -0.0830478 0)
(33.9135 -0.0494039 0)
(28.7824 -0.0179617 0)
(28.637 -0.016119 0)
(33.7995 -0.0487878 0)
(35.5148 -0.0844568 0)
(35.3897 -0.0837147 0)
(33.6496 -0.0492326 0)
(28.481 -0.0176813 0)
(28.3366 -0.0158148 0)
(33.5339 -0.0485897 0)
(35.288 -0.0851547 0)
(35.1594 -0.084619 0)
(33.3821 -0.0492185 0)
(28.1814 -0.0174753 0)
(28.0375 -0.0156409 0)
(33.2644 -0.0485554 0)
(35.0547 -0.0860889 0)
(34.9225 -0.0857502 6.86212e-19)
(33.1103 -0.0493486 0)
(27.8826 -0.0173685 0)
(27.7387 -0.0155637 0)
(32.9903 -0.0486562 0)
(34.8145 -0.0872679 0)
(34.6784 -0.0871136 0)
(32.8336 -0.049613 0)
(27.5838 -0.0173451 0)
(27.4394 -0.0155479 0)
(32.711 -0.0488326 0)
(34.5669 -0.0886749 0)
(34.427 -0.0886233 0)
(32.5516 -0.0499578 0)
(27.284 -0.017383 0)
(27.1388 -0.0156011 0)
(32.4262 -0.0492156 0)
(34.3117 -0.0901183 0)
(34.1676 -0.0902389 0)
(32.2637 -0.0504458 0)
(26.9824 -0.0174586 0)
(26.836 -0.0156817 0)
(32.1352 -0.049738 0)
(34.0484 -0.0917523 0)
(33.8998 -0.0920572 6.86646e-19)
(31.9693 -0.0510675 0)
(26.6782 -0.0175697 0)
(26.5302 -0.0158027 0)
(31.8374 -0.0503771 0)
(33.7765 -0.0936033 0)
(33.6233 -0.0940819 0)
(31.6679 -0.0518078 0)
(26.3707 -0.0177255 0)
(26.2207 -0.0159673 0)
(31.5323 -0.0511345 0)
(33.4956 -0.0956649 0)
(33.3375 -0.0963054 0)
(31.3588 -0.0526633 0)
(26.0592 -0.0179255 0)
(25.9068 -0.0161734 0)
(31.2192 -0.0520078 0)
(33.2051 -0.0979299 0)
(33.042 -0.0987202 0)
(31.0416 -0.0536295 0)
(25.7428 -0.0181666 0)
(25.5878 -0.0164171 0)
(30.8977 -0.0529926 0)
(32.9046 -0.100389 0)
(32.7362 -0.101315 6.87074e-19)
(30.7156 -0.0546996 0)
(25.421 -0.0184447 0)
(25.2629 -0.0166932 0)
(30.5671 -0.0540828 0)
(32.5937 -0.103031 0)
(32.4197 -0.104076 0)
(30.3803 -0.0558654 0)
(25.0931 -0.0187546 0)
(24.9318 -0.0169967 0)
(30.227 -0.0552684 0)
(32.2718 -0.105838 0)
(32.0922 -0.106983 0)
(30.0353 -0.0571156 0)
(24.7585 -0.0190916 0)
(24.5937 -0.0173291 0)
(29.877 -0.056528 0)
(31.9388 -0.108778 0)
(31.7532 -0.110004 0)
(29.6802 -0.0584274 0)
(24.4169 -0.0194524 0)
(24.2484 -0.0176833 0)
(29.5167 -0.0578379 0)
(31.5941 -0.111822 0)
(31.4026 -0.113105 6.87515e-19)
(29.3147 -0.059779 0)
(24.0679 -0.0198301 0)
(23.8956 -0.0180496 0)
(29.1458 -0.0591722 0)
(31.2377 -0.114919 0)
(31.0403 -0.116224 0)
(28.9386 -0.0611359 0)
(23.7114 -0.0202102 0)
(23.5352 -0.0184102 0)
(28.7645 -0.0604892 0)
(30.8695 -0.117999 0)
(30.6661 -0.11928 0)
(28.5521 -0.0624505 0)
(23.3473 -0.0205718 0)
(23.1676 -0.018742 0)
(28.3728 -0.0617337 0)
(30.4896 -0.120967 0)
(30.2805 -0.122178 0)
(28.1555 -0.0636687 0)
(22.9762 -0.0209007 0)
(22.7932 -0.0190358 0)
(27.9713 -0.0628545 0)
(30.0986 -0.123722 0)
(29.8841 -0.124809 0)
(27.7495 -0.0647363 0)
(22.5987 -0.0211794 0)
(22.4129 -0.0192663 0)
(27.5609 -0.0637879 0)
(29.6972 -0.126145 0)
(29.4779 -0.127045 0)
(27.3353 -0.0655825 0)
(22.216 -0.0213808 0)
(22.0282 -0.0194046 0)
(27.1429 -0.0644536 0)
(29.2866 -0.128089 0)
(29.0632 -0.128719 0)
(26.9143 -0.0661175 0)
(21.8296 -0.021473 0)
(21.6408 -0.0194158 0)
(26.7192 -0.0647498 0)
(28.8685 -0.129364 0)
(28.6422 -0.129623 0)
(26.4887 -0.0662289 0)
(21.4418 -0.021417 0)
(21.2533 -0.0192567 0)
(26.2923 -0.0645497 0)
(28.4452 -0.129735 0)
(28.2175 -0.129501 0)
(26.0615 -0.0657773 0)
(21.0555 -0.021166 0)
(20.8692 -0.0188772 0)
(25.8656 -0.0637008 0)
(28.02 -0.128918 0)
(27.7926 -0.128053 0)
(25.6366 -0.0646033 0)
(20.6746 -0.0206639 0)
(20.4928 -0.0182169 0)
(25.4434 -0.0620315 0)
(27.5966 -0.126587 0)
(27.372 -0.124936 0)
(25.2187 -0.0625293 0)
(20.3038 -0.0198455 0)
(20.1294 -0.0172081 0)
(25.0312 -0.0593501 0)
(27.1803 -0.122372 0)
(26.9614 -0.119764 0)
(24.8139 -0.0593462 0)
(19.9494 -0.0186357 0)
(19.7858 -0.0157772 0)
(24.6356 -0.0554263 0)
(26.7773 -0.115851 0)
(26.5678 -0.112097 0)
(24.4297 -0.0548133 0)
(19.6185 -0.0169443 0)
(19.47 -0.0138388 0)
(24.2648 -0.0500057 0)
(26.3953 -0.106547 0)
(26.1997 -0.101498 0)
(24.075 -0.048691 0)
(19.32 -0.0146675 0)
(19.1914 -0.0113256 0)
(23.9285 -0.0428858 0)
(26.0434 -0.0940734 0)
(25.8666 -0.0876075 0)
(23.7599 -0.0407803 0)
(19.0637 -0.011779 0)
(18.9617 -0.00822933 0)
(23.6368 -0.0336538 0)
(25.7318 -0.0779433 0)
(25.5794 -0.0698166 0)
(23.4956 -0.0305214 0)
(18.8615 -0.00809118 0)
(18.7965 -0.0042978 0)
(23.4017 -0.022498 0)
(25.4712 -0.0578473 0)
(25.3494 -0.0480042 0)
(23.2941 -0.0186729 0)
(18.7279 -0.00395687 0)
(18.7043 0.000153608 0)
(23.2367 -0.0102758 0)
(25.2758 -0.0337788 0)
(25.1889 -0.0230897 0)
(23.1677 -0.00560723 0)
(18.6707 0.000629485 0)
(18.6926 0.00493908 0)
(23.1517 0.0035463 0)
(25.1549 -0.00731716 0)
(25.1068 0.00335454 0)
(23.125 0.0082495 0)
(18.6968 0.00516378 0)
(18.7655 0.00979233 0)
(23.1529 0.0180095 0)
(25.1152 0.0200347 0)
(25.1087 0.0304268 0)
(23.1705 0.0223142 0)
(18.8084 0.00944307 0)
(18.919 0.0139318 6.22038e-20)
(23.2394 0.0313647 0)
(25.1572 0.0453688 0)
(25.1895 0.0568855 0)
(23.2971 0.0364554 0)
(18.9993 0.0138737 -6.22038e-20)
(19.1564 0.018718 6.21991e-20)
(23.4128 0.0461415 0)
(25.2841 0.0733809 0)
(25.3605 0.0840342 0)
(23.5164 0.0504863 0)
(19.2817 0.018998 -6.2199e-20)
(19.4831 0.0236925 6.21928e-20)
(23.68 0.0601056 0)
(25.5032 0.100626 0)
(25.6216 0.104482 0)
(23.8251 0.0598109 0)
(19.6441 0.0216294 -6.21929e-20)
(19.8679 0.0257861 6.21856e-20)
(24.019 0.0681586 0)
(25.7957 0.11844 0)
(25.943 0.118482 0)
(24.1911 0.0657782 0)
(20.0475 0.023023 -6.21858e-20)
(20.2844 0.0264571 6.21778e-20)
(24.4068 0.072431 0)
(26.1412 0.129484 0)
(26.3092 0.126641 0)
(24.5967 0.0685245 0)
(20.4731 0.0232035 -6.21783e-20)
(20.7145 0.0262766 6.21697e-20)
(24.8253 0.0741576 0)
(26.5235 0.13568 0)
(26.7054 0.13053 0)
(25.0256 0.0690996 0)
(20.9049 0.0226539 -6.21706e-20)
(21.1447 0.025397 6.21617e-20)
(25.2603 0.07372 0)
(26.9293 0.137649 0)
(27.1186 0.130442 0)
(25.4641 0.0676426 0)
(21.3308 0.0214875 -6.21629e-20)
(21.5632 0.0238715 6.21538e-20)
(25.6984 0.0712593 0)
(27.3458 0.135647 0)
(27.5363 0.126779 0)
(25.8996 0.0643778 0)
(21.7391 0.0197422 -6.21553e-20)
(21.959 0.0218331 6.21463e-20)
(26.1276 0.067086 0)
(27.7609 0.130211 0)
(27.947 0.120114 0)
(26.3206 0.0596469 0)
(22.1201 0.0175755 -6.21482e-20)
(22.3237 0.0194261 6.21394e-20)
(26.5376 0.0615781 0)
(28.1639 0.121978 0)
(28.341 0.111038 0)
(26.7179 0.0538014 0)
(22.4664 0.0150965 -6.21416e-20)
(22.6507 0.016753 6.21332e-20)
(26.9199 0.0550853 0)
(28.546 0.111536 0)
(28.7102 0.100162 0)
(27.084 0.0471693 0)
(22.7727 0.0124156 -6.21356e-20)
(22.9359 0.0140229 6.21277e-20)
(27.2682 0.0480082 0)
(28.9001 0.0995117 0)
(29.0483 0.0880643 0)
(27.4127 0.0401934 0)
(23.0366 0.00988815 -6.21302e-20)
(23.1777 0.0114629 5.59119e-19)
(27.5772 0.0407822 4.13e-19)
(29.2206 0.0866076 -1.3764e-18)
(29.3502 0.0753938 0)
(27.7001 0.0332826 0)
(23.2586 0.00776343 -6.21254e-20)
(23.3766 0.00897046 6.2119e-20)
(27.8442 0.0334778 0)
(29.5037 0.0734488 -6.8814e-19)
(29.6145 0.0627544 0)
(27.9461 0.02665 0)
(23.4378 0.00552596 -6.21213e-20)
(23.5334 0.00652788 6.21159e-20)
(28.0699 0.0265188 0)
(29.7486 0.0605055 0)
(29.8408 0.050568 0)
(28.1513 0.0203285 0)
(23.576 0.00345376 -6.21179e-20)
(23.6509 0.00440503 6.21134e-20)
(28.2555 0.020132 0)
(29.9559 0.0483192 0)
(30.03 0.039329 0)
(28.3175 0.0145975 0)
(23.6767 0.00165011 -6.21153e-20)
(23.7334 0.0026211 6.21116e-20)
(28.4035 0.0144653 0)
(30.127 0.0372431 0)
(30.1844 0.0294815 0)
(28.4481 0.00967347 0)
(23.7447 0.000178639 -6.21133e-20)
(23.786 0.00121944 6.21104e-20)
(28.518 0.00970046 0)
(30.2653 0.0276882 0)
(30.3079 0.0211231 0)
(28.5474 0.00557281 0)
(23.7856 -0.000967472 -6.21118e-20)
(23.8147 0.000162118 6.21095e-20)
(28.6037 0.00580838 0)
(30.3748 0.0197018 0)
(30.4048 0.0142377 0)
(28.6203 0.00226117 0)
(23.805 -0.0018217 -6.21107e-20)
(23.8246 -0.000602872 6.21089e-20)
(28.6652 0.002719 0)
(30.4598 0.0132128 0)
(30.4791 0.00869147 0)
(28.6713 -0.000328502 0)
(23.8078 -0.00242466 -6.21098e-20)
(23.8204 -0.00112592 6.21085e-20)
(28.707 0.00033827 0)
(30.5245 0.0080439 0)
(30.535 0.00432652 0)
(28.7047 -0.00226818 0)
(23.7985 -0.00281907 -6.21094e-20)
(23.8059 -0.00144796 6.21085e-20)
(28.7331 -0.00139863 0)
(30.5724 0.00399684 0)
(30.5758 0.000983279 0)
(28.7241 -0.00360635 0)
(23.7804 -0.00302152 -6.21095e-20)
(23.784 -0.00160667 6.21089e-20)
(28.7467 -0.00262198 0)
(30.6068 0.000728059 0)
(30.6044 -0.00133209 0)
(28.7325 -0.00428608 0)
(23.7559 -0.00301003 -6.21098e-20)
(23.7572 -0.00153671 6.21093e-20)
(28.7509 -0.00316654 0)
(30.6306 -0.00149194 0)
(30.6238 -0.00292727 0)
(28.7329 -0.00447298 0)
(23.7277 -0.00285572 -6.21101e-20)
(23.7273 -0.00138248 6.21097e-20)
(28.748 -0.00343286 0)
(30.646 -0.00311955 0)
(30.6358 -0.00406714 0)
(28.7271 -0.00440183 0)
(23.6967 -0.00262805 -6.21106e-20)
(23.6954 -0.0012827 6.21102e-20)
(28.7397 -0.00354428 0)
(30.655 -0.0042361 0)
(30.642 -0.00493341 0)
(28.7167 -0.00426956 0)
(23.6643 -0.0023473 -6.21107e-20)
(23.6625 -0.00110887 6.21102e-20)
(28.7275 -0.00350232 0)
(30.6589 -0.00496453 0)
(30.6437 -0.00559618 0)
(28.7029 -0.00425142 0)
(23.6313 -0.00217562 -6.21108e-20)
(23.6295 -0.00100231 6.21105e-20)
(28.7124 -0.00355795 0)
(30.6589 -0.00558329 0)
(30.642 -0.00606074 0)
(28.6866 -0.00429265 0)
(23.5982 -0.00207856 -6.2111e-20)
(23.5966 -0.000958218 6.21106e-20)
(28.6954 -0.00363659 0)
(30.656 -0.0059721 0)
(30.6378 -0.00647057 0)
(28.6687 -0.00455414 0)
(23.5654 -0.00211916 -6.2111e-20)
(23.564 -0.00106901 6.21107e-20)
(28.6768 -0.00398712 0)
(30.6509 -0.00634731 -6.88083e-19)
(30.6318 -0.00679214 0)
(28.6497 -0.00514956 0)
(23.533 -0.00234032 -6.21111e-20)
(23.5319 -0.00134977 6.21108e-20)
(28.6574 -0.00454444 0)
(30.6441 -0.00653041 0)
(30.6245 -0.00706699 0)
(28.63 -0.00590728 0)
(23.5012 -0.00270147 -6.21112e-20)
(23.5006 -0.00171804 6.21114e-20)
(28.6377 -0.00540216 0)
(30.6364 -0.00694326 0)
(30.6163 -0.00737616 0)
(28.6103 -0.00636925 0)
(23.4703 -0.0029205 -6.21122e-20)
(23.4705 -0.00160749 6.21121e-20)
(28.6182 -0.00513357 0)
(30.6282 -0.0062775 0)
(30.6081 -0.00654855 0)
(28.5909 -0.0058132 0)
(23.4406 -0.00272791 -6.2082e-20)
(23.4425 -0.00149463 6.20201e-20)
(28.6001 -0.00477591 0)
(30.6211 -0.00583374 -6.8678e-19)
(30.6017 -0.00545521 -6.83764e-19)
(28.5742 -0.00500128 3.07415e-19)
(23.4145 -0.00232269 -5.54062e-19)
(23.4175 -0.000915649 0)
(28.585 -0.00281068 6.75052e-25)
(30.6203 -0.00289867 0)
(30.6055 -0.000832013 -6.67855e-19)
(28.5625 -0.000968567 9.95264e-20)
(23.388 -0.000336011 0)
(23.4232 0.00163709 -9.67833e-19)
(28.5885 0.00159508 2.81507e-25)
(30.635 0.00303156 -6.65975e-19)
(30.6309 0.0122776 0)
(28.5922 0.00713294 0)
(23.4174 0.0024761 9.04861e-19)
(23.4936 0.0123437 -2.4504e-19)
(28.6644 0.0230826 -4.01936e-18)
(30.697 0.0318261 -8.52988e-24)
(30.7531 0.0650102 5.11517e-18)
(28.7462 0.0495966 0)
(23.6394 0.0266953 -1.55994e-18)
(23.9288 0.0666552 -2.01079e-18)
(28.9429 0.0963717 1.59572e-17)
(30.936 0.101825 5.79437e-23)
(31.4714 0.0690816 -3.7161e-17)
(29.7402 0.130377 1.04368e-18)
(25.0775 0.124447 0)
(24.8329 0.0640168 0)
(28.7933 0.127867 -8.81944e-19)
(30.5995 0.191497 7.39204e-19)
(31.7852 0.285549 -7.49219e-18)
(32.6576 0.134901 -4.20805e-22)
(33.1619 0.0296532 1.31355e-17)
(33.3348 0.00791577 -1.9135e-19)
(33.441 0.0186649 -2.83248e-18)
(33.6506 0.024021 2.83672e-18)
(33.7346 0.0193218 0)
(33.827 0.0213868 0)
(33.8686 0.0200556 6.10604e-19)
(33.9041 0.0218605 7.87845e-19)
(33.912 0.0205167 -1.7562e-19)
(33.901 0.0218755 8.90406e-19)
(33.8755 0.0199519 -1.44772e-18)
(33.8081 0.020081 7.45465e-19)
(33.7382 0.0130169 0)
(33.5626 0.0118349 -1.27946e-17)
(33.4628 0.00590508 -1.48618e-17)
(33.3511 0.00665632 0)
(33.2144 0.0194321 -5.29033e-19)
(32.9807 0.0108553 0)
(32.3792 -0.0292033 0)
(31.079 -0.0662379 2.67833e-18)
(28.368 -0.0707043 -6.93696e-18)
(24.9021 -0.0796482 0)
(17.7644 -0.0730178 -3.6547e-19)
(17.2296 -0.056587 3.45022e-19)
(24.551 -0.106476 -8.53646e-18)
(28.0764 -0.0920592 2.00795e-17)
(27.789 -0.0847847 8.11817e-19)
(24.2157 -0.0508518 2.68957e-18)
(16.7851 -0.0381149 -2.84075e-18)
(16.4975 -0.0401613 0)
(23.9928 -0.0676571 -1.43999e-18)
(27.6034 -0.0715878 -3.70409e-18)
(27.5105 -0.0385454 0)
(23.9024 -0.0205808 9.46382e-19)
(16.2916 -0.0134961 0)
(16.2556 -0.0137192 0)
(23.8593 -0.021656 2.22545e-19)
(27.4758 -0.0208768 -1.20516e-18)
(27.4357 -0.0102393 -1.39539e-25)
(23.8212 -0.00798121 -2.22612e-19)
(16.1454 -0.00450126 0)
(16.1408 0.000533855 0)
(23.7978 -0.00241237 0)
(27.4409 -0.00305503 -1.68582e-19)
(27.4454 0.00391107 0)
(23.8026 0.00211587 0)
(16.1474 0.000842448 0)
(16.1562 0.00134253 0)
(23.8101 0.00383267 0)
(27.4522 0.00645507 0)
(27.4617 0.00889471 0)
(23.8221 0.00501779 0)
(16.1699 0.00171276 0)
(16.1854 0.00127443 0)
(23.8369 0.00425542 0)
(27.474 0.00807501 0)
(27.4853 0.00965413 0)
(23.8516 0.0056262 0)
(16.2017 0.00180882 0)
(16.2202 0.00141881 0)
(23.8689 0.00479266 0)
(27.4999 0.00890764 -1.68236e-19)
(27.5133 0.010823 1.68566e-19)
(23.8858 0.00575097 0)
(16.2393 0.00177451 0)
(16.2581 0.00156513 0)
(23.9033 0.00541299 0)
(27.5278 0.010101 0)
(27.5421 0.0109001 0)
(23.9215 0.00561257 0)
(16.2777 0.00169349 0)
(16.2982 0.00183543 0)
(23.9407 0.00563289 0)
(27.5578 0.0106412 0)
(27.5724 0.0119026 0)
(23.9596 0.00604131 0)
(16.3186 0.00198045 0)
(16.3395 0.00230785 0)
(23.9792 0.00669272 0)
(27.5889 0.0111819 0)
(27.6037 0.0116884 0)
(23.9979 0.0058256 0)
(16.3599 0.00186845 0)
(16.3811 0.00228771 0)
(24.0176 0.0067809 0)
(27.62 0.0113513 0)
(27.6361 0.0122211 0)
(24.0378 0.00604498 0)
(16.4034 0.00192417 0)
(16.4254 0.00244729 0)
(24.0583 0.00712128 0)
(27.6533 0.0115414 0)
(27.6691 0.0120294 0)
(24.0779 0.0060759 0)
(16.4471 0.00189644 0)
(16.4698 0.00196556 0)
(24.0987 0.00630947 0)
(27.6861 0.0117035 0)
(27.7028 0.0130315 0)
(24.1197 0.00672025 0)
(16.4931 0.00208727 0)
(16.5163 0.00209379 0)
(24.1417 0.00635699 0)
(27.7208 0.0119699 0)
(27.7372 0.0129534 0)
(24.1627 0.0069468 0)
(16.5394 0.00240948 0)
(16.5626 0.00267873 0)
(24.1841 0.00761497 0)
(27.755 0.0126277 0)
(27.772 0.0134529 0)
(24.2055 0.00696202 0)
(16.5866 0.00235772 0)
(16.6108 0.00256461 0)
(24.2278 0.00730174 0)
(27.7905 0.0125562 0)
(27.8074 0.0130012 0)
(24.2492 0.00649905 0)
(16.6347 0.00219164 0)
(16.6588 0.00266097 0)
(24.2714 0.00762119 0)
(27.8258 0.0127193 0)
(27.8436 0.0135714 0)
(24.2934 0.00706493 0)
(16.6836 0.00237028 0)
(16.7078 0.00255329 0)
(24.3157 0.00746745 0)
(27.8623 0.0126318 0)
(27.8798 0.0128966 0)
(24.3374 0.00629525 0)
(16.732 0.00198767 -1.44098e-19)
(16.7571 0.002631 1.43952e-19)
(24.3605 0.00781186 0)
(27.8992 0.0128084 0)
(27.9179 0.0135437 0)
(24.3832 0.00691044 0)
(16.7822 0.00215777 0)
(16.8078 0.00217346 0)
(24.4066 0.00692484 0)
(27.9376 0.0127393 0)
(27.9563 0.0136259 0)
(24.4294 0.00703912 0)
(16.8327 0.0021822 0)
(16.858 0.00209364 0)
(24.4532 0.00687051 0)
(27.9763 0.0132372 0)
(27.996 0.0143561 0)
(24.4773 0.0074667 0)
(16.8835 0.00249861 0)
(16.9093 0.00225844 0)
(24.5021 0.00680166 0)
(28.0169 0.0133609 0)
(28.0366 0.0143023 0)
(24.5258 0.00808598 0)
(16.9342 0.0027779 0)
(16.9601 0.00244627 0)
(24.5506 0.00739816 0)
(28.058 0.0136614 0)
(28.0789 0.0147713 0)
(24.5755 0.00799205 0)
(16.9863 0.00266803 0)
(17.0123 0.00243802 0)
(24.6007 0.00739339 0)
(28.1009 0.0138724 0)
(28.1219 0.0145662 0)
(24.6252 0.00768432 0)
(17.0377 0.00256427 0)
(17.0638 0.00247475 0)
(24.6509 0.00761682 0)
(28.1446 0.0143506 0)
(28.1668 0.0155244 0)
(24.6765 0.00820942 0)
(17.0897 0.00268237 0)
(17.116 0.00244032 0)
(24.7029 0.00764612 0)
(28.1906 0.0146876 0)
(28.2136 0.0155361 0)
(24.7289 0.00799619 0)
(17.1416 0.00255461 0)
(17.1676 0.00243094 0)
(24.7558 0.00791073 0)
(28.2383 0.0153233 0)
(28.2628 0.0163595 0)
(24.7829 0.00841099 0)
(17.1934 0.00257163 0)
(17.2191 0.0024206 0)
(24.8106 0.00795543 0)
(28.2889 0.0155569 0)
(28.3144 0.0161097 0)
(24.8381 0.00804863 0)
(17.2436 0.00238489 0)
(17.2685 0.00222218 0)
(24.867 0.00804367 0)
(28.3423 0.0156331 0)
(28.37 0.0160664 0)
(24.8961 0.00688969 0)
(17.2928 0.00153499 0)
(17.3169 0.00146185 0)
(24.9262 0.0069378 0)
(28.3996 0.0154869 0)
(28.4293 0.016205 0)
(24.9565 0.00683771 0)
(17.3397 0.00118511 0)
(17.3625 0.00100645 0)
(24.9886 0.00695099 0)
(28.4615 0.0161637 0)
(28.4944 0.0173085 0)
(25.0219 0.00710003 0)
(17.3846 0.000887873 0)
(17.4064 0.00062268 0)
(25.0565 0.00645248 0)
(28.5295 0.0169666 0)
(28.5646 0.018329 0)
(25.0916 0.0069645 0)
(17.4269 0.00080712 0)
(17.4477 0.00112023 0)
(25.1284 0.0082148 0)
(28.6026 0.0189501 0)
(28.6418 0.0206108 0)
(25.1662 0.00857058 0)
(17.4682 0.00115474 0)
(17.4883 0.000811729 0)
(25.2055 0.00805096 0)
(28.6831 0.0205181 0)
(28.7252 0.0218898 0)
(25.2461 0.00849888 0)
(17.5081 0.000755131 0)
(17.5281 0.000590229 0)
(25.2892 0.00887105 0)
(28.7709 0.0222765 0)
(28.8182 0.0239627 0)
(25.3337 0.00964037 0)
(17.5476 0.00062573 0)
(17.5668 -0.000267981 0)
(25.3807 0.00836385 0)
(28.8687 0.0235716 0)
(28.9209 0.0251878 0)
(25.4302 0.00859009 0)
(17.5863 -0.000636025 0)
(17.6065 -0.000843501 0)
(25.484 0.00907789 0)
(28.9778 0.0259534 0)
(29.0375 0.0282147 0)
(25.5416 0.00998773 0)
(17.6279 -0.000900812 0)
(17.6511 -0.0011236 0)
(25.6036 0.0100146 0)
(29.1017 0.0291336 0)
(29.1686 0.0322127 0)
(25.6696 0.0107319 0)
(17.6769 -0.00108442 0)
(17.7062 -0.000763059 0)
(25.7416 0.0119715 0)
(29.2403 0.0346906 0)
(29.316 0.0394168 0)
(25.8188 0.0163092 0)
(17.7402 0.000834021 0)
(17.7805 0.0012779 0)
(25.902 0.0176202 0)
(29.3972 0.042205 0)
(29.4817 0.0469497 0)
(25.9907 0.0202542 0)
(17.8283 0.00218433 0)
(17.8856 0.00292783 0)
(26.0873 0.0229074 0)
(29.5723 0.0509458 0)
(29.6681 0.056981 0)
(26.1914 0.0268824 0)
(17.9531 0.00426119 0)
(18.0332 0.00561046 0)
(26.305 0.0305032 0)
(29.7704 0.0620313 0)
(29.8785 0.0695481 0)
(26.428 0.0359581 0)
(18.1279 0.00776245 0)
(18.242 0.00940521 0)
(26.5637 0.0409701 0)
(29.9946 0.0764985 1.67926e-19)
(30.1177 0.0865349 -1.68243e-19)
(26.71 0.0493187 0)
(18.3749 0.0129923 0)
(18.5335 0.0129974 0)
(26.8708 0.0488997 0)
(30.2478 0.0937638 0)
(30.3874 0.107377 0)
(27.0473 0.0631391 0)
(18.7178 0.0199279 0)
(18.9337 0.0203585 0)
(27.2429 0.0624789 0)
(30.5366 0.118364 0)
(30.6973 0.139225 0)
(27.4573 0.0858984 0)
(19.1813 0.0328153 0)
(19.4748 0.036405 0)
(27.7002 0.0879143 0)
(30.8776 0.155395 0)
(31.0846 0.181145 1.68129e-19)
(27.9875 0.102624 0)
(19.8444 0.0481676 0)
(20.3083 0.0766237 0)
(28.3192 0.13381 0)
(31.3172 0.233552 -1.68649e-19)
(31.5473 0.348626 -2.70933e-18)
(28.6587 0.25696 1.3821e-23)
(20.7699 0.177328 2.29288e-18)
(21.2078 0.245305 -9.11973e-18)
(28.9846 0.349088 -5.26849e-23)
(31.7545 0.464349 2.53698e-18)
(31.919 0.627512 -2.52246e-18)
(29.2532 0.514925 -7.02529e-18)
(21.6316 0.381893 9.03348e-18)
(22.0014 0.545241 1.42548e-19)
(29.4039 0.698791 -7.00034e-18)
(32.0271 0.798189 5.33386e-18)
(32.113 0.964573 -5.46451e-18)
(29.6244 0.850107 0)
(22.3655 0.658159 0)
(22.6978 0.800243 1.80013e-17)
(29.7491 1.01092 -1.37472e-17)
(32.1811 1.1224 -5.09328e-18)
(32.226 1.269 0)
(29.8856 1.1481 -1.36032e-17)
(23.0659 0.919732 1.78705e-17)
(23.4549 1.04523 1.77418e-17)
(30.0199 1.2915 -4.21969e-19)
(32.2734 1.42084 0)
(32.2739 1.5844 0)
(30.1094 1.47177 4.22613e-19)
(23.8033 1.20477 -5.5388e-19)
(24.107 1.31858 -1.63676e-17)
(30.192 1.60712 0)
(32.2619 1.72024 0)
(32.253 1.82796 -1.02962e-17)
(30.2851 1.70586 1.35226e-17)
(24.4432 1.40621 -1.82975e-17)
(24.807 1.52518 0)
(30.3726 1.8287 1.65884e-18)
(32.2461 1.93557 0)
(32.2227 2.05765 -9.7472e-18)
(30.44 1.95272 -1.64308e-18)
(25.1787 1.6379 -4.44221e-18)
(25.3746 1.73237 2.04788e-17)
(30.4881 2.11416 -3.4693e-17)
(32.1461 2.21705 2.41399e-17)
(31.9438 2.13142 2.98806e-17)
(30.3563 2.02078 -5.55098e-17)
(25.3375 1.61075 -2.03431e-17)
(20.2142 1.15206 -3.15905e-17)
(27.9524 1.51418 -3.13021e-18)
(30.894 1.6574 -1.59505e-17)
(31.7045 2.25307 -3.52762e-18)
(29.0644 2.10841 4.69705e-18)
(21.4957 1.57999 -3.10618e-18)
(21.4822 1.7215 1.39591e-18)
(29.1681 2.33651 -2.11675e-18)
(31.7349 2.51804 -1.61032e-18)
(31.6862 2.64077 5.26016e-17)
(29.2276 2.43843 -1.32369e-22)
(21.8028 1.81983 -4.46515e-17)
(22.2195 1.97774 3.33517e-19)
(29.2423 2.57862 6.49108e-17)
(31.6126 2.76166 1.55763e-22)
(31.6274 2.85671 2.46381e-17)
(29.4014 2.63897 -3.18298e-17)
(22.7347 2.07214 4.18241e-17)
(23.2983 2.20909 -3.18577e-19)
(29.5134 2.75363 1.20841e-19)
(31.6003 2.96407 2.33419e-17)
(31.6123 3.10523 -2.38855e-17)
(29.6789 2.94518 3.02609e-17)
(23.834 2.38901 -3.09663e-19)
(24.3376 2.498 6.17739e-19)
(29.7617 3.00923 2.82957e-17)
(31.5705 3.18872 -2.36248e-17)
(31.5542 3.29278 -1.8047e-17)
(29.8903 3.14261 -2.7246e-17)
(24.8374 2.65473 4.05009e-17)
(25.3144 2.75148 -2.37134e-18)
(29.9849 3.20184 0)
(31.5164 3.36906 -2.62668e-18)
(31.461 3.5114 0)
(30.0682 3.33955 2.41351e-17)
(25.7351 2.88653 -6.88369e-17)
(25.8628 2.89728 5.08502e-17)
(30.0121 3.39958 0)
(31.2796 3.5107 -1.26568e-16)
(30.4686 3.15218 1.06657e-17)
(28.2097 2.81151 -3.14592e-18)
(22.3257 2.25942 -3.76494e-18)
(23.6926 2.87088 0)
(29.2102 3.51618 -2.30827e-18)
(31.1026 3.65959 -6.95159e-18)
(31.1276 3.87492 0)
(29.3105 3.72156 -3.20531e-17)
(23.9489 3.06081 4.23419e-17)
(24.4903 3.11906 6.3329e-19)
(29.5261 3.6791 -9.62319e-19)
(31.1271 3.93336 0)
(31.0874 4.09645 -1.0256e-23)
(29.6073 3.94619 2.80015e-17)
(24.9023 3.36228 -3.89033e-17)
(25.2814 3.46421 3.45903e-17)
(29.6722 4.00111 3.49196e-18)
(31.0483 4.17628 0)
(30.9863 4.29861 1.98593e-17)
(29.7522 4.14067 -1.66696e-18)
(25.6792 3.60367 -2.24976e-18)
(25.882 3.73715 4.10994e-18)
(29.7325 4.33549 0)
(30.8557 4.4533 -3.21911e-17)
(30.6437 4.43425 -3.70467e-18)
(29.5982 4.32881 2.28194e-18)
(25.9951 3.70686 4.60586e-17)
(22.8659 3.47038 0)
(28.1066 4.09178 -3.0742e-18)
(29.9551 4.12793 7.91828e-18)
(30.3901 4.63637 3.78729e-17)
(28.8612 4.50442 -7.45147e-17)
(23.992 3.8089 9.69598e-17)
(24.2836 3.9604 -4.37043e-17)
(28.9134 4.6349 -3.19154e-17)
(30.3166 4.8233 1.54664e-18)
(30.1676 4.97438 -2.38947e-17)
(28.9113 4.79859 -3.15757e-17)
(24.6726 4.18624 8.41644e-17)
(25.0479 4.36036 0)
(28.8744 4.9004 3.73094e-18)
(30.0185 5.09589 0)
(29.8602 5.25548 0)
(28.8805 5.0273 9.55144e-18)
(25.4378 4.54865 0)
(25.505 4.70849 0)
(28.6959 5.23791 -1.98113e-17)
(29.5316 5.36098 0)
(28.8831 5.19083 -2.50572e-17)
(27.3664 4.76848 2.59907e-17)
(22.9385 4.06656 0)
(24.2358 4.69672 1.01033e-16)
(28.0403 5.30969 2.9472e-19)
(29.2602 5.5224 -1.78678e-18)
(29.1161 5.82552 -2.44494e-17)
(28.0436 5.69582 3.2415e-17)
(24.5056 5.07439 -8.72632e-17)
(24.8143 5.23195 8.10559e-17)
(27.9854 5.76245 -6.00192e-17)
(28.9312 5.93215 -2.18086e-17)
(28.6997 6.1349 -3.46774e-17)
(27.903 5.98327 8.85991e-17)
(24.9882 5.47114 -1.52748e-16)
(24.9452 5.55696 2.11353e-16)
(27.6379 6.06186 9.81031e-17)
(28.3116 6.19009 1.6685e-23)
(27.7258 6.1516 -7.07375e-19)
(26.5385 5.66624 -8.28978e-19)
(22.7957 4.94977 -1.00101e-18)
(23.7107 5.8182 1.02296e-16)
(26.9007 6.41762 6.00594e-19)
(27.8555 6.56451 0)
(27.497 6.77606 9.77135e-17)
(26.7027 6.60343 -6.65469e-17)
(23.7827 6.08118 -2.45634e-18)
(23.9901 6.41987 2.48606e-18)
(26.4837 6.849 0)
(27.113 7.01003 -5.61304e-17)
(26.5825 7.16025 -3.37838e-17)
(26.0728 7.11432 0)
(23.8366 6.65912 3.31276e-18)
(22.1424 6.00125 -1.39527e-16)
(25.1306 6.67395 1.10706e-16)
(25.9853 7.22324 0)
(25.8749 7.60274 -5.78743e-17)
(25.1652 7.51228 7.73061e-17)
(22.8426 7.06873 2.02225e-19)
(22.7684 7.35052 8.85022e-17)
(24.8007 7.66909 0)
(25.3362 7.77028 0)
(24.6814 8.02496 0)
(24.2619 8.06042 -5.40356e-17)
(22.5715 7.82786 1.55671e-16)
(22.0996 8.00446 0)
(23.5191 8.19538 0)
(23.8131 8.07944 -8.03695e-18)
(22.8239 8.44088 1.09665e-17)
(22.3419 8.29916 0)
(20.3959 7.97342 -1.321e-16)
(20.307 8.60644 -1.20754e-17)
(21.7373 8.77892 -1.32761e-16)
(22.11 8.65513 1.49951e-21)
(20.8559 8.5938 -4.65581e-18)
(20.6159 8.86848 5.91381e-18)
(19.4978 8.79538 1.87983e-17)
(17.5822 8.94564 -4.52896e-18)
(19.0454 9.1301 -1.46644e-17)
(19.4951 8.9756 1.79626e-17)
(18.3452 8.87016 -8.52841e-17)
(17.9752 9.23513 1.22635e-16)
(16.9433 9.42588 -1.2422e-17)
(15.3151 9.409 2.468e-16)
(16.0067 8.82718 -1.52643e-16)
(16.339 8.12504 0)
(13.3861 8.19116 -7.22898e-17)
(12.9547 8.6821 -1.20312e-17)
(12.1231 9.13285 0)
(9.30957 7.72784 0)
(9.92397 6.8572 1.78651e-17)
(10.703 5.87916 -9.03098e-18)
(7.33069 3.94014 -1.32516e-16)
(5.86884 4.904 3.63429e-16)
(4.96164 5.15404 -2.44776e-16)
(1.89279 0.806149 1.99208e-16)
(3.16134 -0.221381 -2.70685e-16)
(5.07923 -1.14731 1.8362e-16)
(3.76928 -9.54503 0)
(1.5575 -9.5733 -4.39467e-17)
(-0.182964 -9.83344 1.27295e-16)
(3.37781 -18.2993 -9.60559e-19)
(5.06841 -17.3019 4.6479e-17)
(6.51374 -16.5446 -3.20356e-17)
(11.7641 -20.983 -9.08913e-19)