/*--------------------------------*- C++ -*----------------------------------*\
| =========                 |                                                 |
| \\      /  F ield         | OpenFOAM: The Open Source CFD Toolbox           |
|  \\    /   O peration     | Version:  v2006                                 |
|   \\  /    A nd           | Website:  www.openfoam.com                      |
|    \\/     M anipulation  |                                                 |
\*---------------------------------------------------------------------------*/
FoamFile
{
    version     2.0;
    format      ascii;
    class       volScalarField;
    location    "0.002";
    object      alphat;
}
// * * * * * * * * * * * * * * * * * * * * * * * * * * * * * * * * * * * * * //

dimensions      [1 -1 -1 0 0 0 0];


internalField   nonuniform List<scalar> 
16277
(
0.0225721
0.021128
0.0243478
0.0257398
0.0278229
0.0202317
0.0192972
0.0170933
0.0166365
0.0179106
0.0179087
0.0179773
0.0184275
0.0191059
0.0200163
0.0211012
0.0224181
0.0241235
0.0265111
0.0285412
0.0279415
0.0257878
0.0232508
0.021787
0.0207955
0.0200842
0.01954
0.0191062
0.0187552
0.0184538
0.0181669
0.0178804
0.0175854
0.0172652
0.0168865
0.0164213
0.0158941
0.0153871
0.0149446
0.0145665
0.0142493
0.0139921
0.0137855
0.0136233
0.0134955
0.0133921
0.0133058
0.0132345
0.0131745
0.0131266
0.0130978
0.0130985
0.0131965
0.0136091
0.0145337
0.0161243
0.0183659
0.0211717
0.0218806
0.0284005
0.0167762
0.015157
0.0158681
0.0110471
0.00807738
0.00603249
0.00458973
0.00386441
0.00330174
0.00285798
0.00251152
0.00230763
0.00256756
0.00372209
0.00491287
0.00662756
0.00939725
0.0123669
0.0123077
0.0123909
0.0126009
0.0129868
0.0135714
0.0142363
0.0149067
0.0158142
0.0165316
0.0174199
0.0182425
0.00564439
0.00450711
0.00651932
0.00746372
0.00525139
0.00199164
0.000476441
4.32978e-05
4.66253e-05
0.000444987
0.00171341
0.00122544
0.000326466
3.69369e-05
2.89107e-05
0.000240617
0.000888785
0.000798871
0.000230685
2.7465e-05
2.72395e-05
0.00024027
0.000843535
0.000882133
0.000258116
2.7253e-05
2.72075e-05
0.000275306
0.000937421
0.000938715
0.000283974
2.72557e-05
2.82233e-05
0.00030421
0.000985975
0.000973923
0.000309613
2.8522e-05
2.97544e-05
0.000330415
0.00102676
0.00103168
0.000337067
2.98681e-05
3.09205e-05
0.000355818
0.00108426
0.00108618
0.000359591
3.08927e-05
3.15233e-05
0.000372704
0.00112719
0.00111941
0.000372135
3.13776e-05
3.16726e-05
0.000379212
0.00114635
0.00112964
0.000374128
3.14185e-05
3.15536e-05
0.000377472
0.00114198
0.00111581
0.000366759
3.11656e-05
3.11399e-05
0.000368593
0.0011215
0.00107728
0.00034891
3.03516e-05
3.01128e-05
0.000347762
0.00107793
0.00101526
0.000321712
2.89615e-05
2.843e-05
0.000318271
0.00101083
0.000929658
0.000286022
2.70142e-05
2.6158e-05
0.000279828
0.000922709
0.000819289
0.000239697
2.40596e-05
2.22753e-05
0.000221252
0.000796348
0.000646593
0.000163994
2.00532e-05
1.90478e-05
0.000124909
0.000542584
0.000362265
8.45831e-05
1.88254e-05
1.92342e-05
6.64143e-05
0.000251109
0.000175208
5.56588e-05
1.98001e-05
2.04448e-05
5.31572e-05
0.000144825
0.000127397
5.03789e-05
2.10513e-05
2.1449e-05
5.06519e-05
0.000123249
0.000118129
4.93382e-05
2.1814e-05
2.22099e-05
4.99162e-05
0.000118736
0.00011621
4.89272e-05
2.25663e-05
2.2897e-05
4.94806e-05
0.00011758
0.000115771
4.84968e-05
2.29638e-05
2.28978e-05
4.89948e-05
0.000117391
0.000115711
4.79897e-05
2.27622e-05
2.24959e-05
4.84243e-05
0.000117447
0.000115754
4.73838e-05
2.22004e-05
2.17872e-05
4.77652e-05
0.000117552
0.000115783
4.66896e-05
2.13868e-05
2.08859e-05
4.703e-05
0.000117628
0.000115753
4.59142e-05
2.04302e-05
1.98917e-05
4.62141e-05
0.000117633
0.000115619
4.50426e-05
1.94213e-05
1.8876e-05
4.53016e-05
0.000117517
0.000115324
4.40662e-05
1.84215e-05
1.78992e-05
4.42906e-05
0.000117242
0.000114871
4.30111e-05
1.75185e-05
1.71501e-05
4.31628e-05
0.000116799
0.000114241
4.18455e-05
1.69353e-05
1.66233e-05
4.19071e-05
0.000116199
0.000113504
4.05483e-05
1.64151e-05
1.61182e-05
4.05442e-05
0.000115508
0.000112627
3.91738e-05
1.59051e-05
1.56109e-05
3.90456e-05
0.000114604
0.000111442
3.7675e-05
1.54164e-05
1.51115e-05
3.7424e-05
0.000113369
0.000110046
3.61022e-05
1.49383e-05
1.46279e-05
3.58334e-05
0.00011202
0.000108762
3.45866e-05
1.44635e-05
1.41523e-05
3.43464e-05
0.000110882
0.000107736
3.31522e-05
1.39798e-05
1.3675e-05
3.29201e-05
0.000109983
0.000106888
3.17463e-05
1.34941e-05
1.31877e-05
3.15031e-05
0.000109259
0.000106102
3.03096e-05
1.29995e-05
1.26843e-05
3.00587e-05
0.000108616
0.000105447
2.88419e-05
1.2494e-05
1.21581e-05
2.87145e-05
0.000108419
0.000105539
2.74856e-05
1.19693e-05
1.1628e-05
2.75525e-05
0.000109088
0.000106416
2.62414e-05
1.14166e-05
1.1094e-05
2.65319e-05
0.000110519
0.000108142
2.51529e-05
1.0911e-05
1.06608e-05
2.56046e-05
0.000112566
0.000110673
2.43771e-05
1.05322e-05
1.03495e-05
2.49865e-05
0.000115656
0.000114532
2.39748e-05
1.03084e-05
1.02711e-05
2.48182e-05
0.000120704
0.000120381
2.43543e-05
1.0414e-05
1.05798e-05
2.5481e-05
0.000127666
0.000127185
2.52293e-05
1.09105e-05
1.1161e-05
2.61934e-05
0.000132657
0.000130165
2.56299e-05
1.15914e-05
1.18756e-05
2.61365e-05
0.000131906
0.00012575
2.50837e-05
1.23697e-05
1.26931e-05
2.5441e-05
0.00012606
0.000119212
2.45593e-05
1.32285e-05
1.35945e-05
2.527e-05
0.000120271
0.000115274
2.48183e-05
1.41589e-05
1.45602e-05
2.61054e-05
0.000117244
0.000112545
2.57457e-05
1.51412e-05
1.55605e-05
2.719e-05
0.000115124
0.000110595
2.68565e-05
1.61363e-05
1.65753e-05
2.83357e-05
0.00011343
0.000109695
2.81254e-05
1.71344e-05
1.72008e-05
2.95248e-05
0.000112351
0.000109575
2.95078e-05
1.69455e-05
1.6507e-05
3.07341e-05
0.000111446
0.000110358
3.10112e-05
1.61374e-05
1.56145e-05
3.20532e-05
0.000111337
0.000111948
3.25825e-05
1.51484e-05
1.4552e-05
3.29875e-05
0.000111861
0.000114152
3.37715e-05
1.40235e-05
1.34166e-05
3.36751e-05
0.000112576
0.000116365
3.48351e-05
1.29436e-05
1.22844e-05
3.41761e-05
0.000112782
0.00011813
3.56981e-05
1.18419e-05
1.11002e-05
3.45268e-05
0.000112483
0.000119197
3.63144e-05
1.06165e-05
9.91467e-06
3.49736e-05
0.000112597
0.000119203
3.66473e-05
9.32981e-06
8.88002e-06
3.54431e-05
0.000113096
0.000118803
3.68637e-05
8.71295e-06
8.80711e-06
3.55711e-05
0.000112911
0.000118605
3.70613e-05
9.00986e-06
9.40891e-06
3.54359e-05
0.000112208
0.000118171
3.70285e-05
9.83021e-06
1.04264e-05
3.52285e-05
0.00011131
0.000117514
3.69244e-05
1.0875e-05
1.15337e-05
3.51129e-05
0.000110541
0.000116808
3.6866e-05
1.19779e-05
1.26924e-05
3.51019e-05
0.000109858
0.000115993
3.68557e-05
1.31446e-05
1.38961e-05
3.51874e-05
0.000109253
0.000115052
3.68864e-05
1.43767e-05
1.51549e-05
3.53545e-05
0.000108721
0.000113864
3.69135e-05
1.5697e-05
1.65483e-05
3.55973e-05
0.000108317
0.000112646
3.70199e-05
1.72208e-05
1.82031e-05
3.59976e-05
0.000107956
0.000111563
3.72459e-05
1.89067e-05
1.98715e-05
3.64113e-05
0.000107427
0.000110507
3.74767e-05
2.05204e-05
2.14547e-05
3.67493e-05
0.00010675
0.000109378
3.76005e-05
2.20181e-05
2.29146e-05
3.69085e-05
0.000105951
0.000108247
3.75606e-05
2.33866e-05
2.4232e-05
3.69105e-05
0.000105151
0.000107331
3.74286e-05
2.46195e-05
2.54029e-05
3.68652e-05
0.000104607
0.000106877
3.73085e-05
2.57153e-05
2.64266e-05
3.68388e-05
0.000104535
0.000107125
3.72472e-05
2.66763e-05
2.73231e-05
3.69258e-05
0.000105375
0.000108955
3.7376e-05
2.75316e-05
2.80983e-05
3.72733e-05
0.000108053
0.000113473
3.7874e-05
2.82445e-05
2.8721e-05
3.80598e-05
0.000113523
0.000121044
3.8994e-05
2.88063e-05
2.91913e-05
3.95137e-05
0.000122143
0.000132327
4.10655e-05
2.92151e-05
2.95099e-05
4.19806e-05
0.000134414
0.000144985
4.40627e-05
2.94752e-05
2.96747e-05
4.49698e-05
0.000146533
0.000155267
4.70294e-05
2.95882e-05
2.9686e-05
4.72395e-05
0.000154705
0.000159673
4.82326e-05
2.95495e-05
2.96285e-05
4.75001e-05
0.000156348
0.00015844
4.79866e-05
2.94735e-05
2.95333e-05
4.63761e-05
0.000153398
0.000153829
4.61308e-05
2.93308e-05
2.95528e-05
4.26331e-05
0.000142965
0.000137792
4.07349e-05
2.95272e-05
3.01362e-05
3.85813e-05
0.000120242
0.000118671
4.02733e-05
3.05868e-05
3.22851e-05
4.94946e-05
0.000125168
0.00026217
9.59803e-05
3.29298e-05
2.17568e-05
0.000365145
0.000595079
0.000333456
0.000238833
0.000864883
0.000864713
0.000866617
0.000865021
0.000864699
0.000864342
0.000864677
0.000863805
0.0008649
0.000863638
0.000864202
0.00086515
0.000864405
0.000865169
0.000865221
0.000864982
0.000864838
0.000808133
0.000501057
0.000665293
0.000587669
9.42164e-05
5.47408e-06
6.39234e-06
3.11501e-05
0.000214134
0.00013131
1.99401e-05
6.86367e-06
6.79487e-06
1.52045e-05
7.77618e-05
4.91612e-05
1.23352e-05
6.67234e-06
6.48058e-06
1.06617e-05
3.6016e-05
3.185e-05
9.81302e-06
6.27376e-06
6.18835e-06
9.48458e-06
3.07275e-05
3.08636e-05
9.42251e-06
6.145e-06
6.12121e-06
9.46219e-06
3.18011e-05
3.24876e-05
9.51607e-06
6.13709e-06
6.17732e-06
9.51508e-06
3.23674e-05
3.16109e-05
9.47696e-06
6.21973e-06
6.25488e-06
9.4703e-06
3.1319e-05
3.11929e-05
9.45662e-06
6.28043e-06
6.32454e-06
9.40079e-06
3.07049e-05
2.97836e-05
9.33334e-06
6.3509e-06
6.36739e-06
9.3111e-06
2.95051e-05
2.94481e-05
9.27794e-06
6.38006e-06
6.3993e-06
9.20846e-06
2.90338e-05
2.82952e-05
9.14863e-06
6.42477e-06
6.4256e-06
9.12638e-06
2.80949e-05
2.81118e-05
9.08564e-06
6.44115e-06
6.46462e-06
9.00519e-06
2.76801e-05
2.69908e-05
8.94385e-06
6.49683e-06
6.50436e-06
8.92152e-06
2.68407e-05
2.68711e-05
8.87678e-06
6.52593e-06
6.55491e-06
8.79157e-06
2.64593e-05
2.58995e-05
8.73231e-06
6.59102e-06
6.60178e-06
8.70995e-06
2.58433e-05
2.59131e-05
8.66037e-06
6.62522e-06
6.65662e-06
8.5718e-06
2.55505e-05
2.51083e-05
8.51524e-06
6.69328e-06
6.70326e-06
8.49043e-06
2.51206e-05
2.52053e-05
8.43005e-06
6.72389e-06
6.75258e-06
8.34798e-06
2.48774e-05
2.45703e-05
8.29651e-06
6.77905e-06
6.79483e-06
8.27039e-06
2.46805e-05
2.48125e-05
8.21193e-06
6.80684e-06
6.83095e-06
8.14018e-06
2.45575e-05
2.43899e-05
8.09522e-06
6.85014e-06
6.85901e-06
8.06974e-06
2.46007e-05
2.4755e-05
8.01236e-06
6.86534e-06
6.88512e-06
7.93935e-06
2.44797e-05
2.43497e-05
7.89768e-06
6.89844e-06
6.90026e-06
7.86735e-06
2.45889e-05
2.471e-05
7.80687e-06
6.89934e-06
6.91125e-06
7.72949e-06
2.43628e-05
2.42762e-05
7.69055e-06
6.91437e-06
6.90399e-06
7.6548e-06
2.45396e-05
2.46169e-05
7.58919e-06
6.89093e-06
6.8907e-06
7.50777e-06
2.4183e-05
2.41521e-05
7.47143e-06
6.87557e-06
6.84851e-06
7.42996e-06
2.44338e-05
2.44633e-05
7.35876e-06
6.8196e-06
6.80368e-06
7.27347e-06
2.39404e-05
2.39978e-05
7.24046e-06
6.7635e-06
6.71877e-06
7.19275e-06
2.43005e-05
2.4285e-05
7.12013e-06
6.67196e-06
6.63822e-06
7.02656e-06
2.36893e-05
2.38684e-05
6.99677e-06
6.56932e-06
6.5061e-06
6.94268e-06
2.41757e-05
2.41066e-05
6.87188e-06
6.44074e-06
6.3884e-06
6.76342e-06
2.3422e-05
2.37758e-05
6.74232e-06
6.29183e-06
6.20039e-06
6.67502e-06
2.40965e-05
2.39689e-05
6.6078e-06
6.12031e-06
6.05016e-06
6.48312e-06
2.31615e-05
2.37272e-05
6.46873e-06
5.92442e-06
5.81873e-06
6.39334e-06
2.39867e-05
2.37999e-05
6.33002e-06
5.72194e-06
5.63366e-06
6.18908e-06
2.29286e-05
2.37772e-05
6.18241e-06
5.47604e-06
5.36911e-06
6.10138e-06
2.38989e-05
2.36244e-05
6.03719e-06
5.25593e-06
5.15147e-06
5.87638e-06
2.27196e-05
2.39141e-05
5.88746e-06
4.96734e-06
4.85572e-06
5.79191e-06
2.38331e-05
2.33853e-05
5.72174e-06
4.736e-06
4.62168e-06
5.5402e-06
2.24064e-05
2.39642e-05
5.57645e-06
4.42106e-06
4.30448e-06
5.45396e-06
2.35545e-05
2.29463e-05
5.37794e-06
4.18496e-06
4.06318e-06
5.1819e-06
2.18473e-05
2.36693e-05
5.24198e-06
3.85263e-06
3.75209e-06
5.09189e-06
2.27714e-05
2.23276e-05
5.02759e-06
3.62568e-06
3.49366e-06
4.85208e-06
2.15827e-05
2.39622e-05
4.96505e-06
3.27608e-06
3.18871e-06
4.7882e-06
2.26333e-05
2.24694e-05
4.73744e-06
3.06903e-06
2.93923e-06
4.55277e-06
2.19524e-05
2.47922e-05
4.71012e-06
2.73671e-06
2.66899e-06
4.47512e-06
2.28374e-05
2.31396e-05
4.5212e-06
2.58956e-06
2.48739e-06
4.34649e-06
2.25527e-05
2.51574e-05
4.47862e-06
2.29763e-06
2.22985e-06
4.27417e-06
2.25215e-05
2.11098e-05
4.22083e-06
2.16898e-06
2.06053e-06
3.86129e-06
1.78168e-05
1.84169e-05
3.97884e-06
1.93604e-06
1.92384e-06
3.64177e-06
1.49809e-05
1.48441e-05
3.74441e-06
1.84904e-06
1.77123e-06
3.58735e-06
1.3687e-05
1.4679e-05
3.64378e-06
1.66873e-06
1.53349e-06
3.1198e-06
1.26357e-05
1.59401e-05
3.61763e-06
1.3402e-06
1.30271e-06
4.05291e-06
1.70711e-05
8.10617e-06
1.19852e-06
4.78448e-07
1.43821e-07
9.42671e-07
7.47365e-06
1.10953e-05
1.55694e-06
3.18787e-07
4.72249e-07
1.77349e-06
1.02583e-05
8.4424e-06
1.49057e-06
4.49739e-07
3.76503e-07
1.82456e-06
1.02996e-05
8.41645e-06
1.63146e-06
3.97968e-07
3.2345e-07
1.97321e-06
9.19912e-06
8.71132e-06
1.94905e-06
3.20032e-07
2.70668e-07
2.30413e-06
9.23865e-06
8.38707e-06
2.21149e-06
2.6655e-07
1.82025e-07
2.81822e-06
9.22767e-06
9.12913e-06
2.60412e-06
2.0127e-07
2.67148e-08
2.19413e-06
1.04755e-05
3.86431e-06
7.60423e-07
3.17226e-08
7.54265e-08
1.81015e-06
7.96076e-06
7.45616e-06
2.17253e-06
6.68654e-08
6.71988e-08
2.77928e-06
8.66633e-06
8.7723e-06
3.12795e-06
1.04563e-07
2.25255e-07
3.65098e-06
9.39612e-06
1.00031e-05
4.12058e-06
4.51142e-07
6.77222e-07
4.02907e-06
1.04783e-05
1.04247e-05
3.7263e-06
2.2846e-07
4.22855e-08
1.26946e-06
3.91791e-06
7.79282e-06
2.80755e-06
9.00079e-08
1.85247e-07
3.3091e-06
6.8416e-06
7.90779e-06
3.98799e-06
3.27702e-07
5.77406e-07
4.24671e-06
8.53359e-06
9.04073e-06
4.3142e-06
9.52909e-07
3.60832e-07
4.14297e-06
9.26327e-06
4.46265e-06
1.96932e-06
8.04621e-08
2.63256e-07
4.2547e-06
8.76143e-06
8.27416e-06
5.32123e-06
6.25212e-07
1.16995e-06
6.00332e-06
9.7012e-06
1.02221e-05
5.72361e-06
1.67528e-06
5.0007e-07
5.28807e-06
1.03147e-05
5.70114e-06
3.11198e-06
2.00141e-07
5.0896e-07
6.15065e-06
9.81121e-06
9.78726e-06
6.30128e-06
9.967e-07
1.64965e-06
7.57138e-06
1.1874e-05
1.22007e-05
6.02623e-06
6.01653e-07
4.57935e-07
4.49238e-06
9.01608e-06
1.27322e-05
9.54271e-06
1.04924e-06
2.00643e-06
9.72923e-06
1.42756e-05
1.71008e-05
1.25131e-05
3.43533e-06
1.94161e-06
6.97516e-06
1.62076e-05
1.8381e-05
8.72133e-06
1.60831e-06
3.73208e-06
1.8541e-05
2.37108e-05
1.68371e-05
6.80993e-06
3.47575e-06
3.42581e-06
1.18853e-05
2.32156e-05
2.89162e-05
2.35955e-05
7.2134e-06
7.70975e-06
9.76006e-06
1.82282e-05
2.62534e-05
2.0311e-05
7.12222e-06
9.64189e-06
1.03343e-05
1.71683e-05
2.66644e-05
1.66618e-05
8.62131e-06
1.13536e-05
1.63118e-05
2.76339e-05
2.39275e-05
1.44931e-05
1.0773e-05
1.03171e-05
1.43333e-05
2.40256e-05
2.75459e-05
1.57963e-05
1.01006e-05
1.02318e-05
2.53402e-05
3.40027e-05
1.76812e-05
1.07723e-05
8.67599e-06
6.77722e-06
1.60789e-05
2.96971e-05
1.3839e-05
7.0717e-06
7.35761e-06
5.99961e-06
1.23786e-05
2.3528e-05
1.8299e-05
1.09807e-05
7.28052e-06
5.10299e-06
4.1961e-06
8.4828e-06
1.72376e-05
9.86891e-06
4.95501e-06
5.81799e-06
4.6414e-06
1.00355e-05
1.75818e-05
9.33737e-06
5.14727e-06
6.37337e-06
8.92305e-06
1.58004e-05
8.79138e-06
3.89533e-06
4.40476e-06
4.09969e-06
7.6836e-06
1.52418e-05
1.44963e-05
7.56988e-06
5.64679e-06
3.79027e-06
3.40211e-06
8.2623e-06
1.4101e-05
6.93752e-06
3.75746e-06
5.27271e-06
6.79951e-06
1.31399e-05
7.45633e-06
3.03175e-06
3.56652e-06
3.40407e-06
6.32147e-06
1.32827e-05
1.30179e-05
6.37328e-06
4.78338e-06
3.3434e-06
2.79982e-06
7.22133e-06
1.3572e-05
5.97538e-06
3.24874e-06
4.59434e-06
5.97629e-06
1.31122e-05
6.94528e-06
2.6162e-06
3.16673e-06
3.04616e-06
6.07584e-06
1.5019e-05
1.56804e-05
6.27521e-06
4.27863e-06
3.06365e-06
2.59868e-06
7.64498e-06
1.84047e-05
6.365e-06
3.08852e-06
4.33078e-06
6.18149e-06
1.75171e-05
7.79507e-06
2.54861e-06
3.11578e-06
3.16763e-06
6.14405e-06
1.93476e-05
1.77656e-05
5.01418e-06
4.36557e-06
3.8009e-06
4.09974e-06
1.31465e-05
3.737e-06
1.69559e-06
2.98087e-06
3.06207e-06
3.60977e-06
1.05839e-05
8.84651e-06
3.5788e-06
4.4707e-06
3.28419e-06
1.79369e-06
3.06653e-06
8.88235e-06
3.20152e-06
3.20904e-06
4.53921e-06
3.26586e-06
7.41535e-06
2.58548e-06
1.72795e-06
3.25293e-06
3.17382e-06
2.72742e-06
7.32165e-06
7.37665e-06
3.26172e-06
4.49479e-06
3.2718e-06
1.72061e-06
2.79152e-06
1.00889e-05
2.87125e-06
3.18734e-06
4.42532e-06
3.32853e-06
9.4751e-06
3.12505e-06
1.74344e-06
3.22348e-06
3.31361e-06
3.22233e-06
1.37585e-05
9.70806e-06
3.09633e-06
4.69838e-06
3.57759e-06
1.94037e-06
2.59244e-06
7.95332e-06
2.39879e-06
3.57812e-06
4.81717e-06
2.71652e-06
6.86657e-06
2.20251e-06
1.86988e-06
3.61064e-06
3.66084e-06
2.61417e-06
9.42294e-06
8.11015e-06
2.78111e-06
5.03378e-06
3.66133e-06
1.95586e-06
2.18669e-06
8.5703e-06
2.97957e-06
3.7931e-06
5.17178e-06
2.21032e-06
2.65789e-06
9.64959e-06
2.7599e-06
3.92518e-06
4.60552e-06
2.82484e-06
7.0265e-06
2.05771e-06
2.19132e-06
4.19079e-06
4.02381e-06
2.35519e-06
6.03401e-06
4.98057e-06
2.49397e-06
4.81965e-06
4.23684e-06
2.17968e-06
1.65182e-06
4.5637e-06
2.10449e-06
4.08369e-06
4.96099e-06
2.74533e-06
4.68259e-06
1.66334e-06
2.30379e-06
4.35219e-06
4.25546e-06
2.13234e-06
4.28493e-06
4.63204e-06
2.88384e-06
5.27274e-06
4.51514e-06
2.514e-06
1.79518e-06
4.35638e-06
2.07493e-06
4.31127e-06
5.67231e-06
3.33223e-06
4.31885e-06
1.89174e-06
2.78061e-06
4.62125e-06
4.77141e-06
1.46337e-06
2.87779e-06
1.87605e-06
3.1107e-06
6.37227e-06
4.69849e-06
2.40768e-06
4.47127e-06
4.47338e-06
3.79747e-06
5.79997e-06
5.41705e-06
3.49879e-06
2.45125e-06
3.96036e-06
2.19215e-06
4.8436e-06
6.41505e-06
3.83776e-06
3.51029e-06
2.40771e-06
3.78079e-06
5.6266e-06
5.1439e-06
1.32351e-06
2.99779e-06
2.2405e-06
3.9698e-06
7.01151e-06
5.11527e-06
2.40479e-06
4.08919e-06
3.90017e-06
4.36834e-06
6.45157e-06
6.19588e-06
4.64771e-06
3.10103e-06
4.44974e-06
2.76696e-06
5.31127e-06
7.13791e-06
4.78136e-06
3.90815e-06
3.20683e-06
4.75517e-06
6.40893e-06
5.58397e-06
1.63153e-06
3.64012e-06
2.8597e-06
4.78981e-06
7.62892e-06
5.57379e-06
2.7256e-06
4.01886e-06
3.58022e-06
4.70856e-06
7.17163e-06
6.7853e-06
5.62076e-06
3.57678e-06
4.45642e-06
3.22042e-06
5.76867e-06
7.7823e-06
5.40957e-06
3.87839e-06
3.86194e-06
5.65969e-06
7.07603e-06
5.96941e-06
2.08713e-06
4.02083e-06
3.50529e-06
5.59864e-06
8.18516e-06
6.01995e-06
3.30937e-06
4.67896e-06
4.12437e-06
5.34663e-06
7.86904e-06
7.25293e-06
6.45101e-06
4.4398e-06
4.39039e-06
2.49044e-06
6.13421e-06
8.45244e-06
6.34247e-06
4.06554e-06
5.12525e-06
3.99221e-06
6.42054e-06
8.48705e-06
5.3497e-06
4.58516e-06
5.0392e-06
7.3489e-06
7.6704e-06
6.36292e-06
3.97441e-06
4.90658e-06
4.55287e-06
6.82164e-06
8.6912e-06
6.56194e-06
4.53527e-06
5.53296e-06
5.02597e-06
5.74424e-06
8.79251e-06
7.96615e-06
7.9682e-06
5.62606e-06
5.49253e-06
4.50541e-06
6.61546e-06
9.12482e-06
7.39378e-06
5.22049e-06
5.80881e-06
4.85086e-06
7.00083e-06
9.30704e-06
6.30252e-06
5.2698e-06
6.11748e-06
8.54084e-06
8.30153e-06
6.82362e-06
5.35318e-06
5.89434e-06
5.77518e-06
7.94825e-06
9.33278e-06
7.31355e-06
5.38501e-06
6.22853e-06
5.69611e-06
6.41498e-06
9.71592e-06
8.61897e-06
9.02148e-06
6.59075e-06
6.35477e-06
5.353e-06
7.11145e-06
9.5901e-06
8.916e-06
6.61234e-06
6.51336e-06
3.83541e-06
7.26626e-06
9.88344e-06
8.8285e-06
6.57549e-06
6.79019e-06
6.21673e-06
7.65083e-06
1.02027e-05
7.42165e-06
6.32993e-06
7.54169e-06
1.00228e-05
9.05335e-06
7.46285e-06
7.09662e-06
6.9028e-06
7.29692e-06
9.69093e-06
1.02708e-05
8.15281e-06
6.78363e-06
7.28188e-06
6.85542e-06
7.92011e-06
1.09004e-05
9.38352e-06
1.03581e-05
8.07773e-06
7.262e-06
7.36435e-06
7.78632e-06
1.0446e-05
1.01493e-05
7.84553e-06
7.7879e-06
5.75245e-06
7.8774e-06
1.06627e-05
1.01538e-05
8.09245e-06
7.93631e-06
7.40849e-06
8.40264e-06
1.13672e-05
8.56986e-06
7.54972e-06
9.05969e-06
1.15171e-05
9.94236e-06
8.13037e-06
8.6863e-06
8.26199e-06
9.07386e-06
1.14953e-05
1.10954e-05
8.47271e-06
6.48842e-06
9.14808e-06
9.81168e-06
1.19974e-05
1.15349e-05
9.17057e-06
8.66396e-06
9.34172e-06
8.94221e-06
1.02458e-05
1.23572e-05
1.04977e-05
1.2637e-05
1.03943e-05
9.40118e-06
1.04628e-05
8.5622e-06
1.16231e-05
1.24972e-05
1.02895e-05
1.00057e-05
7.92844e-06
8.87245e-06
1.21412e-05
1.30333e-05
1.08866e-05
1.016e-05
9.66426e-06
9.64973e-06
1.29825e-05
1.11716e-05
9.80099e-06
1.14605e-05
1.37742e-05
1.11507e-05
9.14209e-06
1.18177e-05
1.04801e-05
1.1645e-05
1.3888e-05
1.23692e-05
9.51664e-06
9.62666e-06
1.08671e-05
1.20823e-05
1.4453e-05
1.27563e-05
1.01293e-05
1.08489e-05
1.13582e-05
1.0997e-05
1.24074e-05
1.35767e-05
1.15497e-05
1.44413e-05
1.25232e-05
1.13981e-05
1.27856e-05
9.52811e-06
1.2796e-05
1.43396e-05
1.24133e-05
1.19715e-05
1.00071e-05
9.8509e-06
1.33216e-05
1.51123e-05
1.31629e-05
1.20545e-05
1.16681e-05
1.06343e-05
1.42951e-05
1.3209e-05
1.17816e-05
1.35461e-05
1.55186e-05
1.215e-05
9.80573e-06
1.45338e-05
1.22098e-05
1.34189e-05
1.53635e-05
1.32265e-05
9.97316e-06
1.0808e-05
1.27826e-05
1.4131e-05
1.58129e-05
1.3661e-05
1.03753e-05
1.16965e-05
1.29536e-05
1.49076e-05
1.74933e-05
1.41959e-05
1.13991e-05
1.39528e-05
1.37054e-05
1.35392e-05
1.58321e-05
1.52019e-05
1.27586e-05
1.72967e-05
1.56024e-05
1.41094e-05
1.69836e-05
1.05105e-05
1.41073e-05
1.72588e-05
1.55078e-05
1.40802e-05
1.31991e-05
1.08841e-05
1.44826e-05
1.75273e-05
1.57288e-05
1.409e-05
1.34923e-05
1.09362e-05
1.48322e-05
1.91259e-05
1.63129e-05
1.49304e-05
1.5421e-05
1.19279e-05
1.58974e-05
1.70099e-05
1.47648e-05
1.70145e-05
1.87763e-05
1.34562e-05
1.0883e-05
1.85464e-05
1.53046e-05
1.70165e-05
1.91115e-05
1.48105e-05
1.13631e-05
1.44617e-05
1.56276e-05
1.75391e-05
1.94796e-05
1.52182e-05
1.16087e-05
1.52359e-05
1.57419e-05
1.82329e-05
2.1276e-05
1.56194e-05
1.25529e-05
1.74113e-05
1.66987e-05
1.65899e-05
1.90964e-05
1.65999e-05
1.38941e-05
2.04311e-05
1.88419e-05
1.7076e-05
2.08314e-05
1.12993e-05
1.53534e-05
2.07231e-05
1.8792e-05
1.73256e-05
1.60059e-05
1.17163e-05
1.56631e-05
2.07817e-05
1.91426e-05
1.7181e-05
1.67124e-05
1.19155e-05
1.6096e-05
2.25658e-05
1.96529e-05
1.78997e-05
1.85322e-05
1.28893e-05
1.71049e-05
2.05498e-05
1.78024e-05
2.02829e-05
2.19217e-05
1.43504e-05
1.17687e-05
2.2164e-05
1.84477e-05
2.0342e-05
2.23846e-05
1.58609e-05
1.20656e-05
1.76353e-05
1.86951e-05
2.07023e-05
2.24363e-05
1.60022e-05
1.20991e-05
1.78449e-05
1.85811e-05
2.11487e-05
2.35289e-05
1.61843e-05
1.24212e-05
1.92034e-05
1.896e-05
2.19253e-05
2.53221e-05
1.65214e-05
1.33449e-05
2.11875e-05
2.00753e-05
2.00352e-05
2.29837e-05
1.7565e-05
1.47166e-05
2.37356e-05
2.24183e-05
2.03627e-05
2.47178e-05
1.19424e-05
1.63461e-05
2.42682e-05
2.23288e-05
2.03974e-05
1.93501e-05
1.25781e-05
1.6617e-05
2.43812e-05
2.25304e-05
2.02551e-05
1.96019e-05
1.25432e-05
1.66541e-05
2.56164e-05
2.29923e-05
2.06518e-05
2.13005e-05
1.28062e-05
1.69878e-05
2.74335e-05
2.37589e-05
2.17255e-05
2.28375e-05
1.36934e-05
1.8101e-05
2.46387e-05
2.16285e-05
2.4485e-05
2.6389e-05
1.52537e-05
1.21828e-05
2.70473e-05
2.22096e-05
2.46235e-05
2.70589e-05
1.67501e-05
1.27325e-05
2.18285e-05
2.23664e-05
2.47454e-05
2.69456e-05
1.69936e-05
1.29883e-05
2.19901e-05
2.24314e-05
2.53857e-05
2.81833e-05
1.70824e-05
1.30747e-05
2.36169e-05
2.29276e-05
2.61107e-05
2.98736e-05
1.73683e-05
1.41017e-05
2.5164e-05
2.40399e-05
2.40169e-05
2.71626e-05
1.84159e-05
1.55217e-05
2.8347e-05
2.66736e-05
2.45668e-05
2.91837e-05
1.26748e-05
1.72376e-05
2.88798e-05
2.67792e-05
2.42153e-05
2.36311e-05
1.32963e-05
1.75006e-05
2.86451e-05
2.65403e-05
2.40899e-05
2.32544e-05
1.33424e-05
1.75385e-05
2.98472e-05
2.70144e-05
2.44444e-05
2.50646e-05
1.35336e-05
1.77555e-05
3.19115e-05
2.78673e-05
2.55843e-05
2.67986e-05
1.42686e-05
1.87563e-05
2.88939e-05
2.55448e-05
2.84386e-05
3.03752e-05
1.57899e-05
1.27557e-05
3.1378e-05
2.63135e-05
2.86637e-05
3.10228e-05
1.75213e-05
1.34661e-05
2.55248e-05
2.62019e-05
2.8626e-05
3.08842e-05
1.77818e-05
1.36075e-05
2.53876e-05
2.60952e-05
2.91446e-05
3.20321e-05
1.77704e-05
1.37379e-05
2.7211e-05
2.64524e-05
2.98704e-05
3.38878e-05
1.7986e-05
1.45447e-05
2.87645e-05
2.75923e-05
2.75471e-05
3.09586e-05
1.90751e-05
1.60043e-05
3.18483e-05
3.02011e-05
2.80606e-05
3.31479e-05
1.29978e-05
1.78522e-05
3.24939e-05
3.03584e-05
2.7628e-05
2.69675e-05
1.3726e-05
1.81019e-05
3.23523e-05
3.0102e-05
2.74914e-05
2.68323e-05
1.38885e-05
1.80643e-05
3.34162e-05
3.05367e-05
2.78241e-05
2.80698e-05
1.39159e-05
1.80815e-05
3.47971e-05
3.12974e-05
2.85634e-05
2.99782e-05
1.39527e-05
1.83341e-05
3.66125e-05
3.21958e-05
2.97156e-05
3.10106e-05
1.48238e-05
1.94431e-05
3.33188e-05
2.96488e-05
3.27658e-05
3.49434e-05
1.63622e-05
1.3245e-05
3.60528e-05
3.06151e-05
3.32128e-05
3.58896e-05
1.82494e-05
1.4105e-05
3.01728e-05
3.05422e-05
3.32494e-05
3.57598e-05
1.84668e-05
1.41578e-05
3.02866e-05
3.05135e-05
3.37802e-05
3.69857e-05
1.8402e-05
1.42273e-05
3.22576e-05
3.09397e-05
3.45447e-05
3.88472e-05
1.86595e-05
1.5197e-05
3.32592e-05
3.20738e-05
3.19943e-05
3.55337e-05
1.97947e-05
1.65842e-05
3.67283e-05
3.48073e-05
3.26721e-05
3.82649e-05
1.34716e-05
1.8561e-05
3.76116e-05
3.51204e-05
3.25062e-05
3.22518e-05
1.4426e-05
1.87889e-05
3.71148e-05
3.50117e-05
3.213e-05
3.17028e-05
1.45685e-05
1.87691e-05
3.83165e-05
3.52829e-05
3.24511e-05
3.35548e-05
1.45576e-05
1.89692e-05
4.02308e-05
3.60199e-05
3.34034e-05
3.4587e-05
1.54461e-05
2.02325e-05
3.6918e-05
3.33381e-05
3.6312e-05
3.83252e-05
1.68737e-05
1.36299e-05
3.98494e-05
3.40322e-05
3.67384e-05
3.9401e-05
1.88544e-05
1.46604e-05
3.40033e-05
3.41036e-05
3.675e-05
3.9264e-05
1.90721e-05
1.4678e-05
3.38826e-05
3.40978e-05
3.72568e-05
4.03466e-05
1.89864e-05
1.4844e-05
3.56441e-05
3.44615e-05
3.80372e-05
4.23917e-05
1.92266e-05
1.56601e-05
3.66998e-05
3.5625e-05
3.55575e-05
3.90671e-05
2.03441e-05
1.70394e-05
4.00508e-05
3.82635e-05
3.59893e-05
4.21056e-05
1.3851e-05
1.90525e-05
4.08118e-05
3.84981e-05
3.59674e-05
3.55933e-05
1.48599e-05
1.9384e-05
4.06104e-05
3.84278e-05
3.5768e-05
3.55423e-05
1.49727e-05
1.93478e-05
4.18607e-05
3.8857e-05
3.61166e-05
3.72861e-05
1.50609e-05
1.95707e-05
4.39261e-05
3.96544e-05
3.70486e-05
3.8069e-05
1.60232e-05
2.07818e-05
4.04105e-05
3.70277e-05
3.9964e-05
4.20152e-05
1.74079e-05
1.42782e-05
4.35583e-05
3.76818e-05
4.04052e-05
4.30719e-05
1.93806e-05
1.51167e-05
3.80946e-05
3.78401e-05
4.04396e-05
4.29406e-05
1.95811e-05
1.50948e-05
3.79265e-05
3.79033e-05
4.09305e-05
4.4598e-05
1.97199e-05
1.62591e-05
3.93997e-05
3.89318e-05
3.87703e-05
4.16121e-05
2.11443e-05
1.75921e-05
4.23283e-05
4.08851e-05
3.89158e-05
4.46197e-05
1.44158e-05
1.96676e-05
4.34382e-05
4.11445e-05
3.8756e-05
3.87351e-05
1.54233e-05
1.99236e-05
4.33004e-05
4.11056e-05
3.86222e-05
3.86951e-05
1.54488e-05
2.00733e-05
4.53289e-05
4.16483e-05
3.94492e-05
3.97895e-05
1.63065e-05
2.12336e-05
4.20022e-05
3.93639e-05
4.15933e-05
4.3254e-05
1.77282e-05
1.44743e-05
4.54109e-05
3.97557e-05
4.20153e-05
4.44859e-05
1.97183e-05
1.53209e-05
3.90214e-05
3.9769e-05
4.2216e-05
4.46326e-05
2.00038e-05
1.56606e-05
4.02451e-05
3.9904e-05
4.2891e-05
4.65397e-05
2.01663e-05
1.64149e-05
4.12345e-05
4.10002e-05
4.08524e-05
4.35404e-05
2.14826e-05
1.78129e-05
4.39246e-05
4.27171e-05
4.07849e-05
4.6595e-05
1.45348e-05
1.99377e-05
4.52382e-05
4.30026e-05
4.07539e-05
4.04485e-05
1.56389e-05
2.01457e-05
4.52724e-05
4.3065e-05
4.06782e-05
4.0778e-05
1.56858e-05
2.02968e-05
4.7407e-05
4.36529e-05
4.15758e-05
4.18201e-05
1.65448e-05
2.14419e-05
4.39072e-05
4.15053e-05
4.36925e-05
4.53955e-05
1.78909e-05
1.46604e-05
4.7398e-05
4.1881e-05
4.42885e-05
4.69898e-05
2.00406e-05
1.57143e-05
4.19412e-05
4.21293e-05
4.45717e-05
4.70724e-05
2.02528e-05
1.58652e-05
4.24238e-05
4.23361e-05
4.53815e-05
4.92147e-05
2.03442e-05
1.65843e-05
4.37458e-05
4.3435e-05
4.3353e-05
4.60332e-05
2.15313e-05
1.79455e-05
4.67636e-05
4.53861e-05
4.35262e-05
4.91681e-05
1.47461e-05
2.00052e-05
4.83589e-05
4.57993e-05
4.35911e-05
4.41404e-05
1.57287e-05
2.04893e-05
4.93942e-05
4.61796e-05
4.40003e-05
4.36068e-05
1.66523e-05
2.15118e-05
4.50974e-05
4.38512e-05
4.5385e-05
4.71555e-05
1.80369e-05
1.47387e-05
4.91322e-05
4.39458e-05
4.63114e-05
4.9222e-05
2.01288e-05
1.57965e-05
4.44915e-05
4.43307e-05
4.6772e-05
4.95427e-05
2.02886e-05
1.58819e-05
4.45144e-05
4.46507e-05
4.77411e-05
5.1815e-05
2.03232e-05
1.64824e-05
4.60075e-05
4.56583e-05
4.56225e-05
4.84304e-05
2.1562e-05
1.80078e-05
4.99966e-05
4.8047e-05
4.59667e-05
5.21859e-05
1.46529e-05
1.99516e-05
5.16098e-05
4.87183e-05
4.63126e-05
4.68948e-05
1.57352e-05
2.03436e-05
5.26888e-05
4.90231e-05
4.68953e-05
4.64229e-05
1.63001e-05
2.15301e-05
4.86243e-05
4.6776e-05
4.91607e-05
5.15712e-05
1.83646e-05
1.50948e-05
5.2623e-05
4.71247e-05
4.99329e-05
5.34279e-05
2.02126e-05
1.59507e-05
4.84321e-05
4.76337e-05
5.05934e-05
5.46938e-05
2.05466e-05
1.67093e-05
4.80993e-05
4.82731e-05
4.82817e-05
5.05477e-05
2.19606e-05
1.83043e-05
5.30292e-05
5.07131e-05
4.85538e-05
5.43331e-05
1.48433e-05
2.03173e-05
5.5722e-05
5.16795e-05
4.91334e-05
4.87524e-05
1.65474e-05
2.19738e-05
5.05348e-05
4.9074e-05
5.06231e-05
5.24644e-05
1.83026e-05
1.46552e-05
5.46595e-05
4.90875e-05
5.14434e-05
5.46595e-05
2.01971e-05
1.59509e-05
4.94901e-05
4.93566e-05
5.20444e-05
5.60605e-05
2.0708e-05
1.6836e-05
4.93525e-05
5.00633e-05
5.00058e-05
5.20762e-05
2.22939e-05
1.85942e-05
5.49419e-05
5.24188e-05
5.02791e-05
5.56019e-05
1.52883e-05
2.06616e-05
5.79647e-05
5.33814e-05
5.08071e-05
5.06143e-05
1.69201e-05
2.25198e-05
5.23953e-05
5.07953e-05
5.30869e-05
5.55712e-05
1.88517e-05
1.52553e-05
5.62894e-05
5.10223e-05
5.38464e-05
5.82367e-05
2.05497e-05
1.64638e-05
5.08837e-05
5.14542e-05
5.13932e-05
5.30886e-05
2.24544e-05
1.90868e-05
5.58856e-05
5.35063e-05
5.15856e-05
5.62244e-05
1.56274e-05
2.10996e-05
5.93175e-05
5.45638e-05
5.21379e-05
5.17639e-05
1.71167e-05
2.30356e-05
5.37428e-05
5.2102e-05
5.44677e-05
5.71741e-05
1.9219e-05
1.56114e-05
5.75303e-05
5.23914e-05
5.54456e-05
6.0184e-05
2.10133e-05
1.70232e-05
5.26388e-05
5.30167e-05
5.29732e-05
5.45086e-05
2.29439e-05
1.91566e-05
5.75915e-05
5.5114e-05
5.30065e-05
5.88871e-05
1.50219e-05
2.10071e-05
6.09636e-05
5.61294e-05
5.35736e-05
5.28402e-05
1.73385e-05
2.36508e-05
5.49191e-05
5.35755e-05
5.65101e-05
6.00278e-05
1.98303e-05
1.61553e-05
5.93069e-05
5.41183e-05
5.80164e-05
6.39049e-05
2.19031e-05
1.79034e-05
5.55559e-05
5.52305e-05
5.52899e-05
5.78459e-05
2.40805e-05
1.99509e-05
6.21396e-05
5.87186e-05
5.60484e-05
6.17985e-05
1.61229e-05
2.20571e-05
6.62213e-05
6.01017e-05
5.68829e-05
5.76586e-05
1.78832e-05
2.39563e-05
5.88202e-05
5.69735e-05
6.1763e-05
6.75443e-05
2.07301e-05
1.76628e-05