/*--------------------------------*- C++ -*----------------------------------*\
| =========                 |                                                 |
| \\      /  F ield         | OpenFOAM: The Open Source CFD Toolbox           |
|  \\    /   O peration     | Version:  v2006                                 |
|   \\  /    A nd           | Website:  www.openfoam.com                      |
|    \\/     M anipulation  |                                                 |
\*---------------------------------------------------------------------------*/
FoamFile
{
    version     2.0;
    format      ascii;
    class       volScalarField;
    location    "0.002";
    object      Co;
}
// * * * * * * * * * * * * * * * * * * * * * * * * * * * * * * * * * * * * * //

dimensions      [0 0 0 0 0 0 0];


internalField   nonuniform List<scalar> 
16277
(
0.00184277
0.00174733
0.00185702
0.00193733
0.00195137
0.00191848
0.0019267
0.00190904
0.00191462
0.00193731
0.00196264
0.00198983
0.00201821
0.00204637
0.00207534
0.00210422
0.00213258
0.00215987
0.00218538
0.00221084
0.002237
0.00226168
0.00228443
0.00230527
0.00232372
0.00233919
0.00235123
0.00235962
0.00236436
0.00236555
0.00236334
0.002358
0.00234999
0.00233987
0.00232821
0.00231554
0.00230232
0.00228933
0.00227749
0.0022676
0.00226029
0.00225611
0.00225554
0.00225895
0.00226664
0.00227871
0.00229518
0.00231588
0.00234049
0.00236859
0.0023997
0.00243327
0.00246865
0.00250526
0.00254238
0.00257887
0.00261368
0.00264577
0.00267517
0.00269832
0.00271871
0.0027342
0.00274016
0.00273397
0.00271339
0.0026759
0.00261934
0.0025417
0.00244197
0.00232111
0.00218295
0.00203418
0.00188476
0.00174665
0.00162957
0.00153917
0.00147701
0.00144043
0.00142355
0.00142122
0.00142844
0.00144164
0.00145902
0.00148491
0.00151681
0.00157681
0.00167315
0.00188067
0.00235561
0.00325994
0.00504812
0.00396199
0.00353381
0.00339051
0.00331949
0.00324062
0.00305874
0.002788
0.0031027
0.00327833
0.00308619
0.00305704
0.00282194
0.00236912
0.00263506
0.00270831
0.00272535
0.00269982
0.00245885
0.00229327
0.0025809
0.00266676
0.00279038
0.00270513
0.00240936
0.00242705
0.0027154
0.00280343
0.00294841
0.00284691
0.00254472
0.00262375
0.00290023
0.00298487
0.00313052
0.00302765
0.00273653
0.00282595
0.00310686
0.00320058
0.00330473
0.00320576
0.00291979
0.00300404
0.00329197
0.00339628
0.0034651
0.00336474
0.00307835
0.0031489
0.00344812
0.00356381
0.00359645
0.00349312
0.00319982
0.00324902
0.00356358
0.00369187
0.00368906
0.00358013
0.00327305
0.00329265
0.00362655
0.00376891
0.00373837
0.00361975
0.00328924
0.00327103
0.00363073
0.00379045
0.00374676
0.00361168
0.0032423
0.00317655
0.00357397
0.00375723
0.0037127
0.0035539
0.00312607
0.00302789
0.00348504
0.00369493
0.00365209
0.00346114
0.00295331
0.0028342
0.0033722
0.0036135
0.00358285
0.0033515
0.00274479
0.00261915
0.00325212
0.00352513
0.00351843
0.00323094
0.00252842
0.00241532
0.00312406
0.00343934
0.00344937
0.0030872
0.0023479
0.00227603
0.00299775
0.00338003
0.00338333
0.00297156
0.00223946
0.00219813
0.00292155
0.00334117
0.00334819
0.00291723
0.00217992
0.00216445
0.00290809
0.00334829
0.00336831
0.00292445
0.00216491
0.00217171
0.00294478
0.00340205
0.0034312
0.00297563
0.00218922
0.00221689
0.00301894
0.00349024
0.0035287
0.00306368
0.00225212
0.00229923
0.00312503
0.00360542
0.00365487
0.00318405
0.00235216
0.00241618
0.00325849
0.00374219
0.00380418
0.00333157
0.00248529
0.00256225
0.00341391
0.00389545
0.00397036
0.00349963
0.00264466
0.00272989
0.00358465
0.00405949
0.00414724
0.00368133
0.00282235
0.00291126
0.00376396
0.00422857
0.00432893
0.00387013
0.00301074
0.00309939
0.00394583
0.00439745
0.00450762
0.00405815
0.00320218
0.00328734
0.00412404
0.00456065
0.00467517
0.00423738
0.00338935
0.00346709
0.00428989
0.00471005
0.00482966
0.00440428
0.00356676
0.00363508
0.00444269
0.00484678
0.00496939
0.00455604
0.00372954
0.00378796
0.00458153
0.00497083
0.00508815
0.00468773
0.00387367
0.00391825
0.00469506
0.00506749
0.00518178
0.00479503
0.00399413
0.00402462
0.0047857
0.00514207
0.00525041
0.00487706
0.00408935
0.00410594
0.0048519
0.00519354
0.00529331
0.00493308
0.00415894
0.00416202
0.0048927
0.00522026
0.00530962
0.00496268
0.00420311
0.00419317
0.00490798
0.00522168
0.00529933
0.00496608
0.00422219
0.00419952
0.0048977
0.00519751
0.00526265
0.0049434
0.00421634
0.00418112
0.0048616
0.00514778
0.00519625
0.00489276
0.00418558
0.00413954
0.00479865
0.00506852
0.00510354
0.00481782
0.00413377
0.00407855
0.00471313
0.00496432
0.00498649
0.00472143
0.00406373
0.00400002
0.00460618
0.00483567
0.00484534
0.00460345
0.00397675
0.00390508
0.00447854
0.00468437
0.00467886
0.00446349
0.00387295
0.00379386
0.004329
0.00450701
0.00448703
0.00430284
0.00375468
0.00367127
0.00416206
0.00430697
0.0042767
0.00412915
0.0036282
0.00354301
0.00398766
0.00409478
0.00406075
0.00395269
0.0034973
0.00341064
0.00381497
0.00388491
0.00385039
0.00377846
0.0033609
0.00327066
0.00364282
0.00368068
0.00363933
0.00359883
0.00321333
0.00311673
0.00346019
0.00347004
0.00341247
0.00340279
0.00304986
0.00294763
0.00325896
0.00323871
0.00316561
0.00318997
0.00287359
0.0027687
0.00304491
0.00299113
0.00290529
0.00296639
0.00268971
0.0025837
0.00282515
0.00273658
0.00264217
0.00274039
0.0024997
0.00239309
0.00260199
0.00248062
0.00237475
0.00250744
0.00230296
0.00219632
0.00237597
0.00222637
0.00210907
0.00227169
0.0021013
0.00199665
0.00215065
0.00197848
0.0018489
0.00203617
0.0018972
0.00179638
0.0019278
0.00173866
0.00159942
0.00181322
0.00169953
0.00159579
0.00170694
0.00150674
0.00139034
0.00160501
0.00150247
0.00139472
0.00148759
0.00127977
0.00118621
0.00139821
0.00130485
0.00119335
0.00127091
0.0010577
0.000977698
0.00118735
0.00110329
0.000986856
0.00105081
0.000835036
0.000757865
0.00096739
0.000894295
0.000773097
0.00082128
0.000600909
0.00052308
0.000737931
0.000678213
0.000556188
0.000587688
0.00035648
0.000280629
0.000500616
0.000456506
0.000337235
0.000361154
0.000131769
0.000100809
0.000263131
0.000232703
0.000116407
0.000132742
0.000146457
0.000292465
8.94373e-05
6.72505e-05
0.000127425
0.000142863
0.000378283
0.000554299
0.000295181
0.000253294
0.000356913
0.000383997
0.000623383
0.000811657
0.000548309
0.000489603
0.000592284
0.000632984
0.000876621
0.00106887
0.000801832
0.00072775
0.000829944
0.00088452
0.0011325
0.00132455
0.00105397
0.000965956
0.00106649
0.00113381
0.00138616
0.00157406
0.00130013
0.00120051
0.0012985
0.00137807
0.00163507
0.00181528
0.0015383
0.00142777
0.00152107
0.00161316
0.00187383
0.0020465
0.00176648
0.00164389
0.00173076
0.00183564
0.00210036
0.00226296
0.00197917
0.00184445
0.00192096
0.00203806
0.00230685
0.00245341
0.00216598
0.00202077
0.0020826
0.00220935
0.00248234
0.00261231
0.00232137
0.00216731
0.0022137
0.002349
0.00262547
0.00273888
0.00244444
0.00228235
0.00231296
0.00245704
0.00273986
0.00283119
0.00253361
0.00236473
0.00238115
0.00253449
0.0028218
0.00288598
0.00258762
0.00241531
0.00242077
0.00258121
0.0028705
0.00290957
0.00261118
0.00243708
0.00243049
0.00259376
0.00288123
0.00290093
0.00260404
0.0024302
0.00240934
0.00257015
0.00285227
0.00285938
0.00256483
0.00239365
0.00235674
0.00250926
0.00278691
0.00278558
0.00249355
0.00232791
0.00227306
0.00242009
0.00270202
0.0026814
0.00238991
0.00223334
0.0021666
0.0023057
0.00259278
0.00255233
0.00225562
0.0021126
0.00203695
0.00216241
0.00246019
0.00240074
0.0020938
0.0019717
0.00189228
0.00199306
0.00230606
0.00222274
0.00190283
0.00181159
0.00173693
0.00180828
0.00212914
0.00201067
0.00168069
0.00162299
0.00158398
0.00162031
0.00193197
0.00177775
0.00146529
0.00143304
0.00152177
0.00153695
0.0017935
0.00177589
0.001493
0.0013826
0.00161367
0.00176308
0.00197797
0.00200033
0.00172656
0.00145977
0.00182199
0.00264245
0.00337389
0.00341276
0.00540658
0.00602713
0.00482429
0.0054706
0.00506553
0.00549883
0.00506424
0.00514477
0.00496646
0.00494516
0.00496545
0.00487708
0.00537979
0.00537618
0.00630922
0.00765245
0.0111108
0.0120284
0.0108122
0.00966848
0.00852268
0.00816717
0.00786417
0.00651807
0.00579634
0.00724097
0.00768747
0.00683946
0.00677832
0.00550631
0.0045261
0.00572306
0.00577161
0.00529061
0.00545398
0.00429137
0.00387342
0.00506108
0.0048606
0.0046425
0.00497061
0.00375777
0.00364635
0.00484958
0.00447289
0.00437711
0.00479736
0.00359962
0.00357126
0.00473344
0.0042639
0.00429994
0.00475653
0.00359345
0.0036128
0.00477005
0.00431433
0.00430411
0.004773
0.00362691
0.00364733
0.00479485
0.00433622
0.0043655
0.00484664
0.00368071
0.00369717
0.00484874
0.00435242
0.0043271
0.00484338
0.0037072
0.00372177
0.00485178
0.00434248
0.00437396
0.00488655
0.00374439
0.00376366
0.00489323
0.00435628
0.00433686
0.0048777
0.00376469
0.00378669
0.00489791
0.00435951
0.00439993
0.00493098
0.00380894
0.00383257
0.00494154
0.00439148
0.00438144
0.00493162
0.00383912
0.00386624
0.00495577
0.00440892
0.00445281
0.00499222
0.00389292
0.00392081
0.00500655
0.00444762
0.00444293
0.0050008
0.00393149
0.00396188
0.00502725
0.00447285
0.00451864
0.00506529
0.00399116
0.00402148
0.00508059
0.00451437
0.00451189
0.0050757
0.00403434
0.00406573
0.00510011
0.00453917
0.00458099
0.00513457
0.00409471
0.00412373
0.00514603
0.0045716
0.00457007
0.00514284
0.00414104
0.00416366
0.00515071
0.00459392
0.00462899
0.00518443
0.00419411
0.0042216
0.00519216
0.00461485
0.004612
0.00518574
0.00423714
0.0042571
0.00518969
0.00463302
0.0046638
0.005219
0.00428479
0.00430994
0.00522266
0.00464648
0.00464215
0.00521237
0.00432282
0.00433858
0.00521017
0.0046571
0.00467879
0.0052318
0.00436106
0.00438051
0.00522712
0.00465324
0.00464358
0.00520901
0.00438704
0.00439508
0.00519734
0.00464904
0.00465628
0.00520714
0.00440862
0.00441843
0.00518945
0.00462026
0.00459859
0.00515958
0.00441497
0.0044123
0.00513551
0.00459186
0.0045813
0.00513045
0.0044143
0.00441158
0.00509621
0.00453653
0.00449709
0.00505289
0.00439613
0.00438111
0.00501506
0.00447725
0.00444913
0.00499348
0.0043702
0.00435336
0.00494106
0.00439053
0.00433387
0.00488281
0.00432468
0.00429662
0.00483072
0.00429982
0.00425595
0.00479221
0.00427283
0.00424159
0.00472381
0.00418204
0.00410385
0.0046417
0.00419429
0.00416142
0.00458637
0.00405862
0.0039987
0.00452714
0.00412236
0.00407791
0.0044427
0.00391347
0.00382332
0.0043467
0.00402035
0.00397732
0.00427971
0.00376568
0.00368966
0.00420521
0.00392873
0.00387177
0.00410632
0.00359083
0.00349638
0.00400567
0.00381049
0.00375251
0.00392172
0.00342667
0.00333312
0.0038372
0.0036994
0.00363047
0.00372429
0.00321822
0.00312416
0.00361822
0.00356208
0.0034981
0.00352753
0.00304191
0.00293166
0.0034305
0.00344001
0.00336155
0.00330341
0.00280471
0.00271478
0.00319291
0.0032861
0.00322455
0.00310138
0.00261725
0.00249469
0.00299065
0.00316261
0.00307743
0.00285159
0.00236233
0.00228331
0.00275133
0.00300844
0.00294718
0.00265333
0.00216712
0.00203003
0.00253166
0.00288207
0.00278673
0.00238526
0.00189037
0.0018571
0.00231186
0.00272516
0.00266298
0.00221552
0.0017346
0.00158069
0.00210299
0.00260761
0.00251095
0.00194484
0.00144027
0.00148975
0.00192685
0.00246797
0.00240335
0.0018226
0.00134051
0.00120334
0.00173631
0.00237146
0.00226602
0.00154894
0.00103716
0.00109124
0.00152753
0.00221865
0.00218118
0.00143626
0.000905296
0.000743419
0.00132402
0.00212997
0.00204871
0.00115096
0.000565045
0.000625318
0.00118052
0.00204577
0.00198207
0.00101478
0.000369487
0.000242955
0.000953258
0.00199443
0.00187632
0.000727636
7.96594e-05
0.000187806
0.000720308
0.00189136
0.00175574
0.000579122
0.000306715
0.000337785
0.000361819
0.00164284
0.00140329
0.00036518
0.00053577
0.000848814
0.00064361
0.00146338
0.00103549
0.00062037
0.000687248
0.000716871
0.000523849
0.00121495
0.00128652
0.000288297
0.000930059
0.0011065
0.000157349
0.00116991
0.00117448
0.00038281
0.00126442
0.00124077
0.000363483
0.00109354
0.00105384
0.000538415
0.00133452
0.00143833
0.000645584
0.000955474
0.000946969
0.000821114
0.0016077
0.00179251
0.000974238
0.000806463
0.000637559
0.00115849
0.00179595
0.00169501
0.00137778
0.000444693
0.000308488
0.00219267
0.00410079
0.00273209
0.00162185
0.000854028
0.000837506
0.00134612
0.00239106
0.00232211
0.00142247
0.00071674
0.000579181
0.00156615
0.00240911
0.00241326
0.00166205
0.000449976
0.000301654
0.00177734
0.00246707
0.00238806
0.00185473
0.000142118
7.6774e-05
0.00173908
0.00194997
0.00542597
0.00326617
0.000426801
0.00106952
0.00226176
0.00350117
0.00287985
0.00172985
0.000872342
0.000705234
0.00178742
0.00274313
0.00274902
0.00190732
0.000559798
0.000385858
0.00194132
0.00260809
0.00222231
0.00194432
0.000211534
0.000454461
0.00339007
0.00569365
0.00352998
0.0024455
0.00135477
0.00107037
0.0016522
0.00279878
0.00244614
0.00156309
0.000897261
0.000829368
0.00155404
0.00223682
0.00196735
0.00146867
0.000815559
0.0010509
0.00208681
0.00394377
0.00306472
0.00230048
0.00250676
0.00215855
0.000886261
0.00184053
0.00177241
0.000740263
0.00197086
0.00228444
0.000917421
0.00176335
0.000933082
0.000813679
0.00298887
0.00465818
0.00350038
0.00277273
0.00174597
0.00276734
0.00466924
0.00503327
0.00339725
0.00245592
0.00387759
0.00441924
0.00587861
0.00781708
0.00772414
0.00758775
0.0119464
0.0113695
0.010048
0.0107726
0.0102485
0.00924586
0.0162227
0.0155461
0.0134325
0.0163571
0.0195212
0.0203054
0.015199
0.0169049
0.0169495
0.0198489
0.0224193
0.0224425
0.0272514
0.026782
0.02301
0.0231755
0.0254496
0.0250786
0.0346968
0.0340285
0.0292001
0.0242713
0.0191643
0.0139416
0.0188565
0.022752
0.0260725
0.024497
0.0215299
0.0188056
0.0213511
0.0236199
0.0250046
0.023261
0.0220164
0.0190481
0.0403491
0.0365837
0.0275299
0.0242046
0.0296902
0.0322015
0.034249
0.0310659
0.0245854
0.0237576
0.0301752
0.0332399
0.0212971
0.0226161
0.0208364
0.022128
0.0300067
0.0364748
0.0354494
0.0295756
0.0219196
0.0199133
0.0246841
0.0278055
0.0301093
0.0260695
0.0201584
0.016989
0.0178095
0.017129
0.0295332
0.0241304
0.0183685
0.0183674
0.0245317
0.0295402
0.0146348
0.0153142
0.015077
0.0169551
0.0219843
0.0267804
0.0295166
0.0242415
0.0179039
0.0146649
0.0148224
0.0142649
0.0260852
0.0211751
0.0163805
0.017195
0.0231783
0.0283495
0.0136204
0.0142145
0.0141239
0.0160494
0.0205525
0.0252221
0.0282556
0.0230816
0.0171105
0.014013
0.014168
0.0135985
0.0248339
0.0202319
0.0156222
0.0165311
0.0225249
0.0275824
0.0132256
0.0138009
0.0136478
0.0153907
0.0198519
0.0244817
0.0285111
0.0230762
0.0167727
0.0136696
0.0139397
0.0134311
0.0242176
0.0196119
0.0152119
0.0168128
0.0231577
0.0284213
0.0118341
0.0128189
0.0132184
0.0142795
0.0157189
0.0162987
0.0255027
0.0205754
0.0156868
0.0176431
0.0251601
0.0309154
0.0138458
0.014884
0.0144221
0.0162366
0.021797
0.026827
0.0315904
0.0257382
0.0181577
0.0149049
0.0158649
0.0151892
0.0275649
0.0223078
0.0164038
0.0181538
0.0259858
0.0317937
0.0151421
0.0159244
0.0149411
0.0164956
0.0224587
0.0278686
0.0323127
0.0260379
0.0181366
0.0149325
0.0162068
0.0155994
0.0282082
0.0226706
0.0165654
0.0186985
0.0271114
0.033658
0.0158791
0.0166305
0.0152298
0.0173568
0.0240324
0.0296963
0.0350093
0.0282163
0.0192632
0.015875
0.0177564
0.0172039
0.030975
0.0246879
0.0176345
0.0196691
0.0289596
0.0360665
0.0176749
0.0182513
0.0162178
0.0181368
0.0260064
0.0328938
0.0371803
0.0296372
0.0199173
0.0179603
0.0236163
0.0271991
0.034778
0.0290329
0.0203328
0.0173125
0.0197904
0.0194545
0.0335219
0.026757
0.0188587
0.0205645
0.030618
0.0382371
0.0195456
0.019586
0.0168574
0.0186129
0.02672
0.0337183
0.0394131
0.0314091
0.0207926
0.0172606
0.0200673
0.019908
0.0350246
0.0275427
0.019021
0.0211157
0.0321134
0.0405444
0.0206778
0.0206218
0.0174586
0.019315
0.0281677
0.0359722
0.0420636
0.0332397
0.0218196
0.0182338
0.0215992
0.0216297
0.0388767
0.0300888
0.0201706
0.0219175
0.0337617
0.0431527
0.0325045
0.0277735
0.0200943
0.0222925
0.0329295
0.0400624
0.0231263
0.0229348
0.0191014
0.0210538
0.0311201
0.0395964
0.0453812
0.0359673
0.0233203
0.0194869
0.02346
0.0237325
0.0422438
0.0326276
0.0216364
0.0233182
0.0360741
0.0463897
0.0349491
0.0296561
0.021433
0.0239152
0.035321
0.0431468
0.0254631
0.025048
0.0206893
0.0225123
0.0331928
0.0425875
0.0483859
0.038108
0.0248042
0.0208894
0.0253182
0.025642
0.04503
0.0345642
0.0228817
0.0245333
0.0380292
0.0488854
0.0373211
0.031569
0.0225505
0.0251197
0.0373032
0.0455531
0.0268471
0.0263699
0.0218016
0.0236315
0.0353096
0.0455254
0.0512282
0.0405487
0.0261582
0.0220583
0.0267984
0.0272832
0.0479325
0.0367041
0.0241426
0.0258728
0.0403175
0.0518505
0.0397232
0.0335149
0.0237576
0.0264611
0.0393756
0.0479795
0.0289899
0.0282514
0.0230858
0.0251424
0.0379732
0.0497214
0.053139
0.0414971
0.0267893
0.0248765
0.0348709
0.0412989
0.0495638
0.0406647
0.0274703
0.0236062
0.0289834
0.02978
0.0508092
0.0391831
0.0259682
0.0273073
0.0421003
0.0539991
0.0422444
0.0355643
0.0253798
0.0281656
0.0414675
0.0505938
0.0308464
0.0299869
0.0243618
0.0267658
0.0402025
0.0522993
0.0555475
0.0433925
0.0282355
0.0260702
0.0365492
0.0434126
0.0517041
0.0423477
0.0286083
0.0248168
0.0304446
0.0313185
0.0531118
0.0408635
0.0267599
0.0284191
0.0441293
0.0564451
0.0445084
0.0372919
0.0264233
0.0289488
0.0429502
0.0526344
0.0322531
0.0312462
0.0253004
0.0275002
0.0420764
0.0548186
0.057153
0.0447237
0.0288241
0.0272385
0.0390267
0.0467698
0.0526541
0.0428533
0.0289859
0.0270762
0.0382002
0.0451292
0.0527135
0.0434548
0.02948
0.0259949
0.0321902
0.033394
0.0557662
0.0427942
0.0285155
0.029762
0.0457528
0.0583548
0.0465961
0.0390635
0.0276644
0.0299568
0.044551
0.0541374
0.0333709
0.0323274
0.0262372
0.0283465
0.0433368
0.0567123
0.0587891
0.0457899
0.0294351
0.0276799
0.0399179
0.0482911
0.0541688
0.0437633
0.0293514
0.0278755
0.0393029
0.0468136
0.0544484
0.0448358
0.0306371
0.0266533
0.0330853
0.0344751
0.0579526
0.0445391
0.0294292
0.0304587
0.0469447
0.0600782
0.0496979
0.0411092
0.028579
0.030266
0.0448828
0.0551051
0.0482173
0.0405142
0.0287785
0.0308757
0.0453935
0.0549839
0.0351597
0.0336741
0.0271406
0.0295762
0.044866
0.0587813
0.0604544
0.0473202
0.0307123
0.0292204
0.0419665
0.0505611
0.0561746
0.0458387
0.0309295
0.0294186
0.0412873
0.048914
0.0562771
0.0465712
0.0318157
0.0279995
0.0346757
0.036076
0.0598484
0.0459147
0.0303999
0.0316425
0.048466
0.0617786
0.051485
0.0425038
0.0294819
0.0313533
0.0463487
0.0568239
0.050137
0.0418913
0.0297084
0.0325453
0.0473332
0.0572905
0.0367744
0.0351978
0.0285139
0.0311549
0.0473693
0.0616735
0.06311
0.0492274
0.0318994
0.0303073
0.0439615
0.0529667
0.058547
0.0478158
0.0320496
0.0307298
0.043349
0.0514057
0.0588802
0.0485523
0.033305
0.0291571
0.0361217
0.0376847
0.0630426
0.0481447
0.0318446
0.0328982
0.050464
0.0645762
0.0545609
0.0451372
0.0315026
0.0334396
0.0491148
0.0598813
0.0551462
0.0459558
0.0320849
0.0339479
0.0493786
0.0601466
0.0539215
0.0453206
0.0321636
0.035046
0.0507809
0.0609596
0.0401135
0.0384048
0.030953
0.0339518
0.050874
0.065969
0.0671068
0.0525113
0.0345268
0.0330095
0.0472834
0.0569648
0.0616662
0.0505726
0.0345499
0.0333549
0.047448
0.0572976
0.0624238
0.051383
0.0355982
0.033769
0.0473366
0.0560636
0.0637442
0.0529082
0.0367144
0.0323103
0.0398223
0.0415862
0.0692134
0.0535138
0.0357084
0.0366425
0.0555372
0.0702643
0.0599334
0.0498003
0.0349792
0.0368097
0.0535384
0.0653292
0.0604721
0.0506132
0.0354792
0.0374584
0.0541173
0.0654528
0.0591623
0.0498401
0.0357553
0.0386303
0.0552605
0.0668583
0.0440631
0.0421009
0.0341348
0.037826
0.0563887
0.072881
0.074031
0.05816
0.0386297
0.0369926
0.0524403
0.0632969
0.068447
0.0562052
0.0388858
0.0378259
0.0534707
0.0641654
0.0692088
0.0571735
0.0398473
0.0378398
0.0523583
0.0624113
0.070631
0.0586359
0.0412195
0.0363779
0.0443504
0.0460094
0.0770327
0.0595629
0.0398263
0.0408931
0.0617365
0.0782814
0.0669503
0.055485
0.0391466
0.0413418
0.0598936
0.0726229
0.068236
0.0569043
0.0404207
0.0423236
0.0602422
0.0725926
0.0691945
0.0573884
0.0407353
0.043325
0.0613563
0.0740402
0.0680329
0.0572212
0.0412918
0.0443023
0.0627904
0.0755365
0.0497047
0.0477176
0.039346
0.0436236
0.0639383
0.0831028
0.0837292
0.0660785
0.0446296
0.0424602
0.0598007
0.0716987
0.0774347
0.0641726
0.0445414
0.0433851
0.0605841
0.0724393
0.0774697
0.0644769
0.0455747
0.0439405
0.061342
0.0733333
0.0791816
0.0655986
0.046546
0.0443644
0.0605995
0.0721529
0.0811629
0.067538
0.0481577
0.0422105
0.0509048
0.0532279
0.0888191
0.0689126
0.0470017
0.048501
0.0714663
0.0897943
0.0771831
0.0649289
0.0466355
0.048577
0.0689932
0.0832431
0.0778309
0.0655029
0.0471286
0.0492497
0.0690885
0.082994
0.0791018
0.0662584
0.0477291
0.0502174
0.0703546
0.0843914
0.0777019
0.0651816
0.0476424
0.0513804
0.0718146
0.0860533
0.0568298
0.0548864
0.0455455
0.0502741
0.0734302
0.0943974
0.0956644
0.0756325
0.0513605
0.0493225
0.0685352
0.0820021
0.0885879
0.072739
0.0513706
0.0499849
0.0693629
0.0828178
0.0879842
0.0736637
0.052462
0.0505513
0.0700118
0.0841181
0.090148
0.0751614
0.0534899
0.0509623
0.0693876
0.081777
0.0918824
0.0772059
0.0550363
0.0485298
0.0579327
0.0600542
0.100969
0.0780255
0.0538402
0.0550658
0.0803847
0.102068
0.0872829
0.0733121
0.0529747
0.0552381
0.078097
0.0941503
0.0881125
0.0736024
0.0534462
0.0559826
0.0777916
0.093572
0.0893098
0.0746875
0.0540757
0.0569431
0.0791619
0.0948198
0.0873584
0.0737789
0.0543649
0.0583627
0.0812803
0.0968675
0.0634922
0.0613879
0.0515667
0.0570343
0.0826201
0.106608
0.107668
0.0851918
0.0584249
0.0560661
0.0772195
0.0919945
0.0989577
0.0823753
0.0584453
0.0565119
0.077979
0.0927818
0.098751
0.0824499
0.0590067
0.0570778
0.0787432
0.0940285
0.0997588
0.0835074
0.0601107
0.057789
0.0792532
0.0944045
0.101186
0.0846841
0.0611635
0.0578239
0.0776688
0.0917881
0.103117
0.0864224
0.0626509
0.0550218
0.0650789
0.0673936
0.112631
0.0876892
0.0609855
0.0626815
0.0909563
0.113805
0.0973976
0.0818674
0.0598798
0.0623826
0.0874146
0.105192
0.0981539
0.0827042
0.0605036
0.0633013
0.0876987
0.104513
0.0989968
0.0832348
0.0611773
0.0641544
0.0883039
0.106134
0.0962579
0.0816231
0.0607889
0.0651082
0.0899961
0.107366
0.0709161
0.0683768
0.0577052
0.0639837
0.0918888
0.117851
0.118825
0.0949811
0.0653789
0.0624457
0.0852857
0.101428
0.10884
0.0901867
0.0648056
0.0627538
0.0858306
0.102044
0.108523
0.090961
0.065607
0.0634546
0.0864784
0.102619
0.109904
0.092052
0.0665821
0.0633037
0.0847602
0.0997795
0.111929
0.0943088
0.0681382
0.0597647
0.0703956
0.072761
0.122156
0.0953801
0.0668131
0.0683717
0.0985849
0.123189
0.105139
0.0883528
0.0649289
0.0675966
0.0942646
0.1135
0.10569
0.0890188
0.0654399
0.0684774
0.0943329
0.112946
0.106366
0.0894206
0.0657547
0.069187
0.0952631
0.114143
0.103345
0.0877324
0.065647
0.0705689
0.097117
0.115348
0.0759984
0.0734575
0.0623142
0.069124
0.0986276
0.126578
0.127668
0.101541
0.0707739
0.0677609
0.0918395
0.108943
0.116669
0.0973391
0.0702
0.067779
0.0919079
0.109054
0.116469
0.09735
0.0708295
0.0679554
0.0921952
0.109315
0.117616
0.0985899
0.0715607
0.0673805
0.0899237
0.105809
0.119449
0.100659
0.0728476
0.0639896
0.0749933
0.0773953
0.129429
0.101026
0.0708146
0.0726451
0.104534
0.131264
0.111435
0.0938673
0.0694538
0.0724783
0.1004
0.121028
0.11205
0.0945984
0.0700345
0.0733663
0.100555
0.120492
0.109473
0.0930806
0.0697385
0.0741386
0.10249
0.122254
0.0789691
0.0766944
0.0654722
0.0725194
0.103573
0.132667
0.13413
0.10719
0.0741415
0.07058
0.0956593
0.113644
0.123477
0.102115
0.0733572
0.070845
0.0957526
0.113359
0.123248
0.102888
0.0745456
0.0704813
0.0939338
0.110352
0.12491
0.105025
0.0761273
0.0666213
0.077833
0.0800647
0.135578
0.105739
0.0741164
0.0761637
0.11
0.13762
0.116499
0.0980991
0.0725295
0.0760014
0.105581
0.126826
0.116825
0.0988299
0.0730783
0.0759796
0.104864
0.125869
0.113823
0.096672
0.0724904
0.0778069
0.107186
0.127921
0.081692
0.0794976
0.0679587
0.075824
0.107921
0.138427
0.140699
0.111874
0.0777929
0.0735032
0.0996595
0.118299
0.128948
0.107559
0.0771405
0.074274
0.100132
0.118314
0.129049
0.107573
0.0779807
0.0738039
0.098113
0.115168
0.131168
0.110283
0.0798987
0.0700735
0.081542
0.0837888
0.142677
0.111423
0.0782308
0.0803932
0.116243
0.145779
0.121853
0.102823
0.0761914
0.0797614
0.110597
0.133499
0.121912
0.103079
0.0763774
0.0801645
0.110656
0.132526
0.118779
0.101123
0.0761129
0.0819628
0.112695
0.134352
0.0856861
0.0834056
0.0717452
0.0797483
0.113115
0.144708
0.149004
0.118362
0.0822638
0.0782932
0.104846
0.123915
0.137644
0.114018
0.0822986
0.0780305
0.102904
0.120109
0.138922
0.116594
0.0843371
0.0744826
0.0860541
0.0879156
0.150125
0.117706
0.0831854
0.0856679
0.123376
0.154447
0.128071
0.108214
0.0806944
0.0847096
0.116853
0.141036
0.128078
0.108534
0.0809738
0.0857579
0.117903
0.141018
0.124698
0.106487
0.0809066
0.0878521
0.120196
0.143454
0.0917919
0.0891476
0.0766333
0.0859794
0.120691
0.153511
0.157911
0.126392
0.088717
0.0840282
0.111756
0.131674
0.147118
0.122237
0.0884468
0.0842382
0.109859
0.127851
0.148556
0.124798
0.0918106
0.0801943
0.0920122
0.0936133
0.157981
0.124157
0.0882827
0.0918423
0.13119
0.163806
0.135045
0.114412
0.0861739
0.0919268
0.126232
0.151941
0.13073
0.112035
0.0857106
0.0933691
0.127908
0.152428
0.0964307
0.0938903
0.08115
0.0912148
0.127188
0.161448
0.169707
0.135377
0.0952207
0.0880431
0.11457
0.133533
0.158232
0.132123
0.0959316
0.0834708
0.0953458
0.0968241
0.167999
0.131927
0.0942165
0.0984519
0.140138
0.174489
0.143915
0.122788
0.0929141
0.097128
0.13378
0.160906
0.139041
0.11946
0.0915716
0.0981509
0.134718
0.160886
0.100208
0.0983539
0.0859198
0.0952571
0.133194
0.169475
0.178978
0.142512
0.0998368
0.0921253
0.119963
0.139777
0.1669
0.139336
0.100568
0.0869113
0.0990827
0.10068
0.174278
0.137012
0.097862
0.102742
0.147134
0.184454
0.145848
0.125099
0.09619
0.104473
0.143722
0.172482
0.103013
0.102334
0.0905495
0.0996074
0.139707
0.178147
0.18958
0.151026
0.105276
0.09687
0.125851
0.146276
0.175276
0.146076
0.105475
0.090935
0.103179
0.104472
0.181568
0.142449
0.101726
0.107002
0.153474
0.193554
0.150702
0.12938
0.0993119
0.107689
0.149627
0.179517
0.106617
0.105683
0.0932586
0.104873
0.14643
0.186514
0.200944
0.160772
0.112464
0.103909
0.133935
0.154286
0.184852
0.153641
0.110949
0.0952631
0.107634
0.108808
0.188541
0.147984
0.105974
0.111629
0.159794
0.201269
0.155535
0.133559
0.102906
0.111711
0.154799
0.187161
0.11023
0.109238
0.0966383
0.107839
0.14981
0.190359
0.205778
0.164301
0.114847
0.105152
0.135072
0.156553
0.193722
0.161305
0.116899
0.100477
0.112006
0.112266
0.18935
0.151206
0.110597
0.117876
0.16933
0.211863
0.111574
0.110629
0.0986201
0.109727
0.152822
0.194237
0.210763
0.167429
0.116388
0.106109
0.136788
0.158539
0.195115
0.16167
0.116503
0.0996778
0.112325
0.113557
0.189873
0.150824
0.110298
0.12034
0.173324
0.217336
0.111243
0.111452
0.100783
0.113421
0.154709
0.194676
0.223004
0.17657
0.122825
0.100675
0.112157
0.112347
0.200103
0.157374
0.112891
0.120794
0.174255
0.220437
0.16269
0.140489
0.109168
0.120715
0.168371
0.203237
0.116084
0.114977
0.102339
0.113315
0.153745
0.19258
0.22492
0.179111
0.124784
0.103593
0.114186
0.114184
0.196907
0.157217
0.11595
0.125791
0.181057
0.22814
0.113944
0.113607
0.102276
0.112937
0.153765
0.193121
0.227817
0.180278
0.124576
0.101614
0.112905
0.113244
0.192875
0.153679
0.112682
0.125007
0.181658
0.229394
0.114617
0.114304
0.102913
0.114726
0.155139
0.194792
0.234327
0.186181
0.128714
0.0991296
0.103833
0.099107
0.131038
0.121896
0.102947
0.109802
0.152318
0.195574
0.236806
0.183732
0.123817
0.0992492
0.109485
0.108832
0.189932
0.150721
0.110345
0.126907
0.186828
0.237872
0.0958635
0.100829
0.0977359
0.106297
0.125434
0.133478
0.194787
0.151971
0.109535
0.123593
0.185188
0.240356
0.0952148
0.0990059
0.0936003
0.0993556
0.118907
0.128461
0.190673
0.147798
0.106506
0.12696
0.190212
0.244006
0.0914833
0.0973292
0.09493
0.102391
0.120738
0.127868
0.186068
0.144278
0.103897
0.12281
0.185552
0.241358
0.0897458
0.0943197
0.09034
0.0939481
0.10712
0.110815
0.125525
0.115319
0.0970655
0.105432
0.147097
0.188001
0.239798
0.181826
0.117422
0.0848286
0.0899558
0.0864188
0.100039
0.0975157
0.0861415
0.0845105
0.0950189
0.0980869
0.10142
0.0983654
0.0849254
0.0839921
0.10335
0.112436
0.166139
0.126603
0.0881484
0.11349
0.177665
0.235077
0.0800219
0.0841028
0.079895
0.07892
0.0895752
0.0910204
0.0870819
0.082857
0.0706506
0.0685205
0.0813788
0.0853818
0.0820645
0.0773866
0.0631922
0.0588825
0.073733
0.0790205
0.0761076
0.0702196
0.0547392
0.051889
0.0678473
0.074292
0.0723719
0.0656085
0.0492671
0.0470914
0.0637431
0.0710356
0.0696382
0.0620073
0.0451544
0.0435038
0.0605209
0.0685559
0.0674615
0.0591372
0.0420177
0.0406799
0.0578547
0.0665145
0.0655965
0.0567673
0.0395487
0.0383797
0.0555437
0.0647456
0.0637899
0.0544973
0.0373936
0.036512
0.0535286
0.0630189
0.0622001
0.0526211
0.0357237
0.0350275
0.0517839
0.0614994
0.0607471
0.0510005
0.0344118
0.0338773
0.0502829
0.0601105
0.0594214
0.0496134
0.0334113
0.0330143
0.0489969
0.0588345
0.0582032
0.0484325
0.0326834
0.032413
0.0479246
0.057682
0.0571072
0.0474548
0.0321919
0.0320224
0.0470389
0.0566451
0.0561288
0.0466554
0.0318918
0.0318019
0.0463186
0.0557214
0.0552582
0.0460074
0.0317409
0.0317122
0.0457379
0.0549014
0.054488
0.0454889
0.0317046
0.0317222
0.0452774
0.0541797
0.0538127
0.0450808
0.0317541
0.0318061
0.0449152
0.0535467
0.05322
0.0447613
0.0318759
0.0319773
0.0446425
0.0529939
0.0527082
0.044536
0.0320961
0.0322206
0.0444492
0.0525222
0.0522756
0.0443746
0.032357
0.0324946
0.0443193
0.0521273
0.0519178
0.044275
0.0326402
0.0327837
0.0442487
0.051805
0.0516294
0.0442316
0.0329325
0.0330765
0.0442338
0.0515492
0.0514203
0.0442638
0.0332231
0.0333631
0.0442916
0.0513708
0.0512655
0.0443353
0.0335036
0.0336361
0.0443736
0.0512368
0.0511539
0.0444232
0.0337668
0.0338892
0.0444669
0.0511377
0.0511174
0.0445238
0.0340116
0.0341234
0.0445681
0.0510727
0.0511032
0.0446288
0.0342365
0.0343392
0.0446755
0.0510607
0.0511102
0.0447376
0.0344429
0.0345371
0.0447869
0.0510791
0.0511369
0.0448504
0.0346324
0.0347186
0.0449018
0.0511149
0.0511807
0.0449671
0.0348064
0.0348856
0.0450199
0.0511656
0.0512369
0.0450861
0.0349663
0.0350382
0.0451392
0.0512263
0.0513012
0.045205
0.0351118
0.0351762
0.0452562
0.0512923
0.0513672
0.0453187
0.0352415
0.0352977
0.0453667
0.0513591
0.0514327
0.0454244
0.0353545
0.0354026
0.0454687
0.0514244
0.0514951
0.0455205
0.0354502
0.0354888