/*--------------------------------*- C++ -*----------------------------------*\
| =========                 |                                                 |
| \\      /  F ield         | OpenFOAM: The Open Source CFD Toolbox           |
|  \\    /   O peration     | Version:  v2006                                 |
|   \\  /    A nd           | Website:  www.openfoam.com                      |
|    \\/     M anipulation  |                                                 |
\*---------------------------------------------------------------------------*/
FoamFile
{
    version     2.0;
    format      ascii;
    class       volScalarField;
    location    "0.002";
    object      T;
}
// * * * * * * * * * * * * * * * * * * * * * * * * * * * * * * * * * * * * * //

dimensions      [0 0 0 1 0 0 0];


internalField   nonuniform List<scalar> 
16277
(
299.916
299.902
299.923
299.928
299.941
299.924
299.932
299.934
299.94
299.952
299.956
299.958
299.959
299.958
299.957
299.955
299.952
299.95
299.947
299.944
299.941
299.936
299.927
299.918
299.91
299.901
299.893
299.885
299.878
299.871
299.864
299.859
299.854
299.849
299.845
299.841
299.838
299.834
299.831
299.828
299.824
299.82
299.815
299.81
299.804
299.798
299.791
299.784
299.776
299.77
299.764
299.762
299.764
299.775
299.796
299.822
299.845
299.862
299.861
299.885
299.813
299.786
299.779
299.782
299.789
299.802
299.82
299.832
299.848
299.864
299.876
299.882
299.881
299.883
299.872
299.855
299.836
299.818
299.805
299.797
299.795
299.797
299.807
299.823
299.819
299.812
299.809
299.802
299.798
299.851
299.945
299.916
299.918
299.913
299.909
299.901
299.903
299.744
299.734
299.734
299.563
299.573
299.578
299.402
299.399
299.393
299.209
299.212
299.221
299.044
299.032
299.031
298.851
298.852
298.862
298.69
298.684
298.686
298.525
298.523
298.527
298.376
298.374
298.378
298.237
298.234
298.235
298.102
298.102
298.107
297.981
297.978
297.978
297.859
297.86
297.865
297.751
297.747
297.747
297.642
297.642
297.647
297.546
297.54
297.537
297.438
297.444
297.453
297.372
297.365
297.364
297.314
297.308
297.311
297.281
297.291
297.324
297.384
297.311
297.278
297.317
297.381
297.516
297.675
297.477
297.375
297.471
297.61
297.861
298.027
297.728
297.558
297.678
297.868
298.187
298.313
297.981
297.776
297.914
298.121
298.434
298.523
298.237
298.03
298.189
298.382
298.607
298.664
298.503
298.33
298.482
298.615
298.711
298.762
298.702
298.617
298.731
298.78
298.825
298.904
298.863
298.831
298.936
298.963
299.002
299.118
299.078
299.055
299.189
299.213
299.253
299.402
299.361
299.338
299.503
299.527
299.567
299.745
299.704
299.679
299.869
299.893
299.933
300.13
300.089
300.064
300.269
300.294
300.333
300.539
300.499
300.474
300.684
300.708
300.747
300.952
300.913
300.889
301.093
301.117
301.154
301.351
301.313
301.29
301.48
301.503
301.54
301.722
301.685
301.662
301.834
301.856
301.893
302.055
302.018
301.996
302.148
302.17
302.206
302.347
302.311
302.29
302.42
302.441
302.477
302.597
302.563
302.542
302.65
302.669
302.702
302.799
302.772
302.754
302.845
302.86
302.879
302.953
302.944
302.932
303.006
303.01
303.01
303.062
303.072
303.074
303.126
303.117
303.103
303.141
303.156
303.17
303.2
303.187
303.177
303.217
303.216
303.227
303.248
303.244
303.258
303.309
303.278
303.274
303.301
303.314
303.357
303.415
303.362
303.337
303.38
303.409
303.466
303.522
303.466
303.433
303.485
303.517
303.568
303.619
303.573
303.543
303.595
303.621
303.662
303.706
303.671
303.648
303.697
303.716
303.745
303.782
303.759
303.744
303.789
303.799
303.812
303.842
303.835
303.83
303.862
303.864
303.865
303.89
303.892
303.894
303.92
303.917
303.913
303.937
303.943
303.947
303.971
303.966
303.958
303.98
303.989
303.995
304.014
304.009
304.002
304.029
304.033
304.037
304.066
304.063
304.066
304.114
304.107
304.108
304.168
304.169
304.179
304.248
304.237
304.237
304.319
304.32
304.33
304.412
304.405
304.406
304.497
304.496
304.502
304.586
304.581
304.582
304.668
304.667
304.673
304.752
304.746
304.747
304.823
304.824
304.832
304.904
304.893
304.889
304.95
304.96
304.976
305.037
305.015
305.002
305.049
305.068
305.096
305.146
305.111
305.088
305.123
305.151
305.191
305.23
305.185
305.153
305.18
305.215
305.265
305.292
305.239
305.204
305.23
305.262
305.316
305.337
305.287
305.26
305.296
305.315
305.357
305.381
305.349
305.338
305.384
305.386
305.406
305.439
305.428
305.429
305.471
305.465
305.47
305.507
305.504
305.507
305.531
305.53
305.534
305.563
305.554
305.547
305.55
305.563
305.581
305.591
305.566
305.546
305.534
305.557
305.592
305.582
305.543
305.516
305.493
305.521
305.566
305.538
305.493
305.464
305.432
305.461
305.508
305.467
305.422
305.392
305.348
305.378
305.426
305.376
305.329
305.299
305.242
305.272
305.322
305.262
305.214
305.183
305.112
305.142
305.194
305.126
305.076
305.044
304.959
304.989
305.042
304.964
304.913
304.879
304.781
304.812
304.867
304.776
304.722
304.687
304.579
304.612
304.669
304.565
304.51
304.474
304.357
304.391
304.45
304.337
304.28
304.244
304.12
304.155
304.216
304.096
304.037
304.001
303.873
303.907
303.969
303.846
303.787
303.751
303.624
303.658
303.72
303.601
303.541
303.505
303.382
303.415
303.478
303.365
303.304
303.269
303.152
303.185
303.249
303.144
303.081
303.043
302.932
302.971
303.038
302.938
302.869
302.824
302.719
302.771
302.846
302.752
302.672
302.607
302.496
302.575
302.667
302.574
302.47
302.363
302.217
302.361
302.488
302.388
302.23
302.032
301.801
302.073
302.287
302.158
301.889
301.554
301.264
301.657
302.015
301.846
301.442
301.06
300.811
301.179
301.642
301.459
301.017
300.693
300.537
300.798
301.25
301.068
300.686
300.468
300.369
300.523
300.846
300.682
300.44
300.32
300.248
300.32
300.491
300.377
300.264
300.212
300.166
300.199
300.276
300.238
300.168
300.135
300.105
300.137
300.212
300.165
300.126
300.105
300.054
300.051
300.072
300.021
300.023
300.018
300.011
300.012
300.012
300.011
300.013
300.013
300.014
300.014
300.015
300.015
300.016
300.016
300.017
300.018
300.018
300.018
300.015
300.011
300.009
300.01
300.01
300.01
300.009
300.009
300.011
300.045
300.034
300.029
300.046
300.049
300.065
300.097
300.08
300.079
300.144
300.159
300.18
300.3
300.255
300.206
300.243
300.318
300.388
300.459
300.374
300.286
300.319
300.415
300.506
300.547
300.457
300.353
300.382
300.492
300.585
300.64
300.553
300.439
300.491
300.612
300.695
300.763
300.679
300.542
300.582
300.734
300.828
300.91
300.811
300.65
300.708
300.879
300.982
301.062
300.954
300.762
300.8
301.007
301.126
301.21
301.088
300.874
300.935
301.159
301.281
301.368
301.241
300.995
301.033
301.296
301.435
301.527
301.388
301.119
301.189
301.466
301.607
301.7
301.557
301.259
301.302
301.62
301.776
301.874
301.719
301.401
301.486
301.807
301.96
302.052
301.9
301.573
301.635
301.972
302.13
302.224
302.075
301.766
301.874
302.163
302.304
302.385
302.256
301.992
302.108
302.334
302.453
302.525
302.417
302.23
302.321
302.479
302.58
302.631
302.537
302.4
302.465
302.582
302.672
302.719
302.634
302.529
302.578
302.676
302.76
302.8
302.717
302.622
302.663
302.756
302.839
302.885
302.803
302.71
302.752
302.845
302.928
302.973
302.89
302.794
302.839
302.933
303.016
303.067
302.984
302.891
302.938
303.03
303.112
303.162
303.08
302.986
303.035
303.126
303.206
303.262
303.182
303.091
303.139
303.228
303.308
303.361
303.28
303.188
303.238
303.326
303.406
303.463
303.384
303.297
303.344
303.43
303.508
303.562
303.483
303.395
303.447
303.53
303.607
303.665
303.59
303.508
303.556
303.637
303.711
303.766
303.691
303.609
303.662
303.739
303.812
303.871
303.8
303.723
303.768
303.846
303.917
303.971
303.901
303.822
303.874
303.949
304.017
304.076
304.011
303.935
303.98
304.056
304.122
304.177
304.11
304.032
304.084
304.157
304.222
304.279
304.216
304.143
304.183
304.257
304.321
304.372
304.308
304.234
304.283
304.353
304.414
304.467
304.408
304.337
304.372
304.443
304.505
304.551
304.49
304.419
304.463
304.53
304.589
304.636
304.579
304.512
304.542
304.61
304.668
304.71
304.653
304.585
304.625
304.69
304.744
304.787
304.735
304.669
304.695
304.761
304.816
304.854
304.8
304.736
304.77
304.832
304.883
304.92
304.872
304.809
304.83
304.894
304.943
304.976
304.93
304.866
304.893
304.956
305.004
305.038
304.986
304.921
304.936
305.001
305.057
305.079
305.029
304.966
304.987
305.047
305.097
305.119
305.069
305.008
305.017
305.078
305.133
305.151
305.095
305.038
305.057
305.108
305.158
305.166
305.128
305.08
305.091
305.141
305.178
305.194
305.163
305.116
305.132
305.182
305.21
305.229
305.198
305.145
305.152
305.205
305.246
305.252
305.215
305.167
305.166
305.212
305.25
305.25
305.204
305.161
305.17
305.217
305.241
305.254
305.232
305.192
305.174
305.221
305.26
305.258
305.222
305.18
305.176
305.218
305.251
305.239
305.21
305.172
305.173
305.21
305.234
305.227
305.209
305.172
305.173
305.21
305.23
305.229
305.205
305.169
305.165
305.196
305.222
305.208
305.181
305.152
305.126
305.161
305.195
305.174
305.139
305.11
305.13
305.162
305.185
305.154
305.124
305.088
305.073
305.109
305.138
305.11
305.075
305.04
305.024
305.054
305.086
305.056
305.025
304.995
304.967
305.001
305.037
305.005
304.955
304.921
304.904
304.928
304.968
304.979
304.952
304.917
304.87
304.904
304.935
304.909
304.884
304.853
304.812
304.846
304.877
304.854
304.817
304.778
304.721
304.758
304.811
304.761
304.719
304.697
304.702
304.735
304.762
304.699
304.669
304.637
304.606
304.638
304.664
304.626
304.588
304.553
304.526
304.551
304.586
304.55
304.534
304.517
304.568
304.563
304.556
304.531
304.555
304.559
304.631
304.609
304.546
304.605
304.726
304.761
304.974
304.907
304.727
304.857
305.079
305.208
305.513
305.372
305.052
305.397
305.809
305.952
306.173
306.163
305.829
306.148
306.244
306.233
306.194
306.206
306.186
306.176
306.123
306.066
305.9
306.065
306.154
305.987
305.781
305.723
305.343
305.409
305.754
305.545
305.345
305.228
305.138
305.131
305.245
305.145
305.095
305.088
304.827
304.846
304.922
304.692
304.558
304.513
304.011
304.158
304.37
303.948
303.784
303.713
303.372
303.398
303.489
303.228
303.141
303.124
302.93
302.979
303.014
302.84
302.787
302.804
302.627
302.636
302.667
302.546
302.509
302.522
302.301
302.319
302.389
302.305
302.267
302.2
302.073
302.08
302.134
302.017
301.976
301.953
301.856
301.856
301.9
301.745
301.685
301.674
301.564
301.621
301.663
301.503
301.464
301.447
301.291
301.306
301.373
301.263
301.227
301.184
301.066
301.081
301.126
300.984
300.923
300.919
300.792
300.831
300.873
300.728
300.694
300.68
300.542
300.543
300.591
300.473
300.441
300.415
300.307
300.32
300.351
300.213
300.173
300.176
300.04
300.063
300.097
299.963
299.941
299.931
299.816
299.809
299.838
299.709
299.688
299.682
299.572
299.578
299.593
299.466
299.45
299.466
299.317
299.315
299.337
299.208
299.2
299.2
299.11
299.08
299.086
298.951
298.922
298.94
298.818
298.819
298.849
298.7
298.69
298.708
298.605
298.577
298.585
298.452
298.437
298.449
298.338
298.321
298.33
298.207
298.192
298.222
298.062
298.056
298.081
297.943
297.938
297.962
297.85
297.814
297.822
297.695
297.685
297.702
297.619
297.588
297.584
297.47
297.474
297.514
297.372
297.356
297.37
297.255
297.26
297.299
297.167
297.135
297.141
297.025
297.013
297.026
296.939
296.922
296.927
296.813
296.8
296.819
296.696
296.693
296.713
296.608
296.608
296.625
296.502
296.487
296.503
296.393
296.379
296.38
296.299
296.293
296.31
296.2
296.186
296.196
296.104
296.099
296.103
296.003
295.986
295.985
295.894
295.896
295.915
295.817
295.806
295.805
295.688
295.7
295.723
295.632
295.616
295.613
295.523
295.525
295.542
295.451
295.422
295.406
295.348
295.354
295.374
295.277
295.26
295.256
295.138
295.16
295.19
295.112
295.095
295.092
295.003
295.007
295.028
294.936
294.902
294.88
294.849
294.849
294.871
294.776
294.748
294.746
294.686
294.677
294.699
294.61
294.587
294.586
294.481
294.508
294.541
294.459
294.443
294.445
294.363
294.369
294.389
294.304
294.271
294.251
294.217
294.214
294.233
294.154
294.132
294.127
294.067
294.055
294.076
293.998
293.981
293.979
293.873
293.896
293.928
293.844
293.827
293.83
293.76
293.765
293.785
293.709
293.675
293.653
293.621
293.617
293.638
293.571
293.549
293.542
293.482
293.471
293.495
293.424
293.408
293.406
293.299
293.323
293.355
293.271
293.254
293.255
293.194
293.197
293.214
293.148
293.113
293.084
293.054
293.049
293.069
293.021
292.991
292.98
292.919
292.911
292.94
292.87
292.85
292.85
292.744
292.773
292.802
292.71
292.694
292.701
292.628
292.637
292.663
292.588
292.558
292.564
292.495
292.493
292.514
292.446
292.421
292.387
292.352
292.345
292.365
292.321
292.291
292.279
292.22
292.216
292.246
292.171
292.149
292.151
292.047
292.083
292.107
292.016
291.997
292.005
291.93
291.942
291.973
291.901
291.867
291.869
291.807
291.804
291.827
291.762
291.74
291.701
291.66
291.651
291.671
291.634
291.598
291.587
291.529
291.526
291.559
291.481
291.456
291.458
291.359
291.4
291.423
291.322
291.301
291.311
291.234
291.247
291.284
291.209
291.178
291.184
291.1
291.115
291.156
291.07
291.036
291.036
290.978
290.979
291.003
290.936
290.919
290.881
290.83
290.821
290.844
290.802
290.768
290.755
290.697
290.699
290.734
290.657
290.631
290.629
290.544
290.585
290.607
290.512
290.489
290.496
290.421
290.436
290.476
290.405
290.372
290.375
290.294
290.311
290.354
290.276
290.241
290.242
290.17
290.172
290.198
290.151
290.128
290.086
290.044
290.04
290.067
290.025
289.984
289.968
289.924
289.921
289.953
289.906
289.86
289.844
289.797
289.802
289.837
289.768
289.742
289.739
289.661
289.702
289.731
289.649
289.624
289.626
289.556
289.572
289.614
289.546
289.513
289.515
289.439
289.455
289.501
289.442
289.404
289.402
289.343
289.349
289.383
289.348
289.315
289.27
289.246
289.25
289.275
289.243
289.202
289.188
289.152
289.152
289.182
289.143
289.1
289.087
289.042
289.052
289.086
289.039
289.007
289.003
288.936
288.976
289.011
288.953
288.928
288.927
288.868
288.877
288.922
288.87
288.838
288.829
288.775
288.788
288.836
288.792
288.754
288.753
288.698
288.703
288.748
288.727
288.684
288.648
288.649
288.666
288.693
288.653
288.6
288.592
288.575
288.582
288.614
288.579
288.532
288.518
288.49
288.502
288.536
288.504
288.453
288.444
288.426
288.44
288.48
288.441
288.394
288.39
288.352
288.388
288.432
288.406
288.38
288.357
288.31
288.322
288.381
288.365
288.322
288.305
288.264
288.275
288.325
288.308
288.27
288.25
288.212
288.221
288.272
288.262
288.221
288.205
288.17
288.176
288.227
288.234
288.185
288.147
288.161
288.189
288.22
288.202
288.135
288.118
288.126
288.147
288.194
288.165
288.101
288.087
288.089
288.112
288.157
288.134
288.068
288.055
288.064
288.088
288.137
288.106
288.05
288.037
288.026
288.067
288.121
288.111
288.082
288.046
288.015
288.033
288.107
288.105
288.056
288.027
288
288.015
288.086
288.089
288.04
288.012
287.989
288.003
288.07
288.078
288.029
288.002
287.98
287.995
288.053
288.077
288.019
287.975
288.005
288.045
288.079
288.07
287.999
287.978
287.994
288.026
288.078
288.068
287.984
287.966
287.979
288.012
288.063
288.053
287.973
287.957
287.973
288.006
288.062
288.045
287.97
287.953
287.971
288.005
288.06
288.039
287.971
287.953
287.95
288.002
288.068
288.069
288.034
287.988
287.965
287.986
288.072
288.082
288.023
287.985
287.964
287.985
288.075
288.084
288.023
287.984
287.96
287.98
288.066
288.076
288.017
287.978
287.958
287.978
288.06
288.075
288.016
287.978
287.962
287.98
288.05
288.087
288.018
287.963
288.006
288.049
288.09
288.084
288.002
287.979
288
288.037
288.096
288.088
287.994
287.973
287.993
288.032
288.096
288.091
287.994
287.974
287.995
288.037
288.103
288.082
287.998
287.978
287.997
288.039
288.101
288.08
288.004
287.986
287.986
288.043
288.115
288.122
288.077
288.033
288.007
288.029
288.129
288.13
288.064
288.027
288.001
288.022
288.126
288.141
288.066
288.025
288.004
288.024
288.126
288.143
288.071
288.029
288.009
288.033
288.123
288.141
288.075
288.035
288.014
288.035
288.116
288.155
288.076
288.015
288.066
288.111
288.16
288.159
288.058
288.035
288.055
288.097
288.169
288.155
288.051
288.029
288.052
288.099
288.176
288.164
288.057
288.036
288.061
288.104
288.182
288.165
288.063
288.04
288.066
288.106
288.18
288.15
288.063
288.04
288.042
288.107
288.191
288.195
288.145
288.094
288.067
288.091
288.198
288.217
288.137
288.089
288.069
288.096
288.202
288.224
288.142
288.097
288.073
288.099
288.229
288.235
288.151
288.103
288.079
288.109
288.23
288.245
288.159
288.109
288.085
288.113
288.214
288.24
288.162
288.113
288.093
288.117
288.211
288.254
288.162
288.097
288.155
288.206
288.27
288.25
288.15
288.121
288.146
288.194
288.273
288.272
288.144
288.118
288.147
288.198
288.285
288.285
288.153
288.125
288.156
288.211
288.301
288.272
288.165
288.134
288.166
288.218
288.301
288.272
288.171
288.144
288.147
288.217
288.317
288.337
288.269
288.208
288.178
288.21
288.321
288.351
288.265
288.208
288.186
288.213
288.353
288.368
288.276
288.217
288.198
288.226
288.369
288.388
288.29
288.231
288.211
288.241
288.361
288.391
288.302
288.245
288.227
288.257
288.365
288.417
288.309
288.236
288.303
288.377
288.444
288.426
288.315
288.278
288.311
288.38
288.474
288.469
288.328
288.296
288.334
288.4
288.497
288.488
288.344
288.318
288.354
288.419
288.514
288.488
288.368
288.336
288.37
288.438
288.533
288.503
288.392
288.364
288.371
288.449
288.562
288.59
288.524
288.441
288.425
288.459
288.601
288.632
288.538
288.468
288.46
288.493
288.644
288.683
288.582
288.508
288.5
288.532
288.682
288.72
288.619
288.543
288.537
288.569
288.691
288.756
288.655
288.581
288.582
288.614
288.737
288.785
288.665
288.597
288.678
288.768
288.841
288.851
288.701
288.663
288.715
288.794
288.895
288.893
288.739
288.706
288.753
288.832
288.935
288.928
288.776
288.748
288.8
288.878
288.983
288.962
288.838
288.802
288.826
288.896
289.034
289.096
289.007
288.909
288.899
288.939
289.08
289.148
289.038
288.952
288.95
288.981
289.152
289.208
289.095
289.006
289.006
289.042
289.176
289.255
289.144
289.059
289.067
289.101
289.227
289.286
289.154
289.082
289.164
289.263
289.345
289.33
289.192
289.148
289.193
289.276
289.379
289.399
289.216
289.19
289.25
289.337
289.448
289.455
289.279
289.248
289.297
289.388
289.5
289.469
289.344
289.306
289.327
289.403
289.545
289.599
289.509
289.407
289.39
289.435
289.579
289.651
289.535
289.446
289.437
289.468
289.657
289.69
289.573
289.484
289.477
289.514
289.659
289.721
289.605
289.519
289.52
289.552
289.684
289.739
289.605
289.518
289.591
289.687
289.765
289.754
289.615
289.571
289.625
289.715
289.833
289.832
289.644
289.61
289.656
289.742
289.862
289.822
289.678
289.64
289.681
289.764
289.88
289.846
289.708
289.669
289.667
289.755
289.899
289.929
289.836
289.741
289.702
289.746
289.885
289.932
289.815
289.728
289.697
289.734
289.897
289.926
289.807
289.72
289.698
289.731
289.887
289.906
289.752
289.674
289.745
289.838
289.937
289.895
289.749
289.704
289.733
289.825
289.951
289.91
289.739
289.702
289.73
289.811
289.94
289.887
289.727
289.689
289.711
289.795
289.912
289.853
289.71
289.674
289.662
289.753
289.901
289.899
289.801
289.716
289.634
289.684
289.826
289.848
289.728
289.651
289.593
289.627
289.796
289.798
289.665
289.607
289.548
289.568
289.7
289.735
289.592
289.515
289.573
289.65
289.755
289.69
289.546
289.501
289.521
289.589
289.715
289.659
289.488
289.453
289.463
289.539
289.671
289.596
289.445
289.418
289.392
289.483
289.631
289.614
289.506
289.436
289.335
289.378
289.527
289.54
289.412
289.345
289.287
289.312
289.464
289.479
289.338
289.237
289.255
289.317
289.427
289.381
289.202
289.154
289.179
289.258
289.406
289.336
289.157
289.115
289.136
289.215
289.361
289.278
289.111
289.075
289.057
289.152
289.322
289.312
289.183
289.112
288.993
289.046
289.212
289.226
289.081
289.005
288.948
288.974
289.14
289.182
289.018
288.914
288.96
289.037
289.154
289.057
288.877
288.831
288.835
288.891
289.043
288.963
288.802
288.766
288.736
288.833
289.019
289.047
288.91
288.821
288.721
288.777
288.96
288.993
288.845
288.738
288.683
288.722
288.902
288.964
288.773
288.665
288.734
288.808
288.947
288.858
288.667
288.609
288.623
288.721
288.877
288.788
288.594
288.558
288.541
288.654
288.844
288.792
288.649
288.57
288.461
288.499
288.687
288.75
288.587
288.499
288.453
288.514
288.695
288.8
288.566
288.468
288.569
288.67
288.832
288.752
288.536
288.469
288.507
288.627
288.797
288.714
288.502
288.447
288.432
288.572
288.797
288.792
288.644
288.53
288.419
288.485
288.698
288.71
288.531
288.435
288.361
288.407
288.589
288.623
288.401
288.33
288.447
288.549
288.708
288.653
288.467
288.382
288.412
288.533
288.799
288.85
288.675
288.541
288.459
288.535
288.77
288.858
288.665
288.508
288.48
288.54
288.772
288.882
288.612
288.472
288.588
288.73
288.88
288.829
288.595
288.504
288.48
288.589
288.838
288.869
288.687
288.561
288.539
288.631
288.83
289.078
288.766
288.61
288.789
288.968
289.166
289.09
288.822
288.729
288.805
289
289.225
289.143
288.892
288.81
288.808
288.966
289.274
289.271
289.116
288.934
288.853
288.958
289.221
289.209
288.934
288.822
288.909
289.053
289.259
289.209
288.986
288.881
288.984
289.123
289.501
289.565
289.359
289.135
289.117
289.241
289.522
289.676
289.292
289.131
289.272
289.516
289.729
289.651
289.341
289.22
289.197
289.354
289.731
289.695
289.493
289.26
289.229
289.323
289.581
289.832
289.504
289.301
289.492
289.704
290.092
290.162
289.933
289.694
289.701
289.856
290.179
290.37
289.92
289.721
289.893
290.177
290.405
290.313
289.972
289.824
289.798
289.914
290.244
290.442
290.019
289.845
290.121
290.415
290.74
290.675
290.283
290.141
290.234
290.447
290.836
291.076
290.549
290.366
290.48
290.807
291.072
290.823
290.529
290.394
290.388
290.475
290.853
291.195
290.648
290.421
290.664
290.974
291.223
291.252
290.828
290.663
290.729
290.826
291.306
291.409
290.902
290.688
290.532
290.755
291.153
291.442
291.067
290.788
290.717
290.922
291.289
291.624
291.047
290.788
290.84
291.142
291.69
291.579
291.036
290.751
290.724
291.082
291.698
292.093
291.365
290.975
291.155
291.712
292.04
291.721
291.298
291.083
291.087
291.313
291.798
292.225
291.591
291.247
291.309
291.68
292.34
292.565
291.894
291.472
291.65
292.111
292.781
293.002
292.34
291.84
292.016
292.548
293.19
293.312
292.711
292.153
292.261
292.845
293.404
293.48
292.96
292.354
292.444
293.066
293.546
293.596
293.158
292.531
292.616
293.241
293.637
293.668
293.31
292.694
292.766
293.37
293.69
293.7
293.417
292.832
292.892
293.458
293.708
293.708
293.488
292.945
292.994
293.512
293.705
293.696
293.527
293.036
293.074
293.535
293.677
293.651
293.534
293.105
293.131
293.529
293.621
293.589
293.517
293.153
293.167
293.498
293.552
293.51
293.472
293.174
293.172
293.441
293.466
293.418
293.405
293.166
293.152
293.367
293.371
293.323
293.325
293.131
293.107
293.283
293.276
293.229
293.239
293.078
293.048
293.195
293.184
293.136
293.149
293.014
292.978
293.104
293.091
293.045
293.056
292.938
292.897
293.01
293
292.953
292.964
292.854
292.812
292.92
292.907
292.86
292.874
292.769
292.728
292.831
292.814
292.767
292.788
292.687
292.648
292.745
292.722
292.676
292.702
292.608
292.57
292.66
292.631
292.586
292.616
292.53
292.492
292.574
292.544
292.5
292.531
292.453
292.415
292.489
292.459
292.417
292.447
292.376
292.339
292.407
292.377
292.336
292.366
292.3
292.265
292.327
292.298
292.26
292.288
292.228
292.194
292.252
292.225
292.189
292.215
292.159
292.127
292.181
292.156
292.123
292.147
292.095
292.065
292.116
292.093
292.063
292.085
292.036
292.01
292.058
292.037
292.01
292.03
291.984
291.961
292.007
291.987
291.964
291.983
291.939
291.92
291.962
291.943
291.923
291.942
291.901
291.885
291.924
291.905
291.887
291.907
291.87
291.856
291.892
291.871
291.855
291.876
291.843
291.833
291.863
291.841
291.827
291.85
291.821
291.813
291.839
291.816
291.804
291.827
291.803
291.796
291.819
291.795
291.786
291.81
291.789
291.784
291.804
291.78
291.773
291.797
291.779
291.778
291.795
291.771
291.768
291.791
291.775
291.777
291.792
291.769
291.77
291.792
291.778
291.78
291.794
291.774
291.778
291.797
291.784
291.788
291.801
291.784
291.789
291.806
291.793
291.797
291.811
291.797
291.803
291.816
291.801
291.806
291.821
291.811
291.817
291.826
291.81
291.814
291.831
291.825
291.832
291.836
291.818
291.823
291.842
291.839
291.846
291.847
291.826
291.831
291.852
291.853
291.859
291.856
291.834
291.837
291.861
291.864
291.869
291.864
291.84
291.842
291.867
291.873
291.876
291.869
291.843
291.845
291.87
291.879
291.88
291.871
291.844
291.844
291.87
291.882
291.881
291.869
291.842
291.839
291.867
291.88
291.878
291.863
291.835
291.83
291.859
291.875
291.871
291.853
291.824
291.817
291.847
291.865
291.859
291.84
291.809
291.801
291.832
291.852
291.843
291.823
291.792
291.784
291.815
291.835
291.825
291.805
291.773
291.764
291.795
291.815
291.804
291.783
291.753
291.742
291.772
291.791
291.777
291.758
291.728
291.716
291.744
291.763
291.748
291.729
291.701
291.688
291.715
291.733
291.716
291.698
291.672
291.657
291.682
291.7
291.682
291.664
291.639
291.622
291.647
291.665
291.646
291.627
291.603
291.586
291.609
291.627
291.608
291.59
291.566
291.548
291.572
291.59
291.571
291.553
291.529
291.511
291.534
291.553
291.535
291.516
291.492
291.474
291.498
291.517
291.5
291.48
291.457
291.438
291.463
291.483
291.466
291.446
291.422
291.405
291.43
291.45
291.435
291.414
291.389
291.373
291.399
291.42
291.406
291.384
291.359
291.344
291.37
291.393
291.38
291.357
291.331
291.318
291.345
291.368
291.356
291.333
291.306
291.295
291.322
291.346
291.337
291.312
291.285
291.276
291.304
291.329
291.322
291.297
291.268
291.262
291.291
291.317
291.312
291.285
291.257
291.252
291.282
291.309
291.307
291.28
291.25
291.248
291.279
291.306
291.307
291.279
291.249
291.249
291.28
291.308
291.309
291.281
291.25
291.252
291.283
291.311
291.314
291.285
291.253
291.257
291.289
291.317
291.321
291.292
291.26
291.265
291.297
291.325
291.33
291.301
291.269
291.275
291.307
291.335
291.341
291.312
291.279
291.286
291.318
291.347
291.352
291.324
291.291
291.298
291.331
291.359
291.365
291.337
291.304
291.311
291.344
291.372
291.378
291.35
291.318
291.325
291.358
291.385
291.392
291.364
291.331
291.339
291.371
291.399
291.406
291.378
291.345
291.352
291.384
291.412
291.419
291.39
291.357
291.363
291.396
291.425
291.43
291.401
291.367
291.372
291.406
291.436
291.441
291.409
291.375
291.379
291.414
291.446
291.449
291.417
291.38
291.383
291.42
291.454
291.456
291.421
291.383
291.384
291.423
291.459
291.459
291.422
291.382
291.381
291.423
291.461
291.46
291.422
291.379
291.378
291.421
291.461
291.46
291.42
291.375
291.372
291.418
291.459
291.457
291.415
291.368
291.365
291.412
291.454
291.45
291.407
291.359
291.353
291.403
291.446
291.439
291.396
291.346
291.339
291.39
291.433
291.424
291.381
291.331
291.322
291.373
291.416
291.406
291.363
291.312
291.302
291.354
291.396
291.383
291.341
291.29
291.277
291.329
291.372
291.355
291.314
291.263
291.249
291.3
291.34
291.325
291.285
291.234
291.208
291.268
291.312
291.296
291.255
291.189
291.161
291.228
291.272
290.993
290.282
289.972
289.977
289.974
289.965
289.972
289.981
289.966
289.966
289.967
289.96
289.948
289.944
289.952
289.974
290.005
290.033
290.043
290.04
290.039
290.043
290.046
290.047
290.045
290.043
290.043
290.039
290.037
290.02
290.002
289.973
289.962
290.251
290.375
290.574
290.774
290.98
291.224
291.454
291.691
291.921
292.157
292.396
292.661
292.8
292.892
293.026
293.148
293.204
293.228
293.236
293.237
293.214
293.183
293.14
293.086
293.011
292.917
292.8
292.693
292.622
292.543
292.464
292.392
292.341
292.303
292.266
292.236
292.211
292.186
292.159
292.124
292.063
291.967
291.838
291.695
291.535
291.319
291.027
290.712
290.359
289.986
289.6
289.241
288.921
288.698
288.557
288.462
288.416
288.372
288.356
288.344
288.381
288.444
288.517
288.602
288.693
288.782
288.87
288.965
289.061
289.155
289.245
289.325
289.396
289.457
289.508
289.553
289.58
289.593
289.599
289.6
289.589
289.57
289.549
289.526
289.5
289.481
289.47
289.471
289.492
289.476
289.436
289.407
289.383
289.349
289.29
289.192
289.069
288.921
288.748
288.554
288.353
288.149
287.93
287.679
287.284
286.952
287.041
287.107
287.061
286.967
286.97
287.038
287.098
287.202
287.377
287.616
287.887
288.172
288.464
288.749
289.021
289.267
289.483
289.667
289.828
289.981
290.139
290.31
290.494
290.689
290.897
291.124
291.376
291.652
291.949
292.261
292.577
292.894
293.208
293.516
293.823
294.135
294.461
294.795
295.127
295.459
295.796
296.133
296.452
296.721
296.881
296.959
297.034
297.127
297.243
297.384
297.556
297.755
297.977
298.215
298.463
298.712
298.955
299.185
299.392
299.573
299.721
299.837
299.914
299.956
299.971
299.966
299.948
299.933
299.926
299.929
299.929
299.928
299.927
299.923
299.919
299.915
299.91
299.907
299.903
299.898
299.892
299.885
299.878
299.87
299.861
299.851
299.84
299.825
299.807
299.786
299.763
299.738
299.712
299.686
299.661
299.636
299.612
299.589
299.566
299.545
299.524
299.503
299.483
299.463
299.443
299.423
299.402
299.38
299.357
299.332
299.306
299.277
299.248
299.216
299.184
299.152
299.12
299.09
299.063
299.039
299.021
299.008
299.001
299.001
299.008
299.022
299.044
299.076
299.118
299.171
299.234
299.305
299.382
299.463
299.542
299.609
299.652
299.662
299.634
299.571
299.483
299.385
299.292
299.213
299.155
299.115
299.091
299.08
299.077
299.081
299.091
299.105
299.121
299.134
299.144
299.139
299.031
299.035
298.852
298.694
298.53
298.388
298.243
298.116
297.988
297.874
297.76
297.657
297.556
297.467
297.385
297.321
297.276
297.253
297.259
297.28
297.334
297.389
297.485
297.565
297.698
297.807
297.978
298.121
298.316
298.478
298.649
298.783
298.914
299.035
299.178
299.321
299.491
299.661
299.855
300.044
300.254
300.453
300.667
300.867
301.076
301.268
301.463
301.64
301.816
301.975
302.13
302.268
302.401
302.52
302.632
302.735
302.829
302.915
302.995
303.065
303.124
303.17
303.205
303.231
303.252
303.272
303.294
303.324
303.362
303.41
303.463
303.519
303.574
303.628
303.68
303.729
303.777
303.82
303.857
303.89
303.919
303.946
303.972
303.995
304.017
304.038
304.068
304.109
304.168
304.237
304.321
304.406
304.498
304.581
304.667
304.744
304.819
304.882
304.942
304.989
305.034
305.07
305.103
305.13
305.157
305.183
305.213
305.247
305.288
305.336
305.384
305.432
305.472
305.507
305.526
305.54
305.537
305.534
305.516
305.501