/*--------------------------------*- C++ -*----------------------------------*\
| =========                 |                                                 |
| \\      /  F ield         | OpenFOAM: The Open Source CFD Toolbox           |
|  \\    /   O peration     | Version:  v2006                                 |
|   \\  /    A nd           | Website:  www.openfoam.com                      |
|    \\/     M anipulation  |                                                 |
\*---------------------------------------------------------------------------*/
FoamFile
{
    version     2.0;
    format      ascii;
    class       volVectorField;
    location    "0.002";
    object      U;
}
// * * * * * * * * * * * * * * * * * * * * * * * * * * * * * * * * * * * * * //

dimensions      [0 1 -1 0 0 0 0];


internalField   nonuniform List<vector> 
16277
(
(7.51884 0.0326615 -4.14663e-18)
(7.50232 -0.00826851 0)
(7.33253 0.00318387 0)
(7.36423 0.00666824 0)
(7.38986 0.0201678 -6.59639e-20)
(7.41083 0.0307745 -5.5387e-18)
(7.45663 0.0347305 3.67237e-18)
(7.52028 0.0459972 0)
(7.60097 0.0497827 0)
(7.68995 0.056271 0)
(7.78763 0.0592648 -6.86757e-21)
(7.89193 0.0601396 -1.37616e-20)
(8.00278 0.0592436 3.44912e-21)
(8.11965 0.0566632 0)
(8.24086 0.0517384 0)
(8.36399 0.0445681 0)
(8.48676 0.0353015 0)
(8.60651 0.0243185 0)
(8.72056 0.0116715 0)
(8.82651 -0.00271491 0)
(8.92242 -0.01706 0)
(9.00806 -0.0318008 0)
(9.08331 -0.0519477 0)
(9.14855 -0.0749859 0)
(9.20435 -0.0979616 0)
(9.24902 -0.120024 0)
(9.2809 -0.140881 0)
(9.29916 -0.160453 0)
(9.30367 -0.178765 0)
(9.2948 -0.195882 0)
(9.27306 -0.211803 0)
(9.23977 -0.226424 0)
(9.19721 -0.23933 0)
(9.14815 -0.249978 0)
(9.09537 -0.257749 0)
(9.04114 -0.262169 0)
(8.98736 -0.263054 0)
(8.93695 -0.26082 0)
(8.89337 -0.255768 0)
(8.85958 -0.248158 0)
(8.83787 -0.238296 0)
(8.83016 -0.226571 0)
(8.83811 -0.213243 0)
(8.86297 -0.198668 0)
(8.90552 -0.183162 0)
(8.96594 -0.167146 0)
(9.04384 -0.151048 0)
(9.13824 -0.135293 0)
(9.24761 -0.12029 0)
(9.36997 -0.106309 0)
(9.50312 -0.0937124 0)
(9.6444 -0.0829296 0)
(9.79047 -0.074291 0)
(9.93854 -0.0683199 0)
(10.0858 -0.0642085 0)
(10.2294 -0.0604596 0)
(10.367 -0.0561962 0)
(10.497 -0.0510547 0)
(10.6173 -0.0480042 0)
(10.7203 -0.0394017 0)
(10.8145 -0.0390095 0)
(10.8699 -0.0608479 0)
(10.8795 -0.0850426 0)
(10.8361 -0.112851 0)
(10.7321 -0.142864 0)
(10.5577 -0.175325 0)
(10.3035 -0.210841 0)
(9.96153 -0.251241 0)
(9.5296 -0.291665 0)
(9.01579 -0.326937 0)
(8.4393 -0.351895 0)
(7.8309 -0.361575 0)
(7.23297 -0.352808 0)
(6.69583 -0.329314 0)
(6.25686 -0.29061 0)
(5.93156 -0.247062 0)
(5.72089 -0.203917 0)
(5.6107 -0.163108 0)
(5.57538 -0.127944 -5.53209e-20)
(5.58984 -0.09948 5.53386e-20)
(5.63425 -0.0774152 0)
(5.69305 -0.0592832 1.67062e-19)
(5.75789 -0.0452751 -1.1222e-19)
(5.81969 -0.0319437 0)
(5.88061 -0.020001 -3.71532e-18)
(5.93423 -0.0110617 2.94156e-18)
(5.98561 -0.00391771 0)
(6.01573 0.0468915 0)
(6.23786 -0.0935437 0)
(5.76751 -0.0467577 5.6607e-17)
(6.08548 -0.103512 -3.76043e-17)
(6.05634 0.0011601 -3.06526e-17)
(5.98955 0.0158102 -7.71705e-18)
(5.98567 -0.0145047 4.02825e-18)
(5.95642 -0.0112177 0)
(5.92403 -0.0120261 0)
(5.75264 -0.0326003 -4.92026e-19)
(5.64449 -0.0690746 4.14188e-18)
(5.93485 -0.00099987 3.11081e-18)
(5.98952 -0.0209279 -1.05823e-17)
(6.15034 -0.00523419 0)
(6.10867 0.00281088 3.2095e-18)
(5.72369 -0.0605642 3.4384e-18)
(5.59495 -0.054997 1.27579e-18)
(6.08694 -0.0289904 7.1445e-19)
(6.17316 -0.0533574 2.39345e-18)
(6.34549 -0.0387166 2.38805e-18)
(6.23114 -0.0240239 0)
(5.67559 -0.030515 -2.22821e-18)
(5.69676 -0.0177882 2.07707e-19)
(6.3033 -0.0377781 0)
(6.44954 -0.0551589 0)
(6.59478 -0.0417359 2.94676e-19)
(6.42137 -0.027406 0)
(5.77174 -0.00719922 4.29871e-22)
(5.9619 -0.0057264 2.4015e-19)
(6.62167 -0.0216238 0)
(6.80182 -0.0249717 -2.96397e-19)
(6.97649 -0.0265558 1.86945e-20)
(6.77405 -0.0130873 6.97787e-19)
(6.10077 -0.00233558 -8.95803e-19)
(6.36779 0.000714071 8.69771e-19)
(7.02873 -0.0151865 7.00631e-19)
(7.22519 -0.00949392 -1.21986e-18)
(7.41795 -0.0148797 -1.20602e-18)
(7.20897 -0.00370876 -1.40543e-18)
(6.54114 -0.00181208 0)
(6.81252 -0.000340086 8.7287e-19)
(7.46764 -0.00704457 -7.25378e-19)
(7.67392 0.000643419 -1.88626e-20)
(7.87035 -0.00877817 1.2269e-18)
(7.65259 0.00325706 -7.25297e-19)
(6.98935 -0.00253165 -8.72848e-19)
(7.22427 0.000479066 0)
(7.8825 -0.00177733 0)
(8.10013 0.00957834 0)
(8.27918 -0.00390765 1.20677e-18)
(8.05164 0.00763997 0)
(7.38209 -0.00287887 0)
(7.56162 0.00102914 0)
(8.23452 0.00325275 0)
(8.46605 0.0182047 0)
(8.61121 -0.000879403 0)
(8.36966 0.00906174 0)
(7.6818 -0.00320179 0)
(7.79657 0.00134512 0)
(8.4961 0.0071237 0)
(8.74586 0.0250234 0)
(8.84314 0.00103434 0)
(8.58097 0.0075753 0)
(7.86081 -0.0029948 0)
(7.90236 0.000726506 0)
(8.64396 0.00795764 0)
(8.91914 0.0270453 0)
(8.96143 0.00104194 0)
(8.6686 0.00373273 0)
(7.89598 -0.0042688 0)
(7.85911 -0.00222329 0)
(8.66813 0.00445454 0)
(8.98073 0.0221525 0)
(8.96685 -0.0017656 0)
(8.62701 -0.00363395 0)
(7.76843 -0.0079545 0)
(7.64303 -0.00802151 0)
(8.56034 -0.00457744 0)
(8.92949 0.0102217 0)
(8.87196 -0.00326751 0)
(8.46631 -0.011775 0)
(7.47666 -0.0123368 0)
(7.28681 -0.0127221 0)
(8.36252 -0.0122333 0)
(8.80748 0.00283457 0)
(8.71909 -0.00356247 0)
(8.2276 -0.019572 0)
(7.05318 -0.0166065 0)
(6.81278 -0.0162813 0)
(8.09803 -0.018064 0)
(8.63539 -0.00249403 0)
(8.53522 -0.00852981 0)
(7.94446 -0.0265326 0)
(6.53967 -0.0194506 0)
(6.28387 -0.0162083 0)
(7.81271 -0.0251337 0)
(8.4528 -0.0151767 0)
(8.35233 -0.0173512 0)
(7.64872 -0.0312269 0)
(6.01526 -0.0130505 0)
(5.79117 -0.00354046 0)
(7.49315 -0.0292268 0)
(8.26567 -0.0334309 0)
(8.1583 -0.0199006 0)
(7.30912 -0.0283324 0)
(5.59901 0.000537763 0)
(5.46145 0.00301536 0)
(7.16319 -0.0314792 0)
(8.07159 -0.0518331 0)
(7.97608 -0.0194276 0)
(7.02978 -0.0280115 0)
(5.34758 0.00131033 0)
(5.26117 -0.00198228 0)
(6.94343 -0.0396549 0)
(7.90761 -0.0727797 0)
(7.84735 -0.0273328 0)
(6.87351 -0.03571 0)
(5.19317 -0.00399539 0)
(5.15557 -0.00942235 0)
(6.84996 -0.0552783 0)
(7.82504 -0.102342 0)
(7.81293 -0.0510223 1.21806e-18)
(6.83629 -0.0492577 0)
(5.13592 -0.0105921 0)
(5.14445 -0.0172856 0)
(6.86203 -0.0740507 0)
(7.83526 -0.139633 0)
(7.86754 -0.0803636 0)
(6.89551 -0.0645033 0)
(5.17065 -0.0168909 0)
(5.22665 -0.0243083 0)
(6.96809 -0.0919318 0)
(7.93468 -0.174513 0)
(8.01187 -0.107838 0)
(7.04805 -0.0785755 0)
(5.30004 -0.0223125 0)
(5.40454 -0.0297324 0)
(7.16741 -0.10577 0)
(8.12455 -0.201414 0)
(8.24547 -0.129312 0)
(7.29225 -0.0891935 0)
(5.52418 -0.0263815 0)
(5.67416 -0.0332519 0)
(7.45498 -0.114021 0)
(8.40062 -0.217989 0)
(8.55952 -0.143502 1.22352e-18)
(7.61869 -0.0954744 0)
(5.83427 -0.0288769 0)
(6.02178 -0.0349489 0)
(7.81664 -0.117002 0)
(8.74914 -0.22469 0)
(8.93697 -0.151017 0)
(8.00999 -0.0977606 0)
(6.21325 -0.0298419 0)
(6.42773 -0.0350722 0)
(8.23255 -0.115779 0)
(9.15055 -0.223187 0)
(9.3572 -0.153459 0)
(8.44534 -0.0971791 0)
(6.6404 -0.0296269 0)
(6.87151 -0.0340465 0)
(8.68219 -0.111493 0)
(9.58454 -0.215273 0)
(9.8005 -0.152347 0)
(8.90492 -0.0948204 0)
(7.0959 -0.0286977 0)
(7.33492 -0.0321002 0)
(9.14734 -0.105111 0)
(10.0327 -0.2026 0)
(10.2489 -0.147249 1.22862e-18)
(9.37079 -0.0904392 0)
(7.56181 -0.0270485 0)
(7.80038 -0.02948 0)
(9.6105 -0.0972329 0)
(10.4774 -0.186495 0)
(10.6857 -0.13745 0)
(9.82662 -0.0832739 0)
(8.02163 -0.0245135 0)
(8.24997 -0.0258698 0)
(10.0532 -0.087149 0)
(10.9005 -0.166701 0)
(11.0929 -0.126957 0)
(10.2539 -0.0759659 0)
(8.45883 -0.0217652 0)
(8.66913 -0.0224539 0)
(10.4591 -0.0785029 0)
(11.2857 -0.148817 0)
(11.4545 -0.119412 0)
(10.6368 -0.0706913 0)
(8.85783 -0.0197953 0)
(9.04661 -0.0201623 0)
(10.8183 -0.0729761 0)
(11.6219 -0.135814 0)
(11.763 -0.112484 1.23147e-18)
(10.9701 -0.0657926 0)
(9.21131 -0.0181794 0)
(9.3719 -0.0175637 0)
(11.1223 -0.0658412 0)
(11.9001 -0.120603 0)
(12.0099 -0.105929 0)
(11.2437 -0.0612435 0)
(9.50738 -0.016746 0)
(9.63693 -0.0155936 0)
(11.3636 -0.0604979 0)
(12.1142 -0.109231 0)
(12.1916 -0.101062 0)
(11.4527 -0.0577202 0)
(9.74124 -0.0157329 0)
(9.83933 -0.0140812 0)
(11.5397 -0.056717 0)
(12.2625 -0.101325 0)
(12.3069 -0.0977372 0)
(11.5963 -0.0549714 0)
(9.91245 -0.0150512 0)
(9.9792 -0.0130023 0)
(11.6503 -0.0537508 0)
(12.344 -0.0957665 0)
(12.3555 -0.0953789 0)
(11.6746 -0.0526938 0)
(10.0219 -0.0145859 0)
(10.0577 -0.012129 0)
(11.6957 -0.0516519 0)
(12.3585 -0.0921304 0)
(12.3365 -0.0943131 0)
(11.6877 -0.0510383 0)
(10.0701 -0.0143122 0)
(10.0751 -0.0116911 0)
(11.6757 -0.0501545 0)
(12.3055 -0.0904319 0)
(12.2479 -0.0947027 0)
(11.6332 -0.0500546 0)
(10.0555 -0.0143403 0)
(10.0284 -0.0113903 0)
(11.5864 -0.0495363 0)
(12.1805 -0.0903508 0)
(12.0912 -0.0940168 0)
(11.5141 -0.0485456 0)
(9.98209 -0.0140133 0)
(9.93093 -0.0103786 0)
(11.4403 -0.0481644 0)
(11.9949 -0.0877834 0)
(11.8755 -0.0919266 0)
(11.3403 -0.0467384 0)
(9.85951 -0.0131954 0)
(9.7874 -0.00905181 0)
(11.2417 -0.0461942 0)
(11.7506 -0.0843456 0)
(11.604 -0.0897856 0)
(11.1186 -0.0449372 0)
(9.69665 -0.0120301 0)
(9.60498 -0.00726204 0)
(10.9942 -0.0442806 0)
(11.4495 -0.0809076 0)
(11.2722 -0.088131 0)
(10.8436 -0.043251 0)
(9.49229 -0.0106986 0)
(9.37878 -0.00592669 0)
(10.6902 -0.0427869 0)
(11.0857 -0.0791041 0)
(10.881 -0.0860729 0)
(10.5156 -0.0412485 0)
(9.24658 -0.00954562 0)
(9.11402 -0.00436375 0)
(10.3384 -0.0396855 0)
(10.6681 -0.0745492 0)
(10.4431 -0.0796457 0)
(10.1472 -0.0367953 0)
(8.96897 -0.00772635 0)
(8.82614 -0.0023452 0)
(9.9547 -0.0337274 0)
(10.2119 -0.0653239 0)
(9.97663 -0.0682616 0)
(9.75612 -0.0302381 0)
(8.6749 -0.00580632 0)
(8.52626 -0.000808459 0)
(9.55864 -0.0265706 0)
(9.73945 -0.0526161 0)
(9.50626 -0.0542916 0)
(9.3621 -0.0236454 0)
(8.37088 -0.00429685 0)
(8.21513 6.26926e-05 0)
(9.16347 -0.0210513 0)
(9.26924 -0.0417266 0)
(9.03521 -0.0447897 0)
(8.96443 -0.019989 0)
(8.0503 -0.00324147 0)
(7.88102 0.000420065 0)
(8.75561 -0.0196637 0)
(8.78892 -0.037977 0)
(8.54022 -0.0419517 0)
(8.54133 -0.0194627 0)
(7.6992 -0.00247556 0)
(7.50845 0.000586459 0)
(8.30947 -0.0207513 0)
(8.26993 -0.0405364 0)
(7.99776 -0.0416339 0)
(8.07327 -0.0192136 0)
(7.30726 -0.00177736 0)
(7.10035 0.000919533 0)
(7.82174 -0.0203227 0)
(7.7063 -0.0410328 0)
(7.41862 -0.0377672 0)
(7.57198 -0.0173208 0)
(6.88713 -0.000682051 0)
(6.67053 0.00127978 0)
(7.30917 -0.0182621 0)
(7.11462 -0.0381523 0)
(6.8196 -0.0312284 0)
(7.05351 -0.0140619 0)
(6.45053 -0.000525456 0)
(6.22641 0.000329144 1.11813e-19)
(6.78412 -0.0151632 0)
(6.50957 -0.0346694 0)
(6.2121 -0.0227698 0)
(6.5239 -0.0113115 0)
(5.99973 0.000708064 -1.11774e-19)
(5.76702 0.000701223 1.11881e-19)
(6.24821 -0.0139234 0)
(5.90016 -0.0318418 0)
(5.60321 -0.0132402 0)
(5.98352 -0.00814579 0)
(5.53333 0.00275128 -1.11842e-19)
(5.29231 0.000272083 1.1194e-19)
(5.70389 -0.0123684 0)
(5.29316 -0.0305284 0)
(5.00201 -0.00322704 0)
(5.43865 -0.00383301 0)
(5.05587 0.00490172 -1.11902e-19)
(4.80802 -0.00111407 1.11991e-19)
(5.15764 -0.0109585 0)
(4.69722 -0.0312861 0)
(4.41711 0.00743653 0)
(4.89634 0.000844261 0)
(4.57444 0.00714627 -1.11955e-19)
(4.3191 -0.00353581 1.12032e-19)
(4.61438 -0.00888703 0)
(4.11779 -0.0334813 0)
(3.85402 0.0207243 0)
(4.36211 0.00598994 0)
(4.09471 0.00856163 -1.12e-19)
(3.82314 -0.00708908 1.12068e-19)
(4.06984 -0.00570178 0)
(3.5505 -0.0370039 0)
(3.31654 0.0349753 0)
(3.84235 0.0118619 0)
(3.62378 0.0117901 -1.12042e-19)
(3.31618 -0.0109818 1.12102e-19)
(3.52075 -0.000879712 0)
(2.98739 -0.0398688 0)
(2.80363 0.0493556 0)
(3.33937 0.0152568 0)
(3.16305 0.0156415 -1.12087e-19)
(2.80847 -0.0147521 1.12141e-19)
(2.97896 0.00407126 0)
(2.43676 -0.04242 0)
(2.2859 0.0613682 0)
(2.82663 0.0142777 0)
(2.68548 0.0202321 -1.12138e-19)
(2.31101 -0.0183374 1.12184e-19)
(2.45243 0.00985786 0)
(1.9089 -0.0456017 0)
(1.73064 0.070164 0)
(2.27467 0.00751096 0)
(2.1665 0.0277386 -1.12192e-19)
(1.8224 -0.0209749 1.12224e-19)
(1.93596 0.0182932 0)
(1.38951 -0.0430648 0)
(1.14739 0.0698404 0)
(1.70111 -0.00128553 0)
(1.6225 0.0346717 -1.1224e-19)
(1.32424 -0.0224153 1.12252e-19)
(1.41142 0.0266275 0)
(0.854126 -0.0353661 0)
(0.563413 0.0616215 0)
(1.12291 -0.00669588 0)
(1.07225 0.0360932 -1.12276e-19)
(0.799954 -0.0218468 1.12267e-19)
(0.854201 0.0333199 0)
(0.295524 -0.0214436 0)
(-0.0174461 0.055928 0)
(0.548362 -0.00697143 0)
(0.529407 0.0355098 -1.12299e-19)
(0.257367 -0.0193258 1.01058e-18)
(0.278961 0.0408384 7.48106e-19)
(-0.281129 -0.00935581 -2.4956e-18)
(-0.595085 0.0567543 0)
(-0.0269395 -0.00760118 0)
(-0.0137894 0.0339489 -1.12302e-19)
(-0.294318 -0.0170349 1.12234e-19)
(-0.304875 0.0336552 0)
(-0.872329 -0.0119659 -1.24721e-18)
(-1.17681 0.0664866 0)
(-0.599728 0.002381 0)
(-0.554431 0.034093 -1.12257e-19)
(-0.860052 -0.0141091 1.12166e-19)
(-0.902783 0.0284866 0)
(-1.4761 -0.00872655 0)
(-1.77733 0.0683252 0)
(-1.19134 0.00703077 0)
(-1.11302 0.032981 -1.122e-19)
(-1.43028 -0.0106666 1.1209e-19)
(-1.50626 0.0254702 0)
(-2.08703 -0.0030779 0)
(-2.39056 0.0674216 0)
(-1.79637 0.00963844 0)
(-1.68458 0.0315563 -1.12133e-19)
(-2.00105 -0.00709694 1.12005e-19)
(-2.11034 0.0230016 0)
(-2.6998 0.00255681 0)
(-3.0094 0.064942 0)
(-2.40684 0.0108581 0)
(-2.26251 0.0297891 -1.12058e-19)
(-2.56674 -0.00411276 1.1191e-19)
(-2.70766 0.0202084 0)
(-3.30789 0.00725545 0)
(-3.62272 0.0601077 0)
(-3.01007 0.0103399 0)
(-2.8357 0.0278477 -1.11975e-19)
(-3.12142 -0.00138752 1.11806e-19)
(-3.29264 0.0179429 0)
(-3.90469 0.011919 0)
(-4.21558 0.0546783 0)
(-3.5937 0.00946826 0)
(-3.39066 0.0260389 -1.11883e-19)
(-3.65492 0.000978533 1.11697e-19)
(-3.85783 0.0162291 0)
(-4.47882 0.0157471 0)
(-4.77916 0.0502521 0)
(-4.14863 0.00952099 0)
(-3.91529 0.0240401 -1.11783e-19)
(-4.15929 0.00274576 1.11583e-19)
(-4.39378 0.0151385 0)
(-5.02452 0.0194009 0)
(-5.30342 0.0465347 0)
(-4.66268 0.0100169 0)
(-4.39991 0.022039 -1.11679e-19)
(-4.61778 0.00413027 1.11468e-19)
(-4.88222 0.0141993 0)
(-5.52368 0.0223261 0)
(-5.7689 0.0414571 0)
(-5.11709 0.00956138 0)
(-4.82654 0.0198395 -1.11571e-19)
(-5.01091 0.00443181 1.11357e-19)
(-5.30359 0.0113545 0)
(-5.95669 0.0222049 0)
(-6.16348 0.0349391 0)
(-5.49948 0.00814479 0)
(-5.18277 0.0174726 -1.11462e-19)
(-5.33057 0.00422882 1.11253e-19)
(-5.64941 0.00894228 0)
(-6.31467 0.0201399 0)
(-6.47983 0.0289074 0)
(-5.80367 0.00687854 0)
(-5.46303 0.0152624 -1.11356e-19)
(-5.57197 0.00394253 1.11159e-19)
(-5.91401 0.00817599 0)
(-6.59062 0.0190393 0)
(-6.71176 0.0236314 0)
(-6.02541 0.00592877 0)
(-5.66438 0.0130764 -1.11258e-19)
(-5.73425 0.00298193 1.11074e-19)
(-6.09487 0.00741062 0)
(-6.77993 0.0168141 0)
(-6.85562 0.0158765 0)
(-6.16296 0.00389223 0)
(-5.78662 0.0105173 -1.11168e-19)
(-5.8225 0.00230583 1.11e-19)
(-6.19612 0.00567984 0)
(-6.88536 0.0141683 0)
(-6.92577 0.0116485 0)
(-6.23215 0.00216511 0)
(-5.84668 0.00864782 -1.11087e-19)
(-5.84896 0.00224579 1.10936e-19)
(-6.22804 0.00397032 0)
(-6.91466 0.0139866 0)
(-6.90847 0.0105921 0)
(-6.22019 0.00125386 0)
(-5.83361 0.00768285 -1.11015e-19)
(-5.79837 0.00298931 1.10878e-19)
(-6.17399 0.00292902 0)
(-6.85218 0.0172385 0)
(-6.80249 0.0125571 0)
(-6.12478 0.00149234 0)
(-5.74612 0.00736853 -1.10946e-19)
(-5.67453 0.00419321 1.10819e-19)
(-6.03694 0.00293541 0)
(-6.70255 0.0235863 -1.23038e-18)
(-6.61254 0.0161867 0)
(-5.94734 0.00353728 0)
(-5.58665 0.00717498 -1.10873e-19)
(-5.47822 0.00522103 1.10747e-19)
(-5.8166 0.006698 0)
(-6.47019 0.0319019 0)
(-6.34322 0.0212898 0)
(-5.68521 0.00778414 0)
(-5.35421 0.00672176 -1.10779e-19)
(-5.21334 0.00594444 1.10647e-19)
(-5.51572 0.0132494 0)
(-6.16814 0.0442332 0)
(-6.01468 0.0280292 0)
(-5.34966 0.0123533 0)
(-5.06022 0.00687822 -1.10651e-19)
(-4.89327 0.00715607 1.10522e-19)
(-5.14767 0.0182216 0)
(-5.81498 0.0558805 0)
(-5.64516 0.0284314 0)
(-4.95696 0.0162315 0)
(-4.72189 0.00316188 -1.10464e-19)
(-4.5476 0.00476904 1.10233e-19)
(-4.73743 0.0205934 0)
(-5.43601 0.0621678 -1.222e-18)
(-5.26281 0.0288666 -1.21623e-18)
(-4.53992 0.0117583 5.46773e-19)
(-4.37642 0.00329844 -9.8437e-19)
(-4.20867 0.0133119 0)
(-4.32203 0.00967366 9.1045e-23)
(-5.04942 0.0808595 0)
(-4.87909 0.0403785 -1.18751e-18)
(-4.13602 0.000558348 1.76933e-19)
(-4.04884 0.00602868 0)
(-3.89544 0.0251475 -1.71707e-18)
(-3.93709 -0.00431479 -6.26357e-24)
(-4.66943 0.0966168 -1.18429e-18)
(-4.5218 0.0173337 0)
(-3.79117 -0.00576793 0)
(-3.76193 0.00605441 1.60415e-18)
(-3.64909 0.00833352 -4.34914e-19)
(-3.67334 0.00342889 -7.14394e-18)
(-4.34948 0.0332491 -5.06699e-23)
(-4.25622 -0.0705041 9.09644e-18)
(-3.66605 0.0326515 0)
(-3.56657 -0.0248415 -2.76553e-18)
(-3.49685 -0.0195941 -3.56814e-18)
(-3.70858 0.0611629 2.83835e-17)
(-4.12989 0.0107979 1.49979e-22)
(-4.05558 0.172541 -6.61964e-17)
(-3.70558 0.0543519 1.85678e-18)
(-3.37058 0.0599799 0)
(-2.9121 0.0532937 0)
(-3.41529 0.100357 -1.5717e-18)
(-3.69663 -0.0299124 1.32117e-18)
(-4.22244 0.0441184 -1.34173e-17)
(-5.50456 0.374623 6.27853e-22)
(-7.58281 0.169275 2.36417e-17)
(-6.28607 0.192308 -3.44699e-19)
(-7.61457 0.298918 -5.10635e-18)
(-7.01987 -0.11303 5.12511e-18)
(-7.72691 0.506312 0)
(-7.07336 -0.282816 0)
(-7.17864 0.551232 1.10772e-18)
(-6.91653 -0.321163 1.42986e-18)
(-6.85708 0.559486 -3.18666e-19)
(-6.86101 -0.246766 1.61491e-18)
(-6.63582 0.50553 -2.6239e-18)
(-7.26048 -0.0658717 1.34964e-18)
(-7.0042 0.365937 0)
(-7.79807 0.061982 -2.30984e-17)
(-7.36605 0.229644 -2.69142e-17)
(-7.50745 0.0856375 0)
(-7.55898 0.014138 -9.68641e-19)
(-7.40454 0.0446238 0)
(-6.8445 0.0889575 0)
(-6.33186 0.0769873 4.8349e-18)
(-6.16733 0.0649462 -1.2452e-17)
(-6.11165 0.0265596 0)
(-5.28234 0.0172296 -6.52861e-19)
(-5.12988 0.00852059 6.12117e-19)
(-6.04822 0.0423763 -1.52132e-17)
(-6.08451 0.0620169 3.5847e-17)
(-5.97574 0.0625931 1.44963e-18)
(-5.98229 0.0457847 4.79307e-18)
(-4.95391 0.0107437 -5.03974e-18)
(-4.77569 0.022161 0)
(-5.9323 0.0289778 -2.56396e-18)
(-5.84797 0.072265 -6.60839e-18)
(-5.68993 0.0686244 0)
(-5.89903 0.017187 1.68499e-18)
(-4.6266 0.0276206 0)
(-4.50414 0.0266696 0)
(-5.85578 0.00068974 3.9637e-19)
(-5.52602 0.0603468 -2.15111e-18)
(-5.38476 0.0491177 1.013e-22)
(-5.82064 -0.00886213 -3.96444e-19)
(-4.4156 0.0294245 0)
(-4.35837 0.0180415 0)
(-5.77769 -0.00324379 0)
(-5.26131 0.0442173 -3.00963e-19)
(-5.16465 0.0251517 0)
(-5.72511 0.00770689 0)
(-4.3155 0.00345542 0)
(-4.29607 -0.0055177 0)
(-5.69006 0.00314887 0)
(-5.11986 -0.00218623 0)
(-5.13177 -0.0215383 0)
(-5.68925 0.00106814 0)
(-4.30905 -0.0129136 0)
(-4.33551 -0.00942811 0)
(-5.70814 -0.00436146 0)
(-5.1499 -0.0154971 0)
(-5.15152 -0.0127026 0)
(-5.72083 -0.0026282 0)
(-4.3562 -0.00852445 0)
(-4.37761 -0.0065912 0)
(-5.73598 -0.0095161 0)
(-5.15942 -0.0199869 -3.00754e-19)
(-5.18227 -0.0229093 3.01294e-19)
(-5.76976 -0.0119253 0)
(-4.4083 -0.00562753 0)
(-4.43801 -0.00540884 0)
(-5.80271 -0.0102207 0)
(-5.195 -0.0109194 0)
(-5.18861 -0.00750802 0)
(-5.81313 -0.00340023 0)
(-4.45537 -0.00627739 0)
(-4.47055 -0.00549622 0)
(-5.81751 -0.00791343 0)
(-5.18946 -0.0120369 0)
(-5.20586 -0.010887 0)
(-5.8372 -0.0162397 0)
(-4.49328 0.00178954 0)
(-4.51611 -0.000394302 0)
(-5.85856 -0.0127124 0)
(-5.21261 -0.00301366 0)
(-5.20401 -0.00364128 0)
(-5.86333 -0.00553209 0)
(-4.52969 -0.00282407 0)
(-4.54436 -0.000683263 0)
(-5.86763 -0.0116385 0)
(-5.2087 -0.0111602 0)
(-5.23303 -0.016596 0)
(-5.88923 -0.0132325 0)
(-4.56953 -0.000290739 0)
(-4.59714 -0.00420113 0)
(-5.91336 -0.00896475 0)
(-5.24858 -0.01034 0)
(-5.24938 -0.00988758 0)
(-5.92306 -0.0034839 0)
(-4.61721 -0.00584347 0)
(-4.63865 -0.00218636 0)
(-5.93352 -0.0110999 0)
(-5.26276 -0.0147268 0)
(-5.2935 -0.0179757 0)
(-5.96068 -0.0136833 0)
(-4.66976 -0.000628526 0)
(-4.70265 -0.00417266 0)
(-5.98974 -0.00978698 0)
(-5.3134 -0.0106401 0)
(-5.31961 -0.0100549 0)
(-6.00435 -0.00437401 0)
(-4.72787 -0.00571206 0)
(-4.75396 -0.0020641 0)
(-6.01981 -0.011415 0)
(-5.33935 -0.0142491 0)
(-5.37507 -0.0170439 0)
(-6.05059 -0.0134699 0)
(-4.78872 -0.000573529 0)
(-4.82464 -0.00423909 0)
(-6.08159 -0.0092523 0)
(-5.39769 -0.00933067 0)
(-5.40625 -0.00886999 0)
(-6.09702 -0.00375357 0)
(-4.85261 -0.00585833 0)
(-4.88059 -0.00221001 0)
(-6.11254 -0.0101586 0)
(-5.42723 -0.0118907 0)
(-5.46099 -0.0137608 0)
(-6.1411 -0.011637 0)
(-4.91562 -0.000825671 0)
(-4.95015 -0.00403227 0)
(-6.16767 -0.0076894 0)
(-5.47867 -0.00535867 0)
(-5.48461 -0.010686 0)
(-6.17712 0.00306535 0)
(-4.97724 -0.0112934 -2.57476e-19)
(-5.0049 -0.00904601 2.57164e-19)
(-6.18631 -0.00188288 0)
(-5.50493 -0.0121339 0)
(-5.53292 -0.0082762 0)
(-6.20867 -0.0105038 0)
(-5.03781 -0.000852612 0)
(-5.06932 -0.00225924 0)
(-6.22879 -0.00874044 0)
(-5.54112 0.00089181 0)
(-5.54107 -0.00555984 0)
(-6.23212 0.00161796 0)
(-5.09372 -0.00940347 0)
(-5.11857 -0.00764342 0)
(-6.23701 -0.00263714 0)
(-5.55851 -0.00808097 0)
(-5.58226 -0.00560438 0)
(-6.2546 -0.0101412 0)
(-5.14817 -0.000411873 0)
(-5.17629 -0.00275233 0)
(-6.26844 -0.00787892 0)
(-5.58376 0.00188467 0)
(-5.57881 -0.00546101 0)
(-6.26476 0.00219607 0)
(-5.19695 -0.00999854 0)
(-5.21721 -0.00778598 0)
(-6.26345 -0.00225413 0)
(-5.59159 -0.00712769 0)
(-5.60673 -0.00423258 0)
(-6.27313 -0.00955929 0)
(-5.24074 -0.000545603 0)
(-5.26164 -0.00329 0)
(-6.27635 -0.00714104 0)
(-5.59596 0.00293017 0)
(-5.58168 -0.00517167 0)
(-6.26096 0.00258758 0)
(-5.27419 -0.0104826 0)
(-5.28566 -0.00770487 0)
(-6.24941 -0.00227261 0)
(-5.58566 -0.00591222 0)
(-5.58711 -0.00248562 0)
(-6.24695 -0.00913567 0)
(-5.29883 -0.000488219 0)
(-5.30788 -0.00365064 0)
(-6.23443 -0.00637416 0)
(-5.55821 0.00437439 0)
(-5.52967 -0.00467111 0)
(-6.20208 0.00310665 0)
(-5.30769 -0.0109297 0)
(-5.30653 -0.00767113 0)
(-6.17622 -0.00225585 0)
(-5.52077 -0.00469747 0)
(-5.50451 -0.00102813 0)
(-6.15794 -0.00858697 0)
(-5.30618 -0.000495964 0)
(-5.30036 -0.00425533 0)
(-6.12597 -0.00514413 0)
(-5.45346 0.00545213 0)
(-5.40829 -0.00469105 0)
(-6.07337 0.00368517 0)
(-5.28445 -0.0115934 0)
(-5.26856 -0.0077557 0)
(-6.03129 -0.00246804 0)
(-5.3851 -0.00394755 0)
(-5.3489 0.000122272 0)
(-5.99522 -0.00821954 0)
(-5.25301 -0.000593612 0)
(-5.2307 -0.00489301 0)
(-5.94159 -0.00416278 0)
(-5.27342 0.00634728 0)
(-5.211 -0.00503224 0)
(-5.86693 0.00410216 0)
(-5.19733 -0.0123172 0)
(-5.16582 -0.0076979 0)
(-5.80826 -0.00330482 0)
(-5.17269 -0.00318813 0)
(-5.11516 0.00191535 0)
(-5.75378 -0.00916207 0)
(-5.13497 -0.000530228 0)
(-5.09643 -0.00581656 0)
(-5.67719 -0.0029509 0)
(-5.01357 0.00830556 0)
(-4.93288 -0.00255083 0)
(-5.58043 0.00120402 0)
(-5.04462 -0.00894806 0)
(-4.99695 -0.00415584 0)
(-5.50736 -0.00647916 0)
(-4.88077 -0.0031307 0)
(-4.80648 -0.00189646 0)
(-5.43487 -0.00625218 0)
(-4.95194 -0.00343373 0)
(-4.89943 -0.00925559 0)
(-5.33593 0.00126152 0)
(-4.68315 0.00546978 0)
(-4.58996 -0.00609603 0)
(-5.21959 0.00262871 0)
(-4.83251 -0.0111561 0)
(-4.77358 -0.00500884 0)
(-5.13572 -0.00686694 0)
(-4.52663 -0.00447085 0)
(-4.43292 -0.00110572 0)
(-5.04733 -0.006792 0)
(-4.71726 -0.00416086 0)
(-4.65174 -0.0105148 0)
(-4.92831 0.00297333 0)
(-4.28666 0.00549671 0)
(-4.1876 -0.0117761 0)
(-4.79568 0.00578475 0)
(-4.57121 -0.0162561 0)
(-4.50489 -0.00831132 0)
(-4.70537 -0.00696729 0)
(-4.11622 -0.00487563 0)
(-3.99969 0.00433328 0)
(-4.60289 -0.0118053 0)
(-4.43955 -0.00196391 0)
(-4.36202 -0.00979442 0)
(-4.46526 0.00237745 0)
(-3.82866 0.00838718 0)
(-3.72804 -0.0143312 0)
(-4.31932 0.00399448 0)
(-4.26788 -0.0163516 0)
(-4.19576 -0.00817774 0)
(-4.22734 -0.00953858 0)
(-3.65053 -0.00521771 0)
(-3.51362 0.0061065 0)
(-4.10986 -0.0142971 0)
(-4.12401 -0.0025456 0)
(-4.03881 -0.0109988 0)
(-3.95455 0.00385413 0)
(-3.32119 0.00870642 0)
(-3.22125 -0.0161141 0)
(-3.79882 -0.0016799 0)
(-3.93418 -0.0129784 0)
(-3.86045 -0.00606103 0)
(-3.70997 -0.0123389 0)
(-3.1388 -0.00701674 0)
(-2.98612 0.00230946 0)
(-3.57617 -0.0120009 0)
(-3.78568 -0.00662139 0)
(-3.69743 -0.0140771 0)
(-3.40673 0.00790065 0)
(-2.78163 0.00543776 0)
(-2.68796 -0.0230165 0)
(-3.24653 -0.00192691 0)
(-3.58821 -0.0172651 0)
(-3.52174 -0.00750318 0)
(-3.16667 -0.0155295 0)
(-2.59678 -0.00322413 3.05687e-19)
(-2.42227 0.00716239 -3.0626e-19)
(-3.01967 -0.0169007 0)
(-3.44556 -0.00589862 0)
(-3.35288 -0.01156 0)
(-2.84801 0.00799693 0)
(-2.21277 0.00259679 0)
(-2.1441 -0.0327901 0)
(-2.69553 -0.00930906 0)
(-3.23789 -0.0118176 0)
(-3.1818 -0.00879945 0)
(-2.63643 -0.0147884 0)
(-2.06224 -0.0131893 0)
(-1.88716 -0.00565104 0)
(-2.48298 -0.0163708 0)
(-3.10802 -0.00962511 0)
(-3.01936 -0.0129341 0)
(-2.32352 0.00872156 0)
(-1.692 -0.0077564 0)
(-1.64981 -0.0489918 3.06683e-19)
(-2.1908 -0.0174862 0)
(-2.90757 -0.0128778 0)
(-2.87066 -0.011221 0)
(-2.16352 -0.0147835 0)
(-1.5823 -0.0206186 -3.07688e-19)
(-1.40235 -0.0200381 -4.94584e-18)
(-2.00143 -0.0328637 1.74472e-24)
(-2.79439 -0.0259305 4.14667e-18)
(-2.71473 -0.0364136 -1.64988e-17)
(-1.83907 -0.00888788 -2.39976e-24)
(-1.20399 -0.0175627 4.63304e-18)
(-1.16531 -0.0601368 -4.60693e-18)
(-1.72003 -0.0520023 -1.27945e-17)
(-2.61796 -0.0470242 1.63471e-17)
(-2.57081 -0.0648265 2.58048e-19)
(-1.67586 -0.0542282 -1.27544e-17)
(-1.069 -0.032124 9.74564e-18)
(-0.841341 -0.0230583 -9.98805e-18)
(-1.48497 -0.0687063 0)
(-2.50313 -0.0806334 0)
(-2.43183 -0.090457 3.26076e-17)
(-1.33753 -0.044213 -2.50625e-17)
(-0.621027 -0.0218583 -9.31302e-18)
(-0.5559 -0.0733731 0)
(-1.21411 -0.0876637 -2.48044e-17)
(-2.34077 -0.100151 3.23794e-17)
(-2.33432 -0.107771 3.21569e-17)
(-1.18456 -0.0607106 -7.69725e-19)
(-0.427779 -0.0289782 0)
(-0.222726 -0.0240934 0)
(-0.991979 -0.0823248 7.71154e-19)
(-2.25442 -0.122624 -1.00428e-18)
(-2.16611 -0.122975 -2.96849e-17)
(-0.811476 -0.0279957 0)
(-0.000886809 0.00113409 0)
(0.0460532 -0.0287881 -1.88554e-17)
(-0.684345 -0.0830133 2.46949e-17)
(-2.08198 -0.115094 -3.32027e-17)
(-1.94477 -0.0961545 0)
(-0.582608 0.00182393 3.03025e-18)
(0.201502 0.0613803 0)
(0.394415 -0.0312658 -1.78493e-17)
(-0.355829 0.00303042 -3.00348e-18)
(-1.74393 -0.131464 -8.07306e-18)
(-1.52621 -0.0507235 3.7225e-17)
(-0.189666 0.12318 -6.33508e-17)
(0.522471 0.0348684 4.41079e-17)
(0.468022 0.179305 5.61815e-17)
(-0.121882 0.15213 -1.03142e-16)
(-1.01331 -0.0167248 -3.71928e-17)
(-0.860336 -0.0831469 -5.74518e-17)
(-0.437508 -0.0566876 -5.7342e-18)
(0.111318 -0.121569 -2.9531e-17)
(0.740186 -0.0171079 -6.48139e-18)
(-0.148466 -0.101014 8.60038e-18)
(-1.04716 -0.146327 -5.63773e-18)
(-1.34946 -0.162869 2.53171e-18)
(-0.103453 -0.0700921 -3.86739e-18)
(0.89568 0.0283682 -2.94796e-18)
(1.23216 0.140231 9.62466e-17)
(0.139264 0.0195424 -9.0228e-23)
(-1.33953 -0.117708 -8.09735e-17)
(-1.20932 -0.139433 6.04719e-19)
(0.33278 0.00621305 1.18538e-16)
(1.24856 0.0182394 1.26712e-22)
(1.32991 0.149389 4.5084e-17)
(0.271822 -0.00198048 -5.81225e-17)
(-1.29925 -0.109881 7.58521e-17)
(-1.11169 -0.120418 -5.78034e-19)
(0.670576 0.046331 2.20698e-19)
(1.59892 0.117427 4.27144e-17)
(1.63095 0.162104 -4.37066e-17)
(0.664033 0.0377051 5.52623e-17)
(-1.11514 -0.0976441 -5.62014e-19)
(-0.970964 -0.112968 1.12183e-18)
(0.878444 0.0617933 5.1693e-17)
(1.72945 0.0896903 -4.3246e-17)
(1.75928 0.226638 -3.30332e-17)
(0.875776 0.108032 -4.97677e-17)
(-0.950015 -0.0842772 7.35726e-17)
(-0.609545 -0.110959 -4.3131e-18)
(1.24401 0.203894 0)
(2.0165 0.126261 -4.80723e-18)
(1.94401 0.190455 0)
(1.34663 0.251345 4.40424e-17)
(-0.494167 -0.0878758 -1.25285e-16)
(-0.0651562 -0.00255133 9.30803e-17)
(1.53146 0.333954 0)
(1.81795 0.43805 -2.36919e-16)
(1.88368 -0.155551 1.97186e-17)
(0.900618 -0.0143373 -5.759e-18)
(-0.647187 -0.136374 -6.858e-18)
(-0.8459 -0.100082 0)
(1.24349 0.0660559 -4.22714e-18)
(2.24474 0.244943 -1.27632e-17)
(2.46559 0.301931 0)
(1.52474 0.117829 -5.85636e-17)
(-0.737814 -0.0623665 7.69655e-17)
(-0.641925 -0.0481728 1.15129e-18)
(1.64572 0.16621 -1.75775e-18)
(2.52528 0.315363 0)
(2.59921 0.306143 3.24266e-22)
(1.76463 0.208791 5.11354e-17)
(-0.470551 -0.0336083 -7.07538e-17)
(-0.305029 -0.0412115 6.29241e-17)
(1.84733 0.27272 6.37577e-18)
(2.63347 0.283667 0)
(2.66828 0.232226 3.63174e-17)
(1.95712 0.329347 -3.04409e-18)
(-0.100731 -0.0627049 -4.09385e-18)
(0.0190853 -0.0795717 7.48122e-18)
(2.05018 0.385403 0)
(2.62109 0.200769 -5.87424e-17)
(2.2139 0.562028 -6.92763e-18)
(1.97186 0.413696 4.22789e-18)
(0.205229 -0.054562 8.42442e-17)
(-0.932295 -0.224929 0)
(1.46539 0.062609 -5.64581e-18)
(2.45588 -0.116764 1.46243e-17)
(2.67967 0.396463 6.9502e-17)
(1.67284 0.143585 -1.36353e-16)
(-0.892104 -0.070028 1.76269e-16)
(-0.723342 -0.0561565 -7.93939e-17)
(1.80881 0.229261 -5.82723e-17)
(2.79947 0.454005 2.82977e-18)
(2.8568 0.454979 -4.37046e-17)
(1.91791 0.315904 -5.76305e-17)
(-0.547491 -0.0588378 1.52934e-16)
(-0.382751 -0.0835485 0)
(1.97476 0.379011 6.80691e-18)
(2.84727 0.334767 0)
(2.80536 0.321431 0)
(2.09818 0.508257 1.74032e-17)
(-0.138547 -0.131985 0)
(0.114351 -0.0885104 0)
(2.08808 0.560716 -3.66655e-17)
(2.27906 0.711033 0)
(2.44631 -0.173623 -4.62986e-17)
(1.48132 0.128059 4.75118e-17)
(-1.20623 -0.317185 0)
(-1.03248 -0.102032 1.83569e-16)
(1.56353 0.16289 5.39361e-19)
(2.56389 0.426495 -3.2823e-18)
(2.54086 0.417805 -4.47785e-17)
(1.61022 0.238222 5.92034e-17)
(-0.902064 -0.125849 -1.58496e-16)
(-0.750808 -0.164201 1.4731e-16)
(1.5883 0.304422 -1.09645e-16)
(2.46502 0.318867 -3.99393e-17)
(2.30129 0.111129 -6.32815e-17)
(1.52471 0.400785 1.61536e-16)
(-0.755715 -0.30718 -2.77502e-16)
(-0.66083 -0.210702 3.86291e-16)
(1.37825 0.478462 1.81853e-16)
(1.47397 0.710442 -1.21472e-20)
(1.77196 -0.409895 -1.30769e-18)
(0.832746 -0.037787 -1.51473e-18)
(-1.97246 -0.533214 -1.81803e-18)
(-2.04095 -0.376038 1.85566e-16)
(0.686161 0.00842312 1.10079e-18)
(1.7841 0.297656 0)
(1.73167 0.226554 1.791e-16)
(0.658204 0.105884 -1.21661e-16)
(-1.78729 -0.40515 -4.45511e-18)
(-1.90107 -0.756599 4.51362e-18)
(0.314437 0.11253 0)
(1.4056 -0.388866 -1.02732e-16)
(0.113017 0.291641 -6.35551e-17)
(0.0471307 0.0628364 0)
(-2.02838 -0.585706 6.04592e-18)
(-3.23269 -0.996238 -2.53393e-16)
(-0.799178 -0.552233 2.02546e-16)
(0.136572 -1.08695 0)
(-0.217671 -0.466465 -1.07012e-16)
(-1.43176 -0.842077 1.41993e-16)
(-3.90246 -1.00442 3.67161e-19)
(-4.03784 -1.2059 1.60686e-16)
(-1.81058 -0.908252 0)
(-0.541351 -0.885229 0)
(-1.02953 -1.6724 0)