/*--------------------------------*- C++ -*----------------------------------*\
| =========                 |                                                 |
| \\      /  F ield         | OpenFOAM: The Open Source CFD Toolbox           |
|  \\    /   O peration     | Version:  v2006                                 |
|   \\  /    A nd           | Website:  www.openfoam.com                      |
|    \\/     M anipulation  |                                                 |
\*---------------------------------------------------------------------------*/
FoamFile
{
    version     2.0;
    format      ascii;
    class       volScalarField;
    location    "0.015";
    object      p;
}
// * * * * * * * * * * * * * * * * * * * * * * * * * * * * * * * * * * * * * //

dimensions      [1 -1 -2 0 0 0 0];


internalField   nonuniform List<scalar> 
16277
(
147960
147958
148005
148005
148004
148005
148005
148005
148006
148007
148009
148011
148015
148020
148026
148033
148041
148048
148056
148064
148073
148081
148090
148100
148109
148119
148130
148140
148151
148162
148173
148185
148197
148209
148221
148233
148246
148259
148272
148285
148298
148311
148324
148337
148351
148364
148377
148391
148404
148417
148431
148444
148457
148470
148483
148495
148508
148520
148533
148545
148556
148568
148579
148591
148602
148612
148623
148633
148643
148652
148662
148671
148679
148687
148695
148703
148710
148717
148724
148730
148737
148742
148747
148752
148755
148757
148758
148758
148757
148759
148759
148763
148768
148777
148793
148804
148811
148795
148794
148791
148782
148782
148783
148770
148770
148770
148758
148758
148758
148747
148747
148747
148736
148736
148736
148726
148726
148727
148717
148717
148717
148708
148708
148709
148700
148700
148700
148692
148693
148693
148685
148685
148685
148678
148678
148679
148672
148672
148671
148666
148666
148666
148660
148660
148659
148654
148654
148655
148649
148649
148649
148644
148644
148645
148640
148639
148639
148635
148635
148636
148631
148631
148631
148628
148628
148628
148624
148624
148624
148621
148621
148621
148618
148618
148618
148616
148616
148616
148614
148613
148613
148612
148612
148612
148610
148610
148610
148609
148609
148609
148608
148608
148608
148607
148608
148608
148607
148607
148607
148607
148607
148607
148607
148607
148607
148607
148608
148608
148608
148608
148608
148609
148609
148610
148611
148610
148610
148613
148613
148613
148615
148615
148615
148618
148618
148618
148621
148621
148621
148625
148625
148625
148628
148628
148628
148633
148633
148633
148637
148637
148636
148642
148642
148642
148647
148646
148646
148652
148652
148652
148658
148657
148657
148664
148664
148664
148670
148670
148670
148677
148677
148677
148684
148684
148684
148691
148692
148692
148699
148699
148699
148707
148708
148708
148716
148716
148715
148725
148725
148725
148734
148733
148733
148743
148743
148744
148753
148753
148752
148763
148763
148763
148773
148773
148773
148784
148784
148784
148795
148794
148794
148806
148806
148806
148817
148817
148817
148829
148829
148829
148841
148841
148840
148853
148853
148853
148865
148865
148865
148878
148878
148878
148890
148890
148890
148903
148903
148903
148916
148916
148915
148929
148929
148929
148942
148941
148941
148954
148955
148955
148968
148967
148967
148980
148981
148981
148993
148993
148993
149006
149006
149006
149019
149018
149018
149031
149031
149031
149043
149043
149043
149055
149055
149055
149066
149066
149066
149078
149078
149078
149088
149088
149088
149099
149099
149099
149108
149108
149108
149117
149117
149118
149126
149125
149125
149133
149133
149134
149140
149140
149140
149146
149146
149147
149152
149151
149151
149156
149156
149157
149160
149160
149160
149163
149163
149163
149165
149165
149165
149167
149167
149167
149167
149167
149167
149167
149167
149167
149167
149167
149167
149166
149166
149166
149163
149163
149164
149161
149161
149161
149156
149157
149157
149153
149153
149153
149147
149147
149148
149143
149143
149143
149137
149137
149137
149132
149132
149131
149125
149125
149126
149120
149120
149120
149113
149113
149114
149108
149108
149108
149101
149101
149101
149096
149096
149095
149089
149089
149089
149084
149084
149083
149077
149077
149078
149072
149072
149072
149066
149066
149066
149061
149061
149061
149055
149056
149056
149051
149051
149051
149046
149046
149046
149042
149042
149041
149037
149037
149037
149033
149033
149033
149028
149028
149029
149025
149025
149025
149021
149021
149021
149018
149018
149018
149014
149014
149014
149012
149012
149012
149008
149008
149008
149006
149006
149006
149003
149003
149003
149001
149001
149001
148998
148998
148998
148996
148996
148996
148994
148994
148994
148992
148992
148992
148990
148990
148990
148988
148988
148988
148986
148986
148986
148985
148985
148985
148984
148984
148984
148983
148983
148983
148982
148982
148982
148981
148981
148981
148980
148980
148981
148980
148980
148980
148980
148980
148980
148980
148980
148980
148980
148980
148980
148980
148980
148980
148980
148980
148980
148981
148981
148981
148982
148982
148982
148983
148983
148983
148983
148983
148983
148985
148985
148985
148985
148985
148985
148987
148987
148987
148988
148988
148988
148989
148989
148989
148990
148990
148990
148992
148993
148993
149003
149004
149002
148980
148978
148979
148987
148995
148999
149000
148999
149000
148999
148999
148999
148999
148999
148999
148999
148999
149000
149000
149000
149000
149001
149001
149002
149003
149003
149004
149004
149000
149001
149001
148997
148997
148996
148994
148994
148994
148993
148993
148993
148992
148993
148993
148992
148991
148991
148991
148991
148991
148990
148990
148990
148990
148990
148990
148989
148989
148989
148988
148988
148988
148988
148988
148988
148987
148987
148987
148986
148986
148986
148986
148986
148986
148985
148985
148985
148984
148984
148984
148984
148984
148984
148983
148983
148983
148982
148982
148982
148982
148982
148982
148981
148981
148981
148981
148981
148981
148981
148981
148981
148980
148980
148980
148980
148980
148980
148979
148979
148980
148979
148979
148979
148979
148979
148979
148979
148979
148979
148979
148979
148979
148979
148978
148978
148978
148978
148978
148978
148978
148978
148978
148978
148978
148978
148978
148978
148978
148978
148978
148978
148978
148978
148978
148978
148978
148979
148979
148979
148979
148979
148979
148979
148979
148979
148979
148979
148979
148979
148979
148979
148980
148980
148980
148980
148980
148980
148980
148980
148980
148980
148980
148980
148981
148981
148981
148981
148981
148981
148982
148982
148982
148982
148982
148982
148983
148983
148983
148983
148983
148983
148984
148984
148984
148985
148985
148985
148985
148985
148985
148986
148986
148986
148986
148986
148986
148987
148987
148987
148988
148988
148988
148988
148988
148988
148989
148989
148989
148989
148989
148989
148990
148990
148990
148990
148990
148990
148991
148991
148991
148991
148991
148991
148991
148991
148991
148992
148992
148992
148992
148992
148992
148992
148992
148992
148992
148992
148992
148992
148992
148992
148992
148992
148992
148992
148992
148992
148992
148992
148992
148992
148992
148992
148992
148992
148992
148991
148991
148991
148991
148991
148991
148990
148990
148990
148989
148989
148989
148988
148988
148988
148987
148987
148987
148986
148986
148986
148984
148984
148984
148982
148982
148982
148980
148980
148980
148978
148977
148977
148973
148974
148974
148969
148969
148968
148961
148963
148964
148960
148959
148958
148954
148955
148957
148956
148954
148953
148954
148956
148957
148960
148958
148956
148960
148961
148963
148965
148964
148962
148965
148967
148969
148974
148973
148972
148978
148979
148980
148984
148983
148981
148985
148986
148988
148993
148990
148988
149004
149004
149005
149017
149024
149022
148969
148968
148974
148998
148997
148997
149009
149009
149010
149017
149016
149014
149021
149022
149023
149029
149028
149027
149031
149032
149034
149042
149041
149040
149045
149046
149047
149054
149054
149053
149056
149057
149059
149071
149069
149068
149088
149090
149085
149052
149047
149046
149075
149075
149076
149087
149087
149087
149091
149093
149094
149104
149103
149102
149108
149109
149110
149118
149116
149113
149133
149132
149133
149144
149147
149144
149117
149118
149122
149145
149144
149144
149155
149157
149158
149171
149170
149169
149177
149178
149180
149196
149193
149189
149213
149216
149213
149198
149195
149194
149214
149216
149218
149236
149236
149237
149245
149248
149250
149270
149268
149265
149287
149289
149286
149277
149271
149268
149309
149308
149308
149328
149326
149324
149344
149349
149352
149375
149377
149375
149365
149369
149375
149411
149413
149415
149431
149436
149438
149473
149472
149468
149501
149504
149502
149532
149529
149524
149579
149581
149580
149618
149624
149622
149666
149669
149668
149720
149731
149732
149800
149796
149777
149850
149863
149862
149985
149962
149923
149902
149951
149978
150007
149952
149901
149797
149844
149875
149498
149532
149523
149198
149181
149086
148749
148858
148893
148721
148649
148537
148554
148590
148610
148538
148493
148425
148471
148497
148514
148487
148459
148419
148410
148426
148442
148441
148426
148403
148418
148423
148434
148451
148441
148426
148415
148427
148440
148417
148408
148404
148422
148435
148442
148439
148433
148430
148414
148415
148421
148447
148443
148432
148435
148438
148442
148426
148421
148420
148457
148463
148461
148452
148449
148447
148425
148426
148432
148471
148476
148473
148452
148455
148458
148437
148431
148429
148480
148483
148478
148469
148469
148471
148439
148439
148445
148482
148486
148483
148474
148473
148473
148453
148449
148450
148498
148499
148492
148482
148483
148483
148470
148469
148470
148458
148454
148454
148507
148508
148500
148484
148484
148484
148455
148454
148458
148498
148503
148501
148487
148485
148485
148463
148460
148463
148508
148509
148502
148485
148485
148486
148454
148453
148458
148500
148506
148504
148495
148490
148487
148460
148457
148460
148499
148501
148496
148481
148481
148483
148453
148451
148454
148496
148503
148501
148491
148485
148482
148454
148451
148454
148493
148494
148488
148469
148469
148469
148443
148440
148443
148485
148493
148492
148457
148456
148457
148478
148484
148483
148460
148459
148459
148431
148428
148430
148474
148476
148470
148456
148459
148462
148441
148434
148433
148462
148468
148466
148447
148444
148443
148411
148408
148409
148451
148453
148447
148433
148434
148436
148418
148411
148411
148444
148452
148452
148425
148422
148420
148383
148379
148380
148423
148425
148419
148391
148389
148389
148421
148422
148416
148402
148407
148416
148378
148372
148373
148399
148405
148403
148379
148378
148377
148345
148341
148344
148382
148385
148379
148351
148348
148347
148394
148392
148381
148361
148365
148372
148323
148320
148324
148354
148360
148359
148334
148333
148332
148299
148296
148299
148334
148337
148332
148305
148302
148302
148352
148348
148335
148312
148315
148320
148273
148269
148272
148300
148306
148304
148285
148281
148279
148242
148238
148239
148283
148285
148279
148250
148247
148247
148293
148290
148278
148254
148258
148265
148214
148210
148213
148242
148249
148248
148205
148205
148208
148221
148226
148222
148204
148203
148202
148172
148170
148174
148217
148218
148210
148182
148184
148190
148197
148199
148192
148165
148166
148168
148132
148127
148129
148157
148163
148161
148120
148120
148124
148141
148147
148145
148124
148123
148122
148093
148091
148095
148151
148148
148135
148095
148093
148093
148107
148109
148102
148074
148076
148078
148032
148030
148034
148068
148075
148074
148029
148029
148033
148047
148052
148048
148018
148017
148019
148049
148062
148066
148033
148027
148022
147978
147976
147983
148005
148008
148002
147967
147965
147966
147980
147983
147978
147955
147957
147960
147916
147913
147917
147951
147957
147955
147916
147916
147919
147944
147955
147957
147913
147909
147908
147914
147920
147917
147889
147887
147885
147843
147841
147847
147870
147874
147869
147836
147834
147836
147857
147859
147852
147816
147812
147810
147842
147844
147837
147816
147820
147824
147796
147786
147783
147809
147817
147817
147761
147761
147765
147772
147778
147775
147732
147732
147735
147748
147754
147752
147726
147724
147722
147681
147678
147681
147718
147720
147714
147680
147677
147677
147715
147714
147703
147667
147667
147671
147684
147684
147676
147645
147647
147651
147600
147596
147598
147628
147635
147634
147580
147582
147587
147599
147605
147603
147557
147558
147562
147579
147586
147584
147558
147556
147554
147516
147514
147517
147575
147572
147559
147515
147514
147517
147522
147524
147518
147473
147470
147471
147482
147485
147480
147442
147439
147439
147461
147463
147456
147429
147432
147436
147384
147381
147384
147416
147424
147422
147375
147375
147378
147394
147401
147398
147369
147361
147360
147368
147376
147375
147327
147324
147326
147334
147341
147340
147303
147302
147301
147253
147251
147257
147287
147289
147282
147241
147237
147236
147254
147258
147252
147212
147210
147211
147231
147233
147227
147189
147186
147185
147225
147223
147211
147182
147187
147194
147135
147129
147130
147158
147166
147166
147109
147109
147112
147119
147126
147124
147064
147066
147072
147084
147090
147087
147041
147042
147045
147060
147068
147068
147031
147029
147028
146980
146977
146981
147023
147025
147016
146977
146976
146980
146995
146996
146987
146937
146934
146936
146943
146946
146940
146895
146891
146892
146910
146913
146906
146866
146864
146867
146880
146883
146875
146843
146846
146850
146788
146785
146788
146821
146830
146828
146770
146772
146777
146792
146800
146798
146751
146748
146749
146761
146772
146772
146707
146707
146711
146718
146726
146725
146671
146670
146673
146679
146687
146686
146642
146643
146643
146592
146592
146599
146629
146631
146623
146576
146573
146575
146582
146586
146580
146532
146528
146529
146545
146549
146543
146500
146498
146501
146525
146525
146515
146469
146468
146470
146483
146485
146476
146440
146444
146449
146376
146373
146378
146413
146423
146423
146362
146361
146365
146368
146374
146371
146309
146310
146316
146327
146336
146335
146266
146269
146276
146289
146297
146295
146247
146244
146245
146253
146261
146259
146224
146219
146215
146152
146149
146154
146200
146199
146188
146135
146131
146132
146135
146140
146135
146082
146078
146078
146102
146102
146092
146037
146031
146028
146054
146056
146047
145999
145996
145998
146014
146015
146006
145966
145969
145972
145900
145896
145899
145933
145944
145943
145876
145876
145880
145883
145890
145886
145829
145827
145829
145834
145842
145840
145775
145774
145779
145784
145792
145788
145735
145731
145733
145737
145745
145742
145681
145681
145684
145689
145699
145697
145654
145651
145647
145574
145571
145576
145618
145619
145607
145552
145548
145549
145552
145557
145550
145490
145485
145485
145499
145503
145495
145441
145438
145439
145447
145452
145445
145394
145392
145395
145406
145409
145399
145357
145362
145366
145287
145281
145283
145313
145322
145319
145255
145254
145258
145263
145273
145272
145189
145192
145199
145200
145210
145207
145140
145138
145141
145136
145143
145139
145071
145071
145075
145073
145078
145070
145034
145032
145030
144955
144955
144963
144988
144992
144984
144928
144925
144927
144932
144936
144928
144865
144861
144862
144876
144877
144867
144801
144795
144793
144807
144810
144800
144740
144739
144741
144747
144748
144737
144683
144687
144691
144591
144585
144589
144614
144625
144624
144530
144535
144546
144542
144546
144538
144475
144475
144479
144486
144494
144490
144426
144423
144425
144422
144431
144428
144352
144352
144357
144357
144370
144369
144315
144309
144303
144204
144199
144203
144253
144251
144237
144168
144163
144164
144164
144167
144157
144076
144072
144074
144061
144065
144057
143972
143956
143942
143976
143985
143979
143937
143941
143945
143850
143846
143850
143882
143895
143894
143812
143811
143816
143810
143819
143814
143728
143728
143733
143730
143740
143736
143652
143652
143656
143651
143667
143669
143593
143589
143584
143462
143457
143463
143504
143503
143488
143409
143404
143406
143354
143367
143366
143262
143243
143229
143284
143291
143282
143222
143218
143216
143233
143238
143227
143168
143175
143181
143069
143058
143059
143084
143097
143095
142994
142996
143004
142997
143011
143010
142901
142901
142906
142884
142893
142888
142783
142783
142787
142774
142790
142792
142699
142693
142687
142528
142518
142522
142510
142527
142530
142451
142437
142429
142486
142489
142475
142400
142394
142391
142403
142408
142397
142314
142310
142311
142322
142324
142308
142236
142243
142249
142102
142095
142101
142131
142148
142151
142037
142036
142040
142002
142011
142005
141876
141876
141883
141856
141871
141870
141759
141751
141748
141546
141510
141485
141588
141598
141594
141530
141523
141521
141550
141554
141540
141451
141446
141446
141446
141450
141437
141334
141330
141329
141327
141332
141317
141227
141238
141246
141076
141065
141067
141087
141105
141106
140978
140977
140982
140926
140937
140931
140768
140769
140778
140713
140721
140717
140470
140526
140563
140431
140407
140385
140512
140520
140503
140428
140426
140427
140418
140427
140414
140306
140303
140306
140290
140297
140283
140182
140191
140197
140023
140007
140008
140024
140042
140041
139902
139904
139911
139855
139872
139870
139727
139714
139702
139454
139446
139461
139351
139382
139395
139245
139200
139164
139253
139276
139276
139205
139201
139202
139223
139229
139211
139124
139132
139138
138948
138936
138939
138955
138976
138977
138826
138827
138833
138776
138795
138793
138629
138626
138618
138378
138377
138394
138395
138394
138374
138215
138201
138195
137960
138008
138033
137858
137804
137741
137654
137684
137716
137813
137835
137827
137710
137715
137720
137703
137726
137724
137587
137584
137573
137323
137320
137335
137350
137352
137331
137186
137184
137189
137103
137109
137090
136873
136878
136882
136566
136546
136552
136458
136460
136448
135968
136082
136178
136183
136160
136112
136094
136109
136117
135968
135966
135971
136026
136033
136010
135882
135876
135876
135841
135847
135826
135642
135654
135661
135326
135310
135317
135301
135327
135332
135084
135088
135097
134870
134888
134880
134405
134464
134530
134096
133964
133829
134164
134201
134209
134177
134176
134169
134026
134023
134023
134029
134055
134054
133838
133847
133859
133762
133785
133781
133528
133524
133513
133122
133109
133122
133088
133083
133060
132789
132789
132800
132070
132133
132232
132040
131940
131819
131854
131902
131955
131798
131784
131773
131912
131921
131890
131740
131725
131713
131682
131688
131661
131406
131422
131429
130947
130928
130941
130815
130839
130843
130459
130454
130470
129776
129632
129523
129248
129410
129551
129472
129394
129319
129300
129319
129339
129439
129473
129463
129320
129318
129309
128931
128919
128926
128818
128812
128780
128402
128409
128420
127635
127634
127692
127176
126993
126800
126399
126662
126858
126733
126651
126519
126545
126595
126613
126734
126787
126779
126589
126585
126567
126070
126050
126054
125720
125726
125702
125110
125011
124960
123255
123665
123999
123583
123398
123175
123890
123937
123927
124007
124006
124004
123848
123843
123830
123365
123353
123363
122866
122898
122900
122108
121863
121584
120098
120642
121030
120778
120623
120391
121371
121386
121305
121340
121338
121337
121018
121015
121032
120215
120153
120184
117650
118141
118632
118802
118546
118362
119018
119000
119081
119084
119019
119016
118737
118769
118878
118115
117745
117207
116915
117277
117560
117567
117425
117291
118437
118489
118440
118612
118382
117938
117692
118253
118559
118758
118604
118353
119258
119405
119407
120271
120163
119875
121014
121137
121163
122034
122060
122025
122742
122760
122740
123288
123298
123284
123739
123750
123745
124146
124148
124140
124497
124504
124503
124824
124824
124819
125110
125115
125116
125383
125381
125377
125622
125626
125628
125855
125852
125849
126058
126061
126064
126258
126255
126252
126432
126434
126437
126605
126601
126599
126755
126757
126760
126906
126903
126901
127037
127039
127042
127171
127168
127166
127287
127288
127291
127406
127403
127401
127508
127510
127513
127615
127612
127610
127706
127708
127710
127802
127799
127798
127884
127885
127888
127971
127968
127967
128045
128046
128048
128124
128121
128120
128192
128193
128194
128263
128261
128260
128325
128326
128327
128390
128388
128387
128447
128447
128449
128506
128505
128504
128558
128559
128560
128613
128611
128611
128661
128661
128662
128711
128710
128709
128755
128755
128756
128801
128800
128799
128842
128842
128843
128884
128883
128883
128922
128923
128923
128961
128961
128960
128996
128997
128997
129033
129032
129032
129066
129066
129066
129099
129099
129098
129130
129130
129130
129161
129161
129160
129189
129190
129190
129219
129218
129218
129245
129245
129245
129272
129272
129272
129297
129297
129297
129322
129322
129322
129346
129346
129345
129369
129369
129369
129391
129391
129391
129413
129413
129413
129434
129434
129433
129454
129455
129454
129474
129474
129474
129493
129493
129493
129512
129512
129511
129530
129530
129530
129547
129547
129547
129565
129565
129565
129581
129581
129580
129597
129597
129597
129613
129613
129612
129628
129628
129628
129643
129643
129642
129658
129658
129658
129671
129672
129671
129685
129686
129685
129699
129699
129698
129712
129712
129712
129725
129725
129724
129737
129737
129737
129749
129749
129749
129761
129762
129761
129773
129773
129773
129784
129785
129784
129795
129795
129795
129806
129807
129806
129817
129817
129817
129827
129827
129827
129837
129837
129837
129848
129847
129847
129857
129857
129857
129867
129867
129867
129875
129875
129875
129885
129885
129885
129893
129893
129893
129903
129902
129902
129910
129910
129910
129919
129919
129919
129927
129927
129927
129935
129935
129935
129943
129943
129942
129951
129950
129950
129958
129958
129957
129965
129965
129965
129972
129972
129971
129979
129979
129979
129985
129985
129985
129992
129992
129992
129998
129998
129998
130005
130004
130004
130010
130010
130010
130016
130016
130016
130021
130021
130021
130027
130027
130027
130032
130032
130031
130037
130037
130037
130041
130041
130041
130046
130046
130046
130051
130050
130050
130055
130055
130055
130059
130059
130059
130063
130063
130063
130067
130066
130066
130070
130070
130070
130073
130073
130073
130077
130077
130077
130079
130079
130079
130082
130082
130082
130085
130085
130084
130087
130087
130087
130089
130089
130089
130092
130091
130091
130093
130093
130093
130095
130095
130095
130096
130096
130096
130098
130098
130098
130099
130099
130099
130101
130100
130100
130101
130101
130101
130103
130103
130103
130103
130103
130103
130104
130104
130104
130105
130105
130105
130106
130106
130106
130106
130106
130106
130107
130107
130107
130107
130107
130107
130108
130108
130108
130108
130108
130107
130108
130108
130108
130108
130108
130108
130108
130108
130108
130108
130107
130107
130107
130107
130107
130107
130107
130107
130107
130107
130107
130106
130106
130106
130105
130105
130105
130105
130105
130104
130104
130104
130104
130103
130103
130103
130102
130102
130102
130101
130101
130101
130100
130099
130099
130098
130098
130097
130096
130096
130096
130094
130094
130094
130092
130092
130092
130089
130089
130089
130086
130086
130086
130083
130083
130083
130080
130080
130080
130076
130076
130075
130072
130072
130072
130068
130068
130068
130064
130064
130064
130060
130060
130059
130056
130056
130056
130052
130052
130051
130048
130048
130048
130044
130044
130044
130040
130040
130040
130036
130036
130036
130033
130033
130033
130029
130029
130029
130026
130026
130026
130022
130022
130022
130019
130019
130019
130015
130015
130015
130012
130012
130012
130009
130008
130008
130006
130006
130006
130002
130002
130002
130000
130000
130000
129996
129996
129996
129993
129992
129992
129986
129986
129986
129978
129978
129979
129973
129973
129971
129979
129981
129981
130008
130010
130011
130032
130028
130025
130041
130069
130038
130018
129989
130038
130073
130033
130009
130034
130060
130048
130030
130020
130015
130013
130012
130013
130014
130016
130018
130020
130023
130027
130029
130032
130034
130036
130038
130040
130040
130042
130042
130036
130036
130051
130061
130073
130084
130095
130105
130114
130122
130130
130138
130145
130153
130162
130171
130178
130182
130183
130184
130185
130186
130189
130192
130197
130204
130213
130224
130239
130257
130279
130305
130337
130375
130419
130471
130530
130598
130676
130764
130864
130976
131102
131242
131397
131568
131755
131959
132181
132419
132673
132944
133230
133530
133843
134167
134501
134844
135192
135546
135902
136261
136619
136975
137329
137679
138024
138364
138696
139022
139340
139649
139950
140242
140525
140799
141065
141321
141568
141806
142035
142256
142469
142673
142869
143058
143239
143413
143580
143740
143894
144041
144183
144318
144448
144572
144692
144806
144915
145020
145121
145217
145309
145398
145482
145564
145641
145716
145788
145856
145922
145986
146047
146105
146162
146216
146269
146319
146368
146416
146462
146506
146550
146592
146633
146673
146712
146750
146787
146824
146860
146895
146929
146962
146995
147028
147059
147091
147121
147151
147181
147210
147238
147266
147293
147320
147347
147373
147398
147423
147447
147472
147495
147519
147542
147564
147586
147608
147630
147651
147672
147692
147712
147732
147751
147771
147789
147808
147827
147846
147864
147884
147904
147921
147935
147936
147936
147937
147939
147942
147946
147952
147964
147979
147992
147999
148005
148011
148019
148026
148034
148042
148050
148059
148068
148078
148088
148098
148109
148120
148131
148143
148155
148167
148179
148192
148204
148217
148230
148244
148257
148270
148284
148298
148311
148325
148339
148352
148366
148379
148393
148406
148420
148433
148446
148459
148472
148484
148497
148509
148521
148533
148544
148556
148567
148577
148588
148598
148607
148617
148626
148635
148643
148652
148659
148667
148674
148681
148687
148693
148699
148704
148709
148714
148719
148723
148726
148727
148727
148729
148734
148743
148744
148746
148736
148726
148717
148709
148701
148693
148686
148679
148672
148666
148660
148655
148649
148645
148640
148636
148632
148628
148625
148622
148619
148617
148614
148613
148611
148610
148608
148608
148608
148608
148608
148608
148609
148610
148611
148613
148615
148619
148621
148625
148629
148633
148637
148642
148647
148653
148658
148665
148671
148678
148684
148692
148700
148708
148716
148726
148734
148744
148753
148764
148774
148785
148795
148807
148818
148830
148841
148854
148866
148879
148891
148904
148916
148930
148942
148955
148968
148981
148994
149007
149019
149032
149043
149056
149067
149079
149089
149100
149109
149118
149126
149134
149140
149147
149152
149157
149160
149164
149165
149167
149167
149167
149166
149166
149163
149161
149156
149153
149147
149142
149136
149131
149124
149119
149112
149107
149100
149095
149088
149083
149077
149072
149065
149061
149055
149051
149045
149041
149036
149033
149028
149025
149021
149018
149014
149012
149008
149006
149003
149001
148998
148996
148994
148992
148990
148988
148986
148985
148983
148983
148982
148981
148980
148980
148980
148980
148980
148980
148980
148981
148981
148983
148983
148985
148985
148987
148988
148990
148991
148995
149001
149000
149000
148999
148996
148994
148992
148990
148989
148988
148987
148986
148985
148985
148984
148983
148983
148982
148981
148981
148980
148980
148980
148980
148979
148980
148979
148980
148981
148980
148980
148981
148981
148981
148983
148983
148983
148985
148985
148986
148988
148988
148989
148992
148992
148993
148996
148996
148997
149001
149000
149002
149006
149005
149007
149011
149011
149013
149017
149017
149020
149024
149023
149027
149032
149031
149035
149040
149039
149044
149049
149048
149053
149059
149058
149063
149070
149069
149074
149082
149080
149086
149093
149092
149098
149106
149104
149110
149118
149117
149122
149130
149129
149134
149141
149141
149145
149152
149152
149155
149161
149162
149163
149166
149167
149166
149168
149169
149167
149168
149170
149166
149166
149167
149161
149160
149161
149154
149150
149151
149142
149138
149138
149128
149122
149121
149111
149103
149102
149091
149083
149080
149069
149060
149057
149046
149036
149033
149021
149011
149007
148996
148986
148981
148970
148960
148955
148944
148934
148929
148918
148908
148904
148893
148883
148878
148867
148858
148854
148843
148834
148830
148819
148811
148807
148797
148788
148785
148775
148767
148764
148755
148748
148745
148736
148729
148727
148718
148712
148710
148701
148696
148694
148686
148681
148680
148672
148668
148667
148660
148656
148655
148648
148645
148645
148639
148636
148636
148630
148628
148628
148623
148621
148622
148617
148616
148617
148612
148612
148613
148610
148610
148612
148609
148610
148612
148609
148610
148612
148610
148611
148614
148612
148614
148617
148615
148618
148621
148620
148623
148626
148626
148630
148633
148633
148637
148641
148641
148646
148650
148650
148656
148660
148661
148667
148671
148673
148679
148683
148686
148693
148697
148701
148708
148711
148717
148725
148727
148735
148722
148709
148696
148684
148672
148661
148652
148643
148635
148629
148624
148619
148616
148615
148614
148615
148616
148619
148624
148630
148638
148647
148657
148668
148681
148695
148711
148728
148746
148766
148786
148808
148831
148855
148879
148905
148931
148957
148983
149010
149035
149061
149085
149107
149127
149145
149159
149169
149175
149178
149177
149173
149165
149154
149142
149129
149116
149102
149089
149077
149066
149055
149045
149036
149029
149022
149015
149010
149005
149000
148996
148992
148988
148985
148983
148981
148980
148980
148980
148981
148982
148984
148987
148990
148995
148998
148996
148998
148999
148998
148999
148997
148996
148997
148998
148997
148996
148994
148990
148986
148984
148981
148980
148979
148979
148979
148980
148982
148984
148987
148990
148994
148993
148989
148986
148984
148981
148980
148979
148979
148979
148980
148981
148983
148986
148990
148994
148997
148998
148998
148996
148997
148998
148998
148996
148994
148990
148986
148986
148990
148994
148996
148998
148998
148997
148996
148998
148999
148997
148993
148989
148986
148983
148983
148983