/*--------------------------------*- C++ -*----------------------------------*\
| =========                 |                                                 |
| \\      /  F ield         | OpenFOAM: The Open Source CFD Toolbox           |
|  \\    /   O peration     | Version:  v2006                                 |
|   \\  /    A nd           | Website:  www.openfoam.com                      |
|    \\/     M anipulation  |                                                 |
\*---------------------------------------------------------------------------*/
FoamFile
{
    version     2.0;
    format      ascii;
    class       volScalarField;
    location    "0.02";
    object      alphat;
}
// * * * * * * * * * * * * * * * * * * * * * * * * * * * * * * * * * * * * * //

dimensions      [1 -1 -1 0 0 0 0];


internalField   nonuniform List<scalar> 
38932
(
0.104153
0.104155
0.104178
0.104175
0.104168
0.104157
0.10414
0.104117
0.104089
0.104056
0.104018
0.103975
0.103927
0.103874
0.103816
0.103754
0.103686
0.103614
0.103537
0.103455
0.103368
0.103276
0.10318
0.103079
0.102973
0.102863
0.102748
0.102629
0.102505
0.102377
0.102245
0.102108
0.101967
0.101822
0.101673
0.101519
0.101362
0.101201
0.101036
0.100867
0.100694
0.100518
0.100339
0.100155
0.0999688
0.099779
0.0995859
0.0993897
0.0991906
0.0989884
0.0987835
0.0985758
0.0983655
0.0981527
0.0979375
0.0977199
0.0975002
0.0972783
0.0970546
0.0968289
0.0966016
0.0963726
0.0961422
0.0959104
0.0956774
0.0954433
0.0952083
0.0949724
0.0947359
0.0944988
0.0942614
0.0940237
0.0937859
0.0935481
0.0933105
0.0930733
0.0928366
0.0926005
0.0923653
0.0921309
0.0918978
0.0916658
0.0914353
0.0912064
0.0909793
0.0907541
0.0905309
0.0903099
0.0900913
0.0898753
0.089662
0.0894515
0.089244
0.0890397
0.0888387
0.0886411
0.0884472
0.088257
0.0880707
0.0878884
0.0877103
0.0875365
0.0873671
0.0872022
0.0870421
0.0868867
0.0867361
0.0865906
0.0864501
0.0863148
0.0861847
0.0860599
0.0859406
0.0858267
0.0857183
0.0856155
0.0855184
0.0854272
0.0853418
0.0852625
0.0851888
0.0851194
0.0850481
0.0849481
0.0848079
0.0844759
0.0834382
0.079126
0.0641241
0.0229263
0.00838332
0.000314887
0.000326351
0.00353531
0.00945694
0.00656241
0.00238289
0.000321422
0.000312783
0.0018709
0.00512853
0.00441032
0.00157884
0.000303672
0.000292085
0.00140459
0.00390982
0.00360727
0.00130606
0.000282668
0.000273272
0.0012242
0.00341451
0.00328665
0.00118173
0.000265692
0.000259733
0.00115041
0.00319115
0.00311674
0.00112645
0.00025478
0.000250547
0.00110721
0.00305453
0.003
0.00109096
0.000246924
0.000243781
0.00107688
0.00295069
0.00290416
0.00106392
0.000241026
0.000238584
0.00105161
0.00285954
0.00281648
0.00103978
0.000236391
0.000234397
0.00102833
0.00277478
0.00273439
0.0010172
0.000232559
0.000230847
0.00100635
0.00269525
0.00265737
0.000995802
0.000229236
0.000227707
0.000985547
0.00262073
0.00258534
0.000975594
0.000226245
0.000224837
0.000965951
0.00255116
0.00251819
0.00095662
0.000223474
0.000222149
0.0009476
0.00248637
0.00245566
0.000938885
0.000220855
0.000219587
0.000930465
0.00242601
0.00239736
0.000922328
0.000218339
0.000217109
0.000914461
0.00236965
0.00234282
0.00090685
0.000215892
0.000214686
0.000899483
0.00231682
0.00229159
0.000892344
0.000213487
0.000212294
0.000885422
0.00226709
0.00224326
0.000878704
0.000211103
0.000209913
0.000872179
0.00222006
0.00219746
0.000865837
0.000208721
0.000207526
0.00085967
0.00217543
0.00215392
0.000853668
0.000206325
0.000205118
0.000847826
0.00213292
0.0021124
0.000842139
0.000203902
0.000202675
0.000836603
0.00209235
0.00207274
0.000831214
0.000201437
0.000200185
0.00082597
0.00205358
0.00203486
0.000820872
0.000198919
0.000197637
0.00081592
0.00201656
0.0019987
0.000811113
0.000196338
0.000195021
0.000806453
0.00198127
0.00196427
0.000801943
0.000193683
0.000192324
0.000797583
0.00194771
0.00193159
0.000793376
0.000190942
0.000189535
0.000789325
0.00191591
0.00190068
0.000785431
0.000188102
0.000186642
0.000781699
0.0018859
0.00187159
0.00077813
0.000185151
0.000183629
0.000774729
0.00185773
0.00184435
0.000771497
0.000182072
0.00018048
0.000768442
0.00183144
0.001819
0.000765563
0.000178849
0.000177177
0.000762868
0.00180704
0.00179557
0.000760358
0.000175461
0.000173698
0.000758042
0.00178458
0.00177408
0.000755924
0.000171887
0.000170022
0.00075401
0.00176408
0.00175459
0.000752312
0.000168103
0.000166125
0.000750833
0.00174558
0.00173712
0.000749592
0.000164086
0.000161982
0.000748603
0.0017292
0.00172181
0.000747878
0.00015981
0.000157567
0.000747442
0.00171502
0.00170885
0.000747317
0.00015525
0.000152856
0.000747545
0.00170334
0.00169853
0.000748141
0.000150383
0.00014783
0.000749175
0.00169451
0.00169133
0.000750671
0.000145194
0.000142476
0.000752699
0.00168907
0.0016879
0.000755346
0.000139679
0.000136801
0.000758639
0.0016878
0.00168918
0.000762766
0.000133853
0.000130837
0.000767724
0.00169186
0.00169644
0.000773779
0.00012777
0.00012466
0.000780945
0.00170285
0.00171152
0.000789479
0.000121533
0.000118419
0.000799592
0.00172299
0.00173737
0.000811436
0.000115341
0.00011233
0.000825067
0.00175487
0.00177601
0.000840649
0.000109435
0.000106668
0.000858268
0.00180126
0.00183017
0.000877465
0.000104009
0.000101469
0.00089837
0.00186418
0.0019034
0.000920917
9.90183e-05
9.642e-05
0.000941842
0.00194594
0.00198716
0.000956066
9.46253e-05
9.39597e-05
0.000957751
0.00202363
0.00206162
0.00095565
9.26276e-05
9.03353e-05
0.000946077
0.0020903
0.00209794
0.000924006
8.68683e-05
8.22423e-05
0.000885405
0.00207421
0.00201643
0.000831171
7.65953e-05
7.02631e-05
0.000761023
0.00192128
0.00178406
0.000676361
6.3827e-05
5.77135e-05
0.000579408
0.00159332
0.00127872
0.00043556
5.3117e-05
5.15031e-05
0.000340037
0.00100801
0.000859492
0.000296413
5.12599e-05
5.18706e-05
0.000275058
0.000794457
0.000763888
0.000263865
5.27585e-05
5.38229e-05
0.000262197
0.000754887
0.000764672
0.000266437
5.48584e-05
5.57978e-05
0.000273327
0.000783983
0.000808634
0.000281867
5.65863e-05
5.72421e-05
0.000291708
0.0008363
0.000862582
0.000301579
5.77068e-05
5.79559e-05
0.00031109
0.000889279
0.000913944
0.000319868
5.80318e-05
5.80009e-05
0.000326218
0.000934835
0.000957782
0.00033365
5.77738e-05
5.73354e-05
0.000339526
0.000975564
0.000990504
0.000344653
5.67382e-05
5.59573e-05
0.000348727
0.00100225
0.0010101
0.00035163
5.49967e-05
5.38841e-05
0.000353399
0.00101444
0.00101455
0.000353641
5.25637e-05
5.10895e-05
0.000352594
0.00101076
0.00100222
0.000349828
4.94328e-05
4.75769e-05
0.000345333
0.000989134
0.000971306
0.000339088
4.55398e-05
4.33169e-05
0.000330959
0.000948677
0.000920961
0.000320773
4.08743e-05
3.82525e-05
0.000308735
0.000888402
0.000850737
0.000294621
3.53772e-05
3.23614e-05
0.000279059
0.000808371
0.000761206
0.000261622
2.90136e-05
2.52821e-05
0.000243412
0.000708506
0.000642678
0.00022244
2.09227e-05
1.59932e-05
0.000192122
0.000536658
0.00034554
0.000122101
1.05271e-05
7.26047e-06
5.35566e-05
0.000140266
5.15547e-05
2.40514e-05
5.86982e-06
4.35651e-06
2.04989e-05
2.32574e-05
2.79037e-05
3.50758e-05
4.50563e-05
6.31079e-05
8.1174e-05
9.86334e-05
0.000112295
0.00012437
0.000133974
0.00014194
0.000148225
0.000153516
0.000156031
0.000157913
0.000157789
0.000174297
0.000166047
0.000156825
0.000143197
8.18271e-05
4.5236e-05
5.7979e-05
6.8608e-05
4.52721e-05
2.12237e-05
2.25708e-05
2.29702e-05
2.03556e-05
1.72448e-05
1.42541e-05
8.12429e-06
6.16162e-06
4.84058e-06
3.92385e-06
2.8509e-06
3.65426e-06
5.63988e-06
1.04189e-05
2.57476e-05
9.57225e-05
5.61369e-05
2.45089e-05
7.46782e-06
3.19862e-06
4.01977e-06
2.13918e-05
7.83807e-05
0.000145446
0.000210781
0.000303874
0.000213294
0.0001221
3.73731e-05
5.06753e-06
5.94375e-06
4.70958e-05
0.000148458
0.000258811
0.000363371
0.000396573
0.000284718
0.000161685
5.19902e-05
6.70757e-06
7.19181e-06
5.34306e-05
0.000163812
0.000289949
0.000405874
0.000402504
0.000285074
0.000160131
5.30085e-05
7.48301e-06
7.63488e-06
5.18951e-05
0.00015428
0.000275652
0.000392721
0.000379586
0.000265617
0.000148734
5.10035e-05
7.67717e-06
7.70783e-06
5.08768e-05
0.000145489
0.000258512
0.000370163
0.000366214
0.000254794
0.000144354
5.16679e-05
7.72508e-06
7.75238e-06
5.26142e-05
0.000144167
0.000253089
0.000364112
0.000363286
0.000251929
0.000144211
5.35402e-05
7.68338e-06
7.55683e-06
5.33485e-05
0.000142756
0.000249743
0.000361793
0.000355142
0.000243517
0.000138812
5.18113e-05
7.1914e-06
6.71262e-06
4.86248e-05
0.000131292
0.000233077
0.00034435
0.000328274
0.000217321
0.000119548
4.34576e-05
5.95648e-06
4.77878e-06
3.43066e-05
0.000100426
0.000193347
0.000304997
0.000270944
0.000159667
7.00027e-05
1.88467e-05
2.90486e-06
1.95758e-06
9.04776e-06
4.26771e-05
0.000109551
0.000215002
0.000146119
5.8723e-05
2.44788e-05
7.22201e-06
2.04145e-06
2.10807e-06
5.67109e-06
1.84055e-05
4.72279e-05
9.18872e-05
5.79879e-05
2.1111e-05
6.57119e-06
3.53441e-06
3.1955e-06
3.1493e-06
3.68484e-06
8.02596e-06
2.54516e-05
6.48903e-05
6.8783e-05
2.74188e-05
8.73485e-06
3.9422e-06
5.03782e-06
5.37424e-06
4.24817e-06
9.64581e-06
3.01342e-05
7.42878e-05
7.00061e-05
2.39113e-05
7.33179e-06
4.80318e-06
6.18696e-06
5.66682e-06
4.8176e-06
8.1107e-06
2.60747e-05
7.23481e-05
8.08906e-05
3.58298e-05
1.25219e-05
4.72942e-06
3.13615e-06
3.11906e-06
5.62231e-06
1.6492e-05
4.407e-05
9.15573e-05
9.60897e-05
4.18994e-05
1.41657e-05
5.81559e-06
6.06272e-06
5.94787e-06
6.07507e-06
1.47724e-05
4.3233e-05
9.92608e-05
9.90479e-05
4.20693e-05
1.37953e-05
6.04223e-06
5.63472e-06
4.66171e-06
6.3601e-06
1.58796e-05
4.61852e-05
0.000102948
0.000108092
4.99762e-05
1.78335e-05
6.47445e-06
6.51467e-06
6.88734e-06
7.0201e-06
1.80475e-05
5.01355e-05
0.000111287
0.000116928
5.48251e-05
1.90631e-05
6.96259e-06
4.98457e-06
5.48056e-06
6.98312e-06
2.20455e-05
5.95104e-05
0.000121776
0.000135844
6.81088e-05
2.47352e-05
7.69707e-06
5.52104e-06
5.12819e-06
7.97737e-06
2.44122e-05
6.66909e-05
0.000134407
0.000148423
7.64834e-05
2.89793e-05
8.41847e-06
6.21602e-06
6.37069e-06
8.59471e-06
2.63793e-05
7.23341e-05
0.000146369
0.000159441
8.55701e-05
3.43123e-05
9.39534e-06
5.93002e-06
7.03988e-06
9.18504e-06
2.97214e-05
7.88209e-05
0.000155829
0.000163857
8.85254e-05
3.60861e-05
9.97179e-06
5.97406e-06
7.21626e-06
9.52426e-06
3.13602e-05
8.10354e-05
0.000158322
0.000162018
8.59636e-05
3.4318e-05
1.02166e-05
6.05528e-06
7.37583e-06
9.88587e-06
3.3314e-05
8.27004e-05
0.000160381
0.000167142
8.78745e-05
3.4169e-05
9.73968e-06
7.56304e-06
6.859e-06
1.06176e-05
3.36313e-05
8.64623e-05
0.00016682
0.000179014
9.80502e-05
4.09819e-05
1.06671e-05
7.02511e-06
8.28978e-06
1.0515e-05
3.87916e-05
9.46186e-05
0.000179636
0.000188227
0.000102613
4.23804e-05
1.24971e-05
6.84105e-06
7.46405e-06
1.12684e-05
4.37567e-05
0.000103228
0.000188734
0.000198747
0.000109061
4.51636e-05
1.25417e-05
7.6096e-06
7.27498e-06
1.28795e-05
4.27805e-05
0.000103965
0.000193225
0.000205109
0.00011345
4.81481e-05
1.31747e-05
7.89497e-06
8.57276e-06
1.27726e-05
4.27652e-05
0.000105396
0.000199724
0.000207228
0.000115038
4.96466e-05
1.41336e-05
7.71436e-06
9.33394e-06
1.33089e-05
4.62825e-05
0.000109962
0.00020675
0.000212054
0.000116147
4.80648e-05
1.32953e-05
8.71773e-06
8.40148e-06
1.4576e-05
4.94685e-05
0.000116101
0.00021311
0.000225651
0.000126868
5.51256e-05
1.3743e-05
8.98612e-06
9.8127e-06
1.37461e-05
5.07485e-05
0.000119909
0.000222822
0.000233927
0.00013189
5.81256e-05
1.69071e-05
8.50259e-06
9.56417e-06
1.41463e-05
5.96134e-05
0.000133689
0.00023744
0.000243973
0.000136349
5.88372e-05
1.64046e-05
9.38724e-06
8.98065e-06
1.69609e-05
5.89971e-05
0.000134197
0.000240543
0.000253633
0.000142723
6.26324e-05
1.71559e-05
9.77346e-06
1.03742e-05
1.64457e-05
5.64821e-05
0.000133722
0.000247134
0.000255057
0.000144494
6.43639e-05
1.86999e-05
9.56304e-06
1.11332e-05
1.73001e-05
6.34132e-05
0.000143455
0.000260389
0.000266557
0.000150013
6.52309e-05
1.63645e-05
1.09007e-05
1.07509e-05
1.77256e-05
6.30066e-05
0.000145137
0.000262879
0.000275652
0.000157718
7.18975e-05
2.02669e-05
1.01361e-05
1.11723e-05
1.6897e-05
7.26888e-05
0.000159557
0.000281368
0.000285685
0.000159055
6.89648e-05
1.90973e-05
1.15296e-05
1.09159e-05
2.02592e-05
6.82563e-05
0.000155902
0.000280181
0.000291605
0.000165912
7.49295e-05
2.16143e-05
1.10789e-05
1.24835e-05
2.02598e-05
7.55406e-05
0.000168261
0.000301937
0.000306669
0.000174112
7.73056e-05
1.87287e-05
1.21723e-05
1.23378e-05
1.93042e-05
7.33907e-05
0.000166645
0.000301237
0.000309644
0.000174222
7.71491e-05
2.18241e-05
1.20922e-05
1.16171e-05
2.17762e-05
8.44312e-05
0.000182231
0.00031787
0.000332331
0.000185301
8.1603e-05
2.23866e-05
1.30322e-05
1.43022e-05
2.16451e-05
7.4236e-05
0.000169682
0.000320762
0.000304134
0.00016578
7.16983e-05
1.9059e-05
1.37214e-05
1.30542e-05
2.02394e-05
6.69594e-05
0.000154677
0.000290677
0.000300777
0.000159346
6.65025e-05
1.96674e-05
1.35026e-05
1.28515e-05
2.23397e-05
7.2914e-05
0.000168698
0.000313588
0.00033159
0.00017279
6.95277e-05
1.8507e-05
1.41117e-05
1.65825e-05
2.5979e-05
8.16638e-05
0.000197513
0.000354982
0.000495088
0.000273089
0.000122799
4.26956e-05
2.20621e-05
2.83133e-05
7.26858e-05
0.000217
0.000493052
0.000892933
0.00110706
0.000675281
0.000337544
0.00011704
3.55863e-05
4.32565e-05
0.000175364
0.000468356
0.000861098
0.00133837
0.0015521
0.00104131
0.000595465
0.00023595
5.04311e-05
5.65749e-05
0.000295732
0.000713589
0.0012059
0.00174943
0.00193297
0.00135931
0.00082166
0.000345189
6.15079e-05
6.64762e-05
0.000393002
0.000919587
0.00149711
0.00209694
0.00222681
0.00161804
0.00101035
0.000439988
7.12288e-05
7.54444e-05
0.000488289
0.0011027
0.00174661
0.00238724
0.00253825
0.00186135
0.00118074
0.00052604
7.91438e-05
8.34786e-05
0.000554723
0.00125383
0.0019763
0.00269685
0.00286068
0.00209601
0.00133064
0.00059209
8.8869e-05
9.78237e-05
0.000626053
0.00140763
0.00220602
0.00299037
0.0031207
0.0023291
0.00150354
0.000683364
0.000106909
0.000114316
0.000745439
0.0016131
0.00248146
0.00331371
0.00350872
0.00263631
0.00172324
0.0008017
0.00012111
0.000128001
0.000866781
0.00183329
0.00278856
0.00369622
0.00388606
0.00293158
0.00193582
0.000931463
0.000132454
0.000133312
0.000964431
0.00199344
0.00302308
0.00406284
0.00391774
0.0029621
0.00195678
0.000943626
0.000130741
0.00012796
0.000915977
0.00189354
0.00283962
0.00369226
0.00387656
0.00291462
0.00192443
0.000922388
0.000130262
0.000131799
0.000964012
0.00200864
0.003048
0.00405287
0.00422841
0.00318378
0.00210271
0.00101944
0.00013524
0.000135766
0.0010478
0.00218277
0.00330818
0.00439347
0.00454384
0.0034191
0.00225246
0.00107887
0.000139628
0.000136112
0.00108049
0.00227701
0.00347923
0.00465932
0.00463398
0.00342826
0.00223983
0.00106594
0.000134162
0.000124914
0.00100487
0.00211113
0.00320494
0.00421427
0.00376719
0.0029099
0.00193692
0.000922306
0.000115257
0.000105678
0.000851136
0.00179913
0.00274662
0.00369834
0.00347781
0.00260242
0.00169394
0.000791911
9.92438e-05
9.25156e-05
0.000742651
0.00159315
0.00243506
0.0032085
0.00325946
0.00240635
0.00155677
0.000723347
9.15657e-05
8.98685e-05
0.000717217
0.00155988
0.00242714
0.00329452
0.00328608
0.0024284
0.00156167
0.000718549
9.03678e-05
8.9821e-05
0.000719952
0.00156124
0.00242789
0.00328875
0.00330157
0.00243446
0.00156299
0.000722477
9.10465e-05
8.93312e-05
0.000722655
0.00157024
0.0024519
0.0033347
0.0033668
0.00244692
0.00156661
0.000722641
8.94371e-05
8.61264e-05
0.000701749
0.00151663
0.00235742
0.00318751
0.00298643
0.00224418
0.00144817
0.000668365
8.30083e-05
8.3777e-05
0.000670632
0.00146507
0.00228942
0.00312272
0.00325506
0.00238588
0.00152351
0.000698337
8.71195e-05
8.94157e-05
0.00073467
0.00159037
0.00248579
0.00338521
0.00351189
0.00257462
0.00164787
0.00076052
8.97735e-05
8.82268e-05
0.000759839
0.00165749
0.00260771
0.0036045
0.00342525
0.00252674
0.00161421
0.000736575
8.47382e-05
8.04651e-05
0.000707222
0.0015584
0.00242164
0.00322601
0.00339036
0.00248206
0.0015781
0.000706733
7.92543e-05
8.30444e-05
0.000730954
0.00164137
0.00259312
0.00355601
0.003709
0.00270701
0.00171517
0.000763762
8.62427e-05
8.84011e-05
0.00079118
0.00177205
0.00280507
0.00385185
0.00396882
0.00285099
0.00179623
0.000804012
8.93075e-05
8.81424e-05
0.000796198
0.00176317
0.00277561
0.00378108
0.00358285
0.00268356
0.00172564
0.000783175
8.72147e-05
8.78286e-05
0.00079248
0.00176159
0.00276476
0.00377606
0.00397416
0.00290178
0.00183795
0.000822342
9.04435e-05
9.49589e-05
0.000856376
0.001922
0.00303734
0.00416415
0.00434356
0.00316405
0.00200038
0.000901568
9.80088e-05
9.90909e-05
0.000912318
0.00203694
0.00322897
0.00449662
0.00429708
0.00315133
0.00200434
0.00090594
9.77154e-05
9.59743e-05
0.000900151
0.00197789
0.00306994
0.00409451
0.00432741
0.00317282
0.00202448
0.000913517
9.66681e-05
9.9375e-05
0.000949722
0.00212179
0.00334139
0.00456856
0.00480628
0.00350233
0.00221429
0.000991254
0.000104154
0.000107319
0.00101904
0.00226554
0.00359244
0.00500501
0.00480509
0.00353078
0.00225469
0.00101998
0.000107337
0.00010587
0.00101727
0.00223097
0.00346234
0.00460707
0.00488592
0.00358757
0.00228724
0.00103427
0.000107299
0.000111878
0.00107687
0.00238983
0.00376963
0.00517459
0.0054188
0.00388007
0.00245116
0.00111038
0.000115805
0.000114864
0.00111235
0.00244212
0.00382819
0.00521907
0.00503218
0.00377662
0.00243555
0.00111279
0.000115306
0.000117845
0.00114314
0.00251904
0.00393943
0.00535822
0.00569466
0.00415571
0.00263577
0.00119195
0.000122329
0.000126142
0.00122886
0.0027122
0.00429846
0.00600036
0.00580416
0.00426385
0.00273073
0.00124739
0.0001279
0.00012938
0.00126864
0.00274856
0.00423673
0.00562775
0.00601854
0.00443665
0.00285291
0.0013064
0.000131451
0.0001337
0.00135308
0.0029971
0.00471131
0.00643676
0.00682539
0.00490847
0.00310507
0.00141116
0.000142773
0.000150707
0.00146645
0.00315937
0.00490632
0.00665451
0.00651248
0.00492104
0.00321572
0.00150878
0.000158472
0.00016672
0.00157305
0.00333802
0.00516194
0.0069848
0.00746033
0.00539176
0.00346163
0.00163214
0.000174061
0.000177161
0.00166799
0.00351001
0.00540298
0.00729968
0.00717432
0.00542712
0.0035557
0.00168978
0.000173836
0.000169098
0.00169447
0.00365413
0.00568735
0.0077066
0.0082591
0.00592463
0.00373781
0.00167565
0.000156601
0.000159527
0.00167849
0.00378047
0.00595965
0.00811452
0.00805218
0.00603762
0.00388113
0.00175914
0.00017494
0.000190694
0.001848
0.00402783
0.00630243
0.00870868
0.00867189
0.00642866
0.00415762
0.00193498
0.000204959
0.000221766
0.00204057
0.00431205
0.00659679
0.00869731
0.00946006
0.00692562
0.00450018
0.00214457
0.000237439
0.000252842
0.00224635
0.00466021
0.00709414
0.00947752
0.00954488
0.0073085
0.00485307
0.00236085
0.000269648
0.000285657
0.00248213
0.00508011
0.0077015
0.0104048
0.0104777
0.00791502
0.00527434
0.00259431
0.000302423
0.000320772
0.00271929
0.00549816
0.00818462
0.0105733
0.0114672
0.0085627
0.00568477
0.00281113
0.000330818
0.000316678
0.00279966
0.00569509
0.00860675
0.0114477
0.0113719
0.00852698
0.00557594
0.00268722
0.000309694
0.000331363
0.00267163
0.00550638
0.008474
0.0113806
0.0116816
0.00867581
0.00563518
0.00277023
0.000373373
0.000389375
0.00289533
0.00587463
0.00894772
0.0119381
0.0126872
0.00947057
0.00616552
0.00297022
0.000374178
0.000339974
0.00290418
0.0062365
0.0096881
0.0132194
0.0129105
0.00960729
0.00623455
0.00296435
0.000355291
0.000431524
0.00317964
0.00633426
0.00952881
0.0126459
0.0124112
0.00942882
0.00642699
0.0033871
0.000497929
0.000523597
0.00343852
0.00628871
0.0091894
0.0120928
0.0116141
0.00869491
0.00579903
0.0029848
0.000520975
0.000498604
0.0023921
0.005026
0.00786388
0.0107984
0.00910347
0.00661829
0.00416032
0.00187758
0.000440784
0.000377713
0.00150793
0.00350881
0.00576278
0.0080797
0.00710635
0.00503824
0.00310011
0.00137975
0.000339605
0.000316181
0.00120144
0.00278611
0.00461803
0.00661705
0.0059491
0.00418464
0.00252812
0.00107739
0.000288893
0.000267308
0.000962367
0.00234334
0.00395765
0.00572572
0.00519361
0.00360128
0.0021215
0.000845331
0.000238006
0.000200446
0.0007645
0.00202485
0.00351257
0.00515604
0.00474319
0.0032868
0.00191324
0.000711158
0.000178495
0.000180368
0.000781155
0.00195106
0.00332189
0.00485603
0.0045466
0.00321021
0.00194685
0.000819797
0.000179828
0.000177048
0.000863087
0.00200549
0.00330391
0.00473894
0.00459547
0.00321614
0.0019903
0.000876493
0.000173597
0.00016563
0.000852861
0.00189866
0.00299408
0.00404755
0.00418437
0.00303035
0.00192236
0.000866082
0.000157732
0.000156135
0.000915978
0.00194018
0.00299498
0.00407118
0.00433448
0.00314682
0.00202992
0.000974442
0.000160772
0.00016597
0.00100571
0.00205289
0.00314
0.00432839
0.00395608
0.00301575
0.00202666
0.00102441
0.000169986
0.000170495
0.00101841
0.00204603
0.00308107
0.0041358
0.00412892
0.00304607
0.00203143
0.0010138
0.000169085
0.000164922
0.000976869
0.00196528
0.00291734
0.00379888
0.00396357
0.00296694
0.00196273
0.000943367
0.000158383
0.00015159
0.000931833
0.00193861
0.00292751
0.0039632
0.00365355
0.0028102
0.00188197
0.000903873
0.000145356
0.000139389
0.000906863
0.00190162
0.00286375
0.00380234
0.00378829
0.00288532
0.0019406
0.000951408
0.00013792
0.000142335
0.00100539
0.00203291
0.00304272
0.00404462
0.00410667
0.00306846
0.00206462
0.00103468
0.000145953
0.000147575
0.00103637
0.00204858
0.0029921
0.00385285
0.00404158
0.00307742
0.00208138
0.00104964
0.000148425
0.000149422
0.00105856
0.00209015
0.00308266
0.00409403
0.00384349
0.0029996
0.00205982
0.00104735
0.000149219
0.000149708
0.00105967
0.00209324
0.00307952
0.00402574
0.0040774
0.00307336
0.00208413
0.00104857
0.000149081
0.00014794
0.00103916
0.00205209
0.00299121
0.00383575
0.00401095
0.00306381
0.00207247
0.0010386
0.000146673
0.000145199
0.00102464
0.00206587
0.00306356
0.00406686
0.00382638
0.00297883
0.00203049
0.00101224
0.000142863
0.000141303
0.00101366
0.00205597
0.00305277
0.00400194
0.0040616
0.00305274
0.00205196
0.00101126
0.000139569
0.000137272
0.00099169
0.00201813
0.00297676
0.00382712
0.00400627
0.00305788
0.00205764
0.00101694
0.000136802
0.000136561
0.00101182
0.00205548
0.00306065
0.00407522
0.00384609
0.00298909
0.00202678
0.00100243
0.000135388
0.000134155
0.000999816
0.00205917
0.00307319
0.00403413
0.00411113
0.00307777
0.00204725
0.000989602
0.000131934
0.000127841
0.000940851
0.00197141
0.00295803
0.00390208
0.0036441
0.00282182
0.00188659
0.000895774
0.000122904
0.000119869
0.000895568
0.00189603
0.00286852
0.00379116
0.0038508
0.00286327
0.00189095
0.000898745
0.000118105
0.000117159
0.000899323
0.00186791
0.00279507
0.00362917
0.00380521
0.00287723
0.00190529
0.000911639
0.00011698
0.000116349
0.000906541
0.00190437
0.0028817
0.003875
0.0036539
0.00281492
0.00187944
0.000901038
0.00011524
0.000114905
0.000901367
0.00190849
0.00289288
0.00382961
0.00390253
0.00289986
0.00191177
0.000910664
0.000114296
0.00011383
0.00089031
0.00188207
0.00283066
0.00367624
0.00385212
0.00290725
0.00191469
0.000903795
0.000112927
0.000112896
0.000898995
0.00191018
0.00290627
0.00391926
0.00368784
0.00283444
0.00188175
0.000889962
0.000111877
0.000111637
0.000899536
0.00191082
0.00290792
0.00386025
0.00392559
0.00290826
0.00190626
0.00089164
0.000111193
0.00010987
0.000878989
0.00187367
0.00282973
0.00368884
0.00385807
0.00289983
0.00189894
0.000888149
0.000109633
0.00010905
0.000879405
0.00189145
0.00289816
0.00392274
0.00368083
0.00281647
0.00185324
0.000859562
0.000107279
0.000106077
0.000869123
0.00187912
0.00288211
0.00384633
0.00390503
0.00287453
0.00187103
0.000868881
0.000105454
0.000104352
0.000849177
0.00183442
0.00279614
0.00366297
0.00382611
0.00286126
0.00185932
0.000855909
0.000103158
0.000102791
0.000854546
0.00185084
0.00285552
0.00388156
0.00364176
0.00277773
0.00182135
0.000838994
0.000101591
0.000100069
0.000839361
0.0018404
0.00284183
0.00380559
0.00386205
0.00283494
0.00183357
0.000842263
9.91789e-05
9.86022e-05
0.000823379
0.00180543
0.00276535
0.00363058
0.00380513
0.00283981
0.00183578
0.000836716
9.82554e-05
9.8764e-05
0.000835137
0.00183975
0.00284948
0.00388129
0.00367973
0.0028011
0.00183128
0.000836951
9.85552e-05
0.000100844
0.000857233
0.00188251
0.00290965
0.00389236
0.00400542
0.00295284
0.00191306
0.000874583
0.000102767
0.000104686
0.000892842
0.00194797
0.00296479
0.00387387
0.00415794
0.00314306
0.00205282
0.000940754
0.000109452
0.0001128
0.000984834
0.00214374
0.00327796
0.00441156
0.00436823
0.00336855
0.00224008
0.001045
0.000124213
0.000132126
0.00113996
0.00243731
0.0036331
0.00466748
0.00511038
0.00400668
0.00270727
0.00127158
0.000151213
0.000168438
0.00143577
0.00307222
0.00461692
0.00601506
0.00653634
0.00493052
0.00327813
0.00153513
0.000181106
0.000189188
0.00155732
0.00329424
0.00493703
0.0064944
0.00615448
0.00480374
0.00323597
0.00153797
0.000191195
0.000195165
0.0015572
0.00329077
0.00492237
0.00641488
0.00649117
0.00500778
0.00337117
0.00160373
0.000202613
0.000210545
0.00167537
0.00352288
0.00529382
0.00691957
0.00708469
0.00535453
0.00357386
0.0017094
0.000218431
0.000223604
0.00170327
0.00352984
0.00522463
0.00669398
0.00700004
0.00536287
0.0035853
0.00171628
0.000214475
0.000212572
0.00171271
0.00357393
0.00535998
0.00710899
0.00667827
0.00519888
0.00349879
0.00168009
0.000209602
0.000208681
0.00169872
0.0035531
0.00532999
0.00697174
0.00707224
0.0053264
0.00354962
0.00170389
0.000208856
0.000207682
0.00167496
0.00347779
0.00516409
0.00663999
0.00693282
0.00529042
0.00352333
0.0016837
0.000206455
0.000205646
0.00168417
0.00351634
0.0052869
0.0070337
0.0066
0.00512075
0.00343693
0.00164084
0.000203906
0.000203466
0.00165873
0.00348578
0.00524929
0.00689553
0.00699637
0.00524732
0.00348046
0.00166117
0.000203407
0.000201438
0.00162972
0.00340799
0.00508341
0.00656145
0.00685381
0.00520722
0.00345125
0.00163775
0.000200417
0.000199382
0.00162302
0.00342954
0.00519457
0.00694401
0.00649994
0.00502087
0.00334855
0.00158794
0.000197341
0.000195754
0.00158434
0.00337691
0.00513083
0.00678307
0.00684667
0.00510467
0.00335477
0.00157422
0.000193211
0.000191623
0.00155099
0.00327749
0.0049287
0.00639503
0.00663452
0.00502707
0.00332101
0.00156675
0.000192757
0.00019583
0.00159175
0.00336946
0.00506895
0.00664357
0.00704419
0.00531889
0.00348811
0.00163542
0.000200132
0.00020215
0.00164024
0.00350238
0.00532481
0.00713619
0.00667408
0.00514142
0.00341494
0.0016139
0.000201591
0.000200402
0.0016145
0.00344519
0.0052471
0.00695478
0.00699222
0.00519868
0.00340363
0.00159403
0.000197802
0.000195118
0.00155134
0.00330984
0.00500357
0.00650366
0.00673863
0.00508581
0.00333889
0.00155979
0.000194388
0.000196443
0.00157734
0.00337553
0.00511136
0.00672439
0.007125
0.00535377
0.00348792
0.00161737
0.000199282
0.000200405
0.0016227
0.00348993
0.00534267
0.00719406
0.0066974
0.00513779
0.00339113
0.00158488
0.000199119
0.000197296
0.00158273
0.0034136
0.00523882
0.00697972
0.00700236
0.00517846
0.00336628
0.00155636
0.000195228
0.00019342
0.00152153
0.00326657
0.00496537
0.0064831
0.00671678
0.00504198
0.00328892
0.0015234
0.000193129
0.000194752
0.00154048
0.00332085
0.00505714
0.00668722
0.00708964
0.00529697
0.0034246
0.00157552
0.000197716
0.000198307
0.00157679
0.0034245
0.0052811
0.007147
0.00662132
0.0050618
0.00332325
0.00154203
0.000196633
0.000195057
0.00153606
0.00333549
0.00515186
0.00689819
0.00690901
0.00508765
0.00328542
0.00150696
0.000193025
0.000189974
0.00145429
0.00316968
0.00485266
0.00636818
0.00659544
0.00492447
0.00318292
0.00145888
0.000189116
0.000190219
0.00147147
0.00320808
0.0049204
0.00654304
0.00693987
0.00514501
0.00329698
0.00150237
0.000192174
0.000192925
0.00150269
0.00328875
0.00510933
0.00696468
0.00641371
0.00488022
0.00318539
0.00146829
0.000190968
0.000191269
0.00146891
0.00320075
0.00495351
0.00664314
0.00658539
0.00495246
0.0032295
0.00148627
0.000193531
0.000195789
0.00151179
0.0033086
0.00516318
0.00697615
0.00699579
0.00512756
0.00329117
0.00150263
0.000195268
0.000192599
0.00144759
0.00317464
0.00487696
0.00641774
0.00664458
0.00494115
0.00317724
0.00144528
0.000191402
0.000192248
0.00145248
0.00318859
0.0049216
0.00656748
0.0069569
0.00512896
0.0032686
0.00147838
0.000193489
0.000193189
0.00147435
0.00325154
0.00508571
0.0069645
0.00637343
0.00483205
0.00313721
0.00143687
0.000191687
0.000191559
0.00143034
0.00314303
0.00489632
0.00660105
0.00651898
0.0048765
0.00315701
0.00143925
0.000192578
0.000194289
0.00146443
0.00323707
0.0050883
0.00691197
0.00691899
0.00504064
0.00321353
0.00145889
0.000194432
0.000192615
0.00140045
0.00309073
0.00477831
0.00631617
0.00654232
0.0048341
0.00308463
0.00139013
0.0001912
0.000191908
0.00140564
0.00309927
0.00481231
0.00645491
0.00684015
0.00501724
0.00317684
0.00142878
0.000193385
0.000192148
0.00141973
0.00314935
0.00496472
0.00683833
0.00622083
0.00469508
0.00302387
0.001366
0.000189331
0.000187386
0.00135557
0.00301757
0.00474646
0.00644513
0.00633724
0.00471044
0.00301879
0.00135793
0.000187582
0.000188843
0.00138062
0.00308694
0.00490215
0.00671862
0.00670761
0.00484616
0.00305611
0.00135471
0.000187831
0.000183895
0.00128846
0.00291145
0.00456111
0.00607207
0.00628927
0.00460077
0.00289967
0.00128092
0.000181448
0.000183434
0.00130074
0.00291143
0.00457212
0.00617593
0.00652141
0.00475796
0.00300609
0.00134441
0.000187952
0.000191188
0.00136903
0.00304687
0.00476462
0.00642546
0.00683081
0.00498069
0.00312946
0.00139869
0.000194089
0.000194245
0.00139022
0.00311153
0.00492898
0.00681485
0.00616012
0.00462648
0.00295529
0.00131546
0.000191076
0.000188934
0.00130541
0.00293884
0.00466809
0.00638881
0.0062561
0.00462009
0.00293474
0.0013083
0.000188641
0.000188721
0.00132434
0.00299255
0.00480568
0.00663427
0.0066072
0.00473979
0.00295962
0.00129183
0.000186798
0.000182934
0.00124415
0.0028142
0.00444049
0.00594819
0.00616822
0.00448191
0.0028007
0.00123463
0.000181552
0.000181944
0.00123975
0.00280359
0.0044365
0.00603136
0.00638221
0.00461791
0.00288827
0.00127779
0.000184923
0.000188845
0.00130045
0.0029229
0.00461243
0.00625885
0.00665604
0.00481638
0.00299288
0.00131668
0.000190751
0.000190027
0.00131413
0.00297342
0.00475643
0.00662794
0.00594655
0.00443767
0.00279963
0.00121856
0.00018617
0.000182918
0.00121018
0.00277399
0.00445953
0.00616045
0.00600772
0.0044087
0.00277234
0.00121463
0.000183587
0.000185991
0.00125151
0.00285094
0.00458877
0.00636291
0.00622297
0.00457293
0.00288359