/*--------------------------------*- C++ -*----------------------------------*\
| =========                 |                                                 |
| \\      /  F ield         | OpenFOAM: The Open Source CFD Toolbox           |
|  \\    /   O peration     | Version:  v2006                                 |
|   \\  /    A nd           | Website:  www.openfoam.com                      |
|    \\/     M anipulation  |                                                 |
\*---------------------------------------------------------------------------*/
FoamFile
{
    version     2.0;
    format      ascii;
    class       volScalarField;
    location    "0.02";
    object      yPlus;
}
// * * * * * * * * * * * * * * * * * * * * * * * * * * * * * * * * * * * * * //

dimensions      [0 0 0 0 0 0 0];


internalField   uniform 0;

boundaryField
{
    bottomEmptyFaces
    {
        type            empty;
    }
    topEmptyFaces
    {
        type            empty;
    }
    inlet
    {
        type            calculated;
        value           uniform 0;
    }
    outlet
    {
        type            calculated;
        value           uniform 0;
    }
    walls
    {
        type            calculated;
        value           nonuniform List<scalar> 
1343
(
7.76426
7.76167
7.75907
7.75639
7.75378
7.75131
7.74875
7.74624
7.7438
7.74128
7.73897
7.73644
7.73412
7.73175
7.72944
7.72706
7.7248
7.72253
7.72024
7.71809
7.71577
7.71372
7.71145
7.7094
7.7072
7.70514
7.70297
7.70103
7.69881
7.6969
7.69468
7.69287
7.69067
7.68883
7.68675
7.68494
7.68294
7.68118
7.67912
7.67738
7.6753
7.67363
7.67158
7.66987
7.66793
7.66623
7.66435
7.66265
7.66087
7.6591
7.65742
7.65567
7.65399
7.65221
7.6506
7.64881
7.64714
7.6455
7.64381
7.6422
7.64052
7.63894
7.63729
7.63573
7.63404
7.63253
7.63091
7.62938
7.62777
7.6263
7.62468
7.6232
7.62163
7.62012
7.61863
7.61709
7.61559
7.61412
7.61257
7.61115
7.60964
7.60824
7.60678
7.60533
7.60388
7.60242
7.60102
7.59959
7.59818
7.59679
7.59539
7.59407
7.5926
7.59131
7.58986
7.5886
7.58717
7.58588
7.58448
7.58318
7.58178
7.58053
7.57916
7.57789
7.57657
7.57527
7.57402
7.57267
7.57149
7.57009
7.56897
7.56758
7.56645
7.5651
7.56393
7.56267
7.56145
7.56021
7.55903
7.55778
7.55656
7.55534
7.55413
7.55297
7.5517
7.55059
7.54932
7.54823
7.54695
7.54587
7.5446
7.54354
7.54228
7.54122
7.53998
7.53894
7.5377
7.53666
7.53544
7.53441
7.53319
7.53217
7.53096
7.52995
7.52874
7.52773
7.52654
7.52554
7.52436
7.52336
7.52219
7.5212
7.52003
7.51905
7.51789
7.51691
7.51576
7.51478
7.51364
7.51266
7.51157
7.51059
7.50951
7.50851
7.50737
7.50639
7.50533
7.50437
7.50332
7.50233
7.50127
7.50029
7.49924
7.49827
7.49723
7.49626
7.49522
7.49426
7.49324
7.49228
7.49126
7.49031
7.48929
7.48835
7.48733
7.48639
7.48538
7.48444
7.48344
7.4825
7.4815
7.48057
7.47958
7.47866
7.47767
7.47675
7.47577
7.47485
7.47388
7.47297
7.472
7.4711
7.47014
7.46925
7.4683
7.46741
7.46647
7.46559
7.46465
7.46378
7.46285
7.46199
7.46107
7.46022
7.45931
7.45847
7.45757
7.45674
7.45586
7.45504
7.45417
7.45336
7.45251
7.45172
7.45088
7.4501
7.44928
7.44852
7.4477
7.44696
7.44617
7.44544
7.44465
7.44394
7.44317
7.44247
7.44171
7.44101
7.44028
7.4396
7.43887
7.43824
7.43752
7.43688
7.43618
7.43556
7.43494
7.43432
7.43376
7.43316
7.43267
7.4321
7.43168
7.43114
7.43078
7.4303
7.43
7.42962
7.4294
7.42914
7.42899
7.4289
7.42893
7.42896
7.42916
7.42939
7.42988
7.43043
7.43118
7.43211
7.43337
7.43485
7.43675
7.43912
7.44218
7.4461
7.4514
7.4584
7.46939
7.48454
7.5233
7.49325
7.66257
11.003
16.1739
19.7623
22.6074
24.7732
26.5188
27.804
28.9157
30.2107
31.863
33.813
35.7923
37.8906
39.919
41.6071
42.7284
42.3186
40.8681
35.541
27.6846
27.5108
27.4111
26.2474
26.7653
26.2488
25.8437
26.0155
26.3558
26.2395
24.8124
24.6698
25.5516
25.1922
24.8221
25.2787
27.168
27.0821
26.7332
26.2769
25.9824
25.7167
25.3963
25.0781
26.4453
26.0899
26.9031
25.7741
26.2664
25.7151
25.5633
27.2141
26.8442
26.3591
24.9148
24.8073
24.95
25.5334
26.6969
26.5334
25.864
25.5868
25.625
26.7765
26.9386
26.5436
26.6784
26.4069
25.9268
26.1368
25.5906
25.5312
25.3806
26.509
25.9387
26.3995
26.023
26.2016
26.5452
26.7027
25.7503
25.8467
26.5486
26.1376
26.3788
25.6436
25.4784
25.7718
25.7523
25.5247
25.6045
25.3893
25.4058
24.9199
24.3202
25.2993
25.0458
24.7711
24.0767
24.2596
24.5251
24.1295
25.756
25.0257
25.0146
25.0528
25.3365
25.7351
25.3495
25.6347
25.438
25.4712
24.8414
25.0986
24.9017
25.0355
24.8679
24.0568
24.3803
25.3438
25.531
25.4645
25.2052
25.5645
25.346
25.3055
26.2742
25.5754
25.8445
26.0528
26.1954
25.8024
25.0585
25.1718
25.8773
25.9461
25.6461
25.366
25.5242
25.4275
24.366
24.8894
25.4401
25.8505
25.676
25.2829
24.88
24.4662
24.149
24.2522
24.7695
25.2884
24.7877
25.7537
25.6218
24.4177
24.2261
24.9904
24.5328
24.9766
24.1237
24.4803
24.2635
24.0667
25.1691
24.9784
25.4382
25.1533
24.6706
24.351
25.2973
24.4042
24.7867
24.6343
24.4131
25.2028
24.9295
24.5188
24.1498
24.8874
23.9974
24.3437
25.472
24.5256
24.3585
24.3842
24.8385
25.7401
25.6456
25.2717
24.7923
25.649
25.4383
26.4694
26.367
26.1203
25.0661
25.5041
25.2605
24.8274
25.6005
24.5748
25.0139
24.5518
24.4099
25.9995
25.6739
25.856
25.4092
25.0926
24.9602
25.2036
24.2621
24.6924
33.2925
32.7575
32.474
33.3406
33.105
33.1823
33.2845
32.9325
32.4334
31.8587
31.3375
31.0575
32.547
32.9025
19.7798
19.8177
19.7529
19.2213
18.7057
18.9121
19.7348
19.4162
19.5838
18.0782
17.7599
17.923
39.7962
40.1449
40.1714
39.9644
15.6355
17.466
39.1458
16.9242
15.8689
16.2708
39.3251
18.4762
18.11
18.1722
40.4713
41.7854
41.0658
40.3532
39.9872
40.071
40.5103
40.3558
40.862
40.4359
39.6995
40.7703
40.8017
15.1315
14.7209
14.9462
14.9503
15.0698
14.7796
14.8113
13.9614
13.1309
42.7181
13.6089
13.6576
13.8155
13.2487
13.45
42.9807
42.6707
14.4373
14.5144
14.5458
14.0439
14.2029
15.4032
15.4866
15.5102
15.212
15.2564
43.6315
43.387
43.2144
43.7367
43.6799
43.7813
45.586
47.3717
46.755
47.4813
47.6873
47.2446
47.001
46.9988
43.7497
44.5535
44.0783
42.2115
42.5673
42.3505
34.9892
34.8693
34.7595
34.242
34.4293
66.4158
37.6618
37.6181
69.4117
37.6357
69.6975
37.145
36.6927
36.4241
36.3997
37.011
36.6706
37.646
37.4153
37.072
36.9795
36.2901
35.6924
35.978
36.4632
36.5106
36.1719
35.9549
36.2662
36.3342
35.9575
36.1703
35.7396
35.0692
34.6536
23.4637
23.8398
23.0016
20.897
21.9435
22.3852
18.8428
18.259
34.4146
20.0681
20.9676
21.8334
18.4536
19.2429
21.9801
21.295
20.6847
22.5733
22.5081
26.6262
31.6016
42.073
45.2108
35.5098
38.4004
23.9236
23.7002
50.3155
58.6894
33.8091
33.8495
33.47
33.6446
33.3393
34.441
34.0494
33.2528
33.4687
35.3606
35.3072
34.9946
34.3794
33.9644
33.7722
34.0107
34.8539
35.042
32.9596
32.5505
32.4451
32.7758
38.7072
39.4123
39.0083
38.6349
38.533
38.4933
37.9716
66.2623
57.3858
47.2513
45.18
51.6392
49.6454
43.9398
49.5106
41.9301
41.0413
43.7832
40.0019
42.4386
37.7779
33.4292
35.655
31.3893
27.0908
29.3147
25.2036
21.0816
23.1199
20.6937
22.3439
23.4071
22.9688
22.9967
22.0259
19.321
19.6479
19.5354
19.909
20.9354
18.8603
17.6612
17.3636
16.8936
17.0896
16.6611
16.157
15.5644
15.17
15.2287
15.2939
14.7751
14.17
14.1744
13.981
49.5527
50.4907
51.7169
51.1315
50.8689
52.5434
51.2759
51.3233
52.5455
52.002
49.8595
51.7783
50.7836
52.0884
52.1438
52.5685
52.363
52.7946
53.3582
52.967
52.0801
51.3264
49.5614
46.8718
43.9049
40.721
37.2789
33.5725
29.4828
25.0853
20.3029
48.482
47.6037
47.2577
48.922
48.6275
48.58
14.172
13.7536
13.1224
15.8676
12.8268
10.5539
9.32623
9.21943
8.96969
8.67229
8.41686
8.20069
8.03611
7.91168
7.8365
7.80134
7.79102
7.79223
7.80752
7.8244
7.84709
7.86678
7.88644
7.90349
7.91978
7.933
7.94561
12.7647
12.9025
12.6729
7.95694
13.084
7.96739
12.9408
7.97663
7.98547
7.99359
8.00087
8.00707
8.01201
12.538
11.9415
11.5961
11.6372
11.5149
11.7908
11.671
11.3859
10.9635
10.463
11.1866
10.6227
8.01573
8.01841
11.6469
8.02001
11.8509
8.02046
8.02004
8.01888
8.01686
8.01404
8.01043
8.00625
8.0013
7.99603
7.99036
7.98462
7.97861
7.97262
7.96655
7.96051
7.9541
7.948
7.94157
7.93554
7.92919
7.92359
7.91765
7.9122
7.90651
7.90126
7.89576
7.89072
7.88542
7.8806
7.87554
7.87098
7.86612
7.86195
7.85735
7.85328
7.84916
7.84526
7.84114
7.83741
7.83342
7.82978
7.82582
7.82237
7.81873
7.81539
7.81193
7.80876
7.80549
7.80233
7.79915
7.79606
7.79297
7.78999
7.7869
7.78396
7.78102
7.77808
7.77522
7.77249
7.76966
7.76707
13.5924
22.3779
15.121
14.3909
13.9104
17.7355
16.2271
19.906
23.98
25.067
27.8852
26.8361
25.8514
25.3274
28.9288
28.4033
29.6128
28.1514
27.636
27.758
27.6592
27.3416
27.5039
27.2347
26.9463
27.0045
13.0762
13.0087
13.0546
13.3552
13.0483
11.8035
11.5002
11.0588
11.3686
10.9572
11.8054
11.7913
12.0175
11.8556
11.9275
11.8614
12.0853
13.0983
12.2105
13.9473
16.4855
15.2111
17.7056
17.9626
18.4264
17.9164
17.8466
17.3923
17.1892
17.2518
16.8851
17.5907
17.4771
16.8892
15.9797
15.0829
14.1054
12.9066
11.725
11.0135
10.4415
9.95316
9.39687
8.76969
8.11413
7.46322
6.65261
5.70609
4.69432
3.73325
2.90711
2.17254
1.93075
1.76432
1.82372
1.80881
1.93345
1.8775
1.71126
1.64137
1.63804
1.73914
1.71276
1.62845
1.48706
1.50122
1.53343
1.6042
1.39639
1.49022
1.52314
1.45857
1.28627
1.39855
1.29785
1.2518
1.25967
1.3594
1.16266
1.38325
1.24935
1.12005
1.19567
1.23487
1.02822
1.15654
1.0484
1.00599
1.01939
1.04481
0.930278
1.16691
0.968581
0.935953
1.04213
0.974321
0.80658
0.960873
0.794567
0.938985
0.786907
0.861151
0.824084
0.704107
0.742984
0.755092
0.678227
0.956619
0.898581
0.624852
0.767114
0.79187
0.796101
0.424056
0.425112
0.756614
0.821072
0.739754
0.690235
0.421906
0.427473
0.27946
0.268739
0.257123
0.381253
0.627123
0.781623
0.880815
0.943617
0.991549
1.00813
1.01715
1.01353
1.01121
1.00712
1.00148
0.981453
0.943129
0.879483
0.779189
0.664196
0.526783
0.373525
0.419116
28.7839
28.3433
29.5194
29.3525
28.9496
28.6008
29.1902
28.008
28.5411
28.0563
27.8648
29.2072
29.1043
28.8685
27.541
28.1007
27.8796
27.5212
28.2972
27.1656
27.6628
27.2423
27.0431
28.7482
28.2851
28.1685
27.7662
27.4167
27.2974
30.8669
30.3693
29.9797
29.6796
30.4178
30.6314
30.4103
29.9251
29.6034
29.2245
28.9022
30.9761
30.8846
29.5723
29.299
30.3937
29.9395
30.7291
29.6727
30.0819
29.2641
29.803
30.4713
30.145
32.204
31.9108
32.0468
31.0897
31.4979
31.444
30.8902
31.2716
31.4661
31.2587
30.2247
30.6991
30.1705
29.9806
30.0538
29.0975
29.5349
29.6087
29.2298
27.0116
26.6594
28.5392
28.4204
28.0917
27.6386
27.2775
26.9523
26.6273
26.5158
28.1894
28.07
27.8137
26.6836
27.1581
27.7633
27.4022
27.8548
27.7704
27.553
27.1616
27.5875
26.4477
26.9355
26.3863
26.3206
26.6997
26.31
26.0815
26.0133
72.3525
0.514096
43.222
42.5716
41.4285
40.2222
38.6878
37.4406
36.1962
35.1923
34.4032
33.7474
33.1868
32.707
32.291
31.9262
31.6029
31.3127
31.0486
30.8054
30.5787
30.3653
30.1628
29.969
29.7824
29.6018
29.4262
29.2547
29.0865
28.9212
28.7581
28.5967
28.4367
28.2777
28.1193
27.9612
27.8032
27.645
27.4863
27.3269
27.1666
27.005
26.8421
26.6776
26.5113
26.3431
26.1728
26.0002
25.8251
25.6474
25.4668
25.2831
25.0962
24.9058
24.7117
24.5136
24.3113
24.1045
23.893
23.6763
23.4542
23.2262
22.9921
22.7515
22.504
22.2491
21.9865
21.7157
21.4364
21.1481
20.8504
20.5428
20.2252
19.897
19.5583
19.2087
18.8483
18.4773
18.0957
17.7049
17.305
16.8985
16.4863
16.0719
15.6593
15.2516
14.8527
14.4692
14.1028
13.7505
13.4138
13.0887
12.744
12.5031
12.4048
12.2125
11.8938
11.4242
10.8068
10.0589
9.22386
8.37699
7.57353
6.96977
6.75774
6.72573
6.80582
6.92231
7.06197
7.19782
7.32103
7.42444
7.5104
7.57124
7.60378
7.61357
7.60933
7.57933
7.52161
7.44304
7.34037
7.21413
7.06796
6.89455
6.70098
6.48349
6.23991
5.97257
5.6809
5.36041
5.01644
4.63925
4.24362
3.80446
3.31499
2.74319
2.09667
1.37996
0.951644
0.769179
0.570706
41.7177
2.26048
2.66849
3.01151
2.95932
2.78279
5.9364
8.99742
7.60366
5.93237
10.7313
18.7818
20.57
21.78
22.8623
20.6968
20.7128
20.4654
20.1347
19.4394
18.6138
17.5675
16.3066
14.7218
12.9293
10.6394
8.27078
5.90476
4.5967
3.6564
0.514096
0.634263
0.807431
1.06471
1.86822
0.570706
2.68551
3.04709
)
;
    }
    symmetryLine
    {
        type            symmetryPlane;
    }
}


// ************************************************************************* //
