/*--------------------------------*- C++ -*----------------------------------*\
| =========                 |                                                 |
| \\      /  F ield         | OpenFOAM: The Open Source CFD Toolbox           |
|  \\    /   O peration     | Version:  v2006                                 |
|   \\  /    A nd           | Website:  www.openfoam.com                      |
|    \\/     M anipulation  |                                                 |
\*---------------------------------------------------------------------------*/
FoamFile
{
    version     2.0;
    format      ascii;
    class       volScalarField;
    location    "0.073";
    object      Ma;
}
// * * * * * * * * * * * * * * * * * * * * * * * * * * * * * * * * * * * * * //

dimensions      [0 0 0 0 0 0 0];


internalField   nonuniform List<scalar> 
16277
(
0.13939
0.139392
0.13939
0.139389
0.139389
0.139383
0.139369
0.139324
0.139223
0.139061
0.138856
0.138629
0.138396
0.138162
0.137926
0.137685
0.137437
0.13718
0.136911
0.136632
0.136341
0.136038
0.135725
0.135401
0.135066
0.134721
0.134365
0.133999
0.133622
0.133236
0.13284
0.132435
0.132021
0.131599
0.131167
0.130728
0.130282
0.129828
0.129367
0.1289
0.128427
0.127949
0.127466
0.126978
0.126487
0.125992
0.125494
0.124994
0.124492
0.123989
0.123485
0.122981
0.122477
0.121975
0.121474
0.120975
0.12048
0.119987
0.119499
0.119016
0.118538
0.118066
0.1176
0.117142
0.116691
0.116248
0.115815
0.115391
0.114977
0.114573
0.114181
0.1138
0.113431
0.113075
0.112732
0.112403
0.112087
0.111782
0.111487
0.111196
0.110909
0.110633
0.11039
0.110219
0.110144
0.110142
0.110172
0.110207
0.110235
0.110232
0.110211
0.110141
0.109963
0.109665
0.10918
0.108622
0.106572
0.105257
0.108647
0.109317
0.109386
0.108499
0.103773
0.102304
0.108323
0.10945
0.109443
0.108053
0.100955
0.0997108
0.107767
0.109402
0.109289
0.107397
0.0985496
0.0975002
0.107061
0.10917
0.108998
0.106678
0.0965075
0.0956375
0.106347
0.108846
0.108639
0.105946
0.094795
0.0940428
0.105608
0.108453
0.108216
0.105199
0.0933006
0.0926301
0.104858
0.108009
0.107754
0.104448
0.0919646
0.091363
0.104117
0.107539
0.107264
0.103703
0.0907492
0.0901905
0.103372
0.107034
0.106742
0.102953
0.0896134
0.0890907
0.102624
0.106503
0.106204
0.10221
0.0885511
0.0880586
0.101886
0.10596
0.105652
0.101472
0.0875443
0.0870734
0.10115
0.105401
0.105085
0.100735
0.0865786
0.0861246
0.100414
0.104828
0.104503
0.0999979
0.0856449
0.0852039
0.0996768
0.104239
0.103906
0.0992579
0.0847357
0.0843045
0.0989353
0.103636
0.103293
0.0985129
0.0838447
0.0834204
0.0981875
0.103016
0.102664
0.0977606
0.0829666
0.0825472
0.0974313
0.102379
0.102018
0.0969992
0.0820974
0.0816808
0.0966652
0.101724
0.101353
0.0962273
0.0812335
0.0808183
0.0958876
0.101051
0.100669
0.0954431
0.0803719
0.0799567
0.0950967
0.100357
0.0999648
0.0946449
0.07951
0.0790935
0.0942909
0.0996428
0.099239
0.0938311
0.0786454
0.0782265
0.093469
0.0989061
0.0984903
0.0930003
0.0777755
0.077353
0.0926293
0.0981461
0.0977175
0.0921509
0.0768981
0.076471
0.0917701
0.0973613
0.0969193
0.0912812
0.0760112
0.0755783
0.0908897
0.0965504
0.0960945
0.0903894
0.0751125
0.0746729
0.0899864
0.0957121
0.0952415
0.0894741
0.0742
0.0737526
0.0890586
0.0948449
0.094359
0.0885335
0.0732717
0.0728157
0.0881049
0.0939475
0.0934458
0.0875662
0.0723259
0.0718604
0.0871236
0.0930188
0.0925006
0.0865708
0.071361
0.0708854
0.0861137
0.0920576
0.0915225
0.0855463
0.0703757
0.0698894
0.0850742
0.0910631
0.0905109
0.0844918
0.0693691
0.0688719
0.0840044
0.0900347
0.0894652
0.083407
0.0683407
0.0678325
0.0829043
0.0889723
0.0883857
0.082292
0.0672906
0.0667721
0.0817743
0.0878763
0.0872731
0.0811479
0.0662202
0.0656922
0.080616
0.0867479
0.0861293
0.0799766
0.0651314
0.0645953
0.079432
0.0855896
0.0849571
0.0787814
0.0640275
0.0634855
0.0782261
0.0844048
0.0837607
0.0775668
0.062913
0.0623681
0.0770038
0.0831985
0.082546
0.0763391
0.0617944
0.0612507
0.0757723
0.0819775
0.0813206
0.0751069
0.0606803
0.0601429
0.0745415
0.0807506
0.0800949
0.0738812
0.0595817
0.0590572
0.0733238
0.0795293
0.0788817
0.0726759
0.0585126
0.0580093
0.0721348
0.0783283
0.0776973
0.0715085
0.0574902
0.0570183
0.0709937
0.0771657
0.0765618
0.0704002
0.0565359
0.0561076
0.0699243
0.0760637
0.0754998
0.0693771
0.055675
0.0553042
0.0689544
0.0750487
0.0745389
0.0684684
0.0549362
0.0546419
0.0681131
0.0741501
0.0737108
0.0677061
0.0543532
0.0541655
0.0674352
0.0733983
0.0730473
0.0671251
0.0539678
0.0538996
0.0669596
0.0728348
0.0725843
0.0667606
0.0538029
0.0538659
0.0667144
0.0724861
0.0723476
0.0666373
0.0538779
0.0540757
0.0667177
0.0723717
0.0723529
0.0667684
0.0541993
0.054518
0.066967
0.0724927
0.0725858
0.0671335
0.0547493
0.0552021
0.0674669
0.0728589
0.0730793
0.0677658
0.0555633
0.0561436
0.0682372
0.0734908
0.0738323
0.0686556
0.0566077
0.0572525
0.0692144
0.0743342
0.0747592
0.0697106
0.0577706
0.0584531
0.0703324
0.0753307
0.0758154
0.0708803
0.0589973
0.059693
0.0715393
0.0764332
0.076958
0.072117
0.0602422
0.0609333
0.0727936
0.0776037
0.0781499
0.0733816
0.0614701
0.0621399
0.074057
0.078805
0.0793548
0.0746375
0.0626474
0.0632813
0.0752949
0.0800024
0.0805396
0.0758519
0.0637462
0.064333
0.0764775
0.0811651
0.0816762
0.0769979
0.0647451
0.0652763
0.0775806
0.0822676
0.0827415
0.0780542
0.0656286
0.0660991
0.0785854
0.0832891
0.083717
0.0790026
0.06639
0.066797
0.0794771
0.0842141
0.0845884
0.0798319
0.0670305
0.0673707
0.0802475
0.0850309
0.0853511
0.0805419
0.0675474
0.0678232
0.0808987
0.0857379
0.0860042
0.081134
0.0679463
0.0681626
0.0814344
0.086336
0.0865503
0.0816139
0.0682373
0.0684008
0.0818619
0.0868301
0.0869961
0.0819908
0.0684338
0.0685533
0.0821927
0.0872294
0.0873529
0.0822778
0.0685523
0.0686363
0.0824402
0.0875458
0.0876325
0.0824883
0.0686086
0.0686653
0.0826179
0.0877914
0.0878472
0.0826358
0.0686173
0.0686536
0.0827389
0.0879781
0.0880086
0.0827324
0.0685908
0.0686122
0.0828144
0.0881166
0.0881266
0.0827887
0.0685389
0.0685493
0.0828538
0.0882159
0.0882093
0.0828131
0.0684686
0.0684722
0.0828659
0.0882845
0.0882651
0.0828141
0.0683869
0.068386
0.0828574
0.088329
0.0882996
0.0827974
0.0682978
0.0682938
0.0828335
0.0883547
0.0883174
0.0827674
0.0682041
0.0681994
0.0827985
0.0883662
0.0883226
0.0827278
0.0681091
0.0681042
0.0827552
0.0883663
0.0883179
0.082681
0.0680139
0.0680094
0.0827059
0.088358
0.0883059
0.0826295
0.0679196
0.067916
0.0826528
0.0883433
0.0882884
0.0825748
0.0678268
0.0678246
0.0825976
0.0883243
0.0882674
0.0825183
0.0677356
0.0677345
0.0825408
0.0883021
0.0882445
0.0824618
0.0676469
0.0676463
0.0824837
0.0882782
0.0882198
0.0824051
0.0675607
0.0675676
0.082433
0.0882586
0.0882044
0.0823604
0.0674888
0.067495
0.0823895
0.0882562
0.0882159
0.0823272
0.0674124
0.0675152
0.0824035
0.0883024
0.0882868
0.0824097
0.0674935
0.0677117
0.0826159
0.088475
0.0886373
0.0828525
0.0681327
0.0689739
0.0834253
0.0891693
0.0907138
0.085724
0.0722859
0.0715759
0.082991
0.0881992
0.0916142
0.0941274
0.0955835
0.096083
0.0963888
0.0969933
0.0972356
0.0975016
0.0976212
0.0977232
0.0977455
0.0977135
0.0976396
0.0974448
0.0972429
0.0967364
0.0964479
0.0961259
0.0957298
0.095052
0.0933233
0.0895856
0.0817429
0.0717673
0.0511986
0.0496111
0.0707386
0.0809303
0.0800971
0.0697819
0.0483402
0.0475374
0.0691483
0.0795529
0.0792945
0.0688917
0.0469523
0.0468531
0.0687625
0.0791846
0.079074
0.0686534
0.046528
0.0465154
0.0685835
0.0790834
0.079097
0.0685969
0.046533
0.0465601
0.0686204
0.0791186
0.0791456
0.0686554
0.0466014
0.046647
0.0686986
0.0791814
0.0792141
0.0687416
0.0466957
0.0467479
0.0687911
0.079255
0.0792942
0.0688399
0.0468015
0.0468571
0.0688923
0.0793374
0.0793775
0.0689435
0.0469118
0.0469702
0.0689974
0.0794222
0.0794661
0.0690528
0.0470298
0.0470905
0.069109
0.0795128
0.0795559
0.0691634
0.0471495
0.0472119
0.0692206
0.0796028
0.0796496
0.0692794
0.0472762
0.0473402
0.0693384
0.0796988
0.0797442
0.0693958
0.0474034
0.0474681
0.0694557
0.0797937
0.0798411
0.0695151
0.0475343
0.0476008
0.0695768
0.0798919
0.0799398
0.0696367
0.0476665
0.0477335
0.0696983
0.0799908
0.08004
0.0697599
0.0478017
0.0478694
0.0698232
0.0800929
0.0801415
0.0698841
0.0479373
0.0480072
0.069949
0.0801953
0.0802465
0.0700125
0.0480785
0.048149
0.070078
0.0803014
0.080352
0.0701411
0.0482196
0.0482914
0.0702079
0.080408
0.0804614
0.0702739
0.0483649
0.0484384
0.0703421
0.0805189
0.0805723
0.0704078
0.0485109
0.0485851
0.0704773
0.0806311
0.0806877
0.0705459
0.0486597
0.0487341
0.0706161
0.0807478
0.0808042
0.0706833
0.0488059
0.0488809
0.070754
0.0808652
0.0809259
0.0708259
0.0489561
0.0490315
0.0708981
0.0809893
0.0810504
0.0709695
0.049105
0.04918
0.0710428
0.0811157
0.0811798
0.0711171
0.049255
0.0493301
0.0711933
0.0812485
0.0813143
0.0712677
0.049402
0.0494756
0.0713458
0.0813862
0.0814571
0.0714247
0.0495493
0.049623
0.0715063
0.0815337
0.0816083
0.0715867
0.0496941
0.0497659
0.0716707
0.0816888
0.0817695
0.0717563
0.049837
0.0499076
0.0718449
0.0818557
0.0819423
0.0719339
0.049974
0.0500414
0.0720262
0.0820345
0.0821284
0.0721214
0.0501061
0.0501692
0.0722188
0.082228
0.0823291
0.0723186
0.0502292
0.0502906
0.0724242
0.0824386
0.0825516
0.0725336
0.0503506
0.0504085
0.0726469
0.0826705
0.0827929
0.0727647
0.0504634
0.0505195
0.0728894
0.0829253
0.0830622
0.0730205
0.0505766
0.0506314
0.0731589
0.0832092
0.0833601
0.0733031
0.0506871
0.0507448
0.0734582
0.0835243
0.0836939
0.0736215
0.0508077
0.0508761
0.0737987
0.0838771
0.0840694
0.073987
0.0509515
0.0510392
0.0741917
0.0842769
0.0844956
0.0744115
0.0511411
0.0512592
0.0746471
0.0847258
0.0849688
0.0749013
0.0513942
0.0515576
0.0751796
0.0852305
0.0855095
0.0754818
0.0517513
0.0519809
0.0758084
0.0858024
0.0861137
0.076163
0.0522466
0.0525663
0.076548
0.086444
0.0867995
0.0769755
0.0529497
0.0534083
0.0774448
0.0871798
0.0875869
0.0779588
0.0539406
0.0545662
0.0785199
0.088018
0.0884883
0.0791463
0.0552877
0.056148
0.0798458
0.0890021
0.0895993
0.0806752
0.0572095
0.0585423
0.0816249
0.0902661
0.090935
0.0826084
0.0598768
0.06114
0.0835534
0.0915388
0.0920248
0.0843374
0.062367
0.0634437
0.0847831
0.0923481
0.0926069
0.085428
0.0645027
0.0654837
0.0858044
0.0928159
0.0929635
0.0862199
0.0665744
0.0677279
0.0866313
0.0931216
0.0931467
0.0869162
0.0687615
0.069649
0.0871719
0.0931317
0.0931197
0.08745
0.0706153
0.0716652
0.0877211
0.0931182
0.093079
0.0879474
0.0727459
0.0733396
0.0881287
0.0928805
0.0922768
0.0877395
0.0732529
0.0583823
0.0809584
0.0891955
0.0916317
0.0839712
0.0621036
0.0621011
0.0843302
0.0917511
0.0916414
0.0845364
0.0630751
0.064338
0.0846238
0.0914537
0.0915225
0.0850914
0.0658405
0.0674951
0.0854419
0.091516
0.0915641
0.0859465
0.0690697
0.0705342
0.0861902
0.0914364
0.0914394
0.0866224
0.072017
0.0734295
0.086948
0.0913672
0.091256
0.0872265
0.0746484
0.0750307
0.0870699
0.0906985
0.0882779
0.0819283
0.0645973
0.06867
0.0846962
0.0902775
0.0903644
0.0851382
0.0696133
0.0712144
0.0857821
0.0904249
0.0904127
0.0860959
0.0724137
0.0735632
0.0862901
0.0902897
0.0901709
0.0865806
0.0748017
0.0754277
0.0865991
0.0898813
0.0892592
0.0862502
0.0756577
0.0667279
0.0816714
0.0871672
0.0886001
0.084199
0.0700978
0.070986
0.0844202
0.0884562
0.0881161
0.0844793
0.0721485
0.0732773
0.0844135
0.0877311
0.0873661
0.0844981
0.0744893
0.0748209
0.0840862
0.0865282
0.084603
0.0803022
0.0671429
0.0710782
0.082201
0.0858264
0.0855493
0.0824584
0.0721259
0.0731306
0.0824039
0.0851405
0.0845826
0.0822893
0.0737767
0.0737337
0.0815351
0.0835293
0.0818785
0.0784403
0.0672194
0.0703134
0.0797076
0.082507
0.0816264
0.0792791
0.070719
0.0715648
0.078845
0.0807048
0.0793399
0.0778702
0.0713828
0.0661094
0.0751593
0.0777016
0.0777647
0.0757136
0.0688478
0.0688996
0.0747923
0.0763951
0.0747645
0.0736406
0.0688069
0.0677107
0.0717524
0.0724477
0.0701241
0.0686804
0.0631058
0.0635723
0.06758
0.0684424
0.0650379
0.0647226
0.0616038
0.0568557
0.0607431
0.0618561
0.0586599
0.0581735
0.0558937
0.0517621
0.0526297
0.0525293
0.0452039
0.0449189
0.0437169
0.0348595
0.0347548
0.0351836
0.023983
0.0220405
0.0206183
0.00593577
0.00913457
0.0150063
0.0295583
0.0279361
0.0283285
0.0536062
0.0519374
0.0512212
0.0693127
0.0707703
0.0721997
0.0833235
0.0831547
0.0822567
0.0866972
0.0866283
0.0854389
0.0890293
0.0917196
0.0917614
0.0932202
0.0924322
0.088977
0.0908961
0.0952226
0.0958862
0.0968637
0.0953047
0.0905282
0.087324
0.0946031
0.0965828
0.0984653
0.0968307
0.0895836
0.0867469
0.094907
0.0974752
0.0994116
0.0976516
0.0903983
0.0893527
0.0969928
0.0994408
0.0981658
0.0950408
0.0864295
0.0896646
0.097713
0.0998754
0.0995694
0.096682
0.0881174
0.0851307
0.0945369
0.0980601
0.0998538
0.0975141
0.0888051
0.0872577
0.0964607
0.0995184
0.0977064
0.0939492
0.0838923
0.0877967
0.0969144
0.0994422
0.0992843
0.0961209
0.086672
0.0831541
0.0934038
0.0974121
0.0991829
0.0965026
0.0874225
0.0865999
0.0959445
0.0991723
0.0972513
0.09329
0.0830832
0.0867971
0.0961785
0.0989349
0.0988706
0.0955399
0.085904
0.0827256
0.0930093
0.0970259
0.0988387
0.0960449
0.0866557
0.0855952
0.0953306
0.098709
0.096822
0.0927704
0.0822849
0.0864978
0.095816
0.0986364
0.098646
0.0953287
0.0854645
0.0838213
0.0940182
0.0979929
0.0955888
0.0911602
0.0792055
0.0838753
0.0946353
0.0977387
0.0977862
0.0939925
0.0828259
0.0790077
0.0907445
0.0956952
0.0978155
0.0945515
0.0836696
0.082377
0.093638
0.0976709
0.0953861
0.0909946
0.0785254
0.0836222
0.094624
0.0976193
0.0976548
0.0938788
0.08262
0.0788266
0.0906294
0.0955481
0.0977411
0.0944049
0.0833112
0.0821509
0.0936949
0.0976106
0.0955444
0.0905976
0.0788231
0.0836758
0.0945954
0.0979352
0.0979461
0.0939504
0.0825944
0.078885
0.0910316
0.0955881
0.0978741
0.094643
0.0836654
0.0825671
0.0937252
0.0978657
0.0958191
0.0911959
0.0789679
0.0840185
0.0950525
0.0983376
0.0983157
0.0941842
0.0829766
0.0786867
0.0913022
0.0958685
0.0983433
0.0949992
0.0834082
0.0811359
0.0929475
0.0971448
0.0996258
0.0966882
0.0863869
0.0858112
0.0961183
0.0997083
0.0976859
0.0933967
0.0826418
0.0867226
0.0968036
0.0998713
0.099733
0.0959782
0.0854583
0.0823696
0.093451
0.097905
0.100401
0.0974298
0.0873452
0.086651
0.0970345
0.100644
0.0987296
0.0944117
0.0835272
0.0876259
0.0978632
0.100939
0.100735
0.0969787
0.0862431
0.0827506
0.0940714
0.098669
0.101136
0.0979988
0.0876496
0.0870633
0.0975968
0.10149
0.0993376
0.0951961
0.0834314
0.0876003
0.098725
0.101787
0.100373
0.0964184
0.0850936
0.0889059
0.0995516
0.102547
0.102469
0.098763
0.087877
0.0851785
0.0963109
0.10066
0.103127
0.100166
0.0898464
0.0890167
0.0996509
0.103335
0.101213
0.0971254
0.0855355
0.0897296
0.100714
0.103649
0.102193
0.098241
0.0870164
0.0910946
0.101374
0.10436
0.104608
0.101051
0.0907624
0.0880919
0.0987278
0.102935
0.10525
0.1023
0.0922997
0.0914486
0.101716
0.105385
0.103307
0.0993046
0.0879066
0.0918112
0.102759
0.105688
0.104161
0.100176
0.0889229
0.0930352
0.103301
0.106213
0.106589
0.103078
0.0927827
0.0900332
0.100838
0.104973
0.107247
0.104427
0.0942395
0.0932533
0.103858
0.107362
0.10536
0.100606
0.0899201
0.093541
0.104686
0.107615
0.106202
0.102278
0.0907474
0.0950482
0.105485
0.108406
0.10865
0.10498
0.094635
0.0914696
0.102736
0.106806
0.109338
0.106464
0.0955904
0.0934605
0.104499
0.108301
0.110632
0.107936
0.0978157
0.0966246
0.107032
0.110465
0.108304
0.103799
0.0932333
0.0964996
0.107396
0.110464
0.109393
0.1054
0.0942578
0.0992556
0.109197
0.111962
0.112083
0.108642
0.098471
0.095426
0.1057
0.110208
0.112592
0.109746
0.0992023
0.0968502
0.10774
0.111484
0.113675
0.110956
0.100905
0.0997962
0.109899
0.113471
0.111185
0.107095
0.0958812
0.0998042
0.110609
0.113433
0.112698
0.109028
0.0981273
0.102531
0.112654
0.115204
0.115335
0.112071
0.101728
0.0985047
0.108772
0.113424
0.115614
0.112958
0.10183
0.0994721
0.110656
0.11445
0.116746
0.114024
0.103306
0.100654
0.111499
0.115272
0.117202
0.114459
0.104348
0.103993
0.11402
0.117484
0.115831
0.111772
0.101242
0.105056
0.115531
0.118303
0.117311
0.113626
0.102881
0.106893
0.117004
0.119551
0.119444
0.116097
0.105741
0.102469
0.112756
0.117475
0.119612
0.116928
0.105535
0.102663
0.114283
0.118181
0.120391
0.117576
0.10639
0.104693
0.115828
0.119532
0.121969
0.119389
0.109319
0.108585
0.118686
0.122145
0.120327
0.116407
0.105434
0.109005
0.119926
0.1227
0.12141
0.117612
0.106438
0.110339
0.121122
0.123763
0.122597
0.119031
0.108298
0.111723
0.121866
0.124532
0.124272
0.12081
0.110392
0.107316
0.117851
0.122407
0.124885
0.12219
0.111242
0.109166
0.120275
0.123996
0.1264
0.123861
0.113159
0.111199
0.121881
0.125413
0.127575
0.125067
0.115174
0.114368
0.124257
0.127624
0.125763
0.121829
0.111106
0.11437
0.125177
0.127956
0.126532
0.122702
0.111677
0.115013
0.125967
0.128732
0.127751
0.12402
0.113159
0.117367
0.127392
0.129995
0.130193
0.126679
0.116736
0.11326
0.124634
0.128355
0.130758
0.127984
0.116821
0.114394
0.125902
0.129576
0.13182
0.129364
0.118223
0.116086
0.127172
0.130708
0.132796
0.130222
0.120015
0.119047
0.129174
0.132702
0.130537
0.126665
0.115103
0.118591
0.129807
0.132821
0.131809
0.127856
0.116542
0.120907
0.131838
0.134471
0.133456
0.129793
0.118997
0.122706
0.133287
0.135797
0.13475
0.131284
0.120735
0.124483
0.134359
0.136829
0.136783
0.133578
0.123553
0.120631
0.130398
0.134967
0.137099
0.134523
0.123315
0.120693
0.132115
0.135892
0.138099
0.135345
0.123936
0.121623
0.132988
0.13687
0.139226
0.136605
0.125843
0.124076
0.13471
0.138317
0.140573
0.138105
0.128201
0.127484
0.137345
0.140742
0.138949
0.135199
0.124054
0.12755
0.13855
0.141332
0.140145
0.136352
0.125071
0.128756
0.139894
0.142504
0.141277
0.137596
0.126554
0.130189
0.140902
0.14344
0.142224
0.13862
0.12803
0.131513
0.141588
0.144216
0.144333
0.140825
0.130846
0.12756
0.138805
0.142587
0.145103
0.142193
0.131171
0.128731
0.140136
0.143982
0.146418
0.143872
0.132647
0.130552
0.141647
0.145301
0.147458
0.144928
0.134122
0.132022
0.142789
0.146383
0.148484
0.145964
0.135973
0.135044
0.145215
0.148474
0.146616
0.141881
0.131973
0.134524
0.146181
0.148702
0.147602
0.143742
0.131933
0.1361
0.147519
0.150176
0.149145
0.14534
0.134183
0.137964
0.149009
0.151606
0.150494
0.146841
0.135901
0.139411
0.15015
0.152718
0.151675
0.148112
0.137501
0.141241
0.151325
0.15383
0.153931
0.150396
0.140446
0.136694
0.148424
0.152089
0.15458
0.151447
0.140355
0.137598
0.149239
0.153168
0.15542
0.152743
0.141151
0.138815
0.150278
0.154171
0.156597
0.153922
0.142812
0.140958
0.151855
0.155591
0.157944
0.155363
0.144597
0.142784
0.153458
0.157046
0.159337
0.156859
0.146911
0.146065
0.156032
0.159461
0.157642
0.15376
0.142562
0.146212
0.157238
0.160095
0.15892
0.155001
0.143804
0.147715
0.158865
0.161489
0.160327
0.156584
0.145508
0.148988
0.159992
0.162609
0.16135
0.157606
0.146765
0.150341
0.160991
0.163603
0.162683
0.159132
0.148566
0.152346
0.162418
0.16491
0.165091
0.161585
0.151659
0.148019
0.159684
0.163334
0.165816
0.162745
0.1515
0.148998
0.160647
0.164614
0.167105
0.16451
0.15284
0.15053
0.162186
0.165948
0.168316
0.165743
0.154383
0.152355
0.163521
0.167189
0.169419
0.166833
0.155853
0.153962
0.16478
0.168415
0.170707
0.168212
0.158066
0.157248
0.167361
0.170888
0.169122
0.165249
0.153746
0.157397
0.168704
0.171662
0.170573
0.166636
0.155078
0.159075
0.17062
0.173234
0.172087
0.168286
0.156751
0.160642
0.171913
0.174513
0.173435
0.169762
0.158709
0.162225
0.173178
0.175775
0.174801
0.17116
0.160339
0.164315
0.174555
0.177072
0.177243
0.17361
0.163494
0.159545
0.171841
0.17546
0.178157
0.174865
0.163549
0.160938
0.172769
0.176851
0.179398
0.176714
0.164893
0.162595
0.174383
0.178267
0.180821
0.178161
0.166499
0.164451
0.17591
0.179718
0.182151
0.179506
0.168128
0.166118
0.177282
0.181075
0.183555
0.180971
0.170048
0.168233
0.179046
0.182673
0.185009
0.182487
0.172412
0.17155
0.181866
0.185291
0.183655
0.179229
0.168666
0.17204
0.183431
0.186132
0.185159
0.181275
0.169781
0.173874
0.185288
0.187875
0.186828
0.18304
0.171809
0.175575
0.186703
0.189317
0.188259
0.184511
0.173635
0.17732
0.188078
0.190668
0.189728
0.186135
0.17544
0.179406
0.189564
0.192064
0.19227
0.188733
0.178451
0.17522
0.186661
0.19061
0.193216
0.190294
0.178967
0.176338
0.187983
0.191999
0.194632
0.191969
0.180302
0.178253
0.18983
0.193639
0.196138
0.193532
0.182056
0.180198
0.19143
0.195198
0.197823
0.195299
0.184256
0.182548
0.193492
0.197067
0.199453
0.197025
0.186783
0.185497
0.196179
0.199627
0.19798
0.193368
0.182691
0.186187
0.197795
0.200573
0.199509
0.195477
0.183714
0.187847
0.199546
0.202265
0.201193
0.197232
0.185726
0.189838
0.201184
0.203863
0.202927
0.199146
0.188011
0.191872
0.202881
0.205495
0.2047
0.201011
0.190044
0.194428
0.204736
0.207261
0.207739
0.204166
0.193659
0.190634
0.202117
0.206247
0.209057
0.206157
0.194772
0.192443
0.204074
0.208014
0.210679
0.207974
0.196256
0.193861
0.205546
0.209508
0.21201
0.209277
0.197736
0.195639
0.207059
0.210958
0.213649
0.211016
0.199832
0.197892
0.209104
0.212829
0.215346
0.212784
0.202209
0.201464
0.212276
0.215888
0.214336
0.210081
0.198556
0.202459
0.21413
0.217095
0.216143
0.212098
0.200235
0.204772
0.216452
0.219169
0.218443
0.214544
0.202909
0.20789
0.21899
0.221468
0.220724
0.217169
0.206095
0.209645
0.220476
0.223005
0.223071
0.219285
0.208263
0.204509
0.217318
0.221293
0.2242
0.220987
0.20887
0.206294
0.218761
0.223015
0.22591
0.22311
0.21077
0.20845
0.220825
0.2249
0.227774
0.224996
0.213144
0.21103
0.22294
0.226924
0.229706
0.227014
0.215913
0.215072
0.226703
0.230384
0.228932
0.223767
0.212734
0.216595
0.229074
0.231892
0.231355
0.227205
0.214606
0.220228
0.232341
0.234871
0.233854
0.229943
0.217898
0.22149
0.233524
0.236312
0.235161
0.231141
0.219037
0.223583
0.235055
0.237842
0.23812
0.233977
0.222322
0.218551
0.232293
0.236449
0.239783
0.236366
0.223897
0.22119
0.234115
0.23858
0.241649
0.238713
0.226038
0.223886
0.236594
0.240839
0.244208
0.241347
0.229045
0.226976
0.239455
0.243567
0.24664
0.243921
0.232245
0.231804
0.243789
0.247747
0.246636
0.242379
0.229366
0.234411
0.247072
0.25003
0.248512
0.244179
0.231058
0.235363
0.248243
0.25126
0.250037
0.245733
0.232823
0.237461
0.250113
0.253073
0.252117
0.247861
0.235148
0.240131
0.252151
0.255057
0.255634
0.251451
0.239098
0.23584
0.249289
0.25398
0.257263
0.253969
0.241045
0.238621
0.251938
0.256419
0.260076
0.257176
0.244363
0.242296
0.255423
0.259644
0.263142
0.260436
0.248266
0.248524
0.260775
0.2647
0.263239
0.259033
0.24545
0.249768
0.262907
0.266202
0.264533
0.259904
0.246376
0.251127
0.264439
0.267669
0.266549
0.261991
0.248556
0.253798
0.266866
0.269928
0.26918
0.264782
0.251647
0.257083
0.269453
0.272461
0.273348
0.269091
0.256229
0.253584
0.266523
0.271841
0.275232
0.272016
0.258751
0.256487
0.269999
0.274651
0.278728
0.275858
0.262686
0.26107
0.274432
0.278748
0.282603
0.280284
0.268819
0.268588
0.280386
0.283844
0.281757
0.276985
0.264141
0.267576
0.281117
0.284469
0.28317
0.278421
0.264414
0.269919
0.283572
0.286756
0.286
0.281419
0.267493
0.273359
0.286385
0.289454
0.290458
0.286012
0.272418
0.269535
0.283447
0.288934
0.292521
0.289033
0.275348
0.272816
0.287069
0.291944
0.296168
0.293077
0.279746
0.279651
0.293757
0.298305
0.29763
0.292249
0.27792
0.285281
0.299054
0.301993
0.30074
0.296175
0.281963
0.285961
0.300385
0.303797
0.302267
0.297279
0.28243
0.288142
0.30215
0.305561
0.306273
0.301355
0.286847
0.28342
0.298833
0.304573
0.308582
0.304775
0.289853
0.287137
0.302759
0.307914
0.312311
0.308993
0.294541
0.294069
0.309297
0.314186
0.312905
0.307
0.291209
0.298528
0.313657
0.317426
0.317735
0.312675
0.297113
0.306636
0.320376
0.323018
0.323946
0.319676
0.305114
0.299574
0.315331
0.321206
0.324437
0.320432
0.304512
0.300815
0.317422
0.323041
0.327244
0.323559
0.308195
0.307165
0.323261
0.328658
0.327072
0.32084
0.303656
0.311149
0.327566
0.331781
0.331172
0.32546
0.308334
0.317224
0.332865
0.336405
0.33905
0.333768
0.317157
0.314967
0.332115
0.338453
0.344365
0.340931
0.326378
0.323947
0.339337
0.344003
0.347766
0.344302
0.328846
0.325566
0.342404
0.347557
0.345069
0.338038
0.321193
0.327885
0.345085
0.349383
0.348383
0.342379
0.324534
0.332908
0.349428
0.353287
0.355384
0.349637
0.332387
0.329278
0.347461
0.354167
0.359512
0.355307
0.338369
0.336606
0.354389
0.36013
0.36667
0.363825
0.349053
0.352233
0.367314
0.371104
0.369777
0.364533
0.348859
0.352406
0.368848
0.372984
0.372466
0.366747
0.348633
0.344129
0.362362
0.370026
0.375093
0.370627
0.352204
0.349067
0.36817
0.374468
0.380217
0.376266
0.358828
0.359105
0.377441
0.383278
0.382743
0.375745
0.356739
0.367299
0.384527
0.388595
0.393176
0.387875
0.369254
0.369544
0.387384
0.3939
0.399754
0.395841
0.378011
0.372865
0.39318
0.399277
0.395921
0.387536
0.366772
0.375289
0.395586
0.400831
0.399593
0.392513
0.371468
0.382443
0.401293
0.405787
0.409045
0.40262
0.382864
0.381033
0.401255
0.408884
0.415691
0.411515
0.393748
0.397288
0.416296
0.421469
0.42285
0.416698
0.39845
0.407079
0.425237
0.428949
0.428224
0.422101
0.401329
0.394439
0.416581
0.424841
0.429924
0.42456
0.404257
0.402661
0.424547
0.431608
0.430767
0.42214
0.39965
0.413634
0.433733
0.438633
0.444333
0.437675
0.415923
0.418348
0.43988
0.44703
0.456324
0.453588
0.436043
0.432615
0.452997
0.457968
0.45677
0.448953
0.425345
0.415828
0.443158
0.452729
0.458705
0.452538
0.42854
0.427101
0.453394
0.461404
0.461714
0.451703
0.425565
0.446054
0.467534
0.472197
0.482348
0.478044
0.455653
0.459152
0.482079
0.487857
0.483778
0.474482
0.447615
0.455332
0.480887
0.487701
0.486776
0.47853
0.449423
0.446682
0.477055
0.487911
0.487487
0.476619
0.442431
0.47153
0.495422
0.499973
0.51142
0.507052
0.48214
0.481607
0.508313
0.515376
0.509144
0.498315
0.465443
0.476649
0.505438
0.513229
0.513655
0.5052
0.472545
0.472464
0.507539
0.51801
0.528468
0.519705
0.482219
0.48428
0.51607
0.529145
0.535983
0.526751
0.494234
0.481809
0.520722
0.53239
0.532057
0.519173
0.475642
0.478525
0.525067
0.53694
0.542225
0.52893
0.48003
0.468858
0.523813
0.540738
0.52987
0.506702
0.452149
0.483114
0.523101
0.53591
0.533245
0.521683
0.480681
0.469831
0.516719
0.530659
0.524495
0.508009
0.45171
0.434021
0.495918
0.514433
0.502345
0.481429
0.414034
0.391035
0.466021
0.490176
0.478993
0.451963
0.37114
0.355201
0.440266
0.469693
0.461886
0.430159
0.341593
0.329486
0.420958
0.454935
0.44854
0.412384
0.318541
0.308664
0.404346
0.442572
0.43696
0.396796
0.299664
0.291468
0.38969
0.431643
0.426582
0.382994
0.284007
0.277186
0.376662
0.421736
0.417091
0.37068
0.270965
0.265313
0.365042
0.412636
0.408363
0.359732
0.260181
0.255533
0.354739
0.404254
0.400301
0.350041
0.251315
0.247498
0.345627
0.396489
0.392811
0.341473
0.244046
0.240937
0.337573
0.389256
0.385819
0.333906
0.23814
0.23563
0.330464
0.38249
0.379267
0.327232
0.233385
0.23139
0.324205
0.376149
0.373134
0.321369
0.229622
0.228061
0.318717
0.370221
0.367407
0.316235
0.226682
0.225472
0.313917
0.364692
0.362072
0.311751
0.224412
0.223491
0.309726
0.359549
0.357118
0.307825
0.222691
0.222002
0.306047
0.354781
0.352536
0.304377
0.221411
0.220908
0.302814
0.350384
0.348317
0.301348
0.220482
0.220127
0.299977
0.346343
0.344452
0.29869
0.219832
0.219593
0.297484
0.342651
0.340929
0.296352
0.219399
0.219245
0.295288
0.33929
0.337726
0.294289
0.219124
0.219034
0.29335
0.336241
0.334825
0.292462
0.218976
0.218938
0.291627
0.333481
0.3322
0.290835
0.218926
0.218926
0.290093
0.330989
0.329835
0.28939
0.218943
0.218962
0.288731
0.328744
0.327707
0.288106
0.218992
0.219021
0.287523
0.326728
0.325798
0.28697
0.219057
0.219086
0.286452
0.324919
0.324083
0.28596
0.219121
0.21915
0.285503
0.323297
0.322549
0.28507
0.219185
0.219209
0.284666
0.321845
0.321175
0.284283
0.219238
0.219261
0.28393
0.320549
0.319952
0.283596
0.219289
0.219305
0.283284
0.319391
0.318854
0.282987
0.219322
0.219333
0.282711
0.318352
0.317872
0.28245
0.219347
0.219351
0.282206
0.31742
0.316987
0.281974
0.219359
0.219362
0.28176
0.316582
0.316194
0.281558
0.219369
0.219368
0.281366
0.315828
0.315476
0.281183
0.21937
0.219368
0.281013
0.315148
0.314832
0.28085
0.219369
0.219362
0.280697
0.314534
0.314246
0.280548
0.219357
0.21935
0.280411
0.313977
0.313717
0.280279
0.219345
0.219333
0.280154
0.313471
0.313233
0.280033
0.219323
0.219312
0.279923
0.313011
0.312796
0.279816
0.219304
0.219291
0.279715
0.312592
0.312394
0.279618
0.219278
0.219264
0.279528
0.31221
0.312033
0.279444
0.219254
0.219239
0.279362
0.311864
0.311704
0.279285
0.219225
0.219211
0.279213
0.31155
0.31141
0.279146
0.2192
0.219187
0.279084
0.311271
0.311145
0.279025
0.219176
0.219163
0.278969
0.311016
0.310904
0.278917
0.219154
0.219145
0.27887
0.310788
0.310688
0.278826
0.219139
0.219131
0.278786
0.310581
0.310494
0.278749
0.219128
0.219124
0.278716
0.310397
0.31032
0.278686
0.219124
0.219123
0.278659
0.310231
0.310164
0.278635
0.219127
0.219131
0.278614
0.310084
0.310026
0.278597
0.219139
0.219147
0.278581
0.309953
0.309905
0.278571
0.21916
0.219173
0.278561
0.309841
0.309801
0.278558
0.219192
0.219209
0.278554
0.309743
0.309712
0.278556
0.219233
0.219256
0.278558
0.309662
0.309639
0.278567
0.219284
0.219312
0.278574
0.309594
0.30958
0.278588
0.219345
0.219378
0.278601
0.309542
0.309534
0.27862
0.219415
0.219452
0.278637
0.309502
0.309502
0.278661
0.219494
0.219536
0.278684
0.309476
0.309483
0.278713
0.219581
0.219627
0.278739
0.309461
0.309476
0.278773
0.219677
0.219727
0.278805
0.309459
0.30948
0.278842
0.219779
0.219832
0.278878
0.309468
0.309495
0.278919
0.219887
0.219944
0.278959
0.309489
0.30952
0.279004
0.220002
0.22006
0.279047
0.309518
0.309554
0.279095
0.220122
0.220183
0.279142
0.309558
0.309598
0.279193
0.220246
0.22031
0.279243
0.309605
0.30965
0.279297
0.220375
0.220441
0.27935
0.309661
0.30971
0.279407
0.220508
0.220576
0.279462
0.309725
0.309779
0.279522
0.220646
0.220716
0.279581
0.309797
0.309855
0.279644
0.220788
0.22086
0.279705
0.309877
0.309939
0.279771
0.220934
0.221008
0.279835
0.309964
0.310029
0.279903
0.221083
0.221158
0.27997
0.310057
0.310127
0.28004
0.221235
0.221312
0.280109
0.310158
0.31023
0.280181
0.221389
0.221467
0.280252
0.310263
0.310339
0.280327
0.221546
0.221625
0.2804
0.310375
0.310453
0.280475
0.221704
0.221783
0.280549
0.310491
0.310572
0.280627
0.221863
0.221943
0.280702
0.310612
0.310694
0.280781
0.222023
0.222103
0.280857
0.310736
0.310821
0.280937
0.222183
0.222263
0.281015
0.310865
0.31095
0.281095
0.222343