/*--------------------------------*- C++ -*----------------------------------*\
| =========                 |                                                 |
| \\      /  F ield         | OpenFOAM: The Open Source CFD Toolbox           |
|  \\    /   O peration     | Version:  v2006                                 |
|   \\  /    A nd           | Website:  www.openfoam.com                      |
|    \\/     M anipulation  |                                                 |
\*---------------------------------------------------------------------------*/
FoamFile
{
    version     2.0;
    format      ascii;
    class       volScalarField;
    location    "0.073";
    object      yPlus;
}
// * * * * * * * * * * * * * * * * * * * * * * * * * * * * * * * * * * * * * //

dimensions      [0 0 0 0 0 0 0];


internalField   uniform 0;

boundaryField
{
    bottomEmptyFaces
    {
        type            empty;
    }
    topEmptyFaces
    {
        type            empty;
    }
    inlet
    {
        type            calculated;
        value           uniform 0;
    }
    outlet
    {
        type            calculated;
        value           uniform 0;
    }
    walls
    {
        type            calculated;
        value           nonuniform List<scalar> 
1055
(
30.3807
29.6428
28.9672
28.3467
27.7858
27.2782
26.8248
26.4153
26.0489
25.7205
25.4311
25.1748
24.9519
24.7569
24.5916
24.4491
24.3297
24.2269
24.1425
24.0714
24.0148
23.9677
23.9314
23.9017
23.88
23.8626
23.8515
23.8433
23.839
23.8358
23.836
23.8353
23.837
23.839
23.842
23.8462
23.8498
23.8543
23.8572
23.8606
23.8618
23.864
23.8631
23.864
23.8617
23.8615
23.8576
23.8559
23.8505
23.8476
23.8408
23.8365
23.829
23.8238
23.8158
23.81
23.8021
23.7961
23.7881
23.7819
23.7739
23.7675
23.7592
23.7526
23.7442
23.7377
23.7293
23.723
23.7147
23.7086
23.7006
23.6947
23.6869
23.6812
23.6737
23.6683
23.661
23.656
23.6491
23.6446
23.6382
23.6344
23.6285
23.6254
23.6201
23.6178
23.6132
23.6117
23.6079
23.6071
23.6043
23.604
23.6023
23.6025
23.6019
23.6026
23.6029
23.6042
23.6056
23.6073
23.6095
23.6119
23.6146
23.6179
23.6211
23.6251
23.6288
23.6335
23.6377
23.643
23.6477
23.6534
23.6585
23.6647
23.6701
23.6767
23.6825
23.6895
23.6956
23.7029
23.7093
23.7169
23.7236
23.7315
23.7384
23.7465
23.7536
23.7619
23.7693
23.7778
23.7854
23.794
23.8017
23.8105
23.8184
23.8273
23.8353
23.8443
23.8524
23.8614
23.8695
23.8785
23.8867
23.8958
23.904
23.9131
23.9212
23.9303
23.9384
23.9474
23.9556
23.9646
23.9727
23.9816
23.9898
23.9987
24.0068
24.0157
24.0238
24.0326
24.0407
24.0496
24.0576
24.0666
24.0746
24.0836
24.0916
24.1006
24.1086
24.1176
24.1256
24.1347
24.1426
24.1516
24.1595
24.1684
24.1761
24.185
24.1924
24.2012
24.2083
24.2252
24.2242
24.2248
24.2392
24.2485
24.254
24.2801
24.2891
24.3168
24.2762
24.2162
23.9995
24.1585
24.568
8.452
7.16979
6.48186
11.3822
10.5756
9.67083
7.97921
18.2617
13.3594
11.5842
11.49
12.702
9.38783
8.11094
12.496
11.3848
13.6572
13.6328
10.7074
9.19761
9.75858
9.65986
8.53984
7.37432
10.15
9.90033
8.8473
7.48777
9.14096
7.6228
8.60822
7.37923
9.60983
10.0926
8.55639
7.41583
8.38021
7.3069
8.34277
7.25997
6.57711
10.4458
10.938
9.73515
10.6154
9.48917
10.4019
9.20029
9.9532
9.25547
10.1184
10.1264
10.5479
9.3267
10.2193
11.5733
8.5174
8.92964
8.96411
9.71279
10.3273
10.7757
11.8882
8.66875
9.12464
9.59035
10.3884
8.33464
8.98831
10.0285
7.38951
7.72232
8.80297
9.06701
10.1871
7.50306
7.86639
7.9993
8.46655
9.16478
9.53381
8.15482
8.71474
8.4185
9.13633
8.67157
9.39476
8.32188
8.89434
10.7714
9.39622
9.77578
7.832
8.2628
10.5651
7.73306
8.15651
10.4309
9.10049
9.40586
8.29702
9.01281
7.94677
8.51905
7.51922
7.81626
9.88196
10.2913
11.3978
8.33211
8.77695
8.85408
9.73209
11.0512
8.0637
8.49664
8.64561
9.26032
9.13386
9.95005
9.64243
10.1029
8.9743
9.74031
8.64857
9.53923
8.53403
9.20881
9.46227
9.83439
10.8671
7.93747
8.18962
8.66714
9.40314
9.13679
9.97975
8.80846
9.57895
8.70228
9.08439
7.84215
7.69043
7.32613
7.03735
9.57422
7.43347
7.86567
8.34498
8.53219
9.4372
6.96038
7.08065
8.39101
8.60147
9.73385
7.14662
7.47525
7.60248
8.04115
8.15585
8.26085
7.04652
7.28162
7.9825
7.98893
7.8114
7.78539
9.15847
6.83946
6.98131
9.21317
7.87974
7.94339
6.79067
6.97444
9.04783
7.35099
7.02727
9.01594
7.79413
7.74806
8.68829
6.62372
6.63297
7.79962
7.7394
6.73952
6.81934
6.72188
6.87324
9.2215
7.9603
8.03535
9.30829
6.95921
7.16111
6.81717
6.96831
8.96211
8.80351
7.41114
6.96672
8.34703
7.04934
6.62531
8.32925
7.07391
6.45027
8.46958
7.18783
6.6539
8.37784
6.99782
6.47753
8.0969
6.48924
6.33176
8.24318
6.85957
6.4544
7.73314
7.37986
8.37911
7.70755
7.50091
6.57472
6.55764
8.75854
8.68717
7.27749
6.88418
7.39298
6.93393
7.09845
6.82396
8.94963
7.20256
6.92235
8.57656
6.70855
6.77869
8.73252
8.95364
10.0753
7.41719
7.72495
9.90925
7.178
7.46281
8.59049
8.83152
7.76641
8.26885
7.86389
8.34429
8.7166
9.0371
8.04006
8.56668
13.2266
11.3566
8.65267
11.2574
8.33618
11.6886
9.73198
6.97776
10.6855
10.3541
7.16634
12.2573
9.98931
26.1793
24.659
8.23826
8.79502
6.18055
25.279
21.1997
21.2
20.4068
10.3505
20.1589
8.84171
25.4001
7.71524
20.6719
8.93249
6.17158
20.1244
21.4363
20.8916
10.6921
9.5836
8.42906
7.42447
8.30218
6.01483
28.0654
26.5025
21.8472
21.3944
22.1096
21.5572
25.1006
22.0531
20.9262
27.1886
23.3313
22.4541
9.97952
8.9964
8.46559
7.98268
7.32933
8.5105
6.03813
10.5455
9.69752
9.12225
8.62499
8.22225
7.66007
6.94348
7.83142
5.77683
9.67257
8.92815
8.49022
8.12484
7.82247
7.52996
7.27867
7.0506
6.92685
6.77816
6.41281
7.78048
5.40395
9.81875
9.28104
8.97372
8.80652
8.60846
13.9767
8.38671
8.21106
8.07181
7.91957
7.82341
10.9703
12.0135
7.67973
12.0617
12.508
10.3817
11.2192
13.4712
11.6612
12.1859
9.74065
10.3015
10.6788
11.7077
7.58751
7.54795
7.42943
7.30689
7.21351
7.12854
7.05793
6.99873
14.7358
10.6389
11.2316
12.6093
13.1715
11.5958
12.7225
6.95187
6.91315
6.88044
6.85733
6.83528
6.81669
6.80661
6.79647
13.5549
14.1633
12.3783
13.4595
6.79024
6.77888
6.77584
6.77364
6.7675
6.76143
6.76015
6.7592
13.8089
14.2591
13.2272
14.3475
12.5721
13.6106
16.108
11.7168
12.3759
6.75307
15.7978
6.74691
6.74487
11.4108
12.053
6.74004
6.73739
12.2879
13.1916
6.72728
6.72409
6.71818
15.2293
11.8227
12.8914
13.0694
13.5975
11.8161
12.8117
11.0387
11.639
11.3666
12.3031
11.2981
12.3025
12.1828
12.6631
11.0793
12.1933
14.1306
10.2647
10.8058
10.8759
11.7673
14.432
11.1716
12.0644
10.368
10.9684
12.3972
12.9338
10.7927
11.6691
10.1826
10.7113
19.2082
14.3632
14.9412
6.71379
6.70334
6.69829
6.69387
20.6695
6.68411
6.67466
6.66866
20.0207
6.66365
14.5324
15.4506
17.3237
17.4061
19.8415
16.8814
17.2699
14.6384
15.3545
16.7133
16.9843
6.65317
6.64356
6.63705
6.63177
6.62092
6.61114
6.60453
6.59909
6.58853
6.57864
6.57249
6.56693
6.55662
6.54678
6.54068
15.4313
6.53535
15.7243
16.2545
16.7845
14.4245
15.4065
18.2101
13.1221
13.9307
6.5249
6.51513
6.50919
6.50401
6.49397
6.48443
6.47913
6.47165
17.4748
13.996
14.9635
12.9072
13.6442
13.349
14.2708
17.0962
14.6306
15.1934
12.2325
13.0264
14.8233
15.4542
18.3955
15.715
16.2073
13.3024
14.0618
19.2463
19.0497
13.982
14.6296
16.2885
16.5088
16.1358
16.6149
6.46637
14.1379
6.45488
14.8901
6.44995
6.44278
6.43793
6.42652
6.42183
6.41485
21.4058
6.41016
6.39921
15.9272
16.6278
6.3948
6.38801
6.38347
6.3731
6.36852
22.2083
6.36471
21.9028
18.1242
17.8987
18.7235
18.9294
19.8179
19.8883
23.5372
6.35599
18.8601
6.35036
18.6984
6.34207
6.34077
6.3328
22.755
6.32743
6.32228
18.7511
18.4289
6.31494
22.9306
17.8666
18.4009
16.7907
17.3799
18.0688
18.3055
15.4719
16.1466
6.3133
6.30758
6.31088
6.37431
6.41755
6.51325
6.77779
7.13224
29.2807
25.939
30.237
23.7405
22.0839
30.1619
27.3183
26.9394
23.3693
22.2911
9.89142
10.7557
33.0882
31.4629
30.7212
33.0695
25.5383
23.4716
30.6027
26.9388
25.6681
23.1505
12.5358
30.4013
9.98105
10.9174
10.8468
11.2665
28.9761
35.1858
27.5115
25.5398
10.2497
11.2102
10.0382
11.0078
35.4194
12.8134
11.1205
11.5902
9.33236
9.81204
36.1759
9.79666
10.5755
9.106
9.56188
36.7359
36.7553
36.8748
36.5741
35.8237
13.159
34.8945
10.7552
11.7114
10.4459
11.4944
10.2526
11.0588
9.4907
10.0041
10.4161
11.3915
11.336
11.7803
10.219
11.132
33.9421
32.9883
32.0594
31.1858
9.60354
10.5389
12.0109
8.82488
9.24869
9.29462
10.0597
9.78712
10.7307
25.0506
7.57081
36.4711
33.1929
31.0013
29.531
28.4214
27.3887
26.657
25.9467
25.5499
25.0745
24.7909
24.4221
24.2085
23.9079
23.7399
23.4854
23.3473
23.1238
23.0058
22.8044
22.7008
22.5154
22.4219
22.2482
22.162
21.9971
21.9162
21.7582
21.6813
21.5286
21.4547
21.3063
21.2346
21.0896
21.0196
20.8774
20.8086
20.6686
20.6008
20.4626
20.3953
20.2584
20.1915
20.0554
19.9885
19.8529
19.7858
19.6501
19.5826
19.4465
19.3781
19.2412
19.1719
19.0339
18.9634
18.8238
18.7518
18.6105
18.5369
18.3934
18.3181
18.1723
18.095
17.9467
17.8675
17.7164
17.6355
17.4816
17.3989
17.2423
17.158
16.9988
16.9132
16.7517
16.6652
16.5017
16.4149
16.2501
16.1639
15.9987
15.9141
15.7497
15.6681
15.5061
15.4291
15.2713
15.2012
15.0498
14.9891
14.8466
14.7989
14.6689
14.636
14.5253
14.507
14.4189
14.4165
14.3585
14.3688
14.3439
14.3666
14.3591
14.4108
14.4189
14.4978
14.5217
14.6234
14.6591
14.7763
14.8204
14.9481
14.9985
15.1337
15.1881
15.3275
15.3834
15.523
15.5785
15.7153
15.7687
15.8998
15.9497
16.0725
16.1179
16.2308
16.2711
16.3723
16.4065
16.4951
16.5228
16.5983
16.6197
16.6824
16.6976
16.7484
16.7581
16.7983
16.803
16.8341
16.8346
16.8568
16.8546
16.87
16.8657
16.8756
16.8694
16.8758
16.8669
16.8712
16.8581
16.8614
16.8457
16.8482
16.8304
16.8324
16.813
16.8146
16.7938
16.7952
16.7733
16.7743
16.7516
16.7523
16.7287
16.7295
16.7019
16.7088
16.6764
16.685
16.6406
16.715
16.7433
16.9465
17.2279
18.2721
20.9112
18.9398
39.9397
)
;
    }
    rightWall
    {
        type            calculated;
        value           uniform 0;
    }
    symmetryLine
    {
        type            symmetryPlane;
    }
}


// ************************************************************************* //
