/*--------------------------------*- C++ -*----------------------------------*\
| =========                 |                                                 |
| \\      /  F ield         | OpenFOAM: The Open Source CFD Toolbox           |
|  \\    /   O peration     | Version:  v2006                                 |
|   \\  /    A nd           | Website:  www.openfoam.com                      |
|    \\/     M anipulation  |                                                 |
\*---------------------------------------------------------------------------*/
FoamFile
{
    version     2.0;
    format      ascii;
    class       volScalarField;
    location    "0.034";
    object      T;
}
// * * * * * * * * * * * * * * * * * * * * * * * * * * * * * * * * * * * * * //

dimensions      [0 0 0 1 0 0 0];


internalField   nonuniform List<scalar> 
10108
(
297.809
297.809
297.809
297.809
297.809
297.809
297.81
297.813
297.817
297.824
297.832
297.84
297.848
297.857
297.865
297.874
297.884
297.893
297.903
297.914
297.924
297.935
297.947
297.958
297.97
297.982
297.994
298.007
298.02
298.032
298.045
298.058
298.071
298.085
298.098
298.111
298.124
298.137
298.15
298.163
298.175
298.188
298.2
298.212
298.224
298.235
298.247
298.257
298.268
298.278
298.288
298.297
298.307
298.316
298.324
298.333
298.34
298.346
298.35
298.351
298.35
298.35
298.349
298.349
298.348
298.349
298.351
298.356
298.362
298.374
298.388
298.445
298.456
298.387
298.367
298.367
298.391
298.476
298.492
298.396
298.368
298.37
298.402
298.504
298.512
298.409
298.374
298.379
298.417
298.52
298.525
298.423
298.383
298.388
298.429
298.53
298.533
298.435
298.394
298.398
298.441
298.536
298.538
298.447
298.404
298.409
298.451
298.54
298.542
298.457
298.414
298.419
298.461
298.543
298.545
298.466
298.424
298.429
298.47
298.546
298.548
298.476
298.434
298.439
298.479
298.549
298.551
298.484
298.444
298.449
298.488
298.552
298.555
298.493
298.455
298.459
298.496
298.556
298.559
298.502
298.465
298.469
298.505
298.56
298.563
298.511
298.475
298.479
298.514
298.565
298.569
298.52
298.486
298.49
298.523
298.571
298.575
298.53
298.497
298.502
298.533
298.577
298.581
298.54
298.509
298.513
298.543
298.584
298.589
298.55
298.521
298.525
298.554
298.591
298.597
298.561
298.533
298.538
298.565
298.6
298.606
298.573
298.546
298.551
298.577
298.609
298.615
298.585
298.56
298.565
298.59
298.619
298.626
298.599
298.574
298.58
298.603
298.629
298.637
298.612
298.589
298.595
298.617
298.641
298.649
298.627
298.605
298.612
298.632
298.653
298.662
298.642
298.622
298.629
298.648
298.666
298.676
298.658
298.64
298.647
298.664
298.681
298.69
298.675
298.658
298.665
298.681
298.696
298.706
298.693
298.677
298.685
298.7
298.712
298.723
298.712
298.698
298.706
298.719
298.729
298.741
298.732
298.719
298.728
298.739
298.747
298.759
298.753
298.742
298.75
298.761
298.766
298.779
298.775
298.765
298.774
298.783
298.786
298.8
298.798
298.79
298.8
298.806
298.808
298.822
298.822
298.815
298.826
298.831
298.83
298.845
298.848
298.842
298.853
298.857
298.854
298.869
298.874
298.87
298.881
298.884
298.878
298.894
298.901
298.899
298.911
298.911
298.904
298.92
298.929
298.929
298.941
298.94
298.931
298.947
298.958
298.959
298.972
298.97
298.958
298.975
298.988
298.991
299.004
299
298.986
299.004
299.019
299.023
299.036
299.03
299.015
299.033
299.049
299.055
299.069
299.061
299.044
299.062
299.08
299.088
299.102
299.092
299.074
299.091
299.111
299.121
299.134
299.123
299.103
299.12
299.142
299.152
299.165
299.153
299.132
299.149
299.171
299.183
299.196
299.182
299.16
299.176
299.2
299.213
299.225
299.21
299.187
299.202
299.227
299.241
299.252
299.236
299.212
299.227
299.251
299.267
299.277
299.26
299.236
299.249
299.274
299.291
299.299
299.282
299.258
299.27
299.294
299.311
299.318
299.301
299.277
299.288
299.312
299.329
299.335
299.317
299.294
299.303
299.327
299.344
299.348
299.331
299.309
299.316
299.339
299.356
299.359
299.342
299.321
299.327
299.349
299.365
299.368
299.351
299.33
299.336
299.357
299.373
299.374
299.358
299.338
299.343
299.362
299.378
299.379
299.364
299.345
299.348
299.366
299.381
299.382
299.367
299.35
299.353
299.37
299.384
299.384
299.37
299.355
299.357
299.372
299.385
299.385
299.373
299.359
299.361
299.374
299.386
299.387
299.375
299.362
299.364
299.376
299.387
299.387
299.377
299.365
299.367
299.378
299.388
299.388
299.378
299.368
299.37
299.379
299.389
299.389
299.38
299.371
299.373
299.381
299.389
299.389
299.381
299.374
299.375
299.382
299.39
299.39
299.383
299.376
299.378
299.384
299.39
299.39
299.384
299.378
299.38
299.385
299.39
299.391
299.385
299.381
299.381
299.386
299.391
299.392
299.387
299.383
299.383
299.387
299.392
299.392
299.387
299.383
299.384
299.388
299.393
299.399
299.404
299.404
299.4
299.395
299.391
299.387
299.382
299.377
299.372
299.367
299.363
299.359
299.355
299.351
299.348
299.345
299.342
299.34
299.34
299.341
299.342
299.345
299.351
299.341
299.233
299.533
299.612
299.155
299.373
299.37
298.74
300.211
299.148
299.46
299.339
299.349
299.341
299.388
299.353
299.354
299.349
299.347
299.352
299.358
299.356
299.352
299.347
299.345
299.35
299.356
299.354
299.35
299.344
299.342
299.347
299.353
299.354
299.347
299.342
299.34
299.345
299.352
299.352
299.345
299.339
299.337
299.342
299.349
299.349
299.342
299.336
299.334
299.34
299.347
299.347
299.339
299.334
299.331
299.337
299.345
299.344
299.337
299.331
299.328
299.334
299.342
299.342
299.334
299.328
299.325
299.332
299.34
299.339
299.331
299.324
299.322
299.329
299.337
299.337
299.328
299.321
299.319
299.326
299.335
299.334
299.325
299.318
299.315
299.322
299.332
299.332
299.322
299.314
299.311
299.319
299.329
299.329
299.318
299.31
299.307
299.315
299.326
299.326
299.315
299.306
299.303
299.311
299.323
299.323
299.31
299.301
299.297
299.307
299.32
299.319
299.305
299.296
299.291
299.301
299.316
299.315
299.3
299.289
299.284
299.294
299.311
299.31
299.292
299.281
299.274
299.286
299.305
299.304
299.283
299.271
299.261
299.273
299.296
299.293
299.269
299.257
299.243
299.254
299.278
299.272
299.247
299.237
299.222
299.231
299.257
299.252
299.224
299.215
299.213
299.221
299.249
299.252
299.222
299.213
299.214
299.223
299.255
299.259
299.228
299.218
299.22
299.231
299.264
299.271
299.237
299.227
299.231
299.241
299.278
299.287
299.249
299.238
299.242
299.254
299.293
299.306
299.265
299.25
299.254
299.274
299.312
299.321
299.292
299.256
299.237
299.316
299.317
299.393
299.408
299.225
299.308
299.291
299.394
299.344
299.319
299.306
299.319
299.327
299.381
299.396
299.334
299.327
299.338
299.339
299.431
299.47
299.335
299.348
299.371
299.294
299.506
299.86
299.131
299.352
299.44
299.451
299.373
299.497
299.46
299.456
299.497
299.503
299.517
299.531
299.537
299.518
299.495
299.605
299.568
299.606
299.574
299.593
299.634
299.619
299.582
299.557
299.625
299.668
299.675
299.664
299.67
299.575
299.492
299.524
298.81
298.887
297.548
297.856
298.552
298.574
298.2
298.133
297.932
298.11
298.123
298.146
298.155
298.179
298.234
298.306
298.26
298.246
298.275
298.302
298.463
298.463
298.389
298.332
298.337
298.389
298.542
298.414
298.609
298.509
298.411
298.549
298.458
298.467
298.578
298.455
298.502
298.362
298.878
298.697
298.449
298.498
298.49
298.472
298.735
298.571
298.665
298.551
298.509
298.603
298.581
298.604
298.62
298.55
298.573
298.576
298.67
298.639
298.576
298.557
298.567
298.597
298.676
298.675
298.638
298.583
298.56
298.596
298.643
298.685
298.628
298.579
298.592
298.644
298.682
298.649
298.598
298.567
298.582
298.627
298.685
298.678
298.64
298.587
298.561
298.592
298.648
298.677
298.618
298.569
298.584
298.634
298.676
298.64
298.581
298.549
298.562
298.606
298.68
298.641
298.622
298.567
298.528
298.549
298.646
298.472
298.671
298.607
298.429
298.05
299.496
298.878
298.2
298.462
298.425
298.415
298.94
298.692
298.431
298.439
298.418
298.446
298.703
298.673
298.563
298.449
298.408
298.455
298.622
298.436
298.561
298.468
298.334
298.028
299.359
298.815
298.132
298.345
298.325
298.35
298.88
298.6
298.327
298.328
298.295
298.348
298.607
298.612
298.473
298.342
298.297
298.357
298.515
298.52
298.415
298.314
298.275
298.314
298.432
298.445
298.334
298.261
298.311
298.379
298.454
298.387
298.282
298.24
298.242
298.309
298.385
298.327
298.23
298.199
298.189
298.254
298.346
298.344
298.283
298.228
298.154
298.191
298.27
298.271
298.208
298.154
298.109
298.138
298.224
298.253
298.167
298.102
298.134
298.186
298.246
298.177
298.098
298.064
298.065
298.112
298.182
298.116
298.049
298.015
298.038
298.037
298.266
297.732
298.262
298.04
297.999
297.959
297.956
297.954
297.94
298.024
297.945
297.953
297.969
297.968
297.941
297.947
297.882
297.896
297.991
297.833
297.954
297.936
297.719
297.568
298.482
298.079
297.766
297.693
297.692
297.816
298.098
297.956
297.724
297.71
297.712
297.809
297.965
297.887
297.691
297.674
297.737
297.787
297.736
298.431
297.39
297.515
297.488
297.654
297.928
297.941
297.693
297.497
297.511
297.538
297.772
297.788
297.634
297.512
297.482
297.511
297.691
297.697
297.573
297.488
297.449
297.468
297.651
297.513
297.575
297.533
297.291
297.163
298.223
297.631
297.474
297.265
297.219
297.471
297.639
297.524
297.31
297.254
297.272
297.402
297.559
297.482
297.28
297.252
297.253
297.345
297.484
297.41
297.223
297.201
297.25
297.312
297.314
297.762
297.013
297.086
297.046
297.219
297.379
297.378
297.25
297.014
297.019
297.089
297.279
297.287
297.157
297.025
296.985
297.02
297.201
297.208
297.078
296.984
296.932
296.964
297.135
297.133
297.014
296.931
296.887
296.907
297.083
297.016
296.984
296.879
296.798
296.766
297.335
297.009
296.9
296.749
296.72
296.913
297.015
296.928
296.761
296.694
296.698
296.841
296.955
296.884
296.692
296.65
296.655
296.754
296.896
296.811
296.623
296.595
296.584
296.671
296.814
296.73
296.574
296.547
296.488
296.568
296.772
296.604
296.646
296.546
296.505
296.502
296.605
296.607
296.479
296.489
296.408
296.408
296.556
296.533
296.427
296.388
296.313
296.338
296.497
296.497
296.371
296.317
296.232
296.274
296.432
296.427
296.3
296.239
296.159
296.185
296.37
296.326
296.27
296.157
296.064
296.054
296.628
296.264
296.131
295.946
295.954
296.151
296.275
296.166
295.966
295.913
295.912
296.066
296.196
296.114
295.889
295.857
295.844
295.96
296.126
296.02
295.813
295.79
295.771
295.873
296.03
295.93
295.754
295.721
295.627
295.741
296.043
295.708
295.821
295.742
295.659
295.656
295.716
295.716
295.592
295.636
295.512
295.512
295.681
295.682
295.545
295.503
295.395
295.422
295.618
295.612
295.459
295.385
295.298
295.337
295.515
295.505
295.354
295.261
295.185
295.235
295.401
295.475
295.222
295.096
295.195
295.283
295.25
295.25
295.113
295.11
295.101
295.07
295.249
295.167
294.983
294.982
294.934
294.98
295.144
295.082
294.853
294.84
294.791
294.881
295.046
294.974
294.742
294.685
294.673
294.795
294.986
294.865
294.638
294.58
294.504
294.649
294.9
294.794
294.701
294.542
294.43
294.428
294.663
294.643
294.428
294.392
294.231
294.32
294.583
294.608
294.368
294.248
294.116
294.186
294.468
294.488
294.26
294.128
294.019
294.074
294.369
294.354
294.103
293.933
293.961
294.103
294.334
294.048
293.818
293.79
293.778
294.003
294.073
293.971
293.718
293.657
293.652
293.815
294.005
293.896
293.565
293.52
293.478
293.63
293.868
293.723
293.414
293.346
293.198
293.352
293.701
293.553
293.402
293.237
293.061
293.145
293.448
293.524
293.228
293.082
292.944
293.003
293.337
293.326
293.022
292.902
292.734
292.831
293.149
293.141
292.775
292.595
292.598
292.759
292.955
292.85
292.485
292.372
292.414
292.595
292.907
292.739
292.323
292.239
292.218
292.409
292.733
292.527
292.148
292.057
291.888
292.081
292.498
292.365
292.062
291.881
291.607
291.742
292.128
292.171
291.833
291.616
291.488
291.584
292
292.021
291.515
291.298
291.426
291.666
291.866
291.5
291.236
291.226
291.127
291.065
291.33
291.212
290.868
290.735
290.635
290.937
291.259
291.312
291.025
290.739
290.471
290.451
291.053
290.973
290.596
290.356
290.154
290.225
290.617
290.569
290.013
289.782
289.974
290.132
290.392
290.177
289.811
289.624
289.63
289.787
290.258
289.99
289.5
289.361
289.051
289.413
289.817
289.821
289.324
288.934
288.571
288.616
289.23
289.311
288.819
288.56
288.386
288.503
289.104
289.1
288.445
288.123
288.216
288.459
288.905
288.185
287.829
287.66
287.291
287.499
288.082
288.113
287.704
287.325
287.082
287.266
287.904
287.875
286.876
286.886
286.543
286.879
287.54
286.636
286.363
286.043
285.716
286.016
286.729
286.704
286.296
285.777
285.475
285.631
286.308
285.833
285.377
285.22
284.201
284.821
285.92
285.432
284.187
284.252
283.948
284.247
285.541
285.33
284.464
283.835
283.323
283.427
283.82
283.76
282.869
282.683
282.484
282.85
283.982
283.707
282.939
282.399
281.846
281.952
282.258
282.399
281.329
281.284
281.006
281.391
282.618
281.756
280.789
280.554
280.621
281.177
282.255
281.806
280.508
280.295
280.171
280.444
281.827
282.428
280.692
280.213
280.349
280.957
282.748
283.793
281.566
280.805
281.917
282.867
285.494
287.039
284.272
283.087
284.618
286.055
288.929
289.764
287.111
285.586
286.363
288.065
290.6
290.981
288.703
286.97
287.595
289.455
291.573
291.801
289.909
288.077
288.584
290.489
292.192
292.326
290.797
288.971
289.41
291.256
292.594
292.688
291.478
289.736
290.126
291.846
292.886
292.953
292.009
290.406
290.747
292.294
293.103
293.149
292.413
290.975
291.265
292.626
293.26
293.291
292.712
291.449
291.693
292.871
293.374
293.392
292.931
291.835
292.034
293.051
293.454
293.464
293.092
292.145
292.303
293.182
293.51
293.512
293.211
292.391
292.511
293.28
293.543
293.538
293.297
292.58
292.669
293.349
293.56
293.549
293.355
292.719
292.782
293.391
293.565
293.55
293.385
292.817
292.86
293.412
293.561
293.543
293.397
292.876
292.909
293.415
293.549
293.53
293.392
292.905
292.93
293.402
293.53
293.511
293.373
292.915
292.934
293.377
293.507
293.482
293.345
292.912
292.926
293.343
293.477
293.449
293.308
292.898
292.91
293.302
293.442
293.411
293.264
292.876
292.885
293.256
293.402
293.369
293.218
292.849
292.856
293.207
293.359
293.323
293.164
292.821
292.822
293.153
293.312
293.273
293.11
292.79
292.786
293.099
293.262
293.221
293.056
292.758
292.749
293.045
293.209
293.168
293.001
292.719
292.713
292.989
293.155
293.113
292.945
292.681
292.676
292.935
293.1
293.057
292.891
292.644
292.641
292.881
293.044
293.002
292.839
292.609
292.603
292.829
292.988
292.946
292.787
292.572
292.569
292.778
292.933
292.892
292.737
292.539
292.533
292.728
292.879
292.838
292.69
292.504
292.501
292.681
292.826
292.786
292.643
292.473
292.467
292.635
292.774
292.736
292.599
292.44
292.436
292.591
292.724
292.687
292.557
292.41
292.404
292.549
292.676
292.64
292.517
292.379
292.375
292.509
292.63
292.595
292.478
292.351
292.345
292.472
292.585
292.553
292.442
292.322
292.317
292.435
292.543
292.512
292.406
292.295
292.29
292.401
292.503
292.473
292.373
292.267
292.264
292.368
292.466
292.437
292.341
292.242
292.237
292.337
292.43
292.402
292.311
292.216
292.213
292.308
292.396
292.369
292.282
292.192
292.188
292.279
292.363
292.339
292.254
292.167
292.165
292.252
292.333
292.309
292.228
292.145
292.142
292.226
292.303
292.281
292.202
292.121
292.121
292.2
292.275
292.254
292.177
292.1
292.098
292.176
292.249
292.228
292.153
292.078
292.078
292.153
292.223
292.204
292.131
292.058
292.057
292.131
292.199
292.18
292.109
292.037
292.039
292.109
292.176
292.157
292.088
292.018
292.019
292.089
292.153
292.136
292.067
291.999
292.002
292.069
292.132
292.115
292.048
291.981
291.983
292.049
292.111
292.094
292.029
291.964
291.967
292.031
292.091
292.075
292.01
291.947
291.949
292.012
292.072
292.056
291.992
291.93
291.934
291.995
292.053
292.038
291.975
291.914
291.917
291.978
292.035
292.02
291.959
291.898
291.903
291.962
292.018
292.003
291.943
291.883
291.887
291.946
292.001
291.986
291.927
291.868
291.874
291.931
291.985
291.97
291.912
291.854
291.859
291.916
291.969
291.955
291.897
291.84
291.846
291.902
291.954
291.94
291.883
291.827
291.832
291.888
291.939
291.925
291.869
291.813
291.82
291.874
291.925
291.911
291.856
291.8
291.806
291.861
291.911
291.897
291.843
291.788
291.795
291.848
291.897
291.884
291.83
291.775
291.782
291.835
291.884
291.87
291.817
291.763
291.771
291.822
291.871
291.858
291.805
291.751
291.758
291.81
291.858
291.845
291.793
291.739
291.748
291.798
291.846
291.833
291.781
291.728
291.735
291.787
291.833
291.82
291.769
291.717
291.725
291.775
291.821
291.809
291.758
291.706
291.714
291.764
291.81
291.797
291.747
291.695
291.704
291.753
291.798
291.786
291.736
291.685
291.692
291.742
291.787
291.774
291.725
291.674
291.683
291.731
291.776
291.763
291.715
291.664
291.672
291.721
291.765
291.753
291.704
291.654
291.663
291.711
291.754
291.742
291.694
291.644
291.652
291.701
291.744
291.732
291.684
291.634
291.644
291.691
291.734
291.721
291.674
291.625
291.633
291.681
291.723
291.711
291.664
291.615
291.625
291.671
291.713
291.701
291.655
291.606
291.615
291.662
291.703
291.691
291.645
291.596
291.606
291.652
291.694
291.681
291.636
291.587
291.596
291.643
291.684
291.672
291.626
291.577
291.588
291.633
291.674
291.662
291.617
291.568
291.577
291.623
291.664
291.652
291.607
291.559
291.569
291.614
291.654
291.642
291.597
291.549
291.558
291.604
291.644
291.632
291.587
291.54
291.55
291.594
291.634
291.622
291.578
291.53
291.539
291.585
291.624
291.612
291.568
291.521
291.531
291.575
291.615
291.603
291.559
291.511
291.521
291.566
291.605
291.593
291.549
291.502
291.512
291.556
291.596
291.584
291.539
291.493
291.502
291.546
291.586
291.574
291.531
291.484
291.492
291.538
291.575
291.565
291.522
291.474
291.481
291.528
291.566
291.556
291.511
291.465
291.47
291.518
291.555
291.548
291.502
291.454
291.459
291.505
291.547
291.539
291.492
291.445
291.44
291.49
291.537
291.519
291.47
291.417
291.365
291.454
291.501
291.449
291.415
291.339
291.355
291.418
291.429
291.24
290.653
290.389
290.276
289.896
289.651
289.431
289.253
289.105
289.029
288.819
288.653
288.523
288.419
288.338
288.279
288.235
288.204
288.181
288.165
288.152
288.143
288.137
288.131
288.127
288.124
288.122
288.12
288.119
288.118
288.118
288.117
288.117
288.116
288.116
288.115
288.113
288.112
288.111
288.11
288.108
288.107
288.106
288.105
288.104
288.103
288.102
288.101
288.1
288.098
288.095
288.092
288.091
288.092
288.096
288.103
288.113
288.126
288.142
288.161
288.183
288.209
288.238
288.27
288.307
288.348
288.394
288.446
288.504
288.568
288.64
288.719
288.807
288.903
289.009
289.125
289.252
289.388
289.536
289.694
289.863
290.042
290.23
290.427
290.632
290.844
291.061
291.283
291.508
291.736
291.964
292.192
292.419
292.643
292.864
293.081
293.294
293.502
293.704
293.899
294.089
294.272
294.449
294.619
294.783
294.94
295.09
295.234
295.371
295.503
295.629
295.748
295.863
295.972
296.075
296.174
296.268
296.357
296.442
296.523
296.6
296.673
296.742
296.808
296.87
296.929
296.986
297.039
297.09
297.137
297.183
297.226
297.267
297.306
297.342
297.377
297.409
297.44
297.47
297.497
297.523
297.548
297.571
297.593
297.613
297.632
297.65
297.667
297.683
297.697
297.711
297.723
297.735
297.746
297.756
297.765
297.773
297.78
297.786
297.792
297.796
297.8
297.803
297.806
297.807
297.808
297.809
297.809
297.809
297.809
297.809
297.809
297.81
297.812
297.815
297.821
297.827
297.835
297.843
297.851
297.86
297.869
297.878
297.888
297.899
297.909
297.92
297.931
297.943
297.955
297.967
297.979
297.992
298.004
298.017
298.03
298.044
298.057
298.07
298.083
298.097
298.11
298.123
298.137
298.15
298.163
298.176
298.188
298.201
298.213
298.225
298.237
298.249
298.26
298.271
298.281
298.291
298.301
298.31
298.319
298.327
298.335
298.342
298.346
298.349
298.35
298.35
298.35
298.349
298.349
298.35
298.351
298.354
298.356
298.358
298.361
298.364
298.367
298.37
298.374
298.378
298.382
298.386
298.391
298.395
298.4
298.405
298.41
298.415
298.42
298.425
298.43
298.436
298.441
298.447
298.453
298.459
298.465
298.471
298.477
298.484
298.49
298.497
298.504
298.511
298.518
298.526
298.533
298.541
298.549
298.557
298.565
298.574
298.583
298.592
298.601
298.611
298.62
298.631
298.64
298.652
298.662
298.673
298.684
298.696
298.707
298.72
298.731
298.745
298.757
298.771
298.784
298.798
298.812
298.827
298.841
298.857
298.871
298.888
298.902
298.919
298.934
298.952
298.968
298.986
299.001
299.02
299.036
299.055
299.071
299.09
299.106
299.125
299.14
299.159
299.174
299.192
299.207
299.224
299.238
299.255
299.267
299.283
299.294
299.308
299.318
299.33
299.338
299.349
299.356
299.365
299.37
299.378
299.381
299.387
299.389
299.394
299.395
299.398
299.399
299.401
299.402
299.403
299.403
299.403
299.403
299.403
299.403
299.403
299.402
299.402
299.402
299.402
299.401
299.401
299.4
299.4
299.4
299.4
299.399
299.399
299.399
299.399
299.399
299.399
299.398
299.404
299.404
299.404
299.404
299.404
299.404
299.404
299.404
299.404
299.404
299.399
299.4
299.4
299.4
299.395
299.395
299.395
299.391
299.391
299.391
299.386
299.386
299.386
299.388
299.388
299.401
299.405
299.405
299.405
299.405
299.406
299.406
299.406
299.407
299.402
299.403
299.408
299.407
299.407
299.408
299.409
299.408
299.409
299.41
299.405
299.406
299.411
299.41
299.41
299.411
299.413
299.411
299.411
299.413
299.408
299.409
299.414
299.412
299.412
299.414
299.415
299.413
299.413
299.415
299.411
299.411
299.416
299.414
299.413
299.415
299.416
299.414
299.412
299.415
299.412
299.41
299.415
299.412
299.41
299.413
299.413
299.41
299.406
299.409
299.407
299.402
299.408
299.405
299.4
299.403
299.401
299.398
299.391
299.393
299.393
299.381
299.391
299.388
299.379
299.381
299.377
299.374
299.363
299.365
299.365
299.344
299.359
299.357
299.344
299.344
299.337
299.337
299.322
299.321
299.32
299.291
299.311
299.313
299.296
299.293
299.283
299.285
299.268
299.263
299.26
299.226
299.251
299.255
299.237
299.231
299.217
299.223
299.204
299.196
299.19
299.153
299.182
299.189
299.169
299.16
299.145
299.154
299.133
299.123
299.114
299.076
299.108
299.118
299.097
299.086
299.07
299.081
299.061
299.049
299.038
299
299.033
299.045
299.025
299.012
298.996
299.008
298.989
298.976
298.962
298.926
298.959
298.973
298.954
298.94
298.924
298.938
298.92
298.905
298.891
298.856
298.889
298.904
298.886
298.872
298.856
298.871
298.854
298.839
298.823
298.792
298.824
298.839
298.823
298.808
298.793
298.809
298.793
298.778
298.761
298.732
298.763
298.78
298.765
298.749
298.735
298.751
298.737
298.721
298.704
298.678
298.708
298.725
298.711
298.695
298.682
298.699
298.686
298.67
298.653
298.629
298.658
298.674
298.662
298.646
298.634
298.651
298.64
298.623
298.606
298.585
298.612
298.629
298.618
298.602
298.591
298.608
298.598
298.582
298.564
298.545
298.571
298.588
298.578
298.562
298.552
298.569
298.56
298.544
298.527
298.51
298.534
298.551
298.542
298.526
298.518
298.534
298.525
298.51
298.494
298.479
298.501
298.517
298.51
298.494
298.486
298.502
298.495
298.48
298.465
298.451
298.472
298.487
298.48
298.466
298.459
298.473
298.467
298.453
298.439
298.427
298.446
298.46
298.454
298.44
298.434
298.448
298.442
298.429
298.416
298.406
298.423
298.436
298.431
298.418
298.412
298.425
298.42
298.408
298.397
298.389
298.403
298.414
298.41
298.398
298.394
298.404
298.4
298.39
298.381
298.374
298.385
298.395
298.391
298.382
298.378
298.387
298.383
298.375
298.368
298.363
298.371
298.379
298.375
298.368
298.365
298.371
298.368
298.363
298.359
298.355
298.36
298.365
298.362
298.358
298.356
298.36
298.357
298.354
298.353
298.351
298.353
298.355
298.353
298.351
298.351
298.352
298.351
298.35
298.35
298.35
298.351
298.352
298.354
298.357
298.361
298.365
298.37
298.376
298.382
298.39
298.398
298.407
298.417
298.428
298.439
298.452
298.465
298.479
298.495
298.511
298.529
298.547
298.567
298.588
298.61
298.633
298.657
298.683
298.71
298.739
298.769
298.8
298.833
298.867
298.903
298.939
298.977
299.015
299.055
299.094
299.134
299.173
299.212
299.248
299.282
299.313
299.339
299.361
299.377
299.388
299.394
299.397
299.398
299.398
299.396
299.394
299.393
299.391
299.39
299.389
299.389
299.388
299.374
299.376
299.376
299.38
299.381
299.381
299.376
299.376
299.375
299.37
299.371
299.371
299.367
299.366
299.365
299.365
299.364
299.353
299.355
299.36
299.361
299.362
299.358
299.357
299.355
299.351
299.353
299.354
299.35
299.348
299.347
299.346
299.343
299.34
299.35
299.362
299.36
299.374
299.374
299.374
299.358
299.359
299.346
299.348
299.337
299.334
299.331
299.345
299.343
299.358
299.374
299.375
299.358
299.36
299.377
299.379
299.362
299.345
299.344
299.343
299.328
299.329
299.315
299.318
299.322
299.326
299.329
299.333
299.337
299.343
299.345
299.346
299.343
299.341
299.339
299.335
299.338
299.34
299.338
299.335
299.332
299.329
299.324
299.323
299.325
299.328
299.331
299.334
299.337
299.336
299.339
299.343
299.352
299.361
299.349
299.342
299.338
299.343
299.342
299.337
299.333
299.331
299.334
299.335
299.34
299.34
299.338
299.333
299.331
299.328
299.325
299.323
299.319
299.319
299.317
299.319
299.314
299.309
299.304
299.298
299.3
299.305
299.307
299.311
299.313
299.313
299.317
299.32
299.321
299.323
299.324
299.326
299.327
299.329
299.33
299.335
299.337
299.334
299.332
299.332
299.33
299.329
299.327
299.326
299.324
299.318
299.317
299.315
299.32
299.323
299.319
299.314
299.31
299.306
299.31
299.312
299.317
299.316
299.314
299.308
299.307
299.303
299.299
299.296
299.291
299.293
299.291
299.299
299.294
299.312
299.311
299.328
299.329
299.333
299.349
299.365
299.381
299.384
299.369
299.374
299.386
299.387
299.379
299.371
299.363
299.355
299.34
299.351
299.364
299.355
299.336
299.322
299.314
299.31
299.286
299.288
299.274
299.277
299.283
299.285
299.281
299.287
299.291
299.293
299.295
299.297
299.299
299.301
299.303
299.304
299.31
299.313
299.309
299.306
299.305
299.302
299.301
299.298
299.296
299.293
299.288
299.286
299.282
299.287
299.291
299.285
299.28
299.276
299.27
299.274
299.276
299.28
299.278
299.273
299.269
299.267
299.264
299.256
299.268
299.264
299.257
299.239
299.25
299.247
299.25
299.258
299.26
299.263
299.27
299.26
299.251
299.247
299.235
299.235
299.232
299.222
299.218
299.23
299.212
299.221
299.236
299.258
299.286
299.296
299.315
299.342
299.318
299.299
299.284
299.271
299.264
299.257
299.235
299.241
299.25
299.232
299.224
299.223
299.218
299.219
299.216
299.21
299.21
299.211
299.215
299.217
299.224
299.228
299.236
299.245
299.264
299.281
299.304
299.331
299.34
299.364
299.379
299.375
299.376
299.378
299.38
299.384
299.376
299.377
299.366
299.361
299.34
299.346
299.355
299.373
299.38
299.386
299.386
299.368
299.33
299.322
299.317
299.312
299.279
299.28
299.238
299.242
299.203
299.195
299.184
299.233
299.28
299.28
299.225
299.171
299.118
299.136
299.15
299.162
299.12
299.106
299.062
299.078
299.037
299.02
298.999
299.043
299.088
299.068
299.021
298.976
298.934
298.958
298.979
298.997
298.958
298.939
298.901
298.92
298.883
298.865
298.845
298.88
298.918
298.895
298.858
298.823
298.799
298.833
298.869
298.908
298.95
298.994
299.043
299.096
299.153
299.214
299.278
299.341
299.39
299.408
299.4
299.427
299.451
299.431
299.518
299.524
299.478
299.428
299.395
299.393
299.361
299.342
299.326
299.313
299.297
299.284
299.27
299.262
299.25
299.24
299.236
299.25
299.258
299.272
299.287
299.306
299.317
299.308
299.301
299.281
299.323
299.334
299.35
299.36
299.378
299.398
299.391
299.37
299.355
299.337
299.378
299.405
299.415
299.419
299.432
299.472
299.479
299.443
299.439
299.437
299.435
299.395
299.46
299.465
299.499
299.498
299.535
299.529
299.534
299.604
299.621
299.582
299.593
299.638
299.67
299.645
299.635
299.589
299.529
299.395
299.493
299.583
299.578
299.653
299.693
299.701
299.643
299.602
299.535
299.698
299.681
299.56
299.61
299.477
299.232
299.254
299.382
299.504
299.031
299.218
298.753
298.672
298.282
298.566
298.756
298.894
298.661
298.44
298.273
298.195
298.23
298.255
298.292
298.304
298.334
298.395
298.381
298.41
298.484
298.441
298.466
298.518
298.483
298.502
298.558
298.51
298.528
298.57
298.524
298.538
298.576
298.525
298.537
298.571
298.517
298.525
298.559
298.507
298.513
298.543
298.481
298.507
298.521
298.482
298.475
298.436
298.419
298.425
298.394
298.398
298.404
298.371
298.361
298.327
298.304
298.31
298.28
298.279
298.24
298.227
298.249
298.204
298.199
298.157
298.147
298.168
298.114
298.11
298.072
298.059
298.078
298.024
298.027
297.975
297.983
297.95
297.916
297.916
297.869
297.891
297.827
297.828
297.829
297.792
297.764
297.739
297.716
297.683
297.668
297.67
297.627
297.596
297.578
297.541
297.518
297.491
297.468
297.455
297.459
297.418
297.37
297.357
297.317
297.297
297.256
297.236
297.201
297.199
297.162
297.118
297.108
297.049
297.037
296.985
296.977
296.924
296.916
296.851
296.846
296.829
296.772
296.759
296.702
296.693
296.634
296.628
296.548
296.545
296.489
296.447
296.434
296.382
296.37
296.31
296.283
296.24
296.218
296.174
296.138
296.081
296.093
296.052
295.999
295.971
295.901
295.883
295.811
295.784
295.716
295.674
295.627
295.545
295.541
295.456
295.455
295.375
295.359
295.276
295.247
295.175
295.124
295.065
295.006
294.999
294.915
294.896
294.789
294.749
294.67
294.629
294.568
294.5
294.447
294.374
294.328
294.231
294.18
294.113
294.066
294.006
293.911
293.858
293.798
293.733
293.638
293.581
293.504
293.421
293.337
293.217
293.14
293.027
292.993
292.907
292.806
292.719
292.58
292.49
292.365
292.334
292.233
292.158
292.061
291.87
291.757
291.604
291.559
291.459
291.348
291.254
291.057
290.945
290.756
290.65
290.475
290.437
290.332
290.159
289.942
289.741
289.565
289.489
289.32
289.134
288.869
288.616
288.502
288.355
288.211
288.009
287.728
287.553
287.178
287.079
286.876
286.647
286.26
286.076
285.633
285.494
285.253
284.939
284.471
284.303
283.834
283.564
283.323
282.763
282.333
282.09
281.866
281.338
280.969
280.594
280.291
280.656
280.34
280.362
280.493
280.812
281.549
282.41
283.651
284.446
285.11
285.617
286.087
286.484
286.817
287.147
287.396
287.701
287.896
288.186
288.335
288.608
288.717
288.977
289.057
289.303
289.362
289.598
289.642
289.865
289.896
290.108
290.131
290.331
290.345
290.535
290.543
290.722
290.723
290.89
290.887
291.043
291.037
291.179
291.173
291.302
291.295
291.411
291.405
291.508
291.505
291.591
291.59
291.668
291.664
291.734
291.73
291.791
291.789
291.837
291.837
291.877
291.879
291.909
291.913
291.936
291.942