/*--------------------------------*- C++ -*----------------------------------*\
| =========                 |                                                 |
| \\      /  F ield         | OpenFOAM: The Open Source CFD Toolbox           |
|  \\    /   O peration     | Version:  v2006                                 |
|   \\  /    A nd           | Website:  www.openfoam.com                      |
|    \\/     M anipulation  |                                                 |
\*---------------------------------------------------------------------------*/
FoamFile
{
    version     2.0;
    format      ascii;
    class       volScalarField;
    location    "0.034";
    object      turbulenceProperties:I;
}
// * * * * * * * * * * * * * * * * * * * * * * * * * * * * * * * * * * * * * //

dimensions      [0 0 0 0 0 0 0];


internalField   nonuniform List<scalar> 
10108
(
0.149978
0.149978
0.149985
0.149989
0.14999
0.149992
0.149993
0.149999
0.150008
0.150015
0.150019
0.15002
0.150018
0.150016
0.150013
0.150011
0.150009
0.150008
0.150007
0.150006
0.150005
0.150005
0.150004
0.150004
0.150003
0.150003
0.150003
0.150002
0.150002
0.150002
0.150002
0.150002
0.150002
0.150002
0.150001
0.150001
0.150001
0.150001
0.150001
0.150001
0.150001
0.150001
0.15
0.15
0.15
0.15
0.15
0.149999
0.149999
0.149999
0.149998
0.149997
0.149995
0.149994
0.149995
0.15
0.15001
0.150024
0.150035
0.150032
0.150016
0.149999
0.149984
0.149978
0.149982
0.149975
0.149977
0.14999
0.150003
0.149841
0.149181
0.144317
0.137099
0.145146
0.148539
0.146033
0.139756
0.131472
0.127027
0.135077
0.143355
0.140425
0.130761
0.123535
0.120885
0.127116
0.137913
0.135127
0.123737
0.118632
0.11713
0.121393
0.133193
0.13083
0.118786
0.115618
0.114778
0.117477
0.129384
0.127359
0.11545
0.113741
0.113266
0.114721
0.126305
0.124584
0.113141
0.112531
0.112264
0.112726
0.123787
0.122299
0.11146
0.111725
0.111584
0.111222
0.121689
0.120397
0.110214
0.111196
0.111137
0.110083
0.119934
0.118785
0.109259
0.110836
0.110825
0.109195
0.118428
0.117399
0.108507
0.110592
0.110618
0.108497
0.117125
0.116204
0.107913
0.110435
0.110487
0.107943
0.115987
0.115165
0.10744
0.11034
0.110412
0.107504
0.114996
0.114258
0.107067
0.110295
0.110383
0.107159
0.11413
0.113463
0.106778
0.110289
0.11039
0.106895
0.113372
0.112769
0.106561
0.110315
0.110429
0.106701
0.112712
0.112165
0.106408
0.110371
0.110496
0.10657
0.112139
0.111644
0.106313
0.110453
0.110589
0.106496
0.111648
0.1112
0.106272
0.11056
0.110707
0.106476
0.111234
0.110831
0.106283
0.110691
0.110848
0.106508
0.110894
0.110535
0.106344
0.110846
0.111014
0.106591
0.110626
0.110308
0.106455
0.111025
0.111205
0.106726
0.11043
0.110152
0.106617
0.111228
0.111421
0.106911
0.110304
0.110065
0.106829
0.111457
0.111664
0.107149
0.110247
0.110047
0.107093
0.111712
0.111934
0.10744
0.110262
0.1101
0.10741
0.111995
0.112233
0.107786
0.110348
0.110225
0.107783
0.112309
0.112564
0.108189
0.110509
0.110426
0.108214
0.112655
0.11293
0.108655
0.110748
0.110704
0.108708
0.113036
0.113333
0.109185
0.111067
0.111065
0.109268
0.113455
0.113776
0.109786
0.111471
0.111512
0.1099
0.113917
0.114264
0.110462
0.111966
0.112051
0.11061
0.114424
0.1148
0.11122
0.112556
0.112689
0.111403
0.114981
0.115388
0.112065
0.113248
0.11343
0.112285
0.115591
0.116032
0.113005
0.114049
0.114283
0.113265
0.116259
0.116737
0.114049
0.114967
0.115257
0.114352
0.116989
0.117509
0.115205
0.116011
0.11636
0.115556
0.117789
0.118354
0.116485
0.117191
0.117604
0.116886
0.118663
0.119277
0.117899
0.118518
0.118997
0.118353
0.119616
0.120282
0.119456
0.12
0.12055
0.119968
0.120652
0.121373
0.121166
0.121649
0.122271
0.121738
0.121774
0.122551
0.123038
0.123469
0.124165
0.12367
0.122981
0.123811
0.125072
0.125464
0.126233
0.125765
0.124265
0.125144
0.127266
0.127631
0.128466
0.128014
0.125614
0.126531
0.129606
0.129955
0.130845
0.130398
0.127002
0.12794
0.132062
0.132409
0.133334
0.132878
0.128393
0.129328
0.134584
0.134947
0.135878
0.135395
0.129735
0.130634
0.137101
0.137504
0.138406
0.137868
0.130962
0.131784
0.139515
0.139993
0.140814
0.140187
0.131994
0.132691
0.1417
0.142299
0.142983
0.142215
0.132744
0.133271
0.143516
0.144297
0.144787
0.143817
0.133137
0.133459
0.14483
0.145866
0.146121
0.144865
0.133128
0.133232
0.145541
0.146917
0.146915
0.145286
0.132721
0.132605
0.145606
0.147404
0.147152
0.14508
0.131958
0.131597
0.145008
0.147353
0.146846
0.144154
0.130898
0.130331
0.14373
0.146764
0.145999
0.142601
0.12958
0.128892
0.141935
0.145672
0.144719
0.140654
0.128098
0.127364
0.139847
0.144214
0.143144
0.13851
0.126567
0.125852
0.137639
0.142531
0.141402
0.136305
0.125088
0.124444
0.135426
0.140733
0.139594
0.134139
0.123735
0.123159
0.133291
0.13891
0.137793
0.132078
0.122513
0.122
0.131282
0.137123
0.13605
0.130158
0.12142
0.120968
0.129425
0.135412
0.134397
0.128395
0.12045
0.120053
0.127725
0.133793
0.132844
0.126787
0.119589
0.119241
0.126174
0.132274
0.131389
0.125324
0.118823
0.118524
0.124775
0.130865
0.130044
0.124005
0.118148
0.117896
0.123499
0.129554
0.128806
0.12282
0.117528
0.117312
0.122339
0.12828
0.127665
0.12169
0.116947
0.116808
0.121407
0.1273
0.126774
0.120946
0.116604
0.116412
0.120289
0.126169
0.125999
0.120234
0.116108
0.1159
0.119493
0.125464
0.138621
0.150684
0.161017
0.170547
0.178623
0.185309
0.190882
0.195271
0.198923
0.201772
0.204056
0.205659
0.206699
0.20702
0.206668
0.205456
0.203399
0.200206
0.195927
0.189903
0.180735
0.170016
0.160602
0.144187
0.125523
0.117794
0.117702
0.122452
0.121914
0.127282
0.109151
0.111902
0.133531
0.128995
0.122337
0.123202
0.122367
0.120809
0.129445
0.129788
0.122862
0.124512
0.123872
0.122016
0.130217
0.130416
0.12282
0.124811
0.124613
0.122507
0.130665
0.130838
0.123391
0.125724
0.125557
0.122899
0.130988
0.131042
0.123694
0.126754
0.126514
0.123283
0.130841
0.130928
0.124188
0.127788
0.127531
0.123718
0.130692
0.130786
0.12459
0.128837
0.128565
0.124106
0.130534
0.130641
0.125012
0.129916
0.129631
0.124513
0.13037
0.13049
0.125455
0.131042
0.13075
0.124941
0.130203
0.130337
0.125918
0.132205
0.131894
0.125387
0.130028
0.130178
0.126406
0.13342
0.133098
0.125855
0.12985
0.130012
0.126906
0.13467
0.134324
0.126332
0.129658
0.129836
0.127424
0.135968
0.135611
0.126825
0.129459
0.129646
0.127942
0.137301
0.136913
0.127311
0.129241
0.129436
0.128457
0.138677
0.138268
0.127786
0.128997
0.129192
0.128937
0.140075
0.139622
0.12821
0.128708
0.128898
0.129356
0.141498
0.141011
0.128558
0.128353
0.128529
0.129668
0.142932
0.142387
0.128779
0.127907
0.128078
0.129849
0.144411
0.143816
0.128842
0.127352
0.127541
0.129877
0.145947
0.145282
0.128736
0.126687
0.126867
0.129852
0.147615
0.146902
0.12861
0.125967
0.12607
0.129893
0.149356
0.148339
0.128305
0.124754
0.124338
0.129956
0.150971
0.150033
0.128327
0.122665
0.122534
0.130999
0.153819
0.153569
0.130081
0.121371
0.121836
0.133874
0.158542
0.158933
0.133622
0.121147
0.121524
0.137632
0.164421
0.165569
0.138303
0.121271
0.122385
0.142642
0.171878
0.173653
0.143431
0.122694
0.125655
0.149307
0.181207
0.183794
0.150627
0.128472
0.134463
0.159604
0.193262
0.198011
0.163641
0.13871
0.146668
0.178516
0.210207
0.216282
0.191321
0.150844
0.134743
0.146718
0.176481
0.217946
0.180226
0.141527
0.14609
0.18375
0.223548
0.240861
0.201385
0.156189
0.161744
0.208381
0.250352
0.268259
0.226529
0.174161
0.185304
0.24447
0.286093
0.303048
0.269542
0.199753
0.168405
0.210915
0.261854
0.324393
0.276129
0.196344
0.21066
0.293697
0.350352
0.401358
0.343358
0.244311
0.276101
0.40006
0.455533
0.429235
0.342266
0.236463
0.336938
0.510051
0.580094
0.738902
0.638696
0.4102
0.726795
1
1
1
1
1
0.641772
0.842997
0.803405
0.406415
0.376041
0.251098
0.1816
0.251614
0.272538
0.23423
0.229447
0.187466
0.165137
0.177636
0.20859
0.203022
0.19013
0.169133
0.16521
0.18204
0.198506
0.164712
0.142937
0.148647
0.149484
0.162468
0.1794
0.175494
0.15595
0.14652
0.134999
0.126715
0.142011
0.162516
0.146111
0.135901
0.133752
0.139643
0.158232
0.12644
0.116099
0.126491
0.126922
0.133619
0.148929
0.144955
0.127968
0.125852
0.120495
0.108901
0.1161
0.1385
0.124299
0.120148
0.119361
0.118656
0.134164
0.107681
0.102257
0.11573
0.114589
0.116063
0.129717
0.12524
0.11107
0.114269
0.112161
0.0973194
0.101132
0.122055
0.108985
0.110141
0.110457
0.104832
0.117228
0.0955022
0.0934707
0.109647
0.106434
0.102757
0.115012
0.109962
0.0993324
0.106976
0.107176
0.0899639
0.0904384
0.108425
0.097072
0.103197
0.104122
0.0942809
0.103532
0.0862577
0.0868337
0.105562
0.100308
0.0921551
0.102288
0.097892
0.0895902
0.101322
0.10433
0.083561
0.0824282
0.0964495
0.0875404
0.0969721
0.0983126
0.0851514
0.0921214
0.0788112
0.0800168
0.103885
0.0956078
0.0829343
0.0892332
0.0785702
0.0787311
0.0979009
0.09279
0.0827562
0.0920098
0.086689
0.0801779
0.0942887
0.0987582
0.0767783
0.0749497
0.0850688
0.0786302
0.090888
0.0928314
0.0765037
0.0811942
0.0719205
0.0738955
0.0987203
0.089875
0.0739208
0.0788223
0.0708742
0.0724315
0.094254
0.0870505
0.074749
0.0819952
0.0768626
0.0724211
0.0886341
0.0941374
0.0712718
0.0693418
0.0753524
0.0710813
0.0869725
0.0911909
0.0698918
0.0682129
0.078258
0.0713541
0.08382
0.0860123
0.069587
0.0732854
0.0668778
0.0691863
0.0922814
0.0845251
0.068241
0.0718742
0.0658641
0.0674911
0.0886989
0.0809684
0.0673877
0.0728688
0.0689959
0.0664648
0.0837161
0.090247
0.0670211
0.0637104
0.0677678
0.0652273
0.0819519
0.0863264
0.0651316
0.0625238
0.0689652
0.0642998
0.0789137
0.0821452
0.0636284
0.0653673
0.0611076
0.0657147
0.0888636
0.0802093
0.0620174
0.0637698
0.0598863
0.0631696
0.0850639
0.0768225
0.0604631
0.0635942
0.0604242
0.0597338
0.0803354
0.0870214
0.0649545
0.0580888
0.0597724
0.0583349
0.0781346
0.0837512
0.0619652
0.0569952
0.0596515
0.0570268
0.0753858
0.0809143
0.0599171
0.056461
0.0598539
0.0571451
0.0740441
0.0778662
0.0566452
0.0566941
0.0553187
0.0625379
0.0848734
0.0758226
0.0546493
0.0560483
0.0542224
0.0603507
0.0818374
0.0738662
0.0542099
0.0559114
0.053548
0.0581764
0.0795666
0.0717691
0.0542728
0.0559999
0.0531597
0.0538216
0.075547
0.0829861
0.0610512
0.0529272
0.0523349
0.0517998
0.0741003
0.0804282
0.059005
0.0516158
0.0521486
0.0509909
0.071696
0.0776459
0.0572086
0.0509906
0.0521863
0.0505227
0.069897
0.0760026
0.0554325
0.0504839
0.0525921
0.0513517
0.0689048
0.0734158
0.051499
0.050097
0.0509305
0.0595691
0.0810665
0.0717481
0.0488936
0.0487137
0.0487868
0.0571963
0.0782981
0.0695251
0.0477284
0.0481082
0.0480381
0.0554113
0.0760976
0.0683766
0.0475162
0.0482984
0.0474812
0.0536464
0.074702
0.0668475
0.0484247
0.048672
0.0465424
0.0486008
0.071095
0.0784622
0.0581925
0.0480895
0.0459247
0.0466759
0.069457
0.076599
0.0555022
0.0465611
0.0456146
0.0456066
0.0677693
0.0742938
0.0539448
0.0459634
0.0452996
0.0449298
0.0659458
0.0727047
0.0530568
0.0455947
0.0453727
0.0449377
0.0651299
0.0717926
0.0520426
0.0453123
0.0460746
0.0462499
0.064579
0.0690947
0.0468967
0.0443367
0.0463288
0.0571074
0.0763573
0.0675193
0.0452123
0.0441219
0.0450418
0.0539729
0.0747338
0.0661902
0.0437246
0.0435261
0.0443187
0.0526008
0.0732533
0.0653071
0.0432669
0.043136
0.0439142
0.0521263
0.0723166
0.0643637
0.0430718
0.0428653
0.0433305
0.0513401
0.0711556
0.0636216
0.0441686
0.043513
0.0419931
0.0450014
0.0681022
0.0753402
0.0564676
0.0445323
0.0423506
0.0440338
0.066619
0.0741042
0.0531072
0.0436599
0.0418702
0.0423185
0.0652714
0.0723656
0.0516357
0.0429899
0.0414759
0.0418196
0.0641271
0.0713124
0.0510934
0.0425789
0.0413438
0.041802
0.0636231
0.0705315
0.0511117
0.0422222
0.0420442
0.0429439
0.0629316
0.0675876
0.0441341
0.0407532
0.0437042
0.0562196
0.0753129
0.0663349
0.0429513
0.0411831
0.0428044
0.052615
0.0738688
0.0648741
0.0412802
0.0406283
0.0420848
0.0511572
0.0722463
0.063851
0.0407175
0.0401604
0.0416096
0.0507193
0.0711778
0.0630931
0.0406867
0.0399083
0.0410002
0.0504982
0.0702362
0.0623798
0.041756
0.040597
0.0393628
0.042948
0.0670359
0.0744915
0.055548
0.0425792
0.0400238
0.0421145
0.0651721
0.0730042
0.0518983
0.0418513
0.0395633
0.0403453
0.0640679
0.0715675
0.0505032
0.0412155
0.0391964
0.0398935
0.0631328
0.0704309
0.0500287
0.0408116
0.039003
0.039848
0.062277
0.0693222
0.0498475
0.0402525
0.0395052
0.0408864
0.0614512
0.0661285
0.0423324
0.0384863
0.0419565
0.0551293
0.0739207
0.0650026
0.0416674
0.0394054
0.0414489
0.0516141
0.072971
0.0639429
0.0397664
0.0389242
0.0407466
0.0502889
0.0713317
0.0624779
0.0392455
0.0384091
0.0401753
0.0496275
0.0698549
0.0617586
0.0392275
0.0381303
0.0396137
0.0495216
0.0689857
0.061225
0.0402862
0.0386679
0.0376677
0.0415874
0.0657839
0.0733703
0.0545175
0.04126
0.0385805
0.040897
0.0643858
0.0720502
0.0507395
0.0405682
0.0380286
0.0388821
0.0627693
0.0702761
0.0495105
0.0399491
0.0378626
0.0389158
0.0622984
0.0694417
0.0494943
0.0395524
0.0382516
0.0400256
0.0614419
0.0660245
0.0414122
0.03732
0.0412483
0.0544922
0.0736566
0.0641186
0.0403521
0.0381585
0.0404736
0.0508418
0.0720809
0.063023
0.0388465
0.0378048
0.0398429
0.0495995
0.0704603
0.0618537
0.038622
0.0374558
0.0390318
0.0490153
0.0687876
0.0606401
0.0393558
0.0376186
0.0365473
0.0403702
0.0647476
0.0722129
0.0535397
0.0404965
0.0375182
0.0398589
0.0632618
0.0711834
0.0502802
0.0399089
0.03737
0.0385303
0.0622344
0.0691766
0.0489786
0.0390415
0.0373579
0.0390447
0.0606585
0.0649588
0.0404147
0.036402
0.0404689
0.0533067
0.0723165
0.0631447
0.0394562
0.0371182
0.0397563
0.0500728
0.0712305
0.0623637
0.0382691
0.0370063
0.0388562
0.048973
0.0692671
0.0603797
0.038712
0.0369998
0.0359833
0.039948
0.0645714
0.0717364
0.052834
0.0400432
0.0365145
0.0389726
0.0622637
0.0701686
0.0497184
0.0389453
0.0367377
0.0386378
0.0614768
0.0660948
0.040043
0.035877
0.0405077
0.0537641
0.0735993
0.063239
0.0390444
0.0363106
0.038739
0.0493806
0.0703417
0.0605204
0.0377323
0.0357371
0.03489
0.0390391
0.0651992
0.0734776
0.0535587
0.0398857
0.0357497
0.0386119
0.0635848
0.0709351
0.0495846
0.0385869
0.0353348
0.037595
0.0608724
0.0645551
0.0381841
0.0341794
0.0393783
0.0528759
0.0724467
0.0628537
0.0379227
0.0349481
0.0379989
0.0490272
0.0705506
0.0606038
0.036905
0.0346376
0.0337667
0.0380378
0.0647547
0.0715786
0.0516899
0.0384304
0.0340416
0.0366853
0.0609088
0.0688475
0.0481297
0.0371205
0.0340281
0.0364651
0.0597622
0.0640435
0.0377201
0.0333687
0.0378285
0.0515823
0.0709875
0.0594828
0.0367426
0.0335931
0.0325941
0.0370868
0.0629788
0.0714134
0.0516671
0.0376694
0.0333342
0.0371139
0.0615708
0.0658687
0.0375192
0.0325795
0.037697
0.0519365
0.0730384
0.060521
0.0361737
0.0327341
0.0317596
0.0367015
0.0643214
0.0727941
0.0518904
0.0373976
0.0325435
0.0365174
0.0620379
0.0655533
0.03614
0.031669
0.0369141
0.0515193
0.07261
0.0607732
0.035513
0.0317424
0.0309604
0.0358941
0.0651186
0.0726356
0.0507844
0.0360871
0.0312884
0.0344771
0.0589092
0.0612931
0.0363649
0.0301661
0.0296615
0.037664
0.0664538
0.0745859
0.0519105
0.036168
0.0305514
0.034543
0.0604292
0.0625557
0.0339143
0.029231
0.0293276
0.0391728
0.0686901
0.0708481
0.0364154
0.0284766
0.037071
0.0547994
0.0791824
0.0649453
0.035549
0.0301669
0.0293138
0.0346137
0.0687697
0.073262
0.039475
0.0292932
0.0289568
0.0385887
0.0787
0.0838735
0.0424347
0.0293568
0.0296683
0.0430376
0.0911545
0.0988258
0.0471989
0.0310271
0.032269
0.0499588
0.106127
0.109818
0.0537338
0.0335712
0.0342487
0.0555698
0.111186
0.112027
0.0586385
0.0353963
0.0360236
0.0605675
0.11243
0.112557
0.0637803
0.0374065
0.0380342
0.0658303
0.112338
0.112105
0.0693205
0.0397601
0.0405126
0.0713939
0.111887
0.111741
0.0744175
0.0425475
0.0434705
0.0767317
0.111681
0.111645
0.0790177
0.0461222
0.0472011
0.0811255
0.111663
0.111656
0.0831188
0.0501254
0.0511927
0.0849807
0.111705
0.111722
0.0868086
0.054143
0.055243
0.0885162
0.111819
0.111848
0.0901593
0.0581668
0.0592392
0.0917105
0.112004
0.112035
0.0931949
0.062159
0.0631875
0.0946125
0.11228
0.112246
0.0959286
0.0659438
0.0668758
0.0971903
0.112562
0.112466
0.0983516
0.0694714
0.07031
0.0994212
0.112827
0.112727
0.100414
0.0726965
0.0733914
0.101267
0.113017
0.112976
0.102078
0.0755843
0.0761501
0.10277
0.113191
0.113199
0.103443
0.0781209
0.0785442
0.103958
0.113331
0.113346
0.104504
0.080323
0.0806289
0.104899
0.113416
0.11343
0.105331
0.0821898
0.0823813
0.105587
0.113447
0.113453
0.105921
0.0837616
0.0838657
0.106091
0.113433
0.113419
0.106342
0.0850612
0.08508
0.106418
0.113387
0.113348
0.106587
0.0861298
0.0860811
0.106617
0.11331
0.113253
0.106717
0.0869834
0.0868718
0.106677
0.113204
0.113125
0.106723
0.0876596
0.0874999
0.106654
0.113065
0.112978
0.106654
0.0881736
0.0879708
0.106534
0.112913
0.112809
0.1065
0.0885567
0.0883224
0.106366
0.112738
0.112635
0.106303
0.0888207
0.0885399
0.106129
0.112558
0.112446
0.106047
0.0889821
0.0887022
0.105869
0.112368
0.112255
0.105769
0.0890845
0.0887796
0.105563
0.11218
0.112058
0.10545
0.0891216
0.0887983
0.105244
0.111978
0.111859
0.105117
0.0890989
0.0887541
0.10489
0.111783
0.111661
0.104757
0.0890234
0.0886648
0.104536
0.111582
0.111464
0.104393
0.0889009
0.0885169
0.104154
0.111387
0.111267
0.104008
0.0887324
0.0883343
0.103777
0.111188
0.111073
0.103622
0.0885318
0.0881198
0.103377
0.110997
0.110886
0.103225
0.0883019
0.0878829
0.10299
0.110805
0.110695
0.102831
0.088043
0.0876135
0.102582
0.110616
0.110515
0.102429
0.0877652
0.0873378
0.102194
0.110434
0.110337
0.102038
0.0874733
0.0870429
0.101789
0.110256
0.110165
0.10164
0.0871732
0.0867404
0.101409
0.110083
0.109998
0.101262
0.0868601
0.0864223
0.101021
0.109917
0.109838
0.100879
0.0865416
0.0861085
0.100656
0.109756
0.109684
0.100517
0.0862212
0.0857909
0.100286
0.109604
0.109539
0.100156
0.0859061
0.085483
0.0999435
0.109457
0.109398
0.0998189
0.085593
0.0851752
0.0995984
0.109318
0.109265
0.0994841
0.0852896
0.0848808
0.0992827
0.109186
0.109139
0.0991757
0.0849913
0.0845897
0.0989669
0.109062
0.10902
0.0988707
0.0847057
0.0843127
0.098681
0.108944
0.108908
0.0985925
0.0844253
0.084041
0.0983951
0.108834
0.108802
0.0983182
0.0841599
0.0837839
0.0981391
0.108729
0.108704
0.0980685
0.0838999
0.083532
0.0978821
0.108633
0.108611
0.0978244
0.083655
0.0832951
0.0976548
0.108542
0.108524
0.0976014
0.0834149
0.0830625
0.097426
0.108456
0.108443
0.0973819
0.0831893
0.082844
0.0972232
0.108376
0.108367
0.0971827
0.082968
0.0826296
0.097019
0.108301
0.108295
0.0969858
0.0827611
0.0824304
0.0968381
0.10823
0.108228
0.0968078
0.0825586
0.0822336
0.0966545
0.108164
0.108164
0.096631
0.0823694
0.0820517
0.0964934
0.108102
0.108106
0.0964727
0.0821842
0.0818719
0.0963292
0.108044
0.10805
0.0963148
0.0820121
0.0817065
0.0961865
0.107989
0.107998
0.0961742
0.081842
0.0815433
0.0960397
0.107939
0.107949
0.0960334
0.0816868
0.0813927
0.0959134
0.107891
0.107904
0.0959088
0.0815319
0.0812437
0.095782
0.107846
0.107861
0.0957827
0.0813907
0.0811079
0.09567
0.107804
0.107821
0.0956721
0.0812499
0.0809722
0.095552
0.107764
0.107782
0.0955591
0.081122
0.0808491
0.0954526
0.107726
0.107746
0.0954605
0.0809939
0.080725
0.0953462
0.107691
0.107712
0.0953587
0.0808776
0.0806136
0.0952577
0.107657
0.10768
0.0952709
0.0807623
0.0804981
0.0951616
0.107625
0.107649
0.0951791
0.0806572
0.0803971
0.0950828
0.107595
0.10762
0.0951007
0.0805522
0.0802913
0.0949958
0.107567
0.107593
0.0950177
0.0804558
0.0801998
0.0949254
0.10754
0.107567
0.0949476
0.0803597
0.0801032
0.0948466
0.107515
0.107543
0.0948724
0.0802719
0.0800202
0.0947839
0.10749
0.10752
0.0948098
0.0801843
0.0799319
0.0947123
0.107468
0.107498
0.0947418
0.0801048
0.0798573
0.0946567
0.107446
0.107478
0.0946861
0.0800254
0.0797769
0.0945919
0.107427
0.107458
0.0946248
0.0799537
0.0797099
0.0945429
0.107408
0.10744
0.0945755
0.0798817
0.0796367
0.0944844
0.10739
0.107423
0.0945203
0.0798169
0.0795761
0.0944412
0.107373
0.107407
0.0944766
0.0797511
0.0795088
0.0943879
0.107358
0.107392
0.0944263
0.0796921
0.0794541
0.0943495
0.107342
0.107377
0.0943872
0.0796319
0.0793922
0.0943005
0.107328
0.107362
0.0943409
0.079578
0.0793419
0.0942657
0.107313
0.107348
0.094305
0.0795218
0.0792836
0.0942196
0.107299
0.107334
0.0942613
0.0794714
0.0792365
0.0941869
0.107284
0.107319
0.0942273
0.0794181
0.0791806
0.0941422
0.107269
0.107305
0.0941846
0.0793697
0.0791356
0.0941104
0.107254
0.10729
0.0941512
0.0793182
0.0790813
0.0940662
0.107239
0.107274
0.0941088
0.0792712
0.0790371
0.0940343
0.107223
0.107259
0.0940753
0.0792204
0.0789834
0.09399
0.107208
0.107243
0.094033
0.0791743
0.0789409
0.0939589
0.107193
0.107229
0.0940006
0.0791254
0.0788896
0.0939163
0.10718
0.107216
0.0939604
0.0790818
0.0788498
0.0938877
0.107167
0.107204
0.093931
0.0790363
0.0788018
0.0938482
0.107155
0.107193
0.0938929
0.0789963
0.0787618
0.0938111
0.107143
0.107181
0.0938566
0.0789456
0.0787174
0.0937827
0.107118
0.107158
0.0938246
0.0788991
0.0786558
0.0937394
0.107112
0.107156
0.0937818
0.07884
0.0785698
0.0936705
0.107078
0.107128
0.0937105
0.0787125
0.0783959
0.093579
0.107033
0.10707
0.0936105
0.0785037
0.0781435
0.0934554
0.106949
0.106843
0.0933116
0.0780134
0.0768927
0.092517
0.106347
0.105602
0.0913765
0.0754435
0.0739863
0.0903538
0.104838
0.0584422
0.0491963
0.0482778
0.0490827
0.0524453
0.0553394
0.0576514
0.0586655
0.0617024
0.0634522
0.063719
0.0635748
0.0632742
0.0628601
0.06246
0.0621261
0.0618679
0.0616762
0.0615356
0.0614328
0.061357
0.0613007
0.0612584
0.0612262
0.0612014
0.0611825
0.0611678
0.061157
0.0611493
0.0611441
0.0611412
0.0611399
0.0611386
0.0611391
0.0611399
0.0611409
0.0611424
0.0611443
0.0611469
0.0611504
0.061155
0.061161
0.0611688
0.0611785
0.0611904
0.0612045
0.0612206
0.061238
0.0612583
0.0612884
0.0613362
0.0613996
0.061471
0.0615453
0.0616213
0.0616994
0.0617807
0.0618658
0.0619551
0.0620488
0.0621469
0.0622501
0.062359
0.0624749
0.0625993
0.0627341
0.0628813
0.0630429
0.0632212
0.0634185
0.0636374
0.0638803
0.0641501
0.0644496
0.0647818
0.0651497
0.0655562
0.0660042
0.0664966
0.0670354
0.0676234
0.0682621
0.068953
0.0696974
0.0704953
0.0713475
0.0722529
0.0732114
0.0742211
0.0752812
0.0763892
0.0775436
0.0787413
0.0799802
0.0812574
0.0825702
0.0839156
0.0852908
0.0866927
0.0881184
0.0895648
0.091029
0.0925082
0.0939994
0.0955005
0.0970077
0.0985197
0.100033
0.101545
0.103054
0.104558
0.106053
0.10754
0.109014
0.110475
0.111921
0.11335
0.114761
0.116151
0.11752
0.118867
0.12019
0.121488
0.12276
0.124005
0.125224
0.126414
0.127575
0.128707
0.129809
0.130881
0.131923
0.132935
0.133915
0.134865
0.135784
0.136672
0.137529
0.138355
0.139152
0.139917
0.140653
0.141359
0.142035
0.142683
0.143301
0.14389
0.144452
0.144985
0.145491
0.145969
0.14642
0.146845
0.147243
0.147614
0.14796
0.148279
0.148573
0.14884
0.149081
0.149294
0.149479
0.149633
0.149758
0.149853
0.149914
0.149945
0.149958
0.14997
0.149968
0.149967
0.14996
0.149952
0.149947
0.149953
0.149967
0.149982
0.149992
0.149996
0.149996
0.149994
0.149991
0.149988
0.149986
0.149984
0.149983
0.149983
0.149982
0.149982
0.149982
0.149982
0.149983
0.149983
0.149984
0.149986
0.149987
0.149989
0.14999
0.149992
0.149995
0.149997
0.149999
0.150002
0.150005
0.150008
0.150011
0.150014
0.150017
0.15002
0.150024
0.150028
0.150032
0.150036
0.150041
0.150046
0.150052
0.150058
0.150065
0.150076
0.150093
0.15012
0.150159
0.150201
0.150222
0.150197
0.150129
0.15004
0.149952
0.149859
0.149696
0.149045
0.148192
0.145867
0.144506
0.143454
0.142099
0.141153
0.139846
0.139015
0.137763
0.137043
0.135847
0.135235
0.13411
0.133597
0.13253
0.132094
0.131087
0.130724
0.129775
0.129475
0.128583
0.128335
0.127501
0.127295
0.126519
0.126351
0.125627
0.125496
0.12482
0.124724
0.124094
0.124033
0.123448
0.123421
0.122879
0.122886
0.122387
0.122427
0.12197
0.122045
0.121628
0.121737
0.12136
0.121505
0.121168
0.121348
0.121052
0.121271
0.121015
0.121273
0.12106
0.121359
0.121189
0.121532
0.121405
0.121796
0.121715
0.122155
0.122122
0.122615
0.122632
0.123183
0.123251
0.123863
0.123985
0.124663
0.124843
0.125592
0.125832
0.126657
0.126962
0.127868
0.128239
0.129232
0.129672
0.130756
0.131267
0.132445
0.133026
0.134298
0.134947
0.13631
0.137019
0.138465
0.139222
0.140736
0.141523
0.143083
0.143872
0.145447
0.146205
0.147752
0.148432
0.149897
0.150456
0.151785
0.15218
0.153323
0.153525
0.15444
0.154434
0.155099
0.154884
0.155304
0.154899
0.155084
0.154521
0.154489
0.153791
0.153582
0.152779
0.152443
0.151568
0.151152
0.150236
0.149779
0.148852
0.148375
0.147462
0.146984
0.146098
0.145631
0.144777
0.144322
0.143501
0.143077
0.142293
0.141883
0.141142
0.140733
0.140105
0.139867
0.139439
0.138977
0.138666
0.150754
0.16134
0.16146
0.15083
0.151131
0.161549
0.161009
0.151188
0.151035
0.159362
0.175892
0.172373
0.171722
0.171178
0.179256
0.17962
0.179949
0.187425
0.186725
0.186022
0.191564
0.192241
0.192777
0.191395
0.192199
0.176838
0.162383
0.151962
0.151857
0.16017
0.1631
0.152917
0.152828
0.161105
0.177709
0.17876
0.164024
0.153936
0.153848
0.162043
0.164973
0.154976
0.154895
0.162987
0.179791
0.180771
0.165921
0.156039
0.155959
0.163931
0.166872
0.157121
0.157037
0.164885
0.181734
0.182696
0.167829
0.158215
0.15812
0.165851
0.168793
0.159315
0.159197
0.166823
0.183671
0.184618
0.169749
0.1604
0.160241
0.167792
0.170691
0.16144
0.161218
0.168737
0.185556
0.186444
0.171591
0.162386
0.162073
0.169629
0.172416
0.16319
0.162738
0.170339
0.187224
0.187806
0.173071
0.163775
0.163148
0.170821
0.173468
0.164079
0.163234
0.170998
0.188091
0.187969
0.173512
0.164029
0.162932
0.170791
0.173128
0.163561
0.162204
0.17015
0.187356
0.18622
0.17228
0.16265
0.161052
0.169065
0.170979
0.161322
0.159521
0.167575
0.184579
0.182518
0.169273
0.159627
0.157679
0.165739
0.167268
0.157645
0.155608
0.163688
0.180142
0.17758
0.165068
0.155482
0.153419
0.161494
0.162762
0.153234
0.151188
0.159241
0.174953
0.172313
0.160424
0.150975
0.14898
0.156996
0.158121
0.148763
0.146843
0.154816
0.16973
0.167246
0.155904
0.146643
0.144814
0.152739
0.153806
0.14465
0.142924
0.150788
0.164895
0.162696
0.151847
0.142802
0.141184
0.14898
0.150039
0.141109
0.139597
0.147323
0.160659
0.158787
0.148387
0.139573
0.138164
0.145817
0.14689
0.138192
0.136882
0.14446
0.157077
0.155525
0.145542
0.136961
0.135744
0.143247
0.144338
0.135873
0.134744
0.142169
0.154121
0.152856
0.143269
0.134921
0.133872
0.14122
0.142327
0.134095
0.133122
0.140392
0.151722
0.150708
0.141505
0.133388
0.132486
0.139675
0.140795
0.132794
0.131957
0.139063
0.149805
0.149008
0.14019
0.132306
0.131531
0.138553
0.139685
0.131918
0.131201
0.138139
0.148314
0.147715
0.139274
0.131624
0.130961
0.137815
0.138949
0.13142
0.130807
0.137574
0.147202
0.14677
0.138705
0.131298
0.130733
0.13741
0.138536
0.131256
0.130736
0.13732
0.146411
0.146119
0.138438
0.131289
0.130812
0.1373
0.138407
0.131397
0.130963
0.137346
0.145889
0.145718
0.138441
0.131575
0.131184
0.137456
0.138536
0.13182
0.131471
0.137626
0.145601
0.145534
0.138689
0.132133
0.131825
0.137854
0.138901
0.132511
0.132244
0.138139
0.145514
0.14554
0.139169
0.132954
0.132729
0.138479
0.139492
0.133463
0.133279
0.138874
0.145609
0.145714
0.139869
0.134038
0.133895
0.139327
0.140305
0.134676
0.134574
0.13983
0.145849
0.146016
0.140791
0.135375
0.135312
0.140378
0.141318
0.136133
0.13611
0.140968
0.146216
0.146446
0.141884
0.136951
0.13697
0.141598
0.142489
0.137831
0.137895
0.14227
0.146706
0.146994
0.143133
0.138775
0.138885
0.142981
0.14381
0.139785
0.139947
0.143739
0.147306
0.147636
0.144518
0.140862
0.141077
0.144527
0.145247
0.141978
0.142273
0.145341
0.147979
0.148339
0.146003
0.143157
0.143536
0.146178
0.146779
0.14439
0.144839
0.147022
0.148709
0.149072
0.147554
0.145651
0.146164
0.147849
0.148315
0.146929
0.147491
0.148651
0.149412
0.149749
0.149614
0.149464
0.149315
0.149178
0.149059
0.148958
0.148877
0.148821
0.14879
0.148787
0.148812
0.148867
0.148953
0.149074
0.149233
0.149434
0.149681
0.149973
0.150316
0.150712
0.151169
0.151691
0.152285
0.152957
0.153714
0.154563
0.155515
0.156569
0.157729
0.159009
0.160424
0.161987
0.16371
0.165605
0.167685
0.16996
0.172438
0.175124
0.178019
0.181109
0.184373
0.187776
0.191252
0.194753
0.198002
0.200859
0.203177
0.204793
0.205644
0.205788
0.205378
0.204598
0.203619
0.202565
0.201511
0.200461
0.199393
0.198306
0.197193
0.196041
0.194815
0.193597
0.204032
0.202308
0.200862
0.197404
0.19668
0.195934
0.199606
0.200408
0.201043
0.204108
0.20329
0.202458
0.204795
0.205717
0.20656
0.207163
0.209112
0.213391
0.211037
0.208351
0.207384
0.206425
0.207532
0.20858
0.20968
0.210146
0.209013
0.207907
0.207639
0.208829
0.210059
0.212491
0.215179
0.218117
0.215869
0.211196
0.213137
0.205597
0.207124
0.208586
0.216874
0.215032
0.220523
0.218212
0.220919
0.223731
0.226542
0.222801
0.225056
0.218668
0.209994
0.211354
0.22042
0.222142
0.212676
0.213982
0.223852
0.231797
0.229529
0.227293
0.232216
0.229367
0.230972
0.227412
0.223937
0.220519
0.217192
0.21372
0.210706
0.208887
0.207661
0.206463
0.204414
0.205645
0.206949
0.202858
0.201976
0.200949
0.19583
0.196716
0.198022
0.202979
0.206266
0.191982
0.187411
0.187871
0.187448
0.186618
0.185853
0.169478
0.168851
0.163299
0.145349
0.132678
0.135962
0.149562
0.146494
0.134438
0.137539
0.152198
0.168707
0.169582
0.152902
0.148271
0.136234
0.138078
0.137323
0.149541
0.154372
0.170618
0.171977
0.174674
0.17612
0.191413
0.196335
0.210255
0.214227
0.218422
0.222776
0.210981
0.205702
0.205823
0.200635
0.200935
0.195886
0.180581
0.179097
0.161994
0.156662
0.159809
0.154657
0.158078
0.152908
0.156044
0.151058
0.138644
0.139459
0.140892
0.140104
0.142462
0.141586
0.144065
0.143187
0.145705
0.144778
0.158549
0.1638
0.160682
0.146501
0.147361
0.149161
0.166171
0.183772
0.185374
0.168106
0.162709
0.148205
0.150942
0.150059
0.165
0.170655
0.188783
0.190511
0.194156
0.196036
0.211135
0.216439
0.227331
0.232107
0.234633
0.238457
0.235118
0.238143
0.241375
0.234131
0.22558
0.215322
0.216683
0.227373
0.229189
0.217955
0.219014
0.230748
0.241491
0.239086
0.236554
0.244845
0.248415
0.251996
0.264115
0.258233
0.252484
0.24722
0.242582
0.242822
0.237167
0.228237
0.222962
0.222199
0.216896
0.201972
0.199922
0.180734
0.1747
0.177748
0.172027
0.175487
0.169654
0.172736
0.167187
0.151891
0.152877
0.154797
0.15389
0.156886
0.155868
0.158967
0.158034
0.161236
0.160183
0.177297
0.1832
0.180208
0.162548
0.16351
0.166012
0.186453
0.206108
0.208319
0.189169
0.18307
0.164931
0.16856
0.167575
0.18628
0.192729
0.212709
0.214994
0.229265
0.23448
0.236064
0.22234
0.219637
0.199416
0.192884