/*--------------------------------*- C++ -*----------------------------------*\
| =========                 |                                                 |
| \\      /  F ield         | OpenFOAM: The Open Source CFD Toolbox           |
|  \\    /   O peration     | Version:  v2006                                 |
|   \\  /    A nd           | Website:  www.openfoam.com                      |
|    \\/     M anipulation  |                                                 |
\*---------------------------------------------------------------------------*/
FoamFile
{
    version     2.0;
    format      ascii;
    class       volScalarField;
    location    "0.034";
    object      turbulenceProperties:L;
}
// * * * * * * * * * * * * * * * * * * * * * * * * * * * * * * * * * * * * * //

dimensions      [0 1 0 0 0 0 0];


internalField   nonuniform List<scalar> 
10108
(
1998.83
1998.82
1999.17
1999.45
1999.45
1999.58
1999.38
1998.88
1998.03
1997.06
1996.16
1995.41
1994.78
1994.24
1993.75
1993.29
1992.84
1992.41
1992
1991.61
1991.24
1990.88
1990.55
1990.23
1989.93
1989.65
1989.39
1989.15
1988.93
1988.72
1988.54
1988.38
1988.24
1988.12
1988.02
1987.93
1987.83
1987.67
1987.37
1986.7
1985.2
1981.81
1974.07
1955.56
1916.68
1839.22
1695.2
1456.74
1128.69
774.763
476.865
271.772
147.085
78.0041
41.1681
22.0227
12.6493
9.41651
6.485
5.32298
4.94998
3.89946
2.07509
1.68903
1.84364
0.694738
0.250338
0.0951055
0.0256974
0.00318402
0.000593561
4.27201e-05
4.1704e-05
0.000299561
0.0012738
0.000825156
0.000228096
4.0899e-05
4.0322e-05
0.00020635
0.000676209
0.000589548
0.000194469
4.03891e-05
4.00692e-05
0.000183069
0.000536057
0.000495179
0.000178012
3.99555e-05
3.97516e-05
0.000172556
0.000473281
0.000450217
0.000169207
3.96127e-05
3.95631e-05
0.000168372
0.000440266
0.000423713
0.000165284
3.95213e-05
3.94868e-05
0.000165083
0.00041908
0.00040722
0.000162486
3.94466e-05
3.94192e-05
0.000162475
0.000404059
0.000394558
0.000160212
3.93845e-05
3.9361e-05
0.000160226
0.000392233
0.00038415
0.000158219
3.93303e-05
3.93093e-05
0.000158191
0.000382391
0.000375272
0.000156399
3.92814e-05
3.92623e-05
0.000156342
0.000373915
0.000367506
0.000154713
3.92364e-05
3.92187e-05
0.000154645
0.00036644
0.000360599
0.000153144
3.91942e-05
3.91774e-05
0.000153069
0.000359721
0.00035436
0.000151669
3.9154e-05
3.91377e-05
0.000151596
0.000353628
0.000348659
0.00015028
3.9115e-05
3.90992e-05
0.000150217
0.000348045
0.000343403
0.000148971
3.90769e-05
3.90613e-05
0.00014892
0.000342887
0.000338524
0.000147733
3.90394e-05
3.90238e-05
0.000147697
0.00033809
0.00033396
0.00014656
3.9002e-05
3.89863e-05
0.000146538
0.000333599
0.000329657
0.000145443
3.89645e-05
3.89487e-05
0.000145436
0.00032937
0.000325598
0.000144377
3.89267e-05
3.89107e-05
0.000144385
0.000325377
0.000321757
0.000143357
3.88883e-05
3.8872e-05
0.000143381
0.000321592
0.000318108
0.000142381
3.88492e-05
3.88324e-05
0.00014242
0.00031799
0.000314626
0.000141443
3.8809e-05
3.87917e-05
0.000141498
0.000314548
0.000311291
0.000140541
3.87677e-05
3.87497e-05
0.000140611
0.000311247
0.000308085
0.00013967
3.87249e-05
3.87061e-05
0.000139755
0.000308069
0.000304992
0.000138827
3.86803e-05
3.86608e-05
0.000138927
0.000304999
0.000301996
0.000138009
3.86338e-05
3.86133e-05
0.000138123
0.000302023
0.000299086
0.000137211
3.85851e-05
3.85633e-05
0.00013734
0.000299126
0.000296247
0.000136431
3.85336e-05
3.85106e-05
0.000136573
0.000296297
0.000293466
0.000135665
3.84792e-05
3.84547e-05
0.000135821
0.000293522
0.000290733
0.00013491
3.84213e-05
3.83951e-05
0.000135079
0.00029079
0.000288033
0.000134163
3.83595e-05
3.83314e-05
0.000134346
0.000288089
0.00028536
0.000133422
3.82932e-05
3.82629e-05
0.00013362
0.000285412
0.000282705
0.000132686
3.82219e-05
3.81891e-05
0.000132895
0.000282752
0.000280064
0.000131953
3.81447e-05
3.81092e-05
0.000132178
0.000280106
0.000277434
0.000131228
3.8061e-05
3.80224e-05
0.00013147
0.000277472
0.000274814
0.00013051
3.797e-05
3.79278e-05
0.000130772
0.000274849
0.000272205
0.0001298
3.78707e-05
3.78246e-05
0.000130084
0.000272239
0.00026961
0.000129101
3.77622e-05
3.77117e-05
0.000129412
0.000269664
0.00026704
0.000128418
3.76432e-05
3.75878e-05
0.000128764
0.00026714
0.000264513
0.000127762
3.75127e-05
3.7452e-05
0.000128151
0.000264666
0.000262042
0.000127145
3.73694e-05
3.73031e-05
0.000127587
0.000262277
0.000259666
0.000126584
3.72125e-05
3.71401e-05
0.000127089
0.000260018
0.000257439
0.000126119
3.70412e-05
3.69625e-05
0.000126685
0.000257955
0.000255431
0.000125771
3.68552e-05
3.67706e-05
0.000126417
0.000256169
0.000253733
0.000125584
3.66551e-05
3.65654e-05
0.000126328
0.000254689
0.000252429
0.000125597
3.64429e-05
3.63496e-05
0.00012647
0.000253719
0.000251676
0.000125869
3.62219e-05
3.61275e-05
0.0001269
0.000253382
0.000251608
0.000126458
3.59976e-05
3.59054e-05
0.000127676
0.000253804
0.000252348
0.000127416
3.57776e-05
3.56919e-05
0.000128848
0.000255117
0.000254021
0.000128783
3.5571e-05
3.54963e-05
0.000130439
0.00025743
0.000256692
0.000130568
3.53877e-05
3.5328e-05
0.000132428
0.000260769
0.000260406
0.000132716
3.52362e-05
3.51938e-05
0.000134734
0.000265062
0.000265053
0.000135127
3.51216e-05
3.50962e-05
0.000137229
0.000270117
0.000270504
0.000137684
3.50456e-05
3.50355e-05
0.000139694
0.000275665
0.000276204
0.000139765
3.50092e-05
3.50073e-05
0.000141617
0.000281248
0.000281855
0.00014143
3.49954e-05
3.49991e-05
0.000143143
0.000286817
0.000287278
0.000142835
3.49954e-05
3.50037e-05
0.000144364
0.000292008
0.000292216
0.000143971
3.5005e-05
3.50167e-05
0.000145274
0.000296606
0.00029651
0.000144796
3.50207e-05
3.5036e-05
0.000145884
0.000300522
0.000300125
0.000145331
3.50412e-05
3.50573e-05
0.000146232
0.000303743
0.000303101
0.000145626
3.50629e-05
3.50789e-05
0.000146372
0.000306346
0.000305491
0.000145734
3.50845e-05
3.50998e-05
0.000146343
0.000308405
0.000307417
0.000145701
3.51053e-05
3.51198e-05
0.000146201
0.000310005
0.000308957
0.000145572
3.51251e-05
3.5147e-05
0.000145999
0.000311258
0.000310135
0.000145383
3.51371e-05
3.5166e-05
0.000145742
0.000312193
0.000311026
0.000145119
3.51485e-05
3.51846e-05
0.000145452
0.000312911
0.000311679
0.000144933
3.51446e-05
3.5334e-05
0.000145609
0.000314018
0.000315351
0.000145493
3.54745e-05
3.61404e-05
0.000148078
0.00032047
0.000324967
0.000149602
3.6433e-05
3.68911e-05
0.000148498
0.000323223
0.00033548
0.000154611
3.73409e-05
3.81543e-05
0.000154644
0.000339317
0.000810827
0.00140049
0.00200992
0.00263309
0.00317363
0.0037526
0.00426055
0.00471186
0.00506994
0.00533537
0.00548901
0.00552471
0.00543376
0.00521357
0.00487863
0.00443527
0.00392825
0.00337045
0.00285244
0.002273
0.00165196
0.00115866
0.000873159
0.000459483
0.000156599
7.51321e-05
2.03579e-05
1.32389e-05
6.87046e-05
0.000134454
4.94377e-05
2.07605e-05
7.08914e-06
9.42192e-06
4.6081e-05
0.00010937
0.000101828
4.20319e-05
1.04134e-05
1.05042e-05
4.61628e-05
0.00011062
0.000103721
4.2687e-05
1.03707e-05
1.02983e-05
4.424e-05
0.00010676
0.000102298
4.19583e-05
1.01786e-05
1.01317e-05
4.38969e-05
0.000105672
0.000102492
4.20541e-05
1.00009e-05
1.00516e-05
4.36973e-05
0.000106447
0.000103266
4.21313e-05
1.00483e-05
1.01008e-05
4.40305e-05
0.000107361
0.000104506
4.26386e-05
1.00924e-05
1.01395e-05
4.44237e-05
0.000108479
0.000105588
4.3015e-05
1.01371e-05
1.01855e-05
4.48332e-05
0.000109618
0.000106703
4.34069e-05
1.01836e-05
1.02333e-05
4.52603e-05
0.0001108
0.000107853
4.38137e-05
1.02317e-05
1.02828e-05
4.5701e-05
0.000112
0.000109023
4.42345e-05
1.02818e-05
1.03343e-05
4.616e-05
0.000113248
0.000110209
4.46716e-05
1.03338e-05
1.03877e-05
4.66319e-05
0.000114516
0.000111457
4.51196e-05
1.03878e-05
1.04434e-05
4.71201e-05
0.00011581
0.0001127
4.55836e-05
1.04442e-05
1.05014e-05
4.76198e-05
0.000117136
0.000114003
4.60562e-05
1.05031e-05
1.05621e-05
4.81323e-05
0.000118489
0.000115301
4.65404e-05
1.05648e-05
1.06258e-05
4.86505e-05
0.000119869
0.000116649
4.70258e-05
1.06296e-05
1.06928e-05
4.91697e-05
0.000121253
0.000117982
4.75061e-05
1.06982e-05
1.07641e-05
4.96732e-05
0.000122607
0.000119243
4.79593e-05
1.07716e-05
1.08418e-05
5.01383e-05
0.000123905
0.000120433
4.83499e-05
1.08528e-05
1.09319e-05
5.05321e-05
0.000125156
0.000121657
4.86512e-05
1.09499e-05
1.10407e-05
5.08878e-05
0.000126713
0.00012346
4.89794e-05
1.10752e-05
1.1185e-05
5.15399e-05
0.000129294
0.000126691
4.99254e-05
1.12395e-05
1.13586e-05
5.36381e-05
0.000134408
0.000131654
5.20446e-05
1.13883e-05
1.14774e-05
5.61599e-05
0.000140262
0.000137068
5.42339e-05
1.15704e-05
1.19506e-05
5.85926e-05
0.000146443
0.000143814
5.80835e-05
1.21673e-05
1.25376e-05
6.06664e-05
0.000152011
0.000150988
6.22057e-05
1.29701e-05
1.33716e-05
6.52923e-05
0.000158572
0.000156788
6.45136e-05
1.3843e-05
1.44562e-05
6.901e-05
0.000165874
0.000163391
6.69965e-05
1.51929e-05
1.62981e-05
7.19801e-05
0.000171376
0.000172103
7.21211e-05
1.75999e-05
1.96839e-05
8.18219e-05
0.000183134
0.000180539
9.26877e-05
1.47268e-05
9.023e-06
2.75989e-05
7.32725e-05
0.000166043
6.92609e-05
1.26225e-05
1.47463e-05
6.68373e-05
0.000165647
0.000194723
8.092e-05
1.65834e-05
1.79966e-05
8.31794e-05
0.000198138
0.000215934
9.14073e-05
1.97494e-05
2.16376e-05
9.97455e-05
0.000228845
0.00022303
0.000109046
1.63709e-05
9.99732e-06
3.51187e-05
9.38038e-05
0.00019732
8.56186e-05
1.43043e-05
1.67949e-05
8.25605e-05
0.000199697
0.000228708
9.56344e-05
1.95747e-05
1.53111e-05
0.000106504
0.000233205
0.000106851
4.11729e-05
1.0051e-05
1.59711e-05
9.68679e-05
0.000231076
0.000274871
0.00011367
2.04549e-05
1.75186e-05
0.00012466
0.000308705
0.000257733
0.000100277
1.47021e-05
1.52183e-05
0.00010873
0.000320376
0.000220517
7.98608e-05
1.19204e-05
1.24395e-05
8.37473e-05
0.00023049
0.000495756
0.000157298
1.71386e-05
1.6289e-05
3.96366e-05
9.40392e-05
0.00016858
7.77518e-05
1.75198e-05
1.9342e-05
6.64569e-05
0.000150143
5.68381e-05
2.49145e-05
1.26334e-05
1.54315e-05
6.47993e-05
0.000116373
0.000113571
5.92689e-05
1.80067e-05
1.20106e-05
2.42898e-05
5.21038e-05
0.000107937
6.31219e-05
1.51047e-05
1.77524e-05
5.68513e-05
0.000105001
4.96481e-05
2.40229e-05
1.17316e-05
1.4992e-05
6.18832e-05
0.000103565
0.000100868
5.59257e-05
1.78009e-05
1.16796e-05
2.35091e-05
4.80317e-05
0.000100235
6.02913e-05
1.48505e-05
1.7623e-05
5.40705e-05
9.69764e-05
4.6284e-05
2.28994e-05
1.15232e-05
1.47888e-05
5.87746e-05
9.72684e-05
9.39545e-05
5.2909e-05
1.76921e-05
1.15626e-05
2.25031e-05
4.50128e-05
9.44961e-05
5.71782e-05
1.46538e-05
1.75729e-05
5.1086e-05
9.02121e-05
4.34802e-05
2.20359e-05
1.14729e-05
1.45435e-05
5.53868e-05
9.13604e-05
8.70743e-05
4.98238e-05
1.74572e-05
1.1335e-05
2.15481e-05
4.19745e-05
8.76435e-05
5.33627e-05
1.43424e-05
1.72124e-05
4.78676e-05
8.31345e-05
4.03257e-05
2.08468e-05
1.11261e-05
1.39992e-05
5.10918e-05
8.36012e-05
7.95411e-05
4.57902e-05
1.68158e-05
1.08522e-05
1.99212e-05
3.84822e-05
7.85518e-05
4.87026e-05
1.33672e-05
1.59784e-05
4.27188e-05
7.40154e-05
3.49857e-05
1.7808e-05
9.95623e-06
1.15614e-05
5.1378e-05
6.62796e-05
4.03845e-05
2.31433e-05
1.28624e-05
1.53681e-05
5.00113e-05
8.2044e-05
7.51854e-05
4.34935e-05
1.7681e-05
1.10779e-05
1.92587e-05
3.66629e-05
7.16417e-05
4.49335e-05
1.33968e-05
1.60092e-05
4.05199e-05
6.76377e-05
3.31476e-05
1.71499e-05
9.99399e-06
1.14528e-05
4.69113e-05
6.06794e-05
3.76598e-05
2.19841e-05
1.28399e-05
1.51336e-05
4.69597e-05
7.53779e-05
6.88953e-05
4.08759e-05
1.73895e-05
1.07825e-05
1.79632e-05
3.42005e-05
6.10796e-05
4.49704e-05
1.20597e-05
1.3263e-05
2.2603e-05
3.82663e-05
7.48838e-05
4.67875e-05
1.52406e-05
1.74689e-05
4.03268e-05
6.78532e-05
3.3537e-05
1.75759e-05
1.0797e-05
1.20296e-05
4.46573e-05
5.91899e-05
3.75311e-05
2.21787e-05
1.32585e-05
1.53157e-05
4.49247e-05
7.08969e-05
6.49085e-05
3.9333e-05
1.77042e-05
1.09665e-05
1.74798e-05
3.24064e-05
5.63421e-05
4.41493e-05
1.19539e-05
1.32173e-05
2.18258e-05
3.58802e-05
6.72232e-05
4.2557e-05
1.50562e-05
1.73214e-05
3.70168e-05
6.13486e-05
3.08976e-05
1.70207e-05
1.06862e-05
1.16786e-05
4.1855e-05
5.26907e-05
3.41317e-05
2.09488e-05
1.29298e-05
1.46989e-05
3.99243e-05
6.15639e-05
5.64676e-05
3.48484e-05
1.69872e-05
1.04546e-05
1.67677e-05
2.93217e-05
4.85305e-05
3.94507e-05
1.12307e-05
1.22314e-05
2.01125e-05
3.16623e-05
5.34087e-05
4.20201e-05
1.29192e-05
1.40103e-05
2.14482e-05
3.45821e-05
6.02796e-05
3.80976e-05
1.54256e-05
1.74193e-05
3.29936e-05
5.41157e-05
2.83099e-05
1.66419e-05
1.04885e-05
1.12221e-05
3.83373e-05
4.56379e-05
3.04198e-05
1.99909e-05
1.22518e-05
1.28788e-05
3.94114e-05
5.03549e-05
3.31855e-05
2.10498e-05
1.39263e-05
1.52603e-05
3.67633e-05
5.65626e-05
5.13662e-05
3.21205e-05
1.73e-05
1.05177e-05
1.65241e-05
2.7474e-05
4.29913e-05
3.66155e-05
1.11756e-05
1.21587e-05
1.97224e-05
2.92029e-05
4.6063e-05
3.83968e-05
1.25769e-05
1.33734e-05
2.08142e-05
3.1134e-05
4.95682e-05
3.84562e-05
1.35653e-05
1.4419e-05
2.12016e-05
3.27214e-05
5.49753e-05
3.55371e-05
1.54941e-05
1.74858e-05
3.07213e-05
4.92874e-05
2.6904e-05
1.65315e-05
1.05809e-05
1.11428e-05
3.49804e-05
4.05812e-05
2.8111e-05
1.95103e-05
1.21366e-05
1.25059e-05
3.61906e-05
4.29631e-05
2.9657e-05
2.04639e-05
1.33739e-05
1.36469e-05
3.58142e-05
4.6022e-05
3.12041e-05
2.09152e-05
1.45506e-05
1.56688e-05
3.43986e-05
5.1448e-05
4.67922e-05
3.03833e-05
1.77046e-05
1.08002e-05
1.6812e-05
2.61502e-05
3.92107e-05
3.40351e-05
1.13612e-05
1.24528e-05
1.95964e-05
2.74947e-05
4.1744e-05
3.51875e-05
1.28081e-05
1.35459e-05
2.03927e-05
2.90698e-05
4.39092e-05
3.52346e-05
1.35031e-05
1.42069e-05
2.08885e-05
3.02813e-05
4.57381e-05
3.5646e-05
1.42351e-05
1.51593e-05
2.15345e-05
3.14348e-05
5.09633e-05
3.42636e-05
1.61776e-05
1.81109e-05
3.01487e-05
4.6005e-05
2.59873e-05
1.72176e-05
1.10548e-05
1.16043e-05
3.3666e-05
3.86797e-05
2.73671e-05
1.96733e-05
1.26406e-05
1.28231e-05
3.44931e-05
4.05326e-05
2.84575e-05
2.02004e-05
1.35667e-05
1.35473e-05
3.39855e-05
4.19035e-05
2.9384e-05
2.07287e-05
1.42402e-05
1.42768e-05
3.43411e-05
4.31904e-05
3.02886e-05
2.16421e-05
1.52493e-05
1.6388e-05
3.3181e-05
4.8256e-05
4.41308e-05
2.96299e-05
1.83464e-05
1.14507e-05
1.7596e-05
2.55915e-05
3.80458e-05
3.27394e-05
1.19607e-05
1.29371e-05
1.96973e-05
2.70874e-05
4.01831e-05
3.38228e-05
1.3197e-05
1.39533e-05
2.03938e-05
2.83313e-05
4.14316e-05
3.38353e-05
1.38497e-05
1.45943e-05
2.10343e-05
2.92918e-05
4.27332e-05
3.40633e-05
1.4726e-05
1.55972e-05
2.20569e-05
3.02015e-05
4.74777e-05
3.29146e-05
1.65836e-05
1.84292e-05
2.93162e-05
4.31975e-05
2.51758e-05
1.75178e-05
1.14238e-05
1.1906e-05
3.24842e-05
3.70312e-05
2.65308e-05
1.95229e-05
1.28666e-05
1.31181e-05
3.28371e-05
3.87676e-05
2.76401e-05
2.00355e-05
1.39077e-05
1.38071e-05
3.26534e-05
3.9568e-05
2.82623e-05
2.05382e-05
1.4424e-05
1.44818e-05
3.26588e-05
4.05862e-05
2.89495e-05
2.15942e-05
1.54375e-05
1.65711e-05
3.16879e-05
4.52146e-05
4.16348e-05
2.86651e-05
1.85207e-05
1.16716e-05
1.76271e-05
2.47816e-05
3.62831e-05
3.18053e-05
1.21576e-05
1.31362e-05
1.95951e-05
2.61664e-05
3.84057e-05
3.22832e-05
1.34431e-05
1.42431e-05
2.03072e-05
2.75635e-05
3.95648e-05
3.24671e-05
1.42591e-05
1.49186e-05
2.09822e-05
2.84364e-05
4.07945e-05
3.2979e-05
1.49796e-05
1.58347e-05
2.20086e-05
2.92425e-05
4.52855e-05
3.19395e-05
1.68541e-05
1.86938e-05
2.87336e-05
4.15525e-05
2.48021e-05
1.78121e-05
1.17928e-05
1.23745e-05
3.16007e-05
3.62673e-05
2.63467e-05
1.98331e-05
1.33712e-05
1.37069e-05
3.22792e-05
3.8048e-05
2.74613e-05
2.03389e-05
1.43562e-05
1.42844e-05
3.22787e-05
3.88452e-05
2.81567e-05
2.09034e-05
1.49488e-05
1.51576e-05
3.22153e-05
3.99765e-05
2.89404e-05
2.20668e-05
1.61095e-05
1.72561e-05
3.16553e-05
4.45353e-05
4.12588e-05
2.89274e-05
1.9199e-05
1.2303e-05
1.83898e-05
2.52118e-05
3.66883e-05
3.19097e-05
1.28813e-05
1.38677e-05
2.05218e-05
2.69042e-05
3.90083e-05
3.29205e-05
1.43123e-05
1.51036e-05
2.12574e-05
2.83598e-05
4.04243e-05
3.28041e-05
1.52979e-05
1.6111e-05
2.22144e-05
2.91043e-05
4.45161e-05
3.16456e-05
1.71439e-05
1.90002e-05
2.88299e-05
4.11687e-05
2.51448e-05
1.82389e-05
1.21685e-05
1.282e-05
3.19854e-05
3.61943e-05
2.66062e-05
2.02894e-05
1.3834e-05
1.43578e-05
3.21898e-05
3.83222e-05
2.80336e-05
2.11326e-05
1.51374e-05
1.54915e-05
3.22706e-05
3.98625e-05
2.91153e-05
2.24669e-05
1.64808e-05
1.78172e-05
3.19771e-05
4.45432e-05
4.14687e-05
2.9505e-05
1.97047e-05
1.27956e-05
1.89453e-05
2.57755e-05
3.71915e-05
3.22728e-05
1.36053e-05
1.46768e-05
2.12748e-05
2.74578e-05
4.01166e-05
3.32403e-05
1.5377e-05
1.63987e-05
2.27007e-05
2.9294e-05
4.48138e-05
3.2255e-05
1.7767e-05
1.95945e-05
2.95127e-05
4.16419e-05
2.58759e-05
1.89539e-05
1.26459e-05
1.34579e-05
3.23038e-05
3.71366e-05
2.74976e-05
2.10668e-05
1.45304e-05
1.53604e-05
3.27657e-05
3.98003e-05
2.91242e-05
2.25492e-05
1.6404e-05
1.80066e-05
3.21741e-05
4.45653e-05
4.17237e-05
2.97318e-05
2.00618e-05
1.31002e-05
1.94e-05
2.63452e-05
3.7661e-05
3.24526e-05
1.3984e-05
1.52956e-05
2.18096e-05
2.78266e-05
4.30711e-05
3.14355e-05
1.7071e-05
1.92003e-05
2.92092e-05
4.05601e-05
2.56676e-05
1.87789e-05
1.27153e-05
1.38275e-05
3.14698e-05
3.65708e-05
2.73079e-05
2.15037e-05
1.50303e-05
1.68423e-05
3.08754e-05
4.20728e-05
3.98137e-05
2.88926e-05
1.91135e-05
1.28072e-05
1.87308e-05
2.53641e-05
3.61546e-05
3.10577e-05
1.39288e-05
1.51899e-05
2.1476e-05
2.71194e-05
4.15212e-05
3.07363e-05
1.68622e-05
1.88758e-05
2.90368e-05
3.93212e-05
2.49886e-05
1.84728e-05
1.26137e-05
1.3901e-05
3.04491e-05
3.56237e-05
2.6836e-05
2.13506e-05
1.52589e-05
1.73563e-05
3.09341e-05
4.13829e-05
3.93365e-05
2.91793e-05
1.96154e-05
1.30987e-05
1.94098e-05
2.56822e-05
3.65182e-05
3.17104e-05
1.43178e-05
1.57765e-05
2.20514e-05
2.75036e-05
4.26366e-05
3.13686e-05
1.80169e-05
2.04849e-05
2.97705e-05
4.06942e-05
2.66341e-05
2.02708e-05
1.42365e-05
1.65295e-05
3.17427e-05
4.05051e-05
3.92933e-05
3.04356e-05
1.92526e-05
1.37967e-05
1.98168e-05
2.60484e-05
3.9786e-05
3.11109e-05
1.62968e-05
1.90833e-05
2.98971e-05
3.87789e-05
2.58995e-05
1.97337e-05
1.35664e-05
1.60115e-05
3.06373e-05
3.94795e-05
3.84403e-05
2.93222e-05
1.87948e-05
1.35908e-05
1.9491e-05
2.54671e-05
3.91036e-05
3.02899e-05
1.62027e-05
1.89871e-05
2.95967e-05
3.83325e-05
2.55699e-05
1.95754e-05
1.36224e-05
1.64774e-05
3.03511e-05
3.94333e-05
3.85467e-05
2.94885e-05
1.96992e-05
1.44521e-05
2.05095e-05
2.62057e-05
4.12459e-05
3.23898e-05
1.76258e-05
2.17972e-05
3.15796e-05
4.02335e-05
3.81594e-05
2.93845e-05
1.8417e-05
1.38699e-05
2.00531e-05
2.62268e-05
4.17022e-05
3.17286e-05
1.76405e-05
2.22522e-05
3.1761e-05
4.19258e-05
3.83229e-05
2.91683e-05
1.99938e-05
1.66433e-05
2.92904e-05
3.78392e-05
2.48677e-05
1.82809e-05
1.29932e-05
1.719e-05
2.93874e-05
3.9871e-05
4.02271e-05
2.96851e-05
2.17437e-05
2.00301e-05
2.7982e-05
3.78344e-05
3.81336e-05
2.7755e-05
1.91017e-05
1.86605e-05
2.60937e-05
3.66501e-05
3.67724e-05
2.56703e-05
1.8654e-05
1.87834e-05
2.54709e-05
3.65178e-05
3.67353e-05
2.55645e-05
1.88607e-05
1.88742e-05
2.61791e-05
3.6469e-05
3.68093e-05
2.6957e-05
1.88331e-05
1.8785e-05
2.76364e-05
3.68481e-05
3.75982e-05
2.88271e-05
1.87288e-05
1.86729e-05
2.94847e-05
3.79885e-05
3.87899e-05
3.05575e-05
1.86117e-05
1.85538e-05
3.12824e-05
3.94606e-05
4.01811e-05
3.21801e-05
1.84945e-05
1.84387e-05
3.26299e-05
4.10679e-05
4.18849e-05
3.3547e-05
1.83838e-05
1.83318e-05
3.36622e-05
4.32011e-05
4.41282e-05
3.44898e-05
1.82817e-05
1.82345e-05
3.45255e-05
4.56599e-05
4.66769e-05
3.53451e-05
1.81902e-05
1.81487e-05
3.5383e-05
4.8157e-05
4.92207e-05
3.62534e-05
1.81114e-05
1.80761e-05
3.6293e-05
5.064e-05
5.17258e-05
3.72491e-05
1.80465e-05
1.8017e-05
3.72933e-05
5.30615e-05
5.41008e-05
3.83054e-05
1.79955e-05
1.79702e-05
3.83471e-05
5.52986e-05
5.63246e-05
3.94296e-05
1.79582e-05
1.79367e-05
3.94712e-05
5.73791e-05
5.83771e-05
4.0573e-05
1.79329e-05
1.79157e-05
4.05987e-05
5.93288e-05
6.03676e-05
4.17331e-05
1.79159e-05
1.79038e-05
4.17254e-05
6.11795e-05
6.22242e-05
4.2838e-05
1.79065e-05
1.78984e-05
4.27985e-05
6.29152e-05
6.39719e-05
4.39037e-05
1.79024e-05
1.78968e-05
4.38326e-05
6.45391e-05
6.55978e-05
4.48832e-05
1.79017e-05
1.78978e-05
4.47739e-05
6.60589e-05
6.71342e-05
4.57976e-05
1.79033e-05
1.79007e-05
4.56558e-05
6.74842e-05
6.85656e-05
4.66109e-05
1.79065e-05
1.79044e-05
4.64287e-05
6.88313e-05
6.99364e-05
4.73579e-05
1.79109e-05
1.79091e-05
4.71447e-05
7.01147e-05
7.12238e-05
4.80105e-05
1.79161e-05
1.79145e-05
4.7755e-05
7.13352e-05
7.24657e-05
4.86004e-05
1.79217e-05
1.79202e-05
4.83226e-05
7.25026e-05
7.36341e-05
4.91099e-05
1.79276e-05
1.79262e-05
4.87963e-05
7.36169e-05
7.47646e-05
4.95729e-05
1.79337e-05
1.79324e-05
4.92462e-05
7.46835e-05
7.58265e-05
4.99705e-05
1.79399e-05
1.79388e-05
4.96006e-05
7.56958e-05
7.68668e-05
5.03364e-05
1.79393e-05
1.79521e-05
4.99723e-05
7.66868e-05
7.78325e-05
5.06444e-05
1.79527e-05
1.79517e-05
5.02546e-05
7.76257e-05
7.87846e-05
5.09361e-05
1.79592e-05
1.79583e-05
5.05436e-05
7.85331e-05
7.9673e-05
5.11846e-05
1.79657e-05
1.79649e-05
5.07684e-05
7.94004e-05
8.05454e-05
5.14231e-05
1.79722e-05
1.79714e-05
5.10062e-05
8.02276e-05
8.13496e-05
5.16269e-05
1.79787e-05
1.7978e-05
5.11828e-05
8.10116e-05
8.21283e-05
5.18215e-05
1.79851e-05
1.79843e-05
5.13745e-05
8.17483e-05
8.28313e-05
5.19861e-05
1.79913e-05
1.79906e-05
5.15038e-05
8.24403e-05
8.35209e-05
5.21326e-05
1.79973e-05
1.79966e-05
5.16495e-05
8.30867e-05
8.41347e-05
5.22522e-05
1.80031e-05
1.80024e-05
5.17354e-05
8.36851e-05
8.47266e-05
5.23568e-05
1.80087e-05
1.80079e-05
5.18405e-05
8.42341e-05
8.52457e-05
5.24363e-05
1.80139e-05
1.8013e-05
5.18903e-05
8.47422e-05
8.57516e-05
5.25063e-05
1.80187e-05
1.80179e-05
5.19635e-05
8.52072e-05
8.61808e-05
5.2553e-05
1.80233e-05
1.80224e-05
5.19836e-05
8.56293e-05
8.65959e-05
5.25922e-05
1.80275e-05
1.80266e-05
5.20268e-05
8.60064e-05
8.69427e-05
5.26093e-05
1.80314e-05
1.80304e-05
5.20201e-05
8.63502e-05
8.72839e-05
5.26228e-05
1.8035e-05
1.80339e-05
5.20405e-05
8.66559e-05
8.75652e-05
5.2618e-05
1.80382e-05
1.80372e-05
5.20153e-05
8.69375e-05
8.78478e-05
5.26142e-05
1.80412e-05
1.80401e-05
5.20206e-05
8.71864e-05
8.80749e-05
5.25946e-05
1.8044e-05
1.80428e-05
5.19829e-05
8.74165e-05
8.8318e-05
5.25791e-05
1.80465e-05
1.80454e-05
5.19784e-05
8.76213e-05
8.84911e-05
5.25498e-05
1.80489e-05
1.80477e-05
5.19325e-05
8.78043e-05
8.87107e-05
5.2527e-05
1.8051e-05
1.80499e-05
5.19225e-05
8.79758e-05
8.88453e-05
5.24921e-05
1.80531e-05
1.80519e-05
5.18713e-05
8.81208e-05
8.9027e-05
5.24645e-05
1.8055e-05
1.80538e-05
5.18577e-05
8.82561e-05
8.91255e-05
5.24258e-05
1.80568e-05
1.80556e-05
5.18033e-05
8.83683e-05
8.92758e-05
5.23966e-05
1.80585e-05
1.80573e-05
5.17874e-05
8.84745e-05
8.93456e-05
5.23561e-05
1.806e-05
1.80588e-05
5.17315e-05
8.85612e-05
8.94718e-05
5.2326e-05
1.80615e-05
1.80603e-05
5.17142e-05
8.86449e-05
8.9519e-05
5.2284e-05
1.80629e-05
1.80617e-05
5.16575e-05
8.87107e-05
8.96245e-05
5.22535e-05
1.80643e-05
1.80631e-05
5.16406e-05
8.87752e-05
8.96525e-05
5.22121e-05
1.80655e-05
1.80643e-05
5.15852e-05
8.88241e-05
8.97417e-05
5.21825e-05
1.80667e-05
1.80655e-05
5.15688e-05
8.88733e-05
8.9754e-05
5.21413e-05
1.80678e-05
1.80666e-05
5.15139e-05
8.89066e-05
8.98295e-05
5.21123e-05
1.80688e-05
1.80676e-05
5.14983e-05
8.89433e-05
8.98282e-05
5.20719e-05
1.80698e-05
1.80686e-05
5.14446e-05
8.89653e-05
8.98929e-05
5.20441e-05
1.80707e-05
1.80695e-05
5.14305e-05
8.89922e-05
8.98823e-05
5.20053e-05
1.80716e-05
1.80704e-05
5.13787e-05
8.90056e-05
8.99386e-05
5.19795e-05
1.80724e-05
1.80712e-05
5.13666e-05
8.9025e-05
8.99202e-05
5.19427e-05
1.80732e-05
1.80719e-05
5.1317e-05
8.90321e-05
8.99695e-05
5.19189e-05
1.80739e-05
1.80727e-05
5.13069e-05
8.90453e-05
8.99452e-05
5.1884e-05
1.80746e-05
1.80734e-05
5.12593e-05
8.90487e-05
8.99861e-05
5.18621e-05
1.80753e-05
1.80741e-05
5.1251e-05
8.90568e-05
8.99569e-05
5.18289e-05
1.8076e-05
1.80747e-05
5.12054e-05
8.90562e-05
8.99941e-05
5.18088e-05
1.80766e-05
1.80753e-05
5.11988e-05
8.906e-05
8.99607e-05
5.17774e-05
1.80772e-05
1.80759e-05
5.11549e-05
8.90552e-05
8.99939e-05
5.1759e-05
1.80777e-05
1.80765e-05
5.11499e-05
8.90549e-05
8.99569e-05
5.17292e-05
1.80783e-05
1.80771e-05
5.11076e-05
8.90473e-05
8.99879e-05
5.17124e-05
1.80788e-05
1.80776e-05
5.11042e-05
8.90451e-05
8.99485e-05
5.16841e-05
1.80793e-05
1.80781e-05
5.10636e-05
8.90353e-05
8.99771e-05
5.16689e-05
1.80798e-05
1.80786e-05
5.10617e-05
8.90309e-05
8.99353e-05
5.1642e-05
1.80803e-05
1.8079e-05
5.10225e-05
8.90191e-05
8.99616e-05
5.16282e-05
1.80807e-05
1.80795e-05
5.1022e-05
8.90124e-05
8.99178e-05
5.16029e-05
1.80811e-05
1.80799e-05
5.09844e-05
8.89992e-05
8.99431e-05
5.15907e-05
1.80815e-05
1.80803e-05
5.09855e-05
8.8992e-05
8.98985e-05
5.15669e-05
1.80819e-05
1.80807e-05
5.09496e-05
8.89782e-05
8.99229e-05
5.15564e-05
1.80823e-05
1.8081e-05
5.09524e-05
8.89701e-05
8.98778e-05
5.15344e-05
1.80827e-05
1.80814e-05
5.09183e-05
8.89563e-05
8.99024e-05
5.15257e-05
1.8083e-05
1.80818e-05
5.09229e-05
8.89488e-05
8.98579e-05
5.15054e-05
1.80834e-05
1.80822e-05
5.08906e-05
8.89358e-05
8.98838e-05
5.14985e-05
1.80838e-05
1.80826e-05
5.08969e-05
8.89298e-05
8.98404e-05
5.14799e-05
1.80842e-05
1.8083e-05
5.08662e-05
8.89179e-05
8.9867e-05
5.14745e-05
1.80846e-05
1.80834e-05
5.08739e-05
8.89125e-05
8.98244e-05
5.14573e-05
1.80851e-05
1.80839e-05
5.08443e-05
8.89014e-05
8.98518e-05
5.14527e-05
1.80855e-05
1.80843e-05
5.08524e-05
8.88963e-05
8.98085e-05
5.14355e-05
1.8086e-05
1.80848e-05
5.08225e-05
8.8884e-05
8.98337e-05
5.14305e-05
1.80865e-05
1.80853e-05
5.08298e-05
8.88763e-05
8.97874e-05
5.14124e-05
1.8087e-05
1.80858e-05
5.0799e-05
8.88608e-05
8.98094e-05
5.14066e-05
1.80875e-05
1.80863e-05
5.07954e-05
8.88412e-05
8.9773e-05
5.13899e-05
1.80879e-05
1.80867e-05
5.07903e-05
8.88566e-05
8.97525e-05
5.14088e-05
1.80996e-05
1.81092e-05
5.08031e-05
8.88525e-05
8.97888e-05
5.13844e-05
1.81108e-05
1.81204e-05
5.08068e-05
8.88555e-05
8.98789e-05
5.14512e-05
1.81552e-05
1.81972e-05
5.09389e-05
8.90221e-05
9.03967e-05
5.17592e-05
1.82679e-05
1.83147e-05
5.13247e-05
8.9567e-05
9.12226e-05
5.22375e-05
1.84519e-05
1.85878e-05
5.19366e-05
9.04574e-05
9.41226e-05
5.36623e-05
1.92133e-05
2.02373e-05
5.63277e-05
0.000100177
0.000106817
5.9836e-05
2.12849e-05
0.000207468
0.000379321
0.000568484
0.000624041
0.000998785
0.00145112
0.00187243
0.00203117
0.00281641
0.00394157
0.00507087
0.00657086
0.00867174
0.0115888
0.0156385
0.0210279
0.0279732
0.0365599
0.0468206
0.0586931
0.0720392
0.0866349
0.102201
0.11836
0.134746
0.150716
0.165805
0.178961
0.18974
0.197483
0.202314
0.204589
0.206556
0.21012
0.215148
0.221453
0.228755
0.236994
0.245992
0.255873
0.266695
0.278668
0.292
0.306994
0.324022
0.343609
0.36648
0.393722
0.431328
0.499117
0.637489
0.906188
1.40758
2.3459
4.16802
7.90661
15.9284
32.0702
59.6915
93.3579
119.305
132.699
138.373
140.886
142.3
143.663
145.022
146.412
147.868
149.415
151.078
152.883
154.857
157.025
159.418
162.064
164.996
168.246
171.849
175.838
180.251
185.122
190.488
196.387
202.85
209.916
217.617
225.987
235.057
244.858
255.419
266.769
278.931
291.928
305.784
320.516
336.142
352.674
370.126
388.504
407.813
428.054
449.226
471.321
494.334
518.246
543.046
568.707
595.209
622.52
650.609
679.437
708.968
739.163
769.964
801.334
833.213
865.554
898.297
931.385
964.759
998.361
1032.13
1065.99
1099.9
1133.78
1167.59
1201.25
1234.72
1267.93
1300.84
1333.37
1365.5
1397.16
1428.32
1458.92
1488.93
1518.31
1547.03
1575.05
1602.34
1628.88
1654.64
1679.59
1703.72
1727.01
1749.43
1770.99
1791.65
1811.41
1830.27
1848.2
1865.2
1881.27
1896.39
1910.57
1923.78
1936.02
1947.29
1957.56
1966.8
1974.97
1982.01
1987.86
1992.35
1995.32
1996.93
1997.73
1998.41
1998.32
1998.24
1997.82
1996.85
1994.81
1991.7
1988.01
1984.38
1981.17
1978.39
1975.93
1973.66
1971.5
1969.42
1967.4
1965.44
1963.57
1961.78
1960.09
1958.49
1956.99
1955.58
1954.26
1953.04
1951.92
1950.89
1949.96
1949.13
1948.37
1947.68
1947.01
1946.26
1945.2
1943.37
1939.77
1932.31
1916.65
1884.13
1818.7
1694.9
1484.6
1180.94
831.887
520.547
298.437
162.846
87.0821
46.4763
24.9799
13.5554
7.41434
4.08274
2.2801
1.32488
0.837277
0.597684
0.479825
0.406296
0.312282
0.176691
0.0655661
0.0158222
0.00681173
0.00232243
0.00200161
0.00185408
0.00167739
0.00160043
0.00148777
0.00144167
0.00136148
0.00133095
0.00127051
0.00124822
0.00120103
0.00118409
0.00114582
0.00113253
0.00110051
0.00108982
0.00106235
0.00105359
0.00102957
0.00102224
0.00100094
0.000994669
0.000975551
0.000970123
0.000952759
0.000948003
0.000932071
0.000927862
0.000913115
0.000909359
0.000895616
0.00089224
0.000879354
0.000876297
0.000864142
0.000861349
0.000849816
0.000847241
0.000836239
0.000833845
0.000823303
0.000821053
0.000810912
0.000808772
0.000798973
0.000796924
0.000787415
0.000785437
0.000776166
0.000774241
0.00076516
0.000763268
0.000754332
0.000752457
0.000743625
0.000741752
0.000732989
0.000731106
0.000722396
0.000720488
0.000711814
0.000709865
0.000701204
0.000699207
0.000690545
0.000688496
0.000679826
0.000677723
0.000669043
0.000666893
0.000658214
0.000656029
0.000647375
0.000645174
0.000636579
0.000634391
0.000625913
0.000623782
0.000615543
0.000613502
0.000605648
0.000603745
0.000596431
0.000594733
0.00058815
0.000586741
0.00058083
0.00058041
0.000575
0.000575644
0.000570967
0.000573011
0.000569191
0.000572824
0.000569972
0.000575368
0.000573546
0.000580686
0.000579862
0.000588586
0.000588661
0.000598764
0.000599472
0.000610575
0.0006117
0.000623149
0.000624584
0.000636085
0.000637556
0.000648936
0.000650302
0.000661415
0.000662477
0.00067322
0.000674049
0.0006842
0.000684905
0.0006944
0.00069487
0.000703787
0.000704023
0.000712359
0.00071235
0.000720204
0.000719912
0.000727966
0.000725627
0.000735677
0.000736211
0.000750651
0.000761214
0.000770582
0.00077739
0.00136451
0.00198353
0.00196047
0.00134485
0.00132924
0.00192929
0.0018598
0.00130002
0.00125772
0.00175263
0.00276835
0.00263347
0.00262747
0.00262862
0.00315239
0.00312001
0.00307082
0.00377808
0.00376478
0.00375554
0.00425976
0.00425591
0.00423888
0.00401929
0.00394159
0.00270862
0.00185512
0.00127375
0.00124105
0.00172634
0.00182745
0.00125506
0.0012265
0.00170613
0.00267817
0.00264814
0.00180501
0.00123948
0.00121055
0.00168498
0.00178204
0.00122305
0.00119382
0.00166275
0.00262241
0.00259238
0.00175829