/*--------------------------------*- C++ -*----------------------------------*\
| =========                 |                                                 |
| \\      /  F ield         | OpenFOAM: The Open Source CFD Toolbox           |
|  \\    /   O peration     | Version:  v2006                                 |
|   \\  /    A nd           | Website:  www.openfoam.com                      |
|    \\/     M anipulation  |                                                 |
\*---------------------------------------------------------------------------*/
FoamFile
{
    version     2.0;
    format      ascii;
    class       volScalarField;
    location    "0.01";
    object      omega;
}
// * * * * * * * * * * * * * * * * * * * * * * * * * * * * * * * * * * * * * //

dimensions      [0 0 -1 0 0 0 0];


internalField   nonuniform List<scalar> 
31566
(
16146.9
16142.6
16050.3
16057.1
16072.6
16092.5
16116.4
16134.4
16142.9
16133.8
16102
16041.6
15948
15816.7
15644.5
15429.9
15174.7
14884.9
14571.2
14248.5
13935.6
13652.7
13421.4
13264.5
13209.8
13297.3
13606.3
14320.1
15944.7
20425.8
42735.9
47617.6
39219
19894.4
3899.73
471.781
15.5762
3.73278
4.31687
5.02644
1.76815
2.78134
1.50319
1.07254
0.814694
0.710137
0.56167
0.263655
0.334224
0.472049
0.676926
0.924737
1.16712
1.35217
1.47334
1.54042
1.56813
1.56979
1.54927
1.49935
1.41013
1.27659
1.10566
0.905386
0.678593
0.45178
0.269089
0.142609
0.00654646
0.0773547
0.135425
0.196615
0.273033
0.313645
0.2927
0.254681
0.225063
0.203188
0.186176
0.172912
0.163073
0.156434
0.15252
0.15054
0.149714
0.14967
0.15062
0.153654
0.160814
0.174807
0.197584
0.229377
0.267612
0.311182
0.367261
0.45907
0.652581
1.0988
2.38874
5.21761
11.706
13.3223
10.1247
21.3025
49.8053
124.81
477.414
4778.28
26657.2
402509
405899
59055.7
12494.8
19506.7
75998.1
408980
407091
83322.8
23684.6
27162.1
88868.4
399142
392603
88825.4
29288.9
31300.4
91535
384524
381146
92164.8
32138.3
33368.7
95483.2
380651
380786
95914.9
33772
34653.1
96788.4
377974
375545
97421.9
34866.8
35540.5
98258.5
373370
371542
98759.8
35725.1
36372.8
99431
369986
368702
99807.2
36579
37263.1
100305
367583
366687
100545
37484
38191.2
100951
365887
365269
101182
38423.2
39143.6
101608
364664
364182
101842
39371.1
40065.9
102272
363671
363243
102502
40260
40885.8
102918
362780
362382
103129
41039.9
41593.1
103520
361951
361570
103707
41711.6
42200.6
104069
361160
360787
104230
42288
42721.8
104555
360390
360020
104696
42784.4
43177.8
104986
359629
359264
105114
43223.8
43588.8
105384
358865
358495
105498
43619.8
43956.9
105737
358078
357707
105830
43975.7
44294.4
106034
357286
356919
106110
44307.4
44620.4
106286
356506
356145
106344
44630.8
44943.1
106493
355744
355399
106534
44953.2
45267.9
106657
355024
354703
106683
45276.9
45590.2
106780
354358
354065
106790
45595.2
45900.3
106860
353758
353496
106858
45899.2
46191.8
106910
353226
353000
106904
46186.9
46472.2
106958
352767
352570
106964
46465.3
46752.9
107045
352363
352183
107083
46747.7
47047.8
107226
351984
351805
107310
47048.1
47365.8
107540
351599
351409
107679
47370.2
47697.3
108003
351185
350979
108191
47697.2
48015.6
108592
350733
350509
108832
48009.5
48314.4
109283
350238
349991
109566
48299.8
48576.2
110022
349685
349406
110292
48542.1
48769.5
110673
349082
348803
110859
48715.9
48908.5
111103
348510
348273
111169
48843.6
49023.4
111240
348042
347872
111204
48959.6
49166.1
111171
347703
347587
111045
49113
49330.2
110966
347475
347413
110834
49265.7
49451.1
110752
347360
347331
110656
49368.2
49521.9
110590
347307
347321
110548
49428.6
49568.6
110516
347311
347338
110514
49472.3
49606.4
110521
347332
347356
110548
49507.1
49631.5
110580
347345
347365
110639
49529.4
49647.8
110687
347362
347393
110761
49545.2
49662.9
110822
347408
347446
110900
49560.5
49677.1
110968
347465
347508
111049
49571.9
49685.2
111120
347532
347575
111200
49577.6
49689.2
111271
347603
347658
111348
49581.1
49691.7
111417
347698
347775
111490
49582.8
49691.4
111558
347839
347930
111625
49580.8
49686.7
111694
348012
348116
111756
49574.5
49678.1
111829
348190
348276
111886
49565.3
49667.6
111965
348327
348391
112018
49554
49652.9
112102
348408
348437
112147
49536.7
49632.1
112230
348431
348439
112263
49515
49608.5
112339
348416
348400
112364
49493
49586.6
112432
348361
348326
112456
49474.6
49569.5
112523
348284
348241
112544
49460.4
49554.1
112608
348189
348139
112619
49445.2
49534.9
112664
348076
348007
112658
49424.2
49510.4
112678
347913
347821
112655
49399.7
49483.8
112665
347718
347617
112628
49372.7
49450.4
112623
347504
347393
112565
49328.6
49396.8
112546
347286
347181
112463
49261.3
49326
112443
347043
346891
112365
49186
49250.8
112345
346732
346559
112261
49112.8
49177
112228
346366
346153
112120
49033.9
49093.7
112069
345941
345749
111922
48935.4
48987.4
111850
345568
345408
111670
48807.6
48850.4
111584
345251
345113
111381
48648.2
48682.8
111283
344968
344816
111064
48462.7
48489.9
110954
344660
344515
110710
48252.1
48271.5
110584
344362
344205
110311
48012.7
48022.7
110167
344038
343881
109860
47738.6
47738.9
109699
343725
343563
109375
47438.7
47431.5
109195
343390
343232
108869
47120.2
47107.8
108692
343074
342917
108354
46782.8
46767.4
108179
342748
342581
107859
46442.7
46422.1
107660
342424
342262
107356
46091.4
46069.4
107182
342072
341915
106846
45731.9
45699.7
106655
341789
341679
106328
45340.6
45313.2
106156
341576
341502
105859
44960.7
44945.7
105728
341456
341392
105468
44609.4
44606.5
105348
341313
341255
105116
44288.1
44294.2
105010
341195
341131
104811
43991.1
44005
104710
341059
341008
104534
43716.6
43740.7
104453
340986
340995
104333
43474.2
43508.8
104271
341012
341050
104177
43264.7
43310.9
104134
341138
341231
104104
43099
43161.5
104094
341255
341286
104069
42977.4
43046.8
104054
341300
341347
104025
42867
42939.9
104014
341394
341483
104002
42765.7
42841.2
103977
341567
341732
103971
42670.7
42748.7
103955
341877
342026
103924
42569.8
42648.8
103890
342243
342475
103875
42476.8
42562.6
103833
342616
342788
103771
42373.2
42456.1
103721
343002
343214
103682
42266.5
42342.8
103601
343380
343645
103561
42128.5
42218.4
103568
343925
344169
103558
42035.8
42114.4
103520
344424
344788
103532
41923.9
42029.1
103607
345106
345322
103650
41867.4
41968.3
103661
345434
345737
103751
41812.6
41981.3
103978
346102
346353
104194
41883.4
42098.7
104431
346470
346677
104716
42023.5
42296.5
105069
346849
346921
105384
42241.8
42550.4
105755
346871
346959
106171
42534.6
42940.4
106745
347121
347182
107249
43003.1
43507.4
107845
347103
346843
108202
43572
44026.9
108787
346485
346302
109244
44168.3
44794.1
109972
346129
345823
110644
45013.1
45684.4
111341
345360
344828
111859
45866.8
46523
112460
344335
343789
113041
46748.5
47455.7
113682
343187
342549
114315
47736.2
48487.1
114825
341674
340724
115257
48720.2
49457.8
115760
339629
338548
116195
49730
50575.3
116778
337540
336544
117166
50817.5
51992.5
118177
335401
334013
118299
52129.2
53127.1
118949
332539
331499
119534
53633.4
54602.6
119993
329177
329927
121692
55748.9
55927.8
120463
323826
313687
119013
55213
55310.9
118620
297212
20391
11545.1
9219.34
8589.18
8662.21
8926.69
9154.01
9461.94
9737.93
9961.38
10131.9
10063.1
8625.06
4274.7
2878.76
2598.92
2447.21
2353.63
2320.29
2262.38
2126.11
2185.91
2137.38
2159.17
2146.22
2131.12
2120.47
2109.41
2102.37
2092.06
2093.22
2081.18
2088.05
2034.12
2506.01
2616.17
2115.59
2024.5
2000.04
1999.94
1999.94
1999.96
1999.94
1999.94
1999.97
1999.97
1999.97
1999.97
2000.26
2000.26
2040.05
2223.93
2518.74
3578.84
3743.12
32321.4
1.17472e+06
1.25284e+06
223251
29380.5
138772
387498
1.30253e+06
1.30205e+06
575956
342342
557189
678799
1.26224e+06
1.23474e+06
749001
731149
904534
855087
1.20972e+06
1.19925e+06
1.01344e+06
1.03347e+06
1.21329e+06
1.16818e+06
1.20145e+06
1.22585e+06
1.53595e+06
1.30498e+06
1.31966e+06
1.71807e+06
1.37818e+06
1.53867e+06
1.86002e+06
1.34053e+06
1.35237e+06
1.88178e+06
1.69389e+06
1.78825e+06
1.88085e+06
1.3508e+06
1.34394e+06
1.86625e+06
1.87344e+06
1.9443e+06
1.83385e+06
1.33088e+06
1.31091e+06
1.79401e+06
2.00725e+06
2.06742e+06
1.75439e+06
1.29083e+06
1.27192e+06
1.71543e+06
2.12436e+06
2.18037e+06
1.67914e+06
1.25476e+06
1.23954e+06
1.64585e+06
2.23302e+06
2.28377e+06
1.61613e+06
1.2245e+06
1.20987e+06
1.59084e+06
2.33241e+06
2.38258e+06
1.56775e+06
1.19514e+06
1.17988e+06
1.5454e+06
2.43541e+06
2.48698e+06
1.52636e+06
1.16529e+06
1.15152e+06
1.50955e+06
2.53598e+06
2.58442e+06
1.49441e+06
1.13795e+06
1.12453e+06
1.48101e+06
2.63161e+06
2.67846e+06
1.46914e+06
1.11167e+06
1.09887e+06
1.45824e+06
2.72411e+06
2.76965e+06
1.44908e+06
1.08648e+06
1.07436e+06
1.44053e+06
2.81412e+06
2.85878e+06
1.4334e+06
1.06278e+06
1.05111e+06
1.42704e+06
2.90317e+06
2.94742e+06
1.42174e+06
1.0403e+06
1.02939e+06
1.41723e+06
2.99247e+06
3.03696e+06
1.4134e+06
1.01929e+06
1.00908e+06
1.41042e+06
3.08317e+06
3.12881e+06
1.40762e+06
999593
989921
1.40579e+06
3.17788e+06
3.22564e+06
1.40361e+06
980801
971398
1.4025e+06
3.27986e+06
3.33132e+06
1.40018e+06
962320
952697
1.3993e+06
3.39361e+06
3.45077e+06
1.39462e+06
943251
931898
1.38932e+06
3.52686e+06
3.60312e+06
1.38191e+06
919594
904571
1.3725e+06
3.68961e+06
3.75705e+06
1.36323e+06
889969
875168
1.35533e+06
3.8242e+06
3.84645e+06
1.34814e+06
860347
846259
1.34336e+06
3.88674e+06
3.86585e+06
1.34016e+06
832844
820767
1.33178e+06
3.86891e+06
3.69707e+06
788642
764884
1.3739e+06
2.58614e+06
5.06146e+06
7.30674e+06
2.13447e+06
1.22108e+06
1.12877e+06
1.86914e+06
5.97819e+06
5.53784e+06
1.77994e+06
1.07159e+06
1.02498e+06
1.72842e+06
5.32203e+06
5.17199e+06
1.68889e+06
985675
944394
1.63667e+06
5.00719e+06
4.85453e+06
1.58889e+06
903467
868967
1.53218e+06
4.66807e+06
4.30859e+06
903566
751764
1.55073e+06
3.04831e+06
5.87026e+06
8.20382e+06
2.42557e+06
1.32231e+06
1.20666e+06
2.0624e+06
6.54724e+06
5.84276e+06
1.88419e+06
1.10887e+06
1.03857e+06
1.79602e+06
5.43354e+06
5.0801e+06
1.67856e+06
968621
828549
974743
4.58409e+06
6.27203e+06
3.25907e+06
1.6525e+06
1.42461e+06
2.60226e+06
8.50071e+06
6.44162e+06
2.19453e+06
1.24684e+06
1.05782e+06
1.14466e+06
5.1947e+06
7.04495e+06
3.71211e+06
2.00165e+06
1.61738e+06
2.88728e+06
9.28141e+06
6.21765e+06
1.33476e+06
1.41533e+06
2.60839e+06
4.73504e+06
8.06408e+06
8.89478e+06
5.81332e+06
3.05499e+06
3.99184e+06
5.11786e+06
5.77086e+06
4.31548e+06
468413
633415
516446
1.11698e+06
3.50623e+06
1.99363e+06
706808
408133
357731
508859
1.98987e+06
4.08207e+06
1.00554e+06
543283
700718
1.35466e+06
3.20127e+06
2.52655e+06
406806
414112
541163
1.07684e+06
4.33266e+06
3.20399e+06
1.36145e+06
703092
409671
431580
2.49908e+06
4.26635e+06
1.06019e+06
536060
692407
1.34413e+06
3.17654e+06
2.47207e+06
442974
403782
530956
1.0458e+06
4.20483e+06
3.07375e+06
1.31855e+06
682060
399707
446228
2.39652e+06
4.11379e+06
1.0289e+06
524717
670205
1.29256e+06
3.04404e+06
2.36655e+06
450176
398248
524000
1.0143e+06
4.00085e+06
2.97572e+06
1.28028e+06
668972
399678
456121
2.32739e+06
4.00142e+06
1.01202e+06
526129
671875
1.27745e+06
2.94444e+06
2.29045e+06
459369
404044
531893
1.00845e+06
3.94877e+06
2.98806e+06
1.29515e+06
681324
415305
473722
2.33257e+06
4.00888e+06
1.03023e+06
549740
709723
1.35909e+06
3.05458e+06
2.42598e+06
530242
428594
583982
1.15291e+06
4.37358e+06
3.57317e+06
1.58016e+06
778193
450102
432574
3.11991e+06
2.48822e+06
1.09293e+06
599314
388451
467197
2.05257e+06
3.56006e+06
959001
521748
661653
1.21976e+06
2.76975e+06
2.2236e+06
485129
418507
555228
1.02301e+06
3.86698e+06
3.00348e+06
1.34287e+06
716388
443337
550611
2.39174e+06
4.30615e+06
1.16632e+06
606754
813971
1.61205e+06
3.65569e+06
3.2392e+06
474720
482252
647631
1.18001e+06
2.58786e+06
2.16606e+06
556461
423832
595024
1.13227e+06
4.05403e+06
3.49859e+06
1.56387e+06
789319
476126
460961
3.1044e+06
2.52265e+06
1.12388e+06
635035
425414
514682
2.12113e+06
3.8056e+06
1.02933e+06
577615
743474
1.38357e+06
3.01903e+06
2.43977e+06
612407
471346
656129
1.25738e+06
4.51362e+06
3.91179e+06
1.77069e+06
887192
529261
592731
3.56144e+06
3.21092e+06
1.43569e+06
758599
484902
509795
2.94322e+06
2.52468e+06
1.17377e+06
662941
442511
571489
2.17649e+06
4.06792e+06
1.15487e+06
622789
826483
1.59199e+06
3.57074e+06
3.19657e+06
526036
516774
696721
1.23568e+06
2.65743e+06
2.28769e+06
614554
465555
660388
1.24059e+06
4.35664e+06
3.84895e+06
1.74382e+06
883026
543148
629505
3.52055e+06
3.21309e+06
1.47162e+06
786940
508287
540012
2.9871e+06
2.61288e+06
1.22767e+06
698360
470406
627487
2.25987e+06
4.27031e+06
1.24853e+06
674016
902476
1.75538e+06
3.83824e+06
3.56038e+06
635746
557422
804219
1.48676e+06
3.25518e+06
3.00523e+06
533116
524273
711374
1.24689e+06
2.60446e+06
2.27207e+06
652089
483942
695142
1.26854e+06
4.32156e+06
3.94008e+06
1.79311e+06
932002
578875
655759
3.65764e+06
3.34864e+06
1.52735e+06
834682
547583
562156
3.09101e+06
2.69758e+06
1.29633e+06
747035
507154
672661
2.36562e+06
4.53938e+06
1.33204e+06
727288
976253
1.88261e+06
4.09415e+06
3.79943e+06
703171
605018
885141
1.64667e+06
3.5469e+06
3.38967e+06
687428
570590
834308
1.50532e+06
3.29231e+06
3.0962e+06
583225
556946
764381
1.3163e+06
2.72509e+06
2.38533e+06
701073
521695
753892
1.37155e+06
4.5921e+06
4.21633e+06
1.95313e+06
1.01377e+06
627335
729635
3.87585e+06
3.64134e+06
1.71166e+06
915583
594854
743487
3.5164e+06
3.48153e+06
1.61723e+06
873831
574239
683132
3.31854e+06
3.20655e+06
1.4869e+06
838850
565104
596218
3.03494e+06
2.69032e+06
1.31957e+06
774196
531482
713993
2.39073e+06
4.58979e+06
1.38781e+06
765219
1.0215e+06
1.9548e+06
4.13487e+06
3.839e+06
752136
642271
937526
1.72957e+06
3.67224e+06
3.51793e+06
744782
610167
894514
1.62763e+06
3.44285e+06
3.29336e+06
695825
588675
854523
1.50006e+06
3.17803e+06
3.03155e+06
615333
578578
793873
1.34811e+06
2.7648e+06
2.44764e+06
740567
548232
789283
1.4214e+06
4.59502e+06
4.2132e+06
1.99878e+06
1.05231e+06
664716
772528
3.90383e+06
3.74285e+06
1.77731e+06
967223
629340
762510
3.58352e+06
3.51022e+06
1.67136e+06
920600
609258
734103
3.38498e+06
3.28203e+06
1.562e+06
886442
600006
638526
3.12813e+06
2.85991e+06
1.39824e+06
823920
566291
751034
2.52571e+06
4.70588e+06
1.45588e+06
810558
1.0759e+06
2.03274e+06
4.24622e+06
3.9841e+06
807046
684068
994947
1.82762e+06
3.82281e+06
3.65812e+06
792371
647646
945425
1.72433e+06
3.58547e+06
3.45433e+06
758953
628602
912111
1.60735e+06
3.34704e+06
3.18902e+06
663626
618752
850054
1.44128e+06
2.92356e+06
2.57924e+06
781833
585214
838177
1.50202e+06
4.82767e+06
4.44825e+06
2.10234e+06
1.11417e+06
706827
818083
4.12271e+06
3.88824e+06
1.86585e+06
1.02522e+06
672025
823428
3.72528e+06
3.64606e+06
1.77048e+06
978158
650598
778357
3.53841e+06
3.48625e+06
1.64628e+06
942603
639836
676348
3.26001e+06
2.93639e+06
1.45771e+06
871078
604835
814258
2.604e+06
4.85298e+06
1.54456e+06
868929
1.15697e+06
2.17831e+06
4.54917e+06
4.17254e+06
820188
734946
1.04955e+06
1.90018e+06
3.98549e+06
3.80999e+06
826778
688891
999427
1.78449e+06
3.67825e+06
3.57113e+06
801364
668168
966221
1.67939e+06
3.51298e+06
3.2871e+06
688293
655223
887710
1.47289e+06
2.92957e+06
2.61615e+06
813696
615705
876455
1.55854e+06
4.85709e+06
4.4685e+06
2.1709e+06
1.15822e+06
736811
856397
4.18069e+06
3.95686e+06
1.92133e+06
1.05685e+06
695697
818261
3.73603e+06
3.59722e+06
1.74635e+06
1.00547e+06
679071
706551
3.3851e+06
3.08488e+06
1.52526e+06
916906
637863
835663
2.73909e+06
4.99317e+06
1.59709e+06
903889
1.19716e+06
2.21107e+06
4.52415e+06
4.18816e+06
851358
760901
1.07732e+06
1.9339e+06
3.94819e+06
3.76965e+06
830245
709290
1.01886e+06
1.76493e+06
3.667e+06
3.44449e+06
717831
691275
929292
1.53249e+06
3.05204e+06
2.71667e+06
848466
648059
914592
1.60243e+06
4.95846e+06
4.50744e+06
2.20236e+06
1.2069e+06
777514
849843
4.17561e+06
3.87281e+06
1.89878e+06
1.0859e+06
722292
726865
3.60069e+06
3.20041e+06
1.59185e+06
959265
668903
874487
2.8252e+06
5.14619e+06
1.6517e+06
942768
1.24511e+06
2.26884e+06
4.61325e+06
4.22875e+06
850696
797895
1.10296e+06
1.93829e+06
3.92211e+06
3.65593e+06
752593
731013
973888
1.61148e+06
3.24989e+06
2.86244e+06
870189
678999
945605
1.65256e+06
5.099e+06
4.63519e+06
2.25509e+06
1.23968e+06
796427
871646
4.30466e+06
3.96985e+06
1.94805e+06
1.10327e+06
729841
754604
3.70242e+06
3.23667e+06
1.58957e+06
966961
676411
854014
2.8479e+06
4.97862e+06
1.60712e+06
931922
1.21234e+06
2.16745e+06
4.45617e+06
4.04245e+06
775043
783877
1.02418e+06
1.6943e+06
3.44032e+06
3.0029e+06
860453
705279
957762
1.66474e+06
5.19388e+06
4.57658e+06
2.24317e+06
1.24967e+06
802925
795587
4.11397e+06
3.49428e+06
1.73835e+06
1.04841e+06
723174
919069
3.04843e+06
5.33344e+06
1.74269e+06
992397
1.28985e+06
2.34619e+06
4.71693e+06
4.21952e+06
771122
807824
1.05434e+06
1.76322e+06
3.55122e+06
3.08472e+06
903375
718781
978358
1.72099e+06
5.26461e+06
4.60803e+06
2.3181e+06
1.27073e+06
790044
760953
4.21487e+06
3.54524e+06
1.72166e+06
1.02257e+06
689997
796154
3.02113e+06
4.8149e+06
1.533e+06
899863
1.12468e+06
1.91763e+06
3.95829e+06
3.30802e+06
818390
727330
932372
1.62065e+06
5.20365e+06
4.16286e+06
1.98816e+06
1.16163e+06
752065
850824
3.44851e+06
5.34362e+06
1.67262e+06
965483
1.21569e+06
2.09921e+06
4.35827e+06
3.63719e+06
851496
769755
984846
1.72965e+06
5.61092e+06
4.50654e+06
2.15497e+06
1.23911e+06
774757
896560
3.70866e+06
5.61728e+06
1.78793e+06
1.00162e+06
1.26294e+06
2.24974e+06
4.61063e+06
3.82127e+06
769867
744871
941503
1.75011e+06
5.61363e+06
4.51586e+06
2.16526e+06
1.18403e+06
671812
775329
3.76264e+06
5.50229e+06
1.67822e+06
866821
1.04982e+06
2.01349e+06
4.23909e+06
3.30979e+06
633647
534859
682391
1.32077e+06
4.11006e+06
5.86531e+06
1.49966e+06
792434
952621
2.0078e+06
4.2197e+06
3.17027e+06
410782
396955
465496
878026
3.46092e+06
3.77393e+06
963791
516511
565513
1.10489e+06
4.11986e+06
4.45227e+06
1.12884e+06
606288
668610
1.30407e+06
5.03809e+06
6.45672e+06
1.48726e+06
737086
881171
2.02556e+06
4.16546e+06
3.02471e+06
280926
293747
326368
690084
2.8777e+06
2.8668e+06
705486
334750
334709
702427
2.82226e+06
2.79075e+06
700165
335390
335617
699006
2.76294e+06
2.7338e+06
697249
336043
336183
696433
2.71176e+06
2.69093e+06
694071
336593
336821
693606
2.67314e+06
2.65748e+06
691954
336911
336974
690971
2.64289e+06
2.62933e+06
689602
336980
336940
688835
2.61713e+06
2.60538e+06
687073
336792
336722
686476
2.59484e+06
2.58464e+06
684751
336491
336380
684219
2.57538e+06
2.56645e+06
682549
336092
335949
681743
2.55822e+06
2.55034e+06
680497
335656
335478
679592
2.54293e+06
2.53583e+06
678407
335205
334994
677902
2.52925e+06
2.52283e+06
676364
334671
334482
675713
2.51685e+06
2.51106e+06
674610
334162
333963
673873
2.50555e+06
2.50022e+06
672797
333672
333455
672247
2.49525e+06
2.49041e+06
671361
333153
332917
670351
2.48568e+06
2.48134e+06
669757
332664
332383
668774
2.47695e+06
2.47288e+06
668218
332175
331899
667251
2.46878e+06
2.46506e+06
666915
331693
331374
665763
2.46122e+06
2.45773e+06
665519
331208
330906
664435
2.45417e+06
2.45088e+06
664079
330724
330430
663213
2.4476e+06
2.44445e+06
662801
330253
329982
661934
2.44134e+06
2.43845e+06
661668
329796
329498
660713
2.43546e+06
2.43265e+06
660339
329325
329065
659630
2.42992e+06
2.42719e+06
659110
328872
328649
658779
2.42472e+06
2.42204e+06
657900
328418
328224
657706
2.41972e+06
2.41715e+06
656866
327977
327795
656653
2.41495e+06
2.41258e+06
655886
327550
327353
655514
2.41036e+06
2.40814e+06
654932
327145
326907
654516
2.40597e+06
2.40389e+06
653965
326790
326472
653497
2.40176e+06
2.39977e+06
653222
326348
326080
652477
2.39769e+06
2.39583e+06
652307
325930
325655
651573
2.39377e+06
2.3919e+06
651282
325518
325297
650976
2.39012e+06
2.38822e+06
650305
325045
324902
649978
2.38646e+06
2.38464e+06
649449
324691
324462
649076
2.38286e+06
2.38116e+06
648815
324292
324058
648142
2.37935e+06
2.37778e+06
647990
323888
323641
647339
2.37605e+06
2.3744e+06
647032
323478
323251
646562
2.37277e+06
2.37112e+06
646344
323075
322850
645714
2.36947e+06
2.36795e+06
645561
322677
322424
644962
2.36634e+06
2.36479e+06
644665
322330
322017
644239
2.36323e+06
2.36171e+06
644037
321900
321638
643445
2.36013e+06
2.35871e+06
643310
321481
321242
642729
2.3571e+06
2.35565e+06
642485
321080
320843
642235
2.35424e+06
2.35265e+06
641652
320646
320447
641517
2.35134e+06
2.3497e+06
640935
320198
320021
640722
2.34834e+06
2.34682e+06
640268
319785
319594
639950
2.34539e+06
2.34402e+06
639729
319386
319139
639148
2.34247e+06
2.34115e+06
639019
318979
318668
638461
2.33967e+06
2.33825e+06
638187
318540
318261
637764
2.33685e+06
2.33537e+06
637569
318095
317806
637001
2.33395e+06
2.33244e+06
636753
317608
317385
636515
2.33116e+06
2.32965e+06
635929
317115
316922
635654
2.32824e+06
2.3268e+06
635221
316650
316431
635021
2.32532e+06
2.32384e+06
634429
316175
315953
634277
2.32245e+06
2.32095e+06
633759
315667
315455
633550
2.31951e+06
2.31795e+06
632944
315170
314957
632682
2.31648e+06
2.31505e+06
632413
314680
314399
631883
2.3135e+06
2.31203e+06
631670
314163
313867
631051
2.3104e+06
2.30891e+06
630793
313638
313335
630528
2.30741e+06
2.30574e+06
629898
313064
312793
629757
2.30431e+06
2.30264e+06
629137
312475
312216
628845
2.30107e+06
2.29943e+06
628370
311909
311612
628039
2.29778e+06
2.29616e+06
627573
311370
310987
627202
2.29443e+06
2.2928e+06
626761
310765
310378
626366
2.29102e+06
2.28935e+06
625924
310152
309741
625515
2.28754e+06
2.28579e+06
625069
309502
309097
624660
2.28398e+06
2.28214e+06
624194
308822
308461
623753
2.28031e+06
2.27838e+06
623286
308119
307792
622826
2.27649e+06
2.2745e+06
622559
307438
307082
621844
2.27249e+06
2.27054e+06
621672
306741
306354
620909
2.26838e+06
2.26641e+06
620749
306020
305614
619979
2.26413e+06
2.26202e+06
619671
305291
304874
619351
2.25984e+06
2.25749e+06
618576
304495
304115
618379
2.2553e+06
2.25288e+06
617654
303711
303341
617299
2.25051e+06
2.24803e+06
616724
302919
302540
616280
2.24552e+06
2.24294e+06
615749
302096
301706
615279
2.24028e+06
2.2376e+06
614770
301279
300895
614283
2.2348e+06
2.23199e+06
613776
300469
300040
613280
2.22903e+06
2.22605e+06
612794
299633
299217
612296
2.22296e+06
2.2198e+06
612028
298815
298386
611319
2.21651e+06
2.21327e+06
611188
298005
297569
610520
2.20973e+06
2.20637e+06
610412
297201
296769
609776
2.20258e+06
2.19906e+06
609680
296418
295976
609236
2.19509e+06
2.19128e+06
609070
295644
295232
608567
2.18705e+06
2.18305e+06
608515
294906
294500
608090
2.17849e+06
2.17417e+06
608030
294200
293831
607801
2.16941e+06
2.16469e+06
607704
293531
293201
607600
2.15963e+06
2.15459e+06
607618
292926
292602
607556
2.14901e+06
2.14362e+06
607742
292370
292069
607746
2.13749e+06
2.13161e+06
608132
291885
291607
608190
2.12488e+06
2.1183e+06
608505
291471
291307
609155
2.11106e+06
2.10355e+06
609581
291094
291056
610271
2.0955e+06
2.08697e+06
610984
290844
290836
611857
2.07787e+06
2.06812e+06
612841
290688
290688
613955
2.05772e+06
2.04649e+06
615227
290579
290589
616635
2.03451e+06
2.02147e+06
618045
290539
290519
619938
2.00783e+06
1.9928e+06
621632
290470
290452
623681
1.97718e+06
1.96022e+06
625531
290437
290431
627793
1.94306e+06
1.9254e+06
630173
290562
290930
633083
1.90824e+06
1.89083e+06
636081
291345
291969
639480
1.87408e+06
1.85743e+06
642858
292717
293645
646297
1.84153e+06
1.82609e+06
650077
294680
295849
653474
1.81139e+06
1.79748e+06
657004
297239
298676
660185
1.78432e+06
1.77213e+06
663294
300293
302045
666000
1.76075e+06
1.75036e+06
668240
303895
305866
670385
1.74083e+06
1.73218e+06
672180
307875
310000
673133
1.72436e+06
1.71742e+06
674569
312121
314246
674522
1.71117e+06
1.70578e+06
674831
316379
318466
674740
1.70101e+06
1.69704e+06
674057
320551
322549
673032
1.69366e+06
1.69083e+06
671706
324459
326350
670163
1.68819e+06
1.68576e+06
668391
328039
329632
666523
1.68351e+06
1.68144e+06
664641
331172
332485
662530
1.67945e+06
1.67763e+06
660972
333648
334593
658826
1.67581e+06
1.67418e+06
657583
335383
335978
655744
1.67248e+06
1.67097e+06
654545
336457
336781
653102
1.66939e+06
1.66794e+06
652057
336961
337034
650766
1.66644e+06
1.66506e+06
650166
337033
336902
649121
1.66361e+06
1.66227e+06
648587
336731
336469
647684
1.66087e+06
1.65958e+06
647323
336169
335775
647103
1.65822e+06
1.65693e+06
646276
335419
334969
646397
1.65562e+06
1.65432e+06
645980
334565
334119
645829
1.65303e+06
1.65173e+06
645668
333702
333248
645583
1.65045e+06
1.64915e+06
645523
332834
332370
645494
1.64787e+06
1.64657e+06
645484
331997
331610
645498
1.64529e+06
1.64399e+06
645525
331251
330876
645570
1.6427e+06
1.64139e+06
645626
330513
330141
645694
1.6401e+06
1.63879e+06
645765
329760
329376
645845
1.63748e+06
1.63616e+06
645927
328975
328617
645829
1.63484e+06
1.63354e+06
646196
328179
327821
645894
1.63218e+06
1.6309e+06
646409
327377
327012
645997
1.62951e+06
1.62825e+06
646585
326577
326175
646434
1.62684e+06
1.62557e+06
646585
325792
325451
646441
1.62416e+06
1.62289e+06
646564
325081
324769
646589
1.62147e+06
1.62018e+06
646603
324473
324201
646810
1.61877e+06
1.61745e+06
646505
324024
323871
646882
1.61606e+06
1.6147e+06
646725
323667
323706
646722
1.61332e+06
1.61195e+06
646669
323563
323729
646654
1.61056e+06
1.60917e+06
646347
323718
323876
646583
1.60779e+06
1.60636e+06
646362
323950
324176
646308
1.60497e+06
1.60351e+06
645892
324303
324527
646107
1.60211e+06
1.60062e+06
645493
324650
324858
645804
1.59921e+06
1.59767e+06
645086
324954
325112
645155
1.59624e+06
1.59467e+06
644760
325165
325191
644832
1.5932e+06
1.59159e+06
644199
325170
325131
644344
1.59009e+06
1.58843e+06
643945
324830
324830
643784
1.58688e+06
1.58517e+06
643252
324397
324187
643358
1.58358e+06
1.58182e+06
642610
323642
323272
642789
1.58018e+06
1.57834e+06
641979
322575
322099
641980
1.57666e+06
1.57477e+06
641355
321205
320545
641368
1.57302e+06
1.57107e+06
640500
319525
318691
640554
1.56926e+06
1.56725e+06
639592
317513
316517
639626
1.56538e+06
1.5633e+06
638542
315167
314015
638554
1.56138e+06
1.55923e+06
637321
312484
311177
637291
1.55724e+06
1.55502e+06
635901
309462
307995
635793
1.55297e+06
1.55068e+06
634248
306097
304457
634029
1.54857e+06
1.54622e+06
632572
302283
300597
631864
1.54403e+06
1.54163e+06
630444
298152
296337
629458
1.53937e+06
1.53692e+06
627934
293670
291690
626705
1.53459e+06
1.5321e+06
625020
288822
286671
623550
1.52969e+06
1.52715e+06
621447
283695
281241
620042
1.52469e+06
1.52208e+06
617727
278140
275398
615849
1.51957e+06
1.51692e+06
613458
272278
269213
611175
1.51435e+06
1.51165e+06
608605
266035
262806
605739
1.50902e+06
1.50629e+06
603009
259427
256022
600170
1.5036e+06
1.50082e+06
596701
252508
249004
593602
1.49809e+06
1.49527e+06
590194
245278
241602
586515
1.49249e+06
1.48963e+06
582765
237886
234003
578722
1.48681e+06
1.48392e+06
574630
230301
226424
570036
1.48104e+06
1.4781e+06
566018
222637
218770
561182
1.47517e+06
1.47218e+06
556845
215122
211341
552099
1.46918e+06
1.4661e+06
547764
207769
204115
543398
1.46301e+06
1.45984e+06
539372
200720
197079
535266
1.45664e+06
1.45335e+06
531444
193775
190190
527199
1.45003e+06
1.44662e+06
523745
186799
183194
519394
1.44314e+06
1.43955e+06
515549
179822
176186
511074
1.4359e+06
1.43215e+06
506537
172750
169111
502153
1.42831e+06
1.42434e+06
496936
165588
161964
492346
1.42026e+06
1.41603e+06
486605
158362
154770
481430
1.41168e+06
1.40715e+06
475587
151083
147499
470052
1.40249e+06
1.3976e+06
463582
143820
140286
457811
1.39257e+06
1.38729e+06
450846
136601
133129
444751
1.38183e+06
1.37611e+06
437350
129445
126043
430894
1.37019e+06
1.36397e+06
423068
122377
119034
416210
1.35755e+06
1.35082e+06
407950
115421
112194
400436
1.34386e+06
1.33654e+06
392350
108624
105506
383886
1.32895e+06
1.321e+06
375774
102031
98985.6
366737
1.31272e+06
1.30407e+06
358416
95649.9
92729.1
349002
1.29507e+06
1.28567e+06
340434
89648.8
87062.3
330730
1.2759e+06
1.26573e+06
321822
84556
82758.5
311651
1.25515e+06
1.24419e+06
301836
81211.7
80056.6
291193
1.23285e+06
1.22113e+06
280485
78792.2
77715
269339
1.2091e+06
1.19671e+06
258006
76552.9
75560.8
245926
1.18408e+06
1.17123e+06
233793
74501.7
73578.9
220670
1.15827e+06
1.14526e+06
207150
72630.9
71816.2
192320
1.13238e+06
1.11976e+06
176871
71228.5
70993.9
165247
1.10762e+06
1.09603e+06
161375
71204.5
71448.3
156854
1.08537e+06
1.07545e+06
153119
71885
72256.2
149563
1.06753e+06
1.06125e+06
146387
72745.3
72929.4
143014
1.05851e+06
1.06134e+06
148939
76721.6
82316.5
151596
1.06711e+06
1.0778e+06
151751
84442.4
85107.7
151622
1.09238e+06
1.12074e+06
150888
87885.8
89953.9
164360
1.15527e+06
1.20989e+06
180414
95936.3
99326.7
199678
1.25492e+06
1.27548e+06
205775
106208
112343
222862
1.3092e+06
80788.6
57660.6
26375.5
10173
4960.22
3076.33
2542.16
2333.37
2195.5
2125.17
2089.36
2067.92
2081.24
2064.33
2044.59
2055.93
2058.31
2005.43
2005.62
1999.5
2006.94
2010.3
2024.86
2092.91
2639.4
5942.38
20738.6
48637
73397.7
97877.8
116422
122506
100691
45874.4
32975.9
27815.4
25523.8
24478.9
24035.3
23906
23953.1
24111
24328.5
24565.7
24788.1
24965.9
25072.3
25098.6
25038.6
24890.6
24660.8
24361.5
24010.4
23627.3
23226.6
22808.8
22357.3
21859.8
21295.2
20672
20009.6
19389
18919.7
18661.5
18623.9
18614.1
18609.7
18602.6
18593.9
18586.5
18578
18570.3
18562.4
18554.9
18547.7
18540.8
18534.4
18528.5
18523.1
18518.3
18514.1
18510.6
18508
18506.2
18505.4
18505.3
18506.4
18508.8
18512.5
18517.8
18524.6
18533.3
18543.8
18556.5
18571.3
18588.4
18607.9
18629.8
18654.2
18681
18710.4
18742.1
18776.3
18812.9
18851.8
18893
18936.5
18982.2
19030.1
19080.2
19132.4
19186.7
19243.3
19301.9
19362.8
19425.8
19491
19558.5
19628.1
19700
19774
19850.2
19928.5
20009
20091.5
20176
20262.4
20350.8
20441
20533
20626.8
20722.2
20819.3
20918.1
21018.4
21120.2
21223.5
21328.3
21434.5
21542.2
21651.2
21761.5
21873
21985.8
22099.8
22214.9
22331.1
22448.3
22566.7
22686.1
22806.7
22928.4
23051.4
23175.5
23300.8
23427.2
23555
23683.9
23814
23945.3
24077.7
24211.5
24346.5
24482.8
24620.5
24759.9
24900.8
25043.7
25188.6
25335.6
25485
25637
25791.9
25949.9
26111.2
26276.1
26444.8
26617.5
26794.3
26975.2
27160.1
27349.2
27542.3
27739.4
27940.8
28147.8
28361.3
28579.8
28803
29030.4
29262.1
29498.1
29739.9
29987.5
30240.7
30499.9
30765.5
31037.8
31317.3
31604.4
31899.5
32203.3
32516.1
32838.5
33171
33514.2
33868.4
34234
34611.3
35000.4
35401.3
35813.9
36238
36673
37118.1