/*--------------------------------*- C++ -*----------------------------------*\
| =========                 |                                                 |
| \\      /  F ield         | OpenFOAM: The Open Source CFD Toolbox           |
|  \\    /   O peration     | Version:  v2006                                 |
|   \\  /    A nd           | Website:  www.openfoam.com                      |
|    \\/     M anipulation  |                                                 |
\*---------------------------------------------------------------------------*/
FoamFile
{
    version     2.0;
    format      ascii;
    class       volScalarField;
    location    "0.01";
    object      T;
}
// * * * * * * * * * * * * * * * * * * * * * * * * * * * * * * * * * * * * * //

dimensions      [0 0 0 1 0 0 0];


internalField   nonuniform List<scalar> 
31566
(
300.292
300.337
300.26
300.224
300.158
300.056
299.925
299.771
299.605
299.446
299.301
299.183
299.094
299.038
299.016
299.027
299.068
299.131
299.21
299.298
299.388
299.473
299.552
299.621
299.68
299.73
299.77
299.8
299.82
299.816
299.676
299.686
299.782
299.899
299.899
299.878
299.857
299.841
299.825
299.812
299.801
299.793
299.788
299.783
299.781
299.781
299.783
299.786
299.786
299.785
299.784
299.784
299.783
299.783
299.784
299.784
299.785
299.786
299.787
299.788
299.789
299.79
299.791
299.792
299.793
299.794
299.795
299.796
299.797
299.797
299.796
299.796
299.796
299.795
299.795
299.795
299.795
299.795
299.795
299.795
299.795
299.795
299.794
299.794
299.794
299.793
299.793
299.793
299.792
299.792
299.792
299.792
299.792
299.791
299.791
299.791
299.791
299.791
299.791
299.791
299.791
299.792
299.793
299.793
299.794
299.796
299.798
299.8
299.802
299.812
299.814
299.801
299.797
299.795
299.8
299.818
299.819
299.798
299.791
299.786
299.793
299.816
299.812
299.788
299.781
299.777
299.785
299.812
299.813
299.785
299.775
299.774
299.787
299.815
299.816
299.788
299.775
299.775
299.788
299.813
299.806
299.787
299.774
299.771
299.782
299.795
299.781
299.774
299.766
299.758
299.764
299.762
299.739
299.75
299.748
299.735
299.733
299.715
299.69
299.715
299.72
299.702
299.694
299.666
299.644
299.673
299.683
299.663
299.651
299.625
299.609
299.632
299.644
299.624
299.613
299.597
299.588
299.598
299.607
299.591
299.586
299.583
299.58
299.577
299.579
299.569
299.57
299.579
299.579
299.566
299.561
299.557
299.564
299.579
299.58
299.564
299.554
299.553
299.565
299.581
299.581
299.566
299.553
299.554
299.568
299.582
299.582
299.57
299.556
299.558
299.572
299.581
299.576
299.573
299.561
299.563
299.573
299.568
299.558
299.571
299.563
299.562
299.565
299.546
299.533
299.557
299.558
299.551
299.546
299.518
299.502
299.534
299.541
299.529
299.52
299.485
299.468
299.504
299.517
299.501
299.487
299.45
299.432
299.47
299.486
299.468
299.452
299.414
299.397
299.433
299.451
299.431
299.415
299.381
299.367
299.396
299.413
299.393
299.378
299.354
299.343
299.362
299.375
299.356
299.346
299.335
299.329
299.333
299.34
299.324
299.322
299.325
299.321
299.313
299.311
299.299
299.305
299.318
299.314
299.298
299.289
299.28
299.292
299.311
299.308
299.285
299.272
299.264
299.28
299.306
299.304
299.275
299.256
299.249
299.271
299.304
299.304
299.268
299.244
299.24
299.267
299.304
299.304
299.267
299.238
299.237
299.268
299.304
299.304
299.269
299.238
299.239
299.271
299.305
299.308
299.273
299.242
299.244
299.275
299.312
299.314
299.278
299.246
299.248
299.282
299.315
299.311
299.285
299.25
299.253
299.286
299.299
299.282
299.286
299.256
299.257
299.28
299.258
299.231
299.27
299.257
299.252
299.25
299.201
299.17
299.229
299.241
299.219
299.2
299.135
299.101
299.172
299.198
299.168
299.137
299.064
299.028
299.106
299.141
299.105
299.069
298.988
298.948
299.035
299.075
299.038
298.996
298.901
298.859
298.96
299.007
298.97
298.92
298.816
298.779
298.882
298.939
298.9
298.843
298.746
298.713
298.809
298.869
298.833
298.775
298.682
298.654
298.748
298.807
298.778
298.721
298.626
298.599
298.697
298.759
298.736
298.674
298.575
298.556
298.653
298.721
298.702
298.633
298.54
298.534
298.617
298.688
298.671
298.602
298.533
298.536
298.594
298.659
298.649
298.592
298.547
298.559
298.593
298.646
298.644
298.597
298.567
298.571
298.605
298.646
298.651
298.613
298.57
298.565
298.619
298.663
298.669
298.619
298.549
298.529
298.616
298.672
298.671
298.605
298.504
298.477
298.589
298.667
298.653
298.565
298.445
298.411
298.539
298.638
298.609
298.506
298.375
298.339
298.472
298.584
298.543
298.432
298.306
298.274
298.396
298.511
298.467
298.358
298.244
298.217
298.323
298.431
298.387
298.288
298.189
298.157
298.259
298.355
298.319
298.229
298.117
298.079
298.202
298.294
298.263
298.169
298.043
298.008
298.137
298.24
298.205
298.101
297.974
297.942
298.067
298.174
298.138
298.033
297.918
297.897
298.002
298.107
298.068
297.971
297.867
297.832
297.947
298.039
298.014
297.925
297.802
297.768
297.896
297.995
297.965
297.865
297.731
297.687
297.833
297.938
297.906
297.798
297.648
297.623
297.762
297.875
297.838
297.724
297.609
297.608
297.692
297.802
297.762
297.668
297.614
297.631
297.655
297.729
297.703
297.653
297.648
297.66
297.657
297.693
297.693
297.669
297.673
297.689
297.686
297.699
297.711
297.699
297.703
297.713
297.712
297.725
297.735
297.721
297.72
297.728
297.734
297.745
297.759
297.75
297.738
297.742
297.765
297.778
297.795
297.773
297.738
297.74
297.776
297.805
297.81
297.779
297.745
297.747
297.784
297.815
297.821
297.788
297.741
297.733
297.787
297.824
297.82
297.779
297.728
297.715
297.774
297.815
297.808
297.763
297.685
297.665
297.741
297.792
297.773
297.722
297.66
297.657
297.709
297.759
297.737
297.688
297.656
297.662
297.672
297.709
297.689
297.668
297.683
297.688
297.671
297.681
297.676
297.674
297.682
297.678
297.676
297.676
297.677
297.677
297.674
297.661
297.676
297.677
297.672
297.665
297.645
297.633
297.639
297.651
297.622
297.618
297.634
297.648
297.613
297.607
297.599
297.611
297.666
297.688
297.611
297.582
297.578
297.618
297.737
297.777
297.653
297.585
297.62
297.702
297.788
297.789
297.731
297.663
297.687
297.74
297.788
297.789
297.74
297.693
297.697
297.742
297.797
297.814
297.747
297.699
297.7
297.749
297.835
297.882
297.76
297.704
297.71
297.781
297.927
297.958
297.797
297.712
297.731
297.841
298.025
298.081
297.92
297.795
297.842
297.959
298.097
298.106
297.981
297.869
297.917
298.018
298.133
298.151
298.038
297.949
297.952
298.037
298.162
298.202
298.059
297.967
298.018
298.121
298.258
298.269
298.137
298.037
298.015
298.116
298.277
298.366
298.158
298.043
298.107
298.239
298.448
298.42
298.239
298.106
298.073
298.202
298.362
298.419
298.247
298.102
298.166
298.316
298.481
298.493
298.359
298.225
298.291
298.407
298.534
298.604
298.458
298.349
298.369
298.474
298.631
298.618
298.453
298.349
298.333
298.446
298.622
298.684
298.478
298.341
298.382
298.539
298.747
298.818
298.624
298.475
298.585
298.728
298.922
298.925
298.748
298.604
298.55
298.676
298.823
298.856
298.687
298.558
298.688
298.828
299.014
299.104
298.931
298.794
298.829
298.962
299.135
299.137
298.937
298.806
298.807
298.948
299.231
299.38
299.035
298.862
298.945
299.167
299.504
299.551
299.29
299.054
299.129
299.329
299.54
299.6
299.395
299.209
299.293
299.468
299.658
299.694
299.515
299.353
299.415
299.57
299.769
299.832
299.626
299.477
299.57
299.727
299.928
300.063
299.829
299.671
299.756
299.928
300.219
300.341
300.049
299.863
299.939
300.16
300.478
300.602
300.241
299.982
300.01
300.265
300.624
300.556
300.263
300.003
300.115
300.406
300.61
299.896
299.891
299.943
300.012
300.081
300.168
300.231
300.292
300.333
300.364
300.374
300.367
300.279
300.08
300.003
299.995
299.993
299.992
299.991
299.989
299.992
299.986
299.994
299.984
299.993
299.982
299.993
299.98
299.992
299.98
299.991
299.979
299.992
299.973
299.994
299.789
300.153
299.999
300.003
300.002
300.002
300.001
300
300
300
300
300
300
300
300.002
299.996
300.27
300.125
299.763
299.995
299.99
299.991
300.015
300.001
299.925
299.951
300.03
300.02
300.037
300.057
299.954
299.95
300.094
300.047
300.053
300.087
299.84
299.459
300.053
300.052
300.043
299.964
298.977
298.442
299.905
300.002
299.663
299.43
297.855
297.797
299.126
299.534
299.502
298.949
297.858
298.039
298.917
299.458
299.407
298.894
298.248
298.431
298.856
299.287
299.193
298.821
298.59
298.718
298.758
298.997
298.855
298.697
298.813
298.881
298.572
298.618
298.458
298.468
298.915
298.931
298.31
298.203
298.036
298.2
298.929
298.91
298.021
297.776
297.592
297.889
298.865
298.757
297.656
297.299
297.088
297.506
298.681
298.528
297.26
296.801
296.585
297.104
298.432
298.238
296.836
296.299
296.071
296.666
298.106
297.873
296.381
295.79
295.549
296.21
297.727
297.46
295.901
295.27
295.005
295.718
297.292
296.973
295.37
294.725
294.424
295.165
296.774
296.394
294.773
294.141
293.786
294.543
296.162
295.704
294.085
293.484
293.046
293.808
295.419
294.853
293.251
292.711
292.155
292.902
294.494
293.773
292.198
291.761
291.021
291.739
293.296
292.318
290.792
290.503
289.447
290.131
291.643
290.239
288.736
288.68
286.878
287.781
289.283
287.345
285.805
286.175
284.018
284.654
286.141
284.03
282.531
283.017
281.673
281.595
282.973
281.01
279.691
280.138
279.579
279.039
280.241
277.376
276.414
277.56
277.438
278.044
279.995
274.324
273.789
274.875
273.551
274.5
274.132
274.016
274.457
273.868
273.833
274.218
273.917
273.281
273.432
273.934
273.185
272.604
272.542
270.659
270.687
271.715
271.038
269.93
269.886
266.849
266.812
268.658
268.525
268.66
269.061
264.22
264.057
265.514
263.353
264.423
263.281
262.851
263.988
263.299
262.877
262.572
261.2
260.297
261.475
261.363
260.816
257.338
256.343
256.591
257.315
259.21
253.888
252.202
251.86
250.044
251.326
251.157
246.344
246.841
245.286
244.333
245.843
245.755
241.308
240.979
240.06
237.258
238.151
237.025
239.453
243.001
238.163
244.872
245.302
250.63
285.422
300.143
289.673
315.741
311.767
307.265
319.861
319.742
320.225
321.96
321.761
321.816
321.088
321.157
321.264
321.271
321.195
321.262
321.216
321.128
321.113
321.141
321.18
321.298
321.305
321.161
321.096
321.115
321.16
321.309
321.346
321.22
321.136
321.096
321.159
321.354
321.38
321.199
321.124
321.16
321.251
321.372
321.405
321.186
321.114
321.145
321.229
321.414
321.408
321.288
321.192
321.139
321.218
321.442
321.444
321.257
321.168
321.218
321.315
321.441
321.468
321.24
321.16
321.189
321.28
321.472
321.464
321.338
321.239
321.173
321.262
321.499
321.469
321.288
321.197
321.248
321.348
321.477
321.51
321.269
321.177
321.198
321.298
321.479
321.501
321.359
321.252
321.173
321.261
321.516
321.494
321.299
321.192
321.247
321.357
321.506
321.517
321.243
321.158
321.174
321.284
321.477
321.49
321.362
321.232
321.154
321.267
321.487
321.444
321.3
321.197
321.116
321.214
321.47
321.421
321.222
321.11
321.155
321.273
321.431
321.43
321.139
321.052
321.054
321.179
321.409
321.379
321.212
321.095
320.991
321.079
321.391
321.343
321.119
320.99
321.04
321.186
321.338
321.288
321.048
320.932
320.969
321.091
321.258
321.276
320.976
320.878
320.855
320.983
321.189
321.191
321.047
320.892
320.803
320.923
321.162
321.162
320.977
320.845
320.741
320.845
321.173
321.067
320.837
320.713
320.753
320.893
321.087
321.109
320.754
320.652
320.637
320.78
321.037
321.018
320.843
320.675
320.57
320.69
320.973
320.937
320.769
320.613
320.527
320.656
320.941
320.874
320.683
320.549
320.443
320.529
320.865
320.803
320.552
320.415
320.464
320.644
320.837
320.839
320.503
320.361
320.379
320.522
320.726
320.736
320.36
320.264
320.231
320.375
320.643
320.688
320.476
320.278
320.165
320.312
320.665
320.54
320.357
320.187
320.075
320.207
320.511
320.453
320.237
320.084
319.991
320.085
320.46
320.386
320.104
319.95
319.991
320.19
320.4
320.32
319.988
319.85
319.875
320.063
320.259
320.216
319.903
319.765
319.777
319.957
320.204
320.216
319.777
319.665
319.613
319.769
320.066
320.081
319.848
319.64
319.517
319.662
320.037
319.956
319.74
319.541
319.432
319.58
319.943
319.875
319.62
319.437
319.31
319.413
319.871
319.742
319.424
319.261
319.302
319.522
319.778
319.72
319.324
319.175
319.213
319.422
319.672
319.641
319.242
319.09
319.103
319.301
319.524
319.485
319.124
318.983
318.986
319.182
319.449
319.467
318.998
318.892
318.839
319.016
319.362
319.398
319.121
318.886
318.744
318.906
319.356
319.259
318.994
318.775
318.65
318.804
319.234
319.129
318.884
318.66
318.562
318.707
319.114
319.015
318.787
318.568
318.452
318.603
319.019
318.922
318.644
318.439
318.336
318.448
318.945
318.812
318.447
318.273
318.319
318.566
318.854
318.827
318.358
318.186
318.216
318.445
318.727
318.686
318.239
318.08
318.081
318.315
318.566
318.54
318.128
317.975
317.97
318.207
318.457
318.432
318.012
317.858
317.842
318.064
318.366
318.382
317.858
317.744
317.678
317.864
318.248
318.283
317.978
317.725
317.586
317.76
318.262
318.137
317.848
317.615
317.485
317.646
318.102
318.014
317.745
317.495
317.393
317.558
318.003
317.905
317.637
317.383
317.268
317.43
317.885
317.789
317.473
317.246
317.155
317.277
317.821
317.69
317.276
317.083
317.138
317.412
317.75
317.673
317.166
316.982
317.011
317.266
317.577
317.532
317.048
316.87
316.869
317.14
317.429
317.375
316.92
316.746
316.727
317.001
317.294
317.259
316.772
316.597
316.566
316.811
317.152
317.179
316.592
316.459
316.379
316.587
317.024
317.086
316.715
316.423
316.252
316.439
316.986
316.871
316.538
316.256
316.123
316.307
316.843
316.683
316.375
316.099
315.965
316.139
316.624
316.536
316.226
315.943
315.823
316.005
316.528
316.41
316.046
315.787
315.677
315.817
316.435
316.234
315.794
315.583
315.609
315.903
316.265
316.206
315.636
315.448
315.447
315.74
316.089
316.059
315.506
315.328
315.306
315.603
315.933
315.924
315.38
315.194
315.153
315.431
315.743
315.731
315.215
315.035
314.988
315.227
315.591
315.616
315.024
314.891
314.791
314.997
315.455
315.54
315.146
314.834
314.665
314.859
315.427
315.318
314.966
314.656
314.518
314.719
315.306
315.076
314.744
314.471
314.343
314.531
315.059
314.931
314.535
314.291
314.212
314.348
314.956
314.788
314.311
314.102
314.142
314.455
314.847
314.732
314.166
313.968
313.955
314.256
314.633
314.556
313.985
313.789
313.742
314.019
314.365
314.349
313.83
313.634
313.577
313.845
314.252
314.295
313.647
313.49
313.356
313.573
314.046
314.085
313.686
313.365
313.183
313.381
313.957
313.768
313.422
313.143
312.983
313.169
313.668
313.641
313.212
312.93
312.849
313.01
313.692
313.431
312.933
312.708
312.718
313.06
313.476
313.368
312.742
312.527
312.479
312.763
313.129
313.075
312.513
312.307
312.239
312.501
312.926
312.993
312.339
312.179
312.026
312.242
312.759
312.812
312.369
312.037
311.835
312.046
312.672
312.43
312.045
311.78
311.576
311.785
312.344
312.184
311.751
311.506
311.482
311.648
312.277
311.998
311.498
311.299
311.303
311.608
312.04
311.918
311.308
311.094
310.987
311.222
311.646
311.665
310.977
310.806
310.708
310.907
311.392
311.529
311.091
310.732
310.568
310.805
311.444
311.236
310.784
310.482
310.299
310.495
311.27
310.808
310.322
310.089
310.066
310.352
310.719
310.718
310.191
309.953
309.853
310.119
310.552
310.655
310.024
309.82
309.498
309.706
310.132
310.089
309.71
309.444
309.177
309.386
309.827
309.666
309.267
309.09
309.138
309.305
309.804
309.411
308.98
308.796
308.693
308.977
309.353
309.285
308.646
308.46
308.183
308.343
308.735
308.688
308.321
308.145
308.195
308.375
308.853
308.326
307.903
307.762
307.633
307.843
308.269
308.01
307.497
307.29
307.104
307.22
307.528
307.547
307.229
307.081
307.086
307.285
307.667
306.77
306.533
306.513
306.362
306.395
306.654
306.232
306.263
306.324
305.838
305.801
306.087
305.927
305.693
305.627
305.52
305.58
305.795
304.827
304.687
304.844
304.676
304.579
304.671
304.891
304.763
304.852
304.03
303.72
303.849
303.455
303.419
303.754
303.427
303.13
303.117
303.356
303.397
303.577
303.033
302.485
302.637
302.495
302.31
302.773
302.576
302.123
302.27
302.021
302.094
302.51
302.661
302.394
302.225
302.757
302.898
303.077
303.722
303.506
303.412
304.478
304.745
304.874
305.132
304.831
304.841
305.604
305.674
305.839
306.129
305.948
305.866
306.242
306.333
306.489
306.694
306.518
306.411
306.655
306.772
306.929
307.077
306.9
306.77
306.94
307.079
307.242
307.35
307.17
307.02
307.141
307.297
307.469
307.549
307.365
307.198
307.283
307.455
307.634
307.693
307.505
307.324
307.383
307.569
307.755
307.798
307.604
307.411
307.451
307.649
307.841
307.872
307.674
307.469
307.494
307.704
307.902
307.922
307.72
307.505
307.517
307.738
307.942
307.954
307.747
307.522
307.525
307.755
307.965
307.971
307.758
307.525
307.521
307.76
307.974
307.975
307.758
307.516
307.507
307.754
307.973
307.969
307.747
307.496
307.483
307.738
307.962
307.954
307.727
307.468
307.452
307.715
307.944
307.931
307.7
307.434
307.414
307.684
307.918
307.903
307.667
307.393
307.37
307.648
307.886
307.868
307.628
307.346
307.321
307.607
307.849
307.829
307.584
307.295
307.268
307.56
307.808
307.785
307.536
307.24
307.211
307.51
307.762
307.738
307.484
307.18
307.15
307.456
307.712
307.686
307.428
307.118
307.085
307.399
307.66
307.632
307.369
307.052
307.018
307.338
307.604
307.575
307.307
306.983
306.947
307.275
307.545
307.514
307.242
306.911
306.874
307.208
307.483
307.452
307.174
306.837
306.799
307.14
307.419
307.387
307.104
306.76
306.72
307.069
307.353
307.319
307.032
306.681
306.64
306.995
307.285
307.25
306.958
306.599
306.558
306.92
307.215
307.179
306.882
306.516
306.473
306.843
307.142
307.106
306.804
306.43
306.387
306.764
307.068
307.031
306.724
306.343
306.299
306.683
306.993
306.954
306.642
306.254
306.209
306.6
306.916
306.876
306.559
306.163
306.117
306.516
306.837
306.797
306.474
306.071
306.024
306.431
306.757
306.716
306.388
305.976
305.929
306.344
306.675
306.634
306.3
305.881
305.832
306.255
306.593
306.551
306.21
305.783
305.734
306.165
306.509
306.466
306.12
305.685
305.635
306.074
306.423
306.38
306.028
305.584
305.534
305.982
306.337
306.293
305.935
305.483
305.431
305.888
306.249
306.205
305.841
305.38
305.328
305.793
306.161
306.116
305.745
305.275
305.222
305.697
306.071
306.026
305.648
305.169
305.115
305.599
305.98
305.934
305.55
305.062
305.007
305.501
305.888
305.842
305.451
304.953
304.898
305.401
305.795
305.748
305.35
304.842
304.786
305.299
305.701
305.654
305.248
304.73
304.674
305.197
305.606
305.558
305.145
304.617
304.56
305.093
305.509
305.461
305.041
304.502
304.444
304.988
305.412
305.363
304.935
304.386
304.327
304.882
305.314
305.264
304.828
304.268
304.208
304.774
305.214
305.164
304.72
304.148
304.088
304.665
305.114
305.063
304.61
304.027
303.966
304.555
305.012
304.961
304.5
303.904
303.842
304.444
304.909
304.857
304.387
303.779
303.716
304.331
304.805
304.753
304.274
303.653
303.589
304.216
304.7
304.647
304.158
303.525
303.46
304.1
304.593
304.54
304.042
303.394
303.329
303.982
304.485
304.431
303.923
303.262
303.195
303.863
304.376
304.321
303.803
303.128
303.06
303.742
304.266
304.21
303.681
302.992
302.923
303.62
304.154
304.097
303.558
302.853
302.783
303.495
304.04
303.983
303.432
302.712
302.641
303.369
303.926
303.868
303.305
302.569
302.497
303.241
303.809
303.751
303.177
302.424
302.35
303.111
303.691
303.632
303.046
302.276
302.201
302.98
303.572
303.512
302.913
302.126
302.049
302.846
303.451
303.39
302.778
301.973
301.895
302.71
303.329
303.267
302.642
301.817
301.738
302.572
303.205
303.142
302.503
301.659
301.579
302.432
303.079
303.015
302.362
301.498
301.417
302.29
302.951
302.886
302.218
301.334
301.251
302.146
302.821
302.756
302.072
301.168
301.083
301.999
302.69
302.623
301.924
300.998
300.912
301.849
302.556
302.489
301.774
300.826
300.738
301.698
302.421
302.353
301.621
300.65
300.561
301.543
302.284
302.214
301.465
300.471
300.381
301.386
302.144
302.074
301.307
300.289
300.197
301.227
302.003
301.931
301.146
300.105
300.011
301.064
301.859
301.786
300.982
299.917
299.822
300.899
301.713
301.639
300.816
299.726
299.629
300.731
301.565
301.49
300.647
299.532
299.435
300.561
301.415
301.339
300.475
299.336
299.237
300.388
301.262
301.185
300.301
299.137
299.037
300.213
301.107
301.03
300.124
298.936
298.835
300.035
300.951
300.872
299.945
298.733
298.632
299.855
300.792
300.712
299.763
298.53
298.428
299.672
300.63
300.55
299.58
298.325
298.223
299.487
300.467
300.385
299.394
298.12
298.019
299.3
300.302
300.219
299.207
297.917
297.816
299.112
300.134
300.049
299.017
297.715
297.615
298.921
299.964
299.877
298.826
297.516
297.419
298.73
299.791
299.703
298.634
297.322
297.228
298.537
299.615
299.526
298.441
297.135
297.044
298.343
299.437
299.345
298.246
296.957
296.872
298.149
299.254
299.161
298.05
296.791
296.713
297.952
299.067
298.972
297.853
296.641
296.572
297.754
298.876
298.778
297.653
296.51
296.455
297.552
298.68
298.579
297.453
296.407
296.365
297.354
298.479
298.377
297.257
296.331
296.303
297.162
298.273
298.169
297.07
296.281
296.266
296.981
298.065
297.96
296.897
296.258
296.254
296.817
297.854
297.75
296.743
296.256
296.263
296.675
297.645
297.541
296.614
296.274
296.289
296.56
297.438
297.336
296.513
296.307
296.328
296.474
297.238
297.141
296.443
296.352
296.377
296.42
297.049
296.961
296.405
296.404
296.432
296.397
296.878
296.801
296.394
296.461
296.49
296.398
296.731
296.669
296.407
296.521
296.551
296.42
296.615
296.569
296.437
296.582
296.612
296.457
296.531
296.502
296.48
296.642
296.672
296.503
296.478
296.464
296.529
296.702
296.732
296.555
296.456
296.453
296.583
296.762
296.791
296.611
296.455
296.462
296.639
296.82
296.849
296.668
296.473
296.486
296.696
296.878
296.906
296.724
296.502
296.52
296.752
296.935
296.962
296.779
296.54
296.56
296.806
296.989
297.016
296.833
296.582
296.604
296.859
297.043
297.069
296.884
296.627
296.649
296.91
297.094
297.119
296.934
296.671
296.694
296.958
297.144
297.169
296.981
296.716
296.738
297.004
297.193
297.216
297.027
296.759
296.78
297.049
297.24
297.263
297.07
296.8
296.82
297.092
297.286
297.308
297.112
296.839
296.858
297.133
297.33
297.351
297.153
296.876
296.894
297.173
297.373
297.393
297.192
296.911
296.928
297.211
297.414
297.434
297.229
296.945
296.961
297.248
297.454
297.473
297.265
296.977
296.992
297.283
297.492
297.511
297.3
297.007
297.022
297.318
297.53
297.548
297.334
297.037
297.051
297.351
297.566
297.583
297.367
297.066
297.08
297.383
297.6
297.617
297.398
297.094
297.107
297.414
297.634
297.65
297.429
297.121
297.134
297.444
297.666
297.682
297.459
297.147
297.16
297.473
297.697
297.712
297.487
297.172
297.185
297.502
297.728
297.742
297.515
297.197
297.21
297.529
297.757
297.771
297.543
297.222
297.233
297.556
297.786
297.8
297.57
297.245
297.256
297.583
297.814
297.827
297.596
297.267
297.278
297.608
297.841
297.854
297.621
297.289
297.3
297.633
297.867
297.881
297.646
297.31
297.32
297.658
297.894
297.907
297.67
297.33
297.34
297.682
297.92
297.933
297.694
297.349
297.358
297.706
297.946
297.959
297.717
297.368
297.377
297.729
297.972
297.985
297.741
297.385
297.394
297.752
297.998
298.012
297.764
297.403
297.412
297.776
298.025
298.039
297.788
297.42
297.429
297.8
298.053
298.067
297.812
297.437
297.445
297.824
298.081
298.095
297.837
297.453
297.462
297.849
298.11
298.125
297.862
297.47
297.478
297.875
298.14
298.155
297.887
297.486
297.495
297.901
298.171
298.187
297.914
297.503
297.512
297.928
298.203
298.219
297.941
297.521
297.53
297.955
298.236
298.253
297.969
297.539
297.548
297.984
298.27
298.288
297.998
297.557
297.567
298.013
298.306
298.325
298.028
297.577
297.588
298.044
298.343
298.362
298.059
297.598
297.61
298.075
298.381
298.401
298.091
297.621
297.633
298.107
298.421
298.442
298.124
297.645
297.658
298.141
298.462
298.484
298.158
297.671
297.686
298.175
298.505
298.527
298.193
297.7
297.716
298.21
298.549
298.572
298.228
297.731
297.748
298.247
298.594
298.618
298.265
297.765
297.784
298.284
298.641
298.665
298.303
297.802
297.822
298.323
298.689
298.714
298.343
297.842
297.864
298.363
298.738
298.763
298.383
297.886
297.91
298.404
298.788
298.814
298.425
297.934
297.959
298.447
298.84
298.866
298.469
297.985
298.012
298.491
298.893
298.92
298.514
298.041
298.07
298.537
298.946
298.974
298.561
298.101
298.133
298.585
299.001
299.029
298.61
298.166
298.199
298.636
299.056
299.085
298.662
298.235
298.271
298.689
299.113
299.142
298.716
298.309
298.347
298.744
299.17
299.2
298.774
298.387
298.428
298.803
299.229
299.259
298.834
298.47
298.513
298.865
299.288
299.319
298.897
298.558
298.603
298.931
299.349
299.381
298.965
298.65
298.698
299
299.412
299.444
299.036
298.747
298.797
299.073
299.476
299.509
299.112
298.849
298.901
299.151
299.542
299.577
299.192
298.955
299.009
299.233
299.611
299.646
299.276
299.065
299.122
299.32
299.681
299.718
299.366
299.18
299.239
299.412
299.755
299.793
299.46
299.299
299.36
299.509
299.831
299.87
299.56
299.422
299.485
299.612
299.91
299.95
299.665
299.549
299.614
299.719
299.991
300.033
299.775
299.68
299.746
299.831
300.075
300.119
299.889
299.814
299.882
299.948
300.162
300.207
300.008
299.952
300.021
300.069
300.252
300.298
300.131
300.091
300.161
300.194
300.344
300.391
300.257
300.232
300.303
300.321
300.438
300.486
300.385
300.374
300.445
300.449
300.534
300.583
300.513
300.516
300.586
300.576
300.631
300.679
300.639
300.655
300.722
300.701
300.726
300.773
300.763
300.788
300.852
300.822
300.818
300.862
300.88
300.914
300.972
300.934
300.905
300.945
300.986
301.027
301.078
301.033
300.983
301.019
301.078
301.125
301.165
301.115
301.049
301.067
301.139
301.19
301.231
301.184
301.11
301.116
301.195
301.245
301.246
301.184
301.101
301.082
301.161
301.23
301.188
301.108
301.033
300.988
301.06
301.142
301.024
300.954
300.89
300.794
300.845
300.91
300.69
300.633
300.615
300.472
300.484
300.552
300.054
299.955
299.969
300.146
300.2
300.194
300.198
300.151
300.114
300.096
300.077
300.066
300.053
300.046
300.031
300.019
300.013
300.008
300.008
300.007
300.003
300.01
299.979
299.975
299.966
299.97
299.933
299.871
299.887
300.141
301.417
305.713
311.631
318.445
325.156
329.852
331.262
331.94
332.443
332.875
333.27
333.642
333.998
334.342
334.682
335.019
335.351
335.674
335.979
336.258
336.5
336.694
336.833
336.911
336.928
336.887
336.795
336.664
336.5
336.304
336.065
335.787
335.479
335.179
334.921
334.76
334.67
334.241
333.819
333.499
333.145
332.769
332.39
332.011
331.631
331.251
330.871
330.49
330.107
329.722
329.334
328.944
328.55
328.152
327.751
327.346
326.937
326.525
326.109
325.689
325.268
324.845
324.422
323.999
323.578
323.16
322.746
322.337
321.933
321.536
321.145
320.762
320.385
320.015
319.652
319.296
318.946
318.602
318.264
317.931
317.604
317.282
316.965
316.654
316.348
316.048
315.754
315.465
315.182
314.906
314.636
314.373
314.115
313.864
313.619
313.379
313.145
312.915
312.689
312.468
312.249
312.034
311.822
311.611
311.402
311.195
310.988
310.782
310.576
310.371
310.166
309.961
309.755
309.55
309.345
309.14
308.935
308.729
308.523
308.317
308.111
307.904
307.698
307.492
307.286
307.081
306.876
306.671
306.467
306.263
306.058
305.852
305.644
305.434
305.222
305.006
304.788
304.568
304.345
304.119
303.892
303.664
303.435
303.206
302.98
302.755
302.534
302.317
302.106
301.901
301.703
301.511
301.326
301.145
300.969
300.795
300.623
300.451
300.279
300.14
300.024
299.914
299.813
299.711
299.609
299.512
299.424
299.348
299.284
299.235
299.206
299.194
299.2
299.235
299.297
299.392
299.521
299.688
299.897
300.149
300.449
300.798
301.198
301.65
302.154
302.71
303.316
303.972
304.674
305.418
306.201
307.015
307.856
308.715
309.584
310.454
311.315
312.157
312.969
313.739
314.457
315.112
315.695
316.196
316.608
316.927
317.148
317.261
317.288
317.22
317.058
316.809
316.476
316.071
315.605
315.087
314.518
313.908
313.267
312.604
311.925
311.237
310.546
309.857
309.175
308.504
307.848
307.211
306.594
306
305.432
304.89
304.376
303.89
303.434
303.007
302.609
302.24
301.9
301.587
301.301
301.04
300.804
300.592
300.402
300.233
300.084
299.954
299.841
299.743
299.661
299.593
299.537
299.493
299.46
299.436
299.421
299.415
299.417
299.425
299.439
299.461
299.488
299.521
299.559
299.604
299.653
299.708
299.769
299.834
299.904
299.979
300.06
300.146
300.232
300.309
300.262
300.156
299.979
299.736
299.449
299.141
298.83
298.53
298.255
298.019
297.832
297.703
297.637
297.634
297.689
297.796
297.94
298.109
298.29
298.472
298.644
298.803
298.943
299.063
299.161
299.236
299.287
299.319
299.369
299.454
299.577
299.725
299.794
299.783
299.764
299.749
299.736
299.728
299.723
299.719
299.718
299.721
299.727
299.738
299.751
299.759
299.758
299.753
299.748
299.745
299.743
299.743
299.744
299.745
299.747
299.749
299.752
299.755
299.759
299.764
299.768
299.772
299.776
299.779
299.783
299.785
299.787
299.787
299.788
299.788
299.788
299.789
299.79
299.792
299.793
299.793
299.794
299.794
299.794
299.794
299.793
299.793
299.792
299.791
299.79
299.789
299.788
299.787
299.786
299.786
299.785
299.786
299.786
299.786
299.785
299.784
299.783
299.783
299.782
299.781
299.78
299.78
299.775
299.771
299.769
299.767
299.766
299.765
299.762
299.758
299.752
299.744
299.733
299.721
299.706
299.69
299.671
299.653
299.634
299.616
299.599
299.585
299.572
299.562
299.553
299.548
299.544
299.541
299.541
299.541
299.542
299.543
299.545
299.546
299.547
299.545
299.542
299.535
299.526
299.515
299.502
299.489
299.473
299.457
299.439
299.421
299.402
299.383
299.364
299.345
299.327
299.311
299.296
299.283
299.271
299.26
299.25
299.24
299.231
299.223
299.216
299.211
299.208
299.206
299.206
299.207
299.209
299.21
299.211
299.211
299.211
299.212
299.212
299.214
299.214
299.213
299.205
299.192
299.171
299.148
299.118
299.09
299.057
299.026
298.992
298.964
298.933
298.906
298.875
298.849
298.823
298.804
298.784
298.772
298.759
298.751
298.74
298.73
298.72
298.714
298.71
298.709
298.709
298.714
298.722
298.732
298.739
298.74
298.738
298.733
298.719
298.705
298.673
298.646
298.605
298.57
298.523
298.486
298.442
298.41
298.374
298.352
298.324
298.3
298.264
298.237
298.197
298.162
298.124
298.101
298.074
298.05
298.016
297.99
297.958
297.93
297.892
297.852
297.809
297.776
297.753
297.746
297.747
297.754
297.764
297.774
297.782
297.798
297.816
297.832
297.842
297.85
297.856
297.86
297.859
297.856
297.848
297.837
297.819
297.808
297.79
297.763
297.735
297.714
297.696
297.686
297.681
297.679
297.674