/*--------------------------------*- C++ -*----------------------------------*\
| =========                 |                                                 |
| \\      /  F ield         | OpenFOAM: The Open Source CFD Toolbox           |
|  \\    /   O peration     | Version:  v2006                                 |
|   \\  /    A nd           | Website:  www.openfoam.com                      |
|    \\/     M anipulation  |                                                 |
\*---------------------------------------------------------------------------*/
FoamFile
{
    version     2.0;
    format      ascii;
    class       volScalarField;
    location    "0.01";
    object      turbulenceProperties:I;
}
// * * * * * * * * * * * * * * * * * * * * * * * * * * * * * * * * * * * * * //

dimensions      [0 0 0 0 0 0 0];


internalField   nonuniform List<scalar> 
31566
(
0.248112
0.247159
0.247026
0.248019
0.250044
0.253502
0.25843
0.264676
0.272464
0.281429
0.291862
0.303685
0.317217
0.33272
0.35065
0.371555
0.396137
0.425306
0.460219
0.502398
0.553915
0.617714
0.69818
0.802203
0.941275
1
1
1
1
1
1
1
1
0.338655
0.17166
0.150447
0.14854
0.148951
0.148911
0.148867
0.148832
0.148829
0.14885
0.148917
0.14905
0.149292
0.149642
0.149897
0.14989
0.149837
0.149743
0.149628
0.149531
0.149474
0.149446
0.149434
0.149433
0.149442
0.149458
0.149485
0.149527
0.149592
0.149672
0.149747
0.149811
0.14987
0.14992
0.149957
0.149999
0.149976
0.149956
0.149926
0.14987
0.149796
0.149734
0.149705
0.149698
0.1497
0.149707
0.149715
0.149725
0.149738
0.149756
0.149777
0.149801
0.149825
0.149847
0.149867
0.149883
0.149894
0.149902
0.14991
0.14992
0.149929
0.149937
0.149939
0.149933
0.14991
0.149841
0.149717
0.149507
0.149592
0.149766
0.149659
0.149598
0.149585
0.149652
0.149547
0.148877
0.144235
0.138511
0.143346
0.147276
0.14329
0.135429
0.134746
0.132808
0.129154
0.139392
0.135219
0.122649
0.131419
0.130867
0.118581
0.131757
0.127633
0.113931
0.130283
0.130169
0.110935
0.124357
0.120209
0.107048
0.13022
0.130555
0.104293
0.11698
0.112887
0.101507
0.130846
0.131232
0.0998594
0.110154
0.106869
0.0983408
0.131613
0.132061
0.0977521
0.104999
0.102923
0.0976025
0.132518
0.133002
0.098141
0.102134
0.101276
0.0987985
0.133422
0.133885
0.0997415
0.101348
0.101378
0.100759
0.134273
0.134732
0.102247
0.101825
0.10221
0.103349
0.135088
0.135507
0.104895
0.103082
0.103655
0.105941
0.135828
0.136208
0.107343
0.104748
0.105295
0.108278
0.136506
0.136862
0.109503
0.106291
0.106761
0.110337
0.137154
0.137495
0.111396
0.107599
0.107985
0.112146
0.137789
0.138121
0.113041
0.108648
0.108952
0.113696
0.138412
0.138731
0.114398
0.109424
0.109633
0.114938
0.139011
0.139319
0.115469
0.10994
0.10994
0.115902
0.139568
0.139853
0.11631
0.110115
0.109898
0.116531
0.140052
0.140303
0.116842
0.109985
0.109605
0.116902
0.140452
0.140657
0.117136
0.109607
0.109088
0.117072
0.14076
0.14092
0.117229
0.109038
0.108464
0.117073
0.14098
0.141101
0.11721
0.108408
0.107865
0.117059
0.141132
0.141219
0.117197
0.107829
0.10735
0.117083
0.141228
0.141284
0.117225
0.107334
0.106917
0.117147
0.141274
0.141303
0.117287
0.106916
0.106549
0.117235
0.141275
0.141279
0.117367
0.106554
0.106226
0.117335
0.141233
0.141216
0.117457
0.106231
0.105936
0.117438
0.14115
0.141112
0.117545
0.105935
0.105663
0.117527
0.141026
0.140968
0.117612
0.105642
0.105368
0.117577
0.140856
0.140775
0.117622
0.105302
0.104974
0.117531
0.140629
0.140525
0.117508
0.10483
0.104386
0.117309
0.140341
0.140212
0.117196
0.104139
0.103551
0.116859
0.13999
0.139828
0.116635
0.10321
0.102494
0.1161
0.139556
0.139339
0.115675
0.10204
0.101119
0.114765
0.139015
0.138756
0.114004
0.100443
0.0991026
0.11283
0.138428
0.138174
0.111813
0.0980321
0.0964079
0.110525
0.137879
0.137663
0.109414
0.0950089
0.0932743
0.108158
0.137424
0.137263
0.10712
0.0917257
0.0901137
0.106056
0.137092
0.136995
0.105235
0.0886186
0.087283
0.104435
0.136914
0.136842
0.103863
0.086039
0.0850859
0.103298
0.136791
0.136781
0.102914
0.0841526
0.0835381
0.102517
0.136743
0.136751
0.102258
0.0828675
0.0825005
0.101969
0.13672
0.136728
0.101781
0.0820225
0.0817956
0.101557
0.136696
0.136696
0.101396
0.0814283
0.0812696
0.101214
0.136658
0.136651
0.101067
0.0809647
0.0808407
0.100911
0.136609
0.136597
0.100774
0.0805748
0.0804711
0.100639
0.136552
0.136539
0.100516
0.0802345
0.0801503
0.1004
0.136497
0.136489
0.100293
0.0799399
0.0798684
0.100194
0.136454
0.13646
0.100112
0.0796778
0.0796211
0.100032
0.136437
0.136458
0.0999809
0.0794655
0.079441
0.0999275
0.13645
0.136493
0.0999205
0.0793228
0.0793197
0.0998957
0.136506
0.136572
0.0999319
0.0792301
0.079263
0.0999397
0.136602
0.136684
0.100033
0.0792306
0.0793135
0.100073
0.136723
0.136812
0.100215
0.0793709
0.079491
0.100275
0.136854
0.13694
0.100439
0.0795879
0.0797262
0.100512
0.136982
0.137061
0.100688
0.0798546
0.0800059
0.100772
0.137106
0.137181
0.100956
0.0801611
0.0803215
0.10105
0.137233
0.137305
0.101236
0.0804972
0.0806659
0.101344
0.137381
0.137472
0.10154
0.0808662
0.0810508
0.101672
0.137573
0.137699
0.101886
0.0812819
0.0814881
0.102049
0.137835
0.138006
0.102291
0.0817548
0.0819857
0.102493
0.138186
0.1384
0.102767
0.0822879
0.0825411
0.103008
0.138621
0.138877
0.103314
0.0828829
0.0831635
0.103592
0.139139
0.139433
0.103931
0.0835479
0.0838599
0.104245
0.139736
0.140069
0.104616
0.0842874
0.0846286
0.104966
0.140401
0.140754
0.105368
0.0850932
0.0854649
0.105752
0.14111
0.141485
0.106184
0.0859705
0.0863708
0.106599
0.141859
0.142248
0.107049
0.0869081
0.0873301
0.107488
0.142639
0.143049
0.107952
0.0878872
0.0883281
0.10842
0.143465
0.143896
0.10891
0.0889031
0.0893635
0.109406
0.144333
0.144787
0.109925
0.0899563
0.0904359
0.110449
0.145246
0.145717
0.110993
0.0910479
0.0915421
0.111534
0.146175
0.146651
0.112096
0.0921753
0.092688
0.112658
0.147128
0.147623
0.113239
0.093341
0.0938638
0.113817
0.148121
0.148644
0.114417
0.0945229
0.0950552
0.115009
0.149172
0.149714
0.115617
0.0957266
0.0962654
0.116204
0.150253
0.150811
0.116796
0.0969328
0.0974668
0.117382
0.151386
0.15195
0.117966
0.0981024
0.0986058
0.11851
0.152479
0.152978
0.119048
0.0991874
0.0996481
0.11954
0.153441
0.153879
0.120036
0.100183
0.100608
0.120491
0.154277
0.154666
0.120947
0.101107
0.101496
0.12137
0.155022
0.155363
0.121776
0.10195
0.102297
0.122141
0.155661
0.155942
0.122482
0.102686
0.102986
0.122792
0.156208
0.156472
0.1231
0.103328
0.103595
0.123379
0.1567
0.15693
0.123656
0.103906
0.104152
0.123921
0.157155
0.15739
0.124208
0.104455
0.104678
0.124441
0.157592
0.1578
0.124687
0.104951
0.105142
0.124879
0.158005
0.158209
0.125092
0.105367
0.105529
0.125264
0.158399
0.158595
0.125482
0.105742
0.105879
0.125624
0.158769
0.158922
0.125825
0.106058
0.106197
0.125982
0.159075
0.15927
0.126237
0.106418
0.106532
0.12634
0.159372
0.159501
0.126514
0.106703
0.10678
0.126586
0.159582
0.159678
0.12675
0.106909
0.106964
0.126789
0.15972
0.159848
0.126922
0.107068
0.107101
0.126941
0.159948
0.159946
0.126993
0.107123
0.107098
0.126937
0.159892
0.159893
0.127018
0.107123
0.107077
0.126913
0.159782
0.159649
0.126877
0.107041
0.106977
0.126754
0.159564
0.159484
0.126713
0.106927
0.106721
0.126379
0.159079
0.158636
0.126077
0.106466
0.106229
0.125731
0.158146
0.158227
0.125734
0.106184
0.106164
0.125718
0.158646
0.158346
0.125448
0.105923
0.10557
0.124932
0.15761
0.15785
0.124922
0.105486
0.105376
0.124821
0.158135
0.157649
0.124473
0.105036
0.104925
0.124418
0.157961
0.158771
0.124739
0.105035
0.104653
0.124263
0.158075
0.157237
0.123824
0.104234
0.104165
0.123887
0.157663
0.158272
0.124115
0.104164
0.1038
0.123737
0.157606
0.157476
0.123678
0.103605
0.103909
0.124398
0.159064
0.159824
0.124799
0.104086
0.103695
0.124359
0.158669
0.158036
0.124175
0.103486
0.103744
0.124844
0.159486
0.161149
0.125693
0.104258
0.104124
0.125685
0.160727
0.16011
0.125663
0.104092
0.104431
0.126318
0.161211
0.163351
0.127496
0.105265
0.105676
0.128233
0.164755
0.164844
0.128651
0.106072
0.106425
0.129271
0.165571
0.169237
0.131438
0.107981
0.109466
0.133522
0.17353
0.174857
0.13482
0.110589
0.110991
0.135135
0.174564
0.175808
0.1366
0.11227
0.113683
0.138141
0.17962
0.186024
0.141679
0.116188
0.117472
0.142708
0.189212
0.190786
0.144436
0.118919
0.119784
0.145288
0.193129
0.198096
0.147342
0.122066
0.123786
0.150574
0.20679
0.223284
0.153371
0.12699
0.128897
0.158296
0.252017
0.241592
0.157751
0.129968
0.13091
0.158141
0.313912
0.131543
0.165616
0.204337
0.239909
0.27532
0.346145
0.401189
0.494728
0.578119
0.740272
0.875267
1
0.743094
0.334787
0.139012
0.0786507
0.0593903
0.0412635
0.0337317
0.0256694
0.0220073
0.0179179
0.0158999
0.013566
0.012312
0.0108364
0.01
0.00899179
0.00840276
0.00766997
0.00725425
0.00663773
0.00636622
0.00580912
0.00572296
0.00326523
0.00229482
0.0022246
0.00222269
0.00222145
0.00222112
0.00222089
0.00222073
0.00222074
0.00222099
0.00222188
0.00222246
0.00222339
0.00222414
0.00222826
0.00222701
0.00240742
0.00333193
0.00786076
0.0149783
0.0205854
0.0569894
0.0931103
0.0249081
0.0156618
0.0179519
0.0325003
0.121018
0.139246
0.0430956
0.0264716
0.0439882
0.0531117
0.155138
0.163712
0.0698292
0.0613534
0.0788163
0.0939569
0.175889
0.209969
0.132631
0.0825841
0.0877108
0.173376
0.275142
0.637231
0.193404
0.0886099
0.0862594
0.188388
1
0.910934
0.20347
0.0862329
0.0853153
0.200437
0.435003
0.314937
0.194816
0.0853318
0.0863318
0.185786
0.250785
0.213706
0.176985
0.0872852
0.0873407
0.168662
0.189427
0.172661
0.161488
0.0867783
0.0863712
0.155031
0.160316
0.151013
0.149567
0.0866273
0.0873334
0.144557
0.143738
0.138156
0.14032
0.0879241
0.0880442
0.136434
0.133588
0.129527
0.132796
0.0879146
0.0876301
0.129114
0.125992
0.122981
0.125808
0.0873421
0.0869886
0.122739
0.1204
0.118204
0.119945
0.086531
0.0860269
0.117381
0.11628
0.114594
0.115014
0.0855138
0.0849868
0.11277
0.113063
0.111698
0.11071
0.0844212
0.0837478
0.108671
0.110436
0.109294
0.106793
0.0830008
0.0821989
0.104972
0.108231
0.107221
0.103231
0.0813493
0.0804787
0.101547
0.106274
0.105313
0.0999024
0.0796041
0.0786459
0.0982401
0.104397
0.103421
0.0965964
0.0776455
0.0765544
0.0949008
0.102489
0.101412
0.0931595
0.0753192
0.0740151
0.0913542
0.100404
0.0991241
0.0894446
0.0725328
0.070918
0.0874208
0.0979426
0.096297
0.085199
0.0691161
0.0670792
0.0826892
0.0946685
0.0924256
0.0799263
0.0648511
0.062496
0.076916
0.0905755
0.0886465
0.0740554
0.0601796
0.058061
0.0715787
0.0879269
0.0868817
0.0694888
0.0561382
0.0543455
0.0677322
0.0873293
0.0866738
0.0664817
0.0529065
0.0512493
0.065028
0.0876319
0.0842049
0.0589532
0.0447526
0.0556967
0.0689136
0.0871951
0.0863756
0.0635176
0.0518909
0.0490351
0.0606498
0.0870212
0.0884641
0.0596327
0.0472703
0.0456449
0.0587441
0.0891043
0.08888
0.0576403
0.0441235
0.0422554
0.0561534
0.0882442
0.0873125
0.0549437
0.0406108
0.0390477
0.0532879
0.0866568
0.0820984
0.0442137
0.033871
0.0453838
0.0612113
0.085632
0.0836272
0.0545105
0.0417353
0.0391798
0.0504394
0.0828381
0.0824205
0.0477716
0.0369519
0.0349835
0.0458561
0.0818353
0.080696
0.0434743
0.0330647
0.0298798
0.0324415
0.0753384
0.0789
0.0529963
0.0382834
0.0344805
0.0454111
0.0758251
0.0733243
0.0407931
0.0316106
0.0280586
0.0278125
0.0667353
0.0711379
0.0481464
0.0357295
0.0313951
0.0411009
0.069509
0.0639497
0.0272707
0.0292146
0.039525
0.0526074
0.0753199
0.123941
0.0959527
0.0596721
0.194939
0.578827
0.369266
0.0783435
0.0616038
0.0848424
0.105257
0.0903871
0.119822
0.108155
0.0881313
0.10338
0.116547
0.0909555
0.108219
0.117244
0.0814931
0.0938841
0.0897786
0.0879113
0.121043
0.113968
0.0878875
0.104767
0.0940152
0.0830222
0.121486
0.123093
0.0891295
0.089866
0.104761
0.0890579
0.115968
0.122373
0.084088
0.0944172
0.090492
0.0897679
0.123978
0.117002
0.0902018
0.105903
0.0949024
0.0847913
0.122806
0.123884
0.0903353
0.0910336
0.106583
0.0909782
0.117268
0.122997
0.0852187
0.0952218
0.0911482
0.0903449
0.124127
0.117574
0.0912753
0.106809
0.09521
0.0853877
0.122661
0.123972
0.0902624
0.0909917
0.106626
0.0909726
0.117388
0.122454
0.0850811
0.0948352
0.0904808
0.0899105
0.123492
0.116869
0.0904407
0.105994
0.0941926
0.084643
0.121964
0.123877
0.0892527
0.0897859
0.105138
0.0895231
0.116875
0.122055
0.0840394
0.093471
0.0893983
0.0887488
0.124414
0.117193
0.0890351
0.104536
0.0933133
0.0843526
0.123241
0.126644
0.0923477
0.0894759
0.0992258
0.0930301
0.11667
0.119943
0.0895674
0.092255
0.108621
0.0919601
0.115126
0.11992
0.0847006
0.0939807
0.0890286
0.0880844
0.12108
0.114984
0.088491
0.104564
0.0916584
0.0825703
0.120088
0.122196
0.0867729
0.0872168
0.10207
0.0865385
0.115424
0.121574
0.0821109
0.0903301
0.086285
0.0894813
0.125115
0.114637
0.0892293
0.0954584
0.0887606
0.0865972
0.11884
0.113559
0.0879204
0.104106
0.0901255
0.0820344
0.119613
0.12258
0.0889906
0.0858844
0.0952804
0.0889055
0.113205
0.11757
0.0858825
0.0880307
0.103043
0.0865496
0.111561
0.116505
0.0800319
0.0886041
0.0841823
0.0840545
0.119679
0.113409
0.0827042
0.0982497
0.0862899
0.0790567
0.119993
0.12356
0.0872681
0.0830099
0.0907627
0.0862605
0.113158
0.119454
0.0865144
0.0852628
0.0947275
0.0873544
0.110807
0.115157
0.0843976
0.0867687
0.101538
0.0849987
0.109383
0.11588
0.0795411
0.0870545
0.0829653
0.0863155
0.120597
0.111022
0.0852643
0.091582
0.0846371
0.0828355
0.114851
0.108622
0.0821718
0.0988123
0.0850738
0.0778733
0.115625
0.121199
0.0857341
0.0817311
0.0893855
0.0844232
0.111071
0.115908
0.0842801
0.083201
0.0923142
0.0843951
0.107193
0.112813
0.0821497
0.0844145
0.09888
0.0822141
0.107763
0.115072
0.0775413
0.0843401
0.0807742
0.0848329
0.119035
0.108919
0.0832767
0.088401
0.0822579
0.0834741
0.1144
0.106137
0.0834363
0.0910337
0.0831687
0.0812004
0.111912
0.10656
0.0803593
0.096945
0.0823864
0.0760297
0.113036
0.117473
0.0833912
0.0788441
0.0861018
0.0815873
0.107625
0.113497
0.0820899
0.0804687
0.088565
0.0816314
0.105173
0.110668
0.0797861
0.0812481
0.0943186
0.0779959
0.104698
0.112105
0.0745263
0.0804199
0.0775625
0.0827313
0.117009
0.107333
0.0803468
0.0841025
0.0792918
0.0814325
0.113981
0.105074
0.0809203
0.0869298
0.0799479
0.0809982
0.110872
0.102771
0.0807035
0.0882984
0.0807149
0.0789897
0.10858
0.103509
0.0777136
0.0939689
0.0799667
0.0741875
0.110697
0.115962
0.0822792
0.0772655
0.0836113
0.0797424
0.10628
0.112613
0.0808518
0.0789021
0.086626
0.0804798
0.104077
0.110879
0.0811993
0.0799354
0.087967
0.0816822
0.103245
0.108793
0.0810277
0.0804024
0.0891603
0.0812865
0.10136
0.106273
0.0788034
0.0810017
0.0944561
0.0777003
0.101556
0.108472
0.0739194
0.0800724
0.077101
0.0816486
0.113079
0.104288
0.0794402
0.083779
0.0786743
0.0804414
0.110743
0.102532
0.0802871
0.0863002
0.0795389
0.0805735
0.108455
0.101244
0.0811728
0.0875802
0.0799818
0.0803011
0.106457
0.0997035
0.080751
0.0889835
0.0805444
0.0781095
0.104958
0.100505
0.0773762
0.0940317
0.0796225
0.0734622
0.106603
0.111267
0.0808858
0.0765985
0.0832435
0.0787029
0.102596
0.108697
0.0796645
0.0781463
0.0858555
0.0796654
0.100923
0.106945
0.0798379
0.0790368
0.0872781
0.08061
0.0999042
0.105027
0.0796444
0.0794064
0.088401
0.0801826
0.0983305
0.103549
0.0775754
0.0799616
0.0932884
0.0767288
0.0991208
0.105611
0.0729333
0.0790905
0.0761464
0.0800683
0.109671
0.101136
0.0779126
0.0827592
0.077535
0.0788714
0.107216
0.0996423
0.078897
0.0851913
0.0782384
0.0789742
0.105328
0.0983047
0.0795923
0.086316
0.0785525
0.0787324
0.103438
0.0969179
0.0791961
0.087419
0.0791419
0.0767491
0.102099
0.0977948
0.0757304
0.0922913
0.07827
0.0722245
0.104142
0.108689
0.0793307
0.0753556
0.08177
0.0771439
0.100094
0.105716
0.0781018
0.0768087
0.0843542
0.0782039
0.098408
0.103711
0.0783114
0.0776338
0.0855359
0.078904
0.0968836
0.102385
0.0782186
0.0780843
0.0868724
0.0789507
0.0961906
0.100656
0.0763882
0.07887
0.0919139
0.0756378
0.09682
0.10232
0.071961
0.0779667
0.0751393
0.0790368
0.106893
0.0987242
0.0769169
0.081458
0.0767042
0.0778076
0.104435
0.0975067
0.0782223
0.0843093
0.077704
0.0781407
0.10261
0.0962165
0.079177
0.0857878
0.0781938
0.0780377
0.100734
0.0947744
0.07914
0.0871812
0.0790536
0.0762629
0.0985563
0.0949665
0.0757825
0.0922978
0.0784455
0.0719449
0.100844
0.104907
0.0784647
0.0755082
0.0822524
0.0768112
0.0969789
0.102304
0.0774877
0.0768208
0.0844275
0.0780778
0.0954129
0.0995592
0.0772566
0.0774029
0.0861597
0.0781758
0.0937474
0.0981623
0.0756639
0.078362
0.0913614
0.0753356
0.0945878
0.100235
0.0717549
0.0780893
0.0753001
0.0783219
0.103673
0.0961376
0.0766801
0.0818471
0.0766501
0.077181
0.100982
0.094344
0.0778995
0.0842613
0.0774416
0.0770719
0.0985121
0.0930991
0.0784939
0.086417
0.0786793
0.0758463
0.0969803
0.0939033
0.0758369
0.0917034
0.078474
0.0718677
0.099025
0.101771
0.0777064
0.075394
0.0821955
0.0764968
0.0942817
0.0980563
0.0766244
0.0767454
0.0851062
0.0775295
0.0922581
0.0966994
0.0754198
0.0781026
0.0908828
0.0753808
0.0934968
0.0985171
0.0718134
0.0783381
0.0756788
0.0779405
0.101306
0.0940455
0.0768276
0.0822142
0.077037
0.0768172
0.0976954
0.0921038
0.0779374
0.085341
0.0786046
0.0759123
0.0961294
0.0932689
0.076277
0.0912595
0.0793313
0.0726392
0.0980663
0.10097
0.0783491
0.076713
0.0834303
0.0779858
0.0942433
0.0973198
0.077491
0.0780804
0.0867714
0.0792259
0.0920152
0.0954727
0.0768509
0.0800187
0.093134
0.0781295
0.093064
0.0966829
0.0739108
0.0810769
0.078045
0.078748
0.0991323
0.0931585
0.0789786
0.0855929
0.0798305
0.0769294
0.0955791
0.0923686
0.077856
0.0927105
0.0816184
0.0741344
0.0960464
0.099269
0.079568
0.0790188
0.0866568
0.0802302
0.0940176
0.0969964
0.0782632
0.0811722
0.0939671
0.0794827
0.0939445
0.0965088
0.0752278
0.0830868
0.080853
0.0810024
0.0989273
0.0945766
0.0825924
0.0889466
0.0837985
0.0805973
0.0980383
0.0956914
0.0832152
0.0971354
0.0862118
0.078197
0.0976072
0.0990428
0.0826974
0.083253
0.0917167
0.0850417
0.0950221
0.098085
0.0827134
0.0864518
0.100588
0.086663
0.096194
0.0971377
0.0808041
0.0897124
0.0862596
0.0832445
0.0994798
0.0960036
0.0851394
0.0992772
0.0898448
0.0801825
0.0968606
0.0998517
0.0844853
0.0873746
0.100946
0.0880577
0.0983088
0.0989236
0.0827651
0.0921113
0.0887966
0.0857336
0.101244
0.0979247
0.0888386
0.102254
0.0942302
0.0840126
0.0986381
0.103195
0.0885106
0.0917132
0.105709
0.0930367
0.101299
0.100423
0.0870145
0.0973368
0.0945481
0.090959
0.103108
0.101073
0.0962213
0.108904
0.10105
0.0901034
0.101394
0.105757
0.0932388
0.0974253
0.111513
0.0979533
0.102872
0.101667
0.0909476
0.102845
0.0996232
0.0941824
0.105477
0.103823
0.0991124
0.116103
0.10604
0.0912427
0.10208
0.102192
0.0924917
0.101962
0.100146
0.093735
0.103921
0.101641
0.0982569
0.11815
0.108885
0.0891516
0.0998456
0.0995641
0.0877175
0.105898
0.104415
0.0870781
0.0985622
0.0974091
0.0893452
0.104304
0.10544
0.0915043
0.0976778
0.0991109
0.0965789
0.107413
0.109622
0.101064
0.103606
0.106779
0.117632
0.130291
0.127559
0.11165
0.105962
0.107854
0.113444
0.129021
0.130913
0.115222
0.109069
0.110204
0.116312
0.131998
0.133341
0.117585
0.111004
0.111769
0.118344
0.134157
0.135149
0.11929
0.11237
0.112931
0.11992
0.135813
0.136559
0.120623
0.113396
0.113828
0.121153
0.137135
0.13773
0.121711
0.114211
0.114546
0.122155
0.138223
0.138717
0.122618
0.114871
0.115138
0.123002
0.139142
0.139557
0.12338
0.115408
0.115631
0.123717
0.139927
0.140281
0.124033
0.115855
0.116045
0.124331
0.140604
0.140908
0.124599
0.116232
0.116396
0.124854
0.141199
0.141459
0.125089
0.116552
0.116693
0.125311
0.141714
0.14195
0.125518
0.116832
0.116954
0.125721
0.142173
0.142382
0.1259
0.117073
0.117181
0.126076
0.14259
0.14277
0.126237
0.117283
0.117377
0.126393
0.142954
0.143122
0.126537
0.117472
0.117556
0.126683
0.143288
0.143439
0.126808
0.117632
0.117715
0.126942
0.143588
0.143732
0.127053
0.117781
0.117853
0.127171
0.14386
0.14399
0.127275
0.117911
0.11798
0.12738
0.144111
0.144234
0.12748
0.11803
0.118091
0.127567
0.14434
0.144447
0.127662
0.118138
0.118192
0.127743
0.144549
0.144652
0.127825
0.118238
0.118283
0.1279
0.144737
0.14483
0.127975
0.118323
0.118368
0.128045
0.144912
0.145
0.128117
0.118402
0.118439
0.128171
0.145075
0.145151
0.128239
0.118474
0.118504
0.128287
0.145222
0.145287
0.128348
0.118542
0.118563
0.128395
0.14535
0.145415
0.128447
0.118599
0.118617
0.12849
0.145471
0.145529
0.128536
0.118651
0.11867
0.128579
0.145574
0.14563
0.128619
0.118695
0.118714
0.128657
0.145675
0.145724
0.128685
0.118734
0.118754
0.128725
0.145758
0.145807
0.128747
0.118768
0.118788
0.128779
0.145833
0.145872
0.128804
0.118798
0.118817
0.128827
0.145898
0.145936
0.128852
0.118823
0.118836
0.128861
0.145955
0.145982
0.128892
0.118851
0.118856
0.128899
0.146009
0.146019
0.128918
0.118868
0.118872
0.128931
0.146042
0.146059
0.128932
0.118878
0.118885
0.128947
0.146066
0.146079
0.128948
0.118885
0.118895
0.128956
0.146087
0.146093
0.128961
0.118893
0.118895
0.128957
0.146096
0.146099
0.128959
0.118896
0.118893
0.128952
0.146097
0.146095
0.128949
0.11889
0.118892
0.128942
0.146088
0.146088
0.128933
0.118886
0.118883
0.128923
0.146069
0.146072
0.12891
0.118877
0.118871
0.128895
0.146046
0.146038
0.128882
0.118862
0.118859
0.128863
0.146016
0.145999
0.128845
0.118845
0.118839
0.12882
0.145976
0.145956
0.128807
0.118833
0.118816
0.128777
0.145927
0.145901
0.128762
0.118814
0.118791
0.128731
0.145875
0.145843
0.128702
0.118785
0.118767
0.128673
0.145809
0.145774
0.128639
0.118754
0.118742
0.12861
0.14573
0.145698
0.128575
0.11872
0.118711
0.128539
0.145644
0.145619
0.128506
0.11869
0.118672
0.128459
0.145551
0.145513
0.12843
0.118655
0.118632
0.128377
0.145452
0.145411
0.128344
0.118613
0.118588
0.128285
0.145355
0.145288
0.128248
0.118575
0.118546
0.128201
0.145234
0.145164
0.128145
0.118525
0.1185
0.128101
0.145104
0.145035
0.12804
0.118473
0.118446
0.127987
0.144963
0.144891
0.127931
0.118423
0.118393
0.127869
0.14482
0.144734
0.127811
0.118366
0.118332
0.127746
0.144656
0.14457
0.127678
0.118303
0.118276
0.12762
0.144486
0.144401
0.127544
0.11824
0.11821
0.12748
0.144303
0.144212
0.127404
0.11817
0.118139
0.127327
0.144112
0.144013
0.127258
0.118106
0.118063
0.127173
0.143908
0.143803
0.1271
0.118034
0.11799
0.127018
0.143692
0.143579
0.126934
0.117953
0.117912
0.126851
0.143462
0.143349
0.126756
0.11787
0.11783
0.126675
0.143218
0.143103
0.126575
0.117784
0.117744
0.126488
0.142962
0.142842
0.126385
0.117695
0.117653
0.126292
0.142686
0.142573
0.126193
0.117603
0.117557
0.126087
0.142405
0.142283
0.125987
0.117507
0.117457
0.125875
0.142111
0.141966
0.125775
0.117408
0.117354
0.125658
0.141807
0.141642
0.125548
0.117303
0.117247
0.12543
0.141479
0.141305
0.125311
0.11719
0.117138
0.125195
0.141133
0.140951
0.125067
0.117074
0.117023
0.124948
0.140769
0.140579
0.124815
0.116955
0.116899
0.124684
0.140386
0.14019
0.124559
0.116838
0.11677
0.124417
0.139986
0.139782
0.124286
0.116713
0.116643
0.124144
0.139562
0.139346
0.124003
0.116579
0.11651
0.12386
0.139122
0.138891
0.123712
0.116441
0.116371
0.123567
0.138663
0.13842
0.12341
0.116298
0.116226
0.123258
0.138176
0.137916
0.123096
0.116149
0.116076
0.122941
0.137658
0.137396
0.122776
0.115996
0.115919
0.12261
0.137123
0.136844
0.12244
0.115837
0.115755
0.122266
0.136558
0.136265
0.122087
0.11567
0.11559
0.121915
0.135965
0.135657
0.121726
0.115497
0.115419
0.121553
0.135342
0.135017
0.121356
0.11532
0.115243
0.121182
0.134687
0.13435
0.120982
0.115142
0.115059
0.120801
0.133997
0.13364
0.120597
0.114955
0.114873
0.120418
0.133272
0.132899
0.120207
0.114762
0.114676
0.120016
0.132512
0.132113
0.119813
0.114567
0.114472
0.119614
0.131706
0.131284
0.119408
0.114363
0.114263
0.119218
0.130846
0.130403
0.118996
0.114141
0.114043
0.118812
0.129937
0.129463
0.118582
0.113907
0.113801
0.118398
0.128966
0.128459
0.118163
0.113651
0.113529
0.117958
0.127924
0.127369
0.117741
0.113373
0.113218
0.117516
0.126799
0.126187
0.117288
0.113044
0.112855
0.117046
0.125566
0.124892
0.116798
0.112647
0.112415
0.116527
0.124203
0.123454
0.116244
0.112159
0.111868
0.115924
0.12268
0.121841
0.115582
0.111548
0.11118
0.115164
0.120961
0.120017
0.114742
0.110792
0.11033
0.114194
0.119012
0.117951
0.113585
0.109853
0.109301
0.112802
0.11682
0.115642
0.111933
0.10876
0.108178
0.110945
0.1144
0.113117
0.109948
0.107625
0.107034
0.108853
0.111779
0.110398
0.107738
0.106477
0.105901
0.106562
0.108962
0.107485
0.105341
0.105359
0.104824
0.104115
0.105952
0.104375
0.102835
0.104316
0.103839
0.101572
0.10275
0.101079
0.100282
0.103387
0.10298
0.099021
0.0993618
0.0976032
0.0977772
0.102602
0.10227
0.096556
0.0958045
0.0939557
0.095393
0.101973
0.101716
0.0942886
0.0920768
0.090171
0.0932231
0.101494
0.101315
0.0922693
0.0882422
0.0863103
0.0913517
0.101163
0.101059
0.0905517
0.0843648
0.0824562
0.0898211
0.100982
0.100957
0.0891714
0.0806334
0.0788817
0.088582
0.100965
0.101006
0.0880641
0.0772408
0.0756905
0.0875994
0.101042
0.101079
0.0871932
0.0742697
0.072959
0.0868291
0.101116
0.101155
0.0865206
0.0717785
0.0707218
0.0862278
0.101191
0.101237
0.0860172
0.0697878
0.0689706
0.0857793
0.101278
0.101332
0.0856423
0.0682512
0.0676258
0.0854611
0.101376
0.101435
0.0853592
0.0670809
0.0666025
0.0852298
0.101484
0.101545
0.0851551
0.0661922
0.0658322
0.0850475
0.1016
0.101663
0.0850069
0.065523
0.0652501
0.0849172
0.101717
0.101781
0.0848785
0.0650144
0.0648025
0.0847954
0.101836
0.1019
0.0847658
0.0646088
0.0644289
0.084711
0.101955
0.102016
0.0846624
0.0642631
0.0640996
0.084628
0.102072
0.102128
0.084579
0.0639467
0.0637937
0.0845405
0.102184
0.10224
0.0844936
0.0636453
0.0634949
0.0844532
0.102296
0.10235
0.0844043
0.0633447
0.0631902
0.0843599
0.102404
0.102456
0.0843063
0.0630351
0.0628779
0.0842561
0.102509
0.102559
0.0841961
0.0627144
0.0625481
0.0841385
0.102609
0.102657
0.0840715
0.0623729
0.0621922
0.0840057
0.102704
0.10275
0.083931
0.0619977
0.0617984
0.0838561
0.102795
0.102838
0.0837744
0.0615863
0.0613711
0.0836779
0.102882
0.102926
0.0836107
0.0611389
0.0609047
0.0834875
0.102965
0.10301
0.0834275
0.060655
0.0603988
0.0832837
0.103045
0.10309
0.0832265
0.0601313
0.0598483
0.0830785
0.103121
0.103164
0.0830039
0.0595658
0.0592625
0.0828441
0.103192
0.103234
0.0827648
0.0589594
0.0586304
0.082607
0.103261
0.103301
0.0825161
0.0583089
0.0579536
0.0823715
0.103328
0.103366
0.0822506
0.0576166
0.057238
0.0821238
0.103395
0.10343
0.0819938
0.0568775
0.0564842
0.0818628
0.103461
0.103493
0.081729
0.0560977
0.0556885
0.0815976
0.103524
0.103555
0.0814481
0.0552863
0.0548591
0.0813333
0.103587
0.103615
0.0811765
0.0544468
0.0540171
0.0810515
0.103647
0.103674
0.0808817
0.0535988
0.0531592
0.0807698
0.103707
0.103732
0.080582
0.0527385
0.0522936
0.0804766
0.103767
0.10379
0.0802751
0.0518729
0.0514273
0.0801588
0.103827
0.10385
0.0799642
0.0509989
0.0505525
0.0798452
0.103886
0.10391
0.0796307
0.0501248
0.0496778
0.0795158
0.103948
0.103971
0.0792962
0.0492403
0.048805
0.0791647
0.104008
0.104032
0.0789303
0.0483637
0.0479227
0.0788046
0.104071
0.104095
0.0785498
0.0474827
0.0470366
0.0784226
0.104136
0.10416
0.07815
0.0465977
0.0461509
0.0780053
0.104203
0.104228
0.0777352
0.0457042
0.0452534
0.0775774
0.104272
0.104299
0.077283
0.0448077
0.0443512
0.0771191
0.104344
0.104372
0.0768011
0.043904
0.0434427
0.0766282
0.10442
0.104448
0.0762866
0.0429929
0.0425277
0.076101
0.104498
0.104527
0.0757353
0.0420746
0.0416061
0.0755336
0.104578
0.104608
0.075143
0.0411498
0.0406784
0.0749224
0.104661
0.104692
0.0745059
0.0402193
0.039745
0.0742641
0.104747
0.104779
0.0738322
0.0392771
0.0388132
0.0735492
0.104834
0.104868
0.0731024
0.0383344
0.0378778
0.0727827
0.104923
0.10496
0.072316
0.0373922
0.0369422
0.0719613
0.105015
0.105054
0.071471
0.0364528
0.0360107
0.0710824
0.105108
0.10515
0.0705546
0.035526
0.035081
0.0701507
0.105206
0.105249
0.069593
0.034604
0.0341623
0.0691488
0.105308
0.105353
0.06857
0.0336987
0.033259
0.068087
0.105412
0.10546
0.0674848
0.0328094
0.0323837
0.0669558
0.10552
0.105572
0.0663342
0.0319387
0.0315259
0.0657888
0.105633
0.105688
0.0651201
0.0310972
0.0307009
0.064552
0.105754
0.105813
0.0638731
0.0302818
0.0299039
0.0632669
0.105882
0.105946
0.0625647
0.0295084
0.0291461
0.0619327
0.106019
0.106087
0.0612087
0.028776
0.0284418
0.060543
0.106164
0.106238
0.0598171
0.0280903
0.0277873
0.0591288
0.106318
0.106395
0.0583828
0.0274686
0.0272006
0.0576862
0.106477
0.106557
0.0569304
0.0269144
0.0266857
0.0562366
0.106639
0.106719
0.0554864
0.0264393
0.0262477
0.0548069
0.106801
0.106881
0.0540761
0.0260402
0.0258902
0.0534136
0.106966
0.10705
0.0527278
0.0257136
0.0256047
0.0520963
0.107135
0.107219
0.0514379
0.0254669
0.0253984
0.0508438
0.107309
0.107402
0.0502064
0.0252976
0.0252701
0.0496657
0.107501
0.107602
0.0490474
0.0252092
0.0252244
0.0485558
0.10771
0.107819
0.047962
0.0252055
0.0252656
0.0475099
0.10794
0.10806
0.0469547
0.0252886
0.0253965
0.0465456
0.108189
0.108319
0.046015
0.0254669
0.025625
0.0456548
0.108461
0.108604
0.0451522
0.0257469
0.0259595
0.0448387
0.10876
0.108917
0.0443665
0.0261385
0.0264111
0.044098
0.10909
0.109265
0.0436564
0.0266544
0.0269943
0.0434295
0.109458
0.109659
0.0430193
0.0273125
0.0277312
0.042863
0.109883
0.1101
0.0425825
0.028137
0.0286452
0.0425081
0.110338
0.110577
0.0423617
0.0291502
0.0297584
0.0424004
0.110834
0.111097
0.0423964
0.0303782
0.0311059
0.0425787
0.111376
0.111666
0.0427417
0.0318598
0.0327332
0.0431086
0.11197
0.112286
0.04348
0.033653
0.0347159
0.0440887
0.112618
0.112972
0.044721
0.035862
0.0371931
0.0456532
0.113345
0.113735
0.0466388
0.0386841
0.0404025
0.0479834
0.11416
0.114597
0.0494675
0.0423796
0.0446707
0.051369
0.115082
0.115609
0.0535268
0.047375
0.0504774
0.0563216
0.116219
0.116923
0.0596081
0.0541883
0.0585936
0.0638045
0.117813
0.118992
0.0688315
0.0640297
0.0708076
0.0751666
0.120686
0.12307
0.083787
0.0797486
0.0918107
0.0967604
0.126905
0.132631
0.11687
0.109128
0.136185
0.150771
0.147501
0.187981
0.219429
0.183068
0.273743
0.40508
0.421948
0.305607
1
0.460482
0.439647
0.317493
0.170436
0.135054
0.177324
0.235636
0.149648
0.121137
0.120786
0.109414
0.0908765
0.106864
0.0816718
0.0726377
0.104044
0.0948589
0.0601567
0.0655845
0.0532507
0.0505163
0.0922662
0.0859113
0.045435
0.0472052
0.0360469
0.0365103
0.0774778
0.032
0.0301226
0.0269598
0.0265845
0.0259153
0.0239157
0.0215475
0.0194166
0.017738
0.0164041
0.0153382
0.014465
0.013729
0.0130983
0.0124379
0.0116938
0.0113333
0.011261