/*--------------------------------*- C++ -*----------------------------------*\
| =========                 |                                                 |
| \\      /  F ield         | OpenFOAM: The Open Source CFD Toolbox           |
|  \\    /   O peration     | Version:  v2006                                 |
|   \\  /    A nd           | Website:  www.openfoam.com                      |
|    \\/     M anipulation  |                                                 |
\*---------------------------------------------------------------------------*/
FoamFile
{
    version     2.0;
    format      ascii;
    class       volScalarField;
    location    "0.01";
    object      turbulenceProperties:L;
}
// * * * * * * * * * * * * * * * * * * * * * * * * * * * * * * * * * * * * * //

dimensions      [0 1 0 0 0 0 0];


internalField   nonuniform List<scalar> 
24416
(
0.00497993
0.00497601
0.00499093
0.00499457
0.00500216
0.00501495
0.0050332
0.00505679
0.00508527
0.00511732
0.00515221
0.00518857
0.0052251
0.00525992
0.00529069
0.00531422
0.00532624
0.00532066
0.00528834
0.00521481
0.00507626
0.0048305
0.00440682
0.00369316
0.00255404
0.00109706
0.000767166
0.000636288
0.000560583
0.000506392
0.000459834
0.000373436
0.000466002
0.00178534
0.00810861
0.0584495
0.59227
6.00936
40.8108
205.393
705.853
1368.52
1742.11
1883.34
1934.34
1946.32
1921.28
1862.8
1860.15
1921.96
1792.94
1664.05
1599.41
1597.18
1613.45
1625.31
1626.47
1615.74
1592.14
1554.05
1500
1429.78
1345.6
1251.96
1154.37
1057.61
964.784
877.459
796.276
721.479
653.132
591.152
535.318
485.293
440.643
400.853
365.363
333.603
305.024
279.156
255.462
233.136
211.193
188.637
165.256
140.582
114.653
88.4464
63.5659
42.9915
27.6602
17.1748
10.4344
6.28217
3.82504
2.43142
1.66171
1.20405
0.904082
0.643887
0.409933
0.423545
0.601977
0.289584
0.126726
0.0508103
0.0139219
0.00141225
0.000251085
1.57712e-05
1.46786e-05
0.000110008
0.000534979
0.000334999
8.09835e-05
1.38126e-05
1.32703e-05
7.04447e-05
0.000270192
0.000229226
6.22258e-05
1.29832e-05
1.27461e-05
5.96001e-05
0.000206376
0.000185322
5.49674e-05
1.2592e-05
1.236e-05
5.29644e-05
0.000173844
0.000160648
4.92467e-05
1.20571e-05
1.17699e-05
4.79101e-05
0.000153809
0.000145238
4.63161e-05
1.15756e-05
1.13851e-05
4.51945e-05
0.000141631
0.000135695
4.37371e-05
1.11884e-05
1.09978e-05
4.2625e-05
0.000132896
0.000127925
4.1294e-05
1.08105e-05
1.0642e-05
4.03692e-05
0.00012521
0.000120817
3.9436e-05
1.04913e-05
1.03664e-05
3.89565e-05
0.000118455
0.000114515
3.85499e-05
1.02592e-05
1.0171e-05
3.84353e-05
0.000112719
0.000109456
3.82982e-05
1.00919e-05
1.00266e-05
3.83197e-05
0.000108396
0.000105858
3.82776e-05
9.96188e-06
9.90448e-06
3.84116e-05
0.000105156
0.000102953
3.83352e-05
9.84128e-06
9.78196e-06
3.84705e-05
0.000102773
0.000101005
3.83987e-05
9.71626e-06
9.65368e-06
3.85216e-05
0.000101271
9.98358e-05
3.84547e-05
9.5861e-06
9.52122e-06
3.8544e-05
0.000100091
9.88758e-05
3.84712e-05
9.45169e-06
9.38371e-06
3.84899e-05
9.89925e-05
9.78485e-05
3.83553e-05
9.30999e-06
9.23794e-06
3.82674e-05
9.77317e-05
9.65233e-05
3.80558e-05
9.15527e-06
9.07569e-06
3.78689e-05
9.62187e-05
9.47135e-05
3.7468e-05
8.98544e-06
8.90701e-06
3.72566e-05
9.4307e-05
9.26425e-05
3.68196e-05
8.8212e-06
8.74906e-06
3.66219e-05
9.21591e-05
9.03893e-05
3.62101e-05
8.66995e-06
8.60332e-06
3.60217e-05
8.98842e-05
8.81275e-05
3.56278e-05
8.52904e-06
8.46535e-06
3.5439e-05
8.76295e-05
8.59298e-05
3.50415e-05
8.39328e-06
8.33061e-06
3.48298e-05
8.54376e-05
8.37904e-05
3.44225e-05
8.26044e-06
8.19926e-06
3.41916e-05
8.33002e-05
8.16974e-05
3.37917e-05
8.13227e-06
8.07433e-06
3.3556e-05
8.11936e-05
7.96161e-05
3.31836e-05
8.01251e-06
7.95949e-06
3.29667e-05
7.90943e-05
7.76395e-05
3.26389e-05
7.90375e-06
7.85592e-06
3.24475e-05
7.71172e-05
7.57977e-05
3.21636e-05
7.80615e-06
7.76297e-06
3.19956e-05
7.5283e-05
7.40952e-05
3.17391e-05
7.71807e-06
7.67812e-06
3.1573e-05
7.35895e-05
7.25196e-05
3.13205e-05
7.63631e-06
7.59836e-06
3.11371e-05
7.20368e-05
7.10375e-05
3.08686e-05
7.55921e-06
7.52472e-06
3.06723e-05
7.05238e-05
6.95479e-05
3.04043e-05
7.49068e-06
7.46208e-06
3.02244e-05
6.90032e-05
6.80238e-05
2.99756e-05
7.43497e-06
7.41361e-06
2.98304e-05
6.74138e-05
6.64447e-05
2.96275e-05
7.39431e-06
7.38039e-06
2.95426e-05
6.58979e-05
6.51157e-05
2.94096e-05
7.36828e-06
7.36043e-06
2.93873e-05
6.47999e-05
6.4275e-05
2.93168e-05
7.35385e-06
7.35026e-06
2.93375e-05
6.42122e-05
6.39122e-05
2.93118e-05
7.34742e-06
7.34647e-06
2.93547e-05
6.404e-05
6.3895e-05
2.93556e-05
7.3459e-06
7.34627e-06
2.94051e-05
6.41362e-05
6.40756e-05
2.94206e-05
7.34684e-06
7.34797e-06
2.94702e-05
6.43786e-05
6.44032e-05
2.94915e-05
7.34885e-06
7.3501e-06
2.95442e-05
6.48241e-05
6.48593e-05
2.95601e-05
7.35089e-06
7.35203e-06
2.95994e-05
6.52609e-05
6.52702e-05
2.96094e-05
7.35292e-06
7.35427e-06
2.96403e-05
6.56364e-05
6.56089e-05
2.96444e-05
7.35545e-06
7.35727e-06
2.96692e-05
6.59401e-05
6.58883e-05
2.96625e-05
7.359e-06
7.36172e-06
2.96846e-05
6.61803e-05
6.61054e-05
2.96722e-05
7.3643e-06
7.36817e-06
2.96941e-05
6.63818e-05
6.62963e-05
2.96781e-05
7.37182e-06
7.37705e-06
2.97e-05
6.6564e-05
6.64515e-05
2.96803e-05
7.38201e-06
7.38886e-06
2.97031e-05
6.67153e-05
6.65817e-05
2.96834e-05
7.39538e-06
7.40396e-06
2.97087e-05
6.68556e-05
6.67186e-05
2.96919e-05
7.41217e-06
7.42254e-06
2.97201e-05
6.70038e-05
6.68659e-05
2.97072e-05
7.43257e-06
7.44466e-06
2.97385e-05
6.71646e-05
6.7036e-05
2.97318e-05
7.45651e-06
7.47027e-06
2.97664e-05
6.73524e-05
6.7239e-05
2.97672e-05
7.48387e-06
7.49922e-06
2.9805e-05
6.75725e-05
6.74715e-05
2.98136e-05
7.51444e-06
7.53125e-06
2.98539e-05
6.78185e-05
6.77306e-05
2.98679e-05
7.54781e-06
7.566e-06
2.99094e-05
6.80952e-05
6.80265e-05
2.99284e-05
7.58369e-06
7.60344e-06
2.99818e-05
6.84102e-05
6.83614e-05
3.00065e-05
7.62231e-06
7.64319e-06
3.0069e-05
6.87735e-05
6.87503e-05
3.00966e-05
7.66272e-06
7.68433e-06
3.01653e-05
6.92119e-05
6.92031e-05
3.01956e-05
7.70431e-06
7.72647e-06
3.02696e-05
6.96924e-05
6.96928e-05
3.03024e-05
7.74673e-06
7.76928e-06
3.03817e-05
7.02034e-05
7.02118e-05
3.04171e-05
7.78973e-06
7.81257e-06
3.0502e-05
7.07406e-05
7.0757e-05
3.05402e-05
7.83308e-06
7.85607e-06
3.06309e-05
7.13037e-05
7.13288e-05
3.0672e-05
7.87648e-06
7.89942e-06
3.07692e-05
7.18928e-05
7.19253e-05
3.08124e-05
7.91954e-06
7.94222e-06
3.09154e-05
7.25025e-05
7.25396e-05
3.09602e-05
7.96187e-06
7.98413e-06
3.1068e-05
7.31226e-05
7.31614e-05
3.11143e-05
8.00317e-06
8.02491e-06
3.12271e-05
7.37442e-05
7.37836e-05
3.12751e-05
8.04322e-06
8.06429e-06
3.13936e-05
7.43639e-05
7.44031e-05
3.14437e-05
8.08176e-06
8.10201e-06
3.15675e-05
7.49832e-05
7.50235e-05
3.16187e-05
8.1185e-06
8.13782e-06
3.17474e-05
7.56055e-05
7.56473e-05
3.17987e-05
8.15323e-06
8.17146e-06
3.19302e-05
7.62266e-05
7.62679e-05
3.19807e-05
8.18559e-06
8.20253e-06
3.21143e-05
7.68505e-05
7.68814e-05
3.21634e-05
8.21524e-06
8.23079e-06
3.22988e-05
7.7461e-05
7.74807e-05
3.23471e-05
8.24204e-06
8.2562e-06
3.24842e-05
7.80557e-05
7.80646e-05
3.25318e-05
8.266e-06
8.27874e-06
3.26705e-05
7.86338e-05
7.86242e-05
3.27174e-05
8.28707e-06
8.29834e-06
3.2857e-05
7.91913e-05
7.91708e-05
3.2903e-05
8.30515e-06
8.31489e-06
3.30428e-05
7.97422e-05
7.97124e-05
3.30875e-05
8.32016e-06
8.32834e-06
3.32263e-05
8.02818e-05
8.02378e-05
3.32694e-05
8.33205e-06
8.33868e-06
3.34064e-05
8.08007e-05
8.07419e-05
3.34475e-05
8.34088e-06
8.34592e-06
3.35816e-05
8.12952e-05
8.12214e-05
3.36203e-05
8.34667e-06
8.35e-06
3.37505e-05
8.17625e-05
8.16737e-05
3.37868e-05
8.34949e-06
8.35107e-06
3.3913e-05
8.22009e-05
8.20974e-05
3.39474e-05
8.34949e-06
8.34951e-06
3.40695e-05
8.26081e-05
8.24921e-05
3.41026e-05
8.34698e-06
8.34568e-06
3.42211e-05
8.29862e-05
8.28615e-05
3.42538e-05
8.34223e-06
8.33994e-06
3.43694e-05
8.33425e-05
8.32127e-05
3.4402e-05
8.33556e-06
8.33256e-06
3.45149e-05
8.3682e-05
8.3549e-05
3.45478e-05
8.32743e-06
8.32394e-06
3.46581e-05
8.40061e-05
8.38727e-05
3.46921e-05
8.31832e-06
8.3146e-06
3.48007e-05
8.43197e-05
8.41891e-05
3.48363e-05
8.30879e-06
8.30512e-06
3.49438e-05
8.46294e-05
8.45037e-05
3.4981e-05
8.29946e-06
8.29614e-06
3.50885e-05
8.49394e-05
8.48223e-05
3.51278e-05
8.291e-06
8.28837e-06
3.52359e-05
8.5255e-05
8.51484e-05
3.52774e-05
8.28415e-06
8.28251e-06
3.53863e-05
8.558e-05
8.5479e-05
3.54298e-05
8.27962e-06
8.27927e-06
3.55397e-05
8.59184e-05
8.58222e-05
3.55852e-05
8.27827e-06
8.27941e-06
3.56964e-05
8.62685e-05
8.61792e-05
3.57438e-05
8.28035e-06
8.28393e-06
3.58566e-05
8.66421e-05
8.65504e-05
3.59056e-05
8.28685e-06
8.29342e-06
3.60215e-05
8.70392e-05
8.69426e-05
3.6072e-05
8.29864e-06
8.3084e-06
3.61903e-05
8.74519e-05
8.73502e-05
3.62444e-05
8.31616e-06
8.33068e-06
3.63575e-05
8.78647e-05
8.77473e-05
3.64059e-05
8.342e-06
8.36007e-06
3.6509e-05
8.82553e-05
8.81218e-05
3.65524e-05
8.37442e-06
8.39515e-06
3.66467e-05
8.8623e-05
8.84757e-05
3.66873e-05
8.41191e-06
8.43488e-06
3.67778e-05
8.89701e-05
8.88081e-05
3.6815e-05
8.45346e-06
8.478e-06
3.69024e-05
8.92847e-05
8.91052e-05
3.69298e-05
8.49763e-06
8.52283e-06
3.70128e-05
8.95463e-05
8.93328e-05
3.70272e-05
8.54245e-06
8.56715e-06
3.71038e-05
8.9749e-05
8.94816e-05
3.71045e-05
8.58554e-06
8.60846e-06
3.71729e-05
8.98869e-05
8.95211e-05
3.71548e-05
8.62419e-06
8.64369e-06
3.7213e-05
8.98912e-05
8.94288e-05
3.71704e-05
8.65512e-06
8.66933e-06
3.7219e-05
8.97551e-05
8.91867e-05
3.71577e-05
8.676e-06
8.68487e-06
3.71904e-05
8.94606e-05
8.87596e-05
3.70736e-05
8.68717e-06
8.68768e-06
3.70632e-05
8.89464e-05
8.80994e-05
3.69173e-05
8.68398e-06
8.67614e-06
3.68765e-05
8.81398e-05
8.71334e-05
3.66975e-05
8.66018e-06
8.64082e-06
3.66183e-05
8.70036e-05
8.58534e-05
3.64083e-05
8.61264e-06
8.57851e-06
3.62734e-05
8.55983e-05
8.43481e-05
3.6042e-05
8.53533e-06
8.48438e-06
3.58673e-05
8.4002e-05
8.26609e-05
3.5608e-05
8.42371e-06
8.35504e-06
3.54117e-05
8.22313e-05
8.07858e-05
3.51106e-05
8.27298e-06
8.18216e-06
3.48784e-05
8.02759e-05
7.86952e-05
3.4513e-05
8.07288e-06
7.954e-06
3.42276e-05
7.80868e-05
7.63423e-05
3.37664e-05
7.80962e-06
7.6558e-06
3.34259e-05
7.56374e-05
7.37352e-05
3.28644e-05
7.46993e-06
7.27838e-06
3.25042e-05
7.29544e-05
7.08818e-05
3.18413e-05
7.04668e-06
6.81865e-06
3.15592e-05
7.01949e-05
6.77752e-05
3.06976e-05
6.53593e-06
6.26631e-06
3.04141e-05
6.71544e-05
6.50635e-05
2.9669e-05
5.95325e-06
5.62262e-06
2.91269e-05
6.3958e-05
6.20448e-05
2.84647e-05
5.30772e-06
4.89035e-06
2.74589e-05
6.02482e-05
5.90171e-05
2.70448e-05
4.53453e-06
4.46774e-06
2.7188e-05
5.97093e-05
5.93427e-05
2.70127e-05
4.07541e-06
0.000171428
0.000406011
0.000637195
0.000774837
0.000831804
0.000852832
0.000852778
0.000822782
0.000795999
0.000754105
0.00073813
0.000784404
0.00103562
0.00104586
0.000776218
0.000749695
0.000759538
0.000782627
0.00084776
0.000856661
0.000866275
0.000839978
0.000848398
0.000852766
0.000856601
0.000862374
0.00086469
0.000868503
0.000869939
0.000873266
0.000874574
0.00087692
0.000877946
0.000879913
0.000881742
0.000882872
0.00088335
0.00088361
0.000903091
0.000909902
0.000869235
0.000877137
0.000907521
0.000904886
0.000911227
0.000911372
0.000906702
0.000905759
0.000886038
0.000849535
0.000258685
2.45119e-06
3.91694e-06
1.73916e-05
0.000280895
0.000117555
1.2573e-05
5.0504e-06
6.06086e-06
9.55671e-06
4.1833e-05
3.34096e-05
8.87502e-06
6.78572e-06
7.27472e-06
8.40495e-06
2.22434e-05
2.00763e-05
8.16472e-06
7.57377e-06
7.80466e-06
8.13651e-06
1.60824e-05
1.51666e-05
8.06825e-06
8.01056e-06
8.13588e-06
8.3116e-06
1.33019e-05
1.27564e-05
8.384e-06
8.21589e-06
8.2747e-06
8.75485e-06
1.19563e-05
1.17051e-05
8.8962e-06
8.3196e-06
8.33796e-06
9.31415e-06
1.1481e-05
1.13927e-05
9.51994e-06
8.33065e-06
8.32884e-06
9.99543e-06
1.14601e-05
1.14911e-05
1.02236e-05
8.32823e-06
8.32539e-06
1.06682e-05
1.17556e-05
1.18567e-05
1.09109e-05
8.2831e-06
8.27717e-06
1.13447e-05
1.21967e-05
1.23491e-05
1.15814e-05
8.26926e-06
8.26496e-06
1.19361e-05
1.27573e-05
1.29348e-05
1.21683e-05
8.22391e-06
8.22273e-06
1.25272e-05
1.33866e-05
1.35715e-05
1.27587e-05
8.22298e-06
8.22624e-06
1.30568e-05
1.4003e-05
1.42149e-05
1.32797e-05
8.19741e-06
8.20583e-06
1.3603e-05
1.47169e-05
1.49174e-05
1.38315e-05
8.21713e-06
8.23122e-06
1.41041e-05
1.5374e-05
1.55959e-05
1.43214e-05
8.21248e-06
8.23004e-06
1.46174e-05
1.61313e-05
1.63405e-05
1.48525e-05
8.25277e-06
8.27405e-06
1.51052e-05
1.68254e-05
1.70508e-05
1.53239e-05
8.26429e-06
8.288e-06
1.55839e-05
1.75951e-05
1.7808e-05
1.58387e-05
8.31778e-06
8.34454e-06
1.60653e-05
1.82983e-05
1.8519e-05
1.62999e-05
8.33985e-06
8.36935e-06
1.65187e-05
1.90401e-05
1.92717e-05
1.68021e-05
8.40334e-06
8.42877e-06
1.69822e-05
1.97727e-05
1.99988e-05
1.72558e-05
8.44187e-06
8.47046e-06
1.74101e-05
2.04001e-05
2.07521e-05
1.77383e-05
8.50818e-06
8.54043e-06
1.7872e-05
2.1084e-05
2.13884e-05
1.81774e-05
8.55516e-06
8.5655e-06
1.84122e-05
2.17573e-05
2.21536e-05
1.86275e-05
8.61299e-06
8.67455e-06
1.88333e-05
2.24137e-05
2.27195e-05
1.90201e-05
8.81828e-06
8.97872e-06
1.92062e-05
2.2828e-05
2.31508e-05
1.94119e-05
9.20593e-06
9.4721e-06
1.97118e-05
2.32996e-05
2.36134e-05
1.95941e-05
9.8721e-06
1.05735e-05
2.593e-05
2.13936e-05
1.70549e-05
1.23384e-05
8.12802e-06
5.72632e-06
1.38388e-05
1.92615e-05
2.04267e-05
1.48083e-05
7.28968e-06
8.13812e-06
1.50908e-05
2.1101e-05
2.11879e-05
1.49229e-05
8.64899e-06
9.14219e-06
1.64634e-05
2.54862e-05
2.93037e-05
1.89336e-05
1.51267e-05
2.27135e-05
2.30448e-05
3.37481e-05
3.73091e-05
2.49249e-05
2.72126e-05
3.087e-05
2.75297e-05
4.50662e-05
3.85616e-05
2.68328e-05
3.1253e-05
3.26321e-05
2.75106e-05
3.9309e-05
4.34916e-05
3.01479e-05
3.66575e-05
4.29994e-05
3.26945e-05
4.64111e-05
5.33318e-05
3.78227e-05
4.89451e-05
5.71322e-05
4.04047e-05
5.53229e-05
6.32544e-05
4.90845e-05
6.41245e-05
7.24938e-05
4.78922e-05
5.96253e-05
6.11646e-05
5.01621e-05
7.84006e-05
9.32848e-05
5.24653e-05
6.40927e-05
6.65736e-05
6.00749e-05
0.000107526
0.000123517
5.8289e-05
6.04326e-05
5.86548e-05
5.29671e-05
0.00013787
0.000163144
9.05155e-05
6.02074e-05
6.41014e-05
9.31253e-05
0.000182224
0.000206662
0.000113456
0.00010526
0.00015739
0.000190485
0.000222662
0.000226308
0.00021634
0.000212096
0.000204706
0.000206132
0.000212951
0.000190232
0.000146272
0.000132612
0.000106461
0.000113112
0.000163084
0.000129603
0.000154601
0.000259483
0.000282579
0.000198783
0.000112432
9.06478e-05
0.000216532
0.000326626
0.000292141
0.000201985
7.61387e-05
6.18206e-05
0.000182331
0.000274993
0.000287867
0.000180673
5.31784e-05
4.17336e-05
0.000145271
0.000236797
0.000208963
0.000118277
3.57975e-05
2.96396e-05
0.000111522
0.000219384
0.000161388
7.35861e-05
2.3221e-05
1.88319e-05
5.11057e-05
0.000128969
0.000140097
4.73074e-05
1.47535e-05
6.32217e-06
1.96549e-05
7.96367e-05
5.67457e-05
9.58156e-06
3.21041e-06
4.11217e-06
1.77371e-05
6.0889e-05
2.36348e-05
9.92028e-06
2.29849e-06
3.20153e-06
7.64748e-06
1.88895e-05
4.38592e-05
2.98251e-05
4.10644e-06
2.21563e-06
9.68202e-06
2.60127e-05
1.79859e-05
7.32459e-06
3.09427e-06
4.03728e-06
2.88416e-05
4.26867e-05
2.53254e-05
9.5692e-06
2.19398e-06
3.05373e-06
7.13581e-06
1.72037e-05
4.05108e-05
2.8219e-05
3.95354e-06
2.10819e-06
9.19331e-06
2.39009e-05
1.64341e-05
6.67253e-06
2.89698e-06
3.71693e-06
2.46111e-05
3.89274e-05
2.2695e-05
8.22174e-06
1.91433e-06
2.52634e-06
5.98971e-06
1.51867e-05
3.6642e-05
2.65944e-05
2.99105e-06
3.75133e-06
9.22341e-06
2.17287e-05
4.74494e-05
3.06576e-05
4.70863e-06
2.43415e-06
1.06518e-05
2.76761e-05
1.87347e-05
7.75599e-06
3.2799e-06
4.23195e-06
2.91668e-05
4.29384e-05
2.56936e-05
9.73927e-06
2.23769e-06
3.08735e-06
7.06821e-06
1.69695e-05
3.9182e-05
2.50675e-05
3.89973e-06
1.98733e-06
8.41573e-06
2.27086e-05
1.43054e-05
5.84392e-06
2.54268e-06
2.92259e-06
2.45564e-05
3.32946e-05
1.96676e-05
8.32256e-06
3.56441e-06
4.34974e-06
2.48715e-05
4.23235e-05
2.3478e-05
8.88801e-06
2.13993e-06
2.68396e-06
6.31383e-06
1.55665e-05
3.6069e-05
2.66623e-05
3.12572e-06
3.8517e-06
9.13301e-06
2.10889e-05
4.42964e-05
2.80551e-05
4.71303e-06
2.41369e-06
1.01122e-05
2.52776e-05
1.64546e-05
6.96067e-06
3.13668e-06
3.8804e-06
2.2783e-05
3.6599e-05
2.08616e-05
7.94341e-06
1.93597e-06
2.43499e-06
5.36386e-06
1.29489e-05
3.01734e-05
2.01685e-05
2.70057e-06
3.02605e-06
7.14389e-06
1.69019e-05
3.62944e-05
2.54933e-05
3.4063e-06
3.97674e-06
8.95793e-06
2.05977e-05
4.29204e-05
2.58333e-05
4.67008e-06
2.2959e-06
9.11794e-06
2.33849e-05
1.46343e-05
6.25052e-06
2.81285e-06
3.14733e-06
2.34596e-05
3.2298e-05
1.86632e-05
8.15436e-06
3.7313e-06
4.41926e-06
2.35584e-05
3.89663e-05
2.1269e-05
8.42651e-06
2.15251e-06
2.68352e-06
5.72822e-06
1.37471e-05
3.05718e-05
2.03509e-05
2.95867e-06
3.22714e-06
7.21857e-06
1.6823e-05
3.5352e-05
2.50361e-05
3.54059e-06
4.1321e-06
9.02813e-06
2.02925e-05
4.14245e-05
2.48048e-05
4.86235e-06
2.35985e-06
9.00252e-06
2.23961e-05
1.40333e-05
5.89596e-06
2.8093e-06
3.08546e-06
2.1473e-05
3.11865e-05
1.70895e-05
7.50216e-06
3.34473e-06
3.62374e-06
2.49871e-05
3.50299e-05
1.98891e-05
8.90565e-06
4.16607e-06
4.77832e-06
2.31075e-05
4.01207e-05
2.13522e-05
8.65547e-06
2.294e-06
2.80224e-06
5.78891e-06
1.37259e-05
3.02418e-05
2.03366e-05
3.03905e-06
3.32459e-06
7.26164e-06
1.66556e-05
3.4335e-05
2.45489e-05
3.63551e-06
4.22176e-06
8.80643e-06
1.95846e-05
3.98658e-05
2.36499e-05
4.88529e-06
2.3495e-06
8.7109e-06
2.14668e-05
1.35207e-05
5.78027e-06
2.85676e-06
3.09199e-06
2.01447e-05
2.92803e-05
1.60137e-05
6.99264e-06
3.38241e-06
3.59146e-06
2.18531e-05
3.29982e-05
1.81241e-05
7.99836e-06
3.73163e-06
3.95666e-06
2.58457e-05
3.64583e-05
2.02999e-05
9.26179e-06
4.50512e-06
5.13774e-06
2.37488e-05
4.03121e-05
2.14289e-05
8.83215e-06
2.43381e-06
2.90256e-06
5.86784e-06
1.33097e-05
2.8279e-05
2.00597e-05
3.15881e-06
3.42034e-06
7.06344e-06
1.57395e-05
3.15509e-05
2.06246e-05
3.53284e-06
3.62929e-06
7.59218e-06
1.7113e-05
3.39629e-05
2.26857e-05
3.77097e-06
3.95646e-06
8.51773e-06
1.89718e-05
3.77698e-05
2.71462e-05
4.19236e-06
4.78201e-06
9.90589e-06
2.142e-05
4.24621e-05
2.51218e-05
5.49325e-06
2.67866e-06
9.58256e-06
2.29236e-05
1.43217e-05
6.34118e-06
3.12487e-06
3.40071e-06
2.14495e-05
3.04033e-05
1.68584e-05
7.58112e-06
3.71618e-06
3.8749e-06
2.21792e-05
3.36084e-05
1.8321e-05
8.30236e-06
3.96831e-06
4.1061e-06
2.40028e-05
3.6295e-05
2.00331e-05
9.1784e-06
4.28673e-06
4.47571e-06
2.80041e-05
3.9364e-05
2.20821e-05
1.02673e-05
4.97837e-06
5.68323e-06
2.57179e-05
4.35823e-05
2.33032e-05
9.76579e-06
2.78266e-06
3.29797e-06
6.50741e-06
1.4556e-05
3.03259e-05
2.1158e-05
3.53538e-06
3.73576e-06
7.62618e-06
1.68334e-05
3.32686e-05
2.18685e-05
3.84132e-06
3.99035e-06
8.21607e-06
1.81857e-05
3.59749e-05
2.42317e-05
4.18099e-06
4.37048e-06
9.33554e-06
2.02175e-05
3.94974e-05
2.79661e-05
4.55985e-06
5.10331e-06
1.05483e-05
2.24589e-05
4.42172e-05
2.64871e-05
5.85548e-06
2.91617e-06
1.01904e-05
2.40166e-05
1.51167e-05
6.79463e-06
3.38852e-06
3.62594e-06
2.2045e-05
3.14968e-05
1.75294e-05
8.06467e-06
3.88548e-06
4.04965e-06
2.30658e-05
3.45545e-05
1.89613e-05
8.76268e-06
4.20962e-06
4.3499e-06
2.49911e-05
3.72341e-05
2.0755e-05
9.70836e-06
4.53171e-06
4.72744e-06
2.87761e-05
4.04862e-05
2.27292e-05
1.07476e-05
5.2419e-06
5.93917e-06
2.64998e-05
4.45509e-05
2.39279e-05
1.01086e-05
2.92443e-06
3.44964e-06
6.76523e-06
1.50011e-05
3.10202e-05
2.13279e-05
3.64402e-06
3.95668e-06
7.90705e-06
1.73926e-05
3.45015e-05
2.30945e-05
4.16581e-06
4.26903e-06
8.66037e-06
1.89085e-05
3.70892e-05
2.44051e-05
4.36729e-06
4.55163e-06
9.63968e-06
2.07366e-05
4.05797e-05
2.92675e-05
4.81778e-06
5.32414e-06
1.10237e-05
2.3262e-05
4.54067e-05
2.66207e-05
6.12355e-06
3.09322e-06
1.05433e-05
2.46425e-05
1.56393e-05
6.97795e-06
3.58366e-06
3.83752e-06
2.2594e-05
3.25827e-05
1.81654e-05
8.38804e-06
4.1059e-06
4.29879e-06
2.39885e-05
3.59482e-05
1.97963e-05
9.2009e-06
4.50994e-06
4.69444e-06
2.6148e-05
3.91094e-05
2.17987e-05
1.01685e-05
4.79433e-06
5.07652e-06
3.07488e-05
4.30183e-05
2.43856e-05
1.16342e-05
5.61901e-06
6.39181e-06
2.85975e-05
4.73839e-05
2.58295e-05
1.10782e-05
3.21378e-06
3.71003e-06
7.39975e-06
1.64108e-05
3.38201e-05
2.29861e-05
3.91892e-06
4.30321e-06
8.82171e-06
1.91113e-05
3.84694e-05
2.52482e-05
4.52071e-06
4.6685e-06
9.94359e-06
2.13363e-05
4.20642e-05
3.06245e-05
5.00716e-06
5.55084e-06
1.18673e-05
2.46324e-05
4.78703e-05
2.891e-05
6.36679e-06
3.33557e-06
1.14174e-05
2.65141e-05
1.72764e-05
7.80268e-06
3.83871e-06
4.12206e-06
2.44713e-05
3.56443e-05
2.01167e-05
9.41123e-06
4.54286e-06
4.76352e-06
2.65067e-05
4.02161e-05
2.25375e-05
1.06502e-05
4.91104e-06
5.22321e-06
3.14502e-05
4.42258e-05
2.55488e-05
1.23074e-05
5.90095e-06
6.75037e-06
2.95736e-05
4.93442e-05
2.73421e-05
1.18063e-05
3.4601e-06
4.01645e-06
8.06989e-06
1.77044e-05
3.69117e-05
2.55009e-05
4.31274e-06
4.65621e-06
1.00163e-05
2.13821e-05
4.25559e-05
3.07527e-05
5.00077e-06
5.75585e-06
1.20982e-05
2.49578e-05
4.86675e-05
2.93705e-05
6.67079e-06
3.45501e-06
1.18666e-05
2.74459e-05
1.80027e-05
8.21635e-06
4.00832e-06
4.3274e-06
2.6016e-05
3.76629e-05
2.1643e-05
1.01228e-05
4.74649e-06
5.15447e-06
3.1394e-05
4.34308e-05
2.54102e-05
1.24413e-05
5.80968e-06
6.67921e-06
2.9972e-05
4.9256e-05
2.7794e-05
1.19677e-05
3.48969e-06
4.10487e-06
8.33596e-06
1.81442e-05
3.78231e-05
2.62922e-05
4.43812e-06
4.82161e-06
1.04157e-05
2.22504e-05
4.45866e-05
3.1875e-05
5.2005e-06
5.96907e-06
1.30207e-05
2.66294e-05
5.20196e-05
3.20295e-05
7.02803e-06
3.77596e-06
1.29075e-05
2.98783e-05
1.99452e-05
9.17858e-06
4.39775e-06
4.9023e-06
3.08571e-05
4.11767e-05
2.52137e-05
1.23201e-05
5.78384e-06
6.7469e-06
3.15227e-05
4.9669e-05
2.91209e-05
1.26121e-05
3.59944e-06
4.30381e-06
9.15428e-06
2.00518e-05
4.15482e-05
3.20016e-05
4.85603e-06
5.84573e-06
1.25751e-05
2.56373e-05
5.0674e-05
3.16219e-05
6.95127e-06
3.753e-06
1.29655e-05
2.99719e-05
2.03495e-05
9.39404e-06
4.44217e-06
4.98572e-06
3.28902e-05
4.26165e-05
2.67906e-05
1.30611e-05
5.97069e-06
7.09247e-06
3.2771e-05
5.26417e-05
3.1462e-05
1.36607e-05
3.8795e-06
4.69285e-06
1.00437e-05
2.21332e-05
4.70472e-05
3.61908e-05
5.29047e-06
6.36582e-06
1.43897e-05
2.98861e-05
5.94033e-05
4.04346e-05
7.7663e-06
4.60892e-06
1.68012e-05
3.73953e-05
2.72486e-05
1.29537e-05
5.82533e-06
7.19953e-06
3.88543e-05
5.59283e-05
3.6221e-05
1.5906e-05
4.26777e-06
5.61247e-06
1.24539e-05
2.64524e-05
5.51574e-05
3.85479e-05
7.10925e-06
4.30184e-06
1.59694e-05
3.59808e-05
2.6301e-05
1.24181e-05
5.64584e-06
7.00519e-06
3.99134e-05
5.54127e-05
3.66103e-05
1.61175e-05
4.23559e-06
5.63533e-06
1.25685e-05
2.68756e-05
5.70546e-05
3.92903e-05
7.18587e-06
4.43939e-06
1.64831e-05
3.77243e-05
2.79207e-05
1.2762e-05
5.83251e-06
7.32602e-06
4.86662e-05
6.24632e-05
4.21799e-05
1.7905e-05
4.61579e-06
6.23173e-06
1.40807e-05
3.17776e-05
7.18841e-05
5.05876e-05
7.87473e-06
4.97852e-06
2.01642e-05
4.85616e-05
3.82452e-05
1.6135e-05
6.90315e-06
9.2773e-06
6.16084e-05
9.53321e-05
6.37113e-05
2.55631e-05
6.93223e-06
4.66371e-06
2.16371e-05
5.12073e-05
4.08421e-05
1.56837e-05
6.71563e-06
9.23076e-06
8.73132e-05
0.000127223
9.03427e-05
3.693e-05
7.7196e-06
6.96459e-06
3.36428e-05
8.06792e-05
7.00027e-05
2.8065e-05
6.43589e-06
6.21793e-06
2.82718e-05
6.8262e-05
6.19635e-05
2.57707e-05
5.57289e-06
4.27522e-06
2.24051e-05
5.50512e-05
4.46344e-05
1.63318e-05
6.92503e-06
1.00721e-05
0.000122324
0.000163318
0.000132768
5.36846e-05
9.4484e-06
9.31298e-06
5.21242e-05
0.000127814
0.000127098
5.2e-05
9.30113e-06
9.25969e-06
5.15426e-05
0.000125563
0.000124894
5.13371e-05
9.22326e-06
9.21114e-06
5.09573e-05
0.000123773
0.000123303
5.08751e-05
9.1917e-06
9.1594e-06
5.05552e-05
0.000122329
0.000121908
5.04124e-05
9.14442e-06
9.12323e-06
5.01848e-05
0.000121215
0.00012089
5.00712e-05
9.11102e-06
9.09376e-06
4.98938e-05
0.00012034
0.000120084
4.9805e-05
9.08398e-06
9.06998e-06
4.96657e-05
0.000119645
0.000119439
4.95968e-05
9.06191e-06
9.05034e-06
4.94816e-05
0.000119117
0.000118944
4.94262e-05
9.0437e-06
9.03413e-06
4.93323e-05
0.000118652
0.000118532
4.9286e-05
9.02864e-06
9.02065e-06
4.92072e-05
0.000118278
0.000118186
4.91692e-05
9.01616e-06
9.00952e-06
4.9103e-05
0.000117959
0.000117869
4.90722e-05
9.00583e-06
9.00023e-06
4.90131e-05
0.000117717
0.000117635
4.89886e-05
8.99726e-06
8.99266e-06
4.89402e-05
0.00011747
0.000117406
4.89188e-05
8.99024e-06
8.98639e-06
4.8874e-05
0.000117294
0.000117237
4.88577e-05
8.98452e-06
8.98141e-06
4.88212e-05
0.000117106
0.000117062
4.88064e-05
8.97995e-06
8.97739e-06
4.87716e-05
0.000116977
0.000116937
4.87613e-05
8.97638e-06
8.97439e-06
4.87334e-05
0.000116831
0.000116801
4.87235e-05
8.97367e-06
8.9721e-06
4.86959e-05
0.000116735
0.000116707
4.86896e-05
8.97172e-06
8.97059e-06
4.86679e-05
0.000116619
0.000116598
4.86611e-05
8.97043e-06
8.96961e-06
4.86384e-05
0.000116544
0.000116523
4.86341e-05
8.96972e-06
8.96926e-06
4.86151e-05
0.000116448
0.000116431
4.86073e-05
8.96955e-06
8.96943e-06
4.85854e-05
0.000116387
0.000116372
4.85787e-05
8.96992e-06
8.97012e-06
4.85621e-05
0.000116308
0.000116298
4.85545e-05
8.97077e-06
8.97124e-06
4.85379e-05
0.00011626
0.000116255
4.85338e-05
8.97205e-06
8.97276e-06
4.85219e-05
0.0001162
0.000116197
4.85158e-05
8.97369e-06
8.97464e-06
4.85036e-05
0.000116164
0.000116169
4.8502e-05
8.9757e-06
8.97678e-06
4.84923e-05
0.000116121
0.000116129
4.84876e-05
8.97798e-06
8.97919e-06
4.84807e-05
0.000116091
0.000116101
4.84776e-05
8.98057e-06
8.98189e-06
4.84716e-05
0.00011606
0.000116073
4.84682e-05
8.98339e-06
8.98483e-06
4.84634e-05
0.000116039
0.000116053
4.84618e-05
8.98644e-06
8.98796e-06
4.84571e-05
0.000116017
0.000116033
4.84549e-05
8.98968e-06
8.99131e-06
4.84517e-05
0.000116002
0.00011602
4.84513e-05
8.99311e-06
8.99482e-06
4.84477e-05
0.000115986
0.000116006
4.84466e-05
8.99671e-06
8.99852e-06
4.84444e-05
0.000115978
0.000115998
4.84454e-05
9.00049e-06
9.00235e-06
4.84431e-05
0.000115964
0.000115981
4.84434e-05
9.00438e-06
9.00629e-06
4.84383e-05
0.00011597
0.00011599
4.8444e-05
9.00847e-06
9.01039e-06
4.84409e-05
0.000115955
0.000115974
4.84425e-05
9.01258e-06
9.01458e-06
4.84378e-05
0.000115965
0.000115987
4.84438e-05
9.01687e-06
9.01889e-06
4.84408e-05
0.000115957
0.000115982
4.84427e-05
9.02121e-06
9.02332e-06
4.8442e-05
0.00011596
0.000115985
4.84451e-05
9.02564e-06
9.02778e-06
4.84447e-05
0.000115959
0.000115981
4.84465e-05
9.03012e-06
9.03228e-06
4.84427e-05
0.000115975
0.000115999
4.84495e-05
9.03472e-06
9.03689e-06
4.84471e-05
0.000115973
0.000116
4.84495e-05
9.03933e-06
9.04156e-06
4.84493e-05
0.000115982
0.000116009
4.84526e-05
9.044e-06
9.04625e-06
4.84522e-05
0.000115989
0.000116017
4.84542e-05
9.04871e-06
9.05099e-06
4.84541e-05
0.000115999
0.000116028
4.84574e-05
9.05345e-06
9.05574e-06
4.84571e-05
0.000116008
0.000116038
4.84592e-05
9.05821e-06
9.06052e-06
4.84591e-05
0.000116021
0.000116051
4.84623e-05
9.06299e-06
9.0653e-06
4.8462e-05
0.000116031
0.000116062
4.84639e-05
9.06778e-06
9.0701e-06
4.84637e-05
0.000116045
0.000116076
4.84667e-05
9.07257e-06
9.07489e-06
4.84665e-05
0.000116057
0.000116089
4.84682e-05
9.07734e-06
9.07967e-06
4.84678e-05
0.000116072
0.000116104
4.84703e-05
9.0821e-06
9.08441e-06
4.84698e-05
0.000116085
0.000116117
4.84711e-05
9.08683e-06
9.08914e-06
4.84705e-05
0.000116101
0.000116132
4.84729e-05
9.09153e-06
9.09382e-06
4.84723e-05
0.000116112
0.000116142
4.84733e-05
9.09618e-06
9.09842e-06
4.84697e-05
0.000116142
0.000116165
4.84735e-05
9.10081e-06
9.10301e-06
4.84715e-05
0.000116142
0.00011617
4.8472e-05
9.10534e-06
9.1075e-06
4.84673e-05
0.000116171
0.000116193
4.84702e-05
9.10984e-06
9.11198e-06
4.84672e-05
0.00011617
0.000116206
4.8467e-05
9.11424e-06
9.11637e-06
4.84644e-05
0.000116185
0.000116221
4.8465e-05
9.11859e-06
9.12066e-06
4.84605e-05
0.000116197
0.000116235
4.84598e-05
9.12286e-06
9.12487e-06
4.84554e-05
0.000116211
0.00011625
4.84555e-05
9.12704e-06
9.12899e-06
4.84496e-05
0.000116222
0.000116246
4.84485e-05
9.13112e-06
9.13297e-06
4.84386e-05
0.000116254
0.000116262
4.84391e-05
9.13513e-06
9.137e-06
4.84315e-05
0.000116244
0.000116262
4.84292e-05
9.13908e-06
9.14089e-06
4.84175e-05
0.000116272
0.000116274
4.84162e-05
9.143e-06
9.14484e-06
4.84062e-05
0.000116254
0.000116296
4.84022e-05
9.14696e-06
9.14879e-06
4.83909e-05
0.000116255
0.000116304
4.83884e-05
9.15099e-06
9.15287e-06
4.83748e-05
0.000116259
0.000116312
4.83709e-05
9.15509e-06
9.15697e-06
4.83567e-05
0.000116266
0.000116323
4.83545e-05
9.15902e-06
9.1608e-06
4.83384e-05
0.000116271
0.00011631
4.83357e-05
9.16266e-06
9.16432e-06
4.83156e-05
0.000116303
0.000116317
4.83139e-05
9.16604e-06
9.16762e-06
4.82969e-05
0.000116284
0.000116322
4.82931e-05
9.16922e-06
9.17061e-06
4.82708e-05
0.000116307
0.000116327
4.82689e-05
9.1721e-06
9.17332e-06
4.82498e-05
0.000116284
0.000116323
4.82466e-05
9.17468e-06
9.17557e-06
4.82238e-05
0.000116292
0.000116351
4.822e-05
9.1768e-06
9.17746e-06
4.81962e-05
0.000116278
0.000116358
4.81923e-05
9.17855e-06
9.17891e-06
4.8166e-05
0.000116278
0.000116363
4.81627e-05
9.17986e-06
9.17993e-06
4.81329e-05
0.000116285
0.000116311
4.81302e-05
9.18075e-06
9.18048e-06
4.80992e-05
0.00011629
0.000116319
4.80948e-05
9.18113e-06
9.18056e-06
4.80649e-05
0.000116243
0.000116318
4.80577e-05
9.18103e-06
9.18008e-06
4.80254e-05
0.00011622
0.000116301
4.80198e-05
9.18037e-06
9.179e-06
4.79848e-05
0.00011619
0.000116257
4.79774e-05
9.17907e-06
9.17726e-06
4.79368e-05
0.000116179
0.000116222
4.79306e-05
9.17712e-06
9.17487e-06
4.78908e-05
0.000116111
0.000116184
4.78799e-05
9.17448e-06
9.17172e-06
4.78377e-05
0.000116053
0.000116124
4.7827e-05
9.17107e-06
9.16777e-06
4.77809e-05
0.000115978
0.000116044
4.77663e-05
9.16684e-06
9.16301e-06
4.77172e-05
0.000115886
0.00011594
4.77023e-05
9.16178e-06
9.15756e-06
4.76426e-05
0.00011576
0.000115803
4.7612e-05
9.15624e-06
9.15201e-06
4.75621e-05
0.000115616
0.000115646
4.75235e-05
9.15068e-06
9.14666e-06
4.74555e-05
0.000115429
0.000115432
4.74097e-05
9.145e-06
9.14061e-06
4.73325e-05
0.000115228
0.000115201
4.72938e-05
9.13861e-06
9.13378e-06
4.72014e-05
0.000114954
0.000114933
4.71561e-05
9.13147e-06
9.12618e-06
4.70485e-05
0.000114689
0.00011463
4.69981e-05
9.1236e-06
9.11791e-06
4.68854e-05
0.00011434
0.000114286
4.68304e-05
9.11495e-06
9.10874e-06
4.67049e-05
0.000113996
0.0001139