/*--------------------------------*- C++ -*----------------------------------*\
| =========                 |                                                 |
| \\      /  F ield         | OpenFOAM: The Open Source CFD Toolbox           |
|  \\    /   O peration     | Version:  v2006                                 |
|   \\  /    A nd           | Website:  www.openfoam.com                      |
|    \\/     M anipulation  |                                                 |
\*---------------------------------------------------------------------------*/
FoamFile
{
    version     2.0;
    format      ascii;
    class       volVectorField;
    location    "0.01";
    object      U;
}
// * * * * * * * * * * * * * * * * * * * * * * * * * * * * * * * * * * * * * //

dimensions      [0 1 -1 0 0 0 0];


internalField   nonuniform List<vector> 
31566
(
(-119.921 0.170828 -2.1134e-19)
(-120.369 0.0555574 0)
(-120.005 0.048761 0)
(-119.55 0.155004 -6.59015e-19)
(-118.636 0.260333 1.10659e-18)
(-117.074 0.370425 -1.93074e-19)
(-114.877 0.50012 0)
(-112.129 0.641687 9.37367e-20)
(-108.786 0.802784 9.74095e-20)
(-105.053 0.964119 -1.93278e-19)
(-100.891 1.12523 -3.07864e-21)
(-96.4203 1.28096 0)
(-91.6381 1.42998 0)
(-86.595 1.56799 0)
(-81.3165 1.69262 0)
(-75.8451 1.80241 -2.42732e-23)
(-70.2254 1.89576 0)
(-64.5091 1.97415 0)
(-58.75 2.04191 0)
(-53.0019 2.10494 0)
(-47.3143 2.17081 0)
(-41.7284 2.24801 0)
(-36.275 2.34533 0)
(-30.974 2.47107 0)
(-25.8358 2.63236 0)
(-20.8637 2.83497 0)
(-16.0557 3.08422 0)
(-11.399 3.38577 0)
(-6.84643 3.74603 0)
(-2.18916 4.14016 0)
(2.02443 5.16806 0)
(5.16301 5.035 0)
(8.0641 4.40013 0)
(10.7195 3.23512 0)
(13.0115 2.35274 0)
(14.7726 1.65479 0)
(16.2552 1.05617 0)
(17.4085 0.782843 0)
(18.2895 0.571311 0)
(18.952 0.421306 0)
(19.4502 0.307698 0)
(19.828 0.219443 0)
(20.1138 0.148458 0)
(20.328 0.0904421 0)
(20.4815 0.0448175 0)
(20.5839 0.0133312 0)
(20.6434 -0.00207008 0)
(20.6649 -0.00391687 0)
(20.6702 -0.00100148 0)
(20.666 0.000446031 0)
(20.6496 0.00055918 0)
(20.6176 -0.00153074 0)
(20.5736 -0.0054627 0)
(20.5264 -0.00922459 0)
(20.4812 -0.0119722 0)
(20.4386 -0.0136727 0)
(20.3982 -0.0144633 0)
(20.3598 -0.0144941 0)
(20.3237 -0.0139344 0)
(20.2894 -0.0129364 4.86209e-23)
(20.2569 -0.0115739 0)
(20.2287 -0.00990315 0)
(20.2091 -0.00813204 0)
(20.1983 -0.00650433 0)
(20.193 -0.00498235 0)
(20.1902 -0.00355085 0)
(20.1891 -0.00225152 0)
(20.189 -0.00107208 0)
(20.1878 -0.000585236 0)
(20.192 -0.00113589 0)
(20.1953 -0.000859688 0)
(20.1978 -0.000538163 0)
(20.2004 -0.000141679 0)
(20.205 0.000412832 0)
(20.2139 0.000927016 0)
(20.2257 0.00118155 0)
(20.238 0.00127913 0)
(20.25 0.00133857 0)
(20.2619 0.00139259 0)
(20.2743 0.00142186 0)
(20.2878 0.00138443 0)
(20.3027 0.00123543 0)
(20.3187 0.000949586 4.68058e-23)
(20.3352 0.000541459 0)
(20.3515 6.18004e-05 0)
(20.3673 -0.000434624 0)
(20.3822 -0.000912523 0)
(20.3961 -0.00132914 0)
(20.409 -0.00163047 0)
(20.4208 -0.00179358 -4.39566e-23)
(20.4316 -0.00183283 -8.62905e-23)
(20.4412 -0.00173724 -3.3579e-22)
(20.4492 -0.00142279 -6.38799e-22)
(20.4546 -0.000839637 0)
(20.457 -0.000133373 0)
(20.457 0.000520955 0)
(20.455 0.00114766 0)
(20.4509 0.0018905 -4.04694e-20)
(20.4432 0.0023541 0)
(20.4293 0.00153056 0)
(20.4091 -0.00287107 0)
(20.381 -0.00642976 0)
(20.3531 -0.00530565 0)
(20.3141 -0.0133595 0)
(20.2565 -0.0235021 -2.10731e-19)
(20.1881 -0.0371578 2.5322e-19)
(20.1036 -0.0539256 0)
(19.9874 -0.0682913 1.76064e-19)
(19.8648 -0.0783092 -2.11896e-19)
(19.3183 -0.0882601 0)
(18.8517 -0.0965413 0)
(19.8358 -0.127187 0)
(20.015 -0.119107 -1.6757e-18)
(20.0407 -0.140576 3.20244e-19)
(19.794 -0.148801 -9.79269e-20)
(18.3533 -0.106484 5.98144e-20)
(17.8086 -0.103651 -2.55948e-19)
(19.7215 -0.14901 8.58278e-20)
(20.0608 -0.148295 -2.87306e-19)
(20.0641 -0.148318 2.78351e-19)
(19.625 -0.141956 2.10773e-20)
(17.2765 -0.0950193 2.0656e-19)
(16.7555 -0.0851822 -1.18979e-20)
(19.5184 -0.136871 -1.98194e-20)
(20.0536 -0.146201 -1.66007e-20)
(20.0347 -0.14119 1.65911e-20)
(19.3888 -0.128991 0)
(16.2683 -0.0769934 1.19647e-20)
(15.8031 -0.0716794 0)
(19.2569 -0.123858 -1.23805e-21)
(20.0114 -0.137212 0)
(19.9841 -0.130737 0)
(19.1067 -0.116689 1.23812e-21)
(15.3437 -0.0681404 0)
(14.9022 -0.0646882 -7.49355e-22)
(18.9797 -0.113129 1.23417e-21)
(19.9561 -0.126913 -1.03496e-21)
(19.9255 -0.122438 1.03962e-21)
(18.8513 -0.107409 -1.23581e-21)
(14.4919 -0.0591513 3.75261e-22)
(14.1168 -0.0525111 1.85876e-26)
(18.7244 -0.0995773 -3.09009e-22)
(19.893 -0.116039 0)
(19.8551 -0.109389 1.33136e-19)
(18.5961 -0.0914212 3.09076e-22)
(13.7757 -0.0457981 3.75368e-22)
(13.4738 -0.0388614 0)
(18.4711 -0.082256 0)
(19.813 -0.101843 0)
(19.7647 -0.0948521 -1.33147e-19)
(18.3466 -0.0738383 0)
(13.2095 -0.0326521 0)
(12.9816 -0.027086 0)
(18.2274 -0.065355 0)
(19.713 -0.0876931 0)
(19.6566 -0.0816849 -1.33146e-19)
(18.111 -0.0584927 0)
(12.7837 -0.0226111 0)
(12.6137 -0.0186711 0)
(18.0007 -0.0518975 0)
(19.5989 -0.0758375 0)
(19.5383 -0.0714328 0)
(17.8928 -0.0472698 0)
(12.4646 -0.0157933 0)
(12.335 -0.0134224 0)
(17.7898 -0.0428375 0)
(19.4782 -0.067192 -1.33132e-19)
(19.4172 -0.0643562 0)
(17.6892 -0.0402231 0)
(12.2163 -0.0120937 0)
(12.109 -0.010965 0)
(17.5939 -0.0374279 0)
(19.3579 -0.0612208 0)
(19.2989 -0.0593126 0)
(17.5006 -0.0361618 0)
(12.0057 -0.0105382 0)
(11.9089 -0.00997501 0)
(17.4122 -0.0342767 0)
(19.2426 -0.0567744 -1.33103e-19)
(19.1867 -0.0553306 0)
(17.325 -0.0336167 0)
(11.8133 -0.00985796 0)
(11.722 -0.00940717 0)
(17.242 -0.0320227 0)
(19.1334 -0.0530423 0)
(19.0802 -0.0519083 0)
(17.1595 -0.0316386 0)
(11.631 -0.0093886 0)
(11.5433 -0.00895261 0)
(17.0805 -0.0301279 0)
(19.0292 -0.0497509 -1.33087e-19)
(18.9778 -0.0489093 0)
(17.0014 -0.0299359 0)
(11.4556 -0.00898134 0)
(11.3703 -0.00854938 0)
(16.9253 -0.0284884 0)
(18.9284 -0.0469278 0)
(18.8782 -0.0464413 0)
(16.8487 -0.0284944 0)
(11.2852 -0.00863184 0)
(11.202 -0.00818322 0)
(16.7748 -0.0271089 0)
(18.8298 -0.0447218 -1.33087e-19)
(18.7804 -0.0446512 0)
(16.6999 -0.0273403 0)
(11.1191 -0.008284 0)
(11.0382 -0.00784559 0)
(16.6276 -0.0260521 0)
(18.7328 -0.0431888 1.33091e-19)
(18.6842 -0.0434807 0)
(16.5542 -0.0265116 0)
(10.9577 -0.00802017 0)
(10.8795 -0.00762441 0)
(16.4838 -0.0252894 0)
(18.638 -0.0421813 0)
(18.591 -0.042692 0)
(16.4126 -0.025867 0)
(10.8018 -0.00782582 0)
(10.7274 -0.00735348 0)
(16.3448 -0.0246023 0)
(18.5466 -0.0414744 0)
(18.5015 -0.0421457 0)
(16.2764 -0.025226 0)
(10.6538 -0.00754714 0)
(10.5843 -0.00704323 0)
(16.2118 -0.0239082 0)
(18.4594 -0.0409649 0)
(18.4167 -0.0417028 -1.33096e-19)
(16.1468 -0.024571 0)
(10.5156 -0.00735928 0)
(10.4508 -0.00687828 0)
(16.0861 -0.0232209 0)
(18.3773 -0.0404611 0)
(18.3371 -0.0411001 0)
(16.025 -0.0238462 0)
(10.3872 -0.00715624 0)
(10.3277 -0.00659818 0)
(15.9684 -0.0223663 0)
(18.3002 -0.03967 0)
(18.2625 -0.0401684 0)
(15.9115 -0.0229292 0)
(10.2697 -0.00683997 0)
(10.2159 -0.00622721 0)
(15.8592 -0.0213205 0)
(18.2282 -0.0385043 0)
(18.1929 -0.0388827 0)
(15.8066 -0.0218535 0)
(10.1639 -0.0064625 0)
(10.1159 -0.00580675 0)
(15.7587 -0.0201359 0)
(18.1613 -0.0369917 0)
(18.1288 -0.0372638 -1.33054e-19)
(15.7107 -0.0206464 0)
(10.0698 -0.00604138 0)
(10.0276 -0.00537894 0)
(15.6675 -0.0188668 0)
(18.1003 -0.0352354 0)
(18.071 -0.0354799 0)
(15.6243 -0.0194197 0)
(9.98747 -0.00564703 0)
(9.95089 -0.00501822 0)
(15.586 -0.0176356 0)
(18.0461 -0.0333929 0)
(18.0206 -0.0336735 0)
(15.5477 -0.018333 0)
(9.91605 -0.00537687 0)
(9.88407 -0.00486751 0)
(15.5143 -0.016706 0)
(18.0001 -0.0316239 0)
(17.9789 -0.0320589 0)
(15.4808 -0.0176117 0)
(9.85318 -0.00535149 0)
(9.82421 -0.00499508 0)
(15.4523 -0.0162041 0)
(17.9635 -0.0300912 0)
(17.9474 -0.0307092 -1.33003e-19)
(15.4237 -0.0173573 0)
(9.79545 -0.00565847 0)
(9.76754 -0.00546722 0)
(15.4002 -0.0161668 0)
(17.9381 -0.0287865 0)
(17.9279 -0.0294348 0)
(15.3767 -0.0175112 0)
(9.73889 -0.00630639 0)
(9.71026 -0.00624928 0)
(15.3587 -0.0164209 0)
(17.9258 -0.0274078 0)
(17.9225 -0.0279603 0)
(15.341 -0.0178178 0)
(9.68014 -0.00718149 0)
(9.64977 -0.00711754 0)
(15.329 -0.0166634 0)
(17.9284 -0.0256682 0)
(17.9321 -0.0261442 0)
(15.3172 -0.0180131 0)
(9.61765 -0.00803066 0)
(9.58537 -0.00786968 0)
(15.3111 -0.0167703 0)
(17.9459 -0.0237465 0)
(17.9558 -0.0243341 0)
(15.3044 -0.0181122 0)
(9.55103 -0.00872199 0)
(9.5165 -0.00839854 0)
(15.3026 -0.0168034 0)
(17.9762 -0.0220543 0)
(17.991 -0.0228446 0)
(15.2993 -0.0181121 0)
(9.47958 -0.00908744 0)
(9.4431 -0.00844308 0)
(15.2997 -0.0165639 0)
(18.0161 -0.0206999 0)
(18.0332 -0.0217501 0)
(15.2967 -0.0174466 0)
(9.40545 -0.00861203 0)
(9.3705 -0.00739123 0)
(15.2956 -0.0152996 0)
(18.0594 -0.0198403 0)
(18.0744 -0.0211824 0)
(15.2889 -0.0155787 0)
(9.33729 -0.00708687 0)
(9.30901 -0.00558223 0)
(15.2829 -0.012641 0)
(18.0969 -0.0193696 0)
(18.1056 -0.0207731 0)
(15.271 -0.0121967 0)
(9.28481 -0.00515964 0)
(9.26718 -0.00384852 0)
(15.26 -0.00845425 0)
(18.1205 -0.0187708 0)
(18.12 -0.0198313 0)
(15.2447 -0.00797037 0)
(9.2542 -0.00363979 0)
(9.24687 -0.00272184 0)
(15.2322 -0.00432903 0)
(18.1273 -0.0168367 0)
(18.1206 -0.0168428 0)
(15.2183 -0.00440662 0)
(9.24297 -0.00263209 0)
(9.24362 -0.00187125 0)
(15.2088 -0.00120222 0)
(18.1262 -0.0128093 0)
(18.1178 -0.0120859 0)
(15.2005 -0.00162571 0)
(9.24652 -0.00197234 0)
(9.25309 -0.00144412 0)
(15.1981 0.00111674 0)
(18.126 -0.00769126 0)
(18.1193 -0.00700862 0)
(15.1982 0.000247629 0)
(9.26037 -0.00162269 0)
(9.27107 -0.00119628 0)
(15.2039 0.00239747 0)
(18.1322 -0.00298027 0)
(18.1292 -0.00308503 0)
(15.2116 0.00090883 0)
(9.28049 -0.0014353 0)
(9.29304 -0.000961953 0)
(15.224 0.00249121 0)
(18.1474 3.44171e-05 0)
(18.1488 -0.000888037 0)
(15.2367 0.000720297 0)
(9.30358 -0.00129779 0)
(9.31679 -0.000862421 0)
(15.2532 0.00206415 0)
(18.1722 0.00144644 0)
(18.1774 -0.00012358 0)
(15.2687 0.000217782 0)
(9.32798 -0.00126812 0)
(9.34147 -0.000887273 0)
(15.2875 0.00149902 0)
(18.2046 0.00168209 0)
(18.2127 -0.000294773 0)
(15.3044 -0.000326368 0)
(9.35325 -0.00132989 0)
(9.36695 -0.0010011 0)
(15.3244 0.00095583 0)
(18.2422 0.00118529 0)
(18.2519 -0.00100249 0)
(15.3419 -0.000832512 0)
(9.37917 -0.0014568 0)
(9.39289 -0.00114793 0)
(15.3622 0.000488289 0)
(18.2824 0.000340852 0)
(18.2927 -0.00190433 0)
(15.3797 -0.0013188 0)
(9.40511 -0.00162605 0)
(9.41844 -0.00133101 0)
(15.3996 1.73399e-06 0)
(18.3232 -0.000617041 0)
(18.3333 -0.00283451 0)
(15.4168 -0.00181875 0)
(9.43023 -0.00178309 0)
(9.4428 -0.00143537 0)
(15.4358 -0.000500166 0)
(18.3628 -0.00153375 0)
(18.3717 -0.0036772 0)
(15.4519 -0.00227982 0)
(9.45366 -0.00188279 0)
(9.46503 -0.0015257 0)
(15.4695 -0.000971416 0)
(18.3993 -0.00243347 0)
(18.4067 -0.00455943 0)
(15.4841 -0.00273462 0)
(9.4747 -0.00197368 0)
(9.48481 -0.00159765 0)
(15.5001 -0.00146615 0)
(18.4319 -0.00335207 0)
(18.4373 -0.00543597 0)
(15.5131 -0.00322363 0)
(9.49308 -0.00203751 0)
(9.50148 -0.00163025 0)
(15.527 -0.00198675 0)
(18.4596 -0.00423004 0)
(18.4624 -0.00630703 0)
(15.5377 -0.00374024 0)
(9.50782 -0.00207441 0)
(9.51429 -0.0016895 0)
(15.5494 -0.00254562 0)
(18.4815 -0.00518884 0)
(18.482 -0.00731465 0)
(15.558 -0.00435306 0)
(9.51874 -0.00220797 0)
(9.52325 -0.00184621 0)
(15.5678 -0.00327238 0)
(18.4982 -0.00629702 0)
(18.4968 -0.00852092 0)
(15.5745 -0.00516986 0)
(9.52574 -0.00239044 0)
(9.52823 -0.00203311 0)
(15.5823 -0.00424458 0)
(18.5105 -0.00771791 0)
(18.5075 -0.0100958 0)
(15.5871 -0.0061993 0)
(9.52897 -0.00261034 0)
(9.52974 -0.00221994 0)
(15.5929 -0.00534835 0)
(18.5188 -0.00945418 0)
(18.5143 -0.01196 0)
(15.5957 -0.00729056 0)
(9.52909 -0.00277476 0)
(9.52846 -0.00239534 0)
(15.5994 -0.00654584 0)
(18.5227 -0.0115014 0)
(18.5164 -0.0140384 0)
(15.6001 -0.00844229 0)
(9.52647 -0.00296595 0)
(9.52402 -0.00261417 0)
(15.6011 -0.00781716 0)
(18.5214 -0.0137706 0)
(18.5126 -0.0163483 0)
(15.599 -0.00975209 0)
(9.51994 -0.00321876 0)
(9.51483 -0.00289352 0)
(15.5968 -0.00922617 0)
(18.5134 -0.0162228 0)
(18.5013 -0.0188728 0)
(15.5908 -0.0111799 0)
(9.50754 -0.003514 0)
(9.49843 -0.00317172 0)
(15.584 -0.0106549 0)
(18.4966 -0.0187599 0)
(18.4801 -0.021407 0)
(15.573 -0.012575 0)
(9.48686 -0.00377841 0)
(9.4732 -0.0033928 0)
(15.5608 -0.0119888 0)
(18.469 -0.0212671 0)
(18.4472 -0.0237857 0)
(15.544 -0.0137802 0)
(9.45702 -0.00393699 0)
(9.4387 -0.00351614 0)
(15.5256 -0.0131423 0)
(18.4287 -0.0236264 0)
(18.4008 -0.0261049 0)
(15.5023 -0.0149326 0)
(9.41793 -0.00406492 0)
(9.39505 -0.0036497 0)
(15.4775 -0.0143042 0)
(18.3748 -0.0258652 0)
(18.3411 -0.0282826 0)
(15.4479 -0.0161209 0)
(9.36952 -0.00417084 0)
(9.34181 -0.00377766 0)
(15.417 -0.0154641 0)
(18.3077 -0.0279322 0)
(18.2683 -0.0302517 0)
(15.3814 -0.01727 0)
(9.31168 -0.00425854 0)
(9.27973 -0.00387371 0)
(15.3448 -0.0165378 0)
(18.2282 -0.0298234 0)
(18.1835 -0.032081 0)
(15.3039 -0.0183194 0)
(9.24543 -0.00433926 0)
(9.20916 -0.00398506 0)
(15.2619 -0.0176019 0)
(18.1371 -0.0317532 0)
(18.087 -0.0341531 0)
(15.2156 -0.0194875 0)
(9.17044 -0.00452576 0)
(9.12978 -0.00427115 0)
(15.1683 -0.0188495 0)
(18.0353 -0.0338804 0)
(17.9801 -0.0362974 0)
(15.1168 -0.0207486 0)
(9.0865 -0.00478648 0)
(9.04129 -0.00447492 0)
(15.0643 -0.0201115 0)
(17.923 -0.0360636 0)
(17.8627 -0.0384361 0)
(15.0079 -0.0219405 0)
(8.99393 -0.00495193 0)
(8.94506 -0.00464124 0)
(14.9507 -0.0211845 0)
(17.8008 -0.0379958 0)
(17.7359 -0.0401357 0)
(14.8898 -0.0229395 0)
(8.89463 -0.00505344 0)
(8.84304 -0.00461089 0)
(14.8287 -0.0219576 0)
(17.6694 -0.0394436 0)
(17.6001 -0.0413325 0)
(14.764 -0.0235873 0)
(8.79012 -0.00500683 0)
(8.73616 -0.004622 0)
(14.6994 -0.0224313 0)
(17.5294 -0.0403349 0)
(17.456 -0.0418437 0)
(14.6315 -0.0238173 0)
(8.68087 -0.00491201 0)
(8.62478 -0.00445747 0)
(14.564 -0.0224115 0)
(17.3816 -0.0404426 0)
(17.3051 -0.0415251 0)
(14.4936 -0.0235051 0)
(8.56782 -0.0046722 0)
(8.51084 -0.00428973 0)
(14.4242 -0.0221291 0)
(17.2281 -0.0399408 0)
(17.1501 -0.0408615 0)
(14.3531 -0.0231249 0)
(8.45404 -0.00452913 0)
(8.39734 -0.00405349 0)
(14.2833 -0.0216586 0)
(17.0719 -0.0390538 0)
(16.992 -0.0398514 0)
(14.2112 -0.0226173 0)
(8.34025 -0.00421047 0)
(8.28314 -0.00379815 0)
(14.1407 -0.0212261 0)
(16.912 -0.0381665 0)
(16.8306 -0.0387186 0)
(14.0682 -0.0220125 0)
(8.22559 -0.00396225 0)
(8.16837 -0.00347612 0)
(13.9974 -0.0203336 0)
(16.7492 -0.0366976 0)
(16.6666 -0.0371606 0)
(13.9247 -0.0210258 0)
(8.11127 -0.00362886 0)
(8.05461 -0.00317883 0)
(13.8539 -0.0193908 0)
(16.5842 -0.0351695 0)
(16.5013 -0.0353988 0)
(13.782 -0.0198939 0)
(7.99884 -0.00327577 0)
(7.94348 -0.00295133 0)
(13.712 -0.0184941 0)
(16.4192 -0.0335604 0)
(16.3354 -0.0336036 0)
(13.6398 -0.0189318 0)
(7.88691 -0.00308873 0)
(7.83188 -0.0025318 0)
(13.5708 -0.0170273 0)
(16.2542 -0.0311372 0)
(16.174 -0.031549 0)
(13.5026 -0.0178131 0)
(7.77972 -0.00275714 0)
(7.73024 -0.0023205 0)
(13.4393 -0.0160617 0)
(16.0983 -0.0289863 0)
(16.0245 -0.0289379 0)
(13.3777 -0.0164298 0)
(7.68326 -0.0023019 0)
(7.6391 -0.00196892 0)
(13.3206 -0.0146869 0)
(15.9554 -0.0261675 0)
(15.8878 -0.0260387 0)
(13.265 -0.0151615 0)
(7.59759 -0.00208919 0)
(7.55934 -0.00153286 0)
(13.2145 -0.01314 0)
(15.8252 -0.0230109 0)
(15.7641 -0.0225723 0)
(13.1655 -0.0133673 0)
(7.52322 -0.00153784 0)
(7.49038 -0.00109578 0)
(13.1219 -0.0114204 0)
(15.7092 -0.0195937 0)
(15.6549 -0.0194836 0)
(13.0799 -0.011822 0)
(7.4604 -0.00119707 0)
(7.4337 -0.000777496 0)
(13.044 -0.0096971 0)
(15.609 -0.0164679 0)
(15.5614 -0.0161464 0)
(13.0086 -0.0100416 0)
(7.40841 -0.000854292 0)
(7.38496 -0.000513551 0)
(12.9781 -0.00799246 0)
(15.5229 -0.0132618 0)
(15.4812 -0.0132497 0)
(12.9484 -0.00851744 0)
(7.36417 -0.000643349 0)
(7.34602 -0.000255041 0)
(12.924 -0.0062605 0)
(15.4502 -0.0102274 0)
(15.4132 -0.00992653 0)
(12.8986 -0.00662105 0)
(7.32816 -0.000310351 0)
(7.3124 -7.16069e-05 0)
(12.8779 -0.00467805 0)
(15.3874 -0.00728546 0)
(15.3551 -0.0073133 0)
(12.8571 -0.00518542 0)
(7.2975 -0.000172915 0)
(7.28482 0.000263605 0)
(12.841 -0.002982 0)
(15.3351 -0.00447618 0)
(15.307 -0.00445287 0)
(12.8243 -0.00357064 0)
(7.27318 0.000128492 0)
(7.26328 0.000412247 0)
(12.8128 -0.00152566 0)
(15.2935 -0.00184168 0)
(15.2704 -0.00173438 0)
(12.8005 -0.0020685 0)
(7.25398 0.000521342 0)
(7.24709 0.000816828 0)
(12.7917 1.42667e-05 0)
(15.2607 0.000652422 0)
(15.2422 0.000371216 0)
(12.784 -0.000672263 0)
(7.24175 0.000733066 0)
(7.24036 0.000794172 0)
(12.7825 0.00139762 0)
(15.2409 0.00285296 0)
(15.226 0.00270883 0)
(12.7775 0.000606245 0)
(7.2362 0.000710419 0)
(7.23451 0.000922448 0)
(12.7759 0.00250833 0)
(15.2259 0.00472837 0)
(15.2154 0.00473728 0)
(12.7754 0.00193106 0)
(7.2344 0.000916595 0)
(7.23827 0.00133381 0)
(12.7796 0.00397428 0)
(15.222 0.0070727 0)
(15.2156 0.00629274 0)
(12.7831 0.00293437 0)
(7.24237 0.00114234 0)
(7.25014 0.00125203 0)
(12.7916 0.00411238 0)
(15.227 0.00752736 0)
(15.2234 0.00904006 0)
(12.7989 0.0047351 0)
(7.25828 0.00170232 0)
(7.26843 0.00212105 0)
(12.8095 0.00708127 0)
(15.2373 0.01189 0)
(15.2353 0.013247 0)
(12.8181 0.00740471 0)
(7.27737 0.00257593 0)
(7.29574 0.0025239 0)
(12.8363 0.0078766 0)
(15.257 0.0125849 0)
(15.2633 0.0157734 0)
(12.8551 0.00895424 0)
(7.31682 0.00292189 0)
(7.34097 0.00409291 0)
(12.878 0.0123588 0)
(15.2906 0.0199863 0)
(15.3018 0.0185842 0)
(12.9019 0.0108913 0)
(7.36799 0.00347608 0)
(7.40136 0.00361633 0)
(12.9326 0.0119423 0)
(15.3358 0.0202484 0)
(15.3489 0.0265148 0)
(12.9597 0.01633 0)
(7.43231 0.00526577 0)
(7.46664 0.00468477 0)
(12.9926 0.0164463 0)
(15.3866 0.0283856 0)
(15.4171 0.0259609 0)
(13.0374 0.0145372 0)
(7.51488 0.0041616 0)
(7.57153 0.0040718 0)
(13.0938 0.0146966 0)
(15.4768 0.0240034 0)
(15.5163 0.0265829 0)
(13.1491 0.0144449 0)
(7.62874 0.00372637 0)
(7.65894 0.00747369 0)
(13.1818 0.025335 0)
(15.5541 0.0414989 0)
(15.5566 0.0372491 1.32337e-19)
(13.195 0.021714 0)
(7.67112 0.00608144 0)
(7.72641 0.00196394 0)
(13.2525 0.0132031 0)
(15.6171 0.0267582 0)
(15.6756 0.0298427 0)
(13.3269 0.0163328 0)
(7.79831 0.00369592 0)
(7.82181 0.00832132 0)
(13.3585 0.0299217 0)
(15.7152 0.0480515 0)
(15.7294 0.0365141 0)
(13.3815 0.0187856 0)
(7.83816 0.00377995 0)
(7.90349 0.00271026 0)
(13.4536 0.0158021 0)
(15.8043 0.0302286 1.32369e-19)
(15.8292 0.0451104 0)
(13.4844 0.0272512 0)
(7.91949 0.00719671 0)
(7.90742 0.000612151 0)
(13.4903 0.0115559 0)
(15.8486 0.023343 1.32426e-19)
(15.9111 0.00759195 0)
(13.5616 0.000336311 0)
(7.96498 -0.00348346 0)
(8.03071 -0.00118965 0)
(13.6452 0.00436159 0)
(16.0045 0.0112698 1.32476e-19)
(16.0187 0.0229552 0)
(13.6577 0.0138356 0)
(8.02339 0.00311376 0)
(8.00288 -0.00295762 0)
(13.658 0.00117696 0)
(16.0372 0.00865972 1.32479e-19)
(16.0896 -0.00187625 0)
(13.7107 -0.00699435 0)
(8.03972 -0.00512351 0)
(8.04752 0.00130355 0)
(13.7379 0.00639159 0)
(16.1327 0.0102134 1.32471e-19)
(16.0833 0.00297974 0)
(13.6739 0.00255381 0)
(7.96132 0.000452674 0)
(7.912 -0.00985969 0)
(13.6439 -0.0214453 0)
(16.0707 -0.0250769 1.32536e-19)
(16.1275 -0.0396722 0)
(13.6949 -0.0280484 0)
(7.94841 -0.0105468 0)
(7.94863 -0.00367501 0)
(13.7116 -0.012293 0)
(16.1578 -0.024039 1.32589e-19)
(16.0808 -0.0192759 0)
(13.6127 -0.00961375 0)
(7.83463 -0.00226471 0)
(7.71312 -0.0122032 0)
(13.5054 -0.0346216 0)
(15.9921 -0.0502797 0)
(15.9868 -0.0662785 0)
(13.4853 -0.0412697 0)
(7.68281 -0.0126656 0)
(7.64745 -0.0124984 0)
(13.4622 -0.042178 0)
(15.983 -0.0654547 0)
(15.8846 -0.0603847 0)
(13.3382 -0.0362867 0)
(7.51067 -0.00912965 0)
(7.31964 -0.0111201 0)
(13.1576 -0.0429581 0)
(15.7303 -0.0716849 0)
(15.5958 -0.0898299 0)
(12.999 -0.0591911 0)
(7.15526 -0.0167219 0)
(7.04118 -0.0170363 0)
(12.8908 -0.0657312 0)
(15.5086 -0.107482 0)
(15.381 -0.103151 0)
(12.7388 -0.0605673 0)
(6.88564 -0.0142708 0)
(6.60293 -0.0114866 0)
(12.4594 -0.0535595 0)
(15.1324 -0.0933497 0)
(14.8504 -0.124981 0)
(12.1443 -0.0732057 0)
(6.28874 -0.018191 0)
(6.08636 -0.0276614 0)
(11.9338 -0.0986362 0)
(14.6615 -0.16048 0)
(14.5098 -0.168083 0)
(11.7568 -0.0973452 0)
(5.91738 -0.0252305 0)
(5.69172 -0.0263263 0)
(11.5194 -0.101318 0)
(14.298 -0.176801 0)
(13.9934 -0.163617 0)
(11.181 -0.0905942 0)
(5.35985 -0.0214209 0)
(4.96834 -0.0295245 0)
(10.7801 -0.109705 0)
(13.6323 -0.195031 0)
(13.3127 -0.229768 0)
(10.4344 -0.141484 0)
(4.6356 -0.0405589 -2.40834e-20)
(4.35822 -0.0292489 -7.84503e-24)
(10.1346 -0.128339 0)
(13.062 -0.227578 0)
(12.7548 -0.245158 3.36968e-20)
(9.79133 -0.140957 -4.03113e-20)
(4.02746 -0.0360597 2.44426e-20)
(3.65571 -0.0386984 0)
(9.38149 -0.154861 4.06407e-20)
(12.3976 -0.2707 -3.38578e-20)
(11.9675 -0.271593 3.56937e-19)
(8.91385 -0.145871 -8.70548e-20)
(3.21686 -0.032934 0)
(2.72071 -0.0533751 0)
(8.33759 -0.172807 8.93025e-20)
(11.481 -0.306345 -7.49284e-20)
(11.0393 -0.358005 8.40719e-20)
(7.80989 -0.183164 -5.09325e-19)
(2.0935 -0.041347 -2.49355e-19)
(2.08332 -0.0881544 1.8561e-19)
(7.57221 -0.263021 -8.30016e-19)
(10.8499 -0.461096 3.53258e-19)
(10.4772 -0.430038 -3.74674e-19)
(7.04089 -0.251035 6.71438e-19)
(1.26493 -0.0841128 -2.01169e-19)
(12.9396 -0.686998 0)
(12.9626 -0.964189 1.40165e-19)
(12.3724 -1.22524 -6.23794e-19)
(11.8504 -1.47049 -5.32957e-19)
(11.2571 -1.76637 0)
(9.69248 -2.06819 -1.32967e-19)
(8.73261 -2.27566 -1.76073e-24)
(7.07141 -2.53563 -1.68163e-20)
(5.87203 -2.7248 1.68425e-20)
(4.04633 -2.96441 0)
(2.63493 -3.2071 4.23268e-21)
(0.585831 -3.37582 -4.23681e-21)
(-0.92428 -3.82148 0)
(-3.28287 -3.77347 0)
(-5.48464 -3.6828 0)
(-9.88772 -3.65231 0)
(-13.3587 -3.66566 0)
(-19.5949 -3.71324 0)
(-24.0713 -3.79542 -1.35591e-19)
(-31.7248 -3.89029 0)
(-36.9725 -3.99004 0)
(-45.4858 -4.11419 0)
(-51.2638 -4.2239 0)
(-60.1851 -4.36956 0)
(-66.2979 -4.49115 0)
(-75.3639 -4.64658 0)
(-81.67 -4.79413 0)
(-90.8294 -4.9402 0)
(-97.1939 -5.15144 0)
(-106.482 -5.23094 0)
(-112.573 -5.6396 1.35627e-19)
(-123.038 -5.49506 -1.37847e-19)
(-128.259 -6.36835 1.91427e-20)
(-140.526 -5.40545 1.88317e-19)
(-142.619 -7.83515 -6.93065e-20)
(-250.014 -6.4885 -1.40141e-19)
(-356.05 -10.1108 2.90846e-19)
(-366.988 -12.1747 -3.70082e-20)
(-367.163 -11.8542 0)
(-367.357 -11.8629 5.58103e-18)
(-367.41 -11.8644 -1.20242e-17)
(-367.448 -11.8586 3.19667e-18)
(-367.474 -11.8472 0)
(-367.473 -11.838 0)
(-367.432 -11.8278 -1.14801e-19)
(-367.29 -11.8083 0)
(-367.195 -11.7993 1.49109e-20)
(-367.041 -11.7909 -1.48033e-20)
(-366.929 -11.7606 0)
(-366.244 -11.9189 1.16364e-19)
(-366.52 -11.2722 -2.46092e-19)
(-338.964 -12.4616 2.40529e-19)
(-244.924 -9.42598 -1.09597e-18)
(-103.954 -1.40285 6.78811e-19)
(-54.5931 0.99233 -3.69407e-19)
(-40.6063 -0.0780771 0)
(-22.7824 0.435537 6.6111e-20)
(-21.6231 0.534394 -3.01541e-19)
(-39.5925 0.135474 -6.09711e-19)
(-53.6885 1.4992 1.14497e-22)
(-52.2412 2.48583 0)
(-37.8983 0.243809 0)
(-19.7164 0.803794 0)
(-17.0264 1.10504 0)
(-35.5837 -0.0679298 -1.7128e-19)
(-50.6357 3.24423 0)
(-49.5881 2.85 0)
(-33.3445 -0.128654 1.65445e-19)
(-14.5685 1.06152 0)
(-12.3425 0.590716 0)
(-31.2969 0.504699 1.5452e-19)
(-52.2125 1.45227 2.53593e-23)
(-59.8093 0.141763 0)
(-29.6424 1.33709 -1.91425e-20)
(-9.99626 -0.030417 6.93796e-20)
(-7.56266 -0.554292 2.1646e-23)
(-28.8795 1.76729 0)
(-69.4216 -0.843086 0)
(-80.6793 -1.96902 0)
(-27.6921 1.84347 0)
(-5.86323 0.504459 -4.56648e-20)
(3.16105 0.833011 0)
(-36.2403 -0.0851807 0)
(-92.466 -3.60619 0)
(-102.008 -4.65314 0)
(-46.4589 -1.6159 0)
(-1.81698 -0.403496 0)
(-5.55803 -0.904848 0)
(-52.443 -1.91778 7.48314e-20)
(-108.188 -4.59942 0)
(-113.376 -4.76366 0)
(-58.9641 -2.42074 4.10989e-22)
(-14.3168 -1.35125 0)
(-21.882 -1.20745 0)
(-65.5097 -2.48317 -7.44712e-20)
(-118.255 -4.68496 0)
(-122.932 -4.46114 0)
(-72.1017 -2.46354 0)
(-29.7319 -1.14341 0)
(-37.0162 -1.04642 0)
(-78.3635 -2.34447 0)
(-127.269 -4.16982 0)
(-131.401 -3.88997 0)
(-84.2933 -2.21871 0)
(-43.8468 -0.966635 0)
(-50.236 -0.888701 0)
(-89.9134 -2.09678 0)
(-135.282 -3.63603 0)
(-139.028 -3.41683 0)
(-95.2869 -1.98782 0)
(-56.2483 -0.82699 0)
(-61.9062 -0.763269 0)
(-100.381 -1.87588 0)
(-142.594 -3.21336 0)
(-146.021 -3.01758 0)
(-105.233 -1.76641 0)
(-67.1881 -0.704888 0)
(-72.0218 -0.644506 0)
(-109.706 -1.65219 0)
(-149.199 -2.82795 0)
(-152.248 -2.66985 0)
(-113.962 -1.56842 0)
(-76.5787 -0.605665 0)
(-81.1735 -0.589668 0)
(-118.209 -1.52924 0)
(-155.325 -2.58066 0)
(-158.604 -2.58416 0)
(-122.573 -1.53067 0)
(-85.8136 -0.582467 0)
(-90.2462 -0.543977 0)
(-126.774 -1.45524 0)
(-161.806 -2.48501 0)
(-164.911 -2.36717 0)
(-130.817 -1.38454 0)
(-94.4385 -0.510277 0)
(-98.4419 -0.481719 0)
(-134.703 -1.32977 7.30232e-20)
(-167.926 -2.26457 0)
(-170.883 -2.18156 0)
(-138.469 -1.27734 -7.31915e-20)
(-102.295 -0.457344 0)
(-106.02 -0.436476 0)
(-142.158 -1.23143 7.26551e-20)
(-173.825 -2.10829 0)
(-176.737 -2.04469 0)
(-145.763 -1.19619 -7.2847e-20)
(-109.643 -0.416238 0)
(-113.177 -0.400446 0)
(-149.294 -1.1572 0)
(-179.624 -1.98828 0)
(-182.53 -1.94233 0)
(-152.789 -1.12749 0)
(-116.632 -0.38706 0)
(-120.032 -0.377113 0)
(-156.229 -1.10269 0)
(-185.422 -1.90392 0)
(-188.364 -1.88637 0)
(-159.664 -1.07981 0)
(-123.392 -0.371693 0)
(-126.742 -0.3711 0)
(-163.106 -1.06723 0)
(-191.335 -1.87743 0)
(-194.404 -1.88599 0)
(-166.584 -1.06367 0)
(-130.107 -0.370697 0)
(-133.521 -0.375918 0)
(-170.127 -1.07061 0)
(-197.557 -1.90639 0)
(-200.854 -1.93824 0)
(-173.763 -1.08653 0)
(-137.009 -0.380411 0)
(-140.614 -0.393013 0)
(-177.527 -1.1174 0)
(-204.315 -1.992 0)
(-207.985 -2.07035 0)
(-181.464 -1.15768 0)
(-144.378 -0.406439 0)
(-148.367 -0.431414 0)
(-185.629 -1.21811 0)
(-211.91 -2.17679 0)
(-216.159 -2.31869 0)
(-190.089 -1.29414 0)
(-152.638 -0.459175 0)
(-157.299 -0.505813 0)
(-194.931 -1.40238 0)
(-220.811 -2.50638 0)
(-225.973 -2.75275 0)
(-200.231 -1.53868 0)
(-162.449 -0.5588 0)
(-168.284 -0.641146 0)
(-206.23 -1.76973 0)
(-231.749 -3.0984 0)
(-238.351 -3.60646 5.8758e-20)
(-213.147 -2.09319 0)
(-175.206 -0.813025 0)
(-183.193 -1.37671 -3.39745e-19)
(-220.966 -3.0131 3.50726e-19)
(-245.77 -4.6109 0)
(-253.788 -6.20497 -6.19435e-22)
(-229.508 -4.58154 -6.30571e-19)
(-191.935 -2.44471 -4.19799e-20)
(-200.416 -4.46977 -1.30519e-18)
(-238.083 -7.27504 2.22415e-18)
(-262.031 -8.58497 -9.83344e-19)
(-269.9 -11.1347 -1.79027e-18)
(-246.076 -9.93963 1.04126e-18)
(-208.051 -6.51318 0)
(-214.7 -8.94217 2.67481e-18)
(-253.449 -12.8589 -2.12377e-18)
(-277.369 -13.8858 0)
(-284.165 -16.4366 0)
(-259.924 -15.2937 0)
(-220.03 -11.0212 0)
(-224.766 -12.7495 -2.31203e-18)
(-265.912 -17.2381 2.1523e-18)
(-290.682 -18.8017 1.7805e-18)
(-297.342 -21.0414 1.69672e-18)
(-271.719 -19.1588 -2.10839e-18)
(-229.367 -14.4995 3.23789e-19)
(-237.397 -18.4779 -5.5526e-18)
(-281.038 -23.4648 3.73639e-18)
(-307.338 -25.5999 0)
(-294.736 -25.8909 1.94508e-17)
(-272.339 -23.5964 0)
(-239.222 -19.8278 4.30983e-19)
(-247.316 -21.231 -5.54819e-19)
(-284.439 -25.4618 9.8306e-19)
(-305.764 -28.7985 -8.92999e-19)
(-311.22 -30.38 3.00293e-19)
(-290.014 -27.1808 0)
(-250.228 -22.5041 0)
(-251.083 -23.6117 -2.00555e-19)
(-293.191 -28.6972 -8.19618e-20)
(-314.477 -31.2976 -4.02317e-19)
(-317.865 -32.6076 4.30457e-18)
(-296.663 -30.8572 -4.96347e-18)
(-252.988 -25.198 6.40852e-18)
(-256.647 -27.8583 -5.84958e-18)
(-301.566 -34.4643 -4.75471e-18)
(-322.685 -35.2213 3.85515e-18)
(-328.535 -38.3662 1.38839e-20)
(-307.345 -37.1839 4.61517e-18)
(-261.257 -29.8767 -1.31255e-19)
(-266.087 -31.932 1.7036e-19)
(-313.013 -39.7448 -4.67068e-18)
(-334.338 -41.5928 -4.59959e-19)
(-340.126 -45.0846 -2.92432e-18)
(-318.559 -43.1438 -3.88762e-18)
(-271.176 -34.9223 5.24042e-18)
(-278.978 -40.63 -9.66915e-18)
(-327.334 -49.6309 -2.51467e-20)
(-348.836 -51.6325 5.53526e-18)
(-337.647 -52.5187 2.96534e-20)
(-317.255 -49.9861 2.22629e-17)
(-280.549 -42.875 0)
(-289.56 -45.7598 -8.98536e-18)
(-328.075 -53.2437 6.71971e-18)
(-346.235 -56.6634 0)
(-351.756 -60.1609 -4.56168e-18)
(-334.224 -56.7658 5.97426e-18)
(-294.186 -48.466 2.16731e-19)
(-298.176 -52.1771 0)
(-339.481 -61.3582 0)
(-356.826 -63.6598 0)
(-362.708 -68.3962 -3.27546e-18)
(-345.542 -66.5198 9.22009e-18)
(-302.935 -55.9172 -3.41076e-20)
(-308.886 -60.4141 7.03741e-19)
(-352.026 -71.9261 -9.53882e-18)
(-369.065 -73.6604 -4.27107e-19)
(-378.928 -83.6279 0)
(-362.317 -83.1013 9.38412e-19)
(-318.533 -70.3022 -1.04531e-17)
(-322.65 -75.9275 -2.71753e-17)
(-355.278 -86.4524 1.08603e-17)
(-372.229 -87.6448 1.81942e-17)
(-382.261 -97.9348 0)
(-368.071 -96.3811 0)
(-334.986 -85.1017 1.76695e-17)
(-343.629 -93.2152 -1.34414e-17)
(-376.678 -106.143 1.04248e-17)
(-389.632 -107.718 4.14194e-18)
(-398.812 -121.286 7.51302e-18)
(-387.046 -122.666 -1.44267e-19)
(-353.991 -107.606 -1.12027e-17)
(-357.998 -117.15 1.41014e-17)
(-380.902 -130.442 -1.14646e-17)
(-393.428 -129.836 1.7221e-17)
(-398.831 -146.333 4.75423e-18)
(-386.751 -151.995 7.12441e-18)
(-363.122 -138.074 -1.68381e-17)
(-356.759 -157.321 -2.68992e-17)
(-380.076 -174.219 -3.19608e-18)
(-394.364 -162.567 2.81876e-17)
(-364.226 -172.982 0)
(-350.753 -178.966 2.74174e-17)
(-336.316 -164.103 -3.18233e-17)
(-187.74 -115.067 -4.46117e-17)
(-224.808 -143.584 3.39436e-17)
(-291.132 -115.056 -4.18415e-18)
(-102.928 -25.8367 2.75859e-18)
(-35.8223 3.8873 2.97474e-17)
(-5.81577 48.9114 0)
(-3.34724 86.6131 5.7636e-21)
(0.900655 83.0989 -3.1046e-18)
(-10.9304 70.7649 -1.10781e-18)
(-23.256 47.8842 -1.61162e-18)
(-23.0531 50.9731 0)
(-28.5901 45.9683 2.31889e-17)
(-41.3575 41.1841 -3.26834e-17)
(-40.9556 44.4213 2.37245e-17)
(-40.2421 42.6114 -3.69162e-17)
(-48.1024 37.4069 4.08518e-17)
(-47.7209 38.8567 -4.83144e-17)
(-44.6498 35.4948 6.60968e-17)
(-44.743 30.6428 0)
(-50.3679 35.2236 1.41225e-18)
(-51.7041 34.965 -1.25526e-18)
(-52.7026 32.8095 3.08135e-18)
(-50.9845 32.0697 1.79637e-17)
(-45.5163 27.7692 -4.59177e-17)
(-46.9706 27.0358 0)
(-53.9453 31.2884 8.64804e-19)
(-55.1859 31.6978 -2.57742e-18)
(-55.3197 30.1055 0)
(-53.3743 29.2358 2.20542e-17)
(-45.5597 24.8065 -2.66999e-17)
(-45.8433 24.0868 1.39345e-21)
(-52.6156 27.9653 2.386e-17)
(-55.0181 29.1046 -3.24472e-17)
(-57.0395 28.9759 2.08673e-17)
(-55.2755 28.176 -3.41212e-18)
(-47.2394 24.1683 0)
(-45.7473 22.8392 -8.12781e-19)
(-54.1974 27.0061 1.4336e-18)
(-56.4287 28.074 -6.35995e-18)