/*--------------------------------*- C++ -*----------------------------------*\
| =========                 |                                                 |
| \\      /  F ield         | OpenFOAM: The Open Source CFD Toolbox           |
|  \\    /   O peration     | Version:  v2006                                 |
|   \\  /    A nd           | Website:  www.openfoam.com                      |
|    \\/     M anipulation  |                                                 |
\*---------------------------------------------------------------------------*/
FoamFile
{
    version     2.0;
    format      ascii;
    class       volScalarField;
    location    "0.01";
    object      yPlus;
}
// * * * * * * * * * * * * * * * * * * * * * * * * * * * * * * * * * * * * * //

dimensions      [0 0 0 0 0 0 0];


internalField   uniform 0;

boundaryField
{
    bottomEmptyFaces
    {
        type            empty;
    }
    topEmptyFaces
    {
        type            empty;
    }
    inlet
    {
        type            calculated;
        value           uniform 0;
    }
    outlet
    {
        type            calculated;
        value           uniform 0;
    }
    walls
    {
        type            calculated;
        value           nonuniform List<scalar> 
988
(
11.5221
11.5101
11.5051
11.492
11.486
11.4717
11.4648
11.4491
11.4415
11.4247
11.416
11.3977
11.3881
11.3687
11.358
11.3371
11.3256
11.3035
11.2906
11.2671
11.2532
11.2286
11.2134
11.1873
11.171
11.1437
11.1259
11.097
11.0782
11.048
11.0275
10.9957
10.9738
10.9405
10.917
10.8819
10.8567
10.8198
10.7926
10.7535
10.7241
10.6827
10.6506
10.606
10.5709
10.5227
10.4838
10.4308
10.3876
10.3287
10.2801
10.2136
10.1588
10.0825
10.0206
9.93223
9.86296
9.76288
9.68914
9.58643
9.51311
9.40982
9.33788
9.23536
9.16649
9.06641
9.00155
8.9061
8.84617
8.75712
8.70282
8.6217
8.57369
8.50159
8.45985
8.39727
8.36167
8.30849
8.27831
8.23348
8.20819
8.17053
8.14925
8.11767
8.09982
8.07299
8.05772
8.03501
8.02197
8.00242
7.99094
7.97398
7.96383
7.94868
7.9394
7.92574
7.91717
7.9044
7.89621
7.88419
7.87629
7.86461
7.85675
7.84542
7.83752
7.82619
7.81808
7.80689
7.79859
7.78724
7.77862
7.76722
7.75835
7.7468
7.73754
7.72598
7.71639
7.70463
7.69467
7.6828
7.67251
7.66039
7.64968
7.63745
7.62637
7.61381
7.60226
7.58945
7.57748
7.56427
7.55164
7.53808
7.5247
7.51062
7.49639
7.48174
7.46671
7.45132
7.43546
7.41936
7.40273
7.38591
7.36851
7.35093
7.33278
7.31447
7.29555
7.27648
7.25681
7.23703
7.2166
7.19604
7.17482
7.15349
7.1314
7.10907
7.0859
7.06246
7.03806
7.01326
6.98744
6.9612
6.93379
6.90582
6.87663
6.84684
6.81565
6.78368
6.75029
6.71599
6.67991
6.64259
6.60329
6.56239
6.51877
6.47344
6.42543
6.37534
6.32189
6.26582
6.20606
6.14315
6.07552
6.00388
5.92694
5.84528
5.75707
5.66315
5.56222
5.45485
5.33904
5.21551
5.08273
4.94082
4.78784
4.62367
4.44813
4.26058
4.06072
3.84908
3.62565
3.39008
3.14258
2.88047
2.60338
2.31664
2.03224
1.743
1.47968
1.24964
1.11807
1.37297
1.77993
2.03208
2.34456
2.67404
3.02228
3.40264
3.76265
4.05597
4.29543
4.49152
4.63354
4.71625
4.81115
4.91869
6.40302
4.42464
4.21944
5.3995
5.00342
4.72927
4.00772
3.54023
5.22256
5.13884
4.99504
4.94414
4.92771
4.76308
5.422
5.32586
5.8777
5.59535
5.14118
5.04797
6.10991
5.63521
5.38879
4.56664
4.0546
5.82329
4.85243
4.75402
5.36143
5.05044
4.78317
4.54813
4.31931
3.86988
4.61101
4.54786
19.1067
12.2435
14.7599
4.45682
3.85953
3.21416
10.2178
3.95627
5.80779
225.805
66.8564
44.3958
55.5964
155.303
82.2228
94.0363
245.925
266.02
260.656
202.17
236.078
37.5589
23.2743
28.1266
172.908
127.472
143.589
110.956
99.0315
84.2901
87.4742
78.6407
74.2264
68.2579
63.2266
57.437
52.7593
53.454
13.3061
11.0752
10.3469
9.81906
3.69503
3.50712
9.77174
9.15264
14.5065
10.6648
7.85321
4.49533
4.19655
12.4756
12.1868
4.58515
3.54886
3.0672
3.94898
3.78717
12.074
11.9119
4.69601
4.15841
3.83334
3.57263
3.1408
4.27506
3.99977
11.8124
11.7116
11.6471
11.5494
11.5045
11.4418
11.4059
11.3554
4.61941
4.30002
3.73074
3.16187
4.09566
3.91525
3.57988
3.27791
2.80457
3.5985
2.9912
11.327
11.2865
11.2633
11.2302
4.28412
3.62959
3.02421
11.2112
11.184
4.02639
3.29777
2.7796
4.17813
3.50679
2.92352
4.40324
3.70851
3.09003
4.04541
3.66494
11.1684
11.1459
4.61812
4.39936
3.41251
2.95492
4.10531
3.75225
4.12616
3.6654
3.15388
3.27301
2.80305
4.71634
4.39658
4.57587
4.30082
4.08089
3.93678
4.96181
3.77803
3.29285
4.15155
3.97711
4.54757
4.47908
4.28945
4.08968
5.13583
3.89448
3.40634
4.93665
3.70898
3.28307
50.7822
46.1898
40.6308
11.1332
29.6209
11.1145
23.5414
21.3522
11.1042
20.3687
11.0885
18.2008
11.0802
11.0673
11.0606
11.0499
19.5905
14.9867
23.5249
22.7644
21.4905
11.0447
20.8716
20.025
11.036
11.032
19.5189
11.0249
18.883
18.5077
18.1659
11.0221
17.8866
17.6474
11.0166
11.0146
11.0102
17.3715
17.1332
16.9035
16.7318
16.5379
16.3507
16.1771
16.0685
15.9204
15.7759
11.0092
15.6535
15.5871
11.0061
11.0056
11.0034
11.0037
11.0024
11.0032
11.0029
11.0042
11.0048
15.4836
11.0066
15.3924
11.0079
15.3151
15.3094
15.2549
15.2381
11.0101
11.0121
15.2197
11.0146
15.2779
11.0172
15.292
15.3456
15.3886
15.5275
15.5921
15.703
15.7807
15.9349
15.9933
16.0592
16.072
16.0617
15.9331
15.6862
15.3016
14.7587
14.0115
13.0227
11.9049
10.6566
8.95738
7.04846
5.03804
3.43528
11.0202
11.0232
11.0265
11.0299
11.0337
11.0373
11.0415
11.0455
11.05
11.0542
11.059
11.0635
11.0685
11.0733
11.0786
11.0836
11.0891
11.0943
11.1
11.1054
11.1115
11.1169
11.123
11.1286
11.1351
11.1408
11.1473
11.1533
11.1598
11.1659
11.1725
11.1786
11.1856
11.1917
11.1986
11.205
11.2119
11.2183
11.2253
11.2319
11.2389
11.2454
11.2525
11.2592
11.2662
11.2729
11.28
11.2867
11.2938
11.3005
11.3076
11.3143
11.3213
11.328
11.335
11.3418
11.3487
11.3554
11.3622
11.3688
11.3757
11.3822
11.389
11.3953
11.4021
11.4084
11.4151
11.4213
11.4278
11.4339
11.4404
11.4464
11.4527
11.4585
11.4648
11.4703
11.4767
11.4822
11.4884
11.4938
11.5001
11.5056
11.512
11.5174
11.524
11.5297
11.5363
11.5419
11.5481
11.5534
11.559
11.564
11.5691
11.5739
11.5786
11.5828
11.5873
11.591
11.5951
11.5977
11.6014
11.6034
11.6067
11.6078
11.6106
11.6108
11.6133
11.6124
11.6144
11.6126
11.614
11.6111
11.612
11.6078
11.608
11.6025
11.602
11.5952
11.594
11.5856
11.5837
11.5737
11.5709
11.5593
11.5556
11.5429
11.5389
11.5261
7.9533
6.36245
6.13816
7.15562
6.71579
5.86623
5.57924
6.77142
6.48836
7.44363
5.59391
5.05141
6.16233
6.1115
7.88914
7.15498
6.79515
6.46897
6.43884
6.1716
5.87092
5.84314
5.25698
8.56156
8.83173
8.01572
7.31205
6.74188
6.01557
8.49315
6.47103
5.7605
7.57087
6.95649
6.44842
5.81701
7.73866
7.04149
9.99929
9.69335
9.64417
8.19236
7.06361
8.11653
6.86354
10.2354
11.5726
10.7246
8.91875
7.43012
9.4507
7.76502
9.84002
8.31891
6.9844
8.44687
7.07544
9.18066
7.12976
6.27133
8.55025
7.80825
8.11192
7.32594
6.96161
6.72417
6.46815
7.59829
7.15013
6.10848
5.45517
6.53688
6.25824
5.92662
5.33503
6.14735
6.14769
5.92894
5.80513
6.92496
5.81586
5.73022
6.31645
6.05806
5.595
5.39295
5.17074
4.6385
5.33914
5.0902
6.61397
6.10882
5.85173
4.91956
4.37799
5.66685
5.58873
5.43199
5.33508
5.16371
4.96832
4.76251
4.27563
5.60579
5.54327
7.30946
6.68967
6.42692
5.3808
4.84898
13.2542
10.3109
8.31883
10.4075
10.3353
8.2144
1.9388
5.12317
9.05318
8.40647
7.96243
7.64844
7.39845
7.19782
7.00303
6.79523
6.60661
6.44982
6.29973
6.14779
6.00364
5.86467
5.74181
5.63363
5.54509
5.46995
5.40863
5.35405
5.30929
5.26516
5.22623
5.18358
5.14376
5.09988
5.05832
5.01366
4.97103
4.92558
4.88138
4.83373
4.78741
4.73459
4.68405
4.62711
4.57793
4.52445
4.47974
4.43098
4.39011
4.34478
4.3061
4.26252
4.2248
4.18275
4.14625
4.10644
4.07215
4.03571
4.00457
3.97193
3.94402
3.91507
3.89001
3.86403
3.84097
3.8169
3.7951
3.77267
3.75294
3.73352
3.71722
3.7018
3.68967
3.67872
3.67083
3.66397
3.65953
3.65581
3.65377
3.65217
3.65163
3.65131
3.65152
3.65184
3.65247
3.65297
3.65368
3.65412
3.65477
3.65527
3.65603
3.6567
3.65773
3.65871
3.66025
3.66171
3.6639
3.66597
3.66893
3.67174
3.67563
3.67932
3.68419
3.68885
3.69474
3.70044
3.70732
3.71406
3.72189
3.72964
3.73839
3.74708
3.75669
3.76616
3.77657
3.78671
3.79804
3.80888
3.82089
3.83213
3.84459
3.85612
3.86893
3.88065
3.89372
3.90558
3.91885
3.93078
3.94417
3.95608
3.96948
3.98124
3.99453
4.00604
4.01912
4.03031
4.04311
4.0539
4.06634
4.07666
4.08864
4.09841
4.10987
4.11902
4.12986
4.13826
4.14835
4.15593
4.16521
4.17193
4.18039
4.18626
4.19389
4.19888
4.20564
4.20973
4.21558
4.21874
4.22366
4.22589
4.22988
4.23121
4.23425
4.2347
4.23671
4.23641
4.23736
4.23642
4.23643
4.23491
4.23414
4.23206
4.23069
4.22806
4.22626
4.22318
4.22109
4.21772
4.21549
4.21201
4.20981
4.20642
4.20443
4.20135
4.19977
4.19725
4.19627
4.19454
4.19433
4.19373
4.19441
4.19498
4.19712
4.19887
4.20281
4.20593
4.21178
4.21644
4.22516
4.23196
4.24283
4.25147
4.26396
4.27408
4.28796
4.2992
4.31407
4.32599
4.34131
4.35326
4.36832
4.37955
4.39356
4.40319
4.41515
4.42216
4.43089
4.43499
4.44045
4.44186
4.44217
4.43989
4.43506
4.42525
4.41336
4.39609
4.37521
4.34887
4.31789
4.28115
4.23973
4.1905
4.13631
4.07152
4.00156
3.91729
3.82831
3.72188
3.61337
3.48366
3.35756
3.20441
3.05803
2.89061
2.71843
2.5506
2.34454
2.14885
2.08228
9.9076
1.84462
)
;
    }
    rightWall
    {
        type            calculated;
        value           uniform 0;
    }
    symmetryLine
    {
        type            symmetryPlane;
    }
}


// ************************************************************************* //
