/*--------------------------------*- C++ -*----------------------------------*\
| =========                 |                                                 |
| \\      /  F ield         | OpenFOAM: The Open Source CFD Toolbox           |
|  \\    /   O peration     | Version:  v2006                                 |
|   \\  /    A nd           | Website:  www.openfoam.com                      |
|    \\/     M anipulation  |                                                 |
\*---------------------------------------------------------------------------*/
FoamFile
{
    version     2.0;
    format      ascii;
    class       volVectorField;
    location    "0.022";
    object      U;
}
// * * * * * * * * * * * * * * * * * * * * * * * * * * * * * * * * * * * * * //

dimensions      [0 1 -1 0 0 0 0];


internalField   nonuniform List<vector> 
11076
(
(111.169 -2.42221e-05 -9.93148e-22)
(111.169 -0.000156244 -1.65096e-21)
(111.169 0.000112686 8.69374e-23)
(111.169 -0.000109029 -1.1051e-22)
(111.169 -1.05009e-05 -4.91211e-22)
(111.169 -6.13356e-05 1.40966e-22)
(111.169 -5.19718e-05 -1.59896e-22)
(111.169 -6.29269e-05 2.74122e-22)
(111.17 -6.19779e-05 4.37607e-24)
(111.17 -6.71426e-05 0)
(111.17 -6.74309e-05 -1.07651e-24)
(111.17 -7.07233e-05 0)
(111.17 -7.17842e-05 -1.07763e-24)
(111.17 -7.44842e-05 1.09126e-24)
(111.171 -7.65758e-05 0)
(111.171 -8.02466e-05 0)
(111.171 -8.57283e-05 9.99804e-26)
(111.171 -9.53993e-05 0)
(111.172 -0.000108719 0)
(111.172 -0.000124326 0)
(111.172 -0.000140023 0)
(111.173 -0.000154617 0)
(111.173 -0.00016797 0)
(111.173 -0.000180758 0)
(111.174 -0.00019386 0)
(111.174 -0.000208011 0)
(111.175 -0.00022343 0)
(111.176 -0.000239376 0)
(111.176 -0.000253657 0)
(111.177 -0.000263215 0)
(111.178 -0.000265894 0)
(111.178 -0.000263648 0)
(111.179 -0.000260805 0)
(111.18 -0.000257937 0)
(111.181 -0.000253685 0)
(111.182 -0.000246247 0)
(111.183 -0.000231929 0)
(111.184 -0.000201599 0)
(111.186 -0.000129119 0)
(111.19 6.22646e-05 0)
(111.199 0.000566268 0)
(111.219 0.00171174 0)
(111.255 0.00369144 0)
(111.31 0.0060759 0)
(111.379 0.00796626 0)
(111.453 0.00867289 0)
(111.524 0.00796982 0)
(111.583 0.00625006 0)
(111.627 0.00427668 0)
(111.655 0.0026959 0)
(111.67 0.00173756 0)
(111.677 0.00126283 0)
(111.678 0.00105413 0)
(111.678 0.000963156 0)
(111.677 0.000921963 0)
(111.675 0.000935396 5.01777e-22)
(111.673 0.00103802 -3.93222e-22)
(111.67 0.00119267 0)
(111.667 0.00134373 6.85361e-21)
(111.663 0.00148313 -1.13313e-20)
(111.659 0.0015798 0)
(111.654 0.00161746 -5.01943e-19)
(111.648 0.00144313 2.08418e-18)
(111.626 0.000747036 0)
(111.586 -0.000803529 0)
(111.509 -0.0120995 9.46924e-19)
(111.358 -0.0341273 -2.02592e-18)
(111.15 -0.0646148 2.64108e-22)
(110.879 -0.111824 0)
(110.447 -0.160518 0)
(109.941 -0.185576 1.20452e-18)
(108.127 -0.275801 -1.97381e-18)
(107.045 -0.226526 -1.09381e-18)
(109.912 -0.315197 0)
(110.496 -0.290674 7.60257e-18)
(110.51 -0.33071 0)
(109.762 -0.355128 -5.98819e-19)
(105.845 -0.209341 1.48996e-18)
(104.669 -0.183135 0)
(109.565 -0.332011 7.92964e-19)
(110.511 -0.327935 -2.16393e-19)
(110.496 -0.296711 0)
(109.348 -0.291466 0)
(103.619 -0.155503 0)
(102.682 -0.132991 1.49291e-19)
(109.127 -0.257122 1.22448e-19)
(110.465 -0.265695 0)
(110.421 -0.23324 0)
(108.88 -0.221536 -1.22698e-19)
(101.843 -0.113625 -2.25029e-19)
(101.095 -0.100057 7.42197e-20)
(108.669 -0.197366 0)
(110.376 -0.210232 0)
(110.328 -0.192336 0)
(108.468 -0.176967 0)
(100.434 -0.088575 2.32557e-21)
(99.857 -0.0786922 -2.32721e-21)
(108.279 -0.158294 3.80321e-21)
(110.279 -0.1762 0)
(110.223 -0.162812 4.02881e-19)
(108.097 -0.143738 -4.9232e-19)
(99.3318 -0.0707661 0)
(98.8685 -0.0635667 0)
(107.926 -0.129044 -4.88754e-19)
(110.175 -0.150787 4.03237e-19)
(110.113 -0.141392 0)
(107.762 -0.119481 0)
(98.4355 -0.0582713 0)
(98.0494 -0.0532177 0)
(107.604 -0.10893 0)
(110.06 -0.13294 0)
(109.993 -0.126458 0)
(107.451 -0.102821 0)
(97.6804 -0.0497598 0)
(97.3484 -0.046032 0)
(107.303 -0.0949999 0)
(109.936 -0.120355 0)
(109.865 -0.115603 0)
(107.158 -0.0910108 0)
(97.0264 -0.0437209 0)
(96.7346 -0.0405156 0)
(107.02 -0.0854161 0)
(109.806 -0.111262 0)
(109.734 -0.106955 0)
(106.883 -0.0821902 0)
(96.4484 -0.0388971 0)
(96.1872 -0.036117 0)
(106.753 -0.0775466 0)
(109.675 -0.103306 0)
(109.602 -0.0994037 0)
(106.623 -0.0749669 0)
(95.9288 -0.035051 0)
(95.6917 -0.0326141 0)
(106.501 -0.071012 0)
(109.544 -0.0962282 0)
(109.473 -0.0926654 0)
(106.378 -0.0689584 0)
(95.4557 -0.0319598 0)
(95.2387 -0.0297759 0)
(106.263 -0.065502 0)
(109.417 -0.0898552 0)
(109.348 -0.0865859 0)
(106.147 -0.0638601 0)
(95.0219 -0.0294322 0)
(94.8225 -0.0274135 0)
(106.041 -0.0607468 0)
(109.295 -0.0840619 0)
(109.23 -0.0809532 0)
(105.931 -0.0593629 0)
(94.6228 -0.0272684 0)
(94.4395 -0.0253195 0)
(105.833 -0.0563932 0)
(109.181 -0.0784815 0)
(109.121 -0.0753615 0)
(105.732 -0.0551235 0)
(94.2555 -0.0252868 0)
(94.0871 -0.0233533 0)
(105.642 -0.0521541 0)
(109.077 -0.0727456 0)
(109.022 -0.069545 0)
(105.549 -0.050924 0)
(93.918 -0.0233855 0)
(93.7639 -0.0214438 0)
(105.468 -0.0479244 0)
(108.984 -0.0667798 0)
(108.935 -0.0634891 0)
(105.384 -0.0467321 0)
(93.6091 -0.0215352 0)
(93.469 -0.0195801 0)
(105.313 -0.0436866 0)
(108.904 -0.0605622 0)
(108.862 -0.0571911 0)
(105.237 -0.0425283 0)
(93.3282 -0.0197189 0)
(93.2019 -0.017758 0)
(105.176 -0.0394225 0)
(108.838 -0.0540826 0)
(108.804 -0.0506093 0)
(105.11 -0.0382704 0)
(93.0752 -0.0179282 0)
(92.963 -0.0159489 0)
(105.06 -0.0350735 0)
(108.789 -0.0472816 0)
(108.764 -0.0436702 0)
(105.004 -0.0339053 0)
(92.8506 -0.0161341 0)
(92.7527 -0.0141215 0)
(104.966 -0.0305827 0)
(108.758 -0.0400948 0)
(108.742 -0.0363189 0)
(104.921 -0.0293812 0)
(92.6551 -0.0143051 0)
(92.5721 -0.0122626 0)
(104.895 -0.0259225 0)
(108.747 -0.0324575 0)
(108.742 -0.0284741 0)
(104.863 -0.0246463 0)
(92.49 -0.0124123 0)
(92.4228 -0.0103224 0)
(104.851 -0.0209977 0)
(108.758 -0.0242885 0)
(108.766 -0.0200379 0)
(104.832 -0.0196388 0)
(92.3571 -0.0104421 0)
(92.3069 -0.00829922 0)
(104.836 -0.01575 0)
(108.795 -0.015471 0)
(108.818 -0.0109134 0)
(104.832 -0.0142937 0)
(92.2588 -0.00841125 0)
(92.227 -0.00610347 0)
(104.853 -0.00996314 0)
(108.861 -0.00597519 0)
(108.901 -0.000720849 0)
(104.866 -0.00844674 0)
(92.1984 -0.00629911 0)
(92.1865 -0.00390608 0)
(104.906 -0.00387663 0)
(108.961 0.00522188 0)
(109.019 0.0109129 0)
(104.938 -0.00209131 0)
(92.1789 -0.00406488 0)
(92.1896 -0.00133243 0)
(104.999 0.00303267 0)
(109.099 0.0175071 0)
(109.178 0.0237247 0)
(105.052 0.00513817 0)
(92.206 -0.00140965 0)
(92.2438 0.00146701 0)
(105.137 0.0107686 0)
(109.279 0.0311133 0)
(109.382 0.0379342 0)
(105.213 0.0133744 0)
(92.2879 0.00180267 0)
(92.3545 0.00467491 0)
(105.325 0.0193365 0)
(109.507 0.0462237 0)
(109.637 0.0537782 0)
(105.428 0.0222886 0)
(92.4286 0.005169 0)
(92.5267 0.00823382 0)
(105.57 0.0288313 0)
(109.79 0.0631296 0)
(109.951 0.0715561 0)
(105.704 0.0321463 0)
(92.6338 0.00885587 0)
(92.7669 0.0121112 0)
(105.881 0.0393702 0)
(110.136 0.0821345 0)
(110.331 0.0915576 0)
(106.049 0.0431343 0)
(92.9109 0.0129074 0)
(93.0831 0.0164434 0)
(106.265 0.0511425 0)
(110.552 0.103545 0)
(110.788 0.114079 0)
(106.473 0.0554167 0)
(93.2686 0.0174479 0)
(93.4849 0.0212619 0)
(106.734 0.0643541 0)
(111.05 0.127693 0)
(111.331 0.139579 0)
(106.987 0.0692704 0)
(93.7172 0.0225439 0)
(93.9833 0.0266759 0)
(107.298 0.079353 0)
(111.64 0.155156 0)
(111.973 0.168674 0)
(107.603 0.0850757 0)
(94.2689 0.0283038 0)
(94.5915 0.0327508 0)
(107.972 0.0963377 0)
(112.336 0.186315 0)
(112.726 0.201506 0)
(108.338 0.102883 0)
(94.9374 0.0347513 0)
(95.3241 0.0395992 0)
(108.771 0.115473 0)
(113.151 0.221495 0)
(113.607 0.238763 0)
(109.204 0.123049 0)
(95.7385 0.0420664 0)
(96.1981 0.0474176 0)
(109.711 0.137286 0)
(114.103 0.261683 0)
(114.636 0.281386 0)
(110.223 0.146057 0)
(96.691 0.0504136 0)
(97.2343 0.0562862 0)
(110.814 0.162037 0)
(115.214 0.307433 0)
(115.834 0.329282 0)
(111.415 0.171805 0)
(97.8161 0.0597444 0)
(98.4532 0.0660146 0)
(112.101 0.189359 0)
(116.505 0.358148 0)
(117.222 0.382211 0)
(112.802 0.200147 0)
(99.1333 0.0699386 0)
(99.8745 0.0767335 0)
(113.594 0.219584 0)
(117.996 0.414447 0)
(118.824 0.441489 0)
(114.407 0.231835 0)
(100.665 0.0813244 0)
(101.523 0.0888399 0)
(115.319 0.253729 0)
(119.714 0.478155 0)
(120.668 0.509041 0)
(116.26 0.267913 0)
(102.439 0.0943288 0)
(103.433 0.102664 0)
(117.309 0.292584 0)
(121.694 0.55075 0)
(122.792 0.585003 0)
(118.396 0.308315 0)
(104.493 0.108891 0)
(105.639 0.11777 0)
(119.601 0.335198 0)
(123.971 0.630757 0)
(125.23 0.666778 0)
(120.851 0.351563 0)
(106.857 0.124379 0)
(108.168 0.133524 0)
(122.226 0.380062 0)
(126.576 0.715515 0)
(128.009 0.752875 0)
(123.651 0.396822 0)
(109.554 0.140426 0)
(111.04 0.149943 0)
(125.207 0.427256 0)
(129.534 0.805144 0)
(131.156 0.844322 0)
(126.821 0.444666 0)
(112.607 0.157264 0)
(114.282 0.167328 0)
(128.576 0.47751 0)
(132.878 0.901063 0)
(134.706 0.942196 0)
(130.397 0.495521 0)
(116.047 0.175097 0)
(117.925 0.184872 0)
(132.366 0.52841 0)
(136.643 0.999388 0)
(138.688 1.03623 0)
(134.403 0.543637 0)
(119.893 0.191912 0)
(121.972 0.200894 0)
(136.588 0.575218 0)
(140.84 1.09117 0)
(143.1 1.12248 0)
(138.838 0.587217 0)
(124.135 0.206982 0)
(126.407 0.214956 0)
(141.232 0.617113 0)
(145.464 1.17444 0)
(147.934 1.19829 0)
(143.688 0.624904 0)
(128.756 0.219632 0)
(131.204 0.225406 0)
(146.281 0.650576 0)
(150.5 1.24331 0)
(153.166 1.25892 0)
(148.926 0.653545 0)
(133.717 0.228348 0)
(136.313 0.230981 0)
(151.695 0.67214 0)
(155.914 1.29162 0)
(158.74 1.29141 0)
(154.494 0.663206 1.18061e-19)
(138.951 0.231536 0)
(141.641 0.231187 0)
(157.391 0.670843 -1.18369e-19)
(161.626 1.30692 0)
(164.559 1.28667 3.90694e-19)
(160.284 0.652375 -3.53995e-19)
(144.335 0.227095 0)
(147.044 0.221628 0)
(163.242 0.649099 -1.17823e-19)
(167.519 1.28093 0)
(170.49 1.24035 3.88744e-19)
(166.158 0.620032 -3.52287e-19)
(149.717 0.212863 0)
(152.361 0.202172 0)
(169.098 0.604122 -5.848e-19)
(173.448 1.21073 3.8694e-19)
(176.378 1.14847 0)
(171.952 0.566426 0)
(154.92 0.187331 0)
(157.405 0.170842 0)
(174.782 0.539692 0)
(179.245 1.09575 0)
(182.04 1.01613 0)
(177.482 0.491439 0)
(159.757 0.152794 0)
(161.99 0.133799 0)
(180.114 0.45511 0)
(184.729 0.946596 0)
(187.307 0.855696 0)
(182.575 0.400538 0)
(164.051 0.113463 0)
(165.961 0.0931468 0)
(184.932 0.358481 0)
(189.744 0.775991 0)
(192.036 0.679725 0)
(187.088 0.302439 0)
(167.669 0.0717034 0)
(169.204 0.0511739 0)
(189.116 0.258409 0)
(194.164 0.595916 0)
(196.131 0.505839 0)
(190.925 0.204492 0)
(170.529 0.0288289 0)
(171.662 0.00824983 0)
(192.612 0.16211 0)
(197.932 0.427267 0)
(199.572 0.346122 0)
(194.077 0.111669 0)
(172.594 -0.0124861 0)
(173.346 -0.0292715 0)
(195.428 0.0743286 0)
(201.049 0.275528 0)
(202.367 0.203136 0)
(196.568 0.032573 0)
(173.921 -0.0447378 0)
(174.348 -0.0554557 0)
(197.592 0.00349006 0)
(203.544 0.14313 0)
(204.568 0.0824768 0)
(198.427 -0.0301832 0)
(174.633 -0.0665434 0)
(174.795 -0.0732105 0)
(199.162 -0.0522911 0)
(205.479 0.0342599 0)
(206.252 -0.0129454 0)
(199.74 -0.0780195 0)
(174.844 -0.0810368 0)
(174.797 -0.0849121 0)
(200.237 -0.0942339 0)
(206.943 -0.0527412 0)
(207.51 -0.0878638 0)
(200.606 -0.115508 0)
(174.663 -0.0916717 0)
(174.452 -0.0935002 0)
(200.906 -0.127744 4.54976e-19)
(208.019 -0.116231 -3.75964e-19)
(208.411 -0.142916 0)
(201.099 -0.14369 0)
(174.17 -0.0978637 0)
(173.828 -0.0979094 0)
(201.235 -0.152741 0)
(208.765 -0.166504 0)
(209.009 -0.186847 3.76228e-19)
(201.285 -0.165628 -3.41261e-19)
(173.435 -0.10073 0)
(172.996 -0.0990558 0)
(201.287 -0.171526 -5.68274e-19)
(209.233 -0.204731 3.75518e-19)
(209.353 -0.219418 3.76179e-19)
(201.22 -0.180538 -3.41233e-19)
(172.519 -0.100942 0)
(172.011 -0.0978262 0)
(201.116 -0.182794 -5.68298e-19)
(209.472 -0.232613 3.75508e-19)
(209.493 -0.241923 3.76204e-19)
(200.96 -0.188674 -3.4128e-19)
(171.481 -0.0990398 0)
(170.932 -0.0952645 0)
(200.778 -0.187962 -5.68403e-19)
(209.527 -0.249824 3.75556e-19)
(209.473 -0.254658 3.76278e-19)
(200.555 -0.190773 -3.41356e-19)
(170.372 -0.0954423 0)
(169.805 -0.0908574 0)
(200.318 -0.187778 -5.68566e-19)
(209.444 -0.258784 3.75661e-19)
(209.334 -0.260089 -9.40335e-20)
(200.05 -0.188666 0)
(169.238 -0.0907485 0)
(168.672 -0.0856376 0)
(199.776 -0.18389 0)
(209.26 -0.261538 9.40124e-20)
(209.109 -0.260121 0)
(199.478 -0.183645 0)
(168.111 -0.0852186 0)
(167.558 -0.0796397 0)
(199.182 -0.177545 0)
(209.002 -0.259108 0)
(208.823 -0.255758 0)
(198.867 -0.176428 0)
(167.015 -0.0790627 0)
(166.485 -0.0731982 0)
(198.559 -0.168876 0)
(208.694 -0.252406 0)
(208.496 -0.246895 3.76837e-19)
(198.238 -0.16672 -4.55987e-19)
(165.969 -0.0726314 6.97964e-20)
(165.472 -0.0663325 -1.782e-23)
(197.931 -0.157311 -4.55948e-19)
(208.356 -0.240611 3.76959e-19)
(208.152 -0.232228 0)
(197.623 -0.152935 -2.30556e-19)
(165 -0.0645175 -1.41605e-19)
(164.56 -0.0568549 7.09183e-20)
(197.33 -0.140155 1.1616e-19)
(207.986 -0.21811 0)
(207.798 -0.196065 -4.02664e-19)
(197.056 -0.12866 1.23634e-19)
(164.182 -0.0516402 -6.09873e-19)
(163.771 -0.021843 8.70035e-23)
(196.794 -0.0779828 -2.5314e-19)
(207.656 -0.135694 6.28484e-19)
(207.705 -0.100241 -5.57115e-18)
(196.8 -0.0319075 -2.28598e-18)
(163.862 0.014242 7.0952e-19)
(164.628 0.042443 -3.15421e-18)
(197.164 -0.0203165 4.64146e-18)
(208.022 -0.113359 1.94472e-18)
(208.236 -0.139204 0)
(197.434 -0.0461294 1.23664e-18)
(164.89 0.0169458 -1.1307e-18)
(215.445 -0.224193 -6.00144e-18)
(217.431 -0.325766 8.9745e-18)
(218.069 -0.391199 -1.31338e-18)
(218.213 -0.413668 0)
(218.168 -0.445065 1.61779e-19)
(217.966 -0.471303 -1.64418e-19)
(217.768 -0.513812 0)
(217.33 -0.553412 6.48732e-19)
(216.965 -0.601415 6.44729e-19)
(216.313 -0.645693 0)
(215.763 -0.691616 0)
(214.834 -0.737233 0)
(214.037 -0.781936 1.63421e-19)
(212.678 -0.821646 -1.65897e-19)
(211.511 -0.865228 -1.12033e-22)
(209.35 -0.891863 -6.99686e-19)
(207.587 -0.958374 -7.35605e-19)
(203.111 -0.93586 -6.08834e-18)
(201.123 -0.623639 6.39513e-18)
(198.78 -1.20363 -2.875e-17)
(194.697 -1.3849 3.96481e-17)
(189.933 -0.910655 2.59456e-17)
(185.685 -0.5692 -7.60566e-18)
(178.723 -0.717172 0)
(168.021 -0.552937 7.58975e-18)
(155.597 -0.429089 -9.19415e-18)
(129.649 -0.274547 0)
(126.506 -0.255211 0)
(152.809 -0.448519 0)
(165.595 -0.645535 -1.51083e-17)
(163.36 -0.687882 0)
(150.447 -0.407126 0)
(124.175 -0.173529 0)
(121.961 -0.186654 -5.65728e-18)
(148.481 -0.310437 5.66617e-18)
(161.125 -0.473471 0)
(159.194 -0.367716 2.84173e-18)
(146.825 -0.178393 -1.74844e-18)
(120.402 -0.0423801 -7.30933e-19)
(119.944 -0.0565774 0)
(146.359 -0.144041 -4.46906e-18)
(158.701 -0.252169 7.31926e-18)
(157.682 -0.160548 -1.83729e-18)
(145.494 -0.0559559 0)
(119.429 0.00548285 -1.73131e-19)
(119.358 -0.0267789 -1.54627e-23)
(145.323 -0.0920056 0)
(157.683 -0.176192 0)
(156.921 -0.142795 1.83033e-18)
(144.601 -0.061754 -1.11607e-18)
(118.938 -0.0083898 -1.20353e-18)
(118.936 -0.0262634 0)
(144.592 -0.0819731 0)
(156.945 -0.156994 -1.82567e-18)
(156.308 -0.133552 1.82797e-18)
(144.003 -0.0617088 0)
(118.505 -0.0122959 0)
(118.495 -0.0265558 0)
(143.98 -0.0834791 0)
(156.329 -0.159479 -1.82669e-18)
(155.682 -0.138512 1.82906e-18)
(143.386 -0.0638068 0)
(118.061 -0.0130274 0)
(118.047 -0.026894 0)
(143.358 -0.0850365 0)
(155.698 -0.162891 -1.82779e-18)
(155.047 -0.139616 1.83012e-18)
(142.758 -0.0648573 0)
(117.607 -0.0134982 0)
(117.582 -0.0288401 0)
(142.719 -0.0900035 0)
(155.06 -0.170791 -1.8288e-18)
(154.392 -0.15138 1.8313e-18)
(142.104 -0.0712634 0)
(117.124 -0.0158918 0)
(117.086 -0.0305917 0)
(142.05 -0.0945009 0)
(154.394 -0.17895 -1.82996e-18)
(153.716 -0.154829 1.83244e-18)
(141.422 -0.0735919 0)
(116.613 -0.0169771 0)
(116.556 -0.0334623 0)
(141.353 -0.101303 0)
(153.71 -0.19006 0)
(153.009 -0.170025 0)
(140.704 -0.0818839 0)
(116.057 -0.0202245 0)
(115.98 -0.0360727 0)
(140.615 -0.107518 0)
(152.989 -0.201276 -1.83226e-18)
(152.273 -0.175409 1.83493e-18)
(139.948 -0.0851783 0)
(115.458 -0.0217034 0)
(115.362 -0.0392563 0)
(139.839 -0.115229 0)
(152.243 -0.214908 0)
(151.5 -0.193968 0)
(139.145 -0.0945933 0)
(114.806 -0.0249906 0)
(114.691 -0.0406079 0)
(139.009 -0.121936 0)
(151.45 -0.229618 -1.83473e-18)
(150.687 -0.200528 1.83767e-18)
(138.29 -0.0963715 0)
(114.103 -0.0233755 0)
(113.963 -0.0337858 0)
(138.125 -0.126302 -2.23807e-18)
(150.622 -0.246625 1.83258e-18)
(149.831 -0.218183 1.84267e-18)
(137.374 -0.11347 -2.24523e-18)
(113.331 -0.0367216 0)
(113.171 -0.0329661 0)
(137.184 -0.135484 0)
(149.744 -0.268839 -1.83744e-18)
(148.931 -0.226355 1.84071e-18)
(136.407 -0.120697 0)
(112.496 -0.0414333 0)
(112.31 -0.0344412 0)
(136.191 -0.147384 -2.24159e-18)
(148.832 -0.287388 1.83535e-18)
(147.989 -0.249787 1.8459e-18)
(135.379 -0.133829 -2.24933e-18)
(111.587 -0.0470875 0)
(111.376 -0.0385794 0)
(135.134 -0.158784 0)
(147.871 -0.308015 -1.84043e-18)
(147.005 -0.254318 1.84406e-18)
(134.294 -0.137421 0)
(110.612 -0.0508546 0)
(110.37 -0.0428871 0)
(134.022 -0.168759 0)
(146.879 -0.321789 0)
(145.983 -0.283734 0)
(133.146 -0.151335 0)
(109.553 -0.0551516 0)
(109.285 -0.0482749 0)
(132.847 -0.183858 0)
(145.841 -0.347751 -1.84382e-18)
(144.922 -0.288262 1.84774e-18)
(131.944 -0.156281 0)
(108.424 -0.0578865 0)
(108.118 -0.0568261 0)
(131.619 -0.195563 0)
(144.772 -0.359318 -1.84564e-18)
(143.831 -0.320724 1.84984e-18)
(130.685 -0.171166 0)
(107.208 -0.0613354 0)
(106.889 -0.0626575 0)
(130.349 -0.210292 0)
(143.683 -0.386327 -1.84771e-18)
(142.72 -0.319339 1.85198e-18)
(129.393 -0.174401 0)
(105.939 -0.0644723 0)
(105.572 -0.0765706 0)
(129.034 -0.221592 0)
(142.573 -0.391596 0)
(141.583 -0.360714 0)
(128.047 -0.193854 0)
(104.567 -0.0682643 0)
(104.18 -0.0876575 0)
(127.681 -0.239418 0)
(141.45 -0.417369 -1.85233e-18)
(140.452 -0.350852 1.85699e-18)
(126.689 -0.19418 0)
(103.158 -0.069036 0)
(102.753 -0.103386 0)
(126.334 -0.252989 0)
(140.35 -0.416812 -1.85315e-18)
(139.337 -0.379715 1.86164e-18)
(125.318 -0.203973 -1.13503e-18)
(101.682 -0.0694389 -1.4041e-18)
(101.272 -0.110189 1.40503e-18)
(124.982 -0.265766 1.13436e-18)
(139.269 -0.434611 -1.85771e-18)
(138.297 -0.336125 1.8625e-18)
(124.021 -0.181222 0)
(100.261 -0.0597504 0)
(99.929 -0.105172 0)
(123.79 -0.254546 0)
(138.339 -0.405696 -1.86075e-18)
(137.404 -0.320925 1.8654e-18)
(122.87 -0.175991 0)
(98.9571 -0.0547491 0)
(98.6975 -0.0929933 0)
(122.719 -0.245659 0)
(137.522 -0.387127 -1.8639e-18)
(136.727 -0.204302 1.86783e-18)
(121.978 -0.116385 0)
(97.9467 -0.0160434 0)
(97.9462 -0.0445798 0)
(122.082 -0.197211 0)
(137.079 -0.280542 -1.86678e-18)
(136.509 -0.086749 1.86976e-18)
(121.584 -0.0678048 0)
(97.5194 0.0522785 0)
(97.9143 0.0763591 0)
(121.992 -0.121684 0)
(137.125 -0.12536 0)
(136.732 0.33315 1.8777e-18)
(121.885 0.245644 0)
(98.1252 0.374348 0)
(98.9455 0.592991 0)
(122.598 0.407478 0)
(137.581 0.533261 -3.75525e-18)
(136.952 1.20214 0)
(122.347 1.03888 0)
(99.0919 1.17336 0)
(99.1928 1.79419 1.13851e-17)
(122.304 1.7206 -9.08183e-18)
(137.154 1.88137 7.52746e-18)
(135.853 2.84149 7.45323e-18)
(120.977 2.68615 -1.8191e-17)
(98.0521 2.59033 1.13256e-17)
(97.0554 3.09992 1.752e-19)
(120.056 3.3095 0)
(135.224 3.48119 1.45653e-17)
(133.329 4.26891 -7.39544e-18)
(118.407 4.01616 8.96899e-18)
(95.322 3.6316 -1.7368e-19)
(94.0248 3.98131 0)
(117.421 4.4634 0)
(132.748 4.7958 2.28038e-19)
(131.361 5.39043 -2.25126e-19)
(115.772 4.85173 0)
(91.9469 4.22692 -2.20111e-17)
(90.5255 4.599 1.69255e-19)
(114.883 5.3664 1.36003e-19)
(130.889 5.98119 2.23029e-19)
(129.866 6.73443 1.22496e-21)
(113.387 6.03007 1.68623e-17)
(87.8172 5.01312 0)
(85.6763 5.03393 4.20144e-17)
(112.488 6.16966 1.32012e-19)
(129.769 7.07604 0)
(129.593 7.55639 -1.36775e-17)
(111.338 6.4226 1.64683e-17)
(82.8605 5.11589 0)
(80.2772 5.27896 4.10216e-17)
(110.559 6.81326 2.57896e-19)
(130.009 8.14493 0)
(130.597 9.14292 0)
(109.496 7.46363 0)
(77.0234 5.4755 -6.40735e-19)
(74.4488 5.48182 6.32899e-19)
(109.064 7.87738 1.01131e-18)
(132.199 9.52013 0)
(135.276 9.46055 -1.56922e-17)
(109.237 9.14796 -1.03487e-18)
(73.3618 6.11785 8.15391e-17)
(74.4064 6.98098 2.48337e-18)
(112.981 8.56963 1.93623e-17)
(138.236 8.46095 -1.90763e-18)
(149.524 11.1141 4.38308e-18)
(115.507 8.43566 2.11062e-17)
(77.341 5.42435 -3.3235e-17)
(76.3321 5.46726 2.52055e-18)
(127.007 11.4374 0)
(156.88 13.9451 9.36766e-18)
(159.836 14.3681 -3.96366e-17)
(126.635 12.1391 4.18654e-17)
(73.1545 5.71086 2.15319e-17)
(65.7461 6.20839 1.13392e-17)
(116.865 13.3701 -6.30697e-18)
(151.962 12.9876 1.37401e-17)
(156.388 14.7668 -4.39876e-18)
(120.658 14.1796 0)
(68.3146 5.67295 9.90543e-18)
(69.0383 5.01399 -1.76898e-17)
(125.022 15.9746 2.14539e-18)
(162.036 17.0186 -9.65925e-19)
(166.791 19.2247 1.80738e-18)
(128.642 18.2963 -2.00823e-18)
(69.8335 4.72138 -3.25321e-17)
(71.5772 4.76543 4.66581e-17)
(132.514 20.9828 -1.7189e-17)
(171.333 21.883 1.29078e-17)
(176.055 24.705 0)
(136.789 23.7326 -1.81798e-18)
(74.0247 5.02073 -5.88755e-17)
(76.6406 5.54008 4.31888e-17)
(141.239 26.7087 1.74462e-17)
(180.621 28.0208 0)
(184.804 31.5398 -2.00399e-17)
(145.38 29.9432 2.71972e-17)
(78.9976 5.8733 0)
(82.1477 6.88892 -1.53324e-17)
(148.193 33.8691 8.60147e-18)
(186.788 36.5379 0)
(180.514 36.3134 -2.52897e-17)
(142.09 36.5683 3.19059e-17)
(84.3656 8.728 -6.79511e-17)
(89.7083 10.9977 5.17463e-17)
(147.455 38.1516 0)
(184.83 40.5586 2.09555e-17)
(188.566 45.622 -3.79727e-18)
(152.084 41.1497 0)
(93.3232 13.32 0)
(95.7193 15.7927 5.20091e-17)
(154.901 44.9051 3.84981e-17)
(190.063 51.1069 5.31103e-17)
(188.247 58.0955 -3.67449e-17)
(153.398 49.0783 5.34275e-17)
(97.3557 18.9548 -1.1678e-16)
(97.9556 22.3758 -2.34324e-17)
(143.004 51.1676 3.85584e-17)
(178.227 56.8776 -1.88833e-17)
(179.131 64.2925 4.69868e-17)
(141.996 53.5529 2.4166e-17)
(102.886 27.2393 -1.32729e-17)
(108.143 35.6429 -1.01109e-16)
(140.758 56.1227 -1.37652e-17)
(172.161 66.3325 -3.85198e-18)
(177.86 73.2774 2.15937e-17)
(147.026 59.9942 -3.67083e-17)
(113.062 45.9577 1.43275e-16)
(117.248 58.5185 0)
(153.455 67.061 3.32444e-17)
(182.955 83.509 -1.89612e-17)
(187.279 95.9394 0)
(158.409 76.4421 -1.05581e-17)
(120.6 73.5251 0)
(124.341 95.6751 0)
(160.611 88.9838 0)
(188.255 107.88 0)
(182.12 113.013 3.80605e-18)
(161.44 105.339 0)
(128.207 125.637 0)
(131.28 157.131 1.12626e-17)
(163.958 121.841 0)
(183.033 122.645 -1.0383e-17)
(179.504 134.967 -3.89061e-17)
(162.701 140.112 0)
(129.772 185.18 9.99286e-18)
(123.369 207.696 -9.52281e-17)
(155.808 157.68 -2.77354e-17)
(171.863 143.092 4.82282e-17)
(156.4 152.873 0)
(143.941 173.33 -3.85247e-17)
(113.009 222.759 7.2151e-18)
(100.57 227.752 6.06961e-17)
(133.922 180.576 1.13176e-17)
(147.205 155.818 0)
(133.591 152.825 -1.44843e-17)
(118.723 181.623 -5.28683e-17)
(84.8499 224.608 1.65536e-17)
(68.9038 214.79 -1.2905e-16)
(102.802 172.691 2.69194e-17)
(111.934 150.7 4.74588e-17)
(100.575 139.614 0)
(92.9722 157.833 0)
(54.2573 201.106 9.21349e-17)
(40.2751 184.376 7.62188e-17)
(84.1849 139 4.93412e-17)
(88.4321 125.149 4.5211e-18)
(71.9225 118.19 -3.06553e-18)
(71.7729 124.278 -3.05282e-17)
(28.913 167.506 -7.60103e-17)
(19.9622 152.184 -1.18957e-17)
(58.2957 116.715 1.65041e-17)
(60.268 110.997 -3.37505e-18)
(50.2746 103.115 -1.90751e-17)
(47.1818 108.676 2.99614e-17)
(11.7198 138.127 4.89172e-18)
(4.04946 123.936 8.5882e-17)
(37.1091 100.795 0)
(40.7689 95.373 1.40703e-17)
(28.0883 87.6383 -4.13523e-17)
(24.0353 92.9114 -1.47553e-17)
(-3.30051 109.874 -9.20472e-17)
(-7.71506 96.2996 -7.2237e-18)
(16.3719 85.0063 1.39405e-16)
(21.4496 80.952 -4.40231e-17)
(15.5538 72.1098 -5.63781e-17)
(9.7264 75.2235 5.95703e-17)
(-10.6718 82.5256 -1.52242e-17)
(-11.7278 69.0785 8.3864e-18)
(5.08592 66.0839 0)
(10.5535 64.0857 -5.37898e-17)
(8.43389 53.9715 0)
(2.52403 54.8686 2.5365e-17)
(-11.8583 55.7271 0)
(-10.9494 43.2061 -8.53622e-17)
(-0.985576 43.7285 1.52631e-19)
(3.9755 43.3143 1.86973e-17)
(3.54273 36.2583 -1.53628e-17)
(-0.798051 35.3464 -2.99486e-17)
(-8.31628 33.1482 1.56e-16)
(-4.84253 23.8452 -7.30891e-17)
(0.748184 27.3777 5.39708e-17)
(5.11506 29.1135 -5.08087e-17)
(5.71407 22.1135 -3.88041e-17)
(2.33837 20.3862 9.67893e-17)
(-1.14843 16.1317 -2.66446e-17)
(2.95108 10.0118 -2.80064e-17)
(5.02221 15.0304 0)
(7.66983 17.6146 1.49089e-17)
(10.8911 12.5641 7.46107e-17)
(8.24261 9.8959 -2.50658e-17)
(7.18186 4.56831 0)
(11.0949 0.354188 -4.56059e-20)
(11.3008 6.05501 -5.62508e-17)
(13.3504 8.41717 4.798e-17)
(16.0067 5.72303 3.7862e-17)
(14.4334 2.8051 7.11866e-20)
(14.5211 -3.23829 3.29858e-20)
(17.49 -6.20174 0)
(17.377 -0.261433 -4.58796e-17)
(18.8563 2.18996 3.48093e-17)
(21.3497 -0.144388 0)
(20.3228 -2.11497 0)
(20.3947 -8.30828 0)
(23.1205 -10.1672 -2.78343e-17)
(23.0741 -3.86222 8.1194e-17)
(23.7669 -1.54134 -2.00095e-17)
(26.2498 -3.45447 5.62189e-17)
(25.6596 -5.44763 -6.49414e-17)
(25.6199 -11.6303 0)
(28.0294 -12.7928 -2.26049e-17)
(28.2767 -6.87779 1.01277e-16)
(28.8867 -4.74033 -1.11775e-16)
(31.6643 -7.43464 -8.40562e-17)
(30.7678 -8.87553 2.05862e-17)
(30.1838 -13.8207 0)
(32.0143 -14.3552 -2.48808e-20)
(33.1131 -10.5595 1.12747e-17)
(34.0739 -9.69305 4.87243e-18)
(35.8145 -11.2171 -7.56171e-18)
(35.2839 -11.8625 -1.29576e-17)
(33.7778 -14.7382 -4.62342e-17)
(35.6031 -15.2149 -4.41949e-17)
(37.2914 -12.6606 4.57785e-17)
(37.6152 -11.6589 4.59449e-17)
(39.7883 -12.8511 -3.48826e-17)
(39.2734 -13.533 -1.90233e-17)
(37.2306 -15.4338 4.25698e-20)
(38.6234 -15.6729 4.44454e-17)
(40.975 -14.2882 -2.26551e-17)
(41.4404 -13.7846 1.00866e-20)
(43.0841 -14.0683 5.10883e-17)
(42.6492 -14.9188 -4.05844e-17)
(40.2402 -16.1113 8.37796e-17)
(41.5457 -16.4283 -4.07244e-17)
(44.2062 -15.739 -1.67638e-17)
(44.8751 -15.2066 -5.49956e-17)
(46.2179 -15.9675 4.31832e-17)
(45.3743 -16.295 1.09314e-20)
(42.6927 -16.6221 -4.53388e-17)
(43.6162 -16.8653 5.28379e-17)
(46.2579 -16.8527 2.70324e-17)
(47.1048 -16.5848 -2.6568e-17)
(48.1814 -16.8525 2.15067e-20)
(47.4177 -17.3684 -4.84626e-17)
(44.6997 -17.1882 -3.91472e-17)
(45.7345 -17.3811 -7.24204e-17)
(48.3923 -17.8808 5.40739e-17)
(49.3518 -17.6511 3.233e-17)
(49.7878 -18.0641 -8.31989e-18)
(48.3048 -18.0849 -1.39538e-17)
(46.0318 -17.4235 1.07806e-17)
(47.1067 -18.2384 1.35794e-17)
(48.8386 -18.6981 0)
(50.6249 -18.4082 0)
(51.2919 -19.2475 0)
(49.7363 -19.2987 0)
(47.196 -18.3937 -9.41148e-17)
(47.3233 -18.5068 -1.05576e-16)
(50.2199 -19.6399 8.27401e-17)
(51.6746 -19.737 2.02696e-18)
(51.532 -20.2647 -3.88573e-17)
(50.0957 -19.6255 6.29615e-17)
(46.9485 -18.1967 0)
(49.0899 -19.7609 1.03892e-16)
(51.8987 -20.5802 1.96685e-16)
(52.7712 -20.4843 -1.82138e-16)
(53.4916 -21.2565 9.75755e-18)
(52.4212 -20.9614 4.36797e-18)
(49.2588 -19.7705 -8.00037e-17)
(48.689 -20.0273 -4.1635e-18)
(52.1047 -21.2657 -5.73891e-17)
(53.5374 -21.2755 5.69456e-17)
(54.6091 -21.8577 0)
(53.7254 -21.8645 -1.83883e-16)
(51.1019 -20.8948 2.03725e-16)
(51.0445 -21.0232 1.5907e-17)
(54.2611 -22.3196 0)
(55.3134 -22.5653 -5.77437e-18)
(55.6955 -22.8701 7.36944e-17)
(54.3143 -22.6186 -8.30472e-17)
(51.0211 -21.1963 9.89882e-17)
(50.4879 -20.6819 0)
(53.9327 -22.3661 -6.38421e-17)
(55.3705 -23.1827 7.87223e-17)
(56.5449 -23.417 -1.61283e-16)
(55.5953 -23.3918 3.18879e-16)
(52.4565 -22.2942 -1.03876e-16)
(52.3832 -22.2311 8.46555e-17)
(55.8481 -23.7123 -1.77972e-17)
(57.0299 -24.1565 1.02145e-16)
(56.8516 -24.088 -3.88186e-17)
(55.23 -24.0789 5.14646e-17)
(51.5644 -22.5874 1.36693e-16)
(53.9844 -23.4955 -1.44222e-17)
(56.8834 -24.7903 -2.0735e-16)
(57.891 -24.8898 1.54407e-16)
(58.41 -25.4692 0)
(57.2918 -25.085 2.1912e-17)
(53.9132 -23.5946 1.48182e-17)
(53.0508 -23.6504 -1.3867e-16)
(56.6476 -25.1042 1.08872e-16)
(58.1994 -25.2371 0)
(59.0749 -26.0913 -3.29616e-20)
(58.0222 -26.0097 1.85581e-16)
(55.0701 -24.6937 -1.40355e-17)
(55.1314 -24.8475 -8.05148e-17)
(58.4798 -26.3635 0)
(59.5988 -26.7345 0)
(59.4428 -26.4787 1.22366e-17)
(57.9491 -26.2523 -1.11353e-16)
(54.4119 -24.7975 1.28781e-16)
(56.1692 -25.662 0)
(59.2149 -27.0733 -1.53551e-16)
(60.2865 -27.2515 1.37785e-16)
(60.6349 -28.0569 0)
(59.4179 -27.681 -1.55767e-17)
(55.9111 -25.8843 0)
(55.9108 -26.0415 1.07155e-16)
(59.3906 -27.8328 0)
(60.9152 -28.2063 2.05934e-18)
(60.345 -28.3259 -2.53776e-17)
(58.8014 -27.2503 6.4425e-17)
(55.2084 -25.2011 2.31339e-18)
(56.736 -26.9381 -3.81117e-18)
(60.3105 -28.4979 2.01875e-16)
(61.4341 -28.7036 -3.27201e-16)
(61.6714 -29.5262 9.49757e-17)
(60.3151 -28.9635 0)
(56.4923 -26.9778 3.11619e-18)
(55.7538 -27.2183 -4.44895e-18)
(59.6684 -29.0565 0)
(61.4629 -29.1558 0)
(62.5149 -30.12 -2.08012e-17)
(61.4477 -29.8033 -1.7366e-16)
(58.198 -28.0152 2.2584e-16)
(57.7904 -28.1878 2.10973e-16)
(61.4124 -30.0428 -1.6511e-16)
(62.852 -30.5285 1.01915e-17)
(62.2112 -30.8226 6.80823e-18)
(60.6374 -29.7471 0)
(56.9571 -27.5786 -1.43581e-16)
(58.7827 -29.5306 2.58016e-16)
(62.3084 -31.1399 -2.2535e-16)
(63.3784 -31.3085 0)
(63.8859 -31.9012 -1.06328e-16)
(62.4781 -31.3719 1.71441e-16)
(58.8838 -29.627 -1.56209e-17)
(58.2834 -28.7679 4.50308e-18)
(61.9128 -30.8129 4.65221e-17)
(63.3686 -31.9426 -6.1487e-17)
(64.4521 -32.3295 0)
(63.3485 -32.009 1.81801e-16)
(59.6925 -30.282 -2.43285e-16)
(59.318 -30.3279 -3.17023e-18)
(63.191 -32.4824 1.87035e-17)
(64.5711 -33.1374 0)
(64.3179 -32.7015 -6.96871e-18)
(62.4421 -32.5909 0)
(58.4994 -30.6269 2.2227e-21)
(60.9069 -31.3578 1.13576e-16)
(64.2655 -33.4002 -3.10268e-16)
(65.3606 -33.802 3.53271e-16)
(65.7206 -34.0838 1.13186e-16)
(64.2523 -33.5951 0)
(60.5581 -31.5802 1.3043e-17)
(59.8351 -30.4896 1.58529e-16)
(63.3955 -32.7567 -1.3126e-16)
(64.9954 -34.1223 7.20529e-18)
(65.7753 -35.0243 -5.89713e-18)
(64.9428 -34.265 0)
(61.3827 -32.3602 -2.10925e-17)
(60.7669 -32.5551 1.39275e-16)
(64.6106 -34.4617 6.28764e-18)
(65.8709 -35.3159 0)
(67.311 -35.7849 0)
(66.3094 -35.5387 -1.79082e-16)
(62.8768 -33.9642 2.29788e-16)
(62.7848 -33.7942 1.72272e-16)
(66.3876 -35.6278 -1.36222e-16)
(67.6117 -36.2828 1.0133e-16)
(67.1968 -35.8336 -9.97227e-17)
(65.5106 -35.4191 1.13805e-16)
(61.7372 -33.581 -1.33212e-16)
(63.406 -34.722 -1.27595e-16)
(66.7623 -36.6456 3.7336e-16)
(68.001 -36.9117 -5.32388e-20)
(68.3045 -37.6143 0)
(66.8596 -37.0916 -1.41393e-16)