/*--------------------------------*- C++ -*----------------------------------*\
| =========                 |                                                 |
| \\      /  F ield         | OpenFOAM: The Open Source CFD Toolbox           |
|  \\    /   O peration     | Version:  v2006                                 |
|   \\  /    A nd           | Website:  www.openfoam.com                      |
|    \\/     M anipulation  |                                                 |
\*---------------------------------------------------------------------------*/
FoamFile
{
    version     2.0;
    format      ascii;
    class       volScalarField;
    location    "0.028";
    object      turbulenceProperties:I;
}
// * * * * * * * * * * * * * * * * * * * * * * * * * * * * * * * * * * * * * //

dimensions      [0 0 0 0 0 0 0];


internalField   nonuniform List<scalar> 
10108
(
0.14998
0.14998
0.149986
0.14999
0.14999
0.149993
0.149993
0.149998
0.150007
0.150013
0.150017
0.150017
0.150016
0.150013
0.15001
0.150008
0.150006
0.150005
0.150004
0.150003
0.150002
0.150001
0.150001
0.15
0.15
0.149999
0.149999
0.149999
0.149998
0.149998
0.149998
0.149998
0.149997
0.149997
0.149997
0.149997
0.149997
0.149996
0.149996
0.149996
0.149996
0.149995
0.149995
0.149995
0.149995
0.149994
0.149994
0.149994
0.149993
0.149993
0.149992
0.149991
0.149989
0.149989
0.149989
0.149994
0.150005
0.15002
0.150032
0.15003
0.150015
0.149999
0.149983
0.149978
0.149981
0.149975
0.149976
0.149989
0.150002
0.14984
0.14918
0.144319
0.137103
0.14514
0.148533
0.146022
0.139745
0.131477
0.12703
0.135061
0.143338
0.140401
0.13074
0.123537
0.120886
0.12709
0.137883
0.135091
0.123706
0.118632
0.117129
0.121358
0.133152
0.130783
0.118746
0.115616
0.114774
0.117432
0.129331
0.1273
0.1154
0.113736
0.113259
0.114667
0.12624
0.124514
0.113082
0.112523
0.112256
0.112664
0.123712
0.122218
0.111394
0.111716
0.111572
0.111151
0.121602
0.120303
0.110138
0.111182
0.111123
0.110006
0.119837
0.118684
0.109179
0.110823
0.110811
0.109114
0.118324
0.11729
0.108423
0.110578
0.110604
0.108412
0.117015
0.116089
0.107826
0.11042
0.110473
0.107855
0.115871
0.115045
0.107351
0.110326
0.110399
0.107415
0.114875
0.114134
0.106977
0.110281
0.11037
0.10707
0.114005
0.113336
0.106688
0.110277
0.110379
0.106806
0.113246
0.112641
0.106472
0.110305
0.11042
0.106614
0.112584
0.112036
0.106321
0.110363
0.110489
0.106485
0.112011
0.111516
0.106229
0.110448
0.110585
0.106415
0.111521
0.111074
0.106192
0.110559
0.110707
0.106399
0.11111
0.110708
0.106208
0.110693
0.110853
0.106437
0.110773
0.110415
0.106275
0.110852
0.111023
0.106527
0.11051
0.110194
0.106393
0.111036
0.111219
0.106668
0.110319
0.110043
0.106562
0.111244
0.11144
0.106862
0.110199
0.109963
0.106783
0.111478
0.111688
0.107108
0.11015
0.109953
0.107056
0.111739
0.111965
0.107409
0.110173
0.110014
0.107384
0.112029
0.112272
0.107766
0.110269
0.110149
0.107768
0.11235
0.112611
0.108182
0.11044
0.110361
0.108212
0.112704
0.112985
0.108661
0.110691
0.110652
0.10872
0.113095
0.113399
0.109207
0.111023
0.111027
0.109297
0.113526
0.113854
0.109825
0.111443
0.111491
0.109947
0.114
0.114355
0.110522
0.111956
0.112049
0.110677
0.11452
0.114905
0.111302
0.112566
0.112707
0.111493
0.115092
0.11551
0.112172
0.113281
0.113472
0.112402
0.115719
0.116172
0.113141
0.114109
0.114353
0.113413
0.116407
0.116899
0.114219
0.115057
0.11536
0.114535
0.11716
0.117697
0.115415
0.116137
0.116501
0.11578
0.117987
0.118571
0.11674
0.117359
0.117789
0.117159
0.118893
0.119529
0.118208
0.118735
0.119236
0.118684
0.119883
0.120576
0.119829
0.120277
0.120853
0.120367
0.120964
0.121716
0.121615
0.121995
0.12265
0.122218
0.122138
0.122952
0.123577
0.1239
0.124635
0.124248
0.123407
0.12428
0.125719
0.125995
0.12681
0.126458
0.124765
0.125694
0.128041
0.12828
0.12917
0.128844
0.126199
0.127174
0.13053
0.130744
0.131698
0.131387
0.127686
0.128691
0.133162
0.133361
0.13436
0.134053
0.129189
0.130199
0.135885
0.136086
0.137103
0.136783
0.130656
0.131636
0.138629
0.138854
0.139849
0.139491
0.132015
0.132922
0.141288
0.141571
0.142491
0.14206
0.133179
0.133962
0.143728
0.144117
0.144899
0.144341
0.134056
0.134659
0.145792
0.146353
0.146931
0.146179
0.134551
0.134935
0.147325
0.148138
0.148465
0.147425
0.134612
0.134758
0.148207
0.149369
0.149418
0.14799
0.134233
0.134142
0.14838
0.149989
0.149758
0.14786
0.133456
0.133097
0.147833
0.150012
0.149502
0.146958
0.132349
0.131757
0.146533
0.149451
0.148653
0.145339
0.130937
0.130201
0.144639
0.148323
0.147307
0.143262
0.129339
0.128549
0.142402
0.146775
0.145621
0.140954
0.127678
0.126893
0.140018
0.144963
0.143734
0.138565
0.12606
0.125337
0.137613
0.143009
0.141759
0.136202
0.124561
0.123912
0.135279
0.141012
0.139777
0.13394
0.123202
0.122623
0.133072
0.139043
0.137848
0.131824
0.121982
0.121454
0.131005
0.137129
0.135985
0.129847
0.120873
0.120411
0.129097
0.135305
0.134231
0.128038
0.119894
0.119493
0.127358
0.133593
0.132589
0.126396
0.11903
0.11868
0.125783
0.132
0.131064
0.124908
0.118264
0.117965
0.124342
0.13051
0.129651
0.123565
0.11756
0.117303
0.123029
0.129062
0.128339
0.122309
0.116912
0.116745
0.121921
0.127897
0.127284
0.121383
0.116483
0.116278
0.120688
0.126604
0.126326
0.120562
0.115966
0.11573
0.119756
0.125706
0.13869
0.150486
0.160698
0.170281
0.178524
0.185378
0.191127
0.195646
0.199436
0.202386
0.204772
0.206439
0.207538
0.207879
0.207541
0.206305
0.204219
0.200967
0.196618
0.190505
0.181232
0.170428
0.160966
0.14449
0.125793
0.118087
0.118056
0.123052
0.122259
0.127625
0.109463
0.112191
0.134568
0.129812
0.122889
0.123512
0.122718
0.121298
0.130364
0.130701
0.123385
0.124897
0.124262
0.122533
0.131146
0.131341
0.123355
0.12523
0.125039
0.123044
0.131597
0.131769
0.123947
0.12618
0.126019
0.12345
0.131922
0.13198
0.124263
0.127247
0.127012
0.12385
0.131774
0.131866
0.124777
0.12832
0.128068
0.124305
0.131625
0.131724
0.125199
0.12941
0.129144
0.124711
0.131467
0.13158
0.125642
0.130531
0.130252
0.125139
0.131303
0.13143
0.126109
0.131703
0.131417
0.125591
0.131136
0.131278
0.126597
0.132914
0.132609
0.126061
0.130963
0.13112
0.127111
0.134179
0.133864
0.126558
0.130784
0.130956
0.127641
0.135483
0.135145
0.127066
0.130597
0.130784
0.128194
0.13684
0.136491
0.127595
0.130404
0.130602
0.128751
0.138235
0.137856
0.128119
0.130193
0.130401
0.129309
0.139679
0.139279
0.128638
0.129957
0.130167
0.129835
0.141146
0.140703
0.129108
0.129678
0.129883
0.130305
0.142644
0.142166
0.129506
0.129334
0.129525
0.130666
0.144153
0.143615
0.129774
0.128897
0.129077
0.130892
0.145706
0.145121
0.129882
0.128344
0.12855
0.130973
0.14733
0.146679
0.129832
0.12769
0.127896
0.131018
0.149104
0.148404
0.129775
0.126989
0.127116
0.13114
0.150959
0.149963
0.129554
0.125793
0.125414
0.131311
0.152711
0.1518
0.129686
0.123733
0.123638
0.132472
0.155705
0.155488
0.131568
0.122467
0.12299
0.135511
0.160619
0.161059
0.13529
0.122299
0.122724
0.139477
0.166732
0.167958
0.140213
0.122473
0.123589
0.144715
0.174458
0.176331
0.145564
0.123784
0.126571
0.151622
0.18411
0.186819
0.153
0.129219
0.135569
0.162217
0.196563
0.201498
0.166368
0.139948
0.148396
0.181607
0.21405
0.220336
0.194918
0.15283
0.136202
0.149417
0.180023
0.222425
0.183823
0.143323
0.147759
0.187604
0.228316
0.246175
0.205875
0.158348
0.164173
0.213235
0.2562
0.2748
0.231988
0.177127
0.188926
0.25077
0.293589
0.31154
0.277022
0.204297
0.171938
0.216828
0.269958
0.334636
0.285302
0.201157
0.21638
0.304108
0.362544
0.41654
0.356136
0.251821
0.286262
0.417482
0.475337
0.450356
0.360311
0.245009
0.354276
0.538852
0.612863
0.790066
0.683872
0.436087
0.805939
1
1
1
1
1
0.596485
0.785617
0.761268
0.391915
0.364007
0.241714
0.178203
0.246426
0.266841
0.230941
0.22628
0.185237
0.164281
0.176008
0.206482
0.201404
0.188814
0.168647
0.165096
0.181194
0.197376
0.164076
0.142621
0.148777
0.149573
0.162061
0.17871
0.175006
0.15565
0.146771
0.135039
0.126832
0.14164
0.162087
0.14594
0.135993
0.133873
0.139616
0.157888
0.126252
0.11591
0.126781
0.127012
0.133496
0.148635
0.144714
0.127904
0.125966
0.120515
0.108951
0.115942
0.138282
0.12424
0.120171
0.119405
0.118635
0.13397
0.107569
0.102233
0.115809
0.114599
0.115987
0.129504
0.125054
0.111018
0.114292
0.112273
0.097299
0.101019
0.121855
0.108894
0.110161
0.110482
0.104763
0.117041
0.0953835
0.0934381
0.109756
0.106438
0.102641
0.114793
0.109776
0.0992437
0.106986
0.107273
0.0899232
0.0903315
0.108211
0.0969509
0.103189
0.104119
0.0941804
0.103346
0.0861493
0.086783
0.10567
0.100279
0.0920321
0.10207
0.0977037
0.0894826
0.101285
0.104428
0.0835021
0.0823155
0.0962331
0.0874053
0.0969283
0.098191
0.0851033
0.0919036
0.0787351
0.0796542
0.104206
0.0956659
0.0827862
0.0889952
0.0784321
0.0786676
0.0980367
0.0928044
0.0826281
0.0917956
0.0864928
0.0800608
0.0942857
0.0988063
0.0767173
0.0748422
0.084849
0.0784894
0.0909347
0.0927986
0.0764411
0.0809718
0.0718494
0.0735763
0.0990561
0.089922
0.0737831
0.0785821
0.0707399
0.0723778
0.0944264
0.0870805
0.0746264
0.0817853
0.0766754
0.0723056
0.0886364
0.0941881
0.0712086
0.0692327
0.0751948
0.0709577
0.086996
0.0912723
0.06983
0.0681085
0.0780619
0.0712276
0.0838148
0.086002
0.0694888
0.0731238
0.0667598
0.0691236
0.0923375
0.0845531
0.0681294
0.071703
0.0657515
0.0674111
0.0887426
0.0809284
0.0672433
0.0726527
0.0688164
0.0663473
0.0836706
0.090263
0.0669416
0.0635766
0.0675765
0.0651078
0.0819537
0.0863459
0.0650501
0.0623798
0.0687605
0.0641499
0.078862
0.0820917
0.0634774
0.0651695
0.0609837
0.0656826
0.0888641
0.080198
0.0618693
0.0636052
0.0597584
0.0631119
0.0850721
0.0767719
0.0603362
0.063397
0.0602643
0.0595807
0.0803308
0.0868576
0.0650931
0.0579476
0.0596631
0.0581409
0.0781511
0.0838224
0.0619371
0.0568865
0.0594943
0.0568949
0.0754127
0.0809433
0.0598681
0.0563412
0.0596867
0.0570346
0.0740241
0.0777908
0.0565873
0.0565384
0.055255
0.0622532
0.0851292
0.0757878
0.0546103
0.0558307
0.0541089
0.0603113
0.0819181
0.0738909
0.0540952
0.0557524
0.0534329
0.0581324
0.0795963
0.0717501
0.0541677
0.0558353
0.0530123
0.0537685
0.0754734
0.0832566
0.0607568
0.0528715
0.0521086
0.0517982
0.074052
0.0804634
0.0589446
0.0515055
0.0519933
0.0508823
0.0716844
0.0776541
0.057156
0.0508816
0.0520334
0.050412
0.069856
0.0759583
0.0553633
0.0503661
0.0524356
0.0512396
0.0688393
0.0732982
0.0514435
0.0499492
0.0508644
0.0592384
0.0813178
0.0716608
0.04893
0.0484863
0.048674
0.0570996
0.0783362
0.0695042
0.0476094
0.0479473
0.0479298
0.0553598
0.0760991
0.0683353
0.0474042
0.0481449
0.0473645
0.053582
0.0746574
0.0667821
0.0483093
0.0485179
0.0463997
0.0485327
0.0709907
0.0786569
0.0579278
0.0480147
0.0457336
0.0466809
0.0693872
0.0766159
0.0554143
0.0464581
0.0454809
0.0455139
0.0677286
0.0742571
0.0538746
0.0458534
0.0451649
0.0448335
0.0658825
0.0726478
0.052986
0.0454812
0.0452047
0.0448219
0.06505
0.0717179
0.0519806
0.0451896
0.0459199
0.0461243
0.0644956
0.0689834
0.0468118
0.044193
0.0462428
0.0568535
0.076456
0.0674092
0.0451945
0.0439335
0.0449307
0.0538612
0.0747226
0.0661313
0.0436284
0.043391
0.0442138
0.0525184
0.0732104
0.0652393
0.0431653
0.0430051
0.0438074
0.052047
0.0722607
0.0642908
0.0429662
0.0427342
0.0432204
0.0512779
0.0710931
0.0635433
0.0440553
0.0433829
0.0418769
0.044891
0.0680465
0.0752055
0.0564803
0.0444185
0.0422666
0.0438828
0.0665679
0.0740226
0.053043
0.0435658
0.0417652
0.0422094
0.0652042
0.0722931
0.0515656
0.0428961
0.0413616
0.0417132
0.0640563
0.0712414
0.0510225
0.0424786
0.0412309
0.0417001
0.0635515
0.0704645
0.051038
0.042121
0.0419277
0.0428416
0.0628617
0.0674877
0.0440706
0.0406423
0.0436516
0.0559421
0.0754497
0.0661983
0.0429899
0.0410144
0.0427174
0.052495
0.0738529
0.064805
0.0412159
0.0405204
0.042001
0.0510799
0.0722031
0.0637841
0.0406369
0.040058
0.0415267
0.0506454
0.0711312
0.0630285
0.0406053
0.0398071
0.0409124
0.0504302
0.0701856
0.0623128
0.0416696
0.0404917
0.0392723
0.0428425
0.0670085
0.0742517
0.0556868
0.0424682
0.0399995
0.0419222
0.0651606
0.0728993
0.051872
0.0417857
0.0394934
0.0402585
0.0640151
0.0715107
0.0504638
0.0411521
0.0391198
0.0398159
0.0630891
0.0703793
0.049985
0.0407443
0.0389194
0.0397687
0.0622314
0.0692731
0.0497969
0.0401834
0.0394078
0.0408038
0.0613993
0.0660993
0.0422475
0.0384021
0.0418679
0.0552115
0.0737728
0.065007
0.0415093
0.0393713
0.0413832
0.0516004
0.072898
0.0639097
0.0396817
0.0388588
0.0406839
0.0502541
0.0712812
0.0624402
0.0391708
0.0383367
0.0401117
0.0495871
0.0698083
0.0617184
0.0391544
0.0380537
0.0395512
0.0494767
0.0689438
0.0611812
0.0402111
0.0385786
0.0375876
0.0415218
0.0657442
0.0733183
0.0544944
0.041196
0.038521
0.0408043
0.0643681
0.0719971
0.0507164
0.0405147
0.0379652
0.038819
0.0627327
0.070242
0.0494697
0.0398953
0.0377923
0.0388548
0.0622588
0.0694069
0.0494488
0.0394962
0.0381702
0.039959
0.0614022
0.0659869
0.0413551
0.0372474
0.0412099
0.0544318
0.0736429
0.0640516
0.0403382
0.038072
0.0404252
0.0507741
0.0720726
0.0629781
0.0388051
0.0377352
0.0397962
0.0495446
0.0704421
0.061811
0.0385757
0.0373907
0.0389835
0.0489671
0.0687637
0.0606017
0.0392985
0.0375431
0.0364818
0.0403124
0.0647218
0.0721662
0.0535262
0.0404572
0.0374618
0.0397811
0.0632434
0.071141
0.0502574
0.0398608
0.0373106
0.0384631
0.0622102
0.0691397
0.0489479
0.0389939
0.0372878
0.038983
0.0606271
0.0649263
0.0403656
0.0363385
0.0404354
0.0532661
0.0722946
0.063112
0.039393
0.0370372
0.039708
0.0500275
0.0712041
0.0623285
0.038201
0.0369278
0.0387994
0.0489267
0.0692372
0.060343
0.0386464
0.0369211
0.0359131
0.0398901
0.0645388
0.0717094
0.0527941
0.0400039
0.0364322
0.03891
0.0622299
0.0701429
0.0496741
0.0389024
0.0366395
0.0385659
0.0614359
0.0660965
0.0399408
0.0357973
0.0404109
0.0539542
0.0734066
0.0632599
0.0388822
0.0362555
0.0386841
0.0493902
0.0702619
0.0604845
0.037656
0.0356353
0.0348028
0.0389817
0.0651658
0.073506
0.0534643
0.0398467
0.0356437
0.038602
0.0635188
0.0709398
0.0495174
0.0385467
0.0352224
0.0375295
0.0608308
0.064557
0.0380959
0.0340911
0.039295
0.0529926
0.0723093
0.0628395
0.0378162
0.0348693
0.0379509
0.0490154
0.0705041
0.0605756
0.0368143
0.034535
0.0336729
0.03799
0.0647012
0.0716271
0.051552
0.0383947
0.0339543
0.0366202
0.0608824
0.0688233
0.0480861
0.0370711
0.0339173
0.0363825
0.0597246
0.0640246
0.0376399
0.0332751
0.0377628
0.0516027
0.0709249
0.0594532
0.0366708
0.0335015
0.0325037
0.037027
0.062948
0.0713921
0.0516388
0.0376234
0.0332477
0.0370594
0.06153
0.0658938
0.0374147
0.0325104
0.0375885
0.052192
0.0727996
0.0605103
0.0360855
0.0326699
0.0316795
0.0366524
0.0643016
0.0727617
0.051888
0.0373686
0.0324643
0.0364355
0.062035
0.0654481
0.0361699
0.0315713
0.0369874
0.0511075
0.072896
0.0607574
0.0354542
0.031634
0.0308774
0.0358467
0.0651058
0.0726057
0.0507802
0.0360598
0.0311908
0.0344051
0.0588932
0.0612702
0.0363101
0.0300802
0.0295819
0.037614
0.0664407
0.0745418
0.0519268
0.0361256
0.0304763
0.0344762
0.0604337
0.0625279
0.0338656
0.0291555
0.0292637
0.0391351
0.0686854
0.0708084
0.0364012
0.0284135
0.037062
0.0547453
0.0792201
0.0649365
0.0355058
0.0300994
0.0292473
0.0345718
0.0687627
0.0732573
0.0394492
0.0292381
0.0289017
0.0385615
0.0786987
0.0838761
0.0424174
0.0293121
0.0296251
0.0430221
0.0911618
0.0988356
0.0471897
0.0309857
0.0322276
0.0499497
0.106136
0.109826
0.0537273
0.033533
0.0342121
0.0555639
0.111195
0.112037
0.0586345
0.0353662
0.0359934
0.0605641
0.112439
0.112567
0.0637787
0.0373801
0.0380075
0.0658297
0.112348
0.112115
0.0693219
0.0397368
0.0404888
0.0713962
0.111897
0.111751
0.0744215
0.0425265
0.043449
0.0767367
0.111691
0.111654
0.079023
0.0461041
0.0471824
0.0811311
0.111672
0.111665
0.0831251
0.0501094
0.0511761
0.0849871
0.111713
0.11173
0.0868157
0.0541287
0.0552281
0.0885233
0.111827
0.111856
0.090167
0.0581542
0.0592262
0.0917179
0.112011
0.112043
0.0932026
0.0621485
0.0631766
0.0946198
0.112287
0.112253
0.0959362
0.0659349
0.066866
0.0971977
0.112569
0.112473
0.0983593
0.0694634
0.0703018
0.0994285
0.112834
0.112734
0.100421
0.0726903
0.0733847
0.101274
0.113024
0.112982
0.102084
0.0755794
0.0761444
0.102777
0.113197
0.113205
0.103449
0.0781166
0.0785394
0.103964
0.113337
0.113351
0.104511
0.0803193
0.0806245
0.104905
0.113423
0.113436
0.105337
0.0821857
0.0823767
0.105592
0.113454
0.113459
0.105927
0.0837572
0.0838604
0.106097
0.113439
0.113425
0.106347
0.0850561
0.0850738
0.106423
0.113392
0.113354
0.106592
0.0861234
0.0860735
0.106622
0.113315
0.113258
0.106721
0.0869753
0.0868624
0.106681
0.113209
0.11313
0.106726
0.0876496
0.0874884
0.106657
0.11307
0.112983
0.106656
0.0881613
0.087957
0.106536
0.112918
0.112815
0.106501
0.0885423
0.0883064
0.106367
0.112743
0.11264
0.106303
0.0888041
0.0885217
0.10613
0.112563
0.112452
0.106047
0.0889635
0.0886821
0.105869
0.112373
0.11226
0.105769
0.0890653
0.0887582
0.105564
0.112185
0.112063
0.10545
0.0891009
0.0887753
0.105245
0.111983
0.111865
0.105117
0.0890766
0.0887297
0.10489
0.111788
0.111667
0.104758
0.0889998
0.0886393
0.104536
0.111587
0.11147
0.104394
0.0888764
0.08849
0.104155
0.111393
0.111274
0.104009
0.088707
0.088307
0.103779
0.111194
0.11108
0.103624
0.0885061
0.0880923
0.103379
0.111003
0.110893
0.103227
0.0882773
0.0878574
0.102993
0.110812
0.110703
0.102834
0.0880201
0.0875894
0.102585
0.110623
0.110523
0.102433
0.0877436
0.0873148
0.102198
0.110442
0.110346
0.102043
0.0874526
0.0870207
0.101795
0.110264
0.110174
0.101646
0.0871531
0.0867209
0.101416
0.110092
0.110008
0.101269
0.0868426
0.0864046
0.101029
0.109926
0.109848
0.100887
0.0865256
0.086092
0.100664
0.109765
0.109694
0.100527
0.0862062
0.085775
0.100296
0.109614
0.109549
0.100167
0.0858917
0.0854675
0.0999539
0.109467
0.109408
0.0998298
0.0855789
0.0851599
0.0996092
0.109329
0.109276
0.0994953
0.0852757
0.0848655
0.0992938
0.109196
0.10915
0.099187
0.0849774
0.0845743
0.098978
0.109072
0.109031
0.0988819
0.0846916
0.0842972
0.098692
0.108954
0.108919
0.0986035
0.0844111
0.0840253
0.0984058
0.108844
0.108813
0.0983288
0.0841454
0.083768
0.0981495
0.10874
0.108714
0.0980788
0.0838852
0.0835159
0.0978922
0.108643
0.108622
0.0978344
0.0836402
0.0832788
0.0976646
0.108552
0.108535
0.0976111
0.0833999
0.0830459
0.0974354
0.108467
0.108453
0.0973913
0.083174
0.0828273
0.0972324
0.108386
0.108377
0.0971919
0.0829525
0.0826126
0.0970279
0.108312
0.108305
0.0969947
0.0827454
0.0824133
0.0968468
0.108241
0.108238
0.0968165
0.0825426
0.0822163
0.0966629
0.108175
0.108175
0.0966395
0.0823533
0.0820342
0.0965016
0.108112
0.108116
0.096481
0.0821679
0.0818543
0.0963373
0.108055
0.10806
0.0963229
0.0819956
0.0816888
0.0961944
0.108
0.108008
0.0961823
0.0818258
0.0815254
0.0960476
0.107949
0.10796
0.0960413
0.0816704
0.0813747
0.0959211
0.107901
0.107914
0.0959167
0.0815154
0.0812256
0.0957896
0.107857
0.107871
0.0957905
0.0813741
0.0810897
0.0956776
0.107814
0.107831
0.0956798
0.0812332
0.0809539
0.0955595
0.107774
0.107792
0.0955666
0.0811052
0.0808307
0.09546
0.107736
0.107756
0.095468
0.0809769
0.0807067
0.0953536
0.107701
0.107722
0.0953661
0.0808607
0.0805951
0.095265
0.107667
0.10769
0.0952783
0.0807452
0.0804796
0.0951688
0.107635
0.107659
0.0951864
0.08064
0.0803786
0.0950899
0.107605
0.10763
0.095108
0.0805351
0.0802728
0.0950028
0.107577
0.107603
0.0950248
0.0804384
0.0801812
0.0949325
0.107549
0.107577
0.0949547
0.0803423
0.0800847
0.0948535
0.107524
0.107553
0.0948795
0.0802545
0.0800017
0.0947909
0.1075
0.10753
0.0948169
0.080167
0.0799134
0.0947193
0.107478
0.107508
0.0947489
0.0800876
0.0798389
0.0946637
0.107456
0.107488
0.0946932
0.0800083
0.0797586
0.094599
0.107437
0.107468
0.0946319
0.0799366
0.0796917
0.09455
0.107418
0.107451
0.0945828
0.0798646
0.0796186
0.0944916
0.107401
0.107433
0.0945275
0.0798
0.0795581
0.0944484
0.107383
0.107417
0.0944839
0.0797342
0.0794908
0.0943951
0.107368
0.107402
0.0944336
0.0796753
0.0794362
0.0943566
0.107352
0.107387
0.0943944
0.0796152
0.0793742
0.0943076
0.107338
0.107372
0.094348
0.0795612
0.0793239
0.0942726
0.107322
0.107358
0.094312
0.079505
0.0792655
0.0942263
0.107308
0.107343
0.094268
0.0794543
0.0792182
0.0941933
0.107293
0.107329
0.0942337
0.0794008
0.079162
0.0941483
0.107278
0.107313
0.0941906
0.0793522
0.0791168
0.094116
0.107262
0.107298
0.0941568
0.0793004
0.0790621
0.0940713
0.107247
0.107282
0.0941138
0.0792529
0.0790174
0.0940389
0.107231
0.107267
0.0940797
0.0792016
0.0789634
0.0939941
0.107216
0.107251
0.094037
0.0791553
0.0789207
0.0939626
0.107201
0.107237
0.0940044
0.0791063
0.0788693
0.0939199
0.107187
0.107224
0.0939642
0.0790626
0.0788296
0.0938914
0.107175
0.107212
0.0939349
0.0790173
0.0787817
0.0938521
0.107164
0.107201
0.0938969
0.0789774
0.0787418
0.0938151
0.107151
0.107189
0.0938607
0.0789267
0.0786975
0.0937867
0.107127
0.107166
0.0938287
0.0788802
0.0786357
0.0937433
0.10712
0.107164
0.0937858
0.078821
0.0785495
0.0936743
0.107086
0.107136
0.0937144
0.0786934
0.0783752
0.0935827
0.107041
0.107078
0.0936144
0.0784842
0.0781217
0.0934591
0.106958
0.106853
0.0933158
0.0779925
0.0768655
0.0925205
0.106357
0.105613
0.091378
0.0754095
0.0739463
0.0903526
0.104846
0.0582495
0.0488615
0.0479104
0.048693
0.0519732
0.0548039
0.0570889
0.0580932
0.0611207
0.0628491
0.0630986
0.0629422
0.062637
0.0622244
0.0618333
0.0615126
0.0612688
0.0610908
0.0609626
0.0608703
0.0608035
0.0607546
0.0607185
0.0606915
0.060671
0.0606556
0.0606438
0.0606352
0.060629
0.060625
0.0606227
0.0606216
0.0606218
0.0606238
0.0606267
0.0606304
0.0606349
0.0606401
0.0606459
0.0606528
0.0606608
0.0606702
0.0606814
0.0606946
0.0607099
0.0607274
0.0607468
0.0607674
0.0607919
0.0608291
0.0608863
0.06096
0.0610413
0.0611249
0.0612091
0.0612946
0.0613822
0.0614728
0.0615666
0.0616641
0.0617655
0.0618715
0.061983
0.0621013
0.062228
0.062365
0.0625143
0.0626779
0.0628582
0.0630573
0.0632779
0.0635225
0.0637938
0.0640948
0.0644281
0.0647972
0.0652045
0.0656532
0.0661461
0.0666852
0.0672733
0.0679118
0.0686023
0.0693461
0.0701431
0.0709942
0.0718983
0.0728553
0.0738632
0.0749215
0.0760273
0.0771794
0.0783747
0.079611
0.0808856
0.0821955
0.0835381
0.0849102
0.086309
0.0877316
0.0891748
0.0906358
0.0921119
0.0935998
0.0950978
0.096602
0.0981109
0.099621
0.101131
0.102637
0.104139
0.105633
0.107117
0.108591
0.110051
0.111497
0.112926
0.114337
0.115729
0.1171
0.11845
0.119776
0.121079
0.122356
0.123608
0.124833
0.126031
0.1272
0.128342
0.129454
0.130537
0.13159
0.132614
0.133607
0.134569
0.135501
0.136402
0.137273
0.138113
0.138922
0.139701
0.140449
0.141168
0.141856
0.142514
0.143143
0.143742
0.144313
0.144855
0.145368
0.145854
0.146312
0.146743
0.147148
0.147525
0.147877
0.148202
0.148502
0.148776
0.149023
0.149244
0.149437
0.1496
0.149733
0.149838
0.149909
0.149945
0.14996
0.149972
0.14997
0.149969
0.149961
0.149951
0.149943
0.149946
0.149958
0.14997
0.149979
0.149983
0.149982
0.149979
0.149975
0.149972
0.14997
0.149968
0.149966
0.149965
0.149965
0.149964
0.149964
0.149963
0.149963
0.149964
0.149964
0.149965
0.149966
0.149967
0.149968
0.14997
0.149971
0.149973
0.149975
0.149977
0.149979
0.149982
0.149984
0.149987
0.149989
0.149992
0.149995
0.149998
0.150001
0.150005
0.15001
0.150014
0.15002
0.150026
0.150034
0.150045
0.150063
0.150091
0.150131
0.150176
0.150201
0.150181
0.150116
0.150029
0.149942
0.149848
0.149683
0.149024
0.148168
0.145839
0.144471
0.143413
0.142052
0.141099
0.139786
0.138948
0.13769
0.136964
0.135762
0.135143
0.13401
0.133493
0.13242
0.131981
0.130968
0.130601
0.129647
0.129345
0.128448
0.128199
0.127361
0.127154
0.126373
0.126206
0.125478
0.125348
0.124669
0.124574
0.123943
0.123882
0.123296
0.123271
0.122729
0.122738
0.12224
0.122283
0.121826
0.121905
0.121489
0.121602
0.121226
0.121375
0.12104
0.121225
0.120931
0.121155
0.120903
0.121167
0.120957
0.121263
0.121096
0.121448
0.121325
0.121725
0.121649
0.1221
0.122072
0.122578
0.1226
0.123165
0.12324
0.123868
0.123999
0.124694
0.124884
0.125654
0.125906
0.126755
0.127073
0.128008
0.128396
0.129421
0.129883
0.131004
0.131541
0.132763
0.133376
0.1347
0.135384
0.136808
0.137558
0.139075
0.139882
0.141478
0.142323
0.143975
0.14483
0.146506
0.147335
0.14899
0.149746
0.151326
0.151959
0.153401
0.153861
0.155111
0.155368
0.15638
0.156415
0.157161
0.15697
0.157453
0.157051
0.15728
0.156699
0.156689
0.155956
0.155746
0.154889
0.154534
0.153589
0.153139
0.152138
0.151636
0.150612
0.150085
0.149067
0.14852
0.147518
0.146982
0.146014
0.145497
0.144566
0.14408
0.143186
0.142714
0.141864
0.141393
0.140693
0.140325
0.139796
0.139242
0.138866
0.150661
0.16109
0.161245
0.150797
0.1512
0.161402
0.160956
0.151347
0.151313
0.159386
0.175916
0.172301
0.171575
0.170975
0.179223
0.17963
0.180003
0.187708
0.186933
0.18616
0.191873
0.192605
0.193189
0.191851
0.192739
0.176953
0.162475
0.152298
0.152241
0.160347
0.163347
0.153404
0.153361
0.161416
0.178026
0.179205
0.164402
0.154571
0.154526
0.162477
0.165472
0.155754
0.155718
0.163546
0.180348
0.181466
0.166549
0.156965
0.156935
0.164627
0.167635
0.158199
0.158158
0.16571
0.182574
0.183645
0.16871
0.159431
0.159368
0.166783
0.16977
0.160648
0.160556
0.167859
0.184673
0.18571
0.170825
0.161841
0.161701
0.168929
0.171862
0.162973
0.162758
0.169964
0.186731
0.187694
0.172857
0.163984
0.163663
0.170873
0.17376
0.164834
0.16436
0.171633
0.188538
0.189159
0.174451
0.165435
0.16477
0.172139
0.174861
0.165731
0.164828
0.172314
0.18946
0.189324
0.174891
0.165639
0.164465
0.172078
0.174465
0.165096
0.163647
0.171381
0.18867
0.187466
0.173549
0.164086
0.162388
0.170219
0.172159
0.162639
0.160736
0.168635
0.185734
0.183571
0.170351
0.160804
0.158749
0.166702
0.168238
0.15868
0.156548
0.164539
0.181086
0.178417
0.165923
0.156381
0.154226
0.162234
0.163501
0.154
0.151867
0.159874
0.175679
0.172934
0.161053
0.151619
0.149544
0.157528
0.158648
0.149298
0.147308
0.155253
0.170253
0.16768
0.156336
0.147084
0.145193
0.153093
0.154156
0.145004
0.143222
0.151073
0.165251
0.162983
0.152128
0.143082
0.141415
0.149203
0.15026
0.141326
0.139772
0.147492
0.160885
0.158961
0.148555
0.139736
0.138292
0.14594
0.147013
0.13831
0.136969
0.144544
0.157206
0.155614
0.145627
0.13704
0.135796
0.143297
0.144389
0.135918
0.134765
0.14219
0.154176
0.152883
0.143291
0.134937
0.133868
0.141215
0.142324
0.134086
0.133096
0.140365
0.151724
0.15069
0.14148
0.133358
0.13244
0.13963
0.140749
0.132745
0.131895
0.139003
0.149769
0.148954
0.140126
0.132239
0.131452
0.138477
0.139604
0.131836
0.131108
0.138049
0.14824
0.147626
0.139178
0.131529
0.130857
0.137712
0.138841
0.131313
0.130692
0.13746
0.1471
0.146657
0.138587
0.131182
0.130609
0.137287
0.138409
0.131131
0.130604
0.137189
0.146288
0.145988
0.138304
0.131157
0.130675
0.137163
0.138268
0.131259
0.130821
0.137204
0.145753
0.145576
0.138297
0.131432
0.131037
0.13731
0.138389
0.131673
0.131321
0.137476
0.145455
0.145385
0.13854
0.131982
0.131671
0.1377
0.13875
0.132357
0.132088
0.137983
0.145364
0.145389
0.139016
0.132799
0.132572
0.138322
0.139338
0.133308
0.133122
0.138717
0.145458
0.145566
0.139716
0.133883
0.133739
0.139171
0.140154
0.134523
0.134421
0.139678
0.145706
0.145878
0.140644
0.135227
0.135164
0.140231
0.141177
0.13599
0.135968
0.140827
0.146084
0.146322
0.14175
0.136814
0.136834
0.141465
0.142363
0.137701
0.137767
0.142146
0.14659
0.146887
0.143016
0.138654
0.138767
0.142866
0.143703
0.139674
0.139839
0.143636
0.147211
0.14755
0.144422
0.140762
0.14098
0.144435
0.145161
0.141888
0.14219
0.145262
0.147905
0.14828
0.145933
0.143083
0.143467
0.146114
0.146722
0.144328
0.144783
0.14697
0.148662
0.149038
0.147509
0.145602
0.14612
0.147811
0.148283
0.146893
0.14746
0.148624
0.149389
0.14973
0.149584
0.149423
0.149262
0.149113
0.148981
0.14887
0.148779
0.148713
0.148674
0.148663
0.148681
0.14873
0.148813
0.148931
0.149089
0.149291
0.149539
0.149834
0.15018
0.150582
0.151045
0.151576
0.152181
0.152865
0.153637
0.154504
0.155474
0.156542
0.157721
0.159025
0.160469
0.162066
0.163828
0.165768
0.1679
0.170234
0.17278
0.175544
0.178527
0.18172
0.185096
0.188622
0.192231
0.195873
0.19929
0.202294
0.204746
0.206466
0.207384
0.207554
0.207131
0.206303
0.205247
0.204114
0.202968
0.201798
0.200621
0.199429
0.198201
0.196936
0.195598
0.194277
0.205035
0.203175
0.201617
0.197979
0.197185
0.196371
0.200184
0.201053
0.201736
0.204925
0.204039
0.203135
0.205581
0.206578
0.207488
0.20815
0.210246
0.214712
0.212198
0.209352
0.208309
0.207272
0.208444
0.20957
0.210745
0.211239
0.210023
0.208837
0.20859
0.209861
0.211171
0.213735
0.216596
0.219723
0.21736
0.212481
0.214564
0.20672
0.208371
0.209956
0.218585
0.216601
0.222342
0.219867
0.222708
0.225705
0.228707
0.224786
0.227208
0.22052
0.211486
0.212964
0.222412
0.224273
0.214404
0.215829
0.226119
0.234458
0.232019
0.229613
0.23478
0.231728
0.233417
0.229631
0.22594
0.222317
0.218792
0.215124
0.211917
0.209966
0.208664
0.207389
0.205315
0.206629
0.208012
0.203837
0.202885
0.201787
0.196584
0.197537
0.198912
0.203998
0.207514
0.193022
0.188309
0.188709
0.188228
0.18732
0.186466
0.16993
0.169285
0.163703
0.145695
0.13302
0.136279
0.149925
0.14687
0.134774
0.137925
0.152642
0.169238
0.170158
0.153406
0.14871
0.136628
0.138515
0.137769
0.150049
0.154948
0.171303
0.172733
0.175509
0.177012
0.192484
0.197551
0.211686
0.215864
0.220272
0.224856
0.212812
0.207376
0.207433
0.202084
0.202344
0.19714
0.181642
0.180096
0.162837
0.157426
0.160575
0.15535
0.158779
0.153537
0.156681
0.151627
0.139141
0.13995
0.141434
0.140653
0.143059
0.14219
0.144721
0.143849
0.14642
0.145499
0.159382
0.164711
0.161591
0.147286
0.148139
0.150004
0.167164
0.184946
0.186613
0.169171
0.163691
0.149054
0.151853
0.150977
0.166063
0.171809
0.190143
0.191947
0.195726
0.197691
0.213045
0.218515
0.229661
0.234708
0.237319
0.2414
0.237892
0.241134
0.24459
0.236961
0.227979
0.217284
0.218754
0.229898
0.231829
0.22011
0.221218
0.233465
0.244767
0.242242
0.239551
0.248291
0.252117
0.255868
0.268663
0.262466
0.256344
0.250745
0.245802
0.24607
0.240071
0.230876
0.225405
0.22454
0.219061
0.203858
0.20172
0.182266
0.176124
0.179171
0.173353
0.176821
0.170888
0.17397
0.16833
0.152879
0.153858
0.155854
0.154956
0.158024
0.157014
0.160189
0.159265
0.162546
0.1615
0.178819
0.184828
0.181837
0.163959
0.164911
0.16751
0.1882
0.208148
0.210458
0.19102
0.184809
0.166436
0.170155
0.169183
0.188139
0.194722
0.215027
0.217439
0.232014
0.237441
0.239168
0.225129
0.222285
0.201703
0.195028
0.197787
0.191427