/*--------------------------------*- C++ -*----------------------------------*\
| =========                 |                                                 |
| \\      /  F ield         | OpenFOAM: The Open Source CFD Toolbox           |
|  \\    /   O peration     | Version:  v2006                                 |
|   \\  /    A nd           | Website:  www.openfoam.com                      |
|    \\/     M anipulation  |                                                 |
\*---------------------------------------------------------------------------*/
FoamFile
{
    version     2.0;
    format      ascii;
    class       volScalarField;
    location    "0.004";
    object      turbulenceProperties:I;
}
// * * * * * * * * * * * * * * * * * * * * * * * * * * * * * * * * * * * * * //

dimensions      [0 0 0 0 0 0 0];


internalField   nonuniform List<scalar> 
41981
(
0.149608
0.149593
0.149915
0.149916
0.149917
0.149914
0.149906
0.149895
0.149879
0.14986
0.14984
0.149821
0.149802
0.149786
0.14977
0.149756
0.149742
0.14973
0.149719
0.14971
0.149702
0.149695
0.149688
0.149683
0.149678
0.149673
0.149669
0.149665
0.149662
0.149658
0.149655
0.149651
0.149648
0.149645
0.149642
0.149639
0.149637
0.149634
0.149633
0.149631
0.14963
0.14963
0.149631
0.149633
0.149636
0.149641
0.149647
0.149654
0.149663
0.149674
0.149687
0.149701
0.149716
0.149733
0.149751
0.149771
0.149791
0.149813
0.149835
0.149858
0.149882
0.149904
0.149926
0.149948
0.149971
0.149993
0.150016
0.150043
0.150072
0.150101
0.150131
0.150158
0.150181
0.150202
0.150219
0.150242
0.15026
0.150276
0.150288
0.150306
0.150326
0.150341
0.150353
0.150364
0.150372
0.150379
0.150384
0.150387
0.150388
0.150386
0.150382
0.150376
0.150367
0.150356
0.150343
0.150327
0.150309
0.150288
0.150265
0.15024
0.150212
0.15018
0.150147
0.150114
0.150077
0.150038
0.150004
0.149972
0.14994
0.149909
0.149876
0.149841
0.149804
0.149767
0.14973
0.149695
0.14966
0.149627
0.149596
0.149566
0.149538
0.149512
0.149489
0.149468
0.14945
0.149434
0.149421
0.149411
0.149405
0.149402
0.149402
0.149406
0.149414
0.149425
0.14944
0.149459
0.149481
0.149506
0.149534
0.149565
0.149599
0.149636
0.149674
0.149714
0.149753
0.149792
0.149829
0.14986
0.149883
0.149895
0.149899
0.149897
0.149885
0.14992
0.149958
0.149941
0.149937
0.149934
0.149746
0.149035
0.144741
0.138533
0.145164
0.148361
0.145061
0.136728
0.131909
0.12664
0.132403
0.142808
0.137611
0.1244
0.121118
0.1188
0.12196
0.135707
0.13061
0.115596
0.116756
0.116262
0.114284
0.129067
0.124971
0.110455
0.115565
0.115804
0.109861
0.123986
0.120869
0.10751
0.115756
0.116181
0.107768
0.120517
0.118512
0.106858
0.116382
0.116895
0.107474
0.11857
0.117267
0.107237
0.117159
0.117677
0.107932
0.117476
0.116412
0.107842
0.117918
0.118415
0.108516
0.116621
0.115534
0.108339
0.118608
0.11908
0.108943
0.115643
0.114358
0.10857
0.119223
0.119665
0.109068
0.114288
0.112671
0.108441
0.11977
0.120192
0.108827
0.112399
0.110505
0.108073
0.120304
0.120728
0.108469
0.110138
0.108223
0.107821
0.120875
0.121298
0.108267
0.107823
0.105942
0.107774
0.121483
0.121897
0.108232
0.105453
0.10353
0.107904
0.122082
0.122398
0.108146
0.10286
0.100711
0.107469
0.122434
0.122598
0.107138
0.0997537
0.0972424
0.105788
0.122492
0.122503
0.105063
0.0960345
0.0932221
0.103296
0.122298
0.122198
0.102314
0.0918234
0.0888984
0.100675
0.121984
0.121842
0.0998465
0.0875244
0.0851828
0.0987353
0.121652
0.121506
0.0981629
0.0840602
0.0825038
0.0975913
0.121354
0.121224
0.0973153
0.0817848
0.0810848
0.0972014
0.12111
0.120997
0.0971408
0.0808234
0.0807738
0.0972703
0.120904
0.120808
0.0972581
0.0807521
0.0809774
0.097428
0.120719
0.12063
0.0974198
0.0810988
0.0813945
0.0975548
0.120546
0.120464
0.0975257
0.0815986
0.0818523
0.0976047
0.120386
0.120308
0.0975325
0.0820007
0.0821778
0.097568
0.120237
0.120162
0.0974361
0.0822307
0.0823527
0.0974396
0.120097
0.120039
0.0972623
0.0823894
0.0825021
0.09725
0.119979
0.119944
0.0970777
0.0825596
0.082705
0.0970669
0.119901
0.119898
0.0969729
0.0828158
0.0830338
0.0970076
0.119884
0.119911
0.0969955
0.0832192
0.0835076
0.0971073
0.119935
0.120002
0.097195
0.0838652
0.0842778
0.0974441
0.120071
0.120184
0.097666
0.0849178
0.0854368
0.0979994
0.120291
0.120442
0.0983242
0.0862484
0.0867647
0.0986618
0.120583
0.120767
0.0989851
0.0875636
0.0880661
0.0993312
0.120949
0.121171
0.0996985
0.0888827
0.0893987
0.100077
0.121408
0.121672
0.1005
0.0902616
0.0907889
0.10091
0.12196
0.122288
0.101384
0.0916889
0.0922162
0.101817
0.122602
0.12299
0.102331
0.0931304
0.0936464
0.102778
0.123338
0.12378
0.103322
0.0945342
0.0950496
0.103777
0.124169
0.124663
0.104346
0.0958885
0.0963978
0.1048
0.12509
0.125636
0.105399
0.0971548
0.0976411
0.105823
0.126094
0.126704
0.10647
0.0983398
0.0988182
0.106884
0.127235
0.127928
0.10759
0.0995164
0.09995
0.107982
0.128531
0.129318
0.108759
0.100657
0.101027
0.109148
0.129999
0.13088
0.110018
0.10178
0.102174
0.110456
0.131641
0.132622
0.111426
0.103003
0.103434
0.111914
0.133472
0.134568
0.112982
0.104334
0.104765
0.113492
0.135517
0.136746
0.11466
0.105731
0.106137
0.115184
0.13781
0.139199
0.11646
0.107168
0.107536
0.11698
0.140397
0.14197
0.118358
0.108602
0.108875
0.118849
0.143321
0.145101
0.12033
0.109954
0.110137
0.120797
0.14662
0.148625
0.122369
0.111238
0.111339
0.122761
0.15031
0.152543
0.124342
0.112437
0.112374
0.124455
0.154366
0.156805
0.125905
0.113381
0.112934
0.125451
0.158745
0.161378
0.12667
0.113749
0.112736
0.125438
0.163456
0.166287
0.126372
0.113246
0.11134
0.124313
0.16859
0.171674
0.125197
0.111347
0.108566
0.123132
0.174369
0.177839
0.124495
0.108512
0.106454
0.123546
0.181052
0.185004
0.125524
0.107174
0.106554
0.125622
0.188781
0.193357
0.128048
0.108016
0.108643
0.128761
0.197831
0.20327
0.131595
0.110674
0.11211
0.132663
0.20868
0.215329
0.13594
0.114587
0.116549
0.137238
0.222063
0.230486
0.141041
0.119514
0.121948
0.142488
0.239226
0.250361
0.146859
0.125462
0.128308
0.148134
0.262253
0.277648
0.152856
0.132346
0.135276
0.152928
0.294716
0.317041
0.157547
0.139596
0.141664
0.155209
0.343096
0.376836
0.159405
0.145542
0.14488
0.154863
0.418662
0.473345
0.159268
0.147849
0.144549
0.155804
0.54657
0.648426
0.161753
0.147843
0.145994
0.160285
0.807617
1
0.168102
0.150945
0.151807
0.168126
1
1
0.177686
0.15819
0.161312
0.179647
1
1
0.191489
0.169056
0.174021
0.195735
0.980811
0.676173
0.211418
0.183441
0.19042
0.219418
0.49651
0.396541
0.241259
0.202087
0.211479
0.255632
0.322157
0.275629
0.287998
0.226071
0.238418
0.314334
0.236901
0.211812
0.367206
0.256865
0.272903
0.421494
0.189498
0.175296
0.526188
0.296654
0.317829
0.675136
0.161884
0.153803
0.99926
0.349458
0.379096
1
0.145688
0.141287
1
0.423527
0.468025
1
0.136677
0.134552
0.930204
0.535612
0.609372
0.573021
0.132432
0.13206
0.449055
0.724615
0.870076
0.34037
0.131748
0.13255
0.292376
1
1
0.240064
0.133585
0.135202
0.213638
1
1
0.184159
0.13734
0.13944
0.166594
1
1
0.153778
0.142924
0.145175
0.140241
1
1
0.138083
0.150109
0.152417
0.125761
0.6599
0.70334
0.131721
0.159102
0.160696
0.119539
0.446574
0.533915
0.131904
0.169208
0.170429
0.119994
0.343927
0.419299
0.135431
0.179854
0.183696
0.129326
0.31035
0.342197
0.140899
0.190245
0.19911
0.144887
0.317049
0.331563
0.154789
0.203988
0.214697
0.164242
0.342403
0.347872
0.174419
0.219896
0.23145
0.188637
0.386615
0.380822
0.198139
0.237072
0.24942
0.216502
0.432516
0.406404
0.221809
0.255033
0.267301
0.242155
0.453246
0.421148
0.241099
0.272069
0.283408
0.257445
0.438704
0.405603
0.249488
0.286503
0.295231
0.256611
0.395888
0.371993
0.246296
0.297004
0.301519
0.243165
0.351641
0.333199
0.23173
0.300367
0.298815
0.219552
0.307862
0.295438
0.209194
0.294213
0.287397
0.193577
0.269595
0.260751
0.184117
0.279265
0.269267
0.167849
0.235979
0.226079
0.158553
0.258865
0.247897
0.14265
0.203402
0.191465
0.1337
0.237327
0.227203
0.119257
0.171524
0.160091
0.1119
0.218159
0.209958
0.100342
0.144103
0.13475
0.0951941
0.203008
0.196749
0.086683
0.122446
0.115502
0.0835715
0.191595
0.186861
0.0775354
0.106275
0.101315
0.0761268
0.183034
0.179372
0.0718956
0.0943811
0.0907982
0.0716427
0.176447
0.173576
0.0686408
0.0854997
0.082913
0.0692052
0.171352
0.169175
0.0671215
0.0788306
0.0769638
0.0682832
0.167537
0.165866
0.0667326
0.0737861
0.0723915
0.0681112
0.164484
0.162974
0.0669152
0.0698735
0.0687569
0.0682831
0.161758
0.16043
0.0673337
0.0667395
0.0658052
0.0684989
0.15935
0.158168
0.0677183
0.0641814
0.063376
0.0685918
0.15722
0.156172
0.0679295
0.0620616
0.0613493
0.0685995
0.155329
0.154397
0.0680263
0.0602854
0.0596337
0.0685515
0.153638
0.152812
0.0680622
0.0587656
0.0581622
0.0684941
0.152134
0.151408
0.0680801
0.0574667
0.0569787
0.0684497
0.15081
0.150174
0.0681148
0.0564675
0.0561012
0.0684623
0.149651
0.1491
0.068224
0.05573
0.0554225
0.0685545
0.148651
0.14818
0.0684104
0.0551404
0.054857
0.0687108
0.1478
0.147406
0.0686475
0.0546389
0.0543656
0.0689138
0.147094
0.146774
0.0689247
0.054204
0.0539418
0.0691643
0.146529
0.146284
0.0692478
0.0538395
0.0535979
0.0694764
0.146108
0.145941
0.0696313
0.0535591
0.0533451
0.069861
0.145833
0.14574
0.0700817
0.0533661
0.0531742
0.0702981
0.145707
0.145681
0.070571
0.0532478
0.0530685
0.0707598
0.145701
0.145738
0.0710811
0.0531857
0.053009
0.0712269
0.145814
0.145907
0.0715918
0.0531621
0.0529961
0.0716811
0.146032
0.14618
0.0720824
0.0531563
0.0530011
0.0721078
0.14635
0.146557
0.0725445
0.0531512
0.0530091
0.0725068
0.146759
0.147026
0.0729822
0.0531489
0.0530255
0.0728935
0.147275
0.147594
0.0733924
0.0531703
0.0530377
0.073285
0.147887
0.148255
0.0737951
0.0532007
0.0530566
0.0736992
0.148587
0.149006
0.0742273
0.0532444
0.0530963
0.0741477
0.149379
0.149855
0.0747002
0.0533047
0.0531537
0.0746348
0.150269
0.150797
0.0752132
0.0533774
0.0532212
0.0751574
0.15125
0.151821
0.0757629
0.0534589
0.0533047
0.0757132
0.152304
0.152898
0.0763511
0.0535771
0.053457
0.0763115
0.153402
0.154042
0.0770078
0.0537828
0.0537149
0.0769833
0.154577
0.155255
0.077743
0.0540791
0.0540563
0.0777347
0.155818
0.156528
0.0785598
0.054451
0.0544752
0.0785669
0.157116
0.157852
0.0794611
0.0549761
0.055109
0.0794884
0.158464
0.159229
0.0804647
0.0557108
0.0559232
0.0805309
0.159864
0.160658
0.0815829
0.0565575
0.056704
0.0816811
0.161311
0.162136
0.0826974
0.0572813
0.057312
0.0827837
0.162797
0.163667
0.0836537
0.0578674
0.0578515
0.0836545
0.164329
0.165262
0.0843732
0.058348
0.0583477
0.0842928
0.16592
0.166931
0.0850325
0.0588642
0.0589883
0.0850572
0.167586
0.168651
0.085959
0.0596435
0.0600912
0.0861627
0.16927
0.170341
0.0873962
0.0612586
0.0622437
0.0879363
0.170939
0.171671
0.0899359
0.0639106
0.0650618
0.0910021
0.172126
0.172531
0.0932709
0.0662984
0.0664102
0.0941281
0.172717
0.172846
0.0950927
0.0669835
0.0662259
0.0949883
0.172763
0.172548
0.0950378
0.0657042
0.0636099
0.0940986
0.172118
0.172085
0.0924526
0.0628172
0.0608854
0.0891699
0.170971
0.169013
0.0846746
0.0592437
0.0556499
0.080817
0.164796
0.157711
0.0765421
0.0529598
0.0501169
0.0688129
0.143718
0.118939
0.0597668
0.0475801
0.0419599
0.0402181
0.0384353
0.037826
0.0374398
0.0372877
0.0372637
0.0373112
0.0374348
0.037561
0.0377399
0.0378868
0.0380779
0.038234
0.0384355
0.0386044
0.0388236
0.0390148
0.039266
0.0394899
0.0397844
0.0400504
0.0403959
0.0406992
0.0410607
0.0413499
0.0416188
0.0417739
0.0417907
0.0416908
0.0412954
0.0407787
0.0376264
0.0343394
0.0315522
0.0306079
0.0298688
0.0293183
0.0291029
0.0290861
0.0291802
0.0291936
0.0289783
0.0305122
0.0318455
0.0396087
0.0636314
0.160512
0.161541
0.0760257
0.0434804
0.0477479
0.0820246
0.1651
0.167224
0.0885311
0.0531133
0.0568879
0.0911756
0.166849
0.167891
0.0954401
0.0602436
0.0627488
0.0975481
0.168848
0.170009
0.101418
0.0653373
0.0681565
0.104056
0.170401
0.170953
0.106216
0.0701979
0.0719256
0.108073
0.171531
0.172184
0.110212
0.0736063
0.0754091
0.112191
0.172797
0.173385
0.114111
0.0770313
0.078443
0.115567
0.173873
0.174303
0.116853
0.0796435
0.0808597
0.117754
0.174656
0.174957
0.118493
0.0820435
0.0830858
0.118917
0.175147
0.175215
0.119155
0.0837347
0.0840337
0.118864
0.175046
0.174842
0.118305
0.0841615
0.084176
0.117522
0.174524
0.174229
0.116876
0.0839346
0.0834219
0.116076
0.173865
0.173572
0.115488
0.0829061
0.0824503
0.114856
0.173265
0.172985
0.114454
0.0820643
0.0817678
0.114035
0.172718
0.172467
0.113716
0.0815452
0.0813666
0.113321
0.172155
0.171852
0.112899
0.0811917
0.0810018
0.112433
0.171497
0.171185
0.111964
0.0808115
0.0806294
0.111495
0.170834
0.170523
0.111018
0.0804232
0.080174
0.110566
0.170188
0.169903
0.110139
0.0798908
0.0796037
0.10977
0.169597
0.169336
0.109389
0.0793259
0.0790827
0.109081
0.169071
0.168868
0.10887
0.0788675
0.0786801
0.108692
0.168636
0.168453
0.108523
0.0784951
0.0783348
0.108368
0.168241
0.168074
0.108234
0.0782294
0.078216
0.108077
0.167871
0.167705
0.10792
0.0782121
0.0781787
0.107715
0.167509
0.167344
0.107532
0.0781428
0.0780778
0.107288
0.167155
0.166986
0.107073
0.0780009
0.0778852
0.106803
0.166805
0.166635
0.106572
0.0777667
0.0776216
0.106293
0.166461
0.166292
0.106041
0.0774874
0.0773338
0.105753
0.16612
0.165953
0.105471
0.0771904
0.0770322
0.10517
0.165783
0.165623
0.104859
0.0768756
0.0767077
0.104547
0.165453
0.165301
0.104226
0.0765373
0.0763656
0.103887
0.16513
0.164982
0.103556
0.0761877
0.0760147
0.103185
0.16481
0.164669
0.102846
0.0758281
0.0756227
0.102438
0.164497
0.164362
0.102093
0.0754179
0.0751826
0.101663
0.164193
0.164065
0.10132
0.0749723
0.0747333
0.100879
0.163903
0.16378
0.100538
0.074519
0.074279
0.100089
0.163622
0.163506
0.0997537
0.0740687
0.0738349
0.0993063
0.163355
0.163245
0.0989771
0.0736352
0.0734129
0.0985333
0.163098
0.162994
0.0982124
0.0732281
0.0730183
0.0977735
0.162854
0.162754
0.0974567
0.072844
0.0726409
0.0970198
0.162617
0.162522
0.0967108
0.0724749
0.0722794
0.0962799
0.16239
0.162297
0.0959774
0.0721209
0.0719307
0.0955488
0.162165
0.162079
0.0952583
0.0717784
0.0715969
0.0948401
0.161953
0.161868
0.094555
0.071451
0.071277
0.0941417
0.161744
0.161664
0.0938661
0.0711364
0.0709718
0.0934683
0.161546
0.161469
0.0932018
0.0708378
0.0706827
0.0928196
0.161354
0.161279
0.0925633
0.0705556
0.070414
0.0922066
0.161173
0.161095
0.091962
0.0702986
0.0701745
0.0916303
0.160995
0.160915
0.0913975
0.0700754
0.0699747
0.0910941
0.160825
0.160739
0.0908718
0.0698948
0.069816
0.0905909
0.160649
0.160561
0.0903765
0.0697513
0.0696914
0.0901145
0.160472
0.160379
0.0899055
0.0696377
0.0695902
0.0896574
0.160283
0.160189
0.0894533
0.0695446
0.0695058
0.0892181
0.160091
0.159991
0.0890162
0.069472
0.0694342
0.0887895
0.159884
0.15978
0.0885885
0.0694054
0.0693678
0.0883696
0.159671
0.159557
0.0881666
0.0693419
0.0693018
0.0879502
0.159441
0.159322
0.087744
0.0692766
0.069232
0.0875325
0.159202
0.159073
0.0873219
0.0692026
0.0691498
0.0871135
0.158945
0.158809
0.0868991
0.0691141
0.0690517
0.0866893
0.158675
0.158526
0.0864823
0.0690074
0.068933
0.0862621
0.158377
0.158217
0.086057
0.0688799
0.0687921
0.0858265
0.158055
0.157876
0.0856172
0.0687254
0.0686188
0.085368
0.157691
0.157493
0.0851467
0.0685318
0.068404
0.0848788
0.157285
0.157057
0.0846332
0.0682871
0.068128
0.0843332
0.156816
0.156556
0.0840623
0.0679769
0.0677833
0.0837239
0.156278
0.155973
0.0834124
0.0675774
0.0673285
0.0830324
0.155639
0.155273
0.0826753
0.067058
0.0667541
0.0822497
0.154868
0.154412
0.0818441
0.0664157
0.0660524
0.0813343
0.153879
0.153275
0.080862
0.0656363
0.0651844
0.0801758
0.152358
0.15144
0.0795272
0.0647615
0.0641996
0.0789097
0.151514
0.152199
0.0787038
0.0636848
0.0633349
0.0787143
0.152589
0.152826
0.0784541
0.0628799
0.0623699
0.0780249
0.151615
0.152668
0.0778378
0.0620178
0.0615529
0.0777243
0.151561
0.151276
0.077537
0.06108
0.060641
0.0771135
0.150598
0.150341
0.0769874
0.0602469
0.0598172
0.0768267
0.149576
0.149373
0.0766398
0.0593608
0.0587162
0.0760332
0.1488
0.145312
0.0753046
0.0582157
0.057539
0.0743486
0.14489
0.131986
0.0746984
0.056221
0.0618718
0.0782071
0.144402
0.149799
0.0720973
0.0584847
0.0555534
0.0681581
0.147552
0.14992
0.0649624
0.0515186
0.050158
0.0644652
0.152851
0.153005
0.0630512
0.0480492
0.047292
0.0634267
0.152752
0.152047
0.0634769
0.0460052
0.0453914
0.0630476
0.148156
0.150339
0.0632584
0.0445886
0.0441663
0.0623867
0.146477
0.145278
0.0616746
0.043492
0.0428561
0.0601059
0.143156
0.140498
0.0590531
0.0424098
0.0394614
0.0516425
0.122645
0.140524
0.0652452
0.0463966
0.0438986
0.0574014
0.14201
0.141309
0.0527811
0.0405406
0.0376521
0.0509785
0.141367
0.142923
0.0508022
0.0358282
0.0343404
0.0513525
0.145013
0.143006
0.0518895
0.0332863
0.0326665
0.0517036
0.139672
0.138904
0.0514986
0.0318334
0.0315574
0.0509824
0.136291
0.121615
0.0394992
0.029259
0.0394772
0.0626652
0.137173
0.139011
0.055049
0.0366593
0.0343937
0.0503935
0.139635
0.143198
0.0500159
0.0319648
0.0307117
0.0490765
0.14014
0.140577
0.0487179
0.0294634
0.0282451
0.0481095
0.138436
0.135437
0.0479255
0.0280384
0.0254536
0.032635
0.117311
0.133859
0.0594191
0.0362043
0.0329096
0.051438
0.136512
0.132243
0.0449336
0.0300754
0.0275492
0.0426827
0.132253
0.130137
0.0405798
0.0261553
0.0246029
0.0399653
0.12969
0.127463
0.0398505
0.0240727
0.0223347
0.0201594
0.115006
0.128733
0.0580285
0.0342993
0.0311503
0.0499261
0.130692
0.128913
0.0437068
0.0282144
0.0258659
0.0410386
0.128591
0.127577
0.0408351
0.0247297
0.0220403
0.0178365
0.113453
0.12841
0.0593111
0.0349887
0.0310968
0.0499693
0.129868
0.124817
0.0423638
0.0273276
0.0249771
0.0391013
0.123444
0.121987
0.0363884
0.0224977
0.0213716
0.0353471
0.118471
0.10708
0.0269036
0.014984
0.0372901
0.0643788
0.119054
0.122382
0.0518873
0.0319936
0.0281109
0.043555
0.119332
0.115665
0.0407865
0.0259016
0.0221275
0.0149745
0.103847
0.117109
0.0587309
0.0357513
0.0310295
0.0486772
0.118357
0.110099
0.0386454
0.0264631
0.0238206
0.0373152
0.108064
0.0981532
0.00548204
0.0188799
0.0358835
0.0591454
0.109339
0.110062
0.0483638
0.0313938
0.0272121
0.0435142
0.105793
0.0956606
0.0172052
0.0229199
0.035724
0.056158
0.105728
0.105628
0.0442053
0.0300806
0.0255384
0.0397977
0.0992935
0.0855049
0.00522127
0.0210857
0.0335674
0.0523248
0.095614
0.0958636
0.0445752
0.0279817
0.0228012
0.0155767
0.080507
0.0909692
0.0513965
0.0341137
0.0277726
0.0431341
0.0912044
0.0741586
0.0121909
0.0222284
0.0325021
0.0484921
0.0838472
0.0829841
0.0397121
0.0260665
0.02061
0.0101055
0.0643697
0.0729676
0.0434953
0.0293071
0.0234617
0.0210561
0.0556512
0.0683268
0.0434549
0.0312697
0.0214982
0.0273646
0.0561847
0.0570274
0.0312589
0.0210636
0.0236383
0.0365127
0.064322
0.0735343
0.0383347
0.0248395
0.0263392
0.0379475
0.0856221
0.097589
0.0405265
0.02791
0.030325
0.0197459
0.10508
0.125748
0.0693536
0.050664
0.041166
0.0608371
0.129144
0.148303
0.086073
0.0630564
0.0543083
0.0754636
0.14047
0.159393
0.0930007
0.0713946
0.0622751
0.0892361
0.173973
0.204408
0.104101
0.0780399
0.0688579
0.109614
0.228647
0.299827
0.140318
0.0887713
0.0734002
0.15021
0.180257
0.239602
0.180197
0.092668
0.186423
1
0.164094
0.148292
0.505616
0.216752
0.268704
0.453129
0.233453
0.143573
0.119137
0.329058
0.363932
0.135355
0.152424
0.15003
0.188652
0.571597
0.358626
0.150258
0.148929
0.146669
0.215191
0.938507
0.426702
0.158988
0.126984
0.1324
0.0966775
0.196106
0.691764
0.153746
0.134555
0.125219
0.0713327
0.142126
0.0961466
0.0687916
0.13664
0.128197
0.0903778
0.21966
0.0876246
0.0596028
0.136096
0.149237
0.0663082
0.068639
0.0945957
0.0651323
0.140157
0.146466
0.0628531
0.0835173
0.0740664
0.0733968
0.15743
0.143466
0.0651351
0.0907887
0.0791414
0.0622358
0.142997
0.142669
0.0703597
0.0698083
0.0895405
0.0542965
0.127443
0.131277
0.0596212
0.0753061
0.0732944
0.0680192
0.135303
0.123306
0.0564346
0.104147
0.0904286
0.0572965
0.126876
0.132674
0.0598622
0.0795894
0.0734443
0.0675519
0.132161
0.113907
0.0626411
0.108447
0.0597772
0.0478676
0.126224
0.132494
0.0567188
0.0519748
0.0798618
0.040671
0.116458
0.130312
0.0450533
0.0591848
0.0607459
0.0580084
0.131663
0.116664
0.0502511
0.103419
0.0597058
0.0446782
0.128429
0.132968
0.0536736
0.0470717
0.0800755
0.0389771
0.11567
0.129396
0.0374477
0.0438632
0.0469261
0.05076
0.130796
0.118401
0.037448
0.0868824
0.0810365
0.0454599
0.127691
0.126934
0.0594098
0.0788867
0.235595
0.0938518
0.111699
0.120398
0.051222
0.103984
0.0662725
0.045015
0.117934
0.102346
0.061223
0.223403
0.114136
0.049029
0.119645
0.103924
0.057649
0.120549
0.331821
0.114987
0.0919868
0.113158
0.0969816
0.203495
0.202911
0.260821
0.108013
0.213381
0.139473
0.117983
0.0783823
0.118571
0.105947
0.610275
0.0806735
0.0894785
0.0704097
0.0773844
0.376609
0.779169
0.07005
0.055231
0.0590906
0.0494445
0.175273
0.197425
0.0598297
0.0483911
0.0433403
0.0592024
0.212366
0.149972
0.0358781
0.041876
0.0384449
0.0559928
0.175209
0.189248
0.0582583
0.0390316
0.0358393
0.0317258
0.138373
0.163234
0.0545299
0.0332065
0.0367694
0.0580853
0.176343
0.135048
0.0328164
0.0334958
0.0308031
0.0515909
0.157997
0.171771
0.0594198
0.0366881
0.0314075
0.0309027
0.130854
0.153199
0.0516027
0.0290909
0.0362428
0.0591064
0.166844
0.128247
0.0301765
0.0295029
0.0272875
0.048938
0.149451
0.16361
0.059941
0.036061
0.0276133
0.0291894
0.127396
0.147464
0.0502083
0.0261162
0.0365749
0.0597155
0.162061
0.126325
0.0294003
0.027891
0.0264752
0.0512454
0.146211
0.160898
0.0599965
0.0371337
0.026912
0.0293962
0.13197
0.151708
0.0530201
0.0310253
0.0246944
0.0241341
0.11874
0.140136
0.0482428
0.0241761
0.0362281
0.0615156
0.157171
0.124707
0.0302524
0.0265995
0.0254017
0.0493377
0.142101
0.157981
0.0600054
0.0356117
0.0267581
0.0308186
0.124909
0.142087
0.0486969
0.0253577
0.0348309
0.0587336
0.157017
0.126568
0.0299334
0.0266069
0.0249776
0.0482495
0.142611
0.156613
0.0573417
0.0341998
0.0255562
0.029132
0.13191
0.149145
0.0509523
0.0290383
0.0231682
0.0243746
0.121643
0.13871
0.0459653
0.0228715
0.0331924
0.0592307
0.154584
0.127665
0.030588
0.0267418
0.0274869
0.0482272
0.141041
0.154856
0.0555954
0.0323518
0.0286339
0.0316403
0.129352
0.142277
0.0490319
0.0304374
0.0321148
0.0528647
0.155336
0.136664
0.0359016
0.0313081
0.030762
0.0484656
0.149255
0.127585
0.0334824
0.0332171
0.0342078
0.049549
0.141069
0.155062
0.0534105
0.034446
0.0339245
0.0364639
0.132765
0.143295
0.0486918
0.0350674
0.0344141
0.0503605
0.155454
0.14025
0.0415832
0.0378772
0.0334723
0.0460605
0.15008
0.134253
0.0481864
0.0561853
0.0592878
0.052086
0.14206
0.154661
0.0517148
0.0423605
0.0937413
0.0680569
0.14131
0.145528
0.0602981
0.0941957
0.0508532
0.0541013
0.156538
0.150014
0.0888317
0.137012
0.0801093
0.0599312
0.153371
0.151075
0.110519
0.184367
0.169847
0.0898098
0.149251
0.160146
0.0652918
0.0869937
0.229629
0.136586
0.16031
0.157804
0.0803458
0.13691
0.26058
0.158608
0.162141
0.154748
0.117639
0.232222
0.129632
0.076763
0.165084
0.165128
0.145225
0.253766
0.149765
0.0829339
0.161793
0.166108
0.162723
0.27108
0.218268
0.108923
0.155656
0.169107
0.0726828
0.12334
0.262004
0.157472
0.173471
0.1661
0.131393
0.26482
0.236956
0.113277
0.188544
0.213218
0.266426
0.406359
0.314056
0.166903
0.204321
0.312316
0.42027
0.507653
0.421894
0.267307
0.213725
0.254584
0.17754
0.302534
0.435673
0.351796
0.261554
0.214862
0.186949
0.302274
0.368715
0.286894
0.246998
0.195768
0.182469
0.304507
0.185029
0.110124
0.220986
0.210933
0.211761
0.281879
0.181685
0.120124
0.205453
0.220135
0.214124
0.272834
0.236366
0.149139
0.190454
0.21927
0.092184
0.143874
0.248534
0.210712
0.204596
0.192784
0.123471
0.171141
0.237576
0.19732
0.198929
0.181508
0.144704
0.2054
0.127478
0.0889472
0.194254
0.181121
0.15551
0.187073
0.127749
0.0989901
0.181643
0.175501
0.144139
0.178751
0.153867
0.117458
0.172081
0.184432
0.0774736
0.0921158
0.146755
0.124437
0.165213
0.174178
0.0847766
0.102375
0.138888
0.117599
0.160819
0.171388
0.0865944
0.0980818
0.13151
0.106439
0.156095
0.162394
0.0936541
0.110835
0.0748796
0.0747215
0.175396
0.151886
0.0872927
0.102103
0.0726932
0.0718469
0.165882
0.1461
0.0858238
0.105098
0.090174
0.0789612
0.157784
0.171207
0.0710416
0.0661313
0.0838973
0.0741955
0.146068
0.160878
0.066839
0.0646614
0.0821
0.0725906
0.141553
0.157958
0.0682747
0.0641462
0.0822328
0.0697925
0.134075
0.149785
0.0710249
0.0733871
0.060909
0.067973
0.164853
0.141229
0.0652963
0.0664892
0.0557825
0.0636282
0.156759
0.127105
0.0566498
0.0652279
0.0611981
0.0647441
0.146041
0.161766
0.0643649
0.0549874
0.0561292
0.0598121
0.136893
0.153592
0.0621006
0.0508492
0.0535369
0.0520309
0.127703
0.149735
0.0623824
0.0491901
0.0563805
0.0492112
0.117492
0.138325
0.0616312
0.0534582
0.0521851
0.0683334
0.155511
0.128482
0.0525251
0.0509531
0.0486931
0.0649894
0.149049
0.116792
0.046227
0.0499124
0.0479501
0.0601895
0.137502
0.154645
0.0697847
0.0498248
0.0452578
0.0475756
0.127624
0.148337
0.0647401
0.0457241
0.04436
0.0413811
0.118753
0.141417
0.0631579
0.0451615
0.0445211
0.0448988
0.115772
0.134041
0.0565814
0.04298
0.0480321
0.0729137
0.151315
0.1239
0.0444648
0.0424598
0.0440858
0.0646334
0.144368
0.118724
0.0396849
0.041425
0.0429379
0.0617655
0.139255
0.112535
0.0434713
0.040782
0.0395109
0.0517119
0.12843
0.148544
0.0738141
0.0464802
0.040574
0.0430503
0.121201
0.141084
0.0656462
0.0435
0.0401612
0.0386812
0.114782
0.13559
0.0642124
0.0432937
0.040162
0.0392824
0.1123
0.132722
0.0631954
0.0430217
0.0400164
0.0440759
0.108685
0.121489
0.0497885
0.0390755
0.0469997
0.0753736
0.14301
0.116604
0.0442379
0.0404784
0.044284
0.0673109
0.135252
0.1114
0.0400908
0.0393251
0.042661
0.0632538
0.130862
0.107358
0.0433369
0.0389261
0.0379194
0.0479812
0.118897
0.139984
0.0756042
0.046684
0.039487
0.0437433
0.114637
0.133034
0.0670852
0.0444616
0.0384406
0.0391267
0.11021
0.128838
0.0627394
0.0423821
0.0380727
0.0424186
0.105462
0.116747
0.0478043
0.0372671
0.0472884
0.0761142
0.137324
0.114905
0.0435178
0.0388381
0.0448163
0.0674628
0.133317
0.108502
0.0384396
0.0373798
0.0429921
0.0639621
0.127467
0.104632
0.0375006
0.0365316
0.0418721
0.063273
0.123539
0.101739
0.0412548
0.0363674
0.0356526
0.0469706
0.112758
0.131961
0.0744768
0.0467382
0.0375659
0.0422322
0.111233
0.128423
0.0665003
0.0443503
0.036235
0.0380519
0.105452
0.123698
0.0638238
0.0428962
0.0355704
0.0377359
0.102485
0.120352
0.0636065
0.0418581
0.0352681
0.0406762
0.09938
0.110297
0.0471264
0.0350268
0.0470305
0.0745138
0.129365
0.109296
0.0427664
0.0371315
0.044525
0.0661494
0.126062
0.103729
0.0382708
0.0356482
0.0424598
0.0637545
0.120822
0.0990865
0.0403207
0.0345589
0.0342768
0.0459167
0.109754
0.12866
0.0743163
0.0465382
0.0361155
0.041782
0.107888
0.124759
0.0658581
0.0438984
0.0347778
0.0369679
0.103155
0.120805
0.0629609
0.0423747
0.0339924
0.0363115
0.100305
0.117769
0.0625016
0.0418713
0.0335443
0.0369993
0.0979459
0.114726
0.0625333
0.0412132
0.0331941
0.039992
0.096337
0.106244
0.0459822
0.0333891
0.046875
0.0735151
0.124118
0.105266
0.0419955
0.0358934
0.0442382
0.0656148
0.121743
0.101333
0.0376164
0.0343746
0.0424686
0.0630317
0.11782
0.097585
0.0371134
0.0332925
0.0413785
0.0624234
0.113803
0.0956464
0.0396278
0.032387
0.032555
0.0446814
0.105078
0.122085
0.0724938
0.0461612
0.0349992
0.0409209
0.103515
0.119849
0.0652357
0.0437244
0.0335047
0.0370931
0.0992539
0.115643
0.0619461
0.041948
0.0325759
0.036169
0.0967729
0.112622
0.0616351
0.0409826
0.031851
0.0391676
0.094157
0.103585
0.045263
0.032311
0.0465432
0.0723723
0.120766
0.103431
0.0415232
0.0350169
0.0438978
0.0650871
0.11926
0.100337
0.0372408
0.0333648
0.0422513
0.06261
0.116396
0.0965023
0.0363023
0.0325043
0.0414064
0.0618609
0.112791
0.0946073
0.0365571
0.031861
0.0405654
0.0611758
0.110245
0.0922476
0.038723
0.0310813
0.031544
0.0444138
0.101375
0.117726
0.0710709
0.0457772
0.0341285
0.0409889
0.100967
0.116648
0.0639299
0.0432126
0.0325997
0.0364406
0.0970024
0.112722
0.0615213
0.0416587
0.0317493
0.0362616
0.0946726
0.109845
0.0611749
0.0407291
0.031004
0.0391957
0.0928663
0.102184
0.0448721
0.0316987
0.0463447
0.0719269
0.118608
0.101221
0.0408575
0.0343837
0.0435428
0.0645754
0.117129
0.0977416
0.0368669
0.0326682
0.0417674
0.0616498
0.113292
0.0952158
0.0357804
0.0316724
0.0409408
0.0611369
0.110648
0.0925514
0.0360355
0.0311105
0.0402259
0.0606761
0.107757
0.0910113
0.0384548
0.0302508
0.0308988
0.0439044
0.0997238
0.115924
0.0707503
0.0455546
0.0337527
0.0406058
0.09844
0.114053
0.0637728
0.0430715
0.0323214
0.036241
0.0952833
0.110621
0.0606771
0.0414276
0.0313269
0.0355835
0.0935018
0.108572
0.0605346
0.0408281
0.0309076
0.036001
0.0911881
0.105707
0.0601528
0.0402305
0.0303164
0.0388152
0.089981
0.0989206
0.0447355
0.0311354
0.0460165
0.0705757
0.115209
0.0987628
0.0407588
0.0340358
0.0432829
0.0639564
0.114216
0.0948712
0.0365986
0.0323736
0.0416639
0.0610928
0.109939
0.0921602
0.0355713
0.03135
0.0407518
0.0604365
0.107394
0.0905557
0.0359768
0.0307897
0.039922
0.0596353
0.104839
0.0887509
0.0381133
0.029846
0.0305673
0.0435305
0.0972343
0.112826
0.0693184
0.0451722
0.0334985
0.0401334
0.0962161
0.111416
0.0630394
0.0429028
0.0318703
0.0363309
0.0927313
0.107839
0.0606236
0.0411302
0.0310859
0.0357571
0.0914022
0.105652
0.0596369
0.0405507
0.030718
0.0354952
0.0893097
0.103631
0.0592017
0.0401489
0.0305001
0.0358623
0.0876542
0.100982
0.0589607
0.0398002
0.0298013
0.0382751
0.0858182
0.0940739
0.0438595
0.0307776
0.0454306
0.068925
0.109446
0.0942862
0.0406324
0.0338451
0.0430835
0.062163
0.109117
0.0919833
0.0363815
0.0323344
0.0414518
0.0602926
0.106393
0.08945
0.0361198
0.0313717
0.0407567
0.0598421
0.103447
0.0872158
0.036331
0.0308682
0.0400393
0.0591822
0.100763
0.0856426
0.038204
0.029919
0.0307162
0.043378
0.0936964
0.108411
0.0680185
0.04509
0.0335866
0.0401904
0.0930036
0.107926
0.0624477
0.0429147
0.0320122
0.0364589
0.0905303
0.104766
0.0597335
0.0411383
0.0311364
0.0358464
0.0881405
0.101861
0.0592356
0.0403792
0.0307034
0.0361771
0.0859299
0.0990087
0.0586858
0.0397923
0.0298402
0.0381128
0.0843952
0.0924562
0.0435932
0.0308252
0.0451487
0.0679404
0.10722
0.092323
0.0403812
0.0337528
0.0429791
0.0621845
0.107161
0.0899171
0.0368457
0.0321887
0.0413616
0.0600544
0.103882
0.0883197
0.0363603
0.0313616
0.0405517
0.0591154
0.102115
0.0866086
0.0360433
0.0308177
0.0398063
0.058364
0.0996569
0.084396
0.0378119
0.0297871
0.0305852
0.0429872
0.0921364
0.106373
0.0674424
0.044787
0.0334455
0.0400489
0.091254