/*--------------------------------*- C++ -*----------------------------------*\
| =========                 |                                                 |
| \\      /  F ield         | OpenFOAM: The Open Source CFD Toolbox           |
|  \\    /   O peration     | Version:  v2006                                 |
|   \\  /    A nd           | Website:  www.openfoam.com                      |
|    \\/     M anipulation  |                                                 |
\*---------------------------------------------------------------------------*/
FoamFile
{
    version     2.0;
    format      ascii;
    class       volScalarField;
    location    "0.004";
    object      yPlus;
}
// * * * * * * * * * * * * * * * * * * * * * * * * * * * * * * * * * * * * * //

dimensions      [0 0 0 0 0 0 0];


internalField   uniform 0;

boundaryField
{
    bottomEmptyFaces
    {
        type            empty;
    }
    topEmptyFaces
    {
        type            empty;
    }
    inlet
    {
        type            calculated;
        value           uniform 0;
    }
    outlet
    {
        type            calculated;
        value           uniform 0;
    }
    walls
    {
        type            calculated;
        value           nonuniform List<scalar> 
1732
(
7.07475
7.09174
7.06263
7.08233
7.05558
7.07729
7.05285
7.07664
7.05492
7.08139
7.06156
7.09143
7.0726
7.10461
7.08649
7.11985
7.10233
7.13599
7.11865
7.1522
7.13517
7.16795
7.15099
7.18293
7.16619
7.19685
7.18011
7.20951
7.19295
7.22088
7.20429
7.23089
7.21448
7.23975
7.22336
7.24747
7.23126
7.25417
7.23796
7.25975
7.24366
7.26432
7.24817
7.26776
7.25165
7.27037
7.25387
7.27166
7.25468
7.27153
7.25365
7.26978
7.25147
7.26694
7.24825
7.26313
7.24435
7.25883
7.23993
7.25398
7.23515
7.24893
7.2301
7.24356
7.22487
7.23812
7.21946
7.23246
7.21395
7.2268
7.20836
7.22102
7.20276
7.21536
7.19734
7.20984
7.19219
7.20472
7.18741
7.19989
7.18299
7.19554
7.17903
7.19158
7.17551
7.18817
7.17253
7.18519
7.16998
7.18278
7.16802
7.18083
7.16652
7.17949
7.16563
7.17865
7.16518
7.17849
7.16542
7.17889
7.1661
7.1798
7.16734
7.18121
7.16905
7.1832
7.17133
7.18572
7.17404
7.18877
7.17723
7.19213
7.18079
7.19609
7.18487
7.20034
7.18931
7.20517
7.19426
7.21027
7.19956
7.21599
7.2054
7.22197
7.21159
7.22859
7.21833
7.23549
7.22548
7.24306
7.23319
7.25095
7.24135
7.2595
7.25006
7.26839
7.25921
7.27788
7.26887
7.28768
7.27894
7.29804
7.28945
7.30867
7.30031
7.31976
7.3115
7.33102
7.32293
7.3426
7.33458
7.35427
7.34638
7.3662
7.35834
7.37816
7.37037
7.39028
7.38247
7.40231
7.39451
7.41441
7.40656
7.42635
7.41851
7.43836
7.43047
7.45019
7.44232
7.46211
7.45418
7.47383
7.4659
7.48559
7.47762
7.49721
7.48929
7.509
7.50109
7.52076
7.51294
7.53275
7.52497
7.54478
7.53713
7.55713
7.54956
7.5696
7.56219
7.58244
7.57514
7.59543
7.58826
7.60875
7.60166
7.62217
7.61517
7.63596
7.62899
7.64983
7.64293
7.66403
7.65713
7.6782
7.67132
7.69262
7.68572
7.70697
7.70012
7.7216
7.71477
7.73621
7.72945
7.75109
7.74437
7.76601
7.75942
7.78133
7.77485
7.79687
7.79061
7.81296
7.80688
7.82939
7.82361
7.84646
7.84093
7.864
7.85882
7.8822
7.87726
7.90081
7.89616
7.91995
7.91549
7.93943
7.93521
7.95948
7.9554
7.97988
7.97594
8.0008
7.99696
8.022
8.01825
8.04348
8.03973
8.06476
8.06098
8.08603
8.08228
8.10705
8.10321
8.12794
8.12407
8.14823
8.14415
8.16825
8.16415
8.1877
8.18343
8.20707
8.20276
8.22576
8.22126
8.24431
8.23979
8.26218
8.25751
8.28006
8.27539
8.29729
8.29246
8.31448
8.3096
8.33093
8.32593
8.34751
8.34253
8.36359
8.35856
8.37982
8.37476
8.3954
8.39024
8.41095
8.40579
8.42594
8.42065
8.4407
8.43536
8.45465
8.44892
8.46767
8.46181
8.48001
8.47396
8.49177
8.48566
8.50299
8.49672
8.51352
8.50707
8.52327
8.51665
8.53241
8.52569
8.54116
8.53436
8.54949
8.54255
8.55724
8.5502
8.56447
8.55727
8.57113
8.56383
8.57729
8.56976
8.58279
8.57512
8.58784
8.57998
8.59256
8.58466
8.59727
8.58924
8.60185
8.5938
8.60653
8.59839
8.61131
8.60324
8.61648
8.6084
8.62171
8.6136
8.62689
8.61867
8.63167
8.62335
8.63611
8.62768
8.64014
8.63161
8.64363
8.63485
8.64634
8.63734
8.64849
8.6391
8.65008
8.64056
8.65144
8.64171
8.65244
8.64232
8.65248
8.64162
8.65143
8.63979
8.64916
8.63657
8.6459
8.63296
8.64184
8.62787
8.63681
8.62292
8.63231
8.61833
8.65552
8.66316
8.77304
8.94971
9.31996
10.0629
10.9028
5.92256
6.60876
7.62055
5.73476
6.32005
5.45567
5.78137
6.52824
6.85814
6.11136
6.3942
5.35701
5.96383
5.52704
6.13922
6.87007
4.92956
5.15015
5.92027
6.26586
5.42734
6.01169
5.21015
5.69355
7.44436
6.38577
6.76146
5.60296
6.19894
5.37519
5.92197
5.8913
6.51082
5.69849
6.35105
5.64624
6.19202
5.7871
6.41197
5.33304
5.64305
7.11628
5.13366
5.39817
2.00026
1.44527
1.25869
2.17755
2.13205
2.63824
2.06777
2.01206
1.88464
1.76905
2.13241
1.77378
1.63934
1.56046
1.35181
1.71354
1.52017
3.08612
3.2189
3.97678
3.33655
3.37335
2.82101
2.9211
3.37815
3.61246
5.20871
4.44335
4.5974
3.94365
4.31608
3.74937
4.02229
4.12787
4.23856
4.87781
3.54515
3.65979
3.60925
3.89086
4.23175
3.32888
3.50316
3.02047
3.11292
4.50668
3.80393
3.85457
3.17492
3.3214
3.5653
3.61036
2.80933
2.78855
2.51483
2.52776
2.18232
2.17496
3.12047
2.1613
2.14654
2.44581
2.471
2.92349
3.06937
2.68142
2.75555
3.45037
2.43001
2.48383
2.77042
1.97091
1.87812
6.4949
4.62336
4.87525
4.92148
5.44982
4.6711
5.07228
4.74363
5.2777
6.44005
4.91175
5.34205
4.63217
4.86354
5.53776
5.82021
5.0678
5.61371
5.49188
5.71909
4.40301
4.75952
5.08442
5.31784
5.96744
4.29538
4.5272
4.57004
5.0251
4.44791
4.87682
4.2453
4.66487
5.30085
4.0298
4.319
4.45673
4.63688
4.05411
4.39369
3.81584
3.95871
5.76718
4.95649
5.17417
4.11321
4.28963
6.15536
5.27304
5.49838
4.77594
5.25431
4.53682
4.93189
4.42304
4.61312
5.76569
6.02664
5.30121
5.86664
5.1288
5.61596
6.71877
4.81926
5.06643
5.08997
5.62421
5.18908
5.77481
4.90672
5.3296
3.75136
3.84209
3.53108
2.21319
2.50344
2.3283
2.46101
1.85697
1.72757
1.48796
1.21171
2.29641
1.62805
1.57949
1.7673
1.91648
1.35305
1.80846
1.01839
1.26886
1.65512
1.62084
1.35069
1.28452
1.12846
1.2511
1.11932
0.89272
1.12359
0.939262
3.02167
2.50903
2.75705
2.63003
2.08778
2.20717
2.21232
1.85267
1.77777
1.55757
0.432251
1.63691
1.45623
1.21399
1.09036
1.06009
1.1887
0.796693
0.735641
0.914087
0.837369
1.18269
1.07796
1.40682
0.996425
0.902842
1.02204
0.921832
0.628585
0.55358
0.624623
0.550288
0.465203
0.710551
0.478002
0.400196
0.482266
0.398026
0.544371
0.320903
0.282498
0.385928
0.267469
0.166633
0.413668
0.207374
0.419037
0.345553
0.833182
0.716913
0.671221
0.547246
0.499068
0.352612
1.36161
0.963689
0.715009
0.458573
0.117571
0.670475
0.382699
1.18623
0.840819
0.563087
0.978538
0.727496
1.74299
1.82509
1.37796
1.2215
2.01184
1.52124
1.37052
1.56436
1.4269
1.28097
1.1127
1.90712
1.43659
1.27381
1.63914
1.49935
1.10419
0.873042
1.21265
0.971868
1.70927
1.30447
1.0986
1.34527
1.12732
0.326176
0.526318
0.563482
0.541552
0.351905
0.340398
0.152492
0.126575
0.235398
0.186882
0.0902481
1.83948
1.4876
1.37989
1.72149
1.24635
1.10933
1.34504
1.26256
2.80218
4.25052
5.33684
6.22198
6.83001
7.9407
8.65948
11.2727
12.7015
11.2857
10.4071
9.54779
9.48042
9.90871
8.59913
8.34433
8.85365
6.77964
8.32182
7.61538
6.96616
1.89455
3.06605
2.4469
1.72637
1.56955
2.6793
2.79013
2.53447
2.08496
1.90691
7.51479
6.98109
6.24089
7.06169
6.8387
5.85417
7.29803
6.60219
6.06657
5.03034
6.75745
6.0954
5.8335
4.76369
6.49985
6.07762
5.12923
5.06393
4.03935
5.64627
5.29576
4.62796
4.78403
3.73724
5.46458
5.21232
4.83221
4.40264
3.82329
3.96527
3.04927
4.49837
4.32148
4.03028
3.60508
3.82421
2.92123
4.4451
4.28915
4.02424
3.7261
3.43064
3.01857
3.16004
2.41664
3.57909
3.37045
3.17886
3.07202
2.93983
2.85573
2.73019
2.98772
2.24037
3.51693
3.31298
3.13423
3.00334
2.86706
2.807
2.74241
2.59123
2.33374
2.54564
1.9025
2.9221
2.53871
2.38695
2.23639
2.1211
2.03176
1.99669
1.90851
1.96278
1.99828
2.07479
2.13727
2.09139
2.57776
1.78793
3.17329
2.82635
2.69157
2.55702
2.53297
2.47357
2.39597
2.32751
2.2695
2.23056
2.1948
2.17424
2.15425
2.17325
2.1695
2.12893
2.05899
2.00764
1.97248
1.94093
1.91461
1.89037
1.86958
1.84989
1.83286
1.81628
1.80194
1.78761
0.989137
1.43959
1.27015
0.980826
1.01422
0.720258
0.782884
0.500646
0.549848
0.767486
0.438322
0.547233
0.214634
0.488891
0.364731
0.180698
0.488954
0.290344
0.413373
0.148856
0.497785
0.275493
0.80533
0.644132
0.365806
0.880176
0.552852
1.32531
1.05181
1.57442
1.1528
0.926267
1.66017
1.48634
1.40895
1.17408
1.04767
0.799989
1.77517
1.76253
1.7516
1.74023
1.73041
1.72003
1.71113
1.70155
1.69335
1.68442
1.67685
1.66847
1.6614
1.65343
1.64682
1.63923
1.63295
1.62564
1.61971
1.61267
1.60699
1.6002
1.59472
1.58817
1.5828
1.57648
1.57121
1.56508
1.55988
1.55392
1.54882
1.54302
1.53799
1.53235
1.52744
1.52194
1.51713
1.5118
1.50713
1.5019
1.49731
1.49221
1.48772
1.48267
1.47825
1.47334
1.46896
1.46398
1.45953
1.45455
1.45009
1.44501
1.44045
1.43537
1.43077
1.42557
1.42085
1.41562
1.41083
1.40541
1.40043
1.39492
1.38978
1.38401
1.37855
1.3726
1.36687
1.36061
1.35455
1.34808
1.34186
1.33499
1.32857
1.32134
1.31488
1.30722
1.30069
1.29267
1.28616
1.27775
1.27101
1.26218
1.25529
1.24612
1.23891
1.2295
1.22235
1.21297
1.20597
1.19711
1.19083
1.18256
1.17693
1.16937
1.16474
1.15801
1.15432
1.14865
1.14568
1.14172
1.13946
1.13791
1.13787
1.1385
1.14093
1.14381
1.14845
1.1535
1.15999
1.16541
1.17075
1.1755
1.18016
1.18353
1.18563
1.18547
1.18407
1.18198
1.17755
1.17696
1.17459
1.19006
1.20483
1.19186
1.17809
1.20461
1.23245
9.28701
6.70663
7.06357
7.89018
8.25629
6.90264
7.56212
7.20732
7.95154
7.23703
7.99129
6.97277
7.66441
8.05794
8.47694
7.36681
8.14932
9.13406
6.52862
6.92982
10.2214
8.00332
8.61244
8.77399
9.1754
10.9219
9.2178
9.45418
8.02605
8.3929
10.3489
7.6396
7.97128
9.21736
9.50771
10.7663
7.89967
8.27458
8.20508
8.91838
8.4152
9.0835
10.5935
9.11123
9.34771
7.73013
8.0753
9.34408
9.65865
10.3023
10.6115
8.24057
8.9053
9.11158
9.45571
10.4724
9.03272
9.40086
8.22827
8.84146
7.50603
7.91286
7.56801
7.95571
10.2486
8.81017
9.23372
8.06548
8.70799
8.87305
9.24471
7.44744
7.85696
8.05744
8.67653
7.37557
7.799
8.88731
9.13117
7.74732
8.16157
9.73381
7.59852
8.21299
6.97854
7.48215
7.63489
8.44349
9.51457
6.80733
7.2458
7.37513
7.99372
8.38702
8.75187
9.89066
7.16091
7.53066
8.57443
8.93989
9.93113
7.20699
7.61599
7.69134
8.32703
10.0382
8.68982
9.16366
7.99578
8.79296
7.67664
8.38058
7.3777
7.76555
8.55484
8.92969
7.82821
8.60941
9.47726
8.23207
8.63143
7.54054
8.36022
7.32265
7.93274
6.7671
7.20429
7.38415
8.13317
8.19066
8.54843
7.11804
7.82757
11.3209
10.9532
9.3598
9.57492
8.13225
8.47046
10.929
8.17946
8.43145
9.63552
9.75751
11.5914
11.0883
9.24837
9.13696
11.8899
11.2036
8.59452
8.84703
10.0603
10.16
9.95839
10.0199
11.7553
9.34706
9.22469
8.32569
8.71668
11.2787
8.4036
8.70557
9.61985
9.81824
8.29389
8.7249
9.80592
9.98809
10.0999
10.3098
11.9646
9.81036
9.61647
12.0648
9.92293
9.6946
11.8227
9.63972
9.49796
11.4579
9.76953
9.40792
11.6869
9.60402
9.39847
11.8425
9.77482
9.51806
11.9361
9.87611
9.6216
12.025
10.0067
9.75318
11.9457
9.8816
9.62903
12.6404
10.8608
10.4322
12.6751
13.6458
11.8714
10.2478
9.69463
11.9674
10.3193
9.89756
11.8964
9.84632
9.58047
11.3771
9.52374
9.39502
8.72306
9.04792
12.9945
11.2419
10.7056
14.1826
12.515
13.9329
12.3849
11.6441
10.6715
10.8805
10.3511
15.2135
14.2832
12.732
11.2558
10.5861
14.3177
13.4307
12.3907
12.0517
10.9637
15.7674
15.4168
14.7044
13.9451
15.236
14.6699
12.3257
11.7603
10.6273
14.2867
13.9285
13.8085
13.7523
13.4826
12.8573
12.3771
11.9902
11.4603
10.9756
10.5673
10.204
9.90209
9.61664
9.35576
9.11267
8.88617
8.67585
8.47798
8.29844
8.12827
7.97919
7.03151
7.39888
6.44071
7.16237
7.83588
7.71633
7.59953
7.50838
7.41597
7.35077
7.27974
7.23979
7.17958
7.17441
7.12584
7.13279
7.09377
7.10699
13.3954
10.6641
10.4123
11.7862
10.5297
9.90563
6.57502
7.36406
8.43877
6.05652
6.44253
6.51097
7.04823
7.24791
7.64512
6.643
7.3727
11.0028
6.51055
7.27012
6.32334
6.92828
10.8853
7.98895
8.41153
9.26289
9.52825
8.09916
8.4421
6.43069
7.08243
10.702
7.14394
7.50617
8.32132
5.95208
6.33422
6.52462
7.25943
8.05716
8.31807
9.35637
8.11538
5.85178
6.14738
6.2319
6.81451
9.53356
9.33739
9.51725
6.97579
7.71199
8.83636
6.82871
7.41234
6.30089
6.69791
7.57923
7.95864
7.61063
7.99715
6.99098
7.73906
7.40647
7.79817
8.6026
6.15125
6.49281
6.80973
7.57274
6.65864
7.25054
8.78425
6.27733
6.66768
6.77905
7.38486
9.05096
7.78777
8.19701
7.12137
7.87811
6.91383
7.70751
6.42074
6.85837
6.7812
7.48911
6.16355
6.84607
5.86777
6.425
5.99838
6.71526
7.93298
5.96036
6.57186
5.66682
6.01501
6.33309
7.03111
6.13127
6.82988
6.80104
7.10329
7.75897
6.65889
7.05695
6.10641
6.77487
5.92529
6.5669
5.54786
5.87876
11.6011
1.25444
15.0076
13.3109
12.094
11.2485
10.739
10.2994
10.0692
9.83737
9.6426
9.4878
9.38848
9.27696
9.20338
9.11263
9.05114
8.96726
8.90976
8.82512
8.76617
8.67619
8.61184
8.51504
8.44476
8.34443
8.27071
8.17053
8.09509
7.99787
7.92259
7.82798
7.74722
7.64857
7.56761
7.47813
7.41168
7.34334
7.29731
7.25451
7.22802
7.20528
7.19259
7.18327
7.17921
7.17744
7.1772
7.17796
7.17906
7.1799
7.18117
7.18195
7.18339
7.18437
7.18599
7.18758
7.1896
7.19191
7.19539
7.19843
7.20381
7.20824
7.21581
7.22198
7.23096
7.23869
7.24862
7.25692
7.26662
7.27348
7.28117
7.28522
7.28969
7.29065
7.29145
7.28953
7.28638
7.28063
7.27437
7.26311
7.25334
7.23711
7.22332
7.20217
7.18399
7.15751
7.13472
7.10268
7.07518
7.03745
7.00493
6.96117
6.92346
6.87384
6.8309
6.77523
6.72642
6.66376
6.60827
6.53751
6.47454
6.39452
6.32323
6.23278
6.15253
6.05128
5.96217
5.85057
5.7535
5.63235
5.52858
5.39873
5.28988
5.15355
5.04251
4.90474
4.79611
4.6647
4.56373
4.44577
4.35372
4.24735
4.15927
4.05626
3.96673
3.86085
3.76666
3.65438
3.55369
3.43257
3.32371
3.19111
3.07241
2.92665
2.79859
2.64168
2.50979
2.3527
2.22727
2.08474
1.97369
1.85162
1.75382
1.64558
1.55608
1.45534
1.37074
1.27553
1.20014
1.12131
1.06086
0.997256
0.950529
0.900933
0.867036
0.830124
0.807734
0.782413
0.770071
0.754654
0.750239
0.743222
0.744945
0.744483
0.75088
0.754868
0.76379
0.769872
0.779281
0.78523
0.793964
0.798471
0.807184
0.808132
0.818142
0.812681
0.825259
0.811711
0.830596
0.807244
0.830685
0.803559
0.820858
0.802109
0.809346
0.797128
0.798457
0.7899
0.787834
0.782786
0.778331
0.777915
0.772364
0.776523
0.772071
0.779723
0.77798
0.788017
0.792639
0.804049
0.819247
0.834378
0.859837
0.884026
0.918115
0.955385
0.998565
1.04938
1.10301
1.16599
1.22887
1.3011
1.3708
1.44972
1.5245
1.60789
1.68614
1.77286
1.85488
1.94481
2.03038
2.1236
2.21138
2.30325
2.38802
2.47649
2.55739
2.64112
2.71721
2.79541
2.86627
2.93844
3.00346
3.06917
3.12791
3.18694
3.2399
3.29283
3.34017
3.38739
3.42937
3.47133
3.50839
3.54552
3.57804
3.61063
3.63869
3.66666
3.69029
3.71398
3.73369
3.75351
3.77005
3.78705
3.80048
3.81388
3.82414
3.83424
3.84153
3.84861
3.85304
3.85732
3.85917
3.86055
3.85994
3.859
3.85584
3.85277
3.84715
3.84222
3.83443
3.82802
3.81852
3.81107
3.80053
3.79258
3.78161
3.77372
3.76313
3.75489
3.74383
3.73569
3.72489
3.71702
3.70678
3.69932
3.68981
3.6828
3.67404
3.66747
3.65937
3.65307
3.64498
3.63835
3.62911
3.62131
3.60969
3.60046
3.58678
3.57706
3.56325
3.55493
3.54648
3.54474
3.54782
3.55972
3.57973
3.60475
3.63462
3.6657
3.72587
3.74734
3.77775
3.83006
3.95925
4.01918
3.952
3.64737
16.7507
3.06975
)
;
    }
    rightWall
    {
        type            calculated;
        value           uniform 0;
    }
    symmetryLine
    {
        type            symmetryPlane;
    }
}


// ************************************************************************* //
