/*--------------------------------*- C++ -*----------------------------------*\
| =========                 |                                                 |
| \\      /  F ield         | OpenFOAM: The Open Source CFD Toolbox           |
|  \\    /   O peration     | Version:  v2006                                 |
|   \\  /    A nd           | Website:  www.openfoam.com                      |
|    \\/     M anipulation  |                                                 |
\*---------------------------------------------------------------------------*/
FoamFile
{
    version     2.0;
    format      ascii;
    class       volScalarField;
    location    "0.008";
    object      Co;
}
// * * * * * * * * * * * * * * * * * * * * * * * * * * * * * * * * * * * * * //

dimensions      [0 0 0 0 0 0 0];


internalField   nonuniform List<scalar> 
11076
(
0.0206593
0.0197445
0.0213771
0.0222381
0.0225835
0.0220939
0.0222292
0.0220364
0.0218395
0.0217678
0.0215916
0.02153
0.021458
0.0214121
0.0213564
0.0212998
0.0212388
0.0211759
0.02111
0.0210405
0.0209681
0.0208929
0.0208148
0.020734
0.0206506
0.0205646
0.0204762
0.0203855
0.0202927
0.0201978
0.0201012
0.0200028
0.019903
0.0198018
0.0196996
0.0195965
0.0194927
0.0193885
0.019284
0.0191796
0.0190755
0.0189719
0.0188691
0.0187674
0.018667
0.0185682
0.0184712
0.0183763
0.0182837
0.0181938
0.0181067
0.0180223
0.0179372
0.0178607
0.0177919
0.0177411
0.0177096
0.0177719
0.0179205
0.0184356
0.0193728
0.0216343
0.026721
0.0379896
0.0585655
0.0476763
0.0425155
0.0424793
0.0411907
0.0394675
0.0388165
0.0372677
0.0336548
0.0364876
0.0381753
0.0344128
0.0343502
0.0328147
0.0274174
0.0291564
0.0296005
0.0283803
0.0285993
0.0270884
0.024733
0.0267881
0.0272659
0.0271025
0.0267979
0.0246859
0.0240224
0.0263587
0.0268735
0.0268924
0.026301
0.0238401
0.0236202
0.026206
0.0268065
0.0268064
0.0261704
0.023423
0.0232207
0.0259559
0.0266591
0.0266848
0.0259582
0.0230297
0.0228434
0.0257402
0.0265266
0.0265421
0.0257378
0.0226651
0.0224916
0.0255194
0.0263787
0.026388
0.0255151
0.0223243
0.02216
0.0252962
0.0262205
0.0262242
0.0252897
0.0220003
0.021842
0.0250699
0.0260528
0.0260512
0.0250605
0.0216872
0.0215326
0.0248392
0.025876
0.0258688
0.0248263
0.0213805
0.0212278
0.0246028
0.0256895
0.0256762
0.0245855
0.0210768
0.0209246
0.0243591
0.0254923
0.0254725
0.0243367
0.0207738
0.0206214
0.0241069
0.0252838
0.0252572
0.0240791
0.0204702
0.020317
0.0238455
0.0250633
0.0250296
0.0238119
0.0201647
0.0200101
0.0235744
0.0248305
0.0247895
0.0235344
0.0198561
0.0196993
0.0232925
0.0245848
0.024536
0.0232455
0.0195426
0.0193826
0.0229987
0.0243253
0.0242683
0.0229438
0.0192219
0.0190568
0.0226907
0.0240503
0.0239835
0.0226266
0.0188905
0.0187191
0.0223661
0.0237577
0.0236797
0.0222914
0.0185459
0.0183667
0.0220225
0.0234452
0.0233551
0.0219359
0.018185
0.0179967
0.0216576
0.0231107
0.0230076
0.0215579
0.0178051
0.0176061
0.0212692
0.0227526
0.0226353
0.021155
0.0174029
0.0171913
0.0208543
0.0223686
0.0222356
0.0207238
0.0169746
0.0167488
0.0204097
0.0219558
0.0218057
0.0202612
0.0165169
0.0162749
0.0199323
0.0215117
0.0213428
0.0197637
0.0160259
0.0157656
0.019418
0.0210332
0.0208435
0.0192269
0.0154969
0.0152155
0.018862
0.0205162
0.0203027
0.018645
0.0149237
0.0146175
0.0182575
0.0199551
0.0197146
0.0180105
0.0142987
0.0139628
0.0175963
0.0193433
0.0190725
0.0173145
0.0136113
0.0132389
0.0168682
0.0186738
0.018367
0.0165441
0.012846
0.0124266
0.0160577
0.0179355
0.0175862
0.0156811
0.0119798
0.0114976
0.0151432
0.0171153
0.0167148
0.0146989
0.0109767
0.0104057
0.0140914
0.0161953
0.0157317
0.0135552
0.00977709
0.00907321
0.0128495
0.015152
0.0146113
0.0121827
0.00827772
0.00735925
0.0113333
0.0139639
0.013351
0.0104853
0.0062777
0.00495595
0.00934596
0.0126202
0.0121666
0.00864872
0.00338543
0.00227583
0.00649769
0.0110187
0.00856952
0.00355769
0.00248108
0.00317188
0.00301211
0.00526475
0.0031079
0.00387402
0.00382511
0.00405105
0.00393557
0.00255601
0.00253183
0.00413448
0.00406324
0.00363709
0.00449265
0.00351263
0.00295886
0.00350567
0.00258764
0.00223715
0.00318488
0.00325768
0.00430184
0.00399256
0.00278371
0.00319335
0.00423375
0.00438426
0.00547581
0.00511369
0.00389594
0.00427147
0.00518233
0.00527119
0.00579224
0.00563598
0.00472391
0.0048429
0.00545474
0.00536153
0.00533576
0.00544027
0.00492877
0.00494252
0.00556424
0.00563475
0.00564672
0.00547019
0.00475425
0.00442727
0.00525359
0.00559936
0.0051614
0.00475739
0.00390175
0.00334096
0.00421578
0.00471101
0.00423053
0.00364638
0.00271611
0.00202685
0.00301566
0.00371745
0.00324124
0.00237546
0.00124649
0.000789182
0.00154056
0.00230537
0.00177485
0.00140975
0.00106057
0.00161191
0.00201345
0.00214477
0.00251752
0.00244923
0.00206219
0.00242529
0.00283583
0.00285642
0.00311224
0.00313028
0.00270374
0.00283175
0.00327744
0.00320123
0.00336368
0.00343867
0.00291007
0.00289536
0.00344839
0.0032649
0.0033788
0.00350828
0.00282588
0.00277117
0.00359675
0.00342691
0.0033344
0.00348807
0.00263008
0.00258199
0.00349066
0.00338694
0.00323529
0.00346845
0.00261666
0.00266477
0.00339054
0.00315331
0.00309638
0.00346105
0.00278304
0.00278832
0.00335368
0.00296482
0.00285206
0.00332508
0.00277441
0.00275887
0.00343474
0.00298731
0.00286665
0.00334719
0.00259295
0.00239747
0.00321165
0.00275859
0.00236357
0.00286455
0.00215066
0.00196572
0.00245097
0.00188853
0.00137521
0.00200465
0.00179702
0.00163342
0.00156952
0.000907253
0.000677387
0.00116554
0.00144184
0.00124468
0.000833067
0.000771107
0.000880315
0.000531393
0.0010392
0.000862886
0.000297324
0.000982606
0.0010528
0.000231332
0.000705757
0.000581552
0.00033775
0.00112476
0.00117642
0.000414507
0.000472003
0.000385755
0.000492032
0.00123104
0.00126686
0.000543195
0.000308693
0.00024864
0.000599402
0.00130765
0.00133173
0.000632958
0.000194205
0.000152606
0.000674569
0.0013625
0.0013763
0.000695139
0.000114105
8.55167e-05
0.000725798
0.00139955
0.00140358
0.000735267
5.87009e-05
4.03712e-05
0.000756633
0.00142177
0.00141864
0.000757473
2.31097e-05
1.32898e-05
0.000771161
0.00143211
0.00143584
0.000775351
7.15903e-06
8.56113e-06
0.00077407
0.00143986
0.00147952
0.000794059
2.06486e-05
3.88776e-05
0.000785886
0.00149148
0.00157897
0.000823454
7.17214e-05
9.64921e-05
0.000795457
0.00160334
0.00175895
0.000858085
0.00011692
0.000114827
0.000984574
0.00203638
0.0021982
0.00111477
7.55049e-05
0.00411035
0.0049534
0.00565472
0.00637755
0.00673304
0.00717581
0.00739807
0.00772819
0.00793456
0.008286
0.00852739
0.00889734
0.00913008
0.00932687
0.00932941
0.00859282
0.00770609
0.00579154
0.00549441
0.00639548
0.00914125
0.00912271
0.00760433
0.00575847
0.00368252
0.00205139
0.000955832
0.000776064
0.0016028
0.00335337
0.00263343
0.00101967
0.000628945
0.000456156
0.000595864
0.00191031
0.00147504
0.000427435
0.000413141
0.000385589
0.000395427
0.00140914
0.00144889
0.000431807
0.000390388
0.000385164
0.000436668
0.00139963
0.00162618
0.000592593
0.000433888
0.000431392
0.000563305
0.00150379
0.00165851
0.000668821
0.000472392
0.000469468
0.000649329
0.00157081
0.00177782
0.000783824
0.000519277
0.000515779
0.000739796
0.00167083
0.00178326
0.000810189
0.00053767
0.000533602
0.000790648
0.00171885
0.00189816
0.000900787
0.000565046
0.000560411
0.000864668
0.00180718
0.0019054
0.000919226
0.000573979
0.000568778
0.000902756
0.00184679
0.00202624
0.00100643
0.000595361
0.000589621
0.000969911
0.00193041
0.0020375
0.00102665
0.000602542
0.000596218
0.00100854
0.0019757
0.00216279
0.00111436
0.000622207
0.000615372
0.00107529
0.00205927
0.0021853
0.00114133
0.000629848
0.000622444
0.00111885
0.00211223
0.00231969
0.00123562
0.000649985
0.000642064
0.00119103
0.00220158
0.00235417
0.00127181
0.000660075
0.000651634
0.00124457
0.00226794
0.00250034
0.00137536
0.000682514
0.000673562
0.00132526
0.00236552
0.00255201
0.00142598
0.000696613
0.000687168
0.00139351
0.00245001
0.00271331
0.00154226
0.000724042
0.000714153
0.00149204
0.00257411
0.0027927
0.00161608
0.000745201
0.000734804
0.00157874
0.00268474
0.00297086
0.00175084
0.000780517
0.000769653
0.00170536
0.00284285
0.00308358
0.00185092
0.000811443
0.000800123
0.00181701
0.00297767
0.00329143
0.00201048
0.000858158
0.000851983
0.00197591
0.00317113
0.00344084
0.00214584
0.000903335
0.000895225
0.00212063
0.00334206
0.00368499
0.00234068
0.00096743
0.000969171
0.00232092
0.00357752
0.00388623
0.0025236
0.00103436
0.0010372
0.00251554
0.00380208
0.0041794
0.00277048
0.00112635
0.00114212
0.00277366
0.00409556
0.00446009
0.00302498
0.00123098
0.00125449
0.00304732
0.00439884
0.00484129
0.00336349
0.00137743
0.00142075
0.0034049
0.00476971
0.00525129
0.00372481
0.00154831
0.00159362
0.00377603
0.00516148
0.00569887
0.00414183
0.00173005
0.00176668
0.00414974
0.00561297
0.00610141
0.00448004
0.00189654
0.00193698
0.00455708
0.00603969
0.00665821
0.00497797
0.00210135
0.0021775
0.00501921
0.00662335
0.00717623
0.00548335
0.00240229
0.00253334
0.00563421
0.00724597
0.00788066
0.00614737
0.00282021
0.0030284
0.00636145
0.00800109
0.00869486
0.00696789
0.00340413
0.00374295
0.00729348
0.00891592
0.00977942
0.00805177
0.00423586
0.00473718
0.00854599
0.0102821
0.0144342
0.0100298
0.00568738
0.00718723
0.0138793
0.0144741
0.0152258
0.0151291
0.0122015
0.0100311
0.0124861
0.0138263
0.0211727
0.0141267
0.010686
0.0126355
0.0179662
0.0252233
0.0190881
0.0172916
0.0134309
0.0141897
0.0166675
0.0180636
0.0182983
0.0171472
0.0151796
0.0167432
0.0181448
0.0192586
0.0203017
0.0193782
0.0183337
0.0204091
0.0207325
0.0215018
0.0206781
0.0213441
0.0221449
0.0252769
0.0251518
0.034178
0.0430642
0.0330472
0.0309336
0.0353309
0.0344441
0.0352928
0.0330739
0.0350585
0.0382146
0.0419713
0.0356608
0.0300027
0.0661541
0.0478175
0.0476105
0.0596333
0.0585369
0.0709147
0.100507
0.0733182
0.0711533
0.0859585
0.0962317
0.126756
0.105931
0.103453
0.0974618
0.107444
0.108965
0.107077
0.110206
0.118038
0.118548
0.138965
0.138416
0.150937
0.222687
0.187235
0.167054
0.188076
0.19746
0.186956
0.180445
0.204753
0.208917
0.238564
0.234918
0.198138
0.312492
0.289491
0.277858
0.295666
0.288449
0.24675
0.258359
0.311016
0.324134
0.346001
0.345532
0.354251
0.255041
0.313338
0.330726
0.314525
0.293572
0.217401
0.24623
0.299219
0.319415
0.321596
0.260985
0.225482
0.173788
0.202901
0.310737
0.319361
0.272537
0.184435
0.384744
0.380563
0.333159
0.334193
0.387586
0.31961
0.421471
0.387839
0.299852
0.270407
0.329343
0.295627
0.292617
0.296349
0.231131
0.209036
0.289189
0.362194
0.230693
0.226391
0.166409
0.138309
0.193854
0.217937
0.243468
0.170926
0.109535
0.0834396
0.120733
0.135119
0.124129
0.0978184
0.0620595
0.0460853
0.0796177
0.130364
0.0695952
0.0515266
0.0303375
0.0204631
0.0396118
0.0686961
0.0560048
0.0220348
0.0113903
0.00631482
0.00794272
0.022573
0.0256949
0.0157562
0.00561228
0.00301065
0.016875
0.008798
0.0194527
0.0258615
0.00952428
0.0158859
0.0261344
0.0234136
0.0294272
0.0302849
0.0213453
0.026634
0.0332675
0.0347995
0.0232473
0.030455
0.0306675
0.0371747
0.0373703
0.0352455
0.0470096
0.0422447
0.0410228
0.0425852
0.0346567
0.0247621
0.0348547
0.0419084
0.0475294
0.0527422
0.0528551
0.0584578
0.0633784
0.0528254
0.0520377
0.0525857
0.0509318
0.0419606
0.0781649
0.0813077
0.0762629
0.0642652
0.0647041
0.0636828
0.0495235
0.0486084
0.0489001
0.0516183
0.0571643
0.0569007
0.0851293
0.0702986
0.0535629
0.0552735
0.0767234
0.0939368
0.0445665
0.0456315
0.0435353
0.0477012
0.0617933
0.0731561
0.0748736
0.0620637
0.0458942
0.0352319
0.0357489
0.0339292
0.0402027
0.0397743
0.0354506
0.0364604
0.0475278
0.0566259
0.0611192
0.0503312
0.0366177
0.029452
0.0306386
0.0295516
0.0486834
0.0416747
0.0324295
0.0317198
0.0420997
0.0494843
0.0262493
0.0270363
0.0257059
0.0273447
0.0341916
0.0389506
0.0399408
0.0349826
0.0269356
0.0217762
0.021843
0.0204787
0.0319744
0.0289332
0.0238817
0.0221829
0.0274627
0.0299814
0.015166
0.0165894
0.0172643
0.0169032
0.01754
0.0161127
0.0212176
0.0197272
0.0163563
0.0139358
0.0162544
0.0165008
0.00840159
0.00997406
0.0112409
0.0128643
0.0137467
0.0129306
0.00986897
0.0118651
0.0115858
0.00943192
0.00793804
0.00617895
0.00750228
0.00971285
0.0100189
0.006313
0.00358325
0.00326474
0.00343852
0.00266795
0.00513908
0.0056358
0.00270565
0.00470636
0.0134219
0.00589758
0.00317105
0.000941582
0.00349051
0.00585976
0.0110407
0.00576747
0.00143719
0.00736674
0.0179549
0.0289966
0.0115774
0.00968171
0.00604707
0.00698368
0.0146575
0.0242636
0.041598
0.0284939
0.0148266
0.0134311
0.0206097
0.026789
0.0473286
0.0342247
0.0199808
0.0167629
0.0216855
0.0243873
0.0425815
0.030166
0.0188363
0.0253323
0.0434996
0.0610381
0.0290694
0.0262972
0.0209145
0.0239189
0.0371207
0.0513266
0.0704684
0.05118
0.0307048
0.0253128
0.0310452
0.033661
0.059959
0.0438737
0.0285957
0.0354765
0.0583102
0.0793148
0.0388081
0.0359685
0.0294496
0.0338166
0.0517526
0.0706066
0.086186
0.0638314
0.0398936
0.0362907
0.0506316
0.0618766
0.0851989
0.0658661
0.0427553
0.0366865
0.0443423
0.0477358
0.0812607
0.060973
0.0411252
0.0474571
0.0747961
0.1002
0.0500413
0.0470591
0.0394106
0.0447731
0.0670269
0.0898021
0.105211
0.0788084
0.0504575
0.0460266
0.0632771
0.0768752
0.102479
0.0804161
0.0534891
0.0456862
0.0541892
0.0575541
0.0981796
0.0744856
0.0509659
0.0575044
0.0892011
0.118508
0.0606706
0.0571316
0.0480572
0.0547335
0.0810246
0.107658
0.123548
0.09398
0.0609797
0.0556764
0.0758167
0.0914152
0.118257
0.0933373
0.0631194
0.0543032
0.0642029
0.0678991
0.117911
0.0894872
0.0610276
0.0668766
0.10181
0.133561
0.0999025
0.0831599
0.061623
0.0695719
0.102146
0.128234
0.0738878
0.0700592
0.0597379
0.0664442
0.0952471
0.123879
0.145342
0.111486
0.0736513
0.0614289
0.0714879
0.0749093
0.133535
0.101284
0.0692713
0.0753009
0.114158
0.14903
0.113004
0.0940706
0.0696727
0.077446
0.112543
0.140915
0.0816179
0.0779151
0.0667715
0.0754286
0.109451
0.143343
0.158801
0.121472
0.0807618
0.0744135
0.0997865
0.119637
0.150428
0.12024
0.0831214
0.0717071
0.083439
0.0873699
0.152813
0.116815
0.0809617
0.0871241
0.129491
0.167989
0.12875
0.107438
0.0803482
0.088426
0.126846
0.159289
0.0929353
0.088709
0.0763454
0.0860376
0.123934
0.161826
0.178547
0.137255
0.0923558
0.0852792
0.113335
0.135268
0.167784
0.135317
0.0946373
0.0817056
0.0943689
0.0985637
0.171408
0.131592
0.091758
0.0977707
0.144522
0.187564
0.144039
0.120633
0.0907721
0.100104
0.142681
0.176627
0.103871
0.0995481
0.0862944
0.0973298
0.139127
0.180724
0.197041
0.152734
0.1036
0.0954003
0.126094
0.150207
0.185223
0.149195
0.104971
0.0908001
0.104659
0.109072
0.189945
0.146346
0.102715
0.108964
0.159843
0.206667
0.159032
0.133427
0.100805
0.110373
0.156363
0.193964
0.114184
0.109718
0.0955908
0.108043
0.153487
0.198849
0.216
0.168149
0.114887
0.105778
0.138952
0.164891
0.202607
0.164478
0.116157
0.100367
0.114804
0.119275
0.208181
0.160635
0.113097
0.119514
0.174517
0.225089
0.17388
0.14628
0.111109
0.121383
0.171027
0.210831
0.124198
0.119651
0.104592
0.118061
0.167473
0.216891
0.23445
0.182499
0.124939
0.115609
0.151549
0.179603
0.220672
0.178713
0.126307
0.109267
0.124702
0.129362
0.226308
0.174829
0.123349
0.130261
0.189783
0.243656
0.188447
0.158616
0.120755
0.131886
0.185324
0.227984
0.134354
0.129862
0.114136
0.128105
0.1814
0.234938
0.253625
0.197591
0.135808
0.125415
0.163999
0.194009
0.23716
0.192875
0.137102
0.118226
0.134655
0.139473
0.244531
0.189105
0.134063
0.141856
0.205422
0.263182
0.203715
0.171858
0.131559
0.142714
0.199418
0.246168
0.144485
0.139791
0.123185
0.138631
0.195598
0.253134
0.273926
0.212914
0.146563
0.135175
0.176379
0.208575
0.255641
0.208244
0.147983
0.127648
0.144981
0.149885
0.263097
0.203715
0.144397
0.152395
0.220801
0.284042
0.218579
0.184646
0.141236
0.152759
0.213999
0.264032
0.154901
0.149929
0.132122
0.149293
0.210044
0.271202
0.294716
0.229286
0.158169
0.145537
0.189358
0.22345
0.274122
0.223598
0.159188
0.137984
0.156141
0.161005
0.281916
0.218949
0.155794
0.163983
0.237297
0.303284
0.233439
0.197346
0.151339
0.163941
0.229512
0.282801
0.166021
0.160782
0.141975
0.159187
0.22375
0.288715
0.314106
0.245636
0.169685
0.154954
0.200764
0.237197
0.294686
0.240258
0.172479
0.145838
0.164086
0.168981
0.288571
0.226276
0.163658
0.175367
0.254215
0.326148
0.170915
0.166014
0.147855
0.166768
0.234862
0.303994
0.331596
0.257937
0.177823
0.163361
0.212034
0.250065
0.309097
0.250944
0.179118
0.154713
0.174397
0.17924
0.315909
0.245371
0.175084
0.185244
0.267467
0.342968
0.258879
0.219642
0.169465
0.185482
0.260611
0.32006
0.184828
0.179098
0.158619
0.177639
0.245483
0.313124
0.357615
0.278667
0.192008
0.160562
0.179608
0.184189
0.332974
0.258154
0.183865
0.194032
0.28147
0.363035
0.272026
0.230509
0.177281
0.194041
0.272965
0.335958
0.190261
0.185438
0.165572
0.185359
0.256607
0.328178
0.375536
0.293422
0.201665
0.168112
0.187491
0.191762
0.349265
0.270539
0.192578
0.204959
0.298244
0.383137
0.284242
0.241703
0.186789
0.204772
0.28799
0.355738
0.202342
0.196699
0.174989
0.195371
0.269845
0.344885
0.397808
0.309995
0.212652
0.17775
0.198226
0.202654
0.367518
0.284602
0.20276
0.215571
0.314428
0.405466
0.299056
0.254274
0.196582
0.215078
0.302228
0.373276
0.208918
0.20359
0.182035
0.203799
0.280258
0.356687
0.414658
0.324524
0.222229
0.183625
0.204254
0.208762
0.36633
0.286392
0.207966
0.227598
0.332814
0.426645
0.207048
0.203897
0.184785
0.208547
0.288188
0.36847
0.43439
0.337244
0.229155
0.188525
0.209456
0.213484
0.378741
0.295406
0.213846
0.236846
0.347156
0.445852
0.214563
0.212477
0.193564
0.220204
0.30438
0.38822
0.457474
0.354784
0.240151
0.195575
0.216504
0.220542
0.39346
0.306939
0.221633
0.244833
0.361683
0.46607
0.221599
0.219419
0.199512
0.228423
0.315358
0.404502
0.48368
0.372242
0.252372
0.204391
0.225661
0.229076
0.408885
0.319752
0.23128
0.255328
0.378078
0.487496
0.230612
0.22784
0.207262
0.236704
0.325612
0.415569
0.504403
0.393064
0.267406
0.219134
0.23912
0.240053
0.422168
0.331799
0.242032
0.268555
0.395879
0.510865
0.23646
0.234357
0.214737
0.241999
0.328399
0.416131
0.523281
0.407386
0.276564
0.213904
0.219833
0.211725
0.29063
0.267598
0.227464
0.242947
0.335333
0.433029
0.541778
0.41207
0.274801
0.20887
0.214505
0.205856
0.286219
0.263819
0.226851
0.252882
0.348396
0.447104
0.565018
0.428843
0.2828
0.212251
0.218851
0.210695
0.295738
0.271766
0.23066
0.254348
0.352373
0.458146
0.581149
0.440267
0.292102
0.215966
0.22024
0.209495
0.285686
0.265818
0.229089
0.248642
0.341114
0.440488
0.597639
0.45452
0.300314
0.215928
0.215572
0.201466
0.24689
0.242474
0.222567
0.216389
0.243523
0.256484
0.294052
0.273426
0.233632
0.24202
0.337952
0.437608
0.598051
0.448455
0.290035
0.205584
0.2096
0.201269
0.236788
0.233623
0.21298
0.191906
0.213245
0.222411
0.223156
0.216583
0.191966
0.173124
0.197127
0.205138
0.203592
0.195413
0.166744
0.152102
0.181378
0.190088
0.188216
0.176832
0.14427
0.135407
0.167749
0.178646
0.178833
0.165469
0.130288
0.12366
0.157734
0.17025
0.171197
0.156337
0.119908
0.114957
0.150116
0.164053
0.165339
0.149139
0.112139
0.108002
0.143527
0.15872
0.160339
0.143061
0.105835
0.102306
0.137906
0.154062
0.155723
0.137617
0.100649
0.0976237
0.13285
0.149741
0.151612
0.132963
0.0963975
0.0937924
0.128556
0.145876
0.14777
0.128808
0.0929222
0.0906728
0.124723
0.142281
0.144371
0.125321
0.0901056
0.0881532
0.12152
0.139081
0.141185
0.122204
0.0878336
0.086132
0.118652
0.136094
0.13838
0.119604
0.0860242
0.0847041
0.11643
0.133534
0.135747
0.117249
0.0846436
0.0836643
0.114753
0.131667
0.13346
0.11533
0.0836103
0.0828941
0.113182
0.129891
0.131349
0.113579
0.0828453
0.0823385
0.111939
0.128401
0.129558
0.112187
0.0822947
0.0819418
0.110753
0.126984
0.128165
0.111125
0.0819842
0.0816709
0.109857
0.125897
0.126354
0.109696
0.0815543
0.0814935
0.108978
0.124745
0.12531
0.10899
0.0814613
0.08139
0.108353
0.123889
0.124295
0.108306
0.0813598
0.0813431
0.107721
0.123059
0.123368
0.107654
0.0813153
0.0813373
0.107307
0.122444
0.122636
0.107203
0.0813114
0.0813655
0.106865
0.12183
0.121962
0.106756
0.0813415
0.0814182
0.106619
0.121408
0.121451
0.106483
0.081396
0.081493
0.106325
0.120964
0.120977
0.106191
0.0814724
0.0815823
0.106206
0.120696
0.120636
0.106053
0.0815631
0.0816871
0.106025
0.120383
0.12031
0.10588
0.0816692
0.0818
0.106003
0.120229
0.120095
0.105842
0.0817834
0.0819255
0.105909
0.120017
0.119879
0.105759
0.0819103
0.0820564
0.105962
0.119946
0.11976
0.105796
0.0820421
0.0821964
0.105929
0.119808
0.119623
0.105775
0.0821834
0.0823399
0.106034
0.119796
0.119578
0.105868
0.0823278
0.0824899
0.106047
0.119714
0.119498
0.10589
0.0824789
0.0826437
0.10619
0.119749
0.119506
0.106023
0.0826337
0.0828021
0.106235
0.119707
0.119471
0.106078
0.0827932
0.0829619
0.106404
0.119774
0.119517
0.10624
0.0829539
0.0831237
0.10647
0.119759
0.119515
0.106317
0.0831167
0.0832844
0.106654
0.119851
0.119592
0.106496
0.0832782
0.0834455
0.106732
0.119859
0.119615
0.106586
0.0834403
0.083604
0.106925
0.119967
0.119712
0.106774
0.0835996
0.0837616
0.107011
0.119989
0.119749
0.106873
0.083758
0.0839147
0.107208
0.120105
0.119857
0.107067
0.0839118
0.0840657
0.107294
0.120131
0.119903
0.107165
0.0840636
0.0842125
0.107487
0.12025
0.120017
0.107355
0.0842108
0.0843558
0.107566
0.120277
0.120065
0.107447
0.0843549
0.0844917
0.107751
0.120395
0.120182
0.107631
0.0844913
0.0846225
0.107821
0.120422
0.120229
0.107715
0.0846228
0.0847456
0.107997
0.120538
0.120345
0.107891
0.0847462
0.0848632
0.108058
0.120562
0.12039
0.107965
0.0848643
0.084973
0.108224
0.120674
0.120502
0.108131
0.0849744
0.0850783
0.108275
0.120694
0.120542
0.108194
0.0850802
0.0851764
0.10843
0.120803
0.12065
0.108349
0.0851785
0.0852703
0.108472
0.12082
0.120687
0.108402
0.0852728
0.0853569
0.108617
0.120925
0.12079
0.108547
0.0853596
0.0854394
0.108649
0.120937
0.120822
0.108591
0.0854424
0.0855149
0.108785
0.121037
0.12092
0.108726
0.085518
0.0855868
0.108809
0.121045
0.120945
0.10876
0.0855902
0.0856521
0.108936
0.121139
0.121038
0.108886
0.0856555
0.0857141
0.108951
0.121143
0.121058
0.10891
0.0857177
0.08577
0.10907
0.121232
0.121145
0.109028
0.0857736
0.0858232
0.109076
0.12123
0.121159
0.109044
0.085827
0.0858709
0.109188
0.121315
0.121241
0.109153
0.0858747
0.0859162
0.109187
0.121309
0.12125
0.109161
0.0859201
0.0859562
0.109291
0.121388
0.121326
0.109263
0.0859601
0.0859944
0.109283
0.121377
0.121329
0.109263
0.0859984
0.0860276
0.109381
0.121452
0.1214
0.109358
0.0860316
0.0860594
0.109366
0.121436
0.121397
0.109351
0.0860633
0.0860864
0.109457
0.121506
0.121463
0.109439
0.0860902
0.0861122
0.109437
0.121485
0.121455
0.109426
0.0861161
0.0861337
0.109521
0.121551
0.121516
0.109507
0.0861374
0.0861542
0.109495
0.121525
0.121503
0.109488
0.0861579
0.0861705
0.109574
0.121587
0.121559
0.109564
0.0861741
0.0861863
0.109542
0.121557
0.121542
0.109539
0.0861898
0.0861983
0.109616
0.121615
0.121592
0.109609
0.0862016
0.08621
0.10958
0.121581
0.121571
0.109579
0.0862132
0.0862182
0.10965
0.121635
0.121618
0.109644
0.0862213
0.0862264
0.109609
0.121598
0.121593
0.10961
0.0862294
0.0862315
0.109675
0.121649
0.121636
0.109671
0.0862343
0.0862369
0.109631
0.121609
0.121607
0.109633
0.0862397
0.0862395
0.109693
0.121657
0.121647
0.109691
0.0862421
0.086243
0.109646
0.121615
0.121616
0.10965
0.0862456
0.0862441
0.109707
0.121662
0.121653
0.109705
0.0862465
0.0862465
0.109658
0.121619
0.121621
0.109662
0.0862489
0.0862471
0.109718
0.121665
0.121657
0.109716
0.0862493
0.0862492
0.109669
0.121621
0.121623
0.109672
0.0862514
0.0862498
0.109728
0.121667
0.121658
0.109725
0.0862519
0.0862524
0.109678
0.121624
0.121624
0.109681
0.0862545
0.0862538
0.109738
0.121671
0.12166
0.109734
0.0862558
0.0862576
0.109689
0.121628
0.121627
0.109691
0.0862596
0.0862603
0.10975
0.121677
0.121664
0.109745
0.0862622
0.0862654
0.109703
0.121636
0.121633
0.109703
0.0862674
0.0862694
0.109764
0.121685
0.121671
0.109758
0.0862713
0.086276
0.109718
0.121646
0.121641
0.109717
0.086278
0.0862817
0.109782
0.121697
0.12168
0.109774
0.0862836
0.0862907
0.109739
0.121661
0.121651
0.109735
0.0862928
0.086301
0.109808
0.12172
0.12169
0.109795
0.086303
0.0863192
0.109832
0.121738
0.121624
0.109762
0.0863213
0.0864158
0.109856
0.121734
0.121635
0.109786
0.0863731
0.0862464
0.109709
0.121603
0.1213
0.109562
0.0862494
0.0860267
0.109765
0.121903
0.121239
0.109955
0.0870162
0.0869844
0.111842
0.125435
0.131931
0.119563
0.0945308
0.0965843
0.127468
0.147127
0.17347
0.152222
0.116393
0.118725
0.160308
0.189899
0.196361
0.17148
0.131475
0.218629
0.246623
0.268155
0.253881
0.177507
0.148275
0.17312
0.117059
0.0819933
0.0667314
0.0597572
0.0570061
0.0554539
0.0549952
0.0547207
0.0547462
0.0547917
0.0548561
0.0549065
0.0549435
0.0549874
0.0550537
0.0550607
0.0554157
0.0555158
0.0559719
0.0564628
0.056125
0.0573706
0.0565034
0.054315
0.0501756
0.0488216
0.0430854
0.043444
0.0411042
0.0419225
0.0416819
0.0421604
0.042258
0.0424068
0.042419
0.0424411
0.0424411
0.0424286
0.0424465
0.042431
0.0424252
0.0424186
0.0424113
0.0424021
0.0423892
0.0423722
0.0423522
0.0423296
0.0422939
0.0422873
0.0422355
0.0422227
0.0421641
0.0421439
0.0420773
0.0420481
0.0419718
0.0419317
0.0418434
0.0417898
0.0416867
0.0416166
0.0414951
0.041405
0.0412722
0.0411373
0.0409889
0.0408159
0.0406575
0.0404426
0.0402507
0.0400008
0.0397725
0.0394859
0.0392198
0.0388961
0.0385833
0.0382433
0.0378866
0.0375142
0.0371275
0.0367369
0.0363076
0.0359043
0.0354572
0.0350382
0.0345881
0.0341345
0.0337041
0.0332395
0.0328001
0.0323621
0.031903
0.0314789
0.0310283
0.0306136
0.0301818
0.0297566
0.0293599
0.0289486
0.0285449
0.0281699
0.0277748
0.0274151
0.0270363
0.0266922
0.0263362
0.0259883
0.0256676
0.0253295
0.0250242
0.0247019
0.0244116
0.0241106
0.0238171
0.0235485
0.0232636
0.0230087
0.0227377
0.0224903
0.0222436
0.0220032
0.0217689
0.0215406
0.0213181
0.0211012
0.0208901
0.0206844
0.0204841
0.0202895
0.0201003
0.0199166
0.0197385
0.0195657
0.0193987
0.0192371
0.0190811
0.0189307
0.0187856
0.018646
0.0185116
0.0183823
0.0182581
0.0181387
0.0180245
0.0179139
0.017808
0.0177074
0.0176109
0.0175188
0.0174314
0.0173487
0.0172709
0.017198
0.0171303
0.017068
0.0170114
0.0169593
0.0169131
0.0168726
0.0168353
0.0167976
0.0167612
0.0166843
0.0166257
0.016424
0.0165116
0.0161769
0.0170974
0.0169539
0.0192158
0.0185562
0.0184782
0.0185251
0.0185611
0.0185386
0.0184559
0.0183591
0.0182702
0.0182031
0.0181517
0.0181085
0.0180677
0.0180265
0.0179824
0.0179344
0.017884
0.0178304
0.0177745
0.0177164
0.0176548
0.0175915
0.0175253
0.0174568
0.0173855
0.0173125
0.0172378
0.0171602
0.0170813
0.0170006
0.0169183
0.0168347
0.0167497
0.0166637
0.0165767
0.0164891
0.0164012
0.0163125
0.0162233
0.0161346
0.0160464
0.0159584
0.0158706
0.0157844
0.0156985
0.0156139
0.0155315
0.0154504
0.0153712
0.0152939
0.0152188
0.0151497
0.0150896
0.0150415
0.0150115
0.0150326
0.015138
0.015365
0.0157204
0.0160247
0.0157383
0.0153033
0.0320392
0.0273766
0.027145
0.0270769
0.0269136
0.0270046
0.0269037
0.0269841
0.026861
0.0269378
0.0268003
0.0268663
0.0267196
0.0267773
0.0266236
0.0266736
0.0265135
0.0265563
0.0263901
0.0264258
0.0262536
0.0262819
0.0261036
0.0261244
0.0259398
0.0259529
0.025762
0.0257672
0.0255699
0.0255669
0.0253629
0.0253512
0.0251402
0.0251191
0.0249
0.0248684
0.0246404
0.024597
0.0243594
0.0243035
0.0240554
0.023986
0.0237268
0.0236428
0.0233715
0.0232716
0.0229872
0.0228702
0.0225717
0.0224362
0.0221221
0.0219661
0.0216349
0.0214557
0.021105
0.0208998
0.0205264
0.0202922
0.0198925
0.0196242
0.0191932
0.018885
0.018417
0.0180614
0.0175485
0.0171365
0.01657
0.0160931
0.0154716
0.0149447
0.0143006
0.0138173
0.0130893
0.0121119
0.0106979
0.00884273
0.00654808
0.00436798
0.00246462
0.0016779
0.00222418
0.00335781
0.00355956
0.00457842
0.00452768
0.00510119
0.0048428
0.00495132
0.00515021
0.00511078
0.00504797
0.00465368
0.00424986
0.00383026
0.00335915
0.00290849
0.00217341
0.00140126
0.00126963
0.00167317
0.00203868
0.00232845
0.00247689
0.00267835
0.00264072
0.00276282
0.00271977
0.00262117
0.00265763
0.00238231
0.00226543
0.00188153
0.00161114
0.00114756
0.000868386
0.000568947
0.000758971
0.00106203
0.00132814
0.00148751
0.00163569
0.00172028
0.00182279
0.00188518
0.00196778
0.00201744
0.00208531
0.00212368
0.00217903
0.00220687
0.00225163
0.0022709
0.00230739
0.00231971
0.00234989
0.00235463
0.00238518
0.00238399
0.00241209
0.00241509
0.00244104
0.00247154
0.00251961
0.00263908
0.00286205
0.0032641
0.00375072
0.00457749
0.00402808
0.00456559
0.00527354
0.00595933
0.00555679
0.002038
0.00471324
0.00356744
0.00320529
0.00424041
0.00418522
0.00314921
0.00312638
0.00417804
0.0019924
0.00196047
0.00417704
0.0031291
0.0031114
0.00415596
0.00417989
0.00313275
0.00309283
0.0041195
0.00194451
0.00192726
0.00415693
0.00311945
0.00306163
0.00406081
0.00413393
0.00309883
0.00301648
0.0039858
0.00190898
0.00188717
0.00410047
0.0030675
0.00295239
0.0038918
0.00406183
0.00302546
0.00286899
0.003774
0.00186497
0.00184155
0.00401827
0.00297386
0.0028103
0.00367215
0.00397384
0.00291251
0.0027489
0.00355769
0.00181868
0.00179699
0.00393383
0.00284406
0.00268203
0.00342381
0.00390295
0.0027725
0.00261228
0.00327191
0.00178176
0.00177368
0.00388016
0.0026975
0.0025277
0.00310354
0.00384195
0.00258609
0.00236705
0.00290851
0.00177085
0.0017624
0.00372529
0.00235149
0.00200977
0.00264734
0.00345274
0.00188333
0.00140293
0.00230751
0.00173281
0.00167935
0.00303619
0.00121416
0.000641549
0.00194621
0.0025171
0.00071557
0.000663416
0.00146764
0.00157254
0.00141173
0.00189339
0.00108043
0.000999024
0.00101348
0.00121491
0.00124059
0.00136157
0.000905896
0.00121737
0.0010067
0.000706524
0.00135784
0.00156759
0.00118719
0.00116312
0.00148391
0.00146473
0.00175953
0.00112799
0.00137661
0.00191344
0.00134492
0.00141289
0.00270191
0.00282822
0.00199231
0.00271214
0.0039169
0.00169242
0.00175504
0.00346743
0.00317876
0.00382472
0.00467495
0.00353073
0.00386527
0.00418951
0.0044251
0.00127111
0.000693921
0.0033727
0.00426324
0.00454248
0.00422245
0.00320411
0.0046458
0.00447973
0.00324305
0.00112098
0.00244815
0.00249133
0.00427909
0.00403433
0.0019068
0.00164675
0.00389601
0.00435821
0.00263339
0.00404509
0.00547333
0.00234884
0.00342317
0.00351948
0.00600969
0.00544679
0.00193864
0.0032731
0.00989713
0.00658298
0.00738489
0.00831775
0.00460718
0.00698076
0.0132823
0.0106223
0.00817322
0.0103356
0.0162463