/*--------------------------------*- C++ -*----------------------------------*\
| =========                 |                                                 |
| \\      /  F ield         | OpenFOAM: The Open Source CFD Toolbox           |
|  \\    /   O peration     | Version:  v2006                                 |
|   \\  /    A nd           | Website:  www.openfoam.com                      |
|    \\/     M anipulation  |                                                 |
\*---------------------------------------------------------------------------*/
FoamFile
{
    version     2.0;
    format      ascii;
    class       volScalarField;
    location    "0.008";
    object      Ma;
}
// * * * * * * * * * * * * * * * * * * * * * * * * * * * * * * * * * * * * * //

dimensions      [0 0 0 0 0 0 0];


internalField   nonuniform List<scalar> 
11076
(
0.173979
0.173972
0.173974
0.173982
0.173996
0.174012
0.173996
0.173896
0.173677
0.173356
0.172967
0.172551
0.172125
0.171688
0.171234
0.170758
0.170256
0.16973
0.16918
0.168606
0.168009
0.167389
0.166747
0.166083
0.165398
0.164694
0.163971
0.163229
0.162471
0.161698
0.16091
0.16011
0.159299
0.158478
0.15765
0.156815
0.155977
0.155135
0.154294
0.153453
0.152617
0.151785
0.150962
0.150148
0.149346
0.148559
0.147787
0.147033
0.1463
0.145589
0.144902
0.144242
0.14361
0.143007
0.142432
0.141883
0.141355
0.14085
0.140394
0.140049
0.139867
0.139823
0.139841
0.139859
0.139871
0.139845
0.139749
0.139552
0.139203
0.138581
0.137879
0.135327
0.13379
0.137969
0.138783
0.138956
0.137916
0.13214
0.130511
0.137781
0.139091
0.139134
0.137537
0.128982
0.127536
0.137209
0.139086
0.138959
0.136769
0.126158
0.124853
0.136322
0.138781
0.138562
0.135846
0.123631
0.122494
0.135352
0.138309
0.138022
0.134837
0.121403
0.120383
0.134311
0.137723
0.137385
0.133777
0.119389
0.118452
0.133234
0.137044
0.136665
0.132685
0.11753
0.116655
0.132128
0.13629
0.135877
0.131565
0.115786
0.114953
0.130995
0.135471
0.135027
0.130417
0.11412
0.113315
0.129834
0.134594
0.13412
0.129239
0.112504
0.111716
0.128639
0.133658
0.133155
0.128026
0.110917
0.110135
0.127405
0.132664
0.13213
0.126771
0.109341
0.10856
0.126128
0.131609
0.131042
0.12547
0.107766
0.106984
0.124804
0.13049
0.12989
0.124121
0.106186
0.105399
0.123428
0.129305
0.128669
0.122718
0.104596
0.1038
0.121997
0.128049
0.127376
0.121256
0.102987
0.102178
0.120503
0.126718
0.126006
0.11973
0.10135
0.100524
0.118942
0.125308
0.124547
0.118128
0.0996724
0.0988168
0.117295
0.123799
0.122986
0.116433
0.0979331
0.0970426
0.11555
0.122183
0.121313
0.114636
0.0961201
0.0951867
0.113697
0.120451
0.119519
0.112724
0.0942188
0.0932365
0.111723
0.118592
0.117592
0.110685
0.092215
0.0911743
0.109615
0.116594
0.115519
0.108504
0.0900895
0.0889813
0.107357
0.114444
0.113285
0.106165
0.0878238
0.086639
0.104931
0.112125
0.110877
0.103649
0.0853997
0.0841286
0.102321
0.109622
0.108273
0.100937
0.0827967
0.0814272
0.0995001
0.106913
0.10545
0.0980008
0.0799887
0.078505
0.0964387
0.103967
0.102372
0.0948042
0.0769417
0.0753235
0.0930955
0.100748
0.0989979
0.0913016
0.0736125
0.0718333
0.0894187
0.0972065
0.0952714
0.087432
0.069942
0.0679613
0.0853342
0.0932762
0.0911122
0.0831063
0.0658408
0.0635995
0.0807355
0.088862
0.0864066
0.0781947
0.0611774
0.0585826
0.075462
0.0838253
0.0809821
0.0724947
0.0557409
0.0526421
0.0692551
0.0779485
0.0745611
0.0656726
0.0491832
0.04532
0.0616778
0.0708749
0.0666793
0.0571472
0.0408928
0.0357831
0.0519414
0.0619964
0.0565316
0.0458159
0.0296638
0.0222423
0.0385753
0.0502728
0.0427053
0.0291157
0.0126491
0.00592273
0.0181001
0.0344859
0.0239312
0.00410491
0.0107982
0.0151651
0.0104939
0.0116454
0.00479983
0.0159793
0.0190025
0.0216441
0.0195539
0.00986001
0.0122412
0.0199932
0.0210654
0.0164888
0.017355
0.0118538
0.0148888
0.0155635
0.0112713
0.0107487
0.0153428
0.01523
0.0175198
0.0174212
0.0132611
0.0155491
0.0194618
0.0191999
0.0219788
0.0222288
0.0186814
0.0216567
0.024936
0.0244008
0.0262086
0.0267745
0.0237645
0.0253244
0.0281073
0.0274566
0.0277038
0.0283372
0.0258041
0.0255983
0.0278504
0.027304
0.0258735
0.02624
0.0241618
0.0218737
0.0238045
0.0236808
0.0209288
0.0208202
0.0189571
0.0158603
0.0176643
0.0180831
0.0149215
0.0141778
0.0123911
0.00858059
0.0103935
0.0115627
0.00789928
0.00621962
0.00423476
0.00103106
0.00158179
0.00402356
0.00239351
0.00322158
0.00407202
0.00716226
0.00662397
0.00515624
0.00804906
0.00963943
0.00981503
0.0119338
0.0121619
0.0105276
0.0127152
0.0143397
0.0136354
0.0146831
0.0160224
0.0144648
0.0157553
0.0172316
0.0152229
0.0152041
0.0179905
0.0167489
0.0172686
0.0183593
0.0148491
0.0142818
0.0183886
0.0175419
0.0174913
0.0183019
0.0137468
0.0134218
0.0181137
0.0172583
0.0167738
0.0178867
0.0135228
0.0138573
0.0177138
0.0162885
0.015684
0.0175421
0.0143821
0.0147354
0.0175986
0.0153708
0.0149292
0.0175789
0.0147485
0.0142677
0.0172549
0.0143495
0.0132736
0.0165238
0.0132449
0.0120422
0.0153432
0.0116399
0.00914679
0.0136498
0.0109711
0.0100346
0.011374
0.00633241
0.00364196
0.00874581
0.00907681
0.00811834
0.00635543
0.00167005
0.000937281
0.00432683
0.00703189
0.00594765
0.0027586
0.00182341
0.00277923
0.00147465
0.00493209
0.00407171
0.000514171
0.0035687
0.00425605
0.000457607
0.00333887
0.0027443
0.00107931
0.00481449
0.00530235
0.00164549
0.00223154
0.00181756
0.0020885
0.00569703
0.00604437
0.00248803
0.00145485
0.00116644
0.00279325
0.00632123
0.00656858
0.00307508
0.000909566
0.000709902
0.0032847
0.00676168
0.00693584
0.00348452
0.000527166
0.00039039
0.00362341
0.00706529
0.00718275
0.00375885
0.000263652
0.000179605
0.00384019
0.00726249
0.00733872
0.00392714
9.75009e-05
5.97105e-05
0.00396076
0.00738264
0.00742738
0.00401167
1.72093e-05
3.39519e-05
0.00398867
0.00744148
0.00745251
0.00397999
4.61649e-05
0.000145998
0.00385905
0.00739245
0.00733534
0.00373521
0.000245846
0.000407826
0.00352807
0.00720007
0.00711665
0.00340355
0.000473544
0.000450403
0.00350511
0.00722893
0.0073871
0.00377096
0.000104336
0.0136095
0.0160337
0.018168
0.0196797
0.020553
0.0218315
0.0224096
0.0233328
0.0239227
0.0249284
0.0256302
0.0267047
0.0274098
0.0280167
0.0280676
0.025986
0.0231876
0.0170219
0.0150785
0.0138558
0.0130103
0.0121479
0.0107042
0.00879111
0.00541889
0.00329469
0.00165166
0.00125253
0.00207234
0.00464843
0.00417969
0.00147731
0.0011756
0.000855091
0.000807523
0.00346396
0.00351233
0.00099534
0.00096311
0.000947054
0.000852528
0.00331715
0.00353025
0.00101812
0.000975362
0.000963738
0.00100527
0.00346052
0.00384118
0.00134441
0.00105083
0.00112281
0.00138209
0.00377906
0.0040628
0.00161777
0.00118325
0.00118993
0.00157589
0.00394033
0.00429726
0.00188079
0.00128659
0.0013238
0.00183366
0.00419237
0.00444087
0.00202666
0.00136888
0.00133598
0.00192126
0.00429498
0.00462485
0.00220236
0.00141456
0.00142849
0.00213457
0.00452366
0.0047596
0.00231845
0.0014683
0.00142072
0.00219587
0.00461878
0.00493799
0.00247455
0.0014954
0.0015016
0.00240641
0.00485086
0.00508697
0.00259515
0.00154404
0.00148995
0.00246681
0.00495791
0.00527343
0.00274951
0.00156628
0.00156742
0.00268307
0.00520107
0.00544569
0.00288535
0.00161567
0.00155736
0.00275921
0.0053322
0.00564915
0.00305124
0.00163859
0.00163692
0.00299189
0.00559439
0.00585214
0.00321303
0.00169433
0.00163316
0.00309299
0.00575889
0.00608326
0.00339911
0.00172285
0.00171917
0.00335259
0.0060509
0.00632523
0.00359661
0.00178818
0.00172684
0.00349018
0.00625812
0.00659663
0.00381396
0.00182936
0.00182598
0.00379005
0.0065932
0.00689118
0.00405901
0.00190969
0.00185446
0.00398477
0.00685842
0.00721457
0.0043221
0.00197104
0.00197382
0.00433395
0.00724785
0.00757368
0.00462784
0.0020749
0.0020291
0.00459784
0.00758494
0.00796369
0.00495252
0.00216543
0.00217791
0.00501039
0.00804446
0.00840622
0.00533908
0.00230308
0.00227272
0.00536661
0.00847336
0.00888548
0.00575164
0.0024382
0.00246619
0.00586723
0.00902542
0.00943581
0.00624617
0.00262727
0.00262156
0.00634661
0.00957417
0.010038
0.00678419
0.0028326
0.00288822
0.00697764
0.0102572
0.0107397
0.00743695
0.00311095
0.00314836
0.00764004
0.0109771
0.011528
0.00817848
0.0034458
0.00356645
0.00849852
0.0118517
0.0124725
0.00909018
0.00389166
0.00400327
0.00943748
0.0128309
0.0134907
0.0100862
0.00436342
0.00446428
0.0104538
0.0139306
0.0145672
0.0110212
0.00478157
0.0048435
0.0113633
0.0149517
0.0156101
0.0120223
0.00525246
0.00540587
0.0124466
0.0161097
0.016797
0.0131647
0.00594406
0.00625046
0.0137633
0.0173814
0.0181594
0.0145947
0.00690532
0.00737464
0.0153084
0.0188491
0.0197293
0.0162849
0.00821824
0.00901697
0.0172123
0.0205668
0.0215816
0.0183562
0.0100028
0.0110423
0.0194189
0.0225578
0.0244516
0.0209097
0.012496
0.0144491
0.0235453
0.0253328
0.0265288
0.0248826
0.0205238
0.0224758
0.0269883
0.0285266
0.0292065
0.0279219
0.02344
0.0248561
0.0290679
0.0302469
0.0315737
0.0306821
0.0268609
0.0289698
0.0324893
0.0331505
0.0349108
0.0344346
0.0311398
0.0334323
0.0365924
0.0369174
0.0391827
0.0389811
0.0358485
0.0383999
0.0416879
0.0417407
0.0452979
0.045039
0.0412071
0.043852
0.047776
0.0476683
0.0504595
0.0506427
0.0467134
0.0500158
0.0541914
0.0538762
0.05792
0.0583255
0.0535957
0.0574049
0.0635867
0.0639682
0.0679245
0.0682491
0.0612806
0.0655611
0.0732839
0.0736314
0.0787117
0.0782437
0.0706128
0.0769043
0.0840483
0.083883
0.0903259
0.0910396
0.0849494
0.0945519
0.0992905
0.0976683
0.107364
0.109253
0.1056
0.117652
0.118747
0.11543
0.123673
0.127966
0.130829
0.146067
0.13844
0.133159
0.142638
0.149398
0.162412
0.179281
0.160383
0.151935
0.160352
0.170536
0.194818
0.209722
0.178498
0.167473
0.174975
0.18727
0.222936
0.233119
0.193717
0.180007
0.18508
0.198669
0.241025
0.248128
0.203826
0.190343
0.195706
0.208894
0.255255
0.261697
0.211498
0.199072
0.198092
0.214292
0.268483
0.272163
0.227117
0.205542
0.220529
0.237406
0.268847
0.257831
0.239508
0.231735
0.233204
0.229789
0.239595
0.216956
0.214001
0.224862
0.211212
0.192175
0.19135
0.16506
0.167602
0.187206
0.16697
0.143684
0.136774
0.110706
0.121974
0.149375
0.124258
0.0994601
0.0868447
0.0650906
0.0797157
0.106006
0.0919317
0.0648868
0.0478136
0.03353
0.0491926
0.0721528
0.0579143
0.0347162
0.0212307
0.0135088
0.0259358
0.0482528
0.0292244
0.0136894
0.00617226
0.00740244
0.00276843
0.0238937
0.016708
0.0145052
0.00439928
0.00521483
0.0192766
0.0170267
0.0213921
0.0290693
0.0291366
0.0378696
0.0338096
0.0303715
0.0337822
0.0383364
0.044534
0.0518615
0.0428783
0.0348771
0.0386191
0.0489596
0.0598446
0.0683955
0.0579886
0.048582
0.0539667
0.0655203
0.0762987
0.0841055
0.072688
0.0583522
0.0686859
0.081743
0.0915866
0.0973276
0.0890554
0.0757518
0.0799907
0.092984
0.100366
0.101316
0.0937291
0.0790703
0.0836515
0.0970633
0.100657
0.0991549
0.0967142
0.0840976
0.0788952
0.0904991
0.0953662
0.0923955
0.0891363
0.081742
0.0812919
0.0868353
0.0888826
0.0855825
0.084265
0.0806121
0.0717877
0.0782259
0.0816275
0.0774753
0.0747009
0.0690928
0.0668416
0.0702672
0.0718145
0.0666128
0.0631069
0.0568635
0.054151
0.060055
0.0628693
0.0593107
0.0577112
0.0531706
0.0527257
0.0559759
0.0570725
0.0542907
0.0512768
0.0461449
0.0452278
0.0499911
0.0524242
0.0494559
0.0478509
0.044522
0.0369919
0.0420852
0.0457055
0.0440069
0.0410856
0.0363511
0.0357768
0.0397069
0.0421852
0.0394743
0.034858
0.0291984
0.0297035
0.0347681
0.0387347
0.035881
0.0326516
0.0283233
0.0199326
0.0258101
0.0312405
0.0291806
0.0242244
0.0185794
0.0178886
0.0219084
0.0252464
0.022827
0.0198261
0.0160077
0.00916182
0.0146459
0.0201294
0.0211891
0.0165983
0.0116707
0.0104455
0.0154058
0.0196293
0.015652
0.00908422
0.00375283
0.0054655
0.0104882
0.0159674
0.0122061
0.00719382
0.0025929
0.00794639
0.00129097
0.00716913
0.010618
0.00360812
0.00362626
0.008712
0.00279884
0.00497951
0.00162941
0.0089078
0.0154918
0.0135168
0.00623263
0.00337634
0.00844816
0.0149246
0.0201613
0.0268747
0.0202388
0.0128143
0.00804981
0.0182074
0.0253135
0.0322599
0.0277768
0.0213571
0.0199742
0.0278677
0.0335729
0.0407521
0.0356438
0.028272
0.0307874
0.0383543
0.0443668
0.0424487
0.0360303
0.027374
0.0359163
0.0441468
0.0494071
0.0522916
0.0465398
0.0383921
0.0359692
0.0447443
0.0507642
0.0572263
0.0523938
0.0441763
0.0458882
0.0542494
0.0598865
0.0580227
0.0520868
0.0430841
0.0509371
0.0597156
0.0645946
0.0669595
0.061504
0.0527595
0.0502372
0.0594666
0.0651424
0.0712602
0.0668342
0.0583404
0.0566905
0.0655837
0.0706905
0.0771645
0.0723419
0.0633201
0.0645446
0.0733826
0.078638
0.0767448
0.0713495
0.0622867
0.0688269
0.0780674
0.0826162
0.0842184
0.0790188
0.0697373
0.0668409
0.0765126
0.0819629
0.0878032
0.0832604
0.0737606
0.072444
0.08204
0.0870309
0.0931151
0.0887044
0.0792791
0.0802232
0.0894645
0.0944391
0.0923966
0.0872185
0.0778166
0.0837061
0.0936757
0.0983286
0.0993987
0.094212
0.0842167
0.0818994
0.092057
0.097402
0.103117
0.0988955
0.0889679
0.0875706
0.0974751
0.102234
0.108043
0.10376
0.0938556
0.0943596
0.104039
0.108799
0.106522
0.101485
0.0916752
0.0975408
0.107502
0.111618
0.110867
0.106295
0.0965018
0.102963
0.112673
0.116783
0.117651
0.113064
0.103535
0.101322
0.110918
0.115745
0.120732
0.116674
0.10679
0.106951
0.11694
0.121634
0.119702
0.114762
0.104508
0.110562
0.121112
0.12506
0.12421
0.119681
0.109258
0.115368
0.125598
0.129471
0.130324
0.125797
0.115702
0.113192
0.123425
0.128276
0.133251
0.129266
0.118472
0.116953
0.127685
0.132281
0.137449
0.133698
0.123478
0.124004
0.134074
0.138472
0.136612
0.131865
0.121757
0.12735
0.1379
0.141876
0.140859
0.136288
0.125903
0.131635
0.142032
0.145913
0.146765
0.142279
0.131942
0.12981
0.140171
0.144964
0.149867
0.146174
0.135507
0.134247
0.144756
0.14908
0.153847
0.150339
0.140279
0.140716
0.150692
0.154866
0.15305
0.148477
0.138445
0.143462
0.154188
0.158007
0.157197
0.15276
0.142188
0.148568
0.158705
0.162267
0.163284
0.159076
0.148965
0.146756
0.156975
0.161579
0.166254
0.162723
0.152064
0.150672
0.161242
0.16546
0.169982
0.166591
0.156382
0.156528
0.166801
0.170939
0.169369
0.164782
0.154554
0.160039
0.170678
0.174218
0.17347
0.16924
0.158712
0.164582
0.17476
0.178114
0.17915
0.175081
0.164843
0.162729
0.173021
0.177567
0.181985
0.178582
0.167949
0.166567
0.177115
0.181279
0.185705
0.182528
0.172533
0.172726
0.182853
0.186837
0.185384
0.180967
0.17078
0.175909
0.186626
0.190056
0.189332
0.185134
0.174508
0.180542
0.190688
0.193942
0.195002
0.190978
0.18067
0.17849
0.188906
0.193455
0.197836
0.194532
0.183718
0.182426
0.193198
0.197281
0.201685
0.198646
0.188387
0.188462
0.198949
0.20286
0.201387
0.196946
0.186448
0.191771
0.202616
0.20591
0.205312
0.201197
0.190369
0.196304
0.20664
0.209759
0.211014
0.207067
0.196539
0.194438
0.205056
0.209541
0.213744
0.210517
0.199625
0.198147
0.209088
0.213185
0.217519
0.214544
0.204164
0.204336
0.215005
0.218882
0.217527
0.213029
0.2024
0.207926
0.21878
0.222106
0.221621
0.217425
0.206549
0.212689
0.223149
0.22621
0.227397
0.223407
0.212592
0.210393
0.221321
0.225879
0.230105
0.226852
0.215658
0.21393
0.225334
0.229524
0.233962
0.231005
0.220316
0.220624
0.231636
0.235549
0.234325
0.229813
0.218836
0.224583
0.235713
0.238893
0.238318
0.234213
0.222935
0.228667
0.239624
0.242666
0.243937
0.239893
0.228531
0.226364
0.237765
0.242498
0.246822
0.243574
0.232134
0.230564
0.242235
0.246454
0.251052
0.248161
0.237235
0.238001
0.24922
0.253054
0.251789
0.247315
0.236179
0.241195
0.252779
0.256104
0.255348
0.251021
0.239169
0.245375
0.256735
0.259844
0.261302
0.257164
0.245392
0.243195
0.255135
0.259974
0.264486
0.261238
0.249323
0.248048
0.260156
0.264427
0.269348
0.266631
0.255798
0.256227
0.267455
0.271157
0.269649
0.26506
0.253396
0.258625
0.270348
0.273778
0.275311
0.270861
0.258374
0.256079
0.268807
0.273951
0.278662
0.275233
0.262563
0.26097
0.273928
0.278492
0.283748
0.280854
0.269049
0.269877
0.282073
0.28602
0.284533
0.279669
0.267373
0.272723
0.285274
0.288691
0.287987
0.2834
0.270461
0.277575
0.28974
0.292975
0.294805
0.29043
0.277732
0.275613
0.288595
0.293764
0.298609
0.295283
0.282902
0.283901
0.297024
0.30132
0.300214
0.295108
0.281983
0.287811
0.301292
0.304807
0.303731
0.29888
0.284906
0.291736
0.304868
0.30828
0.310121
0.305447
0.291703
0.289523
0.303581
0.309079
0.314195
0.310614
0.297234
0.298048
0.31232
0.317055
0.316313
0.310851
0.29666
0.304151
0.318254
0.321679
0.320645
0.315678
0.301101
0.307834
0.321687
0.325356
0.327053
0.322113
0.307648
0.305445
0.320101
0.325933
0.331201
0.327425
0.313442
0.314061
0.329013
0.334126
0.333984
0.328324
0.313502
0.321973
0.336769
0.340158
0.338802
0.333655
0.318211
0.32494
0.339507
0.343277
0.344868
0.339732
0.32443
0.322184
0.33773
0.343804
0.349637
0.34582
0.331366
0.332263
0.347806
0.352922
0.353266
0.347514
0.331995
0.341567
0.356196
0.359532
0.360639
0.355473
0.339174
0.334864
0.351871
0.358449
0.363899
0.359549
0.343491
0.34358
0.360784
0.366609
0.366015
0.359162
0.341737
0.353735
0.369097
0.372966
0.37741
0.372532
0.3562
0.353365
0.369957
0.37608
0.381179
0.376744
0.360143
0.358424
0.376499
0.382574
0.380994
0.373718
0.355084
0.366251
0.383327
0.38777
0.392143
0.386103
0.36755
0.368293
0.386647
0.393245
0.401393
0.397755
0.380562
0.377186
0.396436
0.402383
0.399611
0.391974
0.371996
0.382342
0.400867
0.405809
0.408997
0.402412
0.382393
0.381474
0.401609
0.409238
0.418465
0.415277
0.399859
0.402184
0.418532
0.423038
0.420715
0.414094
0.395927
0.403477
0.421227
0.426005
0.428567
0.422264
0.402769
0.401504
0.421494
0.428984
0.438388
0.435259
0.420102
0.42482
0.441104
0.444722
0.44681
0.441136
0.42278
0.415115
0.436114
0.444016
0.450351
0.445302
0.42584
0.426477
0.448959
0.455214
0.462786
0.456232
0.43312
0.432411
0.455232
0.463018
0.469522
0.464061
0.442076
0.437887
0.463257
0.470598
0.473486
0.464194
0.437216
0.439431
0.465772
0.475405
0.488064
0.483902
0.461339
0.456359
0.483187
0.490115
0.491236
0.48178
0.451941
0.449065
0.479391
0.490418
0.502401
0.498647
0.478243
0.479573
0.503131
0.507995
0.509599
0.502072
0.47263
0.46997
0.503244
0.512022
0.517019
0.507124
0.472807
0.465827
0.500894
0.512916
0.519476
0.511708
0.482129
0.481632
0.512399
0.51959
0.519837
0.510617
0.47668
0.467758
0.508541
0.518983
0.515252
0.502617
0.457098
0.43899
0.49288
0.507632
0.494607
0.476513
0.415517
0.3888
0.457926
0.479511
0.465946
0.441295
0.366348
0.348519
0.428167
0.455391
0.446241
0.416556
0.333962
0.320887
0.406548
0.438501
0.430877
0.396728
0.309399
0.298981
0.388205
0.424308
0.41762
0.379649
0.289817
0.281366
0.372348
0.411927
0.405861
0.36484
0.273873
0.266961
0.358489
0.400732
0.39518
0.351837
0.260789
0.255141
0.346336
0.390575
0.385434
0.340494
0.250084
0.245481
0.335773
0.381255
0.376547
0.330653
0.241367
0.23764
0.326638
0.372811
0.368444
0.322167
0.23432
0.231323
0.318751
0.36505
0.36105
0.314837
0.228658
0.226272
0.311951
0.358031
0.354334
0.30855
0.22416
0.222415
0.306041
0.351599
0.34824
0.303052
0.220741
0.219524
0.300976
0.34584
0.342733
0.298352
0.218198
0.217386
0.296577
0.340665
0.337842
0.294261
0.21632
0.215827
0.292835
0.336093
0.333509
0.29081
0.214985
0.214728
0.289612
0.332057
0.329732
0.287826
0.21404
0.213962
0.286911
0.328598
0.326472
0.285353
0.213416
0.213474
0.284608
0.325539
0.323617
0.283224
0.213014
0.213168
0.282696
0.32291
0.321161
0.281495
0.212806
0.213042
0.281096
0.320659
0.319077
0.280026
0.212727
0.213012
0.2798
0.318752
0.317306
0.278874
0.212764
0.213097
0.278739
0.317141
0.315826
0.277911
0.212873
0.213231
0.277913
0.315796
0.314587
0.277199
0.213055
0.213445
0.277265
0.314678
0.313569
0.276623
0.213282
0.213683
0.2768
0.313763
0.312737
0.276249
0.213558
0.213982
0.276465
0.31302
0.31207
0.275964
0.21386
0.214286
0.276267
0.312426
0.311542
0.275837
0.214194
0.214641
0.276163
0.311961
0.311142
0.275769
0.214551
0.215
0.276166
0.311609
0.310836
0.275824
0.214929
0.215391
0.276228
0.311347
0.310628
0.275911
0.215322
0.215785
0.276375
0.311172
0.310483
0.276095
0.215729
0.216201
0.276554
0.311059
0.310417
0.276293
0.216146
0.216621
0.276805
0.311016
0.310396
0.276574
0.216579
0.217061
0.277074
0.311018
0.310437
0.276855
0.217017
0.217497
0.277397
0.311071
0.310506
0.2772
0.217463
0.217947
0.277724
0.311154
0.31062
0.277532
0.217906
0.218385
0.278091
0.311275
0.31075
0.277914
0.218351
0.218832
0.27845
0.311413
0.310916
0.278274
0.218791
0.219264
0.278842
0.31158
0.311088
0.278678
0.219228
0.219701
0.279219
0.311757
0.311289
0.279053
0.219656
0.22012
0.279621
0.311955
0.311485
0.279457
0.220075
0.220537
0.279997
0.312153
0.311703
0.279824
0.220483
0.220935
0.280389
0.312364
0.31191
0.280215
0.22088
0.221327
0.280749
0.31257
0.312134
0.280566
0.22126
0.221695
0.281123
0.312786
0.312342
0.280939
0.221626
0.222055
0.281464
0.312992
0.312564
0.281269
0.221974
0.22239
0.281816
0.313205
0.312768
0.281618
0.222306
0.222714
0.282132
0.313405
0.312982
0.281923
0.222619
0.223014
0.282458
0.313609
0.313176
0.282246
0.222916
0.223305
0.282745
0.313799
0.31338
0.282524
0.223196
0.223573
0.283042
0.313994
0.313564
0.282819
0.223462
0.223834
0.283302
0.314174
0.313756
0.28307
0.223712
0.224072
0.283573
0.314357
0.313928
0.283339
0.223947
0.224302
0.283808
0.314524
0.314108
0.283565
0.224167
0.22451
0.284054
0.314694
0.314265
0.283809
0.224373
0.224711
0.284264
0.314849
0.314432
0.28401
0.224565
0.224892
0.284486
0.315005
0.314575
0.28423
0.224744
0.225068
0.284673
0.315146
0.314727
0.284408
0.22491
0.225223
0.284872
0.315288
0.314856
0.284606
0.225064
0.225374
0.285036
0.315414
0.314993
0.284762
0.225207
0.225508
0.285214
0.315542
0.315108
0.284939
0.22534
0.225638
0.285358
0.315655
0.315231
0.285075
0.225461
0.225751
0.285516
0.315769
0.315332
0.285231
0.225574
0.225862
0.28564
0.315868
0.315441
0.285348
0.225677
0.225957
0.285779
0.315969
0.315528
0.285486
0.225772
0.22605
0.285885
0.316054
0.315624
0.285585
0.225858
0.226128
0.286006
0.316141
0.315698
0.285705
0.225936
0.226205
0.286095
0.316213
0.31578
0.285787
0.226006
0.226268
0.286199
0.316288
0.31584
0.285891
0.22607
0.226331
0.286272
0.316347
0.31591
0.285957
0.226126
0.226381
0.28636
0.316409
0.315958
0.286046
0.226176
0.226431
0.286419
0.316456
0.316016
0.286097
0.226219
0.226468
0.286493
0.316506
0.316052
0.286172
0.226258
0.226507
0.286538
0.316543
0.316099
0.28621
0.226291
0.226534
0.2866
0.316582
0.316125
0.286273
0.226319
0.226563
0.286633
0.316609
0.316163
0.2863
0.226343
0.226581
0.286683
0.316639
0.31618
0.286352
0.226363
0.226603
0.286706
0.316657
0.316208
0.286369
0.226379
0.226614
0.286748
0.316679
0.316218
0.286412
0.226393
0.22663
0.286763
0.316691
0.31624
0.286422
0.226404
0.226636
0.286797
0.316707
0.316244
0.286459
0.226413
0.226648
0.286807
0.316713
0.316262
0.286464
0.226421
0.226653
0.286837
0.316726
0.316263
0.286498
0.226429
0.226664
0.286844
0.31673
0.316279
0.2865
0.226437
0.226668
0.286872
0.316742
0.31628
0.286532
0.226445
0.22668
0.286878
0.316746
0.316296
0.286535
0.226453
0.226686
0.286906
0.316758
0.316298
0.286568
0.226463
0.2267
0.286914
0.316764
0.316316
0.286572
0.226475
0.226709
0.286945
0.316779
0.316321
0.286607
0.226488
0.226727
0.286955
0.316788
0.316343
0.286614
0.226503
0.226739
0.286988
0.316807
0.316351
0.286653
0.22652
0.226761
0.287002
0.31682
0.316377
0.286664
0.226538
0.226777
0.287039
0.316842
0.316389
0.286706
0.22656
0.226804
0.287058
0.316861
0.316423
0.286723
0.226585
0.22683
0.287104
0.316893
0.316448
0.286777
0.226618
0.226876
0.287164
0.316931
0.316508
0.286845
0.226666
0.227003
0.287218
0.316999
0.316595
0.286922
0.226815
0.227113
0.287351
0.317118
0.316746
0.287074
0.22693
0.227396
0.287628
0.317445
0.317206
0.287526
0.227238
0.228237
0.288565
0.318703
0.319846
0.289407
0.228893
0.231284
0.292015
0.323664
0.328484
0.295865
0.234785
0.239341
0.300623
0.333574
0.337724
0.305217
0.244155
0.367585
0.384586
0.392295
0.402351
0.410234
0.413412
0.416245
0.423988
0.428305
0.43338
0.437339
0.440293
0.442609
0.444342
0.445634
0.446589
0.447299
0.447834
0.448243
0.448562
0.448813
0.449014
0.449175
0.449306
0.449412
0.449496
0.449564
0.449608
0.449643
0.449657
0.449666
0.44976
0.449801
0.449843
0.449897
0.44995
0.450003
0.450055
0.450102
0.450144
0.45018
0.450205
0.450218
0.45022
0.450208
0.45018
0.450134
0.450072
0.449997
0.449912
0.449803
0.449649
0.449455
0.44923
0.448976
0.448692
0.448376
0.448025
0.447636
0.447206
0.446731
0.446207
0.445629
0.444992
0.444288
0.443511
0.442653
0.441704
0.440656
0.439499
0.438222
0.436814
0.435265
0.433563
0.431697
0.429656
0.427432
0.425016
0.422403
0.419586
0.416566
0.413341
0.409917
0.406297
0.402493
0.398513
0.394372
0.390085
0.385666
0.381136
0.376508
0.371804
0.367037
0.36223
0.357395
0.352547
0.347705
0.342877
0.338078
0.333319
0.328606
0.323952
0.319359
0.314836
0.310388
0.306016
0.301728
0.297522
0.293402
0.28937
0.285424
0.281568
0.277799
0.274118
0.270525
0.267017
0.263596
0.260259
0.257006
0.253834
0.250743
0.247731
0.244796
0.241937
0.239151
0.236437
0.233793
0.231216
0.228707
0.226261
0.223878
0.221557
0.219297
0.217096
0.214953
0.21287
0.210845
0.208878
0.206969
0.205119
0.203328
0.201596
0.199923
0.198308
0.196752
0.195252
0.193809
0.192421
0.191086
0.189803
0.18857
0.187387
0.186251
0.185162
0.18412
0.183126
0.182179
0.181281
0.180433
0.179638
0.178898
0.178214
0.177586
0.177013
0.176497
0.176045
0.175649
0.1753
0.174996
0.174737
0.174517
0.174332
0.17418
0.174062
0.173982
0.173945
0.173945
0.173961
0.173968
0.17398
0.17399
0.173972
0.173884
0.173685
0.173372
0.172983
0.172561
0.172128
0.171687
0.171231
0.170754
0.170253
0.169727
0.169177
0.168604
0.168008
0.16739
0.166749
0.166087
0.165404
0.164701
0.163979
0.16324
0.162483
0.161711
0.160925
0.160126
0.159315
0.158495
0.157667
0.156833
0.155995
0.155153
0.154311
0.15347
0.152633
0.151801
0.150976
0.150161
0.149358
0.148568
0.147794
0.147038
0.146302
0.145587
0.144897
0.144233
0.143595
0.142986
0.142403
0.141839
0.14129
0.140757
0.140284
0.139955
0.139823
0.139835
0.139897
0.139945
0.139976
0.139957
0.139847
0.139884
0.139876
0.139829
0.13975
0.13964
0.139503
0.13934
0.139154
0.138944
0.138714
0.138463
0.138194
0.137904
0.137597
0.13727
0.136928
0.136565
0.136186
0.135787
0.135372
0.134936
0.134484
0.13401
0.13352
0.133008
0.132478
0.131925
0.131353
0.130758
0.130142
0.129497
0.128828
0.128128
0.127402
0.126644
0.125858
0.125037
0.124185
0.123297
0.122374
0.121412
0.120412
0.11937
0.118287
0.11716
0.115986
0.114764
0.11349
0.112161
0.110773
0.109323
0.107805
0.106215
0.104547
0.102793
0.100944
0.098993
0.0969246
0.0947294
0.0923869
0.0898818
0.087185
0.0842731
0.0811066
0.077657
0.0738852
0.0697916
0.0654083
0.060813
0.0561603
0.0507829
0.0444349
0.0366927
0.0282888
0.0178472
0.00840948
0.00359476
0.00875549
0.0139007
0.0159797
0.0194218
0.0217432
0.0237084
0.0250924
0.0255379
0.0255618
0.0244903
0.0228299
0.0204758
0.018208
0.0156059
0.0129717
0.0101129
0.00706059
0.00451482
0.00412755
0.0057687
0.00779005
0.00972156
0.0112728
0.0124298
0.0134032
0.013845
0.0140872
0.0137998
0.0132561
0.012168
0.0110113
0.00917983
0.00744022
0.00490182
0.0031971
0.0016999
0.00260179
0.0038666
0.00488962
0.0058954
0.00669703
0.00745438
0.00813205
0.00874069
0.0092859
0.00976133
0.0101826
0.0105447
0.0108648
0.011138
0.0113797
0.0115849
0.0117661
0.0119194
0.0120563
0.0121735
0.012278
0.0123694
0.0124524
0.0125287
0.0126049
0.0126884
0.01278
0.0129094
0.0130703
0.0132608
0.0134319
0.0159732
0.0159035
0.0180052
0.0180956
0.0196094
0.0193965
0.0195815
0.0177838
0.0157693
0.015806
0.0181201
0.017944
0.0157836
0.0158615
0.0181891
0.0193306
0.019106
0.0179985
0.0158146
0.0158618
0.0181428
0.0179361
0.0157866
0.0157927
0.0180195
0.0188874
0.018665
0.0177989
0.0156862
0.0156486
0.0178409
0.0176029
0.0155112
0.0154274
0.0176121
0.0184288
0.0181712
0.0173528
0.0152569
0.0151204
0.0173317
0.0170449
0.0149123
0.0147183
0.01699
0.0178901
0.0175867
0.0166672
0.0144688
0.0142121
0.016572
0.0162207
0.0139029
0.0135736
0.0160816
0.0172709
0.0169654
0.0157025
0.0131959
0.01279
0.0155183
0.0151241
0.0123448
0.0118741
0.0148994
0.0167083
0.0165366
0.014511
0.0113731
0.0108569
0.0142499
0.0138607
0.0102708
0.00966166
0.0135387
0.0164457
0.0163387
0.0130466
0.00883909
0.0080081
0.0125719
0.0117889
0.00670763
0.00557677
0.0111201
0.0160569
0.0155084
0.0100199
0.00387266
0.00250746
0.00937629
0.0079015
0.00256258
0.00196034
0.00742337
0.0146087
0.0132676
0.00562344
0.00443492
0.004584
0.00545009
0.00353169
0.00610277
0.00620758
0.00393238
0.0116395
0.0101592
0.00242203
0.00640831
0.00604065
0.00388247
0.00411147
0.00543667
0.00505276
0.00558018
0.00966562
0.0110683
0.00686052
0.00478124
0.00514991
0.00850879
0.0102446
0.00691991
0.00897947
0.0122842
0.0139286
0.0151927
0.0131717
0.0108185
0.0130365
0.0146839
0.0145701
0.0145716
0.0156916
0.0140771
0.0127014
0.00756738
0.0148599
0.0173663
0.0182043
0.0139202
0.0152306
0.0199152
0.0199862
0.0120114
0.0068464
0.0215409
0.0123233
0.0207701
0.0202356
0.00782521
0.00573024
0.0196597
0.0178939
0.00749281
0.0356339
0.0471476
0.0100839
0.0138949
0.0121488
0.0168874
0.0240582
0.00456016
0.0102026
0.030527
0.056759
0.0649725
0.0372182
0.0173207
0.0249726
0.043689
0.0497225
0.0333582
0.041554
0.0564855
0.0718224
0.0772451
0.0617098
0.0489756
0.0552217
0.0666812
0.0702158
0.0603166
0.0644962
0.0733709
0.0812261
0.0844753
0.0759563
0.068007
0.0712645
0.0784608
0.0810039
0.074484
0.0778297
0.0835776
0.0878082
0.0914999
0.0862212
0.0810266
0.0841429
0.0886993
0.091214
0.0870362
0.0897796
0.093489
0.0953531
0.0991573
0.0958107
0.0923284
0.094737
0.0978696
0.0999862
0.0969865
0.099118
0.101845
0.102791
0.106194
0.103773
0.101122
0.103025
0.105455
0.107215
0.104826
0.10654
0.108741
0.109349
0.112263
0.110352
0.10817
0.109725
0.11174
0.113217
0.111212
0.112632
0.114479
0.114949
0.117424
0.11584
0.113992
0.11529
0.116995
0.11825
0.116539
0.117727
0.11931
0.119705
0.121807
0.120467
0.118878
0.11997
0.121441
0.122509
0.121033
0.122036
0.123405
0.123743
0.125526
0.12439
0.123018
0.123941
0.125214
0.126121
0.124846
0.125694
0.126877
0.127166
0.128676
0.127713
0.126527
0.127306
0.128406
0.129176
0.128075
0.12879
0.129813
0.130067
0.131345
0.130521
0.129498
0.130154
0.131104
0.131753
0.130804
0.131404
0.132282
0.132511
0.133566
0.132874
0.131999
0.132546
0.133354
0.133894
0.133091
0.133595
0.134335
0.134528
0.135405
0.13483
0.134097
0.134559
0.135233
0.135682
0.13502
0.135442
0.136048
0.136199
0.136911
0.136455
0.135863
0.136247
0.136786
0.137149
0.136628