/*--------------------------------*- C++ -*----------------------------------*\
| =========                 |                                                 |
| \\      /  F ield         | OpenFOAM: The Open Source CFD Toolbox           |
|  \\    /   O peration     | Version:  v2006                                 |
|   \\  /    A nd           | Website:  www.openfoam.com                      |
|    \\/     M anipulation  |                                                 |
\*---------------------------------------------------------------------------*/
FoamFile
{
    version     2.0;
    format      ascii;
    class       volScalarField;
    location    "0.14";
    object      alphat;
}
// * * * * * * * * * * * * * * * * * * * * * * * * * * * * * * * * * * * * * //

dimensions      [1 -1 -1 0 0 0 0];


internalField   nonuniform List<scalar> 
16277
(
41.4073
29.7067
90.8228
21.1617
30.7454
16.2192
6.44471
2.6227
1.41312
0.953834
0.750259
0.646947
0.585042
0.540083
0.502304
0.468366
0.437496
0.409726
0.385088
0.363415
0.344374
0.327566
0.312612
0.299188
0.287037
0.275962
0.265814
0.256476
0.247857
0.239882
0.232487
0.225617
0.219228
0.213279
0.207735
0.202568
0.19775
0.193261
0.189078
0.185184
0.181563
0.178201
0.175086
0.172206
0.169552
0.167117
0.164892
0.162872
0.161053
0.15943
0.158002
0.156767
0.155725
0.154876
0.154221
0.153766
0.153515
0.153475
0.153653
0.154053
0.154689
0.155574
0.156723
0.158155
0.159893
0.16196
0.164389
0.167217
0.17049
0.174271
0.178639
0.1837
0.189591
0.196471
0.204497
0.213779
0.224321
0.236045
0.249056
0.264493
0.286352
0.325972
0.412484
0.621753
1.15806
2.43466
4.29839
4.59655
2.72382
1.79915
0.885934
0.403972
0.219659
0.103639
0.0245576
0.00441852
0.0001464
0.000127054
0.00207673
0.00956442
0.00527017
0.00134567
0.00011128
9.96369e-05
0.00122688
0.00443177
0.00353617
0.00105454
9.20689e-05
8.61342e-05
0.00102197
0.00335343
0.00290156
0.000920533
8.108e-05
7.76728e-05
0.000904697
0.00282632
0.00257243
0.000843074
7.43144e-05
7.24985e-05
0.000848154
0.00254625
0.00238182
0.000803042
7.02801e-05
6.90875e-05
0.00081025
0.00236723
0.00224242
0.000773925
6.74508e-05
6.66265e-05
0.000781079
0.00223589
0.00213273
0.000750269
6.53479e-05
6.47501e-05
0.000757219
0.0021307
0.00204133
0.000730108
6.37118e-05
6.32626e-05
0.000737033
0.00204219
0.00196266
0.000712411
6.23848e-05
6.20307e-05
0.000719366
0.00196542
0.00189328
0.000696439
6.12596e-05
6.09713e-05
0.000703312
0.0018973
0.00183098
0.000681711
6.02783e-05
6.0036e-05
0.0006885
0.00183591
0.0017744
0.000668008
5.94e-05
5.91902e-05
0.000674728
0.00178
0.00172256
0.000655201
5.85972e-05
5.84113e-05
0.00066186
0.00172874
0.0016747
0.00064318
5.78522e-05
5.76844e-05
0.000649776
0.00168141
0.00163039
0.000631842
5.71523e-05
5.69987e-05
0.000638373
0.00163754
0.0015892
0.000621111
5.64887e-05
5.63462e-05
0.000627577
0.00159675
0.00155086
0.000610929
5.58546e-05
5.5721e-05
0.000617344
0.00155876
0.0015151
0.000601272
5.52451e-05
5.51191e-05
0.000607641
0.00152328
0.00148163
0.0005921
5.46568e-05
5.45375e-05
0.000598417
0.00149002
0.00145017
0.000583359
5.40867e-05
5.39731e-05
0.00058962
0.00145872
0.00142048
0.000575001
5.3532e-05
5.34233e-05
0.000581202
0.00142913
0.00139234
0.000566979
5.299e-05
5.28854e-05
0.000573115
0.00140106
0.00136558
0.000559246
5.24582e-05
5.23568e-05
0.000565311
0.00137432
0.00134001
0.000551759
5.19342e-05
5.18353e-05
0.000557746
0.00134875
0.00131551
0.000544475
5.14156e-05
5.13185e-05
0.000550381
0.00132422
0.00129195
0.000537362
5.09003e-05
5.08042e-05
0.000543182
0.0013006
0.00126922
0.000530389
5.03863e-05
5.02906e-05
0.00053612
0.0012778
0.00124722
0.00052353
4.98715e-05
4.97756e-05
0.000529171
0.00125571
0.00122588
0.000516763
4.93541e-05
4.92576e-05
0.000522314
0.00123428
0.00120514
0.000510072
4.88326e-05
4.87348e-05
0.000515534
0.00121344
0.00118495
0.000503447
4.83052e-05
4.8206e-05
0.000508822
0.00119316
0.00116529
0.00049688
4.77707e-05
4.76698e-05
0.000502188
0.0011734
0.00114612
0.000490376
4.72278e-05
4.71254e-05
0.000495674
0.00115417
0.00112746
0.000483958
4.66763e-05
4.65724e-05
0.000489228
0.00113544
0.00110929
0.0004776
4.61154e-05
4.60099e-05
0.000482865
0.00111723
0.00109163
0.000471326
4.55445e-05
4.54378e-05
0.000476607
0.00109955
0.0010745
0.000465162
4.49638e-05
4.48562e-05
0.000470487
0.00108244
0.00105795
0.000459147
4.43737e-05
4.42658e-05
0.000464547
0.00106596
0.00104208
0.000453326
4.37753e-05
4.36682e-05
0.000458847
0.00105037
0.00102705
0.000447772
4.31706e-05
4.30657e-05
0.000453467
0.0010358
0.00101299
0.000442569
4.25628e-05
4.24621e-05
0.000448492
0.00102226
0.00100004
0.000437809
4.19561e-05
4.1862e-05
0.000444027
0.00100999
0.00098843
0.000433608
4.13558e-05
4.12716e-05
0.000440202
0.000999272
0.000978478
0.000430106
4.07687e-05
4.06992e-05
0.000437165
0.000990419
0.000970513
0.000427483
4.0203e-05
4.01563e-05
0.000434985
0.000983771
0.000964923
0.000425862
3.96763e-05
3.96455e-05
0.00043349
0.000979577
0.000961826
0.000424851
3.92094e-05
3.91833e-05
0.000432715
0.000978328
0.000961698
0.000424685
3.88012e-05
3.87788e-05
0.000432784
0.000980042
0.000964501
0.000425427
3.84854e-05
3.84469e-05
0.000433666
0.000984534
0.000970123
0.000427056
3.82588e-05
3.82081e-05
0.000435243
0.000991421
0.000978031
0.000429158
3.80409e-05
3.80639e-05
0.000437209
0.00100051
0.000988106
0.000431379
3.78993e-05
3.79849e-05
0.000439146
0.00101146
0.000999861
0.000433633
3.78386e-05
3.80002e-05
0.000440765
0.00102299
0.00101182
0.000435577
3.78789e-05
3.80931e-05
0.000442094
0.00103403
0.00102308
0.000436978
3.79966e-05
3.82518e-05
0.000443359
0.00104408
0.00103333
0.000438089
3.81808e-05
3.84723e-05
0.00044436
0.00105291
0.00104241
0.000439106
3.84257e-05
3.87462e-05
0.000445261
0.00106045
0.00105014
0.000439652
3.87201e-05
3.90579e-05
0.000445922
0.00106681
0.00105628
0.000439995
3.90509e-05
3.93971e-05
0.000446358
0.00107175
0.00106057
0.000440158
3.94064e-05
3.97518e-05
0.000446565
0.0010759
0.00106353
0.000440198
3.97744e-05
4.01106e-05
0.000446631
0.00107839
0.00106482
0.000439898
4.01438e-05
4.04639e-05
0.000446558
0.00107915
0.0010636
0.00043914
4.05045e-05
4.0802e-05
0.000445833
0.00107773
0.00106104
0.000438156
4.0845e-05
4.11131e-05
0.000444864
0.00107489
0.00105743
0.000437062
4.11552e-05
4.13905e-05
0.000443758
0.00107084
0.00105281
0.000435935
4.14294e-05
4.16304e-05
0.000442551
0.00106564
0.0010473
0.000434815
4.16642e-05
4.1831e-05
0.000441308
0.00105949
0.00104106
0.000433729
4.18584e-05
4.19929e-05
0.000440061
0.00105257
0.00103423
0.000432677
4.20132e-05
4.21182e-05
0.000438808
0.00104502
0.00102691
0.000431639
4.21315e-05
4.22055e-05
0.000437543
0.00103703
0.00101917
0.000430588
4.22159e-05
4.22653e-05
0.000436252
0.00102883
0.00101125
0.000429507
4.22728e-05
4.23024e-05
0.000434934
0.00102053
0.00100327
0.0004284
4.23073e-05
4.2326e-05
0.000433616
0.00101232
0.000995267
0.000427229
4.23218e-05
4.23346e-05
0.000432276
0.00100413
0.000987145
0.000425888
4.231e-05
4.23218e-05
0.00043088
0.000995876
0.000979017
0.000424509
4.22832e-05
4.22874e-05
0.000429402
0.000987526
0.000970846
0.00042307
4.22431e-05
4.22505e-05
0.000427897
0.000979284
0.000962817
0.000421609
4.21995e-05
4.21971e-05
0.000426342
0.000971035
0.000954711
0.000420106
4.21478e-05
4.21472e-05
0.000424794
0.000962893
0.000946565
0.000418517
4.2081e-05
4.20843e-05
0.000423147
0.000954737
0.000938516
0.000416905
4.20203e-05
4.20136e-05
0.000421452
0.000946587
0.000930473
0.000415165
4.19453e-05
4.19435e-05
0.000419696
0.000938487
0.000922449
0.000413374
4.18467e-05
4.18851e-05
0.000417961
0.000930562
0.000913974
0.0004116
4.17504e-05
4.17955e-05
0.000415759
0.000923036
0.000906926
0.000408715
4.15937e-05
4.18499e-05
0.000416055
0.000920703
0.000909405
0.00041544
4.17377e-05
4.24227e-05
0.00041614
0.000919433
0.000962875
0.000437571
4.27364e-05
4.55273e-05
0.000410358
0.00093612
0.00142954
0.000596367
5.13557e-05
5.54214e-05
0.000309308
0.000709985
0.00175149
0.00401382
0.0075035
0.0106976
0.0128832
0.016934
0.0195203
0.0218409
0.0231474
0.0237723
0.0235966
0.0225467
0.021052
0.0186547
0.0163043
0.012741
0.0111324
0.00810039
0.00606039
0.0041164
0.00234009
0.00107365
0.000391793
0.0001627
3.12359e-05
2.03413e-05
0.00014998
0.000354702
0.000334994
0.000142532
1.96257e-05
1.88956e-05
0.000137808
0.000317921
0.000318883
0.000136011
1.87124e-05
1.85966e-05
0.000135343
0.000313821
0.000314081
0.000134053
1.84215e-05
1.84086e-05
0.000134027
0.000313704
0.000314642
0.000134111
1.84378e-05
1.84419e-05
0.000134288
0.000315307
0.000315806
0.000134504
1.84653e-05
1.84799e-05
0.000134738
0.000316769
0.000317218
0.000134953
1.85016e-05
1.85275e-05
0.000135172
0.000318194
0.000318735
0.000135433
1.85167e-05
1.85506e-05
0.000135747
0.000319791
0.000320367
0.000135931
1.85665e-05
1.86021e-05
0.000136205
0.000321397
0.000321907
0.00013634
1.86003e-05
1.86059e-05
0.000136781
0.000323034
0.000323543
0.000136882
1.86482e-05
1.86525e-05
0.00013725
0.000324669
0.000325207
0.000137422
1.86676e-05
1.86761e-05
0.000137844
0.000326422
0.000326983
0.000137981
1.87192e-05
1.87276e-05
0.000138392
0.000328202
0.000328767
0.000138583
1.87482e-05
1.87526e-05
0.00013899
0.000330024
0.000330608
0.000139172
1.8798e-05
1.88079e-05
0.000139583
0.000331867
0.00033246
0.000139785
1.88257e-05
1.88327e-05
0.000140232
0.000333785
0.000334395
0.000140421
1.88808e-05
1.88887e-05
0.000140848
0.000335724
0.000336354
0.000141082
1.8909e-05
1.89194e-05
0.000141541
0.000337722
0.000338359
0.000141801
1.89528e-05
1.89874e-05
0.00014217
0.000339782
0.000340453
0.000142443
1.89971e-05
1.90097e-05
0.000142964
0.00034189
0.000342561
0.00014323
1.90414e-05
1.90803e-05
0.000143656
0.000344009
0.000344697
0.000143912
1.90899e-05
1.91028e-05
0.000144468
0.000346209
0.000346924
0.000144756
1.91385e-05
1.91795e-05
0.000145167
0.000348378
0.000349062
0.000145409
1.91841e-05
1.91958e-05
0.000145984
0.000350543
0.000351225
0.00014625
1.92308e-05
1.92693e-05
0.000146668
0.000352654
0.000353315
0.000146907
1.92743e-05
1.92869e-05
0.000147478
0.000354758
0.000355414
0.000147713
1.93195e-05
1.9358e-05
0.000148133
0.000356832
0.000357462
0.000148351
1.93623e-05
1.93733e-05
0.000148928
0.000358928
0.000359488
0.000149154
1.94052e-05
1.94414e-05
0.000149535
0.000360848
0.000361407
0.000149693
1.94408e-05
1.94505e-05
0.000150236
0.000362731
0.000363321
0.000150412
1.94832e-05
1.95203e-05
0.000150754
0.000364548
0.000365024
0.000150828
1.95184e-05
1.95236e-05
0.000151215
0.000366071
0.00036638
0.000151122
1.95564e-05
1.95532e-05
0.000151376
0.000367333
0.000367517
0.0001513
1.95603e-05
1.95518e-05
0.000151397
0.000368197
0.000368219
0.000151143
1.95754e-05
1.95617e-05
0.00015114
0.000368702
0.000368821
0.000150862
1.95629e-05
1.95453e-05
0.000150704
0.000369144
0.000369121
0.000150309
1.95535e-05
1.9559e-05
0.00014986
0.000369207
0.000368887
0.000149301
1.9532e-05
1.95059e-05
0.000148766
0.000368812
0.000367937
0.000147906
1.95033e-05
1.94972e-05
0.000147008
0.00036783
0.00036656
0.000145909
1.94647e-05
1.94316e-05
0.000144897
0.000366174
0.000364664
0.000143407
1.94258e-05
1.93934e-05
0.000142295
0.000364278
0.000362593
0.000140798
1.93748e-05
1.93465e-05
0.000139512
0.000361778
0.000359739
0.000137831
1.93456e-05
1.93597e-05
0.000136349
0.000359273
0.000357727
0.00013478
1.93731e-05
1.94393e-05
0.000133683
0.000358414
0.000357442
0.000132374
1.95145e-05
1.96096e-05
0.000131202
0.000357978
0.000357199
0.00012971
1.97023e-05
1.98513e-05
0.000128895
0.000358698
0.000360828
0.000127647
2.0036e-05
2.02293e-05
0.000126939
0.000364952
0.000370633
0.000128419
2.04393e-05
2.06412e-05
0.000128986
0.000375287
0.000378093
0.000128277
2.06964e-05
2.08399e-05
0.000125945
0.000383821
0.000390296
0.000132748
2.11345e-05
2.13451e-05
0.000128867
0.000395922
0.000400819
0.000132013
2.16904e-05
2.19306e-05
0.00013352
0.000410188
0.000412975
0.000136148
2.22771e-05
2.27959e-05
0.000143208
0.000425346
0.000427294
0.000147035
2.33258e-05
2.38053e-05
0.000153495
0.000437972
0.000441916
0.000159246
2.47503e-05
2.66481e-05
0.000186087
0.000463907
0.000461486
0.000196685
2.0009e-05
1.56312e-05
4.88817e-05
0.000129087
0.000360709
0.000111635
1.7943e-05
1.89205e-05
0.000100582
0.000331386
0.000349901
0.000104747
1.93927e-05
1.9702e-05
9.86712e-05
0.000333866
0.000358689
0.000106143
2.02636e-05
2.08614e-05
0.0001044
0.000353506
0.000387696
0.000118032
2.15106e-05
2.22023e-05
0.000117087
0.000379879
0.00041662
0.00013761
2.31971e-05
2.45859e-05
0.000142615
0.000420733
0.00047188
0.000173365
2.73147e-05
2.08309e-05
0.000193454
0.00048164
0.000128807
4.64133e-05
1.70028e-05
1.95923e-05
0.000121273
0.000403739
0.00039459
0.000113086
2.14124e-05
2.2775e-05
0.000148442
0.000488235
0.000497636
0.000149823
2.36705e-05
2.49788e-05
0.000173664
0.000552354
0.000569776
0.000184101
2.65411e-05
2.98782e-05
0.000220709
0.000619866
0.000600308
0.000236005
2.30722e-05
1.71943e-05
5.29252e-05
0.000159036
0.000490596
0.000145178
2.0961e-05
2.26726e-05
0.000135043
0.000480687
0.000552763
0.00016727
2.42194e-05
2.60351e-05
0.000167953
0.000545308
0.000626151
0.000216557
3.01013e-05
2.40967e-05
0.000252751
0.000629499
0.000170123
5.65672e-05
1.82431e-05
2.18746e-05
0.000152831
0.00055741
0.000574435
0.000161196
2.4814e-05
2.89651e-05
0.000230273
0.000742705
0.000778071
0.000270106
3.37947e-05
2.77583e-05
0.000315558
0.000784651
0.000217993
6.66611e-05
1.9262e-05
2.39003e-05
0.000205458
0.000692904
0.000689569
0.000198868
2.80948e-05
3.53012e-05
0.00029933
0.000878643
0.000895328
0.000354689
2.95637e-05
2.0365e-05
7.68964e-05
0.000273303
0.000901128
0.000266014
2.79085e-05
3.53268e-05
0.00028027
0.000969575
0.00134554
0.000473837
4.83464e-05
4.02363e-05
0.000504437
0.00129152
0.000456143
0.000119772
2.62609e-05
4.66328e-05
0.000486296
0.00140042
0.00139894
0.00051788
4.33893e-05
2.89776e-05
0.000130421
0.000546852
0.00194755
0.000646519
6.49534e-05
6.40818e-05
0.000747495
0.00211773
0.000964479
0.00026642
4.07553e-05
6.49245e-05
0.000867605
0.00252811
0.00167011
0.00055392
4.3234e-05
8.02917e-05
0.000976849
0.00196968
0.00168935
0.000817157
6.60132e-05
6.67775e-05
0.00077815
0.00185147
0.00237195
0.000857618
7.64762e-05
0.000105521
0.00159893
0.00394783
0.000879024
0.000273247
5.99222e-05
6.13465e-05
0.000766039
0.00175537
0.000542649
0.000193895
4.27589e-05
4.65215e-05
0.00047276
0.0011376
0.000971775
0.000350026
4.6064e-05
2.70544e-05
9.28233e-05
0.000279607
0.000657625
0.000385062
3.10674e-05
2.91451e-05
0.000119472
0.000300481
0.000726712
0.000317295
3.32546e-05
3.54459e-05
0.000258577
0.000657021
0.0002131
8.00662e-05
2.33849e-05
2.76609e-05
0.000250679
0.00056545
0.00051872
0.000208778
3.11122e-05
2.17592e-05
6.81308e-05
0.000173871
0.000481061
0.000213901
2.52577e-05
2.91126e-05
0.000185737
0.000443254
0.000154329
6.41293e-05
2.1179e-05
2.38844e-05
0.00019156
0.000427159
0.000387257
0.0001678
2.78951e-05
2.07473e-05
5.89136e-05
0.00013762
0.000376605
0.000172328
2.26416e-05
2.72399e-05
0.000152847
0.000342369
0.000123371
5.62201e-05
2.05935e-05
2.20055e-05
0.000159812
0.000338848
0.000304182
0.000140463
2.62392e-05
2.00668e-05
5.26388e-05
0.000113486
0.000306826
0.000146778
2.09743e-05
2.55343e-05
0.000130036
0.000278443
0.000108945
5.19162e-05
2.00445e-05
2.09964e-05
0.000149028
0.000298743
0.000252829
0.000119949
2.66366e-05
2.21378e-05
9.60632e-05
0.000207079
8.2098e-05
3.9403e-05
1.90354e-05
1.81379e-05
0.000103092
0.000209106
0.00019767
9.66461e-05
2.2876e-05
1.77522e-05
3.75435e-05
8.04274e-05
0.000187974
9.6217e-05
1.71207e-05
2.20946e-05
8.7119e-05
0.000174067
7.26108e-05
3.7363e-05
1.83757e-05
1.70797e-05
9.03638e-05
0.000168847
0.000161242
8.61416e-05
2.18055e-05
1.75572e-05
3.53586e-05
7.07959e-05
0.000158967
8.55952e-05
1.65668e-05
2.15209e-05
8.01526e-05
0.000149172
6.61415e-05
3.39871e-05
1.70973e-05
1.5904e-05
7.7708e-05
0.000143058
0.000138671
7.72737e-05
2.09988e-05
1.80241e-05
3.38084e-05
6.31565e-05
0.000140737
7.83871e-05
1.63421e-05
2.1119e-05
7.55732e-05
0.000133864
6.22218e-05
3.37927e-05
1.78086e-05
1.59187e-05
7.23911e-05
0.000127631
0.000123456
7.11826e-05
2.07805e-05
1.7757e-05
3.01877e-05
5.55676e-05
0.000108844
8.62846e-05
1.54327e-05
1.94209e-05
3.78557e-05
6.2885e-05
0.000143408
8.04696e-05
1.72199e-05
2.17663e-05
7.54332e-05
0.000132711
6.38829e-05
3.68712e-05
1.78538e-05
1.63074e-05
7.89018e-05
0.000132582
0.000124908
7.28663e-05
2.13888e-05
1.78242e-05
3.72031e-05
6.29865e-05
0.000131625
7.92958e-05
1.63361e-05
2.132e-05
7.31282e-05
0.000124322
6.15916e-05
3.72283e-05
1.77542e-05
1.61794e-05
7.48176e-05
0.000119733
0.000113563
6.73106e-05
2.13329e-05
1.77228e-05
3.63528e-05
5.76575e-05
0.0001101
6.93974e-05
1.57991e-05
2.0795e-05
6.4879e-05
0.000104685
5.18525e-05
3.33651e-05
1.77712e-05
1.50202e-05
7.37388e-05
9.23389e-05
5.57663e-05
3.8092e-05
1.91905e-05
1.68954e-05
6.69734e-05
0.000109999
9.99851e-05
6.14179e-05
2.15401e-05
1.75995e-05
3.68757e-05
5.33237e-05
9.90567e-05
6.46434e-05
1.5659e-05
2.06076e-05
5.97927e-05
9.00324e-05
4.87139e-05
3.48896e-05
1.77606e-05
1.48935e-05
6.6207e-05
8.27009e-05
5.25624e-05
3.83716e-05
1.93662e-05
1.68038e-05
6.45667e-05
0.000100891
9.10689e-05
5.89232e-05
2.1302e-05
1.7471e-05
3.70754e-05
5.06636e-05
9.35746e-05
6.24032e-05
1.55302e-05
2.05447e-05
5.67815e-05
8.49276e-05
4.67915e-05
3.50193e-05
1.76663e-05
1.48138e-05
6.15979e-05
7.57942e-05
4.92379e-05
3.76942e-05
1.93648e-05
1.65948e-05
6.02701e-05
9.31119e-05
8.35478e-05
5.5564e-05
2.11858e-05
1.7439e-05
3.71266e-05
4.73109e-05
8.41347e-05
5.74291e-05
1.5496e-05
2.06003e-05
5.24328e-05
7.63687e-05
4.26033e-05
3.37792e-05
1.63546e-05
1.41635e-05
5.28016e-05
6.74981e-05
4.47673e-05
3.53372e-05
1.90783e-05
1.61742e-05
5.61067e-05
8.23815e-05
7.36067e-05
5.07195e-05
2.07082e-05
1.72877e-05
3.5115e-05
4.26041e-05
6.64303e-05
5.59332e-05
1.43657e-05
1.90656e-05
3.7467e-05
4.4997e-05
8.14226e-05
5.36318e-05
1.61128e-05
2.11502e-05
4.96967e-05
7.31705e-05
4.24366e-05
3.55675e-05
1.70512e-05
1.43445e-05
5.33145e-05
6.53501e-05
4.47432e-05
3.75037e-05
1.89645e-05
1.58416e-05
5.44299e-05
8.01364e-05
7.17197e-05
4.98662e-05
2.07353e-05
1.6724e-05
3.58131e-05
4.21046e-05
6.48137e-05
5.37031e-05
1.41027e-05
1.90959e-05
3.76598e-05
4.44943e-05
7.89286e-05
5.33832e-05
1.61332e-05
2.10498e-05
4.94304e-05
7.08897e-05
4.23234e-05
3.68944e-05
1.76177e-05
1.46074e-05
5.49032e-05
6.37347e-05
4.44413e-05
3.90589e-05
1.91745e-05
1.61174e-05
5.23981e-05
7.76305e-05
6.93376e-05
4.84655e-05
2.09641e-05
1.65477e-05
3.60546e-05
4.10296e-05
6.1468e-05
5.20962e-05
1.40716e-05
1.87987e-05
3.87296e-05
4.38873e-05
6.68114e-05
5.13213e-05
1.50991e-05
1.96289e-05
3.99521e-05
4.63022e-05
7.90102e-05
5.26682e-05
1.64686e-05
2.09334e-05
4.89951e-05
7.03731e-05
4.26459e-05
3.76643e-05
1.7091e-05
1.4243e-05
5.42781e-05
6.3126e-05
4.45874e-05
4.03024e-05
1.92788e-05
1.6169e-05
5.21914e-05
7.61066e-05
6.83226e-05
4.85694e-05
2.10828e-05
1.65384e-05
3.6933e-05
4.12087e-05
6.07061e-05
5.16913e-05
1.43435e-05
1.90848e-05
3.95991e-05
4.41442e-05
6.57666e-05
5.10405e-05
1.54511e-05
1.95936e-05
4.10898e-05
4.62882e-05
7.75283e-05
5.22019e-05
1.6219e-05
2.09933e-05
4.88246e-05
6.91311e-05
4.27483e-05
3.8995e-05
1.76913e-05
1.4488e-05
5.54038e-05
6.17412e-05
4.59452e-05
4.26634e-05
1.92883e-05
1.54907e-05
5.27409e-05
6.76549e-05
4.78761e-05
4.32662e-05
1.98219e-05
1.65339e-05
5.29495e-05
7.90968e-05
7.0605e-05
4.98124e-05
2.13854e-05
1.7091e-05
3.98268e-05
4.36506e-05
6.27902e-05
5.54105e-05
1.43582e-05
1.92392e-05
4.27645e-05
4.65173e-05
6.77241e-05
5.33402e-05
1.5461e-05
1.98133e-05
4.36517e-05
4.8331e-05
7.93621e-05
5.36047e-05
1.65163e-05
2.12659e-05
5.05626e-05
7.0883e-05
4.45905e-05
4.13422e-05
1.77526e-05
1.47406e-05
5.69461e-05
6.35964e-05
4.77455e-05
4.46484e-05
1.95796e-05
1.58606e-05
5.47363e-05
6.90102e-05
4.95628e-05
4.50953e-05
1.99186e-05
1.64793e-05
5.40015e-05
7.99624e-05
7.14478e-05
5.10227e-05
2.11489e-05
1.80728e-05
4.13939e-05
4.48011e-05
6.23608e-05
5.75119e-05
1.48573e-05
1.9513e-05
4.41998e-05
4.69657e-05
6.70424e-05
5.3417e-05
1.57579e-05
2.00358e-05
4.47628e-05
4.84417e-05
7.70988e-05
5.28028e-05
1.66037e-05
2.14129e-05
5.02716e-05
6.92594e-05
4.44866e-05
4.20164e-05
1.83665e-05
1.49803e-05
5.72747e-05
6.20218e-05
4.71425e-05
4.44922e-05
1.93868e-05
1.53844e-05
5.26502e-05
6.64609e-05
4.9429e-05
4.52247e-05
1.96656e-05
1.56566e-05
5.40333e-05
6.91041e-05
5.08086e-05
4.78269e-05
1.99527e-05
1.66316e-05
5.51325e-05
7.95053e-05
7.10799e-05
5.22802e-05
2.12961e-05
1.69031e-05
4.25998e-05
4.53908e-05
6.38357e-05
5.70688e-05
1.46386e-05
1.95624e-05
4.52253e-05
4.83755e-05
6.70147e-05
5.39886e-05
1.57689e-05
1.9895e-05
4.57884e-05
5.03035e-05
6.94592e-05
5.43591e-05
1.57651e-05
2.00099e-05
4.85647e-05
5.15301e-05
7.94276e-05
5.55011e-05
1.66188e-05
2.13495e-05
5.28463e-05
7.11578e-05
4.67296e-05
4.45377e-05
1.8242e-05
1.48958e-05
6.0026e-05
6.38602e-05
4.93478e-05
4.71676e-05
1.97162e-05
1.58326e-05
5.43751e-05
6.8557e-05
5.17009e-05
4.77135e-05
2.00709e-05
1.60322e-05
5.62461e-05
7.09016e-05
5.3047e-05
5.04784e-05
2.02796e-05
1.68845e-05
5.71158e-05
8.07914e-05
7.26354e-05
5.4368e-05
2.15563e-05
1.82872e-05
4.56955e-05
4.82242e-05
6.5122e-05
6.13131e-05
1.49876e-05
1.97673e-05
4.80264e-05
5.0539e-05
6.86945e-05
5.51463e-05
1.57484e-05
2.00633e-05
4.79377e-05
5.20511e-05
7.03796e-05
5.59188e-05
1.5949e-05
2.0366e-05
5.05695e-05
5.31092e-05
7.9474e-05
5.65129e-05
1.68407e-05
2.16203e-05
5.41664e-05
7.20667e-05
4.78644e-05
4.53272e-05
1.71437e-05
1.49834e-05
5.82897e-05
6.46526e-05
5.08713e-05
4.84182e-05
1.99858e-05
1.58451e-05
5.66785e-05
6.8825e-05
5.2612e-05
4.87173e-05
2.00104e-05
1.57608e-05
5.55207e-05
7.04792e-05
5.4105e-05
5.01422e-05
2.00354e-05
1.60676e-05
5.85941e-05
7.24965e-05
5.51441e-05
5.31691e-05
2.02864e-05
1.68642e-05
5.90183e-05
8.1621e-05
7.39451e-05
5.64149e-05
2.1602e-05
1.8645e-05
4.75932e-05
5.03036e-05
6.57094e-05
6.23633e-05
1.51385e-05
1.99919e-05
4.95918e-05
5.21369e-05
6.88968e-05
5.61892e-05
1.60337e-05
2.03364e-05
5.00148e-05
5.36334e-05
7.05762e-05
5.64127e-05
1.59838e-05
2.01853e-05
5.14214e-05
5.48015e-05
7.29205e-05
5.93297e-05
1.61524e-05
2.04033e-05
5.43247e-05
5.59135e-05
8.26963e-05
5.99978e-05
1.69488e-05
2.18129e-05
5.77281e-05
7.51268e-05
5.1927e-05
5.00657e-05
1.84518e-05
1.51123e-05
6.44114e-05
6.75634e-05
5.40065e-05
5.19395e-05
1.99826e-05
1.58153e-05
5.86951e-05
7.20745e-05
5.60492e-05
5.20953e-05
2.02741e-05
1.61346e-05
5.94078e-05
7.37744e-05
5.73172e-05
5.37348e-05
2.02714e-05
1.61508e-05
6.20604e-05
7.57954e-05
5.83537e-05
5.64588e-05
2.04877e-05
1.71468e-05
6.20247e-05
8.47693e-05
7.72672e-05
5.95549e-05
2.18587e-05
1.88113e-05
5.13363e-05
5.3858e-05
6.86124e-05
6.53988e-05
1.55203e-05
2.02195e-05
5.31162e-05
5.56218e-05
7.21939e-05
5.9413e-05
1.61696e-05
2.06042e-05
5.29842e-05
5.72686e-05
7.35196e-05
5.91829e-05
1.63069e-05
2.05576e-05
5.44965e-05
5.80849e-05
7.5588e-05
6.19808e-05
1.64848e-05
2.07139e-05
5.77815e-05
5.89149e-05
8.46507e-05
6.30155e-05
1.71528e-05
2.21096e-05
6.08547e-05
7.77683e-05
5.49934e-05
5.3121e-05
1.87236e-05
1.54341e-05
6.69239e-05
6.99563e-05
5.70442e-05
5.47059e-05
2.03112e-05
1.61738e-05
6.09731e-05
7.40507e-05
5.90892e-05
5.49578e-05
2.06469e-05
1.63789e-05
6.15041e-05
7.59445e-05
6.0349e-05
5.63886e-05
2.05328e-05
1.64554e-05
6.42131e-05
7.77357e-05
6.09028e-05
5.92166e-05
2.06822e-05
1.7176e-05
6.42346e-05
8.63119e-05
7.90395e-05
6.20611e-05
2.2212e-05
1.91909e-05
5.41442e-05
5.64104e-05
6.97347e-05
6.77843e-05
1.56701e-05
2.04193e-05
5.54852e-05
5.77971e-05
7.27291e-05
6.05891e-05
1.62318e-05
2.07804e-05
5.56594e-05
5.92632e-05
7.42875e-05
6.10505e-05
1.64653e-05
2.06392e-05
5.67732e-05
6.02413e-05
7.62259e-05
6.31411e-05
1.64347e-05
2.05487e-05
5.8789e-05
6.17169e-05
7.89109e-05
6.62172e-05
1.64117e-05
2.07536e-05
6.16113e-05
6.26085e-05
8.87718e-05
6.67074e-05
1.72818e-05
2.24321e-05
6.4693e-05
8.17444e-05
5.86508e-05
5.6666e-05
1.84244e-05
1.54035e-05
7.03273e-05
7.39165e-05
6.13279e-05
5.91919e-05
2.06599e-05
1.64869e-05
6.56841e-05
7.77788e-05
6.31312e-05
5.93128e-05
2.08176e-05
1.6494e-05
6.58958e-05
8.0008e-05
6.47041e-05
6.09836e-05
2.06551e-05
1.65175e-05
6.907e-05
8.28326e-05
6.60863e-05
6.4115e-05
2.09098e-05
1.74932e-05
6.93986e-05
9.18438e-05
8.42052e-05
6.71522e-05
2.26565e-05
1.90274e-05
5.91536e-05
6.11213e-05
7.55663e-05
7.28995e-05
1.57238e-05
2.07569e-05
6.0708e-05
6.3355e-05
7.8252e-05
6.64827e-05
1.6597e-05
2.09833e-05
6.04247e-05
6.45396e-05
7.93474e-05
6.63699e-05
1.67664e-05
2.08739e-05
6.18928e-05
6.54298e-05
8.13889e-05
6.8634e-05
1.66751e-05
2.11247e-05
6.49793e-05
6.60996e-05
9.04214e-05
6.92841e-05
1.75837e-05
2.30126e-05
6.75575e-05
8.35219e-05
6.16902e-05
6.01188e-05
1.87779e-05
1.55891e-05
7.31867e-05
7.58974e-05
6.44606e-05
6.27751e-05
2.0976e-05
1.67719e-05
6.89443e-05
7.9562e-05
6.62326e-05
6.27711e-05
2.10799e-05
1.66792e-05
6.83647e-05
8.1415e-05
6.74097e-05
6.4307e-05
2.09601e-05
1.68409e-05
7.09927e-05
8.41886e-05
6.88784e-05
6.78343e-05
2.14215e-05
1.78201e-05
7.20766e-05
9.33275e-05
8.59421e-05
7.03353e-05
2.31737e-05
1.93071e-05
6.3062e-05
6.43975e-05
7.83553e-05
7.6648e-05
1.59151e-05
2.09784e-05
6.43274e-05
6.66757e-05
8.07787e-05
6.96604e-05
1.6763e-05
2.13268e-05
6.4381e-05
6.79788e-05
8.20113e-05
6.99662e-05
1.68921e-05
2.13706e-05
6.62073e-05
6.90543e-05
8.42256e-05
7.19906e-05
1.70127e-05
2.18391e-05
6.97973e-05
6.99487e-05
9.34648e-05
7.32024e-05
1.82858e-05
2.38516e-05
7.19489e-05
8.67261e-05
6.64699e-05
6.60756e-05
1.97147e-05
1.63863e-05
7.85071e-05
8.04105e-05
6.91271e-05
6.7894e-05
2.13807e-05
1.70411e-05
7.41472e-05
8.42431e-05
7.11388e-05
6.82654e-05
2.16948e-05
1.70559e-05
7.42731e-05
8.66594e-05
7.20236e-05
7.09445e-05
2.20248e-05
1.849e-05
7.40649e-05
9.48699e-05
8.76706e-05
7.29434e-05
2.43051e-05
2.0419e-05
6.72714e-05
6.7792e-05
7.97637e-05
7.89848e-05
1.67488e-05
2.17072e-05
6.82513e-05
6.95743e-05
8.26151e-05
7.30647e-05
1.72946e-05
2.21173e-05
6.86648e-05
7.11441e-05
8.46919e-05
7.33642e-05
1.74647e-05
2.25795e-05
7.2174e-05
7.19319e-05
9.30072e-05
7.41936e-05
1.86937e-05
2.45785e-05
7.34232e-05
8.66287e-05
6.79887e-05
6.77437e-05
1.97447e-05
1.63661e-05
7.90552e-05
7.97101e-05
7.07888e-05
7.01279e-05
2.19167e-05
1.7315e-05
7.49026e-05
8.42279e-05
7.27617e-05
7.099e-05
2.23551e-05
1.77288e-05
7.50216e-05
8.65915e-05
7.3905e-05
7.39422e-05
2.27846e-05
1.88597e-05
7.5814e-05
9.43777e-05
8.79756e-05
7.54109e-05
2.50921e-05
2.10418e-05
7.082e-05
7.08935e-05
8.11425e-05
8.18221e-05
1.70745e-05
2.2373e-05
7.19423e-05
7.22415e-05
8.41186e-05
7.53154e-05
1.77135e-05
2.27518e-05
7.25305e-05
7.39598e-05
8.66534e-05
7.60155e-05
1.79886e-05
2.34214e-05
7.65263e-05
7.50561e-05
9.53039e-05
7.73418e-05
1.94769e-05
2.56598e-05
7.71252e-05
8.92503e-05
7.2507e-05
7.37354e-05
2.11012e-05
1.72504e-05
8.42465e-05
8.38102e-05
7.48225e-05
7.55805e-05
2.29003e-05
1.81549e-05
7.90536e-05
8.79937e-05
7.73123e-05
7.63332e-05
2.34376e-05
1.86774e-05
7.95194e-05
9.11148e-05
7.9143e-05
8.06368e-05
2.42356e-05
2.01207e-05
8.14993e-05
9.96994e-05
9.34531e-05
8.14226e-05
2.66222e-05
2.18297e-05
7.72208e-05
7.6702e-05
8.73579e-05
8.81757e-05
1.78248e-05
2.34612e-05
7.9102e-05
7.86119e-05
9.12219e-05
8.24206e-05
1.8681e-05
2.46303e-05
8.17204e-05
8.03049e-05
9.9436e-05
8.17708e-05
2.04976e-05
2.698e-05
8.12742e-05
9.35094e-05
7.73548e-05
7.91561e-05
2.25405e-05
1.82589e-05
8.8932e-05
8.82763e-05
8.00074e-05
8.13755e-05
2.41928e-05
1.92048e-05
8.42249e-05
9.25671e-05
8.25855e-05
8.26483e-05
2.48985e-05
1.98335e-05
8.46443e-05
9.64931e-05
8.50831e-05
8.76344e-05
2.58201e-05
2.14617e-05
8.79534e-05
0.000105975
9.95296e-05
8.81791e-05
2.83748e-05
2.30929e-05
8.491e-05
8.33917e-05
9.40231e-05
9.56377e-05
1.87401e-05
2.51184e-05
8.73428e-05
8.62697e-05
9.92794e-05
9.00121e-05
2.01126e-05
2.64061e-05
9.04387e-05
8.81108e-05
0.00010841
8.99233e-05
2.15753e-05
2.87901e-05
9.01372e-05
0.000102416
8.64052e-05
8.86801e-05
2.42321e-05
1.9917e-05
9.77155e-05
9.71634e-05
8.93118e-05
9.18136e-05
2.6475e-05
2.12195e-05
9.36878e-05
0.000103138
9.22154e-05
9.55557e-05
2.78725e-05
2.32506e-05
9.44473e-05
0.000112975
0.000106712
9.49466e-05
3.07334e-05
2.51142e-05
9.295e-05
9.0717e-05
0.000101953
0.000102579
2.03565e-05
2.76993e-05
9.76097e-05
9.34728e-05
0.000112424
9.57559e-05
2.31003e-05
3.08352e-05
9.56512e-05
0.000106976
9.09469e-05
9.22189e-05
2.507e-05
2.00114e-05
0.000103271
0.000101309
9.35599e-05
9.51855e-05
2.72447e-05
2.1851e-05
9.62629e-05
0.000105771
9.56418e-05
9.90053e-05
2.90082e-05
2.41618e-05
9.68097e-05
0.000114757
0.000109194
9.81187e-05
3.21312e-05
2.63529e-05
9.73012e-05
9.47404e-05
0.000104701
0.000105344
2.16466e-05
2.9274e-05
0.000102725
9.7242e-05
0.000114563
9.94039e-05
2.4535e-05
3.27445e-05
9.96462e-05
0.000109489
9.59951e-05
9.89464e-05
2.69804e-05
2.18156e-05
0.000106835
0.000105377
9.78487e-05
0.000103516
2.9352e-05
2.39464e-05
9.9405e-05
0.000114934
0.000110057
0.00010025
3.26528e-05
2.72524e-05
9.91201e-05
9.65942e-05
0.000105595
0.000106181
2.23523e-05
3.04502e-05
0.000105277
9.93099e-05
0.000115127
0.00010091
2.52797e-05
3.40765e-05
0.000101771
0.000110442
9.85511e-05
0.000102414
2.81138e-05
2.2812e-05
0.000108765
0.000107165
0.000100785
0.000107517
3.07466e-05
2.53874e-05
0.000102348
0.000116654
0.000111935
0.000102962
3.41252e-05
2.79786e-05
0.000103018
9.96834e-05
0.000108085
0.000111474
2.18778e-05
3.04732e-05
0.000108343
0.000101884
0.00011735
0.000102483
2.57542e-05
3.51413e-05
0.000103623
0.000112839
0.000101971
0.000106965
2.91586e-05
2.38516e-05
0.000111292
0.000109927
0.000105273
0.000113858
3.24529e-05
2.7084e-05
0.000108222
0.00012181
0.000117222
0.000109446
3.63481e-05
3.00367e-05
0.000111911
0.000106541
0.000115099
0.000116779
2.43691e-05
3.30749e-05
0.00011875
0.000109517
0.000126872
0.000112943
2.72369e-05
3.61483e-05
0.000112552
0.000122093
0.000110528
0.000119949
3.14119e-05
2.71614e-05
0.000119519
0.000124936
0.000120949
0.000118957
3.77106e-05
3.17359e-05
0.000118178
0.000112253
0.000121238
0.000122057
2.60571e-05
3.53677e-05
0.000125026
0.000116437
0.000132844
0.000118323
2.95978e-05
3.95226e-05
0.000120035
0.000128095
0.000117766
0.000128052
3.33003e-05
2.82785e-05
0.000127011