/*--------------------------------*- C++ -*----------------------------------*\
| =========                 |                                                 |
| \\      /  F ield         | OpenFOAM: The Open Source CFD Toolbox           |
|  \\    /   O peration     | Version:  v2006                                 |
|   \\  /    A nd           | Website:  www.openfoam.com                      |
|    \\/     M anipulation  |                                                 |
\*---------------------------------------------------------------------------*/
FoamFile
{
    version     2.0;
    format      ascii;
    class       volScalarField;
    location    "0.14";
    object      nut;
}
// * * * * * * * * * * * * * * * * * * * * * * * * * * * * * * * * * * * * * //

dimensions      [0 2 -1 0 0 0 0];


internalField   nonuniform List<scalar> 
16277
(
24.0067
17.2223
52.6531
12.2693
17.8247
9.40323
3.73636
1.5205
0.819237
0.552958
0.43493
0.375029
0.339133
0.313063
0.291155
0.271475
0.253573
0.23747
0.223182
0.210614
0.19957
0.189823
0.18115
0.173363
0.166315
0.159891
0.154003
0.148587
0.143586
0.138959
0.134668
0.130682
0.126974
0.123522
0.120305
0.117305
0.114509
0.111903
0.109474
0.107214
0.105111
0.103158
0.101349
0.0996758
0.0981339
0.0967183
0.0954248
0.0942501
0.0931914
0.0922468
0.0914148
0.0906947
0.0900864
0.0895902
0.0892059
0.0889373
0.088787
0.0887584
0.0888562
0.0890828
0.0894457
0.0899523
0.0906117
0.091435
0.0924346
0.0936251
0.0950245
0.0966544
0.098542
0.100722
0.103242
0.106163
0.109563
0.113534
0.118168
0.123527
0.129614
0.136384
0.143897
0.152811
0.165436
0.188321
0.238295
0.359184
0.668997
1.40646
2.4831
2.65533
1.5735
1.03933
0.511787
0.233361
0.126886
0.0598641
0.0141836
0.00255185
8.45542e-05
7.33874e-05
0.00119942
0.00552392
0.00304384
0.000777231
6.42808e-05
5.75592e-05
0.000708649
0.00255969
0.00204248
0.00060913
5.31902e-05
4.9764e-05
0.000590342
0.00193699
0.00167604
0.000531765
4.68455e-05
4.48783e-05
0.000522632
0.00163262
0.00148599
0.000487045
4.29387e-05
4.18902e-05
0.000489989
0.00147089
0.00137594
0.000463936
4.06089e-05
3.99202e-05
0.000468107
0.00136752
0.00129544
0.000447126
3.89747e-05
3.84985e-05
0.000451263
0.00129168
0.00123209
0.000433466
3.77598e-05
3.74143e-05
0.000437484
0.00123093
0.0011793
0.000421822
3.68143e-05
3.65546e-05
0.000425824
0.0011798
0.00113386
0.000411598
3.60471e-05
3.58423e-05
0.000415615
0.00113545
0.00109377
0.000402367
3.53965e-05
3.52295e-05
0.000406336
0.00109609
0.00105777
0.000393854
3.48288e-05
3.46883e-05
0.000397773
0.00106061
0.00102507
0.000385931
3.43204e-05
3.41987e-05
0.000389809
0.00102829
0.000995101
0.000378524
3.38557e-05
3.37477e-05
0.000382366
0.000998659
0.000967436
0.00037157
3.34241e-05
3.33266e-05
0.000375374
0.000971294
0.000941809
0.000365009
3.30187e-05
3.29293e-05
0.000368776
0.000945926
0.000917992
0.000358798
3.2634e-05
3.2551e-05
0.000362526
0.000922335
0.000895815
0.000352903
3.22664e-05
3.21885e-05
0.000356602
0.000900357
0.000875123
0.000347311
3.19129e-05
3.18393e-05
0.000350982
0.000879829
0.000855754
0.000341998
3.15715e-05
3.15018e-05
0.000345639
0.000860584
0.000837547
0.000336934
3.12406e-05
3.11742e-05
0.000340542
0.000842465
0.00082036
0.00033209
3.09185e-05
3.08549e-05
0.000335663
0.000825338
0.00080407
0.000327439
3.06037e-05
3.05424e-05
0.000330974
0.000809084
0.000788571
0.000322955
3.02948e-05
3.02353e-05
0.000326448
0.000793599
0.000773765
0.000318612
2.99902e-05
2.99322e-05
0.00032206
0.000778788
0.000759571
0.000314387
2.96888e-05
2.96317e-05
0.000317786
0.000764575
0.000745919
0.000310259
2.93892e-05
2.93327e-05
0.000313608
0.00075089
0.000732745
0.000306211
2.90903e-05
2.9034e-05
0.000309509
0.000737672
0.000719994
0.000302229
2.87909e-05
2.87344e-05
0.000305475
0.000724869
0.000707621
0.0002983
2.84899e-05
2.84331e-05
0.000301492
0.000712441
0.000695594
0.000294414
2.81865e-05
2.81289e-05
0.000297555
0.000700357
0.000683887
0.000290566
2.78797e-05
2.78213e-05
0.000293656
0.000688595
0.000672481
0.000286751
2.75687e-05
2.75093e-05
0.000289802
0.000677137
0.000661363
0.000282972
2.7253e-05
2.71927e-05
0.000286017
0.000665977
0.000650536
0.000279243
2.69321e-05
2.68709e-05
0.000282271
0.000655115
0.000639995
0.000275548
2.66059e-05
2.65438e-05
0.000278573
0.000644547
0.000629744
0.000271902
2.62739e-05
2.62111e-05
0.000274936
0.000634284
0.0006198
0.00026832
2.59363e-05
2.58729e-05
0.000271379
0.000624352
0.000610197
0.000264823
2.55933e-05
2.55298e-05
0.000267925
0.000614789
0.000600984
0.00026144
2.52455e-05
2.51825e-05
0.000264611
0.000605736
0.000592256
0.00025821
2.48942e-05
2.48325e-05
0.000261482
0.000597273
0.000584094
0.000255185
2.45412e-05
2.4482e-05
0.000258588
0.000589409
0.000576567
0.000252415
2.4189e-05
2.41336e-05
0.000255989
0.000582281
0.000569822
0.000249969
2.38406e-05
2.3791e-05
0.00025376
0.000576049
0.000564035
0.000247928
2.35e-05
2.3459e-05
0.000251988
0.000570896
0.000559398
0.000246396
2.3172e-05
2.31442e-05
0.000250711
0.00056702
0.000556136
0.000245443
2.28667e-05
2.28482e-05
0.000249832
0.000564564
0.000554316
0.000244845
2.25961e-05
2.25805e-05
0.000249371
0.000563811
0.000554214
0.000244737
2.23597e-05
2.23464e-05
0.000249399
0.000564774
0.000555809
0.000245156
2.21769e-05
2.21544e-05
0.000249899
0.000567346
0.000559037
0.000246088
2.20459e-05
2.20165e-05
0.000250805
0.000571306
0.00056359
0.000247298
2.19202e-05
2.19335e-05
0.000251939
0.000576548
0.000569402
0.000248581
2.18389e-05
2.18885e-05
0.00025306
0.00058287
0.000576193
0.000249887
2.18046e-05
2.18982e-05
0.000254003
0.000589536
0.000583112
0.000251019
2.18289e-05
2.1953e-05
0.000254782
0.000595928
0.000589631
0.000251841
2.18981e-05
2.2046e-05
0.000255527
0.000601757
0.00059558
0.000252498
2.20058e-05
2.21747e-05
0.000256122
0.00060689
0.000600857
0.000253103
2.21487e-05
2.23345e-05
0.000256662
0.000611279
0.000605359
0.000253439
2.23204e-05
2.25161e-05
0.000257064
0.000614997
0.000608951
0.000253658
2.2513e-05
2.27137e-05
0.000257337
0.000617891
0.00061147
0.000253772
2.27199e-05
2.29202e-05
0.000257478
0.000620332
0.000613222
0.000253816
2.29341e-05
2.3129e-05
0.000257536
0.000621819
0.000614013
0.000253663
2.3149e-05
2.33345e-05
0.000257513
0.000622298
0.00061335
0.000253244
2.33588e-05
2.35312e-05
0.000257113
0.000621523
0.000611915
0.000252693
2.35567e-05
2.37121e-05
0.00025657
0.000619921
0.000609867
0.000252077
2.37371e-05
2.38735e-05
0.000255945
0.000617614
0.000607233
0.00025144
2.38965e-05
2.40131e-05
0.000255261
0.000614645
0.000604079
0.000250804
2.40331e-05
2.41298e-05
0.000254554
0.000611117
0.000600502
0.000250187
2.4146e-05
2.4224e-05
0.000253843
0.00060715
0.000596576
0.000249588
2.4236e-05
2.42969e-05
0.000253128
0.000602807
0.000592372
0.000248996
2.43049e-05
2.43479e-05
0.000252405
0.000598212
0.000587915
0.000248396
2.43541e-05
2.4383e-05
0.000251666
0.000593495
0.000583359
0.000247778
2.43875e-05
2.44048e-05
0.000250911
0.000588716
0.000578768
0.000247144
2.44078e-05
2.44187e-05
0.000250154
0.000583993
0.00057416
0.00024647
2.44164e-05
2.44238e-05
0.000249382
0.000579277
0.000569485
0.000245699
2.44098e-05
2.44167e-05
0.000248579
0.000574523
0.000564803
0.000244905
2.43945e-05
2.43972e-05
0.00024773
0.000569714
0.000560095
0.000244078
2.43718e-05
2.4376e-05
0.000246862
0.000564963
0.000555467
0.000243236
2.43468e-05
2.43456e-05
0.000245969
0.000560213
0.000550795
0.00024237
2.43167e-05
2.43161e-05
0.000245075
0.000555519
0.000546107
0.000241457
2.42781e-05
2.42801e-05
0.000244129
0.00055082
0.000541467
0.000240529
2.42435e-05
2.42403e-05
0.000243155
0.000546124
0.000536824
0.000239527
2.42008e-05
2.41996e-05
0.000242142
0.000541452
0.000532206
0.000238498
2.41441e-05
2.41661e-05
0.000241144
0.000536886
0.000527321
0.000237475
2.40884e-05
2.41151e-05
0.000239878
0.000532552
0.000523256
0.000235813
2.39986e-05
2.41466e-05
0.000240047
0.000531205
0.000524695
0.000239695
2.40821e-05
2.44771e-05
0.000240097
0.000530473
0.000555544
0.000252467
2.46583e-05
2.62676e-05
0.000236759
0.000540101
0.000824753
0.00034407
2.9629e-05
3.19792e-05
0.000178484
0.00040969
0.00101065
0.00231587
0.00432914
0.00617188
0.00743287
0.00976997
0.0112621
0.012601
0.0133548
0.0137154
0.013614
0.0130084
0.0121461
0.010763
0.00940697
0.00735109
0.00642302
0.00467372
0.00349673
0.00237513
0.00135025
0.000619506
0.000226125
9.3873e-05
1.80116e-05
1.17341e-05
8.65325e-05
0.000204695
0.000193328
8.22433e-05
1.13228e-05
1.0902e-05
7.95218e-05
0.000183479
0.000184017
7.8486e-05
1.07976e-05
1.07312e-05
7.80999e-05
0.000181088
0.000181235
7.73546e-05
1.06302e-05
1.06227e-05
7.734e-05
0.000181019
0.00018156
7.73889e-05
1.06399e-05
1.06423e-05
7.74909e-05
0.000181942
0.000182229
7.76146e-05
1.06557e-05
1.0664e-05
7.77496e-05
0.000182784
0.000183042
7.78732e-05
1.06765e-05
1.06912e-05
7.79988e-05
0.000183606
0.00018392
7.81494e-05
1.06848e-05
1.07043e-05
7.83304e-05
0.000184529
0.000184858
7.84365e-05
1.07135e-05
1.07341e-05
7.85944e-05
0.000185451
0.000185745
7.86729e-05
1.07333e-05
1.07368e-05
7.8928e-05
0.000186395
0.000186689
7.89859e-05
1.07613e-05
1.07636e-05
7.91979e-05
0.00018734
0.000187652
7.92964e-05
1.07721e-05
1.07767e-05
7.954e-05
0.000188354
0.000188677
7.96179e-05
1.08012e-05
1.08059e-05
7.98551e-05
0.000189381
0.000189707
7.99655e-05
1.08177e-05
1.08203e-05
8.02002e-05
0.000190433
0.00019077
8.03056e-05
1.08466e-05
1.08525e-05
8.0543e-05
0.000191497
0.000191839
8.06599e-05
1.08627e-05
1.08667e-05
8.09169e-05
0.000192602
0.000192953
8.10244e-05
1.08941e-05
1.08985e-05
8.12707e-05
0.000193719
0.000194082
8.14051e-05
1.09101e-05
1.09161e-05
8.16697e-05
0.000194871
0.000195238
8.18201e-05
1.09353e-05
1.09553e-05
8.20326e-05
0.000196059
0.000196446
8.21905e-05
1.0961e-05
1.09683e-05
8.2491e-05
0.000197275
0.000197662
8.2644e-05
1.09865e-05
1.10088e-05
8.28892e-05
0.000198497
0.000198893
8.30369e-05
1.10143e-05
1.10218e-05
8.3358e-05
0.000199765
0.000200174
8.35244e-05
1.10426e-05
1.10666e-05
8.37615e-05
0.000201009
0.000201402
8.39013e-05
1.10696e-05
1.10766e-05
8.42333e-05
0.000202256
0.000202649
8.43866e-05
1.10968e-05
1.1119e-05
8.46281e-05
0.000203474
0.000203856
8.47664e-05
1.11219e-05
1.11293e-05
8.50962e-05
0.00020469
0.000205069
8.52325e-05
1.11482e-05
1.11705e-05
8.54746e-05
0.000205887
0.000206251
8.56008e-05
1.1173e-05
1.11794e-05
8.59339e-05
0.000207097
0.000207419
8.60639e-05
1.11977e-05
1.12185e-05
8.62838e-05
0.000208206
0.000208534
8.63755e-05
1.1218e-05
1.12233e-05
8.66893e-05
0.000209303
0.000209645
8.67912e-05
1.12419e-05
1.12635e-05
8.69889e-05
0.000210349
0.000210621
8.7032e-05
1.12627e-05
1.12661e-05
8.72556e-05
0.000211224
0.000211404
8.72026e-05
1.12851e-05
1.12833e-05
8.73494e-05
0.000211953
0.000212058
8.73056e-05
1.12874e-05
1.12826e-05
8.73612e-05
0.00021245
0.000212468
8.72148e-05
1.12961e-05
1.1288e-05
8.72135e-05
0.000212753
0.000212824
8.7053e-05
1.12882e-05
1.12777e-05
8.69605e-05
0.00021301
0.000212997
8.67318e-05
1.12822e-05
1.12851e-05
8.64726e-05
0.000213047
0.000212863
8.61495e-05
1.12691e-05
1.12539e-05
8.58409e-05
0.000212822
0.000212321
8.53463e-05
1.12524e-05
1.12492e-05
8.4829e-05
0.000212258
0.000211515
8.41956e-05
1.12311e-05
1.12129e-05
8.36117e-05
0.000211277
0.000210401
8.27525e-05
1.1211e-05
1.11932e-05
8.21124e-05
0.00021018
0.000209209
8.12497e-05
1.11828e-05
1.11664e-05
8.0508e-05
0.000208742
0.000207583
7.95372e-05
1.1165e-05
1.11716e-05
7.8683e-05
0.000207337
0.000206461
7.77785e-05
1.11774e-05
1.12154e-05
7.71467e-05
0.000206856
0.000206268
7.63932e-05
1.12608e-05
1.13183e-05
7.57188e-05
0.000206559
0.000206114
7.48586e-05
1.13726e-05
1.1457e-05
7.43882e-05
0.000207005
0.000208248
7.36685e-05
1.15631e-05
1.16759e-05
7.3263e-05
0.00021062
0.000213892
7.41197e-05
1.17987e-05
1.19161e-05
7.445e-05
0.000216583
0.000218206
7.40409e-05
1.19482e-05
1.20309e-05
7.26952e-05
0.000221515
0.000225256
7.66207e-05
1.22005e-05
1.23215e-05
7.43781e-05
0.000228498
0.000231317
7.61903e-05
1.25202e-05
1.2658e-05
7.70544e-05
0.000236716
0.00023831
7.85643e-05
1.2857e-05
1.31562e-05
8.26333e-05
0.000245426
0.000246528
8.48402e-05
1.34627e-05
1.37396e-05
8.85673e-05
0.000252671
0.000254933
9.18856e-05
1.42838e-05
1.53756e-05
0.000107361
0.00026761
0.000266216
0.000113443
1.15455e-05
9.03393e-06
2.81732e-05
7.45131e-05
0.000208141
6.44238e-05
1.03535e-05
1.09141e-05
5.80283e-05
0.000191207
0.00020187
6.04317e-05
1.1186e-05
1.13625e-05
5.69212e-05
0.000192593
0.000206872
6.12275e-05
1.16877e-05
1.20393e-05
6.02235e-05
0.00020382
0.000223513
6.809e-05
1.24191e-05
1.28165e-05
6.75451e-05
0.000219055
0.000240308
7.93714e-05
1.33829e-05
1.41836e-05
8.22525e-05
0.000242632
0.000271972
9.99848e-05
1.57662e-05
1.20224e-05
0.000111523
0.000277683
7.43218e-05
2.6727e-05
9.83925e-06
1.13008e-05
6.99553e-05
0.000232888
0.000227616
6.52105e-05
1.23437e-05
1.31325e-05
8.55968e-05
0.000281512
0.000286842
8.63805e-05
1.36493e-05
1.44051e-05
0.000100118
0.000318344
0.000328471
0.000106116
1.53027e-05
1.72354e-05
0.000127208
0.000357187
0.000345908
0.000136037
1.33074e-05
9.91471e-06
3.05715e-05
9.16484e-05
0.00028281
8.37006e-05
1.20924e-05
1.30714e-05
7.78455e-05
0.000277121
0.000318619
9.64101e-05
1.39589e-05
1.50074e-05
9.6799e-05
0.00031421
0.000360675
0.0001248
1.73542e-05
1.3891e-05
0.000145593
0.000362624
9.80465e-05
3.25352e-05
1.05444e-05
1.26127e-05
8.80873e-05
0.000321102
0.000330845
9.28694e-05
1.43017e-05
1.66897e-05
0.000132657
0.000427769
0.000448079
0.00015558
1.94705e-05
1.59915e-05
0.0001817
0.000451889
0.000125612
3.83156e-05
1.11205e-05
1.37625e-05
0.000118325
0.000399077
0.000396991
0.000114502
1.61769e-05
2.03233e-05
0.000172316
0.000505798
0.000515349
0.000204119
1.70166e-05
1.17531e-05
4.41514e-05
0.000157366
0.000518722
0.000153093
1.60575e-05
2.03259e-05
0.000161251
0.000557874
0.000773943
0.000272571
2.78142e-05
2.31429e-05
0.000290111
0.000742778
0.000262292
6.88758e-05
1.51047e-05
2.68128e-05
0.000279549
0.000804986
0.000803977
0.000297646
2.49412e-05
1.66334e-05
7.50504e-05
0.000314079
0.0011186
0.000371282
3.73071e-05
3.67863e-05
0.00042913
0.00121591
0.000553393
0.000152857
2.33837e-05
3.72148e-05
0.000497407
0.00144984
0.000957734
0.000317542
2.47823e-05
4.59983e-05
0.000559847
0.00112929
0.000968647
0.000468339
3.78189e-05
3.83129e-05
0.000446457
0.00106252
0.00136313
0.000492822
4.39657e-05
6.07695e-05
0.000920443
0.00227248
0.000506495
0.000157499
3.45606e-05
3.53795e-05
0.000441709
0.0010121
0.000313031
0.000111884
2.46858e-05
2.68484e-05
0.000272791
0.000656353
0.00056102
0.000202098
2.65898e-05
1.5682e-05
5.33772e-05
0.000161473
0.000379642
0.000222331
1.79375e-05
1.68293e-05
6.89686e-05
0.000173496
0.000419573
0.000183201
1.92009e-05
2.04691e-05
0.000149315
0.000379375
0.000123067
4.62402e-05
1.35062e-05
1.59782e-05
0.000144747
0.00032647
0.000299145
0.000120621
1.80015e-05
1.25863e-05
3.93889e-05
0.000100361
0.000277678
0.000123529
1.46019e-05
1.68576e-05
0.000107329
0.000255578
8.90743e-05
3.70957e-05
1.22608e-05
1.38115e-05
0.000110614
0.00024652
0.000223303
9.69735e-05
1.6154e-05
1.20129e-05
3.40674e-05
7.94212e-05
0.000217397
9.95028e-05
1.30813e-05
1.56997e-05
8.8205e-05
0.000197976
7.12941e-05
3.24272e-05
1.18734e-05
1.26886e-05
9.2266e-05
0.000195732
0.000175959
8.10462e-05
1.51042e-05
1.15619e-05
3.03589e-05
6.5606e-05
0.000177281
8.47585e-05
1.20956e-05
1.47111e-05
7.5054e-05
0.000161055
6.29857e-05
2.99577e-05
1.15551e-05
1.21165e-05
8.60462e-05
0.000172568
0.000145971
6.92671e-05
1.53809e-05
1.27894e-05
5.55055e-05
0.000119528
4.74114e-05
2.26784e-05
1.10463e-05
1.04775e-05
5.95036e-05
0.000120695
0.000114194
5.57893e-05
1.32017e-05
1.02152e-05
2.17219e-05
4.64416e-05
0.000108553
5.55567e-05
9.87884e-06
1.27595e-05
5.0325e-05
0.000100519
4.19513e-05
2.15298e-05
1.06472e-05
9.86402e-06
5.21615e-05
9.74749e-05
9.31147e-05
4.97288e-05
1.25888e-05
1.01113e-05
2.04555e-05
4.08737e-05
9.17829e-05
4.94276e-05
9.56106e-06
1.24349e-05
4.62883e-05
8.61607e-05
3.81893e-05
1.96897e-05
9.86471e-06
9.18805e-06
4.48627e-05
8.25696e-05
8.00331e-05
4.4613e-05
1.21292e-05
1.04312e-05
1.94676e-05
3.64655e-05
8.12323e-05
4.52249e-05
9.43078e-06
1.21842e-05
4.36292e-05
7.72616e-05
3.59399e-05
1.9454e-05
1.03034e-05
9.18498e-06
4.17803e-05
7.36966e-05
7.13151e-05
4.11182e-05
1.1992e-05
1.02989e-05
1.73726e-05
3.21129e-05
6.28433e-05
4.9814e-05
8.91292e-06
1.12217e-05
2.18664e-05
3.63225e-05
8.2793e-05
4.64628e-05
9.94676e-06
1.25754e-05
4.35619e-05
7.66149e-05
3.68882e-05
2.12982e-05
1.03152e-05
9.41827e-06
4.55401e-05
7.65211e-05
7.19789e-05
4.20924e-05
1.23811e-05
1.03141e-05
2.15084e-05
3.63322e-05
7.59303e-05
4.57699e-05
9.44364e-06
1.23472e-05
4.22491e-05
7.16196e-05
3.55255e-05
2.1529e-05
1.02787e-05
9.35435e-06
4.31896e-05
6.90666e-05
6.54521e-05
3.88951e-05
1.23535e-05
1.02592e-05
2.10185e-05
3.32637e-05
6.35284e-05
4.00513e-05
9.12684e-06
1.20052e-05
3.74593e-05
6.04203e-05
2.9948e-05
1.91871e-05
1.02926e-05
8.66638e-06
4.25637e-05
5.33226e-05
3.22186e-05
2.19952e-05
1.10756e-05
9.75766e-06
3.86759e-05
6.35258e-05
5.76885e-05
3.54845e-05
1.24558e-05
1.01795e-05
2.13214e-05
3.07889e-05
5.71819e-05
3.73302e-05
9.05122e-06
1.19177e-05
3.4557e-05
5.1963e-05
2.81435e-05
2.01055e-05
1.03048e-05
8.60756e-06
3.82241e-05
4.77483e-05
3.03524e-05
2.2161e-05
1.11898e-05
9.70257e-06
3.72783e-05
5.82498e-05
5.25949e-05
3.40245e-05
1.22997e-05
1.00937e-05
2.14208e-05
2.92749e-05
5.40456e-05
3.60405e-05
8.97265e-06
1.18773e-05
3.28233e-05
4.90481e-05
2.70441e-05
2.01859e-05
1.02498e-05
8.56365e-06
3.55757e-05
4.37755e-05
2.84431e-05
2.17766e-05
1.11926e-05
9.58592e-06
3.48003e-05
5.37667e-05
4.82291e-05
3.20986e-05
1.22455e-05
1.00821e-05
2.14604e-05
2.73311e-05
4.85959e-05
3.31803e-05
8.95405e-06
1.19125e-05
3.02997e-05
4.41346e-05
2.46105e-05
1.95976e-05
9.43192e-06
8.19008e-06
3.05026e-05
3.89929e-05
2.58642e-05
2.04249e-05
1.10348e-05
9.34927e-06
3.23976e-05
4.75717e-05
4.24757e-05
2.93181e-05
1.19781e-05
1.0023e-05
2.02532e-05
2.46125e-05
3.83708e-05
3.23131e-05
8.30259e-06
1.10228e-05
2.16529e-05
2.60045e-05
4.7052e-05
3.09961e-05
9.31101e-06
1.22115e-05
2.87051e-05
4.23401e-05
2.4542e-05
2.05809e-05
9.83071e-06
8.28552e-06
3.08056e-05
3.77635e-05
2.58561e-05
2.16756e-05
1.09608e-05
9.15452e-06
3.1448e-05
4.63009e-05
4.14476e-05
2.88162e-05
1.19894e-05
9.64714e-06
2.07415e-05
2.43322e-05
3.74565e-05
3.10375e-05
8.1497e-06
1.10412e-05
2.17742e-05
2.57179e-05
4.56194e-05
3.08539e-05
9.32574e-06
1.21655e-05
2.8579e-05
4.09903e-05
2.44753e-05
2.1288e-05
1.02057e-05
8.44077e-06
3.17239e-05
3.68327e-05
2.56898e-05
2.2575e-05
1.10838e-05
9.31178e-06
3.02883e-05
4.48769e-05
4.01249e-05
2.80087e-05
1.21126e-05
9.5302e-06
2.09119e-05
2.37244e-05
3.55661e-05
3.00837e-05
8.14062e-06
1.08746e-05
2.23934e-05
2.53818e-05
3.86288e-05
2.96675e-05
8.73242e-06
1.13569e-05
2.31091e-05
2.67772e-05
4.56757e-05
3.04482e-05
9.52354e-06
1.21078e-05
2.83314e-05
4.06886e-05
2.46632e-05
2.17835e-05
9.88765e-06
8.23701e-06
3.13831e-05
3.64983e-05
2.57856e-05
2.331e-05
1.11523e-05
9.34925e-06
3.01821e-05
4.40141e-05
3.95412e-05
2.80827e-05
1.21927e-05
9.53056e-06
2.14328e-05
2.38313e-05
3.51367e-05
2.98567e-05
8.3029e-06
1.10427e-05
2.29018e-05
2.55358e-05
3.80371e-05
2.95106e-05
8.93669e-06
1.13363e-05
2.37703e-05
2.67756e-05
4.48437e-05
3.01943e-05
9.38336e-06
1.21463e-05
2.82579e-05
4.00002e-05
2.47439e-05
2.25184e-05
1.02634e-05
8.38401e-06
3.20589e-05
3.57207e-05
2.65905e-05
2.46875e-05
1.11639e-05
8.96368e-06
3.05179e-05
3.91491e-05
2.77102e-05
2.50439e-05
1.14742e-05
9.56831e-06
3.06408e-05
4.57716e-05
4.08667e-05
2.88287e-05
1.2383e-05
9.87134e-06
2.30998e-05
2.52647e-05
3.63482e-05
3.20594e-05
8.31233e-06
1.11411e-05
2.47616e-05
2.69282e-05
3.92007e-05
3.08743e-05
8.95182e-06
1.14756e-05
2.52767e-05
2.7982e-05
4.59398e-05
3.10301e-05
9.56357e-06
1.23153e-05
2.92845e-05
4.10426e-05
2.5826e-05
2.39104e-05
1.02995e-05
8.53646e-06
3.29723e-05
3.68189e-05
2.76518e-05
2.58561e-05
1.13425e-05
9.18448e-06
3.16931e-05
3.99597e-05
2.87051e-05
2.61179e-05
1.15374e-05
9.54398e-06
3.12682e-05
4.63039e-05
4.13846e-05
2.95646e-05
1.22505e-05
1.05098e-05
2.39096e-05
2.59623e-05
3.6099e-05
3.33433e-05
8.60023e-06
1.13061e-05
2.56112e-05
2.72132e-05
3.88382e-05
3.09481e-05
9.12882e-06
1.16121e-05
2.59398e-05
2.80694e-05
4.46648e-05
3.05875e-05
9.62072e-06
1.24085e-05
2.91412e-05
4.01332e-05
2.57912e-05
2.42747e-05
1.06858e-05
8.6737e-06
3.32111e-05
3.59136e-05
2.73213e-05
2.57864e-05
1.12342e-05
8.91494e-06
3.05139e-05
3.85144e-05
2.86523e-05
2.62173e-05
1.14017e-05
9.07618e-06
3.13168e-05
4.00516e-05
2.94557e-05
2.77294e-05
1.15706e-05
9.64179e-06
3.1957e-05
4.60844e-05
4.12106e-05
3.03083e-05
1.23567e-05
9.7743e-06
2.4781e-05
2.63137e-05
3.70322e-05
3.30543e-05
8.49707e-06
1.13511e-05
2.62297e-05
2.80534e-05
3.88556e-05
3.12982e-05
9.14718e-06
1.15427e-05
2.65573e-05
2.91733e-05
4.02751e-05
3.15213e-05
9.14487e-06
1.16109e-05
2.8173e-05
2.98876e-05
4.6062e-05
3.21854e-05
9.64075e-06
1.23868e-05
3.06672e-05
4.12794e-05
2.71207e-05
2.57735e-05
1.06208e-05
8.63948e-06
3.48428e-05
3.70294e-05
2.8636e-05
2.73701e-05
1.1443e-05
9.18711e-06
3.15523e-05
3.97783e-05
3.00065e-05
2.76952e-05
1.16512e-05
9.30535e-06
3.26383e-05
4.11427e-05
3.07903e-05
2.93023e-05
1.17747e-05
9.80009e-06
3.31414e-05
4.68826e-05
4.21633e-05
3.15694e-05
1.25125e-05
1.0656e-05
2.64533e-05
2.80061e-05
3.77727e-05
3.56311e-05
8.69274e-06
1.1479e-05
2.7888e-05
2.93463e-05
3.98815e-05
3.20205e-05
9.14331e-06
1.16553e-05
2.78441e-05
3.02294e-05
4.08658e-05
3.24696e-05
9.2632e-06
1.18335e-05
2.93752e-05
3.08466e-05
4.61505e-05
3.28171e-05
9.78112e-06
1.25705e-05
3.14595e-05
4.18597e-05
2.77952e-05
2.64283e-05
9.92682e-06
8.71398e-06
3.38112e-05
3.7582e-05
2.95541e-05
2.81284e-05
1.16182e-05
9.20881e-06
3.2915e-05
3.99809e-05
3.05722e-05
2.83106e-05
1.16327e-05
9.16115e-06
3.2259e-05
4.09493e-05
3.14458e-05
2.915e-05
1.16504e-05
9.3412e-06
3.4052e-05
4.21289e-05
3.20536e-05
3.09111e-05
1.17973e-05
9.80468e-06
3.43002e-05
4.74383e-05
4.29959e-05
3.28123e-05
1.25588e-05
1.0895e-05
2.75711e-05
2.92644e-05
3.81607e-05
3.63279e-05
8.78681e-06
1.16261e-05
2.88426e-05
3.03245e-05
4.00625e-05
3.2682e-05
9.32244e-06
1.18302e-05
2.90963e-05
3.11969e-05
4.10428e-05
3.28056e-05
9.29763e-06
1.17471e-05
2.99172e-05
3.18795e-05
4.24143e-05
3.45094e-05
9.3979e-06
1.18756e-05
3.16127e-05
3.25319e-05
4.8108e-05
3.49029e-05
9.86266e-06
1.2696e-05
3.36056e-05
4.37212e-05
3.02327e-05
2.90839e-05
1.0769e-05
8.79387e-06
3.75043e-05
3.93036e-05
3.14375e-05
3.0236e-05
1.16366e-05
9.20748e-06
3.41671e-05
4.19532e-05
3.26376e-05
3.03387e-05
1.18089e-05
9.3971e-06
3.45878e-05
4.29506e-05
3.33798e-05
3.12991e-05
1.18108e-05
9.40733e-06
3.61361e-05
4.41335e-05
3.39888e-05
3.28902e-05
1.19381e-05
9.98921e-06
3.61203e-05
4.9367e-05
4.50175e-05
3.4709e-05
1.27348e-05
1.10103e-05
2.98127e-05
3.13952e-05
3.99338e-05
3.81565e-05
9.03258e-06
1.17842e-05
3.09569e-05
3.24159e-05
4.20677e-05
3.46273e-05
9.42252e-06
1.20136e-05
3.08923e-05
3.33853e-05
4.28477e-05
3.44929e-05
9.50725e-06
1.19921e-05
3.17781e-05
3.38642e-05
4.40612e-05
3.61298e-05
9.61318e-06
1.20833e-05
3.36979e-05
3.43527e-05
4.93518e-05
3.6738e-05
1.00037e-05
1.28963e-05
3.55029e-05
4.53586e-05
3.20905e-05
3.09195e-05
1.09574e-05
9.00112e-06
3.90553e-05
4.0782e-05
3.32792e-05
3.19181e-05
1.18553e-05
9.43736e-06
3.55734e-05
4.32004e-05
3.44875e-05
3.20787e-05
1.20534e-05
9.56088e-06
3.58889e-05
4.4314e-05
3.52275e-05
3.29233e-05
1.19926e-05
9.60836e-06
3.74781e-05
4.53699e-05
3.5558e-05
3.45801e-05
1.20812e-05
1.00303e-05
3.74961e-05
5.03847e-05
4.61641e-05
3.62594e-05
1.29717e-05
1.12674e-05
3.15041e-05
3.2965e-05
4.06736e-05
3.96671e-05
9.13602e-06
1.19286e-05
3.24164e-05
3.37648e-05
4.24835e-05
3.54015e-05
9.48093e-06
1.21442e-05
3.25322e-05
3.46339e-05
4.3404e-05
3.56723e-05
9.62398e-06
1.20701e-05
3.3189e-05
3.52106e-05
4.45468e-05
3.69007e-05
9.60953e-06
1.20196e-05
3.43766e-05
3.60806e-05
4.61276e-05
3.87088e-05
9.59772e-06
1.21424e-05
3.60363e-05
3.66125e-05
5.19043e-05
3.90037e-05
1.01079e-05
1.31302e-05
3.78425e-05
4.78105e-05
3.43149e-05
3.31921e-05
1.07755e-05
9.01571e-06
4.11286e-05
4.32479e-05
3.58904e-05
3.4648e-05
1.20955e-05
9.65178e-06
3.84343e-05
4.55111e-05
3.69562e-05
3.47283e-05
1.21925e-05
9.65929e-06
3.85695e-05
4.68275e-05
3.78862e-05
3.57164e-05
1.21015e-05
9.67551e-06
4.04395e-05
4.84933e-05
3.87044e-05
3.7559e-05
1.22533e-05
1.02485e-05
4.06377e-05
5.37794e-05
4.93287e-05
3.93489e-05
1.32769e-05
1.11762e-05
3.46128e-05
3.58248e-05
4.4252e-05
4.27371e-05
9.21325e-06
1.21735e-05
3.55864e-05
3.71288e-05
4.58577e-05
3.89614e-05
9.72975e-06
1.23082e-05
3.54332e-05
3.78421e-05
4.65143e-05
3.89085e-05
9.83383e-06
1.22491e-05
3.63062e-05
3.8372e-05
4.77258e-05
4.02483e-05
9.78408e-06
1.24009e-05
3.81293e-05
3.87787e-05
5.30392e-05
4.06436e-05
1.03196e-05
1.35162e-05
3.9646e-05
4.90078e-05
3.62097e-05
3.53396e-05
1.10148e-05
9.15537e-06
4.29477e-05
4.45496e-05
3.78495e-05
3.68689e-05
1.23215e-05
9.85042e-06
4.04766e-05
4.67066e-05
3.88999e-05
3.68767e-05
1.23877e-05
9.80064e-06
4.01454e-05
4.78076e-05
3.96041e-05
3.77908e-05
1.23235e-05
9.8986e-06
4.17048e-05
4.94531e-05
4.04788e-05
3.9875e-05
1.2597e-05
1.04762e-05
4.23515e-05
5.48374e-05
5.05213e-05
4.13591e-05
1.36295e-05
1.13774e-05
3.70569e-05
3.78802e-05
4.60594e-05
4.50941e-05
9.36083e-06
1.23518e-05
3.78509e-05
3.92221e-05
4.75162e-05
4.09822e-05
9.86533e-06
1.25585e-05
3.78954e-05
4.00084e-05
4.8255e-05
4.11718e-05
9.94515e-06
1.25884e-05
3.89845e-05
4.06502e-05
4.95719e-05
4.23732e-05
1.00196e-05
1.28699e-05
4.11111e-05
4.11913e-05
5.5027e-05
4.3098e-05
1.07719e-05
1.40572e-05
4.23918e-05
5.10796e-05
3.91781e-05
3.89305e-05
1.16364e-05
9.65646e-06
4.62663e-05
4.73671e-05
4.07453e-05
4.00254e-05
1.26121e-05
1.00498e-05
4.37052e-05
4.96518e-05
4.19538e-05
4.02661e-05
1.28023e-05
1.00645e-05
4.3801e-05
5.11014e-05
4.24987e-05
4.18758e-05
1.30084e-05
1.09158e-05
4.3694e-05
5.59647e-05
5.17457e-05
4.30671e-05
1.43498e-05
1.21022e-05
3.96153e-05
4.00433e-05
4.70554e-05
4.66583e-05
9.88809e-06
1.28302e-05
4.03128e-05
4.10784e-05
4.87807e-05
4.31463e-05
1.02175e-05
1.30748e-05
4.05723e-05
4.20363e-05
5.0031e-05
4.33434e-05
1.03222e-05
1.33546e-05
4.26691e-05
4.25162e-05
5.49614e-05
4.38427e-05
1.10517e-05
1.45488e-05
4.34138e-05
5.12159e-05
4.02164e-05
4.01665e-05
1.16647e-05
9.68775e-06
4.67403e-05
4.71579e-05
4.18965e-05
4.15128e-05
1.2977e-05
1.02569e-05
4.43388e-05
4.98545e-05
4.3095e-05
4.20656e-05
1.32537e-05
1.05055e-05
4.44236e-05
5.12712e-05
4.37805e-05
4.38146e-05
1.35091e-05
1.11781e-05
4.49011e-05
5.58932e-05
5.2136e-05
4.47086e-05
1.48746e-05
1.2532e-05
4.18475e-05
4.20505e-05
4.80629e-05
4.85405e-05
1.01213e-05
1.32821e-05
4.26785e-05
4.28313e-05
4.98767e-05
4.46587e-05
1.05087e-05
1.35067e-05
4.30378e-05
4.38867e-05
5.14166e-05
4.51101e-05
1.06797e-05
1.39167e-05
4.54488e-05
4.45648e-05
5.65739e-05
4.59096e-05
1.15686e-05
1.52514e-05
4.58254e-05
5.30141e-05
4.31132e-05
4.37842e-05
1.25774e-05
1.02658e-05
5.00981e-05
4.98169e-05
4.4501e-05
4.49682e-05
1.36405e-05
1.08048e-05
4.70045e-05
5.23207e-05
4.59984e-05
4.54255e-05
1.3958e-05
1.11187e-05
4.73043e-05
5.42004e-05
4.71083e-05
4.80115e-05
1.44377e-05
1.19822e-05
4.85015e-05
5.93289e-05
5.56437e-05
4.84972e-05
1.58638e-05
1.30369e-05
4.59804e-05
4.57112e-05
5.20265e-05
5.25444e-05
1.06217e-05
1.3998e-05
4.71611e-05
4.6854e-05
5.43722e-05
4.91376e-05
1.11458e-05
1.471e-05
4.87643e-05
4.79095e-05
5.9313e-05
4.87759e-05
1.22362e-05
1.6117e-05
4.85331e-05
5.58207e-05
4.62407e-05
4.72314e-05
1.3525e-05
1.09185e-05
5.31357e-05
5.27298e-05
4.78156e-05
4.86499e-05
1.44806e-05
1.14874e-05
5.0324e-05
5.53109e-05
4.93817e-05
4.94271e-05
1.49025e-05
1.18681e-05
5.06087e-05
5.76894e-05
5.09061e-05
5.2453e-05
1.54633e-05
1.28488e-05
5.26174e-05
6.33945e-05
5.95712e-05
5.27954e-05
1.7002e-05
1.38456e-05
5.09175e-05
4.99665e-05
5.63214e-05
5.72684e-05
1.1234e-05
1.50689e-05
5.237e-05
5.17148e-05
5.95176e-05
5.39646e-05
1.20699e-05
1.58626e-05
5.42944e-05
5.28685e-05
6.50564e-05
5.39676e-05
1.2959e-05
1.73259e-05
5.41768e-05
6.15123e-05
5.1964e-05
5.33654e-05
1.45934e-05
1.19801e-05
5.87212e-05
5.83787e-05
5.36958e-05
5.52267e-05
1.59365e-05
1.27699e-05
5.63194e-05
6.19908e-05
5.5474e-05
5.7509e-05
1.67885e-05
1.4e-05
5.68118e-05
6.795e-05
6.42211e-05
5.71696e-05
1.8522e-05
1.51524e-05
5.60479e-05
5.46758e-05
6.14068e-05
6.17975e-05
1.2274e-05
1.67194e-05
5.887e-05
5.6349e-05
6.77738e-05
5.77289e-05
1.39413e-05
1.86297e-05
5.77386e-05
6.4544e-05
5.49731e-05
5.57689e-05
1.517e-05
1.21141e-05
6.24404e-05
6.12289e-05
5.66163e-05
5.76454e-05
1.65186e-05
1.32357e-05
5.82324e-05
6.39671e-05
5.78786e-05
5.9948e-05
1.75807e-05
1.46344e-05
5.8568e-05
6.94179e-05
6.60902e-05
5.9429e-05
1.94778e-05
1.60043e-05
5.89845e-05
5.74301e-05
6.34236e-05
6.38361e-05
1.31252e-05
1.77741e-05
6.23131e-05
5.89638e-05
6.9462e-05
6.02723e-05
1.48936e-05
1.99049e-05
6.05111e-05
6.64489e-05
5.83741e-05
6.01901e-05
1.64287e-05
1.32704e-05
6.4942e-05
6.40284e-05
5.9524e-05
6.29992e-05
1.78813e-05
1.46052e-05
6.05338e-05
6.99647e-05
6.70694e-05
6.11557e-05
1.99551e-05
1.66626e-05
6.05641e-05
5.89527e-05
6.43678e-05
6.47475e-05
1.36455e-05
1.8608e-05
6.4269e-05
6.05886e-05
7.02122e-05
6.1547e-05
1.54376e-05
2.08362e-05
6.21665e-05
6.7411e-05
6.02661e-05
6.26157e-05
1.72305e-05
1.39582e-05
6.6497e-05
6.54891e-05
6.16639e-05
6.58151e-05
1.88433e-05
1.55582e-05
6.26343e-05
7.13777e-05
6.85755e-05
6.31203e-05
2.0951e-05
1.72063e-05
6.32857e-05
6.12092e-05
6.63562e-05
6.85138e-05
1.34532e-05
1.88208e-05
6.67517e-05
6.26811e-05
7.21717e-05
6.30508e-05
1.58727e-05
2.1673e-05
6.38086e-05
6.94436e-05
6.2819e-05
6.60253e-05
1.79827e-05
1.47057e-05
6.85131e-05
6.76673e-05
6.48698e-05
7.01984e-05
2.00324e-05
1.67151e-05
6.66893e-05
7.50568e-05
7.23041e-05
6.75719e-05
2.24641e-05
1.86115e-05
6.92223e-05
6.58788e-05
7.11199e-05
7.21877e-05
1.50773e-05
2.05068e-05
7.35334e-05
6.77752e-05
7.85711e-05
6.99572e-05
1.68949e-05
2.2496e-05
6.98962e-05
7.57417e-05
6.88218e-05
7.48233e-05
1.96373e-05
1.6928e-05
7.43647e-05
7.76832e-05
7.52281e-05
7.40276e-05
2.35204e-05
1.97907e-05
7.37511e-05
6.99086e-05
7.54556e-05
7.59831e-05
1.62495e-05
2.20933e-05