/*--------------------------------*- C++ -*----------------------------------*\
| =========                 |                                                 |
| \\      /  F ield         | OpenFOAM: The Open Source CFD Toolbox           |
|  \\    /   O peration     | Version:  v2006                                 |
|   \\  /    A nd           | Website:  www.openfoam.com                      |
|    \\/     M anipulation  |                                                 |
\*---------------------------------------------------------------------------*/
FoamFile
{
    version     2.0;
    format      ascii;
    class       volScalarField;
    location    "0.14";
    object      omega;
}
// * * * * * * * * * * * * * * * * * * * * * * * * * * * * * * * * * * * * * //

dimensions      [0 0 -1 0 0 0 0];


internalField   nonuniform List<scalar> 
16277
(
0.00810614
0.00810622
0.00810503
0.00810462
0.00810348
0.00810349
0.0081028
0.00810124
0.0080976
0.00809141
0.00808286
0.00807267
0.00806155
0.0080499
0.00803788
0.00802546
0.00801256
0.00799908
0.00798496
0.00797015
0.00795464
0.00793845
0.00792157
0.00790403
0.00788583
0.00786699
0.00784751
0.00782741
0.0078067
0.00778538
0.00776348
0.007741
0.00771797
0.00769439
0.00767029
0.00764569
0.00762061
0.00759507
0.00756908
0.00754269
0.0075159
0.00748875
0.00746127
0.00743347
0.00740539
0.00737705
0.00734849
0.00731973
0.00729081
0.00726175
0.00723259
0.00720337
0.0071741
0.00714484
0.0071156
0.00708643
0.00705735
0.00702841
0.00699964
0.00697108
0.00694278
0.00691479
0.0068872
0.00686018
0.00683407
0.0068097
0.00678898
0.00677663
0.00678511
0.00684363
0.00700286
0.00737723
0.00820699
0.00999197
0.0137348
0.0213665
0.0365745
0.0665425
0.125305
0.238507
0.453913
0.842936
1.40873
1.8289
2.49806
2.99672
3.63718
6.62633
11.4696
14.4727
12.9722
34.241
105.412
397.79
3406.78
18601.1
254898
251710
37848.6
8637.97
15117.7
52962.8
248574
245279
54893.2
17469.9
20706
58055.5
236456
232035
57495.1
21300.6
23279.4
58848.2
226110
223289
58184.9
23405.7
24488.9
58586.6
218920
216054
57190.3
24344
24967.3
57662.9
212519
210464
56434
24791.6
25247.6
56963.7
207750
206195
55926.6
25050.6
25438.4
56494.7
204000
202775
55590.6
25235.3
25590.3
56182.9
200921
199916
55356.6
25384.8
25720.4
55973
198292
197434
55192.8
25514.4
25837.5
55833.7
195972
195220
55088.4
25631.9
25945.5
55741.9
193877
193200
55020.1
25740
26045
55677.3
191943
191319
54970.9
25839.2
26137
55626.3
190128
189544
54930.3
25929.5
26221.4
55580.8
188404
187849
54892.6
26010.8
26296.6
55536.4
186750
186217
54853.9
26082.8
26362.8
55489.9
185150
184634
54812.1
26146
26420.7
55439.4
183593
183090
54764.7
26201.2
26470.9
55382.6
182071
181577
54710.5
26249.2
26514.5
55318.9
180575
180088
54649.2
26290.8
26552.2
55248
179101
178620
54580.4
26327
26584.7
55169.3
177643
177165
54503.4
26358.1
26612.2
55082
176196
175719
54417.5
26384.3
26635.1
54985.7
174755
174277
54322.5
26406.1
26653.6
54880
173315
172834
54217.8
26423.6
26667.9
54764.4
171871
171386
54103.1
26437
26678.1
54638.5
170418
169928
53977.8
26446.4
26684.2
54501.6
168954
168456
53841.3
26451.7
26686.2
54353.1
167474
166967
53692.8
26452.8
26683.8
54192.1
165975
165458
53531.5
26449.5
26676.7
54017.9
164453
163925
53356.7
26441.3
26664.5
53829.4
162907
162367
53167.3
26427.9
26646.7
53625.6
161333
160782
52960.5
26408.5
26622.5
53404.7
159733
159170
52731.7
26382.3
26591
53164.7
158105
157533
52485.2
26348.5
26551.3
52906.1
156453
155871
52218.1
26306.1
26502.3
52626.1
154777
154188
51927.8
26253.9
26442.7
52322.2
153082
152490
51611.7
26190.3
26370.6
51991.6
151374
150783
51266.9
26113.1
26283.5
51631.6
149663
149078
50889.8
26016.5
26178
51238.4
147960
147388
50476.7
25897.6
26051.3
50808.4
146281
145732
50024.3
25756.9
25901.5
50338.7
144646
144130
49529
25589.7
25723.9
49825.4
143077
142609
48987
25391.4
25513.9
49265.2
141603
141200
48395.3
25157.6
25267
48655
140257
139941
47759.7
24884.4
24979.7
47997.6
139085
138866
47101.6
24571.6
24652.2
47313
138140
138018
46412.4
24210.8
24278.2
46598.1
137442
137423
45700.9
23807.9
23865
45867.1
137045
137110
44988.2
23373.9
23424.1
45140.5
136901
137093
44299.1
22924.2
22971
44451.8
137044
137380
43654.7
22466.1
22512
43823.1
137433
137949
43083.4
22012.3
22064
43270.2
138106
138773
42619.4
21592.5
21655.9
42831.1
139007
139779
42265.9
21224.9
21304.1
42530
140070
140914
42005.1
20916.3
21012.6
42349.3
141248
142145
41864.3
20669.7
20783.2
42266.8
142507
143436
41833.8
20485
20616
42296.9
143810
144744
41912.8
20361.8
20510.1
42431.4
145116
146035
42089.7
20294.6
20461.6
42657.1
146395
147278
42353.8
20268.3
20463.6
42959.2
147616
148447
42686
20294.4
20518
43345.8
148756
149521
43074.2
20369.7
20635.2
43809.9
149795
150484
43533.8
20494.4
20785.7
44304.4
150718
151321
44020.1
20648.9
20958.4
44811.3
151512
152027
44515.9
20824.4
21147.9
45315
152174
152603
45006.5
21015.1
21347.3
45801.7
152708
153057
45479
21214
21550.1
46260.8
153124
153400
45923.5
21414.9
21750.8
46685.3
153433
153646
46333.4
21612.6
21944.8
47071
153650
153803
46705
21802.7
22128.2
47416.5
153789
153895
47037.4
21981.7
22298.8
47722.2
153866
153935
47331.2
22147.8
22455.3
47989
153893
153940
47587.6
22299.3
22597
48222.7
153881
153913
47811.3
22437.1
22726
48431
153821
153849
48006.4
22562.7
22844.1
48610.8
153734
153752
48173.2
22677.3
22950.4
48766
153631
153647
48320.4
22780.6
23045.1
48900.4
153513
153517
48442
22871.1
23130.6
49014.8
153383
153390
48551
22953.2
23206.5
49110.9
153236
153247
48643.5
23025
23274.6
49197.6
153095
153099
48722.3
23086.8
23335.7
49275.9
152942
152948
48797.5
23145
23387.4
49339.9
152809
152763
48855.9
23192
23447.5
49401.8
152688
152601
48944
23224.7
23466.4
49566.4
152645
151974
48744.5
23131
23265.8
48758.5
151429
149530
48556.9
22991.2
21920.2
46331.3
147098
138322
48504.5
22454.4
15524.4
27063.3
124072
139435
60774.6
28132.6
13626.8
7036.34
4374.02
3429.49
3055.09
2533.25
2312.59
2154.65
2089.06
2072.32
2105.91
2203.59
2337.75
2582.12
2861.16
3453.06
3782.11
4730
5754.49
7585.49
11742.6
22950.9
56171.3
128965
404442
434224
139782
61663
64980.3
147527
460374
482767
153851
68383.7
68366.2
155110
489221
495159
156301
69550.5
69728.9
157880
498939
499547
158257
69982.8
69907.2
158265
499380
499752
158310
69918.9
69896.5
158311
499561
499687
158319
69886.1
69883.4
158338
499818
499635
158319
69856
69823.8
158320
500323
500189
158258
69780.4
69750.2
158252
500324
500202
158242
69720.8
69698
158235
500620
501077
158177
69678.9
69674.6
158244
500651
501064
158181
69651
69640.2
158247
501198
501624
158138
69595.6
69574.6
158178
501185
501624
158096
69538.2
69518.9
158152
501787
502227
158031
69479.3
69466.4
158098
501833
502293
158016
69427.5
69408.6
158062
502459
502906
157955
69373.3
69357.3
158016
502492
502934
157918
69318.8
69305
157975
503109
503571
157873
69267.9
69248.6
157912
503457
503359
157879
69215.8
69203.6
157885
503836
504310
157803
69168.2
69153.5
157833
504195
504112
157810
69123.1
69101
157804
504578
505067
157700
69044.4
69025.6
157725
504987
504929
157709
69001.9
68991.8
157719
505415
505909
157682
68977.6
68972.8
157732
505808
505723
157720
68959.2
68957.3
157767
506187
506682
157728
68949.4
68951.1
157811
506581
506499
157818
68946.8
68951.4
157902
506961
507448
157887
68950.7
68980.4
158015
507341
507243
158073
68999.1
69016.1
158200
507675
508141
158210
69015.3
69012.6
158341
508024
507949
158374
69002.9
69020.6
158543
508411
508896
158631
69032.9
69061.5
158846
508457
508894
158962
69075.2
69132.4
159245
509036
509448
159418
69165.9
69219.7
159740
508970
509358
159959
69240.3
69257.4
160287
509459
509824
160477
69261.5
69283.2
160866
509637
509440
161150
69284.9
69292.3
161522
509795
510171
161821
69283.9
69266.7
162250
509984
509818
162536
69180.2
69142.3
162970
510268
510743
163298
69081.9
69052.2
163823
510374
510905
164207
68976.9
68951
164716
511166
511742
165114
68941.7
68906
165667
511748
511837
165907
68737.5
68474.5
165997
512649
513543
165984
68040.7
67703.2
165980
514684
516053
166009
67387
67190.1
166038
517411
519018
165708
66697
65977.8
164777
521103
523607
163567
65148.9
64043.4
160111
521038
518392
156517
63216.2
62676.9
154436
524790
522131
155373
62192.8
61148
146783
514353
511368
147983
60984.7
60480.5
143489
503263
496292
141317
60230.9
60342.6
138592
484539
469838
133820
60155.4
60456.7
131346
459552
452965
129992
60899.8
61574.5
130002
435260
407220
120307
62173.6
63838.7
118988
596807
979153
341044
141024
69302.6
172860
728096
656932
186793
74232.8
71338.4
176236
649440
642927
181656
73679.5
70685.9
169694
624237
602548
171123
71745.7
68763.6
155745
575448
548512
158170
70386
68215.7
144596
520210
489648
144670
68983.4
68281.3
132984
447241
638677
125746
69631.1
146152
346619
1.00994e+06
717974
165287
71407.6
73970.8
176252
605306
548251
144635
66246.9
66833.5
146231
513349
478491
136024
65316.3
65900.1
133924
446302
413018
125160
65460.6
68617.2
125385
597059
936036
353256
142172
72747.3
156436
684437
594278
167855
75659.8
71698.9
149235
556847
518684
153431
73699.9
72738.3
139306
469251
668095
131366
75289.2
152598
344143
1.01868e+06
704916
172419
78228.6
79555.6
172742
578821
502616
145286
71162.8
71620.4
136329
451430
655716
133705
75059.5
152293
345846
1.00417e+06
704074
162580
80301.5
83453.3
176053
580838
512180
151278
77344
79580.5
143046
720594
1.04925e+06
359005
159783
80675.5
168806
704909
551869
174374
80234.1
68992.5
137688
486496
664938
139497
74157.2
149147
343372
902606
623188
153936
75070.4
78574.3
158352
787820
980529
384181
155238
66549.1
150832
656405
792458
146273
65265.9
128145
288402
833978
1.01283e+06
163633
64914.9
91553.1
198679
809474
827216
160518
58692.6
71129.3
191384
993491
1.02879e+06
196839
73012.1
65748.2
175160
915617
800489
104079
39073.3
153625
341378
806624
935769
160988
81533.1
186108
374629
846863
781930
189809
99476.6
105665
214451
670302
1.13033e+06
453945
224110
126755
167580
959959
828332
364367
190310
103167
176203
696884
576009
186390
104383
192527
392405
916542
715898
171688
107527
107290
181531
575324
928791
392169
190709
106008
167665
714176
572778
175128
104695
184497
381743
914738
700101
163313
103167
102494
171062
565938
911328
381596
181400
101101
160910
686900
551431
167521
99847.2
178318
366830
884830
658113
157684
100754
100795
165452
534036
872874
363482
177233
99397.5
155602
645497
518123
162291
99210.2
170206
344008
825862
601209
145162
95389.5
96061.1
163244
463440
636730
185958
101801
187567
387477
1.05753e+06
751992
164376
103734
101105
170285
599091
978127
412671
184370
102805
166152
713548
577755
175094
102895
184336
367237
977286
711862
159698
103612
101915
166904
576742
953732
399358
181753
101933
162460
693794
567744
171351
102288
184906
406686
960954
699853
165695
102987
102100
169279
563253
959794
373651
182939
101735
158066
696212
562953
168898
101627
181796
370001
974468
723099
159529
102404
101967
170932
592563
1.04946e+06
392472
190792
111614
135389
819968
733879
319486
164959
92856.2
145145
558499
477070
155190
94270.3
168877
347211
825606
614623
148182
96168
96561.5
157688
502996
845511
350438
168994
95349.4
147714
623362
514681
155552
95179.9
172523
365384
876562
652581
151774
97074.4
97811.6
163061
532233
903223
376969
177598
99016.5
157652
679810
566734
168203
99583.3
191112
393108
1.02373e+06
811413
134513
112947
170688
325186
740840
578827
154844
96347.3
98298.3
164709
498200
871677
366450
178461
101842
158647
663825
551182
167281
102279
191162
389013
976115
785426
136295
112479
168569
322349
720201
558239
150533
95471.8
98099.3
163089
486343
858823
364693
177941
102086
158275
652129
550007
172042
103260
194905
396375
995002
797734
140514
115491
173510
330647
735523
578544
156370
98716.7
100868
169456
506788
894224
376005
184052
105698
164698
669652
569626
179856
106665
207893
460550
1.01224e+06
820625
167935
121464
181387
345897
760707
593665
157314
103344
106733
179052
526690
989830
409362
201730
119694
146187
809806
762857
338162
179177
102982
164299
599538
520231
179316
105920
202602
426832
943407
784837
161758
122126
180484
335407
742217
590631
160549
104099
107767
180966
520269
962835
438920
205626
123283
160931
811532
762352
343494
183174
105909
164628
598267
528661
185116
109120
207119
414400
973780
804043
152504
124845
184374
339654
763243
614593
168683
107112
111077
188559
550252
1.00441e+06
463471
216457
131488
170891
855332
835248
372750
197264
119873
156726
714821
684483
328538
178281
106667
167932
562997
514142
189759
111101
210266
432879
967792
810429
161199
127966
188713
344540
767855
618078
172794
110990
114983
195948
556626
1.0258e+06
474500
223076
135959
178726
874645
846170
380154
202252
123485
161677
730710
715629
333517
182480
109847
173298
587375
528821
193772
114249
217354
433401
996873
847075
157861
133254
196582
355874
817159
714672
158681
121907
181507
332316
701966
583646
174994
109847
115484
199157
531307
984359
452297
219278
135586
170113
853067
836019
370248
201276
124784
160701
722109
707337
336792
184499
111676
176546
581013
529189
199116
116919
220661
439873
989064
837473
164398
136225
200701
362407
815690
717650
162879
125456
185962
340610
716252
601204
180321
113208
119106
204411
554312
1.05636e+06
446939
227728
141813
163449
899783
879875
380097
210629
131191
168233
757178
750981
357555
195313
118411
187618
616742
560316
210385
123886
233165
454323
1.05276e+06
892937
168269
144784
214466
390885
885206
772738
174808
134445
200902
366111
778394
706265
169696
128893
190748
341969
704646
587479
183728
117628
124942
210948
546581
1.0277e+06
486414
237010
148408
189621
909715
903350
404553
219719
138751
178129
789991
798791
374894
205366
132873
174771
715594
715156
352073
195738
121185
189654
604040
557097
212914
127414
238175
463890
1.05248e+06
907875
172185
150266
220175
394262
897897
781501
180932
139250
206656
373441
788967
708395
174776
133845
196656
352927
711641
602543
190846
122306
129539
216145
559584
1.06672e+06
471217
242168
152492
176536
924025
918607
403175
224455
143659
184695
814510
832601
392410
214350
139455
183590
747260
745719
367877
204042
127306
198712
623863
580478
225847
134066
252970
509713
1.06875e+06
930034
205875
159838
233650
423142
925648
813939
184801
147844
219263
395463
837129
774737
189217
143612
211942
381232
794981
719248
182937
140147
205251
361375
729672
627764
200926
128845
136253
227899
588541
1.1367e+06
494841
254445
160765
185452
972303
962838
426997
237616
153171
196489
837152
855656
409100
226007
148684
194639
782905
803611
390094
217697
144115
188765
733181
744034
369566
209215
131555
203695
628683
581747
228253
138586
256345
493801
1.08816e+06
928699
188750
163829
240937
424101
935471
833815
197627
154071
227822
408239
852178
772877
194987
149772
220265
391899
798985
734617
191359
146488
212370
370303
742974
632747
207522
134723
142486
235766
596246
1.13079e+06
503903
262102
167552
193809
967975
974312
433436
244635
159287
203817
870229
892782
422373
234994
155734
202361
809608
831898
404301
227476
151415
197094
745144
756505
381891
219504
139582
212083
638931
598082
239618
146507
267689
513764
1.12627e+06
968282
199538
171198
250546
439076
976445
862257
205921
161891
237285
421533
881656
804102
204190
157365
230275
406516
833387
758652
200167
154144
223783
389754
775517
662013
218736
142635
150688
249105
625951
1.19808e+06
530304
277227
177511
202452
1.01372e+06
1.02146e+06
459548
260450
169997
218227
897385
916602
441556
248980
165817
214179
838272
872153
424879
241573
162395
209872
797091
829923
410418
235319
158275
204694
758246
771986
391589
227109
144852
219944
645771
608347
248497
152304
277532
534234
1.12277e+06
966993
218858
179084
259875
453330
974968
856749
211941
168511
245693
429696
881513
798624
211588
163957
238210
415778
830724
758447
208706
159958
229826
392769
770374
653056
222717
147328
156039
253318
621113
1.16112e+06
538849
284953
183580
217025
992704
1.00065e+06
461908
265801
174562
220579
893315
922856
447286
254141
171038
220002
830019
863702
429943
247436
167154
216365
786102
803455
409232
239522
153484
231640
670189
632490
260743
161241
292575
560649
1.16214e+06
1.00095e+06
234052
189374
273118
474010
1.00414e+06
880207
223294
177974
257513
447322
906949
825695
222667
172835
249528
430591
859360
775160
218833
168260
240408
408610
796000
672879
232723
154979
164046
264995
643183
1.19084e+06
562188
297004
192101
229392
1.0269e+06
1.04388e+06
484856
278915
183668
232304
913006
943083
466733
266521
179854
232008
850638
884614
446119
259094
175466
227432
800102
819574
422551
249916
161023
240295
682699
650797
269938
168891
300646
563553
1.1793e+06
1.00715e+06
236934
195530
281339
481896
1.02485e+06
894915
229630
184487
266575
457605
927971
837327
229618
178935
258489
440640
861748
723611
251721
165439
174961
284428
692422
1.27811e+06
597812
318852
206031
243828
1.08236e+06
1.09067e+06
503742
295032
194715
240994
948327
983596
485932
281236
188382
243641
865878
884925
457510
270039
172742
259390
738853
704254
291546
180993
325835
619558
1.25911e+06
1.08267e+06
264498
211583
304220
521564
1.10146e+06
950941
247496
198222
286019
489742
985042
879927
247246
191590
276643
470321
913521
765257
267933
177109
186825
302592
730181
1.34684e+06
631417
337127
218082
256553
1.13343e+06
1.14066e+06
528130
311439
205999
253429
978028
1.01826e+06
507277
296064
198439
257980
900067
926023
478504
283448
181636
271578
771409
740397
303270
189935
339666
627953
1.33212e+06
1.11494e+06
263226
219997
315847
534860
1.13297e+06
976539
257483
206848
297674
505294
1.01494e+06
893570
258558
199687
286857
482103
928900
780251
276571
184037
193471
311204
751137
1.34364e+06
647093
347338
225425
274550
1.12673e+06
1.14758e+06
543754
321890
210760
265504
975071
994136
505798
300623
191258
286407
813235
778867
314895
199913
361348
672111
1.39956e+06
1.1553e+06
280894
232069
331125
556445
1.16916e+06
1.00298e+06
269031
216669
310735
524354
1.046e+06
912500
270130
207446
296117
496475
949149
784955
282668
189712
200049
318128
755215
1.33209e+06
661357
356121
231454
289192
1.12911e+06
1.15293e+06
557731
330306
216287
275429
979349
1.00902e+06
515720
307912
195880
291659
827005
788445
324582
204403
363308
670929
1.35851e+06
1.13575e+06
294825
235789
337152
565288
1.167e+06
984972
280990
219128
311779
519309
1.01092e+06
822783
294794
198137
208161
330136
789525
1.37216e+06
684746
369120
237566
302988
1.13842e+06
1.14365e+06
568389
338777
210022
307775
904563
859043
341196
217724
387213
721892
1.49843e+06
1.23132e+06
306192
249424
361809
614984
1.2606e+06
1.05825e+06
304996
233739
335381
562608
1.0837e+06
882403
318043
211786
221059
355137
848210
1.46314e+06
724115
391991
251933
321803
1.19981e+06
1.20624e+06
593790
357284
220512
319975
943794
894898
353221
228001
401843
745238
1.52379e+06
1.24624e+06
325801
257940
370227
617537
1.2659e+06
1.00193e+06
338055
227683
235557
376975
949711
1.62303e+06
800306
425992
269725
346932
1.2958e+06
1.29917e+06
647123
386395
234956
344638
1.01101e+06
953426
379335
242450
429217
794333
1.62107e+06
1.31299e+06
346514
273242
391511
649709
1.32272e+06
1.04213e+06
351064
239348
247485
389587
988628
1.68976e+06
828028
442052
279529
342203
1.3534e+06
1.37133e+06
681164
405544
244735
367009
1.05395e+06
991036
400773
252396
447324
826424
1.65326e+06
1.32914e+06
369191
283774
405131
668716
1.33798e+06
1.04374e+06
360754
245806
253669
396355
990732
1.66513e+06
826345
446459
282741
364495
1.33395e+06
1.34083e+06
665607
402255
242411
354651
1.02567e+06
965527
379179
248275
433844
798507
1.57285e+06
1.17684e+06
378221
260993
266224
408159
1.08492e+06
1.75901e+06
870040
468931
291403
384342
1.39072e+06
1.39439e+06
695853
417714
250362
368500
1.06674e+06
1.00634e+06
402582
258298
445318
813711
1.62007e+06
1.2184e+06
390432
266496
268914
406789
1.11724e+06
1.78537e+06
886515
471352
277505
413659
1.31178e+06
1.18868e+06
439034
279919
501931
941966
1.89661e+06
1.46805e+06
410598
308394
443708
735273
1.46256e+06
1.10004e+06
383142
260207
267962
416266
1.03004e+06
1.63648e+06
830798
458963
270131
397662
1.216e+06
1.11204e+06
408886
272451
472215
871682
1.75715e+06
1.27264e+06
409404
276005
279163
433355
1.14863e+06
1.77205e+06
885292
483187
278526
413092
1.27991e+06
1.1553e+06
434913
280967
482149
882765
1.76887e+06
1.28799e+06
413185
280037
283712
437104
1.17429e+06
1.82324e+06
899089
488439
281063
416177
1.30627e+06
1.11968e+06
453232
286449
299456
511913
1.47103e+06
2.20288e+06
1.0599e+06
543917
304634
469751
1.50792e+06
1.33463e+06
485783
302727
524463
980636
1.98904e+06
1.38597e+06
447513
295249
295658
458289
1.18417e+06
1.53998e+06
527008
308467
569481
1.11901e+06
2.2665e+06
1.50894e+06
484904
308716
311767
505788
1.26865e+06
1.63773e+06
566175
325751
590482
1.1394e+06
2.41236e+06
1.5996e+06
490697
316198
317464
513220
1.35322e+06
1.69311e+06
576832
323908
588199
1.15727e+06
2.40938e+06
1.54989e+06
496810
312167
303780
489644
1.27724e+06
1.53211e+06
606931
332776
328978
553455
1.95823e+06
2.70918e+06
1.37817e+06
651907
332344
555818
1.70688e+06
1.36889e+06
555340
328455
336443
619298
1.57138e+06
1.78944e+06
591545
320304
344360
725784
1.94507e+06
2.15334e+06
731830
328844
643139
1.37788e+06
2.74695e+06
1.622e+06
529105
312678
304988
521791
1.28179e+06
1.38864e+06
565300
304707
297703
560274
1.46063e+06
1.51868e+06
571509
292216
289596
599213
1.53309e+06
1.51723e+06
608541
287872
284908
613471
1.49566e+06
1.45992e+06
612059
283253
280633
606829
1.42323e+06
1.38527e+06
597763
278587
276259
591040
1.34776e+06
1.31158e+06
586480
275032
273994
583543
1.27768e+06
1.24626e+06
581888
274017
274166
581064
1.21737e+06
1.19093e+06
580854
275010
275943
580805
1.16676e+06
1.14493e+06
580680
277556
278979
580342
1.12517e+06
1.10746e+06
579639
280794
282217
578425
1.09153e+06
1.07732e+06
576827
283759
284839
574653
1.06462e+06
1.05336e+06
572136
285900
286488
569072
1.04335e+06
1.03457e+06
565771
286967
286902
561943
1.02684e+06
1.02017e+06
557965
286725
286119
553505
1.01438e+06
1.00948e+06
549011
285401
284016
544076
1.00524e+06
1.00166e+06
539191
282876
281128
533922
998548
995921
528634
280049
278380
523092
993635
991752
517642
277356
275739
512005
990133
988842
506545
274736
273142
500934
987742
986881
495560
272136
270534
490078
986147
985571
484889
269497
267872
479632
985056
984688
474707
266803
265155
469743
984317
984039
465115
264056
262393
460491
983804
983603
456199
261279
259608
451918
983446
983285
447964
258488
256819
444017
983163
982997
440400
255704
254056
436783
982870
982669
433490
252950
251321
430191
982514
982250
427220
250244
248655
424229
982050
981730
421550
247603
246066
418845
981498
981127
416443
245046
243569
413999
980864
980465
411838
242576
241158
409629
980180
979751
407697
240194
238827
405705
979434
978990
403969
237873
236542
402168
978649
978193
400616
235620
234331
398984
977831
977376
397590
233438
232195
396108
977008
976555
394867
231340
230145
393528
976184
975735
392410
229326
228180
391193
975370
974918
390191
227405
226309
389082
974554
974106
388174
225572
224524
387157
973752
973306
386344
223833
222832
385411
972958
972523
384672
222179
221221
383806
972186
971767
383150
220609
219704
382355
971442
971032
381751
219121
218260
381013
970727
970337
380476
217717
216899
379796
970049
969673
379304
216388
215609
378676
969408
969057
378227
215131
214394
377651
968817
968488
377241
213946
213247
376713
968276
967974
376331
212826
212167
375848
967793
967515
375494
211772
211148
375050
967368
967119
374718
210776
210188
374308
967000
966782
374004
209839
209282
373619
966687
966505
373340
208954
208428
372978
966431
966286
372720
208121
207621
372378
966233
966126
372137
207335
206860
371814
966093
966023
371589
206594
206140
371283
966009
965980
371072
205892
205460
370784
965983
965980
370585
205229
204816
370311
966008
966024
370123
204600
204207
369866
966083
966116
369688
204006
203629
369443
966204
966252
369275
203441
203081
369046
966366
966433
368886
202906
202560
368670
966568
966650
368518
202397
202066
368316
966803
966899
368173
201915
201595
367981
967068
967179
367846
201455
201147
367668
967363
967486
367541
201018
200721
367373
967684
967819
367253
200601
200315
367098
968027
968170
366984
200203
199927
366839
968389
968541
366731
199822
199558
366598
968769
968931
366495
199458
199205
366372
969166
969336
366274
199110
198867
366162
969578
969756
366068
198777
198542
365965
970005
970192
365875
198458
198231
365783
970446
970638
365698
198151
197933
365614
970896
971092
365534
197858
197647
365460
971354
971556
365384
197575
197372
365317
971822
972029
365247
197304
197108
365188
972295
972502
365124
197044
196855
365071
972770
972978
365014
196795
196611
364966
973248
973458
364914
196554
196376
364871
973730
973938
364824
196323
196151
364787
974209
974418
364746
196101
195934
364715
974688
974899
364677
195887
195726
364653
975169
975378
364618
195681
195525
364598
975646
975855
364567
195483
195331
364550
976124
976332
364524
195291
195143
364510
976603
976810
364488
195106
194961
364476
977081
977288
364459
194926
194785
364448
977561
977768
364436
194752
194614
364427
978042
978249
364418
194583
194448
364411
978526
978734
364406
194419
194287
364403
979013
979222
364401
194259
194130
364401
979504
979713
364403
194104
193978
364406
979996
980205
364414
193955
193832
364421
980489
980696
364436
193811
193692
364446
980977
981180
364467
193673
193558
364480
981460
981655
364505
193542
193452
364528
981932
982116
364554
193389
193315
364573
982023
982582
364611
193303
193194
364631
983226
983015
364673
193203
193064
364700
983310
983441
364868
193091
192922
364497
983332
983265
364741
192882
192537
363956
982878
985044
365413
193117
193331
366402
988902
998170
371123
195202
196114
372099
993406
981205
361233
191014
188848
356488
963706
105132
57918.7
31249.7
19285.2
17994.7
12111.8
8885.69
7355.64
6960.11
5245.98
3817.38
2988.68
2263.53
1648.92
1168.02
815.097
573.647
411.57
303.354
229.996
179.255
143.362
117.439
98.3557
84.1038
73.3267
65.197
59.0584
54.6134
51.4829
49.4712
48.307
47.7819
47.2649
46.3368
45.0628
43.5277
41.8424
40.0484
38.2113
36.3232
34.394
32.4049
30.3405
28.1718
25.4116
21.3987
16.3578
11.4276
7.47739
4.67441
2.82316
1.66634
0.986376
0.622067
0.44652
0.367788
0.334591
0.320924
0.314972
0.312012
0.309689
0.307535
0.305485
0.303495
0.301528
0.299553
0.29754
0.29546
0.293286
0.290991
0.288549
0.285933
0.28312
0.280086
0.276807
0.273263
0.269437
0.265312
0.260881
0.256133
0.251072
0.245701
0.240032
0.234083
0.227875
0.221437
0.214801
0.208003
0.201079
0.19407
0.187014
0.179949
0.172912
0.165937
0.159056
0.152295
0.14568
0.139232
0.132969
0.126901
0.121044
0.115402
0.109981
0.104783
0.0998095
0.0950578
0.0905273
0.0862107
0.0821053
0.0782039
0.0745001
0.0709866
0.0676561
0.0645009
0.0615133
0.0586855
0.05601
0.0534792
0.0510855
0.0488217
0.0466818
0.044658
0.0427448
0.0409355
0.0392247
0.0376065
0.0360762
0.0346285
0.0332583
0.0319618
0.0307343
0.0295723
0.0284715
0.0274287
0.0264407
0.0255039
0.0246158
0.0237737
0.0229747
0.0222165
0.0214968
0.0208133
0.0201642
0.0195475
0.0189614
0.0184043
0.0178745
0.0173705
0.0168911
0.0164349
0.0160007
0.0155872
0.0151935
0.0148184
0.0144611
0.0141207
0.0137961
0.0134868
0.0131919
0.0129107
0.0126426
0.0123868
0.0121429
0.0119102
0.0116883
0.0114766
0.0112746
0.011082
0.0108983
0.0107231
0.010556
0.0103967
0.0102449
0.0101002
0.00996234
0.00983107
0.00970612
0.00958723
0.00947418
0.00936675
0.00926472
0.00916791
0.00907614
0.00898923
0.00890703
0.00882939
0.00875616
0.00868723
0.00862248
0.00856178
0.00850506
0.0084522
0.00840315
0.00835783
0.0083162
0.00827822
0.00824387
0.00821318
0.00818624
0.00816321
0.00814432
0.00812968
0.0081197
0.00811381
0.00811112
0.00810925
0.00810779
0.0081078
0.00810768
0.00810783
0.00810863
0.0081103
0.0081129
0.00811564
0.00811715
0.00811647
0.00811362
0.00810911
0.00810346
0.00809696
0.00808974
0.00808182
0.00807317
0.00806375
0.00805352
0.00804246
0.00803057
0.00801784
0.00800431
0.00798997
0.00797484
0.00795894
0.00794227
0.00792485
0.00790668
0.0078878
0.0078682
0.0078479
0.00782693
0.0078053
0.00778302
0.00776012
0.00773661
0.00771252
0.00768786
0.00766266
0.00763694
0.00761071
0.00758402
0.00755687
0.00752929
0.00750132
0.00747297
0.00744428
0.00741527
0.00738598
0.00735643
0.00732665
0.00729669
0.00726657
0.00723634
0.00720605
0.00717577
0.00714566
0.00711607
0.00708772
0.00706229
0.00704364
0.00704039
0.00707207
0.00718173
0.00746278
0.00811332
0.00954279
0.012614
0.019073
0.0323356
0.058894
0.110761
0.209738
0.394466
0.733138
1.34741
2.4558
4.43405
7.81188
12.9524
19.3051
25.4084
30.6257
37.2008
54.6497
111.236
353.228
1710.34
5117.11
6290.97
6386.69
7291.3
7250.96
7981.87
7894.44
8501.63
8379.84
8920.4
8774.99
9266.53
9104.27
9558.23
9383.59
9807.9
9623.86
10024.3
9832.78
10213.9
10016.3
10381.3
10178.7
10529.7
10322.8
10661.4
10451
10779
10565.7
10884.6
10669
10980.1
10762.7
11067.3
10848.5
11147.5
10927.7
11221.8
11001.3
11291.3
11070.4
11356.6
11135.5
11418.4
11197.2
11477.2
11255.9
11533.3
11312.1
11587.1
11366
11638.8
11417.9
11688.8
11467.5
11737.1
11515
11782.9
11560.2
11826.5
11603.3
11868
11644.3
11907.3
11683.1
11944.1
11719.3
11978.1
11752.4
12008.5
11781.7
12034.6
11806
12054.9
11824
12067.9
11833.8
12071.1
11833
12062.4
11819
12038.8
11788.6
11996.8
11738.4
11932.8
11664.9
11843.3
11563.2
11725.2
11426
11577
11264.9
11404.9
11081.2
11210.9
10879.1
10999.2
10661.2
10775.1
10436.9
10548.1
10217.5
10328.1
10009.4
10120.7
9816.31
9929.55
9641.14
9757.33
9485.98
9605.92
9352.12
9476.39
9239.93
9368.9
9148.88
9282.72
9073.31
9215.46
9015.73
9168.42
8978.37
9142.81
8961.58
9137.42
8963.42
9149.49
8980.95
9175.8
9011
9213.16
9050.56
9259.06
9097.02
9311.65
9148.25
9366.18
9201.18
9421.27
9254.47
9475.6
9306.52
9527.93
9357.05
9578.42
9405.19
9626.16
9451.73
9672.15
9494.68
9714.34
9534.89
9754.42
9571.71
9789.77
9605.09
9822.4
9634.88
9852.9
9662.89
9878.95
9684.52
9911.35
9702.29
9945.37
9707.55
9954.96
9552.41
9875.63
8916.84
8757.1
7017.03
4674.77
5045.14
5504.23
3490.24
5966.96
5553.72
3508.2
6015.82
5556.8
3541.16
6029.04
5568.49
3536.52
6023.41
5562.29
3531.99
6009.13
5551.22
3522.91
5995.74
5538.5
3512.42
5981.16
5524.28
3501.56
5964.9
5508.76
3490.39
5947.73