/*--------------------------------*- C++ -*----------------------------------*\
| =========                 |                                                 |
| \\      /  F ield         | OpenFOAM: The Open Source CFD Toolbox           |
|  \\    /   O peration     | Version:  v2006                                 |
|   \\  /    A nd           | Website:  www.openfoam.com                      |
|    \\/     M anipulation  |                                                 |
\*---------------------------------------------------------------------------*/
FoamFile
{
    version     2.0;
    format      ascii;
    class       volScalarField;
    location    "0.034";
    object      p;
}
// * * * * * * * * * * * * * * * * * * * * * * * * * * * * * * * * * * * * * //

dimensions      [1 -1 -2 0 0 0 0];


internalField   nonuniform List<scalar> 
16277
(
147985
147990
147993
147980
147989
147987
147988
147990
147994
147999
148004
148010
148016
148023
148029
148036
148043
148050
148057
148065
148073
148081
148090
148099
148108
148118
148128
148138
148148
148158
148169
148180
148191
148203
148214
148226
148238
148250
148263
148275
148287
148300
148313
148325
148338
148351
148364
148377
148389
148402
148415
148428
148441
148453
148466
148478
148490
148503
148515
148526
148538
148550
148561
148572
148583
148593
148604
148614
148624
148633
148642
148651
148660
148668
148676
148684
148691
148698
148705
148711
148717
148723
148728
148731
148734
148736
148736
148736
148735
148736
148736
148740
148744
148754
148771
148782
148789
148778
148777
148774
148771
148772
148772
148767
148767
148767
148762
148762
148762
148758
148758
148758
148754
148754
148754
148751
148752
148752
148749
148749
148749
148748
148748
148748
148746
148746
148746
148745
148746
148746
148745
148745
148745
148745
148745
148745
148745
148745
148744
148745
148745
148745
148745
148745
148745
148746
148746
148746
148747
148747
148747
148749
148749
148749
148750
148750
148750
148752
148752
148752
148753
148753
148753
148755
148756
148756
148758
148757
148757
148760
148760
148760
148762
148762
148762
148765
148765
148766
148768
148768
148768
148771
148771
148771
148774
148774
148774
148778
148778
148778
148781
148781
148781
148785
148785
148785
148788
148788
148788
148792
148793
148793
148796
148796
148796
148801
148801
148801
148805
148805
148805
148810
148810
148810
148814
148814
148814
148819
148820
148820
148824
148824
148824
148830
148830
148830
148835
148835
148834
148840
148841
148841
148846
148846
148846
148852
148852
148852
148858
148857
148857
148864
148864
148864
148870
148870
148870
148877
148877
148877
148883
148883
148883
148890
148890
148890
148897
148896
148896
148904
148904
148904
148911
148911
148911
148918
148919
148919
148926
148926
148925
148934
148934
148934
148941
148941
148941
148949
148950
148950
148957
148957
148957
148966
148966
148966
148974
148974
148974
148983
148983
148983
148992
148991
148991
149000
149001
149001
149009
149009
149009
149019
149019
149019
149028
149028
149028
149037
149037
149038
149047
149046
149046
149056
149056
149057
149066
149066
149066
149076
149076
149076
149085
149085
149085
149095
149095
149096
149105
149105
149105
149115
149115
149115
149124
149124
149124
149134
149134
149135
149144
149143
149143
149153
149153
149154
149163
149162
149162
149172
149172
149172
149181
149180
149180
149189
149190
149190
149198
149198
149198
149206
149206
149206
149214
149213
149213
149221
149221
149221
149228
149228
149227
149234
149234
149235
149240
149239
149239
149245
149245
149245
149249
149249
149249
149253
149253
149253
149256
149256
149256
149258
149258
149258
149259
149259
149259
149260
149260
149260
149259
149259
149259
149259
149259
149259
149256
149256
149256
149254
149254
149254
149249
149249
149249
149245
149245
149245
149239
149239
149240
149234
149234
149234
149227
149227
149227
149221
149221
149220
149213
149213
149213
149206
149206
149205
149197
149197
149198
149190
149190
149189
149180
149181
149181
149173
149173
149173
149163
149164
149164
149156
149156
149156
149147
149147
149147
149139
149139
149139
149130
149131
149131
149123
149123
149123
149115
149115
149115
149109
149108
149108
149101
149101
149101
149095
149095
149095
149088
149088
149088
149083
149083
149082
149076
149076
149077
149072
149072
149072
149066
149066
149067
149062
149062
149062
149058
149058
149058
149054
149054
149054
149050
149050
149051
149048
149048
149048
149044
149044
149044
149042
149042
149042
149039
149039
149039
149037
149037
149037
149035
149035
149035
149033
149033
149033
149031
149031
149031
149030
149030
149030
149028
149028
149028
149027
149027
149027
149025
149025
149025
149024
149024
149024
149022
149022
149022
149021
149021
149021
149020
149020
149020
149019
149019
149019
149018
149018
149018
149017
149017
149017
149016
149016
149016
149015
149015
149015
149014
149014
149014
149014
149014
149014
149012
149012
149012
149012
149012
149012
149011
149011
149011
149010
149010
149010
149009
149009
149009
149009
149009
149009
149007
149008
149008
149006
149007
149007
149006
149006
149006
149005
149005
149005
149004
149004
149004
149003
149003
149003
149002
149002
149002
149001
149001
149001
148999
148999
148999
148999
149000
149000
149008
149008
149006
148981
148978
148979
148986
148995
149000
149001
149000
149001
149000
149000
149000
149000
149000
149000
149000
149000
149001
149000
149002
149001
149001
149002
149003
149004
149004
149005
149005
149003
149002
149000
149005
148998
148994
149002
148999
148993
148999
148997
148996
149000
148999
148997
148999
148999
148999
148999
148999
149000
149000
149000
149000
149001
149001
149001
149001
149001
149001
149002
149002
149002
149002
149002
149002
149003
149003
149003
149003
149003
149003
149003
149004
149004
149004
149004
149004
149004
149004
149004
149005
149005
149005
149005
149005
149005
149005
149005
149005
149006
149006
149006
149006
149006
149006
149006
149006
149006
149007
149007
149007
149007
149007
149007
149007
149007
149007
149008
149008
149008
149008
149008
149008
149008
149008
149008
149009
149009
149009
149009
149009
149009
149009
149009
149009
149010
149010
149010
149010
149010
149010
149010
149010
149010
149011
149011
149011
149011
149011
149011
149011
149011
149011
149011
149011
149011
149012
149012
149012
149012
149012
149012
149012
149012
149012
149012
149012
149012
149013
149013
149013
149013
149013
149013
149013
149013
149013
149014
149013
149013
149014
149014
149014
149014
149014
149014
149014
149014
149014
149014
149014
149014
149015
149014
149014
149015
149015
149014
149015
149015
149015
149015
149015
149015
149015
149015
149015
149015
149015
149015
149015
149015
149015
149015
149015
149015
149015
149015
149015
149015
149015
149015
149015
149015
149015
149015
149015
149015
149015
149015
149015
149015
149015
149015
149014
149014
149014
149014
149014
149014
149014
149014
149014
149014
149014
149014
149013
149013
149013
149013
149013
149013
149012
149012
149012
149012
149012
149012
149011
149011
149011
149010
149010
149010
149009
149010
149010
149009
149009
149009
149007
149008
149008
149006
149006
149006
149005
149005
149005
149004
149003
149003
149002
149002
149001
149000
149000
149000
148998
148998
148998
148995
148996
148997
148993
148994
148994
148991
148991
148990
148988
148988
148988
148983
148984
148986
148981
148980
148980
148976
148976
148974
148969
148968
148968
148958
148960
148962
148957
148955
148954
148948
148950
148952
148951
148948
148946
148948
148949
148951
148954
148952
148949
148953
148955
148957
148960
148958
148956
148959
148961
148964
148970
148968
148966
148973
148974
148975
148979
148978
148976
148980
148982
148984
148990
148986
148984
149002
149003
149005
149013
149026
149028
148956
148970
148968
148997
148995
148995
149009
149009
149009
149017
149016
149015
149025
149024
149022
149027
149031
149034
149036
149036
149035
149049
149046
149045
149055
149053
149048
149066
149060
149056
149060
149064
149070
149081
149077
149072
149109
149103
149084
149056
149065
149043
149090
149087
149084
149090
149099
149105
149097
149105
149115
149111
149118
149122
149119
149122
149127
149133
149130
149127
149147
149149
149151
149157
149167
149165
149142
149121
149139
149167
149159
149155
149168
149175
149185
149192
149192
149191
149198
149200
149203
149221
149216
149211
149241
149242
149239
149219
149231
149207
149242
149244
149244
149261
149268
149271
149267
149277
149290
149303
149300
149295
149329
149325
149315
149306
149318
149287
149348
149345
149341
149359
149367
149369
149383
149390
149397
149420
149421
149420
149390
149427
149415
149460
149459
149458
149474
149485
149493
149530
149528
149523
149556
149562
149563
149593
149587
149579
149648
149651
149650
149694
149698
149693
149757
149732
149751
149819
149824
149818
149899
149901
149889
149995
150003
149997
150147
150124
150087
150119
150169
150188
150273
150218
150163
150122
150177
150226
149989
149987
149955
149681
149685
149631
149305
149377
149392
149218
149165
149077
149057
149083
149093
149011
148972
148912
148934
148956
148967
148931
148906
148872
148826
148905
148877
148868
148845
148846
148840
148845
148853
148859
148850
148836
148820
148831
148842
148817
148809
148804
148815
148827
148833
148827
148821
148818
148799
148802
148806
148829
148821
148809
148803
148813
148829
148804
148796
148794
148833
148836
148830
148813
148821
148825
148795
148795
148798
148833
148840
148838
148821
148820
148817
148798
148794
148793
148836
148840
148838
148833
148825
148822
148797
148798
148806
148840
148844
148841
148831
148830
148830
148808
148805
148806
148847
148851
148849
148839
148835
148834
148841
148826
148804
148804
148834
148793
148879
148866
148845
148796
148847
148880
148849
148794
148811
148850
148857
148849
148840
148837
148833
148813
148837
148802
148857
148857
148856
148844
148834
148830
148828
148789
148818
148860
148857
148845
148828
148838
148858
148821
148785
148831
148852
148857
148848
148832
148835
148838
148795
148829
148808
148845
148862
148871
148867
148844
148815
148803
148834
148799
148873
148859
148834
148788
148836
148867
148793
148834
148795
148844
148844
148857
148818
148816
148817
148840
148845
148844
148820
148820
148821
148793
148791
148793
148835
148838
148832
148821
148821
148823
148805
148798
148798
148823
148832
148832
148819
148811
148800
148778
148775
148777
148819
148821
148814
148798
148804
148808
148789
148782
148779
148805
148825
148833
148816
148796
148769
148752
148788
148738
148803
148793
148792
148766
148764
148764
148802
148801
148791
148770
148788
148804
148757
148750
148749
148772
148786
148790
148779
148761
148737
148721
148754
148711
148768
148763
148760
148734
148732
148732
148780
148778
148766
148746
148752
148759
148711
148708
148711
148740
148749
148749
148727
148721
148716
148687
148717
148672
148732
148725
148724
148698
148695
148696
148749
148745
148732
148707
148713
148720
148673
148670
148673
148708
148701
148691
148660
148675
148703
148655
148601
148680
148679
148696
148681
148654
148651
148651
148689
148693
148691
148682
148659
148650
148606
148641
148624
148652
148655
148663
148617
148617
148619
148631
148638
148636
148623
148618
148608
148592
148572
148606
148630
148638
148628
148600
148601
148608
148617
148617
148609
148580
148586
148589
148574
148529
148555
148580
148590
148578
148543
148544
148548
148567
148573
148569
148548
148547
148551
148520
148542
148511
148587
148574
148566
148527
148525
148525
148537
148540
148536
148510
148508
148506
148515
148429
148476
148501
148533
148493
148469
148465
148472
148495
148486
148473
148451
148457
148471
148501
148502
148498
148467
148468
148478
148429
148432
148428
148455
148455
148450
148414
148412
148413
148425
148430
148427
148406
148405
148404
148419
148326
148374
148399
148432
148388
148372
148366
148374
148405
148408
148406
148368
148367
148373
148377
148374
148366
148336
148341
148357
148304
148329
148292
148340
148331
148331
148297
148297
148298
148325
148324
148314
148279
148277
148277
148310
148310
148300
148277
148288
148294
148288
148235
148258
148278
148297
148279
148232
148231
148236
148246
148250
148247
148205
148206
148210
148223
148229
148226
148200
148197
148198
148159
148176
148150
148199
148193
148192
148159
148156
148156
148196
148194
148184
148149
148148
148152
148166
148166
148158
148129
148127
148132
148062
148119
148082
148117
148102
148136
148066
148072
148073
148086
148093
148092
148044
148045
148049
148066
148075
148074
148052
148044
148039
148006
148048
147986
148084
148046
148056
148009
148010
148010
148017
148018
148012
147967
147964
147965
147981
147983
147974
147937
147937
147939
147961
147962
147953
147924
147933
147936
147928
147848
147894
147914
147948
147904
147880
147875
147882
147898
147904
147901
147873
147865
147864
147874
147880
147878
147832
147830
147834
147841
147848
147846
147809
147806
147809
147760
147798
147745
147810
147784
147794
147749
147748
147745
147765
147768
147761
147723
147720
147721
147745
147746
147736
147699
147698
147698
147739
147736
147723
147692
147698
147709
147630
147687
147646
147680
147660
147701
147622
147628
147628
147635
147643
147643
147579
147582
147588
147600
147607
147604
147559
147559
147562
147578
147586
147584
147544
147548
147547
147509
147452
147555
147521
147577
147532
147500
147495
147504
147518
147519
147509
147458
147454
147456
147465
147468
147462
147418
147414
147414
147433
147436
147430
147390
147388
147390
147405
147407
147399
147366
147366
147374
147283
147367
147314
147356
147319
147386
147290
147302
147301
147318
147326
147326
147275
147272
147274
147286
147297
147297
147233
147233
147237
147244
147253
147251
147198
147197
147199
147206
147214
147213
147171
147168
147168
147120
147152
147111
147169
147147
147156
147103
147102
147102
147112
147115
147108
147060
147056
147055
147074
147078
147071
147029
147027
147030
147054
147054
147044
146998
146997
146999
147012
147014
147004
146967
146968
146978
146879
146958
146909
146952
146922
146981
146888
146894
146893
146898
146905
146904
146836
146838
146844
146856
146866
146865
146796
146799
146806
146819
146827
146825
146776
146773
146774
146781
146789
146787
146752
146743
146741
146684
146720
146666
146743
146713
146722
146662
146661
146659
146666
146669
146663
146609
146605
146605
146630
146630
146620
146566
146560
146557
146582
146584
146575
146527
146524
146526
146541
146543
146532
146491
146490
146500
146394
146490
146429
146475
146430
146512
146395
146406
146405
146410
146416
146414
146354
146353
146355
146361
146369
146367
146300
146301
146305
146311
146318
146314
146261
146257
146259
146262
146270
146267
146205
146205
146208
146213
146223
146220
146176
146175
146170
146105
146088
146117
146133
146148
146128
146075
146071
146074
146076
146082
146074
146012
146006
146007
146021
146025
146017
145963
145960
145961
145969
145973
145967
145915
145913
145916
145925
145929
145919
145876
145878
145886
145798
145832
145806
145838
145827
145851
145771
145773
145775
145781
145792
145793
145707
145710
145717
145719
145728
145726
145658
145656
145659
145653
145660
145656
145588
145587
145591
145588
145593
145585
145545
145546
145542
145479
145458
145501
145495
145515
145497
145441
145438
145441
145447
145453
145443
145379
145373
145376
145390
145391
145380
145314
145308
145306
145320
145322
145313
145252
145250
145253
145257
145258
145248
145192
145194
145201
145099
145121
145103
145128
145122
145142
145038
145046
145054
145051
145055
145048
144983
144983
144987
144994
145003
144999
144934
144931
144933
144930
144939
144935
144858
144859
144863
144863
144875
144874
144820
144813
144809
144715
144724
144712
144762
144749
144745
144671
144669
144665
144669
144670
144661
144579
144575
144575
144565
144567
144560
144474
144459
144443
144477
144486
144481
144436
144434
144446
144328
144403
144357
144388
144375
144415
144311
144314
144316
144310
144318
144316
144228
144229
144233
144231
144240
144239
144149
144149
144154
144148
144164
144166
144081
144085
144075
143972
143928
144003
143979
144010
143977
143894
143888
143892
143849
143865
143864
143768
143751
143742
143783
143791
143783
143719
143714
143712
143725
143731
143720
143660
143658
143671
143534
143625
143560
143585
143564
143614
143483
143489
143495
143489
143503
143505
143391
143394
143398
143378
143386
143384
143276
143277
143281
143264
143280
143282
143184
143176
143172
143027
143052
143013
143003
143007
143022
142944
142932
142923
142979
142981
142968
142892
142886
142884
142894
142899
142888
142804
142800
142801
142810
142812
142797
142722
142725
142732
142593
142618
142594
142619
142620
142638
142517
142518
142523
142489
142496
142491
142373
142372
142375
142343
142357
142357
142236
142224
142230
142044
142060
141970
142080
142073
142083
142019
142010
142007
142039
142042
142029
141938
141933
141932
141933
141936
141923
141820
141815
141815
141813
141817
141803
141713
141724
141730
141574
141552
141558
141573
141601
141590
141456
141452
141464
141410
141422
141414
141257
141255
141265
141198
141207
141202
140954
141010
141047
140916
140892
140869
140997
141005
140988
140913
140911
140912
140904
140912
140900
140792
140789
140791
140776
140783
140768
140667
140676
140682
140507
140492
140492
140509
140526
140526
140386
140389
140396
140340
140357
140355
140212
140199
140187
139939
139930
139945
139835
139866
139879
139729
139683
139648
139737
139760
139760
139689
139685
139686
139707
139714
139695
139609
139616
139623
139436
139440
139429
139446
139458
139470
139294
139302
139311
139260
139278
139278
139120
139117
139107
138866
138868
138882
138883
138872
138861
138694
138680
138672
138444
138494
138518
138344
138290
138227
138140
138168
138201
138298
138321
138312
138195
138200
138206
138188
138211
138209
138072
138066
138060
137817
137836
137828
137828
137822
137816
137659
137656
137659
137583
137588
137572
137364
137374
137380
137051
137032
137036
136941
136909
136926
136474
136595
136673
136671
136650
136600
136574
136593
136599
136464
136445
136481
136505
136528
136497
136361
136353
136352
136319
136327
136307
136129
136136
136147
135837
135839
135824
135791
135802
135816
135546
135554
135565
135350
135365
135357
134909
134966
135026
134584
134452
134318
134650
134687
134696
134662
134665
134656
134529
134494
134512
134510
134547
134529
134308
134316
134330
134241
134264
134259
134022
134014
134002
133613
133605
133617
133572
133565
133546
133266
133268
133271
132574
132605
132717
132527
132421
132302
132332
132385
132434
132289
132259
132278
132402
132419
132381
132224
132204
132193
132164
132171
132144
131888
131903
131912
131431
131412
131424
131298
131318
131325
130933
130933
130947
130258
130112
130021
129725
129887
130030
129951
129871
129793
129777
129798
129817
129918
129952
129943
129798
129796
129787
129408
129394
129402
129293
129287
129255
128875
128882
128892
128110
128110
128166
127646
127463
127270
126865
127129
127326
127202
127112
126984
127008
127096
127087
127206
127259
127253
127043
127046
127029
126528
126496
126532
126155
126162
126155
125584
125499
125452
123757
124158
124480
124038
123849
123623
124334
124383
124376
124446
124438
124434
124264
124237
124257
123749
123800
123710
123310
123330
123383
122648
122463
122223
120564
121095
121489
121213
121071
120811
121785
121796
121730
121764
121761
121759
121423
121411
121447
120633
120615
120579
118248
118562
119112
119241
118986
118822
119372
119376
119484
119495
119426
119420
119151
119181
119293
118535
118166
117626
117348
117725
117992
118018
117798
117782
118789
118831
118775
118996
118761
118307
118086
118647
118953
119152
118994
118747
119643
119792
119796
120655
120547
120255
121397
121522
121548
122420
122445
122411
123127
123144
123124
123671
123681
123667
124120
124131
124126
124524
124527
124519
124874
124880
124878
125197
125198
125193
125481
125485
125486
125750
125748
125744
125987
125990
125992
126217
126214
126211
126417
126420
126423
126614
126611
126608
126784
126787
126790
126955
126951
126949
127102
127104
127107
127250
127247
127245
127379
127381
127383
127509
127506
127505
127623
127624
127627
127738
127735
127734
127838
127840
127842
127941
127938
127937
128029
128031
128034
128122
128119
128118
128201
128202
128205
128284
128282
128281
128356
128357
128359
128431
128428
128428
128495
128496
128498
128563
128561
128560
128621
128622
128624
128683
128681
128680
128736
128737
128738
128792
128791
128790
128841
128841
128843
128892
128890
128890
128936
128937
128937
128983
128981
128981
129023
129024
129024
129066
129065
129064
129103
129103
129104
129142
129141
129140
129176
129176
129177
129211
129211
129210
129243
129243
129243
129275
129275
129274
129304
129305
129305
129334
129334
129333
129361
129361
129361
129388
129388
129387
129413
129413
129413
129438
129438
129437
129460
129460
129460
129483
129483
129483
129504
129504
129504
129525
129525
129525
129544
129545
129544
129564
129564
129564
129582
129582
129582
129600
129600
129599
129616
129616
129616
129632
129633
129632
129648
129648
129647
129663
129663
129663
129677
129677
129677
129691
129691
129691
129704
129704
129704
129717
129717
129717
129729
129729
129728
129741
129741
129741
129752
129752
129752
129763
129763
129763
129773
129773
129773
129783
129784
129783
129793
129793
129792
129802
129802
129802
129811
129811
129810
129819
129820
129820
129828
129828
129827
129835
129836
129836
129843
129843
129843
129850
129851
129850
129857
129857
129857
129864
129864
129864
129870
129870
129870
129877
129877
129877
129883
129883
129882
129889
129889
129889
129894
129894
129894
129900
129900
129899
129904
129904
129904
129910
129910
129910
129914
129914
129914
129919
129919
129919
129923
129923
129923
129928
129928
129928
129931
129931
129931
129936
129936
129936
129939
129939
129939
129943
129943
129943
129946
129946
129946
129950
129950
129950
129953
129953
129953
129957
129956
129956
129959
129959
129959
129962
129962
129962
129965
129965
129965
129968
129968
129968
129970
129970
129970
129973
129973
129973
129975
129975
129975
129977
129977
129977
129979
129979
129979
129982
129982
129982
129983
129983
129983
129986
129985
129985
129987
129987
129987
129989
129989
129989
129990
129990
129990
129992
129992
129992
129994
129994
129993
129995
129995
129995
129996
129996
129996
129998
129998
129998
129999
129999
129999
130000
130000
130000
130001
130001
130001
130003
130003
130003
130004
130003
130003
130005
130005
130005
130005
130005
130005
130007
130007
130007
130007
130007
130007
130008
130008
130008
130009
130009
130009
130010
130010
130010
130010
130010
130010
130011
130011
130011
130011
130011
130011
130012
130012
130012
130012
130012
130012
130013
130013
130013
130013
130013
130013
130013
130013
130013
130013
130013
130013
130014
130014
130014
130014
130014
130014
130014
130014
130014
130014
130014
130014
130014
130014
130014
130014
130014
130014
130014
130014
130014
130014
130014
130014
130014
130014
130014
130014
130014
130014
130014
130014
130014
130014
130014
130014
130014
130014
130014
130014
130014
130013
130013
130013
130013
130013
130013
130013
130013
130013
130013
130013
130012
130012
130012
130012
130012
130012
130012
130011
130011
130011
130011
130011
130011
130010
130010
130010
130010
130009
130009
130009
130009
130009
130009
130008
130008
130008
130007
130007
130007
130006
130006
130006
130006
130006
130006
130004
130004
130004
130003
130003
130003
130002
130002
130002
130001
130001
130001
130000
130000
130000
129999
129999
129999
129997
129997
129997
129996
129996
129996
129995
129995
129994
129993
129993
129993
129992
129992
129992
129991
129991
129991
129989
129989
129989
129988
129988
129988
129986
129986
129986
129985
129985
129985
129983
129983
129983
129982
129982
129982
129981
129980
129980
129980
129980
129980
129979
129979
129979
129977
129977
129977
129973
129973
129973
129968
129968
129968
129965
129964
129963
129972
129973
129973
130004
130006
130007
130031
130027
130024
130040
130067
130036
130014
129986
130035
130070
130028
130003
130029
130055
130044
130028
130020
130014
130012
130011
130012
130012
130012
130013
130013
130013
130013
130013
130013
130012
130012
130011
130011
130010
130011
130011
130008
130010
130017
130021
130029
130038
130048
130059
130071
130083
130094
130102
130107
130110
130114
130119
130125
130133
130142
130152
130162
130174
130187
130202
130219
130237
130258
130282
130308
130339
130374
130413
130458
130508
130565
130630
130702
130783
130874
130976
131090
131216
131355
131509
131678
131863
132063
132281
132515
132766
133032
133314
133611
133921
134243
134575
134917
135266
135620
135979
136340
136702
137063
137422
137778
138130
138476
138816
139149
139475
139792
140102
140402
140694
140977
141251
141515
141771
142018
142256
142485
142706
142919
143124
143320
143510
143692
143867
144035
144196
144352
144501
144644
144781
144913
145040
145162
145279
145392
145500
145603
145703
145799
145891
145979
146064
146146
146225
146300
146373
146442
146510
146574
146636
146696
146753
146808
146862
146913
146962
147009
147055
147098
147140
147181
147220
147257
147293
147328
147361
147394
147424
147454
147482
147510
147536
147561
147586
147609
147631
147653
147673
147693
147712
147730
147747
147764
147780
147795
147809
147823
147836
147849
147860
147872
147882
147892
147902
147910
147919
147926
147934
147940
147946
147952
147957
147961
147965
147969
147974
147982
147988
147991
147991
147993
147981
147989
147989
147997
148004
148009
148013
148017
148022
148027
148032
148038
148043
148050
148056
148063
148070
148078
148085
148094
148102
148111
148121
148130
148140
148150
148160
148171
148182
148193
148204
148216
148227
148239
148251
148263
148276
148288
148301
148313
148326
148339
148351
148364
148377
148390
148403
148415
148428
148441
148453
148466
148478
148490
148503
148515
148526
148538
148549
148561
148572
148582
148593
148603
148613
148623
148632
148641
148650
148658
148666
148674
148681
148688
148695
148701
148707
148713
148718
148723
148727
148731
148732
148732
148735
148740
148749
148755
148757
148754
148752
148749
148748
148747
148746
148745
148745
148745
148745
148746
148747
148748
148749
148750
148752
148754
148756
148758
148761
148763
148766
148768
148772
148774
148778
148781
148785
148789
148793
148797
148802
148805
148811
148815
148820
148825
148830
148835
148841
148846
148853
148858
148865
148870
148877
148883
148891
148897
148905
148911
148919
148926
148934
148942
148950
148958
148967
148975
148984
148992
149001
149010
149020
149028
149038
149047
149057
149066
149077
149086
149096
149105
149116
149125
149135
149144
149154
149163
149173
149181
149190
149198
149207
149214
149222
149228
149235
149240
149246
149249
149254
149256
149259
149259
149260
149260
149259
149256
149254
149249
149245
149239
149234
149226
149220
149212
149205
149196
149189
149180
149172
149163
149155
149146
149139
149130
149123
149114
149108
149100
149094
149087
149082
149076
149071
149066
149062
149057
149054
149050
149047
149044
149042
149039
149037
149034
149033
149031
149030
149027
149027
149025
149024
149022
149021
149020
149019
149018
149017
149016
149015
149014
149014
149012
149012
149011
149010
149009
149009
149007
149007
149006
149005
149004
149003
149002
149002
149001
149002
149005
149003
149003
149004
149003
149002
149001
149002
149002
149002
149004
149004
149004
149005
149005
149006
149007
149007
149007
149009
149008
149009
149010
149010
149010
149012
149012
149012
149014
149013
149014
149015
149015
149016
149017
149017
149017
149019
149019
149019
149021
149021
149022
149024
149023
149024
149026
149025
149027
149029
149028
149030
149033
149031
149033
149036
149035
149038
149041
149039
149043
149046
149045
149048
149053
149051
149055
149061
149058
149064
149070
149067
149073
149080
149078
149084
149092
149090
149097
149105
149103
149111
149120
149118
149127
149136
149134
149143
149153
149152
149160
149170
149169
149177
149187
149187
149194
149203
149204
149210
149219
149220
149225
149233
149234
149238
149245
149248
149249
149254
149258
149257
149260
149263
149261
149262
149264
149261
149261
149263
149258
149256
149258
149251
149249
149250
149242
149238
149239
149230
149225
149225
149216
149211
149210
149200
149194
149193
149183
149177
149175
149165
149158
149156
149146
149139
149136
149127
149119
149117
149107
149100
149097
149087
149080
149077
149068
149061
149058
149049
149042
149039
149030
149023
149020
149011
149005
149002
148993
148987
148984
148976
148970
148967
148959
148953
148951
148943
148937
148935
148927
148922
148920
148913
148907
148905
148898
148893
148892
148885
148880
148878
148872
148867
148866
148859
148855
148854
148847
148844
148842
148836
148833
148832
148826
148822
148821
148816
148813
148812
148806
148804
148803
148798
148795
148795
148790
148787
148787
148782
148780
148780
148775
148774
148773
148769
148768
148768
148764
148762
148762
148759
148758
148758
148755
148754
148754
148751
148751
148751
148748
148748
148748
148747
148746
148747
148746
148746
148746
148746
148746
148746
148747
148748
148747
148749
148751
148749
148753
148743
148745
148746
148746
148748
148750
148752
148756
148760
148764
148769
148775
148782
148789
148796
148805
148813
148823
148833
148844
148855
148867
148880
148893
148906
148921
148936
148952
148968
148985
149003
149021
149040
149059
149078
149098
149118
149138
149158
149177
149196
149214
149230
149245
149257
149266
149272
149273
149272
149266
149254
149239
149222
149205
149186
149167
149149
149131
149114
149099
149085
149073
149063
149055
149048
149042
149038
149034
149030
149027
149025
149023
149020
149019
149017
149015
149013
149012
149010
149009
149007
149006
149004
149003
149002
149002
149001
149002
149002
149000
149002
149000
149001
149001
149001
149000
149001
149002
149003
149004
149005
149007
149008
149010
149011
149013
149014
149016
149017
149019
149021
149023
149021
149020
149018
149017
149015
149014
149012
149011
149009
149008
149007
149005
149004
149003
149002
149001
149001
149000
149001
149001
149000
149001
149001
149002
149003
149004
149004
149003
149002
149001
149000
149001
149002
149000
149000
149001
149001
149001
149002
149003
149005
149005
149005