/*--------------------------------*- C++ -*----------------------------------*\
| =========                 |                                                 |
| \\      /  F ield         | OpenFOAM: The Open Source CFD Toolbox           |
|  \\    /   O peration     | Version:  v2006                                 |
|   \\  /    A nd           | Website:  www.openfoam.com                      |
|    \\/     M anipulation  |                                                 |
\*---------------------------------------------------------------------------*/
FoamFile
{
    version     2.0;
    format      ascii;
    class       volScalarField;
    location    "0.03";
    object      isentropic(p);
}
// * * * * * * * * * * * * * * * * * * * * * * * * * * * * * * * * * * * * * //

dimensions      [1 -1 -2 0 0 0 0];


internalField   nonuniform List<scalar> 
41981
(
150012
150025
150012
150026
150015
150018
150017
150018
150018
150018
150018
150018
150019
150019
150019
150019
150019
150019
150018
150018
150018
150018
150018
150018
150017
150017
150017
150017
150017
150017
150017
150017
150017
150017
150017
150017
150016
150016
150016
150016
150016
150016
150016
150016
150016
150016
150016
150016
150015
150015
150015
150015
150015
150015
150015
150015
150015
150015
150015
150014
150014
150014
150014
150014
150014
150014
150014
150014
150014
150013
150013
150013
150013
150013
150013
150013
150013
150013
150013
150012
150012
150012
150012
150012
150012
150012
150012
150012
150012
150011
150011
150011
150011
150011
150011
150011
150011
150011
150011
150010
150010
150010
150010
150010
150010
150010
150010
150010
150010
150010
150010
150010
150009
150009
150009
150009
150009
150009
150009
150009
150009
150009
150009
150009
150009
150009
150009
150008
150008
150008
150008
150008
150008
150008
150008
150008
150007
150007
150007
150006
150006
150006
150007
150008
150008
150008
150008
150008
150009
150009
150010
150009
150008
150010
150009
150013
150013
150017
150026
150024
149960
149890
150014
150033
150030
149996
149823
149756
149981
150026
150018
149961
149695
149642
149943
150012
150000
149922
149592
149553
149907
149994
149983
149886
149514
149482
149871
149975
149964
149855
149452
149427
149841
149957
149946
149825
149403
149383
149813
149940
149929
149798
149361
149343
149787
149923
149912
149773
149324
149308
149763
149907
149896
149750
149291
149277
149740
149891
149881
149728
149261
149248
149719
149876
149867
149707
149234
149222
149699
149862
149853
149687
149209
149198
149679
149849
149839
149668
149186
149176
149661
149836
149826
149651
149165
149156
149644
149823
149814
149634
149145
149137
149628
149811
149802
149618
149127
149120
149613
149800
149791
149603
149111
149103
149598
149788
149780
149589
149095
149088
149584
149778
149769
149575
149080
149075
149571
149768
149759
149562
149067
149062
149558
149758
149749
149549
149055
149049
149546
149748
149740
149537
149043
149038
149534
149739
149731
149526
149032
149028
149523
149730
149722
149515
149022
149018
149513
149722
149713
149505
149013
149009
149502
149713
149705
149495
149004
149001
149493
149705
149697
149485
148996
148993
149484
149698
149690
149476
148988
148986
149475
149690
149682
149468
148981
148979
149466
149683
149675
149459
148975
148973
149458
149676
149668
149451
148969
148967
149451
149669
149662
149444
148963
148962
149443
149663
149655
149437
148958
148957
149436
149656
149649
149430
148953
148952
149429
149650
149643
149423
148949
148948
149423
149644
149637
149417
148945
148945
149417
149639
149632
149411
148942
148941
149411
149633
149626
149405
148939
148939
149405
149628
149621
149399
148936
148936
149400
149623
149616
149394
148934
148934
149395
149618
149611
149389
148932
148932
149390
149613
149606
149384
148930
148930
149385
149608
149601
149380
148928
148929
149381
149604
149597
149375
148927
148928
149376
149599
149592
149371
148926
148927
149372
149595
149588
149367
148926
148927
149369
149591
149584
149364
148926
148927
149365
149587
149580
149360
148926
148927
149361
149583
149576
149357
148926
148927
149358
149579
149573
149354
148926
148928
149355
149575
149569
149351
148927
148929
149352
149572
149566
149348
148928
148930
149350
149569
149562
149345
148929
148931
149347
149565
149559
149343
148931
148933
149345
149562
149556
149341
148932
148934
149343
149559
149553
149338
148935
148937
149341
149556
149550
149337
148937
148939
149339
149553
149547
149335
148939
148942
149337
149551
149545
149333
148942
148945
149336
149548
149542
149332
148945
148948
149334
149546
149540
149331
148949
148951
149333
149543
149537
149330
148952
148955
149332
149541
149535
149329
148956
148959
149331
149539
149533
149328
148960
148964
149331
149537
149531
149328
148965
148968
149330
149535
149529
149327
148970
148973
149330
149533
149527
149327
148975
148978
149330
149531
149526
149327
148980
148984
149330
149529
149524
149327
148985
148989
149330
149528
149523
149328
148991
148995
149331
149526
149521
149328
148997
149001
149331
149525
149520
149329
149004
149008
149332
149524
149519
149330
149010
149015
149333
149523
149518
149331
149017
149022
149335
149522
149518
149333
149024
149029
149336
149521
149517
149334
149032
149037
149338
149521
149516
149336
149040
149044
149340
149520
149516
149338
149047
149052
149342
149520
149516
149340
149056
149061
149344
149520
149516
149343
149064
149069
149347
149520
149516
149346
149073
149078
149349
149520
149517
149349
149081
149087
149352
149521
149517
149352
149091
149096
149356
149521
149518
149355
149100
149105
149359
149522
149519
149359
149109
149115
149363
149523
149520
149363
149119
149124
149367
149525
149522
149367
149128
149134
149372
149526
149523
149372
149138
149144
149376
149528
149525
149376
149148
149154
149381
149530
149528
149381
149157
149163
149386
149532
149530
149386
149167
149173
149391
149535
149533
149392
149177
149183
149397
149538
149536
149397
149186
149192
149403
149541
149539
149403
149196
149201
149408
149544
149543
149409
149205
149210
149414
149548
149547
149415
149214
149219
149420
149552
149551
149421
149223
149228
149427
149556
149555
149427
149231
149236
149433
149560
149559
149434
149239
149244
149439
149564
149563
149440
149246
149251
149445
149569
149568
149445
149253
149258
149451
149573
149572
149451
149260
149264
149456
149578
149577
149457
149266
149269
149462
149582
149581
149462
149271
149274
149467
149586
149585
149467
149275
149278
149472
149590
149589
149472
149279
149282
149476
149594
149593
149476
149283
149285
149480
149598
149597
149480
149285
149287
149484
149602
149601
149484
149288
149289
149488
149606
149604
149487
149289
149291
149491
149609
149607
149490
149290
149291
149493
149612
149610
149492
149290
149291
149496
149615
149613
149495
149290
149291
149498
149617
149615
149496
149289
149290
149500
149620
149618
149498
149288
149289
149501
149622
149620
149499
149287
149287
149502
149624
149621
149500
149285
149285
149503
149625
149623
149501
149283
149283
149503
149627
149624
149501
149281
149281
149503
149628
149626
149501
149279
149278
149503
149629
149627
149501
149276
149276
149503
149630
149627
149501
149274
149273
149503
149631
149628
149500
149271
149270
149503
149632
149629
149500
149268
149268
149502
149632
149629
149499
149266
149265
149501
149632
149629
149499
149263
149263
149500
149633
149629
149498
149261
149260
149500
149633
149629
149497
149258
149258
149499
149633
149629
149496
149256
149256
149498
149633
149629
149495
149254
149254
149497
149633
149629
149494
149252
149252
149496
149632
149629
149493
149250
149250
149495
149632
149629
149493
149248
149248
149494
149632
149629
149492
149247
149247
149494
149632
149629
149491
149245
149245
149493
149632
149628
149490
149244
149244
149492
149631
149628
149489
149242
149242
149491
149631
149628
149489
149241
149241
149491
149631
149628
149488
149240
149240
149490
149631
149627
149487
149239
149239
149489
149630
149627
149487
149238
149238
149489
149630
149627
149486
149237
149237
149488
149630
149626
149486
149236
149236
149488
149630
149626
149485
149235
149235
149487
149629
149626
149484
149234
149234
149486
149629
149626
149484
149233
149233
149486
149629
149625
149483
149232
149233
149485
149628
149625
149483
149232
149232
149485
149628
149625
149482
149231
149231
149484
149628
149624
149482
149230
149230
149484
149627
149624
149481
149229
149229
149483
149627
149624
149481
149228
149229
149483
149627
149623
149480
149228
149228
149482
149627
149623
149480
149227
149231
149483
149627
149624
149479
149229
149232
149484
149630
149630
149485
149233
149246
149498
149644
149653
149508
149256
149262
149513
149656
149661
149520
149268
149274
149522
149662
149793
149851
149877
149895
149923
149938
149955
149966
149977
149985
149993
149999
150005
150010
150015
150019
150022
150025
150028
150031
150033
150035
150037
150038
150039
150040
150040
150041
150040
150040
150038
150037
150034
150031
150026
150020
150012
150005
149996
149980
149962
149955
149931
149875
149772
149571
149385
149119
149117
149384
149571
149559
149372
149110
149105
149369
149553
149554
149367
149105
149106
149367
149553
149551
149364
149106
149101
149364
149549
149550
149365
149101
149101
149362
149550
149551
149363
149102
149102
149363
149551
149552
149364
149102
149103
149365
149553
149554
149365
149103
149103
149366
149554
149555
149367
149104
149104
149367
149556
149556
149368
149105
149105
149369
149557
149558
149369
149105
149106
149370
149559
149559
149371
149106
149107
149371
149560
149561
149372
149107
149107
149373
149562
149563
149374
149108
149108
149374
149563
149564
149375
149109
149109
149376
149565
149566
149376
149109
149110
149377
149566
149567
149378
149110
149111
149378
149568
149569
149379
149111
149111
149380
149569
149570
149381
149112
149112
149381
149571
149572
149382
149113
149113
149383
149572
149573
149383
149113
149114
149384
149574
149575
149385
149114
149115
149386
149576
149577
149386
149115
149115
149387
149577
149578
149388
149116
149116
149389
149579
149580
149389
149117
149117
149390
149580
149581
149391
149117
149118
149391
149582
149583
149392
149118
149119
149393
149584
149585
149394
149119
149119
149394
149585
149586
149395
149120
149120
149396
149587
149588
149397
149121
149121
149397
149589
149590
149398
149121
149122
149399
149590
149591
149400
149122
149122
149400
149592
149593
149401
149123
149123
149402
149594
149595
149403
149123
149124
149403
149595
149596
149404
149124
149125
149405
149597
149598
149406
149125
149125
149406
149599
149600
149407
149126
149126
149408
149600
149601
149409
149126
149127
149409
149602
149603
149410
149127
149127
149411
149604
149605
149412
149128
149128
149412
149606
149606
149413
149128
149129
149414
149607
149608
149415
149129
149129
149415
149609
149610
149416
149129
149130
149417
149611
149612
149418
149130
149130
149418
149613
149614
149419
149131
149131
149420
149614
149615
149421
149131
149131
149421
149616
149617
149422
149131
149132
149423
149618
149619
149423
149132
149132
149424
149620
149621
149425
149132
149132
149426
149622
149623
149426
149132
149133
149427
149624
149625
149428
149133
149133
149428
149626
149627
149429
149133
149133
149430
149628
149629
149430
149133
149133
149431
149630
149631
149432
149133
149133
149432
149632
149633
149433
149133
149133
149434
149634
149635
149434
149133
149132
149435
149636
149637
149436
149132
149132
149436
149638
149640
149437
149132
149131
149437
149641
149642
149438
149131
149130
149438
149644
149645
149439
149129
149129
149439
149647
149648
149440
149128
149126
149440
149650
149652
149441
149125
149124
149441
149653
149656
149441
149122
149120
149442
149658
149660
149442
149118
149115
149443
149662
149665
149444
149112
149109
149445
149668
149671
149446
149107
149105
149447
149674
149678
149449
149102
149101
149451
149682
149686
149454
149099
149099
149458
149691
149696
149462
149099
149099
149468
149701
149707
149474
149101
149105
149483
149714
149725
149496
149113
149119
149509
149734
149742
149520
149125
149133
149530
149748
149758
149540
149148
149164
149558
149769
149777
149568
149178
149195
149584
149785
149796
149601
149218
149240
149617
149806
149814
149631
149259
149281
149646
149820
149829
149661
149307
149333
149672
149834
149843
149693
149362
149390
149712
149854
149856
149734
149415
149039
149429
149660
149762
149529
149124
149131
149542
149777
149780
149546
149147
149168
149565
149794
149800
149581
149189
149215
149605
149814
149822
149618
149241
149278
149652
149841
149847
149666
149309
149343
149691
149860
149867
149710
149377
149418
149734
149879
149891
149758
149455
149505
149794
149904
149703
149593
149149
149305
149641
149841
149865
149673
149309
149347
149709
149885
149899
149734
149377
149410
149753
149911
149921
149771
149439
149473
149795
149932
149942
149812
149506
149541
149838
149955
149960
149861
149570
149229
149667
149793
149902
149750
149383
149400
149757
149923
149932
149771
149438
149479
149805
149948
149959
149828
149519
149556
149849
149969
149982
149877
149595
149641
149909
149994
149840
149775
149349
149509
149806
149953
149981
149844
149535
149580
149874
149997
150013
149902
149621
149653
149920
150023
150037
149947
149692
149715
149970
150041
149965
149722
149548
149590
149898
150015
150030
149919
149637
149675
149938
150041
150059
149971
149726
149774
149995
150066
149928
149911
149500
149678
149919
150035
150069
149968
149713
149755
149995
150082
150093
150015
149791
149828
150040
150108
150115
150061
149866
149631
149998
150018
150096
150024
149797
149828
150039
150115
150138
150079
149886
149924
150093
150143
150040
150076
149705
149892
150064
150131
150163
150107
149930
149965
150129
150176
150181
150141
149997
149822
150132
150109
150186
150147
149993
150014
150160
150203
150207
150186
150042
150070
150057
150226
150230
150183
150069
150104
150213
150239
150249
150230
150162
150032
150268
150208
150270
150253
150174
150225
150263
150282
150244
150352
150117
150263
150294
150303
150311
150344
150297
150328
150272
150347
150341
150355
150340
150384
150373
150341
150359
150380
150375
150442
150416
150380
150342
150384
150410
150448
150406
150356
150397
150443
150469
150458
150393
150391
150318
150341
150291
149977
150155
150171
150083
150087
150011
149584
149778
149883
149831
149813
149657
149326
149591
149703
149733
149709
149518
149183
149473
149595
149638
149573
149295
149183
149468
149574
149600
149513
149186
149071
149386
149509
149601
149535
149263
149133
149434
149551
149467
149197
149074
149144
149493
149541
149531
149393
149071
149065
149065
149434
149479
149487
149017
148953
149257
149430
149532
149444
149113
149020
149356
149487
149398
149129
148955
149072
149430
149503
149486
149363
149044
148779
149272
149313
149497
149376
149054
148999
149327
149457
149299
149289
148766
149065
149374
149494
149455
149324
148986
148893
149094
149351
149474
149389
149039
148980
149319
149452
149363
149065
148921
149035
149391
149474
149449
149315
148994
148804
149198
149304
149481
149375
149054
149003
149331
149457
149417
149237
148913
148928
148966
149333
149433
149378
148967
148913
149273
149428
149343
148963
148894
148973
149380
149449
149417
149276
148936
148680
149232
149251
149466
149335
149002
148947
149285
149418
149238
149271
148672
149024
149324
149466
149426
149292
148956
148710
149220
149255
149470
149346
149031
148956
149298
149436
149352
149005
148929
149018
149386
149460
149435
149302
148983
148746
149231
149271
149475
149351
149037
148990
149307
149438
149275
149273
148754
149059
149357
149483
149446
149313
148985
148905
149105
149346
149476
149394
149046
148985
149317
149450
149366
149055
148938
149053
149407
149481
149460
149333
149017
148806
149236
149307
149497
149389
149076
149017
149331
149459
149299
149296
148792
149073
149378
149499
149461
149335
149003
148931
149137
149368
149499
149414
149077
149037
149346
149473
149301
149302
148784
149089
149383
149509
149472
149344
149010
148952
149121
149376
149500
149416
149065
149007
149339
149476
149400
149062
148985
149066
149440
149502
149483
149348
149015
148962
149107
149387
149502
149435
149064
149001
149339
149483
149400
149043
148979
149047
149440
149498
149467
149333
149022
148721
149326
149289
149546
149307
149126
148907
149278
149395
149539
149437
149107
149064
149373
149502
149344
149312
148837
149114
149424
149540
149500
149371
149030
148978
149130
149407
149524
149444
149085
149033
149365
149509
149424
149069
149003
149068
149473
149521
149509
149356
149007
149033
149056
149405
149481
149539
148983
148954
149252
149432
149563
149467
149119
149059
149393
149525
149428
149156
148983
149123
149480
149558
149540
149402
149067
148996
149158
149428
149542
149489
149088
149034
149378
149535
149433
149026
148999
148958
149603
149518
149409
149371
148910
149128
149471
149577
149532
149401
149075
148830
149324
149366
149575
149449
149132
149052
149388
149542
149447
149045
149025
148972
149614
149521
149423
149375
148910
149138
149482
149585
149544
149410
149060
148985
149190
149438
149563
149496
149102
149040
149388
149548
149448
149010
149015
148958
149616
149524
149437
149381
148924
149143
149496
149601
149548
149424
149080
148763
149382
149372
149608
149385
149156
148956
149327
149456
149606
149504
149155
149069
149428
149564
149480
149093
149057
149062
149550
149565
149475
149339
148967
149146
149509
149615
149579
149443
149102
149004
149240
149469
149593
149523
149129
149053
149408
149577
149469
149036
149024
148947
149662
149535
149448
149407
148898
149119
149497
149610
149558
149428
149067
148737
149370
149374
149632
149368
149163
148917
149324
149455
149618
149506
149126
149088
149441
149568
149369
149453
148745
149176
149356
149632
149490
149274
148952
149127
149514
149615
149569
149431
149070
148728
149383
149376
149640
149371
149149
148917
149338
149459
149616
149510
149122
149029
149416
149576
149470
149051
149005
148970
149617
149552
149463
149371
148889
149131
149523
149622
149587
149423
149034
149056
149062
149495
149630
149321
149208
148906
149316
149459
149611
149507
149107
148963
149343
149495
149634
149526
149149
149096
149442
149581
149385
149430
148774
149134
149437
149625
149483
149320
148943
149131
149520
149629
149574
149440
149073
148755
149420
149378
149585
149624
148976
148908
149323
149474
149622
149514
149092
148959
149353
149506
149643
149541
149144
149077
149451
149588
149388
149431
148744
149117
149425
149633
149489
149317
148905
149108
149526
149628
149587
149425
149017
148986
149084
149479
149616
149398
149123
148874
149299
149465
149624
149519
149093
148933
149341
149500
149642
149539
149135
149049
149442
149596
149486
149079
148997
149019
149582
149581
149489
149326
148900
149104
149515
149630
149559
149423
149031
148648
149418
149343
149554
149663
148841
148782
149341
149431
149610
149468
149038
148883
149303
149472
149623
149503
149071
148984
149405
149579
149464
148993
148958
148856
149685
149525
149423
149400
148760
149024
149484
149609
149470
149314
148850
149058
149503
149620
149552
149413
148995
148594
149395
149321
149542
149645
148831
148779
149255
149437
149598
149483
148997
148837
149280
149459
149606
149487
149017
148871
149308
149478
149625
149508
149069
149010
149414
149567
149368
149354
148696
149103
149369
149628
149461
149228
148853
149006
149487
149597
149475
149296
148856
149061
149509
149615
149570
149399
148963
148937
149031
149450
149587
149346
149070
148799
149247
149435
149590
149473
148987
148810
149279
149455
149606
149497
149032
148930
149378
149555
149429
148949
148901
148810
149617
149502
149391
149324
148685
148976
149453
149589
149432
149262
148787
148989
149468
149583
149448
149271
148813
149036
149483
149601
149538
149384
148961
148596
149322
149312
149534
149537
148825
148736
149231
149406
149570
149442
148933
148772
149239
149425
149580
149461
148968
148798
149263
149446
149595
149474
149006
148918
149361
149541
149399
148999
148827
148844
149507
149512
149398
149236
148704
148929
149443
149568
149432
149250
148774
148973
149455
149576
149527
149330
148865
148848
148916
149409
149571
149192
149073
148744
149107
149391
149530
149435
148867
148692
149175
149390
149550
149425
148897
148714
149203
149398
149556
149432
148921
148750
149231
149417
149573
149448
148965
148893
149347
149507
149279
149269
148513
148920
149281
149552
149364
149118
148672
148864
149405
149530
149386
149185
148685
148892
149413
149541
149400
149209
148721
148933
149427
149555
149487
149327
148852
148452
149247
149243
149483
149498
148695
148575
149177
149330
149517
149373
148823
148637
149162
149355
149527
149399
148858
148662
149181
149375
149538
149410
148896
148800
149288
149481
149300
148927
148637
148652
149507
149425
149302
149206
148505
148781
149331
149505
149319
149126
148566
148803
149368
149500
149339
149132
148607
148819
149370
149505
149356
149156
148633
148866
149385
149519
149450
149277
148783
148411
149155
149211
149448
149424
148626
148494
149120
149292
149484
149334
148744
148544
149101
149310
149488
149346
148769
148581
149123
149332
149497
149350
148802
148723
149244
149406
149141
149253
148177
148524
149410
149426
149203
149188
148343
148684
149288
149448
149258
149061
148459
148698
149308
149452
149283
149061
148498
148733
149316
149458
149294
149078
148522
148775
149329
149473
149396
149223
148691
148224
149127
149114
149370
149468
148439
148336
149072
149217
149445
149251
148676
148422
149033
149240
149430
149282
148657
148455
149033
149257
149437
149287
148683
148495
149055
149274
149449
149310
148731
148596
149155
149388
149238
148650
148606
148714
149131
149385
149243
148802
148413
148598
149259
149391
149222
148958
148381
148608
149244
149400
149219
148984
148392
148638
149257
149407
149241
149016
148429
148681
149277
149422
149360
149130
148555
148454
148718
149188
149393
149035
148729
148381
148854
149193
149363
149250
148553
148327
148923
149190
149380
149222
148567
148359
148965
149200
149383
149228
148579
148373
148973
149204
149391
149238
148612
148426
149003
149227
149406
149255
148669
148565
149129
149328
149076
148943
148190
148567
149127
149367
149141
148928
148276
148516
149200
149348
149162
148919
148277
148523
149187
149348
149166
148925
148315
148562
149197
149356
149180
148945
148344
148608
149211
149367
149290
149082
148501
148123
148901
149026
149286
149248
148353
148162
148892
149103
149321
149151
148464
148218
148877
149119
149321
149150
148473
148260
148885
149134
149327
149158
148502
148303
148910
149152
149345
149181
148562
148449
149046
149261
149003
148851
148073
148451
149035
149304
149056
148816
148134
148384
149102
149276
149083
148819
148159
148390
149103
149279
149084
148827
148164
148423
149119
149286
149101
148849
148188
148479
149137
149298
149226
148978
148346
148173
148592
149021
149255
148924
148465
148114
148689
149037
149233
149103
148321
148079
148752
149044
149249
149076
148347
148101
148783
149047
149256
149090
148369
148128
148800
149058
149263
149098
148400
148165
148828
149078
149274
149112
148450
148324
148963
149189
148906
148754
147891
148314
148964
149220
148967
148718
147976
148265
149031
149204
149001
148730
148004
148267
149029
149211
149007
148737
148040
148292
149031
149213
149026
148764
148078
148371
149060
149234
149153
148914
148255
147844
148656
148854
149153
149032
148150
147903
148685
148942
149178
148983
148206
147949
148681
148956
149183
149003
148239
147972
148694
148968
149187
149006
148267
148022
148720
148989
149196
149020
148324
148180
148864
149099
148805
148639
147734
148117
148926
149129
148888
148627
147810
148114
148936
149125
148902
148610
147851
148138
148939
149132
148914
148626
147879
148163
148944
149134
148935
148655
147926
148251
148974
149161
149076
148819
148132
147676
148553
148754
149068
148936
147994
147738
148576
148846
149102
148899
148065
147804
148582
148875
149106
148910
148094
147833
148592
148885
149110
148916
148109
147866
148628
148908
149128
148946
148191
148043
148779
149033
148709
148527
147569
147923
148824
149028
148786
148521
147654
147972
148837
149041
148805
148507
147691
148008
148852
149053
148841
148541
147747
148069
148865
149069
148974
148701
147935
147484
148427
148648
148978
148860
147801
147517
148448
148734
149009
148802
147893
147595
148448
148760
149014
148809
147938
147644
148461
148774
149016
148811
147972
147707
148493
148798
149038
148837
148046
147911
148671
148949
148631
148349
147500
147882
148675
148955
148690
148378
147526
147824
148714
148942
148688
148373
147509
147844
148735
148951
148730
148418
147571
147925
148770
148978
148883
148590
147772
147329
148250
148540
148877
148717
147676
147377
148307
148627
148911
148684
147743
147433
148321
148653
148918
148694
147757
147475
148343
148674
148926
148702
147798
147519
148367
148694
148947
148737
147887
147731
148550
148852
148515
148186
147305
147675
148610
148848
148590
148245
147326
147696
148642
148864
148609
148275
147367
147699
148621
148857
148611
148289
147382
147757
148650
148873
148775
148467
147601
147173
148090
148433
148788
148555
147553
147207
148170
148525
148813
148570
147572
147268
148191
148550
148834
148604
147653
147331
148235
148584
148845
148623
147709
147534
148422
148752
148441
147925
147234
147546
148474
148738
148487
148074
147154
147498
148522
148754
148494
148118
147182
147585
148561
148782
148534
148179
147255
147646
148577
148799
148717
148400
147500
147050
148000
148353
148720
148382
147507
146989
148037
148381
148704
148467
147410
147056
148066
148424
148732
148494
147491
147165
148124
148479
148748
148507
147543
147407
148315
148648
148269
147959
146894
147321
148395
148650
148373
148007
146979
147376
148412
148669
148411
148047
147048
147490
148467
148710
148612
148267
147310
146870
147799
148244
148600
148352
147274
146907
147921
148330
148636
148380
147291
146965
147961
148356
148648
148411
147363
147051
148018
148397
148671
148448
147490
147297
148233
148573
148145
147719
146738
147175
148256
148526
148251
147855
146800
147212
148307
148569
148304
147922
146889
147328
148350
148599
148494
148138
147140
146707
147693
148122
148493
148206
147084
146718
147795
148209
148538
148272
147148
146822
147874
148269
148573
148314
147268
147081
148094
148466
148070
147596
146605
147038
148190
148453
148171
147746
146644
147051
148233
148488
148224
147822
146718
147171
148271
148511
148429
148057
146998
146482
147521
148003
148343
148017
146832
146382
147585
148024
148394
148114
146905
146510
147672
148095
148439
148162
147054
146880
147942
148333
147882
147449
146308
146827
148000
148322
148009
147564
146411
146901
148079
148370
148072
147644
146499
147007
148118
148394
148289
147904
146808
146329
147375
147884
148289
148002
146793
146373
147555
148008
148343
148071
146878
146681
147839
148249
147744
147328
145997
146615
147903
148215
147921
147468
146208
146636
147936
148220
147834
147366
146102
146686
147906
148213
148097
147671
146489
145942
147197
147654
148126
147787
146484
146067
147351
147810
148208
147898
146651
146417
147649
148090
147635
147044
145892
146363
147723
148061
147742
147235
145938
146450
147822
148129
147817
147334
146052
146598
147859
148163
148069
147621
146435
145798
147087
147559
148051
147727
146399
145934
147265
147739
148112
147811
146553
146333
147619
148048
147479
146837
145634
146074
147516
147871
147551
146997
145628
146244
147619
147963
147843
147350
146041
145430
146834
147340
147868
147483
146026
145573
146989
147511
147946
147600
146254
145968
147334
147822
147314
146692
145378
146000
147447
147809
147466
146905
145494
146174
147555
147888
147798
147304
145963
145208
146666
147206
147767
147403
145913
145426
146904
147431
147844
147504
146111
145862
147293
147777
147155
146452
145126
145499
147173
147558
147181
146555
145021
145771
147293
147664
147541
146998
145524
144895
146437
146994
147582
147162
145597
145080
146630
147191
147666
147285
145816
145531
147013
147541
147022
146329
144926
145575
147133
147530
147187
146603
145116
145832
147276
147633
147553
147037
145601
144903
146359
146980
147531
147138
145699
145426
146935
147475
146940
146234
144826
145437
147021
147369
146839
146204
144567
145336
146924
147338
147184
146609
145026
144440
146068
146677
147296
146832
145252
144940
146585
147171
146640
145766
144302
145034
146782
147194
146811
146157
144443
145309
146937
147312
147226
146643
145011
144324
145941
146613
147210
146803
145182
144859
146552
147152
146491
145785
144114
144943
146658
147085
146820
146212
144501
145099
146722
147111
146804
146177
144444
143791
145504
146228
146896
146440
144732
144407
146172
146789
146270
145552
143777
144703
146432
146908
146809
146178
144342
143642
145365
146206
146809
146352
144518
144224
146077
146771
146051
145368
143373
144546
146242
146786
146705
146050
144079
143264
145163
146014
146658
146294
144388
144213
146048
146725
145538
144639
142449
143532
145607
146266
146116
145338
143184
142477
144567
145520
146305
145752
143628
143254
145400
146211
145434
144624
142338
143629
145694
146292
146188
145432
143217
142421
144426
145477
146168
145687
143549
143237
145374
146211
145353
144540
142282
143856
145597
146122
146154
145518
143325
141445
143791
144818
145629
144923
142648
142309
144682
145528
144911
143923
141593
142931
145181
145805
145752
144957
142536
142054
144522
145497
144627
143559
141009
142565
144933
145610
145615
144757
142168
141300
143677
144859
145585
145154
142864
142768
145042
145750
144734
143577
140803
139706
142419
143758
144836
144168
141432
141035
143840
144819
144090
142938
140149
141768
144364
145097
145079
144216
141393
140810
143676
144817
143874
142615
139713
141515
144261
144891
145246
144410
141774
139817
143231
144397
142982
141457
138059
140003
143188
144159
144223
143125
139756
139196
142762
144030
143782
142297
138634
137550
141143
142847
144180
143268
139940
139786
143258
144436
144214
143058
139209
136637
141131
142938
141441
139678
135139
138342
142066
143322
143395
142084
137944
137409
141827
143319
143248
141631
136832
136648
141423
143356
142698
140720
135436
132660
137791
140374
142314
140600
135957
135704
140441
142225
142317
140359
135259
134828
140237
142278
142228
140000
134176
132321