/*--------------------------------*- C++ -*----------------------------------*\
| =========                 |                                                 |
| \\      /  F ield         | OpenFOAM: The Open Source CFD Toolbox           |
|  \\    /   O peration     | Version:  v2006                                 |
|   \\  /    A nd           | Website:  www.openfoam.com                      |
|    \\/     M anipulation  |                                                 |
\*---------------------------------------------------------------------------*/
FoamFile
{
    version     2.0;
    format      ascii;
    class       volScalarField;
    location    "0.03";
    object      p;
}
// * * * * * * * * * * * * * * * * * * * * * * * * * * * * * * * * * * * * * //

dimensions      [1 -1 -2 0 0 0 0];


internalField   nonuniform List<scalar> 
41981
(
147296
147308
147295
147309
147299
147302
147301
147301
147301
147301
147301
147302
147304
147306
147310
147313
147318
147322
147326
147331
147335
147340
147344
147348
147353
147358
147362
147367
147372
147377
147383
147388
147393
147399
147405
147410
147416
147422
147428
147434
147441
147447
147454
147460
147467
147474
147481
147488
147495
147502
147509
147516
147524
147531
147539
147546
147554
147562
147570
147577
147585
147593
147602
147610
147618
147626
147634
147643
147651
147659
147668
147676
147685
147693
147702
147710
147719
147727
147736
147745
147753
147762
147770
147779
147787
147796
147804
147813
147821
147830
147838
147846
147855
147863
147871
147879
147887
147896
147904
147911
147919
147927
147935
147943
147950
147958
147965
147972
147980
147987
147994
148001
148008
148015
148021
148028
148034
148041
148047
148053
148059
148065
148071
148076
148082
148087
148093
148098
148103
148108
148113
148117
148122
148126
148131
148135
148140
148144
148148
148152
148156
148158
148160
148160
148159
148158
148157
148156
148155
148155
148155
148155
148155
148159
148162
148171
148180
148196
148222
148239
148250
148232
148231
148226
148223
148224
148225
148218
148218
148218
148212
148211
148211
148206
148206
148207
148201
148200
148200
148197
148197
148198
148193
148192
148192
148189
148189
148190
148186
148186
148186
148183
148183
148184
148181
148181
148180
148179
148179
148179
148177
148177
148176
148175
148175
148176
148174
148173
148173
148172
148173
148173
148171
148171
148171
148170
148171
148171
148169
148169
148169
148169
148169
148169
148168
148168
148168
148168
148168
148168
148167
148167
148167
148167
148168
148168
148167
148167
148167
148167
148167
148168
148167
148167
148167
148168
148168
148168
148168
148168
148168
148168
148169
148169
148169
148169
148169
148170
148170
148170
148170
148170
148170
148171
148171
148172
148172
148172
148172
148173
148173
148174
148174
148174
148174
148175
148176
148176
148176
148176
148176
148178
148178
148178
148179
148179
148179
148181
148181
148181
148182
148182
148182
148184
148184
148184
148185
148185
148185
148187
148188
148188
148189
148189
148189
148191
148191
148191
148192
148192
148192
148195
148195
148195
148196
148196
148196
148199
148199
148200
148201
148201
148201
148204
148204
148204
148205
148205
148205
148208
148209
148209
148210
148210
148210
148213
148214
148214
148215
148215
148215
148219
148219
148219
148221
148221
148221
148224
148224
148225
148226
148226
148226
148230
148230
148230
148232
148232
148232
148236
148236
148236
148238
148238
148238
148242
148242
148243
148245
148245
148245
148249
148249
148249
148251
148251
148251
148255
148256
148256
148258
148258
148258
148262
148263
148263
148265
148265
148265
148270
148270
148270
148272
148272
148272
148277
148277
148277
148280
148280
148280
148285
148285
148285
148288
148288
148288
148293
148293
148293
148296
148296
148296
148301
148301
148301
148304
148304
148304
148309
148310
148310
148313
148313
148313
148318
148318
148319
148322
148322
148322
148327
148327
148328
148331
148331
148331
148336
148337
148337
148340
148340
148340
148346
148346
148346
148350
148350
148350
148356
148356
148356
148360
148360
148360
148366
148366
148366
148370
148370
148370
148376
148376
148377
148380
148380
148381
148387
148387
148387
148391
148391
148391
148398
148398
148398
148402
148402
148402
148409
148409
148409
148413
148414
148414
148420
148420
148421
148425
148425
148425
148432
148432
148432
148437
148437
148437
148444
148444
148444
148449
148449
148449
148456
148456
148457
148462
148462
148462
148469
148469
148469
148474
148474
148474
148482
148482
148482
148487
148487
148487
148495
148495
148495
148501
148501
148501
148508
148509
148509
148514
148514
148514
148522
148522
148523
148528
148528
148528
148536
148536
148537
148542
148542
148543
148551
148551
148551
148557
148557
148557
148565
148565
148566
148572
148572
148572
148580
148580
148581
148587
148587
148587
148595
148596
148596
148602
148602
148602
148611
148611
148611
148618
148618
148618
148627
148627
148627
148634
148634
148634
148642
148643
148643
148650
148650
148650
148659
148659
148659
148666
148666
148666
148675
148675
148676
148683
148683
148683
148692
148692
148692
148699
148699
148699
148709
148709
148709
148716
148716
148716
148726
148726
148726
148734
148734
148734
148743
148743
148744
148751
148751
148751
148760
148761
148761
148768
148768
148768
148778
148778
148778
148786
148786
148786
148795
148796
148796
148803
148803
148803
148813
148813
148814
148821
148821
148821
148831
148831
148831
148839
148839
148839
148848
148848
148849
148856
148856
148856
148866
148866
148866
148874
148874
148874
148883
148883
148884
148891
148891
148891
148900
148900
148901
148908
148908
148908
148917
148917
148918
148925
148925
148925
148934
148934
148934
148941
148941
148941
148950
148950
148951
148957
148957
148958
148966
148966
148967
148973
148973
148973
148982
148982
148982
148988
148988
148988
148997
148997
148997
149003
149003
149003
149011
149011
149011
149017
149017
149017
149024
149025
149025
149030
149030
149030
149037
149038
149038
149043
149043
149043
149050
149050
149050
149055
149055
149055
149061
149061
149061
149065
149065
149066
149071
149071
149072
149075
149075
149075
149081
149081
149081
149084
149084
149084
149089
149089
149090
149092
149092
149092
149097
149097
149097
149099
149099
149099
149103
149103
149103
149105
149105
149105
149109
149109
149109
149110
149110
149110
149113
149113
149113
149114
149114
149114
149116
149116
149117
149117
149117
149117
149119
149119
149119
149119
149119
149119
149120
149120
149120
149120
149120
149120
149121
149121
149121
149120
149120
149120
149121
149121
149121
149120
149120
149120
149120
149120
149120
149118
149118
149119
149118
149118
149118
149116
149116
149117
149116
149116
149116
149114
149114
149114
149113
149113
149113
149110
149111
149111
149110
149110
149110
149107
149107
149107
149106
149106
149106
149103
149103
149103
149102
149102
149102
149099
149099
149099
149098
149098
149098
149095
149095
149095
149093
149093
149093
149090
149090
149091
149089
149089
149089
149086
149086
149086
149084
149084
149084
149081
149081
149081
149080
149080
149080
149077
149077
149077
149075
149075
149075
149072
149073
149073
149071
149071
149071
149068
149068
149068
149067
149067
149067
149064
149064
149064
149063
149063
149063
149060
149060
149060
149059
149059
149059
149056
149056
149056
149055
149055
149055
149053
149053
149053
149052
149052
149052
149049
149049
149049
149048
149048
149048
149046
149046
149046
149045
149045
149045
149043
149043
149043
149042
149042
149042
149040
149040
149040
149039
149040
149040
149037
149038
149038
149037
149037
149037
149035
149035
149035
149034
149035
149035
149033
149033
149033
149032
149032
149032
149030
149031
149031
149030
149030
149030
149028
149029
149029
149028
149028
149028
149026
149027
149027
149026
149026
149026
149025
149025
149025
149024
149025
149025
149023
149023
149023
149023
149023
149023
149021
149021
149022
149021
149021
149021
149020
149020
149020
149020
149020
149020
149018
149019
149019
149018
149018
149019
149017
149017
149017
149017
149017
149017
149016
149016
149016
149016
149016
149016
149014
149015
149015
149014
149015
149015
149013
149013
149013
149013
149013
149013
149012
149012
149012
149012
149012
149012
149011
149011
149011
149011
149011
149011
149010
149010
149010
149010
149010
149010
149009
149009
149009
149009
149009
149009
149007
149008
149008
149007
149008
149008
149006
149006
149006
149006
149006
149006
149005
149005
149005
149005
149005
149005
149004
149004
149004
149004
149004
149004
149002
149002
149002
149003
149003
149003
149002
149002
149002
149004
149004
149004
149004
149004
149004
149004
149003
149003
149003
149003
149002
149002
149002
149001
149001
149001
149001
149001
149001
149000
149001
149000
149000
149000
149000
149000
149000
149000
149000
149000
149000
149000
149000
149000
149000
149000
149000
149000
149000
149000
149000
149000
149000
149000
149000
149000
149000
149000
149000
149001
149001
149002
149003
149000
148999
149000
149001
149002
149001
149002
149002
149002
149002
149002
149003
149000
149000
149000
148999
148999
148999
148999
148999
148999
149000
149000
149000
149000
149000
149000
148999
148999
148999
149000
148999
148999
148999
148999
148999
149000
149000
149000
149000
149000
149000
149000
149000
149000
149000
149000
149000
149001
149001
149001
149001
149001
149001
149001
149001
149001
149001
149001
149001
149001
149001
149001
149001
149001
149001
149002
149002
149002
149002
149002
149002
149002
149002
149002
149002
149002
149002
149002
149002
149002
149002
149002
149002
149003
149003
149003
149003
149003
149003
149003
149003
149003
149003
149003
149003
149003
149003
149003
149003
149003
149003
149003
149003
149003
149004
149004
149004
149004
149004
149004
149004
149004
149004
149004
149004
149004
149004
149004
149004
149004
149004
149004
149004
149004
149004
149004
149004
149004
149004
149004
149004
149005
149005
149005
149005
149005
149005
149005
149005
149005
149005
149005
149005
149005
149005
149005
149005
149005
149005
149005
149005
149005
149005
149005
149005
149005
149005
149005
149005
149005
149005
149006
149006
149006
149006
149006
149006
149006
149006
149006
149006
149006
149006
149006
149006
149006
149006
149006
149006
149006
149006
149006
149006
149006
149006
149006
149006
149006
149006
149006
149006
149006
149006
149006
149006
149006
149006
149006
149006
149006
149006
149006
149006
149006
149006
149006
149006
149006
149006
149006
149006
149006
149006
149006
149006
149006
149006
149006
149006
149006
149006
149006
149006
149006
149006
149006
149006
149006
149006
149006
149006
149006
149006
149006
149006
149006
149006
149006
149006
149006
149006
149006
149006
149006
149006
149006
149005
149005
149005
149005
149005
149005
149005
149005
149005
149005
149005
149005
149005
149005
149005
149005
149005
149005
149005
149005
149004
149004
149004
149004
149004
149004
149004
149004
149004
149004
149004
149004
149004
149004
149004
149003
149003
149003
149003
149003
149003
149003
149003
149003
149002
149002
149002
149002
149002
149002
149002
149002
149002
149001
149001
149001
149001
149001
149001
149001
149001
149001
149000
149000
149000
149000
149000
149000
148999
148999
148999
148999
148999
148999
148998
148998
148998
148998
148998
148998
148997
148997
148997
148996
148996
148996
148996
148996
148996
148995
148995
148995
148994
148994
148994
148994
148994
148994
148993
148993
148993
148992
148992
148992
148991
148991
148991
148990
148990
148990
148989
148989
148989
148988
148988
148988
148986
148987
148987
148985
148985
148985
148984
148984
148984
148982
148982
148982
148981
148981
148981
148979
148979
148979
148977
148977
148977
148975
148975
148975
148973
148973
148973
148971
148971
148971
148968
148968
148968
148966
148966
148966
148963
148963
148963
148960
148960
148960
148956
148957
148957
148954
148953
148953
148949
148949
148950
148946
148945
148945
148940
148941
148941
148935
148934
148934
148927
148928
148930
148928
148927
148926
148923
148924
148926
148923
148922
148921
148918
148919
148921
148922
148919
148919
148922
148923
148924
148926
148924
148923
148923
148925
148927
148932
148930
148930
148937
148937
148938
148941
148940
148940
148941
148943
148944
148950
148949
148948
148953
148954
148955
148964
148963
148963
148981
148979
148977
148993
149006
149002
148898
148895
148904
148940
148937
148938
148953
148953
148955
148963
148962
148962
148972
148972
148973
148978
148977
148977
148985
148985
148985
148989
148987
148986
148998
148999
149000
149007
149007
149007
149013
149013
149014
149018
149017
149016
149026
149026
149027
149039
149039
149038
149077
149071
149061
148953
149037
148944
149039
149008
149021
149036
149030
149032
149044
149045
149046
149056
149056
149055
149065
149065
149065
149071
149070
149069
149077
149078
149079
149088
149086
149087
149105
149104
149103
149124
149134
149128
149001
149093
149037
149087
149106
149098
149109
149107
149109
149117
149116
149117
149126
149127
149129
149140
149140
149140
149147
149147
149148
149161
149160
149160
149188
149188
149182
149101
149191
149084
149176
149158
149160
149179
149175
149176
149189
149189
149191
149205
149205
149205
149213
149214
149215
149233
149233
149235
149248
149262
149252
149239
149130
149253
149231
149247
149245
149259
149260
149259
149264
149267
149271
149295
149294
149292
149332
149326
149320
149238
149349
149218
149319
149291
149299
149329
149325
149327
149345
149345
149345
149360
149358
149357
149374
149378
149380
149408
149410
149408
149314
149436
149357
149406
149417
149416
149421
149424
149429
149461
149461
149459
149496
149489
149488
149423
149545
149389
149503
149486
149488
149527
149526
149527
149554
149556
149556
149584
149581
149583
149506
149637
149549
149618
149629
149632
149650
149650
149653
149681
149688
149667
149781
149620
149738
149746
149736
149739
149764
149776
149777
149824
149820
149830
149779
149909
149816
149893
149892
149890
149959
149936
149947
149942
150072
149915
150038
150025
150026
150088
150123
150105
150196
150098
150161
150193
150210
150209
150297
150283
150252
150298
150319
150322
150424
150399
150361
150331
150380
150408
150413
150361
150302
150221
150278
150317
150075
149989
149988
149610
149613
149581
149026
149134
149165
148810
148799
148771
148270
148406
148502
148321
148301
148267
148000
148105
148181
148136
148126
148111
147850
147949
148021
148035
148020
147995
147956
147978
148006
147976
147945
147901
147910
147927
147954
148002
147998
147984
147885
147935
147969
147966
147812
147975
147980
148028
147992
147990
147957
147939
148069
147746
147981
147969
148082
147949
147978
147943
147984
148012
148016
147998
147947
147970
147989
147993
147861
148013
148037
148067
148039
148029
148027
148035
147873
148043
147940
148057
148043
148048
148042
148037
148037
147968
148109
147918
148088
148071
148085
148056
148050
148038
148061
147932
148044
148096
148120
148102
148076
148082
148086
148080
147931
148118
148109
148138
148112
148099
148093
148100
148016
148083
148042
148144
148148
148147
148133
148130
148127
148120
148086
148090
148231
147930
148133
148138
148202
148139
148125
148128
148143
148150
147933
148214
148158
148217
148166
148145
148144
148156
148007
148210
148069
148193
148179
148193
148172
148164
148158
148066
148261
148002
148219
148182
148206
148173
148176
148181
148037
148216
148092
148223
148215
148230
148179
148190
148193
148194
148002
148250
148211
148253
148213
148194
148193
148205
148066
148228
148117
148235
148226
148237
148225
148213
148208
148126
148277
148081
148253
148230
148244
148213
148212
148206
148224
148100
148195
148240
148266
148245
148212
148219
148221
148222
148060
148266
148259
148289
148253
148233
148233
148245
148126
148231
148159
148262
148261
148270
148237
148229
148229
148149
148293
148104
148270
148250
148264
148237
148239
148235
148256
148141
148225
148265
148290
148274
148255
148242
148240
148148
148296
148095
148279
148252
148269
148238
148238
148231
148266
148118
148227
148262
148290
148263
148240
148246
148248
148253
148065
148313
148265
148309
148264
148245
148238
148239
148279
148097
148229
148255
148298
148258
148224
148230
148241
148244
148034
148303
148250
148309
148255
148239
148245
148264
148066
148347
148150
148305
148179
148343
148186
148223
148203
148255
148260
148257
148242
148230
148229
148151
148263
148112
148274
148254
148263
148230
148231
148219
148271
148096
148222
148254
148291
148261
148239
148238
148243
148238
148035
148302
148236
148303
148238
148227
148211
148204
148330
148018
148211
148187
148360
148154
148199
148154
148196
148233
148246
148235
148203
148206
148208
148200
148081
148230
148260
148282
148245
148221
148218
148222
148242
148067
148189
148208
148265
148208
148182
148184
148205
148191
147937
148258
148098
148376
148180
148127
148228
148121
148207
148207
148205
148176
148179
148187
148054
148216
148103
148229
148221
148239
148183
148183
148195
148185
147937
148258
148076
148356
148153
148106
148195
148086
148184
148180
148176
148144
148143
148137
148167
148031
148126
148157
148205
148158
148128
148130
148150
148148
147868
148221
148058
148341
148129
148099
148190
148098
148169
148165
148163
148112
148121
148132
147921
148192
148024
148162
148051
148183
148061
148083
148068
148123
148131
148132
148075
148089
148093
148099
147865
148173
148070
148189
148090
148061
148067
148055
148119
148126
148116
148095
148102
148112
148105
147998
148067
148092
148137
148095
148048
148047
148074
148056
147785
148136
147940
148264
148022
147990
148097
147969
148059
148057
148059
148021
148031
148045
147830
148097
147935
148094
147950
148132
147970
148002
147983
148056
148064
148067
148061
148038
148018
147906
148165
147821
148123
147910
148063
147976
147912
147978
148010
148015
148004
147965
147969
147986
147760
148040
147869
148032
147880
148060
147911
147941
147913
147974
147983
147981
147927
147936
147950
147947
147693
148032
147890
148120
147932
147907
147970
147895
147982
147984
147968
147935
147915
147909
148044
147670
147938
147963
147771
148067
147853
147871
147858
147904
147914
147912
147842
147847
147849
147894
147900
147895
147880
147865
147858
147759
147970
147680
147924
147831
147902
147825
147812
147818
147882
147885
147877
147842
147855
147873
147674
147957
147742
147840
147997
147759
147768
147787
147786
147828
147837
147828
147774
147771
147775
147815
147824
147823
147788
147774
147770
147666
147877
147583
147850
147725
147815
147731
147714
147725
147783
147789
147775
147747
147734
147730
147835
147521
147744
147783
147693
147859
147706
147709
147707
147757
147773
147773
147686
147686
147693
147733
147747
147741
147681
147688
147695
147683
147446
147759
147662
147800
147673
147643
147643
147628
147682
147684
147680
147625
147643
147652
147412
147769
147512
147619
147853
147488
147523
147648
147568
147640
147626
147638
147578
147582
147581
147639
147652
147646
147605
147605
147614
147605
147322
147708
147469
147841
147550
147514
147660
147469
147600
147589
147590
147515
147519
147506
147564
147566
147561
147507
147527
147541
147280
147649
147386
147498
147726
147390
147436
147450
147463
147512
147526
147515
147439
147438
147448
147491
147499
147492
147437
147434
147439
147493
147502
147497
147486
147467
147457
147367
147543
147310
147579
147386
147515
147405
147344
147410
147422
147441
147423
147372
147359
147367
147422
147430
147413
147378
147365
147361
147473
147133
147365
147389
147285
147477
147313
147303
147313
147353
147363
147361
147281
147282
147294
147346
147362
147353
147292
147301
147314
147305
147019
147411
147205
147523
147267
147243
147360
147200
147341
147325
147326
147238
147244
147235
147282
147287
147276
147211
147201
147198
147272
147272
147261
147211
147224
147236
147011
147294
147092
147199
147335
147120
147136
147151
147147
147188
147194
147185
147124
147118
147125
147167
147178
147173
147094
147095
147105
147153
147165
147155
147115
147112
147120
147097
146891
147177
147077
147237
147097
147071
147095
147056
147134
147136
147124
147056
147056
147064
147081
147093
147081
147046
147023
147021
147165
146757
147046
147086
146856
147253
147036
146898
146987
146995
147041
147001
146934
146914
146942
146984
146997
146992
146906
146905
146916
146960
146972
146966
146891
146893
146899
146950
146961
146959
146930
146917
146902
146793
146990
146706
146984
146823
146949
146850
146798
146862
146912
146915
146897
146836
146828
146835
146879
146884
146872
146805
146799
146802
146850
146854
146845
146791
146806
146817
146572
146882
146665
146781
146940
146678
146674
146753
146710
146767
146767
146763
146691
146694
146695
146744
146755
146755
146658
146664
146673
146725
146739
146733
146682
146677
146686
146634
146473
146686
146577
146871
146635
146604
146713
146557
146687
146655
146678
146589
146602
146593
146659
146663
146646
146568
146561
146562
146612
146618
146606
146537
146530
146530
146590
146594
146584
146531
146547
146558
146343
146580
146412
146515
146648
146424
146421
146484
146448
146503
146505
146502
146419
146422
146424
146475
146486
146482
146400
146399
146405
146450
146454
146448
146434
146424
146387
146253
146608
146069
146261
146546
146402
146277
146484
146222
146399
146394
146392
146303
146322
146298
146374
146379
146363
146287
146281
146285
146335
146339
146326
146249
146238
146234
146314
146315
146303
146241
146268
146277
145985
146345
146089
146205
146472
146044
146079
146230
146150
146230
146196
146239
146101
146127
146120
146175
146187
146179
146096
146094
146101
146149
146159
146151
146080
146074
146081
146129
146149
146137
146058
146064
146090
146077
145723
146261
146216
145996
146080
146047
145838
146073
146067
146088
146050
145978
145940
145967
146012
146018
146009
145930
145921
145923
145989
145994
145979
145903
145894
145894
145957
145967
145950
145907
145889
145890
145979
145651
145878
145933
145749
146088
145879
145727
145830
145840
145897
145849
145756
145737
145773
145822
145838
145833
145743
145737
145744
145781
145790
145779
145700
145698
145705
145756
145769
145761
145688
145682
145686
145729
145740
145733
145689
145686
145672
145566
145686
145511
145737
145647
145712
145582
145603
145586
145639
145649
145631
145547
145538
145534
145595
145604
145593
145517
145512
145518
145565
145572
145560
145482
145472
145470
145542
145548
145535
145479
145492
145500
145314
145492
145357
145458
145600
145376
145336
145414
145378
145434
145439
145436
145325
145334
145338
145387
145396
145388
145307
145302
145308
145352
145362
145352
145281
145275
145279
145329
145341
145335
145289
145282
145269
145159
145276
145114
145321
145214
145296
145156
145169
145159
145212
145225
145211
145133
145128
145135
145173
145183
145173
145091
145085
145090
145141
145148
145135
145052
145040
145038
145113
145123
145106
145057
145045
145051
145081
144851
145007
145064
144928
145186
144996
144874
144958
144976
145035
144983
144890
144868
144902
144944
144959
144950
144847
144844
144857
144907
144924
144918
144810
144809
144819
144865
144881
144876
144767
144769
144779
144825
144840
144836
144772
144769
144757
144632
144763
144563
144807
144722
144783
144647
144663
144638
144729
144734
144715
144623
144615
144613
144667
144677
144666
144581
144575
144583
144620
144632
144622
144543
144539
144547
144594
144602
144589
144525
144533
144542
144350
144487
144391
144514
144600
144473
144386
144436
144415
144460
144467
144454
144356
144360
144361
144413
144428
144425
144298
144302
144312
144356
144370
144363
144253
144255
144264
144308
144320
144313
144244
144251
144237
144112
144250
144039
144248
144268
144260
144135
144155
144113
144191
144201
144189
144094
144088
144091
144146
144155
144141
144046
144037
144039
144091
144103
144091
144007
144002
144007
144073
144078
144061
143989
144001
144016
143786
143946
143834
143957
144046
143898
143827
143885
143860
143918
143931
143920
143814
143813
143814
143853
143865
143857
143744
143742
143751
143793
143805
143795
143701
143697
143703
143747
143762
143758
143671
143674
143663
143514
143655
143433
143600
143672
143650
143546
143585
143534
143606
143615
143606
143506
143504
143501
143571
143577
143562
143467
143460
143462
143510
143522
143512
143444
143458
143469
143262
143418
143299
143414
143529
143337
143250
143327
143303
143370
143386
143376
143248
143253
143255
143300
143316
143310
143175
143177
143188
143232
143246
143237
143127
143126
143133
143183
143201
143194
143131
143119
143109
142963
143023
142952
143091
143019
143066
142928
142930
142924
142952
142955
142961
142861
142860
142843
142942
142948
142935
142844
142840
142841
142906
142913
142898
142825
142834
142838
142656
142748
142678
142795
142886
142749
142653
142707
142687
142740
142757
142741
142613
142618
142623
142672
142688
142679
142564
142557
142564
142599
142611
142596
142490
142489
142498
142554
142576
142571
142486
142481
142473
142321
142352
142319
142439
142435
142427
142301
142301
142294
142345
142349
142333
142197
142189
142177
142201
142205
142212
142104
142096
142073
142169
142180
142172
142110
142114
142116
141966
142006
141973
142094
142125
142092
141959
141973
141977
142023
142037
142017
141915
141908
141915
141969
141992
141987
141832
141837
141852
141903
141925
141913
141829
141826
141830
141724
141586
141801
141838
141774
141773
141665
141606
141661
141681
141703
141683
141572
141552
141569
141635
141642
141614
141485
141465
141463
141525
141538
141517
141427
141434
141448
141236
141275
141243
141333
141242
141369
141083
141150
141150
141244
141259
141244
141117
141134
141139
141219
141242
141243
141086
141093
141105
141154
141165
141149
141116
141093
141084
140916
141005
140882
141040
141068
141048
140922
140932
140919
140953
140962
140956
140838
140836
140830
140913
140914
140893
140800
140804
140808
140654
140608
140644
140731
140767
140754
140600
140585
140604
140616
140637
140609
140478
140462
140479
140497
140524
140500
140352
140343
140362
140367
140390
140374
140208
140225
140246
140046
140010
139975
140218
140225
140204
140107
140102
140096
140167
140180
140165
140054
140047
140053
140107
140120
140102
140017
140020
140023
139880
139857
139859
139946
139961
139944
139830
139822
139829
139872
139892
139879
139746
139737
139743
139771
139791
139776
139675
139671
139670
139502
139467
139509
139622
139637
139598
139463
139444
139455
139468
139493
139469
139323
139308
139323
139313
139337
139316
139184
139177
139183
138929
138896
138949
138993
138964
138968
138847
138870
138894
138997
139016
139009
138852
138869
138881
138961
138987
138984
138893
138880
138874
138668
138702
138647
138828
138823
138811
138675
138675
138672
138739
138738
138717
138567
138557
138543
138619
138626
138607
138503
138513
138513
138346
138285
138327
138407
138447
138440
138251
138242
138263
138270
138300
138280
138157
138144
138136
137863
137938
137815
138014
138008
137991
137802
137797
137791
137632
137681
137700
137495
137429
137371
137600
137630
137621
137575
137572
137573
137389
137457
137407
137553
137565
137552
137418
137428
137423
137487
137511
137510
137380
137381
137372
137181
137100
137203
137271
137277
137254
137127
137110
137141
137149
137175
137144
136979
136957
136968
136982
137012
136987
136868
136871
136905
136586
136645
136595
136708
136736
136737
136500
136520
136522
136497
136510
136525
136281
136304
136305
135960
135806
135887
135969
136015
136016
135948
135891
135899
136033
136071
136050
135991
135986
136011
135774
135845
135784
135926
135933
135916
135776
135784
135778
135838
135864
135868
135700
135709
135706
135478
135448
135488
135585
135605
135566
135398
135371
135373
135446
135461
135420
135271
135278
135306
134908
134978
134939
135062
135094
135096
134845
134853
134855
134792
134798
134808
134534
134561
134561
134158
133995
134087
134021
134155
134155
134084
134004
134011
134239
134275
134240
134192
134184
134203
133971
134051
133968
134112
134121
134112
133911
133936
133935
133992
134011
134013
133864
133869
133855
133621
133554
133632
133684
133709
133673
133500
133490
133506
133492
133515
133486
133305
133310
133324
132950
132953
132960
133038
133071
133082
132881
132878
132850
132470
132390
132508
132187
132255
132276
131949
131806
131672
132022
132092
132104
132093
132060
132038
131941
132006
131945
132137
132141
132144
132039
132051
132027
131842
131662
131859
131925
131941
131878
131695
131660
131665
131731
131756
131703
131535
131535
131535
131198
131181
131178
131247
131295
131293
131068
131067
131060
130640
130647
130667
130670
130637
130622
130329
130301
130289
129703
129847
129945
129653
129496
129297
129350
129439
129523
129831
129870
129828
129834
129833
129831
129655
129679
129660
129768
129772
129750
129603
129621
129602
129321
129224
129310
129358
129420
129380
129279
129227
129235
128797
128933
128809
128942
128839
128869
128569
128610
128555
128088
128045
128091
127987
128078
127959
127483
127445
127573
126746
126567
126237
126908
126976
127044
127161
127145
127129
127053
127016
127066
127242
127310
127262
127169
127143
127160
126779
126899
126753
126983
126953
126951
126725
126769
126745
126367
126193
126345
126289
126393
126320
126088
126021
126073
125399
125472
125422
125343
125193
125249
124687
124616
124397
123133
123497
123791
124166
124110
124012
124321
124347
124370
124268
124255
124257
124496
124514
124462
124370
124386
124392
124134
124102
124104
123643
123678
123629
123804
123784
123766
123494
123549
123520
122926
122781
122929
122582
122669
122514
121747
121797
121981
120935
120538
120071
120410
120496
120794
121394
121560
121444
121624
121630
121632
121423
121428
121395
121589
121597
121573
121381
121425
121425
120973
120932
120971
120339
120319
120323
120162
120310
120244
119737
119569
119718
117633
118207
118484
117846
117515
117147
118343
118481
118474
118951
118959
118982
118954
118956
118957
118840
118824
118845
118423
118388
118467
118465
118512
118391
117962
117867
117963
116868
116735
116512
114415
115058
115517
115310
115308
114838
116670
116589
116543
117015
117049
117070
117006
116985
117001
116781
116803
116736
116297
116126
116356
115183
115059
114692
113254
113688
114154
115136
115121
115052
116123
116026
115997
116373
116346
116370
116252
116267
116340
116067
115851
115633
114726
115204
115557