/*--------------------------------*- C++ -*----------------------------------*\
| =========                 |                                                 |
| \\      /  F ield         | OpenFOAM: The Open Source CFD Toolbox           |
|  \\    /   O peration     | Version:  v2006                                 |
|   \\  /    A nd           | Website:  www.openfoam.com                      |
|    \\/     M anipulation  |                                                 |
\*---------------------------------------------------------------------------*/
FoamFile
{
    version     2.0;
    format      ascii;
    class       volScalarField;
    location    "0.03";
    object      turbulenceProperties:I;
}
// * * * * * * * * * * * * * * * * * * * * * * * * * * * * * * * * * * * * * //

dimensions      [0 0 0 0 0 0 0];


internalField   nonuniform List<scalar> 
41981
(
0.150002
0.150002
0.150003
0.150002
0.150003
0.150001
0.15
0.149999
0.149997
0.149997
0.149996
0.149997
0.149998
0.150001
0.150004
0.150007
0.15001
0.150011
0.150011
0.150011
0.15001
0.15001
0.150009
0.150008
0.150007
0.150007
0.150006
0.150006
0.150005
0.150005
0.150004
0.150004
0.150004
0.150004
0.150003
0.150003
0.150003
0.150003
0.150002
0.150002
0.150002
0.150002
0.150002
0.150002
0.150001
0.150001
0.150001
0.150001
0.150001
0.150001
0.150001
0.150001
0.150001
0.150001
0.150001
0.150001
0.150001
0.150001
0.150001
0.150001
0.150001
0.150001
0.150001
0.150001
0.150001
0.150001
0.150001
0.150001
0.150001
0.150001
0.150001
0.150001
0.150001
0.150001
0.150001
0.150001
0.150001
0.150001
0.150001
0.150001
0.150001
0.150001
0.150001
0.150001
0.150001
0.150001
0.150001
0.150001
0.150001
0.150001
0.150001
0.150001
0.150001
0.150001
0.150001
0.150001
0.150001
0.150001
0.150001
0.150001
0.150001
0.150001
0.150001
0.150001
0.150001
0.150001
0.150001
0.150001
0.15
0.15
0.15
0.15
0.15
0.15
0.15
0.15
0.15
0.15
0.15
0.15
0.15
0.15
0.15
0.15
0.15
0.15
0.15
0.149999
0.149999
0.149999
0.149999
0.149999
0.149998
0.149997
0.149997
0.149996
0.149997
0.149999
0.150003
0.15001
0.150019
0.150029
0.150036
0.150037
0.150026
0.150004
0.149998
0.149979
0.149965
0.149958
0.149956
0.149955
0.149955
0.149978
0.149995
0.149995
0.150008
0.150013
0.149838
0.149201
0.145172
0.13946
0.145534
0.148575
0.145242
0.137381
0.133299
0.128827
0.133123
0.142909
0.137739
0.125572
0.123833
0.120982
0.123357
0.13599
0.131443
0.117617
0.117466
0.115635
0.116469
0.130201
0.12678
0.113021
0.11341
0.112297
0.112421
0.125999
0.123249
0.110023
0.110702
0.110073
0.109947
0.122855
0.120644
0.108353
0.108972
0.108642
0.108465
0.120447
0.118587
0.107289
0.108255
0.108411
0.10752
0.118517
0.116914
0.106628
0.108312
0.108595
0.106926
0.116928
0.115514
0.106217
0.108591
0.108906
0.106537
0.115581
0.114302
0.105929
0.108934
0.109251
0.106254
0.114403
0.113227
0.105717
0.109291
0.109601
0.106042
0.11335
0.112258
0.105562
0.109648
0.109949
0.105884
0.112399
0.111385
0.105454
0.110002
0.110293
0.105773
0.111536
0.110589
0.105386
0.110351
0.110634
0.105701
0.110747
0.109859
0.105351
0.110696
0.110972
0.105662
0.110023
0.109192
0.105346
0.111037
0.111306
0.105653
0.109363
0.108586
0.105368
0.111374
0.111636
0.105672
0.108763
0.108038
0.105416
0.111707
0.111964
0.105716
0.108221
0.107543
0.105487
0.112037
0.112289
0.105784
0.107731
0.107096
0.10558
0.112364
0.112612
0.105873
0.107288
0.106692
0.105692
0.112689
0.112933
0.105981
0.106887
0.106327
0.105819
0.113011
0.113251
0.106105
0.106524
0.105997
0.10596
0.113331
0.113568
0.106243
0.106196
0.105699
0.106112
0.113649
0.113882
0.106392
0.1059
0.105431
0.106275
0.113964
0.114195
0.106552
0.105633
0.105191
0.106448
0.114278
0.114507
0.106722
0.105394
0.104977
0.106631
0.114591
0.114818
0.106902
0.105181
0.104788
0.106822
0.114903
0.115128
0.107091
0.104993
0.104623
0.107022
0.115214
0.115439
0.107289
0.104829
0.104481
0.10723
0.115526
0.115749
0.107495
0.104688
0.10436
0.107445
0.115837
0.116059
0.10771
0.104568
0.104259
0.107669
0.116148
0.116371
0.107932
0.104469
0.104179
0.107899
0.116461
0.116683
0.108162
0.104389
0.104116
0.108137
0.116774
0.116997
0.108399
0.104328
0.104072
0.108381
0.117089
0.117313
0.108643
0.104284
0.104043
0.108632
0.117406
0.11763
0.108894
0.104257
0.104031
0.108889
0.117725
0.11795
0.109151
0.104246
0.104034
0.109152
0.118046
0.118273
0.109415
0.104251
0.104052
0.109421
0.11837
0.118598
0.109686
0.10427
0.104084
0.109697
0.118697
0.118928
0.109963
0.104304
0.10413
0.109979
0.119027
0.119261
0.110247
0.104353
0.104191
0.110269
0.119362
0.119598
0.110539
0.104416
0.104265
0.110565
0.119701
0.119941
0.110838
0.104493
0.104353
0.110869
0.120045
0.120288
0.111145
0.104584
0.104456
0.111181
0.120394
0.120641
0.111461
0.104689
0.104572
0.111501
0.12075
0.121001
0.111785
0.104809
0.104702
0.11183
0.121111
0.121367
0.112119
0.104943
0.104848
0.112169
0.12148
0.121741
0.112461
0.105092
0.105008
0.112515
0.121856
0.122122
0.112808
0.105256
0.105181
0.112866
0.122241
0.122509
0.113163
0.105434
0.105369
0.113228
0.122635
0.122906
0.113528
0.105626
0.105572
0.113602
0.123038
0.123312
0.113907
0.105834
0.10579
0.113989
0.123451
0.123729
0.1143
0.106058
0.106025
0.11439
0.123874
0.124155
0.114707
0.1063
0.106277
0.114806
0.124307
0.124593
0.115129
0.106558
0.106546
0.115236
0.124751
0.125043
0.115566
0.106835
0.106834
0.115682
0.125207
0.125504
0.11602
0.10713
0.10714
0.116144
0.125675
0.125977
0.11649
0.107444
0.107464
0.116622
0.126155
0.126463
0.116976
0.107778
0.107809
0.117116
0.126647
0.126963
0.117479
0.108132
0.108174
0.117627
0.127153
0.127476
0.118001
0.108508
0.108561
0.118156
0.127673
0.128004
0.118541
0.108905
0.108969
0.118704
0.128207
0.128547
0.119101
0.109324
0.109399
0.119271
0.128757
0.129105
0.119681
0.109766
0.109852
0.119858
0.129322
0.12968
0.120283
0.110231
0.110329
0.120466
0.129903
0.130272
0.120906
0.110721
0.110829
0.121095
0.130501
0.130881
0.121551
0.111235
0.111355
0.121747
0.131117
0.131508
0.12222
0.111775
0.111906
0.122421
0.131749
0.132153
0.122912
0.112341
0.112483
0.123118
0.1324
0.132817
0.123628
0.112933
0.113086
0.123839
0.133069
0.133499
0.124369
0.113551
0.113715
0.124584
0.133756
0.1342
0.125134
0.114197
0.114371
0.125354
0.134461
0.13492
0.125925
0.114869
0.115054
0.126147
0.135185
0.135659
0.12674
0.115569
0.115763
0.126965
0.135926
0.136415
0.12758
0.116295
0.116499
0.127805
0.136685
0.137189
0.128442
0.117047
0.117259
0.128668
0.13746
0.137979
0.129327
0.117824
0.118044
0.129551
0.138249
0.138783
0.130232
0.118625
0.118851
0.130454
0.139052
0.139601
0.131157
0.119447
0.119678
0.131374
0.139866
0.140428
0.132096
0.120289
0.120522
0.132308
0.140689
0.141263
0.133049
0.121146
0.12138
0.133252
0.141516
0.142102
0.134008
0.122014
0.122248
0.134201
0.142345
0.142939
0.13497
0.12289
0.123119
0.13515
0.143169
0.14377
0.135928
0.123766
0.123989
0.136092
0.143984
0.144589
0.136875
0.124638
0.124851
0.13702
0.144784
0.145387
0.137802
0.125497
0.125697
0.137925
0.145563
0.146153
0.1387
0.126336
0.126518
0.138801
0.146314
0.146883
0.139558
0.127144
0.127304
0.139631
0.147028
0.147569
0.140361
0.12791
0.128042
0.140401
0.147693
0.148199
0.141093
0.128621
0.128717
0.141097
0.148298
0.148763
0.141744
0.129262
0.129318
0.141709
0.148835
0.149252
0.142301
0.129821
0.12983
0.142223
0.149294
0.149657
0.142751
0.130284
0.13024
0.142626
0.149668
0.14997
0.143081
0.130639
0.130537
0.142905
0.149948
0.150184
0.14328
0.130873
0.130709
0.14305
0.150128
0.150294
0.143338
0.130977
0.130748
0.143052
0.150203
0.150298
0.143248
0.130943
0.130646
0.142907
0.150167
0.150173
0.143001
0.130767
0.130401
0.142574
0.150024
0.149941
0.142567
0.130446
0.130007
0.142063
0.149766
0.149603
0.141958
0.129974
0.129465
0.141392
0.149418
0.14919
0.141198
0.129358
0.128785
0.140582
0.148966
0.148691
0.140308
0.128608
0.12798
0.139656
0.14844
0.148129
0.139311
0.127738
0.127067
0.138632
0.147856
0.147514
0.138224
0.126768
0.126064
0.137517
0.147218
0.146858
0.137053
0.125715
0.124986
0.136331
0.14655
0.146179
0.135827
0.124595
0.123855
0.135115
0.145873
0.145489
0.134582
0.123433
0.122695
0.133894
0.145188
0.144817
0.133343
0.122249
0.121518
0.132681
0.144512
0.144149
0.132111
0.121051
0.120333
0.131476
0.143838
0.143489
0.130892
0.11985
0.119153
0.130288
0.143184
0.142865
0.129713
0.118667
0.118004
0.129158
0.142576
0.142283
0.128601
0.117524
0.116903
0.1281
0.142013
0.141746
0.127566
0.116437
0.115862
0.127123
0.141494
0.141249
0.126611
0.115411
0.114886
0.126227
0.141015
0.140795
0.12574
0.114453
0.113979
0.125416
0.140581
0.140388
0.124956
0.113568
0.113141
0.124665
0.140197
0.14002
0.124242
0.112763
0.112369
0.123987
0.139852
0.139693
0.123603
0.112026
0.111667
0.123387
0.139549
0.139408
0.123044
0.11136
0.111035
0.122865
0.139285
0.13916
0.122561
0.110763
0.110474
0.122419
0.139059
0.138949
0.122153
0.110236
0.10998
0.122043
0.138867
0.138771
0.121814
0.109776
0.109553
0.121732
0.138706
0.138622
0.12154
0.10938
0.109189
0.121484
0.138572
0.138498
0.121324
0.109045
0.108885
0.121292
0.13846
0.138398
0.121157
0.108767
0.108634
0.121147
0.138369
0.138316
0.121034
0.10854
0.108431
0.121043
0.138296
0.138251
0.120949
0.108358
0.108271
0.120975
0.138239
0.1382
0.120897
0.108217
0.10815
0.120939
0.138194
0.138161
0.120875
0.108112
0.108062
0.12093
0.138161
0.138133
0.120876
0.108039
0.108004
0.120943
0.138138
0.138113
0.120898
0.107993
0.10797
0.120975
0.138121
0.138099
0.120935
0.107969
0.107958
0.121021
0.13811
0.138089
0.120985
0.107964
0.107961
0.121077
0.138103
0.138082
0.121043
0.107974
0.107978
0.121141
0.138097
0.138077
0.121107
0.107995
0.108003
0.121207
0.138094
0.138073
0.121173
0.108023
0.108035
0.121274
0.13809
0.13807
0.121241
0.108057
0.108071
0.121341
0.138087
0.138066
0.121307
0.108093
0.108108
0.121406
0.138084
0.138061
0.12137
0.108129
0.108144
0.121467
0.138079
0.138055
0.121428
0.108163
0.108177
0.121522
0.138072
0.138048
0.121481
0.108193
0.108205
0.121572
0.138065
0.138039
0.121526
0.108218
0.108228
0.121614
0.138055
0.138028
0.121565
0.108237
0.108244
0.121649
0.138044
0.138015
0.121596
0.108249
0.108252
0.121676
0.138031
0.138001
0.121619
0.108252
0.108252
0.121696
0.138016
0.137984
0.121634
0.108247
0.108243
0.121706
0.137999
0.137966
0.121641
0.108233
0.108225
0.121709
0.13798
0.137946
0.121639
0.108209
0.108197
0.121703
0.137959
0.137924
0.121628
0.108176
0.108159
0.121688
0.137934
0.137897
0.121607
0.108131
0.108109
0.121662
0.137906
0.137866
0.121575
0.108074
0.108046
0.121625
0.137871
0.137824
0.121528
0.108001
0.107964
0.121569
0.137822
0.137753
0.12145
0.107904
0.107849
0.121468
0.137716
0.137383
0.12135
0.107729
0.107632
0.121111
0.137258
0.137048
0.120756
0.107447
0.107078
0.120263
0.136554
0.135114
0.118981
0.106305
0.10601
0.118514
0.133697
0.132459
0.117709
0.105517
0.105082
0.117117
0.131184
0.13006
0.116463
0.104659
0.102574
0.105718
0.11285
0.119917
0.126672
0.131916
0.136063
0.139614
0.142591
0.145238
0.147534
0.149593
0.151403
0.153029
0.154459
0.155735
0.156845
0.15782
0.158646
0.159344
0.159902
0.16033
0.160619
0.160772
0.160774
0.160624
0.160304
0.159803
0.159099
0.158171
0.156987
0.155501
0.153691
0.151505
0.148903
0.145856
0.142293
0.138445
0.134054
0.128394
0.122622
0.118776
0.112571
0.109234
0.112606
0.120115
0.136094
0.160387
0.160976
0.136329
0.120441
0.120687
0.136841
0.161755
0.161923
0.137353
0.12132
0.121415
0.137443
0.162203
0.162321
0.137694
0.121665
0.121745
0.137932
0.162443
0.162838
0.137956
0.121919
0.122095
0.137971
0.163031
0.163118
0.138109
0.122073
0.122219
0.138304
0.163158
0.163115
0.138293
0.122231
0.122309
0.138351
0.163146
0.163121
0.138336
0.122318
0.122394
0.13839
0.163129
0.163107
0.138371
0.122401
0.122478
0.138427
0.163114
0.163089
0.138407
0.122484
0.12256
0.138461
0.163094
0.163068
0.138441
0.122566
0.122644
0.138497
0.163074
0.163046
0.138475
0.12265
0.122728
0.13853
0.16305
0.163022
0.138508
0.122733
0.122814
0.138565
0.163027
0.162998
0.138543
0.122819
0.1229
0.138599
0.163001
0.162972
0.138576
0.122906
0.122989
0.138635
0.162977
0.162946
0.138612
0.122994
0.123078
0.13867
0.162949
0.16292
0.138647
0.123085
0.123171
0.138707
0.162924
0.162893
0.138684
0.123177
0.123264
0.138744
0.162896
0.162866
0.13872
0.123271
0.123361
0.138783
0.16287
0.162838
0.138759
0.123368
0.123459
0.138822
0.162842
0.16281
0.138798
0.123467
0.123561
0.138864
0.162815
0.162783
0.13884
0.123569
0.123664
0.138905
0.162786
0.162755
0.138881
0.123673
0.12377
0.138949
0.16276
0.162727
0.138925
0.123779
0.123879
0.138993
0.162731
0.162699
0.138969
0.123888
0.12399
0.13904
0.162704
0.162671
0.139016
0.124
0.124104
0.139087
0.162676
0.162643
0.139063
0.124114
0.124221
0.139136
0.162649
0.162615
0.139112
0.124232
0.124339
0.139186
0.16262
0.162587
0.139162
0.124351
0.124462
0.139238
0.162593
0.162559
0.139215
0.124474
0.124586
0.139292
0.162564
0.16253
0.139268
0.124599
0.124714
0.139347
0.162537
0.162502
0.139324
0.124727
0.124844
0.139404
0.162508
0.162473
0.13938
0.124857
0.124977
0.139463
0.162481
0.162445
0.13944
0.12499
0.125112
0.139523
0.162452
0.162416
0.1395
0.125126
0.125252
0.139587
0.162425
0.162388
0.139563
0.125266
0.125393
0.139651
0.162396
0.16236
0.139628
0.125407
0.125537
0.139719
0.162369
0.162332
0.139695
0.125552
0.125683
0.139788
0.162341
0.162304
0.139764
0.125698
0.125833
0.13986
0.162315
0.162277
0.139836
0.125847
0.125984
0.139933
0.162286
0.162249
0.139909
0.125999
0.126138
0.140009
0.162261
0.162222
0.139985
0.126152
0.126293
0.140087
0.162233
0.162195
0.140063
0.126307
0.126451
0.140169
0.162208
0.162168
0.140144
0.126464
0.126608
0.140252
0.162181
0.162142
0.140227
0.126621
0.126768
0.140339
0.162157
0.162116
0.140313
0.12678
0.126928
0.140427
0.162131
0.162091
0.140401
0.126938
0.127087
0.140518
0.162107
0.162066
0.140492
0.127095
0.127245
0.140611
0.162082
0.162041
0.140585
0.127251
0.127401
0.140708
0.16206
0.162018
0.14068
0.127404
0.127553
0.140805
0.162036
0.161994
0.140777
0.127553
0.127701
0.140907
0.162015
0.161973
0.140877
0.127697
0.127842
0.141011
0.161994
0.161952
0.140981
0.127833
0.127974
0.141121
0.161977
0.161935
0.141091
0.127959
0.128094
0.141237
0.161962
0.161921
0.141208
0.128071
0.128199
0.141365
0.161954
0.161914
0.141337
0.128165
0.128278
0.141506
0.161952
0.161916
0.141481
0.128231
0.128323
0.141662
0.161963
0.161931
0.14164
0.128257
0.128316
0.14183
0.161986
0.161961
0.141808
0.128222
0.128231
0.141998
0.162024
0.162005
0.141969
0.128098
0.128032
0.142132
0.162071
0.162058
0.142081
0.127845
0.127673
0.142172
0.162111
0.162105
0.142069
0.127412
0.127128
0.142003
0.162099
0.162086
0.141797
0.126725
0.126329
0.141516
0.16206
0.161987
0.141104
0.125723
0.125175
0.140528
0.161881
0.161696
0.139696
0.124369
0.123674
0.138825
0.161515
0.161209
0.137622
0.122697
0.121872
0.136412
0.160902
0.160525
0.134866
0.120748
0.119801
0.133336
0.160036
0.159463
0.131427
0.118554
0.117517
0.1296
0.158886
0.15818
0.127392
0.116199
0.115147
0.125329
0.157542
0.156765
0.122856
0.113807
0.112672
0.120496
0.155793
0.1543
0.118422
0.11142
0.1103
0.116725
0.15286
0.151711
0.114323
0.109221
0.108391
0.111218
0.150696
0.149695
0.108861
0.10751
0.107188
0.107309
0.148397
0.147395
0.106158
0.106749
0.106516
0.104504
0.146469
0.145208
0.103415
0.1063
0.106765
0.102474
0.143798
0.143021
0.102649
0.106684
0.107368
0.102087
0.142113
0.140941
0.102141
0.107368
0.108859
0.102088
0.139543
0.137465
0.103855
0.109786
0.112199
0.107026
0.134804
0.132725
0.10913
0.113944
0.116308
0.11295
0.130506
0.158709
0.0990554
0.0916272
0.107662
0.106287
0.149695
0.150845
0.102477
0.105047
0.10449
0.100366
0.150943
0.150535
0.0994955
0.104516
0.103192
0.0974124
0.149567
0.1488
0.0965572
0.103344
0.102454
0.0951435
0.147271
0.145722
0.0953198
0.103745
0.103348
0.0943915
0.144527
0.143132
0.0962446
0.105437
0.105856
0.0962218
0.140728
0.136966
0.10038
0.109695
0.112074
0.102835
0.133226
0.130473
0.108278
0.116558
0.087339
0.0923873
0.15387
0.146638
0.0995751
0.107123
0.106263
0.097515
0.145817
0.144754
0.0998757
0.11044
0.110597
0.0991328
0.143012
0.142067
0.101103
0.113505
0.114237
0.101588
0.140027
0.137845
0.103384
0.116964
0.119344
0.10457
0.135192
0.132972
0.110001
0.123288
0.125323
0.113863
0.131849
0.151983
0.0922951
0.0887935
0.111768
0.0993329
0.145468
0.14565
0.0960292
0.110311
0.113283
0.0987337
0.145119
0.142539
0.100609
0.115793
0.11649
0.101275
0.140839
0.138811
0.106897
0.122204
0.125138
0.110009
0.136053
0.134317
0.117633
0.130703
0.0930902
0.0934494
0.150957
0.145256
0.103052
0.120471
0.121672
0.103079
0.143029
0.140977
0.108503
0.129387
0.131672
0.110482
0.138788
0.137579
0.115234
0.137638
0.141744
0.120238
0.136905
0.136929
0.127896
0.144798
0.101171
0.098121
0.149785
0.144211
0.109056
0.132486
0.13478
0.109848
0.142997
0.141642
0.117701
0.142298
0.145539
0.121744
0.14013
0.141444
0.134849
0.153309
0.107032
0.100653
0.151891
0.145506
0.114961
0.143071
0.146328
0.116883
0.143544
0.143257
0.126308
0.158265
0.162402
0.130012
0.142375
0.143813
0.142951
0.172439
0.175991
0.151296
0.146789
0.150506
0.110853
0.123541
0.166673
0.13026
0.147463
0.146398
0.133595
0.170292
0.186511
0.153502
0.149515
0.154009
0.164935
0.193838
0.140786
0.118283
0.153124
0.149864
0.147112
0.190838
0.19914
0.156269
0.151934
0.158737
0.179812
0.218575
0.224623
0.191427
0.16445
0.15531
0.135854
0.168567
0.2262
0.178285
0.16014
0.166399
0.189971
0.237024
0.25499
0.217871
0.177701
0.161548
0.149894
0.198022
0.267633
0.210124
0.172523
0.183142
0.231245
0.287096
0.316262
0.272254
0.203252
0.178105
0.194274
0.261121
0.347158
0.285297
0.202962
0.224052
0.318326
0.376898
0.328647
0.238921
0.197478
0.240123
0.369038
0.443597
0.510095
0.434999
0.280597
0.242866
0.353063
0.484345
0.675412
0.575818
0.348371
0.469081
0.7892
0.908137
1
0.79902
0.41386
1
1
1
1
1
1
0.846753
1
1
0.717886
0.649399
0.400168
0.253741
0.406263
0.470796
0.356319
0.306604
0.200685
0.182737
0.26106
0.299379
0.272583
0.256337
0.19401
0.158956
0.177911
0.219656
0.22345
0.204604
0.167989
0.150048
0.152562
0.177674
0.192402
0.175658
0.154016
0.142878
0.136185
0.153346
0.173479
0.156314
0.148005
0.140073
0.12796
0.140438
0.158608
0.143513
0.140941
0.13776
0.121676
0.131888
0.148741
0.131385
0.133061
0.130029
0.122847
0.139438
0.109465
0.103988
0.13463
0.128453
0.112634
0.130302
0.120953
0.107611
0.127509
0.135828
0.0958006
0.0964449
0.115291
0.104665
0.127022
0.132306
0.0953052
0.097643
0.115291
0.100513
0.1204
0.122239
0.0968171
0.107196
0.0885089
0.0907313
0.13197
0.119714
0.0951362
0.105305
0.0990909
0.0916229
0.121719
0.131349
0.0875365
0.0833171
0.0981333
0.089438
0.117073
0.121415
0.0869217
0.0931007
0.0796926
0.0849007
0.131922
0.114674
0.0852805
0.0925438
0.0876698
0.0830701
0.118782
0.131928
0.0823056
0.0766009
0.0874212
0.0815655
0.114202
0.118634
0.0806043
0.0837845
0.0738585
0.0802899
0.131517
0.111755
0.0782513
0.0835178
0.0803746
0.0782206
0.116775
0.130638
0.0789076
0.0718666
0.0810617
0.0766287
0.110684
0.115186
0.0751174
0.0757939
0.0737093
0.0766738
0.122229
0.137835
0.0777777
0.0697296
0.0718306
0.0706697
0.112598
0.119528
0.0717987
0.0705848
0.0652822
0.0749665
0.1358
0.110872
0.0682081
0.0695508
0.0683867
0.0704367
0.118221
0.134232
0.0744278
0.0640101
0.0667262
0.0660545
0.109629
0.117231
0.0688571
0.0659351
0.0626154
0.0738725
0.133746
0.1091
0.0660161
0.0659042
0.0647241
0.0669333
0.116327
0.132986
0.0745494
0.0615708
0.0628133
0.0646967
0.108438
0.115418
0.0655432
0.0622356
0.0602572
0.0736845
0.132169
0.107975
0.0640868
0.0622559
0.0613861
0.0645002
0.115364
0.131709
0.0744201
0.0596577
0.0600063
0.0627167
0.107929
0.115759
0.06352
0.059623
0.0584532
0.073828
0.131327
0.106568
0.0616007
0.0590676
0.0586234
0.0628819
0.114335
0.13096
0.0730225
0.0579277
0.0578281
0.0607373
0.107377
0.115009
0.0617702
0.0570574
0.057172
0.0736143
0.131879
0.107193
0.0606018
0.0574472
0.0559793
0.0608026
0.114404
0.130554
0.0731724
0.0563734
0.0562829
0.0595284
0.106342
0.113951
0.0598429
0.0545146
0.0557708
0.0738814
0.129699
0.107019
0.0592965
0.0559005
0.0537971
0.0597265
0.115041
0.130921
0.0741101
0.0555468
0.0548297
0.0586403
0.106048
0.113572
0.0589801
0.0526697
0.0545916
0.0739157
0.129852
0.106569
0.0580357
0.0543039
0.0518376
0.0578697
0.114217
0.130526
0.0740547
0.0542313
0.0529763
0.0572856
0.106654
0.115157
0.05822
0.0509981
0.0533523
0.0735671
0.131669
0.106584
0.0564401
0.0523069
0.0498114
0.0564656
0.114327
0.130936
0.073388
0.052433
0.0508152
0.0553648
0.10662
0.114933
0.0562872
0.0487606
0.0518132
0.0733797
0.132174
0.106609
0.0548084
0.0501653
0.0483568
0.0567619
0.115982
0.132776
0.0758079
0.0522934
0.047901
0.0513296
0.107767
0.123198
0.0657521
0.0485945
0.0482122
0.0512984
0.10128
0.110173
0.0534396
0.0464719
0.0497029
0.0718748
0.126782
0.104894
0.0529315
0.0483708
0.0465714
0.05454
0.113253
0.13047
0.0733414
0.0501661
0.0481211
0.0535202
0.105536
0.11403
0.0545548
0.0463116
0.0498747
0.0728159
0.130696
0.105851
0.0526923
0.0474578
0.0455323
0.0534706
0.114425
0.131939
0.0740781
0.050304
0.0455216
0.0492625
0.10649
0.122241
0.0647389
0.0469236
0.046251
0.0497039
0.100827
0.109164
0.051628
0.0447253
0.0487379
0.0723651
0.126168
0.104382
0.0525158
0.0471805
0.0454355
0.0532759
0.112086
0.128388
0.0725154
0.0493679
0.0469565
0.0518834
0.104638
0.113483
0.0537137
0.0452634
0.0501596
0.0740259
0.131285
0.107235
0.0489594
0.0453933
0.0469987
0.0657053
0.122439
0.100374
0.0491979
0.0458196
0.0443171
0.0522215
0.109537
0.126939
0.0734496
0.0488851
0.0462944
0.0517474
0.10374
0.112465
0.0536531
0.0446083
0.049897
0.0740071
0.129834
0.106103
0.0481637
0.0445888
0.0460976
0.0647889
0.12151
0.100473
0.048345
0.0448178
0.0432266
0.0507849
0.109139
0.125747
0.0722816
0.0479723
0.045199
0.0507586
0.103416
0.112033
0.0523436
0.043808
0.049599
0.0745151
0.129929
0.107012
0.0491637
0.0446142
0.0463932
0.0653978
0.122009
0.100361
0.0482688
0.0446791
0.0429378
0.0505187
0.109119
0.125749
0.0737551
0.0485604
0.0436953
0.0472014
0.103079
0.118751
0.0653893
0.0458028
0.0443121
0.0480197
0.0989726
0.107617
0.0504754
0.0428297
0.0486736
0.0731398
0.124427
0.104336
0.0479799
0.0438754
0.0460564
0.0650767
0.119093
0.0986379
0.0481427
0.044371
0.043157
0.0515343
0.107393
0.122357
0.0726476
0.0481649
0.0446331
0.0502651
0.101735
0.110254
0.0520728
0.043212
0.0492207
0.0739916
0.127512
0.105672
0.0478352
0.043766
0.0459074
0.0652477
0.120425
0.100311
0.0475306
0.043611
0.042165
0.0500942
0.109093
0.125299
0.0739593
0.0483806
0.0433079
0.0472925
0.104162
0.119209
0.0653382
0.045838
0.0435982
0.0476696
0.100195
0.108804
0.0506556
0.0422674
0.0480975
0.0741636
0.124394
0.104149
0.0474335
0.0430216
0.0453676
0.064359
0.119259
0.0988733
0.0467716
0.0428576
0.0414066
0.0492981
0.107531
0.123642
0.0733377
0.0480037
0.0428203
0.0464838
0.103427
0.118367
0.0650859
0.0456114
0.0428954
0.0468052
0.0986652
0.10771
0.050295
0.0417436
0.0483689
0.0731348
0.124842
0.105108
0.0476337
0.0430128
0.0456558
0.0648852
0.119917
0.0983204
0.0467875
0.0427982
0.0413324
0.0494769
0.106578
0.122838
0.0731097
0.0483015
0.0426315
0.0458779
0.102644
0.118327
0.0672634
0.0466792
0.0419356
0.0435674
0.0973079
0.112419
0.0636166
0.0448791
0.042315
0.04567
0.0938314
0.102947
0.0498754
0.0414312
0.0479995
0.0731477
0.118946
0.100704
0.0467759
0.0428869
0.0459224
0.0653649
0.115475
0.0968555
0.0467939
0.0428974
0.0418283
0.0503199
0.10583
0.120907
0.0737248
0.0485267
0.0429615
0.046766
0.101425
0.116634
0.0667373
0.0468793
0.0420236
0.0439823
0.0978298
0.111967
0.063257
0.0450362
0.0422682
0.0457464
0.0948575
0.103248
0.049116
0.0411375
0.0478715
0.0725077
0.118709
0.102385
0.0467038
0.0426247
0.0454691
0.064313
0.116304
0.09672
0.0461316
0.0422711
0.0412118
0.0496274
0.105128
0.121281
0.0727131
0.0483283
0.0426423
0.0465909
0.102472
0.117389
0.0671908
0.0469378
0.0419382
0.0438171
0.0970611
0.111232
0.0627751
0.0449112
0.0418445
0.045242
0.0927875
0.101181
0.0490211
0.0408455
0.0478899
0.0718536
0.117489
0.0994756
0.046436
0.0421911
0.045593
0.0651341
0.114022
0.0951057
0.0457925
0.0419133
0.0409906
0.0497092
0.103932
0.119414
0.0732363
0.0483953
0.042188
0.0460296
0.101717
0.116634
0.0670668
0.0468422
0.0415403
0.0436485
0.0966729
0.111366
0.0642373
0.045118
0.0417695
0.0459081
0.095149
0.103804
0.0494331
0.0408572
0.0486827
0.0728066
0.119521
0.101074
0.0460649
0.0418313
0.0462325
0.0658405
0.11598
0.0981274
0.0425876
0.0409103
0.0442907
0.0625833
0.111888
0.0940612
0.0446593
0.0408896
0.0399127
0.048071
0.102459
0.11764
0.0724759
0.0478972
0.0414031
0.045239
0.100786
0.115676
0.0655037
0.0460899
0.0406921
0.0422805
0.0968684
0.11111
0.0634624
0.045022
0.0403988
0.0423801
0.0943594
0.108125
0.0628403
0.0441897
0.0409638
0.0447052
0.0912629
0.0999014
0.0488509
0.0403743
0.0480614
0.0720304
0.114982
0.0979892
0.0457834
0.0417342
0.0463017
0.0657331
0.112825
0.0950006
0.0431047
0.0408769
0.0444225
0.0623186
0.108811
0.0916492
0.0445199
0.040965
0.0400875
0.0481326
0.0997606
0.115453
0.0717736
0.0480228
0.0413073
0.0456314
0.0979159
0.112693
0.0653267
0.0462384
0.0407526
0.0425173
0.0954437
0.109049
0.0621168
0.0445265
0.0407812
0.0442626
0.0916415
0.0997693
0.0483746
0.0400776
0.0484628
0.0721574
0.115417
0.0991904
0.0458862
0.0413185
0.0467099
0.0663217
0.114296
0.0957718
0.0424036
0.0405864
0.0452292
0.0630153
0.109773
0.0923272
0.0416878
0.0399685
0.0440206
0.0621759
0.10602
0.0894923
0.043856
0.0401432
0.0394381
0.0479723
0.0976961
0.112411
0.0710449
0.0476677
0.0407614
0.0449424
0.0968756
0.111629
0.0649412
0.04616
0.0400666
0.0420758
0.0939494
0.107847
0.0626767
0.0450091
0.0398825
0.0419669
0.0916023
0.104847
0.0622222
0.0440135
0.0401071
0.0439242
0.0886785
0.097071
0.0485176
0.0395992
0.0481084
0.0709126
0.11267
0.0966754
0.0456091
0.0409629
0.0464319
0.0648931
0.111189
0.0939419
0.0422936
0.0401675
0.0446192
0.062749
0.106711
0.0893636
0.0437514
0.0399112
0.0392261
0.0476507
0.0976661
0.113533
0.0709034
0.0476919
0.0403336
0.0446266
0.0967533
0.111382
0.0647115
0.0460158
0.0393313
0.0413349
0.0936557
0.107998
0.0623009
0.0446216
0.0389831
0.040819
0.0916408
0.105275
0.0617009
0.0441573
0.0390555
0.0414216
0.0896428
0.102511
0.0615086
0.0436169
0.0393909
0.0435883
0.0876966
0.0956898
0.0477432
0.0389216
0.0477514
0.0709913
0.110455
0.0951734
0.0449203
0.0404432
0.0461737
0.0644243
0.109787
0.0931278
0.0417291
0.0395027
0.0447213
0.0622858
0.106423
0.0900467
0.041446
0.0390034
0.0437376
0.0615582
0.102734
0.087758
0.0433304
0.0390181
0.0384363
0.0467378
0.0954742
0.10966
0.0703457
0.0471281
0.0397764
0.044214
0.0942556
0.108885
0.0642539
0.04569
0.0389286
0.0412865
0.0918619
0.105357
0.061416
0.044331
0.038493
0.0406374
0.0898903
0.102573
0.0610359
0.0434381
0.038636
0.0429539
0.0871614
0.0949859
0.0472399
0.0381957
0.047504
0.07001
0.109919
0.0948812
0.0446006
0.0397433
0.0458279
0.0643551
0.109221
0.093315
0.0412582
0.0387607
0.0446132
0.0621817
0.106895
0.0903107
0.0406372
0.038273
0.0439086
0.0613749
0.103626
0.0884749
0.0408568
0.0379457
0.0430061
0.0607108
0.101265
0.0860067
0.0425574
0.0381107
0.0376135
0.0465319
0.0937072
0.107685
0.069386
0.0466593
0.0391029
0.0441205
0.0933694
0.10764
0.0632463
0.0451613
0.0382559
0.040558
0.0911039
0.104244
0.0611964
0.0440318
0.0378911
0.0405975
0.0890315
0.101614
0.0608336
0.0432761
0.0378766
0.0428379
0.0869733
0.0949536
0.0468706
0.0375586
0.0471802
0.0706594
0.109144
0.0941134
0.0438899
0.0389904
0.0453479
0.0641234
0.108643
0.0919837
0.0407058
0.0379559
0.0440199
0.0613639
0.105378
0.0899297
0.0398615
0.0373253
0.0433015
0.060828
0.102929
0.0874507
0.0401295
0.0370896
0.0425807
0.0603442
0.100213
0.0856614
0.0420611
0.0371266
0.0367037
0.0459479
0.0932003
0.107302
0.0694947
0.0462967
0.0383891
0.0436243
0.0920332
0.106327
0.0632166
0.0448237
0.0375301
0.0399771
0.0902043
0.103362
0.0604814
0.043507
0.0370387
0.0396175
0.0886327
0.101494
0.0602974
0.0431347
0.0369763
0.0400634
0.0865412
0.0988703
0.0599108
0.0426507
0.0370437
0.0422341
0.0850349
0.0928398
0.046569
0.036808
0.0469301
0.0686045
0.107974
0.0928961
0.0431934
0.0384258
0.0450056
0.0631701
0.10732
0.0902428
0.0400392
0.037354
0.0436658
0.0608259
0.10325
0.0877447
0.0393796
0.0367431
0.0429237
0.0602253
0.100877
0.0862334
0.0398232
0.036573
0.0421927
0.0594706
0.0984971
0.0842487
0.0415432
0.0364772
0.0361506
0.0455123
0.0917123
0.105966
0.0677485
0.0460361
0.0379362
0.0426406
0.0909326
0.104996
0.0623956
0.044498
0.0369935
0.0397934
0.0883909
0.10166
0.0603446
0.0432112
0.0365918
0.0394644
0.0872574
0.099636
0.0594791
0.042797
0.0364355
0.039331
0.0853201
0.0977632
0.0590646
0.0424849
0.0364483
0.0397157
0.0838071
0.0953214
0.0588435
0.0420996
0.0364766
0.0416286
0.0817932
0.0891072
0.0457166
0.0363318
0.0462117
0.0677332
0.102883
0.0893154
0.0430922
0.0381194
0.0445696
0.0616354
0.103061
0.0879145
0.0396276
0.037079
0.0432739
0.0600242
0.100618
0.0856242
0.0395649
0.0365719
0.0428257
0.059573
0.0978887
0.0835486
0.0398016
0.0363247
0.0420931
0.0589801
0.0953681
0.0817939
0.0413649
0.0361916
0.0359856
0.0451762
0.0889814
0.102204
0.0669272
0.0458464
0.0375428
0.0426199
0.0882648
0.102184
0.0619035
0.044219
0.0366672
0.0395365
0.0867378
0.0993435
0.0594611
0.0429208
0.0361843
0.0391654
0.0845587
0.0966476
0.0589897
0.0423772
0.0360184
0.039536
0.0825181
0.0939845
0.0584996
0.0418217
0.0358496
0.041113
0.0807938
0.088018
0.0452272
0.0358109
0.0458469
0.0668329
0.101378
0.0878793
0.0425221
0.037512
0.0442725
0.0615648
0.101723
0.0862898
0.0396036
0.0364358
0.0429621
0.0596624
0.0987342
0.0847871
0.0392919
0.0359352
0.0423364
0.0588047
0.0970654
0.0832001
0.0390857
0.0356243
0.041542
0.0581572
0.09476
0.0809193
0.040613
0.0354014
0.0352839
0.0445646
0.0878988
0.101059
0.0660741
0.0454919
0.0369577
0.0419453
0.0871226
0.100878
0.0610866
0.0438432
0.035977
0.039022
0.0854494
0.0979362
0.0589722
0.0425281
0.0355454
0.0385675
0.0835774
0.0955792
0.0578373
0.0418852
0.0353706
0.0384023
0.0823405
0.0939349
0.0575932
0.041634
0.0353261
0.0388907
0.0809677
0.0919978
0.0570875
0.0411694
0.0351617
0.040435
0.079306
0.0862806
0.044743
0.0351531
0.0453028
0.0659414
0.0994981
0.0861796
0.0420498
0.0369443
0.0437103
0.060482
0.0994397
0.0852442
0.0391218
0.0358347
0.0422343
0.0583082
0.0969289
0.0829674
0.0382932
0.0351957
0.0417158
0.0578074
0.0942899
0.0810078
0.0388238
0.0350798
0.0410614
0.0572893