/*--------------------------------*- C++ -*----------------------------------*\
| =========                 |                                                 |
| \\      /  F ield         | OpenFOAM: The Open Source CFD Toolbox           |
|  \\    /   O peration     | Version:  v2006                                 |
|   \\  /    A nd           | Website:  www.openfoam.com                      |
|    \\/     M anipulation  |                                                 |
\*---------------------------------------------------------------------------*/
FoamFile
{
    version     2.0;
    format      ascii;
    class       volScalarField;
    location    "0.03";
    object      yPlus;
}
// * * * * * * * * * * * * * * * * * * * * * * * * * * * * * * * * * * * * * //

dimensions      [0 0 0 0 0 0 0];


internalField   uniform 0;

boundaryField
{
    bottomEmptyFaces
    {
        type            empty;
    }
    topEmptyFaces
    {
        type            empty;
    }
    inlet
    {
        type            calculated;
        value           uniform 0;
    }
    outlet
    {
        type            calculated;
        value           uniform 0;
    }
    walls
    {
        type            calculated;
        value           nonuniform List<scalar> 
1732
(
9.85262
9.87396
9.84686
9.87006
9.84475
9.86919
9.84545
9.87092
9.84843
9.87447
9.85287
9.87926
9.8586
9.88514
9.86545
9.89209
9.87345
9.90007
9.88224
9.90897
9.89186
9.91864
9.90208
9.92873
9.91254
9.93881
9.92285
9.9487
9.93297
9.95828
9.94274
9.96751
9.95213
9.97633
9.96111
9.98473
9.96966
9.99269
9.97775
10.0002
9.98539
10.0073
9.99258
10.0141
9.99953
10.0204
10.0059
10.0264
10.012
10.0318
10.0174
10.0369
10.0226
10.0414
10.0271
10.0455
10.0313
10.0491
10.0348
10.0522
10.0378
10.0545
10.04
10.0563
10.0418
10.0574
10.0428
10.058
10.0435
10.0582
10.0436
10.0579
10.0433
10.0571
10.0425
10.0561
10.0414
10.0546
10.04
10.053
10.0383
10.0511
10.0364
10.049
10.0344
10.0467
10.0322
10.0444
10.0299
10.0419
10.0274
10.0393
10.025
10.0367
10.0224
10.0341
10.0199
10.0315
10.0173
10.0288
10.0147
10.0261
10.0121
10.0235
10.0095
10.0208
10.0069
10.0182
10.0044
10.0155
10.0019
10.013
9.99943
10.0105
9.99701
10.0081
9.99467
10.0057
9.99238
10.0034
9.99011
10.0011
9.98791
9.99886
9.98576
9.99669
9.98368
9.9946
9.98166
9.99259
9.97972
9.99067
9.97787
9.98883
9.97609
9.98705
9.97438
9.98534
9.97272
9.9837
9.97114
9.98213
9.96962
9.98062
9.96817
9.97919
9.96679
9.97782
9.96548
9.97652
9.96422
9.97528
9.96303
9.9741
9.96189
9.97297
9.96081
9.9719
9.95977
9.97088
9.95879
9.96991
9.95786
9.96899
9.95698
9.96811
9.95613
9.96727
9.95533
9.96648
9.95457
9.96572
9.95384
9.96501
9.95316
9.96432
9.9525
9.96368
9.95188
9.96306
9.95129
9.96247
9.95073
9.96191
9.95019
9.96139
9.94968
9.96088
9.9492
9.9604
9.94874
9.95993
9.94829
9.9595
9.94788
9.95908
9.94747
9.95868
9.9471
9.9583
9.94673
9.95794
9.94639
9.95759
9.94605
9.95727
9.94574
9.95695
9.94544
9.95666
9.94516
9.95637
9.94489
9.95611
9.94464
9.95585
9.94439
9.95561
9.94417
9.95538
9.94394
9.95516
9.94373
9.95494
9.94352
9.95473
9.94333
9.95453
9.94313
9.95434
9.94295
9.95415
9.94277
9.95398
9.94261
9.9538
9.94244
9.95363
9.94228
9.95347
9.94212
9.95331
9.94197
9.95315
9.94181
9.953
9.94167
9.95284
9.94151
9.95269
9.94136
9.95253
9.94121
9.95238
9.94108
9.95224
9.94094
9.9521
9.94079
9.95193
9.94062
9.95176
9.94046
9.95159
9.9403
9.95144
9.94015
9.95127
9.93999
9.95112
9.93984
9.95096
9.93968
9.95081
9.93954
9.95065
9.93938
9.95051
9.93924
9.95035
9.93909
9.95021
9.93895
9.95006
9.93881
9.94993
9.93868
9.94979
9.93855
9.94967
9.93843
9.94953
9.93829
9.9494
9.93816
9.94926
9.93804
9.94914
9.93792
9.94902
9.9378
9.94889
9.93767
9.94875
9.93754
9.94864
9.93743
9.94852
9.93732
9.94841
9.93721
9.9483
9.9371
9.9482
9.93702
9.94811
9.93694
9.94804
9.93687
9.94797
9.93682
9.94794
9.9368
9.94793
9.93681
9.94797
9.93687
9.94803
9.93696
9.94814
9.93709
9.9483
9.93729
9.94855
9.93758
9.94886
9.93793
9.94924
9.93833
9.94965
9.93878
9.95016
9.93935
9.95077
9.94002
9.95149
9.94077
9.95226
9.94158
9.9531
9.94247
9.95404
9.94348
9.95511
9.94462
9.95628
9.94582
9.95751
9.94707
9.95876
9.94837
9.96012
9.94981
9.96166
9.95145
9.96333
9.95319
9.96528
9.9555
9.96878
9.95852
10.0047
10.0177
10.1403
10.3391
10.7484
11.5797
12.5882
6.74402
7.48077
8.57945
6.50201
7.13087
6.1487
6.50735
7.39265
7.73992
7.07407
7.38154
6.26851
6.94569
6.44268
7.11789
7.98741
5.74653
6.01146
6.92832
7.31777
6.40533
7.05469
6.11819
6.66199
8.44342
7.28923
7.69316
6.47408
7.12873
6.22467
6.83907
6.76847
7.43249
6.56429
7.27588
6.45102
7.04326
6.60364
7.27648
6.05698
6.4007
8.17993
5.91686
6.22312
6.53551
4.86153
4.99698
5.58519
5.69977
6.64488
5.6854
5.84034
4.89871
5.05144
6.47333
5.02899
5.41397
4.74926
4.88443
5.55076
5.59665
5.37777
5.77964
6.98977
6.01362
6.23187
5.00522
5.2446
5.32683
5.76952
7.31833
6.33897
6.5822
5.74
6.31199
5.54201
6.00206
6.20895
6.42827
7.20749
5.23323
5.45779
5.563
6.06906
7.01504
5.46774
5.89063
5.03562
5.25236
7.09184
6.10311
6.28392
5.01965
5.29279
6.03231
6.2408
5.77629
5.93582
5.69938
5.93072
5.11925
5.47848
6.63226
4.75976
4.97793
5.20378
5.54185
5.46315
5.93417
5.22224
5.60182
6.74143
4.87407
5.09635
6.5703
4.82503
4.97086
7.78337
5.54619
5.84877
6.10034
6.72435
5.84598
6.34826
5.92734
6.57006
7.82567
6.01624
6.51971
5.63235
5.91876
6.68248
7.01326
6.17692
6.80982
6.73595
6.99987
5.78102
6.25208
6.53249
6.83219
7.58491
5.46446
5.77693
5.96246
6.53429
5.96894
6.52631
5.76259
6.3396
7.24456
5.70248
6.12019
6.17567
6.45626
5.54109
6.0566
5.22768
5.45842
7.51973
6.53649
6.82479
5.36912
5.6172
7.65956
6.62583
6.90092
6.07738
6.66174
5.80337
6.30624
5.50889
5.76282
6.8513
7.14528
6.27954
6.91802
6.09356
6.64962
7.92818
5.6936
5.9801
6.13422
6.75038
6.22132
6.88935
5.92235
6.41973
5.27674
5.4509
7.13112
5.93473
5.34649
6.24745
5.25748
4.82154
6.53644
5.43078
4.976
6.73402
5.54932
4.99805
6.33569
5.34384
4.89505
5.44423
5.51067
5.47646
5.46752
4.54387
4.28817
4.50239
4.23392
5.51207
4.55244
4.32641
4.55309
4.33739
6.54047
5.51465
6.19195
5.35861
4.83647
5.48426
4.4855
4.18683
4.5213
4.31928
5.99676
5.58362
5.44578
4.52657
4.377
5.86959
5.50127
4.12736
4.19356
4.93808
4.85029
4.86489
4.78923
5.78033
4.55287
4.4293
4.1187
4.17083
4.88257
4.90156
5.9798
5.04756
5.0798
5.78501
4.29301
4.39146
5.23837
5.19144
6.19944
4.78572
4.70968
5.75725
4.34248
4.44011
5.09183
5.05773
4.45366
4.56903
5.60138
4.63672
4.54291
4.20271
4.30701
5.5152
5.55648
5.60748
5.59642
4.62661
4.3838
4.64497
4.43188
5.53644
4.60768
4.42521
4.56247
4.33851
5.35308
5.45589
4.42085
4.26853
5.66789
4.64443
4.42762
4.76717
4.62526
3.96094
4.05993
5.54525
4.48749
4.32407
5.45373
5.49268
4.54441
4.39833
4.49378
4.29696
5.39235
4.48311
4.34046
4.42191
4.22162
5.5451
5.55154
4.58238
4.33441
4.60477
4.37462
5.54496
4.62738
4.36863
4.57821
4.38335
5.81803
4.8882
4.78529
5.34609
4.02979
4.1099
4.6673
4.59982
7.22983
6.7788
7.26262
6.87389
7.57836
7.15716
8.26764
8.25336
10.8314
7.4537
6.38146
6.00393
6.68185
8.173
5.85313
6.06089
6.67637
4.1542
6.69221
5.40199
3.38403
6.99642
8.27133
7.78601
6.96027
6.34596
5.72461
6.32302
5.75472
5.4047
4.98439
5.74007
5.09848
3.33237
5.59137
5.59015
3.51627
6.20133
4.86418
5.01501
3.19149
5.77228
4.77469
5.24414
3.39088
6.26078
5.31401
4.42185
4.82491
3.18478
5.80002
4.97594
4.28654
5.07943
3.26412
6.23239
5.58632
5.05508
4.51076
3.91866
4.46728
2.91703
5.46955
4.97274
4.52109
4.03762
4.78124
3.11888
6.0139
5.57953
5.14596
4.74989
4.2993
3.79552
4.37144
2.85124
5.45865
5.03009
4.65947
4.39146
4.07105
3.7415
3.51379
4.40898
2.7366
5.63571
5.34087
5.08292
4.84414
4.54539
4.28775
4.068
3.70702
3.35098
4.11514
2.55524
5.1998
4.83849
4.59089
4.367
4.08029
3.87138
3.65452
3.43576
3.27445
3.10204
2.93908
2.84607
2.78053
4.22117
2.18381
5.48402
5.30052
5.09625
4.9356
4.84335
4.69017
4.51088
4.34263
4.21579
4.07478
3.95507
3.83711
3.76206
3.71609
3.66221
3.57346
3.47901
3.40815
3.34661
3.30424
3.27351
3.25544
3.24304
3.2386
3.2382
3.24078
3.24534
3.2546
6.15256
6.44516
5.49526
5.6427
4.84218
5.18124
4.48842
4.67835
6.07031
5.17974
5.23665
4.50191
4.62173
6.0347
4.37278
4.51658
5.15002
5.15575
4.40935
4.55147
5.13807
5.13503
6.08461
4.50789
4.60737
5.18838
5.22039
5.44886
5.52393
6.42744
4.6237
4.85482
5.63196
5.83497
5.04711
5.36265
4.73406
4.8455
3.26229
3.27092
3.27619
3.27965
3.28042
3.28024
3.27869
3.27652
3.27189
3.26831
3.26195
3.25729
3.25003
3.24476
3.23709
3.23148
3.2237
3.21802
3.21031
3.20461
3.19705
3.19146
3.1841
3.17859
3.17142
3.16606
3.15909
3.15382
3.14702
3.14189
3.13525
3.13021
3.12371
3.1188
3.11245
3.10761
3.1014
3.09668
3.09061
3.08595
3.08
3.07547
3.06966
3.06518
3.05947
3.05511
3.04953
3.04522
3.03974
3.03555
3.03019
3.02604
3.02077
3.01673
3.01157
3.00756
3.00248
2.99857
2.99359
2.98972
2.9848
2.98103
2.97622
2.97247
2.96772
2.96407
2.95942
2.9558
2.95121
2.94768
2.94318
2.93966
2.93522
2.9318
2.92745
2.92404
2.91974
2.91643
2.91221
2.90891
2.90474
2.90153
2.89743
2.89423
2.89018
2.88706
2.88307
2.87996
2.87602
2.87298
2.86911
2.86608
2.86224
2.8593
2.85554
2.85259
2.84887
2.84602
2.84237
2.83952
2.83592
2.83317
2.82963
2.82689
2.82341
2.82076
2.81736
2.81472
2.81138
2.80886
2.80561
2.80312
2.79996
2.79763
2.7946
2.79244
2.78926
2.79049
2.78099
2.78846
2.78653
2.862
2.88621
2.89413
2.88574
2.97126
3.06051
10.0525
7.28291
7.64213
8.57883
8.95295
7.52211
8.20419
7.85224
8.62588
7.87873
8.6669
7.59339
8.31295
8.7504
9.18067
8.01996
8.83238
9.89875
7.08986
7.50792
11.1194
8.73528
9.36319
9.56981
9.98085
12.119
10.2252
10.4864
8.93624
9.32439
11.3576
8.41717
8.75524
10.1491
10.4593
11.865
8.74374
9.13873
9.05582
9.81488
9.34121
10.0546
11.6993
10.0708
10.321
8.57457
8.93752
10.3451
10.6862
11.2423
11.6309
9.0596
9.75595
10.0037
10.3601
11.4529
9.90418
10.2814
9.02743
9.66592
8.21448
8.63604
8.30466
8.70023
11.1651
9.62468
10.0622
8.82921
9.50049
9.70647
10.0891
8.14249
8.56061
8.81142
9.4528
8.05131
8.48437
9.77446
10.0225
8.52267
8.95151
10.5431
8.26774
8.90052
7.57253
8.09854
8.31095
9.15416
10.2978
7.39712
7.85091
8.02567
8.66694
9.11009
9.48234
10.7201
7.78626
8.15978
9.3304
9.70372
10.7773
7.84908
8.26492
8.37949
9.03573
10.8983
9.46255
9.95292
8.72419
9.5541
8.37111
9.10522
8.03598
8.4256
9.29981
9.68033
8.52378
9.33522
10.2583
8.93968
9.34891
8.20619
9.06108
7.96759
8.59654
7.34898
7.79578
8.03125
8.80907
8.89089
9.25507
7.73954
8.47867
12.7837
12.2861
10.4717
10.728
9.15172
9.51672
12.2743
9.20776
9.49448
10.8071
10.9519
13.1713
12.6259
10.4727
10.4009
13.6456
12.8301
9.87413
10.1566
11.4871
11.5773
11.2432
11.3252
13.3833
10.6215
10.5447
9.48329
9.93541
12.7771
9.55344
9.88603
10.8324
11.0674
9.40625
9.8877
11.06
11.2751
11.4768
11.8035
13.8169
11.2703
11.1321
13.8251
11.3474
11.1477
13.7514
11.1174
11.0551
13.345
11.255
10.9205
13.6126
11.0675
10.9532
13.7348
11.2602
11.0553
13.9806
11.4917
11.2743
14.1068
11.6169
11.4278
14.0212
11.4993
11.2933
14.8757
12.9532
12.4106
15.2077
16.3752
14.3692
12.2098
11.6138
14.0093
12.0192
11.5315
13.8682
11.4202
11.2033
13.0731
10.8457
10.7792
10.0428
10.4185
15.7423
13.7977
13.0627
17.4899
15.4969
17.2179
15.2884
14.4851
13.1397
13.4248
12.7583
19.016
17.9057
16.0269
14.2073
13.2952
18.0483
16.9126
15.5428
15.3228
13.7867
20.14
19.6916
18.7728
17.8274
19.5688
18.8352
15.7451
15.035
13.4394
18.4451
17.9013
17.8119
17.8291
17.6012
16.9376
16.4276
16.0461
15.5345
14.887
14.2622
13.6367
13.1029
12.5866
12.1358
11.7062
11.3517
11.09
10.8873
10.7237
10.5835
10.4678
7.79544
8.17659
7.17195
7.93083
10.3619
10.2777
10.1951
10.1364
10.0681
10.0379
9.97719
9.97401
9.91979
9.92926
9.88626
9.90081
9.86465
9.88319
16.1798
12.8412
12.5355
14.2747
12.6713
11.9092
7.23553
8.06811
9.23145
6.63213
7.04705
7.16774
7.72549
7.96548
8.37672
7.32967
8.0897
12.2724
7.18881
7.98942
6.9889
7.62046
12.1743
8.97421
9.43253
10.3256
10.6356
9.07611
9.44685
7.13541
7.82115
11.88
7.89007
8.2629
9.14805
6.55016
6.95529
7.23227
8.00465
8.97737
9.25088
10.3932
8.95252
6.46515
6.78062
6.91894
7.53468
10.5947
10.4409
10.6428
7.62807
8.39513
9.60237
7.45985
8.06574
6.85335
7.27384
8.26646
8.65625
8.31036
8.70701
7.65804
8.43482
8.11951
8.52111
9.38933
6.71888
7.07866
7.46636
8.26379
7.30359
7.91719
9.55167
6.83384
7.24675
7.41439
8.0409
9.81443
8.47638
8.89595
7.77493
8.55856
7.55224
8.38281
6.97868
7.43169
7.45767
8.19382
6.91552
7.64135
6.60499
7.19916
6.74038
7.51027
8.81705
6.66847
7.32486
6.30969
6.69247
7.06321
7.80124
6.85109
7.59503
7.60009
7.91144
8.67252
7.48489
7.90676
6.90173
7.61037
6.70929
7.39466
6.20794
6.57043
13.5821
3.11156
19.3277
17.2243
15.7718
14.7691
14.0868
13.4025
13.0136
12.6085
12.2783
11.9794
11.8049
11.5859
11.4619
11.331
11.2666
11.174
11.1292
11.0525
11.016
10.9474
10.915
10.8518
10.8223
10.7633
10.7358
10.6803
10.6544
10.602
10.5775
10.5278
10.5044
10.457
10.4347
10.3894
10.368
10.3246
10.3041
10.2623
10.2426
10.2023
10.1833
10.1445
10.1261
10.0884
10.0706
10.0341
10.0167
9.98112
9.96419
9.92945
9.9129
9.87891
9.86269
9.82937
9.81345
9.78072
9.76508
9.73288
9.71748
9.68576
9.67056
9.63926
9.62425
9.59331
9.57846
9.54783
9.53311
9.50273
9.48811
9.45795
9.4434
9.41339
9.3989
9.36899
9.35452
9.32467
9.3102
9.28036
9.26587
9.236
9.22147
9.19152
9.17693
9.14688
9.13219
9.102
9.08721
9.05683
9.04193
9.01134
8.99629
8.96545
8.95025
8.91913
8.90375
8.87235
8.85669
8.82496
8.80875
8.77681
8.75993
8.72791
8.71036
8.67826
8.66007
8.62787
8.60906
8.57672
8.5573
8.52479
8.50477
8.47206
8.45144
8.41849
8.39728
8.36405
8.34225
8.30868
8.28629
8.25234
8.22938
8.19499
8.17145
8.13658
8.11248
8.07708
8.05242
8.01644
7.99123
7.95461
7.92887
7.89158
7.86531
7.82731
7.80054
7.76178
7.73452
7.69497
7.66724
7.62688
7.59871
7.55749
7.52891
7.48681
7.45787
7.41487
7.3856
7.3417
7.31215
7.26732
7.23755
7.19179
7.16186
7.11518
7.08517
7.03761
7.0076
6.95919
6.92928
6.88008
6.85037
6.80047
6.77108
6.72056
6.69163
6.64062
6.61229
6.56093
6.53337
6.48183
6.4552
6.4037
6.37814
6.32704
6.30247
6.2524
6.22884
6.18016
6.15765
6.11059
6.08929
6.04416
6.02429
5.98147
5.96323
5.92305
5.90661
5.86937
5.85487
5.82083
5.80838
5.77773
5.76742
5.74033
5.73224
5.70872
5.70399
5.68407
5.68192
5.66494
5.66523
5.65158
5.65444
5.64282
5.64843
5.63904
5.64731
5.64039
5.65104
5.64692
5.65907
5.65708
5.67057
5.67041
5.68499
5.68633
5.70248
5.70501
5.72239
5.72617
5.74466
5.74936
5.76835
5.77358
5.79258
5.79822
5.81716
5.82314
5.84201
5.84828
5.86694
5.87335
5.89166
5.89757
5.91503
5.92053
5.93725
5.94235
5.95835
5.96305
5.97833
5.98264
5.99721
6.0011
6.01496
6.01845
6.03162
6.03478
6.04732
6.05029
6.06222
6.06494
6.07622
6.0787
6.08934
6.09159
6.10164
6.10367
6.11318
6.11502
6.12402
6.12568
6.13426
6.13576
6.14396
6.14532
6.15318
6.15442
6.162
6.16313
6.17047
6.17148
6.17856
6.17946
6.18631
6.1871
6.19373
6.19441
6.20083
6.20141
6.20764
6.20811
6.21413
6.21449
6.2203
6.22055
6.22615
6.22628
6.23167
6.23169
6.23684
6.23674
6.2417
6.24148
6.24628
6.24593
6.25058
6.25012
6.25465
6.25409
6.25854
6.25792
6.26237
6.26175
6.26638
6.26593
6.2718
6.26863
6.34161
6.32051
6.36142
6.42697
6.7105
6.99188
7.23433
7.36139
21.4782
7.51661
)
;
    }
    rightWall
    {
        type            calculated;
        value           uniform 0;
    }
    symmetryLine
    {
        type            symmetryPlane;
    }
}


// ************************************************************************* //
