/*--------------------------------*- C++ -*----------------------------------*\
| =========                 |                                                 |
| \\      /  F ield         | OpenFOAM: The Open Source CFD Toolbox           |
|  \\    /   O peration     | Version:  v2006                                 |
|   \\  /    A nd           | Website:  www.openfoam.com                      |
|    \\/     M anipulation  |                                                 |
\*---------------------------------------------------------------------------*/
FoamFile
{
    version     2.0;
    format      ascii;
    class       volScalarField;
    location    "0.034";
    object      yPlus;
}
// * * * * * * * * * * * * * * * * * * * * * * * * * * * * * * * * * * * * * //

dimensions      [0 0 0 0 0 0 0];


internalField   uniform 0;

boundaryField
{
    bottomEmptyFaces
    {
        type            empty;
    }
    topEmptyFaces
    {
        type            empty;
    }
    inlet
    {
        type            calculated;
        value           uniform 0;
    }
    outlet
    {
        type            calculated;
        value           uniform 0;
    }
    walls
    {
        type            calculated;
        value           nonuniform List<scalar> 
1732
(
9.8526
9.87395
9.84685
9.87005
9.84474
9.86918
9.84544
9.87092
9.84842
9.87447
9.85287
9.87927
9.8586
9.88515
9.86546
9.89209
9.87346
9.90008
9.88225
9.90898
9.89187
9.91866
9.90209
9.92874
9.91255
9.93882
9.92286
9.94871
9.93298
9.9583
9.94275
9.96752
9.95215
9.97634
9.96113
9.98475
9.96968
9.99271
9.97777
10.0002
9.98541
10.0073
9.9926
10.0141
9.99955
10.0204
10.0059
10.0264
10.012
10.0319
10.0175
10.0369
10.0226
10.0415
10.0271
10.0456
10.0313
10.0491
10.0348
10.0522
10.0378
10.0545
10.0401
10.0563
10.0418
10.0574
10.0429
10.0581
10.0435
10.0582
10.0436
10.0579
10.0433
10.0572
10.0425
10.0561
10.0414
10.0547
10.04
10.053
10.0384
10.0511
10.0365
10.049
10.0345
10.0468
10.0322
10.0444
10.0299
10.0419
10.0275
10.0394
10.025
10.0368
10.0225
10.0342
10.02
10.0315
10.0174
10.0289
10.0148
10.0262
10.0122
10.0235
10.0096
10.0209
10.007
10.0182
10.0045
10.0156
10.0019
10.0131
9.99953
10.0106
9.99711
10.0082
9.99478
10.0058
9.99248
10.0035
9.99022
10.0012
9.98803
9.99897
9.98588
9.99681
9.9838
9.99472
9.98179
9.99272
9.97985
9.9908
9.97801
9.98896
9.97623
9.98719
9.97452
9.98549
9.97286
9.98385
9.97129
9.98228
9.96977
9.98078
9.96834
9.97936
9.96695
9.97799
9.96565
9.97669
9.96439
9.97545
9.9632
9.97428
9.96207
9.97315
9.96099
9.97209
9.95996
9.97107
9.95899
9.97011
9.95806
9.96919
9.95718
9.96832
9.95634
9.96748
9.95554
9.9667
9.95479
9.96594
9.95407
9.96523
9.95338
9.96455
9.95273
9.96391
9.95212
9.9633
9.95153
9.96272
9.95097
9.96216
9.95044
9.96164
9.94994
9.96113
9.94945
9.96066
9.949
9.9602
9.94856
9.95977
9.94815
9.95935
9.94775
9.95896
9.94737
9.95858
9.94701
9.95822
9.94667
9.95788
9.94634
9.95756
9.94603
9.95724
9.94574
9.95695
9.94546
9.95667
9.94519
9.95641
9.94494
9.95615
9.9447
9.95592
9.94448
9.95568
9.94425
9.95547
9.94405
9.95525
9.94384
9.95505
9.94365
9.95485
9.94345
9.95466
9.94328
9.95448
9.9431
9.9543
9.94293
9.95413
9.94277
9.95397
9.94261
9.9538
9.94246
9.95365
9.94231
9.95349
9.94215
9.95334
9.94201
9.95318
9.94186
9.95304
9.94172
9.95288
9.94157
9.95274
9.94143
9.9526
9.9413
9.95246
9.94115
9.95229
9.94099
9.95213
9.94083
9.95196
9.94067
9.95181
9.94052
9.95165
9.94036
9.9515
9.94022
9.95134
9.94007
9.95119
9.93992
9.95104
9.93977
9.95089
9.93963
9.95074
9.93948
9.9506
9.93934
9.95045
9.9392
9.95032
9.93907
9.95018
9.93894
9.95005
9.93882
9.94992
9.93869
9.94979
9.93856
9.94966
9.93843
9.94953
9.93831
9.94941
9.93819
9.94929
9.93807
9.94916
9.93795
9.94904
9.93783
9.94892
9.93772
9.94881
9.93762
9.9487
9.93751
9.94861
9.93742
9.94852
9.93734
9.94844
9.93728
9.94838
9.93722
9.94834
9.9372
9.94833
9.93721
9.94836
9.93726
9.94842
9.93735
9.94854
9.93749
9.94869
9.93767
9.94892
9.93794
9.94922
9.93828
9.9496
9.9387
9.95003
9.93917
9.95054
9.93973
9.95114
9.94038
9.95185
9.94114
9.95264
9.94198
9.95352
9.9429
9.95447
9.94391
9.95554
9.94503
9.9567
9.94623
9.95793
9.9475
9.95921
9.94882
9.96057
9.95025
9.96209
9.95187
9.96374
9.9536
9.9657
9.95594
9.96923
9.95897
10.0052
10.0181
10.1407
10.3395
10.7489
11.5803
12.5888
6.74403
7.48078
8.57947
6.50211
7.13094
6.14866
6.50733
7.39264
7.73992
7.07404
7.38151
6.26846
6.94563
6.44265
7.11786
7.98744
5.74635
6.01144
6.92833
7.31774
6.4053
7.05466
6.11817
6.66199
8.44341
7.28923
7.69316
6.47406
7.1287
6.22465
6.83901
6.76846
7.43247
6.56427
7.27586
6.45102
7.04325
6.60364
7.27649
6.05696
6.40073
8.17992
5.91682
6.22308
6.53562
4.8616
4.9971
5.58525
5.69984
6.64496
5.68546
5.84042
4.89876
5.0515
6.47343
5.02906
5.41407
4.74933
4.88451
5.55084
5.59674
5.37777
5.77963
6.98976
6.01363
6.23189
5.00522
5.2447
5.32683
5.76951
7.31832
6.33895
6.58219
5.73998
6.31199
5.542
6.00203
6.20892
6.42825
7.20748
5.23323
5.45779
5.56298
6.06904
7.01504
5.46775
5.89062
5.03556
5.25237
7.09183
6.1031
6.28392
5.01963
5.29279
6.03231
6.2408
5.77634
5.93584
5.69943
5.93078
5.11929
5.47854
6.63231
4.75983
4.97796
5.20384
5.5418
5.46317
5.93419
5.22227
5.60184
6.74145
4.87406
5.09643
6.57037
4.82508
4.97095
7.78334
5.54619
5.84879
6.10033
6.72434
5.84597
6.34824
5.92732
6.57003
7.82567
6.01623
6.5197
5.63236
5.91878
6.68247
7.01324
6.17689
6.80979
6.73594
6.99986
5.78101
6.25203
6.53247
6.83218
7.5849
5.46446
5.77694
5.96244
6.53428
5.96892
6.5263
5.76257
6.33962
7.24455
5.70246
6.12019
6.17565
6.45624
5.54113
6.0564
5.22767
5.45841
7.51971
6.53648
6.82478
5.36909
5.6172
7.6598
6.62578
6.90089
6.07735
6.66171
5.80335
6.30623
5.50887
5.76263
6.85128
7.14526
6.27951
6.91797
6.09354
6.64959
7.92815
5.69357
5.98013
6.13419
6.75036
6.22129
6.88933
5.92232
6.41975
5.27672
5.45088
7.13081
5.93456
5.34619
6.24751
5.25759
4.82156
6.53634
5.43078
4.97588
6.73383
5.54922
4.9979
6.33569
5.34392
4.89501
5.44446
5.51097
5.47685
5.46776
4.5441
4.28838
4.50262
4.23414
5.51234
4.55272
4.3265
4.55335
4.33764
6.54067
5.51484
6.19207
5.35879
4.83656
5.48446
4.48567
4.18694
4.5215
4.31946
5.99699
5.58385
5.4458
4.52689
4.37734
5.86991
5.50152
4.12756
4.19378
4.93829
4.85054
4.86516
4.78952
5.78057
4.55308
4.42969
4.11889
4.1715
4.88278
4.9018
5.98005
5.04778
5.08003
5.78525
4.29318
4.39164
5.23858
5.19167
6.1997
4.78591
4.70986
5.75747
4.34265
4.44031
5.09204
5.0579
4.45385
4.56923
5.6016
4.6369
4.54305
4.2029
4.30718
5.51554
5.5567
5.6078
5.59695
4.6269
4.38412
4.64526
4.43199
5.53678
4.60797
4.42554
4.56277
4.33882
5.35345
5.45621
4.42114
4.2688
5.66824
4.6447
4.42791
4.76747
4.62558
3.96121
4.06021
5.54557
4.48776
4.32431
5.45405
5.49303
4.5447
4.39879
4.49405
4.29724
5.39271
4.48342
4.34075
4.42221
4.2219
5.5455
5.55185
4.58263
4.33467
4.60506
4.37485
5.54529
4.62765
4.36882
4.57852
4.38362
5.81849
4.88847
4.78558
5.3464
4.03002
4.11023
4.66757
4.59995
7.22885
6.77767
7.26145
6.87256
7.57702
7.15558
8.26617
8.2515
10.8298
7.4521
6.3798
6.00213
6.68054
8.17449
5.85536
6.05756
6.67788
4.15462
6.69421
5.40307
3.38645
6.9961
8.27049
7.78514
6.95933
6.3454
5.72392
6.32277
5.75438
5.40437
4.9837
5.74142
5.0997
3.33422
5.59294
5.59147
3.51814
6.20322
4.86607
5.01624
3.19319
5.77408
4.77634
5.2454
3.39253
6.26241
5.31571
4.42354
4.82624
3.1864
5.80176
4.97778
4.28826
5.0808
3.26577
6.23419
5.58819
5.05691
4.51257
3.92034
4.46846
2.91852
5.47142
4.97455
4.52291
4.03929
4.78256
3.12044
6.0157
5.58134
5.14776
4.75165
4.30102
3.79712
4.37275
2.85262
5.46039
5.03182
4.66122
4.3932
4.07276
3.74315
3.51534
4.41026
2.73795
5.63747
5.34261
5.08466
4.84594
4.54715
4.28949
4.0697
3.70868
3.35251
4.11649
2.55656
5.20159
4.84023
4.59267
4.36878
4.08207
3.87314
3.65626
3.43746
3.27612
3.10365
2.94064
2.84757
2.78194
4.22255
2.18503
5.48585
5.30241
5.09813
4.93753
4.84533
4.69217
4.51287
4.34462
4.21779
4.07679
3.95708
3.83912
3.76408
3.71813
3.66425
3.57547
3.48101
3.41013
3.34858
3.30618
3.27543
3.25733
3.24491
3.24045
3.24003
3.2426
3.24715
3.25639
6.15272
6.44529
5.4954
5.64283
4.8423
5.18136
4.48851
4.6785
6.07057
5.17992
5.23683
4.50206
4.62191
6.03491
4.3729
4.51673
5.15021
5.15593
4.40949
4.55162
5.1383
5.13527
6.08488
4.50798
4.60748
5.18852
5.22053
5.44897
5.52404
6.42759
4.62379
4.85486
5.63207
5.83509
5.04721
5.36269
4.73415
4.84567
3.2641
3.27274
3.27805
3.28156
3.28236
3.28219
3.28068
3.27853
3.27393
3.27036
3.26402
3.25938
3.25213
3.24687
3.23921
3.23361
3.22584
3.22017
3.21247
3.20678
3.19923
3.19365
3.18629
3.18079
3.17363
3.16828
3.16131
3.15605
3.14925
3.14414
3.13751
3.13247
3.12598
3.12108
3.11474
3.1099
3.1037
3.09899
3.09293
3.08828
3.08234
3.07781
3.07201
3.06753
3.06184
3.05749
3.05191
3.04761
3.04214
3.03795
3.0326
3.02845
3.02319
3.01915
3.014
3.01
3.00493
3.00103
2.99605
2.99218
2.98728
2.98351
2.9787
2.97496
2.97022
2.96657
2.96193
2.9583
2.95372
2.95019
2.94569
2.94218
2.93774
2.93432
2.92997
2.92656
2.92227
2.91896
2.91474
2.91144
2.90727
2.90407
2.89997
2.89677
2.89272
2.88961
2.88563
2.88252
2.87858
2.87555
2.87169
2.86866
2.86483
2.86189
2.85813
2.85519
2.85147
2.84862
2.84497
2.84213
2.83853
2.83577
2.83224
2.8295
2.82602
2.82337
2.81997
2.81733
2.81399
2.81147
2.80822
2.80573
2.80258
2.80025
2.79722
2.79506
2.79188
2.79312
2.78361
2.79109
2.78916
2.86466
2.8889
2.8968
2.88841
2.97398
3.06327
10.0524
7.2825
7.64205
8.57891
8.95304
7.5222
8.20428
7.85232
8.62598
7.87883
8.66691
7.59328
8.31346
8.75056
9.18082
8.02012
8.83251
9.89888
7.09022
7.50791
11.1195
8.73536
9.36327
9.56989
9.98094
12.119
10.2253
10.4865
8.93628
9.3244
11.3577
8.41725
8.75531
10.149
10.4594
11.8655
8.74371
9.13797
9.05592
9.81497
9.34141
10.0549
11.7004
10.0708
10.3216
8.57469
8.9371
10.3452
10.6864
11.2424
11.631
9.05968
9.75604
10.0038
10.3602
11.453
9.90427
10.2815
9.02751
9.66598
8.21454
8.6361
8.30474
8.70031
11.1652
9.62476
10.0622
8.82929
9.50058
9.70656
10.0892
8.14255
8.56067
8.81149
9.45288
8.05138
8.48445
9.77456
10.0226
8.52276
8.9516
10.5431
8.26778
8.90055
7.57257
8.09861
8.31097
9.15423
10.298
7.3972
7.85082
8.02576
8.66696
9.11015
9.48239
10.7202
7.78633
8.15984
9.33047
9.7038
10.7774
7.84915
8.26498
8.37956
9.0358
10.8984
9.46264
9.95301
8.72427
9.55418
8.37118
9.1053
8.03605
8.42567
9.29988
9.6804
8.52385
9.33529
10.2584
8.93976
9.34901
8.20627
9.06116
7.96766
8.59663
7.34908
7.79592
8.03133
8.80913
8.89102
9.25519
7.73952
8.47859
12.7839
12.2863
10.4718
10.7281
9.15181
9.51683
12.2744
9.20788
9.4946
10.8072
10.952
13.1713
12.626
10.4728
10.401
13.6457
12.8302
9.87419
10.1567
11.4872
11.5774
11.2433
11.3253
13.3834
10.6216
10.5448
9.48336
9.93548
12.7772
9.55351
9.8861
10.8324
11.0675
9.40634
9.88779
11.0601
11.2752
11.4769
11.8036
13.8171
11.2704
11.1322
13.8252
11.3474
11.1478
13.7515
11.1175
11.0552
13.3445
11.2553
10.9205
13.6128
11.0676
10.9531
13.7349
11.2603
11.0554
13.9807
11.4918
11.2744
14.1069
11.6169
11.4279
14.0213
11.4994
11.2933
14.8758
12.9533
12.4107
15.2078
16.3753
14.3694
12.2099
11.6139
14.0094
12.0193
11.5316
13.8683
11.4202
11.2034
13.0732
10.8458
10.7793
10.0429
10.4186
15.7423
13.7976
13.0628
17.4899
15.497
17.2181
15.2886
14.4851
13.1398
13.4249
12.7584
19.0161
17.9057
16.027
14.2073
13.2953
18.0484
16.9127
15.5429
15.323
13.7867
20.1403
19.6918
18.7729
17.8274
19.5689
18.8353
15.7451
15.035
13.4395
18.4452
17.9014
17.8119
17.8292
17.6012
16.9377
16.4276
16.0461
15.5345
14.887
14.2622
13.6367
13.1029
12.5866
12.1358
11.7062
11.3517
11.09
10.8873
10.7237
10.5835
10.4678
7.7955
8.17664
7.17199
7.93086
10.3618
10.2777
10.1951
10.1364
10.0681
10.0379
9.97716
9.97399
9.91976
9.92923
9.88623
9.90079
9.86463
9.88317
16.18
12.8413
12.5356
14.275
12.6716
11.9092
7.2352
8.06741
9.23131
6.63166
7.04667
7.16715
7.72434
7.96558
8.37682
7.32977
8.08984
12.2725
7.18889
7.98968
6.98899
7.62069
12.1744
8.9743
9.43261
10.3256
10.6357
9.0762
9.44695
7.13546
7.8212
11.8802
7.89012
8.26297
9.14814
6.55055
6.95536
7.23232
8.0047
8.97756
9.251
10.3934
8.95247
6.46517
6.78078
6.91899
7.53471
10.5948
10.441
10.6429
7.62817
8.39525
9.60246
7.45987
8.06577
6.85343
7.27396
8.26652
8.65635
8.31035
8.70699
7.65804
8.43482
8.11937
8.5209
9.38925
6.71908
7.07848
7.46641
8.26377
7.30359
7.91717
9.55167
6.83388
7.24689
7.41449
8.04099
9.81451
8.47645
8.89601
7.77497
8.55859
7.55227
8.38285
6.97875
7.43178
7.45742
8.19341
6.91556
7.64139
6.605
7.19918
6.74041
7.5103
8.81714
6.66847
7.32486
6.30975
6.69236
7.06324
7.80126
6.85109
7.59499
7.60012
7.91148
8.67268
7.48491
7.90679
6.90174
7.61039
6.7093
7.39467
6.208
6.57024
13.5829
3.11434
19.3277
17.2242
15.7718
14.769
14.0866
13.4022
13.0132
12.6079
12.2776
11.9785
11.8039
11.5848
11.4609
11.3302
11.2658
11.1733
11.1285
11.0519
11.0154
10.9469
10.9146
10.8515
10.822
10.7631
10.7356
10.6803
10.6544
10.6022
10.5777
10.528
10.5047
10.4574
10.4352
10.3899
10.3686
10.3252
10.3047
10.263
10.2433
10.2031
10.184
10.1452
10.1268
10.0892
10.0714
10.0349
10.0175
9.98194
9.96501
9.93028
9.91373
9.87975
9.86354
9.83021
9.8143
9.78157
9.76593
9.73372
9.71832
9.68659
9.6714
9.64009
9.62508
9.59413
9.57927
9.54863
9.5339
9.50352
9.4889
9.45872
9.44417
9.41415
9.39965
9.36973
9.35526
9.3254
9.31093
9.28108
9.26659
9.23671
9.22218
9.19223
9.17764
9.14758
9.1329
9.10271
9.08792
9.05755
9.04265
9.01206
8.99702
8.96619
8.95099
8.91988
8.90451
8.8731
8.85746
8.82574
8.80956
8.77761
8.76077
8.72874
8.71123
8.67911
8.66096
8.62874
8.60996
8.57761
8.55821
8.52569
8.5057
8.47297
8.45238
8.4194
8.39822
8.36497
8.34319
8.30961
8.28724
8.25327
8.23033
8.19593
8.17241
8.13752
8.11344
8.07802
8.05338
8.01738
7.99219
7.95556
7.92983
7.89253
7.86628
7.82827
7.80151
7.76274
7.7355
7.69595
7.66824
7.62787
7.59972
7.5585
7.52995
7.48786
7.45893
7.41595
7.3867
7.34282
7.31329
7.26849
7.23874
7.19302
7.16312
7.11648
7.0865
7.03898
7.009
6.96064
6.93076
6.88163
6.85195
6.80211
6.77275
6.72231
6.69341
6.64248
6.61419
6.56292
6.53539
6.48394
6.45735
6.40595
6.38043
6.32943
6.30489
6.25493
6.2314
6.18282
6.16037
6.11341
6.09217
6.04714
6.02732
5.9846
5.9664
5.92632
5.90993
5.87279
5.85833
5.82439
5.81198
5.78143
5.77116
5.74415
5.73612
5.71268
5.708
5.68815
5.68604
5.66915
5.66947
5.65588
5.65879
5.64723
5.65288
5.64356
5.65186
5.64501
5.65569
5.65163
5.66382
5.66188
5.67539
5.67529
5.68989
5.69127
5.70746
5.71003
5.72742
5.73123
5.74973
5.75447
5.77348
5.77875
5.79779
5.80346
5.82242
5.82844
5.84732
5.85363
5.87232
5.87875
5.89708
5.90301
5.9205
5.92602
5.94277
5.94789
5.96391
5.96864
5.98394
5.98827
6.00285
6.00677
6.02064
6.02414
6.03733
6.0405
6.05305
6.05603
6.06797
6.0707
6.08199
6.08448
6.09513
6.09739
6.10743
6.10948
6.11898
6.12083
6.12983
6.1315
6.14007
6.14158
6.14977
6.15114
6.159
6.16024
6.16783
6.16896
6.17629
6.1773
6.18438
6.18528
6.19213
6.19291
6.19954
6.20023
6.20665
6.20723
6.21346
6.21393
6.21996
6.22032
6.22613
6.22638
6.23198
6.23212
6.2375
6.23753
6.24268
6.24259
6.24755
6.24734
6.25214
6.2518
6.25645
6.25599
6.26053
6.25997
6.26443
6.26381
6.26827
6.26766
6.27229
6.27184
6.27771
6.27454
6.34756
6.32647
6.36739
6.433
6.71667
6.99817
7.24075
7.36783
21.4782
7.52307
)
;
    }
    rightWall
    {
        type            calculated;
        value           uniform 0;
    }
    symmetryLine
    {
        type            symmetryPlane;
    }
}


// ************************************************************************* //
