/*--------------------------------*- C++ -*----------------------------------*\
| =========                 |                                                 |
| \\      /  F ield         | OpenFOAM: The Open Source CFD Toolbox           |
|  \\    /   O peration     | Version:  v2006                                 |
|   \\  /    A nd           | Website:  www.openfoam.com                      |
|    \\/     M anipulation  |                                                 |
\*---------------------------------------------------------------------------*/
FoamFile
{
    version     2.0;
    format      ascii;
    class       volScalarField;
    location    "0.052";
    object      T;
}
// * * * * * * * * * * * * * * * * * * * * * * * * * * * * * * * * * * * * * //

dimensions      [0 0 0 1 0 0 0];


internalField   nonuniform List<scalar> 
9148
(
298.085
298.085
298.085
298.085
298.086
298.086
298.089
298.095
298.103
298.112
298.122
298.132
298.143
298.154
298.165
298.177
298.19
298.203
298.217
298.232
298.246
298.262
298.278
298.294
298.311
298.328
298.345
298.363
298.381
298.399
298.417
298.435
298.454
298.472
298.491
298.509
298.527
298.546
298.564
298.582
298.599
298.616
298.633
298.65
298.666
298.682
298.697
298.712
298.727
298.74
298.753
298.766
298.778
298.789
298.8
298.81
298.82
298.829
298.837
298.843
298.847
298.848
298.848
298.848
298.848
298.848
298.849
298.851
298.855
298.863
298.872
298.913
298.921
298.872
298.858
298.859
298.875
298.935
298.947
298.879
298.86
298.863
298.885
298.957
298.964
298.891
298.866
298.871
298.898
298.971
298.976
298.904
298.876
298.88
298.91
298.981
298.985
298.916
298.885
298.89
298.921
298.989
298.992
298.927
298.896
298.9
298.932
298.995
298.998
298.938
298.906
298.911
298.942
299.001
299.004
298.948
298.917
298.922
298.952
299.006
299.01
298.958
298.928
298.933
298.963
299.012
299.016
298.969
298.939
298.945
298.973
299.019
299.023
298.98
298.951
298.957
298.984
299.025
299.03
298.991
298.963
298.969
298.995
299.033
299.038
299.002
298.976
298.981
299.006
299.041
299.047
299.014
298.989
298.995
299.019
299.05
299.057
299.027
299.004
299.01
299.033
299.061
299.068
299.041
299.019
299.026
299.047
299.072
299.079
299.056
299.035
299.042
299.061
299.083
299.09
299.07
299.051
299.057
299.075
299.094
299.103
299.085
299.067
299.075
299.091
299.108
299.118
299.102
299.086
299.095
299.11
299.125
299.135
299.122
299.107
299.116
299.13
299.142
299.151
299.142
299.129
299.138
299.149
299.157
299.167
299.16
299.149
299.158
299.168
299.173
299.185
299.18
299.17
299.18
299.189
299.194
299.207
299.203
299.194
299.206
299.214
299.218
299.231
299.23
299.222
299.235
299.241
299.241
299.252
299.256
299.251
299.264
299.267
299.261
299.272
299.28
299.279
299.291
299.291
299.284
299.297
299.305
299.305
299.319
299.319
299.313
299.331
299.337
299.336
299.353
299.354
299.348
299.364
299.374
299.373
299.392
299.39
299.378
299.389
299.406
299.411
299.427
299.419
299.399
299.411
299.433
299.443
299.458
299.447
299.429
299.451
299.466
299.475
299.497
299.49
299.478
299.501
299.515
299.52
299.549
299.542
299.523
299.539
299.561
299.573
299.598
299.583
299.559
299.566
299.592
299.61
299.621
299.603
299.579
299.567
299.582
299.61
299.625
299.73
300.07
300.229
300.115
299.741
300.033
300.175
300.197
300.191
300.154
300.098
300.074
300.136
300.185
300.212
300.152
300.078
300.158
300.215
300.244
300.255
300.252
300.251
300.285
300.275
300.277
300.27
300.283
300.298
300.309
300.302
300.282
300.287
300.295
300.283
300.247
300.279
300.304
300.278
300.215
300.171
300.121
300.15
300.22
300.161
300.108
300.088
300.079
300.095
300.139
300.13
300.093
300.084
300.104
300.104
300.126
300.128
300.13
300.139
300.182
300.167
300.139
300.159
300.205
300.224
300.272
300.262
300.217
300.261
300.29
300.286
300.29
300.303
300.289
300.301
300.3
300.276
300.245
300.284
300.306
300.289
300.247
300.201
300.155
300.203
300.261
300.228
300.166
300.118
300.078
300.122
300.187
300.171
300.104
300.065
300.062
300.095
300.16
300.153
300.091
300.061
300.066
300.091
300.149
300.146
300.089
300.07
300.066
300.074
300.122
300.095
300.065
300.068
300.074
300.068
300.085
300.085
300.071
300.079
300.089
300.081
300.093
300.106
300.092
300.098
300.107
300.105
300.126
300.142
300.111
300.111
300.113
300.112
300.149
300.149
300.11
300.112
300.111
300.107
300.146
300.145
300.106
300.112
300.122
300.11
300.145
300.154
300.118
300.131
300.139
300.13
300.171
300.181
300.137
300.141
300.176
300.169
300.023
299.967
299.979
300.039
300.12
300.168
300.199
300.245
300.258
300.25
300.224
300.177
300.123
300.079
300.051
300.033
300.019
300.012
300.008
300.001
300.013
300.057
300.101
300.134
300.158
300.438
300.026
300.098
299.909
300.344
300.234
300.131
300.16
300.227
300.245
300.212
300.206
300.251
300.241
300.231
300.294
300.118
300.318
300.219
300.215
300.241
300.213
300.134
300.286
299.975
300.42
300.137
300.148
300.199
300.148
300.161
300.171
300.133
300.244
299.963
300.279
300.194
300.17
300.162
300.275
299.949
300.283
300.219
300.175
300.052
299.956
300.331
300.339
300.505
299.847
300.135
299.901
300.409
300.252
300.411
299.837
300.084
299.913
300.259
300.042
300.324
299.669
300.103
300.059
299.828
300.194
299.834
300.295
299.904
299.908
300.272
299.822
299.964
299.985
299.988
300.016
299.87
300.133
299.847
300.177
299.906
299.909
300.078
299.896
300.057
299.9
299.941
299.891
300
299.877
300.126
299.708
299.947
299.944
299.768
300.05
299.906
299.908
299.909
299.906
299.904
299.91
299.913
299.906
299.909
299.911
299.907
299.916
299.915
299.91
299.915
299.917
299.911
299.911
299.909
299.917
299.925
299.932
299.922
299.908
299.926
299.922
299.934
299.919
299.913
300.003
300.088
299.909
299.894
299.788
300.071
300.092
300.024
299.884
299.959
299.983
299.979
299.968
299.988
299.987
299.986
299.994
299.992
299.991
299.978
300.008
300.008
300.02
300.085
299.845
299.975
299.998
299.998
299.932
299.921
299.891
299.929
299.901
299.86
299.938
299.427
299.835
299.535
299.639
299.654
299.309
299.401
299.492
298.88
299.176
298.763
298.637
298.157
298.84
297.493
297.756
297.988
297.386
297.154
297.204
298.04
297.584
297.672
297.775
297.935
298.194
298.48
298.011
297.836
298.204
298.43
298.735
298.876
298.71
298.521
298.503
298.71
299.027
299.055
298.905
298.724
298.652
298.807
299.09
299.048
298.945
298.864
298.712
298.899
299.028
298.985
298.995
298.921
298.795
299.336
298.706
299.333
298.677
298.971
299.034
299.061
298.662
298.82
299.181
298.952
299.084
299.16
298.759
298.87
299.049
299.113
299.119
298.562
299.453
298.537
299.189
299.156
298.968
299.263
298.822
298.664
299.183
299.134
299.04
299.199
298.825
298.881
299.135
299.086
299.002
299.347
298.675
298.398
299.523
298.996
298.865
299.04
299.421
299.33
298.748
299.049
298.851
298.874
299.891
299.511
298.684
298.917
298.829
298.904
299.685
299.226
298.782
298.846
298.864
298.921
299.218
299.09
298.91
298.875
298.908
298.95
299.046
299.085
298.941
298.915
299.019
298.308
299.564
298.591
298.95
298.976
298.786
299.024
298.811
298.174
298.999
299.012
298.772
299.186
298.453
297.948
298.959
298.955
298.899
299.145
298.356
298.226
298.918
298.95
298.848
298.939
298.583
298.638
298.804
298.814
298.751
298.783
298.724
298.788
298.782
298.757
298.7
298.725
298.778
298.783
298.737
298.705
298.656
298.683
298.756
298.768
298.712
298.67
298.614
298.644
298.73
298.729
298.67
298.62
298.579
298.61
298.694
298.705
298.64
298.597
298.54
298.567
298.665
298.648
298.595
298.548
298.488
298.541
298.621
298.659
298.534
298.512
298.46
298.361
298.777
298.288
298.519
298.481
298.435
298.324
298.69
298.144
298.1
298.613
298.459
298.092
298.191
297.873
298.775
298.306
298.497
298.426
297.736
298.037
298.506
298.385
298.412
298.385
298.16
298.285
298.315
298.266
298.273
298.31
298.339
298.311
298.214
298.166
298.165
298.209
298.285
298.213
298.138
298.104
298.108
298.156
298.23
298.084
298.097
298.042
298.032
298.118
298.31
297.774
298.273
297.973
297.868
298.272
298.26
298.059
298.115
297.843
297.854
297.551
298.252
298.408
297.871
297.792
297.735
297.64
298.18
298.248
297.907
297.743
297.662
297.684
298.057
298.066
297.818
297.674
297.607
297.678
297.844
297.928
297.708
297.641
297.556
297.659
297.725
297.866
297.642
297.571
297.568
297.426
297.883
297.631
297.491
297.454
297.494
297.513
297.728
297.561
297.419
297.37
297.414
297.458
297.664
297.524
297.352
297.294
297.322
297.393
297.587
297.414
297.3
297.221
297.26
297.333
297.535
297.227
297.291
297.124
297.125
297.251
297.475
297.392
297.213
297.11
297.023
297.015
297.32
297.305
297.119
297.029
296.908
296.932
297.155
297.192
297.015
296.92
296.8
296.86
297.066
297.11
296.898
296.811
296.711
296.772
296.928
297.034
296.75
296.754
296.692
296.557
296.933
296.794
296.684
296.558
296.621
296.663
296.836
296.636
296.555
296.459
296.484
296.533
296.727
296.559
296.415
296.352
296.389
296.433
296.634
296.449
296.327
296.255
296.284
296.339
296.562
296.392
296.227
296.15
296.214
296.184
296.489
296.36
296.052
296.091
295.953
296.081
296.237
296.284
296.06
295.992
295.849
295.944
296.04
296.112
295.901
295.835
295.708
295.819
295.942
296.026
295.798
295.728
295.579
295.665
295.785
295.912
295.659
295.588
295.463
295.571
295.714
295.823
295.535
295.491
295.352
295.455
295.668
295.577
295.268
295.215
295.226
295.325
295.581
295.391
295.137
295.072
295.074
295.195
295.419
295.236
294.994
294.937
294.902
295.021
295.238
295.09
294.824
294.743
294.756
294.875
295.11
294.893
294.645
294.589
294.599
294.711
294.938
294.805
294.574
294.474
294.257
294.296
294.618
294.609
294.346
294.22
294.069
294.146
294.414
294.435
294.192
294.058
293.875
293.941
294.217
294.23
293.972
293.85
293.632
293.704
293.97
293.951
293.694
293.578
293.374
293.47
293.749
293.771
293.509
293.378
293.174
293.231
293.551
293.559
293.274
293.143
292.91
292.978
293.298
293.275
292.968
292.831
292.583
292.684
293.031
293.037
292.729
292.587
292.357
292.414
292.777
292.803
292.471
292.29
292.045
292.106
292.487
292.412
292.085
291.919
291.67
291.786
292.178
292.208
291.88
291.636
291.468
291.724
291.729
291.782
291.083
291.188
291.013
291.308
291.68
291.254
290.721
290.64
290.57
290.747
291.12
290.755
290.455
290.348
290.077
290.342
290.735
290.453
290.283
289.982
289.516
289.684
289.942
289.981
289.471
289.436
289.034
289.182
289.638
289.71
289.142
289.013
288.457
288.643
288.928
289.206
288.398
288.304
287.746
287.854
288.346
288.368
287.87
287.771
287.294
287.417
287.895
287.877
287.273
287.12
286.355
286.363
287.014
286.617
286.158
285.994
285.75
285.798
286.337
286.214
285.648
285.048
284.924
285.479
285.843
284.755
283.938
284.087
283.792
283.974
284.57
283.705
283.495
283.326
282.594
282.462
283.758
282.034
281.805
281.7
281.121
281.187
281.965
281.119
280.788
280.469
279.539
279.246
280.177
279.208
278.424
278.64
277.721
277.961
278.864
276.967
276.563
277.054
276.017
275.82
276.714
274.554
274.373
274.769
274.22
274.231
275.339
273.81
273.608
273.929
273.841
273.529
274.387
275.864
274.317
274.333
275.947
276.716
279.504
282.488
279.006
278.49
281.5
282.738
286.588
288.619
285.132
283.721
285.209
286.855
290.088
290.794
287.993
286.214
287.211
289.153
291.64
292.002
289.909
287.955
288.741
290.752
292.552
292.756
291.237
289.309
289.965
291.878
293.145
293.283
292.209
290.429
290.996
292.711
293.562
293.656
292.93
291.377
291.853
293.301
293.86
293.928
293.445
292.146
292.528
293.712
294.085
294.13
293.807
292.746
293.05
293.996
294.236
294.261
294.057
293.205
293.434
294.191
294.34
294.361
294.23
293.545
293.71
294.331
294.431
294.448
294.357
293.787
293.901
294.436
294.504
294.51
294.452
293.955
294.033
294.509
294.542
294.539
294.508
294.066
294.12
294.54
294.559
294.554
294.527
294.122
294.154
294.545
294.57
294.562
294.522
294.139
294.159
294.529
294.57
294.56
294.499
294.134
294.146
294.497
294.558
294.544
294.464
294.114
294.123
294.456
294.539
294.516
294.417
294.086
294.09
294.406
294.509
294.479
294.367
294.056
294.051
294.351
294.467
294.427
294.303
294.023
294.009
294.287
294.412
294.368
294.237
293.982
293.965
294.22
294.351
294.303
294.169
293.936
293.916
294.151
294.285
294.235
294.1
293.888
293.869
294.083
294.216
294.165
294.032
293.84
293.822
294.016
294.146
294.097
293.966
293.794
293.779
293.951
294.078
294.028
293.903
293.748
293.736
293.89
294.01
293.962
293.844
293.706
293.696
293.831
293.944
293.896
293.786
293.664
293.654
293.775
293.88
293.834
293.732
293.623
293.615
293.721
293.819
293.775
293.679
293.582
293.574
293.67
293.76
293.718
293.629
293.544
293.536
293.621
293.704
293.664
293.582
293.505
293.498
293.574
293.651
293.613
293.537
293.468
293.461
293.529
293.601
293.565
293.493
293.431
293.425
293.487
293.554
293.52
293.453
293.397
293.391
293.447
293.51
293.477
293.415
293.363
293.357
293.409
293.468
293.437
293.378
293.33
293.324
293.372
293.428
293.398
293.343
293.298
293.293
293.337
293.39
293.362
293.309
293.268
293.263
293.305
293.354
293.327
293.277
293.238
293.233
293.273
293.32
293.295
293.247
293.209
293.204
293.243
293.288
293.264
293.217
293.182
293.177
293.213
293.257
293.234
293.189
293.155
293.15
293.185
293.228
293.206
293.162
293.129
293.124
293.158
293.2
293.18
293.136
293.103
293.099
293.133
293.174
293.154
293.111
293.079
293.074
293.108
293.148
293.13
293.087
293.055
293.051
293.084
293.124
293.106
293.063
293.032
293.027
293.061
293.101
293.084
293.041
293.01
293.005
293.039
293.079
293.062
293.02
292.988
292.984
293.017
293.057
293.041
292.999
292.967
292.964
292.996
293.037
293.021
292.979
292.947
292.944
292.976
293.016
293.001
292.959
292.928
292.925
292.957
292.997
292.982
292.94
292.909
292.906
292.938
292.978
292.964
292.922
292.891
292.888
292.92
292.96
292.946
292.904
292.873
292.87
292.903
292.942
292.929
292.887
292.856
292.853
292.886
292.925
292.912
292.871
292.839
292.836
292.869
292.908
292.896
292.854
292.823
292.82
292.853
292.892
292.879
292.838
292.807
292.804
292.838
292.876
292.864
292.823
292.791
292.789
292.823
292.86
292.849
292.808
292.776
292.774
292.808
292.845
292.834
292.793
292.761
292.76
292.794
292.831
292.82
292.779
292.747
292.745
292.78
292.817
292.806
292.765
292.733
292.732
292.766
292.803
292.793
292.752
292.719
292.717
292.753
292.79
292.779
292.738
292.706
292.705
292.74
292.777
292.766
292.725
292.693
292.691
292.727
292.764
292.753
292.713
292.679
292.679
292.714
292.751
292.741
292.7
292.667
292.666
292.702
292.738
292.728
292.688
292.654
292.654
292.689
292.726
292.716
292.675
292.641
292.641
292.677
292.714
292.704
292.663
292.629
292.63
292.665
292.702
292.692
292.651
292.617
292.617
292.653
292.69
292.68
292.64
292.605
292.606
292.642
292.678
292.668
292.628
292.593
292.593
292.63
292.667
292.657
292.617
292.581
292.583
292.619
292.655
292.645
292.605
292.569
292.57
292.608
292.644
292.634
292.594
292.558
292.56
292.597
292.633
292.623
292.583
292.547
292.548
292.586
292.622
292.612
292.572
292.535
292.538
292.575
292.611
292.601
292.561
292.524
292.526
292.564
292.6
292.59
292.55
292.513
292.516
292.553
292.589
292.579
292.54
292.502
292.504
292.542
292.579
292.569
292.529
292.491
292.495
292.532
292.568
292.558
292.518
292.481
292.482
292.521
292.557
292.547
292.507
292.47
292.473
292.51
292.546
292.536
292.496
292.459
292.461
292.499
292.535
292.525
292.485
292.448
292.451
292.488
292.524
292.514
292.474
292.437
292.438
292.477
292.513
292.503
292.463
292.425
292.429
292.466
292.502
292.491
292.452
292.415
292.417
292.455
292.491
292.481
292.441
292.404
292.407
292.445
292.48
292.47
292.43
292.393
292.396
292.434
292.469
292.46
292.421
292.383
292.385
292.425
292.458
292.45
292.411
292.372
292.374
292.414
292.449
292.442
292.402
292.363
292.364
292.406
292.441
292.436
292.394
292.354
292.357
292.397
292.434
292.43
292.387
292.346
292.343
292.387
292.428
292.421
292.38
292.329
292.275
292.357
292.401
292.362
292.327
292.246
292.247
292.312
292.332
292.154
291.594
291.317
291.228
290.792
290.412
290.142
290.022
289.734
289.553
289.221
288.949
288.726
288.54
288.393
288.285
288.21
288.16
288.128
288.106
288.091
288.081
288.074
288.069
288.065
288.062
288.06
288.059
288.058
288.057
288.057
288.056
288.056
288.056
288.055
288.054
288.054
288.053
288.052
288.051
288.05
288.05
288.049
288.049
288.048
288.048
288.047
288.046
288.044
288.043
288.044
288.048
288.055
288.064
288.077
288.092
288.11
288.13
288.154
288.181
288.212
288.246
288.285
288.328
288.377
288.432
288.493
288.561
288.636
288.72
288.813
288.915
289.027
289.15
289.285
289.431
289.588
289.758
289.939
290.132
290.335
290.549
290.772
291.002
291.24
291.482
291.728
291.977
292.226
292.475
292.722
292.967
293.207
293.442
293.671
293.894
294.11
294.319
294.52
294.714
294.899
295.077
295.247
295.409
295.564
295.711
295.852
295.985
296.111
296.231
296.345
296.453
296.556
296.653
296.745
296.832
296.914
296.992
297.066
297.135
297.201
297.264
297.322
297.378
297.431
297.48
297.527
297.571
297.613
297.652
297.69
297.724
297.757
297.788
297.817
297.844
297.869
297.893
297.914
297.935
297.954
297.971
297.987
298.002
298.016
298.028
298.039
298.049
298.058
298.065
298.071
298.076
298.08
298.083
298.085
298.085
298.085
298.085
298.086
298.086
298.088
298.092
298.098
298.106
298.115
298.125
298.135
298.146
298.158
298.171
298.184
298.197
298.211
298.226
298.241
298.257
298.273
298.29
298.307
298.324
298.342
298.36
298.378
298.396
298.414
298.433
298.452
298.47
298.489
298.508
298.526
298.545
298.563
298.581
298.599
298.617
298.634
298.651
298.667
298.683
298.699
298.714
298.729
298.743
298.756
298.769
298.782
298.793
298.804
298.815
298.824
298.833
298.84
298.845
298.848
298.849
298.849
298.849
298.849
298.85
298.852
298.855
298.857
298.86
298.863
298.867
298.871
298.875
298.879
298.883
298.888
298.893
298.898
298.904
298.909
298.915
298.921
298.927
298.933
298.94
298.946
298.953
298.96
298.967
298.975
298.983
298.991
299
299.008
299.016
299.025
299.033
299.042
299.052
299.062
299.073
299.084
299.096
299.107
299.119
299.13
299.141
299.152
299.164
299.177
299.191
299.206
299.222
299.238
299.253
299.268
299.282
299.297
299.311
299.328
299.346
299.367
299.388
299.409
299.427
299.445
299.46
299.477
299.497
299.521
299.549
299.578
299.604
299.624
299.635
299.635
299.63
299.639
299.679
299.771
299.848
299.893
299.979
300.195
300.281
300.302
300.311
300.273
300.238
300.158
300.119
300.083
300.076
300.08
300.099
300.133
300.176
300.216
300.254
300.261
300.26
300.243
300.208
300.162
300.115
300.078
300.044
300.036
300.036
300.039
300.048
300.059
300.066
300.08
300.092
300.1
300.113
300.12
300.129
300.133
300.138
300.139
300.145
300.15
300.162
300.167
300.173
300.166
300.033
300.059
300.167
300.171
300.092
300.133
300.174
300.169
300.14
300.069
300.039
300.015
299.987
299.998
300.018
300.028
300.044
300.043
300.044
300.102
300.078
300.063
300.048
300.073
300.12
300.158
300.167
300.165
300.157
300.167
300.163
300.162
300.17
300.156
300.187
300.173
300.157
300.154
300.177
300.168
300.14
300.13
300.163
300.197
300.185
300.144
300.113
300.095
300.128
300.105
300.077
300.062
300.088
300.143
300.096
300.064
300.046
300.036
300.051
300.04
300.032
300.038
300.046
300.067
300.073
300.056
300.06
300.094
300.083
300.12
300.138
300.176
300.15
300.113
300.162
300.184
300.211
300.227
300.199
300.211
300.233
300.23
300.206
300.186
300.182
300.19
300.202
300.171
300.171
300.14
300.13
300.111
300.139
300.168
300.182
300.117
300.095
300.102
300.157
300.16
300.11
300.147
300.221
300.117
299.935
300.229
300.18
300.259
300.273
300.21
300.299
300.306
300.092
299.775
299.712
299.856
300.2
300.065
299.823
299.743
299.868
299.793
299.737
299.681
299.637
299.697
299.753
299.71
299.668
299.646
299.663
299.641
299.632
299.604
299.589
299.628
299.634
299.633
299.624
299.621
299.634
299.627
299.61
299.574
299.547
299.598
299.616
299.592
299.572
299.55
299.566
299.537
299.52
299.505
299.461
299.499
299.512
299.488
299.475
299.458
299.47
299.451
299.438
299.422
299.386
299.421
299.435
299.415
299.401
299.382
299.396
299.374
299.361
299.349
299.312
299.342
299.354
299.334
299.322
299.305
299.316
299.299
299.287
299.276
299.243
299.272
299.284
299.268
299.256
299.24
299.253
299.238
299.224
299.212
299.181
299.208
299.222
299.206
299.193
299.177
299.19
299.175
299.163
299.152
299.126
299.149
299.161
299.148
299.136
299.124
299.136
299.125
299.112
299.101
299.077
299.1
299.113
299.101
299.089
299.076
299.089
299.078
299.065
299.054
299.032
299.053
299.066
299.055
299.043
299.032
299.044
299.034
299.022
299.012
298.994
299.013
299.024
299.016
299.004
298.995
299.007
298.998
298.987
298.977
298.961
298.978
298.99
298.982
298.97
298.962
298.973
298.965
298.954
298.945
298.931
298.946
298.957
298.95
298.94
298.933
298.943
298.936
298.926
298.918
298.907
298.92
298.929
298.923
298.914
298.908
298.917
298.912
298.903
298.896
298.887
298.898
298.906
298.9
298.893
298.888
298.895
298.89
298.883
298.878
298.871
298.879
298.885
298.881
298.875
298.871
298.876
298.873
298.868
298.865
298.859
298.864
298.869
298.865
298.861
298.859
298.862
298.859
298.856
298.855
298.852
298.854
298.857
298.855
298.853
298.851
298.853
298.851
298.85
298.85
298.85
298.851
298.854
298.858
298.862
298.868
298.874
298.882
298.891
298.9
298.911
298.923
298.936
298.951
298.966
298.983
299.001
299.02
299.04
299.063
299.086
299.11
299.135
299.162
299.191
299.222
299.254
299.288
299.323
299.358
299.392
299.428
299.467
299.505
299.532
299.551
299.568
299.595
299.632
299.658
299.675
299.71
299.795
299.964
300.098
300.169
300.182
300.147
300.102
300.087
300.111
300.159
300.205
300.222
300.215
300.177
300.12
300.071
300.047
300.052
300.077
300.104
300.138
300.159
300.118
300.091
300.091
300.124
300.172
300.169
300.12
300.094
300.065
300.05
300.055
300.068
300.087
300.114
300.159
300.137
300.105
300.091
300.087
300.088
300.105
300.073
300.073
300.085
300.087
300.08
300.071
300.054
300.051
300.084
300.13
300.188
300.215
300.178
300.139
300.108
300.072
300.077
300.093
300.118
300.145
300.162
300.192
300.214
300.18
300.172
300.131
300.131
300.099
300.102
300.101
300.128
300.155
300.136
300.134
300.104
300.087
300.079
300.08
300.088
300.107
300.108
300.081
300.051
300.044
300.019
300.033
300.073
300.071
300.015
300.001
299.987
299.996
300.057
300.11
300.109
300.097
300.109
300.102
300.057
299.994
299.992
300.05
300.022
300.053
300.091
300.147
300.187
300.141
300.147
300.197
300.203
300.158
300.016
300.048
300.075
300.13
300.216
300.201
300.154
300.077
300.086
300.097
300.1
300.078
300.053
300.07
300.056
300.078
300.052
300.042
300.036
299.995
299.998
300.009
300.022
300.038
300.04
300.029
300.039
300.034
300.038
300.05
300.053
300.075
300.092
300.107
300.107
300.097
300.062
300.118
300.118
300.096
300.066
300.042
300.035
300.043
300.023
300.032
300.028
300.023
300.013
300.029
300.02
300.013
300.022
300.01
300.007
300.006
299.997
299.983
299.98
299.994
299.989
299.99
299.977
299.964
299.953
299.986
299.991
300.051
300.07
300.113
300.107
300.119
300.091
300.042
300.087
300.11
300.105
300.149
300.116
300.049
300.148
300.065
299.9
299.759
299.906
300.04
299.933
299.78
299.666
299.595
299.683
299.825
299.972
300.063
300.031
300.076
300.024
300.013
300.007
299.991
299.955
299.952
299.929
299.928
299.935
299.94
299.954
299.961
299.971
299.974
299.971
299.985
299.954
299.949
299.942
299.933
299.933
299.923
299.915
299.914
299.926
299.931
299.932
299.919
299.918
299.924
299.938
299.966
299.975
299.947
299.939
299.927
299.935
299.943
299.954
299.964
299.987
299.998
300.022
300.011
299.988
299.99
300.001
299.99
299.985
299.977
299.97
299.959
299.953
299.969
299.98
299.98
299.955
299.983
299.984
299.992
299.996
299.994
299.99
299.994
299.995
299.995
299.988
300
300.005
299.991
299.987
299.976
299.969
299.94
299.943
299.922
299.77
299.616
299.521
299.423
299.48
299.644
299.958
299.873
299.795
299.953
299.931
299.936
299.939
299.846
299.825
299.782
299.753
299.512
299.538
299.542
299.605
299.464
299.577
299.505
299.341
299.449
299.661
299.798
299.12
299.092
299.151
299.359
299.303
299.106
299.156
298.85
298.793
298.469
298.468
298.204
298.369
298.719
298.753
298.958
299.092
299.302
299.407
299.443
299.323
299.25
298.975
298.664
298.681
298.385
298.431
298.128
297.518
297.519
297.566
297.682
297.682
297.787
297.818
298.036
298.381
298.258
298.58
298.422
298.711
298.584
298.718
298.933
298.767
298.919
298.796
298.925
299.036
298.915
299
298.882
299.008
298.91
298.974
299.009
298.97
298.968
298.94
298.912
298.892
298.884
298.872
298.887
298.853
298.881
298.877
298.836
298.864
298.818
298.889
298.81
298.858
298.772
298.819
298.753
298.752
298.706
298.718
298.665
298.663
298.615
298.631
298.583
298.59
298.539
298.557
298.504
298.507
298.448
298.457
298.416
298.423
298.376
298.388
298.329
298.297
298.259
298.333
298.281
298.369
298.344
298.417
298.38
298.462
298.435
298.507
298.467
298.542
298.512
298.587
298.548
298.621
298.588
298.664
298.614
298.682
298.645
298.714
298.674
298.744
298.713
298.777
298.737
298.822
298.768
298.681
298.572
298.604
298.519
298.662
298.631
298.554
298.468
298.57
298.497
298.408
298.549
298.509
298.433
298.347
298.432
298.365
298.275
298.404
298.353
298.29
298.199
298.259
298.207
298.116
298.225
298.168
298.208
298.247
298.328
298.229
298.257
298.163
298.173
298.106
298.118
298.051
298.047
297.986
297.975
297.923
297.948
297.88
297.857
297.828
297.917
297.875
297.974
297.938
298.015
297.982
298.08
298.042
298.111
298.081
298.179
298.149
298.033
298.031
297.944
297.928
297.836
297.812
297.733
297.755
297.793
297.761
297.706
297.69
297.638
297.637
297.574
297.586
297.518
297.545
297.456
297.383
297.394
297.307
297.311
297.239
297.236
297.161
297.164
297.101
297.108
297.026
297.02
297.013
297.109
297.091
297.169
297.168
297.241
297.236
297.309
297.306
297.389
297.448
297.448
297.511
297.511
297.576
297.578
297.647
297.644
297.708
297.689
297.633
297.632
297.584
297.506
297.576
297.506
297.458
297.362
297.446
297.377
297.314
297.231
297.182
297.071
297.019
296.919
296.928
296.942
296.923
296.829
296.806
296.736
296.734
296.648
296.67
296.58
296.593
296.519
296.5
296.466
296.401
296.379
296.279
296.266
296.178
296.173
296.063
296.067
295.97
295.884
295.846
295.756
295.721
295.613
295.588
295.497
295.462
295.36
295.343
295.23
295.265
295.149
295.114
295.075
294.984
294.935
294.807
294.748
294.624
294.613
294.463
294.46
294.253
294.134
294.069
293.933
293.884
293.728
293.633
293.488
293.382
293.27
293.178
293.048
292.917
292.761
292.623
292.487
292.35
292.218
292.081
291.837
291.699
291.504
291.471
291.19
291.371
291.234
291.044
290.773
290.642
290.329
290.211
289.977
289.704
289.459
289.049
289.009
288.632
288.485
287.856
287.862
287.29
287.282
286.578
286.584
285.754
285.775
285.129
284.278
284.303
283.287
283.389
282.055
282.01
281.089
280.202
279.837
278.911
277.72
277.571
276.242
275.35
274.472
275.391
274.789
275.398
276.437
278.37
280.737
282.519
283.896
284.664
285.526
286.08
286.736
287.156
287.666
288.021
288.441
288.756
289.11
289.394
289.687
289.939
290.182
290.407
290.611
290.816
290.99
291.176
291.321
291.486
291.608
291.759
291.861
292.004
292.09
292.223
292.293
292.416
292.471
292.587
292.626
292.733
292.758
292.857
292.873
292.959
292.971
293.052
293.061
293.125
293.134
293.186
293.196
293.231
293.243
293.268
293.283
293.292
293.309
293.308
293.323
293.314
293.329
293.317
293.329
293.311
293.324
293.303
293.315
293.29
293.302
293.275
293.287
293.257
293.27
293.239
293.25
293.217
293.23
293.196
293.209
293.173
293.187
293.151
293.164
293.127
293.141
293.105
293.119
293.081
293.096
293.059
293.074
293.036
293.052
293.015
293.03
292.992
293.009
292.972
292.988
292.95
292.967
292.93
292.946
292.909
292.926
292.89
292.906
292.87
292.887
292.851
292.867
292.832
292.848
292.814
292.83
292.795
292.812
292.778
292.794
292.76
292.776
292.744
292.759
292.726
292.742
292.71
292.725
292.694
292.709
292.678
292.693
292.662
292.678
292.648
292.663
292.632
292.648
292.619
292.633
292.604
292.619
292.59
292.605
292.576
292.591
292.563
292.577
292.549
292.563
292.536
292.55
292.522
292.537
292.51
292.524
292.497
292.511
292.485
292.498
292.472
292.486
292.46
292.474
292.447
292.461
292.436
292.449
292.424
292.438
292.412
292.426
292.4
292.414
292.389
292.403
292.377
292.391
292.367
292.38
292.355
292.368
292.344
292.357
292.332
292.345
292.321
292.334
292.309
292.322
292.298
292.311
292.286
292.3
292.276
292.289
292.264
292.278
292.254
292.267
292.242
292.256
292.236
292.229
292.234
292.208
292.179
291.631
291.652
291.336
291.778
291.732
291.475
291.84
291.808
291.555
291.884
291.843
291.61
291.91
291.869
291.642
291.927
291.881
291.659
291.941
291.897
291.676
291.952
291.906
291.68
291.965
291.92
291.703
291.974
291.928
291.698
291.988
291.942
291.726
291.996
291.95
291.717
292.011
291.963
291.746
292.018
291.972
291.736
292.033
291.985
291.765
292.04
291.993
291.754
292.055
292.006
291.783
292.062
292.014
291.772
292.077
292.028
291.802
292.084
292.036
291.79
292.099
292.049
291.82
292.106
292.057
291.808
292.121
292.071
291.838
292.129
292.079
291.826
292.144
292.093
291.856
292.152
292.102
291.843
292.168
292.115
291.873
292.175
292.124
291.861
292.191
292.138
291.89
292.199
292.146
291.878
292.214
292.16
291.907
292.222
292.168
291.894
292.237
292.182
291.922
292.245
292.19
291.909
292.261
292.203
291.937
292.269
292.211
291.924
292.284
292.225
291.95
292.292
292.233
291.938
292.307
292.246
291.962
292.315
292.254
291.951
292.33
292.267
291.973
292.338
292.274
291.962
292.353
292.287
291.983
292.361
292.294
291.972
292.375
292.305
291.989
292.382
292.311
291.979
292.394
292.322
291.994
292.401
292.326
291.984
292.412
292.335
291.994
292.417
292.338
291.983
292.426
292.345
291.992
292.429
292.346
291.979
292.436
292.35
291.986
292.437
292.348
291.971
292.441
292.35
291.974
292.438
292.344
291.956
292.44
292.342
291.956
292.434
292.333
291.934
292.432
292.327
291.933
292.422
292.313
291.906
292.415
292.302
291.901
292.4
292.283
291.869
292.389
292.267
291.86
292.368
292.241
291.823
292.351
292.219
291.809
292.323
292.187
291.769
292.299
292.157
291.75
292.264
292.117
291.704
292.231
292.078
291.684
292.185
292.028
291.625
292.143
291.979
291.599
292.086
291.919
291.528
292.034
291.859
291.494
291.966
291.788
291.414
291.903
291.719
291.371
291.825