/*--------------------------------*- C++ -*----------------------------------*\
| =========                 |                                                 |
| \\      /  F ield         | OpenFOAM: The Open Source CFD Toolbox           |
|  \\    /   O peration     | Version:  v2006                                 |
|   \\  /    A nd           | Website:  www.openfoam.com                      |
|    \\/     M anipulation  |                                                 |
\*---------------------------------------------------------------------------*/
FoamFile
{
    version     2.0;
    format      ascii;
    class       volVectorField;
    location    "0.052";
    object      U;
}
// * * * * * * * * * * * * * * * * * * * * * * * * * * * * * * * * * * * * * //

dimensions      [0 1 -1 0 0 0 0];


internalField   nonuniform List<vector> 
9148
(
(62.0293 -4.47553e-06 -3.91517e-20)
(62.0293 7.38075e-06 3.26773e-21)
(62.0293 -2.29448e-06 0)
(62.0292 2.23607e-05 -2.61432e-20)
(62.0286 -1.43627e-05 4.76311e-19)
(62.0188 -0.00148128 3.4792e-23)
(61.97 -0.00990288 -6.0195e-19)
(61.8683 -0.0255697 -3.45164e-19)
(61.7286 -0.0445848 -1.46925e-18)
(61.5736 -0.062414 1.53346e-18)
(61.411 -0.0783372 -2.01344e-19)
(61.2447 -0.0918973 2.04581e-19)
(61.073 -0.104071 0)
(60.8941 -0.115276 3.27598e-21)
(60.7057 -0.125928 8.25937e-22)
(60.5068 -0.136112 0)
(60.297 -0.145855 0)
(60.0765 -0.155149 0)
(59.8455 -0.163999 0)
(59.6045 -0.172423 0)
(59.3536 -0.180445 0)
(59.0934 -0.188078 0)
(58.824 -0.195328 0)
(58.546 -0.20219 0)
(58.2598 -0.208651 0)
(57.9659 -0.214697 0)
(57.6648 -0.220308 0)
(57.3571 -0.225465 0)
(57.0435 -0.23015 0)
(56.7244 -0.234339 0)
(56.4006 -0.238013 0)
(56.0728 -0.241153 0)
(55.7415 -0.243741 0)
(55.4075 -0.24576 0)
(55.0716 -0.247194 0)
(54.7345 -0.248032 0)
(54.3968 -0.248261 0)
(54.0595 -0.247879 0)
(53.7233 -0.246883 0)
(53.3889 -0.245191 0)
(53.0571 -0.242822 0)
(52.7288 -0.23986 0)
(52.4047 -0.236263 0)
(52.0856 -0.232011 0)
(51.7724 -0.227112 0)
(51.4657 -0.221571 0)
(51.1663 -0.215394 0)
(50.875 -0.208573 0)
(50.5925 -0.201101 0)
(50.3196 -0.192961 0)
(50.0568 -0.184135 0)
(49.805 -0.174617 0)
(49.5648 -0.164361 5.55081e-20)
(49.3365 -0.153409 -4.84591e-20)
(49.1201 -0.141572 0)
(48.9147 -0.128589 5.53608e-20)
(48.7185 -0.1136 1.10987e-19)
(48.5319 -0.0959618 0)
(48.3602 -0.0750324 3.1688e-18)
(48.22 -0.0539305 4.6269e-18)
(48.1325 -0.0367469 -7.10081e-18)
(48.1003 -0.0268699 -3.29639e-18)
(48.1017 -0.0206501 0)
(48.1132 -0.0138224 0)
(48.1221 -0.00675967 0)
(48.1203 -0.0101972 1.17132e-17)
(48.1012 -0.0138939 -4.00862e-18)
(48.0485 -0.0225991 0)
(47.9485 -0.0462475 -4.72326e-19)
(47.7565 -0.0706511 1.7141e-18)
(47.5106 -0.0862178 0)
(46.5676 -0.124836 2.80398e-19)
(45.9732 -0.103313 -2.56446e-19)
(47.5322 -0.131611 0)
(47.8227 -0.113867 1.07947e-17)
(47.8628 -0.141633 -8.74991e-20)
(47.4809 -0.154948 1.75844e-18)
(45.3547 -0.102267 -2.11156e-18)
(44.729 -0.0931152 8.73188e-19)
(47.391 -0.154318 -7.7172e-19)
(47.8796 -0.149237 7.9844e-20)
(47.8622 -0.152639 0)
(47.27 -0.146805 0)
(44.173 -0.0835355 0)
(43.6254 -0.073354 -9.12431e-19)
(47.1076 -0.136217 6.62101e-19)
(47.8121 -0.150701 -1.10333e-18)
(47.7373 -0.150291 4.8746e-19)
(46.9359 -0.129367 9.86675e-20)
(43.1294 -0.0670174 -4.79822e-19)
(42.6586 -0.0616135 4.73203e-19)
(46.7428 -0.121763 0)
(47.6496 -0.148073 -6.50348e-19)
(47.5502 -0.146854 -7.43672e-19)
(46.5578 -0.117153 0)
(42.218 -0.0577537 -6.06923e-20)
(41.8121 -0.0540712 6.0705e-20)
(46.3676 -0.112409 0)
(47.4415 -0.145812 4.15345e-20)
(47.3226 -0.144322 4.16625e-20)
(46.1722 -0.108139 0)
(41.4252 -0.0508254 0)
(41.0608 -0.0476662 0)
(45.9714 -0.103988 0)
(47.1989 -0.143259 0)
(47.0604 -0.14169 6.68231e-19)
(45.7665 -0.100744 -8.06404e-19)
(40.704 -0.0454391 0)
(40.3682 -0.0430757 0)
(45.56 -0.0979215 0)
(46.9227 -0.141551 0)
(46.772 -0.140348 0)
(45.3512 -0.095628 0)
(40.0375 -0.0416241 0)
(39.7223 -0.0397244 0)
(45.1402 -0.0935573 0)
(46.6227 -0.140613 0)
(46.46 -0.139785 0)
(44.9261 -0.0919303 0)
(39.4089 -0.0387891 0)
(39.1077 -0.0372598 0)
(44.7102 -0.0905351 0)
(46.3 -0.140576 0)
(46.1263 -0.140164 0)
(44.4907 -0.0894764 0)
(38.8065 -0.0367225 0)
(38.5149 -0.0354671 0)
(44.2694 -0.0886092 0)
(45.9561 -0.141436 0)
(45.7714 -0.141417 0)
(44.0439 -0.0880158 0)
(38.2217 -0.0352463 0)
(37.9359 -0.0342017 0)
(43.8163 -0.0875841 0)
(45.5909 -0.143146 0)
(45.3953 -0.143486 0)
(43.584 -0.0873809 0)
(37.6472 -0.0342378 0)
(37.3645 -0.0333523 0)
(43.3495 -0.0873001 0)
(45.2044 -0.145621 0)
(44.9979 -0.146265 0)
(43.11 -0.0874121 0)
(37.078 -0.0335954 0)
(36.7964 -0.0328258 0)
(42.8682 -0.0876105 0)
(44.7967 -0.148747 0)
(44.5795 -0.14966 0)
(42.6211 -0.0879879 0)
(36.5104 -0.0332403 0)
(36.2283 -0.032562 0)
(42.3716 -0.0884239 0)
(44.368 -0.152468 0)
(44.1398 -0.153648 0)
(42.1164 -0.0890456 0)
(35.9411 -0.033128 0)
(35.6568 -0.0325352 0)
(41.8582 -0.089718 0)
(43.9174 -0.156813 0)
(43.6773 -0.158302 0)
(41.5936 -0.0905921 0)
(35.3662 -0.0332466 0)
(35.0773 -0.0327408 0)
(41.3251 -0.0915249 0)
(43.4426 -0.161889 0)
(43.189 -0.163751 0)
(41.0493 -0.0926733 0)
(34.781 -0.0336 0)
(34.4852 -0.0331818 0)
(40.7688 -0.0938921 0)
(42.9405 -0.167825 0)
(42.6722 -0.170103 0)
(40.4801 -0.0953235 0)
(34.1811 -0.0341903 0)
(33.8768 -0.0338545 0)
(40.1863 -0.0968329 0)
(42.4089 -0.174691 0)
(42.1252 -0.177375 0)
(39.8841 -0.0985282 0)
(33.5637 -0.035003 0)
(33.2501 -0.0347411 0)
(39.5765 -0.100309 0)
(41.8467 -0.182459 0)
(41.5474 -0.185518 0)
(39.2604 -0.102245 0)
(32.9274 -0.036017 0)
(32.6037 -0.0358295 0)
(38.9384 -0.104291 0)
(41.2534 -0.191095 0)
(40.9375 -0.194552 0)
(38.6071 -0.10648 0)
(32.2698 -0.0372313 0)
(31.9339 -0.0371357 0)
(38.2688 -0.108836 0)
(40.6261 -0.200703 0)
(40.2911 -0.204679 0)
(37.9196 -0.111347 0)
(31.586 -0.0386844 0)
(31.2342 -0.0387086 0)
(37.5614 -0.114108 0)
(39.959 -0.211576 0)
(39.6011 -0.216248 0)
(37.1904 -0.117035 0)
(30.8682 -0.0404394 0)
(30.4965 -0.0406041 0)
(36.8085 -0.120294 0)
(39.2446 -0.224068 0)
(38.8608 -0.229538 0)
(36.4124 -0.12368 0)
(30.1091 -0.042538 0)
(29.7151 -0.0428374 0)
(36.0044 -0.12745 0)
(38.4776 -0.238322 0)
(38.0664 -0.244506 0)
(35.5816 -0.131238 0)
(29.3047 -0.0449584 0)
(28.8878 -0.0453722 0)
(35.1468 -0.135465 0)
(37.656 -0.254169 0)
(37.2173 -0.26102 0)
(34.6971 -0.13963 0)
(28.4542 -0.0476664 0)
(28.0136 -0.0482193 0)
(34.2346 -0.144351 0)
(36.7791 -0.271626 0)
(36.311 -0.279287 0)
(33.7558 -0.148985 0)
(27.5547 -0.0507102 0)
(27.0865 -0.0514692 0)
(33.2616 -0.154366 0)
(35.8413 -0.291129 0)
(35.338 -0.29996 0)
(32.7477 -0.159682 0)
(26.5963 -0.054225 0)
(26.0927 -0.0552952 0)
(32.2141 -0.16603 0)
(34.8293 -0.313596 0)
(34.2826 -0.323847 0)
(31.6564 -0.172198 0)
(25.5626 -0.058379 0)
(25.0155 -0.0597404 0)
(31.075 -0.17965 0)
(33.7271 -0.339491 0)
(33.1295 -0.352414 0)
(30.4657 -0.187238 0)
(24.4376 -0.0633676 0)
(23.8391 -0.0652188 0)
(29.8286 -0.196309 0)
(32.5199 -0.37103 0)
(31.8646 -0.387128 0)
(29.1598 -0.205589 0)
(23.2058 -0.0695313 0)
(22.5485 -0.0720211 0)
(28.4595 -0.216672 0)
(31.1943 -0.409403 0)
(30.4739 -0.429629 0)
(27.7229 -0.228187 0)
(21.8513 -0.0772247 0)
(21.1246 -0.080661 0)
(26.9486 -0.242083 0)
(29.7337 -0.456953 0)
(28.9353 -0.483232 0)
(26.1291 -0.256929 0)
(20.3484 -0.0871312 0)
(19.5311 -0.092006 0)
(25.2602 -0.275131 0)
(28.1069 -0.518238 0)
(27.2051 -0.55427 0)
(24.3292 -0.295376 0)
(18.6473 -0.100588 0)
(17.6998 -0.10785 0)
(23.3282 -0.320742 0)
(26.2559 -0.601951 0)
(25.2082 -0.654514 0)
(22.2371 -0.350222 0)
(16.6591 -0.119997 0)
(15.5174 -0.131636 0)
(21.0423 -0.388057 0)
(24.0861 -0.724133 0)
(22.8268 -0.806099 0)
(19.7134 -0.434281 0)
(14.2392 -0.150366 0)
(12.7964 -0.17017 0)
(18.2226 -0.495333 0)
(21.4494 -0.915941 0)
(19.8704 -1.05597 0)
(16.5206 -0.575753 0)
(11.1402 -0.203133 0)
(9.18436 -0.245633 0)
(14.5426 -0.689599 0)
(18.0981 -1.25304 0)
(15.9899 -1.52025 0)
(12.1639 -0.82772 0)
(6.7275 -0.283605 0)
(4.30961 -0.613534 0)
(9.39012 -1.29423 0)
(13.6135 -2.06779 0)
(10.8878 -2.35128 0)
(5.50558 -1.48974 0)
(-2.42257 -0.440676 0)
(-4.90058 0.0656379 0)
(1.48857 -0.992048 0)
(7.89849 -2.1905 0)
(3.53999 -1.81171 0)
(-3.81381 -0.458044 0)
(-6.24381 -0.0475351 0)
(-7.29418 -0.0851706 0)
(-5.55839 -0.272498 0)
(-0.902299 -0.931508 0)
(-3.30633 -0.2098 0)
(-6.75445 -0.216282 0)
(-8.00092 0.0596443 0)
(-7.73349 0.211864 0)
(-6.84043 0.0514795 0)
(-4.1878 0.499815 0)
(-4.15324 0.829383 0)
(-6.08443 0.428056 0)
(-6.37503 0.28379 0)
(-4.09371 0.293967 0)
(-5.09497 0.569521 0)
(-4.7377 0.82025 0)
(-5.34466 0.125729 0)
(-4.5263 0.27431 0)
(-2.52663 0.106424 0)
(-1.95512 0.0224735 0)
(-4.42315 0.251212 0)
(-5.50498 0.0482199 0)
(-5.71598 -0.373279 0)
(-4.49317 -0.0765765 0)
(-1.603 -0.062433 0)
(-2.45757 -0.0713952 0)
(-5.13118 -0.206897 0)
(-6.30045 -0.289194 0)
(-6.89792 -0.542122 0)
(-5.82037 -0.299808 0)
(-3.22643 -0.1067 0)
(-4.14031 -0.0749829 0)
(-6.66275 -0.177803 0)
(-7.59022 -0.312335 0)
(-7.99218 -0.35165 0)
(-7.14632 -0.160436 0)
(-4.68801 -0.0786196 0)
(-5.08123 -0.029255 0)
(-7.5035 -0.00562374 0)
(-8.28475 -0.0708826 0)
(-8.1821 0.034581 0)
(-7.4048 0.0614345 0)
(-5.00408 -0.00105566 0)
(-4.71428 0.0532799 0)
(-7.14466 0.133118 0)
(-7.97125 0.206065 0)
(-7.73493 0.164752 0)
(-6.81315 0.114492 0)
(-4.20425 0.0594875 0)
(-3.80506 0.0554329 0)
(-6.60893 0.0858694 0)
(-7.6286 0.12857 0)
(-7.62742 0.0108958 0)
(-6.53429 0.00702666 0)
(-3.532 0.0235586 0)
(-3.58252 -0.00908028 0)
(-6.61899 -0.0537583 0)
(-7.73626 -0.0802559 0)
(-7.93708 -0.165575 0)
(-6.83348 -0.101705 0)
(-3.82961 -0.0290223 0)
(-4.19877 -0.0394849 0)
(-7.16604 -0.128195 0)
(-8.21416 -0.213575 0)
(-8.54659 -0.247325 0)
(-7.5656 -0.146378 0)
(-4.64715 -0.0473892 0)
(-5.13842 -0.051968 0)
(-8.00403 -0.152482 0)
(-8.89969 -0.256153 0)
(-9.26437 -0.26034 0)
(-8.45159 -0.154927 0)
(-5.64898 -0.0542122 0)
(-6.15815 -0.0539191 0)
(-8.89341 -0.148724 0)
(-9.61739 -0.247334 0)
(-9.95523 -0.23464 0)
(-9.31202 -0.141731 0)
(-6.65376 -0.0526762 0)
(-7.11926 -0.0499687 0)
(-9.69625 -0.128906 0)
(-10.2591 -0.209984 0)
(-10.5237 -0.186999 0)
(-10.032 -0.116096 0)
(-7.54466 -0.0465902 0)
(-7.91871 -0.0420977 0)
(-10.3149 -0.099226 0)
(-10.7386 -0.15571 0)
(-10.902 -0.126938 0)
(-10.5379 -0.0832219 0)
(-8.2397 -0.0376436 0)
(-8.5012 -0.0324632 0)
(-10.6999 -0.06432 0)
(-11.0084 -0.0920749 0)
(-11.0564 -0.0593866 0)
(-10.7973 -0.0459705 0)
(-8.70391 -0.0274822 0)
(-8.84297 -0.0214164 0)
(-10.828 -0.0247747 0)
(-11.0421 -0.0213065 0)
(-10.961 0.0187555 0)
(-10.7881 -0.00345489 0)
(-8.9175 -0.0156188 0)
(-8.92246 -0.00909815 0)
(-10.6725 0.0198552 0)
(-10.8131 0.0626627 0)
(-10.592 0.107559 0)
(-10.4776 0.0446043 0)
(-8.8543 -0.00189158 0)
(-8.70253 0.00676338 0)
(-10.2058 0.0703112 0)
(-10.3019 0.154405 0)
(-9.93459 0.20435 0)
(-9.85586 0.0980425 0)
(-8.46931 0.0156514 0)
(-8.14745 0.0251697 0)
(-9.42348 0.124155 0)
(-9.49276 0.25287 0)
(-8.96469 0.308466 5.14736e-19)
(-8.90577 0.154162 -6.17064e-19)
(-7.73995 0.0358921 0)
(-7.23456 0.0458269 0)
(-8.29492 0.178755 -2.05453e-19)
(-8.3532 0.357165 1.7105e-19)
(-7.64144 0.421279 1.34547e-18)
(-7.58871 0.211282 0)
(-6.63878 0.0595299 0)
(-5.92492 0.0685273 -9.74519e-19)
(-6.77207 0.231315 1.21145e-18)
(-6.83002 0.464069 5.57197e-23)
(-5.92562 0.533903 -3.85097e-18)
(-5.87444 0.26611 1.14461e-18)
(-5.15066 0.0835751 -1.81785e-18)
(-4.25004 0.0836082 1.96771e-18)
(-4.86905 0.277974 0)
(-4.93415 0.559019 5.25373e-18)
(-3.8952 0.655343 2.54382e-18)
(-3.8442 0.328913 -7.57046e-19)
(-3.37137 0.0999096 -1.47985e-23)
(-2.26695 0.116282 1.06581e-18)
(-2.64166 0.369335 0)
(-2.7248 0.73675 2.80717e-18)
(-1.51659 0.737145 1.78052e-19)
(-1.45184 0.365904 0)
(-1.2087 0.114056 0)
(-0.291589 0.088743 0)
(-0.476135 0.283612 1.81978e-18)
(-0.553031 0.646427 -1.7038e-18)
(-0.585781 1.26683 0)
(-0.57258 2.37602 0)
(-0.543327 3.43392 0)
(-0.49628 4.53317 0)
(-0.433789 5.50545 0)
(-0.372671 6.39354 1.85224e-18)
(-0.301551 7.12235 -1.95645e-18)
(-0.232611 7.70236 2.32538e-19)
(-0.160638 8.12279 -1.16497e-19)
(-0.0892027 8.38612 0)
(-0.0137266 8.48463 0)
(0.0694456 8.40734 0)
(0.162898 8.14883 0)
(0.267087 7.6991 0)
(0.379422 7.05001 1.93664e-18)
(0.509088 6.19597 -5.90925e-18)
(0.63263 5.14466 4.13353e-18)
(0.790478 3.90896 0)
(0.943136 2.51256 -2.24188e-18)
(1.36048 1.33204 7.05383e-17)
(1.11181 -0.599437 -1.64374e-16)
(0.203449 -0.926587 9.42721e-18)
(0.0908144 -1.4402 0)
(-0.438472 -1.29687 2.63681e-17)
(-0.562072 -0.749337 0)
(-0.678663 -0.3799 0)
(-0.598415 -0.128297 1.78282e-17)
(-0.751921 -0.0272914 7.12286e-17)
(-1.08407 -0.107655 -2.4434e-16)
(-1.12169 -0.338661 6.90795e-22)
(-1.47398 -0.254103 -4.02233e-17)
(-1.56959 -0.076979 9.10058e-17)
(-1.01273 -0.0262929 -3.25476e-17)
(-1.28967 0.0152343 -1.13269e-17)
(-2.13051 -0.019692 3.32478e-17)
(-2.04494 -0.144525 -4.73779e-17)
(-2.16159 -0.0316981 -2.80648e-17)
(-2.1904 0.0347262 -1.50411e-22)
(-1.14335 0.00807112 0)
(-1.1734 0.00565466 -1.21475e-18)
(-2.33578 -0.00402245 0)
(-2.38617 -0.0371225 -8.29403e-18)
(-2.33649 0.0972822 1.69408e-18)
(-2.19225 0.0526719 2.55653e-19)
(-0.983294 0.0113519 1.23718e-18)
(-0.92638 0.00116189 0)
(-2.11401 -0.0365427 7.88402e-18)
(-2.24457 -0.0141439 -1.35639e-17)
(-2.10877 0.00719101 0)
(-2.09398 -0.0373734 2.06687e-18)
(-1.00337 -0.0282542 -2.46396e-18)
(-1.46578 -0.0370731 3.08151e-19)
(-2.18736 -0.140097 0)
(-1.5671 -0.219245 0)
(-1.69488 -0.133474 0)
(-2.63724 -0.0203478 0)
(-1.95602 -0.0294403 -3.10811e-19)
(-1.97512 -0.0281442 0)
(-2.74356 0.0364369 0)
(-1.3991 -0.0699271 -3.44956e-18)
(-1.1056 0.198172 3.43644e-18)
(-2.60721 0.0871265 0)
(-1.80102 0.017386 0)
(-1.4186 0.0534366 0)
(-2.04949 0.0213356 0)
(0.540651 0.349489 -3.43561e-18)
(2.09727 0.570692 3.43011e-18)
(-1.32022 0.115073 0)
(-1.17189 -0.0233017 0)
(-0.953208 -0.0930698 0)
(0.849499 0.165785 0)
(3.86228 0.585248 -3.42138e-18)
(5.23636 0.488622 3.41563e-18)
(2.24458 0.167755 0)
(-0.819938 -0.0320539 0)
(-0.31061 -0.0206797 0)
(3.54819 0.221484 0)
(6.46268 0.5184 -3.41292e-18)
(7.48515 0.446485 3.40613e-18)
(4.72306 0.217409 0)
(0.462738 0.051505 0)
(1.19804 0.00487696 0)
(5.83132 0.216041 0)
(8.41548 0.453474 -3.40453e-18)
(9.18312 0.374005 3.39929e-18)
(6.73992 0.200015 0)
(1.90213 0.0622866 0)
(2.63582 0.0184364 0)
(7.64658 0.195063 0)
(9.90201 0.381165 -3.39825e-18)
(10.4997 0.328711 3.39487e-18)
(8.36369 0.174837 0)
(3.28824 0.0264648 0)
(3.94225 0.0584666 0)
(9.06936 0.173933 0)
(11.067 0.299166 3.39052e-18)
(11.5317 0.264267 3.38784e-18)
(9.66565 0.158639 0)
(4.53938 0.0570739 0)
(5.16155 0.0531336 0)
(10.28 0.164038 0)
(11.9925 0.267692 -3.38616e-18)
(12.3779 0.245779 3.38397e-18)
(10.7742 0.143951 0)
(5.7292 0.0298774 0)
(6.32528 0.0600041 0)
(11.2819 0.153078 0)
(12.7557 0.235531 -3.38028e-18)
(13.0706 0.212155 3.37786e-18)
(11.7162 0.144538 0)
(6.88835 0.0619992 0)
(7.5056 0.0428993 0)
(12.1825 0.150696 0)
(13.3889 0.238718 -3.37533e-18)
(13.6623 0.208551 3.37562e-18)
(12.5662 0.15065 0)
(8.10056 0.0728452 0)
(8.78932 0.0562335 0)
(13.0226 0.16008 0)
(13.9458 0.245656 0)
(14.2308 0.279637 0)
(13.4397 0.190469 0)
(9.53837 0.0961963 0)
(10.3197 0.247639 0)
(13.8762 0.349101 1.65149e-17)
(14.4755 0.430118 -1.36571e-17)
(14.5918 0.644299 0)
(14.1195 0.601827 -3.29309e-17)
(10.8858 0.48555 1.68413e-22)
(11.2764 0.746445 0)
(14.1716 0.892071 -2.54514e-19)
(14.5332 0.898985 -8.39972e-19)
(14.3697 1.07695 8.26293e-19)
(14.0783 1.09913 2.49292e-19)
(11.4853 0.949524 0)
(11.6571 1.14212 0)
(13.8812 1.28038 6.30641e-17)
(14.0939 1.23113 -1.05845e-16)
(13.731 1.34787 -4.94036e-17)
(13.5711 1.43891 0)
(11.6632 1.32322 0)
(11.565 1.45088 7.39667e-17)
(13.1515 1.52611 -6.14897e-17)
(13.2524 1.4073 0)
(12.6911 1.4304 -4.22806e-17)
(12.6342 1.58142 1.1834e-16)
(11.3054 1.56006 4.44161e-18)
(10.9292 1.62002 -6.54616e-17)
(11.9873 1.56082 0)
(11.9861 1.37894 -5.11521e-17)
(11.1712 1.34084 0)
(11.2369 1.58504 0)
(10.4305 1.74545 1.18373e-16)
(9.7581 1.73803 1.76399e-16)
(10.2857 1.51039 0)
(10.1996 1.17472 8.24382e-18)
(9.6263 1.52126 -2.93532e-17)
(9.50194 1.57275 0)
(8.27802 1.4272 0)
(8.04167 1.61533 1.81775e-16)
(8.65888 1.57101 2.85877e-19)
(8.72116 1.24495 3.71996e-18)
(7.56992 0.881743 0)
(7.56037 1.30686 1.2674e-16)
(7.12294 1.48819 1.86468e-21)
(5.90683 1.27259 0)
(6.1408 0.912636 0)
(6.14644 0.36436 1.14091e-17)
(4.48445 -0.360625 1.55387e-16)
(4.56063 0.382967 0)
(4.49067 1.00032 1.30294e-16)
(2.5324 0.575881 -1.86234e-16)
(2.26633 -0.163772 0)
(2.19992 -0.987285 -4.27248e-17)
(1.05263 -1.03075 1.1836e-17)
(1.05256 -0.441906 -3.23248e-18)
(1.17941 0.0864443 2.36586e-16)
(-1.8387 -1.21284 -1.45451e-18)
(-1.92985 -2.21165 1.46721e-16)
(-1.55599 -3.15469 -1.14441e-16)
(-4.89197 -5.75633 -3.30857e-16)
(-5.51033 -4.39319 3.34676e-16)
(-5.84986 -3.41308 -3.07018e-16)
(-8.66744 -4.56841 2.12766e-16)
(-8.84556 -5.7054 0)
(-8.69588 -7.26266 9.43081e-18)
(-11.6402 -11.8146 -1.75493e-16)
(-13.1233 -9.8271 1.06967e-16)
(-13.9223 -7.97598 1.58228e-17)
(-19.7893 -14.9949 1.61818e-16)
(-17.8318 -16.759 3.07218e-17)
(-14.9075 -18.5248 1.45014e-16)
(-20.4392 -25.8608 2.47156e-16)
(-22.3742 -24.2937 -3.37892e-17)
(-24.0822 -22.431 1.87225e-16)
(-27.1714 -33.1922 3.27228e-16)
(-24.4977 -34.4565 -2.70731e-16)
(-23.9179 -34.4932 2.33552e-16)
(-16.2337 -49.5015 1.32671e-16)
(-19.9179 -51.3023 0)
(-27.1882 -53.6396 2.63192e-16)
(-13.5915 -72.2623 0)
(-1.7745 -67.8622 0)
(-3.10609 -64.8869 2.48813e-17)
(14.2638 -70.6359 -9.6337e-17)
(21.4551 -72.7801 1.32231e-16)
(9.60341 -76.9483 0)
(23.8856 -65.5136 2.42798e-16)
(35.0352 -61.8423 -3.80473e-16)
(28.4065 -62.6063 -1.037e-17)
(37.4354 -57.6169 1.24487e-17)
(41.2122 -53.796 -2.34285e-16)
(32.3431 -49.7936 2.86831e-16)
(35.8701 -42.4414 5.09801e-16)
(42.7748 -47.7365 -2.43039e-16)
(41.1041 -51.8014 1.7657e-16)
(42.4326 -43.55 -3.41798e-16)
(42.297 -40.3936 2.37422e-16)
(35.687 -37.3392 -1.67447e-16)
(33.5279 -31.6011 0)
(40.3147 -34.0295 2.20612e-16)
(41.5961 -36.9329 -1.90785e-16)
(41.5236 -36.6639 0)
(40.185 -33.0545 0)
(34.0005 -28.3274 0)
(31.7107 -25.2116 -4.54444e-16)
(37.5326 -29.0705 1.8627e-16)
(39.8165 -31.6514 0)
(40.5725 -32.3529 3.58321e-17)
(38.5909 -29.3807 -3.49833e-16)
(33.0646 -24.7236 2.11718e-16)
(31.16 -22.7553 1.27421e-17)
(36.3638 -26.5798 1.64725e-16)
(38.8826 -28.7081 -1.66091e-17)
(39.4591 -29.9334 -4.56172e-17)
(37.351 -27.2937 0)
(32.2021 -22.7952 -1.16874e-17)
(31.0155 -21.7563 -3.24655e-16)
(35.8134 -25.4845 2.30932e-16)
(38.229 -27.6728 1.97739e-16)
(36.1729 -25.4561 9.27389e-17)
(33.7861 -23.3825 -1.98841e-16)
(29.263 -19.9279 2.56147e-16)
(29.9938 -21.2587 -4.57536e-16)
(34.8501 -24.9133 3.47459e-16)
(36.987 -26.7501 1.57454e-16)
(35.4557 -24.7803 0)
(33.0458 -23.2381 -1.3806e-16)
(28.6271 -20.0208 2.08752e-16)
(29.9515 -20.907 0)
(34.2136 -24.5267 -9.39572e-18)
(36.0989 -26.3617 0)
(35.181 -25.251 -1.1032e-17)
(33.1992 -23.6028 2.32053e-16)
(29.169 -20.4212 -3.24452e-16)
(27.4982 -19.5222 0)
(31.4524 -22.3768 2.65942e-17)
(33.6346 -23.6448 2.32608e-17)
(34.5671 -25.0716 1.99761e-16)
(32.5331 -23.8647 -3.89458e-16)
(28.3135 -20.8081 4.28599e-16)
(27.3502 -19.8666 2.68397e-17)
(31.1307 -22.7112 -1.7537e-16)
(33.2567 -23.9216 1.08293e-16)
(34.0748 -25.432 0)
(32.4065 -24.0326 4.13327e-17)
(28.6339 -20.8554 -3.80867e-16)
(27.6103 -20.3255 -3.98541e-16)
(31.1538 -23.2046 1.18038e-16)
(33.0196 -24.3945 1.0932e-20)
(33.8342 -25.7908 2.06621e-16)
(32.2763 -24.4739 3.27791e-16)
(28.8114 -21.4477 -3.71328e-16)
(28.3416 -21.2688 0)
(31.5616 -24.0258 -2.65551e-16)
(33.2125 -25.3382 1.09004e-17)
(32.0209 -24.3725 -8.17445e-17)
(30.2072 -23.0796 2.2665e-16)
(27.1828 -20.4883 -2.46705e-16)
(28.2871 -21.1108 0)
(31.4703 -24.2733 1.19484e-17)
(32.5929 -25.8703 1.01033e-17)
(31.7546 -25.2069 -1.46643e-16)
(30.2612 -23.9201 -1.11729e-17)
(27.0255 -20.8153 -4.4574e-16)
(28.1405 -22.3172 4.04971e-16)
(31.4027 -25.2461 1.07147e-17)
(32.7001 -26.3212 0)
(31.891 -25.6299 -1.36772e-16)
(30.4037 -24.5304 -2.0813e-17)
(27.3586 -21.791 4.47791e-16)
(28.2493 -23.0272 -1.27057e-17)
(31.2993 -25.82 0)
(32.5628 -26.7882 3.39268e-17)
(31.841 -26.1509 -4.94183e-17)
(30.4312 -25.1379 3.20711e-16)
(27.5936 -22.5852 -3.92036e-16)
(28.3794 -23.6626 0)
(31.2797 -26.3816 3.97763e-17)
(32.5343 -27.3472 -1.14131e-16)
(31.8334 -26.9111 -1.09662e-16)
(30.4312 -25.9501 1.1387e-16)
(27.7343 -23.4129 0)
(28.7373 -24.4644 -2.21433e-17)
(31.4661 -27.0798 0)
(32.6469 -28.0448 -1.29694e-16)
(32.2623 -28.071 0)
(30.9776 -26.9912 0)
(28.3895 -24.4405 -3.02508e-16)
(27.4469 -23.9044 -4.7347e-16)
(30.0964 -26.4322 0)
(31.4653 -27.3901 0)
(32.5237 -28.4644 0)
(31.0053 -27.9011 0)
(27.8731 -25.3485 0)
(27.427 -24.7673 6.86011e-18)
(30.1732 -27.2932 -1.79109e-16)
(31.7188 -28.1743 1.47319e-16)
(32.5082 -29.4097 -1.41123e-16)
(31.3236 -28.6672 -3.65509e-16)
(28.4862 -25.9731 4.17573e-16)
(27.9461 -25.6784 -4.15685e-16)
(30.6419 -28.1228 3.60177e-16)
(31.9794 -28.9665 -1.39022e-16)
(32.6983 -30.1611 4.4503e-16)
(31.575 -29.3166 -3.37094e-16)
(28.8189 -26.6234 4.12763e-16)
(28.2198 -26.3973 -4.19041e-16)
(30.8008 -28.9624 1.6671e-16)
(32.0911 -29.8994 -3.06906e-16)
(32.9292 -30.9874 1.36535e-16)
(31.8868 -30.2375 -3.32969e-16)
(29.2505 -27.6123 1.28292e-17)
(28.7457 -27.1884 0)
(31.2606 -29.644 0)
(32.4328 -30.5698 0)
(33.0408 -31.7249 3.04128e-16)
(31.9727 -30.9917 -2.88003e-16)
(29.3999 -28.341 0)
(29.0248 -28.2225 1.26701e-17)
(31.4118 -30.6985 -5.1291e-17)
(32.5684 -31.575 -3.37229e-17)
(33.4447 -32.5571 -1.34258e-16)
(32.5021 -31.8232 1.0274e-17)
(30.0005 -29.2622 -1.26578e-17)
(29.4294 -28.8688 -8.02642e-16)
(31.8185 -31.3321 3.38782e-16)
(32.9361 -32.2403 1.3396e-16)
(33.5609 -33.3425 3.33985e-17)
(32.5569 -32.6773 -1.02555e-17)
(30.1261 -30.096 2.49486e-17)
(29.8094 -29.9609 -3.77493e-17)
(32.0683 -32.3608 -1.6425e-16)
(33.1531 -33.2233 2.35598e-16)
(33.9869 -34.187 0)
(33.076 -33.5047 0)
(30.6738 -30.9802 1.26037e-17)
(30.1787 -30.6101 0)
(32.48 -33.0427 0)
(33.5393 -33.931 0)
(34.177 -34.9875 3.34673e-17)
(33.2211 -34.3527 0)
(30.8583 -31.792 -2.49946e-17)
(30.5494 -31.6439 2.54102e-17)
(32.7579 -34.0462 3.30116e-16)
(33.7967 -34.8959 -3.21862e-16)
(34.6185 -35.8377 3.19814e-16)
(33.7468 -35.1866 -1.43079e-16)
(31.3928 -32.6549 0)
(30.9132 -32.2888 -1.28166e-17)
(33.1691 -34.7317 -2.07727e-17)
(34.1908 -35.6098 -3.38966e-17)
(34.8273 -36.6569 1.00852e-16)
(33.9025 -36.0576 3.30403e-16)
(31.5759 -33.4833 -4.18345e-16)
(31.2899 -33.3412 2.58603e-17)
(33.4686 -35.7691 -1.04896e-17)
(34.4777 -36.6173 -3.76544e-16)
(35.3204 -37.5422 -1.71083e-16)
(34.5046 -36.925 1.03696e-17)
(32.1973 -34.3824 -4.11263e-16)
(31.7329 -33.9571 0)
(34.002 -36.4332 3.36729e-16)
(34.9439 -37.289 -2.58489e-16)
(35.6557 -38.2584 -8.64695e-17)
(34.6124 -37.7818 -3.58736e-16)
(32.1649 -35.2273 -2.0475e-19)
(31.9584 -34.9654 4.23528e-16)
(34.1795 -37.4427 -3.23729e-16)
(35.2094 -38.2476 1.0601e-16)
(36.1713 -39.1196 1.4647e-16)
(35.1601 -38.7686 2.01462e-16)
(32.5051 -36.1456 -4.65668e-16)
(32.0122 -35.8909 4.84368e-16)
(34.5709 -38.238 -5.79217e-16)
(35.8438 -38.7316 1.59055e-16)
(36.5811 -39.4752 2.26484e-17)
(34.9933 -39.0917 -2.18994e-16)
(32.0928 -36.5776 2.4223e-16)
(33.6401 -37.4524 -2.91143e-16)
(36.0926 -40.1502 2.30864e-16)
(36.9701 -40.7773 -1.61886e-16)
(36.6463 -40.6839 7.11011e-17)
(35.6755 -39.8809 0)
(33.4724 -37.4258 -3.71257e-16)
(34.2945 -38.3647 3.44711e-16)
(36.5505 -40.9004 -1.49592e-16)
(37.3908 -41.5277 1.07242e-16)
(37.0132 -41.3461 2.86263e-16)
(36.0493 -40.4748 -9.74927e-18)
(33.9309 -38.0804 2.39593e-17)
(34.5703 -39.1843 3.80466e-16)
(36.7694 -41.7322 -2.92451e-17)
(37.6513 -42.3231 0)
(37.3087 -42.3841 1.63534e-17)
(36.3395 -41.5383 4.01864e-17)
(34.3028 -39.1198 -3.96143e-16)
(35.2256 -40.3085 -3.93409e-16)
(37.3931 -42.7949 0)
(38.2133 -43.3276 -1.62582e-17)
(37.9667 -43.2116 -1.66388e-17)
(37.0755 -42.3817 -1.02121e-17)
(34.9921 -40.0251 0)
(35.6578 -40.874 0)
(37.9002 -43.4549 -1.51619e-16)
(38.6804 -44.0691 1.65818e-17)
(38.2661 -44.0567 2.71184e-16)
(37.3003 -43.1719 -3.30987e-16)
(35.1945 -40.6431 0)
(36.0339 -41.8575 -2.58265e-17)
(38.2296 -44.5199 0)
(39.0344 -45.0769 0)
(38.8112 -45.0622 -8.72603e-18)
(37.8897 -44.1618 3.41984e-16)
(35.8079 -41.6825 -4.0011e-16)
(36.8913 -42.4229 8.79746e-16)
(38.9933 -45.2227 -3.54153e-16)
(39.518 -46.0192 9.08396e-18)
(39.228 -45.8266 -1.58295e-16)
(38.5407 -44.6674 1.88267e-16)
(36.406 -41.8867 4.57863e-16)
(36.8229 -42.4429 -2.4432e-16)
(39.1863 -45.5814 2.20513e-16)
(39.7193 -46.466 -9.00855e-17)
(40.716 -47.466 -1.49836e-16)
(39.9407 -47.0581 2.24445e-16)
(37.4389 -44.0997 -3.12636e-16)
(37.3845 -44.0536 0)
(39.5594 -46.6425 0)
(40.4438 -47.4811 8.5583e-17)
(41.29 -48.3045 -3.04176e-17)
(40.4591 -47.7718 0)
(38.2075 -45.1842 0)
(38.0157 -44.9157 0)
(40.085 -47.3636 0)
(40.9802 -48.2529 3.15948e-17)
(41.7633 -49.1807 9.49214e-17)
(40.9287 -48.6306 -1.16201e-16)
(38.7392 -46.0557 0)
(38.503 -45.9227 -1.23989e-17)
(40.529 -48.3859 2.7917e-16)
(41.4488 -49.2592 -2.26899e-16)
(42.3227 -50.2141 1.30471e-16)
(41.5663 -49.7102 0)
(39.4392 -47.1659 -3.86322e-16)
(39.2236 -46.9459 0)
(41.2745 -49.3295 -3.30289e-16)
(42.139 -50.1642 2.86308e-16)
(42.8786 -51.0537 1.57752e-16)
(42.1727 -50.4796 2.13999e-17)
(39.9756 -47.8342 0)
(39.5813 -47.5201 -4.42514e-16)
(41.7401 -50.0949 -2.28677e-17)
(42.5868 -50.9673 1.14228e-16)
(43.375 -51.5877 -1.74231e-16)
(42.4221 -51.0486 2.27981e-16)
(39.9066 -48.3173 0)
(41.0138 -49.4523 0)
(43.4174 -52.2283 2.13732e-16)
(44.1089 -52.6512 -3.373e-16)
(43.9135 -52.6273 1.39206e-17)
(43.06 -51.8562 0)
(40.8777 -49.3764 0)
(41.7536 -50.3189 3.42388e-16)
(43.9515 -52.8768 1.47693e-16)
(44.6657 -53.3895 -1.35311e-16)
(44.4226 -53.3309 0)
(43.5604 -52.4998 -3.19476e-16)
(41.4597 -50.0675 8.0446e-16)
(42.2182 -51.0868 -1.20213e-17)
(44.3937 -53.6801 4.74425e-16)
(45.1439 -54.1923 -1.35549e-20)
(44.8862 -54.2935 0)
(44.0057 -53.4588 0)
(41.935 -50.9522 1.24942e-17)
(42.9266 -52.0594 3.62503e-16)
(45.1161 -54.6921 2.01825e-17)
(45.802 -55.1894 3.29001e-17)
(45.6087 -55.1787 -1.6117e-16)
(44.7417 -54.3367 -1.04519e-17)
(42.6064 -51.8189 2.58546e-17)
(43.4722 -52.7859 4.30161e-16)
(45.7216 -55.5749 -1.0818e-17)
(46.3709 -56.101 -8.82979e-18)
(46.2078 -56.027 0)
(45.423 -55.129 0)
(43.1756 -52.4553 7.06302e-18)
(43.6999 -53.0723 2.3333e-16)
(46.2275 -56.0204 2.04605e-16)
(46.9745 -56.6579 0)
(47.8691 -57.6962 -1.68911e-16)
(47.1516 -57.3521 0)
(44.6238 -54.4129 0)
(44.5778 -54.2637 0)
(46.8579 -56.9244 -2.86855e-16)
(47.6887 -57.7467 4.61592e-16)
(48.5787 -58.577 -1.50037e-17)
(47.7745 -58.1281 -2.8572e-16)
(45.4409 -55.4409 3.42477e-16)
(45.3122 -55.2134 -3.5624e-16)
(47.5052 -57.775 3.06676e-16)
(48.3761 -58.6497 1.39992e-16)
(49.3108 -59.5509 1.10524e-16)
(48.5509 -59.0671 0)
(46.2507 -56.384 2.3997e-17)
(46.0083 -56.1601 -4.2263e-16)
(48.2111 -58.7511 0)
(49.098 -59.6216 0)
(50.0184 -60.5391 1.01972e-16)
(49.2716 -60.0918 1.66394e-16)
(46.9514 -57.3671 -2.32333e-16)
(46.7042 -57.0761 2.69566e-17)
(49.0098 -59.6609 1.7685e-16)
(49.8777 -60.4659 -1.01518e-16)
(50.7141 -61.096 5.24582e-17)
(49.7428 -60.596 -2.43725e-17)
(47.1366 -57.8501 -2.31577e-16)
(48.3227 -58.9335 -2.9906e-16)
(50.8458 -61.7698 1.38693e-17)
(51.5218 -62.1552 3.07657e-17)
(51.3482 -62.2515 -2.69639e-17)
(50.4809 -61.4646 8.42031e-18)
(48.1696 -58.8656 1.05637e-17)
(49.2071 -59.9625 1.11455e-17)
(51.5369 -62.6193 -4.49314e-17)
(52.2396 -63.0279 1.17311e-16)
(52.1245 -63.0454 0)
(51.282 -62.2401 3.76926e-17)
(49.0147 -59.7137 -2.35526e-17)
(49.9981 -60.8321 -3.76805e-16)
(52.3109 -63.4663 0)
(53.0191 -63.8853 0)
(52.8977 -63.9359 -1.4251e-16)
(52.0525 -63.0967 -9.75157e-18)
(49.781 -60.5527 0)
(50.7477 -61.678 2.44952e-17)
(53.0826 -64.3816 -9.75142e-18)
(53.7896 -64.8161 1.59971e-17)
(53.6523 -64.924 1.31014e-16)
(52.7847 -64.0819 3.03327e-17)
(50.4739 -61.4385 -2.5269e-17)
(51.5496 -62.747 2.60902e-17)
(53.9566 -65.5035 -1.05042e-17)
(54.6877 -65.8605 -1.36589e-16)
(54.6618 -65.7798 1.47614e-16)
(53.8323 -64.9723 -1.78273e-16)
(51.3916 -62.3659 -2.72421e-17)
(51.8732 -63.0358 2.33213e-16)
(54.6037 -65.893 1.96694e-16)
(55.5183 -66.396 -6.33468e-17)
(56.4626 -67.4855 1.02504e-17)
(55.7824 -67.1351 0)
(53.1117 -64.1897 -2.98928e-16)
(52.9597 -64.1402 0)
(55.4075 -66.8593 0)
(56.3072 -67.664 -1.33446e-16)
(57.33 -68.4977 2.30022e-16)
(56.589 -68.1143 -1.06561e-16)
(54.1409 -65.3791 0)
(54.0065 -65.2352 0)
(56.3814 -67.8424 -3.34478e-16)
(57.2684 -68.6532 2.39468e-16)
(58.4122 -69.4679 3.00678e-17)
(57.7324 -69.0816 -1.86145e-17)
(55.2883 -66.4076 -2.31569e-17)
(55.0731 -66.049 2.40138e-17)
(57.5149 -68.6368 2.87019e-17)
(58.3694 -69.4735 -3.08604e-17)
(59.3027 -70.3064 9.32125e-17)
(58.5814 -69.8646 -1.43631e-16)
(56.0622 -67.0722 -3.85426e-16)
(55.7636 -66.8214 0)
(58.2367 -69.5757 -9.91531e-18)
(59.146 -70.4613 1.59444e-16)
(60.2619 -71.4122 -1.33462e-16)
(59.5503 -70.9942 4.6411e-16)
(56.9646 -68.0766 -4.09017e-16)
(56.6707 -67.816 4.26994e-16)
(59.2598 -70.6188 -3.26764e-16)
(60.172 -71.4869 0)
(61.1877 -72.1707 0)
(60.3441 -71.6539 0)
(57.4958 -68.6758 0)
(58.9052 -70.0158 3.17134e-16)
(61.81 -72.977 -1.91158e-16)
(62.4554 -73.2039 2.02926e-17)
(62.4257 -73.2652 7.89228e-17)
(61.5797 -72.4595 -2.86699e-16)
(58.8779 -69.7465 -2.09931e-17)
(59.92 -70.7603 -2.20492e-17)
(62.6543 -73.5917 -8.7828e-18)
(63.4389 -73.9981 0)
(63.2633 -74.2534 2.50998e-16)
(62.3139 -73.3294 -2.93393e-16)
(59.7139 -70.5212 1.15337e-17)
(61.0389 -72.0137 1.15593e-17)
(63.7213 -74.8686 0)
(64.5506 -75.2122 -4.47187e-17)
(64.5591 -75.6422 -2.14039e-16)
(63.6226 -74.7796 3.03149e-16)
(61.0283 -71.9823 1.19503e-17)
(62.7671 -73.2556 -4.1982e-16)
(65.5122 -76.0223 0)
(66.1958 -76.3569 0)
(66.2013 -76.2603 1.56579e-17)
(65.3232 -75.3662 -3.11356e-16)
(62.5276 -72.6232 4.16224e-16)
(63.4614 -73.7162 0)
(66.3921 -76.7284 1.40804e-16)
(67.2558 -77.1354 -1.46481e-16)
(67.0699 -77.3776 -1.31551e-16)
(66.0995 -76.3763 -1.37899e-16)
(63.2639 -73.4017 4.19e-16)
(64.2785 -74.5343 0)
(67.4064 -77.6749 1.1625e-17)
(68.3371 -78.1904 -1.09223e-16)
(69.9248 -79.4773 2.93642e-17)
(69.1511 -79.4238 1.99129e-16)
(66.0871 -76.4964 1.79281e-17)
(66.4689 -76.3932 -1.99994e-17)
(69.3131 -78.955 2.51919e-16)
(70.1529 -79.7185 -2.13468e-16)
(71.5474 -80.3993 -4.05538e-17)