/*--------------------------------*- C++ -*----------------------------------*\
| =========                 |                                                 |
| \\      /  F ield         | OpenFOAM: The Open Source CFD Toolbox           |
|  \\    /   O peration     | Version:  v2006                                 |
|   \\  /    A nd           | Website:  www.openfoam.com                      |
|    \\/     M anipulation  |                                                 |
\*---------------------------------------------------------------------------*/
FoamFile
{
    version     2.0;
    format      ascii;
    class       volScalarField;
    location    "0.047";
    object      k;
}
// * * * * * * * * * * * * * * * * * * * * * * * * * * * * * * * * * * * * * //

dimensions      [0 2 -2 0 0 0 0];


internalField   nonuniform List<scalar> 
16277
(
78.7491
78.7499
78.7571
78.7591
78.7649
78.7579
78.7431
78.6966
78.5889
78.4154
78.191
77.9402
77.6795
77.4162
77.1505
76.8803
76.6026
76.3153
76.0168
75.7067
75.3849
75.0515
74.7069
74.3513
73.9849
73.608
73.2207
72.8234
72.4163
71.9997
71.574
71.1396
70.6969
70.2463
69.7883
69.3234
68.852
68.3747
67.8919
67.4043
66.9123
66.4165
65.9174
65.4157
64.9118
64.4064
63.9
63.3932
62.8866
62.3808
61.8763
61.3737
60.8737
60.3767
59.8834
59.3943
58.91
58.431
57.9579
57.4912
57.0315
56.5793
56.1351
55.6994
55.2727
54.8554
54.448
54.051
53.6647
53.2895
52.9258
52.5739
52.2344
51.9076
51.5939
51.2934
51.0056
50.7288
50.4605
50.1982
49.9416
49.6984
49.4899
49.3462
49.2815
49.2726
49.2871
49.3059
49.3174
49.316
49.3057
49.2399
49.0891
48.8367
48.3194
47.466
43.1333
38.6788
45.3953
47.7143
46.0149
41.1634
34.5251
31.6345
38.8992
44.7164
42.2907
35.3626
28.9177
27.2043
33.941
41.2583
39.0164
31.2927
25.4432
24.3779
30.4085
38.2117
36.3895
28.5335
23.1876
22.4904
28.0219
35.8065
34.3525
26.7512
21.6576
21.1734
26.4164
33.9022
32.7058
25.4693
20.5471
20.1901
25.237
32.3565
31.3416
24.4879
19.6919
19.4161
24.3193
31.0619
30.1779
23.6986
19.002
18.779
23.5715
29.9482
29.1625
23.0378
18.4211
18.2333
22.9384
28.9696
28.2596
22.4651
17.9153
17.7526
22.3838
28.0942
27.4437
21.9536
17.4635
17.3184
21.885
27.2994
26.6973
21.4871
17.0507
16.9184
21.4276
26.5696
26.0083
21.0553
16.6672
16.5444
21.003
25.8941
25.3669
20.6516
16.3062
16.1907
20.6048
25.2636
24.7658
20.2708
15.9631
15.8532
20.2283
24.6718
24.2003
19.9092
15.6341
15.5286
19.8703
24.1148
23.6674
19.5642
15.3167
15.2146
19.5287
23.5898
23.1647
19.2345
15.0088
14.9095
19.2019
23.0942
22.6893
18.9185
14.709
14.612
18.8884
22.6249
22.2382
18.6145
14.416
14.3208
18.5865
22.1791
21.8085
18.3207
14.1285
14.0347
18.2943
21.7538
21.3976
18.0356
13.8455
13.7527
18.0104
21.3467
21.0032
17.7575
13.5659
13.4738
17.7331
20.9554
20.6232
17.485
13.2889
13.197
17.461
20.578
20.2557
17.2168
13.0134
12.9215
17.1929
20.2127
19.8993
16.9517
12.7388
12.6465
16.9275
19.8579
19.5523
16.6886
12.4642
12.3714
16.664
19.5123
19.2135
16.4267
12.1891
12.0954
16.4014
19.1744
18.8816
16.1651
11.9129
11.8182
16.139
18.8433
18.5558
15.9033
11.6351
11.5393
15.8762
18.518
18.2352
15.6407
11.3554
11.2585
15.6126
18.1977
17.9191
15.3769
11.0737
10.9756
15.3478
17.8819
17.6069
15.1118
10.7898
10.6907
15.0819
17.5698
17.2981
14.8456
10.5041
10.4043
14.8148
17.2611
16.9925
14.578
10.217
10.1166
14.5464
16.9554
16.6895
14.309
9.92886
9.82848
14.2767
16.6523
16.3891
14.0389
9.64069
9.54078
14.0062
16.3518
16.0912
13.7685
9.3536
9.25489
13.7356
16.054
15.7959
13.4985
9.06912
8.97254
13.466
15.7591
15.504
13.2302
8.78923
8.69594
13.1987
15.4679
15.2164
12.9655
8.5164
8.42782
12.9356
15.1814
14.934
12.7062
8.25362
8.17142
12.6788
14.9004
14.6581
12.4548
8.00436
7.93056
12.4309
14.6267
14.3908
12.2142
7.77272
7.70976
12.195
14.3624
14.1343
11.9884
7.56323
7.51436
11.9739
14.11
13.8922
11.7807
7.38242
7.34895
11.7675
13.8723
13.6652
11.5844
7.23785
7.21929
11.5739
13.6504
13.4554
11.4043
7.13163
7.129
11.3978
13.4462
13.2645
11.2446
7.07157
7.08152
11.2426
13.2612
13.0951
11.1086
7.05455
7.07916
11.1105
13.0969
12.9464
10.9929
7.07177
7.1228
10.9984
12.9529
12.8186
10.8937
7.13084
7.20928
10.9028
12.8305
12.7133
10.8128
7.23325
7.33525
10.8256
12.7298
12.6281
10.7515
7.37124
7.49004
10.7687
12.6487
12.5618
10.7109
7.53508
7.66603
10.7336
12.5868
12.5149
10.6933
7.71807
7.85847
10.7226
12.5445
12.488
10.6981
7.91545
8.0621
10.7374
12.5223
12.4803
10.7199
8.12139
8.27019
10.7745
12.5227
12.4899
10.7633
8.32988
8.47749
10.8315
12.5402
12.5119
10.8254
8.53572
8.67887
10.9054
12.5734
12.5491
10.904
8.73393
8.86968
10.9934
12.6197
12.5986
10.9955
8.9203
9.04633
11.0924
12.6763
12.6569
11.0948
9.09165
9.20581
11.1933
12.738
12.7193
11.1956
9.24467
9.34526
11.2944
12.8009
12.7821
11.2961
9.37708
9.46343
11.3938
12.8617
12.8419
11.3942
9.48805
9.5602
11.4886
12.9171
12.8957
11.4874
9.57786
9.6366
11.577
12.9645
12.9411
11.574
9.64789
9.69459
11.6575
13.0022
12.9761
11.6522
9.70031
9.73648
11.7285
13.0282
12.9994
11.7207
9.73736
9.76339
11.7888
13.0425
13.0094
11.7784
9.76104
9.77916
11.8379
13.0458
13.0079
11.8248
9.77427
9.78607
11.8762
13.0384
12.996
11.8606
9.77888
9.78653
11.9046
13.0225
12.9742
11.8851
9.77553
9.78085
11.9232
12.9975
12.9425
11.8991
9.76479
9.76859
11.9322
12.9627
12.9025
11.9049
9.75059
9.7532
11.9336
12.92
12.855
11.9026
9.73276
9.7353
11.9281
12.8701
12.8006
11.8942
9.71325
9.71541
11.9166
12.8136
12.7405
11.88
9.69172
9.69335
11.8994
12.7513
12.6743
11.8591
9.66779
9.66979
11.8761
12.6828
12.6028
11.8332
9.64309
9.64415
11.8476
12.6092
12.527
11.8034
9.61749
9.61805
11.8161
12.5319
12.4471
11.769
9.59057
9.59102
11.7811
12.4508
12.364
11.7309
9.56149
9.56378
11.7405
12.368
12.2776
11.6853
9.53205
9.54438
11.6982
12.285
12.2071
11.6875
9.53173
9.55395
11.6578
12.195
12.1775
11.6975
9.59477
9.70341
11.4852
12.1287
12.8056
12.197
10.2352
10.2184
10.8464
11.526
13.77
16.2929
18.9357
21.1652
22.7074
24.749
26.0438
27.15
27.8983
28.422
28.6694
28.6646
28.3941
27.791
26.9146
25.3834
24.2927
22.1064
20.1224
18.0176
15.8494
14.2312
12.6128
12.5286
8.15162
7.9234
12.4927
12.5579
12.5206
12.49
7.73073
7.57872
12.4987
12.5255
12.5808
12.5357
7.48276
7.48558
12.5609
12.5982
12.6378
12.5669
7.41502
7.41803
12.5849
12.6677
12.6924
12.6029
7.42603
7.43499
12.6128
12.7215
12.7416
12.6315
7.44716
7.45822
12.6463
12.7742
12.7897
12.6615
7.47069
7.48477
12.6835
12.8241
12.8404
12.6965
7.49864
7.51353
12.7213
12.8773
12.8944
12.7332
7.52646
7.54211
12.758
12.9323
12.9501
12.7702
7.55576
7.57161
12.7944
12.9887
13.0061
12.8118
7.58601
7.60256
12.8333
13.0453
13.064
12.8529
7.61834
7.63418
12.8739
13.1047
13.1237
12.8941
7.64987
7.66637
12.9147
13.1655
13.1853
12.9364
7.68311
7.69967
12.9586
13.2286
13.2489
12.9807
7.71639
7.73346
13.0022
13.293
13.3141
13.0254
7.75095
7.76818
13.0487
13.3591
13.3801
13.0715
7.78539
7.80299
13.094
13.4258
13.4474
13.1179
7.82099
7.83859
13.1418
13.4947
13.5171
13.1654
7.85643
7.87508
13.194
13.566
13.5893
13.2143
7.89319
7.91275
13.2442
13.6405
13.665
13.2668
7.9308
7.95017
13.298
13.7171
13.7416
13.318
7.96798
7.98847
13.3514
13.7947
13.8195
13.3763
8.00709
8.02795
13.4122
13.872
13.8969
13.4361
8.04751
8.06899
13.4715
13.9523
13.9787
13.4967
8.0873
8.10763
13.534
14.0336
14.0591
13.5578
8.12621
8.14766
13.5969
14.1145
14.1408
13.625
8.1666
8.18721
13.6647
14.1972
14.2241
13.6905
8.20577
8.22709
13.7325
14.2808
14.3071
13.7626
8.2457
8.26655
13.8053
14.3616
14.3876
13.8303
8.2841
8.30362
13.8713
14.4417
14.4652
13.9011
8.32011
8.34016
13.9457
14.5136
14.5367
13.9738
8.35752
8.37682
14.0154
14.5839
14.6049
14.0449
8.39193
8.40855
14.0792
14.6454
14.663
14.1101
8.42374
8.43759
14.1375
14.6969
14.7102
14.163
8.44966
8.46091
14.1822
14.7318
14.7387
14.2055
8.47342
8.48436
14.2186
14.748
14.7502
14.2281
8.49472
8.50451
14.2323
14.7533
14.7383
14.2284
8.51398
8.52358
14.2142
14.7324
14.7022
14.1871
8.5313
8.53937
14.1527
14.6875
14.6406
14.1045
8.54848
8.5653
14.0627
14.6174
14.5461
13.9994
8.58479
8.60804
13.9142
14.5081
14.4275
13.801
8.62949
8.65848
13.6878
14.3841
14.2923
13.5725
8.70101
8.76142
13.4557
14.2373
14.138
13.2925
8.83116
8.91009
13.1266
14.0931
13.9992
12.9352
9.00232
9.12663
12.7749
13.9421
13.8356
12.58
9.28445
9.48037
12.4004
13.7956
13.733
12.155
9.69966
9.94678
11.9707
13.7067
13.6812
11.8525
10.1633
10.3759
11.6417
13.6756
13.6637
11.4256
10.5954
10.7507
11.2836
13.7668
13.7631
11.2314
10.9117
11.0597
10.9915
13.9185
13.9625
10.9194
11.2179
11.3661
10.8818
14.2097
14.3137
10.8877
11.4734
11.594
11.0487
14.6934
14.8571
11.1304
11.7544
11.9332
11.4984
15.3821
15.7398
11.9304
12.0878
12.3168
12.9082
16.6388
16.9467
13.5391
12.5603
11.0303
9.59007
10.5388
14.4111
11.4658
11.1009
11.0085
10.7724
14.1972
14.4357
10.5816
11.255
11.4721
10.3174
14.239
14.6275
10.3791
11.7726
12.0042
10.3072
14.6032
15.3657
10.6375
12.1978
12.3822
10.7246
15.4313
16.4814
11.4717
12.5956
12.8311
11.8599
16.859
18.6166
13.2806
13.2337
13.5759
14.1292
19.2883
10.9209
9.32324
12.8079
12.641
11.5907
16.5603
16.8692
11.4782
12.476
12.538
12.3433
18.7874
19.2439
12.6136
12.6936
12.8897
13.611
20.7272
21.4297
14.2043
13.203
13.7524
15.8429
23.3001
23.683
17.0076
14.4982
12.8683
10.8343
12.901
20.4802
13.121
13.0847
12.9978
13.0931
21.0257
23.0442
14.4325
13.4301
13.7357
14.8774
23.4679
26.3194
17.4039
14.5527
15.4802
19.1827
27.2628
15.0344
11.1972
13.8571
13.7784
15.2264
25.1763
26.432
16.0899
13.8849
14.6269
19.2512
30.6132
32.2044
21.245
15.5295
17.0992
24.3488
33.9282
19.2572
13.196
14.2596
14.665
19.2555
32.2012
33.1681
20.2304
15.0704
16.7887
26.1223
39.1364
41.0378
29.229
18.3463
14.9189
15.6692
25.2752
41.998
25.7985
16.2071
17.1564
28.1518
44.7146
53.3735
37.465
20.1967
21.7104
40.4424
55.0353
38.9629
23.6218
16.5142
21.211
42.9779
60.4215
63.218
47.0856
23.3613
17.1229
28.9566
48.7853
74.429
56.0645
25.5442
29.1805
62.7691
79.3605
70.917
44.0938
19.5061
37.6971
81.3939
94.1116
87.6788
63.0848
20.0593
38.0471
89.8609
105.761
107.537
89.6356
37.574
39.4193
87.888
105.526
101.711
86.3295
42.8159
56.0224
95.8019
102.227
77.8111
53.7666
38.8708
45.1867
71.1129
82.5283
58.2611
41.9137
31.8235
33.4925
51.8406
65.2971
59.2506
43.3406
29.6665
25.3498
23.6627
36.3025
48.2625
37.4403
26.6742
22.7891
25.0605
33.0589
43.2902
32.1789
24.0763
21.7656
27.8143
39.609
23.7413
18.1968
20.148
21.3167
24.9225
35.0345
31.9383
21.9889
19.4817
18.8223
15.3479
19.0316
29.4584
20.7225
19.3529
18.1935
18.7944
26.7598
16.3571
13.9766
17.9692
17.9892
17.9415
25.4529
22.852
16.5179
17.3269
17.4814
12.9151
14.3485
22.1804
15.9877
16.8522
16.4477
14.7049
20.0558
12.8347
11.8841
17.0918
16.0672
14.4919
19.6356
17.651
13.3549
15.7977
16.7
11.0933
11.6349
17.5405
13.2129
15.3418
15.2705
12.2194
15.89
10.7682
10.3979
16.1197
14.7743
12.51
16.3562
14.0413
11.3436
14.604
15.0195
10.3015
12.2048
9.00545
8.74756
16.781
13.928
9.87022
12.4262
11.46
9.53834
14.4143
15.459
9.00485
8.43366
11.2558
9.14516
13.3603
13.921
8.79017
10.3968
7.85189
7.91309
15.6175
12.9077
8.3934
10.0496
9.451
8.35651
13.571
14.9909
8.2058
7.36619
9.42292
8.0279
12.8141
13.5245
7.97012
8.87117
7.017
7.97372
14.6399
12.2927
7.47907
8.64297
8.19596
7.47711
13.2088
15.359
7.31656
6.72103
8.09088
7.21713
12.2989
13.0073
7.22102
7.74457
6.60949
7.31604
15.2565
12.2976
6.84489
7.56748
7.22407
6.85913
13.254
15.7685
7.06996
6.2298
7.12631
6.78974
12.5656
14.1222
7.01579
6.06002
7.69151
6.74723
11.7516
12.7083
6.76531
7.21884
6.20747
7.36614
14.5609
11.8849
6.72814
7.31492
6.99013
6.66852
12.7671
14.6427
7.42241
6.14611
7.2972
6.74528
11.9938
12.9348
6.55968
6.85813
6.13664
7.79886
15.0218
12.3629
6.5432
6.70232
6.34872
6.33174
13.4282
15.3439
7.82954
5.86221
6.29582
6.29988
12.2837
13.3593
6.13636
6.04282
5.81676
7.6088
16.1075
12.7065
5.86358
6.02773
5.4975
7.14727
14.6982
12.0731
5.9559
6.08215
5.67589
5.80659
13.1344
15.1435
7.74062
5.48984
5.81677
5.90212
12.2706
13.4625
5.74717
5.31759
5.42381
7.81501
16.2139
12.7424
5.35921
5.38234
5.10704
7.10061
14.8801
12.0074
5.60823
5.55419
5.15765
5.55187
13.1632
15.3681
7.82042
5.21364
5.51756
5.70562
12.4267
13.7602
5.64452
5.07558
5.32094
7.98245
16.6881
13.0411
5.13973
5.08765
4.93251
7.16655
15.3477
12.3077
5.42572
5.3
4.86955
5.42547
13.606
15.9483
8.02868
5.02877
5.12011
5.46314
12.8545
14.2889
5.44852
4.70654
5.05944
9.09973
16.1307
13.4341
4.98529
4.74105
4.74802
7.14476
15.8177
12.4666
5.0924
4.90401
4.49861
5.20604
13.9441
16.9692
8.20678
4.97173
4.61257
4.8114
13.288
16.0798
7.29644
4.66397
4.86024
5.09653
12.7275
14.1874
5.17088
4.47589
4.94392
8.89331
16.6682
13.4854
4.92007
4.57329
4.64544
7.29044
16.1963
12.6892
5.04665
4.80798
4.46267
5.23121
14.2601
16.8841
9.19585
4.96819
4.59544
4.92351
13.7703
16.7829
7.4856
4.70013
4.82479
5.07974
13.1276
14.7332
5.28988
4.46607
5.08661
8.77875
17.9533
14.0246
4.89576
4.58295
4.72035
7.67385
16.9916
13.4895
5.12101
4.81456
4.45667
5.32763
15.2048
17.5253
9.96534
5.11033
4.62909
4.98786
14.7955
17.8592
8.3074
4.9866
4.59757
4.64816
14.0205
16.8145
7.65579
4.73544
4.8368
5.10338
13.3027
15.0011
5.37093
4.50881
5.17842
9.51417
18.0951
14.4856
5.06851
4.67633
4.86754
8.02124
17.8325
14.06
5.24073
4.91323
4.55384
5.53947
15.9066
18.3439
10.4719
5.29551
4.73115
5.19956
15.6405
18.768
8.64832
5.14186
4.66585
4.76354
14.862
17.7801
7.96979
4.85293
4.8923
5.22008
13.993
15.8449
5.45794
4.55813
5.40819
9.67173
19.7685
15.4183
5.1505
4.77435
5.248
8.84811
18.9886
15.0623
4.84474
4.77741
5.02612
8.29284
18.1115
14.4029
5.36409
5.03401
4.72593
5.75585
16.3219
19.3492
10.596
5.51983
4.91649
5.40638
15.8953
19.6982
9.08292
5.40277
4.88744
4.94938
15.4835
18.6256
8.55709
5.16525
5.12917
5.48482
14.7092
16.6763
5.83231
4.80199
5.71697
10.4085
20.6876
16.2556
5.46699
5.02527
5.56985
9.42372
20.0507
15.9909
5.1718
5.01455
5.33441
8.88833
19.1745
15.1899
5.63403
5.23846
4.93031
6.03366
17.3408
22.0657
10.5104
5.94723
5.15314
5.59837
17.1421
21.3431
9.82014
5.77679
5.10594
5.18199
16.8233
20.2062
9.24169
5.48207
5.29129
5.73439
15.8129
17.9386
6.1222
4.97396
6.05935
10.8415
22.6849
17.4281
5.75209
5.23176
5.90065
10.1807
21.6192
16.9724
5.30737
5.1883
5.75396
9.5672
20.7782
16.519
5.30458
5.16069
5.61656
9.45976
20.0233
15.8883
5.87336
5.42739
5.14763
6.42211
18.169
21.6444
12.3817
6.22681
5.47076
6.22207
18.437
22.7648
10.4252
6.09739
5.37088
5.50838
17.9458
21.7151
9.97021
5.98975
5.35263
5.53754
17.1445
20.7878
9.95876
5.85223
5.58271
6.10947
16.5149
18.8544
6.51444
5.26171
6.48122
11.7057
24.1094
18.7317
6.10698
5.57681
6.3473
10.9113
23.4452
18.4823
5.72159
5.55092
6.20377
10.3462
22.4811
17.7914
5.70792
5.50539
6.05113
10.3233
21.4613
17.1034
6.31325
5.73688
5.46516
6.82431
19.4875
24.9584
12.2062
6.80803
5.76427
6.41321
19.4183
24.4186
11.3648
6.6273
5.74297
5.90029
19.3449
23.7719
10.9174
6.48525
5.69824
5.97217
18.758
22.6886
10.7945
6.28876
5.88315
6.51169
17.92
20.531
7.13546
5.61094
7.04034
13.9463
24.1413
20.745
6.96402
5.99954
6.82913
11.6506
25.4309
19.8479
5.96223
5.86584
6.68779
11.1879
24.3079
19.3782
6.12756
5.88044
6.66956
11.1608
23.9038
19.0837
6.25476
5.8995
6.56982
11.179
23.1669
18.5683
6.87077
6.10876
5.85828
7.46319
21.2946
27.934
13.2355
7.47387
6.14098
6.92059
21.2632
26.7825
12.5028
7.27646
6.17423
6.39984
21.1249
25.817
11.8828
7.07647
6.1056
6.40752
20.3713
24.9119
11.6664
6.93553
6.1154
6.4899
19.9542
24.2788
11.6705
6.8112
6.33904
7.13572
19.3081
22.032
7.6792
6.06132
7.75807
14.0561
28.0994
21.7626
7.12201
6.43697
7.61696
12.9625
27.3517
21.5621
6.79694
6.48142
7.44608
12.3896
26.6718
21.117
6.74964
6.4361
7.34787
12.2612
25.8149
20.6706
6.90021
6.46636
7.22112
12.168
25.1537
20.1658
7.51155
6.66044
6.42121
8.19711
23.08
30.1238
14.5455
8.2364
6.6965
7.54245
23.2457
29.0815
13.6449
8.01094
6.73321
7.08024
23.2188
28.6298
13.0386
7.86844
6.67847
6.99883
22.6114
27.5459
12.8544
7.6943
6.67135
7.09793
21.8803
26.4389
12.8392
7.54141
6.90019
7.81239
20.9811
24.083
8.52744
6.65044
8.59557
15.5057
30.973
24.1447
7.84395
6.99584
8.40097
14.2032
30.2523
23.894
7.39246
7.00775
8.19554
13.5272
29.4213
23.3327
7.33322
6.97453
8.1025
13.3868
28.5285
22.818
7.48447
6.98968
7.95676
13.4507
27.7236
22.1235
8.21493
7.19634
6.96684
9.05116
25.5823
33.9008
16.0656
9.13826
7.2351
8.21532
25.7137
32.0712
15.2333
8.91515
7.26154
7.7794
25.3538
31.3258
14.34
8.6605
7.20083
7.65516
24.8458
30.3427
14.1337
8.49837
7.2281
7.72775
24.1771
29.6067
14.0557
8.48536
7.3044
7.90785
23.7066
28.8514
14.1372
8.32494
7.52498
8.60765
22.8455
26.4517
9.40849
7.29013
9.51636
17.8407
32.8512
26.4342
9.0127
7.75201
9.31092
15.6459
33.3351
26.0824
8.10541
7.65431
9.06255
14.9195
31.8629
25.2101
8.15642
7.67007
9.02009
14.8335
30.8562
24.7221
8.43538
7.75811
8.8982
14.7653
30.0246
23.9846
9.0625
7.92429
7.69758
9.96973
27.854
35.7108
18.4215
10.1928
8.10522
9.22969
27.9464
34.8884
16.5911
9.92238
8.02549
8.6917
27.6942
34.0912
15.8501
9.6354
7.961
8.54671
27.0076
32.8699
15.6217
9.49443
7.97617
8.71203
26.2655
32.062
15.5833
9.28345
8.1414
9.40716
25.3218
29.4806
10.3468
7.90649
10.5813
20.0259
36.3562
29.2407
10.1429
8.44974
10.3143
17.3883
36.7944
28.7629
8.93798
8.29823
9.99882
16.4797
34.9762
27.7215
8.94561
8.25643
9.87824
16.2568
34.0666
27.188
9.11417
8.31935
9.73285
16.3078
33.3832
26.5218
9.8733
8.49907
8.2839
10.9684
30.9607
39.3657
20.6644
11.2346
8.83441
10.3076
31.0021
38.8117
18.4748
10.9792
8.73943
9.61219
30.4558
37.5211
17.6923
10.676
8.68135
9.53268
29.5999
36.4068
17.4012
10.5349
8.69762
9.64831
28.9251
35.6752
17.3638
10.2911
8.86279
10.3528
28.242
32.9663
11.4537
8.62951
11.7785
21.8477
41.2717
32.5858
10.9392
9.25482
11.4897
19.348
40.4073
31.6161
10.0899
9.1655
11.1921
18.4352
39.094
30.7762
10.0505
9.1444
10.9869
18.4582
38.2545
30.4273
11.0069
9.2595
9.0539
12.2582
35.6062
45.9456
23.1763
12.7101
9.67759
11.223
35.4019
43.1119
20.5389
12.2181
9.53703
10.6628
33.8916
42.2066
19.7604
11.8674
9.44249
10.5125
32.8506
40.512
19.547
11.4999
9.49436
11.4074
31.8786
37.4134
12.6414
9.2733
13.073
25.1915
45.0707
36.3196
12.6265
10.0083
12.7509
21.6321
46.1972
35.5009
10.79
9.85339
12.295
20.5306
43.9324
34.5035
11.0083
9.81404
12.1033
20.599
42.8642
33.8179
12.0181
9.90701
9.74831
13.5558
39.8323
51.6379
25.7462
14.1017
10.4617
12.2602
39.2717
47.878
22.8174
13.4422
10.3091
11.6784
37.2751
46.8186
21.8811
13.0315
10.2236
11.5381
36.5891
45.5857
21.751
12.66
10.2798
12.5405
35.9756
42.3048
13.906
10.0639
14.5637
27.1456
53.0889
40.8839
12.9713
10.9484
14.1092
24.1191
50.808
39.4008
12.3411
10.8494
13.7303
23.0677
49.3237
38.698
12.2167
10.8443
13.5316
23.1307
48.3284
38.2626
13.4459
10.9326
10.7703
15.1225
45.0823
56.2338
29.5363
15.8578
11.7182
14.3007
43.3731
53.9597
25.7497
15.1324
11.4702
13.207
41.8284
52.2458
24.7211
14.4163
11.3547
13.947
40.9286
48.1147
15.2844
11.162
16.6408
31.3462
61.3334
46.3274
14.591
12.1988
15.8766
27.0557
56.8724
44.153
13.8673
12.0079
15.3735
26.0461
55.5387
43.4288
13.6217
11.9834
15.0969
25.9961
54.3993
42.8315
14.9269
12.037
11.922
16.8283
50.3357
62.0342
33.6749
17.7703
13.0526
16.5646
48.2886
60.9626
29.1913
17.0674
12.8741
14.8435
47.3366
59.1073
28.0298
16.2885
12.7445
15.777
45.8654
54.0327
17.595
12.5706
18.8736
35.7988
67.7157
52.4176
17.3036
13.768
18.1154
31.2301
65.6803
50.7511
15.839
13.5934
17.3084
29.8883
63.096
49.3418
16.7592
13.4695
13.3728
18.8795
57.7192
71.3131
38.3756
20.1827
14.5875
18.721
54.8697
68.7775
33.4595
19.0903
14.2328
17.7691
53.086
62.1395
19.6972
14.0512
21.2817
40.2525
77.061
58.4309
19.1126
15.2682
20.4793
35.4458
74.1094
57.0277
17.7571
14.949
19.4078
33.7232
71.0161
55.4882
18.6297
14.7043
14.6079
21.1243
65.005
80.6813
42.6192
22.4994
15.9544
20.3961
62.0373
77.4338
36.9736
21.0546
15.3141
19.3403
59.6064
69.5237
21.3774
15.1545
23.4604
44.7558
85.961
65.5377
21.1144
16.5046
22.0555
38.9503
82.1767
62.7966
20.5062
15.9418
15.8067
23.0508
74.0165
92.4009
48.4565
25.1126
17.3684
22.4345
69.9003
87.0519
41.6016
23.4069
16.4981
21.1968
66.3021
77.2818
23.5968
16.3383
25.8314
49.5954
95.9059
72.8505
22.8011
17.8637
24.1174
42.6719
90.2991
69.3056
22.1304
17.0834
16.9736
24.6336
81.0845
100.736
52.3365
27.0507
18.5175
23.4272
74.5915
95.2407
45.5337
25.446
17.6834
23.1557
72.7652
85.1131
25.5888
17.572
28.1609
54.798
104.181
79.599
25.5475
19.1681
26.333
47.1857
99.9894
76.3787
23.8448
18.4547
18.3328
26.7115
88.7243
109.562
57.0915
29.3713
20.0632
26.1579
82.9794
103.318
48.8401
27.1908
19.0205
24.8642
78.1707
90.362
26.4688
18.7865
29.8214
59.5995
114.227
86.5542
28.0924
20.2667
20.0506
30.2402
100.298
122.417
64.3567
32.9045
21.9488
29.5539
93.0416
116.133
54.6219
30.4667
20.7391
26.975
88.025
101.505
30.039
20.6245
32.782
65.218
124.524
94.5122
31.0287
22.0319
21.6161
31.6035
108.543
134.649
69.6389
34.8758
22.808
32.8754
101.37
117.402
34.2416
22.4292
37.5866
74.3355
143.928
107.214
33.0008
24.5133
34.2834
62.1937
132.175
99.1502
30.179
22.9401
22.8313
33.4027
113.792
138.96
73.0356
36.4462
24.2094
34.3723
104.636
119.49
34.5594
23.7531
38.2613
76.2561
149.471
111.983
35.6893
25.0402
24.6596
37.5938
128.895
159.22
81.7346
40.4239
26.1321
37.373
118.003
134.017
38.8305
25.7144
41.7769
83.6585
162.869
121.378
38.2809
26.8547
26.4889
39.8336
138.541
170.406
85.919
42.9137
27.3779
38.8749
126.138
142.404
46.0213
27.8371
28.0603
50.2708
165.144
201.659
100.939
49.4002
29.7241
43.7455
146.159
164.098
44.2847
28.9884
47.7711
97.9239
194.69
142.212
42.6323
29.1863
29.0403
46.6247
158.296
182.688
51.7627
29.2092
52.8504
112.701
224.501
161.124
46.4826
30.8796
31.1979
52.99
177.529
201.561
57.9351
31.4109
56.3971
116.365
244.438
172.271
47.1622
32.2163
31.9603
52.9873
187.704
213.673
58.1148
31.8204
57.354
123.205
258.853
182.509
50.0913
32.4699
31.2196
48.5338
198.088
221.548
69.3844
33.3696
32.4899
56.2793
253.504
279.835
145.822
63.6613
34.5503
57.3473
190.889
216.613
58.0278
33.5977
33.7479
68.8488
246.969
268.144
61.3067
31.9095
33.8636
78.9773
290.329
307.146
75.4463
31.8712
64.812
161.563
326.737
203.896
56.8879
32.7674
31.171
54.3255
220.73
244.833
65.4176
30.8365
30.032
64.8206
261.383
273.994
66.9231
29.5656
29.4446
72.2271
275.535
272.362
75.4931
29.3647
29.3429
78.4175
264.831
252.278
82.2301
29.4656
29.6022
85.2084
238.854
225.391
89.0195
29.987
30.3801
92.8515
212.367
200.158
97.7544
31.2396
31.9307
102.475
189.058
179.045
107.046
33.245
34.2389
111.44
170.046
161.975
115.693
35.8768
37.1623
119.785
154.741
148.337
123.735
39.1134
40.9706
127.106
142.653
137.655
130.312
43.4953
45.8054
133.019
133.227
129.335
135.667
48.6742
51.0546
138.113
125.9
122.9
140.478
53.9774
56.3846
142.628
120.267
117.983
144.7
59.3466
61.8022
146.557
115.982
114.266
148.337
64.833
67.3677
149.891
112.774
111.513
151.378
70.4663
73.0669
152.64
110.432
109.536
153.823
76.2293
78.873
154.778
108.77
108.135
155.64
82.0856
84.6687
156.312
107.589
107.144
156.915
87.7464
90.175
157.344
106.761
106.455
157.721
93.0601
95.2843
157.928
106.192
105.988
158.099
97.9446
99.9429
158.122
105.813
105.68
158.092
102.364
104.124
157.992
105.564
105.486
157.863
106.304
107.822
157.587
105.41
105.355
157.386
109.748
111.027
156.995
105.313
105.279
156.696
112.701
113.75
156.228
105.254
105.227
155.847
115.177
116.006
155.316
105.206
105.173
154.869
117.199
117.832
154.297
105.148
105.105
153.802
118.808
119.267
153.209
105.073
105.015
152.681
120.048
120.365
152.083
104.973
104.902
151.534
120.968
121.174
150.945
104.853
104.769
150.386
121.618
121.743
149.811
104.711
104.619
149.252
122.046
122.11
148.697
104.556
104.458
148.149
122.296
122.31
147.616
104.386
104.283
147.084
122.385
122.366
146.572
104.205
104.099
146.065
122.372
122.308
145.569
104.014
103.906
145.09
122.284
122.17
144.614
103.819
103.71
144.163
122.11
121.929
143.706
103.622
103.514
143.277
121.843
121.621
142.84
103.427
103.32
142.43
121.519
121.27
142.015
103.233
103.127
141.621
121.16
120.901
141.232
103.043
102.938
140.854
120.787
120.529
140.49
102.856
102.753
140.128
120.411
120.164
139.793
102.674
102.575
139.447
120.045
119.823
139.14
102.498
102.402
138.813
119.703
119.501
138.534
102.33
102.238
138.228
119.393
119.212
137.975
102.17
102.081
137.691
119.114
118.957
137.466
102.019
101.937
137.206
118.873
118.739
137.005
101.88
101.803
136.769
118.669
118.558
136.591
101.753
101.682
136.379
118.502
118.415
136.224
101.639
101.574
136.034
118.372
118.306
135.902
101.54
101.481
135.734
118.278
118.235
135.622
101.454
101.403
135.474
118.22
118.197
135.383
101.382
101.34
135.254
118.196
118.193
135.181
101.324
101.291
135.07
118.206
118.218
135.013
101.28
101.257
134.917
118.241
118.272
134.875
101.251
101.237
134.795
118.302
118.349
134.763
101.235
101.231
134.699
118.386
118.446
134.676
101.234
101.236
134.628
118.489
118.562
134.612
101.245
101.252
134.578
118.61
118.694
134.57
101.268
101.279
134.549
118.747
118.84
134.547
101.303
101.317
134.54
118.897
118.999
134.545
101.347
101.367
134.547
119.059
119.168
134.558
101.402
101.425
134.565
119.231
119.346
134.586
101.464
101.491
134.596
119.41
119.53
134.626
101.534
101.564
134.64
119.595
119.718
134.676
101.611
101.644
134.694
119.784
119.91
134.736
101.694
101.73
134.757
119.976
120.103
134.805
101.783
101.821
134.828
120.169
120.298
134.881
101.877
101.918
134.906
120.364
120.492
134.964
101.975
102.018
134.991
120.558
120.687
135.052
102.078
102.123
135.081
120.752
120.879
135.145
102.184
102.231
135.176
120.944
121.07
135.242
102.294
102.342
135.274
121.132
121.256
135.343
102.407
102.457
135.376
121.318
121.439
135.446
102.523
102.574
135.48
121.499
121.618
135.552
102.641
102.694
135.586
121.676
121.793
135.659
102.761
102.815
135.693
121.849
121.962
135.767
102.883
102.937
135.802
122.016
122.127
135.877
103.006
103.06
135.912
122.179
122.286
135.987
103.129
103.184
136.022
122.337
122.441
136.097
103.253
103.308
136.132
122.489
122.589
136.206
103.377
103.432
136.241
122.636
122.732
136.315
103.5
103.555
136.349
122.776
122.868
136.423
103.624
103.679
136.457
122.911
122.999
136.53
103.747
103.802
136.564
123.039
123.124
136.635
103.87
103.924
136.668
123.162
123.243
136.739
103.993
104.047
136.771
123.279
123.356
136.841
104.116
104.17
136.873
123.39
123.463
136.942
104.239
104.293
136.973
123.496
123.566
137.041
104.363
104.417
137.073
123.596
123.663
137.139
104.487
104.541
137.17
123.692
123.756
137.236
104.612
104.666
137.266
123.782
123.843
137.331
104.738
104.793
137.361
123.868
123.925
137.426
104.864
104.919
137.456
123.949
124.003
137.519
104.991
105.044
137.549
124.025
124.076
137.612
105.116
105.169
137.642
124.097
124.144
137.705
105.24
105.29
137.734
124.163
124.209
137.797
105.361
105.409
137.825
124.225
124.278
137.891
105.48
105.528
137.921
124.295
124.336
137.98
105.597
105.64
138.008
124.352
124.392
138.077
105.714
105.749
138.095
124.407
124.44
138.155
105.863
105.895
138.171
124.447
124.463
138.232
105.987
106.016
138.252
124.507
124.519
138.108
106.125
106.024
137.829
124.678
124.445
137.412
106.302
106.998
137.216
124.323
124.38
137.596
107.411
116.113
72.1564
43.2347
40.4467
41.3836
45.5996
49.1435
54.7661
56.9018
63.8495
67.6768
68.7973
68.961
68.4345
67.9043
67.5974
67.4996
67.5393
67.6482
67.7835
67.9221
68.053
68.1716
68.2764
68.3674
68.4453
68.5106
68.5643
68.6059
68.6367
68.6573
68.6694
68.6749
68.682
68.6951
68.7143
68.7397
68.7698
68.8047
68.8434
68.8863
68.9337
68.9864
69.0453
69.1116
69.2025
69.3497
69.5672
69.8324
70.1097
70.3765
70.6239
70.8508
71.0584
71.2484
71.4216
71.5792
71.7218
71.85
71.9648
72.0671
72.1584
72.2401
72.3137
72.3806
72.4421
72.4992
72.5531
72.6044
72.6541
72.7028
72.7512
72.8
72.8496
72.9006
72.9535
73.0087
73.0667
73.1276
73.1919
73.2597
73.331
73.406
73.4846
73.5666
73.6519
73.7402
73.8312
73.9245
74.0198
74.1166
74.2145
74.3131
74.412
74.5109
74.6092
74.7068
74.8034
74.8985
74.9921
75.0839
75.1738
75.2616
75.3471
75.4305
75.5115
75.5902
75.6665
75.7404
75.812
75.8813
75.9482
76.0129
76.0754
76.1358
76.1941
76.2504
76.3047
76.3571
76.4077
76.4566
76.5037
76.5493
76.5933
76.6358
76.677
76.7167
76.7551
76.7924
76.8284
76.8633
76.8971
76.9299
76.9618
76.9927
77.0227
77.0519
77.0803
77.108
77.1349
77.1612
77.1868
77.2119
77.2363
77.2603
77.2837
77.3067
77.3293
77.3514
77.3732
77.3946
77.4157
77.4364
77.457
77.4772
77.4973
77.5171
77.5368
77.5563
77.5758
77.5951
77.6143
77.6335
77.6527
77.6719
77.6911
77.7103
77.7296
77.7491
77.7686
77.7883
77.8082
77.8282
77.8486
77.8691
77.89
77.9112
77.9328
77.9547
77.9771
77.9999
78.0233
78.0472
78.0717
78.0968
78.1226
78.1492
78.1764
78.2045
78.2335
78.2634
78.2943
78.3262
78.3592
78.3934
78.4286
78.4648
78.5019
78.5396
78.5772
78.6141
78.6487
78.6794
78.7032
78.7191
78.7273
78.734
78.7408
78.7399
78.7387
78.7342
78.7175
78.6743
78.5819
78.4286
78.2218
77.9812
77.7244
77.4606
77.1925
76.9188
76.6375
76.3467
76.0451
75.7322
75.4079
75.0722
74.7255
74.368
73.9999
73.6213
73.2326
72.834
72.4258
72.0082
71.5816
71.1464
70.703
70.2518
69.7933
69.3279
68.8562
68.3785
67.8954
67.4075
66.9152
66.4192
65.9199
65.418
64.9139
64.4083
63.9018
63.3949
62.8882
62.3823
61.8777
61.375
60.8749
60.3778
59.8845
59.3953
58.9109
58.4319
57.9587
57.4919
57.0322
56.5799
56.1356
55.6998
55.2729
54.8555
54.448
54.0508
53.6643
53.289
52.9251
52.5732
52.2338
51.9072
51.5939
51.2938
51.0067
50.7312
50.4654
50.2082
49.9613
49.7335
49.543
49.4092
49.3351
49.3012
49.2836
49.266
49.2213
49.0545
48.1984
46.6666
45.5479
45.1378
43.9813
43.6576
42.519
42.2606
41.1698
40.9701
39.9188
39.7689
38.757
38.6492
37.6749
37.6026
36.6636
36.6211
35.7145
35.6972
34.8218
34.8249
33.9824
33.999
33.1842
33.2128
32.4245
32.4646
31.7023
31.7541
31.0178
31.0801
30.3679
30.4393
29.7491
29.8283
29.1582
29.2439
28.592
28.6832
28.0482
28.144
27.5244
27.624
27.0186
27.1215
26.5293
26.6349
26.0547
26.1624
25.5932
25.7024
25.1434
25.2537
24.7042
24.8152
24.2746
24.386
23.8537
23.9651
23.4404
23.5515
23.034
23.1445
22.6336
22.7432
22.2386
22.3472
21.8485
21.9558
21.4628
21.5687
21.0812
21.1854
20.7032
20.8056
20.329
20.4294
19.9588
20.0575
19.5933
19.6904
19.2335
19.3293
18.8809
18.9759
18.5375
18.6324
18.206
18.3019
17.8903
17.9881
17.5937
17.6941
17.3189
17.423
17.069
17.1776
16.8449
16.9591
16.6516
16.7744
16.4958
16.6283
16.3752
16.5175
16.2873
16.4388
16.2295
16.3902
16.2003
16.3697
16.1969
16.3745
16.2161
16.4007
16.2486
16.4421
16.2955