/*--------------------------------*- C++ -*----------------------------------*\
| =========                 |                                                 |
| \\      /  F ield         | OpenFOAM: The Open Source CFD Toolbox           |
|  \\    /   O peration     | Version:  v2006                                 |
|   \\  /    A nd           | Website:  www.openfoam.com                      |
|    \\/     M anipulation  |                                                 |
\*---------------------------------------------------------------------------*/
FoamFile
{
    version     2.0;
    format      ascii;
    class       volScalarField;
    location    "0.013";
    object      isentropic(p);
}
// * * * * * * * * * * * * * * * * * * * * * * * * * * * * * * * * * * * * * //

dimensions      [1 -1 -2 0 0 0 0];


internalField   nonuniform List<scalar> 
16277
(
150001
150000
150009
150009
150009
150009
150009
150010
150013
150015
150014
150013
150012
150011
150010
150010
150010
150010
150010
150009
150009
150009
150009
150009
150009
150008
150008
150008
150008
150008
150008
150007
150007
150007
150007
150007
150006
150006
150006
150006
150005
150005
150005
150005
150005
150004
150004
150004
150004
150004
150004
150004
150003
150003
150003
150003
150003
150003
150003
150003
150002
150002
150002
150002
150002
150002
150002
150002
150001
150001
150001
150001
150001
150001
150001
150000
150000
150000
150000
150000
149999
149999
149998
149998
149999
150001
150002
150003
150002
150004
150004
150006
150006
150009
150014
150013
149975
149932
150006
150017
150012
149993
149892
149852
149981
150006
149996
149966
149815
149781
149952
149988
149977
149936
149750
149723
149922
149968
149958
149907
149697
149674
149895
149950
149940
149881
149653
149634
149869
149931
149921
149856
149615
149599
149845
149913
149904
149832
149582
149568
149822
149896
149887
149810
149554
149541
149801
149879
149870
149790
149528
149517
149781
149864
149855
149770
149505
149495
149763
149849
149841
149752
149483
149474
149745
149835
149827
149736
149464
149455
149729
149822
149814
149720
149446
149438
149713
149809
149802
149705
149429
149423
149699
149797
149790
149691
149415
149410
149686
149786
149780
149679
149403
149399
149674
149776
149770
149668
149393
149390
149664
149767
149761
149657
149385
149382
149654
149758
149753
149648
149378
149375
149645
149750
149745
149640
149372
149369
149637
149742
149738
149632
149366
149365
149630
149735
149731
149625
149362
149361
149623
149729
149725
149618
149359
149359
149617
149723
149719
149613
149357
149357
149612
149718
149714
149608
149355
149356
149607
149713
149709
149603
149355
149356
149602
149708
149705
149599
149355
149356
149599
149704
149701
149596
149356
149358
149595
149700
149697
149593
149358
149360
149592
149696
149693
149590
149360
149362
149590
149693
149690
149587
149363
149365
149587
149690
149687
149585
149366
149369
149585
149686
149684
149583
149370
149373
149583
149683
149681
149581
149374
149377
149582
149680
149678
149580
149379
149382
149580
149677
149675
149578
149384
149387
149579
149674
149672
149577
149389
149392
149577
149671
149668
149575
149394
149397
149575
149667
149664
149573
149399
149401
149573
149663
149660
149570
149403
149406
149570
149658
149655
149568
149408
149411
149568
149654
149651
149566
149413
149416
149566
149649
149646
149564
149418
149421
149564
149646
149643
149563
149423
149427
149563
149642
149639
149562
149429
149432
149562
149639
149636
149561
149435
149438
149562
149636
149633
149561
149440
149444
149562
149633
149631
149561
149446
149449
149562
149631
149629
149562
149450
149453
149562
149629
149627
149562
149454
149456
149563
149627
149625
149562
149457
149459
149562
149625
149623
149561
149459
149460
149562
149623
149621
149561
149459
149459
149561
149620
149617
149558
149457
149456
149557
149615
149611
149554
149453
149450
149552
149609
149604
149547
149446
149442
149544
149602
149596
149540
149437
149433
149536
149593
149588
149531
149426
149422
149527
149584
149578
149521
149415
149409
149516
149574
149567
149510
149402
149396
149505
149563
149556
149498
149388
149382
149493
149551
149544
149486
149374
149368
149480
149539
149532
149473
149359
149352
149467
149527
149520
149460
149344
149337
149454
149514
149507
149447
149328
149321
149441
149502
149494
149433
149313
149306
149427
149489
149482
149420
149297
149290
149414
149477
149470
149407
149282
149275
149401
149465
149458
149394
149267
149261
149388
149453
149446
149381
149253
149247
149376
149442
149435
149369
149240
149234
149365
149431
149425
149358
149227
149222
149354
149421
149416
149348
149216
149211
149344
149413
149407
149339
149206
149201
149335
149405
149400
149330
149196
149192
149328
149398
149393
149323
149188
149185
149321
149392
149388
149317
149181
149178
149316
149387
149385
149313
149175
149173
149312
149385
149383
149310
149171
149170
149310
149383
149382
149309
149169
149168
149310
149384
149383
149309
149167
149168
149311
149385
149386
149311
149168
149170
149313
149389
149390
149314
149170
149173
149318
149393
149395
149319
149175
149178
149323
149400
149402
149326
149180
149186
149331
149408
149412
149336
149189
149196
149343
149420
149427
149351
149205
149218
149363
149441
149480
149411
149267
149243
149358
149426
149483
149532
149566
149579
149591
149631
149642
149667
149675
149691
149697
149707
149711
149716
149717
149715
149715
149712
149709
149701
149678
149621
149506
149377
149175
149157
149360
149492
149475
149344
149143
149133
149333
149464
149457
149327
149127
149125
149324
149454
149451
149321
149120
149118
149318
149449
149447
149317
149116
149115
149315
149445
149443
149313
149113
149111
149312
149442
149440
149310
149109
149108
149309
149439
149437
149307
149106
149104
149306
149436
149434
149305
149103
149102
149304
149433
149431
149302
149100
149099
149301
149430
149429
149300
149098
149096
149299
149427
149426
149298
149095
149094
149297
149425
149424
149296
149093
149092
149295
149423
149422
149295
149091
149091
149294
149421
149421
149293
149090
149090
149293
149420
149419
149293
149089
149089
149292
149419
149418
149292
149088
149088
149292
149418
149417
149291
149088
149088
149291
149417
149417
149291
149088
149088
149291
149416
149416
149291
149088
149088
149292
149416
149416
149292
149088
149089
149292
149416
149417
149292
149089
149090
149293
149417
149417
149294
149090
149091
149294
149418
149418
149295
149092
149093
149296
149419
149420
149297
149094
149095
149298
149421
149422
149299
149096
149097
149300
149423
149424
149302
149098
149100
149303
149425
149427
149305
149101
149103
149306
149428
149430
149308
149105
149106
149310
149432
149433
149312
149108
149110
149314
149435
149437
149316
149112
149114
149318
149439
149441
149320
149116
149118
149322
149444
149446
149324
149120
149122
149327
149449
149451
149329
149124
149126
149332
149454
149457
149335
149129
149131
149337
149460
149463
149340
149133
149135
149343
149466
149469
149346
149138
149140
149350
149473
149476
149353
149142
149144
149356
149480
149484
149360
149147
149149
149364
149488
149492
149368
149152
149154
149372
149496
149501
149376
149157
149160
149381
149506
149510
149385
149163
149166
149390
149515
149520
149395
149169
149173
149401
149526
149531
149407
149176
149181
149413
149537
149543
149419
149185
149190
149427
149549
149555
149434
149196
149202
149442
149561
149567
149450
149209
149217
149459
149574
149583
149471
149228
149238
149482
149591
149599
149494
149251
149265
149503
149607
149616
149517
149280
149295
149527
149624
149631
149538
149310
149327
149549
149639
149647
149560
149346
149364
149572
149654
149660
149582
149381
149399
149592
149666
149673
149601
149417
149440
149618
149683
149688
149633
149457
149269
149501
149612
149668
149567
149330
149342
149584
149682
149689
149594
149358
149378
149604
149694
149704
149618
149400
149422
149629
149710
149721
149646
149449
149471
149656
149727
149736
149671
149497
149518
149681
149741
149752
149698
149545
149569
149716
149758
149702
149616
149428
149497
149680
149751
149763
149696
149518
149541
149712
149772
149781
149726
149566
149586
149736
149787
149795
149747
149606
149631
149763
149805
149807
149772
149645
149531
149697
149765
149804
149750
149592
149611
149764
149814
149821
149777
149637
149657
149784
149826
149835
149799
149682
149707
149813
149839
149807
149753
149615
149675
149797
149839
149851
149816
149705
149725
149825
149858
149868
149841
149748
149767
149850
149869
149845
149803
149690
149756
149849
149877
149883
149858
149772
149797
149871
149891
149894
149883
149821
149767
149851
149880
149907
149892
149833
149845
149898
149912
149921
149914
149874
149888
149918
149919
149924
149912
149867
149912
149938
149940
149935
149943
149927
149922
149945
149947
149950
149963
149960
149984
149973
149949
149947
149972
149975
150021
149996
149965
149911
149951
149982
150046
149999
149960
149972
150012
150041
149845
149890
149876
149756
149748
149624
149408
149583
149625
149477
149372
149173
149259
149411
149457
149373
149284
149095
149188
149356
149415
149381
149298
149109
149031
149220
149304
149357
149284
149071
149019
149221
149307
149380
149312
149111
149071
149270
149355
149287
149196
148996
149085
149292
149362
149341
149257
149058
148979
149183
149277
149352
149285
149075
149043
149249
149331
149265
149170
148960
149077
149284
149347
149328
149247
149042
148950
149160
149257
149342
149282
149084
149043
149243
149323
149252
149157
148951
149075
149276
149336
149321
149244
149046
148952
149156
149250
149332
149272
149073
149041
149239
149316
149249
149157
148952
149081
149275
149333
149317
149244
149045
148998
149201
149286
149220
149117
148900
149035
149250
149311
149294
149210
148991
148893
149117
149218
149305
149241
149023
148984
149200
149285
149212
149113
148891
149023
149240
149301
149283
149201
148983
148884
149106
149206
149296
149232
149012
148982
149197
149279
149205
149104
148884
149011
149228
149292
149274
149191
148973
148878
149094
149196
149289
149224
149009
148977
149189
149272
149197
149095
148881
149006
149222
149286
149264
149178
148960
148862
149082
149184
149280
149217
148992
148915
149136
149225
149300
149242
149035
149000
149202
149280
149207
149114
148912
149031
149234
149295
149277
149199
148995
148918
149121
149212
149296
149237
149033
149000
149203
149280
149204
149110
148904
149022
149229
149290
149270
149190
148980
148898
149106
149202
149289
149229
149022
148983
149191
149271
149187
149088
148874
148991
149215
149276
149216
149130
148909
149013
149231
149290
149274
149198
148989
148899
149109
149203
149284
149226
149013
148972
149187
149266
149186
149089
148873
148987
149214
149274
149212
149124
148900
149027
149238
149293
149277
149203
148998
148897
149106
149201
149284
149225
149015
148972
149185
149264
149185
149087
148871
148979
149209
149271
149208
149118
148890
149022
149234
149288
149271
149195
148985
148883
149099
149194
149275
149215
148996
148958
149177
149257
149172
149071
148844
148961
149200
149261
149198
149106
148870
149001
149223
149280
149261
149181
148965
148853
149076
149176
149264
149203
148967
148881
149114
149204
149274
149214
148987
148947
149170
149251
149170
149069
148846
148957
149196
149260
149205
149114
148884
148995
149218
149277
149253
149171
148951
148848
149069
149171
149257
149194
148956
148866
149103
149196
149268
149208
148978
148934
149160
149243
149160
149057
148826
148963
149201
149257
149197
149107
148867
148975
149209
149267
149244
149163
148931
148813
149052
149155
149245
149183
148928
148833
149081
149179
149252
149188
148935
148848
149092
149186
149265
149210
148978
148938
149164
149245
149160
149057
148827
148932
149181
149246
149185
149091
148845
148947
149193
149255
149231
149145
148906
148786
149034
149142
149233
149166
148896
148794
149060
149162
149246
149184
148920
148837
149093
149186
149256
149194
148947
148902
149145
149231
149143
149036
148792
148893
149163
149231
149163
149064
148800
148914
149180
149243
149175
149079
148819
148931
149186
149249
149223
149134
148885
148784
149033
149141
149233
149169
148898
148793
149062
149164
149237
149175
148903
148814
149077
149173
149246
149184
148930
148885
149134
149222
149131
149020
148765
148878
149154
149223
149151
149047
148773
148894
149172
149237
149174
149074
148805
148922
149183
149245
149221
149129
148873
148745
149011
149125
149218
149152
148861
148747
149041
149146
149223
149161
148867
148767
149053
149154
149231
149167
148894
148843
149111
149205
149107
148988
148713
148852
149145
149214
149142
149033
148744
148859
149154
149223
149148
149043
148760
148867
149157
149224
149156
149055
148774
148893
149167
149231
149206
149113
148848
148715
148988
149108
149205
149132
148828
148714
149016
149129
149212
149138
148823
148735
149032
149142
149221
149152
148852
148758
149045
149152
149227
149162
148882
148826
149105
149201
149101
148980
148696
148814
149127
149200
149124
149009
148698
148817
149136
149209
149132
149020
148715
148835
149144
149214
149140
149029
148731
148868
149157
149224
149200
149103
148820
148681
148970
149097
149198
149123
148801
148679
149001
149120
149204
149133
148804
148685
149005
149123
149203
149131
148810
148705
149017
149130
149212
149142
148843
148784
149079
149184
149077
148946
148639
148762
149104
149183
149104
148982
148646
148781
149123
149198
149115
148993
148667
148785
149122
149199
149117
148999
148674
148795
149126
149201
149127
149013
148697
148821
149134
149208
149181
149074
148767
148611
148929
149067
149175
149093
148743
148606
148959
149089
149181
149102
148741
148625
148969
149097
149191
149113
148766
148645
148981
149106
149193
149115
148774
148665
148996
149116
149201
149126
148806
148737
149058
149170
149059
148921
148595
148730
149086
149169
149083
148952
148603
148731
149095
149178
149089
148960
148610
148735
149097
149179
149093
148965
148622
148758
149107
149186
149108
148986
148647
148781
149115
149192
149165
149052
148725
148552
148895
149042
149157
149071
148692
148553
148931
149069
149163
149078
148686
148549
148932
149069
149165
149083
148700
148564
148938
149073
149165
149082
148708
148598
148956
149084
149174
149094
148743
148683
149027
149146
149019
148866
148509
148662
149051
149140
149049
148906
148518
148654
149058
149147
149051
148911
148519
148673
149066
149151
149055
148916
148533
148678
149065
149151
149066
148931
148557
148707
149073
149156
149125
148999
148637
148452
148831
148991
149115
149020
148605
148450
148865
149017
149119
149024
148596
148460
148872
149020
149122
149030
148605
148467
148875
149023
149121
149028
148608
148483
148881
149026
149125
149034
148629
148503
148895
149036
149131
149043
148667
148596
148971
149101
148961
148797
148408
148571
148993
149090
148993
148839
148419
148571
149004
149099
148995
148843
148426
148577
149003
149098
148999
148850
148445
148587
149003
149099
149008
148864
148464
148620
149015
149106
149073
148939
148546
148354
148759
148929
149057
148954
148509
148347
148790
148953
149066
148969
148514
148351
148798
148958
149061
148964
148511
148371
148804
148959
149061
148964
148522
148387
148815
148965
149061
148965
148546
148464
148882
149025
148877
148699
148274
148435
148902
149013
148907
148736
148275
148441
148917
149024
148912
148743
148285
148460
148923
149026
148916
148752
148301
148466
148922
149024
148926
148768
148324
148503
148933
149030
148996
148849
148416
148199
148644
148833
148972
148863
148380
148190
148677
148857
148971
148858
148355
148192
148676
148853
148967
148856
148362
148210
148684
148856
148971
148864
148382
148222
148696
148864
148974
148873
148416
148330
148790
148943
148768
148570
148096
148297
148805
148921
148806
148619
148112
148304
148819
148932
148813
148632
148130
148327
148824
148929
148804
148625
148125
148310
148802
148914
148875
148711
148217
147981
148489
148700
148855
148730
148180
147985
148535
148733
148864
148743
148181
147991
148539
148734
148864
148744
148201
148018
148553
148744
148868
148756
148246
148139
148659
148835
148633
148410
147879
148100
148671
148801
148684
148478
147906
148110
148688
148810
148651
148444
147873
148089
148662
148790
148668
148469
147905
148124
148673
148800
148757
148569
148013
147757
148319
148558
148730
148589
147982
147751
148366
148590
148741
148609
147995
147783
148386
148602
148746
148612
148008
147799
148398
148610
148748
148625
148052
147938
148526
148718
148490
148247
147654
147854
148502
148655
148495
148259
147609
147874
148521
148663
148519
148293
147654
147890
148530
148673
148533
148310
147679
147929
148540
148677
148635
148427
147805
147507
148140
148404
148598
148446
147782
147545
148217
148458
148616
148473
147803
147563
148234
148466
148620
148487
147849
147748
148394
148597
148301
148010
147336
147623
148325
148499
148342
148083
147377
147652
148366
148528
148371
148117
147412
147682
148385
148540
148388
148142
147447
147725
148397
148550
148506
148278
147596
147275
147959
148249
148461
148291
147573
147315
148045
148312
148487
148334
147603
147344
148077
148330
148479
148354
147705
147431
148151
148391
148130
147831
147101
147418
148185
148361
148205
147930
147156
147446
148226
148398
148238
147969
147193
147499
148250
148416
148367
148115
147347
147004
147769
148090
148320
148132
147343
147055
147869
148165
148358
148190
147410
147252
148062
148323
148018
147686
146873
147176
148026
148221
147983
147658
146787
147110
147994
148204
148032
147724
146851
147201
148048
148241
148192
147901
147036
146648
147524
147889
148153
147939
147034
146714
147649
147980
148200
148012
147125
146923
147851
148151
147810
147434
146502
146929
147876
148090
147940
147602
146635
146969
147893
148092
147964
147627
146642
146207
147220
147630
147946
147709
146693
146342
147383
147754
148010
147790
146806
146600
147627
147968
147593
147166
146136
146585
147652
147908
147712
147325
146238
146717
147749
147967
147916
147563
146480
145998
147084
147524
147822
147620
146607
145953
147089
147505
147767
147500
146407
146177
147310
147684
147347
146885
145741
146244
147416
147699
147482
147055
145861
146384
147519
147773
147731
147342
146164
145612
146795
147287
147639
147367
146183
145797
147027
147459
147701
147514
146452
146165
147311
147661
147085
146557
145300
145907
147129
147445
147373
146944
145653
145162
146484
147020
147411
147097
145763
145310
146687
147173
147508
147233
145954
145700
147039
147466
146992
146448
145087
145796
147081
147368
147431
147011
145631
144832
146271
146865
147123
146708
145197
144866
146451
146995
146548
145904
144312
145100
146665
147046
146776
146201
144604
145386
146851
147186
147166
146667
145141
144477
146009
146637
147048
146732
145323
145177
146689
147145
146472
145815
144215
144602
146270
146740
146590
145989
144235
143685
145451
146157
146699
146283
144628
144341
146106
146692
146194
145460
143668
144653
146311
146697
146763
146194
144392
143718
145505
146194
146429
145975
144239
143499
145540
146209
145961
145191
143025
142333
144572
145469
146145
145651
143603
143267
145480
146186
145635
144738
142496
143878
145785
146173
146438
145940
143859
142209
144727
145652
144779
143715
141117
142595
144930
145553
145558
144781
142213
141772
144488
145446
144885
143736
140971
142946
145118
145563
145716
145021
142420
140566
143669
144804
143907
142667
139498
141587
144263
144919
145011
144181
141187
140795
144069
145075
145185
144148
140806
137856
141596
143299
144220
143029
139611
139288
142959
144196
144169
142824
138782
138717
143086
144408
144018
142224
137079
135812
141174
143239
142070
139836
134722
138741
142579
143730
143713
142307
137970
136781
141657
143385
143002
141231
136024
135624
141037
142794
142650
140598
134776
134358
140358
142551
142535
140205
134089
133815
140020
142511
142449
139801
133539
133290
139573
142363
142267
139348
133076
132895
139128
142164
142056
138917
132741
132609
138714
141943
141827
138521
132500
132409
138338
141709
141590
138166
132337
132280
138004
141470
141350
137853
132237
132205
137713
141229
141109
137582
132184
132172
137462
140990
140872
137351
132168
132171
137249
140755
140641
137156
132182
132197
137070
140528
140418
136992
132218
132243
136922
140309
140204
136858
132273
132305
136800
140101
140002
136749
132340
132378
136703
139904
139812
136663
132418
132459
136627
139721
139636
136595
132502
132545
136566
139552
139474
136542
132589
132634
136520
139398
139327
136501
132679
132723
136484
139258
139194
136470
132768
132812
136458
139133
139076
136449
132856
132899
136440
139021
138970
136434
132942
132983
136428
138922
138878
136424
133025
133064
136421
138835
138797
136419
133104
133142
136417
138760
138727
136417
133180
133215
136417
138695
138667
136419
133251
133284
136420
138640
138616
136423
133317
133348
136426
138592
138572
136430
133379
133408
136433
138552
138535
136438
133437
133463
136443
138518
138504
136448
133490
133514
136453
138490
138479
136460
133539
133561
136465
138467
138458
136472
133584
133605
136478
138448
138440
136485
133626
133645
136491
138432
138427
136499
133664
133682
136505
138420
138415
136513
133700
133717
136519
138410
138407
136526
133734
133749
136533
138402
138400
136540
133764
133779
136546
138396
138394
136553
133793
133806
136559
138391
138390
136566
133820
133832
136572
138388
138387
136579
133844
133856
136585
138385
138385
136591
133867
133878
136597
138384
138384
136603
133889
133899
136609
138383
138383
136615
133909
133919
136620
138383
138384
136627
133928
133937
136632
138384
138385
136638
133946
133954
136643
138385
138387
136649
133963
133971
136655
138388
138390
136661
133979
133987
136666
138390
138393
136672
133995
134002
136677
138394
138397
136683
134010
134017
136688
138398
138401
136695
134025
134031
136700
138403
138406
136706
134039
134045
136711
138408
138412
136717
134053
134059
136722
138413
138417
136729
134066
134073
136734
138419
138423
136740
134080
134086
136745
138425
138430
136751
134093
134099
136757
138432
138436
136763
134106
134112
136768
138438
138443
136774
134119
134125
136780
138445
138451
136786
134131
134137
136791
138453
138458
136798
134144
134150
136803
138461
138466
136809
134156
134162
136814
138469
138474
136821
134168
134174
136826
138477
138483
136832
134180
134186
136838
138485
138491
136844
134192
134198
136849
138494
138500
136855
134204
134209
136861
138503
138509
136867
134215
134220
136872
138512
138518
136878
134226
134231
136884
138521
138527
136890
134237
134242
136895
138530
138536
136901
134248
134253
136906
138539
138545
136912
134258
134263
136918
138548
138555
136924
134268
134273
136929
138558
138564
136935
134278
134283
136940
138567
138574
136946
134288
134292
136951
138577
138584
136957
134297
134302
136962
138587
138593
136968
134307
134311
136973
138597
138603
136978
134316
134320
136984
138607
138613
136989
134325
134329
136994
138616
138623
137000
134334
134338
137005
138626
138633
137010
134342
134346
137015
138636
138642
137021
134350
134354
137026
138646
138652
137031
134358
134362
137036
138656
138662
137041
134366
134370
137046
138665
138672
137051
134373
134377
137056
138675
138681
137061
134381
134384
137065
138684
138691
137070
134388
134391
137075
138694
138700
137080
134395
134398
137084
138703
138710
137089
134402
134405
137094
138713
138719
137099
134408
134411
137103
138722
138729
137108
134415
134418
137113
138732
138738
137118
134421
134424
137122
138741
138748
137127
134428
134431
137132
138751
138758
137137
134434
134438
137141
138761
138768
137146
134441
134444
137151
138771
138778
137156
134447
134450
137161
138781
138788
137166
134454
134457
137170
138792
138798
137175
134460
134463
137180
138802
138808
137185
134466
134469
137189
138812
138818
137194
134472
134474
137198
138822
138828
137203
134478
134480
137207
138831
138839
137212
134483
134486
137217
138842
138850
137223
134492
134495
137228
138854
138859
137233
134500
134503
137234
138858
138848
137225
134503
134499
137213
138834
138878
137233
134514
134589
137330
139028
139121
137403
134647
141660
144265
145940
146309
146454
147100
147437
147571
147712
148106
148362
148636
148844
149008
149140
149242
149317
149368
149401
149423
149437
149447
149453
149457
149460
149461
149462
149463
149463
149463
149463
149462
149462
149462
149458
149454
149449
149447
149445
149444
149443
149443
149443
149443
149444
149445
149446
149448
149452
149455
149456
149453
149445
149436
149426
149416
149406
149396
149386
149376
149366
149357
149347
149338
149330
149322
149315
149309
149304
149300
149296
149295
149294
149294
149296
149299
149304
149309
149316
149323
149332
149342
149352
149362
149373
149385
149396
149407
149419
149430
149440
149450
149460
149469
149478
149486
149493
149500
149506
149512
149517
149522
149526
149529
149532
149534
149536
149537
149537
149537
149537
149535
149534
149532
149530
149527
149524
149521
149518
149515
149511
149508
149504
149501
149498
149495
149492
149490
149488
149486
149484
149482
149481
149479
149478
149477
149476
149476
149475
149475
149475
149475
149475
149476
149478
149479
149482
149485
149488
149493
149498
149503
149510
149517
149525
149533
149542
149552
149562
149572
149584
149595
149607
149619
149631
149644
149656
149669
149682
149695
149707
149720
149733
149745
149757
149770
149782
149794
149805
149817
149828
149838
149849
149859
149868
149876
149884
149892
149898
149904
149910
149914
149918
149922
149925
149927
149929
149931
149933
149935
149936
149938
149941
149944
149950
149957
149966
149980
149981
149982
149984
149989
150001
150011
150016
150016
150015
150013
150012
150011
150010
150010
150009
150008
150008
150007
150007
150006
150006
150005
150005
150004
150003
150003
150002
150001
150001
150000
149999
149999
149998
149997
149997
149996
149996
149995
149994
149994
149993
149993
149992
149992
149992
149991
149991
149991
149991
149990
149990
149990
149990
149990
149990
149990
149989
149989
149989
149989
149989
149988
149988
149987
149987
149986
149986
149985
149985
149984
149984
149983
149982
149982
149981
149980
149979
149978
149977
149976
149976
149978
149980
149982
149985
149991
150000
150003
150002
149995
149989
149982
149976
149970
149964
149957
149951
149944
149939
149932
149927
149921
149916
149910
149905
149899
149895
149889
149885
149880
149876
149870
149867
149862
149859
149854
149852
149847
149845
149840
149839
149834
149833
149828
149827
149823
149822
149818
149817
149813
149812
149808
149808
149804
149804
149801
149800
149797
149797
149794
149794
149791
149791
149788
149788
149785
149785
149782
149782
149779
149779
149776
149776
149773
149773
149770
149769
149766
149766
149762
149762
149758
149757
149753
149752
149748
149746
149742
149741
149737
149736
149732
149731
149727
149726
149722
149721
149718
149717
149713
149712
149709
149708
149705
149704
149701
149700
149696
149696
149692
149692
149687
149685
149680
149678
149671
149669
149663
149660
149653
149650
149643
149640
149632
149629
149621
149617
149609
149606
149598
149594
149586
149582
149574
149570
149562
149558
149550
149546
149539
149535
149527
149524
149517
149514
149507
149504
149498
149495
149489
149487
149482
149480
149475
149474
149470
149469
149465
149466
149462
149463
149461
149463
149461
149464
149463
149466
149465
149469
149470
149474
149475
149480
149482
149488
149491
149498
149500
149511
149524
149536
149564
149560
149553
149564
149543
149542
149553
149533
149533
149545
149525
149526
149538
149518
149520
149532
149513
149515
149528
149509
149511
149525
149506
149509
149523
149505
149508
149523
149505
149509
149523
149506
149511
149526
149508
149514
149529
149512
149519
149534
149517
149525
149540
149524
149531
149547
149531
149539
149555
149539
149547
149564
149548
149557
149574
149557
149567
149584
149568
149577
149595
149579
149589
149607
149590
149600
149618
149602
149612
149630
149613
149624
149643
149625
149636
149655
149637
149647
149666
149649
149659
149678
149660
149670
149690
149671
149681
149701
149682
149692
149711
149692
149702
149721
149702
149711
149731
149711
149720
149741
149720
149729
149750
149728
149736
149757
149735
149742
149763
149740
149747
149768
149745
149753
149775
149751
149758
149780
149756
149764
149786
149761
149769
149792
149767
149775
149797
149772
149780
149803
149777
149785
149808
149782
149790
149813
149787
149795
149818
149792
149801
149823
149798
149806
149828
149802
149810
149832
149807
149814
149835
149811
149818
149838
149814
149821
149841
149817
149823
149843
149819
149825
149845
149821
149827
149846
149823
149829
149848
149825
149831
149850
149828
149833
149851
149830
149835
149853
149832
149837
149855
149834
149840
149857
149836
149842
149858
149839
149844
149861
149842
149847
149863
149845
149850
149866
149848
149854
149869
149852
149857
149872
149856
149861
149876
149860
149865
149880
149865
149870
149884
149869
149875
149888
149875
149880
149893
149880
149886
149898
149887
149892
149904
149894
149899
149911
149901
149907
149918
149909
149915
149925
149917
149923
149932
149926
149932
149940
149935
149941
149948
149945
149950
149956
149955
149960
149965
149965
149970
149974
149975
149981
149983
149986
149992
149992
149997
149986
149979
149972
149965
149957
149950
149943
149936
149930
149924
149918
149912
149907
149903
149899
149895
149892
149889
149886
149884
149881
149879
149878
149876
149875
149874
149873
149872
149871
149870
149869
149868
149867
149866
149864
149862
149859
149855
149850
149846
149841
149836
149831
149825
149819
149813
149808
149802
149796
149791
149787
149781
149773
149765
149757
149748
149739
149729
149718
149707
149696
149684
149673
149661
149649
149638
149628
149618
149609
149602
149595
149589
149584
149580
149577
149576
149576
149578
149580
149584
149590
149596
149605
149614
149624
149628
149577
149572
149576
149584
149630
149637
149633
149662
149665
149671
149667
149659
149649
149639
149630
149622
149616
149611
149608
149605
149604
149604
149606
149609
149613
149618
149632
149627
149623
149621
149620
149621
149623
149626
149630
149635
149642
149651
149660
149671
149681
149686
149689
149693
149689
149701
149704
149707
149703
149695
149685
149674
149680
149691
149703
149709
149712
149714
149710
149707
149711
149711
149707
149698
149687
149676
149665
149670