/*--------------------------------*- C++ -*----------------------------------*\
| =========                 |                                                 |
| \\      /  F ield         | OpenFOAM: The Open Source CFD Toolbox           |
|  \\    /   O peration     | Version:  v2006                                 |
|   \\  /    A nd           | Website:  www.openfoam.com                      |
|    \\/     M anipulation  |                                                 |
\*---------------------------------------------------------------------------*/
FoamFile
{
    version     2.0;
    format      ascii;
    class       volScalarField;
    location    "0.013";
    object      p;
}
// * * * * * * * * * * * * * * * * * * * * * * * * * * * * * * * * * * * * * //

dimensions      [1 -1 -2 0 0 0 0];


internalField   nonuniform List<scalar> 
16277
(
147909
147908
147917
147918
147918
147918
147917
147918
147922
147926
147931
147937
147943
147950
147957
147965
147973
147982
147990
148000
148009
148019
148029
148040
148051
148062
148074
148086
148098
148111
148123
148136
148150
148163
148177
148191
148205
148219
148234
148248
148263
148277
148292
148307
148322
148337
148351
148366
148381
148396
148410
148425
148439
148454
148468
148482
148495
148509
148522
148536
148549
148561
148574
148586
148598
148609
148621
148632
148642
148653
148663
148673
148682
148691
148700
148708
148716
148723
148731
148738
148744
148750
148756
148761
148764
148767
148768
148768
148767
148770
148769
148773
148777
148786
148803
148813
148820
148806
148806
148802
148796
148796
148797
148787
148787
148787
148778
148778
148778
148770
148770
148770
148762
148762
148762
148756
148756
148756
148750
148750
148749
148744
148745
148745
148739
148739
148739
148735
148735
148735
148731
148731
148730
148727
148727
148727
148724
148723
148723
148721
148721
148721
148718
148718
148718
148716
148716
148716
148714
148713
148713
148712
148712
148712
148710
148710
148710
148709
148709
148710
148708
148708
148708
148708
148708
148708
148708
148707
148707
148707
148708
148708
148708
148707
148707
148708
148708
148708
148709
148708
148708
148710
148710
148710
148711
148711
148711
148713
148713
148713
148715
148715
148715
148718
148718
148718
148720
148720
148720
148723
148724
148724
148727
148726
148726
148730
148731
148731
148734
148734
148734
148738
148739
148739
148743
148742
148742
148747
148748
148748
148752
148752
148752
148758
148758
148758
148763
148763
148763
148769
148769
148770
148775
148775
148775
148782
148782
148782
148788
148788
148788
148796
148796
148796
148803
148803
148802
148810
148811
148811
148818
148818
148818
148826
148827
148827
148835
148835
148834
148843
148844
148844
148852
148852
148852
148862
148862
148862
148871
148871
148871
148881
148881
148881
148891
148890
148890
148901
148901
148901
148911
148911
148911
148922
148922
148922
148932
148932
148932
148943
148944
148944
148955
148954
148954
148966
148966
148966
148977
148977
148977
148989
148989
148990
149001
149001
149001
149013
149013
149013
149025
149025
149025
149037
149037
149038
149049
149049
149049
149061
149062
149062
149074
149073
149073
149085
149086
149086
149097
149097
149097
149109
149109
149110
149121
149120
149120
149132
149132
149133
149143
149143
149143
149155
149155
149155
149166
149166
149165
149177
149177
149177
149188
149187
149187
149198
149198
149199
149209
149208
149208
149218
149219
149219
149228
149228
149228
149237
149237
149238
149246
149246
149246
149254
149254
149254
149262
149261
149261
149269
149269
149269
149275
149275
149275
149281
149281
149281
149286
149285
149285
149290
149290
149290
149293
149293
149293
149296
149296
149296
149297
149297
149297
149298
149298
149298
149298
149298
149298
149297
149297
149298
149296
149296
149296
149293
149293
149293
149289
149289
149289
149284
149284
149284
149278
149278
149278
149272
149272
149272
149264
149264
149264
149256
149256
149256
149247
149247
149247
149239
149239
149239
149229
149229
149229
149220
149220
149220
149209
149210
149210
149200
149200
149200
149189
149189
149189
149179
149179
149179
149168
149168
149169
149158
149158
149158
149147
149147
149148
149137
149137
149137
149127
149127
149127
149117
149117
149117
149107
149107
149107
149097
149097
149097
149087
149087
149087
149078
149078
149078
149069
149069
149069
149060
149060
149060
149051
149051
149051
149043
149043
149043
149034
149035
149035
149027
149027
149027
149019
149019
149019
149012
149012
149012
149005
149005
149005
148999
148999
148999
148992
148992
148992
148987
148987
148987
148981
148981
148981
148976
148976
148976
148970
148970
148970
148966
148966
148966
148961
148961
148961
148958
148958
148958
148954
148954
148954
148951
148951
148951
148948
148948
148948
148945
148945
148945
148943
148943
148943
148942
148942
148942
148940
148940
148940
148940
148940
148940
148939
148939
148939
148939
148939
148939
148939
148939
148939
148940
148940
148940
148941
148941
148941
148943
148943
148943
148944
148944
148944
148947
148947
148947
148949
148949
148949
148952
148952
148952
148955
148955
148955
148959
148959
148959
148962
148962
148962
148967
148967
148967
148970
148970
148970
148975
148975
148975
148979
148979
148979
148985
148985
148985
148999
148999
148998
148980
148978
148979
148986
148994
148998
148999
148998
148999
148997
148999
148998
148999
148998
148999
148998
148999
148999
148999
148999
149000
149000
149000
149001
149002
149002
149003
149003
148999
148999
148999
148994
148994
148994
148990
148990
148990
148988
148988
148987
148986
148986
148986
148984
148983
148983
148981
148981
148981
148979
148979
148979
148977
148977
148977
148975
148975
148975
148973
148973
148973
148971
148971
148971
148968
148968
148968
148966
148966
148966
148964
148964
148964
148962
148962
148962
148960
148960
148960
148958
148958
148958
148956
148957
148957
148955
148955
148955
148953
148953
148953
148951
148951
148951
148950
148950
148950
148948
148948
148948
148947
148947
148947
148946
148946
148946
148945
148945
148945
148944
148944
148944
148943
148943
148943
148942
148942
148942
148941
148941
148941
148940
148940
148940
148940
148940
148940
148939
148939
148939
148939
148939
148939
148938
148938
148938
148938
148938
148938
148938
148938
148938
148938
148938
148938
148937
148937
148937
148938
148938
148938
148938
148938
148938
148938
148938
148938
148938
148938
148938
148939
148939
148939
148939
148939
148939
148940
148940
148940
148941
148941
148941
148941
148941
148941
148942
148942
148942
148943
148943
148943
148944
148944
148944
148946
148946
148946
148947
148947
148947
148948
148948
148948
148950
148950
148950
148951
148951
148951
148953
148953
148953
148954
148954
148954
148956
148956
148956
148958
148958
148958
148960
148960
148960
148961
148961
148961
148963
148963
148963
148965
148965
148965
148967
148967
148967
148969
148969
148969
148971
148971
148971
148973
148973
148973
148975
148975
148975
148977
148977
148977
148979
148979
148979
148981
148981
148981
148983
148983
148983
148986
148986
148986
148988
148988
148988
148990
148990
148990
148992
148992
148992
148994
148994
148994
148996
148996
148996
148998
148998
148998
149000
149000
149000
149001
149001
149002
149003
149003
149003
149005
149005
149005
149006
149006
149006
149007
149007
149008
149009
149009
149008
149009
149009
149010
149010
149010
149010
149010
149010
149010
149009
149008
149008
149006
149007
149008
149008
149007
149006
149006
149007
149008
149011
149009
149008
149012
149013
149015
149020
149019
149017
149023
149024
149026
149031
149030
149029
149034
149036
149037
149045
149044
149043
149051
149052
149053
149059
149058
149057
149064
149065
149066
149073
149071
149070
149086
149086
149087
149101
149107
149104
149061
149060
149066
149089
149088
149089
149102
149102
149103
149111
149111
149110
149119
149119
149120
149128
149128
149127
149134
149135
149136
149146
149146
149145
149152
149153
149154
149163
149163
149163
149168
149169
149171
149184
149183
149181
149202
149204
149199
149174
149169
149169
149197
149196
149197
149209
149209
149210
149217
149218
149219
149230
149229
149229
149237
149238
149239
149249
149247
149245
149264
149264
149265
149277
149280
149277
149257
149258
149261
149284
149284
149284
149297
149297
149298
149312
149312
149312
149321
149322
149324
149340
149338
149334
149358
149360
149358
149348
149346
149345
149366
149367
149368
149387
149387
149388
149398
149400
149401
149421
149420
149417
149439
149441
149438
149434
149430
149428
149465
149464
149463
149483
149482
149481
149500
149504
149506
149528
149531
149529
149526
149529
149533
149565
149568
149571
149587
149590
149590
149621
149623
149621
149652
149653
149649
149680
149679
149676
149723
149723
149719
149753
149762
149763
149798
149799
149795
149828
149843
149848
149908
149899
149874
149904
149928
149933
150012
149989
149953
149894
149944
149976
149932
149885
149842
149624
149652
149658
149114
149201
149220
148834
148788
148636
148288
148447
148510
148338
148240
148094
148161
148211
148243
148181
148125
148046
148122
148154
148178
148163
148129
148082
148084
148104
148123
148137
148119
148092
148117
148123
148136
148166
148155
148138
148131
148145
148160
148139
148129
148124
148150
148165
148173
148174
148166
148162
148149
148150
148157
148189
148184
148173
148178
148181
148186
148171
148165
148164
148206
148212
148211
148203
148199
148196
148175
148176
148182
148225
148230
148227
148206
148209
148213
148190
148184
148182
148237
148240
148235
148226
148226
148228
148194
148195
148201
148241
148245
148242
148233
148231
148232
148210
148206
148207
148257
148258
148252
148241
148242
148242
148228
148227
148228
148215
148211
148211
148267
148268
148260
148242
148242
148243
148212
148211
148215
148256
148262
148259
148245
148244
148243
148220
148217
148220
148266
148267
148260
148243
148243
148243
148210
148209
148214
148257
148264
148261
148252
148247
148244
148215
148212
148215
148255
148258
148252
148236
148237
148238
148207
148205
148208
148252
148259
148257
148246
148240
148237
148207
148204
148208
148247
148249
148243
148223
148223
148223
148195
148193
148196
148239
148247
148246
148210
148209
148211
148231
148238
148237
148213
148211
148211
148183
148179
148181
148227
148229
148223
148208
148211
148214
148193
148185
148184
148214
148220
148218
148198
148195
148194
148161
148157
148159
148202
148204
148198
148183
148185
148186
148167
148161
148160
148194
148203
148202
148174
148172
148170
148132
148127
148129
148172
148174
148169
148140
148138
148138
148170
148172
148166
148152
148157
148166
148126
148120
148121
148149
148155
148153
148128
148127
148126
148093
148090
148092
148131
148134
148128
148099
148096
148096
148144
148142
148131
148110
148114
148122
148072
148069
148072
148103
148110
148109
148084
148082
148081
148047
148044
148047
148084
148087
148081
148054
148051
148051
148103
148099
148086
148061
148065
148071
148022
148019
148022
148051
148056
148054
148035
148032
148030
147992
147987
147989
148034
148036
148030
148000
147998
147998
148045
148042
148030
148006
148010
148017
147965
147961
147964
147995
148001
148000
147957
147957
147960
147974
147978
147974
147957
147955
147954
147925
147923
147926
147971
147973
147964
147936
147938
147945
147952
147954
147947
147920
147921
147923
147886
147881
147883
147913
147918
147916
147875
147876
147879
147898
147904
147901
147881
147880
147878
147850
147848
147852
147910
147907
147894
147853
147851
147851
147867
147868
147861
147833
147835
147837
147792
147789
147793
147828
147836
147834
147790
147790
147793
147809
147813
147809
147780
147779
147781
147812
147825
147830
147797
147790
147785
147742
147740
147746
147770
147773
147767
147732
147730
147731
147746
147749
147744
147721
147723
147727
147683
147680
147684
147719
147726
147723
147685
147685
147688
147715
147726
147728
147684
147679
147679
147685
147691
147689
147661
147658
147657
147616
147614
147619
147644
147648
147643
147610
147608
147610
147633
147634
147627
147592
147588
147586
147619
147621
147614
147594
147598
147602
147575
147565
147562
147589
147598
147598
147542
147542
147546
147554
147560
147557
147515
147514
147518
147532
147538
147536
147511
147508
147507
147467
147464
147467
147505
147507
147501
147468
147465
147465
147505
147503
147493
147457
147457
147461
147475
147476
147467
147437
147439
147443
147393
147389
147391
147422
147430
147429
147375
147377
147382
147396
147402
147400
147354
147355
147360
147378
147386
147383
147358
147356
147355
147318
147315
147319
147379
147376
147363
147320
147318
147321
147328
147330
147323
147279
147276
147278
147290
147293
147288
147251
147248
147248
147271
147274
147267
147241
147243
147247
147197
147194
147197
147231
147238
147237
147191
147190
147194
147212
147218
147215
147188
147180
147178
147188
147196
147195
147148
147145
147147
147156
147164
147163
147127
147126
147125
147079
147077
147082
147115
147117
147109
147069
147064
147064
147084
147087
147081
147043
147040
147042
147064
147066
147059
147023
147019
147019
147061
147059
147047
147018
147024
147031
146974
146967
146969
146998
147006
147006
146950
146949
146953
146961
146969
146967
146907
146910
146916
146929
146935
146932
146888
146888
146891
146908
146917
146916
146880
146879
146877
146831
146828
146831
146876
146878
146869
146830
146829
146834
146851
146851
146842
146793
146790
146792
146801
146804
146798
146754
146750
146750
146770
146773
146766
146727
146726
146729
146743
146746
146738
146707
146710
146714
146654
146650
146654
146688
146697
146695
146638
146639
146645
146662
146670
146668
146622
146618
146620
146633
146644
146644
146580
146580
146584
146592
146601
146599
146546
146545
146548
146556
146564
146562
146520
146521
146521
146471
146471
146477
146509
146512
146503
146456
146454
146456
146464
146468
146462
146415
146411
146412
146430
146434
146427
146385
146383
146386
146411
146411
146401
146356
146355
146356
146371
146373
146364
146329
146333
146338
146266
146263
146267
146304
146314
146314
146254
146252
146256
146260
146267
146264
146202
146203
146209
146221
146230
146229
146160
146164
146170
146184
146193
146190
146143
146140
146141
146149
146158
146155
146121
146117
146113
146050
146047
146052
146099
146098
146086
146034
146030
146031
146035
146040
146034
145982
145978
145978
146002
146003
145992
145938
145932
145929
145955
145957
145948
145900
145898
145899
145916
145918
145908
145868
145871
145874
145802
145798
145801
145836
145847
145846
145779
145778
145783
145786
145793
145789
145732
145730
145732
145738
145746
145743
145678
145677
145682
145688
145695
145691
145638
145634
145636
145640
145648
145645
145584
145584
145587
145592
145602
145600
145557
145553
145550
145476
145473
145479
145521
145521
145510
145454
145450
145451
145454
145459
145452
145391
145386
145386
145400
145404
145396
145341
145338
145340
145347
145352
145345
145294
145292
145294
145305
145308
145299
145256
145260
145265
145185
145178
145181
145210
145219
145216
145151
145151
145154
145159
145169
145168
145084
145087
145094
145095
145104
145102
145034
145031
145034
145029
145035
145031
144963
144962
144966
144963
144969
144960
144924
144922
144919
144843
144843
144851
144876
144880
144871
144814
144811
144813
144818
144822
144814
144749
144745
144746
144759
144760
144750
144682
144677
144675
144688
144690
144681
144619
144618
144620
144625
144626
144615
144559
144563
144567
144466
144460
144463
144487
144498
144497
144402
144407
144418
144413
144417
144409
144344
144343
144347
144353
144362
144357
144292
144289
144291
144286
144295
144292
144214
144214
144218
144218
144230
144229
144174
144168
144162
144060
144055
144059
144108
144106
144092
144021
144017
144017
144015
144018
144009
143925
143921
143923
143909
143912
143905
143817
143801
143787
143820
143829
143823
143779
143784
143788
143690
143686
143689
143720
143733
143732
143648
143647
143652
143644
143653
143648
143559
143559
143564
143559
143569
143566
143479
143480
143483
143477
143493
143495
143417
143413
143407
143282
143278
143284
143323
143322
143308
143226
143221
143223
143169
143181
143180
143074
143055
143041
143095
143101
143093
143031
143026
143025
143039
143045
143033
142973
142980
142986
142870
142860
142860
142884
142896
142895
142792
142794
142802
142794
142807
142806
142694
142694
142699
142675
142685
142679
142572
142572
142576
142561
142578
142579
142484
142479
142472
142310
142300
142305
142291
142308
142311
142230
142216
142207
142263
142266
142253
142176
142170
142167
142176
142181
142171
142085
142081
142082
142091
142093
142078
142003
142011
142016
141867
141860
141865
141894
141912
141914
141800
141798
141803
141762
141771
141765
141634
141634
141641
141613
141628
141627
141514
141506
141503
141299
141262
141238
141340
141350
141346
141280
141274
141272
141299
141303
141290
141199
141194
141193
141192
141196
141183
141078
141073
141073
141070
141075
141060
140969
140980
140987
140816
140804
140807
140826
140844
140845
140717
140716
140721
140663
140674
140668
140504
140505
140514
140448
140456
140451
140204
140259
140297
140164
140140
140118
140244
140252
140235
140159
140157
140158
140149
140157
140144
140035
140032
140035
140019
140026
140012
139910
139919
139925
139750
139735
139735
139751
139769
139768
139628
139631
139638
139581
139598
139596
139452
139440
139428
139180
139171
139187
139077
139107
139120
138970
138925
138890
138978
139002
139001
138930
138926
138927
138948
138954
138936
138848
138857
138863
138673
138661
138664
138680
138701
138702
138551
138552
138558
138502
138521
138519
138355
138352
138345
138106
138104
138121
138122
138121
138102
137943
137929
137923
137689
137738
137762
137588
137534
137472
137385
137415
137447
137544
137567
137558
137442
137446
137452
137436
137458
137456
137321
137318
137307
137059
137055
137071
137086
137088
137067
136924
136922
136927
136842
136848
136829
136614
136619
136623
136310
136290
136295
136203
136205
136194
135717
135830
135926
135931
135909
135861
135843
135858
135867
135720
135718
135723
135779
135786
135763
135636
135630
135630
135597
135603
135582
135402
135413
135420
135089
135073
135080
135065
135091
135096
134850
134854
134863
134640
134658
134650
134180
134239
134305
133875
133744
133610
133945
133981
133989
133958
133957
133951
133810
133807
133807
133815
133842
133840
133627
133636
133648
133555
133578
133574
133324
133320
133309
132923
132910
132923
132891
132886
132863
132598
132597
132608
131886
131949
132047
131859
131760
131641
131677
131724
131776
131623
131609
131598
131740
131748
131717
131569
131554
131542
131516
131521
131495
131246
131262
131268
130794
130775
130789
130665
130688
130692
130314
130308
130324
129639
129496
129388
129122
129282
129422
129347
129269
129195
129179
129198
129217
129319
129353
129344
129202
129201
129192
128821
128808
128815
128714
128708
128676
128306
128314
128324
127554
127552
127609
127100
126920
126729
126335
126595
126789
126669
126588
126457
126487
126536
126554
126678
126730
126723
126535
126531
126514
126024
126003
126007
125684
125690
125666
125087
124990
124940
123261
123664
123995
123588
123404
123184
123897
123944
123933
124016
124014
124012
123859
123853
123841
123383
123370
123381
122899
122930
122932
122156
121914
121640
120178
120715
121099
120855
120702
120473
121450
121464
121383
121420
121418
121416
121102
121098
121116
120312
120250
120280
117785
118269
118755
118933
118681
118502
119158
119140
119218
119223
119160
119157
118881
118912
119020
118269
117902
117371
117097
117454
117733
117742
117603
117471
118608
118658
118608
118779
118552
118114
117875
118427
118728
118929
118777
118531
119427
119573
119576
120422
120316
120033
121151
121272
121298
122154
122180
122145
122851
122869
122848
123389
123398
123384
123832
123843
123838
124232
124234
124227
124579
124585
124584
124900
124900
124895
125182
125186
125187
125450
125448
125444
125685
125689
125691
125914
125911
125908
126114
126117
126119
126310
126307
126304
126480
126483
126486
126650
126647
126645
126798
126800
126803
126946
126943
126941
127075
127077
127080
127206
127203
127201
127319
127321
127324
127436
127433
127431
127536
127538
127540
127640
127637
127636
127730
127731
127734
127823
127821
127819
127904
127905
127907
127988
127986
127985
128061
128062
128064
128138
128135
128134
128204
128205
128206
128273
128271
128270
128333
128334
128336
128397
128395
128394
128452
128453
128454
128510
128508
128507
128560
128561
128562
128613
128612
128611
128659
128660
128661
128708
128707
128706
128750
128751
128752
128795
128794
128794
128834
128835
128835
128875
128875
128874
128912
128912
128912
128949
128949
128948
128983
128983
128983
129018
129017
129017
129049
129049
129049
129081
129081
129080
129110
129110
129110
129140
129140
129139
129167
129167
129167
129194
129194
129194
129219
129219
129219
129245
129245
129244
129268
129268
129268
129292
129292
129292
129313
129314
129313
129335
129336
129335
129356
129356
129356
129376
129376
129376
129395
129395
129395
129414
129414
129414
129432
129432
129432
129450
129450
129450
129466
129467
129466
129483
129483
129483
129499
129499
129499
129514
129515
129514
129529
129529
129529
129544
129544
129544
129558
129558
129557
129571
129571
129571
129584
129584
129584
129597
129597
129597
129609
129609
129609
129622
129622
129622
129633
129633
129633
129645
129645
129645
129655
129655
129655
129666
129666
129666
129676
129676
129676
129687
129687
129687
129696
129696
129696
129706
129706
129706
129715
129715
129715
129725
129725
129724
129733
129733
129733
129742
129742
129742
129750
129750
129749
129758
129758
129758
129766
129766
129766
129774
129774
129774
129781
129781
129781
129789
129789
129789
129795
129795
129795
129803
129803
129803
129809
129809
129809
129816
129816
129816
129822
129822
129822
129829
129829
129828
129834
129834
129834
129841
129840
129840
129846
129846
129846
129852
129852
129852
129857
129857
129856
129862
129862
129862
129867
129867
129867
129872
129872
129872
129877
129876
129876
129882
129881
129881
129886
129886
129886
129891
129890
129890
129894
129894
129894
129899
129899
129899
129902
129902
129902
129907
129906
129906
129910
129910
129910
129914
129914
129914
129917
129917
129917
129921
129920
129920
129923
129923
129923
129927
129927
129927
129929
129929
129929
129932
129932
129932
129935
129935
129934
129937
129937
129937
129940
129940
129939
129942
129942
129942
129944
129944
129944
129946
129946
129946
129948
129948
129948
129950
129950
129950
129952
129951
129951
129953
129953
129953
129955
129955
129955
129956
129956
129956
129957
129957
129957
129959
129959
129959
129960
129960
129960
129961
129961
129961
129962
129962
129962
129963
129963
129963
129964
129964
129964
129965
129965
129965
129966
129966
129966
129967
129967
129967
129967
129967
129967
129968
129968
129968
129968
129968
129968
129969
129969
129969
129969
129969
129969
129970
129970
129970
129970
129970
129970
129970
129970
129970
129970
129970
129970
129970
129970
129970
129970
129970
129970
129970
129970
129970
129970
129970
129970
129970
129970
129970
129970
129970
129970
129970
129970
129970
129970
129969
129969
129969
129969
129969
129969
129969
129969
129969
129969
129969
129968
129968
129968
129968
129968
129968
129967
129967
129967
129967
129967
129967
129966
129966
129966
129966
129966
129966
129965
129965
129965
129965
129965
129965
129964
129964
129964
129963
129963
129963
129963
129963
129962
129962
129962
129962
129961
129961
129961
129961
129961
129961
129960
129960
129960
129959
129959
129960
129959
129959
129959
129958
129958
129958
129958
129958
129957
129957
129957
129957
129957
129957
129956
129956
129956
129956
129956
129956
129956
129956
129956
129956
129955
129955
129955
129955
129955
129955
129955
129955
129955
129956
129956
129956
129956
129956
129956
129957
129957
129957
129956
129956
129956
129954
129954
129954
129954
129953
129952
129963
129964
129964
129998
130000
130001
130028
130024
130021
130037
130065
130032
130010
129981
130028
130063
130018
129996
130020
130041
130032
130015
130005
130000
129998
129996
129995
129995
129995
129995
129995
129995
129994
129993
129992
129991
129991
129990
129989
129988
129988
129988
129986
129984
129982
129982
129984
129988
129993
129998
130005
130011
130018
130025
130032
130040
130048
130058
130068
130077
130082
130085
130088
130092
130098
130104
130112
130121
130132
130146
130162
130181
130204
130231
130264
130303
130348
130400
130461
130530
130610
130701
130803
130918
131047
131190
131349
131524
131715
131923
132148
132389
132647
132921
133209
133512
133826
134152
134487
134830
135180
135534
135891
136249
136607
136964
137318
137668
138013
138352
138685
139010
139328
139637
139937
140228
140510
140784
141047
141302
141547
141783
142011
142230
142440
142642
142836
143022
143201
143372
143537
143695
143847
143993
144133
144267
144396
144520
144640
144754
144864
144970
145071
145168
145262
145352
145438
145521
145601
145678
145752
145824
145893
145960
146025
146088
146150
146210
146268
146326
146382
146436
146490
146543
146594
146645
146695
146744
146792
146838
146885
146930
146974
147017
147060
147101
147141
147181
147219
147257
147293
147329
147363
147396
147428
147459
147490
147518
147546
147573
147599
147623
147646
147668
147688
147707
147725
147741
147755
147769
147780
147791
147800
147808
147815
147821
147826
147830
147834
147838
147841
147845
147850
147857
147865
147873
147888
147889
147890
147892
147897
147908
147919
147926
147931
147936
147942
147949
147956
147963
147971
147979
147987
147996
148006
148015
148025
148035
148046
148057
148068
148080
148091
148104
148116
148128
148141
148154
148168
148181
148195
148209
148223
148237
148251
148265
148280
148294
148309
148323
148338
148353
148368
148382
148397
148411
148426
148440
148454
148468
148482
148496
148509
148522
148535
148548
148560
148572
148584
148595
148607
148617
148628
148638
148647
148657
148666
148674
148683
148691
148698
148705
148712
148719
148725
148730
148736
148741
148745
148747
148748
148750
148755
148764
148767
148769
148762
148756
148750
148745
148740
148735
148731
148728
148724
148721
148718
148716
148714
148713
148711
148710
148709
148708
148708
148708
148708
148709
148709
148710
148711
148714
148715
148718
148721
148724
148727
148731
148734
148739
148743
148748
148753
148759
148764
148770
148776
148783
148789
148796
148803
148811
148819
148827
148835
148844
148853
148863
148871
148882
148891
148902
148911
148923
148933
148944
148955
148967
148978
148990
149001
149014
149025
149038
149050
149062
149074
149086
149098
149110
149121
149133
149144
149155
149166
149177
149188
149199
149209
149219
149228
149238
149246
149255
149262
149269
149275
149282
149286
149291
149293
149297
149297
149299
149298
149298
149296
149294
149289
149285
149278
149272
149264
149256
149247
149239
149229
149220
149209
149200
149189
149179
149168
149158
149147
149137
149126
149117
149106
149097
149087
149078
149068
149060
149051
149043
149034
149027
149019
149012
149005
148999
148992
148987
148980
148976
148970
148966
148961
148958
148953
148951
148947
148946
148943
148942
148940
148940
148939
148939
148939
148940
148941
148943
148944
148947
148949
148953
148955
148959
148962
148967
148970
148976
148980
148987
148996
148997
148997
148994
148988
148984
148980
148976
148974
148970
148967
148965
148962
148960
148957
148955
148953
148951
148949
148947
148946
148944
148943
148942
148941
148941
148940
148939
148940
148939
148939
148940
148940
148940
148942
148942
148943
148946
148946
148947
148951
148952
148953
148958
148959
148961
148966
148967
148970
148976
148977
148980
148987
148988
148991
148999
149000
149004
149012
149013
149018
149027
149028
149033
149043
149044
149050
149060
149061
149067
149078
149079
149086
149096
149098
149105
149116
149118
149125
149136
149139
149145
149157
149160
149166
149178
149181
149187
149199
149202
149208
149219
149222
149228
149238
149242
149246
149256
149260
149263
149272
149276
149278
149286
149290
149290
149295
149299
149297
149300
149303
149300
149301
149304
149299
149299
149302
149295
149294
149296
149288
149285
149286
149278
149273
149273
149264
149259
149258
149249
149242
149240
149231
149223
149221
149211
149203
149200
149190
149182
149178
149168
149160
149156
149146
149137
149133
149123
149114
149110
149100
149090
149086
149076
149066
149062
149051
149042
149037
149027
149018
149013
149003
148994
148989
148979
148970
148966
148957
148948
148944
148934
148926
148922
148913
148905
148901
148893
148885
148882
148873
148866
148863
148854
148847
148845
148837
148830
148828
148820
148814
148812
148805
148799
148797
148790
148785
148784
148777
148773
148771
148765
148761
148760
148754
148751
148750
148744
148741
148741
148736
148733
148733
148728
148726
148726
148722
148720
148721
148717
148715
148716
148713
148712
148713
148710
148710
148712
148709
148710
148711
148709
148710
148712
148710
148711
148713
148712
148714
148716
148715
148717
148720
148719
148722
148724
148725
148728
148731
148732
148736
148738
148740
148745
148746
148750
148755
148755
148761
148750
148744
148737
148731
148725
148721
148717
148715
148713
148713
148714
148715
148718
148723
148728
148735
148742
148751
148761
148772
148785
148798
148812
148828
148845
148862
148881
148901
148921
148943
148965
148988
149011
149035
149060
149084
149108
149131
149154
149177
149200
149222
149242
149261
149277
149291
149302
149309
149311
149311
149306
149296
149281
149263
149244
149223
149202
149180
149159
149137
149116
149096
149077
149059
149042
149026
149012
148999
148987
148976
148966
148958
148951
148946
148942
148940
148939
148940
148942
148945
148951
148957
148966
148975
148985
148994
148990
148993
148996
148994
148997
148993
148989
148993
148996
148993
148990
148985
148975
148966
148957
148950
148945
148941
148940
148939
148939
148941
148945
148950
148957
148965
148964
148956
148949
148944
148941
148938
148938
148939
148941
148945
148950
148957
148966
148976
148985
148993
148996
148994
148991
148992
148996
148995
148991
148985
148975
148966
148966
148975
148985
148992
148995
148995
148992
148992
148995
148996
148992
148984
148974
148965
148957
148957
148957