/*--------------------------------*- C++ -*----------------------------------*\
| =========                 |                                                 |
| \\      /  F ield         | OpenFOAM: The Open Source CFD Toolbox           |
|  \\    /   O peration     | Version:  v2006                                 |
|   \\  /    A nd           | Website:  www.openfoam.com                      |
|    \\/     M anipulation  |                                                 |
\*---------------------------------------------------------------------------*/
FoamFile
{
    version     2.0;
    format      ascii;
    class       volScalarField;
    location    "0.013";
    object      yPlus;
}
// * * * * * * * * * * * * * * * * * * * * * * * * * * * * * * * * * * * * * //

dimensions      [0 0 0 0 0 0 0];


internalField   uniform 0;

boundaryField
{
    bottomEmptyFaces
    {
        type            empty;
    }
    topEmptyFaces
    {
        type            empty;
    }
    inlet
    {
        type            calculated;
        value           uniform 0;
    }
    outlet
    {
        type            calculated;
        value           uniform 0;
    }
    walls
    {
        type            calculated;
        value           nonuniform List<scalar> 
1055
(
30.0549
29.3168
28.64
28.0203
27.461
26.9532
26.4986
26.0881
25.7229
25.3962
25.1092
24.8548
24.6346
24.4411
24.2764
24.133
24.0134
23.91
23.8257
23.7534
23.6957
23.6465
23.6089
23.5769
23.5536
23.534
23.5208
23.5098
23.5032
23.4975
23.496
23.4939
23.4943
23.4955
23.4972
23.5
23.5022
23.5051
23.5062
23.5084
23.5081
23.509
23.5067
23.5063
23.5021
23.5004
23.4945
23.4915
23.4843
23.4803
23.472
23.4669
23.4579
23.452
23.4425
23.4357
23.4259
23.4188
23.4088
23.4014
23.3912
23.3838
23.3733
23.3658
23.3553
23.3477
23.3373
23.3297
23.3193
23.3119
23.3017
23.2944
23.2845
23.2776
23.268
23.2616
23.2524
23.2467
23.2381
23.233
23.225
23.2206
23.2134
23.2099
23.2033
23.2006
23.1949
23.1931
23.1882
23.1872
23.1834
23.183
23.1804
23.1806
23.1792
23.18
23.1798
23.1811
23.1821
23.1839
23.1859
23.1883
23.1908
23.1942
23.1972
23.2014
23.205
23.2099
23.2139
23.2196
23.2241
23.2303
23.2352
23.2419
23.2473
23.2545
23.2603
23.2678
23.274
23.282
23.2885
23.2968
23.3037
23.3123
23.3195
23.3284
23.3359
23.345
23.3527
23.362
23.37
23.3795
23.3876
23.3972
23.4055
23.4152
23.4236
23.4334
23.4419
23.4517
23.4603
23.4701
23.4788
23.4886
23.4973
23.5071
23.5159
23.5256
23.5344
23.5442
23.553
23.5627
23.5715
23.5811
23.5899
23.5994
23.6081
23.6177
23.6263
23.6358
23.6445
23.654
23.6626
23.6721
23.6807
23.6903
23.6989
23.7087
23.7174
23.7272
23.736
23.7459
23.7546
23.7645
23.7732
23.783
23.7915
23.8011
23.8092
23.8186
23.8263
23.8436
23.8431
23.8441
23.8588
23.8683
23.8739
23.9003
23.9091
23.9366
23.8968
23.8377
23.6244
23.7807
24.1839
8.45957
7.17903
6.62083
11.6724
10.7341
9.78244
8.22747
18.4009
13.5793
11.7386
11.4295
13.3544
9.65354
8.40996
12.9975
12.0422
14.0733
14.3423
10.9518
9.53982
9.77388
9.65632
8.46041
7.47258
10.2753
9.95722
8.84951
7.66354
9.18779
7.81761
8.56596
7.50419
9.59519
10.052
8.45314
7.47655
8.30471
7.38171
8.363
7.17861
6.55118
10.3985
10.9101
9.69418
10.5904
9.45164
10.3888
9.19073
9.95092
9.22226
10.1098
10.0949
10.5298
9.29846
10.2019
11.5415
8.40778
8.82574
8.97216
9.73093
10.2846
10.7525
11.8495
8.59124
9.04775
9.55478
10.3659
8.34806
9.01807
10.0145
7.32074
7.6388
8.79146
9.06906
10.1745
7.4291
7.77881
8.01654
8.50344
9.15114
9.5306
8.14478
8.70309
8.41228
9.13614
8.65913
9.39424
8.33192
8.91787
10.7607
9.38397
9.77207
7.76385
8.18426
10.5536
7.67184
8.08383
10.4264
9.08987
9.40476
8.286
9.01245
7.96114
8.55407
7.51712
7.89453
9.85613
10.2772
11.3766
8.27818
8.71945
8.83164
9.72702
11.0295
7.95083
8.38498
8.66152
9.29138
9.10991
9.93568
9.62365
10.0914
8.9553
9.7312
8.63686
9.53159
8.50662
9.18156
9.44605
9.82705
10.8624
7.95141
8.28565
8.6511
9.39976
9.10905
9.9694
8.80268
9.58512
8.68232
9.09909
7.84857
7.70775
7.31381
7.04786
9.5675
7.43229
7.8707
8.33597
8.5344
9.4517
6.95968
7.20043
8.37615
8.59933
9.72398
7.11015
7.42678
7.60168
8.04765
8.14633
8.26651
7.02919
7.25998
7.97296
7.99572
7.81175
7.81079
9.17009
6.85651
7.03176
9.211
7.86452
7.94532
6.79906
7.02991
9.06278
7.33488
7.04145
9.00117
7.77037
7.75136
8.68466
6.66117
6.72522
7.80595
7.7569
6.67756
6.73853
6.6886
6.8325
9.24246
7.96335
8.05778
9.30128
6.92696
7.12127
6.82499
7.08289
8.95098
8.77996
7.35239
6.95787
8.30197
6.94699
6.548
8.34192
7.07714
6.57808
8.4523
7.07019
6.59161
8.33917
6.96146
6.50133
8.08142
6.3856
6.28438
8.27005
6.80248
6.46347
7.7056
7.38665
8.3939
7.71509
7.52964
6.49756
6.48618
8.74188
8.68098
7.26385
6.88994
7.35885
6.94266
7.08459
6.82934
8.96672
7.20203
6.93764
8.56924
6.63942
6.69817
8.71855
8.95532
10.0669
7.39334
7.69584
9.90044
7.18802
7.51187
8.57536
8.83251
7.77133
8.2888
7.85741
8.34091
8.70573
9.04042
8.04337
8.58083
12.8726
9.3447
10.3787
10.3032
7.02014
10.416
8.63764
5.5674
9.42714
9.28224
5.93168
10.831
8.64462
25.9766
24.4577
7.06315
7.7029
5.0061
25.0861
21.044
21.0696
20.2311
9.01423
19.9944
7.54912
25.2333
6.55191
20.515
7.80777
5.01494
19.9749
21.2748
20.7578
9.28371
8.27128
7.20096
6.27584
7.19513
4.90097
27.8519
26.2961
21.6646
21.2276
21.934
21.3943
24.8928
21.8652
20.7571
26.9559
23.131
22.2361
8.62788
7.69142
7.20675
6.74191
6.16982
7.44967
5.02228
9.11679
8.35243
7.84036
7.3626
7.0039
6.48037
5.84996
6.76288
4.7294
8.33925
7.65156
7.24406
6.88603
6.59671
6.30829
6.06985
5.85117
5.73382
5.59706
5.29584
6.67179
4.36824
8.4319
7.95609
7.66961
7.49906
7.30601
13.9082
7.09394
6.92116
6.783
6.63364
6.53736
10.9145
11.969
6.39755
11.9913
12.4598
10.3508
11.1904
13.409
11.597
12.1439
9.67147
10.2431
10.6284
11.6764
6.3028
6.25357
6.13746
6.01596
5.91902
5.83361
5.76529
5.71304
14.6533
10.5019
11.1163
12.5342
13.1164
11.5311
12.6583
5.67015
5.63587
5.60749
5.58687
5.56721
5.55087
5.54207
5.53318
13.4616
14.0871
12.3051
13.4072
5.52879
5.51954
5.5171
5.51522
5.50987
5.50525
5.50368
5.50316
13.7197
14.1909
13.1436
14.284
12.4861
13.4928
16.0126
11.5702
12.2574
5.498
15.7008
5.49327
5.49153
11.3067
11.9553
5.48827
5.48608
12.2232
13.1164
5.47887
5.47602
5.47206
15.1388
11.7645
12.8691
12.9834
13.5279
11.757
12.7424
10.9336
11.5388
11.3404
12.2442
11.2412
12.2736
12.1134
12.6136
11.0224
12.1501
14.0582
10.148
10.7074
10.8495
11.7233
14.367
11.0903
12.0148
10.373
10.9716
12.3221
12.878
10.7431
11.6238
10.1184
10.657
19.0822
14.2645
14.8499
5.46876
5.46119
5.45732
5.45514
20.5583
5.44765
5.44156
5.43761
19.8799
5.43519
14.4333
15.3565
17.209
17.2958
19.7068
16.7535
17.1362
14.517
15.2436
16.5924
16.8807
5.42777
5.42162
5.41782
5.41539
5.40816
5.40216
5.39859
5.39631
5.3893
5.38345
5.38006
5.37785
5.37098
5.36516
5.36183
15.3142
5.3595
15.6246
16.1283
16.6742
14.3151
15.3085
18.0864
13.0257
13.8458
5.35265
5.34662
5.34325
5.34054
5.33364
5.32707
5.32371
5.31847
17.3486
13.8877
14.8681
12.8102
13.5596
13.249
14.1856
16.9865
14.5234
15.1047
12.1552
12.9534
14.6999
15.3504
18.264
15.5882
16.0999
13.2036
13.9743
19.111
18.9159
13.8648
14.5277
16.1643
16.3895
16.0198
16.5069
5.31492
14.0316
5.30617
14.7962
5.30234
5.29661
5.29254
5.2833
5.27892
5.27268
21.253
5.268
5.2583
15.7909
16.4968
5.25326
5.24662
5.2412
5.23123
5.22537
22.0443
5.22037
21.7591
17.9917
17.78
18.5788
18.7797
19.6828
19.7975
23.3699
5.21076
18.7112
5.20401
18.5639
5.19442
5.19063
5.18139
22.5931
5.1741
5.16725
18.6266
18.3097
5.15798
22.8124
17.7589
18.2972
16.706
17.2781
17.9452
18.2239
15.4042
16.0682
5.15403
5.14613
5.1465
5.20019
5.23644
5.3247
5.55588
5.86649
29.1029
25.7913
29.9953
23.5843
21.952
29.6899
26.9651
26.7192
23.1147
22.0735
9.87092
10.7388
33.0027
31.8356
30.6867
32.6937
25.369
23.2953
30.7975
26.5811
25.1768
22.7247
12.4878
30.2472
9.93449
10.8886
10.7911
11.2344
28.7606
35.1261
27.202
25.1934
10.203
11.1827
9.99724
10.9795
35.4128
12.7597
11.0612
11.552
9.25694
9.74605
36.0158
9.74974
10.5448
9.08665
9.55589
36.4172
36.3728
36.4734
36.1661
35.4299
13.1146
34.5127
10.7056
11.677
10.4045
11.4625
10.2004
11.0266
9.47673
10.004
10.3714
11.3603
11.2816
11.7433
10.1762
11.1114
33.5682
32.6251
31.7129
30.8541
9.56323
10.5257
11.9624
8.67979
9.12245
9.30038
10.0697
9.74341
10.7008
24.6587
6.2756
35.9228
32.665
30.4825
29.0163
27.9057
26.875
26.1416
25.4322
25.0332
24.5594
24.2766
23.9132
23.704
23.4092
23.2441
22.9884
22.8453
22.6085
22.4744
22.2475
22.1177
21.8999
21.775
21.5691
21.4515
21.2607
21.1526
20.9784
20.8814
20.7237
20.638
20.4944
20.4176
20.2835
20.2123
20.0837
20.0155
19.8896
19.8224
19.6969
19.6293
19.5026
19.4337
19.305
19.2342
19.1029
19.0299
18.8956
18.8205
18.6832
18.6058
18.4651
18.385
18.2403
18.157
18.0075
17.9204
17.7655
17.6742
17.5136
17.4178
17.2511
17.1508
16.9777
16.8725
16.6924
16.5822
16.3947
16.2788
16.083
15.9612
15.7564
15.6283
15.4145
15.2804
15.0582
14.9192
14.6896
14.5465
14.3104
14.1644
13.9231
13.7757
13.531
13.3844
13.1392
12.9962
12.7541
12.6181
12.3831
12.2574
12.0355
11.9216
11.7198
11.621
11.4481
11.3817
11.2596
11.2272
11.1345
11.1264
11.0599
11.0686
11.0295
11.0498
11.0324
11.0693
11.0614
11.1152
11.1135
11.1766
11.1797
11.2481
11.2545
11.3261
11.3341
11.4059
11.4135
11.4822
11.4874
11.5526
11.5563
11.6206
11.6222
11.6775
11.6754
11.7168
11.7104
11.7371
11.7266
11.74
11.723
11.7287
11.7007
11.7022
11.6672
11.6647
11.6244
11.6192
11.5772
11.5718
11.5336
11.5291
11.4943
11.4894
11.4548
11.4487
11.4139
11.406
11.3704
11.3604
11.3243
11.3115
11.2737
11.2589
11.2193
11.2041
11.1627
11.1484
11.1051
11.0921
11.047
11.0342
10.989
10.9771
10.9313
10.9252
10.8792
10.8782
10.8317
10.8774
10.8775
11.0062
11.1746
11.8584
13.6849
12.3667
39.379
)
;
    }
    rightWall
    {
        type            calculated;
        value           uniform 0;
    }
    symmetryLine
    {
        type            symmetryPlane;
    }
}


// ************************************************************************* //
