/*--------------------------------*- C++ -*----------------------------------*\
| =========                 |                                                 |
| \\      /  F ield         | OpenFOAM: The Open Source CFD Toolbox           |
|  \\    /   O peration     | Version:  v2006                                 |
|   \\  /    A nd           | Website:  www.openfoam.com                      |
|    \\/     M anipulation  |                                                 |
\*---------------------------------------------------------------------------*/
FoamFile
{
    version     2.0;
    format      ascii;
    class       volScalarField;
    location    "0.006";
    object      k;
}
// * * * * * * * * * * * * * * * * * * * * * * * * * * * * * * * * * * * * * //

dimensions      [0 2 -2 0 0 0 0];


internalField   nonuniform List<scalar> 
41981
(
107.179
107.156
107.598
107.591
107.575
107.542
107.488
107.417
107.324
107.209
107.064
106.886
106.685
106.486
106.311
106.168
106.054
105.953
105.85
105.732
105.593
105.434
105.263
105.083
104.896
104.705
104.509
104.309
104.105
103.897
103.684
103.467
103.245
103.018
102.786
102.55
102.309
102.063
101.813
101.559
101.302
101.041
100.778
100.512
100.244
99.9744
99.7025
99.4289
99.1536
98.8761
98.5962
98.3136
98.0277
97.7379
97.4432
97.1439
96.8397
96.5309
96.2177
95.9004
95.579
95.2547
94.9273
94.5988
94.269
93.9344
93.5978
93.2593
92.9164
92.5697
92.2192
91.8647
91.5063
91.1435
90.7763
90.4045
90.028
89.6465
89.2601
88.8686
88.4718
88.0698
87.6626
87.25
86.8324
86.4097
85.9819
85.5486
85.1096
84.6654
84.2162
83.7623
83.3036
82.8403
82.3729
81.9013
81.426
80.9471
80.4648
79.9795
79.4913
79.0006
78.5081
78.0141
77.519
77.023
76.5267
76.0305
75.5349
75.0404
74.5476
74.057
73.5691
73.0845
72.6035
72.1265
71.6542
71.1872
70.7259
70.271
69.8227
69.3817
68.9484
68.5234
68.1069
67.6993
67.3008
66.9118
66.5326
66.1636
65.8051
65.4572
65.1204
64.7946
64.48
64.1764
63.8835
63.6011
63.3293
63.0689
62.8216
62.588
62.3665
62.1521
61.9439
61.76
61.6354
61.5818
61.5745
61.5874
61.6049
61.6186
61.6242
61.5972
61.5284
61.4256
61.2185
60.8898
60.1704
59.0101
53.5139
47.9835
56.2657
59.4716
57.1377
50.1085
42.2923
38.0165
46.8942
55.4505
51.6294
41.4475
33.8207
31.193
39.7144
50.2921
46.821
35.6901
28.3468
26.6995
34.6832
45.7603
43.0227
32.1351
24.8145
23.7861
31.429
42.2047
39.8442
29.5897
22.8156
22.2814
29.2094
39.2575
37.2271
27.8677
21.6427
21.2689
27.6062
36.7422
34.9346
26.5226
20.7614
20.4521
26.3229
34.5107
32.8619
25.3886
20.0079
19.7265
25.2177
32.474
30.9504
24.383
19.3195
19.0529
24.2349
30.5935
29.1867
23.4909
18.6736
18.4175
23.3614
28.8521
27.5422
22.6965
18.0626
17.8176
22.5792
27.2194
25.9897
21.9825
17.4894
17.2608
21.872
25.6742
24.5212
21.3355
16.9649
16.7593
21.2279
24.2162
23.1499
20.746
16.5014
16.3233
20.6414
22.8669
21.9128
20.2159
16.1063
15.9569
20.1228
21.671
20.8723
19.7719
15.7793
15.6509
19.6892
20.6877
20.0678
19.4117
15.5037
15.3925
19.3467
19.9516
19.5042
19.1452
15.2689
15.1708
19.1056
19.4465
19.144
18.9693
15.0628
14.9722
18.9552
19.1371
18.9559
18.8737
14.8718
14.7829
18.8768
18.9782
18.8788
18.8248
14.6831
14.5916
18.8402
18.9283
18.866
18.7969
14.4879
14.3909
18.8172
18.9284
18.8706
18.7709
14.2802
14.1765
18.7848
18.9282
18.8539
18.7273
14.0577
13.9472
18.7323
18.8951
18.7972
18.6638
13.8198
13.702
18.6618
18.8258
18.6978
18.5761
13.5654
13.4409
18.5638
18.7155
18.5556
18.4553
13.2964
13.1676
18.4272
18.5542
18.3431
18.2854
13.0183
12.8885
18.2388
18.3075
18.0424
18.0663
12.7381
12.6098
18.0037
17.9815
17.6808
17.8042
12.4603
12.3347
17.7262
17.6004
17.2749
17.5027
12.1882
12.0668
17.4112
17.1764
16.8271
17.1685
11.9254
11.8095
17.0669
16.7121
16.3492
16.8149
11.6755
11.5663
16.7097
16.2272
15.8709
16.4623
11.4412
11.3393
16.3602
15.7522
15.4222
16.129
11.2232
11.1278
16.0335
15.3148
15.0223
15.822
11.0195
10.9295
15.733
14.9285
14.6731
15.5384
10.8275
10.7419
15.4549
14.5916
14.3675
15.2734
10.6451
10.563
15.1935
14.2963
14.0977
15.0207
10.4708
10.3923
14.9454
14.0367
13.8633
14.7844
10.3051
10.2299
14.7177
13.8156
13.6736
14.5764
10.1474
10.0747
14.5227
13.6453
13.5497
14.4089
9.99503
9.92251
14.3705
13.5505
13.502
14.2821
9.84263
9.76782
14.2565
13.5298
13.508
14.1861
9.68423
9.60475
14.17
13.5669
13.5638
14.1079
9.51444
9.42823
14.0952
13.6478
13.6478
14.0272
9.32843
9.23384
14.0094
13.7336
13.7221
13.9222
9.12324
9.02026
13.8967
13.7876
13.7567
13.7886
8.89964
8.78931
13.7578
13.8081
13.7584
13.6337
8.65976
8.54259
13.6001
13.8017
13.737
13.4625
8.40401
8.28009
13.4248
13.7744
13.6936
13.2701
8.13242
8.00205
13.2273
13.7237
13.6204
13.0527
7.84612
7.71006
13.0046
13.6436
13.5119
12.8122
7.54707
7.40621
12.7613
13.5311
13.3847
12.557
7.23698
7.09184
12.5042
13.4036
13.2451
12.2876
6.91638
6.76709
12.2313
13.2615
13.0859
11.9997
6.58513
6.43169
11.9393
13.0989
12.9069
11.6922
6.24308
6.08557
11.6274
12.9172
12.7084
11.3635
5.8902
5.72879
11.2931
12.715
12.4859
11.0096
5.52662
5.36145
10.9323
12.4873
12.2358
10.6268
5.15246
4.98384
10.5408
12.2265
11.9456
10.2106
4.76869
4.59741
10.1161
11.9252
11.6188
9.7642
4.37727
4.20449
9.66363
11.5898
11.2655
9.29502
3.98047
3.80804
9.18936
11.2295
10.8912
8.80059
3.57882
3.40521
8.69533
10.8482
10.4951
8.29581
3.17212
2.99978
8.18764
10.4439
10.0734
7.76686
2.76386
2.5937
7.65093
10.0126
9.62012
7.201
2.35662
2.19053
7.07715
9.54964
9.1364
6.59813
1.95574
1.7957
6.46234
9.05805
8.62916
5.95679
1.57004
1.42169
5.80986
8.53638
8.08821
5.28286
1.21309
1.08337
5.12856
7.97964
7.51121
4.59112
0.900634
0.796827
4.44235
7.39544
6.91613
3.9195
0.647289
0.57196
3.79251
6.81338
6.3656
3.31965
0.457901
0.409496
3.22856
6.29279
5.90918
2.82768
0.326447
0.297826
2.76877
5.87236
5.55492
2.42702
0.236883
0.221498
2.39225
5.54222
5.26253
2.09721
0.175629
0.169647
2.0815
5.25381
4.97667
1.81427
0.132635
0.13237
1.81241
4.95688
4.65452
1.55153
0.0995742
0.10185
1.54591
4.5862
4.12907
1.22099
0.0686785
0.0697754
1.18527
3.96566
3.30596
0.831357
0.0413884
0.0422674
0.793651
3.09617
2.33335
0.499591
0.0239318
0.0253471
0.485652
2.16898
1.54749
0.310849
0.0160289
0.0171234
0.31564
1.48825
1.08159
0.216736
0.0124882
0.0129293
0.220109
1.04608
0.76444
0.154341
0.0110365
0.0108824
0.151272
0.717542
0.535156
0.109813
0.0113116
0.0113596
0.102794
0.482326
0.377388
0.0791476
0.0130012
0.0132764
0.0727951
0.337905
0.271879
0.0592184
0.0150441
0.0151969
0.0554678
0.247403
0.20636
0.0477767
0.0166272
0.0164628
0.0461803
0.194046
0.168406
0.0415361
0.0177753
0.0174419
0.0407987
0.161245
0.143706
0.0375814
0.0191288
0.0188617
0.0370863
0.138987
0.126057
0.0346777
0.0213655
0.0214943
0.0345221
0.123441
0.114882
0.0328053
0.0254933
0.0264404
0.0334035
0.116001
0.110795
0.0321468
0.0327062
0.0349679
0.0331206
0.113678
0.109599
0.0320831
0.0438951
0.0477522
0.0331342
0.112336
0.10794
0.032095
0.0590679
0.0640397
0.0330723
0.1099
0.104499
0.0319424
0.0763477
0.0810209
0.0327632
0.105692
0.0996898
0.0316412
0.091939
0.094707
0.0324082
0.100817
0.0956796
0.0314997
0.102093
0.102263
0.0327786
0.099293
0.0976302
0.0324333
0.106018
0.104461
0.0349573
0.108235
0.110801
0.0354261
0.106531
0.10451
0.0394704
0.130636
0.13952
0.0413681
0.106518
0.105123
0.0473445
0.170167
0.19083
0.0514333
0.108498
0.108503
0.0616412
0.242651
0.291318
0.0722048
0.11421
0.115083
0.0872426
0.36229
0.428404
0.103921
0.122247
0.120603
0.116291
0.487012
0.551984
0.130466
0.125765
0.118392
0.133041
0.573346
0.633663
0.146289
0.11918
0.107584
0.142301
0.634113
0.698243
0.157342
0.103468
0.0896529
0.148572
0.684913
0.75103
0.164833
0.0839136
0.0706135
0.150583
0.717383
0.802427
0.171434
0.0657227
0.055363
0.153654
0.75851
0.861687
0.178156
0.0492091
0.040933
0.154723
0.798619
0.88103
0.173333
0.032712
0.024885
0.1431
0.784382
0.834462
0.154396
0.0174611
0.011798
0.125096
0.726337
0.755499
0.135126
0.00896273
0.00908793
0.118378
0.694074
0.728179
0.133434
0.0181972
0.0258105
0.127561
0.699018
0.744223
0.148677
0.0411693
0.0546893
0.147918
0.72973
0.784414
0.17528
0.0759903
0.0956598
0.177682
0.775682
0.830904
0.209033
0.122594
0.147951
0.213023
0.823399
0.875495
0.245882
0.17971
0.20964
0.250434
0.86811
0.917046
0.283821
0.245351
0.279513
0.289053
0.909943
0.957248
0.323114
0.318729
0.356127
0.328642
0.950694
0.994241
0.363012
0.397912
0.437452
0.368368
0.987029
1.02518
0.401828
0.480849
0.522294
0.406532
1.01669
1.04876
0.438244
0.567366
0.610193
0.442019
1.03887
1.06569
0.472175
0.656312
0.700051
0.475413
1.05513
1.07861
0.504404
0.746791
0.791082
0.506902
1.06781
1.08746
0.534422
0.83817
0.882704
0.535945
1.07613
1.09212
0.561416
0.929827
0.974227
0.561892
1.08043
1.09326
0.585022
1.02105
1.06514
0.58468
1.08094
1.09271
0.605919
1.11151
1.15516
0.605082
1.08024
1.09165
0.625013
1.20098
1.24398
0.623871
1.08007
1.09178
0.642632
1.28899
1.3311
0.641315
1.08114
1.09403
0.659103
1.37512
1.41631
0.657926
1.08409
1.0977
0.674816
1.45938
1.4997
0.67364
1.08807
1.10191
0.68975
1.54178
1.58115
0.688542
1.09254
1.10664
0.704062
1.62216
1.6605
0.702822
1.09751
1.1119
0.71774
1.70036
1.73761
0.716369
1.10296
1.11765
0.730609
1.77626
1.81235
0.729024
1.10892
1.12406
0.742594
1.84973
1.88457
0.740782
1.11555
1.13118
0.753761
1.92059
1.95409
0.751736
1.12283
1.13875
0.764163
1.98866
2.02075
0.761913
1.13045
1.1465
0.773743
2.05383
2.08447
0.771249
1.13822
1.15448
0.782492
2.11603
2.14521
0.779777
1.1463
1.16312
0.790568
2.17526
2.20299
0.787697
1.15517
1.1732
0.798375
2.23153
2.25779
0.795492
1.1657
1.18605
0.806678
2.28478
2.30948
0.804015
1.17933
1.20261
0.816414
2.33477
2.35762
0.814081
1.19649
1.2206
0.827793
2.38074
2.40112
0.825675
1.2137
1.23365
0.837787
2.42101
2.43777
0.833178
1.22418
1.23803
0.838586
2.45274
2.46476
0.826236
1.22139
1.22908
0.827668
2.47362
2.47963
0.802167
1.19891
1.20279
0.798651
2.48185
2.48213
0.7619
1.16464
1.16785
0.754451
2.48106
2.48016
0.718239
1.13098
1.136
0.713695
2.48191
2.48812
0.697145
1.10713
1.11569
0.703953
2.50201
2.51789
0.703737
1.10201
1.14773
0.737411
2.5486
2.60421
0.828414
1.16883
1.27073
1.00699
2.68598
2.7675
1.23881
1.30347
1.31214
1.34159
2.78589
2.72515
1.36547
1.19928
1.09431
1.32559
2.44265
1.64149
1.10622
1.02109
1.01223
1.00795
1.00304
1.00046
0.999455
0.998815
0.998595
0.99857
0.998652
0.998689
0.998707
0.998834
0.99871
0.998895
0.998671
0.998915
0.998634
0.998923
0.998573
0.998909
0.99846
0.998822
0.998245
0.9986
0.998147
0.998396
0.998455
0.998092
0.999146
1.00049
1.00274
1.00621
1.00798
1.00872
1.00169
0.99888
0.998713
0.998588
0.999013
1.00018
1.00022
1.00011
1.00561
1.0087
1.00695
1.0094
1.19212
1.68137
2.19543
1.53793
1.10838
1.31593
1.81696
2.30685
2.28423
1.94182
1.46494
1.59928
1.93991
2.2398
2.19145
1.91876
1.76997
1.85442
1.81795
2.11271
2.01968
1.63674
1.86101
1.84084
1.46996
1.95468
1.9095
1.35418
1.79884
1.72787
1.28031
1.88132
1.86348
1.2425
1.66558
1.61691
1.22459
1.8522
1.84551
1.21973
1.59078
1.58223
1.21954
1.84075
1.83762
1.22055
1.58227
1.58448
1.22102
1.83366
1.83032
1.22128
1.59282
1.60162
1.22004
1.82588
1.82248
1.21953
1.6107
1.61601
1.21883
1.81817
1.81487
1.21907
1.62275
1.62607
1.21902
1.81068
1.80752
1.21931
1.63158
1.63487
1.21939
1.80345
1.80041
1.22024
1.64233
1.64861
1.22097
1.79644
1.79353
1.22317
1.66235
1.67284
1.22442
1.78953
1.78644
1.22751
1.6902
1.70389
1.22917
1.78214
1.77868
1.23298
1.72282
1.73644
1.23475
1.77387
1.76978
1.23842
1.75286
1.76364
1.23985
1.76434
1.75958
1.24267
1.7771
1.7859
1.24385
1.7535
1.74797
1.24522
1.79711
1.80398
1.24532
1.74124
1.73514
1.2453
1.81246
1.81668
1.24452
1.72786
1.72122
1.24356
1.82174
1.82337
1.24125
1.71341
1.70636
1.23972
1.82549
1.82554
1.23663
1.69815
1.69069
1.23472
1.82583
1.82539
1.23135
1.68212
1.67435
1.22914
1.82522
1.82399
1.22549
1.66549
1.6574
1.22299
1.82318
1.82102
1.21917
1.64822
1.63987
1.21662
1.82007
1.81782
1.21293
1.63047
1.62182
1.21058
1.81696
1.81561
1.20728
1.61211
1.6032
1.20536
1.8156
1.81571
1.20249
1.59323
1.58397
1.20101
1.81737
1.81886
1.19814
1.57359
1.56396
1.19662
1.82266
1.82507
1.19347
1.5532
1.54314
1.19151
1.82983
1.83224
1.18742
1.53191
1.52149
1.18458
1.83615
1.8377
1.17956
1.50995
1.4992
1.17604
1.84054
1.84146
1.17037
1.48732
1.47637
1.16633
1.84339
1.84394
1.16023
1.46435
1.45325
1.15593
1.84523
1.84557
1.14957
1.44107
1.42991
1.14525
1.84663
1.84704
1.13884
1.41771
1.40651
1.13468
1.84832
1.849
1.12832
1.39423
1.38306
1.12432
1.85092
1.85196
1.11802
1.37083
1.35966
1.11407
1.85437
1.85539
1.10771
1.3474
1.33629
1.10371
1.85759
1.85841
1.09735
1.32412
1.31305
1.09336
1.86025
1.86092
1.08698
1.30091
1.28993
1.08303
1.86256
1.8631
1.07672
1.27791
1.26701
1.07282
1.86457
1.86494
1.06649
1.25502
1.24423
1.06264
1.86622
1.86642
1.05639
1.23238
1.22167
1.05255
1.86749
1.86755
1.04633
1.20988
1.19929
1.04256
1.86847
1.86847
1.03648
1.18766
1.17718
1.03276
1.86922
1.86913
1.02677
1.16563
1.15531
1.02315
1.86982
1.86971
1.01735
1.14395
1.13377
1.01384
1.87036
1.87024
1.00819
1.12253
1.11254
1.00482
1.87094
1.87086
0.999402
1.10154
1.09173
0.996171
1.87155
1.87149
0.990952
1.08089
1.07134
0.987933
1.87225
1.87227
0.983034
1.0608
1.05149
0.980238
1.87315
1.87324
0.975608
1.04118
1.03219
0.973059
1.87426
1.87439
0.968774
1.02224
1.01357
0.966468
1.87544
1.87558
0.962504
1.00393
0.995644
0.96051
1.87672
1.87697
0.956975
0.986463
0.978595
0.955268
1.87828
1.87859
0.952111
0.969813
0.962446
0.950721
1.88001
1.8804
0.948059
0.954242
0.94742
0.946988
1.88192
1.88237
0.944839
0.939761
0.93361
0.944146
1.88405
1.88466
0.942719
0.92673
0.921361
0.942452
1.88661
1.88737
0.941828
0.915281
0.910875
0.942065
1.88969
1.89066
0.942134
0.905867
0.90257
0.943187
1.89332
1.89446
0.943897
0.898674
0.896746
0.946047
1.89747
1.89885
0.947414
0.894396
0.894182
0.950833
1.90232
1.90399
0.953046
0.893825
0.895688
0.958069
1.90804
1.91021
0.961484
0.898203
0.903126
0.968636
1.91455
1.91873
0.974274
0.909154
0.919059
0.983761
1.92284
1.92973
0.992863
0.931037
0.94871
1.00573
1.93456
1.94775
1.01906
0.97136
1.01258
1.04149
1.9469
1.94902
1.05613
1.04491
1.04221
1.07668
1.95754
1.95011
1.08528
1.02954
1.00627
1.10011
1.95383
1.96317
1.11486
1.02584
1.00706
1.12927
1.96377
1.96437
1.14391
1.01437
1.02258
1.17594
1.97993
1.98471
1.20482
1.04494
1.05864
1.24254
1.99384
1.99398
1.26708
1.08234
1.10789
1.32553
2.00524
2.00359
1.3417
1.12425
1.22788
1.41355
2.02276
2.02309
1.44299
1.25933
1.71095
1.88957
2.12783
1.68377
1.42515
1.73773
1.32398
1.2386
1.58703
1.50086
1.09145
1.33053
1.2432
0.8375
1.22757
1.15993
0.724007
1.04002
0.866565
0.588775
0.996673
0.979377
0.555033
0.779728
0.705403
0.52642
0.923527
0.949349
0.54566
0.770571
0.757658
0.551947
0.945049
0.984002
0.584141
0.811442
0.855989
0.608199
0.994349
1.05374
0.68169
0.97443
1.02241
0.706236
1.06351
1.17358
1.03933
1.53018
1.68829
0.896048
0.969238
0.953652
0.813984
1.36973
1.42739
0.70467
0.873619
0.799586
0.650068
1.44257
1.38168
0.633186
0.746952
0.711108
0.636511
1.26909
1.2458
0.648904
0.688348
0.67678
0.661425
1.28613
1.37192
0.711944
0.682315
0.693269
0.740267
1.42161
1.83497
0.936792
0.72302
0.755341
1.04155
2.04416
1.73136
0.796443
0.702872
0.674418
0.74897
1.79113
1.70005
0.680945
0.590312
0.577541
0.674903
1.63582
1.581
0.679279
0.541118
0.542974
0.710561
1.60881
1.64679
0.714092
0.542802
0.556585
0.634913
2.03476
2.42981
1.06155
0.627155
0.591167
0.807412
2.16691
2.2946
0.683954
0.544294
0.50384
0.659223
2.43439
2.52872
0.665525
0.478346
0.464492
0.696769
2.60345
2.6001
0.718916
0.460287
0.462985
0.342599
2.76514
3.32483
1.28406
0.627342
0.593547
1.02285
3.14095
3.27096
0.838399
0.543076
0.50849
0.813012
3.4353
3.42859
0.832379
0.480553
0.455784
0.268812
3.55919
4.20865
1.53482
0.702113
0.618701
1.15247
3.93084
4.20258
0.929705
0.555524
0.515184
0.849868
4.51138
4.65024
0.843252
0.476043
0.470103
0.876805
4.78028
4.61812
0.0846184
0.445676
0.86839
2.05836
5.92083
6.04622
1.54973
0.743238
0.65956
1.21991
6.25415
6.66919
1.18095
0.621668
0.540562
0.0613749
6.33994
8.0879
2.7496
1.13154
0.934779
2.00794
8.33344
8.51146
1.42962
0.757968
0.71135
1.41801
9.21713
8.75089
0.314685
0.49421
1.81695
4.83846
11.1582
11.9492
3.18535
1.42022
1.19824
2.72353
12.3226
11.5121
0.33181
0.948871
2.19177
5.20438
14.9318
16.0945
3.51805
1.6417
1.413
2.8034
15.8137
14.4839
0.787034
0.843409
3.40845
8.92434
19.4754
22.0191
6.58239
2.63206
1.85483
1.21863
18.7919
25.8635
9.39207
4.18998
3.08452
7.31829
28.7722
23.3894
0.356211
2.17114
5.01649
11.5872
33.0271
36.982
8.66652
3.60544
2.63427
0.0337189
27.9065
40.7451
14.2123
5.99399
4.48026
3.34857
29.5091
52.0748
19.3253
8.97874
5.11025
8.88197
42.2629
51.4521
12.4986
5.53026
7.42303
20.2366
72.31
95.1437
23.019
8.88234
9.3616
21.6464
120.753
119.844
20.3266
8.95468
4.58691
17.2382
99.6084
99.8711
51.1579
24.5147
12.7432
24.2766
70.8133
71.1405
40.0624
22.7504
15.3379
22.058
50.5514
51.519
30.4561
20.2299
13.5482
17.3634
37.9471
36.8535
21.7574
15.3846
10.7315
13.3593
27.8987
26.3657
16.3652
11.7096
8.52526
9.90962
18.9981
18.8134
10.9414
8.03721
8.30927
10.4974
16.2637
12.0936
7.47065
6.4416
5.90222
7.40165
10.8518
6.70865
5.37693
5.23178
4.35334
5.06109
5.20906
2.2338
3.56936
3.58322
3.17068
3.61114
2.45048
1.91321
3.0718
2.8614
2.02975
1.40304
0.49894
0.349861
2.10234
2.13054
1.89277
1.76913
0.199705
1.02333
1.27142
1.4578
2.08312
2.00628
0.283639
0.128901
0.54599
1.82745
2.41317
0.639363
0.792128
0.114103
0.586615
3.22224
1.50126
0.401972
0.351061
1.29336
0.890661
3.02234
2.51178
0.863182
1.14591
1.88461
2.06231
6.52532
5.36139
1.92043
2.13448
1.36652
1.02984
2.46329
5.1812
2.07202
1.37664
1.47673
1.07561
2.98598
2.1933
0.927237
1.44389
1.36651
1.63401
4.67611
1.42235
0.471007
0.839531
0.658051
0.356875
0.854807
0.787758
0.474179
0.928088
1.03762
0.849161
1.94501
1.25035
0.48544
0.944276
1.20328
0.517335
0.68441
1.67937
0.745792
1.21075
1.04408
0.498125
1.16742
0.832322
0.607385
1.34174
1.45201
0.907653
1.95479
1.46999
0.661631
1.37653
1.70385
0.830023
1.22293
2.73256
1.25136
1.82448
1.76942
0.85219
1.85309
1.58401
1.03651
2.14912
2.1613
1.53236
3.63871
1.76429
0.836774
1.87483
2.01887
0.89884
1.26973
2.92706
1.23846
1.98399
1.73152
0.727985
1.54634
1.16061
0.778141
1.85926
1.73628
1.06526
2.70288
1.2237
0.567889
1.48779
1.592
0.674965
1.05374
2.59293
1.05036
1.58596
1.46755
0.704155
1.72678
1.48293
0.827814
1.66591
1.64422
1.47052
3.85625
1.56661
0.551322
1.23588
1.16631
0.420487
0.5893
1.78975
0.665177
0.988266
0.74384
0.297321
0.83932
0.638013
0.307942
0.779277
0.751232
0.591877
1.87189
0.642264
0.191511
0.532684
0.517503
0.132648
0.162343
0.515169
0.155116
0.395987
0.264914
0.0854727
0.243505
0.291112
0.124953
0.35241
0.394823
0.249428
0.985825
0.672761
0.158181
0.354601
0.411868
0.123565
0.251538
0.941527
0.254068
0.292869
0.110481
0.0396228
0.156883
0.0788549
0.0298762
0.125804
0.0958395
0.0624688
0.30129
0.0820042
0.0155488
0.0396508
0.0921146
0.02169
0.0672032
0.289971
0.0578938
0.0631379
0.00817637
0.00709138
0.0409475
0.0406663
0.00697805
0.0159384
0.0143332
0.0264709
0.173924
0.0575737
0.00714241
0.00691487
0.041819
0.0123736
0.0613
0.301519
0.0544428
0.0321186
0.000952877
0.00412813
0.0294275
0.0232957
0.00292974
0.000783226
0.00126174
0.00455686
0.0341912
0.0452233
0.00671883
0.00251404
0.00665704
0.00895059
0.0757222
0.0653104
0.00839348
0.00526824
0.00844031
0.0137545
0.0867797
0.09012
0.0108656
0.00851285
0.0028888
0.00983222
0.0907146
0.112517
0.0130892
0.00143073
0.00267939
0.0299144
0.223053
0.0931622
0.0123659
0.00547286
0.0155514
0.031409
0.155142
0.109254
0.0195064
0.0377144
0.0232044
0.00912179
0.041905
0.0963472
0.0173406
0.0209688
0.0176419
0.0157679
0.0902693
0.165571
0.031337
0.0189566
0.0337252
0.0767991
0.460235
0.114439
0.0207678
0.0220244
0.00636063
0.0226257
0.162449
0.498593
0.0919789
0.0149795
0.0120667
0.0189132
0.133445
0.149189
0.0206189
0.00586861
0.0144386
0.0686748
0.397719
0.0849008
0.0121935
0.00967766
0.00287769
0.0122367
0.0899493
0.238158
0.0414211
0.00346759
0.00954817
0.0252341
0.163584
0.402332
0.0601697
0.00659343
0.00266236
0.0503787
0.358989
0.279932
0.0395878
0.00334682
0.00449991
0.116833
0.672271
0.474046
0.0719837
0.0024434
0.00207987
0.045604
0.32999
0.746133
0.133877
0.00784819
0.0206274
0.115705
0.644828
2.13498
0.568056
0.0596144
0.0166519
0.13556
0.777904
0.528891
0.0900853
0.0227646
0.0529825
0.416727
1.67852
0.692179
0.127531
0.0171082
0.0289249
0.122823
0.658295
1.97111
0.587594
0.0750395
0.0616115
0.321264
1.45916
4.55356
1.48593
0.171675
0.0990675
0.63446
2.73739
2.32606
0.537309
0.154043
0.395277
2.80867
6.66409
4.87435
1.32957
0.288658
0.748114
5.57987
11.7904
6.17997
1.62451
0.223847
0.159942
0.74623
3.8577
8.74155
3.37267
0.393229
0.162895
1.24066
5.69269
10.9652
4.41067
0.436825
0.161697
1.47162
5.89968
4.78976
0.832718
0.084902
0.226694
3.1538
9.31658
4.63994
0.947203
0.0877946
0.0308202
0.736807
4.20976
5.19077
1.17049
0.0731835
0.161099
2.53277
7.97649
8.8185
2.98617
0.161406
0.129175
1.82103
7.21777
9.64108
4.23121
0.290976
0.0526701
1.0784
4.9492
9.06475
4.12254
0.316291
0.179017
1.76951
6.58825
2.32849
0.354245
0.0182326
0.239451
2.79681
6.64634
2.99934
0.660056
0.0538537
0.283123
3.23638
6.94059
6.46397
1.90332
0.218643
0.0275932
0.512708
2.85825
8.12476
4.65677
0.578712
0.168247
1.37403
4.50136
8.93146
5.12377
0.786199
0.491755
2.83104
7.69684
2.8869
0.635289
0.129816
0.637283
3.68031
6.52883
3.10517
1.01506
0.252368
0.691914
3.19664
5.96264
5.04891
1.73574
0.534129
0.198433
0.405186
1.57422
4.76659
2.77192
0.735007
0.380634
0.839898
2.26648
4.85665
2.97713
0.974812
0.586286
1.05016
2.32685
4.77486
2.82102
1.05838
0.921078
1.66588
3.85621
1.28423
0.514524
0.480871
0.916448
1.83424
3.06415
1.39175
0.746
0.639743
1.00674
1.8332
3.28128
2.58977
1.28961
0.989251
0.57015
0.458589
0.868085
2.21853
1.33615
0.990856
0.791157
0.651866
1.04783
2.63516
1.62464
1.2544
1.082
0.896779
1.32368
2.99619
1.74365
1.4449
1.53402
1.40395
2.35581
0.976091
0.705325
1.02344
1.38177
1.35039
2.07289
1.0888
0.803783
1.18611
1.53527
1.38954
2.33864
1.8624
1.1641
1.71422
1.18358
0.69755
0.867217
1.67164
1.12451
1.57393
1.42156
0.781529
0.974314
1.69893
1.18231
1.86283
1.83108
0.907446
0.973098
2.09383
1.28085
1.99752
2.45773
1.27433
1.71464
1.0062
0.933323
1.97775
2.27236
1.21638
1.53716
1.01686
0.98417
2.23656
2.3035
1.12025
1.68918
1.48682
1.27485
2.83882
2.2996
0.990675
0.985499
1.23353
1.1737
2.56941
2.51569
1.00919
0.918943
1.19686
1.10184
2.7358
3.01946
1.17673
0.929766
1.40447
0.992073
2.72934
3.49118
1.39468
1.31302
1.06192
1.2234
3.03823
3.22949
1.21716
1.18646
0.961449
1.23795
3.282
3.31672
1.01074
1.10513
0.985755
1.39928
3.78105
3.21802
0.931365
1.24689
1.19992
1.54237
4.3087
3.97383
1.63628
1.12789
1.14729
1.16587
3.91739
4.23026
1.59743
1.04709
1.15128
0.913356
3.92575
4.68122
1.75279
1.11885
1.24471
0.974365
4.23327
5.09617
1.85118
1.20059
1.35735
1.13777
4.22282
5.58376
1.82608
1.28905
1.41049
2.45542
5.57295
4.93361
1.27076
1.26784
1.28979
2.25621
5.80546
5.07758
1.09872
1.30576
1.32728
2.24849
6.14572
5.09175
1.28628
1.34394
1.29097
1.97701
6.59997
6.91198
3.06501
1.56474
1.36264
1.37512
5.80761
6.87882
2.70962
1.46075
1.4151
1.23111
5.97963
7.25652
2.6396
1.49359
1.4504
1.46732
5.94578
7.53659
2.17949
1.40375
1.81563
3.71104
8.18618
6.8151
1.6073
1.5311
1.6787
3.15826
7.99026
6.64622
1.34986
1.53963
1.7058
3.16854
8.25924
6.9844
1.37565
1.58237
1.74474
3.24998
8.76171
7.16267
1.77918
1.6343
1.58051
2.36409
8.8166
10.0279
4.57047
2.16616
1.77328
1.90546
8.21287
9.76736
3.96594
2.04899
1.80802
1.66119
8.05525
10.0299
3.90716
2.07734
1.84945
1.71566
8.31636
10.5095
4.0617
2.1043
1.91241
2.11478
8.48469
10.2802
2.82118
1.86091
2.62853
5.5113
11.9689
9.68681
2.27482
2.04972
2.46388
4.6599
11.5362
9.31941
1.97224
2.02452
2.37575
4.51587
11.6821
9.4843
2.34672
2.04436
1.97077
2.86851
11.4148
13.3502
6.19403
2.84142
2.13864
2.42416
10.7295
12.9085
5.19971
2.68918
2.09095
2.00332
10.5484
13.1531
5.05864
2.62807
2.1056
2.02405
10.6364
13.5485
5.28896
2.70573
2.16621
2.2063
10.8528
13.8829
5.6094
2.77359
2.26523
2.70703
11.1738
13.399
3.41113
2.21793
3.49861
7.60351
15.9039
12.8258
2.91583
2.48127
3.2511
6.25161
15.4229
12.3148
2.42388
2.39336
3.14099
6.03699
15.3694
12.1657
2.45619
2.3482
3.11547
6.27724
15.5358
12.5066
2.9664
2.39105
2.34656
3.6243
14.8583
17.6771
8.41796
3.84513
2.63217
3.12501
14.2089
17.3058
7.03408
3.57916
2.5557
2.65877
13.6523
17.1577
6.66189
3.46506
2.52288
2.64936
13.6592
17.3942
6.95995
3.45942
2.54384
3.22754
13.7232
16.382
4.13888
2.54306
4.37299
9.43233
19.6274
15.8806
3.5502
2.89352
4.02056
7.80523
19.1731
15.3317
2.94696
2.74671
3.85931
7.46997
18.9886
14.8947
2.88182
2.6928
3.84522
7.62497
19.129
15.1146
3.04971
2.69335
3.83895
7.84761
19.3876
15.2441
3.57209
2.71077
2.71769
4.53637
18.1262
21.8641
10.488
4.8372
3.12604
3.96158
17.7429
21.6399
8.76
4.47056
2.99858
3.26547
16.9215
21.3136
8.42832
4.33299
2.93794
3.33506
16.7248
21.3658
8.67898
4.29754
2.9121
4.00348
17.018
20.1031
5.05796
2.95782
5.42841
11.6919
24.074
19.3511
4.2651
3.38698
4.90932
9.6398
23.5828
18.4013
3.53398
3.16498
4.64429
9.04737
22.9997
18.0526
3.43883
3.06854
4.61202
9.22067
23.0198
18.0027
3.60297
3.05331
4.60485
9.47635
23.1199
18.2345
4.24153
3.01358
3.07184
5.37641
21.5791
26.2187
12.7064
5.83194
3.60093
4.66365
20.8153
25.7254
10.5905
5.35635
3.44359
3.85047
20.0409
25.3863
9.9745
5.14418
3.34037
3.83282
19.8773
25.382
10.22
5.13709
3.34013
4.02413
19.6987
25.161
10.4236
5.13794
3.31774
4.79305
20.0369
23.7664
6.18117
3.42118
6.6098
14.065
28.9215
23.1478
5.19436
3.9983
5.95922
11.7398
28.3577
21.7813
4.27443
3.72916
5.68093
11.0528
27.6158
21.3825
4.16664
3.60864
5.59476
11.1586
27.4651
21.4047
4.37066
3.56432
5.5271
11.269
27.3758
21.5355
5.05733
3.47459
3.57863
6.42747
25.3998
30.9948
15.0052
7.01597
4.22111
5.53714
24.5358
30.6236
12.7139
6.46319
3.96387
4.6676
23.543
29.9688
12.1105
6.132
3.84072
4.61371
23.3464
29.7504
12.047
6.08832
3.84095
4.67704
23.1716
29.6931
12.211
6.114
3.86815
4.87673
23.0472
29.3146
12.4506
6.1477
3.81737
5.70278
23.0907
27.2687
7.30719
3.99688
7.94084
16.7304
33.6962
26.8192
6.33067
4.75318
7.26885
13.926
33.5857
25.9925
5.23028
4.47015
6.91034
13.4198
32.9604
25.2684
5.21599
4.28287
6.80109
13.4599
32.172
24.8676
5.3794
4.22066
6.70075
13.5545
31.7638
24.8372
6.08889
4.07486
4.24185
7.68036
29.1884
35.943
17.6292
8.4518
5.01885
6.67923
28.4426
35.844
15.1894
7.78249
4.69016
5.64459
27.4616
34.9825
14.2751
7.34952
4.51757
5.54308
26.7853
34.1576
14.327
7.21645
4.47187
5.75446
26.2856
33.435
14.4253
7.14895
4.33319
6.54145
26.285
30.9764
8.38252
4.56886
9.15715
19.0724
38.3855
30.4689
7.27886
5.44366
8.44491
16.319
38.5236
29.3374
6.18514
5.05509
7.96757
15.5189
37.198
28.951
6.12218
4.88485
7.8091
15.3564
36.8562
28.6464
6.13415
4.79803
7.66494
15.3817
36.3239
28.1717
6.9023
4.60037
4.80761
8.74425
32.9884
40.7237
20.2183
9.68363
5.73122
7.69189
32.1147
40.7454
17.3488
8.96267
5.33313
6.49627
31.1242
39.6592
16.4204
8.4615
5.16525
6.36323
30.5011
38.8978
16.087
8.26947
5.12315
6.38345
30.3283
38.6371
16.2874
8.29376
5.13402
6.6968
30.1702
38.2716
16.3847
8.26606
4.99491
7.59841
30.1002
35.4462
9.83078
5.2751
10.644
22.1187
44.1979
34.7941
8.51709
6.31693
9.79795
18.7113
43.9584
33.9631
7.22286
5.82199
9.12525
17.6291
42.678
32.895
6.93565
5.60334
9.03712
17.5909
41.4535
32.172
7.2519
5.55165
8.88764
17.6306
40.575
31.604
8.05667
5.29563
5.55365
10.0777
36.9308
46.0383
23.1762
11.1875
6.63447
8.98335
36.087
46.1799
19.8938
10.3656
6.1604
7.61651
35.0463
44.389
18.6758
9.72596
5.96899
7.41421
34.491
43.9253
18.6092
9.60164
5.91572
7.63991
33.8385
42.9306
18.7532
9.51505
5.70836
8.71193
33.6875
39.4121
10.9966
6.02746
12.0952
24.9638
49.1938
39.229
9.83281
7.19721
11.1204
21.0503
49.7168
37.8802
8.0302
6.68049
10.5357
20.1247
47.5083
36.6562
8.08627
6.43494
10.3181
19.9145
46.5351
35.8916
8.21691
6.3125
10.0492
19.8412
45.1858
34.9352
9.09235
5.99361
6.31271
11.569
41.0185
51.6346
26.1894
12.7446
7.54121
10.2501
40.1744
51.433
22.1407
11.6609
6.96968
8.65002
39.4208
49.538
20.9489
10.9909
6.75777
8.49262
38.2959
48.4662
20.7863
10.8186
6.68074
8.77053
38.0205
47.6934
20.6769
10.6558
6.40871
9.80306
37.5735
43.7833
12.2443
6.77255
13.7127
28.1828
54.9032
42.9864
11.2172
8.16247
12.6508
23.6926
54.7571
41.9337
9.26108
7.5596
11.8816
22.3954
52.5428
40.631
9.23475
7.24557
11.4588
22.2913
50.8347
39.4906
10.3004
6.77709
7.10661
12.7356
45.9697
57.2685
28.9292
14.2028
8.45848
11.4294
44.8733
57.3437
24.5712
13.0687
7.85064
9.48028
43.9427
55.1247
23.3677
12.3712
7.58369
9.41325
42.1766
53.5356
23.1606
12.1298
7.47337
9.7211
41.1291
51.8877
23.208
11.9151
7.10231
10.8474
40.5012
47.2651
13.5629
7.5299
15.1429
30.792
59.5633
46.3156
12.2465
9.02716
14.0741
26.2907
60.1805
45.6616
10.4114
8.44349
13.2628
25.0373
57.7692
44.8186
10.4837
8.08923
12.7326
24.4886
55.8217
43.4673
11.389
7.56497
7.94819
14.1204
50.4188
62.8222
32.2105
15.8263
9.40626
12.7923
48.3822
62.2923
27.6317
14.631
8.76359
11.0263
47.7113
60.1229
25.6368
13.6833
8.43966
10.63
46.7721
58.7369
25.4434
13.4158
8.32198
10.8985
45.341
56.8001
25.3667
13.1649
7.89621
11.9809
44.4788
51.9598
15.2048
8.3639
16.6929
33.5937
65.2918
50.9088
13.5228
10.0007
15.5153
29.127
65.6039
50.1037
11.6282
9.32095
14.6389
27.4252
63.3916
48.5476
11.461
8.96394
14.1011
26.8261
60.7742
47.3385
12.5865
8.34803
8.77668
15.5293
54.7614
68.1965
35.1794
17.3792
10.4256
14.3048
53.2584
68.4167
30.0738
16.1244
9.65668
12.0522
51.7919
64.6037
28.2201
15.0682
9.29923
11.9903
49.8681
62.2942
27.7896
14.6839
8.7818
13.2714
48.8768
56.6506
16.2869
9.25054
18.2457
36.6621
70.9487
55.3992
14.918
10.9732
16.9927
31.3498
71.3797
53.9306
12.6107
10.2364
15.9574
29.6625
67.4139
51.8566
12.528
9.79259
15.4202
29.0173
64.7695
50.5471
13.8082
9.12734
9.57906
16.5475
58.3103
72.9323
37.4357
18.8531
11.3196
15.1511
56.9944
73.9791
32.5331
17.6082
10.5701
13.0951
56.6692
70.5512
30.6897
16.539
10.2227
13.2049
54.3572
67.3055
30.2328
16.0948
9.61867
14.4951
52.385
60.5396
17.8718
10.1319
19.8655
39.3088
75.5284
59.1125
16.2417
11.9909
18.5354
34.1085
75.5633
57.1887
14.2503
11.128
17.066
31.6967
70.6863
54.6655
14.8851
10.0731
10.5232
18.0589
62.9598
78.2543
40.3099
20.4439
12.3336
16.5682
60.761
77.8259
35.1862
19.0416
11.5081
14.55
59.1784