/*--------------------------------*- C++ -*----------------------------------*\
| =========                 |                                                 |
| \\      /  F ield         | OpenFOAM: The Open Source CFD Toolbox           |
|  \\    /   O peration     | Version:  v2006                                 |
|   \\  /    A nd           | Website:  www.openfoam.com                      |
|    \\/     M anipulation  |                                                 |
\*---------------------------------------------------------------------------*/
FoamFile
{
    version     2.0;
    format      ascii;
    class       volScalarField;
    location    "0.006";
    object      omega;
}
// * * * * * * * * * * * * * * * * * * * * * * * * * * * * * * * * * * * * * //

dimensions      [0 0 -1 0 0 0 0];


internalField   nonuniform List<scalar> 
41981
(
0.0409862
0.0432319
0.0143571
0.014086
0.0137891
0.01349
0.0132419
0.0128283
0.0125292
0.012525
0.0129161
0.0136693
0.0146106
0.0152064
0.0152679
0.0148604
0.0142107
0.0136179
0.013335
0.0134897
0.0141253
0.0150894
0.0160963
0.0169772
0.0176884
0.0182369
0.018649
0.0189647
0.0192244
0.0194348
0.0196111
0.0197667
0.0199105
0.0200478
0.0201806
0.0203094
0.0204333
0.0205514
0.0206626
0.0207668
0.0208637
0.0209541
0.0210386
0.021119
0.0211982
0.0212827
0.0213808
0.0214901
0.0215829
0.0216523
0.0217179
0.0217794
0.0218248
0.0218393
0.0217473
0.0202865
0.018221
0.0177097
0.0184751
0.0239609
0.0378037
0.068236
0.118217
0.215186
0.332438
0.291757
0.358555
0.524704
0.653047
0.772581
0.904825
1.04487
1.19237
1.34956
1.51316
1.68024
1.85331
2.03441
2.22387
2.423
2.6332
2.85499
3.08616
3.33165
3.58509
3.85114
4.12479
4.41085
4.70532
5.01727
5.34391
5.68715
6.06341
6.46426
6.82706
7.11055
7.33595
7.52153
7.69173
7.8705
8.08547
8.30986
8.50199
8.64466
8.76176
8.88053
9.00248
9.09396
9.20238
9.36606
9.58084
9.71938
9.71915
9.62297
9.51583
9.41439
9.33739
9.21872
9.07954
8.92253
8.73478
8.53033
8.26132
7.89899
7.50083
7.15166
6.81264
6.40781
5.9941
5.61408
5.23311
4.86786
4.49848
4.07536
3.58979
3.07081
2.54294
2.01716
1.5245
1.12928
0.886873
0.816601
0.871185
1.01298
1.57472
2.58129
3.7745
4.78692
5.75381
7.5316
10.8534
17.5252
31.4333
32.3662
23.0031
67.1172
211.261
1026.31
9367.51
52097.9
686209
698385
108083
24390.5
45599.2
159547
710577
715793
165989
52241.7
63076.6
173935
695670
684691
170566
63392.1
69289.9
174409
668910
657417
168366
68588.5
70805.8
170922
643220
640538
167215
69935.6
71747.7
167697
633058
628922
165273
70277.8
71952.5
166284
623928
620988
164859
70459.8
72131.4
166276
616979
614513
165295
70687.7
72445.3
167360
610968
608703
166584
71079.1
72937.9
169050
605425
603260
168350
71623.6
73555.5
171060
600179
598084
170402
72255.2
74231.8
173257
595171
593151
172586
72914.8
74907.2
175433
590435
588531
174685
73542.6
75511.2
177357
586062
584336
176485
74069.1
75983.8
178858
582166
580660
177848
74461.2
76335
179906
578821
577547
178770
74782.4
76686.4
180606
576033
574933
179382
75190
77180.3
181079
573671
572714
179782
75756.4
77798.4
181415
571651
570806
180059
76409.1
78469.7
181668
569875
569095
180329
77103.4
79175.7
181972
568229
567464
180696
77828.6
79913.4
182413
566603
565814
181196
78584.6
80675
182966
564918
564082
181765
79343.9
81417.7
183569
563122
562226
182387
80065.1
82119.1
184229
561194
560235
183067
80750.9
82799.2
184958
559124
558098
183815
81420.9
83457.3
185733
556901
555813
184587
82046.9
84043.7
186477
554542
553410
185307
82574.4
84512
187128
552092
550946
185922
82971.6
84844.3
187662
549613
548475
186418
83233
85047
188098
547143
546024
186790
83373.6
85138.4
188391
544711
543623
186990
83416.1
85146.2
188506
542349
541306
187022
83396.1
85109
188465
540091
539103
186911
83347.9
85049.5
188287
537963
537036
186675
83280.3
84964.8
187992
535972
535100
186332
83182.4
84842.3
187597
534102
533276
185893
83043.3
84676.2
187103
532332
531543
185333
82863.6
84472.4
186488
530642
529884
184647
82655.1
84247
185767
529024
528295
183855
82436.1
84018.4
184932
527479
526780
182961
82227.8
83815.3
184008
526006
525327
182026
82069.7
83684.3
183061
524578
523899
181116
81997.4
83627.4
182152
523146
522443
180268
81968.4
83585.1
181310
521654
520905
179492
81941.8
83554.7
180537
520052
519237
178778
81943
83562.4
179820
518292
517396
178103
81979.4
83592
179136
516346
515367
177439
82021.3
83615.9
178459
514219
513166
176776
82053
83629.9
177784
511929
510805
176121
82071.3
83633.6
177109
509476
508283
175459
82084.6
83637.3
176426
506859
505598
174762
82096.4
83636.2
175707
504086
502764
174023
82103.3
83633.4
174945
501174
499798
173246
82113.4
83634
174142
498138
496711
172427
82125.2
83631.3
173293
494979
493502
171549
82135.2
83629.1
172390
491694
490167
170621
82153.9
83634.7
171440
488280
486701
169649
82174.9
83633.5
170444
484732
483103
168622
82183.9
83617.2
169389
481050
479369
167533
82179.1
83586.8
168269
477230
475500
166372
82159.6
83537.5
167074
473280
471507
165135
82120.6
83469
165803
469214
467409
163824
82070.5
83394.1
164460
465054
463234
162442
82022.9
83319
163046
460801
458950
160974
81969.5
83229.8
161532
456451
454592
159397
81901.4
83129.4
159914
452038
450182
157711
81833.9
83044.5
158167
447588
445760
155858
81792.4
82977.5
156227
443172
441404
153719
81748.4
82866.8
153929
438929
437312
151103
81619.4
82608.1
151027
435097
433745
147715
81279.3
82037.1
147132
431945
430952
143069
80446.4
80928
141901
429631
428998
136984
78946.4
79155.5
135202
428121
427792
129453
76762.1
76573.9
127147
427262
427132
120812
73683.3
73008
118180
426810
426792
111644
69578
68466.5
108871
426583
426630
102372
64598.9
63217.3
99857.1
426471
426555
93794.6
59180.1
57717.3
91548.7
426398
426486
85684.8
53608.8
52117.3
83833.3
426272
426314
78292.8
48088.2
46403.2
77217.4
426093
426097
72451.8
42466.4
40442.4
72465
425941
425933
69038.9
36842.1
35194.5
70429.4
425850
425832
67413.7
32123.8
30949
69058.2
425784
425757
66120.5
28445.5
27439.2
67320.7
425727
425690
65144.7
25654
25058.7
66357.5
425674
425639
64807.4
23778.6
23578.1
66234.5
425635
425606
64928.3
22571.9
22609.4
66518.1
425605
425577
65206.8
21701.1
21790.2
66721.8
425570
425537
65276.8
20902.8
20908.5
66521.4
425525
425489
64998.1
20041.2
19989
66022.2
425481
425446
64481.9
19114.5
19028.6
65363.7
425447
425416
63757.8
18105.3
18048.9
64620.7
425428
425403
62931
17112.6
17195.4
63889.9
425433
425421
62256.2
16336.3
16648.8
63411.1
425478
425487
61983
15908.5
16454.8
63392.7
425576
425604
62274.8
15868.8
16663.5
63952.5
425711
425742
63161.9
16240.7
17290.3
65039.3
425836
425850
64473.7
17015
18227.8
66331.4
425906
425894
65870.2
18013.8
19182.4
67469.5
425909
425879
66942.4
18976.7
19942
68323.6
425876
425844
67571.3
19735.7
20482.9
68588.8
425841
425815
67664.2
20248.8
20865.6
68388.4
425825
425815
67357.5
20750
21485.4
67991.4
425850
425849
67141.4
21609.4
22518.4
67840
425897
425866
67562.3
22916
23805.7
68238.3
425885
425791
68886.4
24498.8
25237.8
68990.1
425758
425616
71092
26154.1
26721.1
69934.9
425520
425354
72502.3
27873.8
27975.6
70127.8
425237
425083
72712.5
29173.7
29005
69527.4
424967
424839
72575.2
30488.4
30473.2
69178
424685
424564
73039.3
32391.9
32662.9
69966.9
424375
424258
74408
34828.1
35038.6
71977.9
424077
423961
75648.3
37072.5
37123.6
73897.5
423778
423647
76480.6
38652.5
38556.4
75408.5
423492
423361
78185.1
39869.2
39614.8
77584.1
423203
423141
80680
40703.3
40319
80367.7
423069
423121
83419
41241.8
40778.3
83210.8
423173
423334
86022.2
41654
41144.8
85790
423502
423747
88390.9
42028.9
41460.3
88188.5
424008
424325
90558.2
42314.2
41656.6
90298.4
424661
425032
92420.4
42481.5
41756.2
92096
425424
425833
94057.5
42571
41784
93702.5
426264
426705
95528.6
42582.6
41736.6
95118.4
427172
427635
96783.8
42532.5
41648.2
96314.2
428127
428607
97832.2
42443.3
41524.6
97304.1
429117
429606
98726.3
42315
41369.4
98146.3
430126
430622
99490.6
42157.3
41186.8
98861.9
431145
431643
100153
41972.8
40980.7
99490.9
432165
432662
100730
41769.5
40760.8
100033
433180
433674
101216
41557.6
40541.1
100483
434186
434675
101612
41352.7
40336.7
100852
435179
435658
101950
41166.3
40153.5
101179
436151
436621
102251
40999.6
39989.5
101467
437105
437565
102499
40850.5
39845
101655
438039
438489
102600
40722.2
39727
101678
438952
439392
102556
40621.2
39639.1
101622
439843
440272
102509
40548.1
39576.8
101617
440710
441127
102550
40497.2
39533
101706
441552
441956
102682
40463.2
39504.3
101873
442366
442757
102878
40445.3
39492.4
102089
443152
443527
103113
40445.5
39498.6
102335
443907
444267
103369
40462.7
39519.8
102594
444631
444976
103633
40493.2
39554.1
102857
445324
445654
103896
40536.3
39594.9
103111
445987
446301
104140
40570.8
39602.1
103326
446617
446915
104318
40545.3
39532.6
103448
447214
447493
104378
40443.1
39399.8
103428
447768
448021
104270
40288.5
39213.8
103241
448262
448477
104014
40059.1
38925
102885
448666
448829
103605
39708.6
38528.9
102458
448952
449052
103173
39295.7
38125.5
101974
449103
449141
102674
38907.5
37731.2
101594
449158
449183
102456
38478.6
37234.6
101625
449230
449330
102938
37940.5
36509.3
102422
449783
444760
105068
37148.4
35049.8
102158
446187
445442
105621
35176.2
29559.9
102376
439040
415059
99573.3
24991.3
13245.7
79247.6
390986
369486
68565.9
10340.6
5205.05
48138
357038
337291
18763.9
2428.27
2158.53
2042.28
2011.79
2000.34
1998.63
1998
1997.73
1997.75
1997.81
1997.72
1997.81
1997.87
1997.77
1997.95
1997.71
1997.98
1997.64
1997.99
1997.53
1997.97
1997.35
1997.86
1996.99
1997.61
1996.53
1997.16
1997.44
1996.61
1998.32
2000.33
2007.42
2043.55
2073.99
2056.64
2005.52
1998.47
1998.27
1997.59
1997.78
2000
2000.51
2000.11
2050.89
2118.77
2208.62
3156.74
67296.2
1.23504e+06
1.27111e+06
183589
18400.5
40923.1
263407
1.30466e+06
1.34242e+06
299718
64038.4
80395
316432
1.33343e+06
1.33968e+06
323443
95087.3
108006
340460
1.36312e+06
1.3908e+06
339489
114313
122843
340817
1.38826e+06
1.38951e+06
340220
126436
129104
339250
1.38551e+06
1.38708e+06
338105
130500
131539
337666
1.3869e+06
1.38679e+06
337218
131864
132299
337276
1.38669e+06
1.38663e+06
337370
132441
132769
337721
1.38654e+06
1.38647e+06
337919
132916
133219
338277
1.38638e+06
1.38631e+06
338395
133332
133571
338669
1.38622e+06
1.38615e+06
338755
133656
133835
338972
1.38606e+06
1.38599e+06
339029
133894
134025
339219
1.3859e+06
1.38582e+06
339273
134068
134169
339459
1.38573e+06
1.38565e+06
339507
134195
134267
339698
1.38556e+06
1.38548e+06
339752
134281
134329
339942
1.38538e+06
1.38529e+06
339979
134331
134355
340136
1.38518e+06
1.38509e+06
340156
134350
134363
340270
1.38498e+06
1.38488e+06
340267
134353
134364
340341
1.38476e+06
1.38465e+06
340321
134354
134361
340361
1.38452e+06
1.38441e+06
340313
134346
134348
340330
1.38427e+06
1.38415e+06
340263
134330
134327
340254
1.38401e+06
1.38389e+06
340164
134297
134291
340138
1.38374e+06
1.38361e+06
340025
134260
134255
339986
1.38347e+06
1.38334e+06
339847
134226
134224
339798
1.38318e+06
1.38305e+06
339647
134203
134206
339585
1.3829e+06
1.38276e+06
339410
134190
134200
339337
1.3826e+06
1.38247e+06
339147
134191
134205
339060
1.38231e+06
1.38216e+06
338843
134198
134213
338744
1.382e+06
1.38186e+06
338510
134207
134218
338396
1.38169e+06
1.38154e+06
338130
134208
134211
338001
1.38137e+06
1.38122e+06
337710
134195
134186
337556
1.38105e+06
1.38089e+06
337220
134151
134129
337040
1.38071e+06
1.38055e+06
336667
134069
134030
336456
1.38037e+06
1.38021e+06
336032
133934
133878
335788
1.38003e+06
1.37987e+06
335336
133748
133673
335063
1.37969e+06
1.37953e+06
334574
133511
133422
334283
1.37934e+06
1.37918e+06
333779
133238
133135
333478
1.379e+06
1.37884e+06
332950
132934
132818
332646
1.37866e+06
1.3785e+06
332116
132613
132491
331811
1.37832e+06
1.37816e+06
331272
132281
132160
330966
1.37798e+06
1.37783e+06
330440
131951
131835
330137
1.37765e+06
1.37749e+06
329612
131625
131514
329314
1.37732e+06
1.37717e+06
328806
131309
131207
328515
1.37699e+06
1.37684e+06
328010
131004
130910
327726
1.37667e+06
1.37652e+06
327240
130718
130630
326965
1.37635e+06
1.37621e+06
326482
130445
130362
326214
1.37604e+06
1.3759e+06
325748
130187
130109
325489
1.37574e+06
1.37559e+06
325025
129943
129869
324772
1.37543e+06
1.3753e+06
324324
129712
129643
324080
1.37514e+06
1.375e+06
323634
129492
129426
323396
1.37485e+06
1.37472e+06
322966
129284
129221
322737
1.37457e+06
1.37445e+06
322310
129082
129020
322087
1.3743e+06
1.37418e+06
321679
128888
128828
321466
1.37404e+06
1.37392e+06
321062
128697
128638
320857
1.37379e+06
1.37368e+06
320472
128510
128452
320278
1.37355e+06
1.37344e+06
319899
128323
128264
319713
1.37332e+06
1.37322e+06
319354
128136
128075
319179
1.37311e+06
1.37302e+06
318828
127943
127879
318662
1.37291e+06
1.37283e+06
318332
127744
127677
318177
1.37273e+06
1.37266e+06
317859
127534
127461
317712
1.37257e+06
1.37251e+06
317415
127310
127230
317280
1.37244e+06
1.37239e+06
316996
127065
126975
316871
1.37233e+06
1.37229e+06
316610
126796
126695
316498
1.37225e+06
1.37223e+06
316252
126494
126373
316148
1.37221e+06
1.37221e+06
315920
126147
125995
315822
1.37221e+06
1.37224e+06
315596
125733
125524
315492
1.37228e+06
1.37235e+06
315260
125219
124922
315130
1.37244e+06
1.37257e+06
314847
124558
124071
314575
1.37273e+06
1.37295e+06
314276
123642
122656
313223
1.37324e+06
1.37374e+06
312069
122243
121821
311023
1.34731e+06
1.31938e+06
310810
120936
121801
312799
1.32277e+06
1.34494e+06
315604
121335
120229
313307
1.34893e+06
1.32172e+06
312966
119759
119588
307880
1.29671e+06
1.27231e+06
304245
116949
115291
299530
1.24678e+06
1.20225e+06
294336
113025
112323
287556
1.15934e+06
1.13657e+06
281830
109120
108052
282590
1.13503e+06
1.0921e+06
264532
102255
99753.5
262562
1.02114e+06
955244
114057
76627
212768
542722
1.56279e+06
2.92262e+06
498014
177877
161441
432963
2.11968e+06
1.97148e+06
445034
162373
156511
431806
1.91329e+06
1.81951e+06
424939
159054
150850
399658
1.73768e+06
1.69965e+06
392472
151210
140496
363363
1.6225e+06
1.55551e+06
363712
141343
130980
339718
1.48842e+06
1.39636e+06
331196
129795
117178
304888
1.33536e+06
1.23714e+06
309703
116955
86728.3
116165
1.0854e+06
1.70237e+06
573926
222862
182267
495848
2.92073e+06
2.00856e+06
419137
159448
141755
368074
1.69324e+06
1.51127e+06
345438
131334
123616
334317
1.41532e+06
1.3294e+06
317418
116080
111188
299467
1.22362e+06
1.15491e+06
278873
102453
98204.3
270783
1.06614e+06
970888
114248
73519.5
211297
543054
1.57205e+06
2.76526e+06
468419
175256
150082
390042
1.92903e+06
1.74788e+06
387609
147019
131023
349344
1.61635e+06
1.4713e+06
335995
128781
113805
302273
1.37378e+06
1.23604e+06
303434
111564
82378.3
112240
1.08166e+06
1.69961e+06
576313
228301
181137
489620
2.92909e+06
1.93767e+06
388615
152402
134228
340662
1.58138e+06
1.37936e+06
306311
119478
106458
275750
1.21432e+06
1.0768e+06
265376
100098
76033.1
107940
959931
1.53802e+06
547861
219962
172916
462101
2.69374e+06
1.83127e+06
378715
150504
128595
328188
1.5204e+06
1.34623e+06
320476
124324
93605.3
122074
1.15797e+06
1.7825e+06
643741
257089
198132
525454
3.03697e+06
1.99309e+06
414543
167656
142587
358147
1.58136e+06
1.34421e+06
308332
123767
110193
290903
1.15968e+06
1.0014e+06
114129
82305.8
243203
596074
1.56843e+06
2.7134e+06
489583
190978
156077
389428
1.84037e+06
1.45758e+06
353951
142696
101865
137755
1.18717e+06
1.8042e+06
689619
283770
215194
548444
2.96366e+06
1.85145e+06
399514
174280
146232
369438
1.39902e+06
1.135e+06
151293
102011
288206
679845
1.72507e+06
2.74651e+06
522996
219404
181937
452741
1.73631e+06
1.31747e+06
182286
127573
341662
794977
2.02145e+06
3.09399e+06
598760
253703
198460
499469
1.81143e+06
1.32614e+06
175518
143456
358811
792081
1.94382e+06
2.81426e+06
652414
263846
197384
209681
1.68378e+06
2.3144e+06
953916
448433
316948
751927
3.12211e+06
1.80698e+06
227362
228901
488537
1.01645e+06
2.40688e+06
3.10229e+06
791409
339512
232279
236580
1.7106e+06
2.1486e+06
927994
469981
281778
351223
2.44586e+06
2.70316e+06
1.13959e+06
570881
290400
554108
2.28762e+06
2.04542e+06
680762
327860
396374
958857
2.94367e+06
3.75104e+06
1.15657e+06
467248
473417
1.18133e+06
4.05351e+06
3.47534e+06
1.12574e+06
442993
286830
523369
2.52164e+06
2.92668e+06
1.62183e+06
817546
513275
818792
3.0502e+06
3.08425e+06
1.59269e+06
922657
601431
812555
2.88498e+06
2.86892e+06
1.50864e+06
860716
583831
773990
2.58664e+06
2.50707e+06
1.26419e+06
754604
516478
660893
2.27063e+06
2.11783e+06
1.12027e+06
657500
443570
600547
1.71011e+06
1.44073e+06
647176
437448
637114
1.18486e+06
2.6253e+06
2.05422e+06
595104
413802
401667
626349
1.63352e+06
3.04014e+06
1.25772e+06
623159
400748
549042
2.42969e+06
2.10027e+06
956237
508450
321380
496416
1.65312e+06
1.28999e+06
566132
326053
505912
994318
2.31921e+06
1.70024e+06
581537
318800
311063
556847
1.33e+06
2.53112e+06
722839
420482
318787
464146
1.80502e+06
1.32827e+06
447874
321168
389780
428482
2.40983e+06
1.75383e+06
312809
284422
282756
418719
1.3441e+06
2.44399e+06
437018
265943
291192
498765
1.73558e+06
1.33257e+06
270219
232605
233410
370168
2.42546e+06
1.6984e+06
434252
238291
187841
203161
1.29441e+06
2.32911e+06
371373
187619
227175
487348
1.57199e+06
1.10071e+06
108799
147963
149426
299821
1.63222e+06
3.02957e+06
451720
191024
248669
617723
2.10795e+06
1.51653e+06
134317
129752
186974
454066
2.70226e+06
1.98476e+06
596919
239098
126453
123419
1.4887e+06
2.66845e+06
446422
186320
247927
597327
1.90825e+06
1.44705e+06
130084
128418
189018
449426
2.70644e+06
1.92131e+06
609852
252636
128882
130507
1.42578e+06
2.58152e+06
443942
190004
252229
608009
1.84969e+06
1.39414e+06
114422
124696
176938
421261
2.54925e+06
1.84779e+06
583985
241427
117368
105087
1.39187e+06
2.54719e+06
413021
171887
232044
571143
1.80383e+06
1.35507e+06
101682
112962
164020
398506
2.46059e+06
1.75278e+06
557168
227037
109989
105952
1.34726e+06
2.47287e+06
408971
163994
219706
550182
1.75383e+06
1.35323e+06
82587.7
102138
145166
366963
2.45614e+06
1.7622e+06
509139
194597
90038.1
76426.3
1.34541e+06
2.43286e+06
366732
136545
184649
499135
1.7206e+06
1.30566e+06
86553.1
81940.8
124254
346005
2.37411e+06
1.71892e+06
452722
164757
74625
104679
1.30129e+06
2.37346e+06
356092
128748
169369
464596
1.71179e+06
1.32318e+06
134681
73874.8
122070
363848
2.4855e+06
1.77786e+06
456555
153831
62031.8
98683.4
1.32293e+06
2.42309e+06
336161
100192
132055
386414
1.77432e+06
1.35266e+06
157041
53672.6
112342
377914
2.52778e+06
1.81172e+06
395288
135351
47930
153139
1.36799e+06
2.49161e+06
366062
103137
118462
343926
1.83071e+06
1.41695e+06
207198
58058.4
114718
410877
2.65258e+06
1.85998e+06
402897
130869
47468.6
174203
1.42724e+06
2.81882e+06
407851
105662
95954.4
348323
2.32352e+06
2.05131e+06
318747
94746.3
72526.8
230729
1.53739e+06
1.24334e+06
199752
70017.8
116141
388327
2.38729e+06
1.71821e+06
254803
75934.4
80210.7
241232
1.35466e+06
2.57785e+06
430076
123039
84883.3
290121
1.82706e+06
1.38989e+06
205403
62676
111993
399159
2.62863e+06
1.91292e+06
262670
73713.8
80290.8
234416
1.47259e+06
2.89953e+06
518476
177363
105609
344269
2.32227e+06
1.97212e+06
363247
120057
78079.1
221589
1.50684e+06
1.20639e+06
204379
62907.8
140198
433015
2.27085e+06
1.72974e+06
273093
95849
63836.3
206322
1.36471e+06
2.60067e+06
442679
132737
99183.4
293084
1.88691e+06
1.48409e+06
232404
70711.5
151720
500435
2.92753e+06
2.33867e+06
371322
126674
85193.8
317783
2.06642e+06
1.57156e+06
247081
93530.2
76846.3
239757
1.27586e+06
2.55768e+06
390110
115591
113439
300455
1.85839e+06
1.45466e+06
249925
82358.2
134118
443725
2.93172e+06
2.37302e+06
389419
141990
97927.2
353137
2.06976e+06
1.58053e+06
324901
130279
65006.4
186889
1.27719e+06
2.50961e+06
376445
122485
141551
369260
1.87972e+06
1.46082e+06
215681
73217.4
144517
440449
2.87535e+06
2.33722e+06
459999
175209
86787.8
286241
2.04951e+06
1.64672e+06
351532
149761
82957.6
209698
1.34965e+06
2.77366e+06
421239
148505
202714
516681
2.24347e+06
1.96061e+06
258492
93652.1
149499
368920
1.57755e+06
1.29593e+06
188701
80928.9
131627
374622
2.62025e+06
2.18186e+06
455017
166902
98254.3
256429
1.92493e+06
1.45919e+06
287743
111304
81512.7
189342
1.194e+06
2.42995e+06
342819
117599
116870
330960
1.87232e+06
1.47695e+06
230611
92598.1
134893
423350
2.91818e+06
2.39019e+06
367917
120031
127377
354436
2.10702e+06
1.64789e+06
241033
94665.3
92621.5
224324
1.35174e+06
2.75746e+06
413260
148659
104541
309281
2.29906e+06
2.02345e+06
381238
144911
88255.3
225859
1.60439e+06
1.33688e+06
243762
93503.6
179165
511197
2.8059e+06
2.385e+06
313050
102054
163153
425082
2.09885e+06
1.65603e+06
233626
92277.5
95515.4
251643
1.35948e+06
2.77445e+06
496419
184333
95187.1
281396
2.29781e+06
2.05434e+06
437658
173905
93510.8
226890
1.66133e+06
1.38421e+06
268961
101192
222854
589412
2.84441e+06
2.35552e+06
273846
94308.2
196534
484013
2.09737e+06
1.65531e+06
230359
100362
105438
263302
1.35286e+06
2.77772e+06
632002
236850
102138
257897
2.38663e+06
2.19873e+06
542135
216053
102685
207890
1.93552e+06
1.78173e+06
487547
193223
98752
205917
1.4692e+06
1.24743e+06
263842
107770
251303
658304
2.63786e+06
2.19332e+06
236664
120866
217406
534958
1.9684e+06
1.58469e+06
222604
108092
116188
272004
1.30723e+06
2.68828e+06
684583
263677
130115
239657
2.34941e+06
2.15844e+06
592704
237159
124834
197194
1.90658e+06
1.75163e+06
519801
213727
109974
213936
1.50921e+06
1.29747e+06
271169
119400
280335
720197
2.62752e+06
2.25298e+06
240330
144236
240629
577929
2.04296e+06
1.61886e+06
234573
121545
129223
289807
1.37145e+06
2.83497e+06
770413
298127
158383
236528
2.3588e+06
2.20263e+06
661290
269135
143123
193404
1.97839e+06
1.82157e+06
568216
242270
125531
227211
1.50088e+06
1.28908e+06
290822
136487
311178
787557
2.6814e+06
2.25515e+06
245208
166455
275917
653875
2.05203e+06
1.66643e+06
255936
140041
149655
320428
1.40415e+06
2.86808e+06
838103
340370
183526
260552
2.42647e+06
2.30201e+06
740566
311957
168017
225830
2.01647e+06
1.86382e+06
643679
280459
147921
264174
1.60905e+06
1.38241e+06
326623
159835
362380
887985
2.89115e+06
2.53166e+06
281037
196475
326245
755206
2.2891e+06
2.05125e+06
232611
178360
294579
657156
1.94171e+06
1.61165e+06
273582
157589
167762
332496
1.38298e+06
2.83263e+06
899332
377887
206799
274696
2.49925e+06
2.32538e+06
794431
345847
194558
233072
2.07106e+06
1.99931e+06
713002
324074
182725
230337
1.85495e+06
1.77191e+06
663893
302649
166330
275210
1.4861e+06
1.29717e+06
345337
178680
388203
911841
2.71734e+06
2.37433e+06
273302
217084
361788
818495
2.24913e+06
2.01953e+06
255791
200176
327352
707073
1.86475e+06
1.55881e+06
295939
179533
191428
363696
1.35899e+06
2.87974e+06
990622
415922
231434
300306
2.45369e+06
2.23565e+06
833510
382149
213621
268688
2.03193e+06
1.90743e+06
732993
347002
192136
310012
1.56775e+06
1.36816e+06
384301
205314
443820
1.03861e+06
2.89315e+06
2.56768e+06
311770
249627
411143
902259
2.40421e+06
2.17122e+06
289391
235293
382340
807109
2.10631e+06
1.94213e+06
286064
222521
355664
747309
1.83919e+06
1.53281e+06
326205
200728
212539
399891
1.35216e+06
2.78585e+06
1.02148e+06
451914
262029
311199
2.40882e+06
2.30295e+06
881223
422295
240349
309578
2.07981e+06
2.0168e+06
808530
390518
229405
298586
1.90328e+06
1.82843e+06
762367
365161
206695
337741
1.52768e+06
1.36872e+06
420416
223376
476334
1.07602e+06
2.91991e+06
2.45954e+06
336947
272765
435793
898190
2.28224e+06
2.03258e+06
314896
252272
401290
829266
1.97824e+06
1.67311e+06
371168
226688
240872
445766
1.45074e+06
3.02307e+06
1.14148e+06
504047
290131
356732
2.58232e+06
2.43122e+06
965035
465817
269814
352536
2.22714e+06
2.16404e+06
888041
433011
259893
337949
2.02417e+06
2.01029e+06
841258
415835
251613
328167
1.86349e+06
1.81028e+06
791257
394173
228320
369812
1.55067e+06
1.40149e+06
449999
246307
520050
1.15021e+06
2.94384e+06
2.54423e+06
367044
303585
477623
962984
2.37714e+06
2.13931e+06
361382
281744
442600
894312
2.10879e+06
1.94878e+06
350136
269630
419595
835747
1.88451e+06
1.62232e+06
393746
242959
258695
464257
1.43226e+06
2.88114e+06
1.1668e+06
532909
320778
367590
2.53229e+06
2.43064e+06
992361
500446
292981
382759
2.18888e+06
2.10967e+06
900994
458721
278332
357084
1.9668e+06
1.9364e+06
854560
433421
253707
406358
1.62724e+06
1.46085e+06
489620
272223
561844
1.21571e+06
3.01434e+06
2.61101e+06
395073
335414
519082
1.02446e+06
2.49013e+06
2.27337e+06
397715
309418
487876
971307
2.26857e+06
2.12835e+06
389492
300784
470584
930504
2.12407e+06
1.9964e+06
378870
291005
448737
874336
1.94589e+06
1.62907e+06
421421
264155
280543
498900
1.45003e+06
2.94625e+06
1.22084e+06
568996
342216
399164
2.58444e+06
2.46463e+06
1.01763e+06
525720
314295
404303
2.2118e+06
2.19394e+06
960486
491828
303146
392801
2.05442e+06
2.03438e+06
918272
472080
276932
450208
1.7556e+06
1.55601e+06
534122
297355
611513
1.31849e+06
3.16589e+06
2.7849e+06
428752
368403
565523
1.1101e+06
2.65332e+06
2.37341e+06
441754
339922
525064
1.02074e+06
2.32477e+06
2.16497e+06
418389
326475
503963
978836
2.19474e+06
2.06256e+06
409390
315660
482316
929326
2.02042e+06
1.71168e+06
455546
287218
305096
536444
1.54105e+06
3.13376e+06
1.31854e+06
616109
371165
436196
2.70022e+06
2.5553e+06
1.09283e+06
568002
341723
440519
2.3193e+06
2.31287e+06
1.01912e+06
529245
330082
427239
2.15885e+06
2.19374e+06
987027
512875
322311
419935
2.03261e+06
2.00286e+06
932921
493909
295818
471660
1.7525e+06
1.59838e+06
563580
316145
643996
1.37189e+06
3.27843e+06
2.81859e+06
452083
392546
594905
1.14919e+06
2.69154e+06
2.40378e+06
464041
361745
559552
1.07495e+06
2.39486e+06
2.23215e+06
450844
349899
536421
1.02539e+06
2.24335e+06
2.09745e+06
436733
337793
510900
961734
2.06496e+06
1.74963e+06
483380
306471
324609
566165
1.58071e+06
3.15512e+06
1.35129e+06
644947
400119
446405
2.71697e+06
2.6471e+06
1.13587e+06
604876
366263
476228
2.3996e+06
2.37441e+06
1.08083e+06
563299
353217
458400
2.20357e+06
2.24391e+06
1.02409e+06
543407
345589
447531
2.10736e+06
2.13093e+06
985569
526428
336004
432529
1.96413e+06
1.95867e+06
938786
508239
307806
483988
1.69674e+06
1.53821e+06
573087
330348
656550
1.36372e+06
3.08746e+06
2.70641e+06
460768
411676
615416
1.12214e+06
2.62005e+06
2.37775e+06
478502
377016
576507
1.09794e+06
2.40851e+06
2.20337e+06
474013
365953
556833
1.04657e+06
2.21924e+06
2.07088e+06
459657
355117
533609
988538
2.04436e+06
1.73487e+06
505287
323725
342404
587503
1.56492e+06
3.11054e+06
1.3759e+06
670877
421908
468613
2.71809e+06
2.65853e+06
1.16333e+06
631383
385113
489989
2.40897e+06
2.41703e+06
1.10685e+06
588539
372258
483333
2.20826e+06
2.22568e+06
1.0567e+06
564867
360905
468345
2.04574e+06
2.02213e+06
992726
540156
329342
513256
1.75055e+06
1.59133e+06
605312
352860
693592
1.41981e+06
3.17793e+06
2.78598e+06
486817
434271
650345
1.19819e+06
2.73663e+06
2.43663e+06
514662
401440
610028
1.14457e+06
2.43912e+06
2.30383e+06
505231
389677
588923
1.09468e+06
2.32951e+06
2.16584e+06
486614
378111
564565
1.03509e+06
2.14723e+06
1.7896e+06
533392
345582
364696
619336
1.61662e+06
3.19611e+06
1.44065e+06
708140
443894
499296
2.79216e+06
2.74507e+06
1.21323e+06
664151
407787
517978
2.47944e+06
2.49188e+06
1.1605e+06
622755
395655
514685
2.304e+06
2.31716e+06
1.09145e+06
596916
385241
491710
2.15708e+06
2.2226e+06
1.05673e+06
578947
376067
485416
2.07655e+06
2.07736e+06
1.00908e+06
561017
346145
535027
1.77715e+06
1.64788e+06
634209
368783
720525
1.47573e+06
3.28153e+06
2.81097e+06
518350
452502
669771
1.2152e+06
2.73615e+06
2.46159e+06
530786
417714
625826
1.15637e+06
2.48196e+06
2.25159e+06
516703
403203
607906
1.10876e+06
2.30497e+06
2.14096e+06
506557
392566
582291
1.05101e+06
2.12714e+06
1.79712e+06
551304
357919
378575
637538
1.63157e+06
3.20396e+06
1.47165e+06
731129
458689
523212
2.79482e+06
2.75883e+06
1.23746e+06
683316
422768
539274
2.44448e+06
2.43854e+06
1.16188e+06
636102
408280
520985
2.2812e+06
2.35012e+06
1.12344e+06
616502
399046
515245
2.15566e+06
2.15642e+06
1.07121e+06
596129
366717
567010
1.84726e+06
1.68296e+06
662031
390683
755568
1.51964e+06
3.28291e+06
2.91087e+06
551144
470770
697325
1.2625e+06
2.84955e+06
2.48112e+06
548566
438996
659875
1.20762e+06
2.5245e+06
2.35512e+06
546863
426036
639122
1.15856e+06
2.39771e+06
2.18233e+06
530684
413403
608097
1.08836e+06
2.17281e+06
1.82768e+06
575789
376019
398391
671308
1.68096e+06
3.35799e+06
1.54339e+06
770064
480144
556360
2.86686e+06
2.77541e+06
1.25613e+06
704827
440103
556844
2.45317e+06
2.48208e+06
1.18971e+06
658405
425129
548239
2.28829e+06
2.33689e+06
1.13925e+06
634595
413681
533572
2.16821e+06
2.17513e+06
1.07606e+06
610095
379181
582412
1.85728e+06
1.71642e+06
677880
403889
788283
1.58087e+06
3.36978e+06
2.92579e+06
581457
490534
724454
1.29069e+06
2.83157e+06
2.50022e+06
572500
456381
680115
1.21899e+06
2.52496e+06
2.30447e+06
557353
438357
646681
1.1569e+06
2.31616e+06
1.94799e+06
613391
398463
420875
703552
1.77085e+06
3.45684e+06
1.59626e+06
807531
505956
583559
3.00631e+06
2.91861e+06
1.31614e+06
743905
465089
578868
2.56369e+06
2.62698e+06
1.25897e+06
698560
450576
576553
2.4047e+06
2.45635e+06
1.20503e+06
673733
438254
563154
2.22711e+06
2.22901e+06
1.13718e+06
643823
399863
609383
1.88989e+06
1.73516e+06
706409
426001
817008
1.61332e+06
3.4123e+06
2.9691e+06
591678
513642
760937
1.34208e+06
2.92863e+06
2.58308e+06
608168
479049
711050
1.27315e+06
2.58557e+06
2.35574e+06
590084
460123
671738
1.18218e+06
2.3486e+06
1.96757e+06
634239
418418
441313
728400
1.80872e+06
3.50276e+06
1.64994e+06
837247
524036
610128
2.98568e+06
2.93748e+06
1.36921e+06
772380
484918
614384
2.62882e+06
2.6453e+06
1.27769e+06
718884
466594
596438
2.41801e+06
2.49977e+06
1.22948e+06
692788
454166
587145
2.27269e+06
2.2671e+06
1.15956e+06
662788
414795
628581
1.92533e+06
1.79825e+06
734352
440712
835347
1.63289e+06
3.48605e+06
2.96497e+06
615345
526396
774765
1.37506e+06
2.95604e+06
2.63711e+06
612189
491682
732014
1.3033e+06
2.68113e+06
2.40044e+06
611711
474200
693044
1.2082e+06
2.37129e+06
1.97749e+06
650670
430212
453564
744684
1.82107e+06
3.48951e+06
1.65828e+06
851434
533427
631964
3.02678e+06
2.98774e+06
1.38025e+06
783370
494599
619818
2.57618e+06
2.59138e+06
1.28458e+06
727628
474397
607821
2.36055e+06
2.37282e+06
1.21131e+06
696910
435499
660953
2.00747e+06
1.85688e+06
757485
460324
868970