/*--------------------------------*- C++ -*----------------------------------*\
| =========                 |                                                 |
| \\      /  F ield         | OpenFOAM: The Open Source CFD Toolbox           |
|  \\    /   O peration     | Version:  v2006                                 |
|   \\  /    A nd           | Website:  www.openfoam.com                      |
|    \\/     M anipulation  |                                                 |
\*---------------------------------------------------------------------------*/
FoamFile
{
    version     2.0;
    format      ascii;
    class       volScalarField;
    location    "0.146";
    object      Co;
}
// * * * * * * * * * * * * * * * * * * * * * * * * * * * * * * * * * * * * * //

dimensions      [0 0 0 0 0 0 0];


internalField   nonuniform List<scalar> 
16277
(
0.00667553
0.0063632
0.0069063
0.00717057
0.00720876
0.00705761
0.00705388
0.00693496
0.00688323
0.00686927
0.00683129
0.0068169
0.00680296
0.00679304
0.00678207
0.00677098
0.00675931
0.00674698
0.00673428
0.006721
0.00670715
0.00669273
0.00667776
0.00666225
0.0066462
0.00662962
0.00661252
0.00659491
0.00657679
0.00655819
0.0065391
0.00651954
0.00649954
0.00647909
0.00645823
0.00643696
0.00641531
0.0063933
0.00637094
0.00634825
0.00632526
0.006302
0.00627847
0.00625471
0.00623075
0.00620659
0.00618228
0.00615784
0.00613329
0.00610866
0.00608398
0.00605927
0.00603457
0.00600991
0.0059853
0.00596078
0.00593639
0.00591214
0.00588807
0.00586422
0.00584061
0.00581726
0.00579422
0.00577151
0.00574915
0.00572719
0.00570564
0.00568453
0.0056639
0.00564376
0.00562413
0.00560505
0.00558654
0.00556863
0.00555135
0.0055347
0.00551867
0.00550319
0.0054867
0.0054718
0.00545855
0.0054491
0.00544695
0.00547995
0.00554384
0.00571753
0.00603149
0.00674938
0.00842124
0.0120079
0.0180063
0.0141661
0.0127268
0.0121915
0.0119232
0.0116587
0.0111343
0.0100969
0.0110784
0.011718
0.0109168
0.0108004
0.0101608
0.00838898
0.0090318
0.00923827
0.00918766
0.00918523
0.00861694
0.00783939
0.00854697
0.00871993
0.00898907
0.00883163
0.00804547
0.00782618
0.00863092
0.00881667
0.00902048
0.00879867
0.00789146
0.00779216
0.00867072
0.00886395
0.00903338
0.00877065
0.00779509
0.00769436
0.00864158
0.00886467
0.00899145
0.00871279
0.007676
0.00758012
0.00858026
0.00883314
0.00895165
0.00864744
0.00756381
0.00747359
0.00851543
0.00879347
0.00890864
0.00858229
0.00746166
0.007376
0.00845145
0.00875172
0.008864
0.00851827
0.00736737
0.0072853
0.00838933
0.00870893
0.00881837
0.0084554
0.00727923
0.0071998
0.00832903
0.00866556
0.00877187
0.00839326
0.00719577
0.00711851
0.00826885
0.00862046
0.00872451
0.00833158
0.00711591
0.00704042
0.00820864
0.00857386
0.0086762
0.00827014
0.00703884
0.00696478
0.00814824
0.00852574
0.00862695
0.00820875
0.00696392
0.00689102
0.00808746
0.00847609
0.00857668
0.00814719
0.00689062
0.00681863
0.00802611
0.00842486
0.00852526
0.00808522
0.00681847
0.00674728
0.00796412
0.00837206
0.00847259
0.00802268
0.00674714
0.00667645
0.00790118
0.00831762
0.0084186
0.00795941
0.0066763
0.00660602
0.00783729
0.00826148
0.00836318
0.00789526
0.00660572
0.00653575
0.00777229
0.00820354
0.00830624
0.00783007
0.00653517
0.00646541
0.00770606
0.00814376
0.00824765
0.00776372
0.00646445
0.00639481
0.00763967
0.00808471
0.00818727
0.00769605
0.00639333
0.00632375
0.00757209
0.00802446
0.00812507
0.00762697
0.00632166
0.00625204
0.00750303
0.00796235
0.00806093
0.00755633
0.00624924
0.00617951
0.00743236
0.00789827
0.00799473
0.00748399
0.00617591
0.00610599
0.00735994
0.00783212
0.00792636
0.00740981
0.00610149
0.0060313
0.00728564
0.00776377
0.0078557
0.00733365
0.00602582
0.0059553
0.00720932
0.0076931
0.00778262
0.00725539
0.00594875
0.00587784
0.00713085
0.00762002
0.00770703
0.00717489
0.00587015
0.00579879
0.00705013
0.0075444
0.0076288
0.00709206
0.0057899
0.00571806
0.00696705
0.00746615
0.00754786
0.0070068
0.00570791
0.00563557
0.00688154
0.00738519
0.00746413
0.00691905
0.00562414
0.0055513
0.00679354
0.00730146
0.00737755
0.00682878
0.00553859
0.00546529
0.00670307
0.00721492
0.00728813
0.00673603
0.00545134
0.00537766
0.00661019
0.0071256
0.00719594
0.00664092
0.00536254
0.0052886
0.00651506
0.0070336
0.00710112
0.00654365
0.00527243
0.00519839
0.00641791
0.0069391
0.00700387
0.00644449
0.00518135
0.00510743
0.00631909
0.00684234
0.00690453
0.00634387
0.00508979
0.0050163
0.00621906
0.0067437
0.00680354
0.00624236
0.00499841
0.00492574
0.00611849
0.00664369
0.00670152
0.00614071
0.00490805
0.00483671
0.00601823
0.006543
0.00659929
0.00603991
0.0048198
0.00475041
0.00591936
0.00644254
0.00649788
0.0059412
0.00473501
0.00466834
0.00582325
0.00634346
0.00639864
0.00584612
0.00465535
0.00459231
0.00573157
0.0062472
0.00630324
0.00575657
0.0045828
0.00452445
0.00564641
0.0061556
0.00621369
0.00567471
0.00451966
0.00446889
0.00557123
0.00607067
0.00613209
0.0056027
0.00446872
0.00443364
0.0055223
0.00600749
0.00606123
0.00554402
0.0044335
0.00441597
0.00549528
0.00597881
0.00600466
0.00550171
0.00441587
0.00441769
0.00548837
0.00596982
0.00596549
0.00547847
0.00441762
0.00443941
0.00550224
0.00598097
0.00594263
0.00547305
0.00443937
0.00448038
0.00553575
0.00601079
0.00594575
0.00549609
0.00448361
0.00454173
0.00559099
0.00606255
0.00599475
0.00555887
0.00455472
0.00462317
0.00566702
0.0061346
0.00607009
0.00563935
0.004642
0.00471619
0.00575495
0.00621728
0.00615543
0.00573083
0.00473844
0.00481565
0.00585111
0.0063075
0.00624676
0.00582854
0.00483896
0.00491746
0.0059522
0.00640288
0.00634196
0.00592968
0.00494028
0.00501857
0.00605515
0.00650068
0.00643817
0.00603118
0.00503952
0.0051162
0.0061569
0.006598
0.00653274
0.00613025
0.00513404
0.00520792
0.00625492
0.00669236
0.00662344
0.00622457
0.00522169
0.00529185
0.00634708
0.00678176
0.00670844
0.00631228
0.00530084
0.00536659
0.00643174
0.00686451
0.00678631
0.00639194
0.00537037
0.00543138
0.00650768
0.00693942
0.00685606
0.00646396
0.00543156
0.00548612
0.00657412
0.0070057
0.00692054
0.00653346
0.00548627
0.00553069
0.00663056
0.00706289
0.00698996
0.00659817
0.00553084
0.00556548
0.00667747
0.00711128
0.00705275
0.00665288
0.00556562
0.00559125
0.00671541
0.00715133
0.00710609
0.00669781
0.00559133
0.00560901
0.00674515
0.0071836
0.00715021
0.00673349
0.00560897
0.00562004
0.00676779
0.00720928
0.00718593
0.00676109
0.00562
0.00562566
0.0067844
0.00722943
0.00721408
0.00678164
0.0056257
0.00562711
0.00679593
0.00724472
0.0072361
0.00679652
0.00562735
0.00562557
0.00680356
0.00725624
0.00725276
0.00680662
0.00562599
0.0056218
0.00680807
0.00726464
0.00726482
0.00681265
0.00562218
0.00561621
0.0068096
0.00726989
0.00727336
0.00681562
0.00561678
0.00560997
0.00681033
0.00727458
0.00727991
0.00681687
0.00561043
0.00560279
0.00680887
0.00727671
0.00728341
0.00681572
0.00560317
0.00559519
0.0068064
0.0072777
0.00728567
0.00681378
0.00559576
0.0055875
0.00680354
0.00727853
0.0072871
0.00681089
0.00558796
0.00557954
0.00679955
0.00727773
0.00728687
0.00680693
0.00558004
0.00557194
0.00679563
0.00727699
0.00728641
0.00680305
0.00557248
0.00556427
0.00679116
0.0072755
0.00728476
0.0067981
0.00556458
0.00555682
0.00678668
0.0072737
0.00728313
0.0067934
0.00555706
0.00554963
0.0067825
0.00727234
0.00728106
0.00678825
0.00554947
0.00554279
0.00677836
0.00727072
0.00727882
0.00678349
0.00553975
0.00552802
0.00676087
0.00725478
0.00723011
0.00672896
0.00548677
0.005473
0.00669809
0.00720045
0.00705893
0.00652875
0.00531269
0.00541484
0.00662338
0.00711242
0.00681042
0.00626163
0.00506633
0.00559709
0.00684503
0.00731104
0.00731131
0.00661165
0.00526138
0.00651047
0.00810952
0.00881087
0.00956712
0.00848001
0.00655615
0.00821812
0.0119327
0.0149523
0.0140246
0.0182196
0.0155661
0.0146087
0.0139326
0.0137455
0.0136302
0.013658
0.0136653
0.0136888
0.0137009
0.0137567
0.0138605
0.0140269
0.0143935
0.0152796
0.0195523
0.0279027
0.0299294
0.0272879
0.0258294
0.0235809
0.0210979
0.0180744
0.0124429
0.0110685
0.0165864
0.019885
0.0177495
0.015414
0.0105414
0.0087727
0.0129444
0.0151019
0.0141085
0.0123525
0.00848577
0.00784515
0.0115592
0.0133575
0.0131234
0.011447
0.00774724
0.00761678
0.0112334
0.012949
0.0129659
0.0112328
0.00761117
0.00760886
0.0112275
0.0129461
0.0129551
0.0112363
0.00762417
0.00763129
0.0112424
0.0129594
0.0129675
0.0112512
0.00763979
0.00764042
0.0112362
0.0129603
0.0129953
0.011291
0.00766524
0.00766626
0.0112759
0.0129877
0.0129959
0.0112853
0.00767578
0.00767735
0.0112712
0.0129763
0.0130377
0.0113153
0.00769536
0.00771253
0.0113234
0.0130174
0.013026
0.0113107
0.0077073
0.00772488
0.0113196
0.0130068
0.0130686
0.011353
0.00773578
0.0077535
0.0113616
0.0130487
0.0130575
0.0113491
0.00774867
0.00776676
0.0113584
0.0130385
0.0131006
0.0113922
0.0077781
0.00779634
0.0114011
0.0130809
0.0130901
0.011389
0.00779191
0.00781054
0.0113986
0.0130714
0.013134
0.0114329
0.00782231
0.00784099
0.0114421
0.0131145
0.0131239
0.0114302
0.00783682
0.00785584
0.0114401
0.0131054
0.0131683
0.0114746
0.00786794
0.00788701
0.0114842
0.0131491
0.0131589
0.011484
0.00789096
0.00789461
0.0114715
0.0131408
0.0132043
0.011518
0.00791497
0.00793442
0.011528
0.0131856
0.0131956
0.011528
0.00793853
0.00794241
0.0115156
0.0131776
0.0132415
0.0115625
0.00796308
0.00798283
0.0115729
0.0132233
0.0132342
0.0115732
0.00798708
0.00799095
0.0115613
0.013217
0.013281
0.0116081
0.00801146
0.00803156
0.0116195
0.0132637
0.0132745
0.0116196
0.00803554
0.00803953
0.0116082
0.013258
0.0133237
0.0116564
0.00806031
0.00807993
0.0116675
0.0133064
0.0133185
0.0116688
0.00808404
0.00808777
0.0116579
0.0133032
0.0133698
0.0117066
0.00810824
0.00812787
0.0117189
0.0133542
0.0133677
0.011721
0.00813146
0.00813475
0.0117111
0.0133539
0.0134224
0.0117611
0.00815465
0.00817365
0.0117747
0.0134086
0.0134238
0.0117777
0.00817641
0.00817873
0.0117691
0.0134117
0.0134824
0.0118204
0.00819768
0.00821592
0.011836
0.0134712
0.0134893
0.0118291
0.00820937
0.00822715
0.0118461
0.0134803
0.013555
0.0118885
0.00823691
0.00825392
0.0119064
0.0135469
0.0135688
0.0119025
0.0082465
0.00826375
0.0119233
0.0135637
0.0136433
0.0119697
0.00827321
0.00829061
0.0119926
0.0136408
0.0136684
0.0120056
0.00829193
0.00829366
0.012008
0.0136695
0.0137561
0.0120733
0.00831327
0.00833321
0.0121031
0.0137601
0.0137958
0.0121245
0.00833824
0.00834474
0.0121356
0.013805
0.0139017
0.012212
0.00837107
0.00839986
0.0122541
0.0139159
0.013963
0.0122768
0.00840782
0.00844508
0.0123273
0.0139841
0.0140938
0.0124078
0.00847974
0.00852844
0.0124671
0.0141199
0.0141807
0.0125227
0.00856852
0.0086345
0.0125953
0.0142317
0.0143355
0.0126808
0.00869642
0.0087755
0.0127656
0.0143946
0.0144805
0.0128667
0.00887084
0.00898075
0.0129755
0.0145696
0.0146711
0.0131007
0.009111
0.00926522
0.0132409
0.0147826
0.0149221
0.0134216
0.00946209
0.00969716
0.0136278
0.0150622
0.0152113
0.0138163
0.00994568
0.0101134
0.0139228
0.0152688
0.0154193
0.0139771
0.0102653
0.0105932
0.0142502
0.0155032
0.0155945
0.014301
0.0106642
0.0109003
0.0144016
0.0156456
0.0157751
0.0145723
0.0111243
0.0113661
0.0146675
0.0158763
0.0161287
0.0150418
0.0117626
0.0119752
0.0151565
0.0162323
0.0165984
0.0155832
0.0125039
0.0126753
0.0156697
0.0166716
0.0167701
0.0162344
0.013549
0.0131574
0.015015
0.0146406
0.0436281
0.0321552
0.0188107
0.0130975
0.0210816
0.0287301
0.019165
0.0169686
0.0119004
0.0110824
0.0150828
0.016366
0.0157425
0.0147063
0.0110932
0.0111933
0.014938
0.0162432
0.0160292
0.0148694
0.0113825
0.0118529
0.015339
0.0165374
0.0162367
0.0151138
0.0120075
0.0127498
0.0159271
0.0169645
0.0168594
0.0158333
0.0129306
0.0137335
0.0164345
0.0171891
0.0149917
0.0153798
0.0136711
0.0190929
0.0314163
0.0422377
0.0298443
0.0222617
0.0144911
0.0135572
0.0180244
0.0200687
0.0179592
0.0166133
0.013151
0.0132091
0.016357
0.0174521
0.0172827
0.016352
0.0134823
0.0135887
0.0162965
0.0171672
0.0170994
0.0165274
0.0141434
0.0137738
0.0150396
0.0144196
0.0420982
0.0314634
0.0193891
0.0145953
0.0221609
0.029839
0.0199344
0.017996
0.0139962
0.0137186
0.016666
0.0174642
0.0168308
0.0162698
0.0138103
0.0142028
0.0165319
0.0170889
0.0147173
0.0153964
0.0141414
0.0194076
0.0310105
0.0410246
0.0300588
0.0230619
0.0159315
0.0149751
0.0187836
0.0205509
0.0183578
0.0172198
0.0144303
0.0149262
0.0171634
0.0175398
0.0142388
0.0150894
0.0142272
0.0198451
0.0309809
0.0408332
0.0296246
0.0232469
0.0165112
0.0148668
0.0181902
0.0196499
0.0172513
0.0167883
0.0146074
0.014443
0.0152897
0.0144472
0.0390802
0.0298716
0.019399
0.0168676
0.0233503
0.0295637
0.0200328
0.0184683
0.0152618
0.0150004
0.0170018
0.0174695
0.0135428
0.0146729
0.0144712
0.0193813
0.0288982
0.0366147
0.0275221
0.0221509
0.0164317
0.0147216
0.0157044
0.0150075
0.0341547
0.0271323
0.0183744
0.0150766
0.0207642
0.0260618
0.013167
0.0139615
0.0133243
0.0156125
0.0218016
0.0260544
0.0138607
0.012865
0.010975
0.0110487
0.0160992
0.0195634
0.00483274
0.00459367
0.00428088
0.00562306
0.00910818
0.0111693
0.0138922
0.0120636
0.00869422
0.0142765
0.0170884
0.0185989
0.022413
0.021312
0.0188455
0.0206883
0.0219248
0.021576
0.0370753
0.0321946
0.0244759
0.0252095
0.0330949
0.0383083
0.037385
0.0329396
0.0255935
0.0269284
0.0364569
0.042836
0.026666
0.0268179
0.023567
0.0265363
0.0365739
0.0453799
0.0487644
0.0388072
0.0268233
0.0240429
0.0315992
0.0366753
0.0453074
0.0371167
0.0262729
0.0221256
0.0254207
0.0257673
0.0429521
0.0337898
0.0240803
0.0260497
0.0385416
0.0489277
0.0251075
0.0247189
0.0213417
0.0233039
0.0331097
0.0420709
0.0487572
0.03814
0.02543
0.020841
0.0241057
0.0245009
0.0414545
0.0323277
0.0227036
0.0250833
0.0378365
0.0485524
0.0245261
0.0239971
0.0205441
0.0226454
0.0321078
0.0411907
0.0483711
0.0376893
0.0251497
0.0205972
0.0238956
0.0242508
0.040829
0.0319139
0.0223505
0.0247642
0.0375214
0.0480716
0.0243551
0.0238316
0.0204132
0.0222902
0.0317299
0.0406689
0.0480286
0.0372644
0.0246229
0.0200598
0.0233658
0.0238725
0.0395123
0.0307588
0.0216927
0.0243306
0.0369293
0.0475153
0.0211405
0.0213439
0.0190887
0.0200211
0.0253491
0.0280271
0.0404109
0.0315142
0.0220174
0.023503
0.0365527
0.0478366
0.022813
0.0224633
0.0192157
0.0204741
0.0305969
0.0404672
0.0473038
0.0365614
0.0236978
0.0194626
0.0230818
0.0237188
0.0405038
0.0316026
0.0218874
0.0238289
0.0369337
0.0476147
0.0235355
0.0230835
0.0195433
0.0207554
0.0309652
0.0408993
0.0478048
0.0366485
0.0236875
0.019547
0.0232722
0.0239676
0.0409705
0.0310275
0.0207852
0.0238584
0.0367766
0.0477714
0.0237392
0.0231836
0.0194452
0.0223682
0.0320341
0.0406057
0.0478432
0.0370677
0.0241378
0.0197831
0.0236579
0.024264
0.0412186
0.0322596
0.0225685
0.0244079
0.0373112
0.0481727
0.0244975
0.0239206
0.0200452
0.0231716
0.0333738
0.0426268
0.0476263
0.0370078
0.0242487
0.0216448
0.0295368
0.0350008
0.0444346
0.035976
0.0244703
0.0207933
0.0246375
0.0253636
0.0417765
0.0325906
0.0226621
0.0248827
0.0376591
0.0482432
0.025027
0.0241838
0.0203537
0.022349
0.0322376
0.0414126
0.0485571
0.0379118
0.0249028
0.0206048
0.0242553
0.024854
0.042279
0.0328673
0.0227527
0.0250261
0.038024
0.0488043
0.0253219
0.0245053
0.0206252
0.0227864
0.0329196
0.0425389
0.0492245
0.0383675
0.025398
0.0211418
0.0249909
0.0257585
0.0445538
0.034912
0.02445
0.0253123
0.0382094
0.0491112
0.0370617
0.0314191
0.0229801
0.0250109
0.0365957
0.045186
0.0263593
0.0254881
0.0213729
0.023682
0.0342524
0.0438342
0.0499549
0.0392183
0.0259074
0.0215803
0.0255804
0.0263936
0.0456332
0.035759
0.0248854
0.025768
0.0387717
0.0499357
0.0376526
0.0318378
0.0234985
0.0258511
0.0375057
0.0462107
0.0273653
0.0264953
0.0222999
0.0244516
0.0349765
0.0448878
0.0510128
0.0399882
0.026692
0.0223797
0.0264456
0.0271512
0.0466501
0.0364752
0.025557
0.0263857
0.0394383
0.0505937
0.0386303
0.0326894
0.0240561
0.0263931
0.0382122
0.0468952
0.0276978
0.026909
0.0228502
0.0249744
0.0359482
0.0462022
0.0520014
0.0410439
0.0273241
0.0230185
0.0270001
0.0277094
0.0485336
0.0367732
0.0246026
0.0266107
0.0402963
0.051852
0.0397264
0.0336211
0.0246773
0.0271186
0.0391624
0.0478061
0.0288879
0.0279782
0.0235936
0.0266518
0.0380286
0.0488558
0.0524904
0.0411851
0.0276954
0.0255325
0.0344833
0.0406963
0.0487781
0.0399952
0.0279195
0.0239872
0.0284005
0.0292809
0.0497991
0.0383219
0.0261448
0.0277496
0.0413371
0.0528286
0.0412235
0.0348657
0.025856
0.0284596
0.0405377
0.0494102
0.0300817
0.0291937
0.0246183
0.0266832
0.0390275
0.0509619
0.0540556
0.0424141
0.0285765
0.026505
0.0356703
0.0421334
0.050161
0.0411925
0.0288586
0.0249977
0.029497
0.0303496
0.0510685
0.04014
0.0279076
0.0290988
0.0430977
0.0546138
0.0429853
0.0363112
0.0268916
0.0292619
0.0417449
0.0509284
0.0311828
0.0302222
0.0255613
0.0271527
0.0406147
0.0533322
0.0554031
0.0433987
0.0287608
0.0277798
0.038037
0.045247
0.0508077
0.041603
0.0293393
0.0274565
0.0371349
0.0435653
0.0509036
0.0421517
0.0297029
0.0261987
0.0311145
0.032173
0.053807
0.0416285
0.0289264
0.0303824
0.0447669
0.056592
0.0450442
0.0380885
0.0282746
0.0305174
0.0435191
0.0525142
0.0323015
0.0314084
0.0267339
0.0283098
0.0421407
0.0554716
0.057336
0.0447983
0.0297315
0.0286303
0.0392527
0.0470346
0.0526475
0.0429065
0.0301536
0.0286907
0.0385641
0.0454789
0.0530313
0.0439679
0.0313376
0.0272342
0.0323143
0.0334815
0.0562495
0.0443653
0.031258
0.0318382
0.0464518
0.0586653
0.0485241
0.0406119
0.0296867
0.0313024
0.0442767
0.0538366
0.0471013
0.0399611
0.0297634
0.031766
0.0447419
0.0537576
0.0342339
0.0330573
0.0279581
0.0301934
0.0441763
0.0577501
0.0594497
0.0469975
0.0318354
0.0305179
0.0416302
0.0496024
0.0550906
0.0454112
0.0321431
0.030584
0.0408853
0.047915
0.0552431
0.0461227
0.0328942
0.0289023
0.034146
0.0352165
0.058603
0.0460011
0.0323575
0.0333491
0.0483731
0.0607903
0.0505581
0.0422862
0.0309058
0.0327367
0.0460805
0.0558631
0.049171
0.0415708
0.0309843
0.0337697
0.0469858
0.0562885
0.0358844
0.0346936
0.0295059
0.0337795
0.0478194
0.0603308
0.0620355
0.0493336
0.0342643
0.0319706
0.0438167
0.0519879
0.0575024
0.0475086
0.0335429
0.0320881
0.0429765
0.0503515
0.0577191
0.0481133
0.0345283
0.0301262
0.0355018
0.0366354
0.0614826
0.048495
0.0344546
0.0351107
0.0503772
0.0632272
0.0533102
0.0447954
0.033
0.0347524
0.0485791
0.0585357
0.0537583
0.0453405
0.0332599
0.0350043
0.0486035
0.0585793
0.0523463
0.0444851
0.033089
0.0357942
0.0497617
0.0591509
0.038553
0.0373339
0.0315704
0.0339154
0.0494925
0.0643675
0.0652439
0.0513818
0.0348948
0.0338804
0.0461208
0.0549977
0.0594741
0.0493135
0.0353312
0.0340253
0.0460752
0.0549844
0.059891
0.0498175
0.0360898
0.0341227
0.0457176
0.0535359
0.060841
0.0510026
0.0368431
0.0322597
0.0380179
0.039275
0.0655819
0.0521722
0.0370445
0.0375002
0.0536273
0.0667089
0.056637
0.0477255
0.0351966
0.0367897
0.0511462
0.0617282
0.0568177
0.0481014
0.0353007
0.0370494
0.0513345
0.0614614
0.0552265
0.0470415
0.0352164
0.0377945
0.0520802
0.0624003
0.0406396
0.0392568
0.0331992
0.0382593
0.0537251
0.0674378
0.0685934
0.0548995
0.0387167
0.0362626
0.0490684
0.058358
0.0631157
0.0523818
0.0378481
0.0366314
0.0495655
0.0588104
0.0633871
0.0528823
0.038345
0.0362486
0.0481473
0.0567798
0.0642452
0.0538411
0.0392017
0.0344737
0.0402972
0.0413382
0.0702542
0.0539618
0.0367285
0.0379751
0.0561685
0.0710123
0.0601811
0.0503072
0.0370319
0.0389028
0.0542449
0.0651666
0.060836
0.0512615
0.0378942
0.0394785
0.0541634
0.0646817
0.0612686
0.0513133
0.0378242
0.0400035
0.0547402
0.0655028
0.0597909
0.0507565
0.0379508
0.0405093
0.0556425
0.0663747
0.0431724
0.0418389
0.0357478
0.0414156
0.0573535
0.0722523
0.072848
0.0586697
0.0420547
0.0388565
0.0525716
0.0621158
0.0671123
0.0561163
0.0403952
0.0391455
0.0526907
0.0623922
0.0667184
0.0559998
0.0409198
0.0392783
0.0529869
0.0627641
0.0677318
0.0565457
0.0413943
0.0392846
0.051955
0.0613344
0.0689689
0.0578196
0.0424014
0.0369575
0.0431823
0.0447714
0.0748232
0.0592874
0.0422748
0.0431294
0.0610256
0.0757503
0.0647868
0.055061
0.040864
0.0423738
0.0583644
0.0698652
0.0649444
0.0551223
0.0409367
0.0426194
0.058078
0.0692541
0.0656295
0.0554195
0.0411362
0.0431143
0.0587714
0.0700105
0.0640769
0.0541615
0.0407442
0.04377
0.059651
0.0709909
0.0464263
0.0451882
0.0385857
0.0442473
0.0616466
0.0771322
0.0782918
0.0629143
0.0448627
0.0420362
0.0565541
0.0668638
0.0722893
0.0597972
0.0435407
0.0421924
0.0567747
0.0672408
0.0714577
0.0602474
0.0441227
0.0423642
0.0570084
0.0679719
0.072835
0.0611166
0.04463
0.042378
0.0561802
0.0657379
0.0738786
0.062467
0.0455715
0.0399975
0.0465276
0.0478807
0.080571
0.0635921
0.0456627
0.0462137
0.0650092
0.0816164
0.0695513
0.0589486
0.0437995
0.0455114
0.0626611
0.0750404
0.0699291
0.0588362
0.0438992
0.0458802
0.0621779
0.0743142
0.070627
0.0594785
0.0441922
0.0463985
0.0629967
0.0750026
0.0688153
0.0585067
0.0441829
0.0472973
0.0644586
0.0763583
0.0496901
0.0483626
0.041619
0.0479666
0.0664447
0.0833976
0.0843651
0.0679442
0.0489334
0.0456631
0.0611756
0.0720073
0.0775444
0.0649787
0.0473261
0.0456359
0.0613474
0.0724622
0.0772051
0.0648651
0.0475644
0.0459129
0.061784
0.0732766
0.0777883
0.0655021
0.0482495
0.0462995
0.0620236
0.0734083
0.0787019
0.066236
0.0488847
0.0461382
0.0606158
0.0711972
0.0800198
0.067432
0.0498406
0.0437204
0.0505627
0.0520244
0.0875494
0.0683423
0.0482951
0.0497761
0.0709993
0.0883869
0.0753551
0.0636884
0.0476765
0.0496471
0.0680774
0.0814442
0.0758256
0.0642838
0.0480996
0.0502644
0.0681878
0.0808018
0.0763664
0.0646025
0.0485235
0.050812
0.0685397
0.0819336
0.0741497
0.0632413
0.0480924
0.0514213
0.0697549
0.0827801
0.0544458
0.0528059
0.0454818
0.0515314
0.0718378
0.0906853
0.0915958
0.0739079
0.0524285
0.0495842
0.066211
0.0781178
0.0839343
0.0699644
0.051402
0.0497436
0.0665067
0.0785679
0.0836746
0.0705396
0.0519753
0.0502329
0.0669798
0.0789917
0.0846744
0.0713207
0.0526368
0.0500179
0.0656122
0.0767766
0.0862078
0.0730245
0.0537142
0.0471273
0.0543816
0.0558572
0.0945451
0.073885
0.0524198
0.0539582
0.0766221
0.0952709
0.081112
0.0685205
0.0514699
0.053621
0.0732458
0.0876813
0.0815741
0.0691253
0.0519152
0.0543271
0.0733269
0.0872943
0.0821558
0.0694839
0.0521744
0.0548673
0.0740682
0.0882592
0.0798716
0.0682024
0.0520648
0.0558619
0.0755232
0.0892279
0.0586895
0.0570448
0.0493071
0.0556268
0.0774108
0.0981007
0.0991081
0.0795172
0.0569075
0.0541699
0.0718296
0.084554
0.0907054
0.0761592
0.0561167
0.0542137
0.0719266
0.0847778
0.0907048
0.0762685
0.0566495
0.0543786
0.0722538
0.0851451
0.0916912
0.077303
0.0572235
0.0539201
0.0705734
0.0825481
0.0932425
0.0790023
0.0581947
0.05115
0.0588507
0.0603936
0.101434
0.0799512
0.0572853
0.0587411
0.0825988
0.102976
0.087428
0.0741538
0.0560739
0.058503
0.0793659
0.095072
0.0881061
0.0748732
0.0565889
0.0592628
0.0796166
0.0947843
0.0862635
0.0738294
0.0564056
0.0598702
0.0812634
0.0963712
0.0622445
0.0607981
0.0528631
0.0603743
0.0834652
0.1048
0.106229
0.0857764
0.0612987
0.0577211
0.0765456
0.0901984
0.0980679
0.0816429
0.0599685
0.0580018
0.0766897
0.09018
0.0981051
0.0824289
0.0609877
0.0577328
0.0754031
0.0879992
0.0996149
0.0842734
0.0622218
0.0546037
0.0625254
0.0639158
0.10935
0.0850125
0.0600687
0.0622866
0.0888427
0.110645
0.0936564
0.0792487
0.0598913
0.0627879
0.0854253
0.101886
0.0940811
0.0801055
0.0604539
0.0628773
0.0850334
0.101426
0.0918731
0.0785338
0.0601002
0.0643589
0.0870266
0.103232
0.0660111
0.0646006
0.056223
0.0649642
0.0893168
0.111994
0.114094
0.0917435
0.0660284
0.0615944
0.0817946
0.0962797
0.104884
0.0880467
0.064525
0.0622708
0.0821821
0.0964761
0.1051
0.0881916
0.0652514
0.0618524
0.0806511
0.094052
0.107024
0.0905319
0.0667547
0.0586097
0.0670219
0.0684705
0.116922
0.0927102
0.0667892
0.0681345
0.0961261
0.119484
0.100064
0.0851139
0.0643583
0.067241
0.0913638
0.109629
0.100327
0.0853302
0.0644998
0.0675082
0.091421
0.108874
0.0978617
0.0837879
0.064192
0.0688544
0.0931532
0.110473
0.0705692
0.0690324
0.0603505
0.0680361
0.0945101
0.119501
0.122917
0.0983322
0.0699391
0.0663925
0.087229
0.102441
0.113502
0.0946039
0.0695584
0.0660597
0.0856321
0.099335
0.114614
0.0967552
0.0710923
0.0628293
0.0714811
0.0726229
0.12429
0.0991726
0.0718656
0.0729615
0.102834
0.127852
0.106189
0.0902663
0.0685118
0.0717038
0.0972006
0.116717
0.106231
0.0904735
0.0686429
0.0724149
0.0979898
0.116628
0.103419
0.0887532
0.0683972
0.0739068
0.0998113
0.118595
0.0760208
0.0741578
0.0645383
0.0725147
0.100634
0.127619
0.130827
0.105062
0.0746533
0.070951
0.0930205
0.109284
0.121623
0.101518
0.0744857
0.0710321
0.091454
0.105981
0.122756
0.103551
0.0771026
0.0674573
0.0764774
0.0774974
0.131101
0.103448
0.0744134
0.077325
0.109038
0.135596
0.111885
0.0951543
0.0725974
0.0771743
0.10467
0.125522
0.108255
0.0931098
0.0720145
0.0780892
0.105899
0.125765
0.0797102
0.0778545
0.0679284
0.0765697
0.105682
0.13367
0.140143
0.11219
0.0798217
0.0738475
0.0950953
0.11047
0.130404
0.109276
0.0801335
0.0697882
0.0789773
0.0799444
0.138955
0.10949
0.0789946
0.0824681
0.115968
0.143898
0.118992
0.101828
0.0779237
0.0811618
0.110634
0.132693
0.11485
0.098953
0.0765749
0.0818048
0.111288
0.132561
0.0826837
0.0813498
0.071667
0.0799554
0.110578
0.13998
0.14748
0.117787
0.08354
0.0770604
0.0994036
0.115453
0.137428
0.115099
0.0837955
0.072496
0.0820178
0.0830946
0.14407
0.113606
0.0818589
0.0859695
0.121803
0.152115
0.120578
0.103801
0.08046
0.0870823
0.118776
0.142181
0.08515
0.0847878
0.0756172
0.0831986
0.115926
0.147589
0.156764
0.125204
0.0879841
0.0811011
0.10447
0.121109
0.144827
0.121017
0.0880311
0.0760057
0.0856804
0.0865403
0.15051
0.118778
0.0857201
0.0898635
0.12741
0.160189
0.125078
0.107738
0.0833214
0.0901197
0.124251
0.148558
0.0885227
0.088011
0.0781725
0.0881512
0.122245
0.15533
0.166878
0.134417
0.0954192
0.0879055
0.112362
0.128583
0.153936
0.128341
0.0933635
0.0802785
0.0900502
0.0907579
0.158105
0.124071
0.0891696
0.0939325
0.133822
0.168323
0.130453
0.112139
0.0870519
0.0943537
0.129919
0.156643
0.0926122
0.0920142
0.0818417
0.0919114
0.126763
0.160365
0.173045
0.13869
0.097887
0.0896499
0.114516
0.132233
0.16323
0.13621
0.0994192
0.0857288
0.0950669
0.095126
0.161081
0.128948
0.0947496
0.100862
0.144191
0.180036
0.0949228
0.0943425
0.0846282
0.0941426
0.130776
0.166435
0.180145
0.143274
0.0999857
0.0917345
0.11745
0.136044
0.167066
0.138907
0.100725
0.0865108
0.0970265
0.097808
0.164141
0.130774
0.0961654
0.104938
0.150263
0.187615
0.0964385
0.0970527
0.0882411
0.0994938
0.135245
0.170086
0.194214
0.154246
0.107996
0.0889046
0.0983999
0.0983136
0.176117
0.138591
0.0997606
0.107218
0.153854
0.194172
0.143685
0.124354
0.0973536
0.107688
0.149148
0.17932
0.103163
0.102514
0.0916718
0.102008
0.137572
0.17181
0.200326
0.160187
0.112292
0.0937058
0.102651
0.102244
0.177618
0.142162
0.105489
0.114363
0.163551
0.205479
0.103201
0.10309
0.0933421
0.103637
0.140286
0.175623
0.207636
0.164723
0.114562
0.0937885
0.103444
0.103484
0.177418
0.141628
0.104714
0.116072
0.167367
0.210402
0.105928
0.106021
0.096058
0.107834
0.144813
0.181026
0.218051
0.173871
0.121237
0.0939309
0.0975154
0.0926915
0.123335
0.115178
0.0980249
0.105867
0.145096
0.184877
0.224993
0.175132
0.119196
0.095972
0.104686
0.103569
0.18279
0.14507
0.107229
0.12352
0.179899
0.22792
0.0927663
0.0977778
0.0957727
0.105753
0.122952
0.130161
0.191627
0.150411
0.109574
0.123569
0.183318
0.236794
0.0934045
0.097752
0.0939464
0.100605
0.118876
0.127838
0.190354
0.150543
0.110802
0.130183
0.191753
0.243699
0.092156
0.0990427
0.0976001
0.106348
0.123695
0.130049
0.189968
0.148507
0.108429
0.127921
0.19055
0.246692
0.0911308
0.0965772
0.0942284
0.0988116
0.110609
0.114149
0.129939
0.120791
0.104063
0.11194
0.15501
0.198638
0.248603
0.190615
0.125238
0.0907198
0.0936741
0.0891297
0.103922
0.102273
0.0926199
0.0916482
0.100292
0.102596
0.107762
0.105649
0.0937593
0.0928748
0.111726
0.119859
0.177496
0.134241
0.0942707
0.123506
0.190366
0.249769
0.0842163
0.0895723
0.0875101
0.0868575
0.0961754
0.0967825
0.0918806
0.0881895
0.0776614
0.076445
0.0875753
0.0900505
0.086821
0.0833849
0.0707527
0.0662445
0.0796279
0.0837112
0.0806789
0.0760807
0.0619162
0.0590398
0.0737766
0.0788306
0.0768902
0.0716093
0.0563903
0.0542085
0.0698303
0.0755698
0.0741936
0.0681776
0.052262
0.0506065
0.0667783
0.0731597
0.0721151
0.0654744
0.049106
0.0477373
0.0642521
0.0712174
0.0703471
0.0632208
0.0465779
0.0453414
0.0620055
0.0695358
0.0686068
0.0609665
0.0442943
0.0433436
0.05999
0.0678665
0.0670732
0.0590677
0.0424794
0.0416961
0.0582034
0.0663963
0.0656611
0.0573863
0.0409843
0.0403406
0.0566214
0.0650373
0.064352
0.0558972
0.0397568
0.0392316
0.0552207
0.0637743
0.0631337
0.0545804
0.0387569
0.0383323
0.0539841
0.0625974
0.0619962
0.053419
0.0379497
0.0376105
0.0528948
0.0614978
0.0609352
0.0523986
0.0373069
0.0370404
0.0519404
0.060474
0.0599471
0.0515056
0.0368026
0.0365957
0.0511058
0.0595202
0.0590281
0.0507263
0.0364112
0.0362526
0.0503784
0.0586353
0.0581772
0.0500462
0.0361119
0.0359929
0.0497422
0.0578175
0.057392
0.0494505
0.0358876
0.0358005
0.0491849
0.057064
0.0566697
0.0489285
0.0357234
0.0356614
0.0486963
0.0563717
0.0560068
0.0484707
0.0356064
0.0355641
0.0482675
0.0557376
0.0554014
0.0480685
0.0355263
0.0354992
0.0478904
0.0551596
0.0548501
0.0477142
0.0354744
0.0354589
0.0475577
0.0546346
0.0543511
0.0474054
0.0354496
0.0354429
0.047267
0.0541605
0.0539
0.0471326
0.0354433
0.0354421
0.0470098
0.0537325
0.0534949
0.0468903
0.0354465
0.0354476
0.0467811
0.0533486
0.0531303
0.0466746
0.0354542
0.035457
0.046578
0.0530031
0.0528044
0.0464838
0.0354642
0.0354666
0.0463983
0.0526948
0.0525117
0.0463142
0.0354739
0.0354764
0.0462389
0.0524177
0.0522511
0.0461647
0.0354829
0.0354841
0.0460982
0.0521714
0.0520167
0.0460318
0.0354904
0.0354919
0.0459737
0.0519491
0.0518089
0.0459158
0.0354974
0.0354972
0.0458649
0.0517533
0.0516225
0.045813
0.0355016
0.0355013
0.0457681
0.0515755
0.051456
0.0457227
0.0355046
0.0355028
0.0456833
0.0514182
0.0513059
0.0456425
0.0355054
0.0355036
0.0456079
0.0512751
0.0511722
0.0455721
0.0355056
0.0355027
0.0455414
0.0511488
0.0510511
0.0455086
0.0355042
0.0355015
0.0454811
0.0510328
0.0509427
0.045452
0.0355024
0.0354985
0.0454274
0.05093
0.0508435
0.0454005
0.035499
0.0354955
0.0453783
0.0508345
0.0507544
0.0453545
0.0354954
0.0354912
0.045335
0.05075
0.0506723
0.0453125
0.0354905
0.0354865
0.0452948
0.0506707
0.0505986
0.0452753