/*--------------------------------*- C++ -*----------------------------------*\
| =========                 |                                                 |
| \\      /  F ield         | OpenFOAM: The Open Source CFD Toolbox           |
|  \\    /   O peration     | Version:  v2006                                 |
|   \\  /    A nd           | Website:  www.openfoam.com                      |
|    \\/     M anipulation  |                                                 |
\*---------------------------------------------------------------------------*/
FoamFile
{
    version     2.0;
    format      ascii;
    class       volScalarField;
    location    "0.006";
    object      nut;
}
// * * * * * * * * * * * * * * * * * * * * * * * * * * * * * * * * * * * * * //

dimensions      [0 2 -1 0 0 0 0];


internalField   nonuniform List<scalar> 
11076
(
22.2917
38.6007
43.5238
24.0262
41.4745
201.531
477.063
966.256
992.892
1116
1266.98
1277.34
1401.89
1431.91
1316.1
943.51
552.278
306.719
189.903
143.774
138.248
169.166
261.334
512.313
1323.14
4838.29
22124.6
22043.1
22011.6
21990.1
18814.9
4608.13
745.632
125.854
29.2473
10.0147
4.89732
3.18397
2.51459
2.22459
2.09594
2.05961
2.09926
2.2214
2.45318
2.85162
3.53996
4.79071
7.23126
12.3736
23.9584
50.9716
112.673
240.781
443.694
597.879
646.777
656.816
610.561
418.77
240.984
107.132
15.907
4.53941
2.68291
1.01633
0.534499
0.327843
0.169001
0.0390567
0.00705347
0.000218654
0.000185741
0.00333924
0.0149712
0.00952553
0.0024627
0.000163242
0.000145851
0.0021792
0.0076664
0.0065625
0.00197089
0.00013491
0.000126016
0.00187856
0.0059486
0.00540704
0.00174185
0.000118983
0.000113457
0.00167513
0.00510235
0.00478026
0.00160776
0.000108792
0.000105771
0.00157834
0.00462624
0.00439287
0.00152201
0.000102521
0.000100596
0.00150751
0.00431083
0.00414178
0.0014627
9.82212e-05
9.6919e-05
0.00145466
0.00408286
0.00394589
0.00141634
9.51033e-05
9.41635e-05
0.00141122
0.00390129
0.00378478
0.00137776
9.27216e-05
9.20002e-05
0.00137365
0.00374967
0.00364745
0.00134435
9.0812e-05
9.02346e-05
0.00134061
0.00361918
0.00352755
0.00131436
8.92231e-05
8.87429e-05
0.00131083
0.0035042
0.00342091
0.00128705
8.78601e-05
8.74489e-05
0.0012838
0.00340098
0.00332498
0.00126203
8.66639e-05
8.63038e-05
0.00125908
0.00330798
0.00323818
0.00123903
8.55966e-05
8.52763e-05
0.00123638
0.00322362
0.00315909
0.00121782
8.46332e-05
8.43452e-05
0.00121546
0.00314657
0.00308661
0.0011982
8.37561e-05
8.34947e-05
0.00119613
0.00307583
0.00301986
0.00118003
8.29522e-05
8.27134e-05
0.00117822
0.00301058
0.00295817
0.00116316
8.22117e-05
8.19925e-05
0.0011616
0.00295021
0.002901
0.00114748
8.15271e-05
8.13249e-05
0.00114617
0.00289422
0.00284792
0.00113292
8.08921e-05
8.07051e-05
0.00113183
0.0028422
0.00279854
0.00111937
8.03021e-05
8.01285e-05
0.00111851
0.00279378
0.00275259
0.0011068
7.97529e-05
7.95914e-05
0.00110616
0.00274875
0.0027099
0.00109516
7.92417e-05
7.90907e-05
0.00109475
0.00270695
0.00267036
0.00108442
7.87661e-05
7.86242e-05
0.00108425
0.00266828
0.00263388
0.0010746
7.83249e-05
7.81897e-05
0.00107468
0.0026327
0.00260048
0.00106569
7.79169e-05
7.77872e-05
0.00106602
0.00260024
0.00257011
0.00105772
7.75413e-05
7.74172e-05
0.00105805
0.0025707
0.00254244
0.00105016
7.71998e-05
7.70792e-05
0.00105048
0.00254372
0.00251714
0.00104298
7.68883e-05
7.67696e-05
0.00104341
0.00251908
0.00249412
0.00103629
7.66042e-05
7.64865e-05
0.00103686
0.00249676
0.00247346
0.00103017
7.63558e-05
7.62356e-05
0.00103092
0.00247682
0.00245533
0.00102469
7.61155e-05
7.60144e-05
0.00102564
0.00245938
0.00243972
0.00101989
7.58967e-05
7.5825e-05
0.00102108
0.00244452
0.00242657
0.00101586
7.57083e-05
7.56635e-05
0.00101731
0.00243239
0.00241594
0.00101267
7.55593e-05
7.55315e-05
0.00101438
0.00242302
0.00240813
0.00101045
7.54506e-05
7.54366e-05
0.00101236
0.00241666
0.00240344
0.00100911
7.53781e-05
7.53816e-05
0.00101125
0.00241358
0.00240222
0.00100874
7.53432e-05
7.53728e-05
0.00101128
0.00241397
0.00240459
0.00100905
7.53524e-05
7.5411e-05
0.00101233
0.00241796
0.0024111
0.00101041
7.54117e-05
7.55018e-05
0.00101448
0.00242599
0.00242168
0.00101296
7.55249e-05
7.56496e-05
0.00101801
0.00243877
0.00243592
0.00101682
7.56979e-05
7.58607e-05
0.00102286
0.00245623
0.0024549
0.00102197
7.5939e-05
7.61466e-05
0.00102908
0.00247865
0.00247867
0.00102841
7.62623e-05
7.65204e-05
0.00103663
0.0025055
0.00250683
0.00103608
7.66788e-05
7.699e-05
0.00104546
0.00253673
0.0025394
0.00104499
7.71945e-05
7.75615e-05
0.00105562
0.00257226
0.00257633
0.00105512
7.78108e-05
7.82354e-05
0.00106705
0.00261065
0.00261574
0.00106631
7.85467e-05
7.90383e-05
0.00107935
0.00265011
0.0026549
0.00107816
7.94228e-05
7.99874e-05
0.001092
0.00268964
0.00269163
0.00108989
8.04563e-05
8.10998e-05
0.00110444
0.00272532
0.00272386
0.00110088
8.16669e-05
8.24019e-05
0.00111575
0.00275401
0.00274461
0.00111023
8.30807e-05
8.39138e-05
0.00112478
0.00277145
0.00275434
0.00111723
8.47135e-05
8.56497e-05
0.00113108
0.00277751
0.00275355
0.00112149
8.6573e-05
8.76109e-05
0.00113461
0.00277222
0.00274079
0.00112297
8.86527e-05
8.97816e-05
0.00113573
0.00275564
0.00271721
0.00112207
9.09228e-05
9.2118e-05
0.00113416
0.0027288
0.00268376
0.00111987
9.33315e-05
9.45638e-05
0.00112938
0.00269225
0.00264127
0.00111668
9.57896e-05
9.70238e-05
0.00110855
0.00264755
0.00259408
0.0010953
9.82212e-05
9.93927e-05
0.00108544
0.00259842
0.00254228
0.00107278
0.000100498
0.000101542
0.00106349
0.00254556
0.0024876
0.00105269
0.000102497
0.00010338
0.00104437
0.00249029
0.00243165
0.00103517
0.000104178
0.000104896
0.0010276
0.00243446
0.00237667
0.00101983
0.000105535
0.000106099
0.00101294
0.00238035
0.00232569
0.00100648
0.000106601
0.000107024
0.00100019
0.00232949
0.00227856
0.000994821
0.000107403
0.000107703
0.000989721
0.00228239
0.00223502
0.000985281
0.000107979
0.000108166
0.000980907
0.00223931
0.00219531
0.000977473
0.000108339
0.00010848
0.000973884
0.00220017
0.00215933
0.000971334
0.000108564
0.000108627
0.000968563
0.00216506
0.00212724
0.000966893
0.000108648
0.000108663
0.000964539
0.0021338
0.00209898
0.000963645
0.000108634
0.00010862
0.000962161
0.00210629
0.00207419
0.000961597
0.000108551
0.000108524
0.000961101
0.00208253
0.00205206
0.000960675
0.000108376
0.000108395
0.000961039
0.00206299
0.00203716
0.000961045
0.000108358
0.000108178
0.000961781
0.00203894
0.00201719
0.000963625
0.000108533
0.000107851
0.00096261
0.00202041
0.002024
0.000976076
0.000109156
0.000110088
0.000994382
0.0021292
0.00223596
0.00101953
0.000112698
0.00677004
0.0157289
0.0273083
0.0406695
0.0493249
0.0641542
0.0743222
0.0838389
0.0897414
0.0935499
0.094155
0.0918325
0.0872255
0.0789197
0.0698974
0.0570585
0.0415138
0.0307004
0.0254642
0.0187618
0.00996145
0.00653708
0.00447892
0.00260525
0.00127465
0.000600733
6.05159e-05
5.60424e-05
0.000545191
0.00111706
0.00103537
0.000501958
5.20152e-05
4.78439e-05
0.000465469
0.00091162
0.000876711
0.000454644
4.63907e-05
4.56708e-05
0.000446543
0.000882572
0.000845475
0.0004484
4.55287e-05
4.52858e-05
0.000447272
0.000871984
0.000849867
0.000449648
4.52384e-05
4.53554e-05
0.000451728
0.000875345
0.000857867
0.00045349
4.53309e-05
4.5416e-05
0.000455625
0.000881197
0.000863612
0.000457495
4.53937e-05
4.54858e-05
0.000459901
0.000887309
0.000869708
0.000461783
4.54635e-05
4.5564e-05
0.000464391
0.000893778
0.000876038
0.000466319
4.5542e-05
4.5652e-05
0.000469211
0.000900489
0.000882765
0.000471125
4.56267e-05
4.57461e-05
0.000474219
0.000907598
0.000889539
0.000476083
4.57184e-05
4.58486e-05
0.000479429
0.000914953
0.000896921
0.000480866
4.58192e-05
4.59611e-05
0.000484823
0.000922532
0.000904239
0.000484908
4.5934e-05
4.60919e-05
0.000490579
0.000930421
0.000912227
0.000489228
4.60675e-05
4.62431e-05
0.00049684
0.000938542
0.000920401
0.000493833
4.62207e-05
4.6415e-05
0.000503173
0.000947152
0.000928909
0.000498897
4.63948e-05
4.6609e-05
0.00051
0.000955999
0.00093731
0.000504129
4.65901e-05
4.68259e-05
0.000516801
0.000964777
0.000945755
0.000509739
4.68031e-05
4.70639e-05
0.000523656
0.000973544
0.000953813
0.000515485
4.70427e-05
4.73266e-05
0.000530549
0.000981688
0.000961672
0.000521218
4.72951e-05
4.76088e-05
0.000537067
0.000989342
0.000968693
0.000527088
4.75694e-05
4.79015e-05
0.00054328
0.000996003
0.000974875
0.000532603
4.78392e-05
4.81965e-05
0.000548674
0.00100175
0.00097983
0.00053788
4.81095e-05
4.84798e-05
0.000552666
0.00100571
0.000983218
0.000542077
4.83542e-05
4.87326e-05
0.00055524
0.00100781
0.000984481
0.000545163
4.85758e-05
4.89579e-05
0.000555512
0.00100729
0.000983584
0.000546265
4.87649e-05
4.91192e-05
0.000554294
0.00100477
0.000981185
0.000545951
4.89312e-05
4.92742e-05
0.000551645
0.0010005
0.000978418
0.000544195
4.91472e-05
4.94669e-05
0.000549135
0.0009971
0.000978848
0.000543908
4.93402e-05
4.96924e-05
0.000548543
0.000998162
0.000981833
0.000545707
4.94589e-05
4.97047e-05
0.000558409
0.0010032
0.000987587
0.000554532
4.94086e-05
4.97224e-05
0.000577766
0.00101301
0.000997359
0.000564179
4.9875e-05
5.09196e-05
0.000590419
0.00101136
0.000998474
0.000579678
5.15676e-05
5.2855e-05
0.000610987
0.00101745
0.00100157
0.000597979
5.32797e-05
5.46746e-05
0.000627111
0.00101411
0.00100248
0.000612592
5.5163e-05
5.71285e-05
0.000620957
0.00100916
0.000993745
0.000601866
5.65433e-05
5.81873e-05
0.000595161
0.000995895
0.00098043
0.000567445
5.79098e-05
5.87356e-05
0.000539157
0.000978325
0.000961747
0.000550285
6.03548e-05
6.37637e-05
0.000650781
0.00106293
0.0010942
0.000718624
9.28427e-05
0.000133769
0.000868497
0.00128118
0.00125112
0.000746135
0.000127588
0.000110179
0.000685206
0.00104323
0.00113385
0.000743448
0.000127719
0.000146361
0.000779151
0.00115269
0.00115327
0.000781334
0.000162957
0.000180227
0.000780494
0.00118545
0.00119944
0.000778507
0.000195531
0.000213273
0.000782119
0.0012042
0.00124337
0.000795483
0.000228069
0.000231792
0.000726034
0.00121969
0.000990507
0.000695572
0.000225353
0.000244883
0.000713978
0.00111077
0.0011218
0.000748142
0.000252336
0.000267241
0.000771526
0.00112234
0.00102367
0.000709955
0.00025549
0.000249033
0.000665955
0.000782901
0.000832015
0.0005953
0.00024398
0.00023774
0.000621058
0.000760056
0.00083598
0.000648297
0.000242822
0.000255304
0.000691702
0.000858196
0.000920508
0.000713898
0.000278893
0.00028551
0.000735203
0.00096369
0.000918059
0.000756983
0.000288424
0.000276633
0.000779089
0.00107876
0.00124205
0.00064097
0.000310802
0.000281193
0.000489809
0.00136366
0.000841942
0.000449308
0.000313649
0.000315588
0.000485934
0.000991968
0.000681752
0.000461778
0.000418079
0.000431193
0.000542983
0.000718443
0.00104794
0.000685964
0.000699617
0.000700618
0.000784087
0.00121304
0.00144617
0.000973846
0.000950228
0.000956092
0.00108353
0.00145648
0.00155917
0.00121249
0.00119874
0.001157
0.00127288
0.00158456
0.00150504
0.00138272
0.0013443
0.00131467
0.00158749
0.00160197
0.00178568
0.00182154
0.00143602
0.00146117
0.00220636
0.00212956
0.00253296
0.00232847
0.00142383
0.00123339
0.00270704
0.00275423
0.00322968
0.0032468
0.00107937
0.000967214
0.00349957
0.00376877
0.00398285
0.00386558
0.000823109
0.000755744
0.00414319
0.00420321
0.00480561
0.00442154
0.00067872
0.00061378
0.00398501
0.00526328
0.00537167
0.00385964
0.000564351
0.000531898
0.00358009
0.00616935
0.00695921
0.00339657
0.000495827
0.000509118
0.00362655
0.00715884
0.0082506
0.00369927
0.000522915
0.000552611
0.00409279
0.00966885
0.00939155
0.00389794
0.000537842
0.000490381
0.0032851
0.00793027
0.00611022
0.00264756
0.000431304
0.000430213
0.00294603
0.00720444
0.00732953
0.0029387
0.000406922
0.000338807
0.00240765
0.00555685
0.00670156
0.00275931
0.000332851
0.000324956
0.00265634
0.00655038
0.00538595
0.00199263
0.000252707
0.000194142
0.00141607
0.0035601
0.00464246
0.00171087
0.000177778
0.000172535
0.00177505
0.00443536
0.0020132
0.000424038
8.30262e-05
6.22055e-05
0.000545115
0.00277474
0.00198899
0.000483461
6.85782e-05
4.88235e-05
0.000410529
0.00150942
0.000486261
0.000159326
2.90064e-05
4.60341e-05
0.000624704
0.00133385
0.00134563
0.000547266
5.33026e-05
3.31724e-05
0.000180844
0.000509712
0.00145016
0.000711343
5.09504e-05
6.03682e-05
0.000522631
0.00134186
0.00114609
0.000410357
4.42567e-05
2.75557e-05
0.000140504
0.000395647
0.00116106
0.000542813
4.04033e-05
4.73003e-05
0.000470144
0.00115472
0.000412852
0.000155934
2.99879e-05
4.12963e-05
0.00056232
0.00116299
0.00111962
0.000467535
4.76656e-05
3.05204e-05
0.000153829
0.000396925
0.00111722
0.000541377
4.12629e-05
4.77865e-05
0.000459277
0.00107849
0.000389459
0.000155106
3.10752e-05
4.25652e-05
0.000562191
0.00111704
0.00102109
0.000416951
5.11117e-05
3.82064e-05
0.000316502
0.000841928
0.000282229
0.000114859
2.48145e-05
3.22012e-05
0.000394148
0.000819824
0.000809363
0.000349354
3.87054e-05
2.56557e-05
0.000124053
0.000285918
0.000816861
0.000410157
3.22765e-05
3.83286e-05
0.000335254
0.000774873
0.000277472
0.000118874
2.51519e-05
3.11724e-05
0.000378675
0.000764851
0.000732199
0.000326436
3.7287e-05
2.49537e-05
0.000116152
0.000263124
0.000726518
0.000364207
3.05375e-05
3.64809e-05
0.000310778
0.000680173
0.000245291
0.000114124
2.4687e-05
2.91888e-05
0.000340793
0.00066877
0.000628392
0.000291123
3.47346e-05
2.36619e-05
0.000103506
0.000222796
0.000560879
0.000370625
2.67562e-05
2.88157e-05
0.00014531
0.000281257
0.000747444
0.000371254
3.33702e-05
3.90784e-05
0.000309339
0.000669064
0.000247935
0.000120794
2.67937e-05
3.11016e-05
0.000342049
0.000662954
0.000603097
0.000294106
3.7193e-05
2.54985e-05
0.000115195
0.000232485
0.0006177
0.000319856
2.94993e-05
3.60308e-05
0.000277556
0.000565331
0.000218966
0.000112072
2.52736e-05
2.81823e-05
0.000299857
0.000560862
0.00051089
0.000257479
3.39515e-05
2.30777e-05
0.000100806
0.000201622
0.00045651
0.000296165
2.47336e-05
2.78536e-05
0.000127484
0.000235939
0.000587939
0.000306858
3.03586e-05
3.58299e-05
0.000256592
0.000514316
0.000204635
0.000107334
2.52254e-05
2.67321e-05
0.000268956
0.000486262
0.000443048
0.000233683
3.26763e-05
2.35514e-05
9.58672e-05
0.000182624
0.000396008
0.000269933
2.35412e-05
2.69116e-05
0.000124359
0.000214697
0.00052361
0.000279827
2.83753e-05
3.40109e-05
0.000237992
0.000463282
0.000193966
0.000104015
2.4832e-05
2.5973e-05
0.000256092
0.000447661
0.000402677
0.00021952
3.19044e-05
2.26692e-05
9.49358e-05
0.000177457
0.000364915
0.000248031
2.21602e-05
2.61862e-05
0.000116836
0.000201512
0.000469796
0.000257639
2.69228e-05
3.25316e-05
0.000218912
0.000407184
0.000179317
9.72139e-05
2.36548e-05
2.28816e-05
0.000246046
0.000352832
0.000199754
0.000121399
2.66984e-05
2.69894e-05
0.000255793
0.000457972
0.000399256
0.000216791
3.27963e-05
2.43029e-05
0.000100313
0.000180222
0.000384464
0.000231632
2.45923e-05
3.0885e-05
0.000202528
0.000349143
0.000164762
9.41562e-05
2.26236e-05
2.13619e-05
0.000221506
0.000311996
0.000182701
0.000112047
2.52701e-05
2.50067e-05
0.000225026
0.000390521
0.000341702
0.000196349
3.07433e-05
2.26645e-05
9.09975e-05
0.000160104
0.000295591
0.000213741
2.13478e-05
2.54392e-05
0.000112103
0.000177671
0.000360468
0.000216566
2.46781e-05
3.04226e-05
0.000189458
0.000317609
0.000157128
9.32837e-05
2.2593e-05
2.11665e-05
0.000213172
0.000284347
0.000172573
0.000112262
2.54836e-05
2.45971e-05
0.000210533
0.000353285
0.00030726
0.000183539
3.02472e-05
2.24743e-05
9.38707e-05
0.000153835
0.000270967
0.000205155
2.09079e-05
2.52208e-05
0.000112428
0.000169868
0.000326964
0.000203418
2.42363e-05
3.0096e-05
0.000177486
0.000288297
0.000150127
9.69249e-05
2.24764e-05
2.07393e-05
0.000194946
0.000261449
0.000164936
0.000111768
2.51746e-05
2.3864e-05
0.000199362
0.000317841
0.000279534
0.000174146
2.97983e-05
2.23415e-05
9.74431e-05
0.000147662
0.000251653
0.000190649
2.04723e-05
2.51812e-05
0.000111794
0.000161583
0.000298165
0.000193728
2.40052e-05
3.00051e-05
0.000170374
0.000265676
0.000145674
9.89111e-05
2.25816e-05
2.03898e-05
0.000186707
0.000242299
0.000157819
0.000113089
2.51464e-05
2.36012e-05
0.000189125
0.000287992
0.000256461
0.00016634
2.95491e-05
2.23212e-05
9.835e-05
0.000141641
0.000232156
0.000180135
2.00603e-05
2.51292e-05
0.000111122
0.000152677
0.000273541
0.000185058
2.34253e-05
2.964e-05
0.00016379
0.000245901
0.00014054
0.000100863
2.24341e-05
2.01497e-05
0.000178395
0.000225097
0.000149889
0.00011235
2.51185e-05
2.31518e-05
0.000181012
0.000265885
0.000237823
0.000160744
2.93661e-05
2.25186e-05
0.000100826
0.000136907
0.000215044
0.000172922
2.01002e-05
2.52276e-05
0.000112319
0.000145676
0.000253135
0.000177999
2.32713e-05
2.95819e-05
0.000159677
0.000228395
0.000134861
0.000103642
2.27212e-05
2.01049e-05
0.000170648
0.000207191
0.000142433
0.000112439
2.5306e-05
2.30961e-05
0.000173499
0.000246627
0.000221987
0.000155792
2.94159e-05
2.2709e-05
0.000103383
0.000132173
0.000199743
0.000165178
2.01103e-05
2.5521e-05
0.000112204
0.000138961
0.000237655
0.000169922
2.31999e-05
2.96309e-05
0.000154211
0.000214931
0.000130866
0.000105608
2.29924e-05
2.00193e-05
0.000163553
0.000195086
0.000137185
0.000113049
2.5569e-05
2.28778e-05
0.000166298
0.000234079
0.000211207
0.000151025
2.9456e-05
2.29425e-05
0.000105346
0.000128798
0.000191568
0.000160399
2.01911e-05
2.59634e-05
0.000113775
0.00013555
0.000229057
0.000166167
2.33684e-05
3.00179e-05
0.000152423
0.00020772
0.00012982
0.000109784
2.34072e-05
2.03449e-05
0.000163463
0.000191636
0.000136181
0.000116016
2.6134e-05
2.34644e-05
0.000165212
0.000229706
0.000207733
0.00015153
3.0181e-05
2.36669e-05
0.000109699
0.0001295
0.000190771
0.000161834
2.05707e-05
2.6603e-05
0.00011763
0.000136272
0.000227666
0.00016643
2.37979e-05
3.05415e-05
0.000153847
0.00020688
0.000130891
0.00011361
2.39295e-05
2.08162e-05
0.000164078
0.000191851
0.000137676
0.000120545
2.69696e-05
2.40744e-05
0.00016718
0.000229883
0.000208324
0.000154484
3.10327e-05
2.4477e-05
0.000115765
0.000132682
0.000193785
0.000165765
2.13343e-05
2.75192e-05
0.000122933
0.000139598
0.000232984
0.000170811
2.44e-05
3.16987e-05
0.000159058
0.00021288
0.000134688
0.000118938
2.56864e-05
2.33199e-05
0.000167964
0.000216503
0.000200744
0.000157819
3.11848e-05
2.50623e-05
0.000117192
0.000130324
0.000191114
0.000164911
2.16387e-05
2.81688e-05
0.00012532
0.00013842
0.00022819
0.000168924
2.47986e-05
3.20952e-05
0.000158157
0.000207834
0.000134442
0.000121616
2.55216e-05
2.19673e-05
0.00016796
0.000194378
0.000141351
0.00012891
2.8836e-05
2.55517e-05
0.000173039
0.000233611
0.000212971
0.000162034
3.32263e-05
2.67587e-05
0.000125631
0.000137485
0.000218476
0.000171273
2.40425e-05
3.20434e-05
0.000162809
0.000203683
0.000135133
0.000123758
2.61658e-05
2.24037e-05
0.000169126
0.000194278
0.000141693
0.000131679
2.95745e-05
2.61266e-05
0.000172483
0.000231842
0.000212468
0.000162839
3.42156e-05
2.753e-05
0.000128141
0.000138699
0.000216095
0.000171688
2.46859e-05
3.30615e-05
0.000163747
0.000202601
0.000137032
0.00012816
2.70171e-05
2.30471e-05
0.000172435
0.000196417
0.000144778
0.000135978
3.06077e-05
2.69467e-05
0.000176398
0.000235694
0.000215659
0.000166728
3.53669e-05
2.85507e-05
0.000133791
0.00014231
0.000221906
0.000177497
2.55438e-05
3.43329e-05
0.000169275
0.000208275
0.000141953
0.000134439
2.76786e-05
2.37086e-05
0.000178709
0.000202397
0.000150175
0.000143326
3.16101e-05
2.78267e-05
0.000180824
0.000242249
0.00022314
0.000172253
3.67031e-05
2.9955e-05
0.000140602
0.000148708
0.000230352
0.000185508
2.67272e-05
3.60433e-05
0.000177313
0.000216675
0.00014791
0.000141754
2.98224e-05
2.65342e-05
0.000182956
0.000228326
0.000216092
0.000176251
3.67854e-05
3.11784e-05
0.000143019
0.000148485
0.000228323
0.000185043
2.78466e-05
3.78705e-05
0.000177906
0.000216172
0.000149845
0.000144152
3.12751e-05
2.73198e-05
0.000182452
0.000225605
0.000213958
0.000176954
3.70131e-05
3.16062e-05
0.000144573
0.000148907
0.000224011
0.000183269
2.80774e-05
3.87376e-05
0.000177089
0.00021252
0.000150281
0.000147778
3.24674e-05
2.85465e-05
0.000183759
0.000223381
0.000212434
0.000177971
3.90455e-05
3.23535e-05
0.000149952
0.000151155
0.000224833
0.000184388
2.83963e-05
3.95942e-05
0.00017885
0.000213446
0.000153163
0.000153382
3.37187e-05
2.96961e-05
0.000187591
0.000225929
0.000216129
0.000182245
4.09476e-05
3.43302e-05
0.000157311
0.000156117
0.000230925
0.000190859
2.92657e-05
4.00753e-05
0.000185814
0.000220025
0.000159017
0.000161797
3.48544e-05
3.09286e-05
0.000195308
0.000235656
0.000226531
0.000191292
4.29191e-05
3.68295e-05
0.000170839
0.00016575
0.000251854
0.000206642
3.23671e-05
4.45428e-05
0.000210097
0.000241217
0.000221494
0.000198776
4.1288e-05
3.70321e-05
0.000170542
0.000168544
0.000240069
0.000200224
3.3218e-05
4.85496e-05
0.000205369
0.000225338
0.000213661
0.000195033
4.2925e-05
3.8518e-05
0.000169
0.000166159
0.00023321
0.000194351
3.44589e-05
5.02758e-05
0.000203787
0.000221786
0.000206952
0.000193627
4.65693e-05
4.02635e-05
0.000176293
0.000167393
0.000230081
0.000194324
3.51507e-05
5.21734e-05
0.00020456
0.000215874
0.000206939
0.000194715
4.92321e-05
4.45938e-05
0.000186277
0.00017076
0.000243055
0.000204909
3.75018e-05
5.53622e-05
0.000208841
0.000233948
0.000224565
0.000211343
5.56438e-05
5.63956e-05
0.000211889
0.000208641
0.000202519
0.000199492
5.23968e-05
4.93004e-05
0.000196666
0.000176461
0.000233182
0.000204482
4.25299e-05
6.2728e-05
0.000197233
0.00022591
0.000213043
0.000215155
6.24566e-05
6.60728e-05
0.000207289
0.000211276
0.000203537
0.000210436
7.00419e-05
7.67913e-05
0.00020465
0.00020236
0.000198895
0.000203728
8.26864e-05
8.99588e-05
0.00020069
0.000198576
0.000198343
0.000202956
9.57245e-05
9.94014e-05
0.000204961
0.000199499
0.000200045
0.000216327
0.000100768
9.86165e-05
0.000221618
0.000200595
0.000202891
0.000240742
9.58174e-05
9.23531e-05
0.000252701
0.000204518
0.000211349
0.000276019
8.87134e-05
8.47123e-05
0.000274777
0.000213826
0.000223946
0.000290135
8.10373e-05
7.75323e-05
0.000291416
0.000227615
0.000240295
0.00030383
7.45985e-05
7.20831e-05
0.000311089
0.000245614
0.000265051
0.000319014
7.00065e-05
6.82609e-05
0.000327293
0.000272873
0.000297904
0.00033388
6.67333e-05
6.54015e-05
0.00034214
0.000306321
0.00033294
0.000349545
6.4134e-05
6.31145e-05
0.000358489
0.00034259
0.000371146
0.00036663
6.20818e-05
6.14664e-05
0.000376191
0.00038219
0.000412111
0.000385115
6.06031e-05
6.04766e-05
0.000395178
0.000426282
0.000458045
0.000404117
5.98115e-05
5.99893e-05
0.000413829
0.000466376
0.000500746
0.000423028
5.95362e-05
5.9802e-05
0.000432389
0.000505868
0.000539373
0.000440988
5.95979e-05
5.98593e-05
0.000449859
0.000544272
0.000576762
0.000458211
5.97828e-05
6.00294e-05
0.000466291
0.000581379
0.000612072
0.000474487
5.99839e-05
6.02595e-05
0.000481605
0.000615522
0.000644357
0.000488974
6.03071e-05
6.05149e-05
0.000495605
0.000647619
0.000673554
0.000501941
6.04871e-05
6.07337e-05
0.00050781
0.000676576
0.00070093
0.000513341
6.06814e-05
6.09118e-05
0.000518311
0.000703417
0.000725386
0.000522935
6.08421e-05
6.10491e-05
0.000527153
0.000727592
0.000748231
0.000531174
6.09664e-05
6.11528e-05
0.000534552
0.000749894
0.000768562
0.000537858
6.10598e-05
6.12231e-05
0.000540615
0.00076996
0.000787707
0.000543535
6.11234e-05
6.1269e-05
0.000545566
0.000788592
0.000804839
0.000547982
6.1165e-05
6.1294e-05
0.000549572
0.000805563
0.000821363
0.000551789
6.11864e-05
6.13037e-05
0.000552806
0.000821685
0.000836686
0.000554666
6.11961e-05
6.13036e-05
0.000555391
0.000836749
0.000851637
0.000557175
6.11951e-05
6.12982e-05
0.000557507
0.000851133
0.000865451
0.000559035
6.11918e-05
6.12929e-05
0.00055922
0.000864622
0.000878814
0.000560663
6.1191e-05
6.12893e-05
0.000560519
0.000877257
0.000890296
0.000561744
6.11903e-05
6.12848e-05
0.000561529
0.000889171
0.000898002
0.000562735
6.11926e-05
6.12837e-05
0.000562231
0.000900154
0.000904837
0.000563237
6.1198e-05
6.12832e-05
0.000562681
0.000910219
0.00091078
0.000563667
6.12036e-05
6.12824e-05
0.000562859
0.000919496
0.000916075
0.000563671
6.12094e-05
6.12808e-05
0.000562858
0.000925307
0.000920473
0.000563657
6.12126e-05
6.12754e-05
0.000562629
0.000929193
0.000924171
0.000563252
6.12121e-05
6.12656e-05
0.000562231
0.000932541
0.000927041
0.000562838
6.12053e-05
6.125e-05
0.000561618
0.000934967
0.000929384
0.000562063
6.11932e-05
6.12298e-05
0.000560876
0.000937159
0.000931182
0.000561333
6.11757e-05
6.12052e-05
0.000559973
0.000938673
0.000932681
0.000560313
6.11543e-05
6.11776e-05
0.000559014
0.000940142
0.000933802
0.00055941
6.11287e-05
6.11467e-05
0.000557966
0.000941061
0.000934757
0.000558278
6.11006e-05
6.11149e-05
0.00055692
0.000942055
0.000935445
0.000557309
6.10709e-05
6.10825e-05
0.00055583
0.000942609
0.000936069
0.000556156
6.10409e-05
6.10503e-05
0.000554777
0.000943543
0.000936585
0.000555197
6.10107e-05
6.1019e-05
0.00055372
0.000943765
0.000936926
0.000554082
6.0982e-05
6.09899e-05
0.000552725
0.000944517
0.000937231
0.000553178
6.09549e-05
6.09627e-05
0.000551732
0.000944493
0.000937342
0.000552092
6.09302e-05
6.09375e-05
0.000550815
0.000945014
0.000937422
0.000551231
6.09068e-05
6.09138e-05
0.000549889
0.000944732
0.000937305
0.000550194
6.08852e-05
6.08916e-05
0.000549014
0.000945031
0.000937189
0.000549416
6.08645e-05
6.08706e-05
0.000548131
0.000944559
0.000936916
0.000548432
6.08452e-05
6.08507e-05
0.000547303
0.000944724
0.000936691
0.000547711
6.08267e-05
6.08321e-05
0.000546469
0.000944146
0.000936329
0.000546778
6.08096e-05
6.08146e-05
0.000545689
0.000944212
0.000936005
0.000546107
6.07935e-05
6.07983e-05
0.000544903
0.000943515
0.000935534
0.000545221
6.07787e-05
6.0783e-05
0.000544171
0.000943466
0.000935119
0.000544597
6.07646e-05
6.07687e-05
0.000543431
0.000942702
0.000934599
0.000543761
6.07515e-05
6.07549e-05
0.000542746
0.00094262
0.000934166
0.000543187
6.07385e-05
6.07417e-05
0.000542059
0.000941828
0.000933638
0.000542403
6.07261e-05
6.07291e-05
0.00054143
0.000941713
0.000933191
0.000541886
6.07139e-05
6.07173e-05
0.000540799
0.000940927
0.000932662
0.000541162
6.07027e-05
6.07063e-05
0.000540223
0.000940751
0.000932186
0.000540699
6.06919e-05
6.06961e-05
0.000539645
0.000939953
0.000931668
0.00054003
6.06817e-05
6.06868e-05
0.000539126
0.000939799
0.000931227
0.000539627
6.06725e-05
6.06795e-05
0.000538619
0.000939031
0.000930737
0.000539019
6.06666e-05
6.0677e-05
0.000538133
0.000938898
0.000930297
0.000538637
6.06656e-05
6.06766e-05
0.00053764
0.000938096
0.000929742
0.00053804
6.06672e-05
6.06799e-05
0.000537154
0.000937872
0.000929209
0.000537658
6.0672e-05
6.06824e-05
0.000536667
0.000936987
0.000928604
0.000537075
6.06757e-05
6.06861e-05
0.000536202
0.000936753
0.000928104
0.00053672
6.06799e-05
6.06874e-05
0.000535751
0.000935932
0.000927575
0.000536176
6.06816e-05
6.06892e-05
0.000535332
0.00093576
0.000927103
0.000535867
6.06836e-05
6.06893e-05
0.000534928
0.000934922
0.000926526
0.000535373
6.06841e-05
6.0691e-05
0.000534562
0.000934686
0.000926021
0.000535119
6.06861e-05
6.06919e-05
0.000534215
0.000933864
0.000925527
0.000534684
6.06875e-05
6.06949e-05
0.000533903
0.000933774
0.000925194
0.000534479
6.06908e-05
6.06971e-05
0.000533598
0.00093311
0.000924792
0.000534078
6.06936e-05
6.07018e-05
0.000533312
0.000933016
0.000924363
0.000533899
6.06986e-05
6.07058e-05
0.000533039
0.000932193
0.000923813
0.000533537
6.07032e-05
6.07122e-05
0.000532799
0.00093202
0.000923432
0.000533408
6.07098e-05
6.07176e-05
0.000532576
0.000931374
0.000923141
0.000533093
6.07156e-05
6.07251e-05
0.000532374
0.000931475
0.000922956
0.00053299
6.07234e-05
6.07315e-05
0.000532167
0.000930896
0.000922584
0.000532686
6.07302e-05
6.07402e-05
0.000531975
0.000930803
0.000922181
0.0005326
6.07389e-05
6.07477e-05
0.000531792
0.000930053
0.000921757
0.000532328
6.07468e-05
6.07578e-05
0.000531645
0.000930033
0.000921523
0.000532287
6.07569e-05
6.07666e-05
0.000531496
0.000929498
0.000921281
0.000532047
6.0766e-05
6.07783e-05
0.000531381
0.000929588
0.00092108
0.000532028
6.07779e-05
6.07885e-05
0.000531243
0.000929032
0.000920792
0.000531802
6.07883e-05
6.08023e-05
0.000531144
0.000929072
0.000920555
0.000531796
6.08024e-05
6.0814e-05
0.000531016
0.000928494
0.000920255
0.000531585
6.08144e-05
6.08296e-05
0.00053094
0.000928525
0.000920026
0.0005316
6.08306e-05
6.08433e-05
0.000530824
0.000927985
0.000919792
0.000531402
6.08447e-05
6.08606e-05
0.000530764
0.000928093
0.00091954
0.000531415
6.08627e-05
6.08741e-05
0.000530674
0.000927674
0.000919546
0.00053136
6.08755e-05
6.09275e-05
0.000531121
0.000927435
0.000919367
0.000531691
6.09544e-05
6.09627e-05
0.000531077
0.000927398
0.000919159
0.000531761
6.09572e-05
6.09868e-05
0.000531585
0.000928394
0.000917448
0.00053347
6.12234e-05
6.14474e-05
0.000534426
0.000936632
0.000944898
0.000542363
6.26699e-05
6.41063e-05
0.000552193
0.000967248
0.00104359
0.000580274
6.85416e-05
7.2588e-05
0.000613008
0.0010954
0.00116902
0.000652266
7.64757e-05
0.00195192
0.00322541
0.00457475
0.00746686
0.0143425
0.0187508
0.021063
0.0320811
0.0472214
0.0630201
0.0828685
0.109687
0.145036
0.191595
0.250613
0.323304
0.409383
0.507452
0.616378
0.689706
0.650094
0.610889
0.575461
0.543178
0.528444
0.522996
0.557351
0.554247
0.514719
0.424937
0.388402
0.352665
2.03969
2.0765
2.11801
2.1728
2.23906
2.30157
2.19498
2.04865
1.90471
1.77395
1.66359
1.57272
1.50183
1.44729
1.40568
1.37092
1.33506
1.29097
1.2367
1.17764
1.12139
1.07249
1.03054
0.992187
0.953798
0.913233
0.870088
0.824934
0.778127
0.729015
0.675746
0.615735
0.547382
0.471667
0.393797
0.320946
0.258593
0.208443
0.169465
0.139555
0.116604
0.0989478
0.0852771
0.074665
0.066376
0.0598756
0.0547567
0.0507164
0.0475248
0.0450084
0.0430391
0.0415104
0.0403531
0.0395026
0.0389149
0.0385517
0.0383919
0.0384063
0.0385796
0.038899
0.0393509
0.0399379
0.0406427
0.0414679
0.0424095
0.0434626
0.0446352
0.0459182
0.047325
0.0488523
0.0505012
0.0522798
0.0541926
0.0562505
0.058462
0.0608362
0.0633833
0.066118
0.069049
0.072195
0.0755694
0.0792066
0.0831164
0.0873346
0.0918771
0.0967867
0.102109
0.107868
0.114131
0.120943
0.128377
0.136496
0.145387
0.155154
0.165898
0.177764
0.190895
0.205469
0.221696
0.23982
0.260137
0.282998
0.308828
0.338142
0.371573
0.409916
0.454177
0.50568
0.566188
0.638095
0.724653
0.830206
0.960299
1.12146
1.32036
1.562