/*--------------------------------*- C++ -*----------------------------------*\
| =========                 |                                                 |
| \\      /  F ield         | OpenFOAM: The Open Source CFD Toolbox           |
|  \\    /   O peration     | Version:  v2006                                 |
|   \\  /    A nd           | Website:  www.openfoam.com                      |
|    \\/     M anipulation  |                                                 |
\*---------------------------------------------------------------------------*/
FoamFile
{
    version     2.0;
    format      ascii;
    class       volScalarField;
    location    "0.006";
    object      turbulenceProperties:I;
}
// * * * * * * * * * * * * * * * * * * * * * * * * * * * * * * * * * * * * * //

dimensions      [0 0 0 0 0 0 0];


internalField   nonuniform List<scalar> 
11076
(
0.149998
0.149997
0.149998
0.149999
0.149999
0.15
0.15
0.15
0.15
0.15
0.15
0.15
0.15
0.15
0.15
0.15
0.15
0.15
0.150001
0.150002
0.150003
0.150005
0.150006
0.150008
0.150008
0.150007
0.150004
0.150002
0.15
0.149998
0.149995
0.149991
0.149987
0.149984
0.149984
0.149985
0.149985
0.149986
0.149986
0.149987
0.149987
0.149988
0.149988
0.149989
0.149989
0.149989
0.149988
0.149988
0.149989
0.149989
0.14999
0.149992
0.149994
0.149996
0.149998
0.149999
0.149999
0.15
0.15
0.150001
0.150002
0.150003
0.150007
0.150007
0.150003
0.150005
0.150012
0.150017
0.150015
0.149862
0.149261
0.143752
0.135337
0.145511
0.148795
0.146617
0.140369
0.12861
0.123483
0.136057
0.144214
0.141454
0.131513
0.119115
0.116036
0.128251
0.139074
0.1364
0.124603
0.113256
0.111342
0.122144
0.13441
0.132039
0.119415
0.109477
0.108352
0.117877
0.130501
0.128433
0.115681
0.107039
0.10635
0.11471
0.127267
0.12548
0.112945
0.105384
0.104946
0.112295
0.124553
0.122981
0.110829
0.104209
0.103917
0.110361
0.122225
0.120819
0.109125
0.103338
0.103133
0.108752
0.120188
0.118911
0.107696
0.102659
0.10251
0.107387
0.118374
0.117199
0.106459
0.102111
0.101998
0.106196
0.116732
0.115645
0.105364
0.101651
0.101562
0.105134
0.115222
0.114217
0.104378
0.101255
0.101183
0.104174
0.113829
0.112893
0.103481
0.100906
0.100846
0.103298
0.112533
0.111656
0.102658
0.100594
0.100542
0.102492
0.11132
0.110495
0.101898
0.100311
0.100266
0.101746
0.110179
0.109398
0.101191
0.100051
0.10001
0.10105
0.1091
0.108359
0.100529
0.0998094
0.0997714
0.100396
0.108074
0.107368
0.0999054
0.0995823
0.0995456
0.0997784
0.107095
0.10642
0.099314
0.099366
0.0993294
0.099191
0.106156
0.105509
0.0987495
0.0991576
0.0991198
0.0986285
0.105251
0.104629
0.0982068
0.0989542
0.0989137
0.0980859
0.104377
0.103777
0.0976815
0.098753
0.0987084
0.097559
0.103528
0.102948
0.0971698
0.0985514
0.098501
0.0970439
0.102701
0.102139
0.0966679
0.0983472
0.0982886
0.0965367
0.101891
0.101344
0.096172
0.0981377
0.098069
0.0960334
0.101093
0.100557
0.095679
0.0979202
0.0978378
0.0955294
0.100301
0.0997745
0.0951777
0.0976892
0.0975913
0.0950121
0.0995097
0.0989873
0.0946569
0.0974408
0.0973255
0.0944723
0.0987106
0.0981885
0.0941108
0.0971714
0.0970365
0.0939044
0.0978968
0.0973715
0.0935344
0.096883
0.0967245
0.0933036
0.0970617
0.0965302
0.0929225
0.0965542
0.0963839
0.0926647
0.0961992
0.0956585
0.0922703
0.0961892
0.0960112
0.0919824
0.0953032
0.0947507
0.0915713
0.0957889
0.0955986
0.09125
0.0943673
0.0938
0.0908189
0.0953533
0.0951414
0.090461
0.0933846
0.0927998
0.0900122
0.0948769
0.0946382
0.0896101
0.0923485
0.0917423
0.0891372
0.0943502
0.0940833
0.0886864
0.0912504
0.0906194
0.0881868
0.093767
0.093474
0.0876914
0.0900838
0.089425
0.0871419
0.0931257
0.0928058
0.086612
0.0888426
0.0881617
0.0860117
0.0924248
0.0920761
0.0854435
0.0875242
0.0868148
0.0847908
0.0916594
0.0912793
0.0841849
0.0861265
0.0853614
0.0834726
0.0908242
0.0904112
0.0828241
0.0846337
0.0838125
0.0820511
0.0899189
0.0894768
0.0813632
0.0830508
0.0821742
0.0805328
0.088953
0.0884864
0.0798101
0.0813776
0.0804476
0.0789255
0.0879354
0.0874461
0.0781704
0.0796179
0.0786368
0.0772345
0.0868699
0.0863603
0.0764529
0.0777776
0.0767514
0.0754762
0.0857626
0.0852408
0.0746833
0.075869
0.0748076
0.0736789
0.08464
0.0841201
0.0728855
0.0739078
0.0728217
0.0718666
0.083531
0.0830258
0.0710838
0.0719096
0.0708111
0.0700651
0.0824648
0.0819888
0.0693056
0.0698954
0.068801
0.0683077
0.0814764
0.0810526
0.0675898
0.0678938
0.0668248
0.0666361
0.0806135
0.080263
0.06598
0.0659454
0.0649278
0.0650961
0.0799184
0.0796612
0.0645264
0.0641017
0.063161
0.0637362
0.0794287
0.0792801
0.0632793
0.0624148
0.0615759
0.0626081
0.0791719
0.0791404
0.0622868
0.0609342
0.0602134
0.0617512
0.0791586
0.0792424
0.0615651
0.0596898
0.0590962
0.0612029
0.0793816
0.0795736
0.0611253
0.0586926
0.0582247
0.0609634
0.0798095
0.0800991
0.0609711
0.0579356
0.0575795
0.0609355
0.0804163
0.0807698
0.06104
0.0573907
0.0571365
0.0611195
0.0811325
0.0815073
0.0613228
0.0570355
0.056871
0.0615037
0.0818738
0.0822428
0.0617827
0.0568454
0.0567549
0.0620381
0.0826003
0.0829511
0.062366
0.056789
0.0567579
0.0626763
0.0832879
0.0836158
0.0630372
0.0568381
0.0568623
0.0633908
0.0839335
0.0842366
0.063773
0.0569768
0.0570489
0.0641608
0.0845332
0.0848106
0.0645571
0.0571895
0.0573003
0.0649681
0.0850873
0.0853367
0.0653735
0.0574624
0.057602
0.0657965
0.0855862
0.0858273
0.0662054
0.0577816
0.0579416
0.0666323
0.0860484
0.0862624
0.0670415
0.0581331
0.0583073
0.0674606
0.0864588
0.0866533
0.0678697
0.0585081
0.058689
0.0682747
0.0868261
0.0870041
0.0686829
0.0588985
0.059081
0.0690653
0.0871546
0.0873191
0.0694751
0.059298
0.0594771
0.0698253
0.0874473
0.0876009
0.0702402
0.0596981
0.0598736
0.0705392
0.0877019
0.0878364
0.0709584
0.0601086
0.0602652
0.0712075
0.0878994
0.0880315
0.0716093
0.0604713
0.0605409
0.0715807
0.0878843
0.0874013
0.0711841
0.0605305
0.0605874
0.0709972
0.0871655
0.0596327
0.0633388
0.0669145
0.0699773
0.0719097
0.0741922
0.075728
0.0771493
0.0782025
0.07922
0.0800015
0.0808158
0.0814403
0.0821493
0.0826173
0.083221
0.083321
0.0831251
0.0822813
0.0814845
0.0784288
0.0753175
0.0738391
0.0764667
0.0813699
0.0898942
0.100492
0.102126
0.0915376
0.0828486
0.0840212
0.0930539
0.103227
0.104045
0.0942266
0.0850804
0.0861755
0.0953888
0.104782
0.105025
0.0957155
0.0866196
0.0871563
0.0961347
0.10533
0.105415
0.0963352
0.0875199
0.0879754
0.0967423
0.105563
0.105652
0.0970041
0.0882995
0.0887005
0.0973206
0.105801
0.1059
0.0975925
0.0890348
0.0894465
0.0979161
0.106053
0.106163
0.0982214
0.0898117
0.0902365
0.098555
0.106321
0.106446
0.0988982
0.0906355
0.0910784
0.099248
0.106614
0.106757
0.0996335
0.0915176
0.0919802
0.0999987
0.106931
0.107094
0.100429
0.0924578
0.092944
0.100815
0.10728
0.107467
0.101293
0.0934694
0.0939797
0.101697
0.107665
0.107877
0.10223
0.0945559
0.0950985
0.102658
0.1081
0.10834
0.103261
0.0957353
0.0963134
0.103712
0.108585
0.108857
0.1044
0.097007
0.0976267
0.104881
0.109133
0.109439
0.105648
0.0983836
0.0990485
0.106154
0.109742
0.110089
0.107019
0.0998548
0.100557
0.107563
0.110426
0.11081
0.108502
0.101424
0.102171
0.109076
0.111171
0.111611
0.110109
0.103096
0.10388
0.110725
0.112012
0.112492
0.111832
0.10485
0.105676
0.112486
0.112917
0.113465
0.11368
0.106688
0.10754
0.114372
0.11392
0.114501
0.115607
0.108577
0.109468
0.116329
0.114965
0.115613
0.11763
0.110519
0.111434
0.118386
0.116102
0.116786
0.119675
0.112455
0.113375
0.120431
0.117255
0.117975
0.121695
0.114345
0.115254
0.122461
0.118458
0.119198
0.123617
0.116121
0.116958
0.124292
0.119611
0.120279
0.125271
0.11766
0.118414
0.125862
0.120681
0.121292
0.126625
0.118943
0.11953
0.126977
0.121615
0.122021
0.127394
0.119755
0.120092
0.12742
0.122102
0.122246
0.127399
0.119942
0.120022
0.126866
0.121687
0.12137
0.12668
0.11971
0.119995
0.126305
0.120737
0.12098
0.127506
0.120568
0.121502
0.128204
0.121447
0.122716
0.130642
0.122666
0.124129
0.131888
0.123943
0.125797
0.135218
0.12531
0.126357
0.136734
0.127087
0.129305
0.140693
0.127284
0.128091
0.142605
0.131143
0.134168
0.146687
0.128528
0.128458
0.148528
0.135234
0.138442
0.15149
0.128242
0.1276
0.152685
0.140226
0.142727
0.152718
0.126185
0.123032
0.150441
0.143743
0.142564
0.144864
0.122003
0.114146
0.142227
0.141057
0.149918
0.14312
0.108798
0.105003
0.139185
0.153798
0.152883
0.148616
0.114327
0.108457
0.143245
0.152667
0.154277
0.139595
0.103732
0.0988152
0.134364
0.15659
0.157255
0.129205
0.0953152
0.091271
0.123832
0.156702
0.156319
0.118705
0.0882076
0.085701
0.113815
0.156588
0.15556
0.109676
0.0848415
0.0880348
0.11321
0.15303
0.150802
0.108685
0.0850013
0.0829392
0.105094
0.148
0.148904
0.102583
0.0817936
0.0821954
0.102812
0.149206
0.151233
0.109238
0.0872793
0.0855036
0.108479
0.147741
0.141434
0.108744
0.0893942
0.084925
0.103567
0.134446
0.126656
0.0977511
0.0811072
0.0777194
0.0929853
0.118205
0.106869
0.0894867
0.0766058
0.0778254
0.086022
0.0928998
0.0810257
0.0821471
0.0771842
0.0790109
0.0789746
0.0731944
0.0682
0.0774444
0.0821976
0.0840064
0.0765718
0.0660896
0.0671057
0.0785382
0.0893929
0.0950899
0.0836288
0.0706391
0.0767126
0.0919684
0.101326
0.108785
0.102736
0.0845187
0.0952084
0.115833
0.119026
0.132528
0.129947
0.106916
0.119841
0.143232
0.14546
0.160782
0.158541
0.134113
0.151838
0.176942
0.179198
0.205039
0.201638
0.173313
0.199722
0.231141
0.228878
0.268175
0.274575
0.233524
0.277774
0.325142
0.315766
0.39248
0.404406
0.338833
0.423414
0.51424
0.513702
0.619169
0.637369
0.540636
0.744162
0.82077
0.765458
0.984849
1
1
1
1
1
1
1
1
1
1
1
1
1
0.922494
0.723896
1
1
0.929136
0.907411
0.596426
0.51992
0.792181
0.835917
0.747478
0.702172
0.463238
0.425753
0.63384
0.676727
0.601055
0.563736
0.385718
0.351727
0.500728
0.536571
0.488596
0.444328
0.316446
0.29919
0.420443
0.466914
0.435528
0.392425
0.282377
0.261158
0.357717
0.399436
0.388468
0.347079
0.252251
0.241872
0.326921
0.366036
0.343192
0.304101
0.226505
0.211961
0.27472
0.315719
0.316148
0.273078
0.201934
0.197724
0.26432
0.303053
0.267649
0.205504
0.179209
0.170563
0.203748
0.275023
0.247721
0.188415
0.158613
0.149267
0.17621
0.22931
0.177473
0.145033
0.136205
0.15141
0.187017
0.215012
0.209269
0.176635
0.145567
0.136302
0.142085
0.167414
0.206752
0.182205
0.149636
0.143441
0.16677
0.197101
0.187222
0.155177
0.137211
0.128002
0.12761
0.148484
0.184915
0.161068
0.137213
0.133233
0.152731
0.180476
0.143627
0.125369
0.127057
0.133819
0.15523
0.177379
0.17192
0.146437
0.129775
0.124552
0.121289
0.136937
0.169434
0.148375
0.130291
0.126497
0.140147
0.164181
0.131042
0.117415
0.121616
0.127934
0.144278
0.16334
0.15572
0.132786
0.124441
0.120936
0.123773
0.146641
0.116606
0.107202
0.116201
0.118689
0.127255
0.145136
0.141687
0.121041
0.117033
0.114552
0.104183
0.112285
0.14004
0.122817
0.115656
0.114197
0.116452
0.135547
0.108783
0.101698
0.112079
0.112643
0.117553
0.133772
0.129456
0.111779
0.11134
0.109793
0.0985953
0.104402
0.128607
0.113288
0.110505
0.109843
0.108158
0.123956
0.0999029
0.095706
0.109409
0.10786
0.107831
0.122724
0.118198
0.103546
0.106958
0.108163
0.0929138
0.0962314
0.115891
0.104966
0.106507
0.105747
0.0954116
0.0992717
0.119976
0.105427
0.104766
0.104444
0.100839
0.113986
0.0936025
0.0915434
0.105096
0.103703
0.101134
0.114561
0.109059
0.0973924
0.103269
0.103295
0.0893238
0.0904287
0.109692
0.0969284
0.101207
0.101633
0.0938904
0.104765
0.0874168
0.0871937
0.103236
0.0995752
0.0934025
0.104735
0.0998759
0.0903533
0.0998128
0.10075
0.0848587
0.085285
0.0979129
0.090269
0.0973041
0.0993353
0.0840198
0.0855571
0.101494
0.0900325
0.0963527
0.0971019
0.0870062
0.0959676
0.0814692
0.0820889
0.0995774
0.0942819
0.0856985
0.0948165
0.0906045
0.0831369
0.0953611
0.0992607
0.0795223
0.0785909
0.0889378
0.082361
0.0928598
0.0953167
0.0785877
0.0788033
0.0925007
0.0826351
0.0906144
0.091769
0.0799496
0.0875915
0.0758345
0.0770164
0.0955913
0.0901375
0.0800061
0.0874224
0.0835152
0.0779696
0.0918625
0.0952152
0.0760705
0.0748218
0.0824307
0.0771851
0.0879791
0.091832
0.0741441
0.0738869
0.0853045
0.0770522
0.0867389
0.0886299
0.0749354
0.080383
0.0723498
0.0737232
0.0933607
0.0865891
0.074111
0.0789264
0.071392
0.0723123
0.0900117
0.084205
0.0743359
0.0818523
0.0773225
0.0722824
0.0860261
0.0907402
0.0714834
0.0694917
0.0772709
0.0722051
0.0843566
0.0867022
0.0708816
0.0740772
0.0682026
0.0710584
0.0912062
0.0831613
0.0694332
0.0727421
0.0670207
0.0686302
0.087393
0.0813761
0.0690004
0.0747608
0.0708814
0.0681007
0.0840295
0.0894135
0.068263
0.0655991
0.0696487
0.066658
0.08196
0.086251
0.0666254
0.0647574
0.0704657
0.065918
0.0791357
0.0815891
0.0649423
0.0668802
0.0629604
0.0665427
0.0869481
0.0796264
0.0643768
0.0664412
0.0621971
0.0650074
0.0843423
0.0779209
0.0641182
0.0683959
0.0647385
0.0631685
0.0806082
0.0858361
0.0656508
0.0613401
0.0637955
0.0619674
0.0780908
0.082823
0.0634911
0.060487
0.0643768
0.0612594
0.0757723
0.0785327
0.0603565
0.0612426
0.0591468
0.0648261
0.083906
0.07652
0.0597793
0.0614093
0.0585308
0.0621632
0.0815734
0.0744551
0.0596854
0.0624937
0.0594372
0.0588902
0.0774202
0.0829093
0.0639285
0.0577734
0.0593298
0.0580878
0.0751974
0.0805039
0.0610163
0.0568621
0.0594217
0.0576359
0.0733259
0.076423
0.0570228
0.0568791
0.0560738
0.062944
0.0818801
0.0738455
0.0561432
0.0570185
0.0551186
0.0599568
0.0792182
0.072032
0.0561104
0.0574696
0.0550416
0.0555696
0.0751897
0.0808664
0.0621154
0.0547225
0.0551661
0.0548301
0.0726263
0.0782721
0.0588172
0.0535175
0.0551196
0.0544089
0.0706353
0.0738774
0.054053
0.0529618
0.0532716
0.061145
0.0796452
0.0715851
0.0532867
0.0532684
0.0521007
0.0579259
0.0773292
0.0697434
0.0531938
0.0535883
0.0514447
0.0529279
0.0731045
0.079178
0.0606527
0.0520278
0.0514851
0.0519109
0.0709533
0.0767644
0.0570861
0.0506603
0.0514747
0.0516506
0.0688323
0.0721901
0.0514881
0.0495511
0.0505932
0.0599736
0.0782718
0.0699339
0.05038
0.0496063
0.0492369
0.0561062
0.0759334
0.0679988
0.050441
0.0500816
0.0481811
0.0504197
0.0714201
0.0776889
0.0593717
0.0495248
0.0481181
0.0491488
0.0691886
0.075293
0.0552725
0.0479919
0.048387
0.0489597
0.0671203
0.0705727
0.0490205
0.0466227
0.0483057
0.0587613
0.076837
0.0681094
0.0479442
0.0466625
0.0468387
0.0545059
0.0742947
0.0661247
0.047891
0.0472946
0.0455948
0.0481558
0.0698079
0.0763851
0.0580841
0.0474438
0.0457259
0.0470763
0.0677624
0.0740522
0.0537524
0.0459578
0.0460663
0.0467865
0.065572
0.0690348
0.0470468
0.0444036
0.0464519
0.0575139
0.0753252
0.0666676
0.0461357
0.0446786
0.0450731
0.0530588
0.0730689
0.065052
0.046073
0.0453177
0.0437308
0.0464566
0.0687098
0.075208
0.0572178
0.0459113
0.0440577
0.0456395
0.0664277
0.0727281
0.0526514
0.0444576
0.0442948
0.0451496
0.0641626
0.0674989
0.045419
0.04267
0.0449954
0.0564448
0.0739132
0.0655168
0.0448378
0.0431805
0.0437814
0.0521332
0.0719742
0.0638477
0.0446541
0.0437644
0.0422756
0.0451699
0.0674846
0.0739338
0.0561275
0.0446205
0.0426659
0.0443365
0.0652256
0.0714328
0.0515604
0.0431367
0.0428428
0.0437526
0.0624705
0.0658234
0.0440764
0.0413322
0.0432327
0.0545115
0.0723821
0.0640668
0.0442729
0.0424144
0.0412377
0.0446848
0.0680063
0.0749159
0.0563948
0.0439412
0.0416775
0.0434472
0.0653732
0.0716819
0.0513823
0.0423458
0.041832
0.042928
0.0627076
0.0660982
0.0433207
0.0403104
0.0431082
0.0552339
0.0727156
0.0639979
0.0429158
0.0409353
0.0417518
0.0507106
0.0704543
0.0618723
0.0423921
0.0412798
0.0399212
0.0430067
0.0653466
0.0715558
0.0538337
0.0420656
0.0407812
0.0428648
0.0628388
0.0663478
0.0428108
0.0394874
0.0425429
0.055128
0.0732821
0.0639638
0.042001
0.0400688
0.0410865
0.0503863
0.0706689
0.0620472
0.0417205
0.040434
0.039167
0.0424654
0.0656827
0.0718976
0.0536856
0.0415653
0.0398161
0.0420995
0.0626436
0.0661226
0.0420516
0.0385389
0.0417398
0.0544197
0.0728965
0.0631239
0.0410818
0.0391032
0.0402347
0.0497367
0.0698125
0.0612037
0.0407778
0.0394078
0.0382623
0.0415837
0.0648645
0.0710448
0.0530976
0.0407934
0.0389833
0.0412611
0.0617777
0.0653609
0.0415091
0.0377946
0.0409429
0.0534133
0.0717681
0.0620955
0.0401459
0.0382443
0.0395716
0.0491689
0.068853
0.060422
0.0400471
0.0385461
0.0374787
0.0407959
0.0641141
0.0703088
0.0522347
0.0400841
0.0381224
0.0404497
0.0608419
0.0642064
0.0405524
0.0369233
0.0395757
0.0519447
0.0704224
0.0606857
0.0397666
0.0374352
0.0364731
0.0400952
0.0646724
0.0717962
0.0523547
0.0396002
0.037363
0.0399412
0.0620037
0.065708
0.04036
0.0364835
0.0397735
0.0528677
0.0721124
0.0613363
0.039545
0.0368502
0.035531
0.0390257
0.0641554
0.0711602
0.0520151
0.0390967
0.0362801
0.0390892
0.0614825
0.0655351
0.0395663
0.0355188
0.0392791
0.0525657
0.0724057
0.0617995
0.0389994
0.0361124
0.0349646
0.0390466
0.0652105
0.0712045
0.0515632
0.0384583
0.0350995
0.0377625
0.060337
0.0643978
0.0382288
0.0342086
0.038269
0.0516291
0.0716252
0.0613024
0.0381407
0.0349921
0.034208
0.0383509
0.0649891
0.0712286
0.0513184
0.0379628
0.034372
0.0370384
0.0590335
0.0619008
0.0370977
0.0332113
0.0371655
0.0503169
0.0691746
0.0594346
0.0370495
0.0339376
0.0332389
0.0372365
0.0630802
0.0692895
0.0496114
0.0365946
0.0334058
0.0360375
0.0576417
0.0590831
0.0365802
0.0321136
0.031479
0.0380063
0.0632279
0.0707243
0.0510943
0.0368619
0.0325695
0.036217
0.0599757
0.0634757
0.0378276
0.0316049
0.0307269
0.0367632
0.0659029
0.0720699
0.0513741
0.0364386
0.0313086
0.0352127
0.0599953
0.0631533
0.0364609
0.0303826
0.0298615
0.0375341
0.0674258
0.0732293
0.0514613
0.0360592
0.0303938
0.034312
0.0598238
0.0630268
0.0357565
0.0292704
0.0285932
0.0358904
0.0671072
0.0733918
0.0498364
0.0343339
0.0289526
0.0326108
0.0575622
0.0596027
0.0328108
0.0276344
0.026691
0.0331639
0.0627243
0.0668385
0.0363246
0.0265013
0.0254107
0.0347501
0.0681105
0.0746329
0.0507948
0.033428
0.0268146
0.0320699
0.059876
0.0625479
0.0304301
0.025705
0.025364
0.0348537
0.0652177
0.0689626
0.0333074
0.024677
0.0245113
0.0360188
0.0722246
0.0771383
0.0355368
0.0242699
0.0243793
0.0373693
0.0815941
0.087413
0.0378067
0.0244082
0.0252524
0.0403804
0.0933313
0.0988235
0.0422889
0.0259813
0.0271121
0.0458419
0.102912
0.104961
0.0476584
0.0276917
0.0290811
0.0514223
0.106478
0.107623
0.0536475
0.0297374
0.031379
0.0578921
0.10829
0.10841
0.0600586
0.0319909
0.0337878
0.0638823
0.108186
0.107801
0.0660315
0.0344251
0.0364201
0.0692355
0.107448
0.107309
0.0718472
0.0372051
0.0398583
0.0744655
0.10733
0.107616
0.0771892
0.0409153
0.0440418
0.0796232
0.107917
0.10832
0.0822206
0.0451268
0.0482946
0.084506
0.108525
0.108829
0.086874
0.0493973
0.0525209
0.088901
0.108862
0.109168
0.0909777
0.0535685
0.0566435
0.0927358
0.109031
0.109399
0.0944644
0.0577255
0.0607781
0.0959319
0.109215
0.109583
0.0972276
0.0617783
0.0647246
0.0984398
0.109419
0.109643
0.0994027
0.0656114
0.0683094
0.10031
0.109566
0.109623
0.100934
0.0690108
0.0714505
0.101608
0.109559
0.109499
0.101994
0.0719953
0.0741474
0.102501
0.109437
0.109304
0.102666
0.0744813
0.0763684
0.102981
0.109201
0.109063
0.103038
0.0765848
0.0781666
0.103187
0.108911
0.108758
0.103116
0.0782573
0.0796109
0.103136
0.108572
0.108411
0.103007
0.0796013
0.0807221
0.102934
0.108209
0.108043
0.102727
0.0806211
0.0815672
0.102591
0.107835
0.107669
0.102363
0.0813981
0.0821664
0.102182
0.10746
0.107292
0.10191
0.0819355
0.0825791
0.101701
0.107086
0.106922
0.101428
0.0823056
0.0828242
0.101202
0.106721
0.106558
0.1009
0.0825139
0.0829503
0.100665
0.10636
0.106202
0.100369
0.0826165
0.0829805
0.10013
0.106011
0.105858
0.0998136
0.0826164
0.0829346
0.0995747
0.10567
0.105521
0.0992686
0.0825503
0.0828179
0.0990293
0.105338
0.105197
0.0987084
0.0824102
0.0826503
0.0984783
0.105026
0.104892
0.098174
0.0822296
0.082439
0.0979476
0.104727
0.1046
0.0976338
0.0820095
0.0822009
0.0974238
0.10445
0.104332
0.097132
0.0817718
0.0819406
0.0969346
0.104195
0.104086
0.0966389
0.0815129
0.081673
0.0964583
0.103962
0.103861
0.0961877
0.0812566
0.0814024
0.096023
0.103752
0.103657
0.0957524
0.0809876
0.0811314
0.0956031
0.103562
0.103471
0.095359
0.0807225
0.0808575
0.0952216
0.103388
0.1033
0.094975
0.0804481
0.0805849
0.0948485
0.103226
0.10314
0.0946248
0.0801815
0.080312
0.0945072
0.103075
0.102991
0.0942793
0.0799129
0.0800478
0.0941721
0.102934
0.102852
0.093966
0.0796593
0.0797892
0.0938685
0.102802
0.102721
0.0936574
0.0794076
0.0795423
0.0935702
0.102678
0.102598
0.0933791
0.079171
0.0793015
0.0933005
0.10256
0.102482
0.0931028
0.0789363
0.0790721
0.0930333
0.102448
0.102371
0.0928539
0.0787176
0.0788486
0.0927924
0.102342
0.102266
0.092605
0.0785003
0.0786371
0.0925523
0.10224
0.102166
0.0923823
0.0782983
0.0784301
0.0923367
0.102144
0.102072
0.0921582
0.0780971
0.0782351
0.09212
0.102053
0.101983
0.0919598
0.0779109
0.0780442
0.0919259
0.101969
0.101901
0.0917626
0.0777259
0.0778654
0.0917318
0.10189
0.101824
0.091588
0.077554
0.077689
0.0915595
0.101817
0.101753
0.0914114
0.0773826
0.0775241
0.0913883
0.101747
0.101685
0.0912551
0.0772239
0.0773608
0.0912341
0.101682
0.101621
0.0910954
0.0770653
0.0772089
0.0910798
0.10162
0.10156
0.0909549
0.0769192
0.0770582
0.0909412
0.101562
0.101503
0.0908104
0.0767727
0.0769184
0.0908018
0.101507
0.10145
0.0906846
0.0766381
0.0767793
0.0906777
0.101456
0.1014
0.0905543
0.0765023
0.0766508
0.0905524
0.101407
0.101352
0.0904423
0.0763798
0.0765235
0.0904417
0.101362
0.101308
0.0903248
0.0762553
0.0764058
0.0903285
0.101319
0.101264
0.0902237
0.0761417
0.0762868
0.0902276
0.101276
0.101222
0.0901146
0.0760235
0.0761754
0.0901217
0.101234
0.101179
0.0900197
0.0759163
0.0760616
0.0900261
0.101192
0.101137
0.0899148
0.0757999
0.0759521
0.0899233
0.101148
0.101092
0.0898215
0.0756942
0.0758396
0.0898278
0.101102
0.101046
0.0897155
0.0755788
0.075731
0.0897228
0.101054
0.100998
0.0896197
0.0754741
0.0756196
0.0896261
0.101007
0.100956
0.0895162
0.0753614
0.0755157
0.0895267
0.100967
0.100916
0.0894285
0.0752627
0.0754118
0.0894404
0.100931
0.100886
0.0893383
0.0751592
0.0753187
0.0893563
0.100904
0.100858
0.0892664
0.0750723
0.0752279
0.089286
0.100879
0.100837
0.0891916
0.0749826
0.0751493
0.0892165
0.100859
0.100814
0.0891329
0.0749099
0.0750715
0.0891578
0.100837
0.100793
0.0890675
0.0748309
0.0750009
0.0890959
0.100817
0.100771
0.0890149
0.0747636
0.0749264
0.0890425
0.100794
0.100751
0.0889543
0.0746867
0.0748586
0.0889853
0.100774
0.100728
0.0889065
0.074624
0.0747908
0.0889367
0.100752
0.100709
0.0888508
0.0745558
0.0747324
0.0888839
0.100733
0.100688
0.0888069
0.0745016
0.0746707
0.0888385
0.100712
0.10067
0.0887539
0.0744362
0.0746118
0.0887883
0.100695
0.10065
0.0887125
0.0743792
0.0745478
0.088746
0.100675
0.100633
0.0886632
0.074314
0.0744936
0.0887001
0.100659
0.100615
0.0886266
0.0742666
0.0744418
0.0886623
0.100641
0.100599
0.0885812
0.0742135
0.0743966
0.0886193
0.100626
0.100581
0.0885462
0.07417
0.0743433
0.0885822
0.100608
0.100566
0.0885011
0.0741113
0.0742916
0.0885396
0.100593
0.100548
0.0884667
0.0740629
0.0742374
0.0885037
0.100574
0.100533
0.0884235
0.0740081
0.0741924
0.0884631
0.100559
0.100514
0.0883905
0.0739666
0.0741439
0.0884279
0.10054
0.100499
0.088348
0.0739156
0.0740998
0.0883877
0.100525
0.10048
0.0883143
0.0738727
0.0740494
0.0883518
0.100505
0.100466
0.0882722
0.0738208
0.0740051
0.0883124
0.100492
0.100447
0.088239
0.0737772
0.0739543
0.088277
0.100472
0.100434
0.0881982
0.0737258
0.0739115
0.0882396
0.100461
0.100417
0.0881678
0.0736855
0.073866
0.0882079
0.100444
0.100407
0.0881312
0.0736405
0.0738296
0.0881738
0.100436
0.100392
0.0880938
0.0736004
0.0737761
0.0881347
0.100418
0.100363
0.0880629
0.0735515
0.0737258
0.0880967
0.100383
0.100323
0.0879969
0.0734879
0.0736456
0.0880155
0.100332
0.100235
0.08787
0.0733575
0.073392
0.0878571
0.100231
0.0999345
0.087538
0.0729767
0.072421
0.0872106
0.0996977
0.0989606
0.0862165
0.0715859
0.0694789
0.0849042
0.0981451
0.0972076
0.0834106
0.0678074
0.0654345
0.0818129
0.0956872
0.0519939
0.0461522
0.0460152
0.049096
0.0537839
0.0559056
0.0569194
0.0598992
0.06166
0.0620827
0.0620295
0.0618036
0.0614127
0.060996
0.0606132
0.0602899
0.0600298
0.0598264
0.0596653
0.0595355
0.0594262
0.0593334
0.0592569
0.0591917
0.059143
0.0591017
0.0590859
0.0590617
0.059052
0.0590151
0.0589967
0.059188
0.0592111
0.0592214
0.0592351
0.0592504
0.0592659
0.0592811
0.0592953
0.0593093
0.0593229
0.0593366
0.0593503
0.0593642
0.059378
0.0593915
0.0594042
0.0594154
0.0594245
0.0594308
0.0594336
0.0594327
0.059428
0.0594198
0.0594092
0.0593975
0.0593867
0.0593787
0.0593751
0.0593772
0.0593859
0.0594019
0.0594259
0.0594593
0.0595044
0.0595624
0.0596382
0.0597388
0.0598709
0.0600417
0.0602585
0.0605288
0.0608597
0.061258
0.0617298
0.0622799
0.0629116
0.0636277
0.0644286
0.0653144
0.0662833
0.0673337
0.068462
0.0696659
0.0709409
0.0722834
0.0736894
0.0751547
0.0766753
0.0782467
0.0798657
0.081527
0.0832279
0.0849632
0.0867298
0.0885238
0.0903407
0.0921776
0.0940301
0.0958948
0.0977687
0.0996469
0.101527
0.103405
0.105278
0.107141
0.108992
0.110827
0.112644
0.114438
0.116207
0.117947
0.119656
0.12133
0.122968
0.124566
0.126121
0.127632
0.129096
0.130511
0.131875
0.133187
0.134446
0.135648
0.136796
0.137886
0.138919
0.139895
0.140814
0.141675
0.14248
0.14323
0.143925
0.144567
0.145157
0.145698
0.146191
0.146638
0.147041
0.147403
0.147726
0.148013
0.148265
0.148484
0.148674
0.148837
0.148976
0.149094
0.149193
0.149279
0.149352
0.149416
0.149474
0.149526
0.149574
0.149618
0.149659
0.149698
0.149734
0.149767
0.149797
0.149824
0.149849
0.14987
0.149889
0.149905
0.149918
0.149929
0.149939
0.149948
0.149957
0.149967
0.149975
0.149981
0.149986
0.14999
0.149993
0.149995
0.149997
0.149998
0.149999
0.149999
0.15
0.15
0.15
0.15
0.15
0.15
0.150001
0.150001
0.150001
0.150002
0.150005
0.150009
0.150016
0.150023
0.15003
0.150035
0.150035
0.150032
0.150025
0.150016
0.150008
0.150001
0.149993
0.149984
0.149974
0.149964
0.149956
0.14995
0.149947
0.149946
0.149945
0.149945
0.149944
0.149943
0.149942
0.149941
0.14994
0.14994
0.14994
0.14994
0.149942
0.149946
0.149951
0.149958
0.149967
0.149975
0.149983
0.149988
0.149991
0.149993
0.149994
0.149997
0.15
0.150003
0.150003
0.149995
0.149949
0.149513
0.148794
0.14667
0.145414
0.144363
0.143036
0.142058
0.140745
0.139854
0.138576
0.137773
0.136539
0.135821
0.134631
0.13399
0.132845
0.132267
0.131164
0.13064
0.129577
0.129098
0.128076
0.12763
0.12665
0.126229
0.12529
0.124891
0.123988
0.123609
0.122738
0.122375
0.121534
0.121185
0.120371
0.120034
0.119245
0.118918
0.118151
0.117832
0.117086
0.116774
0.116048
0.115742
0.115035
0.114732
0.114042
0.113739
0.113062
0.112757
0.112089
0.111779
0.111119
0.110801
0.110145
0.109816
0.109161
0.108819
0.108162
0.107803
0.107141
0.106761
0.106092
0.105689
0.105009
0.104578
0.103885
0.103423
0.102712
0.102215
0.101484
0.100947
0.100192
0.0996112
0.0988301
0.0982018
0.0973987
0.0967151
0.0958858
0.095141
0.0942827
0.0934806
0.0925701
0.0917304
0.090756
0.0898768
0.088847
0.0879351
0.086851
0.0859047
0.0847661
0.0837819
0.0825978
0.0815822
0.0803654
0.0793098
0.0780781
0.0769998
0.0757586
0.0746728
0.073454
0.0723976
0.0712321
0.0702372
0.0691515
0.0682466
0.0672693
0.066486
0.0656213
0.0649511
0.064203
0.0636277
0.0629987
0.0625273
0.062007
0.0616286
0.0612086
0.0609115
0.0605783
0.0603542
0.0600916
0.0599272
0.0597227
0.0596074
0.0594501
0.0593761
0.0592582
0.0592183
0.0591328
0.0591203
0.0590602
0.0590686
0.0590281
0.0590518
0.0590259
0.0590608
0.0590458
0.0590888
0.059082
0.0591303
0.0591292
0.0591796
0.0591793
0.0592251
0.0592238
0.0592581
0.059333
0.0594368
0.0631336
0.062999
0.0666823
0.0668448
0.0700939
0.0701575
0.0707802
0.0663594
0.0628528
0.062764
0.0659596
0.0667832
0.062956
0.0628663
0.0661519
0.0709182
0.0711239
0.0669606
0.0630764
0.0629677
0.0663002
0.0671185
0.063174
0.0630637
0.0664493
0.0713473
0.0715811
0.0672829
0.0632741
0.063168
0.0666059
0.0674539
0.0633835
0.0632832
0.0667714
0.0718214
0.0720752
0.0676379
0.0635067
0.0634151
0.0669526
0.0678408
0.0636507
0.063572
0.0671574
0.0723494
0.0726588
0.0680727
0.0638248
0.0637648
0.0673956
0.0683445
0.0640411
0.0640071
0.0676803
0.0730091
0.0734102
0.0686697
0.0643141
0.0643136
0.0680239
0.0690576
0.0646591
0.0647006
0.0684395
0.0738704
0.0743954
0.0695218
0.065093
0.0651858
0.0689426
0.0700795
0.0656347
0.0657917
0.0695558
0.074993
0.0756776
0.0707567
0.0663026
0.0665315
0.0703135
0.0715939
0.0671222
0.0674402
0.0712407
0.0766143
0.0777724
0.0726303
0.0681322
0.0685162
0.0723828
0.0739019
0.0693176
0.0698151
0.0737626
0.0792521
0.0809452
0.0754508
0.0707587
0.0713821
0.0754313
0.0772715
0.0724646
0.0731997
0.077355
0.0829136
0.085102
0.0793274
0.0744101
0.0752513
0.0795013
0.0815825
0.0765739
0.0774975
0.081827
0.0875151
0.0900835
0.0839991
0.0789073
0.0798907
0.0842989
0.0865406
0.0813596
0.0823804
0.0868724
0.0927838
0.095535
0.0891608
0.0838795
0.0849124
0.0895087
0.0918207
0.0864138
0.0874437
0.0921666
0.098301
0.101032
0.0944733
0.088935
0.0899454
0.0947972
0.0970743
0.0914087
0.0923814
0.0973498
0.103715
0.106329
0.0995809
0.0937924
0.0946895
0.0997894
0.101975
0.0960286
0.0968495
0.102109
0.10887
0.111286
0.10427
0.09813
0.0989116
0.104342
0.106463
0.100132
0.100872
0.106461
0.113559
0.115681
0.108527
0.10204
0.102706
0.108416
0.110408
0.10383
0.104424
0.110231
0.11764
0.11949
0.112171
0.10552
0.106047
0.111943
0.113842
0.107115
0.10758
0.113555
0.121248
0.122893
0.115412
0.108622
0.109028
0.115065
0.116879
0.110045
0.110398
0.116484
0.124402
0.125789
0.118253
0.111392
0.111697
0.117822
0.119549
0.112671
0.112935
0.119089
0.127088
0.128303
0.120777
0.113891
0.114118
0.120293
0.121944
0.11506
0.115255
0.121441
0.129443
0.130512
0.123055
0.116185
0.116351
0.122542
0.12412
0.117272
0.117415
0.123601
0.131525
0.132487
0.125145
0.118327
0.11845
0.124625
0.126136
0.119357
0.119464
0.125618
0.133405
0.134284
0.127098
0.120367
0.12046
0.126587
0.128035
0.121362
0.121445
0.127537
0.135129
0.135944
0.128953
0.122347
0.122423
0.128471
0.129857
0.123327
0.123399
0.129394
0.136734
0.137501
0.130749
0.124307
0.124377
0.13031
0.131635
0.12529
0.125361
0.131225
0.13825
0.138983
0.132519
0.126284
0.126364
0.132142
0.133405
0.127293
0.127385
0.133067
0.139701
0.140407
0.134298
0.128322
0.128427
0.13401
0.135211
0.129369
0.129487
0.13496
0.141095
0.141777
0.136128
0.130432
0.130564
0.135912
0.13705
0.131515
0.131662
0.136866
0.142452
0.14312
0.137977
0.132618
0.132782
0.137827
0.13891
0.133744
0.133927
0.138797
0.143781
0.144435
0.139848