/*--------------------------------*- C++ -*----------------------------------*\
| =========                 |                                                 |
| \\      /  F ield         | OpenFOAM: The Open Source CFD Toolbox           |
|  \\    /   O peration     | Version:  v2006                                 |
|   \\  /    A nd           | Website:  www.openfoam.com                      |
|    \\/     M anipulation  |                                                 |
\*---------------------------------------------------------------------------*/
FoamFile
{
    version     2.0;
    format      ascii;
    class       volScalarField;
    location    "0.01";
    object      Co;
}
// * * * * * * * * * * * * * * * * * * * * * * * * * * * * * * * * * * * * * //

dimensions      [0 0 0 0 0 0 0];


internalField   nonuniform List<scalar> 
41981
(
0.0149917
0.0141956
0.0154281
0.016142
0.0163145
0.0160291
0.0159108
0.0156067
0.0155522
0.0155437
0.0155038
0.0154972
0.0154912
0.015487
0.0154787
0.0154673
0.0154536
0.0154383
0.0154221
0.0154052
0.0153878
0.0153698
0.0153513
0.0153322
0.0153127
0.0152928
0.0152724
0.0152516
0.0152302
0.0152084
0.0151861
0.0151632
0.0151399
0.0151162
0.0150919
0.0150673
0.0150422
0.0150166
0.0149906
0.0149643
0.0149375
0.0149104
0.0148829
0.014855
0.0148267
0.0147981
0.0147692
0.0147399
0.0147103
0.0146804
0.0146501
0.0146196
0.0145888
0.0145578
0.0145264
0.0144948
0.014463
0.0144309
0.0143986
0.0143661
0.0143334
0.0143005
0.0142674
0.0142341
0.0142007
0.0141671
0.0141334
0.0140995
0.0140655
0.0140314
0.0139972
0.0139629
0.0139285
0.013894
0.0138595
0.0138249
0.0137903
0.0137556
0.0137208
0.0136861
0.0136513
0.0136165
0.0135818
0.013547
0.0135122
0.0134775
0.0134428
0.0134082
0.0133736
0.0133391
0.0133046
0.0132702
0.0132359
0.0132017
0.0131676
0.0131336
0.0130998
0.013066
0.0130324
0.012999
0.0129657
0.0129326
0.0128997
0.012867
0.0128345
0.0128022
0.0127701
0.0127383
0.0127067
0.0126754
0.0126444
0.0126136
0.0125832
0.0125531
0.0125233
0.0124938
0.0124647
0.012436
0.0124076
0.0123797
0.0123521
0.012325
0.0122983
0.012272
0.0122462
0.0122209
0.012196
0.0121716
0.0121477
0.0121242
0.0121013
0.012079
0.0120572
0.0120359
0.0120152
0.011995
0.0119752
0.0119554
0.0119357
0.0119158
0.0118962
0.011878
0.0118629
0.0118526
0.011848
0.0118546
0.0118784
0.0119772
0.0121217
0.0125029
0.0131631
0.0146953
0.0182507
0.0259949
0.0394149
0.0318308
0.0293065
0.0281331
0.0279031
0.0268875
0.0252326
0.0227385
0.0254073
0.0271992
0.0247413
0.0242433
0.0223426
0.018283
0.0199556
0.020406
0.0200316
0.0197855
0.0180915
0.0163611
0.0180749
0.0183985
0.0189874
0.0184844
0.0163518
0.015711
0.0177339
0.0181958
0.0186543
0.0180298
0.0157618
0.0154768
0.0177132
0.0182012
0.0186107
0.0179044
0.0153128
0.0151348
0.0176075
0.0181804
0.0185285
0.0177431
0.0149768
0.0148181
0.0174613
0.0181161
0.0184349
0.0175808
0.0146778
0.0145356
0.0173151
0.0180426
0.0183391
0.0174243
0.0144108
0.0142813
0.0171728
0.0179648
0.0182439
0.0172744
0.0141682
0.0140481
0.0170343
0.0178841
0.0181497
0.0171301
0.0139436
0.0138307
0.0168993
0.017802
0.0180572
0.0169909
0.0137329
0.0136248
0.0167668
0.0177185
0.0179658
0.0168555
0.0135321
0.0134279
0.0166369
0.0176347
0.0178753
0.016723
0.0133395
0.0132385
0.0165093
0.017551
0.0177852
0.016593
0.0131542
0.0130565
0.0163841
0.0174676
0.0176953
0.0164652
0.0129762
0.0128818
0.0162612
0.0173846
0.0176056
0.0163396
0.0128057
0.0127148
0.0161407
0.0173017
0.017516
0.0162165
0.012643
0.0125556
0.0160225
0.0172187
0.0174269
0.0160959
0.0124878
0.0124036
0.0159063
0.0171354
0.017338
0.0159776
0.0123395
0.0122582
0.0157919
0.0170515
0.0172494
0.0158615
0.0121973
0.0121185
0.0156792
0.016967
0.017161
0.0157472
0.0120605
0.0119839
0.0155677
0.0168819
0.0170726
0.0156345
0.0119283
0.0118534
0.0154572
0.0167962
0.0169842
0.0155232
0.0118
0.0117265
0.0153476
0.0167097
0.0168957
0.0154129
0.0116749
0.0116026
0.0152387
0.0166224
0.0168069
0.0153034
0.0115526
0.0114812
0.0151301
0.0165343
0.0167178
0.0151946
0.0114324
0.0113618
0.0150218
0.0164454
0.0166282
0.0150861
0.0113141
0.011244
0.0149136
0.0163556
0.0165381
0.0149779
0.0111972
0.0111275
0.0148055
0.0162651
0.0164474
0.0148697
0.0110815
0.0110122
0.0146972
0.0161736
0.0163559
0.0147614
0.0109669
0.0108978
0.0145887
0.0160812
0.0162636
0.014653
0.0108532
0.0107844
0.01448
0.0159877
0.0161704
0.0145444
0.0107404
0.0106718
0.0143708
0.0158929
0.0160762
0.0144355
0.0106283
0.0105597
0.014261
0.0157967
0.0159809
0.0143261
0.0105165
0.0104477
0.0141506
0.0156992
0.0158845
0.0142161
0.0104045
0.0103353
0.0140398
0.0156007
0.0157869
0.0141058
0.0102922
0.0102226
0.0139288
0.0155014
0.0156881
0.0139951
0.0101797
0.01011
0.0138174
0.0154009
0.0155882
0.0138839
0.0100674
0.00999771
0.0137053
0.0152988
0.0154871
0.0137721
0.00995526
0.00988533
0.0135924
0.0151953
0.0153846
0.0136595
0.00984291
0.00977271
0.0134787
0.0150903
0.0152805
0.013546
0.00973035
0.00965996
0.0133643
0.0149839
0.0151749
0.0134318
0.0096177
0.00954715
0.0132488
0.0148755
0.0150676
0.0133165
0.00950494
0.00943422
0.013132
0.0147649
0.0149584
0.0131998
0.00939208
0.00932111
0.0130134
0.0146518
0.014847
0.0130815
0.00927892
0.00920757
0.0128929
0.014536
0.0147333
0.0129614
0.00916518
0.00909329
0.0127702
0.0144174
0.014617
0.0128392
0.00905053
0.00897795
0.0126452
0.0142958
0.0144981
0.0127148
0.00893466
0.00886122
0.0125174
0.0141708
0.0143763
0.0125877
0.00881723
0.00874274
0.0123867
0.0140422
0.0142514
0.0124579
0.00869786
0.00862216
0.0122528
0.0139098
0.014123
0.0123248
0.00857621
0.00849911
0.0121151
0.0137731
0.0139909
0.0121883
0.00845192
0.00837325
0.0119735
0.013632
0.0138548
0.0120479
0.00832467
0.0082443
0.0118276
0.013486
0.0137142
0.0119032
0.00819421
0.00811202
0.011677
0.0133348
0.0135687
0.0117538
0.00806031
0.00797617
0.0115212
0.0131779
0.013418
0.0115995
0.00792275
0.00783655
0.0113601
0.013015
0.0132618
0.0114399
0.00778131
0.00769285
0.0111932
0.0128459
0.0130996
0.0112746
0.00763575
0.00754491
0.01102
0.0126775
0.0129313
0.0111031
0.00748535
0.00739201
0.0108402
0.0125048
0.0127569
0.0109252
0.00732981
0.00723372
0.0106535
0.0123253
0.0125758
0.0107405
0.00716869
0.00706957
0.0104591
0.0121385
0.0123875
0.0105484
0.00700141
0.00689889
0.0102562
0.0119436
0.0121916
0.0103485
0.00682702
0.00672042
0.0100441
0.0117402
0.0119872
0.0101397
0.00664438
0.00653325
0.00982194
0.0115276
0.0117736
0.00992095
0.00645265
0.00633676
0.00958913
0.0113049
0.0115491
0.00969159
0.00625153
0.00613088
0.00935721
0.0110802
0.0113133
0.00945232
0.00604107
0.0059154
0.00911664
0.0108457
0.0110656
0.00920177
0.00582065
0.00568943
0.00886438
0.0105995
0.0108055
0.00893888
0.00558908
0.00545127
0.00859941
0.0103409
0.0105322
0.0086622
0.00534433
0.00519929
0.00832009
0.0100688
0.0102444
0.00837026
0.00508534
0.00493274
0.00802513
0.009782
0.00994085
0.00806172
0.00481146
0.00465086
0.00771321
0.00947926
0.00962041
0.00773559
0.00452153
0.00435137
0.00738356
0.00915924
0.00928113
0.00739055
0.00421178
0.00403013
0.00703348
0.0088193
0.00892013
0.00702306
0.00388001
0.0036876
0.00666017
0.00845717
0.00853561
0.00663116
0.00352739
0.00332392
0.00626167
0.00807105
0.00812527
0.00621222
0.00315294
0.0029377
0.00583483
0.00765806
0.00768565
0.00576268
0.00275546
0.00252848
0.00537608
0.00721417
0.00721204
0.00527903
0.00233544
0.00209812
0.00488301
0.00673528
0.00670041
0.00475868
0.00189562
0.00165124
0.00435176
0.00621511
0.00614359
0.004198
0.00144539
0.00120558
0.00378241
0.00564759
0.00553809
0.00360211
0.0010108
0.000794249
0.00319006
0.0050375
0.00489551
0.0029946
0.000624095
0.000440413
0.00259875
0.00439778
0.0042292
0.0023979
0.00030172
0.00015957
0.0020373
0.00374745
0.00356488
0.00184735
0.000100969
0.000119194
0.00153312
0.00311219
0.00293607
0.00137518
0.000195139
0.000235733
0.00110728
0.00252212
0.00236852
0.000987954
0.000289479
0.000303547
0.00076232
0.00200336
0.00188007
0.000671001
0.000343689
0.000348657
0.000470158
0.00155087
0.00143317
0.000377608
0.00037215
0.000377158
0.000199515
0.00112272
0.00100966
0.000147223
0.000374743
0.000379707
0.000132402
0.000711745
0.000616008
0.000241464
0.000342244
0.000347206
0.000297483
0.000345527
0.000257994
0.000336462
0.000287397
0.000274513
0.000417985
0.000118649
5.96964e-05
0.000337681
0.000188034
0.000162704
0.000386371
0.000192526
0.000100913
0.000245782
7.96642e-05
0.00011061
0.00026221
0.000333967
0.000346744
0.000217107
0.000167804
0.000280924
0.000356646
0.000472685
0.000422532
0.000378687
0.000344109
0.000408538
0.000435896
0.000450892
0.000347734
0.000371817
0.000418237
0.000446222
0.00038486
0.000333488
0.000361427
0.000366848
0.00044038
0.000424434
0.000285849
0.00025084
0.000276275
0.000284832
0.000418517
0.000374899
0.000180492
0.000156382
0.000159945
0.000173329
0.000365588
0.000312518
7.01838e-05
6.92098e-05
0.000130352
8.68825e-05
0.000301082
0.000246531
4.62773e-05
9.22989e-05
0.000163618
0.000118463
0.000239229
0.000194782
9.34019e-05
0.00012236
0.00014993
0.000134202
0.000188024
0.000157076
0.0001211
0.00014962
9.1656e-05
0.000103421
0.000150108
0.000139307
0.000107258
0.000133793
7.13197e-05
5.3387e-05
0.000132201
0.000151281
8.89353e-05
0.000152713
0.000201934
0.000113427
0.000159999
0.000195658
0.000221016
0.000337004
0.000412765
0.000290501
0.000221746
0.000273112
0.000429228
0.000585838
0.000674502
0.000519861
0.000317195
0.00038727
0.000687805
0.000878085
0.000959468
0.000780644
0.000444252
0.000526016
0.00096589
0.00118795
0.00126628
0.00105898
0.000588897
0.000677617
0.00126072
0.00151677
0.00159275
0.00135496
0.000745774
0.000839492
0.00156889
0.00186022
0.00193541
0.00166419
0.000912453
0.00100856
0.00188556
0.002214
0.00228572
0.00197894
0.0010837
0.00117885
0.00220322
0.00257041
0.00263566
0.00229116
0.00125313
0.00134436
0.00251442
0.00292279
0.00297898
0.00259372
0.00141527
0.0015004
0.00281281
0.00326589
0.00331051
0.00288058
0.00156593
0.00164341
0.00309292
0.00359505
0.00362605
0.00314685
0.00170219
0.00177119
0.00335046
0.00390644
0.00392226
0.00338889
0.00182243
0.00188268
0.00358239
0.00419707
0.00419651
0.00360424
0.00192601
0.00197766
0.00378684
0.00446454
0.00444682
0.00379179
0.00201316
0.00205668
0.00396314
0.00470693
0.00467187
0.00395167
0.00208476
0.0021207
0.00411177
0.00492278
0.00487008
0.00408466
0.00214173
0.00217093
0.00423504
0.00511159
0.00504333
0.00419698
0.00218566
0.00220883
0.00433575
0.00527156
0.00520014
0.00430283
0.00221767
0.00223549
0.00441405
0.00540181
0.0053279
0.00438573
0.00223916
0.00225248
0.00447157
0.00550516
0.00542888
0.00444715
0.00225197
0.00226165
0.00451106
0.00558501
0.00552402
0.00448983
0.00225795
0.00226486
0.00453533
0.00564377
0.00559881
0.00451657
0.00225863
0.00226353
0.00454674
0.00568316
0.0056512
0.00453086
0.00225652
0.00225857
0.00454801
0.00570555
0.00568356
0.00453509
0.00225171
0.0022509
0.0045421
0.00571354
0.00569873
0.00453148
0.00224419
0.00224113
0.00453142
0.00570947
0.00569985
0.00452292
0.00223459
0.00222907
0.00451752
0.00569588
0.00569055
0.00451148
0.00222269
0.00221426
0.00450116
0.00567593
0.00567504
0.00449778
0.00220807
0.00219691
0.00448197
0.00565276
0.00565699
0.00448087
0.00219091
0.00217768
0.0044588
0.00562709
0.00563709
0.00445969
0.00217189
0.00215646
0.00443056
0.00559804
0.00561415
0.00443372
0.00215088
0.00213387
0.00439844
0.00556625
0.00558762
0.00440316
0.00212779
0.00211
0.00436356
0.00553259
0.00555764
0.00436887
0.00210327
0.00208526
0.00432645
0.00549704
0.00552431
0.004332
0.00207838
0.0020606
0.00428819
0.00545957
0.00548769
0.00429372
0.00205396
0.00203676
0.00424994
0.00542024
0.00544797
0.00425526
0.00203066
0.00201423
0.00421279
0.00537951
0.00540573
0.00421774
0.00200892
0.00199345
0.00417755
0.00533807
0.00536225
0.00418207
0.001989
0.00197504
0.00414503
0.00529691
0.0053187
0.00414863
0.00197108
0.00195906
0.00411506
0.00525682
0.00527636
0.00411771
0.00195534
0.00194479
0.00408733
0.00521852
0.005236
0.00408937
0.00194133
0.00193199
0.0040621
0.00518275
0.00519821
0.00406367
0.0019288
0.00192058
0.00403948
0.00515014
0.00516361
0.00404064
0.00191766
0.00191052
0.0040195
0.00512105
0.00513256
0.00402027
0.00190788
0.00190185
0.00400218
0.00509562
0.00510511
0.0040025
0.00189951
0.00189475
0.00398765
0.00507394
0.00508102
0.00398727
0.0018927
0.00188975
0.00397671
0.00505664
0.00505932
0.00397423
0.00188801
0.00188762
0.00396475
0.00503627
0.00500292
0.00393255
0.00188069
0.0019102
0.0039382
0.0050026
0.00485891
0.00380028
0.00184687
0.00191657
0.00392491
0.00499029
0.00476878
0.00375525
0.00184372
0.0021313
0.00422202
0.00528938
0.0050178
0.00394816
0.00199737
0.00238484
0.00453092
0.00547652
0.0057095
0.00450134
0.00227759
0.00252189
0.00486287
0.00598247
0.00658658
0.0066148
0.00647093
0.0064569
0.00610947
0.00602513
0.00591488
0.00585496
0.00580677
0.00580201
0.00581292
0.00582317
0.00586768
0.00588972
0.00595756
0.00598308
0.0060627
0.00609496
0.00618145
0.00621254
0.00628429
0.00630769
0.00634315
0.00634588
0.00630528
0.00627161
0.00609686
0.00600643
0.00566139
0.00550539
0.00496266
0.00473555
0.00404026
0.00381239
0.0033369
0.00330232
0.00332347
0.0036679
0.00456941
0.00667552
0.0100656
0.00779453
0.00677111
0.00684003
0.00676751
0.00559967
0.00418466
0.00193996
0.00176276
0.00392864
0.0054394
0.00513064
0.00387385
0.00183133
0.00150028
0.0033204
0.00449044
0.0045939
0.00345603
0.00161097
0.00147411
0.00326446
0.00448007
0.00461846
0.00342389
0.00158975
0.00153124
0.00336375
0.00457547
0.00470581
0.00349398
0.00157503
0.00156695
0.00345042
0.00469746
0.00471512
0.00346389
0.00158088
0.00158569
0.00348095
0.00474018
0.0047467
0.00348486
0.0015874
0.00158864
0.00348769
0.004751
0.0047578
0.00349219
0.00159054
0.00159194
0.00349508
0.0047621
0.00476776
0.00349885
0.00159356
0.0015948
0.0035015
0.00477165
0.00477808
0.0035057
0.00159653
0.00159793
0.00350845
0.00478209
0.00478768
0.00351215
0.00159951
0.00160106
0.003515
0.00479151
0.004798
0.00351908
0.00160262
0.00160432
0.00352208
0.00480206
0.00480779
0.00352578
0.00160586
0.0016077
0.00352889
0.00481174
0.00481844
0.00353305
0.00160929
0.00161128
0.00353635
0.00482268
0.00482871
0.00354028
0.00161298
0.00161504
0.00354366
0.00483291
0.00483997
0.00354805
0.00161674
0.00161902
0.0035517
0.00484452
0.00485097
0.00355597
0.00162093
0.00162323
0.00355968
0.00485552
0.00486304
0.00356442
0.00162513
0.00162769
0.00356848
0.004868
0.00487494
0.00357315
0.00162986
0.00163243
0.00357727
0.00487994
0.00488797
0.00358243
0.00163457
0.00163742
0.00358693
0.00489342
0.00490093
0.00359206
0.00163985
0.00164271
0.00359663
0.00490644
0.00491508
0.00360227
0.00164514
0.00164827
0.00360724
0.00492111
0.00492929
0.00361289
0.00165099
0.00165415
0.00361798
0.00493542
0.00494479
0.00362419
0.0016569
0.00166032
0.0036297
0.00495153
0.00496053
0.00363594
0.00166334
0.00166683
0.00364163
0.00496745
0.00497771
0.00364853
0.00166997
0.00167365
0.00365465
0.00498533
0.00499535
0.00366162
0.00167704
0.00168086
0.00366799
0.00500321
0.00501454
0.00367572
0.00168445
0.0016884
0.00368251
0.00502319
0.00503437
0.00369038
0.00169229
0.00169636
0.00369744
0.00504332
0.00505586
0.00370613
0.00170049
0.00170469
0.00371363
0.00506569
0.00507816
0.00372253
0.00170914
0.00171346
0.00373034
0.00508833
0.00510221
0.00374008
0.00171817
0.00172264
0.00374838
0.00511332
0.00512721
0.00375839
0.00172769
0.00173225
0.00376698
0.00513868
0.005154
0.00377789
0.00173762
0.00174253
0.00378716
0.00516646
0.00518186
0.00379822
0.00174805
0.001753
0.00380775
0.0051947
0.00521154
0.00381978
0.00175891
0.00176428
0.00383008
0.00522541
0.00524239
0.00384225
0.00177031
0.00177572
0.00385281
0.00525665
0.00527508
0.00386597
0.00178215
0.00178799
0.00387732
0.00529041
0.00530906
0.00389067
0.00179455
0.00180044
0.00390229
0.00532478
0.00534489
0.00391662
0.00180739
0.00181373
0.00392909
0.00536177
0.00538219
0.00394368
0.00182084
0.00182724
0.00395644
0.0053995
0.00542139
0.00397202
0.00183473
0.00184161
0.00398568
0.00543993
0.00546226
0.0040016
0.0018493
0.00185624
0.00401555
0.00548125
0.00550512
0.00403252
0.00186434
0.00187176
0.00404741
0.00552544
0.00554972
0.0040647
0.00188004
0.00188756
0.00407996
0.00557064
0.00559629
0.00409818
0.00189617
0.0019042
0.00411451
0.00561876
0.00564492
0.0041331
0.00191302
0.00192113
0.00414981
0.00566801
0.00569557
0.00416933
0.00193029
0.00193891
0.00418711
0.00572026
0.00574844
0.00420706
0.0019483
0.00195699
0.00422519
0.00577373
0.00580332
0.00424603
0.00196668
0.00197585
0.00426521
0.00583021
0.00586045
0.00428646
0.00198574
0.00199493
0.0043059
0.00588787
0.00591943
0.00432794
0.00200504
0.00201467
0.00434839
0.00594843
0.00598058
0.00437078
0.00202494
0.00203449
0.00439134
0.00600992
0.00604326
0.0044144
0.00204491
0.00205487
0.00443595
0.00607421
0.00610822
0.00445936
0.00206546
0.00207532
0.00448094
0.00613943
0.00617444
0.00450491
0.00208599
0.00209621
0.00452738
0.00620704
0.00624223
0.00455148
0.00210699
0.00211692
0.00457351
0.00627413
0.00630898
0.00459744
0.00212749
0.00213744
0.00461947
0.0063407
0.00637381
0.00464241
0.00214768
0.00215679
0.00466251
0.00640248
0.0064327
0.00468364
0.00216619
0.00217474
0.00470213
0.0064588
0.00648534
0.0047207
0.00218327
0.00219041
0.00473576
0.00650713
0.00653041
0.00475121
0.00219755
0.00220459
0.00476454
0.00655002
0.0065701
0.00477697
0.00221064
0.00221653
0.00478705
0.00658585
0.00660319
0.00479662
0.00222085
0.00222492
0.00480693
0.00661967
0.00663615
0.00481525
0.00222798
0.00223069
0.00482401
0.00665254
0.006671
0.00483053
0.0022319
0.0022327
0.00483741
0.00669255
0.00671886
0.00484472
0.00223299
0.00223327
0.00485592
0.00675201
0.00679877
0.00487699
0.00223319
0.00223388
0.00490707
0.00685922
0.00693646
0.00495011
0.00223867
0.00225777
0.00501559
0.00703424
0.00715717
0.00511623
0.00230263
0.00235831
0.00524494
0.00729618
0.00744143
0.0053487
0.00241929
0.00244253
0.0054225
0.00759796
0.00767732
0.00553523
0.00247069
0.0025094
0.00567231
0.00787389
0.00810857
0.00588281
0.00263299
0.00266769
0.00599921
0.00821895
0.00844078
0.00619195
0.00277864
0.00287708
0.00643279
0.008722
0.00889204
0.00669426
0.00304229
0.00318527
0.00694593
0.00920959
0.00947943
0.00729387
0.00343559
0.0036967
0.00768562
0.009899
0.0103357
0.00819485
0.00413445
0.00462579
0.0087204
0.0107114
0.0109453
0.00921699
0.00523614
0.00550962
0.00872192
0.00976273
0.0290263
0.0184129
0.0079837
0.0033001
0.00857972
0.0151483
0.0107067
0.00741544
0.003161
0.00290659
0.00681675
0.0097145
0.0104975
0.00724193
0.00300707
0.00304211
0.00731063
0.0104502
0.0112027
0.00788147
0.0032355
0.00336366
0.00819795
0.0113691
0.0122829
0.00897138
0.00384616
0.00415114
0.00936467
0.0125151
0.0133222
0.0103185
0.00479564
0.00551455
0.0110938
0.0139794
0.0145275
0.0118708
0.00631595
0.00738201
0.0126722
0.0148961
0.0135961
0.012447
0.00804048
0.0113185
0.025004
0.0375499
0.0229444
0.0142126
0.00557095
0.00547292
0.0125664
0.0168522
0.0155755
0.0121276
0.00562052
0.00606025
0.0124903
0.0155444
0.0156273
0.0128133
0.00645006
0.00710927
0.0132271
0.0157794
0.016097
0.0138667
0.00796449
0.00847112
0.0141823
0.0163829
0.0163339
0.0147078
0.00952391
0.0096699
0.0136068
0.0139556
0.041481
0.02858
0.0138557
0.00754742
0.01723
0.0261114
0.0180409
0.0147097
0.00727063
0.00712905
0.0135991
0.016072
0.0167178
0.0144413
0.00808518
0.00857367
0.0146336
0.0165511
0.0169988
0.0149649
0.0091972
0.0100889
0.0153553
0.0167407
0.0147992
0.0144311
0.0104079
0.0145858
0.0292796
0.0416135
0.0277878
0.0188923
0.00901001
0.00924684
0.0164413
0.0194446
0.0173294
0.0151653
0.00917492
0.0101387
0.0156275
0.0171586
0.0165526
0.0150872
0.0102039
0.010967
0.0152809
0.0162247
0.0135132
0.0138115
0.0107041
0.015421
0.0291723
0.0407861
0.0269694
0.0189426
0.00989838
0.0098468
0.0163019
0.0187561
0.0157942
0.0145159
0.00959208
0.0102273
0.0143013
0.0149579
0.0127568
0.0130712
0.01018
0.0140407
0.0265886
0.0371163
0.0251345
0.0177636
0.009373
0.00920485
0.014906
0.0170929
0.0150878
0.0138784
0.0093605
0.00940712
0.0132096
0.0141764
0.0135683
0.0129944
0.00970899
0.00947413
0.0112664
0.0106012
0.0328383
0.0240737
0.0131393
0.00884898
0.0159027
0.0217768
0.0142062
0.0128075
0.00854142
0.00857928
0.0116105
0.0119651
0.00966115
0.0101557
0.00839236
0.0113704
0.0203423
0.0276259
0.0190986
0.0141459
0.00820159
0.00808502
0.011526
0.0125244
0.0100927
0.00976221
0.00760217
0.00707256
0.00778348
0.00692521
0.0222309
0.0165822
0.00963466
0.00643195
0.0103197
0.0135332
0.00755532
0.00735645
0.00569763
0.00470666
0.00530311
0.00518849
0.0143383
0.0108673
0.00637841
0.00363431
0.00556399
0.00714627
0.0037822
0.00345344
0.00267618
0.00217099
0.00279311
0.00336677
0.0039242
0.00311045
0.00200587
0.00162924
0.00291103
0.00385535
0.00586149
0.00453774
0.00271449
0.00341815
0.00536421
0.00685273
0.0154664
0.0120289
0.00705702
0.00896863
0.0121609
0.0137025
0.0200062
0.0160976
0.0111603
0.0169178
0.0266377
0.0342925
0.0290115
0.0270037
0.0212403
0.0244472
0.0317083
0.0361585
0.0603693
0.0503287
0.0357812
0.0358044
0.0435447
0.048266
0.0915667
0.0763687
0.0540942
0.0460165
0.0406985
0.0343751
0.0509041
0.0528763
0.0530287
0.0616747
0.0649725
0.0639585
0.0795408
0.0783345
0.0716631
0.0725587
0.0807891
0.085333
0.0782619
0.0808896
0.0736466
0.0936114
0.13297
0.159973
0.130635
0.110045
0.0801298
0.0846848
0.11984
0.144271
0.130369
0.110305
0.0793294
0.0775814
0.109871
0.133044
0.125132
0.101269
0.0713575
0.068475
0.0993323
0.122391
0.122871
0.097821
0.0671619
0.062689
0.0900817
0.109843
0.121674
0.0988485
0.0671339
0.0569802
0.0710741
0.0759064
0.118432
0.0894
0.0593179
0.0605269
0.0945581
0.125336
0.0676546
0.063012
0.050363
0.0547252
0.0845179
0.113392
0.117947
0.0879274
0.0556006
0.0503381
0.0729662
0.0901121
0.108368
0.0844212
0.054823
0.0455144
0.0575567
0.0625243
0.0987299
0.0747177
0.0481347
0.0511635
0.0838405
0.11284
0.0584624
0.0543593
0.0424688
0.0460371
0.0710772
0.093711
0.107274
0.0804961
0.0491655
0.0395892
0.0503032
0.0547394
0.0895618
0.0673307
0.0429072
0.0472755
0.0779023
0.105152
0.0537179
0.0496357
0.0386677
0.0412093
0.0650149
0.0871926
0.101868
0.0752848
0.0451811
0.0368691
0.0474256
0.0512563
0.0836059
0.06243
0.0396346
0.0438125
0.0734396
0.0995861
0.0501722
0.0461596
0.0358092
0.0380014
0.0601132
0.0801462
0.0967041
0.0718891
0.0427166
0.032942
0.0403947
0.0419873
0.0550414
0.0472479
0.0339809
0.0353795
0.057837
0.0798478
0.0949959
0.0685151
0.0395924
0.0315062
0.0417015
0.0453083
0.0765522
0.056208
0.0344353
0.0391402
0.0668537
0.0928007
0.0457362
0.0418516
0.0316171
0.034054
0.0558401
0.0766365
0.0925881
0.0672863
0.0389491
0.0316985
0.042119
0.0460327
0.0756665
0.0551433
0.0340246
0.0389981
0.0664407
0.0906498
0.0449108
0.041198
0.0312415
0.0340638
0.0553456
0.0750713
0.0902743
0.0659165
0.0386059
0.031277
0.0412918
0.0448261
0.0742084
0.0547715
0.0340256
0.0385366
0.0657573
0.0899609
0.0446327
0.0409856
0.0312209
0.0339096
0.0548236
0.0739327
0.0882097
0.0648458
0.0382839
0.0309063
0.0408267
0.0443615
0.0733388
0.0536554
0.0333353
0.0382633
0.0651267
0.0888332
0.0439916
0.0408041
0.0314416
0.0331844
0.0539748
0.0733702
0.0872715
0.0647448
0.0378457
0.0310994
0.0410466
0.0444341
0.0724426
0.0535581
0.0332252
0.0379159
0.064566
0.0877962
0.0440022
0.0406062
0.0310044
0.033249
0.053865
0.0730428
0.0875909
0.0645872
0.0380427
0.0311117
0.0407532
0.0441664
0.0726856
0.0542252
0.0336462
0.0378197
0.0648171
0.0873838
0.0442347
0.0406568
0.0307682
0.0333637
0.0538012
0.0722215
0.0876444
0.0645961
0.0380715
0.0313317
0.0409505
0.044506
0.0734161
0.0543314
0.0339698
0.038372
0.0646927
0.0880599
0.0440631
0.0404118
0.0309719
0.0340606
0.0547259
0.0737068
0.0873324
0.0641516
0.0380554
0.0311627
0.040931
0.0443702
0.0727917
0.0541693
0.0334939
0.0381827
0.0654572
0.0880746
0.0440785
0.040801
0.0310741
0.0340129
0.0549352
0.0743515
0.0886582
0.065208
0.0383373
0.0319037
0.0415136
0.0445482
0.0752316
0.0555561
0.034022
0.0388888
0.0661315
0.0889996
0.0450627
0.0417785
0.0318201
0.0346023
0.0566793
0.0782373
0.0875487
0.0642828
0.0381494
0.0349306
0.0522276
0.0651893
0.0821072
0.0635584
0.0395557
0.0336137
0.043393
0.0467522
0.0762861
0.0562651
0.0353896
0.0395775
0.0664579
0.0892936
0.0461721
0.042824
0.0330173
0.0355067
0.0560211
0.0761336
0.0895609
0.0658857
0.0398946
0.0325804
0.0420808
0.0452666
0.0765837
0.0568031
0.0353498
0.04021
0.0671415
0.0903986
0.0461482
0.0428436
0.0329619
0.0367364
0.0595494
0.0805348
0.0899188
0.0668878
0.0400726
0.0360815
0.0539773
0.0667601
0.0838442
0.0652505
0.0408333
0.0343485
0.044798
0.0482959
0.0787205
0.05867
0.0372989
0.0408483
0.0680243
0.0915673
0.0474311
0.0441086
0.0344341
0.0372369
0.0594418
0.0801337
0.0936188
0.0700548
0.0420802
0.0348988
0.0453156
0.048529
0.0826148
0.0609192
0.0376536
0.0410295
0.0689212
0.0919346
0.0694265
0.0564487
0.037852
0.042523
0.0675316
0.0862235
0.0500367
0.0466193
0.0362751
0.0388896
0.0609255
0.082038
0.0942643
0.0705452
0.0431253
0.0357921
0.0456118
0.0489888
0.0850138
0.0626993
0.0389885
0.0423944
0.0701927
0.0940053
0.0700733
0.0573965
0.0387185
0.0432812
0.0684364
0.0874767
0.0508456
0.0472393
0.0370473
0.0403042
0.0629511
0.0840806
0.0970166
0.0725072
0.044698
0.0367646
0.0475461
0.0509509
0.0871052
0.0647759
0.0404673
0.0429452
0.0714462
0.0957072
0.0718256
0.0589299
0.039503
0.0442318
0.0699915
0.0894961
0.0524966
0.0490002
0.0380886
0.0420249
0.0664221
0.089164
0.0970995
0.0738636
0.0454897
0.0416465
0.0605842
0.0739195
0.0908713
0.0710955
0.0455618
0.0393708
0.0503446
0.0543025
0.0907835
0.0676302
0.0428045
0.045559
0.0735812
0.0981401
0.0752162
0.0608508
0.0417854
0.0461168
0.0716368
0.0912797
0.0543035
0.050556
0.0395634
0.0433299
0.0664943
0.0890682
0.100838
0.076095
0.0473126
0.0394764
0.0501338
0.0531489
0.0918696
0.0688367
0.0432087
0.0461793
0.076141
0.100476
0.0764016
0.0621803
0.0424091
0.0467759
0.0730687
0.0935465
0.0550869
0.0513251
0.0401935
0.0441628
0.0697195
0.0943503
0.100352
0.0757266
0.0469859
0.043155
0.0637236
0.0782482
0.0940499
0.0734481
0.0470352
0.0407092
0.0523312
0.0562064
0.0951062
0.0700919
0.0450781
0.04785
0.0764564
0.103854
0.078752
0.0642464
0.0439064
0.0487249
0.075304
0.0960059
0.0574175
0.0531687
0.0421613
0.0459879
0.0729401
0.098079
0.105406
0.0792973
0.0489904
0.045209
0.0663304
0.0816089
0.0977877
0.0765903
0.0497573
0.0428329
0.054318
0.0582653
0.0981124
0.0732011
0.0464533
0.0486118
0.0787468
0.104357
0.0819508
0.0664574
0.0452504
0.0502405
0.0780311
0.0979011
0.0590453
0.0548579
0.0432521
0.047969
0.075678
0.100385
0.106369
0.0816251
0.0506912
0.0476964
0.0707195
0.086506
0.0983802
0.0786082
0.0513754
0.0485225
0.069789
0.0841472
0.0992598
0.079493
0.0525315
0.0460736
0.0580097
0.0618655
0.102384
0.0770328
0.0498041
0.0525219
0.0831875
0.109436
0.0851268
0.0703231
0.0491106
0.0529055
0.0807019
0.101578
0.0620339
0.0574922
0.0455566
0.0499072
0.0773176
0.103355
0.108909
0.0835024
0.0528047
0.0497985
0.0731138
0.0895255
0.10111
0.0800749
0.0527772
0.049862
0.0722901
0.0880761
0.102866
0.0819749
0.0538668
0.0473236
0.0592469
0.0636774
0.106763
0.0798065
0.0512822
0.0532995
0.0850725
0.112999
0.0881643
0.0716355
0.049685
0.0550429
0.0835024
0.105939
0.0635951
0.0596277
0.0477546
0.0516847
0.08021
0.108725
0.113373
0.085913
0.0543193
0.0515902
0.0752385
0.092961
0.105217
0.0830181
0.0550017
0.0519668
0.0742381
0.0908849
0.104929
0.0846065
0.0567132
0.0496017
0.0622838
0.0668635
0.110538
0.0826016
0.0540139
0.0565998
0.088767
0.116615
0.0916699
0.0757568
0.053295
0.0575291
0.0864177
0.109082
0.0661101
0.0621705
0.0499762
0.0538932
0.0837214
0.113081
0.117475
0.0895849
0.0564111
0.0538242
0.0783076
0.0964068
0.107811
0.0861257
0.0572413
0.0538953
0.0770468
0.0940191
0.108506
0.0854698
0.0570468
0.0499795
0.063016
0.0674904
0.114737
0.0860252
0.0557647
0.0575774
0.0911782
0.120315
0.0981774
0.0789683
0.0539272
0.0568401
0.0866746
0.109742
0.0963019
0.0783822
0.054504
0.0591993
0.0889186
0.110609
0.0693382
0.0646056
0.0519144
0.0568597
0.0886577
0.117844
0.12204
0.0935094
0.0588355
0.0556263
0.081231
0.101755
0.112589
0.0885177
0.059164
0.0569949
0.0828993
0.101717
0.111504
0.0889577
0.0597784
0.0566383
0.0808897
0.0988381
0.113412
0.0910608
0.061659
0.053572
0.0669129
0.0724327
0.119352
0.089994
0.0589043
0.0610329
0.094236
0.122166
0.102861
0.0835683
0.0585585
0.0613512
0.0910139
0.114927
0.100482
0.0821465
0.0580796
0.0628146
0.0931327
0.115334
0.0735056
0.0684893
0.0549698
0.0613137
0.0927069
0.12281
0.12691
0.0970421
0.0632725
0.0592906
0.0860416
0.104931
0.116828
0.092738
0.0618922
0.0588637
0.0843797
0.102382
0.116708
0.0949079
0.0638409
0.0562771
0.0703853
0.0751455
0.124474
0.094993
0.062165
0.0633824
0.098326
0.12869
0.10646
0.0869305
0.0601669
0.063327
0.0937338
0.117486
0.108138
0.0876725
0.0610752
0.0647755
0.0950304
0.11859
0.104888
0.0857765
0.0607332
0.0663856
0.0967884
0.11951
0.0765361
0.0714096
0.0579712
0.0635765
0.0973433
0.129436
0.131555
0.10165
0.0652661
0.0625639
0.0905003
0.110994
0.121147
0.0968607
0.0656078
0.0632036
0.0909892
0.111637
0.120517
0.0974893
0.0661558
0.0630241
0.0880617
0.107441
0.12333
0.0993019
0.0680853
0.0599033
0.0738091
0.0795239
0.130946
0.0983551
0.0654811
0.0672478
0.102795
0.134122
0.112199
0.0913874
0.0631711
0.0664668
0.0991345
0.122635
0.109424
0.0901924
0.0642501
0.0691734
0.100998
0.125415
0.079209
0.0743385
0.0603985
0.0665592
0.100826
0.134052
0.138261
0.105532
0.0689233
0.0655183
0.0942016
0.115599
0.125657
0.101102
0.0683707
0.0656146
0.0947258
0.116172
0.124846
0.101577
0.0692642
0.0662174
0.0952913
0.116786
0.125989
0.103131
0.0704283
0.0661607
0.0931097
0.113265
0.128723
0.10386
0.0713153
0.0630914
0.0777609
0.0833644
0.138015
0.104659
0.069625
0.0713909
0.108862
0.140406
0.118313
0.0965469
0.0672224
0.0698216
0.10349
0.128198
0.118219
0.0965554
0.067757
0.0714728
0.103636
0.127554
0.115083
0.0949418
0.0678971
0.072827
0.105552
0.131842
0.0840265
0.0785239
0.0637062
0.0710824
0.10727
0.141118
0.144111
0.111685
0.0725839
0.0695049
0.0991293
0.121231
0.132445
0.106502
0.0725226
0.069312
0.0992952
0.121646
0.131706
0.105972
0.072617
0.0694178
0.0974476
0.118339
0.133304
0.10863
0.0748123
0.0660131
0.0810793
0.0867182
0.144407
0.109333
0.0723752
0.0737883
0.113318
0.145186
0.123966
0.101135
0.0704285
0.072543
0.106963
0.133929