/*--------------------------------*- C++ -*----------------------------------*\
| =========                 |                                                 |
| \\      /  F ield         | OpenFOAM: The Open Source CFD Toolbox           |
|  \\    /   O peration     | Version:  v2006                                 |
|   \\  /    A nd           | Website:  www.openfoam.com                      |
|    \\/     M anipulation  |                                                 |
\*---------------------------------------------------------------------------*/
FoamFile
{
    version     2.0;
    format      ascii;
    class       volScalarField;
    location    "0.044";
    object      isentropic(p);
}
// * * * * * * * * * * * * * * * * * * * * * * * * * * * * * * * * * * * * * //

dimensions      [1 -1 -2 0 0 0 0];


internalField   nonuniform List<scalar> 
11076
(
150034
150034
150034
150034
150034
150034
150034
150034
150036
150038
150038
150037
150036
150035
150034
150034
150033
150033
150033
150032
150032
150032
150031
150031
150031
150030
150030
150029
150029
150029
150028
150028
150028
150027
150027
150026
150026
150026
150025
150025
150025
150024
150024
150024
150023
150023
150022
150022
150022
150021
150021
150021
150020
150019
150018
150017
150015
150015
150017
150020
150022
150024
150024
150024
150022
150024
150026
150025
150034
150049
150047
149960
149871
150037
150063
150062
150021
149792
149714
150002
150057
150047
149979
149643
149578
149956
150035
150022
149931
149519
149466
149908
150010
149997
149885
149418
149375
149863
149984
149971
149841
149336
149300
149821
149958
149945
149801
149266
149236
149782
149934
149921
149763
149207
149180
149745
149910
149898
149728
149155
149132
149712
149887
149875
149696
149110
149090
149681
149865
149854
149666
149071
149053
149652
149845
149834
149638
149036
149020
149625
149825
149815
149612
149004
148990
149600
149806
149797
149588
148976
148964
149577
149788
149779
149566
148951
148940
149555
149772
149763
149544
148929
148919
149534
149755
149747
149524
148909
148900
149515
149740
149732
149506
148891
148883
149497
149726
149718
149489
148875
148868
149481
149712
149704
149472
148861
148855
149465
149699
149692
149457
148849
148843
149450
149686
149679
149443
148838
148834
149436
149674
149668
149430
148829
148825
149423
149663
149656
149417
148821
148818
149411
149652
149645
149405
148815
148813
149399
149641
149635
149394
148810
148808
149389
149631
149625
149383
148807
148806
149379
149621
149615
149374
148805
148805
149370
149612
149607
149366
148805
148806
149362
149603
149599
149358
148806
148808
149355
149596
149591
149352
148809
148812
149349
149588
149584
149346
148814
148817
149343
149581
149576
149340
148819
148823
149338
149574
149569
149335
148826
148830
149333
149567
149562
149330
148834
148838
149328
149560
149555
149326
148843
148848
149324
149553
149549
149322
148853
148859
149321
149546
149542
149320
148865
148872
149319
149540
149537
149318
148879
148887
149317
149535
149532
149317
148894
148903
149317
149530
149527
149317
148911
148921
149318
149526
149523
149318
148930
148940
149319
149522
149519
149320
148950
148961
149322
149519
149517
149323
148972
148984
149326
149516
149515
149328
148995
149008
149331
149515
149514
149334
149020
149033
149337
149514
149514
149341
149046
149059
149346
149515
149516
149350
149073
149087
149356
149518
149519
149361
149101
149115
149368
149522
149524
149374
149130
149145
149381
149527
149530
149388
149159
149173
149396
149535
149538
149404
149187
149201
149412
149543
149548
149420
149215
149229
149429
149553
149558
149437
149242
149254
149446
149564
149570
149455
149267
149279
149464
149576
149582
149473
149291
149303
149482
149589
149596
149491
149314
149325
149500
149603
149610
149508
149335
149345
149517
149617
149623
149525
149354
149362
149534
149630
149636
149541
149370
149377
149548
149642
149648
149555
149384
149390
149561
149653
149658
149567
149395
149400
149573
149663
149667
149577
149404
149409
149582
149672
149676
149586
149412
149416
149591
149680
149683
149594
149419
149422
149599
149686
149690
149602
149424
149427
149605
149693
149696
149608
149429
149431
149612
149699
149702
149615
149433
149436
149618
149706
149709
149621
149438
149441
149625
149712
149715
149628
149443
149445
149631
149718
149721
149634
149447
149449
149637
149724
149727
149639
149450
149452
149642
149730
149732
149644
149454
149455
149647
149735
149736
149648
149456
149457
149650
149738
149743
149654
149460
149468
149662
149751
149758
149669
149475
149848
149904
149942
149966
149981
150012
150028
150050
150063
150079
150090
150103
150111
150123
150129
150138
150142
150147
150149
150147
150138
150128
150111
150069
149969
149829
149515
149483
149804
149952
149931
149775
149448
149415
149751
149911
149895
149733
149394
149392
149734
149897
149892
149729
149388
149393
149734
149898
149894
149730
149391
149398
149738
149902
149899
149736
149396
149403
149744
149906
149904
149741
149402
149409
149749
149911
149909
149747
149408
149414
149756
149916
149915
149754
149414
149421
149762
149922
149920
149761
149420
149426
149769
149928
149926
149767
149426
149432
149776
149933
149931
149774
149432
149439
149783
149939
149938
149781
149439
149446
149790
149945
149944
149789
149446
149454
149798
149952
149951
149797
149454
149462
149806
149959
149958
149805
149462
149470
149815
149966
149965
149814
149470
149478
149823
149973
149972
149823
149479
149487
149832
149981
149980
149832
149487
149495
149841
149988
149988
149841
149496
149504
149851
149997
149996
149851
149505
149514
149861
150005
150005
149861
149515
149524
149871
150014
150014
149872
149525
149534
149882
150023
150024
149884
149535
149545
149894
150033
150034
149896
149547
149556
149908
150044
150046
149910
149559
149569
149922
150056
150058
149925
149573
149585
149938
150069
150072
149943
149590
149603
149957
150083
150087
149962
149610
149624
149978
150098
150104
149986
149636
149654
150004
150117
150127
150018
149673
149698
150040
150144
150158
150056
149725
149751
150077
150173
150184
150091
149775
149803
150112
150200
150207
150120
149822
149855
150143
150223
150235
150159
149887
149914
150175
150246
150254
150187
149941
149977
150207
150268
150277
150222
150009
150039
150235
150286
150295
150248
150075
150114
150264
150304
150325
150273
150164
150223
150340
150362
150362
150347
150231
150236
150344
150365
150376
150358
150252
150279
150381
150389
150400
150399
150294
150320
150419
150411
150421
150438
150339
150363
150460
150431
150440
150479
150384
150403
150488
150440
150459
150521
150412
150437
150539
150465
150484
150540
150463
150483
150530
150495
150477
150522
150492
150497
150542
150508
150494
150551
150508
150523
150572
150514
150507
150581
150544
150566
150565
150493
150465
150540
150586
150597
150521
150445
150435
150506
150607
150598
150474
150416
150369
150425
150563
150546
150410
150383
150352
150375
150533
150516
150343
150337
150388
150377
150497
150477
150331
150331
150311
150313
150424
150415
150350
150322
150286
150313
150352
150336
150317
150288
150296
150337
150273
150264
150374
150324
150343
150423
150098
149926
150509
150388
150483
150546
149609
149361
150522
150472
150483
150359
148996
148663
150112
150323
150154
149870
148363
148165
149596
150000
149740
149318
147953
147857
149157
149647
149521
148971
147761
147711
148797
149318
149330
148730
147674
147658
148632
149237
149132
148552
147638
147642
148647
149229
149209
148671
147647
147654
148749
149291
149240
148691
147639
147621
148574
149102
148988
148471
147603
147614
148543
149095
149049
148510
147604
147590
148444
148953
149058
148537
147620
147621
148501
149002
148868
148392
147604
147596
148318
148771
148914
148434
147637
147647
148375
148826
148593
148036
147579
147820
148111
148716
148663
148108
147774
147722
148073
148522
148320
147973
147589
148012
148447
148672
148631
148389
147971
147846
148226
148465
148786
148605
148202
148149
148552
148756
148705
148496
148108
147986
148326
148555
148853
148677
148300
148246
148629
148820
148673
148469
148139
148425
148783
148936
148900
148726
148368
148242
148581
148763
149002
148876
148535
148481
148822
148977
148841
148671
148343
148603
148941
149065
149051
148908
148566
148489
148824
148990
148872
148720
148327
148603
148972
149080
149062
148917
148567
148407
148782
148935
149125
149021
148662
148591
148939
149087
148980
148838
148450
148719
149073
149169
149144
149003
148656
148497
148861
149009
149205
149096
148734
148697
149038
149182
149058
148917
148541
148778
149133
149241
149208
149060
148712
148536
148912
149065
149279
149193
148814
148697
149049
149176
149339
149237
148902
148831
149170
149305
149177
149022
148682
148945
149277
149379
149359
149224
148887
148720
149060
149218
149396
149290
148944
148873
149222
149365
149238
149089
148716
148974
149331
149423
149400
149266
148907
148723
149085
149249
149421
149337
148935
148786
149184
149312
149482
149390
149033
148971
149321
149455
149321
149172
148805
149023
149386
149485
149454
149316
148943
148763
149136
149303
149489
149398
149003
148861
149265
149396
149540
149454
149080
149002
149378
149509
149363
149205
148824
149049
149436
149542
149513
149367
148978
148817
149212
149374
149547
149436
149045
148880
149280
149438
149585
149485
149094
149008
149407
149547
149387
149207
148828
149085
149471
149578
149481
149325
148938
149134
149521
149619
149582
149443
149054
148869
149258
149429
149598
149490
149095
149003
149413
149566
149417
149252
148833
149056
149495
149592
149477
149332
148900
149103
149518
149620
149580
149430
149010
148816
149237
149415
149594
149482
149034
148894
149333
149493
149636
149536
149114
149017
149449
149599
149425
149240
148815
149045
149489
149606
149489
149318
148873
149086
149531
149640
149608
149452
149004
148795
149239
149430
149611
149499
149042
148853
149319
149493
149639
149535
149088
148991
149447
149604
149413
149218
148763
149009
149488
149608
149496
149319
148843
149077
149539
149646
149603
149437
148960
148742
149214
149414
149598
149480
148988
148791
149293
149476
149630
149518
149031
148929
149426
149594
149404
149198
148713
148959
149470
149595
149466
149275
148758
149011
149511
149624
149584
149408
148892
148655
149163
149379
149571
149441
148909
148715
149248
149444
149604
149485
148967
148858
149385
149566
149353
149132
148608
148863
149420
149557
149422
149217
148660
148927
149466
149590
149544
149352
148795
148541
149092
149325
149533
149398
148822
148603
149187
149398
149563
149437
148869
148749
149328
149520
149290
149050
148475
148771
149369
149509
149362
149140
148532
148824
149408
149539
149497
149294
148695
148390
148994
149248
149473
149328
148708
148461
149094
149324
149507
149375
148769
148626
149254
149463
149212
148952
148335
148645
149289
149446
149293
149052
148407
148694
149330
149476
149419
149195
148542
148236
148890
149163
149400
149238
148552
148306
148998
149244
149442
149300
148640
148497
149176
149400
149122
148842
148171
148499
149200
149365
149191
148931
148215
148538
149236
149393
149346
149107
148390
148053
148763
149062
149319
149148
148416
148140
148885
149152
149360
149209
148500
148368
149090
149326
148993
148681
147949
148311
149075
149262
149083
148803
148032
148396
149144
149309
149261
149002
148228
147867
148636
148954
149228
149049
148259
147970
148775
149061
149266
149111
148370
148150
148934
149195
148885
148556
147760
148196
148989
149177
149149
148868
148034
147610
148456
148810
149113
148912
148046
147725
148608
148926
149160
148991
148167
147952
148817
149098
148715
148347
147480
147919
148809
149026
148827
148501
147601
148042
148905
149097
149047
148749
147855
147444
148338
148706
149008
148809
147930
147759
148699
149004
148557
148147
147191
147639
148633
148878
148641
148276
147267
147762
148722
148936
148904
148571
147578
147109
148109
148521
148856
148630
147651
147471
148513
148855
148396
147958
146915
147370
148462
148727
148441
148035
146932
147488
148539
148782
148746
148385
147309
146808
147888
148339
148702
148451
147391
147204
148324
148702
148252
147798
146694
147018
148236
148541
148226
147785
146577
147178
148328
148595
148562
148165
146981
146477
147656
148141
148533
148268
147131
146907
148129
148531
148083
147599
146396
146747
148028
148365
148273
147808
146459
145930
147280
147832
148306
147997
146697
146466
147843
148307
147791
147214
145837
146667
147937
148232
148241
147782
146380
145430
146894
147529
148024
147659
146242
145960
147471
147987
147482
146860
145344
146213
147654
147993
148040
147516
145944
145330
146866
147477
147779
147336
145687
145312
147041
147635
147101
146408
144705
145675
147302
147697
147730
147146
145407
144736
146455
147157
147632
147349
145934
145093
146830
147433
146730
146006
144256
145312
146951
147355
147402
146819
145045
144389
146179
146894
147372
147102
145673
145018
146798
147320
146857
146136
144170
143428
145450
146265
146947
146518
144660
144403
146533
147141
147077
146396
144209
142347
144771
145835
146516
145881
143641
143276
145747
146529
146413
145494
142929
142299
144809
145825
146225
145460
142866
142186
145098
146054
145848
144778
141737
141073
144063
145246
146001
145473
143168
141757
144868
145808
145513
144507
141188
140973
144479
145493
145391
144147
140378
138173
142103
143788
144956
144028
140851
140592
144044
145088
144686
143252
139089
138675
143144
144482
144130
142507
137456
136440
141998
143701
143274
141347
135469
134912
141070
143169
143175
140896
134649
134358
140726
143178
143062
140425
134054
133786
140191
142980
142814
139886
133552
133373
139675
142718
142533
139391
133211
133089
139206
142432
142234
138948
132972
132896
138791
142130
141932
138562
132817
132777
138434
141833
141635
138234
132727
132714
138135
141540
141351
137963
132685
132692
137889
141267
141083
137742
132681
132703
137690
141007
140836
137565
132705
132740
137533
140773
140612
137427
132753
132804
137408
140559
140411
137319
132824
132887
137316
140372
140234
137240
132913
132984
137247
140208
140084
137182
133012
133089
137202
140073
139958
137147
133119
133198
137173
139959
139857
137127
133228
133308
137162
139874
139780
137124
133338
133417
137162
139803
139719
137129
133445
133524
137176
139753
139676
137149
133552
133628
137196
139716
139648
137173
133654
133728
137227
139696
139633
137209
133753
133824
137262
139685
139628
137246
133847
133917
137305
139687
139634
137292
133938
134005
137349
139695
139647
137339
134024
134090
137400
139712
139666
137392
134108
134170
137451
139732
139691
137444
134187
134248
137506
139760
139720
137501
134263
134322
137561
139789
139752
137556
134336
134393
137618
139822
139786
137614
134406
134461
137674
139856
139823
137670
134472
134526
137732
139894
139861
137729
134537
134588
137788
139930
139899
137785
134598
134649
137845
139969
139938
137842
134658
134706
137900
140007
139977
137896
134714
134762
137956
140046
140016
137952
134769
134814
138008
140084
140055
138003
134820
134865
138060
140122
140092
138055
134870
134913
138108
140158
140129
138102
134917
134958
138157
140194
140165
138150
134961
135001
138202
140228
140200
138193
135003
135042
138246
140263
140233
138237
135043
135080
138286
140294
140265
138276
135080
135116
138326
140326
140295
138315
135114
135149
138362
140354
140325
138349
135146
135180
138397
140383
140352
138385
135177
135209
138429
140410
140380
138416
135205
135236
138461
140436
140405
138447
135231
135261
138490
140460
140429
138475
135255
135284
138519
140484
140452
138503
135278
135306
138544
140506
140474
138527
135299
135326
138570
140528
140495
138552
135318
135345
138592
140547
140515
138574
135336
135362
138615
140567
140533
138596
135353
135379
138635
140584
140551
138615
135369
135394
138655
140602
140568
138635
135383
135408
138672
140617
140584
138652
135397
135421
138690
140633
140599
138670
135410
135433
138706
140647
140613
138684
135421
135444
138722
140661
140626
138700
135432
135454
138735
140673
140639
138713
135442
135464
138749
140685
140650
138726
135451
135473
138760
140696
140661
138737
135459
135481
138773
140707
140671
138750
135468
135488
138783
140716
140681
138759
135475
135495
138794
140726
140690
138770
135481
135501
138802
140734
140699
138778
135487
135507
138812
140743
140706
138787
135493
135513
138819
140749
140714
138794
135498
135517
138827
140757
140720
138802
135503
135522
138834
140763
140727
138808
135507
135526
138841
140769
140732
138815
135511
135529
138846
140774
140738
138820
135514
135532
138852
140780
140742
138826
135517
135535
138856
140784
140747
138830
135520
135538
138862
140788
140751
138835
135522
135540
138865
140792
140755
138838
135524
135542
138869
140796
140758
138843
135526
135543
138872
140798
140761
138845
135527
135545
138876
140802
140764
138849
135529
135546
138878
140804
140766
138850
135529
135547
138881
140807
140768
138854
135530
135548
138882
140808
140770
138855
135531
135548
138885
140810
140772
138857
135531
135548
138886
140811
140774
138858
135531
135548
138888
140813
140774
138860
135531
135548
138889
140814
140776
138860
135531
135548
138890
140815
140776
138862
135531
135547
138890
140816
140778
138862
135530
135546
138892
140817
140778
138864
135529
135545
138891
140817
140778
138863
135528
135544
138892
140817
140778
138864
135527
135543
138892
140817
140779
138863
135525
135541
138892
140817
140778
138864
135523
135539
138891
140817
140778
138862
135521
135537
138892
140817
140778
138863
135519
135536
138892
140817
140779
138863
135517
135537
138891
140818
140780
138863
135519
135535
138893
140820
140783
138865
135516
135541
138903
140835
140806
138884
135521
135572
138951
140908
140972
138997
135601
135750
139187
141247
141627
139493
135995
136298
139856
142024
142314
140157
136557
144395
145586
146103
146807
147380
147555
147725
148253
148583
148895
149125
149301
149439
149545
149626
149689
149737
149773
149801
149823
149839
149853
149863
149871
149877
149882
149885
149887
149888
149888
149889
149894
149897
149901
149905
149910
149916
149923
149932
149942
149953
149967
149982
149999
150018
150036
150052
150064
150068
150065
150059
150052
150046
150041
150036
150032
150027
150023
150018
150013
150008
150003
149999
149994
149990
149986
149983
149980
149977
149976
149974
149974
149974
149974
149976
149978
149980
149983
149986
149990
149994
149997
150001
150004
150007
150010
150012
150013
150014
150014
150014
150013
150011
150009
150007
150004
150001
149997
149994
149990
149986
149982
149978
149974
149971
149967
149964
149960
149957
149954
149951
149948
149946
149943
149941
149939
149937
149936
149934
149933
149932
149931
149930
149929
149928
149928
149928
149927
149927
149927
149927
149927
149928
149928
149929
149929
149930
149931
149932
149933
149934
149935
149936
149937
149938
149939
149940
149942
149943
149944
149946
149948
149950
149951
149953
149955
149957
149959
149961
149964
149966
149968
149970
149972
149974
149976
149978
149980
149981
149983
149986
149989
149995
150007
150023
150031
150034
150034
150034
150034
150033
150034
150046
150064
150069
150068
150064
150060
150057
150053
150051
150048
150046
150044
150043
150041
150040
150039
150037
150036
150035
150034
150034
150033
150032
150031
150030
150030
150029
150028
150028
150027
150026
150025
150025
150024
150023
150022
150021
150020
150019
150018
150017
150016
150015
150013
150012
150009
150007
150004
150000
149998
149999
150004
150011
150014
150017
150026
150047
150065
150070
150068
150063
150057
150051
150045
150039
150033
150027
150021
150015
150009
150003
149997
149991
149985
149980
149974
149969
149963
149958
149953
149947
149942
149937
149933
149927
149923
149918
149914
149909
149905
149900
149896
149892
149888
149884
149880
149876
149872
149868
149865
149861
149857
149853
149850
149846
149842
149839
149835
149832
149829
149825
149823
149819
149817
149814
149811
149808
149805
149802
149799
149796
149793
149790
149786
149783
149780
149776
149773
149770
149767
149764
149761
149757
149754
149751
149749
149746
149743
149740
149737
149734
149732
149729
149726
149724
149722
149720
149718
149716
149715
149713
149712
149712
149711
149711
149711
149712
149713
149713
149715
149716
149719
149720
149723
149726
149730
149732
149737
149740
149744
149747
149752
149755
149759
149762
149766
149769
149772
149775
149778
149780
149783
149785
149788
149789
149792
149794
149797
149799
149802
149804
149808
149810
149813
149815
149818
149820
149823
149825
149828
149829
149832
149835
149840
149902
149899
149942
149942
149966
149966
149966
149939
149896
149892
149932
149936
149892
149889
149929
149964
149962
149934
149889
149885
149927
149931
149885
149881
149924
149959
149957
149929
149881
149877
149921
149926
149877
149873
149918
149956
149954
149924
149874
149870
149916
149922
149871
149867
149915
149953
149952
149921
149868
149864
149913
149920
149865
149862
149912
149952
149953
149919
149863
149859
149912
149918
149861
149857
149911
149953
149953
149917
149858
149854
149910
149916
149855
149850
149908
149952
149952
149915
149851
149847
149906
149913
149847
149842
149905
149952
149952
149912
149843
149838
149903
149910
149839
149834
149901
149953
149954
149909
149835
149831
149900
149909
149832
149828
149901
149956
149959
149910
149830
149827
149902
149912
149829
149827
149904
149962
149965
149914
149829
149828
149907
149917
149830
149829
149910
149969
149973
149921
149831
149832
149913
149925
149834
149835
149917
149977
149981
149929
149838
149839
149921
149933
149842
149844
149925
149985
149988
149938
149847
149848
149929
149942
149851
149853
149934
149991
149994
149946
149856
149858
149937
149950
149862
149864
149941
149997
150000
149953
149867
149869
149945
149957
149872
149874
149948
150002
150004
149960
149877
149878
149951
149963
149882
149883
149954
150006
150008
149966
149887
149888
149958
149969
149892
149893
149961
150010
150012
149972
149897
149898
149964
149974
149902
149903
149967
150014
150015
149977
149907
149907
149970
149979
149911
149911
149972
150017
150017
149981
149915
149915
149974
149983
149919
149919
149976
150018
150018
149984
149922
149922
149977
149985
149926
149926
149979
150019
150020
149987
149930
149930
149981
149989
149934
149934
149983
150021
150022
149991
149938
149938
149986
149993
149942
149943
149988
150023
150024
149996
149947
149948
149991
149998
149951
149952
149994
150025
150026
150000
149956
149957
149996
150002
149961
149961
149999
150027
150028
150005
149965
149966
150001
150007
149970
149971
150004
150029
150030
150009
149975
149976
150007
150012
149980
149981
150010
150032
150033
150015
149985
149987
150013
150018
149991
149993
150016
150035
150036
150021
149997
149999
150020
150024
150002
150005
150024
150038
150040
150028
150009
150011
150027
150031
150015
150017
150031
150041
150043
150035
150021
150024
150035
150039
150028
150031
150040
150045
150047
150043
150035
150038
150045
150048
150042
150045
150050
150050
150052
150052
150049
150053
150055
150057
150057
150061
150060
150053
150053
150062
150064
150067
150064
150033
150042
150045
150047
150047
150047
150047
150047
150047
150047
150048
150048
150048
150049
150049
150050
150051
150052
150053
150054
150054
150055
150056
150057
150057
150058
150059
150060
150061
150062
150063
150063
150062
150061
150060
150059
150057
150056
150054
150052
150050
150048
150045
150042
150039
150035
150032
150028
150024
150020
150017
150015
150014
150014
150014
150015
150015
150016
150017
150017
150017
150017
150016
150016
150016
150017
150018
150019
150020
150020
150022
150016
149975
149979
150015
150026
150026
150053
150052
150062
150062
150059
150087
150083
150081
150089
150089
150106
150105
150111
150111
150110
150129
150126
150124
150129
150130
150141
150139
150143
150143
150144
150153
150150
150149
150150
150151
150145
150144
150130
150122
150121
150121
150123
150106
150103
150050
150059
150041
150100
150093
150034
150040
150100
150122
150146
150146
150122
150102
150094
150036
150042
150039
150097
150105
150126
150149
150157
150147
150131
150112
150088
150059
150059
150089
150113
150133
150135
150114
150089
150059
150059
150090
150090
150059
150059
150091
150118
150116
150115
150137
150139
150141
150143
150119
150092
150059
150060
150093
150094
150060
150061
150096
150125
150123
150121
150145
150148
150150
150152
150126
150097
150062
150062
150097
150098
150061
150061
150098
150132
150130
150128
150155
150159
150164
150195
150186
150180
150176
150172
150169
150166
150163
150160
150157
150154
150152
150149
150160
150153
150150
150128
150131
150133
150154
150158
150164
150168
150172
150177
150172
150169
150167
150164
150162
150159
150139
150137
150117
150109
150114
150106
150111
150103
150108
150100
150043
150045
150049
150046
150052
150049
150056
150053
150060
150058
150112
150120
150116
150062
150064
150068
150124
150143
150146
150127
150119
150066
150072
150071
150123
150131
150150
150153
150157
150161
150175
150178
150181
150185
150189
150193
150193
150191
150188
150186
150183
150181
150169
150165
150148
150140
150143
150135
150139
150131
150135
150127
150075
150077
150082
150080
150087
150085
150092
150091
150097
150096
150144
150152
150149
150102
150103
150109
150156
150173
150177
150161
150154
150108
150115
150114
150158
150166
150181
150185
150189
150194
150197
150198
150197
150203
150211
150223
150227
150222
150211
150209
150204
150202
150203
150198
150185
150179
150180
150173
150175
150168
150170
150163
150120
150121
150127
150127
150134
150134
150141
150141
150148
150149
150185
150191
150190
150157
150156
150164
150196
150208
150214
150202
150196
150166
150172
150175
150202
150208
150220
150231
150243
150257
150244
150249
150237
150205
150169
150133
150098
150060
150059
150098
150098
150059
150059
150097
150139
150138
150135
150174
150181
150190
150186
150137
150097
150060
150061
150097
150097
150064
150067
150096
150116
150128
150136
150177
150157
150134
150120
150108
150093
150070
150071
150092
150092
150072
150074
150094
150107
150105
150105
150115
150114
150116
150117
150109
150097
150077
150079
150099
150100
150081
150083
150102
150113
150112
150111
150118
150119
150119
150122
150123
150122
150122
150120
150119
150119
150128
150154
150186
150221
150245
150248
150231
150216
150252
150270
150289
150317
150308
150293
150286
150271
150266
150282
150269
150263
150258
150248
150241
150230
150223
150216
150210
150185
150182
150194
150201
150213
150224
150236
150244
150254
150261
150272
150277
150287
150280
150271
150287
150291
150293
150304
150303
150299
150293
150301
150307
150312
150316
150316
150330
150344
150350
150322
150332
150291
150249
150200
150175
150161
150151
150253
150279
150318
150323
150357
150358
150378
150372
150365
150360
150357
150347
150331
150324
150314
150312
150326
150341
150364
150366
150376
150382
150387
150379
150369
150397
150390
150392
150380
150383
150379
150399
150399
150410
150402
150416
150422
150400
150381
150356
150352
150351
150353
150378
150372
150382
150318
150374
150359
150339
150337
150414
150404
150435
150417
150404
150406
150438
150438
150447
150462
150430
150428
150391
150346
150330
150269
150176
150263
150256
150300
150338
150390
150368
150431
150416
150449
150424
150478
150476
150467
150450
150447
150394
150428
150411
150397
150368
150336
150357
150311
150335
150351
150351
150397
150356
150390
150384
150350
150349
150342
150327
150286
150284
150203
150191
150203
150098
150127
150115
150120
150121
150122
150120
150106
150094
150177
150176
150230
150253
150247
150265
150263
150328
150331
150331
150310
150298
150267
150283
150302
150290
150308
150359
150364
150259
150284
150295
150273
150276
150281
150279
150277
150299
150281
150270
150274
150335
150280
150385
150291
150376
150243
150197
150017
149829
149904
149694
149539
149659
149847
149842
149978
150077
150132
150060
150201
150240
150293
150254
150240
150261
150261
150263
150255
150269
150222
150129
150201
150214
150223
150229
150163
150144
150075
150152
150195
150189
150085
150092
149890
149906
149706
149596
149385
149507
149461
149568
149436
149328
149238
149353
149259
149179
149288
149207
149115
149036
149183
149069
148931
149117
148924
148863
148748
148997
148961
148857
149063
149052
148998
148907
149101
149072
148988
149152
149127
149048
149205
149185
149110
149253
149250
149209
149129
149271
149256
149179
149310
149287
149214
149355
149335
149252
149383
149369
149291
149427
149400
149312
149440
149393
149516
149489
149415
149527
149517
149444
149558
149537
149463
149571
149555
149474
149584
149524
149619
149605
149531
149636
149613
149530
149633
149589
149688
149665
149585
149682
149666
149593
149686
149631
149711
149688
149607
149706
149668
149737
149718
149639
149733
149717
149632
149725
149670
149751
149726
149636
149730
149683
149770
149748
149654
149744
149688
149766
149748
149656
149745
149690
149779
149755
149654
149749
149698
149772
149749
149648
149741
149681
149769
149749
149649
149740
149679
149756
149734
149625
149723
149661
149754
149730
149616
149717
149650
149732
149705
149589
149693
149626
149721
149693
149570
149677
149604
149692
149665
149533
149649
149574
149680
149651
149515
149631
149553
149646
149609
149469
149594
149515
149624
149596
149445
149569
149474
149580
149547
149394
149529
149444
149564
149531
149353
149495
149395
149509
149478
149312
149456
149368
149488
149433
149264
149417
149390
149207
149372
149270
149394
149338
149127
149318
149202
149335
149300
149119
149291
149257
149012
149205
149049
149222
149191
148982
149178
149145
148889
149110
148915
149106
149064
148841
149061
149032
148764
148981
148744
148971
148928
148689
148929
148892
148631
148871
148742
148466
148766
148736
148441
148723
148647
148254
148594
148504
148197
148532
148523
148179
148496
148268
147916
148300
148288
147953
148323
148069
147615
148059
148030
147708
148134
147959
147645
147232
147719
147780
147678
147008
147646
147485
147365
146992
147461
147118
146925
146570
147310
146977
146722
146614
146466
145616
146457
146216
145944
145760
145497
145232
144911
144885
144937
145023
145020
145060
145018
145055
144999
145035
144966
145004
144927
144967
144883
144927
144836
144882
144786
144833
144732
144781
144675
144725
144615
144666
144554
144604
144489