/*--------------------------------*- C++ -*----------------------------------*\
| =========                 |                                                 |
| \\      /  F ield         | OpenFOAM: The Open Source CFD Toolbox           |
|  \\    /   O peration     | Version:  v2006                                 |
|   \\  /    A nd           | Website:  www.openfoam.com                      |
|    \\/     M anipulation  |                                                 |
\*---------------------------------------------------------------------------*/
FoamFile
{
    version     2.0;
    format      ascii;
    class       volScalarField;
    location    "0.011";
    object      Co;
}
// * * * * * * * * * * * * * * * * * * * * * * * * * * * * * * * * * * * * * //

dimensions      [0 0 0 0 0 0 0];


internalField   nonuniform List<scalar> 
16277
(
0.00697888
0.00665223
0.00722052
0.00749679
0.0075375
0.00738003
0.00737731
0.00725526
0.00720451
0.00719338
0.00715585
0.00714114
0.00712572
0.00711423
0.00710167
0.00708899
0.00707564
0.0070615
0.00704687
0.00703159
0.00701567
0.00699911
0.00698192
0.0069641
0.00694566
0.0069266
0.00690693
0.00688665
0.00686578
0.00684433
0.00682231
0.00679972
0.0067766
0.00675295
0.0067288
0.00670417
0.00667908
0.00665355
0.00662761
0.00660129
0.0065746
0.00654758
0.00652025
0.00649264
0.00646478
0.00643671
0.00640846
0.00638
0.00635139
0.00632265
0.00629382
0.00626493
0.00623603
0.00620717
0.00617838
0.00614968
0.0061211
0.00609267
0.00606442
0.00603639
0.00600861
0.00598112
0.00595395
0.00592713
0.00590071
0.0058747
0.00584915
0.00582409
0.00579955
0.00577555
0.00575214
0.00572934
0.00570718
0.00568569
0.00566491
0.00564486
0.00562555
0.00560699
0.00558774
0.00557051
0.00555526
0.00554372
0.00553864
0.00556798
0.00562834
0.00580138
0.00611816
0.00684538
0.00853984
0.012176
0.0182579
0.014364
0.0129034
0.0123593
0.0120861
0.0118219
0.0112883
0.0102349
0.011232
0.0118808
0.0110641
0.0109492
0.0103057
0.00851297
0.0091597
0.00936712
0.00931956
0.00931919
0.00874809
0.00796088
0.00867305
0.00884613
0.00912049
0.00896354
0.00817242
0.00795158
0.00876141
0.00894692
0.00915419
0.00893259
0.00801918
0.00791935
0.00880393
0.00899608
0.00916853
0.00890607
0.00792269
0.00782036
0.00877602
0.00899677
0.00912699
0.00884875
0.00780094
0.00770233
0.00871453
0.00896434
0.00908655
0.00878247
0.00768413
0.0075904
0.00864811
0.00892312
0.00904194
0.00871528
0.00757609
0.00748652
0.00858168
0.00887896
0.008995
0.00864812
0.00747513
0.00738878
0.00851525
0.00883217
0.00894613
0.008581
0.00737952
0.00729561
0.00844883
0.00878313
0.00889563
0.00851384
0.00728779
0.00720566
0.00838227
0.00873213
0.00884355
0.00844638
0.00719871
0.00711786
0.00831521
0.00867913
0.0087897
0.00837816
0.00711134
0.00703141
0.00824708
0.00862389
0.0087336
0.00830863
0.00702512
0.00694615
0.00817776
0.00856636
0.00867542
0.00823776
0.00693998
0.00686194
0.00810694
0.00850632
0.00861487
0.00816535
0.00685561
0.006778
0.00803434
0.00844548
0.00855134
0.00809083
0.0067713
0.00669379
0.00795931
0.00838133
0.00848432
0.00801373
0.00668664
0.00660927
0.00788183
0.00831378
0.00841418
0.00793432
0.00660161
0.00652432
0.00780217
0.0082433
0.00834104
0.00785263
0.00651598
0.00643859
0.00772013
0.00816979
0.00826461
0.00776829
0.00642932
0.00635166
0.00763529
0.00809291
0.00818452
0.0076809
0.00634128
0.00626321
0.00754719
0.00801216
0.0081002
0.00758995
0.00625152
0.00617291
0.0074554
0.00792706
0.00801133
0.00749513
0.00615975
0.00608043
0.00735971
0.00783743
0.00791776
0.00739625
0.00606554
0.00598518
0.00725984
0.00774306
0.00781921
0.00729292
0.00596808
0.00588625
0.00715535
0.00764367
0.00771539
0.00718463
0.00586651
0.00578282
0.0070457
0.00753894
0.00760592
0.00707084
0.00576002
0.00567415
0.00693034
0.00742845
0.00749036
0.00695099
0.00564791
0.00555956
0.00680873
0.00731177
0.00736831
0.00682455
0.00552957
0.00543851
0.00668036
0.00718852
0.00723936
0.00669105
0.0054045
0.00531052
0.0065448
0.00705831
0.00710319
0.00655005
0.00527221
0.00517509
0.00640164
0.00692088
0.00695956
0.00640119
0.00513218
0.00503169
0.00625051
0.00677599
0.00680816
0.00624401
0.00498384
0.00487975
0.00609089
0.00662321
0.00664849
0.00607801
0.00482676
0.00471904
0.00592235
0.00646206
0.00648017
0.00590292
0.00466092
0.00454976
0.00574482
0.00629232
0.00630314
0.00571881
0.00448668
0.00437234
0.0055585
0.00611406
0.00611758
0.00552597
0.00430452
0.0041873
0.00536366
0.00592749
0.0059237
0.00532465
0.00411496
0.00399515
0.00516051
0.00573273
0.00572159
0.0051151
0.00391856
0.00379649
0.00494939
0.00552994
0.0055116
0.0048978
0.00371593
0.0035918
0.00473094
0.00531973
0.00529469
0.00467346
0.00350721
0.00338072
0.00450622
0.00510367
0.00507333
0.0044439
0.00329073
0.00315874
0.00427603
0.00488387
0.00484746
0.00420665
0.00305976
0.00292022
0.00403592
0.00465847
0.00461606
0.0039584
0.00281138
0.00266304
0.00378403
0.00442772
0.00437977
0.00369727
0.00254182
0.00238088
0.0035173
0.00419241
0.0041402
0.00341928
0.00224228
0.00206116
0.00323477
0.00395744
0.00390184
0.00312542
0.0018895
0.00166613
0.00292123
0.00370746
0.00359984
0.00275727
0.00145723
0.00125368
0.00250578
0.00334485
0.00319271
0.00232368
0.00113808
0.00111979
0.00214847
0.00294833
0.00284339
0.00206668
0.00114288
0.00119442
0.00202063
0.00268108
0.00262049
0.00198576
0.00122503
0.00128787
0.00204322
0.00262597
0.00258574
0.00204579
0.00133307
0.00140778
0.00212529
0.00266426
0.00263568
0.00213917
0.00145893
0.00153542
0.00222478
0.00272097
0.00269608
0.00223982
0.00158436
0.00165896
0.00232836
0.00278794
0.00276724
0.00234389
0.00170521
0.00177804
0.00243422
0.00286419
0.00284539
0.00244902
0.00182162
0.00189197
0.00253944
0.00294492
0.00292633
0.00255242
0.00193198
0.00199861
0.00264176
0.00302685
0.00300703
0.0026518
0.00203373
0.00209528
0.00273883
0.00310708
0.0030851
0.00274509
0.00212447
0.00217987
0.00282874
0.00318352
0.0031587
0.00283052
0.00220232
0.00225076
0.00290985
0.00325458
0.0032265
0.00290668
0.002266
0.00230723
0.00298136
0.00331952
0.00328819
0.00297325
0.00231537
0.00234985
0.00304344
0.00337847
0.00334426
0.0030319
0.00235301
0.00238034
0.00309688
0.00343225
0.00339582
0.00308603
0.00238373
0.00240039
0.00314328
0.00348241
0.00344972
0.00313983
0.00240392
0.00241188
0.00318584
0.00353124
0.00350313
0.00318897
0.00241549
0.00241735
0.00322913
0.00358189
0.00355603
0.00323528
0.00242106
0.00242255
0.00327586
0.00363467
0.00360708
0.00328095
0.00242642
0.00243025
0.00332485
0.00368883
0.00365931
0.00332831
0.00243427
0.00244021
0.00337652
0.00374552
0.00371517
0.00337845
0.00244434
0.00245272
0.00343254
0.00380611
0.00377438
0.00343191
0.00245688
0.0024693
0.00349348
0.00387074
0.00383843
0.00349035
0.00247343
0.00249203
0.00355868
0.00393899
0.00390737
0.0035536
0.00249609
0.00252193
0.00362609
0.00400987
0.00397846
0.0036179
0.0025259
0.00255811
0.00369322
0.00408253
0.00405112
0.00368194
0.00256206
0.00259857
0.00375871
0.00415673
0.00412523
0.00374578
0.00260377
0.00264163
0.00382188
0.00423239
0.00420067
0.00380689
0.0026475
0.00268622
0.00388195
0.00430939
0.00427736
0.00386486
0.00269224
0.00273131
0.00393946
0.00438713
0.00435357
0.00392108
0.00273706
0.00277594
0.00399532
0.00446251
0.00442579
0.00397496
0.00278081
0.00281887
0.00404767
0.00453281
0.0044925
0.00402429
0.00282233
0.00285921
0.00409471
0.00459731
0.0045534
0.00406816
0.0028598
0.00289249
0.00412819
0.00464674
0.00458137
0.0040804
0.00287268
0.00290174
0.00412974
0.00466477
0.00453941
0.00401501
0.00281994
0.00291516
0.00412496
0.0046581
0.00448756
0.00392415
0.00275259
0.00308172
0.00432087
0.00483886
0.00486716
0.00422064
0.00295706
0.00376726
0.00523717
0.00587219
0.00632348
0.00548785
0.00390099
0.00488983
0.0075667
0.00970154
0.00910992
0.0118266
0.00999336
0.00933686
0.0089075
0.00881828
0.00871289
0.00878505
0.00879601
0.00890728
0.00888235
0.008957
0.00899565
0.00922453
0.00949937
0.0102017
0.0131394
0.0188127
0.0202638
0.018589
0.0177013
0.0157701
0.012997
0.00996563
0.00548816
0.00475253
0.00904117
0.0121629
0.0107068
0.00823965
0.00436167
0.00354459
0.00680582
0.00898088
0.00829593
0.0064352
0.00337362
0.00308701
0.00597328
0.00778616
0.00760108
0.00588284
0.00301176
0.00293323
0.00574323
0.00747391
0.00745468
0.00571327
0.00290839
0.00288811
0.00568852
0.00742357
0.00741055
0.00567311
0.00287698
0.00286721
0.00566445
0.00740652
0.00740621
0.00565608
0.00285845
0.00284976
0.00564206
0.00740816
0.00743995
0.00566591
0.00284992
0.00284445
0.00566091
0.00745067
0.00747483
0.00567257
0.00284449
0.0028434
0.00567468
0.0074839
0.00754422
0.00571109
0.00285142
0.00286065
0.0057313
0.00755751
0.00759068
0.00574551
0.00286446
0.00287866
0.00577272
0.00760675
0.00767287
0.00581737
0.00289419
0.00291454
0.00585077
0.00768931
0.00772422
0.00587708
0.00293012
0.00295679
0.00591529
0.00774027
0.00780629
0.00596978
0.00298514
0.00301835
0.00601113
0.00782138
0.00785535
0.00604363
0.00304632
0.003085
0.00608676
0.00787026
0.00793686
0.00614561
0.00312457
0.00316813
0.00618984
0.00795223
0.0079874
0.00622385
0.00320494
0.00325144
0.00626732
0.00800331
0.00807245
0.00632615
0.00329728
0.00334589
0.00636954
0.00809002
0.00812776
0.00640863
0.00338896
0.0034306
0.00643848
0.00814576
0.00821746
0.00650354
0.0034803
0.00352872
0.00654686
0.00823643
0.00827532
0.00658554
0.00357038
0.00360999
0.00661493
0.00829428
0.00836793
0.00668046
0.00365748
0.00370332
0.00672392
0.00838825
0.00842859
0.00676271
0.00374195
0.00377874
0.00679225
0.00844859
0.00852334
0.00685852
0.00382393
0.00386787
0.00690204
0.00854349
0.00858299
0.00694015
0.00390449
0.00393959
0.00696862
0.00860161
0.00867499
0.00703413
0.00398356
0.00402648
0.00707611
0.00869264
0.00872914
0.00711189
0.00406168
0.00409532
0.00713764
0.00874439
0.00881452
0.00720055
0.00413771
0.00417856
0.00723908
0.008828
0.00886015
0.00727067
0.00421069
0.00424074
0.00729201
0.00887107
0.00893737
0.00735093
0.00427921
0.00431593
0.00738519
0.00894669
0.00897496
0.00741243
0.0043436
0.00436959
0.00742978
0.00898236
0.00904587
0.0074856
0.0044047
0.00443864
0.00751672
0.0090521
0.0090774
0.00753316
0.00445923
0.00449176
0.00756246
0.00908195
0.00914289
0.00760795
0.00452004
0.00455109
0.00763578
0.00914623
0.00916877
0.00764841
0.00456768
0.00459576
0.00767426
0.00917091
0.00923017
0.00771629
0.0046185
0.00464353
0.00774086
0.00923204
0.00925389
0.00775802
0.00465778
0.00466963
0.00776603
0.00925611
0.00931665
0.00781426
0.00468988
0.00470817
0.00783816
0.00932043
0.00934522
0.00785553
0.00471604
0.00472243
0.00786495
0.00935135
0.00941708
0.0079162
0.0047383
0.00475367
0.00794445
0.00942679
0.00945875
0.00795973
0.00475558
0.00477269
0.00799296
0.00947326
0.00954902
0.00804673
0.00478803
0.00481149
0.00808795
0.00956986
0.00961461
0.00812683
0.00483074
0.00486586
0.00817894
0.00965306
0.00972603
0.00823887
0.00490001
0.00494896
0.00830609
0.00977427
0.00983892
0.00838297
0.00501017
0.00508567
0.00847018
0.00990968
0.00998971
0.00857127
0.00517953
0.00529641
0.00868741
0.0100785
0.010191
0.00883877
0.00545145
0.00563658
0.00900113
0.0102967
0.01041
0.00915563
0.00583382
0.00598563
0.00925827
0.0104597
0.0105696
0.00932195
0.00612468
0.00637767
0.00952076
0.0106285
0.0106988
0.00958548
0.00647229
0.00667099
0.00967208
0.0107371
0.0108294
0.00980918
0.00686702
0.00707631
0.00989317
0.0109012
0.0110723
0.0101611
0.00738338
0.00757627
0.0102562
0.0111434
0.0113924
0.0105618
0.00797047
0.00813766
0.0106292
0.0114329
0.0114873
0.0110103
0.00875807
0.00854733
0.0101888
0.0100173
0.0297042
0.021707
0.0122044
0.00775383
0.0137368
0.0193459
0.0130191
0.0113443
0.0072682
0.00677267
0.0100853
0.0111428
0.0107356
0.00987245
0.00681315
0.00693217
0.0100559
0.0110844
0.0109178
0.00999685
0.00708848
0.00743312
0.0102988
0.0112372
0.0110386
0.010173
0.00759431
0.00812489
0.0107257
0.0115246
0.0114314
0.0106569
0.00829232
0.00885553
0.0110471
0.0116209
0.0101209
0.0103298
0.00886065
0.0123959
0.0210559
0.0284516
0.0197712
0.0145276
0.0090054
0.0085301
0.0119801
0.0134321
0.0120081
0.0110439
0.00834998
0.00843569
0.0109004
0.0116671
0.0115116
0.0108528
0.00862574
0.00871906
0.0107945
0.0114054
0.0113086
0.0109042
0.00908233
0.00884519
0.00988506
0.00947972
0.0277664
0.0206847
0.0124642
0.00927908
0.0144293
0.0193474
0.0130136
0.0117461
0.00875401
0.00853534
0.0107458
0.0112935
0.010801
0.0104256
0.00857963
0.0088252
0.0105506
0.0109121
0.00929079
0.00974588
0.00876715
0.0120155
0.019653
0.0260888
0.0189013
0.0141801
0.00927927
0.00904396
0.0117025
0.0127959
0.0113132
0.010616
0.00869349
0.00894728
0.0104611
0.0106687
0.00849641
0.00908153
0.00846906
0.0118007
0.0187705
0.0247633
0.0174967
0.0134365
0.00913264
0.00845862
0.010578
0.0113993
0.00977337
0.00955468
0.00820004
0.00800995
0.00851905
0.00792303
0.022042
0.016849
0.0107449
0.00853395
0.0122763
0.0158947
0.0103882
0.0096318
0.00789212
0.00752055
0.00847168
0.00859385
0.00608035
0.00688583
0.00699091
0.00936592
0.0141948
0.017931
0.0113646
0.00919096
0.00686039
0.00566073
0.00571192
0.0050454
0.0136359
0.0108159
0.0070866
0.00424229
0.00550448
0.00679657
0.00325256
0.00303162
0.00291658
0.00323553
0.00490322
0.00597615
0.00584587
0.00444433
0.00245607
0.00394513
0.00555265
0.00622638
0.0200729
0.0172639
0.0119324
0.0141138
0.0150904
0.0151094
0.0219253
0.0216891
0.0208656
0.0254579
0.0270763
0.0279433
0.0315895
0.0308989
0.0288626
0.0287255
0.0295077
0.0282615
0.0540765
0.0463662
0.0339718
0.0318135
0.0420143
0.0487434
0.0495673
0.0429045
0.0322908
0.0321519
0.0441801
0.0523899
0.0335012
0.033053
0.028168
0.029768
0.0430225
0.0552295
0.0571818
0.0448324
0.0303325
0.0275176
0.0368677
0.0434682
0.0521356
0.042315
0.0295773
0.0249032
0.0291673
0.0300396
0.0490419
0.0382199
0.0268496
0.0287211
0.0429475
0.0549845
0.0284383
0.027682
0.0235513
0.0255178
0.0366425
0.0469047
0.0538773
0.0418966
0.0276778
0.0226423
0.0265331
0.0272794
0.0456273
0.0353747
0.0245824
0.0269663
0.0409765
0.0529222
0.0268405
0.0260849
0.0221212
0.0242433
0.0346202
0.0446507
0.0522408
0.0405183
0.0268465
0.0219609
0.0257018
0.0263002
0.0439582
0.0342484
0.0238005
0.0262313
0.0399673
0.0514494
0.0261493
0.0254409
0.0216305
0.0235147
0.0336502
0.0433588
0.0511002
0.0394952
0.0259525
0.0211288
0.0247722
0.0254577
0.04194
0.0325894
0.0228397
0.0254905
0.0388794
0.0502222
0.0224353
0.0225445
0.0200172
0.0209038
0.0265284
0.0294839
0.0427179
0.032416
0.0219696
0.0244996
0.038371
0.0501843
0.0239819
0.023523
0.0199998
0.0219524
0.032251
0.0420499
0.0494368
0.0380889
0.0246353
0.0201942
0.0240484
0.02479
0.0423709
0.0324783
0.0219595
0.0245827
0.0383406
0.0495779
0.0245551
0.023989
0.0202029
0.0220521
0.0323916
0.0422647
0.049629
0.0380046
0.0245182
0.0201538
0.0241317
0.0249172
0.0421614
0.0323693
0.0220728
0.0246291
0.038012
0.0494819
0.0245777
0.0239484
0.020025
0.0223303
0.032681
0.042105
0.0494707
0.0382002
0.024734
0.0203463
0.0244029
0.0250772
0.0426982
0.0327901
0.0223977
0.0249872
0.0384068
0.0497139
0.025178
0.0245502
0.0205657
0.0227051
0.0337079
0.0440988
0.0491308
0.0379964
0.0246237
0.0221639
0.0303439
0.0360693
0.0457637
0.0369826
0.0250714
0.0213037
0.0253267
0.0261304
0.0429598
0.0334621
0.0232022
0.0254785
0.0386784
0.0496583
0.0257442
0.0248285
0.0208355
0.0228938
0.0331425
0.0425808
0.0499292
0.0388907
0.0254833
0.0210993
0.0249085
0.0255587
0.043385
0.0336591
0.0232517
0.0256115
0.0390153
0.0501672
0.0259485
0.0251252
0.0211171
0.0233156
0.0337314
0.0435719
0.0505592
0.0393191
0.0259753
0.0216454
0.0255891
0.02634
0.0458213
0.0351754
0.0239669
0.0256748
0.0390993
0.0504453
0.0380292
0.0321626
0.0234715
0.0255674
0.0374984
0.0463525
0.027036
0.0261008
0.0218384
0.0242024
0.035058
0.0449099
0.0512128
0.0401804
0.0264958
0.0220744
0.0261604
0.0269559
0.0468571
0.0361124
0.0245683
0.0261549
0.0396207
0.0511786
0.0385559
0.032545
0.0239708
0.0263803
0.0383573
0.047325
0.0280196
0.02709
0.0227529
0.0249386
0.035743
0.0459201
0.0522026
0.0408618
0.0272296
0.0228649
0.0270191
0.0277032
0.0478426
0.0367903
0.0251987
0.0267432
0.0402542
0.0517849
0.0395042
0.0333723
0.0245137
0.0269114
0.0390362
0.0479504
0.0283214
0.0274784
0.0232921
0.0254352
0.0366807
0.0471956
0.0530993
0.0419226
0.0278619
0.023433
0.0275762
0.0282969
0.0490856
0.037778
0.0258395
0.0273882
0.0412344
0.0529079
0.040493
0.0342272
0.0250918
0.0275929
0.0399266
0.0487992
0.0294881
0.0285173
0.0240191
0.0264136
0.038367
0.0500017
0.053549
0.0419084
0.0280005
0.0259512
0.0351056
0.0414871
0.0497279
0.0407449
0.0283863
0.0243478
0.0289059
0.0298599
0.0505233
0.0392098
0.0270457
0.0283129
0.0421128
0.0538087
0.0419755
0.0354767
0.026272
0.0289224
0.041254
0.0503331
0.0306554
0.0297025
0.0249806
0.0277369
0.0399854
0.051629
0.0549937
0.043186
0.0291967
0.0269271
0.0362775
0.0428746
0.0510598
0.0418923
0.0293019
0.0253915
0.0299953
0.0308981
0.0521369
0.0404632
0.027684
0.0293412
0.0437447
0.0555708
0.0437083
0.0368793
0.0272616
0.0296504
0.0423741
0.0517783
0.0316829
0.0307068
0.0258957
0.028474
0.0416144
0.0536924
0.056157
0.0443057
0.0298397
0.0281863
0.0386108
0.0458971
0.0516111
0.0422612
0.0297781
0.0278084
0.0376594
0.0442314
0.051702
0.0427807
0.0300991
0.0265338
0.0315725
0.0326802
0.054516
0.042283
0.0294687
0.0308198
0.0454071
0.0574232
0.0457175
0.0386542
0.0286442
0.0308768
0.0440958
0.0532828
0.0327571
0.0318563
0.0270395
0.0296505
0.0431083
0.0557457
0.0580087
0.0456695
0.0308332
0.0289971
0.0397686
0.0476081
0.053381
0.0434976
0.0305484
0.0290148
0.0390476
0.0460945
0.0537659
0.0445383
0.0316957
0.0275749
0.0327515
0.0339585
0.0571955
0.0444893
0.0308288
0.0319552
0.046985
0.0594933
0.0491579
0.0410767
0.0299837
0.0316273
0.0448187
0.0545476
0.0477029
0.040441
0.0300721
0.0320962
0.0452805
0.0544565
0.0346825
0.0334359
0.0282057
0.0311562
0.0449758
0.0581713
0.0601088
0.047606
0.0324447
0.0308586
0.0421264
0.0501684
0.0557819
0.0459637
0.032496
0.030891
0.04135
0.0484941
0.0559207
0.0466467
0.0332152
0.0292068
0.0345421
0.0356526
0.0594356
0.0462049
0.0321203
0.0334953
0.0488743
0.0615499
0.0511478
0.0427239
0.0311779
0.0330441
0.046592
0.0565346
0.0497328
0.0420175
0.0312736
0.0340766
0.0474882
0.0569533
0.0363116
0.0350899
0.0298141
0.0330119
0.0477099
0.0612746
0.0628903
0.0496812
0.033915
0.032173
0.044184
0.0525893
0.0581474
0.0480047
0.0338233
0.0323745
0.0434281
0.0509061
0.0583443
0.048584
0.0348146
0.030419
0.0358794
0.0370419
0.0624369
0.0483668
0.0336421
0.0347605
0.0507015
0.0640399
0.0538695
0.0451522
0.0332159
0.0350325
0.0490727
0.0591738
0.0543174
0.0457856
0.0335362
0.0353012
0.0490846
0.0591991
0.0528846
0.044913
0.0333605
0.0360851
0.0502354
0.0597596
0.0389729
0.0376918
0.03178
0.0352611
0.0504504
0.0645502
0.0657153
0.0520777
0.0359226
0.0342367
0.0466123
0.0554672
0.0600886
0.0498122
0.0356665
0.0343138
0.0465215
0.0555386
0.0605053
0.0503017
0.0363969
0.0344042
0.0461463
0.0540668
0.061461
0.0514833
0.0371403
0.0325609
0.0383938
0.039679
0.0665104
0.0520917
0.0363354
0.0372635
0.0540069
0.0675066
0.0572075
0.0481061
0.0354314
0.037081
0.0516411
0.062366
0.0573778
0.0485544
0.0355919
0.0373599
0.0518296
0.0620918
0.0557759
0.0474854
0.0355077
0.0380983
0.0525688
0.0630347
0.041067
0.0396502
0.0335116
0.0374667
0.0535757
0.0683941
0.0694861
0.0552186
0.0382431
0.0364575
0.0494147
0.0589679
0.0637868
0.0529098
0.0381509
0.0369403
0.0500466
0.059405
0.0640328
0.0533927
0.0386694
0.0365489
0.048605
0.0573479
0.0648891
0.0543441
0.0395252
0.0347144
0.0406897
0.0417762
0.0703998
0.0550739
0.0383174
0.0392681
0.0569929
0.0715046
0.0606863
0.050836
0.03741
0.0393023
0.0548215
0.0658573
0.0614557
0.0517801
0.0382449
0.0398417
0.0547166
0.065366
0.0618987
0.0518213
0.0381646
0.0403736
0.0553034
0.066207
0.0604152
0.0512668
0.0382969
0.0408678
0.0561979
0.067089
0.0436532
0.0422933
0.0361206
0.040341
0.0570858
0.073401
0.0739289
0.0589222
0.0412125
0.0390294
0.0529271
0.0628388
0.067882
0.0567351
0.0407513
0.0395112
0.053245
0.0630707
0.0674681
0.0566026
0.041315
0.0396551
0.0535449
0.0634514
0.0685044
0.0571687
0.0418091
0.0396734
0.052513
0.062014
0.0697698
0.0584615
0.0428291
0.0373732
0.0436695
0.045284
0.0759439
0.0594844
0.041858
0.0430916
0.0616198
0.0767717
0.0655423
0.0556231
0.0412612
0.0428229
0.0590617
0.0707292
0.0657157
0.0557596
0.0413758
0.043085
0.0587633
0.0700982
0.0664155
0.056066
0.0415849
0.0436006
0.0594844
0.0708852
0.0648577
0.0548075
0.0412005
0.0442543
0.0603662
0.0718827
0.0470233
0.0457602
0.0390708
0.0433854
0.0615828
0.078469
0.0795669
0.0634085
0.0442944
0.0423778
0.0570926
0.0677535
0.0732753
0.0605918
0.0440285
0.042683
0.0574962
0.0681221
0.0724039
0.0610233
0.0446513
0.0428736
0.0577359
0.0688596
0.0738138
0.0619197
0.0451816
0.0428973
0.0569047
0.0666
0.0748772
0.0632833
0.0461316
0.0405383
0.0471555
0.0485386
0.081959
0.0638507
0.0452143
0.0462119
0.0657676
0.0829022
0.0704995
0.0596604
0.0443212
0.0460939
0.063556
0.0761343
0.0709128
0.0596488
0.0444672
0.0464921
0.0630515
0.0753803
0.0716286
0.0603082
0.0447833
0.0470347
0.0639015
0.0760991
0.0698011
0.0593354
0.0447858
0.0479366
0.0653745
0.0774792
0.0504363
0.0490908
0.0422445
0.0469874
0.0664271
0.0850642
0.0859883
0.0685193
0.0481409
0.046092
0.0618359
0.0731363
0.0787823
0.0659936
0.0479615
0.0462734
0.0622594
0.0735801
0.0784031
0.0658521
0.0482504
0.0465791
0.0627174
0.0744047
0.0790105
0.0665176
0.048967
0.0469875
0.0629704
0.0745399
0.0799598
0.0672797
0.0496286
0.0468369
0.0615586
0.0723157
0.0813066
0.0684958
0.0506046
0.0443681
0.0513669
0.0528743
0.0887494
0.0695715
0.049436
0.0508275
0.0721937
0.0897592
0.0765502
0.0647622
0.0484859
0.0504558
0.0692167
0.0828111
0.0770659
0.0653433
0.0488736
0.0510968
0.0693351
0.0821707
0.0776456
0.0656801
0.0493211
0.0516537
0.069702
0.0833367
0.0754038
0.0643041
0.048886
0.0522708
0.0709355
0.084203
0.0553974
0.0537225
0.0462768
0.0515998
0.0725862
0.0924753
0.0933634
0.075098
0.0527799
0.050367
0.06725
0.0794717
0.0854614
0.0712319
0.0523004
0.0506065
0.0676704
0.079953
0.085165
0.0717857
0.0528753
0.051105
0.0681587
0.0803908
0.0861979
0.0725944
0.0535617
0.0508949
0.0667761
0.0781435
0.0877677
0.0743292
0.0546607
0.0479199
0.0553559
0.0568827
0.095973
0.0754359
0.0539065
0.0552464
0.0780606
0.0969297
0.0825518
0.0698113
0.0524449
0.0546067
0.0746121
0.0893172
0.0830632
0.0703941
0.0528567
0.0553378
0.0747
0.0889337
0.0836813
0.0707718
0.0531359
0.0558854
0.0754576
0.0899244
0.0813627
0.0694708
0.0530266
0.0568933
0.0769341
0.0909182
0.0598139
0.0581325
0.0502476
0.0560889
0.0784991
0.100096
0.101131
0.0809471
0.0575721
0.0551429
0.0731202
0.0861864
0.092476
0.0776455
0.057166
0.0552218
0.0732989
0.086406
0.0924591
0.0777379
0.0577293
0.0554185
0.073637
0.0867804
0.0934776
0.0787991
0.0583199
0.054949
0.0719285
0.0841373
0.0950531
0.0805241
0.0593084
0.0521408
0.0599905
0.0615782
0.103492
0.08127
0.058076
0.0596905
0.0842019
0.10507
0.0891497
0.0755659
0.0571223
0.0596239
0.0809417
0.0969704
0.0898412
0.0763307
0.0576734
0.0604131
0.0811873
0.0966725
0.0879625
0.0752679
0.0574976
0.0610203
0.0828498
0.0982692
0.0634716
0.0619874
0.0539503
0.060256
0.0843281
0.107294
0.108533
0.0873177
0.0616859
0.0587953
0.0779191
0.0919697
0.100057
0.0832897
0.0611323
0.0591221
0.0782053
0.0919746
0.100058
0.0840551
0.0621677
0.0588591
0.0768856
0.089745
0.101587
0.0859117
0.0634276
0.0555964
0.0637598
0.0652147
0.110989
0.0871117
0.0622549
0.0640915
0.0906623
0.112684
0.0954709
0.080899
0.0611226
0.0639999
0.0870684
0.103877
0.0958994
0.081673
0.0616502
0.0641309
0.0867294
0.103454
0.0936839
0.0800785
0.0612812
0.0656033
0.0887247
0.105269
0.0673302
0.0658921
0.0573935
0.0645165
0.0900154
0.114707
0.116602
0.093344
0.0662951
0.0627359
0.083205
0.0981365
0.107012
0.0898412
0.0658202
0.0634811
0.0837913
0.0983681
0.107171
0.0899121
0.0665109
0.0630475
0.0822225
0.0958998
0.10912
0.0922703
0.0680302
0.0597596
0.0683515
0.0698493
0.119429
0.0938357
0.0671209
0.0690021
0.0978103
0.121861
0.102042
0.0866292
0.0654881
0.0685294
0.0931346
0.111758
0.102236
0.0869472
0.0657183
0.06881
0.0931941
0.110999
0.099746
0.0853925
0.0654218
0.0701631
0.0948985
0.112581
0.0719632
0.0703704
0.0615042
0.0687282
0.0958515
0.121934
0.125375
0.100168
0.0709251
0.0675849
0.0888086
0.104396
0.115685
0.0963906
0.0708439
0.0672612
0.0872034
0.101196
0.116787
0.0985576
0.0723957
0.0640138
0.0728386
0.0740243
0.126972
0.100145
0.07191
0.0739459
0.104671
0.130317
0.108181
0.0918557
0.0697168
0.0730254
0.0989929
0.11888
0.108165
0.092114
0.0698762
0.0737186
0.0997794
0.118775
0.105294
0.0903471
0.0696182
0.0752214
0.101601
0.120741
0.0773958
0.0754674
0.0656738
0.0739956
0.102495
0.12978
0.133135
0.107051
0.076259
0.0722871
0.0947583
0.111188
0.123753
0.1033
0.0758118
0.0722732
0.093072
0.10782
0.124899
0.105366
0.07846
0.068624
0.0778038
0.0788288
0.13335
0.105217
0.0756831
0.0786382
0.110901
0.13792
0.113786
0.0967635
0.0738254
0.0784745
0.10644
0.127664
0.110075
0.094667
0.0732178
0.0793879
0.107668
0.127882
0.0810374
0.0791425
0.0690488
0.0778157
0.107408
0.135873
0.142454
0.114028
0.0811054
0.0750444
0.0966307
0.112267
0.132535
0.11104
0.0814177
0.0708996
0.0802329
0.0812317
0.141162
0.111229
0.0802524
0.0837641
0.117799
0.146178
0.120865
0.103424
0.0791392
0.0824165
0.112356
0.134766
0.116623
0.100476
0.0777457
0.0830483
0.112987
0.134587
0.0839436
0.082578
0.0727601
0.0808857
0.112056
0.142202
0.149796
0.119621
0.0846374
0.0781735
0.100868
0.11721
0.139475
0.11677
0.0849847
0.0735327
0.0831873
0.0843144
0.146155
0.115222
0.0829952
0.0870014
0.123509
0.154371
0.122332
0.105224
0.0815415
0.0882954
0.12046
0.144206
0.0863389
0.08596
0.0766553
0.0844975
0.117607
0.14958
0.158912
0.126913
0.0892135
0.0821793
0.105887
0.122756
0.146791
0.122621
0.0891921
0.0770073
0.0868095
0.0877174
0.152656
0.119988
0.0863324
0.0907141
0.129063
0.162397
0.126775
0.109068
0.0843121
0.0911724
0.125783
0.150478
0.0896412
0.0890808
0.0791067
0.0892533
0.123742
0.157234
0.169012
0.135683
0.0957158
0.0887
0.113487
0.130236
0.155822
0.129891
0.0943827
0.0811766
0.091073
0.0918599
0.159714
0.125757
0.0907702
0.0953948
0.1355
0.170269
0.131924
0.11356
0.0881124
0.095421
0.131407
0.158438
0.0936805
0.0930557
0.0827383
0.0926983
0.127974
0.162216
0.175069
0.140181
0.0986064
0.0905003
0.115672
0.133725
0.16497
0.137584
0.100388
0.0865998
0.0960105
0.0961207
0.162735
0.130243
0.0956837
0.101855
0.145662
0.181881
0.0958812
0.0952381
0.0854184
0.0955933
0.132328
0.167814
0.181915
0.144836
0.101363
0.0926825
0.118762
0.137363
0.168663
0.140246
0.101686
0.0872998
0.0979462
0.0987199
0.165637
0.131958
0.0970342
0.105813
0.151613
0.189368
0.097357
0.0978757
0.0889425
0.100802
0.136692
0.17135
0.195934
0.155551
0.108897
0.0895545
0.0991512
0.0991628
0.177364
0.13998
0.101045
0.108222
0.155133
0.195787
0.144828
0.125406
0.0981352
0.108512
0.150336
0.180788
0.103995
0.103316
0.0923491
0.102731
0.138575
0.17314
0.201864
0.161373
0.11307
0.0942889
0.10334
0.10301
0.178799
0.143359
0.106458
0.115135
0.164681
0.206964
0.103905
0.103787
0.0939376
0.104266
0.141215
0.176801
0.208995
0.165793
0.11527
0.0943585
0.104097
0.104148
0.178504
0.142491
0.105334
0.11678
0.168402
0.211711
0.106556
0.106675
0.0966141
0.108358
0.145562
0.182106
0.219271
0.174826
0.12187
0.0943992
0.0980542
0.0931966
0.123978
0.115723
0.0984779
0.105753
0.145499
0.186065
0.226091
0.175979
0.119564
0.096261
0.105125
0.104098
0.183388
0.145885
0.107957
0.124001
0.180489
0.228866
0.0931501
0.0982097
0.096153
0.105957
0.123293
0.130636
0.192289
0.150898
0.109892
0.123915
0.183912
0.237604
0.0937375
0.098102
0.0942157
0.100919
0.119167
0.128221
0.191755
0.149478
0.109141
0.129484
0.191097
0.24395
0.0922403
0.0986911
0.0976592
0.106435
0.123842
0.130148
0.190568
0.148616
0.108045
0.127958
0.191014
0.247161
0.0913226
0.0967662
0.0943655
0.0990243
0.110947
0.114376
0.130419
0.120243
0.10305
0.114408
0.156818
0.197773
0.249206
0.190913
0.125501
0.0906808
0.0938747
0.0891504
0.103987
0.102332
0.0925821
0.0915866
0.100291
0.102591
0.107661
0.105574
0.0935864
0.0926614
0.111578
0.119871
0.177434
0.135898
0.0961495
0.123733
0.190129
0.249895
0.0841759
0.089497
0.0873689
0.0866761
0.0960313
0.0966563
0.0917517
0.0880576
0.0775062
0.0762498
0.0874128
0.0899264
0.0867088
0.0832324
0.0705585
0.0660497
0.0794776
0.0835982
0.0805557
0.0759192
0.0617142
0.0588225
0.0735968
0.0786924
0.0767362
0.0714103
0.0561583
0.0539615
0.0696136
0.0754003
0.0740094
0.0679462
0.0520001
0.0503304
0.0665326
0.0729608
0.0719015
0.0652128
0.0488164
0.0474338
0.0639727
0.0709891
0.0701031
0.0629226
0.0462606
0.0450126
0.0616904
0.0692762
0.0683313
0.060635
0.0439543
0.0429922
0.0596422
0.0675744
0.0667635
0.0587033
0.0421167
0.0413218
0.0578223
0.0660692
0.0653166
0.0569888
0.0405987
0.0399436
0.056208
0.0646754
0.0639726
0.0554684
0.039349
0.0388131
0.0547772
0.0633777
0.0627202
0.0541229
0.0383289
0.037895
0.0535128
0.0621674
0.0615498
0.0529343
0.037504
0.0371564
0.052397
0.061035
0.060456
0.051888
0.036845
0.0365702
0.0514172
0.0599782
0.059435
0.0509702
0.0363247
0.0361098
0.0505583
0.0589919
0.0584841
0.0501667
0.0359186
0.0357531
0.0498069
0.0580759
0.0576028
0.0494628
0.0356062
0.0354809
0.0491473
0.0572279
0.056788
0.0488443
0.0353699
0.0352767
0.0485675
0.0564456
0.0560377
0.0483003
0.0351941
0.0351265
0.0480575
0.0557261
0.0553487
0.0478216
0.0350662
0.0350186
0.0476084
0.055067
0.0547193
0.0473999
0.0349758
0.0349436
0.0472124
0.0544661
0.054146
0.0470273
0.0349139
0.0348932
0.0468616
0.0539198
0.0536262
0.0467021
0.0348821
0.0348707
0.0465547
0.0534255
0.053156
0.0464117
0.0348665
0.0348603
0.0462805
0.0529788
0.0527326
0.0461528
0.0348597
0.0348559
0.0460361
0.0525774
0.0523511
0.0459218
0.0348573
0.0348549
0.0458181
0.0522157
0.0520091
0.0457164
0.0348568
0.0348543
0.0456244
0.0518918
0.0517015
0.0455334
0.0348563
0.0348538
0.0454519
0.0516003
0.0514262
0.045371
0.0348555
0.0348521
0.0452989
0.0513398
0.0511787
0.0452266
0.0348536
0.0348503
0.0451631
0.0511052
0.050958
0.0450994
0.0348514
0.0348471
0.0450436
0.0508968
0.0507599
0.0449867
0.0348477
0.0348435
0.0449377
0.0507084
0.0505833
0.0448876
0.0348435
0.0348383
0.0448445
0.0505412
0.0504243
0.0447997
0.0348378
0.0348329
0.0447617
0.0503897
0.0502821
0.044722
0.0348321
0.0348266
0.0446882
0.0502549
0.0501534
0.044652