/*--------------------------------*- C++ -*----------------------------------*\
| =========                 |                                                 |
| \\      /  F ield         | OpenFOAM: The Open Source CFD Toolbox           |
|  \\    /   O peration     | Version:  v2006                                 |
|   \\  /    A nd           | Website:  www.openfoam.com                      |
|    \\/     M anipulation  |                                                 |
\*---------------------------------------------------------------------------*/
FoamFile
{
    version     2.0;
    format      ascii;
    class       volScalarField;
    location    "0.011";
    object      Ma;
}
// * * * * * * * * * * * * * * * * * * * * * * * * * * * * * * * * * * * * * //

dimensions      [0 0 0 0 0 0 0];


internalField   nonuniform List<scalar> 
16277
(
0.14358
0.143577
0.143579
0.143582
0.143589
0.143599
0.14361
0.143609
0.143569
0.143471
0.143302
0.143074
0.142816
0.142551
0.142285
0.142015
0.141736
0.141446
0.141142
0.140825
0.140495
0.140153
0.139798
0.139431
0.139051
0.138659
0.138255
0.137839
0.137411
0.136971
0.13652
0.136059
0.135586
0.135104
0.134611
0.134109
0.133598
0.133079
0.132552
0.132017
0.131476
0.130928
0.130375
0.129816
0.129253
0.128685
0.128115
0.127541
0.126964
0.126385
0.125804
0.125223
0.124642
0.124063
0.123485
0.12291
0.122337
0.121768
0.121203
0.120643
0.120089
0.119541
0.118999
0.118466
0.11794
0.117424
0.116917
0.116421
0.115935
0.115461
0.114999
0.11455
0.114114
0.113692
0.113285
0.112893
0.112516
0.112155
0.111809
0.111475
0.11115
0.110833
0.110534
0.110286
0.110132
0.110077
0.110082
0.110107
0.110126
0.110113
0.110088
0.110012
0.109829
0.109527
0.109036
0.108479
0.106436
0.105129
0.108498
0.109171
0.109274
0.108398
0.103703
0.102298
0.108269
0.109379
0.10939
0.108025
0.100986
0.0997686
0.107755
0.109359
0.109257
0.107401
0.0986316
0.0976026
0.107077
0.109147
0.108982
0.106706
0.096624
0.0957639
0.106382
0.108832
0.10863
0.105989
0.0949229
0.0941674
0.105654
0.108445
0.108209
0.105247
0.0934121
0.0927279
0.104907
0.108001
0.10774
0.104491
0.0920361
0.0914059
0.104149
0.107514
0.107232
0.103725
0.0907636
0.0901751
0.103381
0.10699
0.10669
0.102951
0.0895703
0.089013
0.102604
0.106434
0.106117
0.102168
0.0884357
0.0879011
0.101819
0.105849
0.105519
0.101377
0.087343
0.086824
0.101025
0.105241
0.104897
0.100578
0.0862789
0.0857701
0.100221
0.104608
0.104251
0.0997655
0.0852335
0.0847313
0.0994016
0.103949
0.103577
0.0989388
0.084203
0.083707
0.0985672
0.103263
0.102879
0.0980972
0.0831877
0.0826965
0.0977164
0.10255
0.102142
0.0972279
0.0821745
0.0816843
0.0968338
0.101794
0.101365
0.0963289
0.0811609
0.0806666
0.0959179
0.100995
0.100545
0.0953978
0.0801418
0.0796444
0.0949721
0.100156
0.0996861
0.0944378
0.0791176
0.0786165
0.0939978
0.0992784
0.0987878
0.0934481
0.0780856
0.0775783
0.0929916
0.0983593
0.0978457
0.0924238
0.0770404
0.0765245
0.0919482
0.097394
0.0968549
0.0913601
0.0759774
0.0754512
0.0908628
0.0963772
0.09581
0.0902518
0.0748932
0.0743545
0.08973
0.0953035
0.0947058
0.0890937
0.0737836
0.0732299
0.0885452
0.0941685
0.0935388
0.0878819
0.0726425
0.072069
0.087304
0.0929688
0.0923051
0.0866106
0.0714595
0.070861
0.0860005
0.0917005
0.0910012
0.0852742
0.0702243
0.0695959
0.0846287
0.09036
0.0896229
0.0838664
0.0689274
0.0682651
0.0831825
0.0889429
0.0881658
0.0823813
0.0675608
0.0668608
0.081656
0.0874447
0.0866253
0.0808131
0.0661174
0.065377
0.0800438
0.085861
0.0849971
0.0791563
0.0645916
0.0638078
0.0783403
0.0841873
0.0832769
0.0774058
0.0629775
0.0621473
0.0765405
0.0824199
0.0814612
0.0755564
0.0612687
0.0603882
0.0746389
0.080555
0.0795459
0.0736024
0.0594576
0.0585246
0.0726308
0.0785891
0.0775285
0.0715405
0.0575406
0.056555
0.0705143
0.0765205
0.0754085
0.0693706
0.0555186
0.0544828
0.0682909
0.0743499
0.0731873
0.0670954
0.0533969
0.0523138
0.065964
0.0720793
0.0708672
0.0647183
0.0511813
0.050054
0.0635367
0.0697109
0.0684503
0.0622422
0.048878
0.0477099
0.0610119
0.0672465
0.0659383
0.0596706
0.0464942
0.045289
0.0583939
0.0646885
0.063335
0.0570083
0.044037
0.0427958
0.0556872
0.0620415
0.0606445
0.0542578
0.0415055
0.0402243
0.0528902
0.0593084
0.0578688
0.0514099
0.0388673
0.0374941
0.0499859
0.056492
0.055008
0.0484421
0.0360366
0.0345606
0.0469479
0.0535863
0.0520475
0.0453201
0.032992
0.0313925
0.0437316
0.0505683
0.0489583
0.0419898
0.0296744
0.0278987
0.0402675
0.0474036
0.045697
0.0383522
0.0259601
0.0239006
0.0364194
0.044053
0.0422776
0.0342777
0.0215349
0.0188927
0.0321889
0.0406663
0.0389704
0.0300522
0.0162164
0.0141539
0.0282551
0.03746
0.0358334
0.0266519
0.013117
0.0132742
0.0253187
0.0343428
0.0329191
0.0243017
0.0135272
0.0141003
0.0238251
0.0318575
0.0310573
0.0235509
0.0144716
0.0151398
0.0237596
0.0307828
0.0305272
0.0239611
0.0156962
0.0165234
0.02451
0.0307516
0.0308168
0.0249585
0.0171932
0.0180574
0.0256484
0.0312493
0.0314787
0.0261834
0.0187223
0.0195549
0.0269061
0.032011
0.0323336
0.0274704
0.0201978
0.0209969
0.0281959
0.0329157
0.0332947
0.0287736
0.0216208
0.0223831
0.029491
0.0339002
0.0343144
0.0300707
0.0229766
0.02369
0.03077
0.0349276
0.0353597
0.0313377
0.0242355
0.0248844
0.0320058
0.0359643
0.0363986
0.0325469
0.0253664
0.0259391
0.0331719
0.0369814
0.0374026
0.0336722
0.0263445
0.0268326
0.0342428
0.0379518
0.0383492
0.0346925
0.0271531
0.0275534
0.0352032
0.0388589
0.0392257
0.0355969
0.0277876
0.0281031
0.0360471
0.0396939
0.0400272
0.0363822
0.0282596
0.0284976
0.0367761
0.0404548
0.0407553
0.0370522
0.0285926
0.0287598
0.0374017
0.0411483
0.0414196
0.0376364
0.0288053
0.0289136
0.0379591
0.0417912
0.0420486
0.0381743
0.02892
0.0289841
0.0384982
0.0424145
0.0426709
0.0387163
0.0289728
0.0290391
0.0390472
0.043033
0.0432927
0.0392729
0.0290379
0.0291237
0.0396132
0.0436535
0.0439255
0.0398513
0.0291339
0.0292369
0.0402089
0.0442937
0.0445867
0.0404675
0.0292554
0.0293781
0.0408498
0.0449695
0.0452861
0.0411342
0.0294097
0.0295628
0.0415405
0.0456865
0.0460251
0.0418502
0.0296177
0.0298165
0.0422737
0.0464428
0.0468018
0.0426038
0.0299045
0.0301553
0.0430345
0.0472357
0.0476137
0.0433749
0.030279
0.0305731
0.0438027
0.0480636
0.0484589
0.0441442
0.030725
0.031047
0.0445652
0.0489231
0.0493346
0.0448997
0.0312172
0.031556
0.0453111
0.0498106
0.0502373
0.045631
0.0317367
0.0320856
0.0460272
0.0507238
0.0511633
0.0463272
0.0322714
0.0326234
0.0467118
0.0516528
0.052088
0.0470028
0.0328101
0.0331587
0.0473828
0.0525625
0.0529794
0.047662
0.0333393
0.0336771
0.0480249
0.0534305
0.0538229
0.0482774
0.0338445
0.0341661
0.0486116
0.054245
0.054606
0.0488299
0.0343189
0.0346215
0.0491334
0.0549946
0.0553147
0.0493215
0.0347613
0.0350466
0.0495994
0.0556746
0.0559655
0.0497903
0.0351769
0.0355522
0.0500798
0.056312
0.0566033
0.0503084
0.0358073
0.0363333
0.0507393
0.0569571
0.0572948
0.0512249
0.0371116
0.0384096
0.0519755
0.0576441
0.0588671
0.0543776
0.0420685
0.0418337
0.0521486
0.0568129
0.0586365
0.0599908
0.0599744
0.0598913
0.0600669
0.0605596
0.0604348
0.0609661
0.0610923
0.0619265
0.0618973
0.0625738
0.0626679
0.0633052
0.0633107
0.0636121
0.063715
0.0636727
0.0636545
0.0635632
0.0627692
0.0587487
0.0492257
0.0386738
0.0221759
0.020486
0.0373449
0.0480954
0.0468244
0.0361784
0.0193249
0.0186606
0.035365
0.0458877
0.0453082
0.0349548
0.0181766
0.0180308
0.0346962
0.0449902
0.0446862
0.0344511
0.0176562
0.0175185
0.0342493
0.0445837
0.0445027
0.034141
0.0174113
0.0173165
0.0340583
0.044452
0.0444231
0.0339986
0.0172455
0.0171925
0.0339586
0.0444211
0.0444395
0.0339315
0.0171469
0.0171161
0.0339231
0.044489
0.0445604
0.0339313
0.0170871
0.0170765
0.0339625
0.0446494
0.0447574
0.0340118
0.0170698
0.0170781
0.0340796
0.0448825
0.0450249
0.0341671
0.0170971
0.0171312
0.0342761
0.0451794
0.0453452
0.0344038
0.0171802
0.0172408
0.0345529
0.0455182
0.0456977
0.0347211
0.0173225
0.01742
0.0349091
0.0458792
0.0460615
0.035111
0.0175387
0.0176723
0.0353285
0.0462436
0.0464258
0.0355572
0.0178309
0.0180061
0.0357981
0.0466081
0.04679
0.0360445
0.0182016
0.0184096
0.036299
0.0469741
0.0471607
0.036558
0.0186383
0.0188789
0.0368244
0.047352
0.0475464
0.0370905
0.019133
0.0193924
0.037358
0.0477477
0.0479535
0.037623
0.0196635
0.0199385
0.0378925
0.0481664
0.0483821
0.038159
0.0202166
0.0204934
0.0384289
0.0486041
0.0488269
0.0386971
0.0207688
0.0210453
0.0389702
0.0490546
0.0492798
0.0392394
0.021318
0.0215861
0.039512
0.0495127
0.0497438
0.0397819
0.0218483
0.0221097
0.0400576
0.0499829
0.0502181
0.0403291
0.022365
0.0226169
0.0406045
0.0504596
0.0506962
0.0408757
0.0228635
0.0231118
0.0411511
0.0509373
0.0511708
0.0414199
0.0233553
0.0235978
0.0416903
0.0514068
0.0516348
0.0419545
0.0238356
0.0240769
0.0422204
0.0518637
0.0520826
0.0424778
0.0243132
0.0245485
0.0427346
0.0523014
0.0525105
0.0429833
0.0247776
0.0250074
0.0432312
0.0527189
0.0529163
0.0434687
0.0252282
0.0254443
0.0437032
0.0531125
0.0532991
0.0439285
0.0256505
0.0258545
0.0441511
0.0534841
0.0536586
0.0443632
0.0260489
0.0262394
0.0445722
0.0538315
0.0539957
0.0447732
0.0264229
0.0266073
0.0449724
0.0541587
0.0543124
0.045163
0.0267856
0.0269606
0.0453517
0.0544648
0.0546107
0.0455333
0.0271313
0.0272982
0.045714
0.0547568
0.0548958
0.0458862
0.0274561
0.027605
0.0460564
0.0550355
0.0551712
0.0462199
0.0277446
0.0278749
0.0463825
0.0553095
0.0554439
0.0465384
0.0279927
0.0281
0.0466937
0.0555823
0.0557203
0.0468461
0.0281951
0.0282833
0.0470003
0.0558644
0.0560089
0.0471534
0.0283614
0.0284324
0.047311
0.056162
0.0563188
0.047472
0.0284982
0.028563
0.0476414
0.0564863
0.0566593
0.0478183
0.0286288
0.028698
0.0480082
0.0568454
0.0570401
0.0482115
0.0287801
0.0288801
0.0484345
0.0572501
0.0574708
0.0486777
0.0290069
0.029168
0.0489487
0.0577107
0.0579647
0.0492496
0.0293729
0.029636
0.0495885
0.0582416
0.0585365
0.0499688
0.0299639
0.03037
0.0503992
0.058859
0.0592054
0.050883
0.0308659
0.0314876
0.0514408
0.0595925
0.0600302
0.0520952
0.0323038
0.0333462
0.0528588
0.060521
0.0610132
0.0536525
0.0344112
0.0354512
0.0544316
0.0614643
0.0618427
0.0551088
0.0364797
0.0374262
0.0555398
0.0621056
0.0623149
0.0561192
0.0383775
0.0392617
0.0564869
0.0624872
0.0626067
0.0568791
0.0402544
0.0413002
0.0572696
0.0627333
0.0627599
0.0575654
0.0422907
0.0431891
0.0578397
0.0627543
0.0627368
0.0581107
0.0441291
0.0451294
0.0583638
0.0627178
0.0626739
0.058586
0.0461851
0.0468439
0.0587645
0.0624985
0.0619065
0.0583412
0.0467398
0.0341904
0.0530266
0.0597044
0.061542
0.0554768
0.0375716
0.0373117
0.0556174
0.0615756
0.0614537
0.0557489
0.0380424
0.0389922
0.0558039
0.0612808
0.0612979
0.05617
0.0402067
0.0415433
0.056435
0.0612493
0.0612438
0.0568296
0.0428809
0.0441042
0.0570012
0.0610972
0.061026
0.0573002
0.0453674
0.04655
0.057507
0.0608998
0.0607287
0.0576754
0.0476167
0.0478695
0.0573735
0.0601188
0.0584521
0.0534604
0.0392028
0.0427936
0.0557473
0.059834
0.0597329
0.0558585
0.0434134
0.0446881
0.0562152
0.0596334
0.0594703
0.0563215
0.0455877
0.0464388
0.0563321
0.0592309
0.0589968
0.0563954
0.0472887
0.0476801
0.0562272
0.0585973
0.057841
0.0556905
0.0476618
0.0402961
0.0524601
0.0563693
0.0571819
0.0540344
0.0431727
0.0435012
0.0538677
0.0567661
0.0562145
0.0536318
0.0442346
0.0448445
0.0532872
0.0556333
0.0550514
0.0530442
0.045569
0.0455409
0.0523433
0.0540282
0.0526119
0.0494702
0.0392192
0.0423987
0.0507188
0.0531131
0.0525098
0.0504056
0.0428399
0.0433329
0.0499141
0.0517359
0.0508937
0.04941
0.0434838
0.0429897
0.0482837
0.0495497
0.0482028
0.0458229
0.0375454
0.0397172
0.0462202
0.0479802
0.0466884
0.0451702
0.0393018
0.0394836
0.0442483
0.0453537
0.0435149
0.0427175
0.038709
0.0340735
0.0403683
0.0420306
0.0410594
0.0398722
0.0355616
0.0345205
0.0380684
0.0390427
0.0367386
0.0361664
0.0335912
0.0313475
0.0331716
0.0334509
0.0308956
0.029928
0.0264384
0.0255721
0.0274672
0.0278911
0.0230959
0.0229061
0.0219042
0.0163269
0.0185821
0.0195475
0.015368
0.0150834
0.0146169
0.00716939
0.00666434
0.00810015
0.0071592
0.0037988
0.00174375
0.0148695
0.0169527
0.0182391
0.0306103
0.0306116
0.0323761
0.0580233
0.0571064
0.0562177
0.0815038
0.0833044
0.0857783
0.106524
0.104117
0.101748
0.11382
0.115882
0.116446
0.11921
0.121308
0.120462
0.118588
0.117975
0.114014
0.112608
0.11929
0.120669
0.117548
0.115305
0.108504
0.108357
0.116529
0.118938
0.116584
0.113555
0.105413
0.100417
0.10989
0.113657
0.115404
0.112079
0.10171
0.0970588
0.107923
0.11207
0.114163
0.11082
0.100752
0.0985903
0.108656
0.112523
0.10961
0.105175
0.094545
0.0978062
0.108138
0.111585
0.110029
0.105925
0.0953634
0.0915749
0.102626
0.107283
0.109479
0.106052
0.0954353
0.0932104
0.104088
0.108167
0.105337
0.100619
0.0891281
0.0932424
0.10399
0.10747
0.106563
0.102542
0.0916514
0.0875973
0.0990568
0.103861
0.106
0.102517
0.0920931
0.0908932
0.10142
0.105382
0.102747
0.0981171
0.0868934
0.0907563
0.101325
0.104772
0.104197
0.100228
0.0895401
0.0859837
0.097164
0.101783
0.103936
0.100533
0.0901023
0.0887523
0.0994218
0.103369
0.100958
0.0963732
0.0850813
0.0894379
0.0997314
0.103104
0.102713
0.0989011
0.0881771
0.0863065
0.0973558
0.101698
0.0988808
0.0937007
0.0814509
0.086133
0.0976908
0.101297
0.101132
0.0968554
0.0849341
0.0808696
0.0935615
0.0986141
0.10094
0.0973276
0.085693
0.0841766
0.0960999
0.100447
0.0978885
0.0928512
0.0801058
0.0851802
0.0968345
0.100333
0.100219
0.096039
0.0841318
0.0801908
0.092789
0.0977567
0.100132
0.0964976
0.084747
0.083473
0.0954967
0.0998282
0.0974904
0.0924458
0.0798726
0.0849336
0.0964856
0.100062
0.0998796
0.0956349
0.0837209
0.0798961
0.0922139
0.0973458
0.0998462
0.0961573
0.0846671
0.0834815
0.0952834
0.0996385
0.0973576
0.0922609
0.0799749
0.0850239
0.0964657
0.100022
0.0998629
0.0955702
0.0838033
0.0796087
0.0921128
0.0972332
0.0999108
0.0963024
0.0842827
0.081837
0.0940855
0.0985169
0.101215
0.0980138
0.0872349
0.0865951
0.097324
0.101164
0.0989545
0.0944346
0.0833249
0.0875142
0.098028
0.101383
0.101146
0.0971452
0.0862185
0.0830578
0.0944727
0.0991217
0.101804
0.0985987
0.0881164
0.0873603
0.0981172
0.101952
0.0998669
0.0953436
0.0841577
0.0883745
0.0989853
0.102249
0.10197
0.0980129
0.0869552
0.0833594
0.0949629
0.0997821
0.102348
0.0990277
0.0883409
0.0877171
0.0986584
0.102619
0.100404
0.0957591
0.0842008
0.0882791
0.0996693
0.102921
0.101387
0.0972737
0.0856514
0.0895722
0.100534
0.103705
0.103544
0.0996772
0.0885062
0.0857285
0.0971005
0.101614
0.104189
0.101113
0.0904978
0.0895877
0.100563
0.104315
0.102134
0.0975798
0.0861325
0.0902362
0.101476
0.104605
0.103038
0.0989393
0.0874301
0.09165
0.102223
0.10539
0.105558
0.101846
0.0912957
0.0885524
0.0994023
0.103753
0.106141
0.103099
0.092838
0.0919167
0.102494
0.106226
0.104113
0.0996465
0.0884216
0.0922272
0.103412
0.106524
0.104893
0.100769
0.0892557
0.0934779
0.104006
0.107082
0.107385
0.103733
0.0932062
0.0903795
0.101387
0.10564
0.107997
0.105022
0.0945571
0.0935982
0.104379
0.108123
0.105959
0.10149
0.0900488
0.0937777
0.105181
0.108288
0.106716
0.102619
0.0908974
0.0952483
0.105974
0.109071
0.109271
0.105494
0.0948168
0.0917339
0.102905
0.107324
0.109878
0.106851
0.0957572
0.0935575
0.10482
0.10875
0.111214
0.108356
0.0979924
0.0968488
0.107401
0.111016
0.108728
0.104263
0.0933101
0.0966099
0.107751
0.110947
0.109758
0.105634
0.0943218
0.0993688
0.109538
0.11245
0.11255
0.108906
0.0986348
0.0953969
0.106125
0.110563
0.113011
0.110024
0.0992371
0.096844
0.107891
0.111775
0.114064
0.111221
0.100962
0.0998184
0.110175
0.11381
0.111454
0.107036
0.0959502
0.0997515
0.110753
0.113713
0.112874
0.109084
0.0979874
0.102392
0.112766
0.115504
0.115667
0.112164
0.101671
0.0982343
0.10931
0.113612
0.115901
0.112967
0.101692
0.0992692
0.110584
0.114572
0.116956
0.114086
0.103158
0.100444
0.111469
0.115369
0.117354
0.114483
0.104181
0.103807
0.114035
0.117595
0.115857
0.11161
0.100985
0.104746
0.115465
0.118366
0.117274
0.113458
0.102505
0.106542
0.116906
0.119635
0.119583
0.115998
0.105496
0.101998
0.113137
0.117469
0.119706
0.116731
0.105212
0.102268
0.114014
0.118099
0.120373
0.117444
0.106049
0.104299
0.115588
0.119405
0.121916
0.119213
0.108945
0.108181
0.118547
0.122059
0.120165
0.115892
0.105127
0.108547
0.119648
0.12253
0.121161
0.117277
0.105934
0.109902
0.120874
0.12361
0.122346
0.118684
0.107805
0.111239
0.121587
0.124357
0.124094
0.120443
0.109975
0.106681
0.117703
0.122136
0.124664
0.121799
0.110684
0.10858
0.119802
0.123645
0.126131
0.123495
0.112629
0.110619
0.121438
0.12506
0.127291
0.124671
0.114605
0.113799
0.123893
0.127312
0.12538
0.121192
0.110591
0.11372
0.124695
0.127571
0.126089
0.122177
0.110997
0.114416
0.125531
0.128387
0.127332
0.123519
0.112529
0.116762
0.126941
0.129619
0.129816
0.126309
0.116092
0.112827
0.123736
0.127938
0.130244
0.127497
0.116121
0.113663
0.125303
0.129044
0.131378
0.128831
0.117536
0.115343
0.12656
0.130177
0.132295
0.129653
0.119305
0.118294
0.128694
0.132184
0.129978
0.125607
0.114575
0.117806
0.129209
0.132193
0.13118
0.127174
0.115725
0.120136
0.131217
0.133944
0.132854
0.129102
0.118179
0.121927
0.132657
0.135252
0.134126
0.130589
0.119908
0.123649
0.133694
0.136251
0.136262
0.132854
0.122825
0.119588
0.130133
0.134349
0.136564
0.133714
0.122448
0.119799
0.131299
0.135215
0.137504
0.134663
0.12311
0.120767
0.132248
0.136211
0.138605
0.135913
0.125026
0.123216
0.133956
0.137633
0.139927
0.137387
0.127353
0.126618
0.13673
0.140103
0.138282
0.134085
0.123411
0.126641
0.137831
0.140595
0.139402
0.135558
0.12416
0.127907
0.139172
0.141859
0.140572
0.136819
0.125669
0.12935
0.140191
0.142798
0.141536
0.13787
0.127166
0.130667
0.140867
0.143566
0.143715
0.140238
0.130006
0.127001
0.137678
0.141949
0.144329
0.141529
0.130262
0.12784
0.139348
0.143235
0.145774
0.143154
0.131805
0.129669
0.140871
0.144605
0.146805
0.14421
0.133274
0.131129
0.142013
0.145667
0.147801
0.145206
0.13506
0.134253
0.144408
0.147877
0.145935
0.141699
0.130807
0.133649
0.145278
0.148135
0.146869
0.142854
0.131011
0.135246
0.146805
0.149538
0.148467
0.144591
0.133312
0.137155
0.148316
0.150973
0.149811
0.1461
0.135063
0.138616
0.14947
0.152094
0.151012
0.147391
0.136681
0.14045
0.150642
0.153198
0.153357
0.1499
0.139637
0.136341
0.147195
0.151506
0.153804
0.150931
0.13947
0.136763
0.148519
0.152483
0.154847
0.152101
0.140386
0.138013
0.149579
0.153552
0.156049
0.153309
0.142058
0.140186
0.151208
0.155003
0.157404
0.154768
0.143875
0.142045
0.152828
0.156464
0.15881
0.156267
0.14621
0.145373
0.155548
0.158957
0.157131
0.152875
0.142085
0.145502
0.156717
0.159526
0.158362
0.154415
0.143115
0.147086
0.158352
0.161027
0.159836
0.156031
0.144865
0.148389
0.159506
0.162177
0.160888
0.157096
0.146152
0.149778
0.160541
0.163201
0.162252
0.158653
0.14799
0.151792
0.161965
0.164506
0.164774
0.161345
0.151123
0.147946
0.158756
0.163017
0.165301
0.162475
0.150882
0.148428
0.160211
0.164192
0.166793
0.164143
0.152347
0.150018
0.161768
0.165607
0.16804
0.165412
0.153919
0.151873
0.163163
0.166885
0.16916
0.16653
0.155425
0.153521
0.164447
0.168127
0.170457
0.167904
0.157646
0.156891
0.167235
0.17072
0.168952
0.164637
0.153715
0.156972
0.168493
0.171358
0.170312
0.16635
0.154684
0.158768
0.170428
0.173086
0.171924
0.168065
0.156445
0.160379
0.171764
0.17441
0.173311
0.169593
0.158435
0.162004
0.173069
0.175706
0.174711
0.171027
0.160108
0.164107
0.174443
0.177002
0.17727
0.173749
0.163301
0.159978
0.17114
0.175507
0.177935
0.175053
0.163246
0.16071
0.1727
0.176774
0.179446
0.176705
0.164758
0.162452
0.17432
0.178289
0.180919
0.178213
0.166401
0.164341
0.175931
0.179799
0.18228
0.179591
0.168079
0.166062
0.177344
0.18118
0.18373
0.181099
0.17006
0.168243
0.179155
0.182829
0.185212
0.182638
0.172454
0.171724
0.182057
0.185575
0.183899
0.179608
0.168687
0.172111
0.183561
0.186409
0.185385
0.181421
0.169839
0.17405
0.185561
0.188204
0.187151
0.183323
0.17198
0.175808
0.187042
0.189691
0.188617
0.18483
0.173862
0.1776
0.188453
0.191079
0.190128
0.186496
0.175723
0.1797
0.189952
0.192497
0.192794
0.189282
0.178821
0.175835
0.186842
0.191136
0.193611
0.190801
0.179216
0.176641
0.188413
0.192447
0.195182
0.19249
0.180702
0.178658
0.190314
0.194178
0.196718
0.194079
0.182505
0.18064
0.191962
0.19577
0.198436
0.19588
0.184739
0.183027
0.194055
0.197666
0.200083
0.197617
0.187278
0.186138
0.196796
0.200347
0.198656
0.19426
0.1831
0.186714
0.198361
0.201281
0.200146
0.196045
0.184217
0.188449
0.200229
0.203
0.201931
0.19793
0.186325
0.190495
0.201941
0.204653
0.203698
0.199881
0.188667
0.192564
0.203658
0.206303
0.205497
0.201774
0.190737
0.195135
0.205519
0.208082
0.20865
0.205083
0.194459
0.191621
0.202763
0.207153
0.209829
0.207024
0.19538
0.193106
0.204856
0.208831
0.211616
0.20889
0.197052
0.194674
0.206426
0.210444
0.212966
0.210205
0.198563
0.196461
0.207964
0.211899
0.214632
0.21197
0.200698
0.198751
0.21004
0.213798
0.216335
0.213742
0.203097
0.202406
0.213319
0.216929
0.21537
0.210954
0.199605
0.203279
0.215137
0.218075
0.217138
0.213027
0.201085
0.205715
0.21751
0.220243
0.21951
0.215571
0.203868
0.208877
0.220066
0.222567
0.221807
0.218219
0.207077
0.210629
0.221522
0.224103
0.224251
0.220559
0.209251
0.206058
0.217866
0.222466
0.225156
0.222149
0.209752
0.207201
0.219796
0.224042
0.22704
0.224229
0.211765
0.209473
0.221899
0.226027
0.228934
0.226122
0.214168
0.212023
0.22402
0.228052
0.230837
0.228097
0.216885
0.216273
0.227813
0.231652
0.230138
0.225437
0.213467
0.21759
0.230071
0.23313
0.232446
0.22819
0.215551
0.221365
0.233492
0.236061
0.235045
0.231127
0.219023
0.222609
0.234712
0.23753
0.236346
0.232292
0.220129
0.224631
0.236164
0.239011
0.239404
0.235375
0.22339
0.220374
0.232765
0.237711
0.240745
0.237579
0.224794
0.222067
0.235178
0.239625
0.242843
0.239889
0.227054
0.22494
0.23771
0.242014
0.245397
0.242516
0.230115
0.228021
0.240561
0.244722
0.247788
0.245018
0.233251
0.232927
0.24508
0.249009
0.247845
0.243205
0.230818
0.235335
0.248137
0.251069
0.249583
0.245202
0.232003
0.236372
0.24936
0.252399
0.251163
0.246842
0.233846
0.238519
0.251243
0.254226
0.253237
0.248949
0.236176
0.241114
0.253202
0.256153
0.256813
0.252669
0.240169
0.237211
0.250111
0.255134
0.258266
0.255012
0.241876
0.239451
0.25288
0.257431
0.261174
0.258286
0.245365
0.243272
0.256462
0.260718
0.264151
0.261383
0.249124
0.249447
0.261998
0.265829
0.264296
0.259563
0.246965
0.250547
0.263758
0.267054
0.265426
0.260723
0.247078
0.251929
0.265411
0.268655
0.267506
0.262907
0.249369
0.254614
0.267772
0.270855
0.270064
0.265638
0.252434
0.25786
0.270293
0.273337
0.27422
0.269915
0.257026
0.254272
0.267415
0.272665
0.276101
0.272714
0.259441
0.257069
0.270703
0.275414
0.279543
0.276629
0.263426
0.261767
0.275198
0.279511
0.283348
0.281002
0.269488
0.269227
0.28107
0.284545
0.282429
0.277639
0.26477
0.268201
0.281776
0.285147
0.283815
0.27905
0.265012
0.270463
0.28416
0.28737
0.286561
0.28196
0.267995
0.273852
0.28692
0.290017
0.29097
0.286507
0.272874
0.269971
0.283899
0.289414
0.293004
0.289512
0.275783
0.273226
0.28751
0.292394
0.296582
0.293465
0.280097
0.279951
0.294089
0.298657
0.297954
0.292556
0.278195
0.285543
0.299352
0.30231
0.301013
0.296436
0.282193
0.286176
0.300634
0.304063
0.302488
0.297485
0.282608
0.288274
0.302304
0.305743
0.306413
0.30155
0.28695
0.283677
0.298755
0.304668
0.308619
0.304821
0.28978
0.287027
0.302675
0.307911
0.312318
0.309001
0.294531
0.294013
0.309273
0.314142
0.312804
0.306832
0.291117
0.29824
0.313572
0.317253
0.31753
0.312454
0.296835
0.306396
0.320158
0.322818
0.323684
0.319398
0.304831
0.299191
0.315027
0.320884
0.324111
0.320098
0.304135
0.3004
0.317026
0.322661
0.326791
0.323061
0.307676
0.30663
0.322829
0.328167
0.326523
0.32005
0.303384
0.310398
0.326933
0.331119
0.330489
0.324667
0.307548
0.316564
0.332216
0.335746
0.338356
0.333073
0.316479
0.31417
0.331221
0.337652
0.3434
0.340431
0.325533
0.323354
0.338603
0.343142
0.346796
0.343316
0.327917
0.32468
0.34132
0.346573
0.344003
0.337309
0.319904
0.326706
0.343947
0.348353
0.347207
0.341147
0.323281
0.331702
0.348183
0.352101
0.354195
0.348531
0.331203
0.328258
0.345993
0.352879
0.358026
0.353836
0.336723
0.334924
0.352673
0.358555
0.365174
0.36234
0.34759
0.350747
0.365776
0.369537
0.368109
0.362877
0.347226
0.350691
0.367112
0.371253
0.370718
0.364941
0.346952
0.342016
0.360865
0.368176
0.373269
0.368666
0.350197
0.346977
0.366147
0.37251
0.378278
0.374297
0.35693
0.357155
0.375456
0.381231
0.380584
0.37358
0.35468
0.364998
0.382241
0.38631
0.390816
0.385428
0.366944
0.366826
0.385117
0.391369
0.397262
0.393417
0.375428
0.370408
0.390624
0.396786
0.393266
0.385182
0.363963
0.372607
0.392972
0.398214
0.39687
0.389772
0.368792
0.379615
0.398416
0.402971
0.406073
0.399658
0.379931
0.378052
0.398186
0.405835
0.412575
0.408402
0.39065
0.394175
0.413057
0.41832
0.419464
0.413496
0.395007
0.40362
0.421816
0.425516
0.424716
0.418597
0.397926
0.391059
0.413032
0.421287
0.426325
0.420945
0.40076
0.399118
0.42087
0.427914
0.426973
0.41841
0.396013
0.409757
0.429781
0.434702
0.440236
0.43356
0.411892
0.414233
0.435604
0.44278
0.452002
0.449231
0.431734
0.428245
0.448499
0.453502
0.452236
0.444593
0.420831
0.41183
0.438105
0.44815
0.454113
0.447895
0.424128
0.422641
0.448545
0.456645
0.456776
0.446967
0.420483
0.441201
0.462593
0.467145
0.477133
0.473005
0.450685
0.453886
0.476566
0.482299
0.478051
0.468841
0.442223
0.449852
0.475162
0.481942
0.480947
0.472653
0.443895
0.440783
0.471507
0.481909
0.481616
0.46939
0.437733
0.466626
0.489569
0.494179
0.505046
0.500885
0.476854
0.475246
0.501589
0.508511
0.502285
0.491245
0.4593
0.470023
0.498434
0.506154
0.50661
0.498149
0.466007
0.465685
0.500874
0.510878
0.521485
0.511911
0.476391
0.475955
0.509999
0.521324
0.528223
0.519407
0.485925
0.473826
0.513074
0.524526
0.52418
0.511452
0.468162
0.471043
0.517091
0.528892
0.533891
0.520557
0.47236
0.461329
0.515297
0.532567
0.520831
0.499488
0.443028
0.474646
0.514799
0.526909
0.524665
0.513309
0.472447
0.461965
0.508144
0.521983
0.515657
0.499295
0.44392
0.426302
0.487209
0.50563
0.493741
0.472949
0.406534
0.383846
0.457778
0.481744
0.470682
0.443873
0.364164
0.348352
0.432262
0.46146
0.453705
0.422219
0.334855
0.322845
0.413077
0.446784
0.440398
0.40455
0.311994
0.302206
0.396556
0.434433
0.428818
0.389043
0.293286
0.285143
0.381961
0.423493
0.418418
0.375273
0.277712
0.270911
0.368941
0.413557
0.408896
0.362952
0.264715
0.259086
0.357307
0.404424
0.400127
0.351985
0.25397
0.249328
0.346976
0.395989
0.392001
0.342258
0.245111
0.241292
0.337821
0.388147
0.384424
0.333644
0.237835
0.234721
0.329719
0.380823
0.37734
0.326026
0.231915
0.229399
0.322559
0.373965
0.370698
0.3193
0.227143
0.225133
0.316246
0.367536
0.364476
0.313379
0.223343
0.221758
0.310695
0.361514
0.358649
0.308178
0.220352
0.219116
0.305824
0.355882
0.35321
0.303618
0.218026
0.217075
0.30155
0.350634
0.348151
0.299606
0.216243
0.215523
0.297783
0.345764
0.343468
0.296068
0.214899
0.214363
0.294459
0.341266
0.339149
0.292945
0.213903
0.213514
0.291525
0.337122
0.335178
0.290187
0.213183
0.212907
0.288932
0.333324
0.331547
0.287748
0.212676
0.212487
0.286635
0.329856
0.328239
0.285585
0.21233
0.212206
0.284598
0.326704
0.325238
0.28366
0.212119
0.212051
0.282777
0.323847
0.322521
0.281939
0.212009
0.211976
0.281152
0.321265
0.320069
0.280406
0.211961
0.211946
0.279705
0.318938
0.317861
0.279041
0.211944
0.211939
0.278418
0.316844
0.315876
0.277828
0.211943
0.21194
0.277275
0.314962
0.314093
0.27675
0.211944
0.211941
0.276259
0.313274
0.312495
0.275794
0.211944
0.211938
0.275359
0.311759
0.311061
0.274946
0.211938
0.211931
0.274563
0.310404
0.309779
0.2742
0.21193
0.21192
0.273861
0.30919
0.308628
0.27354
0.211914
0.211903
0.273242
0.308101
0.307599
0.27296
0.211896
0.211881
0.272696
0.307125
0.306672
0.272446
0.211869
0.211852
0.272212
0.306246
0.30584
0.27199
0.211841
0.211822
0.27178
0.305454
0.305085
0.271579
0.211808
0.211789
0.271391
0.304737
0.304405
0.271212
0.211776
0.211755
0.271042
0.304088
0.303785
0.27088
0.211738
0.211718
0.270728
0.3035
0.303226
0.270584
0.211702
0.21168
0.270448
0.302967
0.302717
0.270317
0.211662
0.211642
0.270197
0.302483
0.302258
0.270083
0.211628
0.211607
0.269975
0.302046
0.301841
0.269873
0.211591
0.211574
0.269779
0.301651
0.301472
0.269691
0.211563
0.211546
0.269608
0.301298
0.301139
0.269531
0.211535
0.211523
0.269461
0.300985
0.300848
0.269399
0.211519
0.211512
0.269342
0.300711
0.300591
0.269289
0.21151
0.211507
0.269243
0.300467
0.300365
0.269203
0.211512
0.211516
0.269168
0.300258
0.30017
0.269139
0.211527
0.211534
0.269112
0.300074
0.300001
0.269093
0.21155
0.211565
0.269077
0.299918
0.299858
0.269067
0.211586
0.211607
0.269059
0.299787
0.29974
0.26906
0.211635
0.211663
0.269061
0.29968
0.299643
0.269069
0.211695
0.211726
0.269076
0.299592
0.299564
0.26909
0.211763
0.211799
0.269104
0.299521
0.299502
0.269123
0.211839
0.211879
0.269143
0.299465
0.299456
0.269168
0.211923
0.211966
0.269191
0.299425
0.299424
0.269222
0.212014
0.21206
0.269249
0.299397
0.299405
0.269285
0.212112
0.212161
0.269316
0.299384
0.299399
0.269357
0.212217
0.212271
0.269394
0.299384
0.299407
0.269439
0.21233
0.212388
0.269481
0.299398
0.299427
0.269531
0.212452
0.212515
0.269579
0.299426
0.299464
0.269637
0.212586
0.212657
0.269693
0.299473
0.29952
0.269758
0.212735
0.212814
0.269823
0.299539
0.299597
0.269899
0.212901
0.21299
0.269975
0.299628
0.299699
0.270061
0.213088
0.213188
0.270148
0.299741
0.299828
0.270247
0.213297
0.213411
0.270349
0.299884
0.299989
0.270463
0.213535
0.213663
0.27058
0.30006
0.30018
0.270708
0.2138
0.213935
0.270834
0.300261
0.300388
0.270968
0.214076
0.214218
0.271102
0.300477
0.300613
0.271243
0.214365
0.214506
0.271379
0.300705
0.300839
0.271517
0.214647
0.214785
0.271652
0.300931
0.301069
0.271792
0.214926
0.21506
0.271924
0.301161
0.301291
0.272056
0.21519
0.215319
0.272185
0.30138
0.301515
0.27232
0.215451
0.215577
0.272449
0.301605
0.301736
0.272579
0.215703
0.215826
0.272706
0.301826
0.301963
0.272841
0.215955
0.21608
0.27297
0.302056
0.302192
0.273103
0.216205
0.216328
0.273233
0.302286
0.302427
0.273369
0.216457
0.216581
0.273501
0.302524
0.302664
0.273636
0.216705
0.216829
0.273768
0.302762
0.302907
0.273906
0.216956
0.217079
0.274039
0.303007
0.303149
0.274174
0.217202
0.217323
0.274306
0.303249
0.303396
0.274444
0.217448
0.217568
0.274577
0.303497