/*--------------------------------*- C++ -*----------------------------------*\
| =========                 |                                                 |
| \\      /  F ield         | OpenFOAM: The Open Source CFD Toolbox           |
|  \\    /   O peration     | Version:  v2006                                 |
|   \\  /    A nd           | Website:  www.openfoam.com                      |
|    \\/     M anipulation  |                                                 |
\*---------------------------------------------------------------------------*/
FoamFile
{
    version     2.0;
    format      ascii;
    class       volScalarField;
    location    "0.011";
    object      turbulenceProperties:I;
}
// * * * * * * * * * * * * * * * * * * * * * * * * * * * * * * * * * * * * * //

dimensions      [0 0 0 0 0 0 0];


internalField   nonuniform List<scalar> 
16277
(
0.150008
0.15001
0.150004
0.150004
0.150002
0.15
0.149997
0.149999
0.15001
0.150029
0.150049
0.150063
0.150068
0.150066
0.150063
0.150061
0.150062
0.150064
0.150068
0.150072
0.150077
0.150081
0.150086
0.150089
0.150093
0.150095
0.150097
0.150098
0.150098
0.150097
0.150095
0.150093
0.15009
0.150086
0.150082
0.150077
0.150072
0.150066
0.150059
0.150052
0.150044
0.150036
0.150028
0.150019
0.150009
0.149999
0.149989
0.149981
0.149973
0.149965
0.149956
0.149947
0.149937
0.149925
0.149913
0.1499
0.149887
0.149872
0.149858
0.149842
0.149827
0.14981
0.149794
0.149777
0.14976
0.149742
0.149725
0.149707
0.14969
0.149672
0.149655
0.149638
0.149621
0.149605
0.149589
0.149574
0.14956
0.149548
0.149537
0.14953
0.149529
0.149538
0.149564
0.149613
0.149676
0.149732
0.149771
0.149784
0.149776
0.149838
0.149907
0.149866
0.149835
0.149841
0.149722
0.149112
0.144815
0.138471
0.14539
0.14823
0.144917
0.138186
0.132382
0.128309
0.134205
0.142448
0.138234
0.128012
0.124175
0.121861
0.125598
0.136401
0.132522
0.1208
0.119127
0.117767
0.119318
0.131122
0.127831
0.115689
0.115872
0.115009
0.114803
0.126754
0.12392
0.112165
0.113663
0.113121
0.111554
0.123016
0.120479
0.109431
0.112129
0.1118
0.108999
0.119721
0.117445
0.107256
0.111056
0.110876
0.106975
0.11683
0.114828
0.105558
0.11031
0.110232
0.105399
0.11435
0.11261
0.104244
0.109789
0.109779
0.104177
0.112246
0.110719
0.103212
0.109417
0.109446
0.103203
0.110436
0.109059
0.102359
0.109132
0.109182
0.102383
0.10883
0.107556
0.101617
0.108901
0.108964
0.101665
0.107367
0.106174
0.100959
0.108713
0.108791
0.101032
0.106023
0.104907
0.100385
0.108573
0.10867
0.100487
0.104799
0.103773
0.0999094
0.108485
0.108606
0.100049
0.10372
0.102816
0.0995633
0.108467
0.108614
0.0997499
0.102831
0.102064
0.0993611
0.108511
0.108684
0.0995996
0.102151
0.101512
0.0992991
0.108606
0.108795
0.0995803
0.101659
0.101121
0.0993469
0.108735
0.10894
0.0996638
0.10132
0.100869
0.0994851
0.108897
0.109117
0.0998364
0.101118
0.10075
0.0997063
0.10909
0.109327
0.100092
0.10105
0.100762
0.100005
0.109319
0.109578
0.100428
0.101117
0.100916
0.100389
0.109593
0.109882
0.100862
0.101339
0.101247
0.100891
0.109924
0.110246
0.101425
0.101752
0.101787
0.101534
0.110312
0.110665
0.102133
0.102379
0.102533
0.102312
0.11075
0.111133
0.102969
0.103203
0.103447
0.103199
0.111232
0.111645
0.103914
0.104183
0.10449
0.104183
0.111754
0.112197
0.104956
0.105291
0.105646
0.105255
0.112315
0.11279
0.106088
0.106509
0.106896
0.10641
0.112916
0.113429
0.107306
0.107818
0.10823
0.107652
0.113567
0.114124
0.108623
0.109221
0.109671
0.109003
0.114276
0.114882
0.110059
0.110741
0.111237
0.11048
0.115049
0.115707
0.11163
0.112391
0.112926
0.112087
0.115882
0.116591
0.113333
0.114161
0.11471
0.113809
0.116764
0.117522
0.115149
0.116016
0.116544
0.115624
0.117692
0.118504
0.117063
0.117916
0.118406
0.117534
0.118672
0.119544
0.119084
0.119851
0.120318
0.119565
0.119714
0.120653
0.121246
0.121858
0.122338
0.121755
0.120839
0.121851
0.12359
0.124001
0.124529
0.124152
0.122066
0.123188
0.126178
0.126345
0.126968
0.126842
0.123413
0.124647
0.1291
0.12898
0.129758
0.129915
0.12504
0.126095
0.132428
0.132
0.132947
0.133383
0.126927
0.129184
0.136249
0.135436
0.13655
0.137498
0.130965
0.133938
0.140843
0.139335
0.140661
0.142507
0.136275
0.139945
0.146496
0.143858
0.145527
0.148632
0.142987
0.1475
0.153504
0.149316
0.151577
0.156445
0.151824
0.158507
0.162823
0.156255
0.159655
0.167297
0.164134
0.170815
0.172259
0.163938
0.167204
0.180984
0.18236
0.202035
0.194518
0.174339
0.183042
0.211479
0.220513
0.237763
0.237199
0.195977
0.209131
0.253053
0.242699
0.243495
0.263088
0.22316
0.230981
0.265831
0.238821
0.234589
0.265505
0.237368
0.23912
0.262087
0.2272
0.220087
0.256503
0.237863
0.235283
0.248872
0.211036
0.202559
0.241116
0.231039
0.224785
0.230774
0.193742
0.18622
0.222894
0.219334
0.211464
0.212346
0.178754
0.172652
0.205316
0.20588
0.197967
0.195893
0.166676
0.161776
0.18984
0.192735
0.185316
0.181633
0.156959
0.152914
0.176306
0.180429
0.173343
0.168894
0.148926
0.145537
0.164126
0.168727
0.161861
0.15733
0.142248
0.139456
0.153147
0.157595
0.151184
0.147141
0.136846
0.134624
0.143644
0.147416
0.141715
0.138572
0.132626
0.130898
0.135702
0.138455
0.133451
0.131479
0.129374
0.128048
0.12912
0.130616
0.126175
0.125562
0.126859
0.125858
0.123586
0.123674
0.119665
0.12049
0.124903
0.124165
0.118827
0.117423
0.113779
0.116206
0.123406
0.122868
0.114814
0.111744
0.108414
0.112579
0.122209
0.121776
0.111106
0.106534
0.103482
0.108794
0.121155
0.120786
0.107357
0.101787
0.0990616
0.105261
0.120301
0.119921
0.103892
0.0974951
0.0949507
0.101912
0.119499
0.119067
0.10046
0.0934071
0.0908238
0.0983155
0.118642
0.11813
0.0965562
0.0891747
0.0863176
0.0940239
0.117706
0.117106
0.0918374
0.0845055
0.0812991
0.0892111
0.116759
0.116046
0.0866353
0.0793116
0.0757427
0.0840346
0.115752
0.115036
0.0812632
0.0735609
0.0696737
0.0789487
0.11482
0.114138
0.0763195
0.0672701
0.0634717
0.0745389
0.113974
0.113306
0.0723231
0.0610019
0.0574514
0.0711073
0.113191
0.112545
0.0693689
0.0549464
0.0515126
0.068633
0.112467
0.111845
0.0674546
0.048783
0.0454698
0.0670874
0.111801
0.111211
0.0663743
0.0428994
0.0405295
0.0665016
0.111206
0.110658
0.0661318
0.0387481
0.0374691
0.0668959
0.110687
0.110183
0.0667211
0.0363083
0.0357418
0.0678355
0.110244
0.109784
0.0678005
0.0350397
0.0348542
0.0691257
0.109871
0.109445
0.0691552
0.0343619
0.0345551
0.0705412
0.109538
0.109146
0.0706061
0.0342896
0.0348817
0.0719458
0.109243
0.108531
0.0718541
0.0346591
0.035215
0.0729246
0.108355
0.107109
0.0720885
0.0351002
0.0343056
0.0716573
0.105616
0.10227
0.0691168
0.035505
0.0228532
0.0552544
0.091534
0.0950704
0.0646256
0.0395268
0.0269629
0.021329
0.0219053
0.022357
0.0230377
0.0262733
0.0271962
0.0290729
0.0296764
0.0319692
0.0323279
0.033988
0.034137
0.0343449
0.0343764
0.0306656
0.0301988
0.0288804
0.0278707
0.0276149
0.0286677
0.0425017
0.0769648
0.108379
0.147061
0.150428
0.112272
0.0821797
0.0862774
0.115667
0.1533
0.154265
0.117975
0.0896189
0.0913081
0.119427
0.15528
0.155779
0.120222
0.0926487
0.0937835
0.121057
0.156136
0.156538
0.121941
0.0944554
0.0951281
0.122532
0.156769
0.156971
0.122994
0.0957194
0.096387
0.12354
0.157184
0.157352
0.12399
0.0969982
0.0977257
0.12452
0.157505
0.15765
0.125035
0.0984056
0.0992286
0.125611
0.157816
0.157974
0.126228
0.100056
0.101081
0.126882
0.158126
0.158289
0.127598
0.102122
0.103402
0.128372
0.158439
0.158622
0.129212
0.104683
0.10619
0.130155
0.158822
0.158998
0.131089
0.107661
0.109303
0.132183
0.159228
0.159435
0.133254
0.110839
0.112475
0.134448
0.159698
0.159905
0.13556
0.11395
0.115437
0.136782
0.160174
0.16038
0.137865
0.116716
0.117964
0.138939
0.160606
0.160745
0.139856
0.119024
0.120021
0.140757
0.160905
0.160978
0.141475
0.120844
0.121556
0.142109
0.161039
0.161007
0.142585
0.122088
0.122441
0.142979
0.160972
0.160857
0.143208
0.122699
0.122799
0.14332
0.16072
0.160536
0.14335
0.122912
0.122845
0.143228
0.160295
0.160049
0.143083
0.122807
0.122541
0.142785
0.159759
0.159465
0.142499
0.122382
0.122019
0.142048
0.159111
0.158794
0.141687
0.121832
0.121454
0.1412
0.15844
0.158131
0.140857
0.121288
0.120921
0.140358
0.157766
0.15747
0.140028
0.120768
0.120415
0.139566
0.157136
0.156859
0.139274
0.120291
0.119965
0.1388
0.156512
0.156253
0.138541
0.119868
0.119567
0.138124
0.155944
0.155702
0.1379
0.119496
0.119222
0.137492
0.15539
0.155171
0.137297
0.119161
0.118904
0.136932
0.154896
0.154689
0.136746
0.118844
0.118601
0.136366
0.154408
0.15421
0.136171
0.118535
0.118304
0.135815
0.153957
0.153762
0.135615
0.118247
0.118035
0.135249
0.153501
0.153317
0.135061
0.117999
0.117808
0.134752
0.153093
0.152913
0.134575
0.117795
0.117625
0.134316
0.152717
0.15256
0.134173
0.11762
0.117461
0.133955
0.152395
0.152256
0.133824
0.117456
0.117299
0.133629
0.152113
0.151998
0.133508
0.117275
0.117107
0.133314
0.15188
0.151787
0.133184
0.117045
0.116852
0.13292
0.151654
0.151565
0.132736
0.116744
0.116518
0.132436
0.151449
0.151338
0.132116
0.116341
0.116067
0.13171
0.151199
0.151057
0.131258
0.11582
0.115494
0.130711
0.150892
0.15068
0.130037
0.115175
0.114787
0.129282
0.150447
0.150161
0.12839
0.114421
0.113973
0.127392
0.149841
0.149462
0.126262
0.113549
0.113045
0.124942
0.149012
0.148529
0.123548
0.112607
0.112062
0.121919
0.147955
0.14735
0.120212
0.111677
0.111116
0.118204
0.146664
0.145973
0.116144
0.110866
0.110283
0.114183
0.145132
0.143841
0.112347
0.110192
0.109654
0.110684
0.142377
0.140989
0.10894
0.109866
0.109576
0.107225
0.139666
0.138403
0.105923
0.110572
0.110696
0.105219
0.137331
0.13631
0.104095
0.112066
0.112597
0.103819
0.135316
0.134048
0.10357
0.114328
0.115465
0.103916
0.132877
0.132002
0.105145
0.117953
0.1194
0.10576
0.131168
0.130346
0.107994
0.122468
0.124678
0.110614
0.12908
0.129
0.117113
0.129184
0.131895
0.122168
0.13031
0.148228
0.103809
0.102985
0.123468
0.112891
0.141104
0.141283
0.11005
0.12247
0.124747
0.109909
0.141401
0.140229
0.10803
0.124501
0.127672
0.108749
0.139335
0.137646
0.108146
0.128154
0.132718
0.110748
0.136397
0.134919
0.110767
0.133696
0.139722
0.115784
0.134239
0.133232
0.117627
0.142004
0.149506
0.127018
0.134041
0.137199
0.135837
0.15332
0.115575
0.1061
0.145368
0.138951
0.119848
0.14663
0.147746
0.119841
0.137798
0.1371
0.126666
0.1568
0.159409
0.128352
0.136023
0.136697
0.135592
0.166714
0.170413
0.139138
0.136934
0.140712
0.150461
0.178695
0.182369
0.159439
0.146287
0.145961
0.11906
0.138421
0.175742
0.139821
0.141987
0.141698
0.140246
0.177978
0.188404
0.149875
0.143713
0.144438
0.152377
0.192165
0.205124
0.168939
0.149992
0.157113
0.182809
0.212119
0.163795
0.132118
0.150812
0.149481
0.164324
0.211067
0.217529
0.170432
0.151716
0.158296
0.192006
0.237057
0.247277
0.203481
0.164373
0.178134
0.225553
0.260438
0.207565
0.162332
0.159228
0.166344
0.210143
0.263778
0.275545
0.216581
0.171227
0.188287
0.251787
0.306182
0.326971
0.280618
0.204608
0.177025
0.208767
0.275003
0.353173
0.28779
0.200658
0.215987
0.311582
0.385371
0.44402
0.374682
0.251975
0.28599
0.43024
0.497293
0.468017
0.356862
0.243326
0.336201
0.534757
0.62499
0.775163
0.675465
0.421489
0.385855
0.66509
0.829181
1
1
0.620574
1
1
1
1
1
1
0.662683
1
1
0.759572
0.702235
0.441464
0.25387
0.378489
0.419534
0.291682
0.25829
0.174566
0.146397
0.207602
0.234084
0.207071
0.186262
0.139406
0.152847
0.188766
0.197393
0.176319
0.151051
0.142325
0.150385
0.167924
0.178077
0.155314
0.138403
0.136573
0.136706
0.147469
0.160042
0.154751
0.138578
0.133605
0.127674
0.11217
0.124613
0.139262
0.127981
0.128186
0.123853
0.112165
0.119711
0.132067
0.119324
0.119861
0.117245
0.11324
0.127105
0.102775
0.0969009
0.118378
0.114199
0.104907
0.119289
0.114185
0.101891
0.112548
0.117255
0.091535
0.0929555
0.109485
0.0972746
0.110495
0.110379
0.0949307
0.104658
0.0867042
0.0875915
0.116666
0.107937
0.0918794
0.102088
0.0972722
0.089364
0.108269
0.11581
0.084044
0.0820117
0.0957444
0.0870024
0.104954
0.106018
0.0844987
0.0912546
0.0781369
0.0808391
0.11449
0.103095
0.0832413
0.0905662
0.0863566
0.0809973
0.104795
0.11336
0.0784964
0.0751714
0.0859655
0.0797472
0.10128
0.103508
0.077764
0.0822685
0.0726704
0.0763954
0.112396
0.0994875
0.0774177
0.083182
0.0777562
0.0750445
0.101446
0.105837
0.0744319
0.0743028
0.0689216
0.0744065
0.11775
0.101157
0.0708451
0.073532
0.0714659
0.0710512
0.104997
0.116397
0.072372
0.0656502
0.0692101
0.0675779
0.0992609
0.104001
0.0688764
0.0677662
0.0634094
0.0712285
0.115742
0.0981876
0.0650039
0.0652927
0.0642438
0.0657707
0.10271
0.114848
0.069971
0.0608357
0.0631013
0.0637142
0.0977645
0.102694
0.064334
0.0621411
0.0595748
0.0699721
0.114482
0.0966607
0.0618422
0.0605042
0.0594471
0.0616221
0.10178
0.114271
0.07014
0.0579496
0.0590258
0.0610341
0.0963472
0.101694
0.0609618
0.0581371
0.0569954
0.0698213
0.113777
0.0962685
0.0595559
0.0572803
0.0561212
0.0593628
0.102066
0.115424
0.0703347
0.0561232
0.0565961
0.0580516
0.0976753
0.107878
0.0646627
0.0546176
0.0572639
0.0579223
0.0910904
0.095746
0.0576019
0.0556187
0.0553184
0.0674933
0.107145
0.0919542
0.0583597
0.0563711
0.0553511
0.0580977
0.0974339
0.108644
0.0677368
0.0551201
0.0563972
0.0582656
0.0919965
0.0968697
0.0576777
0.0546404
0.0548998
0.0682836
0.108461
0.0929344
0.0575725
0.0552346
0.0534815
0.0575254
0.0985491
0.110396
0.0688667
0.054301
0.054585
0.0571856
0.092984
0.0982837
0.0568262
0.0520344
0.0537248
0.0697541
0.110864
0.0945123
0.0535345
0.0517845
0.0513706
0.0637297
0.105581
0.0907116
0.0541104
0.0520076
0.0498656
0.0542573
0.0960206
0.10682
0.067138
0.0513996
0.0509449
0.05386
0.0909176
0.0964485
0.0536475
0.0486122
0.051206
0.0685619
0.108721
0.0925902
0.0507924
0.0484714
0.048776
0.0618876
0.103834
0.0882499
0.051536
0.0491498
0.0472178
0.0518182
0.0930765
0.104092
0.0657568
0.0491188
0.0487935
0.051993
0.0890434
0.0949297
0.0523029
0.0468002
0.0498237
0.0678472
0.10749
0.0917981
0.0492741
0.0467048
0.0474964
0.0613032
0.103305
0.0877153
0.0501365
0.0476341
0.0455526
0.0506232
0.0927484
0.103966
0.0654271
0.0478479
0.0466921
0.0502605
0.0888235
0.0948031
0.0507821
0.044867
0.0484671
0.0675313
0.107537
0.0916472
0.0478559
0.0449662
0.0460426
0.0607211
0.103197
0.0869818
0.0481983
0.0455101
0.0437374
0.0494519
0.0925771
0.104679
0.0665048
0.0473728
0.044169
0.0470185
0.0892672
0.100949
0.0599445
0.0452367
0.0447057
0.0473714
0.0853352
0.0913619
0.0483777
0.0430019
0.0469711
0.0662979
0.103678
0.0891526
0.0471582
0.0437324
0.044888
0.0598067
0.100257
0.0840543
0.0467867
0.0441205
0.0425028
0.0481477
0.0900469
0.102484
0.0659933
0.0464593
0.0431552
0.0462623
0.0875833
0.0994458
0.059374
0.0444316
0.0436863
0.0463282
0.0841716
0.0903961
0.0479856
0.0421761
0.0464531
0.0659502
0.10286
0.0879999
0.0460715
0.0429576
0.0441868
0.0591701
0.0989178
0.0840612
0.0459112
0.0431842
0.0415366
0.0471897
0.0900501
0.102636
0.0658191
0.0459936
0.0423201
0.0451512
0.0880194
0.100268
0.0611545
0.044948
0.0418284
0.0433873
0.0850959
0.0956116
0.0578666
0.0433869
0.0426657
0.04519
0.081941
0.0875194
0.0467985
0.041121
0.0452949
0.064542
0.0992854
0.0852119
0.0448774
0.0416959
0.0433487
0.0583855
0.0967742
0.0824849
0.0447547
0.0420208
0.0406059
0.0465818
0.0887817
0.101286
0.0652577
0.0453615
0.0415726
0.0446259
0.0873999
0.0997331
0.0605637
0.0444158
0.0411032
0.0427534
0.0852513
0.0947058
0.0569235
0.0426223
0.0413517
0.0439597
0.0803479
0.0862331
0.0454586
0.0399003
0.0445881
0.0640053
0.0982061
0.0847819
0.043948
0.0408977
0.04362
0.0589609
0.0967727
0.0827687
0.0416976
0.0404292
0.0423548
0.0567756
0.0926408
0.0798971
0.0436522
0.041034
0.0399005
0.0458762
0.0861405
0.0978136
0.0639549
0.0445739
0.0407626
0.0438238
0.0842658
0.0959841
0.0588436
0.0434637
0.0400858
0.0414744
0.0819181
0.0916106
0.0562535
0.0419561
0.0404384
0.0430387
0.0783829
0.0841479
0.0448882
0.0392058
0.0439233
0.0630016
0.0958699
0.083122
0.043421
0.0402817
0.0431896
0.0585011
0.0948295
0.0818989
0.0415556
0.0398781
0.0419217
0.0564427
0.0912721
0.0781589
0.0428988
0.0401724
0.0389653
0.0448456
0.0840926
0.0961528
0.0628614
0.0440519
0.0399296
0.0429051
0.0836726
0.0955187
0.058041
0.0429418
0.0393741
0.0405139
0.081678
0.0913981
0.0561692
0.0416116
0.03967
0.0424617
0.0780673
0.0839626
0.0443905
0.0385184
0.0439022
0.063044
0.0958966
0.08313
0.0429386
0.0396659
0.0427439
0.0581438
0.0945464
0.080283
0.0402089
0.0389436
0.041737
0.0557541
0.0903835
0.07807
0.0399544
0.038452
0.0408348
0.0549697
0.0875986
0.0754836
0.041611
0.0388165
0.0379297
0.0439283
0.0813168
0.0931054
0.0619161
0.0433187
0.0390237
0.0424136
0.0815702
0.0935587
0.0574811
0.0424801
0.0385281
0.0402038
0.0807086
0.0905855
0.0556937
0.0414771
0.0380798
0.0397156
0.0775801
0.0867653
0.0547796
0.0404787
0.0383528
0.0412727
0.0747033
0.0804056
0.0430893
0.0373354
0.0427959
0.0609491
0.0919881
0.080123
0.0415812
0.0383627
0.0418244
0.0565723
0.0917505
0.0786878
0.0392823
0.0378647
0.0408987
0.0546284
0.0884131
0.0763456
0.0391164
0.0375567
0.0401453
0.0543442
0.0855104
0.074168
0.0410588
0.0379605
0.0371088
0.0430269
0.079646
0.0908693
0.0606612
0.0426638
0.0379449
0.0413817
0.0794129
0.0909857
0.0560947
0.0416508
0.0373656
0.038718
0.0781326
0.0881177
0.0544422
0.0407849
0.0369841
0.0387566
0.0760772
0.0852888
0.0538583
0.0398196
0.0371187
0.0402853
0.0734076
0.0790914
0.042549
0.0363758
0.0422552
0.0601148
0.0905132
0.0792052
0.0408143
0.0372833
0.041259
0.0557583
0.0904042
0.0772628
0.0381418
0.0366457
0.0402889
0.0538742
0.0869189
0.0752182
0.038057
0.0363201
0.0397763
0.053007
0.0849179
0.0737446
0.0380684
0.036115
0.0391522
0.0526155
0.0826014
0.0718448
0.0397738
0.0363186
0.0356724
0.0419594
0.0774962
0.0889877
0.0595735
0.0417578
0.0365215
0.0402576
0.0776702
0.0892686
0.0551356
0.0407948
0.0359072
0.0376248
0.0766677
0.0862821
0.0533705
0.0398127
0.0354726
0.037341
0.0743267
0.0836433
0.0524116
0.0390633
0.0353309
0.0374554
0.0727596
0.0814565
0.0518932
0.0384253
0.0354183
0.0388428
0.0703777
0.0757446
0.0407696
0.0347937
0.0408424
0.0580924
0.0866203
0.0751711
0.0392554
0.0357643
0.0401276
0.0541809
0.0861437
0.0740031
0.0371729
0.0352278
0.0391461
0.0522586
0.0836525
0.0724822
0.0367812
0.0348851
0.0387008
0.0516821
0.0816761
0.0711191
0.0370757
0.0348142
0.0380482
0.0509727
0.0796167
0.0692853
0.0383658
0.0348538
0.0342881
0.0405971
0.0745813
0.0854067
0.0576097
0.0405374
0.0352331
0.0390307
0.0750124
0.0858904
0.0534862
0.0396416
0.0345208
0.0365257
0.074221
0.0836809
0.0517281
0.0387035
0.0340764
0.0360079
0.0723253
0.0812892
0.0509821
0.03806
0.0338958
0.0361654
0.0705915
0.0787712
0.0505636
0.0375024
0.033929
0.0376336
0.0680904
0.0734026
0.039862
0.0333804
0.0398249
0.0567884
0.0839584
0.0734287
0.0383572
0.0345132
0.0390577
0.0527057
0.0839865
0.0722951
0.0359462
0.0339019
0.0380372
0.0507621
0.0814694
0.0705814
0.0355066
0.0334947
0.0375538
0.0500835
0.0793409
0.0691955
0.0357081
0.0333074
0.0370038
0.0497914
0.0774066
0.0672391
0.0371708
0.0332934
0.0328551
0.0396216
0.0727548
0.0835275
0.0564542
0.0396839
0.0339895
0.0379176
0.072978
0.0836103
0.0524778
0.038796
0.0333207
0.0355999
0.0718849
0.0809234
0.0504657
0.0377462
0.0328201
0.0350374
0.070223
0.0789854
0.049705
0.0371103
0.0326158
0.0350165
0.0687601
0.077239
0.0492624
0.0367831
0.0324891
0.0351278
0.0672645
0.0752097
0.048741
0.036105
0.0324805
0.0362744
0.0650478
0.0704003
0.0385157
0.0320144
0.0386382
0.0548214
0.0805212
0.0702442
0.0371307
0.0332803
0.0378142
0.0508807
0.0800543
0.0689689
0.034876
0.0327112
0.0369418
0.049149
0.0774405
0.06719
0.0346064
0.0323781
0.0364715
0.0485707
0.0753569
0.065811
0.0348832
0.0322124
0.0358681
0.0478848
0.0734546
0.0639924
0.035878
0.0321038
0.0317602
0.0381997
0.0694411
0.0794027
0.0542692
0.0385059
0.0329824
0.0368584
0.0693874
0.0791729
0.0505437
0.0376551
0.0323789
0.0347739
0.0686215
0.0770589
0.0487979
0.0367056
0.0319523
0.0342439
0.0669791
0.0749186
0.0480529
0.0361745
0.0316375
0.034274
0.0653195
0.0730108
0.0474762
0.0354319
0.0314351
0.0353435
0.063233
0.0687309
0.0375991
0.0311078
0.0380435
0.0537327
0.0784305
0.0682848
0.0364572
0.0323451
0.03701
0.0497871
0.0776439
0.0670221
0.034195
0.0317528
0.0360804
0.048029
0.0750279
0.0651784
0.0338007
0.0313873
0.0355246
0.0471718
0.0730753
0.0637873
0.0338039
0.0311722
0.0349366
0.0467132
0.0715038
0.0620965
0.0348518
0.0309758
0.0307027
0.0371942
0.0674395
0.0769178
0.0529237
0.037563
0.031931
0.0359263
0.0671778
0.076457
0.0491933
0.0366859
0.0313407
0.0338907
0.0661345
0.0743069
0.0476849
0.0357868
0.0310083
0.0335896
0.0645727
0.0725699
0.0469366
0.0353212
0.0307632
0.0335056
0.0631764
0.0710181
0.0464157
0.0346369
0.030561
0.0344476
0.0616557
0.066925
0.0366211
0.030266
0.0371133
0.0522294
0.0758897
0.0662744
0.0355584
0.0314818
0.0361376
0.0484662
0.0748586
0.0645429
0.0334457
0.0309023
0.0351777
0.0466627
0.0724924
0.0626412
0.0329948
0.0305173
0.0345142
0.0461031
0.0706073
0.0617553
0.0343761
0.0303185
0.0301822
0.036729
0.0673685
0.076504
0.0526722
0.0374537
0.0314864
0.0356956
0.0667452
0.0755265
0.0485901
0.0363542
0.0306948
0.0333313
0.0651543
0.0732745
0.0469472
0.0352386
0.0302239
0.0329245
0.0631085
0.070971
0.0462341
0.034392
0.0299034
0.0340081
0.06141
0.0667704
0.0361931
0.0296485
0.0368816
0.0520184
0.0755556
0.0656856
0.0351239
0.0308889
0.0356524
0.0478107
0.0743544
0.0634597
0.0325404
0.0301011
0.0346627
0.0461818
0.0717803
0.0624549
0.0325956
0.0298476
0.0341672
0.0459545
0.0704646
0.0611853
0.0339045
0.0296469
0.0295407
0.0363565
0.066815
0.0755421
0.0522093
0.0369908
0.0308139
0.0352116
0.0655202
0.0744921
0.0479859
0.0358441
0.0300492
0.0327092
0.0638916
0.071938
0.0462011
0.0346529
0.0295039
0.0323319
0.0620349
0.0699868
0.0455014
0.0337233
0.0291551
0.0333156
0.0606649
0.0659713
0.0353635
0.0288955
0.0361375
0.0508353
0.0741235
0.0640921
0.0342397
0.0301246
0.0351979
0.0473402
0.0731781
0.0630082
0.0324771
0.0296854
0.0343134
0.0457267
0.0711655
0.0616518
0.0321163
0.0293982
0.0337466
0.0454001
0.0696502
0.0605874
0.0334702
0.0291647
0.0290562
0.0358147
0.0660737
0.0744604
0.0514549
0.0365715
0.0303892
0.0348082
0.0643278
0.0728636
0.0473087
0.0353961
0.0295643
0.0325059
0.0624015
0.0703943
0.0455926
0.0339379
0.0288781
0.0330839
0.0607272
0.0657031
0.0347428
0.028607
0.0361985
0.0512543
0.0742043
0.0639327
0.0344526
0.0299835
0.0352129
0.0472327
0.0727102
0.0626239
0.032362
0.0294438
0.034167
0.0456249
0.0708259
0.0612031
0.0318827
0.0290694
0.0334515
0.0451272
0.0691112
0.0599094
0.0330433
0.0287246
0.0286632
0.0353702
0.0652191
0.07352
0.0511441
0.0362681
0.0299959
0.0346748
0.0633846
0.0718711
0.0469563
0.0351201
0.0292983
0.032265
0.0616848
0.0695304
0.0452384
0.0336781
0.0285648
0.0327217
0.0593895
0.0646038
0.0347819
0.0284085
0.0361227
0.0508577
0.0736284
0.0638628
0.0343881
0.0298666
0.0351326
0.0471725
0.0724311
0.0622777
0.0324832
0.0293119
0.0338608
0.0456231
0.0701587
0.0606136
0.0330764
0.0287396
0.0286882
0.0353732
0.0658589
0.0740719
0.0514942
0.0364184
0.0299516
0.0348329
0.0635201
0.0718701
0.0473754
0.035048
0.0289805
0.0333606
0.0614957
0.0666344
0.0352294
0.0287362
0.0363756
0.0511949
0.0747554
0.0633319
0.0340702
0.0297914
0.0352719
0.0473442
0.0722498
0.0624079
0.0326187
0.0292125
0.0341043
0.0459811
0.0706
0.0610954
0.0332072
0.0286016
0.0285803
0.0356216
0.0664779
0.0748102
0.0516693
0.0365675
0.0298359
0.0347575
0.064284
0.0725981
0.0473848
0.0350248
0.028677
0.0331215
0.0619885
0.0671271
0.03496
0.0284809
0.0363939
0.051529
0.0754128
0.0642612
0.0342896
0.0296333
0.0348052
0.0470768
0.0723429
0.0611775
0.0329812
0.0283706
0.0282985
0.0352095
0.0668017
0.0761238
0.052205
0.0367691
0.0297979
0.0346248
0.0650623
0.073546
0.0479837
0.0352907
0.0285604
0.0332669
0.0625998
0.0678424
0.0352415
0.0284209
0.0366444
0.0520812
0.0761795
0.0649268
0.0344755
0.0295922
0.035048
0.0475598
0.073215
0.062229
0.0330636
0.028381
0.0281808
0.0349457
0.0673994
0.0757275
0.0516641
0.0363165
0.0292023
0.0333262
0.0628173
0.0715684
0.0470362
0.0346784
0.0279531
0.032855
0.0616148
0.067258
0.0348091
0.0279538
0.0363435
0.0518494
0.0760152
0.0648252
0.0342398
0.0292817
0.0347862
0.0474105
0.0730793
0.0622378
0.032873
0.0281346
0.0279924
0.0348059
0.0672608
0.0754497
0.0516768
0.036217
0.0290999
0.0340589
0.0640194
0.0719644
0.0468632
0.0343732
0.0275838
0.0322176
0.0602432
0.0642529
0.0330421
0.0271836
0.0350285
0.0503713
0.0730177
0.0628723
0.0339058
0.0281481
0.0281004
0.0354561
0.0683969
0.0771235
0.0525468
0.0368073
0.0293415
0.034375
0.0654386
0.0734283
0.047547
0.0348845
0.0278039
0.0325377
0.0621354
0.0667604
0.0343158
0.0276246
0.0355062
0.0511512
0.0745609
0.0631
0.0342615
0.0282567
0.027734
0.0343524
0.0672622
0.0753991
0.0513216
0.0357174
0.0280677
0.0340567
0.0637888
0.0694177
0.0351522
0.0279117
0.0368977
0.0529453
0.0784214
0.0660141
0.0342312
0.0291641
0.0348711
0.0477283
0.0738201
0.0620903
0.0323677
0.0275217
0.0273452
0.0340451
0.066501
0.073939
0.0508252
0.0351597
0.0277805
0.0337776
0.0620849
0.0657855
0.0335471
0.0272101
0.0349464
0.0500844
0.0736683
0.0623297
0.033252
0.0274535
0.0273605
0.0344881
0.0677232
0.0764629
0.0519304
0.0358035
0.0280021
0.0342357
0.0642296
0.068762
0.0349105
0.0277464
0.0359074
0.0518127
0.0764644
0.0637758
0.0339158
0.0278697
0.0274193
0.0343466
0.0677934
0.0748078
0.0504512
0.0351346
0.0271076
0.0327733
0.0617823
0.0661653
0.0358562
0.0273057
0.0275976
0.0378028
0.072468
0.0814403
0.0547256
0.0373445
0.0281679
0.0349933
0.0673822
0.0717373
0.0351684
0.0277092
0.0359467
0.0523907
0.0791381
0.0643917
0.0332526
0.0271148
0.0265523
0.0341941
0.0664932
0.070877
0.0358359
0.0264409
0.0362331
0.0538641
0.0804724
0.0670288
0.0339644
0.0270804
0.0273077
0.0365953
0.0712347
0.0765265
0.0381916
0.0274893
0.0371536
0.0552796
0.0835894
0.0656852
0.0336802
0.0270511
0.0264467
0.0346711
0.0683413
0.0733013
0.0362114
0.0262449
0.0359529
0.0540131
0.083202
0.0682263
0.0337059
0.0264919
0.0259775
0.0332329
0.0717536
0.076899
0.039505
0.0267872
0.0258459
0.0353165
0.0772657
0.085035
0.055989
0.0365395
0.0262641
0.0338747
0.0696627
0.0746222
0.0346243
0.0260879
0.0262292
0.0385073
0.0797212
0.0823771
0.0361296
0.0253167
0.0258868
0.0406332
0.0854861
0.0895611
0.0400811
0.0251646
0.0368051
0.0590408
0.0980246
0.0727643
0.0340135
0.0255719
0.0250539
0.0338145
0.0750684
0.080367
0.0378069
0.0251493
0.0251226
0.0383237
0.0862083
0.0916933
0.0397578
0.0254071
0.0259432
0.0425128
0.0963068
0.101256
0.0448813
0.0265316
0.0271285
0.0471842
0.105133
0.107149
0.0495635
0.0277292
0.0282611
0.0516397
0.108326
0.109023
0.0538963
0.0288907
0.0294932
0.0561807
0.109411
0.109574
0.0587428
0.0303212
0.0310371
0.0612877
0.109646
0.109661
0.0637505
0.0320842
0.0329457
0.0662088
0.10965
0.109633
0.0685808
0.0341623
0.0351625
0.0709505
0.109609
0.109597
0.073208
0.0365206
0.0378005
0.0752915
0.109592
0.109608
0.077282
0.0393798
0.0408172
0.0791257
0.109636
0.109685
0.0809293
0.0424777
0.0439168
0.0826555
0.109749
0.109834
0.0843342
0.0455768
0.0470203
0.0859279
0.109931
0.110049
0.0874686
0.048679
0.0501308
0.0889168
0.110174
0.110315
0.0903079
0.0517878
0.0532456
0.0916012
0.110457
0.110609
0.0928351
0.0548994
0.0563587
0.0939681
0.110759
0.110913
0.0950388
0.0580129
0.0594613
0.0960085
0.111058
0.111203
0.0969209
0.0610906
0.0624708
0.0977465
0.111335
0.111463
0.0985191
0.0640173
0.0653148
0.0992108
0.111577
0.111686
0.0998545
0.0667645
0.0679675
0.100425
0.111778
0.111865
0.100952
0.0693134
0.0704123
0.101411
0.111934
0.111998
0.101832
0.0716454
0.0726329
0.1022
0.112045
0.11209
0.102545
0.0737503
0.0746252
0.102814
0.112119
0.11214
0.103088
0.0756234
0.0763879
0.103284
0.112152
0.112156
0.103488
0.0772707
0.0779295
0.103621
0.112153
0.112141
0.103763
0.0787013
0.0792604
0.103842
0.112126
0.1121
0.103931
0.0799276
0.0803973
0.103968
0.112074
0.112037
0.104012
0.0809669
0.081355
0.104014
0.112003
0.111956
0.104022
0.0818362
0.0821558
0.103999
0.111917
0.111863
0.103976
0.0825549
0.0828173
0.103932
0.111819
0.111759
0.103885
0.083142
0.0833598
0.103826
0.111712
0.111649
0.103759
0.0836171
0.083795
0.103687
0.111599
0.111534
0.103607
0.08399
0.0841373
0.103524
0.111482
0.111417
0.103435
0.0842833
0.084396
0.103342
0.111363
0.111299
0.103249
0.0845164
0.0845962
0.103149
0.111245
0.111183
0.103055
0.0846922
0.0847392
0.102952
0.111129
0.111068
0.102858
0.0848129
0.0848295
0.102754
0.111016
0.110955
0.102658
0.0848853
0.0848792
0.102553
0.110905
0.110846
0.102457
0.0849218
0.0849015
0.102354
0.110798
0.11074
0.102256
0.0849307
0.084902
0.102155
0.110693
0.110636
0.102057
0.0849215
0.084889
0.10196
0.110593
0.110536
0.101863
0.0849004
0.0848659
0.10177
0.110494
0.11044
0.101674
0.0848714
0.0848407
0.101587
0.110401
0.110347
0.101493
0.0848407
0.0848111
0.101412
0.11031
0.110259
0.101321
0.0848103
0.0847836
0.101247
0.110225
0.110175
0.101159
0.0847814
0.0847573
0.101091
0.110142
0.110094
0.101007
0.084756
0.0847363
0.100945
0.110064
0.110018
0.100866
0.084736
0.0847194
0.100808
0.109989
0.109944
0.100734
0.0847205
0.0847086
0.100681
0.109918
0.109876
0.100612
0.0847121
0.0847036
0.100563
0.109851
0.109811
0.100498
0.0847087
0.0847042
0.100454
0.109786
0.10975
0.100393
0.0847115
0.0847102
0.100353
0.109725
0.109691
0.100296
0.0847192
0.0847218
0.100259
0.109668
0.109637
0.100207
0.0847333
0.084739
0.100174
0.109615
0.109589
0.100126
0.0847537
0.0847607
0.100097
0.109567
0.109544
0.100053
0.0847777
0.0847882
0.100027
0.109524
0.109504
0.0999873
0.0848062
0.0848199
0.0999642
0.109485
0.109466
0.0999286
0.0848385
0.0848548
0.0999068
0.109449
0.109431
0.0998753
0.0848736
0.0848921
0.0998545
0.109416
0.109398
0.0998265
0.0849109
0.0849309
0.0998066
0.109385
0.109367
0.0997816
0.0849495
0.0849705
0.0997622
0.109354
0.109337
0.0997392
0.0849883
0.0850091
0.099719
0.109323
0.109305
0.0996975
0.0850255
0.0850456
0.0996765
0.109291
0.109271
0.0996545
0.0850601
0.0850785
0.0996316
0.109255
0.109232
0.0996074
0.0850904
0.0851066
0.0995837
0.109214
0.109189
0.0995567
0.0851156
0.0851284
0.0995307
0.109169
0.10914
0.0994999
0.0851336
0.0851421
0.0994705
0.109117
0.109084
0.0994354
0.0851432
0.0851476
0.0994031
0.109059
0.109025
0.0993658
0.0851461
0.0851487
0.0993335
0.109002
0.108968
0.0992947
0.085145
0.0851451
0.0992615
0.108947
0.108916
0.0992233
0.0851405
0.085141
0.0991934
0.108899
0.108872
0.0991563
0.0851359
0.0851353
0.0991274
0.108858
0.108835
0.0990926