/*--------------------------------*- C++ -*----------------------------------*\
| =========                 |                                                 |
| \\      /  F ield         | OpenFOAM: The Open Source CFD Toolbox           |
|  \\    /   O peration     | Version:  v2006                                 |
|   \\  /    A nd           | Website:  www.openfoam.com                      |
|    \\/     M anipulation  |                                                 |
\*---------------------------------------------------------------------------*/
FoamFile
{
    version     2.0;
    format      ascii;
    class       volScalarField;
    location    "0.024";
    object      nut;
}
// * * * * * * * * * * * * * * * * * * * * * * * * * * * * * * * * * * * * * //

dimensions      [0 2 -1 0 0 0 0];


internalField   nonuniform List<scalar> 
31566
(
1.72074
1.72592
3.41055
3.49816
3.30456
3.55864
3.55414
3.93687
4.15387
4.60113
5.07374
5.79606
6.80915
8.34789
10.6078
13.818
17.711
20.6852
21.5434
13.046
4.22462
1.72262
0.952208
0.656068
0.518275
0.445412
0.403278
0.376577
0.357723
0.342875
0.330151
0.318715
0.308253
0.298681
0.289982
0.282135
0.275093
0.268786
0.263133
0.258048
0.253456
0.249291
0.245498
0.242034
0.238865
0.235973
0.233328
0.230909
0.228714
0.226728
0.224945
0.223359
0.221966
0.22076
0.219739
0.2189
0.218241
0.217761
0.217459
0.217343
0.217414
0.217672
0.218122
0.218765
0.219607
0.220654
0.221912
0.223391
0.225101
0.227059
0.229286
0.231809
0.234668
0.237913
0.241603
0.245807
0.250591
0.256001
0.262038
0.268635
0.275628
0.282797
0.289941
0.297055
0.304739
0.314864
0.331632
0.363712
0.429004
0.567751
0.88347
1.68174
3.9345
10.5301
27.2727
53.0504
58.553
30.8364
11.4507
4.41461
1.45747
0.623248
0.390381
0.200273
0.124475
0.0840372
0.0465551
0.0122512
0.00224922
7.36868e-05
6.45268e-05
0.00102811
0.00469591
0.00299367
0.00076867
5.81024e-05
5.29027e-05
0.000671129
0.00240908
0.00205279
0.000599022
4.95165e-05
4.66865e-05
0.000572533
0.00184985
0.00166944
0.000529392
4.45487e-05
4.27702e-05
0.000508857
0.0015731
0.001459
0.000473738
4.09483e-05
3.95455e-05
0.000460812
0.00140332
0.0013233
0.000445703
3.83674e-05
3.7547e-05
0.000438739
0.00129253
0.00123594
0.000426908
3.66853e-05
3.61078e-05
0.000422045
0.0012151
0.00117059
0.000412294
3.54514e-05
3.50255e-05
0.000408733
0.00115559
0.00111842
0.000400442
3.45082e-05
3.41773e-05
0.00039759
0.00110689
0.00107475
0.000390449
3.3757e-05
3.34883e-05
0.000387927
0.00106523
0.00103709
0.000381698
3.31355e-05
3.29099e-05
0.000379394
0.00102901
0.00100394
0.000373876
3.26054e-05
3.24106e-05
0.000371733
0.000996967
0.000974337
0.000366764
3.21415e-05
3.19695e-05
0.000364765
0.000968236
0.000947579
0.000360233
3.17273e-05
3.15726e-05
0.000358363
0.000942186
0.000923176
0.000354193
3.1351e-05
3.12097e-05
0.000352446
0.000918382
0.000900784
0.000348578
3.10057e-05
3.08758e-05
0.000346943
0.000896484
0.000880052
0.000343311
3.06857e-05
3.05645e-05
0.000341769
0.000876183
0.000860798
0.000338356
3.03856e-05
3.02718e-05
0.000336908
0.0008573
0.000842838
0.000333686
3.01028e-05
2.99953e-05
0.000332324
0.00083967
0.000826038
0.000329273
2.98348e-05
2.97328e-05
0.000327988
0.000823163
0.000810275
0.000325091
2.95798e-05
2.94825e-05
0.000323879
0.000807662
0.000795457
0.000321123
2.93361e-05
2.9243e-05
0.000319978
0.00079308
0.000781493
0.00031735
2.91027e-05
2.90133e-05
0.000316267
0.00077933
0.000768304
0.000313756
2.88784e-05
2.87924e-05
0.000312731
0.000766338
0.000755837
0.000310329
2.86623e-05
2.85793e-05
0.000309359
0.000754053
0.000744028
0.000307058
2.84536e-05
2.83735e-05
0.000306139
0.000742418
0.000732826
0.000303932
2.82518e-05
2.81741e-05
0.000303063
0.000731381
0.000722184
0.000300942
2.80561e-05
2.79807e-05
0.000300117
0.000720888
0.000712049
0.000298073
2.7866e-05
2.77928e-05
0.00029729
0.000710888
0.000702387
0.000295317
2.7681e-05
2.76097e-05
0.000294572
0.000701347
0.000693153
0.000292663
2.75005e-05
2.74309e-05
0.000291954
0.000692223
0.000684309
0.000290101
2.73241e-05
2.7256e-05
0.000289424
0.000683479
0.00067583
0.000287624
2.71512e-05
2.70844e-05
0.000286977
0.000675093
0.000667692
0.000285224
2.69815e-05
2.69158e-05
0.000284606
0.00066704
0.000659872
0.000282897
2.68144e-05
2.67498e-05
0.000282306
0.000659295
0.000652335
0.000280636
2.66498e-05
2.6586e-05
0.000280068
0.000651827
0.000645064
0.000278432
2.64872e-05
2.64242e-05
0.000277888
0.000644616
0.000638029
0.00027628
2.63263e-05
2.62639e-05
0.000275755
0.000637636
0.000631216
0.000274173
2.61667e-05
2.61048e-05
0.000273666
0.000630872
0.000624609
0.000272107
2.6008e-05
2.59465e-05
0.000271617
0.000624307
0.000618184
0.000270076
2.585e-05
2.57887e-05
0.000269601
0.000617917
0.000611922
0.000268075
2.56923e-05
2.56311e-05
0.000267614
0.000611687
0.000605809
0.000266099
2.55347e-05
2.54734e-05
0.00026565
0.000605601
0.000599832
0.000264143
2.53767e-05
2.53153e-05
0.000263705
0.000599648
0.000593982
0.000262205
2.52181e-05
2.51565e-05
0.000261776
0.000593817
0.000588246
0.000260277
2.50586e-05
2.49966e-05
0.00025986
0.000588111
0.000582631
0.000258364
2.4898e-05
2.48355e-05
0.000257956
0.000582528
0.000577124
0.000256461
2.4736e-05
2.4673e-05
0.000256061
0.000577055
0.000571719
0.000254566
2.45724e-05
2.45088e-05
0.000254174
0.000571672
0.000566391
0.000252675
2.44071e-05
2.43428e-05
0.00025229
0.000566362
0.000561126
0.000250784
2.42397e-05
2.41746e-05
0.000250404
0.000561113
0.000555921
0.000248888
2.40699e-05
2.40039e-05
0.000248513
0.000555922
0.000550764
0.000246984
2.38974e-05
2.38303e-05
0.000246613
0.000550778
0.000545647
0.00024507
2.37219e-05
2.36537e-05
0.000244701
0.000545669
0.000540559
0.000243139
2.35431e-05
2.34737e-05
0.000242772
0.000540588
0.000535494
0.00024119
2.33607e-05
2.32899e-05
0.000240823
0.000535528
0.000530444
0.000239218
2.31744e-05
2.31021e-05
0.000238852
0.000530482
0.000525405
0.000237223
2.29838e-05
2.29098e-05
0.000236856
0.000525445
0.00052037
0.0002352
2.27887e-05
2.27128e-05
0.00023483
0.000520411
0.000515333
0.000233152
2.25886e-05
2.25108e-05
0.000232775
0.000515373
0.00051029
0.000231073
2.23833e-05
2.23035e-05
0.000230687
0.000510328
0.000505234
0.00022896
2.21725e-05
2.20905e-05
0.000228566
0.000505269
0.000500158
0.00022681
2.19558e-05
2.18715e-05
0.000226405
0.000500188
0.000495061
0.00022462
2.17329e-05
2.16461e-05
0.000224205
0.000495086
0.000489938
0.000222389
2.15034e-05
2.14141e-05
0.000221962
0.000489957
0.000484784
0.000220114
2.1267e-05
2.1175e-05
0.000219674
0.000484792
0.000479587
0.000217791
2.10233e-05
2.09284e-05
0.000217337
0.000479583
0.000474339
0.000215416
2.07719e-05
2.0674e-05
0.000214948
0.00047432
0.000469033
0.000212987
2.05122e-05
2.04112e-05
0.000212502
0.000468997
0.00046366
0.000210498
2.02439e-05
2.01395e-05
0.000209996
0.000463607
0.000458215
0.000207947
1.99663e-05
1.98584e-05
0.000207426
0.000458144
0.000452693
0.000205329
1.96791e-05
1.95674e-05
0.00020479
0.000452601
0.000447082
0.00020264
1.93817e-05
1.92659e-05
0.000202081
0.000446965
0.000441369
0.000199872
1.90737e-05
1.89532e-05
0.000199292
0.000441225
0.000435552
0.00019702
1.87548e-05
1.86282e-05
0.000196417
0.000435379
0.000429625
0.000194078
1.84247e-05
1.82897e-05
0.000193452
0.000429418
0.000423576
0.000191043
1.8084e-05
1.79359e-05
0.000190378
0.00042331
0.000417354
0.000187872
1.77338e-05
1.76521e-05
0.000187097
0.000416952
0.000410845
0.000184459
1.75371e-05
1.74972e-05
0.000183574
0.000410221
0.000403989
0.000180863
1.74002e-05
1.73683e-05
0.000179907
0.000403124
0.000396786
0.000177147
1.72725e-05
1.72406e-05
0.000176145
0.000395701
0.000389282
0.000173359
1.71419e-05
1.7108e-05
0.000172318
0.000388004
0.000381522
0.000169508
1.70051e-05
1.69689e-05
0.000168436
0.000380079
0.000373547
0.0001656
1.68607e-05
1.6822e-05
0.000164501
0.00037196
0.000365381
0.000161626
1.67075e-05
1.66656e-05
0.000160509
0.00036368
0.000357063
0.000157595
1.65438e-05
1.64985e-05
0.000156448
0.00035528
0.000348601
0.000153476
1.63683e-05
1.63191e-05
0.00015229
0.000346718
0.000339957
0.000149246
1.61787e-05
1.61243e-05
0.000148008
0.000337968
0.000331114
0.00014488
1.59718e-05
1.59115e-05
0.000143574
0.000329011
0.000322033
0.000140334
1.57436e-05
1.56763e-05
0.000138953
0.000319803
0.000312629
0.000135558
1.54894e-05
1.54122e-05
0.000134066
0.000310279
0.000302876
0.000130501
1.52028e-05
1.51133e-05
0.000128862
0.000300373
0.000292644
0.000125049
1.48727e-05
1.47685e-05
0.000123239
0.000289943
0.000281836
0.000119093
1.44845e-05
1.43626e-05
0.000117093
0.000278834
0.000270165
0.000112469
1.40248e-05
1.32688e-05
0.00011005
0.00026667
0.000257164
0.000105112
1.19303e-05
1.07046e-05
0.000102116
0.000253081
0.000243262
9.75015e-05
9.33042e-06
8.03069e-06
9.40852e-05
0.00023799
0.000230338
9.19996e-05
6.99952e-06
6.50822e-06
9.44528e-05
0.000230007
0.000231233
9.8863e-05
6.31595e-06
6.27039e-06
0.000104769
0.000238229
0.000244551
0.000108509
6.11554e-06
5.9624e-06
0.000111887
0.000253611
0.000260094
0.000113036
5.67051e-06
5.48669e-06
0.00011478
0.000268358
0.000271088
0.000113357
5.15175e-06
5.02834e-06
0.00011367
0.00027799
0.000277859
0.000110247
4.71552e-06
4.54331e-06
0.000109812
0.000283509
0.00028146
0.000105247
4.19558e-06
4.03634e-06
0.000104707
0.000286265
0.000283283
0.000100002
3.73893e-06
3.66338e-06
0.000100401
0.000288843
0.000286785
9.65191e-05
3.46823e-06
3.50132e-06
9.85661e-05
0.000294751
0.000295001
9.63276e-05
3.41012e-06
3.48634e-06
9.94151e-05
0.000304729
0.000306567
9.84765e-05
3.43364e-06
3.48064e-06
0.000100467
0.000314748
0.000316493
9.97414e-05
3.39734e-06
3.43251e-06
0.000101873
0.000324882
0.000324518
0.000100274
3.24782e-06
3.17336e-06
0.000101039
0.000330177
0.000325068
9.7693e-05
2.87694e-06
2.68074e-06
9.61867e-05
0.000324823
0.000314234
9.10828e-05
2.34587e-06
2.25091e-06
8.83784e-05
0.00031002
0.000297423
8.28513e-05
2.04509e-06
1.98177e-06
8.03323e-05
0.000293086
0.000280387
7.49169e-05
1.77988e-06
1.71042e-06
7.26471e-05
0.000277055
0.000264631
6.73917e-05
1.51463e-06
1.4434e-06
6.51417e-05
0.000261221
0.000248266
5.99204e-05
1.26315e-06
1.19553e-06
5.75891e-05
0.00024379
0.000230407
5.26181e-05
1.04166e-06
9.88613e-07
5.05718e-05
0.000225481
0.000211313
4.54827e-05
8.51033e-07
8.15078e-07
4.41666e-05
0.000207427
0.000193625
3.94257e-05
7.03708e-07
6.63487e-07
3.81513e-05
0.000190898
0.000176374
3.3683e-05
5.74327e-07
4.81379e-07
2.96849e-05
0.000165892
0.00016856
3.07495e-05
4.71044e-07
4.41719e-07
2.72698e-05
0.000162333
0.000157878
2.42343e-05
3.32205e-07
0.000677543
0.00134312
0.00169011
0.00229191
0.00172848
0.00189954
0.00217452
0.00237219
0.00276421
0.00306589
0.00347854
0.00397227
0.00451183
0.0052731
0.00607283
0.00704348
0.00805007
0.00918767
0.0103597
0.0116284
0.0129247
0.0142851
0.0156578
0.0170595
0.0184471
0.0198208
0.0211419
0.0223969
0.0235501
0.0245754
0.0254383
0.0261128
0.0265612
0.0267478
0.0266513
0.0262403
0.0255356
0.0245303
0.0233005
0.0218464
0.0203223
0.0187832
0.0172333
0.0156954
0.0141804
0.0126801
0.0111713
0.00963916
0.00809114
0.00652033
0.00499311
0.00351552
0.00217774
0.00104656
0.000304829
9.42212e-05
1.33924e-05
1.07364e-05
9.22094e-05
0.000294809
0.00028236
8.79357e-05
1.06613e-05
1.06484e-05
8.94378e-05
0.000287449
0.000298385
9.32563e-05
1.08983e-05
1.09429e-05
9.52336e-05
0.00030238
0.000307436
9.64082e-05
1.10335e-05
1.10669e-05
9.71852e-05
0.000310058
0.000313095
9.79722e-05
1.10948e-05
1.11642e-05
9.90087e-05
0.000316294
0.000319281
9.97849e-05
1.12112e-05
1.12687e-05
0.000100772
0.000322709
0.000326052
0.000101681
1.13255e-05
1.13875e-05
0.000102712
0.000329691
0.000333378
0.000103799
1.14504e-05
1.15188e-05
0.000104905
0.000337165
0.000341216
0.000106043
1.15886e-05
1.16636e-05
0.000107257
0.000345189
0.000349477
0.000108482
1.17405e-05
1.18236e-05
0.000109751
0.000353782
0.000358294
0.000111119
1.19073e-05
1.19983e-05
0.00011247
0.000362873
0.000367645
0.00011393
1.20901e-05
1.21899e-05
0.000115393
0.000372513
0.000377551
0.000116944
1.22904e-05
1.24e-05
0.000118524
0.000382726
0.000388054
0.000120172
1.251e-05
1.26312e-05
0.000121863
0.000393442
0.000399186
0.000123652
1.27551e-05
1.28838e-05
0.00012548
0.00040492
0.000410915
0.000127353
1.30239e-05
1.3168e-05
0.000129318
0.000417064
0.00042337
0.000131394
1.33198e-05
1.34821e-05
0.000133425
0.000429852
0.000436581
0.000135656
1.36516e-05
1.38318e-05
0.000137891
0.000443394
0.00045058
0.000140218
1.40225e-05
1.42265e-05
0.000142675
0.000457839
0.000465419
0.00014516
1.44404e-05
1.46707e-05
0.000147784
0.000473338
0.00048126
0.000150445
1.49134e-05
1.51771e-05
0.000153254
0.000489628
0.000498282
0.000156139
1.54587e-05
1.57682e-05
0.000159148
0.000507382
0.00051719
0.000162282
1.61138e-05
1.65054e-05
0.000165381
0.000527542
0.00054134
0.000169568
1.69927e-05
1.73831e-05
0.000174993
0.000557201
0.000574283
0.000181049
1.78338e-05
1.82386e-05
0.000189021
0.000593959
0.000614355
0.000196413
1.88011e-05
1.94315e-05
0.000204227
0.000633728
0.000653028
0.000211724
2.01808e-05
2.1076e-05
0.000217028
0.000666984
0.000681442
0.000222444
2.28073e-05
2.61517e-05
0.000234275
0.000695141
0.000656601
0.000254222
1.97884e-05
5.56661e-06
4.78901e-05
0.000213377
0.000533747
0.000160173
1.1415e-05
1.36448e-05
0.000167928
0.000554935
0.000649047
0.000206682
1.65256e-05
1.82819e-05
0.000228239
0.000702915
0.000764252
0.000252054
2.06981e-05
2.31658e-05
0.000277995
0.000831871
0.000905634
0.00030541
2.64207e-05
3.07649e-05
0.000327582
0.000971904
0.000906314
0.000331652
2.32529e-05
5.81953e-06
9.73735e-05
0.000382142
0.000731148
0.00023987
1.56311e-05
2.1159e-05
0.000291836
0.000873062
0.00102409
0.00035053
2.70355e-05
3.36632e-05
0.00041518
0.00119003
0.00136133
0.000482203
4.11012e-05
2.39953e-05
0.000352848
0.00105159
0.000766786
0.000250629
1.43517e-05
2.96656e-05
0.000378161
0.00110354
0.0016149
0.000608099
5.14528e-05
2.58819e-05
0.000203432
0.000708785
0.000983371
0.000342792
2.53907e-05
6.04448e-05
0.000731338
0.00140929
0.00067732
0.000233747
3.73538e-05
4.81913e-05
0.000496236
0.000736034
0.000833729
0.000504779
4.04071e-05
3.00306e-05
0.000370545
0.000834217
0.000915139
0.000379984
3.35865e-05
5.98506e-05
0.000641671
0.00134781
0.00094455
0.000335264
5.85017e-05
2.96753e-05
8.29338e-05
0.000238702
0.000486492
0.000237396
3.53948e-05
3.65558e-05
0.000192012
0.000429116
0.000155866
6.0697e-05
1.64026e-05
2.78833e-05
0.000211566
0.000382546
0.000354769
0.000177873
2.89133e-05
1.19295e-05
5.53417e-05
0.000142431
0.000370023
0.000205695
2.53143e-05
2.60461e-05
0.000174077
0.000347304
0.000140645
5.18484e-05
1.09334e-05
2.30069e-05
0.000197681
0.000360318
0.000337521
0.000163335
2.37448e-05
1.07774e-05
4.56949e-05
0.00013302
0.000342075
0.000180026
2.00622e-05
2.11413e-05
0.000150053
0.000319617
0.000120293
4.06291e-05
1.07343e-05
1.81208e-05
0.000164039
0.000318364
0.000297559
0.000135287
1.93248e-05
1.0577e-05
3.5837e-05
0.000107214
0.000293099
0.000147495
1.64042e-05
1.79313e-05
0.000121698
0.000273279
9.47276e-05
3.16632e-05
1.06446e-05
1.48309e-05
0.000130251
0.000268668
0.000249192
0.000107598
1.64297e-05
1.03007e-05
2.81938e-05
8.28895e-05
0.000241807
0.000115902
1.36082e-05
1.51991e-05
9.33806e-05
0.000222876
6.95401e-05
2.35824e-05
9.60974e-06
1.2063e-05
0.000120299
0.000192573
8.92282e-05
3.61659e-05
1.21398e-05
1.46719e-05
0.000121963
0.000244441
0.000214915
9.43369e-05
1.61021e-05
1.07573e-05
2.91107e-05
7.19247e-05
0.000208195
0.000103272
1.29468e-05
1.47354e-05
8.22002e-05
0.000188424
6.18015e-05
2.48433e-05
1.01914e-05
1.18737e-05
8.82748e-05
0.000185287
0.000166082
7.18136e-05
1.37543e-05
9.68372e-06
2.08331e-05
5.17121e-05
0.000138722
9.4262e-05
1.04847e-05
1.14327e-05
2.98929e-05
6.49586e-05
0.000184003
8.84302e-05
1.26244e-05
1.43068e-05
6.86998e-05
0.000156724
5.17224e-05
2.1915e-05
1.00513e-05
1.05096e-05
8.71868e-05
0.000127658
6.10619e-05
2.90959e-05
1.1656e-05
1.24198e-05
8.08522e-05
0.000168843
0.000144525
6.6521e-05
1.42167e-05
1.03886e-05
2.36051e-05
5.12569e-05
0.000135272
6.82076e-05
1.08544e-05
1.31688e-05
5.59175e-05
0.000119746
4.21889e-05
1.89445e-05
9.79336e-06
9.29363e-06
7.20179e-05
9.34368e-05
4.8145e-05
2.47943e-05
1.08615e-05
1.02176e-05
7.20085e-05
0.000112005
5.48763e-05
2.76952e-05
1.1878e-05
1.14934e-05
6.85368e-05
0.000141415
0.000116523
5.48679e-05
1.35471e-05
1.01285e-05
2.06042e-05
4.37758e-05
9.38513e-05
6.21104e-05
9.47126e-06
1.14892e-05
2.63816e-05
4.93049e-05
0.000123829
6.51807e-05
1.09742e-05
1.31478e-05
5.29833e-05
0.000104238
4.07306e-05
1.95567e-05
9.96597e-06
9.08778e-06
5.87668e-05
8.22212e-05
4.54104e-05
2.47189e-05
1.11502e-05
9.9292e-06
6.75694e-05
9.23573e-05
4.93828e-05
2.71543e-05
1.17486e-05
1.08327e-05
5.83612e-05
0.000114424
9.56439e-05
4.87781e-05
1.31902e-05
1.01653e-05
1.99914e-05
3.89311e-05
7.12199e-05
6.1388e-05
9.14753e-06
1.1042e-05
2.5172e-05
4.13094e-05
8.0877e-05
6.12643e-05
9.77823e-06
1.18274e-05
2.70475e-05
4.53336e-05
9.97563e-05
5.3613e-05
1.0766e-05
1.31025e-05
4.51707e-05
8.43806e-05
3.6873e-05
2.15499e-05
1.00491e-05
8.82286e-06
5.2437e-05
6.63003e-05
3.93311e-05
2.55412e-05
1.11515e-05
9.65293e-06
5.624e-05
7.36555e-05
4.32716e-05
2.70069e-05
1.17579e-05
1.04777e-05
4.98209e-05
8.65785e-05
7.40744e-05
4.18765e-05
1.2898e-05
9.97579e-06
2.18056e-05
3.46187e-05
5.94509e-05
4.75585e-05
8.69601e-06
1.11971e-05
2.54241e-05
3.64983e-05
6.48461e-05
4.92746e-05
9.45495e-06
1.14306e-05
2.71899e-05
3.95233e-05
7.21786e-05
5.06465e-05
9.5506e-06
1.16825e-05
2.73891e-05
4.27337e-05
8.14776e-05
4.80998e-05
1.03219e-05
1.28846e-05
4.06086e-05
6.93784e-05
3.39124e-05
2.27075e-05
1.00763e-05
8.5386e-06
4.52186e-05
5.57008e-05
3.56652e-05
2.64368e-05
1.12673e-05
9.35851e-06
4.58084e-05
6.06534e-05
3.83076e-05
2.76902e-05
1.14338e-05
9.33944e-06
4.57707e-05
6.48246e-05
4.03511e-05
2.82306e-05
1.15621e-05
9.69405e-06
4.90545e-05
6.94443e-05
4.29029e-05
2.93147e-05
1.18131e-05
1.03537e-05
4.84414e-05
7.85273e-05
6.69794e-05
4.14456e-05
1.29042e-05
1.01924e-05
2.48955e-05
3.5367e-05
5.35862e-05
4.53229e-05
8.78589e-06
1.13656e-05
2.8812e-05
3.59765e-05
5.79317e-05
4.43594e-05
9.3369e-06
1.15981e-05
2.91253e-05
3.81721e-05
6.08503e-05
4.4225e-05
9.43382e-06
1.16927e-05
3.02846e-05
4.01065e-05
6.5199e-05
4.77296e-05
9.73541e-06
1.18998e-05
3.09602e-05
4.22455e-05
7.40105e-05
4.73961e-05
1.02952e-05
1.28725e-05
4.14752e-05
6.37072e-05
3.52153e-05
2.69132e-05
1.03315e-05
8.71159e-06
4.45564e-05
5.23464e-05
3.5897e-05
2.98134e-05
1.15836e-05
9.395e-06
4.32766e-05
5.62184e-05
3.79322e-05
3.03705e-05
1.17238e-05
9.53008e-06
4.38858e-05
5.83e-05
3.95469e-05
3.14764e-05
1.17968e-05
9.64306e-06
4.61699e-05
6.06956e-05
4.10291e-05
3.24915e-05
1.19232e-05
1.01442e-05
4.59909e-05
6.96009e-05
6.05535e-05
4.10496e-05
1.28731e-05
1.04572e-05
2.85289e-05
3.50129e-05
5.08636e-05
4.45765e-05
9.01081e-06
1.16872e-05
3.12015e-05
3.61004e-05
5.45269e-05
4.33945e-05
9.45512e-06
1.18895e-05
3.16575e-05
3.80713e-05
5.63019e-05
4.3326e-05
9.55578e-06
1.18951e-05
3.25826e-05
3.94506e-05
5.80882e-05
4.51467e-05
9.69403e-06
1.20472e-05
3.4377e-05
4.05139e-05
6.70494e-05
4.52883e-05
1.01738e-05
1.29618e-05
4.11449e-05
5.88541e-05
3.49744e-05
2.9901e-05
1.05477e-05
8.97762e-06
4.4541e-05
5.02406e-05
3.64598e-05
3.23451e-05
1.18515e-05
9.66424e-06
4.29375e-05
5.36894e-05
3.83517e-05
3.29394e-05
1.20783e-05
9.64603e-06
4.34887e-05
5.53949e-05
3.9509e-05
3.39281e-05
1.1979e-05
9.68046e-06
4.52338e-05
5.72431e-05
4.07114e-05
3.5973e-05
1.22284e-05
1.04799e-05
4.57804e-05
6.63372e-05
5.85253e-05
4.20271e-05
1.32304e-05
1.07079e-05
3.16979e-05
3.58033e-05
5.08406e-05
4.60189e-05
8.82074e-06
1.20187e-05
3.38398e-05
3.74057e-05
5.39724e-05
4.33144e-05
9.78628e-06
1.22504e-05
3.44004e-05
3.9219e-05
5.57491e-05
4.43142e-05
9.94243e-06
1.22524e-05
3.5897e-05
4.06419e-05
5.79821e-05
4.6604e-05
9.8153e-06
1.236e-05
3.8178e-05
4.19144e-05
6.70374e-05
4.71257e-05
1.05281e-05
1.34006e-05
4.37048e-05
5.96265e-05
3.75029e-05
3.39956e-05
1.08777e-05
9.18909e-06
4.78492e-05
5.25603e-05
3.92376e-05
3.60475e-05
1.21718e-05
9.81952e-06
4.61541e-05
5.61641e-05
4.14437e-05
3.69282e-05
1.24014e-05
9.9503e-06
4.70973e-05
5.86205e-05
4.25626e-05
3.92122e-05
1.24986e-05
1.05534e-05
4.75903e-05
6.7607e-05
6.03376e-05
4.43956e-05
1.35577e-05
1.11394e-05
3.5429e-05
3.84605e-05
5.33663e-05
4.89501e-05
9.3883e-06
1.24321e-05
3.79552e-05
4.04258e-05
5.73425e-05
4.75526e-05
1.00824e-05
1.25408e-05
3.87933e-05
4.27641e-05
5.98746e-05
4.86442e-05
1.00726e-05
1.26869e-05
4.09536e-05
4.40046e-05
6.86052e-05
4.89851e-05
1.08145e-05
1.39745e-05
4.61545e-05
6.17349e-05
4.01377e-05
3.75686e-05
1.13339e-05
9.51582e-06
5.10237e-05
5.59162e-05
4.25065e-05
4.0131e-05
1.25887e-05
1.00789e-05
5.06743e-05
6.02285e-05
4.45271e-05
4.19799e-05
1.28519e-05
1.08591e-05
4.93753e-05
6.92504e-05
6.23426e-05
4.67697e-05
1.42198e-05
1.15312e-05
3.85832e-05
4.08747e-05
5.68237e-05
5.17497e-05
9.70942e-06
1.2782e-05
4.15604e-05
4.36915e-05
6.1457e-05
5.16888e-05
1.02938e-05
1.31224e-05
4.36722e-05
4.59752e-05
7.04907e-05
5.07583e-05
1.10241e-05
1.449e-05
4.83582e-05
6.39075e-05
4.27882e-05
4.07178e-05
1.1847e-05
1.00774e-05
5.35454e-05
5.87958e-05
4.55002e-05
4.34146e-05
1.3047e-05
1.05454e-05
5.34967e-05
6.37989e-05
4.80331e-05
4.58044e-05
1.34554e-05
1.14316e-05
5.31608e-05
7.35088e-05
6.68653e-05
5.09481e-05
1.50951e-05
1.2286e-05
4.36004e-05
4.5303e-05
6.24459e-05
5.63638e-05
1.04053e-05
1.37627e-05
4.65901e-05
4.76635e-05
7.41473e-05
5.57927e-05
1.16242e-05
1.5236e-05
5.33635e-05
6.75891e-05
4.67734e-05
4.46893e-05
1.25341e-05
1.05723e-05
5.71334e-05
6.33423e-05
4.8877e-05
4.80297e-05
1.42187e-05
1.20807e-05
5.671e-05
7.50562e-05
6.89153e-05
5.45504e-05
1.59807e-05
1.27213e-05
4.61177e-05
4.81347e-05
6.45556e-05
5.96367e-05
1.03654e-05
1.43401e-05
4.98702e-05
5.02326e-05
7.65351e-05
5.72347e-05
1.22145e-05
1.64034e-05
5.55709e-05
7.05758e-05
4.98039e-05
4.83598e-05
1.31587e-05
1.08499e-05
6.114e-05
6.65612e-05
5.2602e-05
5.30731e-05
1.457e-05
1.22988e-05
6.00362e-05
8.01415e-05
7.42584e-05
5.86016e-05
1.68611e-05
1.43286e-05
5.30996e-05
5.29658e-05
7.649e-05
6.34274e-05
1.24136e-05
1.70878e-05
6.17492e-05
7.24439e-05
5.35479e-05
5.40339e-05
1.44842e-05
1.26992e-05
6.30534e-05
7.59717e-05
7.23733e-05
6.14693e-05
1.78606e-05
1.54443e-05
5.53269e-05
5.40402e-05
7.5727e-05
6.33199e-05
1.3249e-05
1.78749e-05
6.11953e-05
7.24133e-05
5.40565e-05
5.52448e-05
1.55944e-05
1.33946e-05
6.30544e-05
7.49763e-05
7.18485e-05
6.146e-05
1.88829e-05
1.64271e-05
5.77772e-05
5.50993e-05
7.64067e-05
6.47487e-05
1.35406e-05
1.87456e-05
6.3227e-05
7.34525e-05
5.65719e-05
5.99545e-05
1.67832e-05
1.4525e-05
6.66225e-05
7.81876e-05
7.54367e-05
6.50758e-05
2.01746e-05
1.75696e-05
6.3904e-05
5.9175e-05
8.31568e-05
7.05653e-05
1.53138e-05
2.30655e-05
7.55391e-05
7.93852e-05
7.48087e-05
7.15862e-05
2.11789e-05
1.94183e-05
6.76325e-05
6.2372e-05
8.55684e-05
7.26656e-05
1.70571e-05
2.66753e-05
7.45934e-05
8.48119e-05
8.16149e-05
7.46305e-05
2.62549e-05
2.80809e-05
7.88456e-05
7.66308e-05
7.59062e-05
7.49624e-05
2.83827e-05
3.01352e-05
7.7727e-05
7.29539e-05
7.19725e-05
7.15073e-05
2.84771e-05
2.62576e-05
7.17523e-05
6.53106e-05
8.19876e-05
7.32709e-05
2.28986e-05
3.64259e-05
7.562e-05
8.06018e-05
7.94079e-05
8.10302e-05
3.94876e-05
4.11321e-05
8.56588e-05
7.92543e-05
7.95811e-05
8.93244e-05
4.2564e-05
4.27385e-05
9.34001e-05
8.00197e-05
8.10536e-05
9.74075e-05
4.19217e-05
4.09397e-05
0.000101434
8.21629e-05
8.39883e-05
0.000105628
3.94855e-05
3.79787e-05
0.000109749
8.60703e-05
8.83971e-05
0.000114131
3.641e-05
3.48678e-05
0.000118409
9.11542e-05
9.45037e-05
0.000121963
3.34109e-05
3.2056e-05
0.00012361
9.80549e-05
0.000102134
0.000125257
3.08142e-05
2.96782e-05
0.000126531
0.000106943
0.000112699
0.000127445
2.86454e-05
2.77011e-05
0.000128234
0.000118769
0.000125052
0.000129117
2.68461e-05
2.60702e-05
0.000130224
0.000131174
0.000137539
0.000131413
2.53758e-05
2.47446e-05
0.000132667
0.000143733
0.000150099
0.000134177
2.41888e-05
2.3691e-05
0.000135796
0.000156369
0.000162777
0.000137418
2.32529e-05
2.28691e-05
0.000139304
0.000168097
0.000173149
0.000141152
2.25351e-05
2.22457e-05
0.000143143
0.00017827
0.000183112
0.000145196
2.19986e-05
2.17956e-05
0.000147506
0.00018796
0.0001929
0.000149592
2.16197e-05
2.14788e-05
0.00015183
0.000197725
0.000202471
0.000154287
2.13679e-05
2.12775e-05
0.000156469
0.000207162
0.000211997
0.000158863
2.12088e-05
2.11597e-05
0.000161069
0.000216414
0.000220878
0.000163575
2.11257e-05
2.11046e-05
0.000165649
0.000225326
0.000229452
0.00016806
2.10923e-05
2.10905e-05
0.000170097
0.000233706
0.000237678
0.000172365
2.10933e-05
2.11016e-05
0.000174339
0.000241574
0.000245509
0.000176305
2.11101e-05
2.11209e-05
0.000178153
0.000249032
0.000252556
0.000180118
2.11376e-05
2.11411e-05
0.000181602
0.000256015
0.000259229
0.000183391
2.11589e-05
2.11586e-05
0.000184794
0.000262326
0.000265373
0.000186318
2.11712e-05
2.11663e-05
0.000187561
0.000268124
0.000271034
0.000188688
2.11673e-05
2.11613e-05
0.000189891
0.000273557
0.000276182
0.000190748
2.11507e-05
2.11427e-05
0.000191842
0.000278491
0.000280794
0.000192503
2.11222e-05
2.11073e-05
0.000193279
0.000283201
0.000285274
0.00019386
2.10811e-05
2.1061e-05
0.00019447
0.000287396
0.00028949
0.000194934
2.10288e-05
2.10052e-05
0.000195402
0.00029141
0.000293438
0.000195723
2.09699e-05
2.09422e-05
0.000196022
0.000295311
0.000297116
0.000196412
2.09086e-05
2.08739e-05
0.000196446
0.000299109
0.000300731
0.000196736
2.0839e-05
2.08067e-05
0.00019695
0.000302595
0.000304345
0.000196875
2.07641e-05
2.07325e-05
0.000197051
0.00030627
0.000307896
0.000196992
2.06896e-05
2.06583e-05
0.000197084
0.000309664
0.000311478
0.000197029
2.06156e-05
2.05842e-05
0.000197007
0.000313231
0.000314863
0.000197111
2.05457e-05
2.05136e-05
0.000197019
0.000316718
0.000318449
0.000196921
2.04738e-05
2.04453e-05
0.000196959
0.000320278
0.000322021
0.000196815
2.04068e-05
2.03789e-05
0.000196788
0.000323635
0.000324609
0.000196882
2.03473e-05
2.03189e-05
0.000196759
0.000325581
0.000326435
0.00019671
2.02889e-05
2.0263e-05
0.000196663
0.000327297
0.000328088
0.000196586
2.02355e-05
2.02087e-05
0.000196435
0.000328851
0.00032961
0.000196547
2.01871e-05
2.01564e-05
0.000196184
0.000330307
0.000331033
0.00019628
2.01374e-05
2.01101e-05
0.000196141
0.000331697
0.000332385
0.000195865
2.0086e-05
2.00642e-05
0.000195888
0.000333039
0.000333695
0.000195524
2.00373e-05
2.00191e-05
0.000195518
0.000334329
0.000334998
0.00019531
1.99936e-05
1.99764e-05
0.000195223
0.000335611
0.000336299
0.000195086
1.99532e-05
1.9934e-05
0.000194781
0.000336888
0.000337587
0.00019482
1.9916e-05
1.98974e-05
0.000194559
0.000338192
0.000338872
0.000194457
1.98805e-05
1.98649e-05
0.000194325
0.000339509
0.000340181
0.00019419
1.98501e-05
1.98352e-05
0.000193987
0.000340851
0.000341493
0.000194041
1.9825e-05
1.98136e-05
0.000194009
0.000342224
0.000342883
0.000193831
1.98025e-05
1.97927e-05
0.000193733
0.000343596
0.000344294
0.000193721
1.9785e-05
1.97766e-05
0.000193617
0.000344993
0.000345726
0.000193529
1.97709e-05
1.97674e-05
0.000193697
0.00034644
0.000347186
0.000193554
1.97622e-05
1.97604e-05
0.000193581
0.000347922
0.000348655
0.000193445
1.97565e-05
1.97591e-05
0.000193627
0.000349432
0.000350165
0.0001937
1.97586e-05
1.97595e-05
0.000193626
0.000350964
0.000351706
0.000193672
1.97613e-05
1.97636e-05
0.000193613
0.000352504
0.000353283
0.000193807
1.97697e-05
1.97749e-05
0.000193968
0.000354062
0.000354882
0.000193787
1.97793e-05
1.97874e-05
0.000194126
0.000355651
0.000356477
0.000194091
1.97942e-05
1.98027e-05
0.000194192
0.000357243
0.000358089
0.000194301
1.98121e-05
1.98223e-05
0.0001944
0.000358864
0.000359709
0.000194556
1.98332e-05
1.98451e-05
0.000194655
0.000360485
0.000361325
0.000194816
1.98573e-05
1.98706e-05
0.000194929
0.000362089
0.000362964
0.000195103
1.98842e-05
1.98989e-05
0.000195232
0.000363694
0.000364563
0.000195412
1.99136e-05
1.99296e-05
0.000195549
0.000365314
0.000366147
0.000195741
1.99452e-05
1.99627e-05
0.000195898
0.000366925
0.000367713
0.00019606
1.99786e-05
1.99974e-05
0.000196249
0.000368503
0.000369279
0.000196404
2.00139e-05
2.00329e-05
0.000196494
0.000370064
0.000370825
0.000196918
2.00525e-05
2.00705e-05
0.000196853
0.000371599
0.000372351
0.000197276
2.00915e-05
2.01086e-05
0.000197198
0.000373101
0.000373853
0.000197533
2.01305e-05
2.01501e-05
0.000197821
0.000374574
0.000375322
0.000197771
2.01695e-05
2.01913e-05
0.000198182
0.000376032
0.000376754
0.000198224
2.02101e-05
2.02311e-05
0.000198418
0.000377472
0.000378155
0.000198594
2.02513e-05
2.02728e-05
0.000198786
0.000378865
0.000379525
0.000198961
2.02931e-05
2.0315e-05
0.000199147
0.000380209
0.000380869
0.000199313
2.03352e-05
2.03575e-05
0.000199497
0.000381541
0.000382199
0.000199658
2.03773e-05
2.04003e-05
0.000199852
0.000382829
0.000383459
0.000199995
2.04195e-05
2.04431e-05
0.000200193
0.000384088
0.000384702
0.000200316
2.04617e-05
2.04848e-05
0.000200404
0.00038532
0.00038591
0.000200802
2.05055e-05
2.05275e-05
0.000200717
0.000386513
0.00038708
0.000201112
2.05479e-05
2.05697e-05
0.000201032
0.000387668
0.000388217
0.000201403
2.05902e-05
2.06117e-05
0.000201424
0.000388783
0.00038932
0.000201567
2.06304e-05
2.06521e-05
0.000201612
0.000389856
0.00039039
0.000201994
2.06733e-05
2.06931e-05
0.000201873
0.000390896
0.000391408
0.000202143
2.07136e-05
2.0735e-05
0.00020228
0.000391906
0.000392408
0.000202396
2.0754e-05
2.07756e-05
0.000202543
0.000392878
0.00039337
0.000202772
2.07947e-05
2.08142e-05
0.000202651
0.000393832
0.000394292
0.000203018
2.08347e-05
2.0853e-05
0.000202889
0.000394741
0.000395174
0.000203251
2.08747e-05
2.08908e-05
0.000203079
0.00039562
0.000396008
0.000203373
2.09129e-05
2.09311e-05
0.000203568
0.000396479
0.000396819
0.000203541
2.09505e-05
2.09678e-05
0.000203648
0.000397296
0.000397597
0.000203748
2.09879e-05
2.1005e-05
0.000203849
0.000398064
0.000398342
0.000203941
2.1025e-05
2.10416e-05
0.000204036
0.000398799
0.000399086
0.000204121
2.10616e-05
2.10776e-05
0.000204209
0.000399454
0.000399771
0.00020419
2.10967e-05
2.11146e-05
0.00020451
0.000400118
0.000400411
0.000204461
2.11324e-05
2.11482e-05
0.000204503
0.000400747
0.000401029
0.0002045