/*--------------------------------*- C++ -*----------------------------------*\
| =========                 |                                                 |
| \\      /  F ield         | OpenFOAM: The Open Source CFD Toolbox           |
|  \\    /   O peration     | Version:  v2006                                 |
|   \\  /    A nd           | Website:  www.openfoam.com                      |
|    \\/     M anipulation  |                                                 |
\*---------------------------------------------------------------------------*/
FoamFile
{
    version     2.0;
    format      ascii;
    class       volScalarField;
    location    "0.024";
    object      T;
}
// * * * * * * * * * * * * * * * * * * * * * * * * * * * * * * * * * * * * * //

dimensions      [0 0 0 1 0 0 0];


internalField   nonuniform List<scalar> 
24416
(
296.979
296.979
296.979
296.979
296.979
296.979
296.979
296.979
296.979
296.979
296.979
296.979
296.979
296.979
296.979
296.979
296.979
296.979
296.979
296.98
296.983
296.987
296.992
296.999
297.005
297.012
297.019
297.026
297.033
297.04
297.048
297.055
297.063
297.07
297.078
297.086
297.094
297.102
297.11
297.119
297.127
297.136
297.145
297.153
297.162
297.171
297.18
297.189
297.198
297.207
297.216
297.225
297.235
297.244
297.253
297.262
297.271
297.281
297.29
297.299
297.308
297.317
297.326
297.335
297.343
297.352
297.361
297.369
297.378
297.386
297.394
297.403
297.411
297.418
297.426
297.434
297.441
297.449
297.456
297.463
297.47
297.476
297.483
297.489
297.496
297.502
297.509
297.515
297.521
297.526
297.529
297.531
297.531
297.531
297.53
297.529
297.528
297.527
297.527
297.526
297.527
297.528
297.529
297.534
297.541
297.551
297.564
297.585
297.606
297.694
297.715
297.607
297.575
297.575
297.614
297.75
297.782
297.624
297.576
297.578
297.632
297.802
297.82
297.643
297.582
297.587
297.653
297.828
297.836
297.663
297.593
297.599
297.671
297.841
297.845
297.676
297.603
297.609
297.682
297.847
297.847
297.687
297.613
297.619
297.692
297.847
297.845
297.696
297.623
297.628
297.701
297.844
297.841
297.704
297.633
297.637
297.708
297.839
297.836
297.711
297.641
297.645
297.714
297.834
297.831
297.716
297.649
297.653
297.718
297.828
297.826
297.72
297.656
297.659
297.722
297.824
297.822
297.724
297.663
297.666
297.726
297.82
297.818
297.728
297.669
297.672
297.729
297.816
297.814
297.731
297.675
297.677
297.733
297.813
297.812
297.735
297.681
297.683
297.736
297.811
297.811
297.739
297.687
297.69
297.741
297.811
297.812
297.744
297.694
297.696
297.746
297.812
297.813
297.749
297.701
297.703
297.751
297.813
297.814
297.754
297.708
297.71
297.756
297.815
297.816
297.76
297.715
297.718
297.762
297.817
297.819
297.766
297.723
297.725
297.768
297.82
297.821
297.771
297.73
297.733
297.773
297.822
297.824
297.777
297.738
297.74
297.779
297.825
297.827
297.783
297.745
297.748
297.785
297.828
297.83
297.789
297.753
297.756
297.791
297.831
297.833
297.795
297.761
297.763
297.797
297.834
297.837
297.801
297.768
297.771
297.803
297.838
297.841
297.808
297.776
297.779
297.81
297.842
297.845
297.814
297.784
297.787
297.816
297.847
297.85
297.821
297.792
297.795
297.824
297.852
297.856
297.829
297.801
297.804
297.831
297.858
297.863
297.837
297.81
297.813
297.839
297.865
297.869
297.845
297.819
297.823
297.848
297.872
297.876
297.854
297.829
297.832
297.857
297.879
297.884
297.863
297.839
297.843
297.866
297.887
297.892
297.872
297.85
297.853
297.875
297.894
297.9
297.882
297.861
297.864
297.885
297.902
297.908
297.892
297.872
297.875
297.895
297.911
297.917
297.902
297.883
297.887
297.905
297.919
297.925
297.912
297.895
297.899
297.916
297.928
297.934
297.923
297.907
297.911
297.927
297.938
297.944
297.934
297.919
297.923
297.938
297.947
297.954
297.946
297.932
297.936
297.95
297.957
297.964
297.958
297.945
297.949
297.962
297.968
297.975
297.97
297.958
297.962
297.974
297.979
297.987
297.983
297.972
297.977
297.987
297.991
297.999
297.996
297.986
297.991
298.001
298.003
298.011
298.01
298.001
298.006
298.015
298.015
298.024
298.024
298.017
298.022
298.029
298.029
298.038
298.039
298.033
298.038
298.044
298.042
298.051
298.054
298.049
298.055
298.06
298.056
298.066
298.07
298.066
298.072
298.076
298.071
298.081
298.087
298.084
298.09
298.092
298.086
298.096
298.104
298.102
298.108
298.109
298.102
298.113
298.121
298.121
298.127
298.127
298.118
298.129
298.139
298.14
298.146
298.146
298.135
298.147
298.158
298.16
298.167
298.165
298.153
298.165
298.178
298.181
298.188
298.184
298.171
298.184
298.198
298.202
298.209
298.205
298.19
298.203
298.219
298.224
298.231
298.226
298.21
298.223
298.24
298.247
298.254
298.248
298.23
298.244
298.263
298.27
298.278
298.27
298.252
298.266
298.286
298.295
298.303
298.294
298.274
298.289
298.309
298.32
298.328
298.318
298.296
298.312
298.334
298.345
298.354
298.343
298.32
298.336
298.359
298.372
298.381
298.368
298.344
298.36
298.385
298.399
298.408
298.395
298.369
298.386
298.412
298.427
298.437
298.422
298.395
298.412
298.44
298.456
298.466
298.45
298.421
298.439
298.468
298.486
298.496
298.478
298.449
298.466
298.497
298.516
298.527
298.508
298.477
298.495
298.527
298.548
298.558
298.538
298.506
298.524
298.558
298.58
298.591
298.569
298.536
298.555
298.589
298.612
298.624
298.602
298.568
298.587
298.622
298.646
298.658
298.635
298.601
298.62
298.655
298.68
298.692
298.668
298.634
298.654
298.689
298.715
298.728
298.703
298.668
298.688
298.724
298.751
298.764
298.739
298.703
298.723
298.76
298.787
298.801
298.775
298.739
298.759
298.796
298.825
298.839
298.811
298.775
298.795
298.833
298.862
298.877
298.848
298.812
298.832
298.87
298.9
298.915
298.886
298.848
298.869
298.907
298.938
298.954
298.924
298.886
298.906
298.944
298.976
298.993
298.962
298.924
298.942
298.981
299.014
299.03
298.998
298.962
298.977
299.017
299.053
299.064
299.032
298.997
299.015
299.05
299.084
299.103
299.064
299.02
299.037
299.069
299.103
299.117
299.077
299.065
299.176
299.102
299.106
299.124
299.142
299.191
299.208
299.17
299.135
299.149
299.194
299.222
299.231
299.212
299.181
299.205
299.223
299.238
299.247
299.232
299.218
299.229
299.244
299.258
299.271
299.258
299.241
299.261
299.278
299.285
299.298
299.297
299.283
299.31
299.319
299.311
299.316
299.329
299.326
299.349
299.348
299.331
299.335
299.353
299.358
299.378
299.372
299.351
299.355
299.377
299.383
299.408
299.4
299.375
299.38
299.406
299.413
299.439
299.43
299.398
299.404
299.437
299.444
299.475
299.466
299.425
299.429
299.476
299.485
299.526
299.515
299.46
299.475
299.528
299.54
299.585
299.565
299.492
299.522
299.588
299.604
299.654
299.622
299.528
299.577
299.646
299.658
299.724
299.679
299.568
299.627
299.708
299.723
299.775
299.737
299.631
299.68
299.767
299.786
299.82
299.795
299.704
299.742
299.823
299.838
299.857
299.848
299.776
299.809
299.871
299.874
299.887
299.89
299.841
299.87
299.908
299.9
299.909
299.921
299.895
299.916
299.933
299.918
299.924
299.94
299.932
299.945
299.948
299.932
299.936
299.952
299.954
299.96
299.957
299.943
299.947
299.96
299.964
299.968
299.964
299.953
299.957
299.966
299.97
299.973
299.97
299.963
299.966
299.972
299.975
299.977
299.975
299.972
299.974
299.976
299.978
299.98
299.979
299.978
299.98
299.98
299.981
299.983
299.982
299.983
299.985
299.984
299.984
299.985
299.986
299.987
299.989
299.988
299.987
299.989
299.99
299.992
299.993
299.992
299.991
299.992
299.994
299.997
299.994
299.996
299.997
299.994
299.998
300.002
299.999
299.999
299.997
300.002
300.001
300
300
300
299.999
300
300
300
300
300
300
299.999
299.997
299.985
299.955
299.91
299.86
299.807
299.751
299.697
299.641
299.592
299.549
299.513
299.486
299.466
299.452
299.442
299.436
299.431
299.428
299.424
299.42
299.415
299.41
299.404
299.397
299.39
299.382
299.373
299.364
299.355
299.345
299.334
299.323
299.312
299.3
299.288
299.276
299.265
299.255
299.245
299.236
299.233
299.241
299.249
299.255
299.259
299.252
299.245
299.252
299.26
299.271
299.276
299.262
299.254
299.26
299.27
299.287
299.293
299.275
299.265
299.268
299.279
299.297
299.303
299.285
299.274
299.276
299.287
299.306
299.311
299.293
299.282
299.284
299.294
299.313
299.317
299.299
299.289
299.29
299.301
299.319
299.323
299.306
299.295
299.297
299.307
299.325
299.329
299.312
299.301
299.303
299.313
299.331
299.335
299.318
299.308
299.31
299.32
299.337
299.342
299.324
299.314
299.316
299.326
299.344
299.348
299.331
299.321
299.324
299.333
299.351
299.355
299.338
299.329
299.331
299.34
299.358
299.363
299.346
299.337
299.339
299.348
299.365
299.371
299.354
299.345
299.348
299.357
299.374
299.38
299.363
299.355
299.358
299.366
299.383
299.39
299.373
299.365
299.368
299.376
299.392
299.4
299.383
299.375
299.379
299.387
299.403
299.411
299.394
299.387
299.391
299.398
299.414
299.422
299.407
299.399
299.404
299.411
299.426
299.435
299.419
299.412
299.416
299.423
299.438
299.448
299.433
299.425
299.431
299.438
299.452
299.461
299.446
299.439
299.444
299.451
299.465
299.473
299.459
299.452
299.457
299.463
299.477
299.48
299.468
299.464
299.469
299.472
299.484
299.494
299.482
299.478
299.487
299.491
299.504
299.518
299.503
299.499
299.509
299.515
299.535
299.55
299.528
299.521
299.53
299.537
299.572
299.597
299.541
299.534
299.53
299.526
299.653
299.882
299.573
299.413
299.584
299.564
299.563
299.597
299.586
299.589
299.6
299.601
299.603
299.615
299.611
299.612
299.626
299.622
299.62
299.638
299.638
299.639
299.649
299.646
299.642
299.652
299.655
299.658
299.66
299.657
299.655
299.656
299.656
299.657
299.651
299.648
299.649
299.628
299.628
299.635
299.605
299.594
299.599
299.534
299.531
299.551
299.483
299.452
299.445
299.3
299.323
299.347
299.249
299.182
299.114
298.845
298.998
299.109
298.921
298.782
298.527
298.155
298.498
298.644
298.487
298.256
297.756
297.304
298.026
298.272
297.939
297.716
296.906
296.415
297.502
297.795
297.493
297.277
296.066
295.341
296.943
297.198
296.842
296.592
294.966
294.416
295.313
296.299
294.536
293.674
294.092
294.174
292.854
293.256
292.925
292.745
294.54
295.353
293.163
292.794
293.474
294.368
296.384
297.988
295.654
293.966
294.783
297.626
299.229
300.562
299.385
297.171
297.669
300.22
301.5
302.137
301.224
298.828
300.614
301.897
302.511
302.813
302.225
300.64
301.413
302.56
302.91
303.05
302.939
302.332
302.356
302.981
303.051
303.01
302.91
302.602
302.976
303.059
302.81
302.562
302.842
302.756
302.664
302.757
302.802
302.708
302.79
302.837
302.644
302.706
302.491
302.671
302.614
302.539
302.661
302.728
302.723
302.537
302.601
302.532
302.417
302.485
302.516
302.652
302.61
302.526
302.376
302.457
302.515
302.396
302.349
302.256
302.36
302.463
302.537
302.284
302.236
302.168
302.256
302.305
302.37
302.239
302.109
301.961
301.877
302.056
302.123
302.27
302.142
302.051
301.683
301.87
302.06
301.877
301.809
301.624
301.986
301.551
302.266
301.686
301.725
301.254
301.379
301.492
301.589
302.249
301.254
301.705
300.738
301.711
301.087
301.619
300.835
301.402
300.957
301.055
301.23
301.166
301.137
300.998
301.354
300.491
301.658
300.567
301.276
300.505
300.69
301.017
301.108
301
300.641
300.656
300.626
300.759
300.87
300.867
300.991
300.481
300.512
300.016
301.036
300.714
300.632
300.514
300.029
300.727
301.167
301.005
299.327
300.484
300.465
299.832
300.616
300.206
300.215
300.028
300.147
300.241
300.261
300.196
300.009
299.917
299.974
300.173
300.158
300.757
299.275
300.273
299.455
300.426
299.536
299.851
300.046
299.769
299.669
299.634
299.889
299.806
299.824
299.678
299.966
298.725
300.593
298.969
300.313
299.169
299.21
299.841
299.596
299.736
299.019
299.373
299.29
299.344
299.626
299.459
299.19
299.129
299.254
299.351
299.393
299.196
299.637
298.818
299.207
298.042
299.587
299.22
298.912
298.931
298.825
298.863
299.084
299.086
298.954
298.881
298.715
298.78
299.033
298.939
298.917
298.761
299.014
297.77
299.758
298.093
299.474
298.296
298.297
299.035
298.544
298.785
298.361
298.555
298.431
298.584
298.742
298.605
298.345
298.291
298.345
298.493
298.527
299.351
297.354
298.521
297.833
299.069
297.507
298.053
298.597
297.942
298.206
297.806
298.359
298.195
298.077
297.933
297.846
297.916
298.107
298.107
297.991
297.872
297.754
297.831
298.035
297.986
297.999
297.831
298.003
296.704
298.805
297.297
298.443
297.308
297.352
298.197
297.552
297.909
297.117
297.657
297.344
297.68
297.67
297.818
297.223
297.361
297.306
297.519
297.656
297.53
297.312
297.224
297.255
297.37
297.542
297.455
297.189
297.115
297.113
297.308
297.384
298.087
296.332
297.306
296.622
297.723
296.779
296.904
297.563
296.902
296.962
296.643
297.252
297.053
297.038
296.789
296.714
296.587
297.186
296.978
296.882
296.671
296.577
296.68
296.911
296.914
296.747
296.618
296.465
296.532
296.767
296.97
296.848
296.584
296.612
295.702
297.123
297.015
295.632
296.488
296.46
295.68
297.262
296.734
296.099
296.208
296.3
295.914
296.92
296.491
296.163
296.037
296.107
296.132
296.591
296.366
296.025
295.965
295.996
296.1
296.365
296.198
295.896
295.839
295.851
296.116
296.369
296.68
295.202
295.977
295.322
296.232
295.724
295.77
296.141
295.658
295.595
295.408
296.117
295.89
295.761
295.53
295.422
295.45
295.918
295.8
295.572
295.407
295.275
295.365
295.68
295.673
295.427
295.316
295.114
295.187
295.511
295.624
295.36
295.222
294.95
295.86
295.107
294.764
295.556
294.7
294.743
295.848
294.734
295.216
294.887
294.828
294.777
295.256
295.009
295.274
294.604
294.698
294.65
294.895
295.017
295.05
294.599
294.528
294.544
294.763
295.003
294.861
294.449
294.393
294.314
294.699
294.872
295.17
294.033
294.548
293.927
294.543
294.439
294.588
294.426
294.143
294.017
294.047
294.676
294.598
294.267
294.033
293.873
293.901
294.509
294.415
294.079
293.908
293.677
293.739
294.27
294.193
293.905
293.702
293.547
293.589
294.062
294.001
293.834
293.472
293.676
293.336
294.347
294.27
293.066
293.419
293.436
293.157
294.102
293.728
293.295
293.078
293.227
293.277
293.746
293.457
293.153
292.899
292.993
293.082
293.64
293.24
292.917
292.757
292.745
292.959
293.423
293.4
293.035
292.914
292.577
292.622
293.298
293.359
292.745
292.65
292.269
292.606
292.882
293.009
292.449
292.362
292.065
292.293
292.775
292.829
292.312
292.163
291.887
292.018
292.555
292.536
292.071
291.882
291.876
292.568
292.217
292.45
291.497
291.66
291.571
292.07
292.228
292.14
291.126
291.51
291.357
291.696
291.881
291.894
291.192
291.177
291.013
291.522
291.762
292.159
291.051
291.286
290.724
291.135
291.534
291.719
290.953
290.902
290.574
290.807
291.285
291.265
290.684
290.6
290.296
290.457
291.01
291.135
290.535
290.193
290.436
290.73
291.147
290.829
290.168
290.015
290.02
290.374
290.773
290.728
289.633
289.864
289.604
289.911
290.277
290.044
289.464
289.299
289.22
289.612
290.232
290.188
289.8
289.446
289.008
289.212
289.893
289.875
289.336
289.056
288.706
288.88
289.497
289.364
288.686
288.4
288.543
288.902
289.333
289.078
288.41
288.208
288.272
288.632
289.131
288.852
288.092
287.956
287.699
288.214
288.791
288.546
287.916
287.791
287.195
287.363
288.193
288.26
287.508
287.236
286.937
287.118
287.929
288.024
287.166
286.75
286.821
287.451
287.559
287.663
286.242
286.525
286.201
286.564
287.197
286.657
285.812
285.662
285.486
285.925
286.844
286.733
286.177
285.687
285.22
285.529
286.233
286.368
285.227
284.747
284.647
285.506
285.427
285.151
284.382
284.136
284.001
284.654
285.537
285.344
284.879
284.168
283.686
283.884
284.908
284.115
283.602
282.889
283.252
282.937
284.878
283.961
282.685
282.472
282.304
282.976
284.074
284.156
282.774
282.473
281.583
281.891
282.133
282.342
281.155
280.932
280.961
281.544
282.364
281.876
280.819
280.548
279.779
280.547
281.637
281.148
280.263
279.97
278.883
279.103
280.251
280.553
279.2
278.735
278.103
278.794
280.102
279.917
278.746
278.456
277.331
277.661
279.275
279.228
277.539
277.086
276.574
277.071
279.003
279.388
276.982
276.186
275.892
276.61
279.099
280.077
277.151
275.939
276.134
277.306
280.267
281.798
279.782
277.778
277.516
278.833
280.529
283.53
280.902
279.432
281.003
282.705
285.399
286.94
284.235
282.37
283.428
285.406
288.027
288.865
286.362
284.29
285.028
287.171
289.517
290.077
287.896
285.701
286.319
288.541
290.54
290.94
289.124
286.897
287.433
289.644
291.28
291.569
290.113
287.937
288.409
290.528
291.808
292.013
290.897
288.853
289.265
291.219
292.191
292.357
291.507
289.652
290.009
291.76
292.502
292.633
291.989
290.344
290.655
292.185
292.743
292.847
292.364
290.946
291.215
292.518
292.936
293.018
292.66
291.466
291.694
292.78
293.082
293.145
292.891
291.905
292.093
292.985
293.2
293.26
293.076
292.266
292.42
293.156
293.313
293.366
293.236
292.564
292.69
293.304
293.409
293.452
293.372
292.806
292.907
293.428
293.487
293.524
293.484
293.002
293.082
293.53
293.553
293.585
293.578
293.159
293.223
293.615
293.61
293.638
293.654
293.285
293.334
293.683
293.659
293.683
293.713
293.383
293.42
293.735
293.7
293.72
293.759
293.457
293.485
293.775
293.735
293.753
293.793
293.514
293.534
293.803
293.766
293.781
293.816
293.557
293.572
293.823
293.791
293.804
293.832
293.589
293.6
293.836
293.812
293.822
293.841
293.614
293.621
293.843
293.828
293.835
293.845
293.632
293.637
293.845
293.84
293.845
293.845
293.646
293.65
293.844
293.849
293.853
293.843
293.657
293.66
293.841
293.855
293.857
293.839
293.666
293.668
293.836
293.858
293.858
293.834
293.673
293.675
293.83
293.858
293.857
293.828
293.679
293.68
293.823
293.855
293.854
293.821
293.684
293.685
293.816
293.851
293.849
293.813
293.687
293.688
293.807
293.844
293.841
293.805
293.69
293.689
293.798
293.835
293.832
293.795
293.69
293.69
293.789
293.825
293.822
293.785
293.69
293.688
293.778
293.814
293.81
293.774
293.688
293.686
293.767
293.802
293.798
293.763
293.684
293.681
293.755
293.789
293.785
293.751
293.679
293.674
293.743
293.776
293.771
293.738
293.672
293.666
293.731
293.763
293.758
293.726
293.663
293.656
293.718
293.749
293.745
293.713
293.652
293.645
293.704
293.735
293.731
293.7
293.64
293.632
293.69
293.722
293.717
293.686
293.627
293.617
293.676
293.708
293.703
293.671
293.612
293.602
293.661
293.694
293.689
293.655
293.596
293.585
293.644
293.679
293.674
293.638
293.578
293.567
293.627
293.664
293.66
293.621
293.56
293.547
293.61
293.649
293.644
293.603
293.54
293.527
293.591
293.634
293.629
293.585
293.52
293.506
293.572
293.618
293.612
293.566
293.498
293.484
293.553
293.601
293.595
293.546
293.476
293.462
293.532
293.584
293.577
293.525
293.453
293.438
293.511
293.565
293.559
293.503
293.43
293.415
293.489
293.546
293.539
293.481
293.406
293.391
293.467
293.526
293.519
293.458
293.381
293.366
293.443
293.505
293.497
293.434
293.356
293.341
293.42
293.483
293.475
293.41
293.331
293.315
293.395
293.46
293.452
293.386
293.305
293.289
293.37
293.437
293.429
293.361
293.28
293.263
293.345
293.414
293.405
293.335
293.253
293.237
293.319
293.39
293.381
293.309
293.227
293.21
293.293
293.365
293.356
293.283
293.2
293.184
293.267
293.341
293.331
293.257
293.174
293.158
293.241
293.316
293.306
293.231
293.148
293.132
293.215
293.291
293.281
293.205
293.122
293.105
293.189
293.265
293.256
293.179
293.096
293.08
293.163
293.24
293.23
293.153
293.07
293.054
293.137
293.214
293.204
293.127
293.044
293.028
293.111
293.189
293.179
293.101
293.019
293.003
293.085
293.163
293.153
293.075
292.994
292.978
293.059
293.137
293.127
293.049
292.969
292.953
293.034
293.112
293.102
293.024
292.944
292.929
293.009
293.086
293.076
292.999
292.919
292.904
292.983
293.061
293.051
292.974
292.895
292.88
292.959
293.036
293.026
292.949
292.871
292.856
292.934
293.011
293.001
292.924
292.848
292.833
292.909
292.986
292.976
292.9
292.824
292.81
292.885
292.961
292.952
292.876
292.801
292.787
292.862
292.937
292.928
292.853
292.778
292.764
292.838
292.913
292.904
292.829
292.756
292.742
292.815
292.889
292.88
292.806
292.734
292.72
292.792
292.866
292.857
292.784
292.712
292.699
292.77
292.843
292.834
292.761
292.691
292.677
292.748
292.821
292.812
292.739
292.67
292.657
292.726
292.798
292.79
292.718
292.649
292.636
292.705
292.776
292.768
292.697
292.628
292.616
292.684
292.755
292.746
292.676
292.608
292.596
292.663
292.734
292.725
292.655
292.589
292.576
292.643
292.713
292.705
292.635
292.569
292.557
292.623
292.692
292.684
292.615
292.55
292.538
292.603
292.672
292.664
292.596
292.531
292.52
292.584
292.652
292.645
292.577
292.513
292.501
292.565
292.633
292.625
292.558
292.495
292.483
292.547
292.614
292.606
292.54
292.477
292.466
292.528
292.595
292.588
292.521
292.459
292.448
292.51
292.576
292.569
292.504
292.442
292.431
292.493
292.558
292.551
292.486
292.425
292.414
292.475
292.54
292.533
292.469
292.408
292.398
292.458
292.523
292.516
292.452
292.392
292.381
292.441
292.505
292.498
292.435
292.375
292.365
292.425
292.488
292.482
292.418
292.359
292.349
292.409
292.471
292.465
292.402
292.344
292.334
292.392
292.455
292.448
292.386
292.328
292.318
292.377
292.438
292.432
292.371
292.313
292.303
292.361
292.422
292.416
292.355
292.298
292.288
292.346
292.407
292.4
292.34
292.283
292.274
292.331
292.391
292.385
292.325
292.269
292.259
292.316
292.376
292.37
292.31
292.254
292.245
292.301
292.36
292.355
292.296
292.24
292.231
292.287
292.346
292.34
292.281
292.226
292.217
292.273
292.331
292.325
292.267
292.212
292.204
292.259
292.316
292.311
292.253
292.199
292.19
292.245
292.302
292.296
292.24
292.186
292.177
292.231
292.288
292.282
292.226
292.172
292.164
292.218
292.274
292.268
292.213
292.159
292.151
292.205
292.26
292.255
292.2
292.146
292.138
292.191
292.246
292.241
292.186
292.134
292.126
292.179
292.233
292.228
292.173
292.121
292.113
292.166
292.22
292.215
292.161
292.109
292.101
292.153
292.207
292.201
292.148
292.096
292.089
292.14
292.194
292.189
292.136
292.084
292.077
292.128
292.181
292.176
292.123
292.072
292.065
292.116
292.168
292.163
292.111
292.06
292.053
292.104
292.156
292.151
292.099
292.049
292.041
292.092
292.143
292.138
292.087
292.037
292.03
292.08
292.131
292.126
292.075
292.025
292.018
292.068
292.119
292.114
292.064
292.014
292.007
292.057
292.107
292.102
292.052
292.003
291.996
292.045
292.095
292.09
292.041
291.991
291.984
292.034
292.083
292.079
292.029
291.98
291.973
292.023
292.072
292.067
292.018
291.969
291.962
292.011
292.061
292.056
292.007
291.958
291.952
292
292.049
292.045
291.996
291.948
291.941
291.99
292.038
292.034
291.985
291.937
291.93
291.979
292.027
292.023
291.975
291.927
291.92
291.969
292.017
292.012
291.964
291.916
291.91
291.958
292.006
292.002
291.954
291.906
291.9
291.948
291.996
291.991
291.944
291.896
291.89
291.938
291.985
291.981
291.934
291.886
291.88
291.928
291.975
291.971
291.924
291.876
291.87
291.918
291.965
291.961
291.914
291.866
291.86
291.908
291.955
291.951
291.904
291.857
291.851
291.899
291.945
291.941
291.895
291.847
291.842
291.889
291.935
291.931
291.885
291.838
291.833
291.88
291.926
291.921
291.876
291.829
291.823
291.87
291.916
291.912
291.866
291.82
291.814
291.861
291.907
291.903
291.857
291.811
291.805
291.852
291.897
291.893
291.848
291.802
291.797
291.843
291.888
291.884
291.839
291.793
291.788
291.834
291.879
291.875
291.83
291.784
291.779
291.826
291.87
291.866
291.822
291.776
291.771
291.817
291.861
291.857
291.813
291.767
291.762
291.808
291.852
291.848
291.804
291.759
291.754
291.8
291.844
291.839
291.796
291.75
291.746
291.791
291.835
291.831
291.788
291.742
291.737
291.783
291.826
291.822
291.779
291.734
291.729
291.775
291.818
291.814
291.771
291.726
291.721
291.766
291.809
291.805
291.763
291.717
291.713
291.758
291.801
291.797
291.755
291.709
291.705
291.75
291.792
291.789
291.746
291.701
291.697
291.742
291.784
291.78
291.738
291.694
291.689
291.734
291.776
291.772
291.73
291.686
291.681
291.726
291.768
291.764
291.723
291.678
291.674
291.718
291.76
291.756
291.715
291.67
291.666
291.71
291.752
291.748
291.707
291.663
291.658
291.703
291.744
291.74
291.699
291.655
291.651
291.695
291.736
291.733
291.692
291.648
291.643
291.687
291.728
291.725
291.684
291.64
291.636
291.68
291.72
291.717
291.677
291.633
291.629
291.672
291.712
291.709
291.669
291.625
291.621
291.665
291.705
291.702
291.662
291.618
291.614
291.657
291.697
291.694
291.654
291.611
291.607
291.65
291.689
291.687
291.647
291.604
291.599
291.642
291.682
291.679
291.64
291.596
291.592
291.635
291.674
291.672
291.632
291.589
291.585
291.628
291.667
291.664
291.625
291.582
291.578
291.621
291.66
291.657
291.618
291.575
291.571
291.613
291.652
291.65
291.611
291.568
291.564
291.606
291.645
291.642
291.604
291.561
291.557
291.599
291.638
291.635
291.597
291.554
291.55
291.592
291.63
291.628
291.589
291.547
291.543
291.585
291.623
291.62
291.582
291.54
291.536
291.578
291.616
291.613
291.575
291.533
291.529
291.571
291.609
291.606
291.568
291.526
291.522
291.564
291.602
291.599
291.561
291.519
291.515
291.557
291.594
291.592
291.554
291.512
291.508
291.549
291.587
291.584
291.547
291.505
291.5
291.543
291.58
291.577
291.54
291.498
291.494
291.536
291.573
291.57
291.532
291.491
291.487
291.528
291.566
291.562
291.525
291.484
291.48
291.521
291.559
291.555
291.518
291.477
291.473
291.514
291.551
291.548
291.511
291.47
291.465
291.507
291.544
291.54
291.503
291.463
291.458
291.5
291.537
291.533
291.496
291.455
291.451
291.492
291.53
291.526
291.489
291.448
291.444
291.485
291.523
291.518
291.482
291.441
291.437
291.479
291.516
291.511
291.475
291.434
291.431
291.472
291.509
291.504
291.468
291.427
291.424
291.465
291.502
291.497
291.461
291.42
291.417
291.458
291.495
291.49
291.454
291.413
291.411
291.451
291.488
291.482
291.447
291.406
291.403
291.443
291.48
291.473
291.44
291.399
291.393
291.434
291.471
291.465
291.429
291.378
291.354
291.419
291.455
291.427
291.393
291.305
291.307
291.386
291.414
291.268
291.202
290.927
290.698
290.514
290.42
290.197
290.034
289.929
289.868
289.67
289.486
289.327
289.184
289.057
288.944
288.843
288.753
288.673
288.603
288.541
288.486
288.439
288.398
288.362
288.332
288.306
288.283
288.265
288.248
288.235
288.223
288.213
288.204
288.197
288.191
288.185
288.181
288.177
288.173
288.17
288.167
288.165
288.163
288.161
288.16
288.159
288.157
288.157
288.156
288.155
288.154
288.154
288.154
288.153
288.153
288.153
288.153
288.153
288.153
288.152
288.152
288.151
288.151
288.15
288.15
288.149
288.148
288.148
288.147
288.146
288.145
288.145
288.144
288.143
288.143
288.142
288.142
288.141
288.141
288.14
288.14
288.139
288.139
288.139
288.139
288.138
288.138
288.138
288.138
288.138
288.138
288.138
288.137
288.137
288.136
288.136
288.136
288.136
288.137
288.138
288.141
288.144
288.148
288.153
288.158
288.165
288.173
288.181
288.19
288.2
288.211
288.223
288.236
288.25
288.265
288.28
288.297
288.314
288.333
288.353
288.374
288.396
288.419
288.444
288.47
288.497
288.526
288.556
288.588
288.622
288.657
288.695
288.734
288.775
288.818
288.863
288.911
288.96
289.012
289.067
289.123
289.182
289.244
289.308
289.375
289.444
289.516
289.59
289.667
289.747
289.829
289.914
290.001
290.09
290.182
290.277
290.373
290.471
290.572
290.674
290.778
290.883
290.99
291.098
291.207
291.317
291.428
291.54
291.652
291.765
291.877
291.99
292.103
292.215
292.327
292.438
292.549
292.659
292.768
292.876
292.983
293.089
293.194
293.297
293.398
293.499
293.597
293.694
293.79
293.884
293.976
294.066
294.154
294.241
294.326
294.409
294.491
294.57
294.648
294.724
294.798
294.87
294.941
295.009
295.076
295.142
295.205
295.267
295.328
295.386
295.443
295.499
295.553
295.605
295.656
295.706
295.754
295.8
295.846
295.89
295.932
295.973
296.013
296.052
296.09
296.126
296.161
296.195
296.228
296.26
296.291
296.321
296.35
296.378
296.405
296.431
296.456
296.481
296.504
296.527
296.548
296.57
296.59
296.609
296.628
296.646
296.664
296.681
296.697
296.713
296.728
296.742
296.756
296.77
296.783
296.795
296.807
296.819
296.83
296.841
296.851
296.861
296.871
296.88
296.888
296.897
296.904
296.912
296.919
296.925
296.931
296.937
296.942
296.947
296.951
296.955
296.959
296.962
296.965
296.968
296.97
296.972
296.973
296.974
296.975
296.976
296.977
296.977
296.978
296.978
296.978
296.978
296.978
296.979
296.979
296.979
296.979
296.979
296.979
296.979
296.979
296.979
296.979
296.979
296.979
296.979
296.979
296.979
296.979
296.979
296.98
296.982
296.984
296.988
296.992
296.998
297.004
297.01
297.017
297.024
297.031
297.038
297.046
297.053
297.061
297.068
297.076
297.084
297.093
297.101
297.109
297.118
297.127
297.135
297.144
297.153
297.162
297.171
297.18
297.189
297.199
297.208
297.217
297.226
297.236
297.245
297.254
297.264
297.273
297.282
297.292
297.301
297.31
297.319
297.328
297.337
297.346
297.355
297.364
297.373
297.381
297.39
297.398
297.406
297.414
297.422
297.43
297.438
297.446
297.453
297.46
297.468
297.474
297.481
297.488
297.494
297.5
297.507
297.513
297.519
297.524
297.528
297.53
297.531
297.531
297.531
297.53
297.53
297.529
297.528
297.528
297.528
297.529
297.532
297.535
297.538
297.547
297.547
297.548
297.55
297.553
297.555
297.558
297.561
297.565
297.568
297.572
297.575
297.579
297.583
297.586
297.59
297.594
297.597
297.601
297.604
297.608
297.611
297.614
297.618
297.621
297.625
297.628
297.632
297.636
297.639
297.644
297.647
297.652
297.655
297.66
297.664
297.669
297.672
297.677
297.681
297.686
297.69
297.695
297.699
297.705
297.708
297.714
297.717
297.723
297.726
297.732
297.735
297.741
297.745
297.751
297.754
297.761
297.764
297.771
297.774
297.781
297.785
297.792
297.796
297.803
297.807
297.815
297.819
297.827
297.831
297.839
297.843
297.852
297.856
297.865
297.869
297.878
297.883
297.892
297.896
297.906
297.91
297.92
297.925
297.935
297.94
297.95
297.955
297.966
297.971
297.982
297.987
297.999
298.004
298.016
298.022
298.034
298.04
298.052
298.059
298.071
298.078
298.091
298.098
298.111
298.118
298.132
298.139
298.153
298.161
298.176
298.183
298.198
298.206
298.222
298.23
298.246
298.254
298.271
298.28
298.297
298.306
298.324
298.333
298.351
298.36
298.379
298.389
298.408
298.418
298.438
298.448
298.469
298.479
298.5
298.511
298.533
298.544
298.566
298.577
298.599
298.611
298.634
298.646
298.669
298.682
298.705
298.718
298.742
298.755
298.779
298.793
298.817
298.832
298.856
298.871
298.895
298.91
298.935
298.95
298.975
298.991
299.015
299.031
299.055
299.071
299.094
299.109
299.13
299.142
299.161
299.165
299.167
299.167
299.17
299.173
299.183
299.191
299.206
299.214
299.218