/*--------------------------------*- C++ -*----------------------------------*\
| =========                 |                                                 |
| \\      /  F ield         | OpenFOAM: The Open Source CFD Toolbox           |
|  \\    /   O peration     | Version:  v2006                                 |
|   \\  /    A nd           | Website:  www.openfoam.com                      |
|    \\/     M anipulation  |                                                 |
\*---------------------------------------------------------------------------*/
FoamFile
{
    version     2.0;
    format      ascii;
    class       volScalarField;
    location    "0.024";
    object      turbulenceProperties:I;
}
// * * * * * * * * * * * * * * * * * * * * * * * * * * * * * * * * * * * * * //

dimensions      [0 0 0 0 0 0 0];


internalField   nonuniform List<scalar> 
24416
(
0.14998
0.149979
0.15
0.15
0.15
0.15
0.15
0.15
0.15
0.15
0.15
0.15
0.15
0.15
0.15
0.15
0.15
0.149999
0.149995
0.149992
0.149992
0.149994
0.149997
0.15
0.150002
0.150003
0.150004
0.150004
0.150003
0.150003
0.150002
0.150002
0.150001
0.150001
0.150001
0.15
0.15
0.15
0.149999
0.149999
0.149999
0.149998
0.149998
0.149998
0.149998
0.149997
0.149997
0.149997
0.149996
0.149996
0.149996
0.149996
0.149995
0.149995
0.149995
0.149995
0.149994
0.149994
0.149994
0.149993
0.149993
0.149993
0.149993
0.149992
0.149992
0.149992
0.149992
0.149991
0.149991
0.149991
0.14999
0.14999
0.14999
0.14999
0.149989
0.149989
0.149989
0.149989
0.149988
0.149988
0.149988
0.149987
0.149987
0.149986
0.149986
0.149987
0.149989
0.149992
0.149998
0.150006
0.150013
0.150017
0.150017
0.150013
0.150007
0.150002
0.149998
0.149991
0.149983
0.149974
0.149963
0.149975
0.14999
0.149989
0.149999
0.150006
0.15001
0.149861
0.149316
0.14535
0.139237
0.14566
0.148737
0.14652
0.140612
0.134181
0.130242
0.136346
0.144082
0.141265
0.13171
0.126652
0.124135
0.128587
0.138858
0.136111
0.12499
0.121756
0.120205
0.122836
0.134169
0.131772
0.119976
0.118619
0.117557
0.118338
0.130265
0.128106
0.116312
0.11643
0.115759
0.115334
0.126989
0.125155
0.113828
0.11496
0.114544
0.11324
0.124333
0.122746
0.112065
0.113962
0.113705
0.111714
0.122141
0.120745
0.110772
0.113271
0.113108
0.110553
0.120289
0.119055
0.10979
0.112777
0.112672
0.109637
0.118686
0.117594
0.109009
0.112411
0.112345
0.108901
0.117287
0.116307
0.108369
0.112132
0.112091
0.108292
0.116049
0.11516
0.107829
0.111912
0.111887
0.107775
0.11494
0.114125
0.107366
0.111733
0.11172
0.107329
0.113937
0.113181
0.10696
0.111583
0.111577
0.106936
0.113018
0.112317
0.106603
0.111457
0.11146
0.106592
0.112178
0.111523
0.106288
0.111351
0.111358
0.106287
0.111405
0.110789
0.106007
0.111258
0.111269
0.106014
0.110687
0.110107
0.105755
0.111177
0.111192
0.10577
0.110021
0.109474
0.105529
0.111107
0.111124
0.105552
0.109403
0.108885
0.105329
0.111045
0.111065
0.105358
0.108828
0.108339
0.105151
0.110992
0.111014
0.105187
0.108295
0.107831
0.104995
0.110946
0.110971
0.105037
0.1078
0.107361
0.104859
0.110908
0.110935
0.104908
0.107342
0.106927
0.104743
0.110876
0.110905
0.104798
0.10692
0.106527
0.104646
0.110851
0.110883
0.104708
0.106531
0.106161
0.104568
0.110832
0.110866
0.104636
0.106176
0.105825
0.104508
0.11082
0.110856
0.104581
0.105851
0.105519
0.104464
0.110813
0.110851
0.104544
0.105554
0.105241
0.104436
0.110812
0.110852
0.104521
0.105286
0.10499
0.104423
0.110816
0.110858
0.104514
0.105044
0.104764
0.104425
0.110825
0.110869
0.104522
0.104828
0.104564
0.104441
0.110839
0.110886
0.104543
0.104637
0.104388
0.10447
0.110858
0.110907
0.104579
0.104471
0.104235
0.104514
0.110882
0.110933
0.104627
0.104327
0.104105
0.10457
0.11091
0.110963
0.104689
0.104206
0.103996
0.104638
0.110943
0.110998
0.104764
0.104106
0.103908
0.104719
0.11098
0.111038
0.104851
0.104027
0.103841
0.104812
0.111021
0.111082
0.10495
0.103969
0.103794
0.104917
0.111067
0.11113
0.105061
0.103931
0.103767
0.105034
0.111117
0.111183
0.105184
0.103912
0.103758
0.105162
0.111172
0.11124
0.105319
0.103913
0.103769
0.105303
0.11123
0.111301
0.105466
0.103932
0.103798
0.105455
0.111293
0.111367
0.105626
0.10397
0.103846
0.10562
0.111361
0.111438
0.105798
0.104028
0.103913
0.105798
0.111433
0.111514
0.105985
0.104105
0.104
0.10599
0.11151
0.111594
0.106185
0.104202
0.104107
0.106195
0.111593
0.11168
0.106399
0.10432
0.104235
0.106415
0.11168
0.111771
0.106628
0.104459
0.104384
0.10665
0.111773
0.111868
0.106872
0.104619
0.104554
0.1069
0.111871
0.111971
0.107133
0.104802
0.104748
0.107167
0.111975
0.11208
0.107411
0.105008
0.104964
0.107451
0.112086
0.112195
0.107708
0.105239
0.105206
0.107754
0.112203
0.112317
0.108023
0.105494
0.105473
0.108077
0.112327
0.112447
0.10836
0.105777
0.105767
0.108421
0.112458
0.112584
0.108718
0.106087
0.10609
0.108787
0.112597
0.112729
0.109099
0.106428
0.106443
0.109177
0.112745
0.112883
0.109506
0.1068
0.10683
0.109593
0.112901
0.113047
0.10994
0.107206
0.107251
0.110037
0.113067
0.11322
0.110404
0.107649
0.10771
0.110512
0.113243
0.113405
0.1109
0.108131
0.108208
0.11102
0.113431
0.113602
0.11143
0.108655
0.108751
0.111564
0.11363
0.113812
0.111999
0.109224
0.10934
0.112147
0.113844
0.114036
0.112609
0.109843
0.109981
0.112773
0.114071
0.114275
0.113265
0.110516
0.110677
0.113446
0.114315
0.114531
0.113971
0.111247
0.111434
0.114171
0.114575
0.114806
0.114731
0.112042
0.112256
0.114953
0.114855
0.115102
0.115552
0.112905
0.11315
0.115797
0.115156
0.11542
0.116439
0.113845
0.114123
0.11671
0.115482
0.115764
0.117401
0.114869
0.115184
0.117702
0.115836
0.116135
0.118446
0.115987
0.116344
0.11878
0.116227
0.11653
0.119586
0.11721
0.117616
0.119963
0.116675
0.116935
0.120832
0.118554
0.119013
0.121261
0.117295
0.118
0.12223
0.120032
0.120556
0.122758
0.118628
0.119527
0.123852
0.121674
0.122283
0.124497
0.120304
0.121345
0.125735
0.123518
0.124231
0.126512
0.122251
0.123436
0.127916
0.125605
0.126443
0.128846
0.124481
0.125832
0.130444
0.127982
0.128971
0.131552
0.12704
0.128588
0.13338
0.130708
0.131875
0.1347
0.129995
0.131784
0.136802
0.133849
0.135238
0.138385
0.133441
0.13554
0.140824
0.137511
0.139184
0.142741
0.137526
0.140036
0.145613
0.141838
0.143882
0.14797
0.14247
0.145553
0.151419
0.147036
0.149578
0.154376
0.148626
0.152554
0.158625
0.15341
0.156644
0.162423
0.156594
0.161869
0.167866
0.161443
0.165701
0.172949
0.167527
0.17516
0.180251
0.171958
0.177865
0.187536
0.183943
0.196317
0.197813
0.186337
0.195457
0.209655
0.212876
0.237674
0.224692
0.207064
0.222353
0.247607
0.284023
0.362233
0.2647
0.239073
0.25365
0.304749
0.632275
0.315823
0.433389
0.281764
0.347889
0.856082
0.281899
0.271687
1
0.475593
0.724314
1
0.260207
0.258891
1
1
1
0.916432
0.254147
0.258162
0.829924
1
1
0.754497
0.254364
0.252905
0.703137
1
1
0.545079
0.219124
0.188299
0.395651
1
0.645083
0.257579
0.168721
0.174772
0.218445
0.470119
0.362324
0.188914
0.172715
0.176551
0.181741
0.331998
0.283239
0.164262
0.17385
0.175113
0.167234
0.276503
0.249498
0.156966
0.169545
0.162466
0.155514
0.24261
0.221483
0.145056
0.15488
0.149786
0.142076
0.215406
0.190316
0.124225
0.14283
0.140932
0.122974
0.187516
0.168559
0.111611
0.138177
0.138101
0.11224
0.166417
0.155541
0.10762
0.136408
0.139275
0.111462
0.157371
0.157587
0.111413
0.141776
0.146496
0.11546
0.161539
0.163478
0.116167
0.152071
0.155327
0.117531
0.16476
0.164551
0.11723
0.158715
0.160371
0.11757
0.164268
0.164387
0.116917
0.161441
0.16176
0.115946
0.163118
0.163257
0.115706
0.16218
0.162113
0.114157
0.161626
0.161516
0.113784
0.162415
0.162293
0.112111
0.159664
0.159323
0.111538
0.162407
0.162086
0.10985
0.157348
0.156993
0.109212
0.161922
0.161573
0.107696
0.155137
0.154997
0.107219
0.161352
0.161073
0.10639
0.153656
0.153961
0.106292
0.160961
0.160878
0.106373
0.153589
0.154699
0.107316
0.160966
0.161015
0.108466
0.155664
0.158456
0.111196
0.161336
0.16149
0.113803
0.161043
0.166674
0.118947
0.162108
0.162524
0.123524
0.171878
0.181348
0.131738
0.163354
0.164464
0.140155
0.191683
0.207212
0.154016
0.166832
0.169633
0.168972
0.225306
0.252335
0.194613
0.175866
0.183398
0.224537
0.285478
0.338836
0.281933
0.206191
0.232043
0.357424
0.406436
0.548998
0.584335
0.450622
0.569342
0.742774
0.628001
1
1
0.312134
0.50543
0.275744
0.209928
0.18736
0.184362
0.193487
0.219869
0.339588
0.752098
1
1
1
0.888788
0.600921
0.500361
0.404737
0.36057
0.315045
0.291877
0.268102
0.255993
0.244385
0.23929
0.234863
0.234387
0.23428
0.236534
0.238768
0.242358
0.245602
0.249564
0.252946
0.256636
0.25958
0.262559
0.26464
0.266525
0.267325
0.267671
0.266696
0.265001
0.2616
0.257339
0.250817
0.244317
0.233901
0.221275
0.204305
0.181873
0.156168
0.141553
0.138079
0.140554
0.140765
0.154831
0.154603
0.1412
0.143057
0.14533
0.140463
0.153479
0.155066
0.142471
0.147676
0.148949
0.143558
0.156533
0.15742
0.144238
0.15014
0.150727
0.145698
0.159821
0.160754
0.146352
0.15127
0.151655
0.148106
0.163401
0.16411
0.14847
0.152087
0.152481
0.150341
0.166855
0.167716
0.150798
0.152708
0.153179
0.152836
0.170582
0.171318
0.153162
0.15346
0.153952
0.155287
0.174392
0.175382
0.155786
0.154115
0.154703
0.158111
0.178556
0.17941
0.158508
0.154937
0.155578
0.160982
0.18289
0.184078
0.161605
0.155755
0.156492
0.164304
0.187658
0.1887
0.164846
0.156762
0.157571
0.167754
0.192689
0.19415
0.168569
0.157823
0.158754
0.171742
0.198254
0.199569
0.172498
0.159108
0.160136
0.175948
0.204189
0.206016
0.177031
0.160511
0.161699
0.180798
0.210779
0.212468
0.181851
0.162185
0.163508
0.185991
0.217902
0.220226
0.187436
0.164054
0.165587
0.191934
0.225818
0.22801
0.19338
0.166254
0.167994
0.198442
0.234523
0.237526
0.200406
0.16877
0.170769
0.205829
0.244216
0.247106
0.207786
0.171658
0.173943
0.213998
0.255036
0.258941
0.216598
0.174958
0.177578
0.223205
0.267151
0.270988
0.225767
0.178708
0.181732
0.233497
0.280885
0.285984
0.236868
0.182903
0.186536
0.245273
0.29651
0.301552
0.24827
0.187253
0.191669
0.25904
0.314546
0.321439
0.26313
0.19227
0.198764
0.277708
0.337397
0.346561
0.28374
0.201104
0.210252
0.302703
0.36751
0.381915
0.312995
0.214791
0.224553
0.333265
0.407582
0.427979
0.346671
0.231787
0.252364
0.376509
0.460806
0.48843
0.425687
0.284152
0.218773
0.306149
0.419604
0.523143
0.429985
0.268235
0.284536
0.459596
0.565911
0.649972
0.513591
0.315216
0.359326
0.592001
0.756134
0.934064
0.745816
0.478712
0.695528
1
1
1
1
0.892873
1
1
1
1
1
1
1
1
1
1
1
1
1
1
1
1
1
1
0.776695
0.965811
0.995882
0.742293
0.738185
0.591125
0.471326
0.599495
0.613225
0.526183
0.509673
0.391857
0.336487
0.434358
0.455566
0.374247
0.368174
0.291191
0.256377
0.323965
0.333214
0.301821
0.292693
0.230283
0.209098
0.262954
0.268149
0.245603
0.240546
0.191844
0.178513
0.225664
0.230606
0.2152
0.212467
0.166128
0.154698
0.201274
0.204426
0.194517
0.189528
0.143471
0.133438
0.168852
0.183125
0.163684
0.149502
0.126076
0.122188
0.13841
0.149022
0.141867
0.134188
0.12111
0.12323
0.133912
0.135613
0.135679
0.137725
0.128714
0.138218
0.142354
0.135005
0.136026
0.149155
0.152671
0.172505
0.160337
0.142112
0.146693
0.171084
0.199214
0.226423
0.183068
0.15494
0.161792
0.195988
0.254361
0.280086
0.211212
0.169551
0.184235
0.225715
0.296722
0.286059
0.233973
0.187891
0.211859
0.264874
0.379504
0.799978
0.193491
0.204006
0.228839
1
0.172831
0.273633
0.621904
0.244344
0.267971
0.547846
0.630103
0.214553
0.654607
0.483743
0.304326
0.634426
0.471157
1
0.626217
0.330684
0.487465
1
0.298779
1
0.53752
0.318629
0.332567
0.468508
0.646212
0.3831
0.667784
0.380458
0.301207
0.415333
0.563368
0.363475
0.372412
0.303949
0.304023
0.345831
0.59205
0.318073
0.317003
0.27189
0.264616
0.290957
0.299909
0.277836
0.272579
0.239147
0.234861
0.253485
0.232852
0.224107
0.203737
0.206121
0.215482
0.228031
0.220124
0.194576
0.21503
0.21157
0.181836
0.171622
0.191615
0.186737
0.195527
0.191244
0.185291
0.183734
0.170788
0.171841
0.141247
0.156032
0.16608
0.168162
0.165394
0.159808
0.142666
0.147426
0.15182
0.151609
0.1531
0.147067
0.142592
0.145467
0.119035
0.115943
0.15282
0.142171
0.130758
0.13263
0.116356
0.117014
0.144761
0.135017
0.122244
0.125454
0.119927
0.115292
0.133409
0.139226
0.101734
0.0982128
0.118163
0.109902
0.1296
0.130431
0.10571
0.1116
0.0924312
0.0965028
0.138535
0.126285
0.0988502
0.102412
0.0906903
0.0932392
0.133599
0.120984
0.0947859
0.0981496
0.0876043
0.090575
0.128105
0.114237
0.090222
0.0951325
0.0899095
0.087491
0.116402
0.128706
0.084153
0.0795344
0.0855619
0.084146
0.113934
0.123552
0.0829011
0.0779013
0.0848758
0.0804416
0.107441
0.110956
0.079635
0.0804288
0.0731625
0.0785034
0.125319
0.109034
0.0761853
0.0741451
0.0697457
0.0778036
0.119494
0.103912
0.0727509
0.0718084
0.0663381
0.0739508
0.113729
0.0990687
0.0703917
0.0735199
0.0705946
0.0711462
0.104356
0.116613
0.0752009
0.0659581
0.0665862
0.0668664
0.101343
0.112425
0.072163
0.0634993
0.0648196
0.0646315
0.0976497
0.108051
0.069457
0.0616704
0.0651969
0.0642387
0.094799
0.0999259
0.0641887
0.0623205
0.0611336
0.0722324
0.113206
0.0967817
0.0603228
0.0601745
0.0588054
0.0706371
0.108493
0.0939318
0.0584162
0.0592851
0.057466
0.0667515
0.104625
0.0903345
0.0593785
0.0588158
0.056148
0.0594889
0.0954732
0.109146
0.0702829
0.0573779
0.0548933
0.0560408
0.0931279
0.105046
0.0686949
0.0551705
0.0541578
0.0537257
0.0905373
0.101376
0.0657387
0.0542698
0.05407
0.0533205
0.0876909
0.0977538
0.0628415
0.0532752
0.0539273
0.0547249
0.0848582
0.0907419
0.0561119
0.0518273
0.0542715
0.0686389
0.104305
0.0896014
0.0525133
0.0506037
0.0518595
0.0661483
0.10131
0.0879208
0.0498503
0.0498421
0.0508421
0.063375
0.0986477
0.0856428
0.0488131
0.0490953
0.0502183
0.0626278
0.0965316
0.0837874
0.0492002
0.0488111
0.0492824
0.0600727
0.0931651
0.0804965
0.0505462
0.0491266
0.0472484
0.0517446
0.0858262
0.0984386
0.0662177
0.0505939
0.0468627
0.0491643
0.0850795
0.0966909
0.0630143
0.0487447
0.0465489
0.0469804
0.0833913
0.0932287
0.0605391
0.0479588
0.0459713
0.046038
0.0810221
0.0910563
0.059597
0.0474749
0.0456391
0.0463976
0.0793432
0.0882939
0.0587025
0.0467819
0.0462543
0.0478654
0.07659
0.0820432
0.0495961
0.0447349
0.0484049
0.064368
0.0940472
0.0817154
0.0467505
0.0450219
0.0471541
0.0602246
0.0935273
0.0806497
0.044857
0.0440617
0.0462749
0.0589028
0.0910056
0.0788692
0.044636
0.0435589
0.0456011
0.0581109
0.0886047
0.0772333
0.044254
0.0431858
0.0446797
0.0573227
0.0858548
0.0743179
0.0457114
0.0438826
0.0424463
0.0473944
0.079435
0.0911479
0.0627697
0.0465536
0.0427923
0.0453448
0.0792803
0.0900937
0.0589081
0.0452767
0.0421699
0.0430391
0.0781577
0.0875627
0.0569485
0.0443533
0.0416136
0.0423181
0.0761392
0.0851671
0.0559274
0.0438047
0.0413699
0.0424717
0.0743626
0.0826362
0.0555426
0.0431153
0.0419302
0.0439229
0.0715884
0.0769469
0.0458926
0.0408204
0.0450193
0.0618624
0.087593
0.0767349
0.0440638
0.041378
0.0440875
0.0580946
0.0873096
0.0753775
0.0419163
0.0407542
0.0431556
0.05595
0.0845562
0.0737234
0.0412587
0.0401956
0.0426289
0.0550949
0.0826292
0.0720235
0.0413478
0.0398874
0.0418451
0.0545311
0.0803127
0.070049
0.0427262
0.0404862
0.0393185
0.0443228
0.074803
0.0853021
0.0596653
0.0438076
0.0400744
0.0426922
0.073638
0.0842461
0.0561357
0.0428163
0.0395806
0.0406891
0.0729509
0.0819478
0.0543947
0.0420869
0.0391514
0.0402794
0.0711345
0.0794502
0.0534783
0.0416088
0.0388896
0.0402658
0.0690289
0.076865
0.0527159
0.0407957
0.0391846
0.0413609
0.0669139
0.071586
0.0433323
0.0382547
0.04277
0.0580191
0.0819955
0.0723405
0.0417018
0.0392656
0.0419906
0.0544048
0.082514
0.0708597
0.039743
0.038609
0.0411309
0.052885
0.0791959
0.0683384
0.0395466
0.038113
0.0401041
0.0518389
0.0760765
0.0664575
0.0404808
0.0382807
0.0372496
0.0419644
0.071199
0.0809626
0.0572773
0.041973
0.038293
0.040851
0.0710368
0.0804359
0.0533081
0.0410841
0.0377455
0.0388484
0.0691727
0.0766648
0.0513494
0.0401735
0.0371656
0.0383802
0.0663765
0.0737964
0.050617
0.0392003
0.0373658
0.0396133
0.0643858
0.069357
0.0415864
0.0366599
0.0413944
0.0565037
0.0782251
0.0685261
0.0399219
0.0375094
0.0402995
0.0523118
0.0772987
0.0665225
0.0378973
0.0368516
0.0389395
0.0502615
0.0736544
0.0641002
0.0389017
0.0369321
0.0360386
0.0408189
0.0689463
0.0783538
0.055614
0.041096
0.0367903
0.0395387
0.0680987
0.0767775
0.0513967
0.0397753
0.0362169
0.0373554
0.0653893
0.0724024
0.0492874
0.0383487
0.0361493
0.0382023
0.0629223
0.0679242
0.0400736
0.0353691
0.0404272
0.054952
0.0771952
0.0672352
0.038844
0.0361959
0.0393597
0.0509131
0.0754057
0.0645373
0.036711
0.0355226
0.0377175
0.0485398
0.0713079
0.0615539
0.0373392
0.0352765
0.0344884
0.0389688
0.0665561
0.0751827
0.0538338
0.0394981
0.0352791
0.0382133
0.0653092
0.0730501
0.0495604
0.0380042
0.0348521
0.0370815
0.0622049
0.0663026
0.0381559
0.0337266
0.0391631
0.0537103
0.0751149
0.0652224
0.0376496
0.034558
0.037715
0.0493717
0.0733245
0.0624416
0.0365823
0.0342475
0.0333296
0.0380538
0.0669
0.0746536
0.0527683
0.0385165
0.033762
0.0364545
0.0634611
0.0717373
0.048677
0.0370934
0.0335566
0.036094
0.0618344
0.0668503
0.0377681
0.032917
0.0383181
0.0530197
0.074454
0.063091
0.0363186
0.0334882
0.0363211
0.0475725
0.0701742
0.0597041
0.0350568
0.0326952
0.0319304
0.0362611
0.0646244
0.0726171
0.0513874
0.0368319
0.0326892
0.0364301
0.0619659
0.0662261
0.0366466
0.0318258
0.0368484
0.0516934
0.0731286
0.0616516
0.0357704
0.0320908
0.0313686
0.0365925
0.0668391
0.0751152
0.0523199
0.0371051
0.032066
0.0361524
0.0633838
0.0664986
0.0359389
0.0310481
0.0369439
0.0517352
0.0746976
0.0628001
0.0354823
0.0314361
0.0307067
0.036165
0.0676428
0.0758132
0.0518953
0.0367246
0.0309417
0.0349844
0.061603
0.0651644
0.0351183
0.029897
0.03615
0.05151
0.0739611
0.0624489
0.035048
0.0305304
0.0297151
0.0348018
0.0663066
0.07339
0.0503257
0.0353608
0.0295781
0.0336404
0.0606341
0.0657206
0.0361992
0.0289778
0.0284512
0.0362608
0.0699418
0.077571
0.0527073
0.0359989
0.029377
0.0340938
0.0633491
0.0687871
0.0348949
0.0285465
0.0276562
0.0357414
0.0718311
0.0777692
0.0400322
0.0277291
0.0267534
0.0369381
0.0816183
0.0875121
0.0423576
0.0274689
0.0265891
0.0379162
0.0901766
0.0982705
0.0618606
0.0386821
0.029583
0.0374134
0.0773348
0.0855698
0.0400528
0.0303782
0.0311607
0.0440628
0.0947965
0.101508
0.0472946
0.0319749
0.0325498
0.0501708
0.106844
0.110636
0.0527986
0.033133
0.0336658
0.0553806
0.112993
0.114645
0.0579769
0.0343781
0.0351677
0.060597
0.115707
0.116362
0.0634493
0.0360656
0.0371679
0.0662122
0.116679
0.116776
0.0692487
0.0382999
0.0397513
0.0721475
0.116737
0.116628
0.0751016
0.0411248
0.0428495
0.077799
0.116468
0.116288
0.0803121
0.0446839
0.0468507
0.0825428
0.116091
0.11588
0.0846947
0.0489511
0.0511307
0.0868035
0.115675
0.11548
0.0888452
0.0532538
0.0554503
0.0908459
0.115312
0.115168
0.0927763
0.0575777
0.0597839
0.0946675
0.115062
0.114984
0.0964823
0.0619006
0.0640966
0.0982598
0.114945
0.114931
0.0999606
0.0661667
0.0682682
0.101623
0.114958
0.11501
0.103204
0.0702465
0.0722493
0.104746
0.1151
0.115205
0.106194
0.0741259
0.0760274
0.107596
0.115338
0.11548
0.1089
0.0778021
0.0795912
0.110159
0.115637
0.115797
0.111308
0.0812481
0.0829134
0.112397
0.115955
0.116116
0.113416
0.0844451
0.0859794
0.114353
0.116269
0.116414
0.11521
0.0873742
0.088771
0.11599
0.116543
0.116664
0.116701
0.0900282
0.0912827
0.117338
0.116762
0.11685
0.117909
0.092398
0.0935114
0.118405
0.116912
0.116965
0.118849
0.0944904
0.0954641
0.119223
0.11699
0.117007
0.119551
0.0963095
0.0971418
0.11981
0.116996
0.11698
0.120036
0.0978598
0.0985601
0.1202
0.116937
0.116889
0.120335
0.0991637
0.0997443
0.120413
0.116818
0.116742
0.12047
0.100252
0.10072
0.120485
0.116647
0.116548
0.120472
0.101136
0.101526
0.120432
0.116429
0.116315
0.120361
0.10185
0.102176
0.120284
0.116176
0.116056
0.120168
0.10242
0.102691
0.120054
0.115902
0.115775
0.119905
0.102868
0.103091
0.11976
0.115613
0.115481
0.119589
0.103218
0.103391
0.119416
0.115311
0.115177
0.119229
0.103481
0.103615
0.119037
0.115003
0.114871
0.118841
0.103677
0.103775
0.118634
0.114693
0.114563
0.118433
0.103816
0.103886
0.118216
0.114386
0.11426
0.118014
0.103913
0.103955
0.117789
0.114085
0.113963
0.117585
0.103974
0.103994
0.117354
0.113791
0.113674
0.117155
0.104007
0.104003
0.116913
0.113508
0.113391
0.116721
0.104015
0.103994
0.116479
0.113235
0.113121
0.116296
0.104005
0.103962
0.116055
0.112976
0.112862
0.11588
0.103952
0.103883
0.115644
0.112728
0.112617
0.115471
0.103859
0.10377
0.115238
0.112492
0.11238
0.115065
0.103737
0.10364
0.114837
0.112265
0.112158
0.114668
0.1036
0.103496
0.11444
0.112047
0.11194
0.114275
0.103452
0.103348
0.114055
0.111833
0.111735
0.113893
0.103301
0.103198
0.113679
0.111629
0.111537
0.11352
0.103148
0.103049
0.113316
0.111436
0.111352
0.113162
0.102998
0.102902
0.112966
0.111253
0.111176
0.112816
0.102848
0.102758
0.11263
0.11108
0.111012
0.112487
0.102702
0.102615
0.112309
0.110918
0.110856
0.11217
0.102556
0.102474
0.112002
0.110766
0.110712
0.11187
0.102414
0.102332
0.111709
0.110628
0.110575
0.11158
0.102269
0.102192
0.111428
0.110498
0.11045
0.111304
0.102128
0.102049
0.111158
0.110378
0.110331
0.111035
0.101982
0.101906
0.110898
0.110266
0.110223
0.110778
0.101837
0.101759
0.110646
0.110162
0.11012
0.110526
0.101688
0.10161
0.110402
0.110063
0.110024
0.110283
0.101536
0.101456
0.110161
0.10997
0.109932
0.110043
0.101379
0.101298
0.109926
0.109881
0.109847
0.10981
0.101218
0.101134
0.109693
0.109798
0.109764
0.109579
0.101051
0.100965
0.109463
0.109717
0.109686
0.109352
0.10088
0.10079
0.109236
0.10964
0.10961
0.109126
0.100702
0.100611
0.10901
0.109565
0.109537
0.108903
0.100521
0.100425
0.108787
0.109493
0.109465
0.108679
0.100334
0.100237
0.108566
0.109422
0.109396
0.10846
0.100142
0.10004
0.108345
0.109354
0.109328
0.108239
0.0999446
0.0998414
0.108126
0.109287
0.109262
0.108022
0.0997433
0.0996358
0.107908
0.109222
0.109196
0.107804
0.0995356
0.0994272
0.107691
0.109157
0.109133
0.107588
0.0993258
0.099214
0.107475
0.109093
0.109069
0.107372
0.0991107
0.0989971
0.10726
0.109031
0.109007
0.107158
0.0988932
0.0987764
0.107046
0.10897
0.108946
0.106944
0.0986724
0.098555
0.106836
0.108909
0.108886
0.106735
0.0984494
0.0983281
0.106625
0.10885
0.108827
0.106524
0.0982231
0.0981028
0.106417
0.108791
0.108769
0.106318
0.0979964
0.0978725
0.106211
0.108733
0.108711
0.106112
0.0977671
0.0976451
0.106006
0.108676
0.108654
0.10591
0.0975386
0.0974142
0.105806
0.10862
0.108598
0.105709
0.0973078
0.0971836
0.105606
0.108565
0.108544
0.105511
0.097078
0.096952
0.105409
0.108511
0.10849
0.105314
0.0968476
0.0967234
0.105214
0.108457
0.108437
0.105123
0.0966184
0.0964929
0.105024
0.108405
0.108385
0.104933
0.0963887
0.096265
0.104837
0.108354
0.108334
0.104747
0.096162
0.0960376
0.104652
0.108304
0.108284
0.104563
0.0959361
0.0958139
0.10447
0.108255
0.108236
0.104384
0.095712
0.0955885
0.104292
0.108207
0.108188
0.104207
0.0954881
0.0953671
0.104117
0.10816
0.108141
0.104034
0.0952681
0.0951475
0.103946
0.108114
0.108096
0.103863
0.0950494
0.0949304
0.103777
0.108069
0.108051
0.103697
0.094834
0.0947157
0.103612
0.108026
0.108008
0.103533
0.0946204
0.0945023
0.103457
0.107984
0.107967
0.103378
0.0944094
0.0942936
0.103299
0.107944
0.107927
0.103216
0.0942035
0.0940917
0.103137
0.107902
0.107886
0.103065
0.0940003
0.093886
0.102988
0.107862
0.107847
0.102916
0.0937976
0.0936877
0.102842
0.107823
0.107809
0.102772
0.0935994
0.0934888
0.102698
0.107786
0.107772
0.102629
0.0934034
0.093297
0.102558
0.10775
0.107736
0.102491
0.0932117
0.0931047
0.102421
0.107715
0.107701
0.102355
0.0930223
0.0929193
0.102287
0.10768
0.107668
0.102223
0.0928371
0.0927336
0.102156
0.107647
0.107635
0.102093
0.0926542
0.0925549
0.102028
0.107615
0.107603
0.101968
0.0924752
0.092376
0.101904
0.107584
0.107572
0.101845
0.092299
0.092204
0.101783
0.107553
0.107542
0.101725
0.0921267
0.0920318
0.101665
0.107524
0.107513
0.101608
0.0919572
0.0918665
0.101549
0.107495
0.107484
0.101495
0.0917917
0.0917009
0.101437
0.107467
0.107457
0.101383
0.091629
0.0915422
0.101327
0.10744
0.10743
0.101276
0.0914714
0.0913853
0.101222
0.107414
0.107404
0.10117
0.0913127
0.0912308
0.101117
0.107389
0.107379
0.101068
0.0911613
0.0910786
0.101017
0.107364
0.107355
0.100968
0.0910119
0.0909331
0.100918
0.10734
0.107332
0.100872
0.0908677
0.0907889
0.100823
0.107318
0.107309
0.100777
0.0907222
0.0906466
0.100729
0.107295
0.107287
0.100686
0.0905851
0.0905083
0.100639
0.107274
0.107265
0.100596
0.0904475
0.0903734
0.100551
0.107253
0.107245
0.100509
0.0903129
0.0902421
0.100466
0.107233
0.107225
0.100423
0.0901795
0.0901124
0.100381
0.107213
0.107206
0.100342
0.0900531
0.0899841
0.1003
0.107194
0.107187
0.10026
0.0899277
0.0898624
0.100221
0.107175
0.107169
0.100183
0.0898065
0.0897389
0.100143
0.107158
0.107151
0.100107
0.0896869
0.0896212
0.100068
0.107141
0.107135
0.100033
0.0895699
0.0895065
0.0999957
0.107124
0.107118
0.0999603
0.0894544
0.0893955
0.0999252
0.107108
0.107103
0.0998913
0.0893431
0.0892836
0.0998554
0.107093
0.107087
0.0998237
0.0892358
0.0891752
0.0997886
0.107078
0.107073
0.0997574
0.0891288
0.0890697
0.0997233
0.107064
0.107058
0.0996925
0.0890242
0.0889671
0.0996597
0.10705
0.107045
0.099629
0.0889216
0.0888677
0.099599
0.107037
0.107031
0.0995673
0.0888198
0.0887693
0.0995378
0.107024
0.107018
0.0995085
0.088725
0.0886745
0.0994806
0.107011
0.107006
0.0994503
0.0886278
0.0885807
0.0994231
0.106999
0.106994
0.0993949
0.0885368
0.0884878
0.0993677
0.106988
0.106983
0.0993395
0.0884459
0.0884011
0.0993145
0.106976
0.106972
0.0992877
0.0883586
0.088312
0.0992623
0.106966
0.106961
0.0992354
0.0882717
0.0882292
0.099212
0.106955
0.106951
0.0991863
0.0881883
0.0881439
0.0991623
0.106945
0.106941
0.0991365
0.0881052
0.0880649
0.0991145
0.106935
0.106931
0.09909
0.0880255
0.0879832
0.0990672
0.106926
0.106922
0.0990426
0.087946
0.0879077
0.0990218
0.106916
0.106913
0.0989984
0.0878698
0.0878294
0.0989767
0.106907
0.106904
0.0989532
0.0877937
0.0877573
0.0989334
0.106898
0.106895
0.0989112
0.0877209
0.0876823
0.0988904
0.10689
0.106887
0.0988681
0.0876481
0.0876134
0.0988491
0.106882
0.106879
0.0988282
0.0875785
0.0875414
0.098808
0.106874
0.106871
0.0987873
0.087509
0.0874755
0.0987684
0.106866
0.106863
0.0987496
0.0874425
0.0874061
0.098729
0.106858
0.106856
0.0987108
0.0873769
0.0873417
0.0986916
0.106851
0.106848
0.0986731
0.087312
0.0872792
0.0986555
0.106844
0.106841
0.0986362
0.0872474
0.0872197
0.0986202
0.106837
0.106834
0.0986015
0.0871857
0.0871582
0.0985852
0.10683
0.106828
0.0985668
0.0871262
0.0870977
0.0985504
0.106823
0.106821
0.0985333
0.0870693
0.08704
0.0985179
0.106817
0.106815
0.0985003
0.0870095
0.0869828
0.0984846
0.10681
0.106809
0.0984691
0.0869551
0.0869248
0.0984523
0.106805
0.106803
0.0984379
0.0869012
0.0868712
0.0984215
0.106799
0.106797
0.0984077
0.0868481
0.0868185
0.0983918
0.106793
0.106791
0.0983782
0.0867958
0.0867669
0.0983627
0.106787
0.106786
0.0983495
0.0867449
0.0867165
0.0983345
0.106782
0.106781
0.0983216
0.0866949
0.0866674
0.0983069
0.106777
0.106775
0.0982944
0.0866462
0.0866194
0.0982801
0.106772
0.106771
0.0982679
0.0865984
0.0865727
0.098254
0.106767
0.106766
0.0982422
0.0865519
0.0865273
0.0982287
0.106763
0.106761
0.098217
0.0865063
0.0864832
0.0982043
0.106758
0.106757
0.0981927
0.0864617
0.0864405
0.0981804
0.106754
0.106753
0.0981691
0.0864177
0.0863969
0.0981567
0.106749
0.106748
0.0981462
0.0863772
0.0863561
0.0981343
0.106745
0.106744
0.0981238
0.0863354
0.0863143
0.098112
0.106741
0.106741
0.0981022
0.0862971
0.0862749
0.0980907
0.106738
0.106737
0.098081
0.086258
0.0862364
0.0980697
0.106734
0.106733
0.0980604
0.0862199
0.0861986
0.0980493
0.10673
0.106729
0.0980401
0.0861823
0.0861615
0.0980293
0.106727
0.106726
0.0980204
0.0861458
0.0861255
0.0980098
0.106723
0.106722
0.0980009
0.0861101
0.0860903
0.0979909
0.10672
0.106719
0.0979818
0.0860753
0.0860566
0.0979728
0.106717
0.106716
0.0979627
0.0860397
0.0860246
0.097955
0.106713
0.106712
0.0979453
0.0860067
0.0859888
0.0979366
0.10671
0.106709
0.0979268
0.0859729
0.0859586
0.0979194
0.106707
0.106706
0.09791
0.0859415
0.0859242
0.0979016
0.106704
0.106703
0.0978921
0.0859089
0.0858951
0.0978849
0.1067
0.1067
0.0978758
0.0858786
0.0858616
0.0978675
0.106697
0.106697
0.0978582
0.085847
0.0858334
0.0978509
0.106694
0.106693
0.0978427
0.0858176
0.0858005
0.0978335
0.10669
0.10669
0.0978258
0.0857875
0.0857709
0.0978167
0.106687
0.106686
0.0978091
0.0857582
0.0857417
0.0978003
0.106683
0.106682
0.0977918
0.0857283
0.0857137
0.0977832
0.10668
0.106678
0.0977759
0.0857005
0.0856834
0.0977663
0.106676
0.106674
0.0977593
0.0856706
0.0856495
0.0977552
0.106672
0.106671
0.0977394
0.0856402
0.0856267
0.09773
0.106667
0.106665
0.0977198
0.0856084
0.0855959
0.0977116
0.106662
0.10666
0.0977015
0.0855797
0.0855636
0.0976925
0.106656
0.106655
0.0976818
0.0855486
0.0855356
0.0976737
0.106651
0.106649
0.0976631
0.0855192
0.0855027
0.0976537
0.106646
0.106644
0.0976427
0.0854877
0.0854745
0.0976344
0.106641
0.10664
0.0976238
0.0854582
0.0854418
0.0976145
0.106636
0.106636
0.0976038
0.0854271
0.0854145
0.0975957
0.106632
0.106632
0.0975869
0.0853987
0.0853832
0.0975772
0.106629
0.10663
0.0975696
0.0853701
0.0853547
0.0975606
0.106627
0.106628
0.0975539
0.085343
0.0853286
0.0975456
0.106626
0.106626
0.0975392
0.0853171
0.0853033
0.0975312
0.106625
0.106624
0.0975252
0.085292
0.0852775
0.0975169
0.106623
0.106618
0.0975097
0.0852682
0.0852509
0.0975014
0.106621
0.106598
0.0974864
0.0852376
0.0852245
0.097484
0.106599
0.106574
0.0974562
0.0852101
0.0851887
0.0974305
0.106582
0.10654
0.0973283
0.0850639
0.0846299
0.0969453
0.106542
0.106326
0.0961647
0.0839285
0.0833401
0.0956205
0.106236
0.0743441
0.0644059
0.0602194
0.0595861
0.0610168
0.0644426
0.0666302
0.0678471
0.0710187
0.0735842
0.0746183
0.0754301
0.0760691
0.0764893
0.0767261
0.0767843
0.0767002
0.0765079
0.076241
0.0759287
0.0755952
0.0752589
0.0749329
0.0746259
0.0743431
0.0740867
0.073857
0.0736531
0.0734732
0.0733152
0.0731766
0.0730554
0.0729493
0.0728565
0.0727752
0.0727039
0.0726413
0.0725863
0.0725379
0.0724952
0.0724575
0.0724243
0.0723949
0.072369
0.0723462
0.0723261
0.0723085
0.072293
0.0722796
0.0722679
0.072258
0.0722497
0.072243
0.072238
0.0722345
0.0722325
0.0722316
0.0722306
0.0722306
0.0722307
0.0722308
0.072231
0.0722311
0.0722313
0.0722315
0.0722316
0.0722317
0.0722318