/*--------------------------------*- C++ -*----------------------------------*\
| =========                 |                                                 |
| \\      /  F ield         | OpenFOAM: The Open Source CFD Toolbox           |
|  \\    /   O peration     | Version:  v2006                                 |
|   \\  /    A nd           | Website:  www.openfoam.com                      |
|    \\/     M anipulation  |                                                 |
\*---------------------------------------------------------------------------*/
FoamFile
{
    version     2.0;
    format      ascii;
    class       volScalarField;
    location    "0.024";
    object      yPlus;
}
// * * * * * * * * * * * * * * * * * * * * * * * * * * * * * * * * * * * * * //

dimensions      [0 0 0 0 0 0 0];


internalField   uniform 0;

boundaryField
{
    bottomEmptyFaces
    {
        type            empty;
    }
    topEmptyFaces
    {
        type            empty;
    }
    inlet
    {
        type            calculated;
        value           uniform 0;
    }
    outlet
    {
        type            calculated;
        value           uniform 0;
    }
    walls
    {
        type            calculated;
        value           nonuniform List<scalar> 
988
(
13.4923
13.5054
13.5176
13.5304
13.5424
13.555
13.5672
13.5789
13.5909
13.6024
13.6141
13.6254
13.6366
13.648
13.6587
13.6696
13.6802
13.6904
13.7009
13.7108
13.7207
13.7302
13.7398
13.7492
13.7584
13.7675
13.7763
13.7852
13.7938
13.8022
13.8104
13.8182
13.8259
13.8336
13.8408
13.8483
13.8554
13.8621
13.8689
13.8754
13.8821
13.8881
13.8944
13.9002
13.906
13.9115
13.9171
13.9224
13.9278
13.9329
13.9381
13.943
13.9479
13.9526
13.9573
13.9619
13.9664
13.9708
13.9749
13.9794
13.9834
13.9876
13.9914
13.9954
13.9992
14.0028
14.0065
14.0101
14.0139
14.0172
14.0209
14.0239
14.0274
14.0305
14.0337
14.0367
14.04
14.0428
14.0462
14.0489
14.052
14.0545
14.0578
14.0602
14.0633
14.0657
14.0686
14.071
14.0739
14.076
14.0788
14.0809
14.0835
14.0856
14.0884
14.0903
14.0929
14.0948
14.0973
14.0993
14.1018
14.1034
14.1058
14.1074
14.1099
14.1114
14.1137
14.1153
14.1175
14.1191
14.1212
14.1228
14.1247
14.1264
14.128
14.1297
14.1314
14.133
14.1347
14.1362
14.1379
14.1393
14.141
14.1425
14.1439
14.1453
14.1468
14.1482
14.1495
14.151
14.1524
14.1537
14.1549
14.1564
14.1574
14.1587
14.1598
14.1611
14.1621
14.1635
14.1646
14.1656
14.1667
14.1678
14.1689
14.1699
14.171
14.172
14.173
14.1741
14.1751
14.1759
14.177
14.1777
14.179
14.1796
14.1808
14.1814
14.1824
14.1832
14.1843
14.1848
14.1858
14.1864
14.1873
14.1879
14.1889
14.1895
14.1903
14.191
14.1917
14.1926
14.193
14.194
14.1944
14.1953
14.1957
14.1966
14.197
14.1978
14.1982
14.199
14.1995
14.2002
14.2007
14.2014
14.2016
14.2023
14.2026
14.2032
14.2034
14.204
14.2043
14.2048
14.205
14.2055
14.2057
14.2062
14.2064
14.2068
14.2072
14.2079
14.209
14.201
14.1985
14.12
14.042
13.8163
13.7471
13.7566
10.779
21.6506
20.7058
20.3497
19.718
19.2447
17.6936
23.3415
17.3759
15.1713
24.0143
24.0672
24.0721
23.7592
23.189
22.5692
21.8562
21.144
20.4271
19.7367
19.0883
18.4808
7.51923
7.87532
9.59023
8.46641
8.42994
6.86267
7.07868
17.9209
17.4007
16.9241
16.4815
16.0775
15.7041
15.3656
15.054
8.49032
9.01892
8.10384
8.71946
8.15098
8.71973
8.71901
9.34973
9.42806
9.70265
8.42767
9.0919
10.4397
9.20826
9.39991
7.56217
7.8596
10.0872
8.08386
8.54114
8.92437
8.95318
7.83779
8.32848
7.30701
7.46933
7.68477
8.26519
14.7739
14.5173
14.2881
14.0801
13.8952
13.7294
13.5829
13.4538
13.3392
13.2403
13.1535
13.0783
13.0133
12.9582
12.9097
12.8698
12.8336
12.8049
12.7782
12.7567
12.7368
12.7201
12.7056
12.6902
12.6796
12.6651
12.6559
12.6421
12.6323
12.6201
12.6088
12.5979
9.04092
8.30457
5.1161
8.26432
7.52004
5.09974
8.66794
7.79024
5.09865
22.1255
12.115
9.5711
6.37119
20.3587
12.1045
10.6011
15.1814
14.3689
16.8531
12.1721
15.6011
9.78566
8.73084
5.35289
16.3031
8.902
8.81045
14.4054
9.74749
8.48883
6.21993
12.2023
10.6106
9.16599
7.84351
6.53055
8.31775
3.76198
12.585
12.5743
12.5609
12.55
12.5362
12.5257
12.5122
12.502
12.4894
12.4784
12.4667
12.4563
12.4438
12.4347
12.4226
12.4144
12.4029
12.3957
6.69205
6.4647
12.3855
12.3785
12.3692
12.3636
12.3551
12.3505
7.90135
7.65032
8.50229
6.31213
6.19032
7.01821
6.98223
8.5513
7.62847
7.11467
6.41667
6.21492
7.73131
7.23045
12.344
12.3396
12.3344
12.3307
12.3265
12.323
12.3202
12.3158
8.22083
7.77817
7.04261
5.67436
7.45059
7.41514
6.3003
6.00422
5.22974
6.68715
5.46428
7.86825
6.95391
5.09251
7.31197
6.11607
4.84268
7.58682
6.70944
5.04931
8.02224
7.26974
5.06921
7.62469
6.12785
8.36083
8.0927
6.27818
5.6356
7.60194
6.64892
7.78713
6.86209
6.03456
5.9564
5.61131
8.21426
8.10188
8.14627
7.94192
7.1897
7.21433
9.13108
6.62604
6.70451
7.30533
7.42561
7.60104
8.02697
7.32092
7.58761
9.24003
6.71651
6.80659
8.87864
6.55284
6.50593
9.97697
9.02422
8.29591
7.73178
7.16607
6.74419
6.02647
5.44107
12.3141
12.31
12.3078
12.3052
12.3021
7.51523
3.6689
12.301
12.298
8.95516
12.2976
8.20658
7.81147
7.60439
7.4295
7.28101
7.14765
7.05088
6.94282
6.86426
6.77247
12.295
12.2946
12.2935
6.70067
12.2931
6.64077
6.58896
6.54281
12.2931
12.2935
12.2943
12.2953
6.49991
6.4608
6.42347
6.38878
6.35524
6.32371
6.29353
6.26501
12.2974
12.2991
12.3015
12.3042
12.3076
12.3109
12.3154
12.3198
12.3246
12.3303
12.3357
12.3427
12.3487
12.3559
12.3631
12.3708
6.23688
6.21085
6.1854
6.16014
6.13734
6.11463
6.09196
6.07191
6.05091
6.0323
6.01291
5.99576
5.97794
5.96232
5.94609
5.93176
5.91767
5.90493
5.89253
5.88189
5.87131
5.86237
5.85388
5.8485
5.83819
5.83867
5.83452
5.81196
5.78617
5.70247
5.70626
5.79887
12.3794
12.3876
12.3966
12.4057
12.4153
12.4253
12.4356
12.4463
12.4573
12.4687
12.4803
12.4923
12.5045
12.5171
12.5297
12.5429
12.556
12.5697
12.5831
12.5974
12.611
12.6257
12.6399
12.6546
12.6693
12.6839
12.6992
12.7138
12.7292
12.7443
12.7593
12.7747
12.7899
12.8055
12.8207
12.8365
12.8517
12.8676
12.8827
12.8989
12.9138
12.9301
12.9448
12.9612
12.976
12.9923
13.007
13.0232
13.0379
13.0537
13.0683
13.0841
13.0989
13.1143
13.1291
13.1445
13.159
13.1743
13.1886
13.2037
13.218
13.2327
13.2473
13.2612
13.1596
10.22
10.8809
11.3373
11.6046
9.45927
10.1107
10.7634
11.1297
12.3697
9.09173
9.44483
9.88233
10.6654
12.9308
11.2304
11.4549
10.1488
11.0063
9.84986
10.4963
9.4242
9.79938
14.1624
14.7335
12.7921
12.7402
10.7057
11.1674
14.2495
10.6869
10.9732
12.2026
12.251
10.5108
10.8338
12.5521
12.5638
15.7901
15.7973
15.6072
12.8715
12.588
12.8869
12.5415
16.2626
17.3854
16.342
13.5458
13.309
14.1709
13.6024
15.8504
13.1746
12.8399
13.2061
12.8356
13.2762
13.2899
15.1286
11.2286
11.5531
13.1469
13.1753
13.3044
13.318
13.3324
13.5316
11.6243
11.9341
13.3458
13.3601
10.8153
11.4443
12.1275
12.3213
9.99242
10.3478
13.3733
10.49
11.1539
9.64679
9.97037
13.3875
13.4003
13.4144
13.4273
13.4409
13.4535
13.4668
13.4798
9.60606
10.4516
9.45156
10.1747
11.6492
9.23461
10.0177
10.2085
10.4488
9.09122
9.72714
8.30884
8.78632
8.79933
9.36203
11.1605
9.74079
10.0734
8.1161
8.43371
9.02589
9.69742
8.71066
9.45013
8.44125
9.05858
7.94368
8.15449
9.02784
9.82169
12.145
10.6274
10.8589
8.7858
9.16356
19.6191
15.041
14.2983
17.4268
15.9956
14.7018
13.88
5.94538
31.6943
29.5187
28.0098
26.9473
26.1515
25.5042
24.9078
24.2236
23.6698
23.245
22.9319
22.6074
22.3733
22.1159
21.9331
21.7226
21.5731
21.3962
21.2694
21.1166
21.006
20.8707
20.7721
20.65
20.5604
20.4486
20.3662
20.2625
20.1858
20.0889
20.0169
19.9254
19.8571
19.7702
19.7052
19.6221
19.5599
19.4802
19.4204
19.3437
19.2859
19.212
19.156
19.0844
19.03
18.9605
18.9076
18.84
18.7883
18.7224
18.6719
18.6076
18.5581
18.4951
18.4465
18.3848
18.337
18.2764
18.2293
18.1696
18.1232
18.0643
18.0183
17.9601
17.9146
17.8569
17.8117
17.7545
17.7096
17.6527
17.6079
17.5513
17.5067
17.4502
17.4055
17.3491
17.3043
17.2478
17.2029
17.1462
17.1011
17.0441
16.9987
16.9414
16.8956
16.8378
16.7916
16.7332
16.6864
16.6274
16.58
16.5202
16.4722
16.4116
16.3629
16.3014
16.2518
16.1893
16.1389
16.0753
16.024
15.9592
15.9068
15.8407
15.7872
15.7197
15.6651
15.596
15.54
15.4693
15.412
15.3395
15.2808
15.2064
15.146
15.0697
15.0076
14.9292
14.8654
14.7847
14.7191
14.636
14.5684
14.483
14.4133
14.3252
14.2534
14.1626
14.0884
13.9948
13.9182
13.8215
13.7425
13.6426
13.561
13.4577
13.3733
13.2665
13.1792
13.0686
12.9784
12.8639
12.7705
12.652
12.5552
12.4326
12.3321
12.2052
12.1006
11.9698
11.8601
11.7261
11.6097
11.4739
11.3753
11.2635
11.1739
11.0635
10.9718
10.8572
10.7606
10.6404
10.5382
10.4117
10.3036
10.1705
10.0561
9.91569
9.79461
9.64655
9.5184
9.36186
9.22588
9.05993
8.9152
8.73865
8.58429
8.39545
8.23013
8.02717
7.84877
7.62908
7.43536
7.19514
6.98253
6.7162
6.48058
6.18243
5.90836
5.56114
5.2315
4.84646
4.46304
4.14219
3.98309
3.91971
3.90458
3.85266
3.80071
3.70003
3.63551
3.51559
3.4705
3.35427
3.28892
3.15374
3.09025
2.9687
2.93709
2.85419
2.86818
2.82874
2.86132
2.83843
2.85846
2.82241
2.83747
2.75687
2.72383
2.58882
2.49607
2.33024
2.28124
2.17167
2.13689
2.02258
1.9818
1.86266
1.81748
1.69832
1.65152
1.54014
1.4999
1.39047
1.36047
1.26327
1.22634
1.14035
1.04347
1.0321
0.999317
34.3896
0.866057
)
;
    }
    rightWall
    {
        type            calculated;
        value           uniform 0;
    }
    symmetryLine
    {
        type            symmetryPlane;
    }
}


// ************************************************************************* //
