/*--------------------------------*- C++ -*----------------------------------*\
| =========                 |                                                 |
| \\      /  F ield         | OpenFOAM: The Open Source CFD Toolbox           |
|  \\    /   O peration     | Version:  v2006                                 |
|   \\  /    A nd           | Website:  www.openfoam.com                      |
|    \\/     M anipulation  |                                                 |
\*---------------------------------------------------------------------------*/
FoamFile
{
    version     2.0;
    format      ascii;
    class       volScalarField;
    location    "0.067";
    object      k;
}
// * * * * * * * * * * * * * * * * * * * * * * * * * * * * * * * * * * * * * //

dimensions      [0 2 -2 0 0 0 0];


internalField   nonuniform List<scalar> 
16277
(
78.7528
78.7532
78.7601
78.762
78.7673
78.7606
78.7458
78.6991
78.5911
78.4172
78.1926
77.9418
77.6811
77.4177
77.152
76.8817
76.604
76.3167
76.0182
75.708
75.3862
75.0528
74.7081
74.3525
73.9861
73.6091
73.2219
72.8245
72.4174
72.0008
71.5751
71.1407
70.6979
70.2474
69.7894
69.3244
68.853
68.3757
67.893
67.4053
66.9133
66.4175
65.9185
65.4167
64.9129
64.4074
63.9011
63.3943
62.8877
62.3818
61.8773
61.3748
60.8747
60.3777
59.8844
59.3953
58.911
58.432
57.9588
57.4922
57.0325
56.5803
56.1361
55.7004
55.2737
54.8564
54.4491
54.0521
53.6658
53.2906
52.9269
52.5751
52.2355
51.9088
51.5951
51.2946
51.0068
50.73
50.4618
50.1995
49.943
49.6998
49.4913
49.3476
49.2829
49.274
49.2885
49.3073
49.3188
49.3174
49.3071
49.2413
49.0905
48.8381
48.3207
47.4674
43.1345
38.6799
45.3965
47.7157
46.0162
41.1646
34.526
31.6353
38.9002
44.7176
42.2918
35.3635
28.9184
27.205
33.9418
41.2593
39.0173
31.2934
25.4438
24.3785
30.4093
38.2126
36.3903
28.5342
23.1882
22.491
28.0226
35.8073
34.3533
26.7518
21.6582
21.1739
26.4171
33.903
32.7066
25.4699
20.5477
20.1906
25.2376
32.3573
31.3424
24.4886
19.6924
19.4167
24.32
31.0627
30.1787
23.6992
19.0025
18.7795
23.5721
29.949
29.1633
23.0384
18.4216
18.2338
22.939
28.9703
28.2603
22.4656
17.9158
17.7531
22.3844
28.0949
27.4444
21.9542
17.464
17.3189
21.8855
27.3001
26.6979
21.4876
17.0512
16.9189
21.4282
26.5703
26.009
21.0559
16.6676
16.5449
21.0035
25.8948
25.3676
20.6522
16.3067
16.1912
20.6053
25.2642
24.7665
20.2713
15.9635
15.8536
20.2288
24.6725
24.2009
19.9097
15.6345
15.529
19.8708
24.1154
23.668
19.5647
15.3171
15.215
19.5292
23.5904
23.1653
19.235
15.0092
14.9099
19.2024
23.0947
22.6899
18.919
14.7094
14.6124
18.8889
22.6254
22.2387
18.6149
14.4163
14.3211
18.5869
22.1796
21.809
18.3212
14.1288
14.035
18.2948
21.7543
21.3981
18.036
13.8458
13.753
18.0108
21.3471
21.0036
17.7579
13.5662
13.4741
17.7335
20.9558
20.6236
17.4855
13.2891
13.1973
17.4614
20.5784
20.2562
17.2172
13.0137
12.9218
17.1933
20.2131
19.8997
16.9521
12.739
12.6468
16.9279
19.8583
19.5527
16.689
12.4644
12.3716
16.6644
19.5127
19.2139
16.4271
12.1893
12.0956
16.4018
19.1748
18.882
16.1655
11.913
11.8184
16.1394
18.8437
18.5561
15.9036
11.6353
11.5395
15.8766
18.5184
18.2355
15.641
11.3556
11.2586
15.6129
18.1981
17.9194
15.3772
11.0738
10.9757
15.3481
17.8822
17.6072
15.1121
10.79
10.6909
15.0822
17.5701
17.2984
14.8459
10.5043
10.4044
14.8151
17.2613
16.9927
14.5783
10.2171
10.1168
14.5466
16.9556
16.6897
14.3092
9.92897
9.82858
14.2769
16.6525
16.3893
14.0392
9.64079
9.54086
14.0064
16.352
16.0913
13.7687
9.35368
9.25496
13.7358
16.0541
15.796
13.4986
9.06919
8.97261
13.4661
15.7592
15.5041
13.2304
8.78929
8.696
13.1988
15.468
15.2165
12.9656
8.51645
8.42787
12.9358
15.1814
14.934
12.7064
8.25366
8.17146
12.679
14.9005
14.6581
12.4549
8.00439
7.93059
12.431
14.6268
14.3908
12.2143
7.77274
7.70977
12.1951
14.3624
14.1343
11.9885
7.56323
7.51436
11.9739
14.11
13.8922
11.7808
7.38241
7.34893
11.7675
13.8723
13.6651
11.5844
7.23783
7.21926
11.574
13.6504
13.4553
11.4043
7.13158
7.12894
11.3978
13.4461
13.2644
11.2446
7.07149
7.08144
11.2426
13.2611
13.095
11.1086
7.05444
7.07905
11.1105
13.0968
12.9462
10.9929
7.07167
7.12268
10.9983
12.9528
12.8184
10.8936
7.13071
7.20914
10.9027
12.8303
12.7131
10.8127
7.23311
7.33512
10.8255
12.7295
12.6278
10.7514
7.37111
7.48991
10.7686
12.6485
12.5616
10.7108
7.53496
7.6659
10.7335
12.5866
12.5147
10.6932
7.71794
7.85834
10.7224
12.5443
12.4878
10.6979
7.91532
8.06196
10.7372
12.5221
12.4801
10.7197
8.12124
8.27004
10.7743
12.5225
12.4897
10.7631
8.32973
8.47733
10.8313
12.5399
12.5117
10.8252
8.53554
8.67869
10.9052
12.5731
12.5488
10.9038
8.73374
8.86949
10.9932
12.6194
12.5983
10.9952
8.9201
9.04612
11.0922
12.676
12.6566
11.0946
9.09144
9.2056
11.1931
12.7377
12.719
11.1954
9.24447
9.34505
11.2942
12.8006
12.7818
11.2959
9.37687
9.4632
11.3936
12.8614
12.8417
11.394
9.48785
9.56005
11.4884
12.9168
12.8955
11.4872
9.57771
9.63657
11.5768
12.9641
12.9409
11.5738
9.64769
9.6943
11.6572
13.0021
12.9761
11.652
9.6999
9.73604
11.7282
13.0282
12.9994
11.7204
9.73689
9.76291
11.7885
13.0424
13.0092
11.778
9.76052
9.77855
11.8376
13.0458
13.0079
11.8245
9.7736
9.78528
11.8759
13.0384
12.9962
11.8603
9.77808
9.78555
11.9041
13.0226
12.9746
11.8851
9.77494
9.77995
11.9227
12.9979
12.9434
11.8991
9.76484
9.7689
11.9325
12.9636
12.9036
11.9049
9.75074
9.75385
11.9343
12.921
12.8561
11.9032
9.7333
9.73567
11.9288
12.8712
12.8013
11.8946
9.71393
9.71614
11.9172
12.8138
12.7399
11.8798
9.69239
9.69419
11.8991
12.75
12.6731
11.8589
9.6684
9.66917
11.8752
12.682
12.6028
11.8323
9.64178
9.64299
11.8468
12.6092
12.5278
11.8022
9.6157
9.61589
11.8148
12.5329
12.4481
11.7689
9.59041
9.59137
11.7811
12.4511
12.3644
11.7325
9.56346
9.56498
11.7422
12.3688
12.2788
11.6878
9.53373
9.54608
11.7002
12.2858
12.2062
11.6873
9.53225
9.55509
11.6575
12.1955
12.1767
11.6965
9.59542
9.70277
11.4835
12.1273
12.8043
12.1955
10.2351
10.219
10.8462
11.5256
13.7712
16.2945
18.9363
21.1671
22.7083
24.7499
26.0446
27.1508
27.8991
28.4228
28.67
28.6652
28.3946
27.7914
26.915
25.3837
24.293
22.1067
20.1224
18.0161
15.8508
14.2349
12.5879
12.522
8.1825
7.92832
12.4825
12.5615
12.5338
12.4863
7.72255
7.57721
12.4986
12.5254
12.5718
12.536
7.48681
7.48779
12.561
12.5943
12.6392
12.5672
7.41434
7.41766
12.5841
12.6689
12.6929
12.6019
7.42518
7.43428
12.6117
12.721
12.7403
12.6303
7.44603
7.45775
12.6465
12.7725
12.7882
12.6609
7.4702
7.48339
12.6812
12.8236
12.8403
12.6938
7.49655
7.51158
12.7194
12.8776
12.895
12.7315
7.52483
7.54102
12.7574
12.933
12.9507
12.77
7.55522
7.57149
12.7944
12.9897
13.0077
12.8109
7.58594
7.60185
12.8314
13.0468
13.065
12.8516
7.61783
7.63406
12.8723
13.1045
13.1232
12.8926
7.64933
7.66539
12.9126
13.1646
13.184
12.9347
7.68194
7.69819
12.956
13.2272
13.2478
12.978
7.71459
7.73092
12.9991
13.2929
13.314
13.0237
7.74908
7.76642
13.046
13.3596
13.3812
13.0692
7.78389
7.80181
13.0922
13.4282
13.4504
13.1168
7.82019
7.83853
13.1412
13.4976
13.5194
13.1656
7.85717
7.87547
13.194
13.5681
13.5912
13.2146
7.89357
7.91238
13.244
13.6412
13.6646
13.2676
7.93045
7.94997
13.2993
13.7159
13.7406
13.3202
7.96807
7.98753
13.3523
13.7945
13.8194
13.3776
8.00652
8.02716
13.4121
13.873
13.8987
13.4345
8.04615
8.06715
13.4701
13.9537
13.9795
13.4961
8.08589
8.10701
13.5335
14.0334
14.0586
13.5568
8.12619
8.14689
13.5946
14.1147
14.1412
13.623
8.16545
8.18664
13.664
14.1967
14.2229
13.6892
8.20526
8.22653
13.731
14.2797
14.3067
13.7607
8.24453
8.26439
13.8027
14.3619
14.3874
13.8287
8.28223
8.30246
13.8706
14.4409
14.4648
13.901
8.3204
8.34033
13.9447
14.5157
14.5391
13.9726
8.35733
8.37662
14.0154
14.5859
14.6063
14.0452
8.3922
8.4083
14.0789
14.6458
14.6632
14.1074
8.42213
8.43597
14.135
14.6936
14.7051
14.1603
8.44826
8.461
14.1802
14.7269
14.7352
14.2024
8.4729
8.48375
14.2153
14.7491
14.7529
14.2256
8.49417
8.50441
14.2301
14.7575
14.7451
14.2296
8.51561
8.52493
14.2144
14.7395
14.7056
14.1922
8.53374
8.5427
14.1601
14.6892
14.6348
14.108
8.55286
8.56663
14.0538
14.608
14.5411
13.9815
8.581
8.60378
13.9051
14.5077
14.4245
13.8089
8.63162
8.6673
13.7059
14.3843
14.2907
13.576
8.70631
8.75781
13.4482
14.2453
14.1421
13.2845
8.82312
8.90612
13.1338
14.0938
13.9917
12.9427
9.00386
9.13052
12.7755
13.9439
13.8467
12.5666
9.28227
9.47899
12.3804
13.7954
13.7359
12.1501
9.69995
9.95198
11.9846
13.7186
13.6959
11.869
10.172
10.3842
11.6502
13.6839
13.6637
11.4239
10.5998
10.7535
11.2789
13.7546
13.7515
11.2258
10.9132
11.0612
10.989
13.9091
13.9662
10.9197
11.221
11.3703
10.8844
14.2208
14.3372
10.9019
11.4816
11.6038
11.0743
14.7267
14.8996
11.1626
11.7659
11.948
11.5354
15.4271
15.7554
11.9593
12.0915
12.3126
12.8953
16.6172
16.9245
13.525
12.5259
10.8116
9.79765
10.5705
14.3916
11.4885
11.1291
11.0088
10.7839
14.1859
14.3963
10.5868
11.2732
11.491
10.2954
14.193
14.6177
10.3511
11.7607
11.9948
10.2801
14.6028
15.3541
10.6413
12.1963
12.3867
10.7468
15.431
16.5362
11.5135
12.6027
12.8334
11.9017
16.9225
18.5903
13.2857
13.2313
13.5364
14.0734
19.2801
11.0157
9.64528
12.3653
12.5697
11.5824
16.6446
16.9119
11.4906
12.4489
12.5829
12.3561
18.764
19.2671
12.6143
12.6744
12.9115
13.6027
20.7518
21.4749
14.1882
13.2058
13.7735
15.8531
23.3226
23.7086
17.016
14.4954
13.1409
10.5717
12.9192
20.5641
13.1108
13.0469
13.0178
13.1054
21.0234
23.0162
14.4336
13.4233
13.7388
14.8753
23.414
26.3028
17.35
14.5446
15.4785
19.1532
27.1806
15.1097
11.5979
13.3705
13.7872
15.2416
25.1968
26.4101
16.0975
13.8891
14.6254
19.2575
30.5444
32.1531
21.2281
15.5106
17.1194
24.4028
33.9397
19.4279
13.6895
13.7936
14.6854
19.3128
32.2425
33.2356
20.2352
15.02
16.7927
26.0842
39.1169
40.9348
29.2061
18.3735
14.3383
16.2222
25.4367
41.9894
25.8174
16.2154
17.0792
28.0993
44.7854
53.3405
37.446
20.2
21.7048
40.4086
55.014
39.0113
23.6289
16.5123
21.2384
43.0618
60.3988
63.2035
47.1443
23.4191
17.6408
28.2117
49.0075
74.4589
56.0299
25.4806
29.1443
62.7589
79.3758
70.913
44.0871
19.5029
37.6946
81.3947
94.1182
87.6796
63.0844
20.0592
38.0492
89.8604
105.758
107.533
89.6323
37.5727
39.4167
87.883
105.521
101.705
86.3241
42.8134
56.0206
95.7978
102.222
77.8079
53.7653
38.8704
45.1922
71.1122
82.5214
58.253
41.9183
31.8317
33.4413
51.8131
65.2445
59.4272
43.1543
29.5779
23.5278
25.0042
36.7444
48.4921
37.4463
27.1146
22.734
24.7877
33.0329
43.2593
32.204
24.0564
21.7115
27.7772
39.6409
23.7554
18.1421
20.1647
21.2734
24.9386
35.0382
31.8869
22.0752
19.6203
18.9053
15.473
19.0511
29.6051
20.7768
19.3445
18.034
18.7668
26.9579
16.4395
14.0165
18.0638
18.0249
18.0125
25.4224
23.0606
16.5471
17.1569
17.549
12.9512
14.5259
22.1245
15.9962
16.9799
16.6613
14.7369
19.7979
12.6726
11.8831
17.0983
16.0853
14.4633
19.55
17.4832
13.3661
15.9996
16.6767
11.084
11.5367
17.5352
13.1864
15.325
15.1478
12.1881
15.9762
10.8103
10.3927
16.1652
14.7296
12.4812
16.3956
14.0891
11.3538
14.5903
15.0152
10.338
12.2342
9.21032
9.53171
15.7786
13.9018
10.014
12.4315
11.5182
9.43142
14.4808
16.0838
8.45796
8.43257
11.2661
9.09073
13.3888
13.8669
8.89368
10.3974
7.9007
8.46404
15.0748
12.8901
8.43549
10.0728
9.52106
8.31498
13.6538
15.4581
7.76469
7.35705
9.38285
7.98112
12.7275
13.2984
7.97718
8.843
7.08851
7.56556
15.1744
12.4854
7.48646
8.66728
8.19687
7.50883
13.1991
14.778
7.72384
6.64477
8.11902
7.16964
12.2035
13.1695
7.29062
7.76991
6.49136
7.7042
14.7301
12.1789
6.74633
7.47644
7.25143
6.98566
13.3157
14.9104
7.74714
6.18078
7.06353
6.76468
12.5173
14.3788
7.09622
6.02442
7.70924
6.76498
11.8715
12.6517
6.74443
7.23823
6.26328
7.42595
14.4658
11.9062
6.76814
7.35246
7.06069
6.68889
12.7565
14.6514
7.45486
6.13878
7.2571
6.73614
12.0626
13.1028
6.57721
6.78935
6.12986
7.72341
15.0507
12.2356
6.52453
6.69035
6.31279
6.31007
13.3902
15.3808
7.83112
5.87103
6.35599
6.32305
12.28
13.4306
6.16302
5.97529
5.70835
8.34492
15.2916
12.6451
5.78474
6.02869
5.52102
7.17982
14.8103
12.1153
5.98027
6.10714
5.69983
5.82125
13.1007
15.1072
7.75632
5.52054
5.8527
5.94237
12.3386
13.5376
5.78177
5.33342
5.38904
8.40783
15.5313
12.6709
5.41559
5.41388
5.11176
7.01319
14.9372
12.0183
5.59566
5.55372
5.15442
5.54023
13.1404
15.3539
7.83519
5.21397
5.52099
5.71465
12.4582
13.8108
5.65653
5.06414
5.26862
8.58772
15.9759
13.0258
5.19251
5.07325
4.92538
7.08551
15.4046
12.3137
5.41451
5.29212
4.8812
5.41188
13.5391
15.9017
8.03658
5.04038
5.15737
5.48594
12.8726
14.232
5.4675
4.74694
5.13993
8.27234
17.2772
13.4422
4.85582
4.6961
4.68916
7.20075
15.8397
12.4661
5.07888
4.88661
4.53977
5.23268
13.9184
16.3569
8.6811
4.96087
4.61515
4.86185
13.2495
16.1057
7.19873
4.65795
4.85972
5.08815
12.7143
14.2724
5.15067
4.43663
4.96947
8.58252
17.0728
13.471
4.90468
4.59024
4.65338
7.33868
16.1141
12.686
5.03356
4.80039
4.49042
5.21633
14.1909
17.3025
8.76565
5.02654
4.60155
4.89575
13.6915
16.7232
7.52833
4.70293
4.82643
5.08264
13.1128
14.8444
5.28807
4.43421
5.03156
9.22752
17.5203
13.9834
4.95091
4.59991
4.72594
7.59254
17.0286
13.4876
5.11228
4.81934
4.47096
5.28093
15.1777
18.7909
9.06707
5.15242
4.60851
4.86247
14.5777
17.8593
8.44817
5.00767
4.6209
4.71052
13.9872
16.687
7.57836
4.7587
4.85557
5.10481
13.2559
14.9744
5.37655
4.51695
5.18691
9.44235
18.1878
14.468
5.06441
4.67467
4.86841
8.02771
17.8129
14.0575
5.22878
4.90312
4.54576
5.50269
15.9324
19.8364
9.53955
5.3262
4.69906
5.02637
15.4085
18.7645
8.78467
5.163
4.68748
4.8088
14.835
17.6789
7.90931
4.87068
4.90999
5.22938
13.9493
15.7927
5.48389
4.57566
5.37378
10.171
19.0287
15.4058
5.23711
4.77336
5.21875
8.77344
19.0919
15.0648
4.7762
4.77249
5.03573
8.31573
18.0977
14.4057
5.37197
5.04099
4.71345
5.75322
16.3377
19.94
10.1666
5.56411
4.91653
5.32227
15.8201
19.6171
9.14487
5.43215
4.89601
5.00523
15.4733
18.6472
8.53369
5.15797
5.12313
5.47962
14.7163
16.6689
5.83118
4.8026
5.68952
10.7534
20.2097
16.2601
5.55203
5.02894
5.55003
9.38866
20.1424
15.9924
5.11848
5.01262
5.34164
8.88322
19.145
15.1826
5.64585
5.25101
4.94312
6.05408
17.3029
20.86
11.2741
5.91945
5.18506
5.72412
17.3063
21.429
9.75581
5.7336
5.09677
5.11183
16.7875
20.1888
9.26034
5.49571
5.31057
5.75712
15.8233
17.9285
6.14802
4.98381
6.01832
11.6917
21.387
17.5307
5.88703
5.25758
5.85284
10.0945
21.8236
16.9733
5.21328
5.17622
5.76241
9.52553
20.7359
16.5298
5.33538
5.17737
5.63684
9.52658
20.0634
15.8998
5.87839
5.42161
5.12937
6.38252
18.1613
22.9358
11.5981
6.25697
5.42442
5.95983
18.1715
22.6959
10.4801
6.15378
5.40212
5.62216
17.9629
21.7591
10.043
6.00583
5.34102
5.53094
17.1522
20.7465
9.90521
5.83046
5.57433
6.08317
16.4875
18.8268
6.5223
5.27145
6.46181
12.4357
22.9166
18.8196
6.31949
5.6141
6.31675
10.9037
23.6231
18.4634
5.63565
5.53207
6.19068
10.2552
22.4113
17.7707
5.69881
5.51535
6.06919
10.3644
21.4923
17.1331
6.34776
5.74546
5.46977
6.84369
19.4876
23.6299
12.985
6.76411
5.81211
6.59389
19.6163
24.5813
11.3417
6.59407
5.72231
5.82345
19.3097
23.6836
10.8335
6.46659
5.71039
5.96428
18.7343
22.727
10.8407
6.31157
5.89568
6.54598
17.9429
20.5189
7.11141
5.60562
7.06677
12.9273
26.0719
20.436
6.52086
5.92457
6.85431
11.6658
25.2745
19.8569
6.12226
5.90908
6.74099
11.3263
24.4162
19.4329
6.15238
5.88061
6.65134
11.1162
23.864
19.0359
6.20505
5.88437
6.55298
11.1312
23.1319
18.5576
6.87788
6.10904
5.87605
7.49562
21.2592
25.851
14.3738
7.45395
6.25152
7.1868
21.6347
27.0115
12.4993
7.24703
6.12944
6.30027
21.0636
25.669
11.7503
7.01684
6.10041
6.36316
20.3073
24.951
11.6986
6.95148
6.12729
6.53893
20.0014
24.3027
11.7135
6.82241
6.34167
7.13128
19.3118
22.0399
7.67869
6.06261
7.70937
14.6473
27.0507
21.7784
7.36302
6.47631
7.59451
13.0163
27.6345
21.6091
6.71798
6.45533
7.4055
12.2876
26.5777
21.0621
6.71313
6.42987
7.35935
12.2697
25.8263
20.7001
6.93281
6.47997
7.23436
12.2076
25.1809
20.1818
7.52352
6.67043
6.4334
8.21443
23.071
28.1087
15.6147
8.20653
6.80914
7.87883
23.4366
29.4441
13.6931
7.99639
6.70083
6.97671
23.2312
28.4389
12.8758
7.80343
6.65194
6.92454
22.5031
27.5686
12.8564
7.70342
6.68676
7.14426
21.9294
26.482
12.9077
7.56229
6.91686
7.8333
21.0048
24.0832
8.53512
6.66288
8.55364
16.2098
29.5872
24.1151
8.17676
7.05595
8.3905
14.2963
30.5877
23.9568
7.30605
6.987
8.14845
13.3921
29.2976
23.2489
7.27335
6.95906
8.10945
13.3774
28.5343
22.8514
7.51571
7.00491
7.97792
13.5061
27.765
22.1506
8.23659
7.20566
6.98664
9.08029
25.5624
31.166
17.3882
9.13518
7.42883
8.66767
25.975
32.5938
15.3258
8.93322
7.22216
7.66103
25.3975
31.0573
14.1355
8.56943
7.182
7.55901
24.6773
30.3419
14.1021
8.5026
7.24981
7.76878
24.2233
29.6604
14.1465
8.51931
7.32385
7.95725
23.7453
28.8666
14.1433
8.33826
7.53098
8.59357
22.852
26.435
9.40231
7.28836
9.54403
17.6253
33.3327
26.4107
8.87063
7.71484
9.30111
15.5785
33.1751
26.0179
8.13984
7.66322
9.09041
14.9654
31.9053
25.2558
8.18023
7.67973
9.02655
14.8516
30.8675
24.718
8.43634
7.75612
8.89119
14.7482
30.0151
23.9753
9.05096
7.91664
7.69321
9.95935
27.8412
34.627
18.8717
10.1447
8.17953
9.54972
27.9158
35.2295
16.7144
9.93528
8.01001
8.62673
27.7979
33.9949
15.7559
9.593
7.94534
8.50398
26.9318
32.8506
15.5914
9.48743
7.97841
8.71134
26.2695
32.0939
15.6162
9.29479
8.15015
9.43084
25.3485
29.4599
10.3551
7.90909
10.6401
19.6947
37.1595
29.2771
9.87221
8.41216
10.3007
17.2792
36.5479
28.6519
9.00882
8.30638
10.033
16.5594
35.0048
27.7709
8.97684
8.26746
9.88549
16.2783
34.0885
27.189
9.11772
8.31909
9.72554
16.2865
33.3643
26.5004
9.85476
8.49299
8.28161
10.954
30.9372
38.6202
20.9793
11.1962
8.89074
10.5324
30.9712
39.0737
18.5687
11.0003
8.73831
9.56297
30.5724
37.4363
17.6252
10.6466
8.67088
9.50673
29.5393
36.382
17.377
10.5248
8.69857
9.64118
28.9178
35.6963
17.3804
10.2993
8.86676
10.3735
28.261
32.9545
11.4604
8.6335
11.7651
22.037
40.866
32.5565
11.072
9.28571
11.4978
19.4313
40.5361
31.6905
10.0826
9.16703
11.1766
18.4123
39.0382
30.7357
10.0358
9.13842
10.9769
18.4334
38.2107
30.4071
11.0066
9.25156
9.04826
12.2555
35.6262
43.5536
24.0684
12.6622
9.74209
11.9222
35.0296
43.9512
20.9579
12.3364
9.54218
10.6062
34.271
42.0317
19.6036
11.7951
9.40776
10.4313
32.6939
40.3818
19.4484
11.4499
9.48763
11.3684
31.8135
37.3322
12.6479
9.26737
13.1876
24.6296
46.9591
36.6352
12.0754
10.0206
12.6368
21.2828
45.6335
35.1914
10.8508
9.85914
12.358
20.6822
44.0555
34.6385
11.0837
9.84639
12.1448
20.6847
42.9836
33.8862
12.0555
9.90966
9.75368
13.5536
39.8078
48.1116
26.8702
14.0634
10.4602
13.1299
38.5217
48.9932
23.3668
13.655
10.3336
11.6395
37.8133
46.6335
21.6955
12.9541
10.1753
11.4359
36.3795
45.3183
21.6064
12.5849
10.2548
12.4796
35.8024
42.1568
13.8941
10.0577
14.5838
27.6868
51.5599
40.4892
13.5088
10.9436
14.2238
24.5157
51.4445
39.8057
12.3396
10.8817
13.7249
23.012
49.4532
38.7204
12.1689
10.8328
13.5014
23.066
48.2219
38.166
13.4085
10.9141
10.7631
15.0915
44.9244
55.087
29.8563
15.8229
11.7128
14.6157
43.1288
54.3237
25.9766
15.2087
11.4979
13.1959
42.0492
52.3081
24.6878
14.4143
11.3442
13.9192
40.9357
47.8958
15.2579
11.1513
16.5726
31.9695
58.7366
45.438
15.33
12.1016
16.0373
27.6347
57.6972
44.7762
13.864
12.0455
15.3683
25.9998
55.81
43.5236
13.5644
11.9641
15.0468
25.928
54.2694
42.6979
14.8693
12.0131
11.9013
16.7719
50.1671
62.4371
33.5638
17.7802
13.0451
16.5015
48.3417
60.8878
29.0917
17.0276
12.8662
14.8109
47.2265
59.1535
28.0036
16.2954
12.7567
15.7789
45.9023
54.0935
17.6164
12.5897
18.917
35.8637
67.7921
52.4882
17.3453
13.7874
18.135
31.2685
65.723
50.7744
15.8492
13.5977
17.3088
29.886
63.0968
49.3372
16.751
13.4673
13.3692
18.8727
57.7108
71.2863
38.3712
20.1747
14.5839
18.7149
54.8644
68.7689
33.4588
19.0875
14.2315
17.767
53.0837
62.1366
19.6962
14.0498
21.2812
40.2545
77.0613
58.4323
19.1142
15.268
20.4819
35.4489
74.1147
57.0327
17.7596
14.9514
19.412
33.7278
71.0249
55.491
18.6378
14.7026
14.6136
21.111
64.987
80.0172
42.7813
22.4834
15.9434
20.5755
61.9269
77.4576
37.1342
21.1112
15.3377
19.3676
59.6726
69.6174
21.4123
15.1665
23.4475
44.8471
85.8455
65.6035
21.1262
16.5141
22.0616
38.95
82.1537
62.7752
20.5015
15.9391
15.8023
23.0477
73.9842
92.5678
48.4065
25.1129
17.3784
22.3996
69.9507
86.9974
41.5297
23.3767
16.4811
21.1716
66.244
77.1865
23.5629
16.3325
25.804
49.844
94.6598
72.3526
23.1359
17.8155
24.2281
42.9528
90.3918
69.4431
22.1548
17.1316
17.0085
24.6725
81.282
100.833
52.4073
27.0425
18.6159
23.3519
74.7285
95.2242
45.4978
25.4662
17.6925
23.2401
72.8002
84.9423
25.6583
17.5406
28.2151
54.588
105.988
80.2199
25.1959
19.2944
26.1499
46.7408
99.6013
75.9999
23.7786
18.3783
18.2846
26.6204
88.4259
108.806
57.1958
29.3282
20.0482
26.3262
82.7255
103.346
49.0617
27.3267
19.0901
24.9668
78.3217
90.6128
26.6037
18.8501
29.8977
59.7944
114.515
86.6925
28.133
20.3033
20.0487
30.2844
100.334
124.793
64.1236
32.9524
22.1047
29.0764
93.8509
115.945
54.1094
30.2236
20.6621
26.8786
87.7533
101.312
29.9801
20.5808
32.7461
65.1597
124.314
94.3777
31.0122
22.0344
21.6084
31.7008
108.256
136.878
69.5939
35.0404
22.9024
32.3525
102.33
117.949
33.7853
22.4848
37.5508
73.8701
145.623
107.932
32.5421
24.6481
34.1456
61.8046
131.937
98.9427
30.1256
22.9098
22.8197
33.4067
113.581
138.888
73.0455
36.4651
24.2399
34.3651
104.648
119.41
34.6315
23.7662
38.3702
76.2382
150.839
112.532
35.4096
25.073
24.6891
37.3304
129.258
158.982
81.7407
40.3842
26.122
37.4087
117.847
133.887
38.8518
25.7046
41.7743
83.5826
162.937
121.395
38.2567
26.8536
26.4948
39.8075
138.583
170.216
85.9604
42.915
27.3756
38.939
126.141
142.327
46.0777
27.8253
28.0694
50.2859
165.039
198.784
102.737
49.4483
29.7998
44.0171
144.731
162.773
44.6235
28.9958
47.7776
96.8227
196.961
143.449
42.4031
29.1859
29.0464
46.4598
159.613
183.22
51.8229
29.1938
52.837
112.833
223.744
160.702
46.5149
30.8757
31.1508
53.3443
176.815
201.747
57.4798
31.5192
56.3934
122.092
233.707
166.773
48.736
32.4073
32.0919
53.8479
185.433
212.427
58.6555
31.8906
57.4007
125.246
255.988
181.341
50.3598
32.5634
31.2956
48.9612
197.363
229.339
69.2365
33.4751
32.1577
58.7071
238.982
298.144
138.626
63.6289
34.3801
54.5012
204.766
224.694
55.4472
33.3401
33.5974
68.3381
248.806
266.099
61.3219
31.8318
33.8543
78.8791
288.267
302.854
75.5255
31.8091
64.1854
148.883
340.649
212.974
53.7567
32.3764
31.0188
53.3294
227.56
247.022
65.4231
30.8783
30.0992
64.8458
261.077
272.681
66.7066
29.6094
29.4777
72.1166
274.89
271.908
75.5772
29.4006
29.3804
78.5502
264.814
252.461
82.3543
29.4973
29.6245
85.3135
239.055
225.566
89.0381
29.9835
30.3569
92.716
212.511
200.259
97.5853
31.1767
31.8634
102.352
189.107
179.046
107.002
33.2095
34.2607
111.468
170.014
161.933
115.772
35.9531
37.2664
119.889
154.708
148.318
123.825
39.2212
41.0625
127.171
142.645
137.649
130.359
43.5615
45.845
133.052
133.219
129.32
135.69
48.6881
51.0523
138.131
125.877
122.87
140.497
53.9676
56.3793
142.65
120.231
117.949
144.724
59.3483
61.8087
146.586
115.961
114.261
148.374
64.8359
67.3589
149.943
112.787
111.539
151.434
70.4484
73.0443
152.693
110.461
109.561
153.874
76.2143
78.8567
154.822
108.787
108.148
155.685
82.0699
84.6398
156.344
107.597
107.152
156.943
87.7026
90.1109
157.354
106.768
106.466
157.72
92.9818
95.2034
157.929
106.208
106.007
158.096
97.8701
99.8864
158.136
105.837
105.704
158.11
102.332
104.119
158.022
105.587
105.507
157.898
106.323
107.858
157.63
105.426
105.369
157.425
109.789
111.064
157.03
105.319
105.279
156.722
112.723
113.754
156.24
105.251
105.221
155.847
115.163
115.977
155.307
105.2
105.167
154.854
117.16
117.79
154.28
105.143
105.101
153.785
118.765
119.228
153.195
105.07
105.014
152.67
120.016
120.341
152.077
104.974
104.904
151.533
120.953
121.167
150.947
104.855
104.771
150.392
121.62
121.749
149.818
104.712
104.619
149.26
122.057
122.122
148.705
104.554
104.454
148.155
122.309
122.322
147.62
104.381
104.277
147.085
122.393
122.372
146.569
104.198
104.091
146.06
122.376
122.308
145.562
104.007
103.9
145.082
122.282
122.167
144.605
103.814
103.706
144.155
122.106
121.926
143.7
103.619
103.512
143.271
121.84
121.618
142.837
103.425
103.318
142.427
121.517
121.269
142.014
103.232
103.126
141.62
121.158
120.9
141.232
103.042
102.938
140.854
120.787
120.529
140.491
102.855
102.753
140.129
120.411
120.165
139.795
102.674
102.575
139.449
120.046
119.823
139.141
102.498
102.402
138.814
119.704
119.502
138.535
102.329
102.237
138.229
119.394
119.213
137.975
102.169
102.081
137.692
119.115
118.957
137.465
102.018
101.936
137.206
118.874
118.741
137.004
101.879
101.802
136.768
118.67
118.56
136.59
101.752
101.681
136.379
118.504
118.417
136.224
101.639
101.573
136.035
118.376
118.311
135.902
101.538
101.48
135.734
118.283
118.24
135.623
101.452
101.401
135.475
118.225
118.202
135.384
101.38
101.338
135.255
118.2
118.197
135.182
101.322
101.29
135.07
118.209
118.22
135.013
101.279
101.257
134.917
118.242
118.273
134.875
101.251
101.237
134.795
118.303
118.35
134.764
101.236
101.232
134.701
118.387
118.449
134.679
101.235
101.238
134.632
118.492
118.567
134.617
101.247
101.254
134.584
118.616
118.7
134.576
101.271
101.282
134.555
118.754
118.847
134.553
101.305
101.32
134.546
118.903
119.004
134.55
101.349
101.368
134.551
119.063
119.171
134.561
101.403
101.426
134.567
119.232
119.345
134.587
101.465
101.492
134.597
119.408
119.526
134.625
101.535
101.565
134.639
119.591
119.714
134.675
101.612
101.645
134.692
119.779
119.905
134.735
101.695
101.731
134.756
119.972
120.1
134.805
101.784
101.823
134.828
120.166
120.296
134.882
101.878
101.919
134.907
120.362
120.492
134.965
101.976
102.019
134.993
120.558
120.687
135.054
102.079
102.123
135.083
120.753
120.881
135.148
102.185
102.231
135.178
120.945
121.072
135.245
102.294
102.343
135.276
121.135
121.259
135.345
102.407
102.457
135.378
121.321
121.443
135.449
102.523
102.574
135.482
121.503
121.622
135.554
102.641
102.693
135.588
121.68
121.797
135.661
102.761
102.814
135.695
121.853
121.966
135.769
102.882
102.936
135.804
122.021
122.131
135.878
103.005
103.059
135.913
122.183
122.29
135.987
103.128
103.183
136.022
122.34
122.443
136.096
103.252
103.306
136.131
122.492
122.591
136.205
103.375
103.43
136.24
122.637
122.733
136.314
103.499
103.553
136.348
122.778
122.869
136.421
103.622
103.677
136.455
122.912
123
136.528
103.745
103.8
136.562
123.04
123.124
136.633
103.868
103.923
136.666
123.163
123.243
136.737
103.991
104.046
136.77
123.28
123.357
136.84
104.114
104.169
136.872
123.391
123.465
136.941
104.238
104.292
136.972
123.497
123.567
137.04
104.362
104.416
137.071
123.598
123.665
137.138
104.486
104.541
137.169
123.693
123.757
137.235
104.611
104.666
137.265
123.784
123.844
137.33
104.737
104.792
137.36
123.869
123.926
137.425
104.864
104.918
137.455
123.949
124.004
137.519
104.99
105.044
137.548
124.026
124.078
137.612
105.116
105.168
137.641
124.098
124.145
137.704
105.239
105.29
137.733
124.164
124.21
137.796
105.361
105.409
137.824
124.226
124.278
137.89
105.48
105.529
137.92
124.294
124.336
137.979
105.597
105.64
138.008
124.352
124.392
138.077
105.715
105.75
138.095
124.407
124.44
138.155
105.864
105.895
138.171
124.447
124.463
138.232
105.987
106.017
138.252
124.507
124.52
138.108
106.125
106.024
137.83
124.679
124.446
137.413
106.303
106.998
137.217
124.325
124.382
137.596
107.411
116.116
72.1603
43.2262
40.4473
41.3842
45.6001
49.145
54.7688
56.9048
63.8525
67.6799
68.8006
68.9645
68.4381
67.9079
67.6008
67.5029
67.5424
67.6512
67.7864
67.9249
68.0557
68.1742
68.279
68.3699
68.4479
68.5131
68.5667
68.6084
68.6392
68.6597
68.6718
68.6774
68.6845
68.6975
68.7167
68.742
68.7721
68.807
68.8456
68.8885
68.9358
68.9885
69.0473
69.1137
69.2045
69.3516
69.569
69.8341
70.1112
70.3777
70.625
70.8518
71.0593
71.249
71.4222
71.5797
71.7221
71.8503
71.9649
72.0672
72.1584
72.24
72.3135
72.3803
72.4417
72.4988
72.5526
72.6039
72.6535
72.7022
72.7505
72.7992
72.8487
72.8997
72.9526
73.0077
73.0656
73.1266
73.1908
73.2585
73.3298
73.4048
73.4833
73.5653
73.6506
73.7388
73.8298
73.9231
74.0183
74.1151
74.2129
74.3115
74.4104
74.5092
74.6075
74.705
74.8015
74.8966
74.9902
75.082
75.1718
75.2595
75.3451
75.4285
75.5095
75.5881
75.6644
75.7384
75.8099
75.8792
75.9461
76.0109
76.0734
76.1337
76.192
76.2483
76.3026
76.3551
76.4057
76.4546
76.5017
76.5473
76.5913
76.6339
76.675
76.7147
76.7532
76.7904
76.8264
76.8613
76.8952
76.928
76.9599
76.9908
77.0209
77.0501
77.0786
77.1063
77.1333
77.1596
77.1853
77.2104
77.235
77.259
77.2825
77.3055
77.3282
77.3504
77.3722
77.3937
77.4149
77.4358
77.4564
77.4768
77.4969
77.5169
77.5367
77.5564
77.5759
77.5954
77.6148
77.6341
77.6534
77.6727
77.6921
77.7114
77.7309
77.7504
77.7701
77.7899
77.8099
77.83
77.8504
77.8711
77.892
77.9132
77.9348
77.9568
77.9792
78.002
78.0254
78.0492
78.0737
78.0987
78.1245
78.1509
78.1781
78.2062
78.2351
78.265
78.2958
78.3277
78.3606
78.3946
78.4297
78.4659
78.5031
78.5411
78.5792
78.6165
78.6515
78.6826
78.7067
78.723
78.7315
78.7384
78.745
78.7441
78.7428
78.7381
78.7213
78.6778
78.585
78.4311
78.2238
77.9829
77.7259
77.4621
77.1939
76.9202
76.6389
76.3481
76.0465
75.7336
75.4093
75.0736
74.7269
74.3694
74.0012
73.6226
73.2339
72.8352
72.4269
72.0093
71.5827
71.1475
70.7041
70.2529
69.7943
69.3289
68.8571
68.3794
67.8963
67.4084
66.9161
66.4201
65.9208
65.4189
64.9148
64.4093
63.9027
63.3958
62.8892
62.3832
61.8787
61.376
60.8759
60.3788
59.8855
59.3963
58.9119
58.4329
57.9597
57.493
57.0332
56.5809
56.1366
55.7008
55.274
54.8566
54.4491
54.0519
53.6654
53.2901
52.9262
52.5744
52.2349
51.9084
51.595
51.295
51.0079
50.7324
50.4666
50.2095
49.9626
49.7347
49.5443
49.4105
49.3364
49.3026
49.285
49.2674
49.2227
49.0558
48.1998
46.6679
45.549
45.1389
43.9823
43.6586
42.52
42.2616
41.1707
40.971
39.9198
39.7699
38.7579
38.6502
37.6758
37.6035
36.6645
36.622
35.7154
35.6981
34.8227
34.8257
33.9833
33.9999
33.185
33.2136
32.4253
32.4654
31.7032
31.7549
31.0186
31.0809
30.3686
30.44
29.7498
29.829
29.1588
29.2445
28.5926
28.6838
28.0488
28.1446
27.5249
27.6245
27.0191
27.122
26.5298
26.6354
26.0552
26.1629
25.5937
25.7029
25.1439
25.2541
24.7047
24.8156
24.275
24.3865
23.8541
23.9655
23.4408
23.5519
23.0343
23.1448
22.6339
22.7436
22.2389
22.3475
21.8488
21.956
21.463
21.5688
21.0813
21.1855
20.7033
20.8057
20.329
20.4295
19.9588
20.0575
19.5933
19.6904
19.2334
19.3293
18.8808
18.9759
18.5374
18.6323
18.2059
18.3018
17.8902
17.9879
17.5935
17.6939
17.3187
17.4228
17.0688
17.1773
16.8446
16.9588
16.6513
16.7741
16.4954
16.6279
16.3749
16.5171
16.2869
16.4384
16.2292
16.3898
16.1999
16.3693
16.1965
16.3741
16.2157