/*--------------------------------*- C++ -*----------------------------------*\
| =========                 |                                                 |
| \\      /  F ield         | OpenFOAM: The Open Source CFD Toolbox           |
|  \\    /   O peration     | Version:  v2006                                 |
|   \\  /    A nd           | Website:  www.openfoam.com                      |
|    \\/     M anipulation  |                                                 |
\*---------------------------------------------------------------------------*/
FoamFile
{
    version     2.0;
    format      ascii;
    class       volScalarField;
    location    "0.152";
    object      isentropic(p);
}
// * * * * * * * * * * * * * * * * * * * * * * * * * * * * * * * * * * * * * //

dimensions      [1 -1 -2 0 0 0 0];


internalField   nonuniform List<scalar> 
16277
(
150008
150014
150017
150003
150013
150010
150010
150012
150013
150013
150013
150012
150012
150011
150011
150011
150010
150010
150010
150010
150010
150010
150010
150009
150009
150009
150009
150009
150009
150009
150009
150009
150008
150008
150008
150008
150008
150008
150008
150008
150007
150007
150007
150007
150007
150007
150007
150007
150006
150006
150006
150006
150006
150006
150006
150006
150005
150005
150005
150005
150005
150005
150005
150005
150005
150004
150004
150004
150004
150004
150004
150004
150004
150004
150004
150003
150003
150003
150003
150002
150002
150001
150001
150000
150001
150003
150004
150005
150004
150006
150005
150007
150008
150011
150017
150015
149976
149936
150011
150022
150021
150002
149897
149860
149993
150018
150013
149981
149826
149796
149971
150008
150002
149959
149768
149744
149949
149997
149991
149938
149721
149703
149929
149986
149979
149919
149684
149669
149911
149975
149968
149901
149653
149640
149893
149964
149958
149884
149627
149616
149877
149953
149947
149868
149605
149595
149862
149943
149937
149854
149585
149577
149849
149934
149928
149841
149568
149561
149836
149925
149919
149829
149553
149547
149824
149916
149911
149817
149540
149534
149813
149908
149903
149807
149528
149523
149803
149901
149896
149797
149517
149513
149794
149893
149889
149788
149508
149504
149785
149887
149882
149779
149499
149496
149776
149880
149876
149771
149492
149489
149769
149874
149870
149763
149485
149483
149761
149868
149864
149756
149479
149477
149755
149863
149859
149750
149474
149473
149748
149857
149853
149744
149470
149469
149743
149852
149849
149738
149466
149465
149737
149847
149844
149733
149463
149463
149732
149843
149839
149728
149461
149461
149727
149839
149835
149724
149459
149459
149723
149835
149831
149720
149458
149458
149719
149831
149827
149716
149457
149458
149715
149827
149824
149712
149457
149458
149712
149824
149821
149709
149458
149459
149709
149820
149817
149706
149459
149460
149706
149817
149814
149704
149460
149462
149704
149814
149811
149702
149462
149464
149702
149811
149809
149700
149465
149467
149700
149809
149806
149698
149468
149470
149699
149806
149804
149697
149471
149474
149698
149804
149802
149696
149475
149478
149697
149802
149800
149695
149480
149483
149696
149801
149799
149695
149485
149488
149696
149799
149797
149695
149490
149493
149697
149798
149796
149696
149496
149499
149697
149797
149795
149697
149502
149506
149698
149796
149795
149698
149508
149512
149700
149796
149795
149700
149515
149519
149702
149796
149795
149702
149522
149527
149704
149796
149796
149705
149530
149534
149707
149797
149797
149708
149537
149542
149711
149799
149799
149711
149545
149549
149715
149801
149801
149716
149552
149557
149719
149804
149804
149721
149560
149564
149724
149807
149807
149726
149567
149571
149730
149810
149811
149731
149573
149578
149735
149814
149815
149737
149580
149584
149741
149819
149820
149743
149585
149588
149746
149823
149824
149748
149589
149591
149751
149828
149828
149753
149591
149593
149756
149832
149832
149757
149592
149594
149760
149835
149836
149760
149592
149593
149763
149839
149839
149763
149591
149591
149765
149842
149842
149765
149589
149588
149767
149844
149844
149767
149585
149584
149768
149846
149846
149767
149581
149580
149769
149848
149847
149767
149575
149574
149768
149849
149848
149767
149570
149568
149767
149850
149849
149765
149564
149563
149766
149850
149849
149764
149558
149556
149764
149850
149849
149762
149552
149550
149762
149850
149848
149760
149546
149544
149760
149849
149847
149757
149541
149539
149757
149848
149846
149755
149536
149534
149755
149846
149844
149752
149531
149529
149752
149845
149843
149749
149526
149525
149749
149844
149841
149747
149522
149520
149746
149842
149840
149744
149517
149515
149743
149841
149839
149740
149512
149511
149740
149839
149837
149738
149508
149507
149738
149837
149835
149735
149504
149504
149735
149835
149833
149732
149501
149500
149732
149833
149831
149729
149498
149497
149729
149831
149828
149727
149496
149496
149728
149829
149826
149725
149493
149493
149725
149826
149824
149722
149490
149490
149722
149824
149822
149719
149487
149485
149719
149823
149821
149716
149483
149483
149716
149821
149819
149713
149480
149480
149714
149820
149817
149712
149478
149478
149712
149817
149816
149711
149477
149480
149715
149820
149821
149716
149483
149494
149727
149832
149871
149776
149550
149515
149697
149793
149865
149921
149955
149966
149972
149984
149989
149994
149997
149999
149999
149998
149997
149993
149989
149979
149974
149967
149960
149946
149913
149842
149701
149542
149278
149257
149525
149689
149668
149509
149246
149236
149497
149656
149651
149493
149230
149229
149493
149653
149653
149491
149223
149226
149491
149653
149654
149492
149227
149227
149492
149655
149656
149494
149228
149229
149495
149657
149658
149495
149230
149231
149497
149659
149660
149498
149231
149233
149499
149661
149662
149500
149234
149233
149501
149663
149665
149502
149235
149236
149503
149666
149667
149505
149237
149238
149506
149668
149669
149507
149239
149240
149508
149670
149671
149509
149241
149242
149510
149672
149673
149512
149243
149244
149513
149674
149675
149514
149245
149246
149515
149676
149677
149516
149247
149247
149518
149679
149680
149519
149248
149249
149520
149681
149683
149521
149250
149252
149523
149683
149684
149524
149253
149254
149525
149685
149686
149526
149255
149256
149528
149688
149689
149529
149257
149258
149530
149690
149691
149531
149259
149260
149533
149693
149694
149534
149261
149262
149535
149695
149697
149536
149262
149263
149538
149698
149700
149539
149264
149266
149540
149700
149701
149542
149267
149268
149543
149703
149704
149544
149269
149269
149545
149706
149708
149546
149269
149270
149548
149709
149710
149549
149272
149272
149551
149712
149713
149552
149273
149274
149553
149714
149715
149555
149275
149276
149556
149717
149718
149557
149277
149277
149559
149720
149723
149560
149276
149277
149561
149724
149726
149563
149277
149278
149564
149727
149728
149566
149279
149279
149567
149731
149733
149569
149279
149279
149571
149735
149737
149573
149280
149280
149574
149739
149742
149576
149280
149280
149578
149744
149746
149580
149280
149280
149582
149749
149751
149585
149280
149281
149587
149754
149758
149590
149280
149278
149593
149764
149767
149596
149279
149280
149599
149770
149774
149603
149280
149281
149607
149778
149778
149612
149287
149291
149617
149780
149785
149622
149294
149296
149628
149791
149803
149632
149293
149298
149639
149808
149808
149647
149307
149319
149656
149809
149818
149667
149329
149337
149678
149828
149835
149691
149351
149367
149700
149842
149849
149713
149383
149400
149723
149856
149862
149733
149417
149436
149744
149869
149876
149756
149458
149478
149767
149881
149886
149777
149497
149517
149786
149890
149895
149794
149536
149560
149816
149908
149886
149833
149605
149286
149672
149790
149892
149720
149371
149410
149750
149888
149893
149763
149432
149461
149772
149889
149914
149783
149471
149497
149795
149924
149908
149821
149558
149586
149832
149910
149940
149842
149594
149633
149856
149932
149944
149873
149667
149641
149886
150002
149882
149703
149532
149583
149841
149929
149989
149845
149563
149617
149871
149981
149982
149890
149656
149703
149906
149960
149993
149911
149703
149748
149934
149990
150009
149943
149746
149629
149807
149938
149963
149909
149694
149699
149920
149995
149993
149938
149742
149745
149941
150021
150012
149965
149793
149855
149986
149996
149961
149935
149637
149722
149936
150066
150024
149978
149819
149836
149989
150038
150054
150009
149863
149915
150021
150027
149998
149987
149718
149816
149994
150101
150066
150021
149884
149923
150044
150073
150048
150061
149986
149805
150051
150037
150136
150046
149914
149985
150073
150090
150117
150096
150017
150032
150100
150116
150113
150078
149989
150052
150123
150158
150144
150135
150076
150101
150097
150169
150186
150179
150140
150175
150192
150187
150210
150216
150200
150276
150252
150217
150180
150221
150233
150277
150227
150187
150215
150261
150311
150293
150272
150233
150188
150213
150180
150035
150104
150103
150007
149953
149843
149889
149966
149977
149923
149868
149742
149809
149907
149921
149929
149850
149718
149567
149903
149820
149874
149817
149707
149656
149799
149821
149888
149851
149701
149659
149816
149874
149821
149755
149591
149657
149824
149871
149946
149780
149549
149511
149720
149852
149904
149808
149600
149506
149765
149960
149852
149706
149483
149593
149810
149913
149969
149760
149490
149464
149691
149845
149907
149816
149606
149656
149795
149798
149753
149714
149551
149643
149814
149846
149769
149802
149685
149568
149720
149741
149837
149809
149646
149593
149778
149851
149801
149703
149505
149625
149812
149873
149839
149793
149616
149496
149724
149893
149742
149755
149370
149613
149787
149835
149801
149778
149594
149524
149625
149781
149882
149781
149536
149446
149718
149929
149763
149728
149382
149613
149799
149843
149781
149783
149613
149517
149627
149772
149865
149791
149563
149509
149752
149879
149800
149606
149488
149557
149786
149864
149884
149742
149505
149405
149727
149758
149848
149791
149599
149547
149751
149847
149743
149743
149408
149607
149793
149844
149853
149753
149547
149385
149771
149735
149845
149778
149609
149523
149722
149769
149858
149818
149629
149592
149785
149855
149794
149706
149511
149626
149819
149872
149893
149775
149553
149487
149702
149823
149898
149827
149614
149677
149811
149784
149748
149721
149557
149640
149820
149849
149878
149778
149560
149489
149700
149808
149898
149820
149606
149519
149762
149934
149769
149788
149391
149623
149805
149875
149799
149747
149544
149640
149839
149877
149862
149809
149617
149522
149723
149805
149884
149837
149635
149612
149797
149851
149766
149785
149442
149627
149816
149869
149796
149749
149548
149651
149851
149900
149890
149818
149619
149521
149726
149818
149900
149844
149639
149591
149797
149892
149781
149789
149439
149625
149820
149882
149809
149752
149542
149659
149860
149905
149897
149822
149616
149515
149729
149825
149906
149843
149623
149623
149822
149849
149826
149609
149573
149575
149849
149886
149843
149737
149501
149616
149852
149932
149991
149785
149506
149412
149756
149825
149917
149828
149609
149519
149756
149848
149910
149856
149635
149621
149820
149857
149808
149686
149540
149608
149848
149893
149846
149765
149546
149646
149865
149922
149880
149824
149615
149551
149675
149823
149895
149856
149608
149532
149757
149842
149912
149862
149641
149606
149812
149880
149794
149764
149450
149630
149844
149911
149848
149766
149528
149633
149866
149924
149825
149845
149660
149586
149623
149827
149881
149888
149566
149512
149743
149840
149915
149849
149597
149508
149752
149854
149927
149870
149640
149601
149827
149909
149826
149716
149501
149598
149847
149911
149855
149757
149511
149611
149861
149928
149850
149832
149619
149563
149607
149832
149881
149885
149537
149478
149728
149835
149919
149854
149588
149504
149761
149863
149924
149864
149619
149565
149807
149909
149801
149768
149416
149581
149819
149904
149830
149743
149481
149598
149855
149909
149843
149757
149504
149607
149858
149922
149894
149810
149559
149504
149664
149828
149896
149863
149566
149481
149738
149839
149914
149850
149579
149488
149751
149853
149920
149860
149609
149560
149805
149899
149799
149737
149415
149565
149819
149902
149826
149729
149455
149576
149849
149912
149850
149752
149487
149606
149859
149916
149907
149794
149540
149348
149783
149777
149910
149785
149575
149424
149727
149815
149898
149839
149552
149454
149734
149828
149900
149844
149580
149517
149778
149887
149759
149768
149313
149566
149778
149903
149813
149719
149422
149544
149831
149897
149823
149723
149443
149546
149832
149897
149830
149731
149452
149564
149840
149911
149884
149787
149509
149465
149577
149808
149862
149848
149468
149395
149684
149808
149888
149811
149494
149406
149703
149818
149890
149823
149526
149435
149717
149819
149891
149833
149561
149497
149767
149875
149751
149738
149300
149514
149760
149879
149787
149686
149367
149493
149805
149874
149798
149693
149391
149506
149811
149878
149804
149696
149402
149541
149822
149883
149869
149758
149484
149268
149732
149737
149882
149733
149506
149339
149673
149777
149864
149795
149476
149357
149672
149780
149861
149791
149474
149369
149678
149790
149879
149800
149498
149427
149740
149848
149768
149488
149391
149377
149821
149820
149768
149635
149309
149437
149780
149859
149776
149647
149320
149440
149775
149853
149769
149652
149330
149450
149777
149850
149777
149665
149354
149480
149786
149854
149837
149711
149415
149148
149715
149685
149860
149653
149462
149243
149620
149732
149830
149749
149395
149277
149620
149744
149836
149759
149414
149292
149627
149752
149836
149758
149418
149310
149640
149762
149842
149769
149453
149382
149695
149812
149685
149631
149181
149396
149693
149820
149718
149599
149241
149375
149732
149814
149725
149600
149251
149374
149733
149815
149729
149601
149259
149394
149741
149820
149743
149621
149284
149419
149749
149822
149803
149672
149354
149082
149655
149644
149818
149629
149380
149181
149572
149694
149792
149707
149326
149186
149568
149696
149794
149713
149332
149196
149568
149703
149794
149709
149336
149227
149584
149714
149798
149721
149376
149299
149642
149782
149629
149574
149064
149318
149638
149780
149669
149541
149140
149288
149682
149771
149671
149540
149149
149299
149689
149773
149678
149540
149159
149302
149687
149773
149688
149554
149183
149333
149695
149775
149754
149603
149251
148942
149606
149578
149778
149541
149306
149065
149496
149631
149740
149643
149226
149085
149500
149640
149742
149651
149229
149089
149497
149645
149742
149648
149230
149105
149502
149649
149746
149654
149251
149126
149516
149657
149750
149663
149290
149211
149590
149721
149590
149385
149055
149179
149633
149703
149614
149454
149050
149194
149628
149716
149616
149463
149053
149199
149623
149718
149621
149470
149067
149208
149623
149719
149630
149486
149086
149243
149637
149727
149696
149552
149165
148923
149448
149541
149693
149539
149159
148965
149421
149570
149689
149591
149141
148977
149425
149582
149686
149589
149138
148998
149430
149586
149687
149590
149149
149014
149442
149594
149688
149592
149175
149083
149509
149655
149520
149289
148942
149050
149553
149635
149540
149360
148913
149071
149552
149654
149544
149373
148921
149094
149556
149658
149551
149386
148937
149102
149556
149658
149563
149404
148961
149140
149570
149667
149639
149479
149047
148800
149331
149467
149625
149468
149047
148821
149329
149493
149614
149494
149003
148835
149324
149497
149612
149500
149009
148856
149331
149503
149619
149510
149030
148870
149345
149514
149624
149523
149066
148982
149438
149596
149418
149243
148726
148961
149447
149581
149463
149280
148765
148965
149473
149591
149473
149294
148787
148989
149483
149591
149467
149288
148785
148974
149466
149578
149548
149364
148878
148546
149265
149344
149545
149350
148889
148647
149219
149397
149538
149409
148860
148665
149220
149409
149541
149420
148881
148697
149234
149422
149549
149436
148929
148798
149336
149520
149345
149012
148640
148755
149392
149472
149375
149153
148600
148792
149381
149492
149337
149131
148575
148784
149355
149479
149362
149165
148604
148820
149371
149497
149472
149247
148694
148319
149165
149229
149462
149226
148743
148445
149087
149285
149448
149311
148706
148492
149099
149310
149456
149322
148722
148513
149115
149324
149463
149341
148768
148648
149232
149442
149202
149045
148309
148581
149195
149392
149215
148993
148316
148599
149246
149390
149247
149022
148381
148619
149259
149401
149265
149041
148409
148660
149272
149409
149375
149156
148537
148191
148924
149133
149351
149153
148548
148269
148964
149193
149361
149205
148548
148301
148987
149213
149366
149228
148590
148500
149132
149348
149033
148872
147971
148390
149044
149270
149096
148847
148111
148408
149120
149288
149131
148875
148164
148438
149142
149299
149149
148902
148203
148485
149159
149313
149271
149045
148355
148053
148707
149021
149225
149079
148329
148090
148803
149083
149254
149116
148369
148124
148844
149103
149254
149133
148475
148206
148925
149167
148907
148608
147874
148195
148964
149141
148986
148711
147933
148225
149008
149181
149022
148753
147973
148281
149036
149202
149155
148901
148130
147786
148557
148878
149111
148918
148132
147839
148660
148955
149151
148982
148200
148041
148856
149119
148813
148479
147662
147969
148823
149018
148781
148454
147579
147905
148793
149004
148833
148523
147646
147998
148850
149043
148998
148698
147838
147418
148354
148689
148966
148732
147852
147506
148459
148784
149010
148817
147934
147726
148663
148961
148618
148247
147300
147755
148673
148904
148751
148417
147431
147778
148706
148907
148780
148441
147447
147021
148022
148447
148763
148525
147502
147152
148197
148572
148829
148608
147618
147419
148440
148787
148403
148029
146903
147425
148448
148739
148527
148153
147034
147536
148564
148793
148743
148392
147294
146806
147908
148349
148659
148389
147475
146743
147929
148322
148596
148321
147216
146988
148149
148515
148176
147638
146582
147051
148271
148525
148312
147864
146687
147206
148360
148600
148555
148153
146990
146414
147658
148114
148477
148174
147042
146598
147861
148280
148531
148335
147277
146984
148148
148497
147914
147381
146111
146724
147956
148276
148203
147780
146464
146026
147259
147859
148235
147962
146570
146143
147494
147999
148332
148073
146766
146531
147860
148296
147820
147281
145903
146627
147907
148203
148259
147854
146431
145700
147043
147705
147953
147531
146020
145677
147281
147824
147383
146686
145159
145916
147490
147875
147606
147022
145418
146204
147683
148018
147999
147496
145956
145282
146828
147461
147877
147555
146140
145975
147529
147971
147311
146599
145053
145408
147089
147565
147415
146805
145036
144474
146268
146976
147523
147102
145429
145139
146927
147517
147014
146271
144460
145454
147133
147520
147587
147012
145194
144501
146324
147008
147245
146788
145032
144280
146352
147026
146768
145976
143812
143052
145432
146261
146967
146446
144386
144016
146312
146997
146466
145467
143323
144631
146586
146975
147258
146733
144659
142970
145533
146459
145567
144491
141854
143348
145715
146346
146351
145571
142951
142576
145240
146253
145584
144720
141524
143658
145829
146375
146561
145879
143167
141264
144433
145606
144650
143470
140120
142307
145001
145721
145786
144936
141839
141605
144821
145877
145855
145005
141306
138797
142047
144204
144996
143787
140300
139964
143649
144962
144925
143538
139451
139386
143810
145166
144776
142942
137729
136391
141889
143938
142905
140277
135543
139355
143287
144436
144441
142989
138587
137385
142334
144106
143713
141900
136609
136192
141705
143492
143345
141255
135318
134890
141010
143246
143233
140857
134616
134339
140672
143209
143145
140450
134058
133805
140217
143056
142958
139987
133585
133399
139763
142853
142742
139547
133239
133101
139340
142627
142510
139143
132987
132892
138956
142390
142271
138780
132816
132757
138615
142149
142027
138461
132711
132678
138317
141903
141781
138184
132655
132639
138060
141659
141539
137945
132632
132632
137839
141419
141301
137742
132640
132653
137652
141185
141072
137571
132672
132695
137497
140960
140853
137431
132723
132753
137371
140747
140645
137317
132787
132823
137269
140546
140451
137226
132861
132901
137188
140358
140270
137154
132943
132984
137123
140184
140104
137096
133027
133070
137072
140025
139951
137051
133114
133157
137033
139880
139813
137017
133200
133243
137003
139749
139690
136991
133285
133327
136981
139633
139580
136973
133368
133408
136965
139529
139482
136959
133448
133486
136954
139437
139396
136950
133525
133561
136947
139357
139321
136945
133598
133632
136943
139287
139257
136943
133666
133698
136942
139227
139201
136943
133730
133759
136944
139175
139153
136947
133788
133816
136949
139131
139112
136952
133843
133868
136954
139093
139077
136958
133892
133915
136962
139062
139048
136966
133938
133959
136970
139034
139023
136975
133980
133999
136979
139011
139002
136984
134018
134035
136988
138992
138984
136994
134052
134068
136998
138975
138969
137004
134084
134099
137008
138961
138955
137014
134113
134127
137018
138949
138944
137023
134140
134152
137027
138939
138935
137032
134164
134175
137037
138930
138927
137041
134187
134196
137045
138922
138919
137050
134207
134216
137054
138916
138913
137058
134225
134234
137062
138910
138908
137066
134242
134250
137069
138905
138903
137073
134258
134264
137077
138901
138899
137080
134272
134278
137084
138897
138897
137088
134285
134291
137091
138895
138894
137094
134297
134302
137097
138892
138893
137101
134308
134313
137104
138891
138891
137108
134319
134323
137111
138890
138890
137114
134329
134333
137117
138889
138890
137121
134338
134342
137123
138889
138890
137127
134347
134351
137130
138889
138890
137133
134356
134360
137136
138890
138891
137140
134365
134369
137143
138891
138892
137146
134373
134377
137149
138892
138894
137153
134381
134385
137156
138894
138896
137160
134389
134393
137163
138896
138898
137167
134398
134401
137170
138898
138901
137174
134406
134409
137177
138901
138904
137181
134414
134417
137184
138904
138907
137188
134422
134425
137191
138908
138911
137195
134430
134433
137199
138912
138915
137203
134437
134441
137206
138916
138920
137210
134445
134449
137214
138921
138924
137218
134453
134457
137221
138925
138929
137226
134461
134465
137229
138931
138935
137234
134469
134472
137237
138936
138940
137241
134476
134480
137245
138942
138946
137249
134484
134487
137253
138947
138952
137257
134491
134495
137261
138954
138958
137266
134499
134503
137270
138960
138965
137274
134506
134510
137278
138967
138971
137282
134514
134517
137286
138973
138978
137291
134521
134525
137295
138980
138985
137299
134528
134532
137303
138987
138992
137307
134536
134539
137311
138995
139000
137316
134543
134546
137320
139002
139007
137324
134550
134553
137328
139009
139015
137333
134556
134560
137337
139017
139022
137341
134563
134566
137345
139025
139030
137349
134570
134573
137353
139032
139038
137358
134576
134579
137362
139040
139045
137366
134583
134586
137370
139048
139053
137374
134589
134592
137378
139056
139061
137383
134595
134598
137386
139064
139069
137391
134601
134604
137395
139071
139077
137399
134607
134610
137403
139079
139085
137407
134613
134615
137411
139087
139093
137415
134618
134621
137419
139095
139101
137423
134624
134626
137427
139103
139109
137431
134629
134632
137434
139111
139116
137438
134634
134637
137442
139119
139124
137446
134639
134641
137450
139127
139132
137454
134644
134646
137457
139134
139140
137461
134648
134650
137464
139142
139147
137468
134652
134654
137471
139149
139155
137475
134656
134658
137478
139157
139162
137482
134660
134662
137485
139164
139170
137489
134664
134665
137492
139171
139178
137495
134667
134669
137498
139179
139186
137503
134673
134676
137507
139189
139192
137511
134679
134680
137509
139189
139177
137498
134678
134670
137482
139159
139204
137503
134685
134760
137599
139355
139448
137673
134818
142056
144691
146369
146740
146890
147546
147883
148029
148174
148587
148855
149138
149349
149505
149620
149703
149763
149805
149836
149859
149877
149890
149901
149909
149916
149922
149926
149929
149931
149933
149934
149936
149936
149932
149934
149941
149946
149954
149962
149972
149983
149994
150005
150015
150021
150023
150022
150020
150017
150015
150013
150012
150010
150008
150007
150005
150003
150000
149998
149996
149994
149992
149990
149989
149988
149987
149986
149985
149986
149986
149987
149989
149991
149993
149997
150000
150005
150010
150015
150021
150027
150033
150040
150046
150052
150058
150063
150068
150072
150075
150078
150080
150081
150082
150081
150080
150079
150077
150074
150071
150068
150064
150061
150057
150053
150048
150044
150040
150036
150032
150028
150024
150020
150016
150013
150009
150006
150003
150000
149997
149994
149991
149989
149986
149984
149982
149980
149978
149977
149975
149974
149972
149971
149970
149969
149968
149967
149966
149965
149965
149964
149964
149963
149963
149963
149962
149962
149962
149962
149962
149962
149962
149962
149962
149962
149962
149962
149963
149963
149963
149963
149964
149964
149965
149965
149966
149966
149966
149967
149968
149968
149969
149969
149970
149971
149971
149972
149973
149973
149974
149975
149976
149976
149977
149978
149979
149980
149980
149981
149982
149983
149984
149985
149986
149987
149988
149989
149990
149991
149993
149994
149996
150000
150007
150013
150015
150015
150017
150004
150012
150012
150020
150026
150029
150029
150027
150026
150024
150022
150021
150020
150019
150018
150017
150016
150016
150015
150015
150014
150014
150013
150013
150012
150012
150012
150011
150011
150011
150011
150010
150010
150010
150010
150009
150009
150009
150009
150008
150008
150008
150008
150008
150007
150007
150007
150007
150006
150006
150006
150006
150006
150005
150005
150005
150005
150005
150004
150004
150004
150004
150003
150003
150003
150003
150002
150002
150002
150001
150001
150000
150000
149999
149999
149998
149997
149995
149994
149994
149995
149997
149999
150000
150004
150009
150019
150024
150024
150021
150019
150016
150013
150010
150008
150005
150003
150000
149998
149995
149993
149990
149988
149985
149983
149980
149979
149976
149975
149971
149971
149967
149967
149963
149963
149959
149959
149956
149955
149952
149952
149949
149949
149945
149945
149942
149942
149939
149939
149936
149936
149933
149934
149930
149931
149928
149928
149925
149926
149922
149923
149920
149921
149918
149918
149915
149916
149913
149913
149911
149911
149908
149909
149906
149907
149904
149905
149902
149903
149900
149901
149899
149899
149897
149898
149895
149896
149894
149895
149893
149894
149892
149893
149891
149893
149891
149893
149891
149893
149891
149894
149892
149895
149893
149896
149895
149898
149897
149900
149899
149902
149901
149905
149903
149907
149906
149910
149909
149912
149911
149915
149914
149917
149916
149919
149918
149921
149920
149923
149922
149925
149923
149926
149924
149927
149925
149927
149925
149927
149926
149927
149926
149927
149925
149927
149925
149926
149924
149926
149924
149925
149923
149924
149922
149923
149921
149922
149921
149922
149919
149920
149918
149919
149917
149917
149916
149917
149914
149915
149914
149914
149912
149913
149911
149912
149910
149912
149909
149914
149922
149929
149957
149955
149953
149965
149949
149952
149965
149949
149952
149966
149949
149953
149967
149950
149954
149968
149951
149955
149969
149952
149956
149970
149953
149957
149971
149954
149958
149971
149955
149959
149972
149956
149960
149973
149957
149960
149974
149957
149961
149975
149958
149962
149975
149959
149962
149976
149959
149963
149977
149960
149963
149977
149960
149964
149977
149960
149964
149978
149960
149964
149978
149960
149964
149978
149960
149964
149978
149960
149964
149978
149959
149963
149977
149958
149962
149976
149957
149961
149976
149956
149960
149974
149954
149958
149973
149952
149956
149972
149950
149954
149970
149948
149952
149968
149947
149951
149967
149945
149949
149966
149943
149947
149965
149941
149945
149964
149940
149944
149964
149939
149943
149962
149938
149942
149962
149938
149942
149963
149938
149943
149964
149938
149943
149964
149939
149944
149965
149939
149945
149966
149940
149946
149967
149941
149947
149969
149942
149948
149970
149944
149950
149971
149945
149951
149972
149946
149953
149974
149948
149954
149975
149949
149955
149976
149951
149957
149977
149952
149958
149979
149954
149960
149980
149955
149961
149981
149957
149963
149982
149958
149964
149983
149960
149965
149985
149961
149967
149986
149963
149968
149987
149965
149970
149988
149966
149972
149989
149968
149973
149990
149970
149975
149992
149971
149976
149993
149973
149978
149994
149975
149980
149995
149977
149981
149997
149979
149983
149998
149981
149985
149999
149983
149987
150000
149985
149989
150002
149987
149991
150003
149989
149993
150004
149991
149995
150006
149994
149997
150007
149996
150000
150008
149999
150002
150010
150002
150004
150011
150004
150007
150013
150007
150010
150014
150010
150013
150016
150013
150015
150017
150017
150018
150019
150020
150022
150020
150023
150013
150015
150015
150015
150015
150014
150014
150013
150013
150013
150012
150012
150012
150011
150011
150011
150010
150010
150010
150009
150009
150009
150008
150008
150008
150007
150007
150006
150006
150005
150005
150004
150004
150003
150002
150001
150001
150000
149999
149997
149996
149995
149994
149993
149992
149991
149991
149990
149992
149994
149996
149997
150000
150002
150005
150007
150009
150011
150012
150012
150012
150011
150011
150010
150008
150007
150006
150005
150004
150003
150001
150000
149999
149998
149997
149996
149995
149994
149993
149992
149991
149990
149989
149988
149988
149986
149969
149966
149966
149970
149985
149989
149989
149995
149995
149997
149997
149997
149998
149999
150000
150001
150002
150003
150004
150005
150006
150007
150008
150009
150010
150011
150015
150014
150013
150011
150010
150009
150008
150007
150006
150005
150004
150003
150002
150001
150001
150000
149999
149999
150000
149999
149999
149997
149998
150000
150000
150001
149994
149993
149993
149993
149993
149990
149990
149975
149977
149972
149972
149972
149973
149974
149976
149996