/*--------------------------------*- C++ -*----------------------------------*\
| =========                 |                                                 |
| \\      /  F ield         | OpenFOAM: The Open Source CFD Toolbox           |
|  \\    /   O peration     | Version:  v2006                                 |
|   \\  /    A nd           | Website:  www.openfoam.com                      |
|    \\/     M anipulation  |                                                 |
\*---------------------------------------------------------------------------*/
FoamFile
{
    version     2.0;
    format      ascii;
    class       surfaceScalarField;
    location    "0.152";
    object      phi;
}
// * * * * * * * * * * * * * * * * * * * * * * * * * * * * * * * * * * * * * //

dimensions      [1 0 -1 0 0 0 0];
oriented        oriented;


internalField   nonuniform List<scalar> 
32242
(
-2.60851e-05
-0.00135439
0.00133514
4.55155e-05
-0.00127014
0.00124392
8.3456e-06
7.76065e-05
-3.5057e-06
0.00146286
3.80123e-05
0.00159992
-3.29168e-05
0.00165137
-3.67425e-06
0.00169139
-1.63778e-05
0.00168406
-2.33195e-06
0.00168002
-2.43211e-06
0.00166947
-4.48721e-07
0.00166257
-1.01642e-06
0.00165676
-1.15388e-06
0.00165309
-1.27965e-06
0.00164974
-1.48001e-06
0.00164692
-1.51049e-06
0.00164385
-1.61896e-06
0.00164092
-1.72345e-06
0.00163778
-1.82393e-06
0.0016345
-1.92043e-06
0.00163109
-2.01314e-06
0.00162755
-2.1024e-06
0.00162388
-2.1886e-06
0.00162008
-2.2721e-06
0.00161616
-2.35319e-06
0.00161211
-2.43208e-06
0.00160794
-2.50888e-06
0.00160365
-2.58363e-06
0.00159924
-2.65629e-06
0.00159472
-2.72681e-06
0.00159008
-2.79509e-06
0.00158533
-2.86103e-06
0.00158047
-2.92451e-06
0.00157551
-2.98538e-06
0.00157045
-3.04352e-06
0.0015653
-3.09878e-06
0.00156005
-3.15102e-06
0.00155473
-3.20009e-06
0.00154932
-3.24589e-06
0.00154383
-3.28828e-06
0.00153827
-3.32713e-06
0.00153265
-3.36235e-06
0.00152697
-3.39381e-06
0.00152124
-3.42142e-06
0.00151546
-3.44506e-06
0.00150964
-3.46465e-06
0.00150378
-3.48012e-06
0.00149789
-3.49136e-06
0.00149199
-3.49829e-06
0.00148606
-3.50086e-06
0.00148013
-3.49899e-06
0.00147419
-3.49265e-06
0.00146826
-3.48188e-06
0.00146234
-3.46645e-06
0.00145643
-3.44501e-06
0.00145056
-3.41992e-06
0.00144471
-3.39038e-06
0.00143891
-3.35605e-06
0.00143315
-3.31695e-06
0.00142744
-3.27308e-06
0.0014218
-3.22449e-06
0.00141623
-3.17117e-06
0.00141073
-3.11316e-06
0.00140531
-3.05047e-06
0.00139999
-2.98313e-06
0.00139476
-2.91114e-06
0.00138964
-2.83443e-06
0.00138463
-2.75289e-06
0.00137973
-2.66631e-06
0.00137496
-2.57438e-06
0.00137032
-2.47676e-06
0.00136581
-2.3731e-06
0.00136144
-2.2632e-06
0.00135723
-2.14694e-06
0.00135317
-2.02406e-06
0.00134927
-1.89332e-06
0.00134553
-1.75126e-06
0.00134191
-9.2199e-07
0.00133773
-1.39995e-06
0.00133426
-1.16981e-06
0.00132817
-2.89545e-06
0.00131956
-4.61656e-06
0.00130743
-1.96296e-05
0.00128696
-3.00955e-05
0.00126105
-8.36237e-05
0.00122474
-0.000143177
0.00120263
-0.000328504
0.00121428
-0.000736199
0.00140183
-0.000202564
0.000361198
2.04326e-05
0.000599543
4.44666e-06
0.00078641
-3.85987e-05
0.00069604
-1.24938e-05
0.000609997
-7.50926e-06
0.00022054
-4.58126e-06
0.000183626
0.000148436
8.52642e-06
0.000139909
1.73475e-05
0.000174804
0.000210944
2.6943e-05
-1.36292e-05
0.000203717
2.08568e-05
-6.80521e-06
0.00016798
0.000133104
2.50445e-06
0.0001306
4.12782e-06
0.000166357
0.000202481
5.36313e-06
-4.6516e-06
0.000200396
6.73667e-06
-2.87151e-06
0.000164577
0.000127728
1.54676e-06
0.000126181
2.02868e-06
0.000164095
0.000200281
2.14364e-06
-4.45899e-06
0.000198718
6.02267e-06
-2.60027e-06
0.000162236
0.000123581
1.2691e-06
0.000122312
1.14652e-06
0.000162359
0.000198483
1.38155e-06
-3.62735e-06
0.000197499
4.6106e-06
-1.77609e-06
0.000160508
0.000120536
4.71938e-07
0.000120064
3.54584e-07
0.000160625
0.00019786
-6.26804e-09
-2.83713e-06
0.000196161
4.53632e-06
-1.60636e-06
0.000159394
0.000118458
3.42441e-07
0.000118115
2.39667e-07
0.000159497
0.000196461
-6.07396e-08
-2.71692e-06
0.000195374
3.80384e-06
-1.48144e-06
0.000158261
0.000116634
2.51161e-07
0.000116382
1.47973e-07
0.000158365
0.000195641
-1.18494e-07
-2.62297e-06
0.000194523
3.74036e-06
-1.38807e-06
0.00015713
0.000114994
1.83385e-07
0.000114811
8.2701e-08
0.00015723
0.00019476
-1.53478e-07
-2.54962e-06
0.000193618
3.6907e-06
-1.31737e-06
0.000155998
0.000113494
1.32265e-07
0.000113361
2.73435e-08
0.000156103
0.000193833
-1.87658e-07
-2.48675e-06
0.000192677
3.64342e-06
-1.26184e-06
0.000154878
0.000112099
9.25796e-08
0.000112007
-1.27277e-08
0.000154983
0.000192873
-2.09149e-07
-2.43705e-06
0.000191704
3.60577e-06
-1.22107e-06
0.000153767
0.000110786
6.1112e-08
0.000110725
-4.21908e-08
0.000153871
0.000191884
-2.2215e-07
-2.39753e-06
0.000190702
3.57963e-06
-1.1874e-06
0.00015266
0.000109537
3.88244e-08
0.000109498
-6.16187e-08
0.000152761
0.000190868
-2.27489e-07
-2.36733e-06
0.000189674
3.56131e-06
-1.16011e-06
0.000151554
0.000108338
2.2869e-08
0.000108315
-7.47046e-08
0.000151651
0.000189826
-2.26388e-07
-2.34309e-06
0.00018862
3.54831e-06
-1.13781e-06
0.000150446
0.000107177
1.16459e-08
0.000107166
-8.11604e-08
0.000150539
0.000188757
-2.18041e-07
-2.32499e-06
0.00018754
3.5419e-06
-1.11994e-06
0.000149333
0.000106046
4.40468e-09
0.000106041
-8.17286e-08
0.00014942
0.000187661
-2.02875e-07
-2.31217e-06
0.000186432
3.54141e-06
-1.10575e-06
0.000148213
0.000104936
4.86949e-10
0.000104935
-7.71919e-08
0.000148291
0.000186536
-1.81566e-07
-2.30385e-06
0.000185294
3.5462e-06
-1.09461e-06
0.000147081
0.00010384
-1.13499e-09
0.000103842
-6.88757e-08
0.000147149
0.000185381
-1.55873e-07
-2.29902e-06
0.000184125
3.55502e-06
-1.08598e-06
0.000145936
0.000102756
-4.17819e-10
0.000102756
-5.69857e-08
0.000145993
0.000184194
-1.25701e-07
-2.29728e-06
0.000182923
3.56775e-06
-1.07929e-06
0.000144775
0.000101677
2.11023e-09
0.000101675
-4.17432e-08
0.000144819
0.000182973
-9.10604e-08
-2.29852e-06
0.000181687
3.58441e-06
-1.0744e-06
0.000143594
0.0001006
6.36671e-09
0.000100594
-2.32614e-08
0.000143624
0.000181715
-5.19317e-08
-2.30263e-06
0.000180413
3.60514e-06
-1.07119e-06
0.000142393
9.95226e-05
1.19768e-08
9.95107e-05
-2.37702e-09
0.000142407
0.00018042
-9.65179e-09
-2.30853e-06
0.000179101
3.62805e-06
-1.06923e-06
0.000141168
9.84414e-05
1.98749e-08
9.84216e-05
2.26182e-08
0.000141165
0.000179084
3.93416e-08
-2.31634e-06
0.000177747
3.65303e-06
-1.06834e-06
0.000139917
9.73533e-05
2.92345e-08
9.7324e-05
5.0449e-08
0.000139896
0.000177705
9.25338e-08
-2.32666e-06
0.00017635
3.6816e-06
-1.06878e-06
0.000138638
9.62553e-05
4.0013e-08
9.62153e-05
8.11035e-08
0.000138597
0.000176282
1.49857e-07
-2.33943e-06
0.000174907
3.71372e-06
-1.0705e-06
0.000137328
9.51449e-05
5.22448e-08
9.50927e-05
1.1465e-07
0.000137266
0.000174811
2.11514e-07
-2.35453e-06
0.000173416
3.74922e-06
-1.07345e-06
0.000135985
9.40193e-05
6.58949e-08
9.39535e-05
1.51035e-07
0.0001359
0.00017329
2.7749e-07
-2.37183e-06
0.000171874
3.78795e-06
-1.07754e-06
0.000134605
9.2876e-05
8.08992e-08
9.27951e-05
1.90155e-07
0.000134496
0.000171716
3.47682e-07
-2.39117e-06
0.000170278
3.82968e-06
-1.08267e-06
0.000133188
9.17124e-05
9.71697e-08
9.16153e-05
2.31856e-07
0.000133053
0.000170088
4.2189e-07
-2.41234e-06
0.000168626
3.8741e-06
-1.08874e-06
0.00013173
9.05265e-05
1.14593e-07
9.04119e-05
2.7593e-07
0.000131568
0.000168402
4.99821e-07
-2.43507e-06
0.000166916
3.92086e-06
-1.0956e-06
0.000130229
8.93163e-05
1.33041e-07
8.91832e-05
3.22135e-07
0.00013004
0.000166657
5.81032e-07
-2.45891e-06
0.000165147
3.9693e-06
-1.10303e-06
0.000128684
8.80802e-05
1.52269e-07
8.79279e-05
3.69988e-07
0.000128466
0.000164852
6.64844e-07
-2.48338e-06
0.000163316
4.0187e-06
-1.11079e-06
0.000127093
8.68171e-05
1.7199e-07
8.66451e-05
4.18889e-07
0.000126846
0.000162985
7.5033e-07
-2.50765e-06
0.000161425
4.06783e-06
-1.11848e-06
0.000125457
8.55267e-05
1.91717e-07
8.5335e-05
4.67865e-07
0.000125181
0.000161057
8.36033e-07
-2.53065e-06
0.000159473
4.11504e-06
-1.12553e-06
0.000123776
8.42096e-05
2.10806e-07
8.39988e-05
5.1564e-07
0.000123471
0.000159068
9.19965e-07
-2.55112e-06
0.000157461
4.15831e-06
-1.13144e-06
0.000122052
8.28674e-05
2.28771e-07
8.26387e-05
5.60932e-07
0.00012172
0.000157022
9.99974e-07
-2.56775e-06
0.000155394
4.19546e-06
-1.13562e-06
0.000120288
8.15031e-05
2.4487e-07
8.12582e-05
6.02182e-07
0.00011993
0.000154923
1.07358e-06
-2.57889e-06
0.000153278
4.22386e-06
-1.1373e-06
0.000118489
8.01209e-05
2.58193e-07
7.98627e-05
6.37429e-07
0.000118109
0.000152778
1.13764e-06
-2.58243e-06
0.00015112
4.24017e-06
-1.13552e-06
0.000116662
7.87271e-05
2.67597e-07
7.84594e-05
6.64183e-07
0.000116266
0.000150596
1.18818e-06
-2.57579e-06
0.000148931
4.24018e-06
-1.1291e-06
0.000114819
7.73302e-05
2.71668e-07
7.70585e-05
6.79337e-07
0.000114411
0.00014839
1.2202e-06
-2.55574e-06
0.000146727
4.21875e-06
-1.11661e-06
0.000112972
7.59418e-05
2.68709e-07
7.56731e-05
6.79121e-07
0.000112561
0.000146178
1.22768e-06
-2.51855e-06
0.000144527
4.16983e-06
-1.09638e-06
0.000111139
7.45767e-05
2.56752e-07
7.43199e-05
6.59241e-07
0.000110737
0.000143983
1.20362e-06
-2.46006e-06
0.000142356
4.08657e-06
-1.0665e-06
0.000109343
7.32534e-05
2.33589e-07
7.30198e-05
6.14848e-07
0.000108962
0.000141831
1.14004e-06
-2.37545e-06
0.000140245
3.96105e-06
-1.02487e-06
0.000107611
7.19949e-05
1.96667e-07
7.17982e-05
5.40227e-07
0.000107268
0.000139758
1.02766e-06
-2.25934e-06
0.000138233
3.78444e-06
-9.69151e-07
0.000105977
7.0829e-05
1.43166e-07
7.06858e-05
4.2913e-07
0.000105691
0.000137806
8.56123e-07
-2.10648e-06
0.000136364
3.54807e-06
-8.97112e-07
0.000104482
6.97886e-05
7.09064e-08
6.97177e-05
2.76552e-07
0.000104276
0.000136023
6.17163e-07
-1.91244e-06
0.00013469
3.24553e-06
-8.05092e-07
0.000103169
6.89127e-05
-2.44847e-08
6.89372e-05
7.5581e-08
0.000103069
0.000134466
2.99476e-07
-1.66778e-06
0.000133269
2.86589e-06
-6.86916e-07
0.000102088
6.82504e-05
-1.47818e-07
6.83984e-05
-1.81759e-07
0.000102122
0.00013319
-1.03479e-07
-1.37935e-06
0.000132167
2.40339e-06
-5.53329e-07
0.000101296
6.78452e-05
-2.84711e-07
6.813e-05
-4.79204e-07
0.000101491
0.000132264
-5.76487e-07
-1.05637e-06
0.000131439
1.88186e-06
-4.06253e-07
0.000100841
6.77239e-05
-4.35636e-07
6.81595e-05
-8.11358e-07
0.000101217
0.000131738
-1.11112e-06
-7.16708e-07
0.000131124
1.33093e-06
-2.53558e-07
0.000100754
6.79058e-05
-5.91267e-07
6.84966e-05
-1.15921e-06
0.000101321
0.000131642
-1.67669e-06
-3.73682e-07
0.000131249
7.6803e-07
-1.01248e-07
0.000101049
6.8395e-05
-7.34786e-07
6.91295e-05
-1.48582e-06
0.0001018
0.000131979
-2.21663e-06
-4.10803e-08
0.000131798
2.22623e-07
5.0353e-08
0.000101708
6.91797e-05
-8.9613e-07
7.00758e-05
-1.8491e-06
0.000102661
0.000132765
-2.81627e-06
3.00473e-07
0.000132807
-3.42669e-07
2.00252e-07
0.000102761
7.0276e-05
-1.05468e-06
7.13307e-05
-2.20193e-06
0.000103909
0.000134009
-3.40402e-06
5.40559e-07
0.000134236
-7.67329e-07
2.8967e-07
0.000104159
7.16204e-05
-1.14249e-06
7.27629e-05
-2.42834e-06
0.000105445
0.000135613
-3.80565e-06
6.93275e-07
0.000135972
-1.05208e-06
3.41814e-07
0.000105797
7.31048e-05
-1.18843e-06
7.42933e-05
-2.56622e-06
0.000107175
0.000137471
-4.06562e-06
7.67228e-07
0.000137917
-1.21395e-06
3.57392e-07
0.000107585
7.4651e-05
-1.20746e-06
7.58588e-05
-2.64352e-06
0.000109021
0.000139502
-4.22887e-06
7.8645e-07
0.000140002
-1.28687e-06
3.49243e-07
0.000109458
7.62085e-05
-1.20363e-06
7.74127e-05
-2.6681e-06
0.000110923
0.000141639
-4.30522e-06
7.55699e-07
0.000142158
-1.27602e-06
3.20011e-07
0.000111358
7.77332e-05
-1.17835e-06
7.8912e-05
-2.64306e-06
0.000112823
0.000143813
-4.29812e-06
6.80547e-07
0.000144322
-1.18969e-06
2.71954e-07
0.000113232
7.91844e-05
-1.13507e-06
8.03197e-05
-2.57505e-06
0.000114672
0.000145964
-4.21755e-06
5.68766e-07
0.000146435
-1.03977e-06
2.0921e-07
0.000115032
8.05292e-05
-1.07769e-06
8.1607e-05
-2.47213e-06
0.000116426
0.000148039
-4.07627e-06
4.28781e-07
0.00014845
-8.39366e-07
1.35638e-07
0.00011672
8.17427e-05
-1.00971e-06
8.27525e-05
-2.34204e-06
0.000118052
0.000149994
-3.88626e-06
2.68542e-07
0.000150327
-6.01164e-07
5.53449e-08
0.000118265
8.28079e-05
-9.36779e-07
8.37447e-05
-2.19278e-06
0.000119521
0.000151795
-3.66019e-06
9.64489e-08
0.000152036
-3.37679e-07
-2.68542e-08
0.000119645
8.37179e-05
-8.64302e-07
8.45822e-05
-2.03436e-06
0.000120815
0.000153413
-3.41146e-06
-7.9504e-08
0.000153553
-6.08457e-08
-1.08079e-07
0.000120843
8.44741e-05
-7.89507e-07
8.52636e-05
-1.87267e-06
0.000121926
0.000154834
-3.15395e-06
-2.49408e-07
0.000154874
2.09219e-07
-1.86045e-07
0.000121863
8.50772e-05
-7.18349e-07
8.57944e-05
-1.71516e-06
0.000122859
0.000156057
-2.89728e-06
-4.09832e-07
0.000155998
4.70651e-07
-2.57543e-07
0.000122706
8.55353e-05
-6.51596e-07
8.61862e-05
-1.56574e-06
0.00012362
0.000157086
-2.65311e-06
-5.6396e-07
0.000156932
7.10288e-07
-3.27819e-07
0.000123384
8.58626e-05
-5.80278e-07
8.64555e-05
-1.4178e-06
0.000124223
0.000157929
-2.43414e-06
-7.037e-07
0.00015769
9.1231e-07
-3.93486e-07
0.000123912
8.60782e-05
-5.30373e-07
8.66225e-05
-1.30239e-06
0.000124684
0.000158607
-2.24289e-06
-7.91921e-07
0.000158294
1.10442e-06
-4.19865e-07
0.000124312
8.62018e-05
-5.22173e-07
8.67056e-05
-1.23988e-06
0.000125027
0.000159143
-2.06107e-06
-8.55561e-07
0.000158768
1.27544e-06
-4.28574e-07
0.000124601
8.6252e-05
-5.04967e-07
8.67266e-05
-1.17748e-06
0.00012527
0.000159557
-1.91593e-06
-9.17311e-07
0.000159128
1.39404e-06
-4.48848e-07
0.000124801
8.62483e-05
-4.84399e-07
8.67012e-05
-1.12119e-06
0.000125432
0.000159869
-1.81403e-06
-9.64212e-07
0.000159397
1.48706e-06
-4.63034e-07
0.000124928
8.62045e-05
-4.7358e-07
8.66399e-05
-1.07982e-06
0.000125528
0.000160096
-1.71906e-06
-1.00563e-06
0.00015959
1.57554e-06
-4.73913e-07
0.000124998
8.61318e-05
-4.46603e-07
8.65561e-05
-1.02442e-06
0.000125574
0.000160261
-1.65425e-06
-1.06499e-06
0.000159721
1.60508e-06
-5.14919e-07
0.000125023
8.60387e-05
-3.97457e-07
8.64561e-05
-9.53685e-07
0.000125579
0.000160371
-1.63957e-06
-1.12293e-06
0.000159808
1.62312e-06
-5.57988e-07
0.000125015
8.59313e-05
-3.75173e-07
8.63405e-05
-9.22035e-07
0.000125562
0.000160433
-1.60131e-06
-1.14225e-06
0.000159861
1.66445e-06
-5.57245e-07
0.000124983
8.58155e-05
-3.74468e-07
8.62223e-05
-9.09418e-07
0.000125521
0.000160475
-1.5678e-06
-1.15148e-06
0.000159887
1.69074e-06
-5.57484e-07
0.000124932
8.56966e-05
-3.70879e-07
8.61016e-05
-8.99694e-07
0.000125463
0.000160486
-1.55259e-06
-1.15971e-06
0.000159891
1.69241e-06
-5.61911e-07
0.000124868
8.55759e-05
-3.64162e-07
8.59832e-05
-8.88162e-07
0.000125398
0.000160487
-1.54286e-06
-1.15108e-06
0.000159879
1.7055e-06
-5.51983e-07
0.000124798
8.5457e-05
-3.98568e-07
8.58583e-05
-9.25756e-07
0.000125319
0.000160466
-1.53006e-06
-1.11291e-06
0.000159861
1.75e-06
-5.06278e-07
0.000124719
8.53412e-05
-4.3994e-07
8.57454e-05
-9.63183e-07
0.000125239
0.000160449
-1.48758e-06
-1.08121e-06
0.000159826
1.76213e-06
-4.81561e-07
0.000124635
8.52236e-05
-4.44818e-07
8.56298e-05
-9.67489e-07
0.000125153
0.000160401
-1.47864e-06
-1.08312e-06
0.000159783
1.76473e-06
-4.80741e-07
0.000124549
8.51112e-05
-4.30815e-07
8.55192e-05
-9.49828e-07
0.000125069
0.000160355
-1.47391e-06
-1.11109e-06
0.000159728
1.74631e-06
-5.07897e-07
0.000124462
8.5e-05
-3.91927e-07
8.54071e-05
-9.14625e-07
0.000124982
0.000160308
-1.5244e-06
-1.16195e-06
0.000159695
1.71514e-06
-5.50341e-07
0.000124381
8.49011e-05
-3.74734e-07
8.5309e-05
-9.02511e-07
0.000124902
0.000160271
-1.55463e-06
-1.14461e-06
0.000159665
1.6801e-06
-5.46521e-07
0.000124304
8.47998e-05
-3.92198e-07
8.52307e-05
-9.35126e-07
0.000124862
0.000160821
-2.12056e-06
-5.452e-07
0.000159724
1.62433e-06
-4.76097e-07
0.000124789
8.47593e-05
-9.41928e-07
8.56938e-05
-1.57785e-06
0.000125423
0.00016147
-3.31169e-06
1.87001e-07
0.000161552
-2.18761e-07
9.67131e-08
0.00012553
8.57851e-05
-1.68055e-06
8.7442e-05
-4.57225e-06
0.000128409
0.000164078
-7.09217e-06
6.16391e-06
0.000168378
-1.04218e-05
3.00727e-06
0.000131556
9.04092e-05
-8.74957e-06
9.90942e-05
-1.97501e-05
0.00014257
0.000181991
-3.32154e-05
4.34854e-05
0.000211563
-7.26723e-05
1.96468e-05
0.000166415
0.000118501
3.92951e-05
9.49669e-05
0.000166074
3.99586e-05
-0.000288235
-5.72903e-05
-0.000326086
-6.18133e-05
-0.000510512
-2.49768e-05
-0.00055048
-1.59413e-05
-0.000577075
-3.11933e-06
-0.000579751
-2.56334e-06
-0.000584687
-2.03499e-07
-0.000585158
-8.0401e-07
-0.000585847
9.64359e-07
-0.000585302
1.54872e-06
-0.000583076
5.07405e-06
-0.000577011
9.78004e-06
-0.000568949
2.14737e-05
-0.000554886
3.83957e-05
-0.000540861
8.52403e-05
-0.00053606
0.000189246
-0.000544787
8.52761e-05
-0.000335924
4.86799e-05
-0.000332974
2.71997e-05
-0.00032317
2.72217e-05
-0.000275546
7.96945e-06
-0.000237145
4.49902e-06
-8.35368e-05
1.83444e-06
-5.64592e-05
-3.04978e-05
-2.2707e-06
-2.82484e-05
-5.95978e-06
-5.2781e-05
-7.8406e-05
-1.10758e-05
4.06224e-06
-7.53632e-05
-7.12608e-06
1.4162e-06
-5.01394e-05
-2.68258e-05
-9.62019e-07
-2.58488e-05
-1.712e-06
-4.93864e-05
-7.3555e-05
-3.52733e-06
6.85267e-07
-7.29238e-05
-1.34238e-06
1.54465e-07
-4.88608e-05
-2.56865e-05
-4.27866e-07
-2.52537e-05
-5.48068e-07
-4.87431e-05
-7.23229e-05
-1.16322e-06
5.29185e-07
-7.27487e-05
-7.16035e-08
7.19893e-08
-4.8272e-05
-2.51787e-05
-2.80163e-09
-2.51814e-05
-2.3341e-08
-4.82604e-05
-7.27673e-05
-2.01555e-08
-2.22621e-08
-7.27876e-05
3.9847e-08
-1.08962e-08
-4.82737e-05
-2.51932e-05
2.05984e-08
-2.52037e-05
4.26373e-08
-4.82832e-05
-7.27942e-05
6.45985e-08
-5.51217e-08
-7.28397e-05
8.48112e-08
-2.638e-08
-4.83229e-05
-2.52374e-05
2.50407e-08
-2.52582e-05
5.51258e-08
-4.83489e-05
-7.28648e-05
8.36213e-08
-6.38025e-08
-7.28962e-05
1.00909e-07
-2.94532e-08
-4.83784e-05
-2.52832e-05
2.67769e-08
-2.53179e-05
5.91235e-08
-4.84205e-05
-7.29411e-05
9.24193e-08
-6.70828e-08
-7.29726e-05
1.0763e-07
-3.09811e-08
-4.84499e-05
-2.53436e-05
2.85646e-08
-2.53739e-05
6.25011e-08
-4.84882e-05
-7.3012e-05
9.49038e-08
-6.88737e-08
-7.30584e-05
1.05646e-07
-3.20871e-08
-4.85298e-05
-2.54077e-05
2.9308e-08
-2.54338e-05
6.65676e-08
-4.85592e-05
-7.30861e-05
1.08665e-07
-7.20713e-08
-7.31376e-05
1.1892e-07
-3.16101e-08
-4.86056e-05
-2.54726e-05
2.91657e-08
-2.5503e-05
6.73638e-08
-4.86431e-05
-7.31763e-05
1.09138e-07
-7.39469e-08
-7.3217e-05
1.18737e-07
-3.33297e-08
-4.86809e-05
-2.55349e-05
3.281e-08
-2.55709e-05
7.29486e-08
-4.87242e-05
-7.32618e-05
1.1399e-07
-8.11815e-08
-7.33043e-05
1.31656e-07
-3.63075e-08
-4.87638e-05
-2.56046e-05
3.49709e-08
-2.56381e-05
7.83148e-08
-4.88046e-05
-7.33472e-05
1.22384e-07
-8.28825e-08
-7.33935e-05
1.32105e-07
-3.71133e-08
-4.88473e-05
-2.56733e-05
3.65125e-08
-2.57062e-05
7.92334e-08
-4.88859e-05
-7.34337e-05
1.23861e-07
-8.51602e-08
-7.34849e-05
1.2968e-07
-4.04705e-08
-4.89321e-05
-2.57449e-05
3.47329e-08
-2.57792e-05
7.35988e-08
-4.8972e-05
-7.35249e-05
1.12175e-07
-7.34742e-08
-7.35742e-05
1.17849e-07
-3.39006e-08
-4.9017e-05
-2.5817e-05
3.15776e-08
-2.58531e-05
6.9384e-08
-4.90597e-05
-7.36182e-05
1.10805e-07
-8.09795e-08
-7.36671e-05
1.26455e-07
-3.74521e-08
-4.91045e-05
-2.58905e-05
3.35849e-08
-2.59283e-05
7.59938e-08
-4.91492e-05
-7.37136e-05
1.23403e-07
-8.3649e-08
-7.37597e-05
1.36815e-07
-3.70721e-08
-4.91922e-05
-2.59652e-05
3.78084e-08
-2.60026e-05
8.43675e-08
-4.92371e-05
-7.38071e-05
1.32999e-07
-8.82943e-08
-7.38591e-05
1.44505e-07
-3.91414e-08
-4.9285e-05
-2.60429e-05
3.92195e-08
-2.60783e-05
8.44342e-08
-4.93268e-05
-7.39035e-05
1.30161e-07
-8.71003e-08
-7.39569e-05
1.32681e-07
-4.16874e-08
-4.93753e-05
-2.61192e-05
3.92701e-08
-2.61564e-05
8.4265e-08
-4.94198e-05
-7.40035e-05
1.30016e-07
-8.99508e-08
-7.40563e-05
1.41465e-07
-4.19721e-08
-4.94672e-05
-2.61963e-05
3.89698e-08
-2.62363e-05
8.44103e-08
-4.95154e-05
-7.41078e-05
1.31379e-07
-8.6964e-08
-7.41576e-05
1.36914e-07
-4.04898e-08
-4.95607e-05
-2.62745e-05
3.87201e-08
-2.63136e-05
8.35661e-08
-4.96079e-05
-7.42082e-05
1.30185e-07
-8.64777e-08
-7.42662e-05
1.39103e-07
-3.99199e-08
-4.96592e-05
-2.63565e-05
3.72686e-08
-2.63948e-05
8.17458e-08
-4.97057e-05
-7.43162e-05
1.30201e-07
-8.55074e-08
-7.43733e-05
1.36924e-07
-3.94129e-08
-4.9756e-05
-2.64361e-05
4.14608e-08
-2.64758e-05
9.04305e-08
-4.98052e-05
-7.44277e-05
1.38928e-07
-9.41493e-08
-7.44839e-05
1.605e-07
-4.02506e-08
-4.98553e-05
-2.65169e-05
4.11177e-08
-2.65564e-05
9.46565e-08
-4.99055e-05
-7.45403e-05
1.53359e-07
-9.66846e-08
-7.45991e-05
1.60652e-07
-4.16752e-08
-4.99566e-05
-2.65962e-05
4.17593e-08
-2.66343e-05
9.40853e-08
-5.00053e-05
-7.46548e-05
1.52815e-07
-9.85988e-08
-7.47209e-05
1.56178e-07
-4.50709e-08
-5.00611e-05
-2.66774e-05
3.80667e-08
-2.67157e-05
8.71714e-08
-5.01122e-05
-7.47792e-05
1.43008e-07
-8.89819e-08
-7.48438e-05
1.49037e-07
-3.82365e-08
-5.01667e-05
-2.67556e-05
3.73427e-08
-2.67963e-05
8.7932e-08
-5.02224e-05
-7.49102e-05
1.46684e-07
-9.23078e-08
-7.49781e-05
1.67101e-07
-3.60558e-08
-5.02788e-05
-2.68367e-05
3.57439e-08
-2.6875e-05
9.223e-08
-5.03352e-05
-7.50455e-05
1.62811e-07
-1.00442e-07
-7.5119e-05
1.7649e-07
-3.93079e-08
-5.03944e-05
-2.69143e-05
4.11864e-08
-2.69509e-05
1.0445e-07
-5.04516e-05
-7.51892e-05
1.79263e-07
-1.07871e-07
-7.52681e-05
1.92008e-07
-4.15537e-08
-5.05133e-05
-2.699e-05
3.68937e-08
-2.7027e-05
1.00211e-07
-5.0575e-05
-7.53461e-05
1.82295e-07
-1.05707e-07
-7.54275e-05
1.84413e-07
-4.02942e-08
-5.06373e-05
-2.70616e-05
3.67944e-08
-2.7097e-05
9.99139e-08
-5.07025e-05
-7.5512e-05
1.78211e-07
-1.02626e-07
-7.56045e-05
1.89481e-07
-3.5859e-08
-5.07723e-05
-2.71336e-05
3.13076e-08
-2.71653e-05
9.82284e-08
-5.08403e-05
-7.56942e-05
1.8513e-07
-9.7659e-08
-7.57933e-05
2.01108e-07
-2.71901e-08
-5.09143e-05
-2.71996e-05
2.75428e-08
-2.72308e-05
1.00501e-07
-5.09884e-05
-7.58933e-05
2.03242e-07
-1.07029e-07
-7.60012e-05
2.19394e-07
-2.8871e-08
-5.10668e-05
-2.72623e-05
2.68021e-08
-2.72914e-05
1.04637e-07
-5.11473e-05
-7.61114e-05
2.12147e-07
-1.1394e-07
-7.62289e-05
2.24115e-07
-3.06888e-08
-5.12321e-05
-2.73211e-05
2.78361e-08
-2.73495e-05
1.13871e-07
-5.13202e-05
-7.63496e-05
2.30185e-07
-1.2081e-07
-7.6482e-05
2.489e-07
-2.84623e-08
-5.14159e-05
-2.73803e-05
2.5095e-08
-2.74099e-05
1.1984e-07
-5.1515e-05
-7.66187e-05
2.5532e-07
-1.37203e-07
-7.67645e-05
2.7945e-07
-3.18418e-08
-5.16206e-05
-2.74408e-05
3.56615e-08
-2.7472e-05
1.49119e-07
-5.17313e-05
-7.69161e-05
2.9717e-07
-1.63322e-07
-7.70822e-05
3.26262e-07
-4.02594e-08
-5.18527e-05
-2.75092e-05
4.27175e-08
-2.75458e-05
1.7404e-07
-5.19785e-05
-7.72505e-05
3.44121e-07
-1.86154e-07
-7.74347e-05
3.67281e-07
-4.71719e-08
-5.2116e-05
-2.75898e-05
5.13364e-08
-2.76392e-05
1.97023e-07
-5.22626e-05
-7.76264e-05
3.84057e-07
-2.18607e-07
-7.78354e-05
4.1695e-07
-6.06964e-08
-5.24249e-05
-2.77001e-05
6.99464e-08
-2.77701e-05
2.39439e-07
-5.25998e-05
-7.80535e-05
4.44386e-07
-2.71307e-07
-7.82896e-05
4.99554e-07
-8.36817e-08
-5.27887e-05
-2.78532e-05
8.86121e-08
-2.79513e-05
2.9509e-07
-5.29937e-05
-7.85363e-05
5.5891e-07
-3.42986e-07
-7.88009e-05
6.21011e-07
-1.14101e-07
-5.32154e-05
-2.80658e-05
1.35154e-07
-2.81981e-05
3.83092e-07
-5.34536e-05
-7.90769e-05
6.72412e-07
-4.28465e-07
-7.93685e-05
7.35396e-07
-1.58885e-07
-5.37159e-05
-2.83586e-05
1.78841e-07
-2.85514e-05
4.58718e-07
-5.39988e-05
-7.96885e-05
7.9796e-07
-5.34947e-07
-8.00236e-05
8.48848e-07
-2.28529e-07
-5.43106e-05
-2.87735e-05
2.74018e-07
-2.90396e-05
6.05204e-07
-5.46545e-05
-8.03805e-05
9.28068e-07
-6.94416e-07
-8.07601e-05
1.05147e-06
-3.20221e-07
-5.50342e-05
-2.93507e-05
3.79793e-07
-2.9715e-05
8.00662e-07
-5.54499e-05
-8.11857e-05
1.20212e-06
-8.9232e-07
-8.16265e-05
1.39165e-06
-4.12365e-07
-5.59166e-05
-3.01486e-05
4.86665e-07
-3.06551e-05
1.01857e-06
-5.64398e-05
-8.2125e-05
1.55487e-06
-1.18436e-06
-8.26828e-05
1.7578e-06
-5.84563e-07
-5.70333e-05
-3.12372e-05
8.52563e-07
-3.20738e-05
1.60413e-06
-5.77762e-05
-8.27981e-05
1.67604e-06
-1.54206e-06
-8.33099e-05
2.03934e-06
-9.49989e-07
-5.83663e-05
-3.30189e-05
7.35418e-07
-3.37623e-05
1.38952e-06
-5.90246e-05
-8.38479e-05
1.93699e-06
-1.23362e-06
-8.53398e-05
2.72375e-06
-2.91239e-07
-5.99719e-05
-3.40572e-05
1.28775e-06
-3.5345e-05
1.67645e-06
-6.0361e-05
-8.61366e-05
2.47271e-06
-1.98038e-06
-8.69276e-05
2.76778e-06
-5.92205e-07
-6.17519e-05
-3.59393e-05
9.26147e-07
-3.6864e-05
1.70062e-06
-6.2525e-05
-8.81971e-05
2.97129e-06
-2.35266e-06
-8.88959e-05
3.05045e-06
-1.0299e-06
-6.38466e-05
-3.78925e-05
1.09945e-06
-3.89887e-05
1.938e-06
-6.46823e-05
-9.06847e-05
3.72787e-06
-2.64934e-06
-9.18743e-05
3.84193e-06
-1.38912e-06
-6.59404e-05
-4.03752e-05
1.34462e-06
-4.17234e-05
2.58101e-06
-6.71805e-05
-9.29733e-05
3.67972e-06
-2.5382e-06
-9.47712e-05
4.3359e-06
-1.11755e-06
-6.86056e-05
-4.28459e-05
1.05032e-06
-4.38934e-05
2.84536e-06
-7.03958e-05
-9.65855e-05
4.65698e-06
-4.32926e-06
-9.96205e-05
7.3175e-06
-2.43758e-06
-7.22758e-05
-4.63209e-05
2.4487e-06
-4.8841e-05
6.40752e-06
-7.62209e-05
-0.000103725
1.05485e-05
6.76823e-05
-5.0515e-05
-0.000121167
2.70117e-05
-3.55559e-05
-2.1572e-05
4.06587e-06
-2.60417e-05
1.50366e-05
-4.59473e-05
-6.59991e-05
3.03371e-05
-8.20421e-06
-7.30182e-05
1.58328e-05
-2.74266e-06
-5.14948e-05
-2.91231e-05
1.05842e-06
-3.01533e-05
2.34152e-06
-5.27927e-05
-7.43168e-05
3.58222e-06
-1.61317e-07
-7.44625e-05
2.87282e-07
-3.47681e-07
-5.26017e-05
-3.04886e-05
1.5731e-06
-3.19562e-05
3.40535e-06
-5.43965e-05
-7.61567e-05
4.92458e-06
-2.32022e-06
-7.7404e-05
3.70278e-06
-1.09837e-06
-5.56212e-05
-3.31159e-05
2.09278e-06
-3.53252e-05
4.15516e-06
-5.77276e-05
-7.97882e-05
6.755e-06
-2.82409e-06
-8.19296e-05
4.77673e-06
-1.61249e-06
-5.893e-05
-3.68549e-05
2.48268e-06
-3.9246e-05
5.11048e-06
-6.15203e-05
-8.4489e-05
7.47175e-06
-4.34851e-06
-8.71721e-05
7.16526e-06
-1.96563e-06
-6.39034e-05
-4.12615e-05
2.74209e-06
-4.39909e-05
6.43869e-06
-6.75854e-05
-9.22821e-05
1.14956e-05
-9.65359e-06
-9.92781e-05
1.64983e-05
-4.31581e-06
-7.27904e-05
-4.81611e-05
-2.60965e-05
-2.25634e-05
-6.34249e-05
-3.54139e-05
-4.94877e-05
-0.000112508
-1.7255e-05
-6.55914e-05
3.35196e-05
-7.14363e-06
-4.63348e-05
-2.90327e-05
4.64679e-06
-3.34844e-05
1.25836e-05
-5.41961e-05
-7.42798e-05
2.08645e-05
-7.08085e-06
-8.06875e-05
1.41048e-05
-3.36556e-06
-5.79101e-05
-3.71422e-05
2.47527e-06
-3.96433e-05
6.36989e-06
-6.18083e-05
-8.4521e-05
1.0316e-05
-5.4165e-06
-8.81058e-05
9.06906e-06
-2.41135e-06
-6.48453e-05
-4.21109e-05
2.70772e-06
-4.47606e-05
5.81102e-06
-6.79292e-05
-9.18265e-05
9.3713e-06
-6.98676e-06
-9.69486e-05
1.2236e-05
-2.98845e-06
-7.19458e-05
-4.77704e-05
3.16602e-06
-5.08879e-05
6.97404e-06
-7.57238e-05
-0.000101534
1.14897e-05
6.57932e-05
-5.04038e-05
-0.000116713
2.6935e-05
-3.68191e-05
-2.41237e-05
6.91561e-06
-3.07817e-05
1.76906e-05
-4.7932e-05
-6.62907e-05
3.36512e-05
-1.18041e-05
-7.57315e-05
2.07919e-05
-4.60956e-06
-5.50653e-05
-3.51517e-05
2.77929e-06
-3.79868e-05
6.02885e-06
-5.8321e-05
-7.90227e-05
9.4513e-06
-4.00842e-06
-8.09814e-05
5.79738e-06
-1.88146e-06
-6.04063e-05
-3.977e-05
3.14703e-06
-4.29823e-05
6.55277e-06
-6.3834e-05
-8.66286e-05
1.23496e-05
-9.37976e-06
-9.26982e-05
1.54856e-05
-4.30061e-06
-6.89335e-05
-4.73345e-05
-2.39746e-05
-2.29916e-05
-5.85279e-05
-3.44405e-05
-4.68344e-05
-0.000104794
-1.87666e-05
-6.23887e-05
3.40639e-05
-6.14973e-06
-4.61856e-05
-2.98194e-05
5.70307e-06
-3.61194e-05
1.33302e-05
-5.39633e-05
-7.22446e-05
2.43343e-05
-9.84943e-06
-8.06762e-05
1.80049e-05
-4.25527e-06
-5.95327e-05
-4.0193e-05
4.55835e-06
-4.47463e-05
9.59255e-06
-6.45437e-05
-8.73625e-05
1.62829e-05
-7.64715e-06
-9.16613e-05
1.20712e-05
-3.37986e-06
-6.88476e-05
-4.81726e-05
-2.48637e-05
-2.29512e-05
-5.92812e-05
-3.44803e-05
-4.60756e-05
-0.000105213
-1.80463e-05
-6.06442e-05
3.23212e-05
-6.68651e-06
-4.50436e-05
-3.0208e-05
4.76842e-06
-3.55212e-05
1.14946e-05
-5.19024e-05
-6.96687e-05
2.14803e-05
-9.11402e-06
-7.60092e-05
1.53499e-05
-4.06121e-06
-5.69467e-05
-3.9517e-05
4.59909e-06
-4.41815e-05
1.04293e-05
-6.28166e-05
-8.28253e-05
1.73391e-05
5.28947e-05
-4.25021e-05
-9.37126e-05
2.19903e-05
-3.19546e-05
-2.17525e-05
6.66644e-06
-2.91435e-05
1.85549e-05
-4.28531e-05
-5.66968e-05
3.24027e-05
-1.41358e-05
-6.82108e-05
2.65668e-05
-6.16274e-06
-5.09347e-05
-3.58116e-05
5.47994e-06
-4.11895e-05
1.25645e-05
-5.79738e-05
-7.68371e-05
2.09852e-05
-7.68078e-06
-8.14356e-05
1.22952e-05
-3.99534e-06
-6.16557e-05
-4.51933e-05
-2.26275e-05
-2.25993e-05
-5.25934e-05
-3.16945e-05
-4.18847e-05
-9.21078e-05
-1.87845e-05
-5.60042e-05
3.29786e-05
-7.54448e-06
-4.29403e-05
-3.01857e-05
6.74943e-06
-3.69963e-05
1.3923e-05
-5.01238e-05
-6.54178e-05
2.3507e-05
4.24535e-05
-3.41895e-05
-7.36085e-05
1.80655e-05
-2.56902e-05
-1.90417e-05
7.06717e-06
-2.59912e-05
1.68207e-05
-3.58645e-05
-4.73477e-05
3.03167e-05
-1.37784e-05
-5.55374e-05
2.20051e-05
-6.56209e-06
-4.30625e-05
-3.25792e-05
-1.64137e-05
-1.62295e-05
-3.79149e-05
-2.15703e-05
-2.78366e-05
-6.5523e-05
-1.08276e-05
-3.52742e-05
1.82473e-05
-5.08482e-06
-2.73026e-05
-2.13018e-05
-1.27048e-05
-8.59322e-06
-2.84963e-05
-1.15096e-05
-1.52051e-05
-4.85709e-05
7.87824e-07
-1.65225e-05
5.29313e-07
5.64098e-07
-1.12866e-05
-8.02963e-06
-1.36062e-05
5.57708e-06
-3.24088e-05
7.5168e-06
9.60946e-06
-5.85395e-05
2.53886e-05
2.64233e-05
-4.22023e-05
1.17342e-05
2.11714e-05
1.73115e-05
-1.08392e-05
2.81506e-05
-2.39414e-05
3.42735e-05
4.28899e-05
-4.04084e-05
2.75707e-05
6.34895e-05
-4.81693e-05
1.15368e-05
5.03078e-05
3.96876e-05
-1.34853e-05
5.31717e-05
-3.28906e-05
6.9712e-05
8.96995e-05
-5.91009e-05
-4.88761e-05
5.5668e-05
8.29013e-05
-2.13118e-05
4.21421e-05
3.1855e-05
-1.91367e-05
5.09901e-05
-4.37021e-05
6.67076e-05
8.72871e-05
-7.53185e-05
-4.0395e-05
5.92834e-05
6.84111e-05
-1.84079e-05
4.47152e-05
3.2585e-05
-2.3987e-05
5.67057e-05
-5.56466e-05
7.63912e-05
9.96221e-05
-9.62266e-05
-3.72807e-05
7.5092e-05
6.21334e-05
-1.67924e-05
5.57566e-05
3.97727e-05
1.26053e-05
2.6225e-05
3.3057e-05
3.69727e-05
4.89534e-05
5.83916e-05
4.7774e-05
8.61968e-05
-8.51708e-05
1.97018e-05
6.47288e-05
4.63714e-05
1.43636e-05
3.2328e-05
3.35306e-05
4.57223e-05
6.0145e-05
5.89632e-05
5.98253e-05
0.000107304
-0.000107047
2.47282e-05
8.07899e-05
5.70776e-05
1.4111e-05
4.29602e-05
3.32647e-05