/*--------------------------------*- C++ -*----------------------------------*\
| =========                 |                                                 |
| \\      /  F ield         | OpenFOAM: The Open Source CFD Toolbox           |
|  \\    /   O peration     | Version:  v2006                                 |
|   \\  /    A nd           | Website:  www.openfoam.com                      |
|    \\/     M anipulation  |                                                 |
\*---------------------------------------------------------------------------*/
FoamFile
{
    version     2.0;
    format      ascii;
    class       volScalarField;
    location    "0.152";
    object      yPlus;
}
// * * * * * * * * * * * * * * * * * * * * * * * * * * * * * * * * * * * * * //

dimensions      [0 0 0 0 0 0 0];


internalField   uniform 0;

boundaryField
{
    bottomEmptyFaces
    {
        type            empty;
    }
    topEmptyFaces
    {
        type            empty;
    }
    inlet
    {
        type            calculated;
        value           uniform 0;
    }
    outlet
    {
        type            calculated;
        value           uniform 0;
    }
    walls
    {
        type            calculated;
        value           nonuniform List<scalar> 
1055
(
30.3961
29.6488
28.9641
28.3388
27.7786
27.2757
26.8272
26.422
26.057
25.7265
25.4343
25.1763
24.954
24.7608
24.5966
24.4545
24.3352
24.2328
24.1488
24.0781
24.0214
23.9742
23.9376
23.9074
23.8851
23.867
23.8545
23.8446
23.8383
23.8326
23.8307
23.8288
23.8295
23.8315
23.8347
23.839
23.843
23.848
23.852
23.8559
23.858
23.8606
23.8607
23.862
23.8605
23.8606
23.8573
23.8559
23.8511
23.8485
23.8422
23.8382
23.831
23.826
23.8182
23.8125
23.8047
23.7987
23.7907
23.7844
23.7764
23.7701
23.7618
23.7552
23.7468
23.7403
23.7318
23.7253
23.7168
23.7104
23.7021
23.6957
23.6877
23.6816
23.6738
23.6681
23.6606
23.6554
23.6485
23.6439
23.6374
23.6335
23.6276
23.6244
23.6191
23.6167
23.6121
23.6106
23.6068
23.6059
23.6031
23.6028
23.6012
23.6014
23.6008
23.6016
23.602
23.6033
23.6048
23.6066
23.6089
23.6114
23.6142
23.6175
23.6207
23.6248
23.6285
23.6333
23.6375
23.6428
23.6475
23.6533
23.6584
23.6646
23.6701
23.6767
23.6825
23.6895
23.6957
23.703
23.7094
23.717
23.7237
23.7316
23.7385
23.7466
23.7538
23.7621
23.7694
23.778
23.7855
23.7942
23.802
23.8108
23.8186
23.8275
23.8355
23.8445
23.8526
23.8616
23.8698
23.8788
23.887
23.8961
23.9042
23.9134
23.9215
23.9306
23.9388
23.9478
23.956
23.9649
23.9731
23.982
23.9902
23.9991
24.0072
24.0161
24.0241
24.033
24.041
24.0499
24.058
24.0669
24.0749
24.0838
24.0918
24.1008
24.1088
24.1178
24.1258
24.1348
24.1428
24.1518
24.1596
24.1686
24.1762
24.1851
24.1926
24.2014
24.2084
24.2254
24.2243
24.2249
24.2394
24.2486
24.2541
24.2802
24.2892
24.3169
24.2763
24.2163
23.9997
24.1586
24.5681
8.50527
7.171
6.56202
11.4035
10.5826
9.66539
7.98447
18.2618
13.3596
11.5844
11.4902
12.6906
9.41581
8.07573
12.4985
11.3848
13.657
13.6329
10.733
9.22264
9.75475
9.6461
8.53443
7.36429
10.16
9.92154
8.85141
7.50778
9.14273
7.63343
8.62082
7.40662
9.60505
10.0792
8.55877
7.41368
8.3673
7.28833
8.33708
7.2738
6.55418
10.4447
10.9368
9.73236
10.61
9.48373
10.4051
9.21965
9.97065
9.24722
10.1204
10.126
10.5475
9.32482
10.2154
11.5769
8.49666
8.88282
8.9912
9.74392
10.3272
10.7756
11.8913
8.65648
9.08797
9.58789
10.382
8.35462
9.0171
10.0225
7.37172
7.67458
8.80102
9.06663
10.1832
7.48219
7.81728
8.02113
8.49945
9.1621
9.53176
8.15633
8.70268
8.42198
9.14013
8.66775
9.39379
8.33762
8.91804
10.7739
9.39769
9.77548
7.82037
8.21961
10.5642
7.71827
8.11507
10.4234
9.10267
9.40598
8.29435
9.01202
7.96775
8.55267
7.49675
7.85766
9.88054
10.2914
11.4009
8.32708
8.74949
8.8491
9.73243
11.0538
8.03936
8.44322
8.67192
9.29546
9.13355
9.94785
9.64371
10.1007
8.97068
9.73897
8.65663
9.5452
8.52886
9.18705
9.46163
9.83091
10.859
7.91525
8.23888
8.66077
9.40085
9.13135
9.9792
8.82223
9.59561
8.67866
9.10671
7.87503
7.70299
7.32423
7.03857
9.56974
7.43073
7.84845
8.34665
8.52907
9.44033
6.93869
7.12571
8.38791
8.5966
9.73062
7.13759
7.44483
7.59958
8.02522
8.15692
8.25898
7.02784
7.2502
7.97937
7.98139
7.82075
7.80182
9.16334
6.83701
6.99885
9.20656
7.87437
7.93333
6.7876
6.99483
9.07022
7.34621
7.03334
9.00998
7.77308
7.71892
8.66414
6.62008
6.64657
7.83124
7.7572
6.70731
6.75689
6.72675
6.86082
9.22582
7.97165
8.04782
9.3018
6.94733
7.12853
6.78857
7.00115
8.96228
8.80124
7.3945
6.9505
8.32078
7.02238
6.56041
8.36825
7.09135
6.51548
8.43526
7.16771
6.59131
8.34191
6.99101
6.4688
8.10945
6.48092
6.32923
8.30188
6.83876
6.47402
7.75846
7.40134
8.4075
7.72954
7.5268
6.56291
6.53058
8.75023
8.66588
7.25668
6.86462
7.39923
6.94552
7.09859
6.81264
8.9515
7.20633
6.91183
8.55794
6.66838
6.70682
8.73031
8.95309
10.0735
7.41245
7.7042
9.89996
7.17142
7.48919
8.58588
8.82898
7.77672
8.28343
7.86422
8.33957
8.71546
9.03665
8.04704
8.57732
13.2264
11.3567
8.65272
11.2561
8.33587
11.6889
9.72422
6.99966
10.6704
10.3583
7.16219
12.2573
9.9935
26.1716
24.6318
8.23131
8.81306
6.16376
25.2609
21.197
21.2093
20.3854
10.3681
20.1313
8.85852
25.4122
7.71294
20.6695
8.95239
6.16199
20.114
21.441
20.905
10.7029
9.57884
8.44596
7.42911
8.30745
6.00224
28.0644
26.4941
21.8334
21.3789
22.1102
21.5537
25.1083
22.066
20.9321
27.1811
23.2957
22.4058
9.9872
9.00124
8.46269
7.97667
7.33078
8.50263
6.05256
10.5202
9.68642
9.12029
8.61308
8.22353
7.67866
6.96757
7.8128
5.69652
9.6847
8.94989
8.50461
8.12468
7.81508
7.5207
7.26942
7.04456
6.92372
6.77488
6.40523
7.78336
5.39709
9.81893
9.27991
8.97212
8.80229
8.60213
13.9783
8.37981
8.20588
8.06859
7.91765
7.8225
10.9676
12.0085
7.67906
12.0622
12.5066
10.3949
11.2252
13.4729
11.6615
12.1858
9.73605
10.2842
10.6755
11.7116
7.58692
7.54724
7.42688
7.30421
7.21181
7.12984
7.05661
6.99921
14.7464
10.6215
11.1946
12.6134
13.1796
11.5952
12.706
6.95072
6.91242
6.88093
6.85809
6.8346
6.81677
6.8064
6.79571
13.5547
14.1626
12.3864
13.4768
6.78837
6.7773
6.77371
6.77139
6.76527
6.75963
6.75853
6.75739
13.8098
14.263
13.248
14.3803
12.5896
13.5906
16.1163
11.6955
12.3478
6.75162
15.8019
6.74556
6.74386
11.4031
12.0321
6.73903
6.73661
12.3014
13.1863
6.72711
6.72381
6.71818
15.2295
11.828
12.9188
13.0645
13.5897
11.8307
12.8034
11.0248
11.6123
11.3994
12.3063
11.2964
12.3176
12.1826
12.663
11.0795
12.1948
14.1382
10.2453
10.7707
10.9035
11.7759
14.4233
11.1459
12.0584
10.3843
10.9919
12.3956
12.9264
10.7978
11.6699
10.1781
10.697
19.208
14.3613
14.9395
6.71368
6.7031
6.69801
6.69376
20.6872
6.68392
6.67485
6.66879
20.0109
6.66379
14.5451
15.4438
17.3286
17.4051
19.8463
16.8807
17.2517
14.6401
15.3451
16.7133
16.9864
6.65318
6.64369
6.63713
6.63165
6.62088
6.61096
6.60463
6.59935
6.58868
6.57904
6.57258
6.56716
6.5566
6.54674
6.54051
15.4343
6.53515
15.7261
16.2542
16.7835
14.4232
15.405
18.2126
13.1214
13.9303
6.52495
6.51522
6.50951
6.50431
6.49452
6.48495
6.47965
6.47213
17.4708
13.9949
14.9615
12.9039
13.6417
13.351
14.2789
17.0987
14.6354
15.1993
12.235
13.0294
14.8177
15.4506
18.3966
15.7158
16.2077
13.3036
14.0624
19.2481
19.0527
13.9806
14.6237
16.2952
16.506
16.1419
16.6168
6.46707
14.1405
6.45526
14.8887
6.45036
6.44301
6.43808
6.42671
6.42193
6.41494
21.403
6.4103
6.39948
15.9178
16.6046
6.39516
6.38846
6.38376
6.37346
6.36881
22.1989
6.3648
21.9031
18.1226
17.893
18.7245
18.9108
19.8236
19.9308
23.5258
6.35581
18.8473
6.35045
18.6839
6.34238
6.34077
6.33268
22.7468
6.32732
6.32252
18.7602
18.4352
6.315
22.9519
17.8702
18.4199
16.8034
17.3928
18.0764
18.3411
15.4899
16.1629
6.31309
6.30779
6.31113
6.37305
6.41556
6.51375
6.7776
7.12812
29.2737
25.9542
30.2326
23.7646
22.1112
29.9865
27.2074
26.959
23.4065
22.2834
9.90901
10.7667
33.1021
31.9992
30.892
33.0705
25.6116
23.4846
30.6627
27.1042
25.2638
22.8523
12.5306
30.4538
9.97973
10.9149
10.8476
11.2665
28.9509
35.3019
27.3281
25.4652
10.2487
11.2097
10.0392
11.0059
35.631
12.8179
11.1212
11.59
9.32452
9.78726
36.2867
9.79099
10.5729
9.10912
9.57021
36.6955
36.6592
36.7641
36.4701
35.7554
13.1556
34.8565
10.7561
11.7138
10.4489
11.4939
10.2435
11.0537
9.49467
10.0183
10.4143
11.3865
11.3381
11.7796
10.2148
11.1357
33.9217
32.9821
32.0689
31.2041
9.59392
10.5424
12.0153
8.79589
9.19732
9.32503
10.0908
9.78212
10.7217
25.0507
7.57457
36.4711
33.1929
31.0012
29.531
28.4214
27.3887
26.6569
25.9466
25.5499
25.0744
24.7909
24.4221
24.2085
23.9079
23.7399
23.4854
23.3473
23.1238
23.0058
22.8045
22.7008
22.5154
22.422
22.2482
22.162
21.9971
21.9162
21.7582
21.6813
21.5286
21.4547
21.3063
21.2346
21.0896
21.0196
20.8774
20.8086
20.6686
20.6008
20.4626
20.3953
20.2584
20.1915
20.0554
19.9885
19.8529
19.7858
19.6501
19.5825
19.4464
19.3781
19.2412
19.1719
19.0338
18.9633
18.8238
18.7518
18.6104
18.5369
18.3934
18.3181
18.1722
18.095
17.9467
17.8675
17.7164
17.6355
17.4816
17.3989
17.2423
17.158
16.9988
16.9132
16.7517
16.6652
16.5017
16.415
16.2502
16.1639
15.9987
15.9141
15.7497
15.6681
15.5061
15.4291
15.2713
15.2012
15.0498
14.9891
14.8466
14.7989
14.6689
14.6359
14.5253
14.5069
14.4189
14.4165
14.3585
14.3687
14.3439
14.3665
14.3591
14.4108
14.4189
14.4977
14.5217
14.6234
14.6591
14.7763
14.8204
14.9481
14.9985
15.1337
15.1881
15.3275
15.3834
15.523
15.5785
15.7153
15.7688
15.8998
15.9497
16.0726
16.118
16.2309
16.2711
16.3724
16.4066
16.4952
16.5229
16.5984
16.6198
16.6825
16.6977
16.7481
16.7576
16.7979
16.8028
16.8346
16.8355
16.8584
16.8563
16.8722
16.8681
16.8783
16.8724
16.8781
16.8666
16.8701
16.8558
16.8592
16.8434
16.8461
16.828
16.8298
16.8105
16.8116
16.7923
16.7944
16.7744
16.7759
16.754
16.7554
16.7318
16.7317
16.7024
16.7081
16.6736
16.6827
16.6379
16.7123
16.7433
16.947
17.2295
18.2746
20.912
18.9405
39.9398
)
;
    }
    rightWall
    {
        type            calculated;
        value           uniform 0;
    }
    symmetryLine
    {
        type            symmetryPlane;
    }
}


// ************************************************************************* //
