/*--------------------------------*- C++ -*----------------------------------*\
| =========                 |                                                 |
| \\      /  F ield         | OpenFOAM: The Open Source CFD Toolbox           |
|  \\    /   O peration     | Version:  v2006                                 |
|   \\  /    A nd           | Website:  www.openfoam.com                      |
|    \\/     M anipulation  |                                                 |
\*---------------------------------------------------------------------------*/
FoamFile
{
    version     2.0;
    format      ascii;
    class       volScalarField;
    location    "0.068";
    object      alphat;
}
// * * * * * * * * * * * * * * * * * * * * * * * * * * * * * * * * * * * * * //

dimensions      [1 -1 -1 0 0 0 0];


internalField   nonuniform List<scalar> 
16277
(
37.8799
25.8863
91.4494
18.6461
27.4504
15.593
6.40542
2.62609
1.41598
0.955036
0.750723
0.647152
0.585158
0.540169
0.502379
0.46843
0.437545
0.40976
0.38511
0.363425
0.344374
0.327559
0.3126
0.299172
0.287019
0.275943
0.265796
0.25646
0.247844
0.239872
0.23248
0.225614
0.219228
0.213282
0.207741
0.202576
0.19776
0.193272
0.189089
0.185195
0.181574
0.178211
0.175094
0.172212
0.169556
0.167119
0.164891
0.162869
0.161048
0.159423
0.157993
0.156757
0.155714
0.154865
0.15421
0.153754
0.153502
0.153464
0.153644
0.154046
0.154684
0.15557
0.156721
0.158155
0.159894
0.161964
0.164394
0.167224
0.170498
0.17428
0.178649
0.183711
0.189602
0.196483
0.20451
0.213792
0.224335
0.236059
0.249072
0.264512
0.286374
0.325989
0.412483
0.621714
1.158
2.435
4.30018
4.59879
2.72491
1.80025
0.886183
0.404031
0.21968
0.103642
0.0245577
0.00441852
0.0001464
0.000127054
0.00207673
0.00956446
0.0052702
0.00134568
0.00011128
9.96375e-05
0.00122689
0.00443181
0.0035362
0.00105454
9.20694e-05
8.61347e-05
0.00102198
0.00335346
0.00290158
0.000920536
8.10804e-05
7.76732e-05
0.000904699
0.00282633
0.00257243
0.000843075
7.43147e-05
7.24988e-05
0.000848154
0.00254625
0.00238182
0.000803042
7.02804e-05
6.90878e-05
0.00081025
0.00236723
0.00224242
0.000773925
6.74511e-05
6.66268e-05
0.000781079
0.00223589
0.00213273
0.00075027
6.53481e-05
6.47503e-05
0.00075722
0.0021307
0.00204133
0.000730109
6.3712e-05
6.32627e-05
0.000737035
0.00204219
0.00196266
0.000712413
6.23848e-05
6.20308e-05
0.000719368
0.00196543
0.00189328
0.00069644
6.12596e-05
6.09712e-05
0.000703314
0.00189731
0.00183098
0.000681712
6.02782e-05
6.00358e-05
0.000688501
0.00183591
0.0017744
0.000668009
5.93997e-05
5.91899e-05
0.000674728
0.00178
0.00172256
0.000655201
5.85969e-05
5.84109e-05
0.00066186
0.00172874
0.0016747
0.00064318
5.78517e-05
5.76839e-05
0.000649775
0.00168141
0.00163038
0.000631842
5.71519e-05
5.69982e-05
0.000638372
0.00163754
0.0015892
0.00062111
5.64882e-05
5.63458e-05
0.000627576
0.00159675
0.00155086
0.000610928
5.58543e-05
5.57207e-05
0.000617343
0.00155875
0.0015151
0.000601271
5.52448e-05
5.51189e-05
0.000607639
0.00152327
0.00148162
0.000592099
5.46566e-05
5.45373e-05
0.000598416
0.00149002
0.00145017
0.000583359
5.40866e-05
5.39731e-05
0.00058962
0.00145872
0.00142048
0.000575001
5.3532e-05
5.34234e-05
0.000581202
0.00142913
0.00139234
0.000566979
5.29901e-05
5.28855e-05
0.000573115
0.00140106
0.00136558
0.000559246
5.24584e-05
5.2357e-05
0.000565311
0.00137432
0.00134001
0.000551759
5.19344e-05
5.18355e-05
0.000557746
0.00134875
0.00131551
0.000544475
5.14159e-05
5.13187e-05
0.000550381
0.00132422
0.00129195
0.000537362
5.09005e-05
5.08044e-05
0.000543182
0.0013006
0.00126922
0.000530388
5.03864e-05
5.02906e-05
0.00053612
0.0012778
0.00124722
0.000523529
4.98715e-05
4.97756e-05
0.000529171
0.00125571
0.00122588
0.000516762
4.9354e-05
4.92574e-05
0.000522313
0.00123427
0.00120514
0.000510072
4.88324e-05
4.87346e-05
0.000515533
0.00121344
0.00118495
0.000503447
4.8305e-05
4.82058e-05
0.000508821
0.00119315
0.00116529
0.00049688
4.77705e-05
4.76697e-05
0.000502188
0.0011734
0.00114612
0.000490377
4.72278e-05
4.71254e-05
0.000495675
0.00115417
0.00112746
0.000483958
4.66764e-05
4.65725e-05
0.000489229
0.00113545
0.0011093
0.000477601
4.61155e-05
4.60101e-05
0.000482866
0.00111724
0.00109163
0.000471327
4.55447e-05
4.54379e-05
0.000476608
0.00109955
0.0010745
0.000465163
4.4964e-05
4.48563e-05
0.000470488
0.00108244
0.00105795
0.000459148
4.43738e-05
4.4266e-05
0.000464548
0.00106597
0.00104208
0.000453327
4.37755e-05
4.36684e-05
0.000458848
0.00105037
0.00102705
0.000447773
4.31708e-05
4.30659e-05
0.000453468
0.0010358
0.001013
0.00044257
4.25631e-05
4.24624e-05
0.000448493
0.00102226
0.00100004
0.000437811
4.19564e-05
4.18623e-05
0.000444029
0.00100999
0.000988432
0.000433609
4.13562e-05
4.12719e-05
0.000440204
0.000999274
0.000978479
0.000430107
4.07689e-05
4.06994e-05
0.000437166
0.00099042
0.000970513
0.000427483
4.0203e-05
4.01562e-05
0.000434985
0.000983771
0.000964922
0.000425862
3.96762e-05
3.96454e-05
0.00043349
0.000979576
0.000961824
0.000424851
3.92093e-05
3.91831e-05
0.000432715
0.000978326
0.000961696
0.000424684
3.8801e-05
3.87787e-05
0.000432783
0.00098004
0.000964498
0.000425426
3.84852e-05
3.84467e-05
0.000433665
0.000984532
0.000970122
0.000427057
3.82587e-05
3.82079e-05
0.000435245
0.000991421
0.000978033
0.000429164
3.80408e-05
3.8064e-05
0.00043721
0.00100052
0.000988108
0.000431377
3.78994e-05
3.79846e-05
0.000439142
0.00101145
0.000999845
0.000433627
3.78382e-05
3.80003e-05
0.000440762
0.00102299
0.00101182
0.000435578
3.78791e-05
3.80931e-05
0.000442094
0.00103403
0.00102307
0.000436977
3.79967e-05
3.8252e-05
0.000443358
0.00104408
0.00103333
0.000438088
3.81809e-05
3.84725e-05
0.000444359
0.00105291
0.00104241
0.000439105
3.84259e-05
3.87464e-05
0.00044526
0.00106044
0.00105013
0.000439652
3.87204e-05
3.90582e-05
0.000445921
0.00106681
0.00105628
0.000439995
3.90512e-05
3.93974e-05
0.000446357
0.00107174
0.00106057
0.000440157
3.94067e-05
3.97522e-05
0.000446564
0.00107589
0.00106352
0.000440197
3.97747e-05
4.01109e-05
0.000446629
0.00107839
0.00106481
0.000439898
4.0144e-05
4.04641e-05
0.000446558
0.00107914
0.00106359
0.00043914
4.05047e-05
4.0802e-05
0.000445834
0.00107773
0.00106104
0.000438156
4.08448e-05
4.11127e-05
0.000444865
0.00107489
0.00105743
0.000437063
4.11548e-05
4.13899e-05
0.000443758
0.00107084
0.00105282
0.000435937
4.14288e-05
4.16299e-05
0.000442552
0.00106565
0.00104731
0.000434816
4.16638e-05
4.18308e-05
0.000441309
0.00105949
0.00104107
0.00043373
4.18582e-05
4.19927e-05
0.000440063
0.00105258
0.00103424
0.000432682
4.2013e-05
4.21181e-05
0.000438814
0.00104502
0.00102693
0.000431653
4.21314e-05
4.22055e-05
0.000437556
0.00103704
0.00101917
0.000430613
4.22159e-05
4.22661e-05
0.000436269
0.00102883
0.00101127
0.000429555
4.22734e-05
4.23037e-05
0.00043498
0.00102056
0.0010033
0.000428464
4.2306e-05
4.2325e-05
0.000433666
0.00101237
0.000995342
0.000427289
4.23201e-05
4.23304e-05
0.000432322
0.00100421
0.000987218
0.000425909
4.23066e-05
4.23143e-05
0.000430864
0.000995906
0.00097912
0.000424518
4.22858e-05
4.22947e-05
0.000429446
0.000987729
0.000971142
0.000423123
4.22508e-05
4.22582e-05
0.000427998
0.000979542
0.000963078
0.000421693
4.22095e-05
4.22143e-05
0.00042648
0.000971333
0.000954954
0.000420172
4.21502e-05
4.21473e-05
0.000424853
0.000963042
0.000946696
0.000418548
4.20852e-05
4.20852e-05
0.000423201
0.000954849
0.000938652
0.000416922
4.20152e-05
4.20153e-05
0.000421501
0.000946722
0.00093056
0.000415187
4.19437e-05
4.19413e-05
0.000419709
0.000938567
0.000922566
0.000413395
4.18493e-05
4.18804e-05
0.000417966
0.000930667
0.000914094
0.000411589
4.17494e-05
4.17964e-05
0.000415764
0.000923163
0.000906926
0.000408608
4.15882e-05
4.18438e-05
0.00041596
0.000920631
0.000909418
0.000415404
4.174e-05
4.24256e-05
0.000416156
0.000919518
0.000962898
0.000437526
4.27369e-05
4.55306e-05
0.000410315
0.000936192
0.00142977
0.000596308
5.13634e-05
5.5428e-05
0.000309314
0.000710033
0.00175142
0.0040136
0.00750335
0.0106974
0.012883
0.016934
0.0195203
0.0218411
0.0231478
0.0237728
0.0235971
0.0225473
0.0210527
0.0186554
0.0163049
0.0127414
0.0111328
0.00810065
0.00606068
0.00411645
0.00233973
0.00107457
0.000391483
0.000163414
3.15256e-05
2.05547e-05
0.000151096
0.000354946
0.000335185
0.000143315
1.97079e-05
1.89099e-05
0.000138108
0.000317819
0.000318911
0.000136126
1.87135e-05
1.86048e-05
0.000135393
0.000313853
0.000314061
0.000134057
1.84221e-05
1.84075e-05
0.000133989
0.000313604
0.000314577
0.000134065
1.84336e-05
1.84337e-05
0.000134256
0.000315256
0.00031581
0.000134507
1.84655e-05
1.84813e-05
0.000134735
0.000316776
0.000317231
0.000134975
1.84985e-05
1.85273e-05
0.000135206
0.000318208
0.000318735
0.000135429
1.8518e-05
1.85496e-05
0.0001357
0.000319705
0.000320228
0.000135875
1.85646e-05
1.85966e-05
0.000136163
0.000321304
0.000321851
0.000136317
1.8596e-05
1.86039e-05
0.000136768
0.000323026
0.000323568
0.000136885
1.86455e-05
1.8656e-05
0.000137305
0.000324758
0.000325308
0.000137476
1.86744e-05
1.86813e-05
0.000137885
0.000326488
0.000327023
0.000138023
1.87239e-05
1.87303e-05
0.000138402
0.000328245
0.000328881
0.000138604
1.87496e-05
1.87592e-05
0.000139061
0.000330184
0.000330763
0.000139251
1.88049e-05
1.88103e-05
0.000139649
0.000331952
0.000332525
0.00013984
1.88287e-05
1.88369e-05
0.000140243
0.000333833
0.000334448
0.000140429
1.8885e-05
1.88933e-05
0.000140868
0.000335789
0.000336438
0.000141099
1.89113e-05
1.89186e-05
0.000141559
0.000337869
0.000338534
0.000141861
1.89557e-05
1.89944e-05
0.000142246
0.000339918
0.000340548
0.000142498
1.90016e-05
1.90107e-05
0.000142985
0.000341871
0.000342481
0.000143208
1.90421e-05
1.90792e-05
0.000143581
0.000343922
0.000344634
0.000143835
1.90857e-05
1.90995e-05
0.000144422
0.000346182
0.000346887
0.000144711
1.91346e-05
1.91735e-05
0.000145151
0.000348345
0.000349015
0.000145407
1.91804e-05
1.91937e-05
0.000145956
0.0003504
0.000351036
0.000146176
1.92267e-05
1.9264e-05
0.000146574
0.000352426
0.000353093
0.000146792
1.92658e-05
1.92786e-05
0.00014739
0.000354647
0.00035535
0.000147681
1.9316e-05
1.93574e-05
0.000148147
0.000356865
0.000357535
0.000148395
1.93631e-05
1.93752e-05
0.000148973
0.000358929
0.000359514
0.000149174
1.94064e-05
1.94425e-05
0.000149544
0.000360765
0.000361279
0.000149699
1.94436e-05
1.94507e-05
0.000150182
0.00036257
0.000363106
0.000150305
1.94782e-05
1.95135e-05
0.000150633
0.000364407
0.0003649
0.000150763
1.95145e-05
1.9521e-05
0.000151222
0.000366105
0.000366493
0.000151182
1.95568e-05
1.95559e-05
0.000151456
0.000367382
0.000367653
0.000151384
1.95631e-05
1.95545e-05
0.000151493
0.000368337
0.000368431
0.000151261
1.95847e-05
1.95706e-05
0.000151185
0.000368908
0.00036898
0.000150873
1.95671e-05
1.95496e-05
0.000150732
0.000369315
0.000369326
0.000150379
1.95599e-05
1.95672e-05
0.00014992
0.000369409
0.000368878
0.000149324
1.95399e-05
1.95055e-05
0.000148697
0.000368604
0.000367489
0.000147678
1.94919e-05
1.94818e-05
0.000146727
0.000367288
0.000366409
0.000145669
1.94462e-05
1.94189e-05
0.000144879
0.000366277
0.000365042
0.000143612
1.94249e-05
1.93947e-05
0.000142521
0.000364601
0.000362671
0.000140976
1.93784e-05
1.93523e-05
0.000139556
0.000361909
0.000359635
0.000137764
1.93526e-05
1.93759e-05
0.000136334
0.000359505
0.00035836
0.000134922
1.93951e-05
1.9442e-05
0.000133772
0.000358667
0.000357298
0.000132282
1.94889e-05
1.95699e-05
0.000131129
0.000357689
0.000356948
0.000129789
1.9683e-05
1.98573e-05
0.000129083
0.000358911
0.000360808
0.000127734
2.00463e-05
2.02303e-05
0.000126892
0.000364824
0.000370133
0.000128273
2.04322e-05
2.06329e-05
0.000128775
0.000374877
0.00037774
0.00012809
2.06872e-05
2.08387e-05
0.000125774
0.000383518
0.000389907
0.000132558
2.11384e-05
2.13445e-05
0.000128731
0.000395508
0.000400726
0.000131996
2.16915e-05
2.19431e-05
0.000133735
0.000410509
0.000413311
0.00013659
2.23069e-05
2.28238e-05
0.000143533
0.000425872
0.000427595
0.000147072
2.33305e-05
2.37522e-05
0.000152848
0.000437411
0.000439896
0.000158041
2.46055e-05
2.6478e-05
0.000183738
0.000460633
0.000459763
0.000195857
1.99389e-05
1.55084e-05
4.85757e-05
0.000129176
0.000360458
0.000111563
1.79298e-05
1.89197e-05
0.000100331
0.000331259
0.000349299
0.000104104
1.93678e-05
1.96561e-05
9.8092e-05
0.000333204
0.00035821
0.0001057
2.0241e-05
2.08244e-05
0.000104106
0.000353106
0.000387591
0.000118373
2.15041e-05
2.22545e-05
0.000117649
0.000379883
0.000416464
0.00013735
2.3221e-05
2.44154e-05
0.00014093
0.000419171
0.0004681
0.000170437
2.7031e-05
2.08218e-05
0.00019377
0.000482545
0.000129934
4.66668e-05
1.69248e-05
1.97019e-05
0.000122611
0.000405019
0.000395658
0.000113218
2.1461e-05
2.26045e-05
0.00014682
0.000488126
0.000498168
0.000149133
2.36356e-05
2.49935e-05
0.000174408
0.000555501
0.000571576
0.000187172
2.68198e-05
2.99596e-05
0.000222198
0.000624077
0.000604322
0.000237782
2.31055e-05
1.73215e-05
5.33111e-05
0.000159327
0.000492167
0.000145883
2.09635e-05
2.26782e-05
0.000135654
0.000482299
0.000552528
0.000166688
2.42143e-05
2.58373e-05
0.000166467
0.00054422
0.00061866
0.000212384
2.97722e-05
2.41176e-05
0.000252364
0.00062642
0.000170672
5.65248e-05
1.80846e-05
2.19256e-05
0.000153147
0.000557712
0.000573899
0.00016069
2.47513e-05
2.87446e-05
0.000226912
0.000737576
0.00077201
0.000266395
3.35262e-05
2.77607e-05
0.000316213
0.000784186
0.000219358
6.62559e-05
1.9087e-05
2.37818e-05
0.000204114
0.000691372
0.000685143
0.000197965
2.803e-05
3.51894e-05
0.000296297
0.000872677
0.000893318
0.000353914
2.96022e-05
2.01808e-05
7.68224e-05
0.000274615
0.00090194
0.000266726
2.80113e-05
3.52785e-05
0.000280121
0.000968227
0.00134547
0.000473005
4.82586e-05
4.02517e-05
0.00050504
0.00129436
0.000458072
0.000120203
2.63323e-05
4.67229e-05
0.000488535
0.00140895
0.00140454
0.000519677
4.34393e-05
2.92326e-05
0.000130873
0.000546101
0.00194711
0.00064646
6.49107e-05
6.40813e-05
0.000747708
0.00211725
0.000964455
0.00026643
4.07603e-05
6.49217e-05
0.000867623
0.00252816
0.00166997
0.000553865
4.32275e-05
8.02841e-05
0.000976784
0.00196937
0.0016893
0.000817153
6.60132e-05
6.67803e-05
0.00077818
0.00185145
0.002372
0.000857653
7.64752e-05
0.000105523
0.00159899
0.00394797
0.000879061
0.000273254
5.99231e-05
6.13578e-05
0.000765953
0.00175557
0.000542531
0.000193912
4.27667e-05
4.67097e-05
0.000471943
0.00113761
0.000973082
0.000350389
4.61424e-05
2.65936e-05
9.23398e-05
0.000280222
0.000659979
0.000383721
3.13484e-05
2.92605e-05
0.000119387
0.000301095
0.000724339
0.000318444
3.32273e-05
3.53293e-05
0.000257642
0.000652817
0.000211217
7.9294e-05
2.33477e-05
2.77702e-05
0.000250269
0.000563789
0.000517859
0.00020915
3.10389e-05
2.17201e-05
6.79394e-05
0.000173076
0.000480177
0.000213303
2.5257e-05
2.96895e-05
0.000187871
0.000442259
0.000154346
6.5227e-05
2.13802e-05
2.38837e-05
0.000191679
0.000425965
0.000384658
0.000166925
2.74991e-05
2.05025e-05
5.82764e-05
0.000136085
0.000372479
0.000170115
2.25787e-05
2.73533e-05
0.000151722
0.000341328
0.000124563
5.64607e-05
2.0648e-05
2.20101e-05
0.000160086
0.000338187
0.000306802
0.000141204
2.65244e-05
2.02928e-05
5.30558e-05
0.000115316
0.000309806
0.000147803
2.09522e-05
2.5343e-05
0.000129933
0.000280691
0.000109549
5.14895e-05
1.99996e-05
2.099e-05
0.000148418
0.000299556
0.000255344
0.000120767
2.66724e-05
2.24677e-05
9.81381e-05
0.000210638
8.38308e-05
3.99854e-05
1.89483e-05
1.82113e-05
0.000103577
0.000208813
0.000194943
9.58439e-05
2.29436e-05
1.78987e-05
3.69265e-05
7.81796e-05
0.000186863
9.49325e-05
1.70357e-05
2.20202e-05
8.77602e-05
0.000175091
7.48093e-05
3.80628e-05
1.82391e-05
1.72507e-05
9.1875e-05
0.000171963
0.000162079
8.64296e-05
2.20475e-05
1.77034e-05
3.48022e-05
6.94481e-05
0.000157591
8.48071e-05
1.6431e-05
2.11824e-05
7.97925e-05
0.000148876
6.71208e-05
3.42903e-05
1.7236e-05
1.61155e-05
7.97816e-05
0.000145764
0.00014144
7.82935e-05
2.12066e-05
1.79345e-05
3.4173e-05
6.42632e-05
0.00013959
7.8616e-05
1.63952e-05
2.13775e-05
7.60238e-05
0.000132707
6.13591e-05
3.33174e-05
1.76826e-05
1.58428e-05
7.12385e-05
0.000125176
0.000121736
7.15582e-05
2.08132e-05
1.74454e-05
3.01187e-05
5.5363e-05
0.000106828
8.3725e-05
1.53622e-05
1.96041e-05
3.82625e-05
6.21352e-05
0.00014245
8.01127e-05
1.72854e-05
2.16435e-05
7.42602e-05
0.000131224
6.40591e-05
3.68325e-05
1.77121e-05
1.62557e-05
7.95094e-05
0.000132923
0.000126024
7.33991e-05
2.13315e-05
1.77029e-05
3.66388e-05
6.22605e-05
0.000130873
7.86128e-05
1.62244e-05
2.10623e-05
7.25559e-05
0.000123817
6.05258e-05
3.6483e-05
1.74496e-05
1.60042e-05
7.40223e-05
0.000118238
0.000112266
6.69155e-05
2.12355e-05
1.76437e-05
3.60815e-05
5.69938e-05
0.000109842
6.9279e-05
1.56799e-05
2.07205e-05
6.60273e-05
0.000104311
5.14211e-05
3.31849e-05
1.74468e-05
1.4989e-05
7.13567e-05
9.08145e-05
5.53742e-05
3.86679e-05
1.93585e-05
1.69599e-05
6.6608e-05
0.000108953
9.88121e-05
6.06645e-05
2.15104e-05
1.75517e-05
3.65656e-05
5.30643e-05
9.89987e-05
6.46119e-05
1.56208e-05
2.07863e-05
6.02562e-05
9.00857e-05
4.89639e-05
3.52447e-05
1.76637e-05
1.49322e-05
6.60462e-05
8.28527e-05
5.23859e-05
3.83786e-05
1.94398e-05
1.67703e-05
6.42163e-05
0.000100155
9.02775e-05
5.83343e-05
2.11693e-05
1.73768e-05
3.6893e-05
5.04696e-05
9.37195e-05
6.23965e-05
1.55369e-05
2.07877e-05
5.71188e-05
8.50955e-05
4.70513e-05
3.54737e-05
1.76365e-05
1.49055e-05
6.16644e-05
7.59731e-05
4.92666e-05
3.78514e-05
1.94648e-05
1.65628e-05
6.00384e-05
9.24973e-05
8.30502e-05
5.49909e-05
2.10111e-05
1.72677e-05
3.66858e-05
4.69905e-05
8.42126e-05
5.75603e-05
1.54554e-05
2.05115e-05
5.26779e-05
7.67042e-05
4.28409e-05
3.37004e-05
1.66618e-05
1.41318e-05
5.40672e-05
6.78852e-05
4.48459e-05
3.54289e-05
1.90641e-05
1.61877e-05
5.55341e-05
8.24547e-05
7.40266e-05
5.09027e-05
2.08743e-05
1.7172e-05
3.54217e-05
4.29035e-05
6.62925e-05
5.60376e-05
1.43581e-05
1.90402e-05
3.73884e-05
4.47891e-05
8.11992e-05
5.343e-05
1.60717e-05
2.11537e-05
4.94572e-05
7.25173e-05
4.22905e-05
3.57088e-05
1.73166e-05
1.45172e-05
5.34248e-05
6.54025e-05
4.48213e-05
3.76101e-05
1.9036e-05
1.59027e-05
5.4523e-05
8.05121e-05
7.17231e-05
5.01013e-05
2.09028e-05
1.70712e-05
3.59561e-05
4.22123e-05
6.48255e-05
5.44391e-05
1.41636e-05
1.91254e-05
3.76284e-05
4.43296e-05
7.89029e-05
5.29343e-05
1.61596e-05
2.12571e-05
4.94134e-05
7.06532e-05
4.25687e-05
3.74543e-05
1.77502e-05
1.47841e-05
5.51718e-05
6.37479e-05
4.44301e-05
3.91581e-05
1.92487e-05
1.61223e-05
5.23277e-05
7.75241e-05
6.92965e-05
4.82011e-05
2.06618e-05
1.65862e-05
3.56334e-05
4.07853e-05
6.14115e-05
5.23648e-05
1.38992e-05
1.88218e-05
3.88953e-05
4.40734e-05
6.70139e-05
5.09534e-05
1.51629e-05
1.96916e-05
3.99157e-05
4.63812e-05
7.89598e-05
5.27637e-05
1.64963e-05
2.09608e-05
4.91617e-05
7.05483e-05
4.27112e-05
3.78033e-05
1.71194e-05
1.42643e-05
5.44112e-05
6.30775e-05
4.45947e-05
4.0321e-05
1.92907e-05
1.61868e-05
5.22533e-05
7.62227e-05
6.85389e-05
4.86045e-05
2.08717e-05
1.6672e-05
3.67058e-05
4.11958e-05
6.07284e-05
5.21217e-05
1.415e-05
1.91243e-05
3.97392e-05
4.42758e-05
6.59203e-05
5.05915e-05
1.55164e-05
1.96313e-05
4.09915e-05
4.63489e-05
7.74865e-05
5.22479e-05
1.62445e-05
2.1089e-05
4.90427e-05
6.929e-05
4.29584e-05
3.9331e-05
1.75832e-05
1.45192e-05
5.51564e-05
6.14613e-05
4.57173e-05
4.26634e-05
1.93604e-05
1.55066e-05
5.25221e-05
6.74088e-05
4.78065e-05
4.32967e-05
1.97767e-05
1.65109e-05
5.31002e-05
7.92383e-05
7.05805e-05
4.98539e-05
2.13403e-05
1.72584e-05
3.98095e-05
4.36333e-05
6.28066e-05
5.56538e-05
1.43143e-05
1.92322e-05
4.27915e-05
4.65723e-05
6.7762e-05
5.32894e-05
1.54851e-05
1.98491e-05
4.36012e-05
4.83193e-05
7.91511e-05
5.34772e-05
1.65415e-05
2.13274e-05
5.05757e-05
7.08699e-05
4.46785e-05
4.15747e-05
1.76789e-05
1.47579e-05
5.67131e-05
6.35749e-05
4.77432e-05
4.46902e-05
1.96399e-05
1.58796e-05
5.484e-05
6.89457e-05
4.95738e-05
4.51227e-05
1.98879e-05
1.64588e-05
5.39249e-05
7.97728e-05
7.13076e-05
5.09657e-05
2.12343e-05
1.78734e-05
4.15654e-05
4.48783e-05
6.18668e-05
5.6765e-05
1.49284e-05
1.9617e-05
4.41802e-05
4.66731e-05
6.68393e-05
5.33118e-05
1.57766e-05
1.99929e-05
4.49247e-05
4.84712e-05
7.71178e-05
5.30031e-05
1.65812e-05
2.15175e-05
5.03358e-05
6.9144e-05
4.45691e-05
4.22193e-05
1.81645e-05
1.50434e-05
5.65973e-05
6.15827e-05
4.68568e-05
4.44705e-05
1.95165e-05
1.54127e-05
5.24489e-05
6.62288e-05
4.93654e-05
4.52714e-05
1.96341e-05
1.56381e-05
5.42795e-05
6.91464e-05
5.08669e-05
4.78551e-05
1.9945e-05
1.66483e-05
5.52764e-05
7.97586e-05
7.10077e-05
5.2375e-05
2.12484e-05
1.71746e-05
4.25945e-05
4.53281e-05
6.37399e-05
5.74348e-05
1.44764e-05
1.95492e-05
4.51659e-05
4.84106e-05
6.71699e-05
5.38747e-05
1.57974e-05
1.99211e-05
4.5842e-05
5.03926e-05
6.94498e-05
5.42754e-05
1.57876e-05
2.00134e-05
4.85689e-05
5.15231e-05
7.90773e-05
5.54059e-05
1.66049e-05
2.14041e-05
5.27597e-05
7.11464e-05
4.68768e-05
4.48564e-05
1.80302e-05
1.49262e-05
5.9178e-05
6.36933e-05
4.9205e-05
4.71554e-05
1.98317e-05
1.58651e-05
5.43453e-05
6.82555e-05
5.15571e-05
4.77354e-05
2.00403e-05
1.60027e-05
5.63673e-05
7.08527e-05
5.3065e-05
5.04429e-05
2.02592e-05
1.68907e-05
5.71157e-05
8.08757e-05
7.25683e-05
5.44448e-05
2.16429e-05
1.80404e-05
4.59957e-05
4.82732e-05
6.4841e-05
6.03863e-05
1.50261e-05
1.98893e-05
4.7933e-05
5.04003e-05
6.84281e-05
5.49501e-05
1.57734e-05
2.00221e-05
4.79391e-05
5.18699e-05
7.02516e-05
5.60979e-05
1.59139e-05
2.0351e-05
5.05524e-05
5.30211e-05
7.9807e-05
5.65936e-05
1.68623e-05
2.1589e-05
5.43165e-05
7.21138e-05
4.79019e-05
4.54599e-05
1.75321e-05
1.48295e-05
5.87664e-05
6.44219e-05
5.07609e-05
4.83462e-05
1.99447e-05
1.58717e-05
5.64269e-05
6.88964e-05
5.28155e-05
4.88173e-05
2.00514e-05
1.58011e-05
5.5625e-05
7.07784e-05
5.4312e-05
5.02429e-05
2.00706e-05
1.60837e-05
5.88708e-05
7.2522e-05
5.50721e-05
5.31657e-05
2.02646e-05
1.68459e-05
5.86923e-05
8.14758e-05
7.38823e-05
5.62629e-05
2.16778e-05
1.82663e-05
4.78616e-05
5.03757e-05
6.55947e-05
6.18309e-05
1.51888e-05
2.01536e-05
4.95652e-05
5.21016e-05
6.87242e-05
5.57457e-05
1.60661e-05
2.02891e-05
4.99839e-05
5.34004e-05
7.02942e-05
5.66482e-05
1.59422e-05
2.01606e-05
5.13362e-05
5.45761e-05
7.28255e-05
5.90081e-05
1.61424e-05
2.04261e-05
5.43016e-05
5.59424e-05
8.27815e-05
6.01977e-05
1.69771e-05
2.18813e-05
5.78614e-05
7.50887e-05
5.20166e-05
5.00994e-05
1.8254e-05
1.5107e-05
6.40143e-05
6.75168e-05
5.39353e-05
5.19655e-05
2.00903e-05
1.58495e-05
5.86792e-05
7.18779e-05
5.58517e-05
5.20285e-05
2.02543e-05
1.61107e-05
5.93505e-05
7.35713e-05
5.71773e-05
5.3692e-05
2.02493e-05
1.61405e-05
6.19158e-05
7.57963e-05
5.84345e-05
5.64509e-05
2.05e-05
1.71701e-05
6.22226e-05
8.48912e-05
7.72768e-05
5.97153e-05
2.19388e-05
1.84506e-05
5.15305e-05
5.39273e-05
6.86618e-05
6.45793e-05
1.55226e-05
2.03971e-05
5.30272e-05
5.56261e-05
7.20553e-05
5.92651e-05
1.62238e-05
2.05647e-05
5.29066e-05
5.70543e-05
7.30759e-05
5.91371e-05
1.62677e-05
2.05206e-05
5.44093e-05
5.77212e-05
7.5411e-05
6.16513e-05
1.64596e-05
2.07273e-05
5.77016e-05
5.8899e-05
8.48544e-05
6.32733e-05
1.71875e-05
2.21832e-05
6.10956e-05
7.78215e-05
5.50875e-05
5.31816e-05
1.84878e-05
1.5421e-05
6.66047e-05
7.0154e-05
5.70546e-05
5.47388e-05
2.04379e-05
1.62182e-05
6.1033e-05
7.39993e-05
5.89693e-05
5.48403e-05
2.0622e-05
1.63511e-05
6.13454e-05
7.56991e-05
6.01287e-05
5.63377e-05
2.05007e-05
1.64318e-05
6.40159e-05
7.75448e-05
6.08971e-05
5.91353e-05
2.06893e-05
1.71974e-05
6.43344e-05
8.63441e-05
7.90932e-05
6.22093e-05
2.22927e-05
1.8745e-05
5.42702e-05
5.64728e-05
7.00306e-05
6.70891e-05
1.56654e-05
2.06312e-05
5.54698e-05
5.78716e-05
7.27148e-05
6.04871e-05
1.63027e-05
2.07439e-05
5.5513e-05
5.91158e-05
7.4054e-05
6.10589e-05
1.64286e-05
2.05865e-05
5.67146e-05
5.99652e-05
7.59631e-05
6.27203e-05
1.63916e-05
2.05558e-05
5.86196e-05
6.16552e-05
7.89903e-05
6.62827e-05
1.64372e-05
2.07804e-05
6.18396e-05
6.27694e-05
8.88833e-05
6.69571e-05
1.73094e-05
2.24381e-05
6.47649e-05
8.18353e-05
5.86882e-05
5.67162e-05
1.8553e-05
1.54234e-05
7.03733e-05
7.38532e-05
6.12694e-05
5.91365e-05
2.06263e-05
1.64713e-05
6.55264e-05
7.77203e-05
6.31228e-05
5.9343e-05
2.08238e-05
1.65032e-05
6.59494e-05
8.00169e-05
6.47571e-05
6.09966e-05
2.06732e-05
1.65354e-05
6.91223e-05
8.28954e-05
6.61209e-05
6.41742e-05
2.09138e-05
1.7493e-05
6.94015e-05
9.18153e-05
8.41902e-05
6.70894e-05
2.26708e-05
1.88132e-05
5.90183e-05
6.10234e-05
7.57653e-05
7.26745e-05
1.56875e-05
2.0849e-05
6.08017e-05
6.34657e-05
7.82953e-05
6.67498e-05
1.66325e-05
2.09751e-05
6.03159e-05
6.45089e-05
7.92845e-05
6.6167e-05
1.67569e-05
2.08575e-05
6.19009e-05
6.53413e-05
8.13e-05
6.86001e-05
1.66582e-05
2.1121e-05
6.49015e-05
6.60369e-05
9.04408e-05
6.92759e-05
1.75965e-05
2.30311e-05
6.76536e-05
8.35265e-05
6.1776e-05
6.03009e-05
1.89544e-05
1.56326e-05
7.33529e-05
7.58684e-05
6.442e-05
6.27135e-05
2.09515e-05
1.67608e-05
6.86755e-05
7.9528e-05
6.624e-05
6.28203e-05
2.10878e-05
1.66885e-05
6.85324e-05
8.14508e-05
6.7475e-05
6.43251e-05
2.09805e-05
1.68602e-05
7.10009e-05
8.42495e-05
6.89258e-05
6.78977e-05
2.14303e-05
1.78243e-05
7.21371e-05
9.33556e-05
8.59463e-05
7.02917e-05
2.3172e-05
1.91445e-05
6.29202e-05
6.42781e-05
7.83997e-05
7.64424e-05
1.58721e-05
2.10263e-05
6.44017e-05
6.67408e-05
8.08099e-05
6.99418e-05
1.67898e-05
2.13253e-05
6.43131e-05
6.79555e-05
8.19786e-05
6.97785e-05
1.68873e-05
2.13584e-05
6.61987e-05
6.90031e-05
8.4166e-05
7.19967e-05
1.70024e-05
2.18316e-05
6.97522e-05
6.98977e-05
9.34664e-05
7.31662e-05
1.8291e-05
2.38672e-05
7.19726e-05
8.67236e-05
6.64631e-05
6.60968e-05
1.96553e-05
1.6379e-05
7.85061e-05
8.04499e-05
6.91789e-05
6.79659e-05
2.14154e-05
1.70616e-05
7.4305e-05
8.4266e-05
7.11278e-05
6.82283e-05
2.16965e-05
1.70545e-05
7.41708e-05
8.66344e-05
7.19817e-05
7.09152e-05
2.20111e-05
1.84801e-05
7.40185e-05
9.48065e-05
8.76012e-05
7.283e-05
2.43079e-05
2.0009e-05
6.69481e-05
6.76393e-05
8.00103e-05
7.87918e-05
1.66307e-05
2.19042e-05
6.85525e-05
6.97922e-05
8.27187e-05
7.37332e-05
1.74054e-05
2.21375e-05
6.84993e-05
7.11265e-05
8.46583e-05
7.29617e-05
1.74644e-05
2.25354e-05
7.20761e-05
7.18114e-05
9.28519e-05
7.41319e-05
1.86473e-05
2.44973e-05
7.3259e-05
8.6439e-05
6.79582e-05
6.7888e-05
2.00186e-05
1.64585e-05
7.93919e-05
8.00541e-05
7.05635e-05
7.01379e-05
2.18952e-05
1.72995e-05
7.44024e-05
8.41567e-05
7.27953e-05
7.10655e-05
2.23586e-05
1.77434e-05
7.53473e-05
8.66936e-05
7.40519e-05
7.40667e-05
2.28079e-05
1.89017e-05
7.59098e-05
9.45446e-05
8.81492e-05
7.55256e-05
2.51784e-05
2.05676e-05
7.0522e-05
7.0805e-05
8.14678e-05
8.16756e-05
1.69272e-05
2.25778e-05
7.22748e-05
7.24767e-05
8.41947e-05
7.60392e-05
1.78243e-05
2.27776e-05
7.23267e-05
7.39007e-05
8.65903e-05
7.54166e-05
1.79821e-05
2.3367e-05
7.63444e-05
7.49081e-05
9.51305e-05
7.73067e-05
1.94186e-05
2.55465e-05
7.6845e-05
8.89378e-05
7.21432e-05
7.33598e-05
2.08086e-05
1.71241e-05
8.3953e-05
8.3787e-05
7.49096e-05
7.5776e-05
2.3002e-05
1.82315e-05
7.95875e-05
8.80811e-05
7.74049e-05
7.64024e-05
2.34978e-05
1.87083e-05
7.94081e-05
9.12383e-05
7.92093e-05
8.06168e-05
2.42378e-05
2.0122e-05
8.16031e-05
9.97592e-05
9.34347e-05
8.13635e-05
2.65748e-05
2.16404e-05
7.70094e-05
7.65349e-05
8.734e-05
8.79761e-05
1.77387e-05
2.35275e-05
7.92068e-05
7.86556e-05
9.12524e-05
8.2513e-05
1.87218e-05
2.46734e-05
8.17884e-05
8.03285e-05
9.95287e-05
8.18348e-05
2.053e-05
2.70124e-05
8.12487e-05
9.35627e-05
7.71097e-05
7.8904e-05
2.22082e-05
1.8088e-05
8.89177e-05
8.82709e-05
8.01102e-05
8.1599e-05
2.4271e-05
1.92728e-05
8.44071e-05
9.26171e-05
8.26386e-05
8.26993e-05
2.49574e-05
1.98609e-05
8.45567e-05
9.65271e-05
8.50819e-05
8.7643e-05
2.58407e-05
2.14751e-05
8.79896e-05
0.000106015
9.93431e-05
8.80669e-05
2.83136e-05
2.30719e-05
8.47535e-05
8.31058e-05
9.38974e-05
9.54422e-05
1.86867e-05
2.50505e-05
8.71247e-05
8.60343e-05
9.9163e-05
8.98222e-05
2.0054e-05
2.63731e-05
9.0361e-05
8.80614e-05
0.000108396
8.99528e-05
2.15671e-05
2.87944e-05
9.01721e-05
0.000102403
8.64763e-05
8.87243e-05
2.42533e-05
1.99382e-05
9.77969e-05
9.72563e-05
8.94336e-05
9.19053e-05
2.65097e-05
2.12478e-05
9.38144e-05
0.000103249
9.23078e-05
9.56321e-05
2.78946e-05
2.32648e-05
9.45055e-05
0.00011304
0.000106756
9.49699e-05
3.07421e-05
2.51071e-05
9.29418e-05
9.07124e-05
0.000101948
0.00010255
2.0354e-05
2.76946e-05
9.75879e-05
9.34488e-05
0.000112399
9.57293e-05
2.30956e-05
3.08309e-05
9.56234e-05
0.000106949
9.09273e-05
9.22093e-05
2.50683e-05
2.00104e-05
0.000103249
0.000101287
9.35494e-05
9.51821e-05
2.72463e-05
2.18513e-05
9.62562e-05
0.000105765
9.56407e-05
9.90039e-05
2.90081e-05
2.41678e-05
9.68256e-05
0.000114765
0.000109195
9.81149e-05
3.21289e-05
2.63056e-05
9.72897e-05
9.4728e-05
0.000104579
0.000105258
2.16286e-05
2.92691e-05
0.00010269
9.73172e-05
0.000114609
9.94839e-05
2.45307e-05
3.27369e-05
9.96765e-05
0.000109513
9.60049e-05
9.89426e-05
2.69663e-05
2.18217e-05
0.000106761
0.000105382
9.79102e-05
0.000103528
2.93677e-05
2.3957e-05
9.94935e-05
0.000114988
0.000110062
0.000100259
3.26631e-05
2.72893e-05
9.91498e-05
9.65349e-05
0.000105609
0.000106145
2.2369e-05
3.04433e-05
0.000105234
9.92429e-05
0.000115083
0.000100842
2.52709e-05
3.40528e-05
0.000101693
0.000110409
9.84931e-05
0.000102318
2.79941e-05
2.27177e-05
0.000108642
0.00010695
0.000100898
0.000107531
3.07642e-05
2.53857e-05
0.0001025
0.000116698
0.000111977
0.000103028
3.4155e-05
2.80026e-05
0.000103067
9.97258e-05
0.000108227
0.000111325
2.19057e-05
3.05549e-05
0.00010843
0.000102004
0.000117487
0.000102726
2.57968e-05
3.51524e-05
0.00010374
0.000112897
0.000101894
0.000107209
2.93388e-05
2.39103e-05
0.000111348
0.000110088
0.000105059
0.000113728
3.24074e-05
2.70171e-05
0.000107861
0.000121643
0.000117093
0.000109246
3.62303e-05
2.99286e-05
0.000111793
0.00010649
0.000114905
0.000116665
2.42898e-05
3.30617e-05
0.000118708
0.000109527
0.000126843
0.000112967
2.72114e-05
3.61555e-05
0.000112536
0.000122081
0.000110576
0.000119991
3.14542e-05
2.72172e-05
0.000119631
0.000125036
0.000121092
0.000119228
3.77639e-05
3.19681e-05
0.000118595
0.00011244
0.000121647
0.000122467
2.61548e-05
3.53638e-05
0.000125114
0.000116397
0.000132691
0.000117967
2.95591e-05
3.94467e-05
0.000119782
0.000127968
0.000117757
0.000127968
3.32997e-05
2.82923e-05
0.00012718