/*--------------------------------*- C++ -*----------------------------------*\
| =========                 |                                                 |
| \\      /  F ield         | OpenFOAM: The Open Source CFD Toolbox           |
|  \\    /   O peration     | Version:  v2006                                 |
|   \\  /    A nd           | Website:  www.openfoam.com                      |
|    \\/     M anipulation  |                                                 |
\*---------------------------------------------------------------------------*/
FoamFile
{
    version     2.0;
    format      ascii;
    class       volScalarField;
    location    "0.024";
    object      isentropic(p);
}
// * * * * * * * * * * * * * * * * * * * * * * * * * * * * * * * * * * * * * //

dimensions      [1 -1 -2 0 0 0 0];


internalField   nonuniform List<scalar> 
11076
(
200361
200361
200361
200361
200361
200361
200361
200361
200361
200361
200361
200361
200361
200361
200361
200361
200361
200361
200361
200361
200361
200361
200361
200361
200361
200361
200361
200361
200361
200361
200361
200361
200361
200361
200361
200361
200361
200361
200361
200361
200361
200361
200361
200362
200365
200368
200369
200370
200370
200369
200369
200368
200368
200368
200368
200368
200368
200368
200368
200367
200367
200367
200366
200367
200366
200376
200374
200372
200391
200470
200468
200083
199709
200434
200550
200555
200367
199379
199063
200293
200543
200513
200209
198779
198527
200125
200476
200433
200031
198298
198093
199947
200391
200346
199864
197908
197743
199784
200300
200251
199704
197590
197452
199629
200207
200157
199554
197322
197204
199483
200112
200062
199414
197091
196988
199347
200018
199970
199282
196887
196795
199220
199927
199879
199157
196704
196620
199099
199838
199792
199040
196537
196460
198984
199752
199707
198928
196384
196313
198876
199669
199626
198822
196241
196175
198773
199589
199548
198721
196107
196045
198674
199512
199472
198625
195981
195922
198580
199438
199399
198533
195862
195806
198490
199366
199328
198444
195749
195695
198403
199297
199260
198359
195640
195589
198320
199230
199195
198278
195537
195488
198240
199165
199131
198199
195437
195390
198163
199103
199070
198124
195342
195296
198089
199043
199011
198051
195249
195205
198018
198985
198953
197981
195159
195116
197949
198928
198898
197913
195072
195030
197883
198874
198845
197847
194986
194946
197818
198821
198793
197784
194903
194863
197756
198771
198744
197723
194821
194782
197696
198722
198696
197663
194741
194702
197637
198675
198650
197606
194662
194624
197581
198630
198606
197550
194584
194546
197526
198586
198564
197495
194506
194468
197473
198545
198523
197443
194427
194389
197422
198506
198485
197392
194348
194309
197373
198468
198449
197344
194268
194228
197325
198433
198415
197298
194186
194145
197281
198400
198383
197254
194102
194060
197238
198370
198354
197213
194015
193972
197198
198342
198328
197174
193925
193880
197160
198318
198305
197137
193831
193782
197125
198297
198286
197103
193730
193679
197092
198280
198271
197072
193624
193569
197063
198267
198261
197044
193509
193450
197037
198260
198255
197019
193385
193320
197013
198256
198253
196996
193248
193175
196992
198257
198256
196975
193095
193014
196972
198262
198264
196956
192923
192832
196953
198273
198275
196936
192728
192623
196931
198284
198287
196911
192503
192381
196905
198296
198298
196881
192242
192098
196869
198305
198305
196838
191936
191766
196819
198309
198301
196777
191575
191373
196745
198298
198282
196688
191146
190907
196640
198269
198241
196564
190640
190358
196495
198215
198175
196398
190047
189722
196304
198132
198077
196182
189366
188997
196062
198018
197947
195915
188599
188192
195770
197872
197784
195598
187759
187320
195431
197694
197593
195237
186863
186398
195056
197492
197383
194848
185920
185437
194655
197274
197154
194437
184952
184472
194231
197040
196912
194003
183997
183531
193785
196794
196660
193551
183073
182628
193328
196541
196401
193090
182188
181762
192861
196280
196137
192622
181345
180943
192393
196015
195868
192155
180550
180172
191926
195746
195595
191691
179803
179451
191465
195473
195319
191232
179108
178780
191013
195197
195042
190787
178462
178160
190573
194919
194763
190353
177866
177588
190146
194642
194486
189933
177317
177060
189732
194365
194210
189526
176810
176575
189333
194090
193936
189134
176346
176130
188950
193819
193667
188763
175922
175730
188589
193540
193396
188417
175555
175366
188251
193280
193308
188263
175407
175698
188450
193479
193590
188583
175812
197223
198276
198598
198674
198639
198510
198402
198139
197968
197577
197326
196783
196418
195664
195129
194012
193263
191065
190245
189317
187391
185195
183474
180667
176788
172654
165240
164351
171687
175858
174921
170767
163599
162953
170067
174044
173365
169519
162548
162471
169419
173234
172904
169166
162362
162370
169145
172936
172684
168930
162272
162295
168953
172718
172506
168777
162193
162210
168791
172536
172318
168611
162104
162116
168620
172342
172120
168436
162006
162014
168439
172141
171913
168249
161898
161899
168245
171927
171693
168049
161778
161773
168039
171703
171461
167837
161645
161633
167818
171463
171214
167608
161496
161478
167582
171212
170954
167364
161333
161307
167326
170942
170676
167099
161152
161119
167055
170658
170379
166821
160951
160911
166758
170353
170060
166515
160727
160680
166441
170029
169721
166185
160480
160422
166096
169679
169357
165827
160207
160139
165727
169309
168972
165443
159907
159823
165327
168910
168555
165026
159572
159477
164898
168486
168113
164575
159204
159091
164432
168030
167636
164091
158798
158673
163938
167548
167134
163570
158355
158208
163404
167031
166590
163010
157866
157705
162839
166485
166025
162421
157339
157153
162232
165904
165409
161784
156758
156562
161595
165293
164788
161139
156157
155935
160929
164654
164113
160447
155506
155283
160247
163993
163450
159762
154853
154612
159550
163328
162738
159064
154209
154008
158889
162643
162138
158500
153716
153567
158326
162040
161590
157935
153299
153090
157691
161395
160825
157258
152736
152506
157020
160658
160195
156549
152042
151784
156335
160062
159717
155960
151319
150934
155715
159647
159459
155332
150366
149923
155101
159521
159480
154707
149309
148705
154381
159678
159514
153855
148011
147435
153612
159695
162635
153648
147153
147360
156651
165030
165922
156306
146723
145081
153058
162098
163517
153578
144973
144772
154333
165194
166599
154752
144465
144199
155146
167696
168998
155635
143953
143793
156259
170346
172018
156765
143640
143359
156584
171965
167125
153643
142741
142750
154812
169155
170913
156112
142768
142737
156737
172016
170806
155330
142438
141736
150771
164154
164763
149964
141618
141450
148882
160274
164025
150731
141269
141235
153281
167942
174034
156698
141327
141087
159771
178084
177736
162741
141812
145047
169193
185467
193456
177099
152002
158398
183176
198047
200172
188471
167800
176357
196820
205272
205478
202130
185480
191104
203090
204428
203952
205185
197570
199795
203419
201343
200670
201095
200367
200404
201067
200662
200615
200955
200999
201105
201197
200975
200546
200569
201299
201450
201294
201454
200915
200837
201643
201663
201368
201555
201130
201043
201661
201580
200873
200919
201084
201028
201670
201692
201020
200915
201055
201147
201764
201807
201271
201152
201166
201350
201855
201923
201516
201339
201373
201607
201959
201967
201692
201410
201575
201794
201957
201938
201801
201500
201539
201827
201912
201888
201838
201477
201520
201897
201841
201770
201956
201588
201619
201952
201696
201665
201866
201605
201648
201868
201606
201546
201817
201669
201637
201763
201533
201485
201737
201665
201656
201674
201423
201368
201624
201634
201628
201631
201350
201321
201607
201648
201553
201415
201186
201258
201456
201594
201590
201439
201121
201048
201347
201533
201355
201406
200721
201111
201439
201552
201525
201429
200958
200888
201101
201447
201529
201454
201076
200938
201389
201523
201467
201265
200880
200499
201296
201263
201507
201366
200950
200777
201349
201465
201390
200953
200740
200940
201392
201499
201473
201329
200782
200661
200940
201339
201494
201391
200933
200793
201336
201485
201324
200963
200614
200877
201369
201489
201497
201333
200779
200683
201146
201417
201150
201172
200210
200729
201288
201467
201430
201287
200578
200501
200767
201317
201449
201326
200716
200608
201135
201426
201158
201156
200178
200715
201341
201467
201446
201181
200609
200127
201124
201144
201463
201291
200634
200490
201266
201417
201303
200686
200413
200615
201321
201446
201435
201109
200539
199998
201050
201089
201350
201530
200516
200271
201204
201258
201522
201362
200713
200512
201255
201456
201252
200781
200323
200694
201354
201498
201504
201210
200600
200099
201106
201187
201503
201307
200608
200377
201227
201424
201256
200660
200282
200584
201338
201475
201463
201109
200492
199842
201105
201091
201522
201152
200533
200202
200838
201270
201514
201324
200596
200399
201252
201468
201240
200674
200226
200531
201253
201478
201397
201171
200227
200136
200460
201173
201358
201341
200383
200056
201028
201243
201521
201322
200543
200298
201207
201442
201169
200623
200063
200375
201235
201444
201407
201007
200284
199664
201034
201050
201517
201113
200377
200013
200796
201230
201471
201273
200418
200145
201135
201388
201101
200425
199962
200307
201243
201374
201229
200890
199999
200420
201290
201486
201405
201126
200177
199874
200559
201089
201384
201177
200244
200117
200913
201354
200948
200903
199455
200169
201066
201438
201137
200722
199769
200213
201187
201412
201323
201021
199926
199663
200357
200972
201398
200881
200109
199780
200586
201129
201387
201165
200189
199884
201013
201319
200950
200254
199661
199961
201053
201235
201036
200613
199588
200056
201084
201343
201262
200961
199768
199579
200197
200924
201181
201064
199892
199471
200581
200993
201303
201067
200005
199702
200895
201220
200812
200126
199395
199774
200920
201173
200957
200500
199404
199929
201041
201272
201184
200829
199595
199298
200076
200763
201085
200895
199668
199236
200413
200867
201201
200940
199777
199465
200762
201120
200709
200001
199186
199558
200831
201041
200810
200310
199122
199664
200904
201141
201078
200571
199447
198708
200260
200555
201043
200665
199385
198909
200273
200708
201086
200799
199526
199336
200517
201005
200460
200135
198544
199236
200591
200970
200617
200179
198726
199424
200701
201029
200892
200483
199009
198639
199664
200412
200791
200559
199110
198636
200009
200545
200912
200637
199217
199018
200283
200828
200254
199883
198170
198960
200398
200805
200425
199920
198357
199113
200496
200850
200726
200298
198702
198211
199376
200166
200587
200331
198766
198227
199718
200307
200721
200434
198906
198662
200061
200640
200009
199559
197771
198577
200154
200600
200200
199651
197982
198720
200258
200648
200492
199999
198270
197738
199080
199889
200368
200033
198327
197789
199422
200064
200510
200201
198529
198271
199814
200447
199739
199219
197329
198170
199883
200348
199884
199291
197438
198275
199957
200381
200236
199710
197815
197238
198728
199595
200123
199766
197932
197321
199093
199782
200261
199927
198123
197893
199553
200206
199375
198749
196723
197616
199511
200024
199552
198900
196901
197833
199665
200111
199990
199383
197366
196633
198388
199262
199859
199468
197452
196810
198771
199497
199985
199616
197770
197223
199172
199832
199018
198204
196218
197224
199175
199697
199616
198993
196740
196017
197847
198883
199531
199065
196882
196146
198273
199112
199661
199249
197171
196682
198855
199563
198523
197580
195465
196425
198668
199247
198809
197963
195719
196788
199002
199477
199392
198623
196359
195270
197553
198473
199224
198636
196493
195953
198478
199193
198132
197017
194802
195731
198234
198872
198236
197269
194802
195948
198423
198944
198911
197984
195555
194380
197031
197981
198821
198181
195735
195174
197963
198771
197635
196494
193956
194988
197716
198426
197647
196568
193814
195121
197802
198467
198385
197477
194643
193611
196262
197457
198316
197699
194950
194506
197300
198325
197188
196080
193200
193883
197073
197821
196974
195860
192708
194135
197181
197878
197803
196704
193706
192496
195625
196828
197801
197091
194141
193542
196773
197828
196601
195359
192254
192996
196361
197236
197024
195782
192245
190853
194360
195797
196966
196096
192684
192045
195800
196981
195837
194277
190789
192906
196151
196906
196965
195725
192053
189391
193205
194880
196104
195064
191337
190512
194604
195941
194755
193097
189206
191322
195176
196066
196257
194799
190662
189209
193229
194829
195389
194247
189795
188720
193388
195011
193404
191567
187055
189383
193838
194935
195035
193344
188770
187300
191946
193822
194927
194341
190597
188014
192838
194487
192173
190221
185505
188051
192540
193731
193782
192183
187232
185976
190766
192716
193954
193406
189633
187731
192629
194059
192488
190517
185019
182695
188197
190435
192208
191005
185759
185180
190833
192676
192809
190909
184668
180002
187055
189665
191021
189195
182709
181644
188640
190997
190402
187767
180179
178904
185916
188671
189939
188013
180573
178134
186755
189493
188650
185605
176647
174776
183347
186730
188826
187879
181560
176877
186268
188948
187333
184589
174540
173641
184458
187239
187478
183926
172245
164086
176095
181176
183927
181160
171337
171090
182211
185262
183532
179096
165381
163932
178947
182968
180728
175484
158164
154631
174164
179494
178157
172017
150707
146158
169535
176067
174134
167202
143397
141942
166790
174559
175026
166263
141123
140021
165389
174976
174393
164045
139052
138289
163074
174124
173638
162021
137840
137521
161337
173461
172895
160425
137266
137076
159785
172574
171865
158891
136879
136771
158257
171411
170590
157400
136653
136667
156861
170101
169312
156143
136680
136834
155783
168915
168185
155228
136958
137194
155004
167831
167151
154559
137371
137653
154441
166856
166216
154092
137865
138212
154036
165953
165375
153769
138443
138841
153799
165170
164644
153603
139086
139512
153684
164510
164048
153541
139757
140193
153681
163987
163571
153580
140431
140864
153748
163581
163223
153681
141091
141513
153886
163304
162988
153842
141724
142128
154059
163107
162845
154040
142326
142707
154276
162998
162769
154271
142889
143247
154509
162954
162762
154516
143412
143748
154767
162970
162800
154784
143898
144214
155031
163028
162883
155055
144350
144645
155310
163126
162994
155339
144768
145045
155586
163249
163138
155620
145157
145415
155870
163397
163296
155908
145517
145760
156148
163557
163472
156189
145853
146081
156431
163732
163651
156473
146166
146381
156703
163910
163840
156745
146459
146661
156976
164095
164027
157017
146733
146925
157236
164278
164217
157276
146990
147171
157494
164462
164399
157529
147230
147403
157736
164640
164582
157768
147457
147620
157974
164817
164757
158001
147669
147824
158196
164985
164928
158218
147867
148014
158412
165152
165091
158430
148053
148193
158611
165308
165250
158624
148226
148358
158805
165462
165400
158813
148387
148512
158982
165606
165546
158986
148536
148655
159154
165747
165682
159154
148674
148786
159310
165877
165815
159305
148801
148907
159462
166006
165938
159454
148918
149019
159600
166124
166058
159588
149026
149122
159735
166239
166168
159719
149125
149217
159856
166345
166276
159836
149216
149304
159976
166449
166375
159952
149300
149384
160082
166544
166472
160055
149377
149458
160187
166637
166560
160157
149448
149526
160280
166721
166646
160247
149514
149589
160373
166805
166725
160337
149574
149647
160454
166880
166802
160416
149630
149700
160537
166955
166872
160496
149682
149750
160608
167022
166941
160565
149729
149796
160681
167088
167003
160636
149773
149838
160743
167147
167065
160696
149814
149876
160807
167206
167119
160758
149851
149912
160861
167259
167174
160810
149885
149944
160917
167311
167221
160865
149916
149974
160964
167357
167270
160910
149945
150001
161014
167403
167311
160958
149971
150026
161054
167443
167355
160997
149995
150050
161098
167485
167392
161039
150017
150071
161134
167521
167431
161074
150037
150090
161173
167558
167464
161112
150055
150107
161204
167591
167499
161143
150072
150123
161239
167625
167529
161177
150087
150137
161266
167654
167561
161203
150099
150148
161297
167683
167586
161232
150109
150156
161319
167707
167612
161252
150116
150162
161344
167732
167632
161275
150121
150166
161360
167751
167654
161291
150124
150169
161380
167771
167671
161310
150126
150170
161392
167787
167690
161321
150127
150170
161409
167805
167703
161337
150126
150169
161417
167817
167719
161345
150124
150166
161431
167832
167729
161357
150121
150163
161436
167842
167742
161362
150117
150158
161447
167853
167749
161372
150113
150153
161450
167860
167759
161374
150107
150147
161458
167869
167764
161381
150100
150140
161458
167874
167772
161381
150093
150133
161463
167881
167775
161386
150086
150125
161462
167883
167780
161384
150077
150116
161465
167888
167781
161387
150069
150108
161462
167888
167785
161383
150060
150099
161464
167892
167785
161385
150051
150089
161460
167892
167788
161381
150041
150080
161461
167894
167786
161382
150032
150070
161456
167893
167788
161376
150021
150059
161456
167894
167785
161376
150010
150049
161449
167891
167786
161368
149998
150037
161448
167891
167782
161367
149987
150025
161441
167888
167781
161359
149973
150011
161438
167886
167776
161356
149960
149998
161430
167882
167774
161346
149944
149982
161425
167879
167768
161342
149930
149967
161421
167874
167766
161337
149913
149963
161412
167873
167768
161331
149911
149952
161415
167880
167777
161334
149894
149964
161445
167929
167856
161397
149906
150072
161614
168181
168419
161778
150182
150715
162439
169353
170518
163381
151470
152461
164564
171822
173004
165763
153511
179987
184047
185868
188479
190323
191082
191961
193824
194970
196233
197176
197845
198344
198703
198969
199171
199331
199463
199578
199680
199770
199852
199914
199983
199993
200050
199991
200085
200021
200152
200138
199582
199456
199433
199485
199496
199536
199554
199591
199613
199646
199668
199698
199719
199744
199761
199780
199791
199800
199801
199797
199786
199771
199751
199729
199705
199681
199658
199634
199611
199588
199565
199543
199523
199504
199490
199482
199481
199488
199504
199530
199565
199608
199657
199710
199765
199820
199872
199921
199963
199999
200028
200049
200063
200071
200072
200068
200059
200046
200029
200009
199988
199964
199940
199915
199890
199865
199839
199815
199792
199768
199747
199726
199706
199688
199670
199654
199639
199625
199613
199602
199592
199583
199575
199568
199562
199558
199554
199552
199550
199550
199551
199552
199554
199558
199562
199567
199573
199580
199588
199596
199605
199615
199626
199637
199649
199662
199675
199689
199704
199719
199735
199752
199770
199788
199808
199829
199852
199877
199903
199931
199960
199990
200020
200050
200079
200108
200137
200165
200191
200214
200236
200259
200285
200316
200344
200359
200365
200367
200367
200366
200365
200364
200363
200362
200362
200361
200361
200361
200361
200361
200361
200361
200361
200361
200361
200361
200361
200361
200361
200361
200361
200361
200361
200361
200361
200361
200361
200361
200361
200361
200361
200361
200361
200361
200361
200361
200361
200361
200361
200361
200361
200361
200361
200360
200357
200354
200353
200355
200362
200369
200377
200382
200383
200381
200377
200373
200371
200370
200369
200367
200367
200366
200366
200367
200369
200381
200418
200541
200661
200676
200646
200634
200618
200599
200579
200555
200532
200505
200479
200451
200425
200396
200369
200340
200313
200285
200258
200230
200204
200176
200151
200124
200099
200072
200048
200022
199999
199973
199951
199926
199904
199879
199858
199834
199814
199790
199770
199748
199728
199706
199687
199666
199648
199626
199609
199588
199571
199551
199535
199515
199499
199480
199465
199446
199432
199413
199400
199381
199369
199351
199340
199323
199312
199296
199286
199271
199263
199248
199241
199227
199222
199209
199206
199194
199193
199182
199184
199175
199179
199172
199178
199172
199182
199177
199190
199188
199204
199201
199220
199217
199239
199235
199258
199255
199277
199269
199290
199278
199295
199279
199290
199269
199271
199244
199238
199202
199185
199139
199112
199060
199026
198969
198927
198866
198819
198756
198708
198646
198596
198534
198482
198418
198364
198300
198244
198179
198122
198056
197998
197932
197874
197808
197749
197682
197622
197554
197494
197426
197366
197293
197233
197157
197105
197096
197129
198252
198256
198617
198604
198685
198698
198733
198630
198266
198286
198638
198690
198342
198367
198700
198779
198834
198752
198422
198447
198760
198810
198499
198525
198819
198882
198930
198868
198576
198603
198878
198925
198654
198681
198937
198976
199020
198984
198732
198760
198997
199044
198811
198840
199059
199066
199117
199107
198891
198920
199122
199172
198973
199003
199186
199170
199225
199239
199056
199086
199251
199306
199139
199168
199316
199278
199328
199372
199222
199250
199380
199438
199305
199334
199447
199380
199452
199510
199387
199414
199514
199587
199468
199491
199582
199548
199651
199669
199541
199554
199655
199748
199598
199602
199710
199758
199860
199801
199649
199643
199745
199833
199683
199661
199757
199940
199990
199836
199694
199653
199744
199811
199680
199629
199712
200003
199983
199765
199652
199594
199669
199707
199617
199560
199618
199940
199873
199647
199581
199530
199574
199594
199552
199504
199539
199801
199736
199550
199527
199490
199511
199521
199507
199479
199498
199679
199634
199508
199495
199473
199500
199509
199487
199470
199507
199601
199581
199512
199485
199472
199519
199524
199488
199479
199537
199575
199582
199543
199495
199489
199557
199563
199504
199500
199576
199595
199608
199583
199515
199514
199596
199605
199531
199531
199618
199626
199651
199630
199548
199550
199643
199656
199568
199571
199668
199680
199710
199682
199589
199593
199693
199708
199611
199616
199718
199739
199769
199735
199635
199641
199745
199762
199660
199667
199771
199798
199827
199790
199686
199694
199798
199817
199713
199721
199826
199856
199884
199845
199741
199749
199853
199873
199769
199778
199881
199912
199940
199901
199798
199808
199909
199929
199828
199838
199937
199968
199996
199958
199858
199869
199965
199986
199889
199900
199994
200023
200051
200015
199920
199932
200023
200043
199952
199964
200052
200078
200105
200072
199985
199997
200081
200101
200018
200031
200111
200133
200160
200131
200052
200066
200141
200160
200087
200101
200171
200187
200214
200190
200122
200137
200202
200221
200158
200174
200233
200241
200269
200252
200195
200211
200265
200283
200232
200249
200298
200297
200325
200315
200270
200288
200331
200348
200310
200328
200365
200354
200383
200382
200350
200369
200400
200417
200391
200411
200436
200414
200446
200452
200433
200453
200473
200489
200475
200496
200511
200480
200515
200527
200518
200539
200550
200566
200560
200581
200589
200554
200595
200606
200602
200621
200627
200641
200640
200656
200660
200608
200601
200666
200671
200682
200674
200470
200497
200500
200492
200464
200429
200396
200365
200336
200308
200281
200254
200228
200202
200176
200150
200123
200096
200069
200042
200014
199986
199957
199927
199897
199866
199835
199802
199768
199734
199698
199665
199636
199610
199583
199563
199553
199554
199566
199586
199618
199662
199721
199794
199882
199982
200087
200184
200281
200339
200342
200287
200183
200051
199914
199785
199678
199591
199497
199393
199287
199186
199096
199019
198944
198873
198805
198741
198678
198613
198552
198535
198672
198653
198523
198431
198462
198167
198155
197994
198019
198136
197524
197600
197589
197346
197374
196798
196792
196438
196472
196668
195453
195650
195656
195144
195190
193890
193948
193215
193257
193569
189984
190505
190777
190000
189929
188615
188678
185839
183911
183739
183710
184172
182838
182550
179284
179852
178693
182279
181639
178139
178195
181834
183262
188419
187974
182663
181517
181234
177862
177939
177660
181079
181386
182628
188155
189774
193542
195497
196730
197594
198204
198273
197663
196791
195544
195597
196854
197734
198341
198412
197809
197888
198485
198561
197972
197062
196989
196920
195644
195693
195748
195803
197138
198063
198645
198743
198165
198292
198857
198988
198451
197500
197342
197226
195848
195929
196053
196191
197704
198649
199138
199291
198875
199102
199422
199513
199276
198598
198280
197968
196405
196720
197109
194508
194181
193964
193758
193607
193631
193661
193663
193648
193625
193601
193572
193550
189711
188066
187768
182360
182369
182142
187700
188018
189703
189721
189737
189762
187925
187566
187951
187606
187983
187649
181927
182157
180861
180524
180955
180635
181114
180788
181211
180902
177487
177749
177579
177309
177398
177117
177208
176937
177024
176729
180367
180698
180253
176535
176819
176619
180602
181949
181709
180433
180089
176309
176396
176097
179972
180337
181740
181491
181534
181275
187529
187903
189794
189826
189862
189898
187790
187334
187841
187419
187874
187478
181060
181332
179793
179387
179888
179508
180067
179683
180163
179803
175851
176179
175937
175619
175699
175350
175434
175095
175174
174800
179207
179610
179087
174522
174884
174601
179520
181138
180853
179335
178904
174198
174285
173891
178790
179255
180951
180673
180786
180530
187238
187725
189957
190084
190363
190782
187737
187040
187535
186946
187614
187078
180425
180665
178782
178230
178828
178313
179010
178506
179073
178605
173534
173974
173628
173198
173287
172799
172902
172426
172523
171972
178028
178606
177953
171553
172090
171666
178580
180599
180402
178418
177745
171039
171179
170560
177675
178424
180641
180655
181061
181210
187277
187973
191192
194966
197540
198861
199396
199611
199750
199563
199786
199918
200098
200047
199773
199388
199087
197965
198401
198966
199684
200205
200307
200260
200367
200503
200578
200393
200338
200521
200760
200794
200587
200436
200977
201052
200806
200573
200380
200232
200102
200213
200051
199978
199867
199913
199967
200133
200348
200529
200232
200030
199879
199836
199800
199774
199699
199712
199646
199641
199598
199599
199613
199664
199737
199769
199692
199639
199674
199727
199806
199923
200088
200327
200735
200949
201224
200747
199475
198103
197005
196151
195493
191662
192340
193400
189599
188584
188620
187838
188215
187527
181855
181614
178789
177890
178640
177755
178522
177643
178348
177532
170019
170711
170229
169666
169846
169231
169362
168672
168785
168103
177936
178889
178020
167498
168197
167578
179034
182382
182746
179078
178028
166917
166983
166269
177749
178895
183391
184114
185619
187080
190064
191125
194793
196539
198975
201204
201208
197045
194894
193342
192679
191610
189307
188271
184812
183248
182963
180445
178304
177150
178624
177298
165601
166193
168874
169997
172277
174947
178056
179284
173490
171679
169659
175135
180826
181510
184797
186010
186296
183366
182735
177701
176272
178869
180445
184353
187301
190692
192269
190029
188404
185604
187461
188550
191206
192866
193981
195878
196050
192510
188194
187310
186571
185095
182033
177263
179904
182168
183238
183597
189830
193477
195123
197466
197547
198275
197621
198000
198185
196871
196672
193899
189228
186375
183648
178494
176540
171331
175093
178691
183330
189217
185058
191255
194500
197630
198995
199723
199370
200614
200432
200902
196495
201855
203794
200947
201958
200791
200259
198446
198671
199454
197537
200898
199087
199710
200735
200851
200381
200124
200135
200375
200785
200926
198314
199595
199889
198227
199070
200147
197553
199735
200638
201856
200456
199448
198594
200795
200458
200246
200387
203358
203388
200804
200648
200668
200676
200625
200772
200722
200485
200415
200718
200606
200797
201072
201095
201352
201305
201320
201168
201057
201066
201250
201181
201261
201431
201377
201306
201154
201259
201146
200961
200984
201083
200979
201103
201229
201113
201090
200801
200808
200649
200815
201049
200624
201023
200783
201100
201135
201050
200985
200705
200966
201139
200891
200826
200902
201358
201408
201370
201374
201579
201326
201487
201344
201465
201473
201542
201413
201575
201618
201492
201604
201610
201616
201557
201631
201606
201576
201608
201606
201560
201580
201611
201567
201581
201606
201582
201519
201570
201593
201538
201576
201591
201528
201580
201600
201531
201585
201618
201590
201491
201588
201605
201529
201613
201604
201509
201618
201621
201510
201631
201637
201548
201644
201625
201507
201638
201592
201683
201669
201562
201663
201675
201568
201684
201669
201559
201673
201664
201522
201667
201584
201689
201688
201567
201684
201655
201521
201658
201599
201709
201689
201543
201673
201657
201512
201671
201580
201683
201653
201495
201648
201591
201674
201654
201494
201646
201626
201452
201626
201531
201646
201610
201408
201590
201503
201635
201609
201411
201570
201456
201594
201571
201387
201552
201430
201592
201550
201327
201509
201406
201536
201501
201274
201461
201333
201501
201471
201245
201425
201287
201444
201406
201135
201370
201233
201417
201371
201085
201319
201170
201334
201285
201012
201240
201088
201288
201229
200924
201176
201011
201192
201143
200829
201089
200912
201148
201086
200745
201025
200838
201041
200960
200618
200908
200721
200965
200911
200525
200828
200581
200834
200761
200390
200708
200500
200776
200710
200249
200601
200338
200613
200548
200136
200483
200264
200546
200412
199943
200338
200285
199848
200234
199960
200287
200162
199568
200058
199772
200082
200015
199517
199969
199886
199263
199739
199281
199736
199672
199152
199648
199567
198884
199453
198859
199383
199276
198732
199271
199201
198464
199070
198339
198951
198841
198246
198872
198788
198029
198698
198289
197465
198316
198270
197547
198259
198039
196831
197778
197460
196660
197567
197623
196641
197604
196799
195648
196732
196723
195917
197034
196261
194666
195952
195762
194931
196337
195888
194769
193208
194705
194701
194682
193002
194876
193966
193383
192259
194065
192813
192040
190765
193869
192798
191477
190791
190696
187139
190496
189277
187908
187201
185490
184453
183340
182091
180342
180482
181043
181346
181248
181619
181573
181965
181854
182109
181853
181961
181596
181692
181319
181502
181137
181334
180939
181145
180728
180924
180487
180687
180242
180437
179985