/*--------------------------------*- C++ -*----------------------------------*\
| =========                 |                                                 |
| \\      /  F ield         | OpenFOAM: The Open Source CFD Toolbox           |
|  \\    /   O peration     | Version:  v2006                                 |
|   \\  /    A nd           | Website:  www.openfoam.com                      |
|    \\/     M anipulation  |                                                 |
\*---------------------------------------------------------------------------*/
FoamFile
{
    version     2.0;
    format      ascii;
    class       volScalarField;
    location    "0.013";
    object      Co;
}
// * * * * * * * * * * * * * * * * * * * * * * * * * * * * * * * * * * * * * //

dimensions      [0 0 0 0 0 0 0];


internalField   nonuniform List<scalar> 
12716
(
0.0088757
0.00843275
0.0091582
0.0096066
0.00978665
0.00961168
0.00975674
0.00974726
0.00969211
0.0096751
0.00961277
0.00959483
0.00956813
0.00954936
0.0095296
0.00951116
0.00949196
0.00947216
0.00945155
0.00943002
0.00940758
0.00938425
0.00936007
0.00933506
0.00930926
0.00928267
0.00925533
0.00922727
0.00919851
0.0091691
0.00913908
0.0091085
0.0090774
0.00904586
0.00901391
0.00898163
0.00894908
0.00891633
0.00888346
0.00885053
0.00881763
0.00878484
0.00875224
0.0087199
0.00868792
0.00865637
0.00862534
0.00859492
0.0085652
0.00853627
0.0085082
0.008481
0.00845461
0.00842881
0.00840332
0.00838443
0.00837285
0.0083838
0.0084296
0.00855322
0.0088242
0.00958492
0.0125601
0.0190334
0.020075
0.0185946
0.0179513
0.017054
0.016725
0.0162174
0.0153449
0.013867
0.0151833
0.0160674
0.0144844
0.0143036
0.0134957
0.0112521
0.0121261
0.0124349
0.011723
0.0117269
0.0110533
0.0101119
0.0109562
0.0111474
0.0110398
0.0108714
0.0100097
0.00976444
0.0107118
0.0109229
0.0109079
0.0106862
0.00969101
0.0096046
0.0106701
0.0109086
0.0108544
0.0105901
0.00952776
0.00945044
0.0105935
0.010868
0.0108077
0.0105093
0.00937757
0.00930749
0.0105121
0.010818
0.0107556
0.0104275
0.00924048
0.00917648
0.0104308
0.0107643
0.0107008
0.0103466
0.0091142
0.00905444
0.0103499
0.010708
0.0106436
0.0102661
0.00899586
0.00893938
0.0102692
0.0106494
0.0105843
0.0101858
0.00888365
0.00882973
0.0101886
0.0105888
0.0105229
0.0101054
0.00877625
0.00872433
0.0101077
0.0105262
0.0104595
0.0100245
0.00867258
0.00862219
0.0100263
0.0104616
0.0103942
0.00994319
0.00857171
0.00852236
0.00994424
0.010395
0.0103268
0.00986087
0.00847265
0.00842393
0.00986102
0.0103262
0.0102571
0.00977728
0.00837463
0.00832616
0.00977639
0.010255
0.010185
0.00969211
0.00827688
0.00822827
0.00968995
0.0101813
0.0101102
0.00960491
0.00817863
0.00812951
0.00960123
0.0101048
0.0100324
0.00951521
0.00807918
0.00802922
0.00950973
0.010025
0.00995119
0.00942252
0.00797791
0.00792688
0.009415
0.00994161
0.00986616
0.00932637
0.00787436
0.00782203
0.00931655
0.00985415
0.00977685
0.00922628
0.00776807
0.00771418
0.00921392
0.00976218
0.00968283
0.0091218
0.00765853
0.00760283
0.00910662
0.00966526
0.00958365
0.00901242
0.00754523
0.00748748
0.00899417
0.00956294
0.0094789
0.00889771
0.00742771
0.00736766
0.00887613
0.00945481
0.00936816
0.00877718
0.00730545
0.00724277
0.00875194
0.00934042
0.00925089
0.0086502
0.00717772
0.00711194
0.00862087
0.00921913
0.00912639
0.00851594
0.00704358
0.00697425
0.00848204
0.00909018
0.00899387
0.00837351
0.00690208
0.00682873
0.00833458
0.00895281
0.00885258
0.00822206
0.00675231
0.00667446
0.00817761
0.00880624
0.0087017
0.00806061
0.0065932
0.00651012
0.00800991
0.00864947
0.00853998
0.00788773
0.0064232
0.006334
0.00782987
0.00848104
0.00836583
0.00770165
0.00624053
0.00614431
0.00763563
0.00829923
0.00817752
0.00750053
0.00604343
0.00593931
0.00742543
0.00810244
0.00797358
0.00728263
0.00583008
0.00571695
0.00719731
0.00788903
0.00775199
0.00704565
0.00559812
0.00547467
0.00694894
0.00765719
0.00751108
0.00678714
0.00534453
0.00520862
0.00667709
0.0074045
0.00724776
0.00650307
0.00506474
0.00491385
0.00637733
0.00712763
0.00695884
0.0061889
0.0047533
0.0045836
0.00604456
0.00682337
0.00664039
0.00583794
0.00440115
0.00420627
0.00566998
0.0064866
0.00628676
0.00543972
0.00399375
0.00376266
0.00524015
0.00611071
0.00589033
0.00497709
0.00350588
0.00321945
0.00473287
0.00568715
0.00544523
0.00442521
0.00289299
0.00251095
0.00411714
0.0052165
0.00493231
0.00371145
0.00205838
0.0015252
0.0035028
0.00481548
0.00442138
0.0028421
0.000912471
0.000706127
0.00167055
0.00359665
0.00260381
0.000832774
0.000889505
0.00105349
0.000698921
0.0015408
0.000646433
0.000780016
0.00109898
0.00109567
0.000805894
0.000174462
0.000414944
0.00097595
0.00101028
0.000738274
0.0010031
0.000639867
0.000710696
0.000765744
0.000327832
3.66514e-05
0.000386342
0.000548421
0.000634537
0.000487519
8.39902e-05
0.000280749
0.000789335
0.000998484
0.000986509
0.000866978
0.000428618
0.000669642
0.00116479
0.00133746
0.00116942
0.00112985
0.000778116
0.000922173
0.00127302
0.00133247
0.00121692
0.00118503
0.000918727
0.000870411
0.00110136
0.00110276
0.00121824
0.00114434
0.000840495
0.000704274
0.000964491
0.000996703
0.000956622
0.000896511
0.000612729
0.0004923
0.000725367
0.000739904
0.000698637
0.000669942
0.000432391
0.000365574
0.000550291
0.000535963
0.00053916
0.000538311
0.000352436
0.000341845
0.000488322
0.000447508
0.000468986
0.000485067
0.000340776
0.000346623
0.000463493
0.000416267
0.000440582
0.000461769
0.0003455
0.000337642
0.000417575
0.000366685
0.000410106
0.000431262
0.000336175
0.000308771
0.000369546
0.000327751
0.000358224
0.000379268
0.00030602
0.000270835
0.000312079
0.000273736
0.000287704
0.000308614
0.000257909
0.000216152
0.00023732
0.000202017
0.000202235
0.000222915
0.000194385
0.000146943
0.000148011
0.000116848
0.000152049
0.000122764
0.00011808
6.68735e-05
8.84841e-05
0.000180729
0.000262629
0.000149943
5.32208e-05
7.37471e-05
0.000203123
0.000307872
0.000376855
0.000265696
0.000120409
0.000166889
0.000322259
0.000427485
0.000503248
0.000391803
0.000216345
0.000263708
0.000448545
0.000554883
0.000636746
0.000524739
0.000317305
0.000367773
0.00058455
0.000692531
0.0007788
0.000665868
0.00042519
0.000478981
0.000729859
0.000840225
0.00092803
0.000813302
0.000538366
0.000594943
0.000881382
0.000995141
0.00108428
0.000966749
0.000656082
0.000715276
0.00103798
0.00115597
0.00124729
0.00112563
0.000778296
0.000839664
0.0011994
0.0013231
0.00141727
0.0012898
0.000904243
0.000966217
0.00136503
0.00149596
0.00159228
0.00145791
0.00103111
0.00109188
0.00153306
0.00167195
0.00176944
0.00162769
0.00115552
0.00121536
0.00170278
0.00184933
0.00194652
0.00179705
0.00127676
0.00133509
0.00187084
0.0020253
0.00212088
0.00196298
0.00139369
0.00144915
0.00203294
0.00219646
0.00228904
0.00212101
0.00150361
0.00155431
0.00218555
0.00236036
0.0024487
0.00226856
0.0016033
0.00164709
0.00232559
0.00251325
0.00259502
0.00240311
0.00169058
0.00171607
0.00243804
0.00264338
0.00271319
0.0025069
0.00175484
0.00173814
0.00249584
0.0027251
0.00280835
0.00258709
0.00181201
0.00173806
0.00252067
0.00278826
0.00295878
0.002756
0.00195339
0.00182996
0.00264303
0.00292683
0.00330129
0.00309889
0.00222357
0.00217733
0.00316199
0.00355031
0.00374898
0.00343944
0.00244095
0.00387495
0.0039123
0.00386286
0.00383728
0.0038479
0.00397425
0.00401951
0.00414452
0.00421147
0.00434082
0.00439274
0.00451858
0.00456286
0.00469424
0.00469975
0.00477672
0.0047112
0.00495603
0.00560412
0.00696515
0.0099634
0.0146162
0.0113008
0.00848427
0.00755119
0.00739442
0.00583142
0.0072054
0.0148192
0.0221299
0.0112872
0.0069924
0.00313455
0.00226413
0.00496278
0.00689853
0.00621026
0.00457917
0.00212695
0.00190892
0.00434377
0.00598361
0.00575101
0.0041657
0.00179002
0.00174783
0.00420101
0.0058575
0.00575806
0.0041329
0.00171667
0.00171747
0.00413566
0.00574416
0.00581968
0.00422586
0.00172155
0.00171746
0.00421065
0.00576112
0.00590741
0.00431699
0.00178608
0.00178618
0.00424683
0.00577805
0.00599055
0.00441979
0.00188035
0.00188811
0.00434037
0.0058374
0.00609131
0.00453264
0.00199222
0.00200265
0.00444601
0.00591897
0.00621593
0.00465925
0.00211156
0.00212161
0.00457168
0.00602804
0.00636687
0.00480433
0.00223405
0.00224388
0.00472131
0.00617588
0.006542
0.00496728
0.00236068
0.00237194
0.00488688
0.00635314
0.0067319
0.00514297
0.00249355
0.00250593
0.00506257
0.00654156
0.00693086
0.00532741
0.00263218
0.00264521
0.00524533
0.00673644
0.00713555
0.00551854
0.00277628
0.00278969
0.00543357
0.00693597
0.00734288
0.00571318
0.00292468
0.00293747
0.00562378
0.00713599
0.00755146
0.00591072
0.00307671
0.00308933
0.00581759
0.00733813
0.00775924
0.00610966
0.00323135
0.00324268
0.00601103
0.00753644
0.0079646
0.00630917
0.00338812
0.00339969
0.00620669
0.00773437
0.00816666
0.00650939
0.00354878
0.00355968
0.00640121
0.0079268
0.00836707
0.00671112
0.00371357
0.00372524
0.00659914
0.00812026
0.00856447
0.00691298
0.00388215
0.00389197
0.00679419
0.00830694
0.00875788
0.00711367
0.00405208
0.0040613
0.00698971
0.00849543
0.00894583
0.007312
0.00422361
0.00423107
0.00718269
0.00868236
0.00912924
0.00750925
0.00439685
0.00440343
0.00737668
0.00886348
0.00930562
0.0077035
0.0045704
0.00457406
0.00756958
0.00904316
0.00947592
0.00789472
0.00474345
0.00474633
0.00775907
0.00921475
0.00963895
0.00808064
0.00491616
0.00491918
0.00794765
0.00938496
0.0097968
0.00826179
0.00508676
0.00508987
0.00812948
0.00954639
0.00994912
0.00843794
0.0052556
0.00525858
0.00830839
0.00970542
0.0100979
0.00861057
0.00542183
0.00542446
0.00848062
0.00985546
0.0102421
0.00877948
0.00558674
0.00558911
0.00865144
0.0100043
0.0103834
0.00894566
0.00574923
0.00575162
0.00881782
0.0101463
0.0105227
0.0091106
0.0059109
0.00591344
0.00898501
0.0102888
0.0106627
0.0092766
0.00607138
0.00607393
0.00914958
0.0104259
0.0108038
0.00944566
0.00623471
0.00623737
0.00931643
0.0105641
0.0109487
0.00962053
0.00640401
0.00640678
0.00948304
0.0106974
0.0110972
0.00980318
0.00658553
0.00658831
0.00965434
0.0108321
0.0112532
0.00999768
0.00678581
0.00679145
0.00983026
0.0109615
0.0114203
0.0102096
0.00701692
0.00703944
0.0100264
0.0110904
0.011604
0.0104461
0.00728946
0.00734601
0.0102849
0.0112949
0.0118566
0.010717
0.00762654
0.00765071
0.0105236
0.0114637
0.0119439
0.0109255
0.00796445
0.0079825
0.0107237
0.0115466
0.0121129
0.0111461
0.00824423
0.00819537
0.0108466
0.0116677
0.0121636
0.0112397
0.00847912
0.00846343
0.0110509
0.0117432
0.0122136
0.0113456
0.00867066
0.00868924
0.0111197
0.0118423
0.0122402
0.0114475
0.00890105
0.00901619
0.0113463
0.011889
0.0122982
0.011546
0.00916172
0.0091373
0.0113344
0.0119444
0.0122568
0.0115826
0.00933471
0.0093496
0.0113946
0.0119008
0.0122288
0.0116161
0.00954523
0.00958877
0.011478
0.0119348
0.0122415
0.0116663
0.00976461
0.00983573
0.0115664
0.0119377
0.0122808
0.0117826
0.010035
0.0101805
0.0117526
0.012097
0.0125576
0.0121918
0.0105901
0.0106154
0.0120133
0.0123685
0.0125945
0.0125238
0.0112584
0.0108198
0.011377
0.0108952
0.0334153
0.0248467
0.0154496
0.0118872
0.0172447
0.0225329
0.0144217
0.0133566
0.0109716
0.010323
0.0118687
0.0123159
0.0117904
0.0115209
0.0102807
0.0100595
0.0111402
0.0145402
0.0143747
0.0141405
0.0101033
0.0134389
0.0145686
0.0140176
0.0124679
0.0120313
0.0108584
0.0105723
0.0111332
0.0112026
0.0100914
0.0103007
0.0102734
0.00977453
0.00923229
0.00762721
0.0180224
0.0129455
0.0106543
0.0104125
0.0120481
0.0155281
0.0104269
0.0102043
0.00988977
0.00920438
0.00905937
0.00927479
0.00890283
0.00864186
0.00894367
0.00871745
0.0086204
0.00953436
0.00784162
0.00772231
0.00846846
0.00816418
0.00733277
0.00780092
0.00600379
0.00689729
0.00782741
0.00782804
0.00885555
0.0114457
0.00990906
0.008856
0.00773493
0.00710947
0.00827006
0.0104192
0.00626099
0.00697298
0.00619779
0.00521617
0.00780149
0.0092319
0.0102383
0.00750357
0.00407302
0.00226509
0.00585387
0.00789415
0.00790821
0.00619635
0.00227583
0.00448594
0.00891108
0.010818
0.0140002
0.012806
0.00756751
0.0116601
0.018592
0.022874
0.0225951
0.0225937
0.0162147
0.0214911
0.0280199
0.0274677
0.0335345
0.0363198
0.0285182
0.0383211
0.0509916
0.0555234
0.0526701
0.0593468
0.0471856
0.0614492
0.0741494
0.0609555
0.0919328
0.0946319
0.0754382
0.0920226
0.0921928
0.0695204
0.0760978
0.0837401
0.107664
0.128154
0.0918053
0.0721781
0.0726281
0.116273
0.134086
0.120209
0.138241
0.143009
0.0971256
0.112414
0.094064
0.0659943
0.0995663
0.101087
0.136195
0.0944711
0.0477315
0.0308843
0.0671518
0.0907715
0.0762524
0.0557664
0.0198965
0.0111459
0.0482046
0.0930966
0.0632828
0.0306202
0.00462221
0.00561859
0.0238663
0.0479742
0.0458253
0.0174323
0.00998519
0.0138893
0.0116063
0.0478279
0.0327376
0.00671758
0.0147952
0.016625
0.00925485
0.0234777
0.0184973
0.0110432
0.0189184
0.0208729
0.0134072
0.0164637
0.0135633
0.0109523
0.0195363
0.0190215
0.0104033
0.013253
0.0168963
0.00495623
0.0160303
0.0148872
0.00363712
0.00867307
0.00956914
0.00406213
0.0151838
0.0156723
0.00448833
0.0112682
0.0155989
0.00441248
0.0139657
0.0121877
0.00282489
0.00753432
0.00776221
0.00364335
0.01196
0.0115733
0.00416449
0.00903582
0.0138289
0.00431226
0.0099913
0.00762242
0.00240198
0.00702689
0.00786359
0.00178773
0.00619661
0.00540128
0.00172302
0.00741659
0.010132
0.00218654
0.00465567
0.00376798
0.00489446
0.0153868
0.00651014
0.00336993
0.00187232
0.00104591
0.00340804
0.00883239
0.0114874
0.00343253
0.00131096
0.00184725
0.0042147
0.0148763
0.00870042
0.00370308
0.00130518
0.00221933
0.00522523
0.00741796
0.00800885
0.00543697
0.00285006
0.00369559
0.00750142
0.012674
0.0246737
0.016124
0.00819757
0.00603742
0.00755078
0.00827205
0.0111049
0.00902845
0.00653532
0.00696203
0.0102216
0.0131048
0.0194631
0.0130165
0.00779933
0.0122225
0.0219332
0.0318549
0.0111003
0.0105785
0.00902256
0.010073
0.0134318
0.0160031
0.0239166
0.0169109
0.0108788
0.0149246
0.0254172
0.035946
0.0134234
0.0127995
0.0109802
0.0120066
0.0156863
0.0183351
0.0266989
0.0191933
0.012595
0.0164651
0.027548
0.0385916
0.0143195
0.0138665
0.0121248
0.0125121
0.0153506
0.0170143
0.0193179
0.0164352
0.0125673
0.0139039
0.0211982
0.0293403
0.0410344
0.0293279
0.0175222
0.0132683
0.015057
0.0153863
0.0211572
0.0183
0.014139
0.0153428
0.0231356
0.0316991
0.0432333
0.0311983
0.0189284
0.0143373
0.0160863
0.0163014
0.0220251
0.0193174
0.0152225
0.0164579
0.0245187
0.033295
0.0457066
0.0332785
0.02031
0.0153309
0.0171454
0.0173592
0.023828
0.020868
0.0164463
0.0177357
0.0263228
0.0356067
0.0475117
0.0346388
0.0212344
0.0160438
0.0178626
0.0180124
0.0244527
0.0215837
0.0171915
0.0187284
0.0276165
0.0372479
0.0501099
0.0365505
0.0226267
0.017175
0.0190194
0.0191017
0.0262851
0.0231643
0.0183658
0.0200104
0.0294714
0.0396585
0.0521333
0.0384003
0.0239616
0.0190101
0.0218994
0.0227141
0.0400425
0.0305281
0.0212492
0.0252007
0.0395038
0.0529948
0.0212856
0.0210394
0.0189533
0.0205818
0.025492
0.0286355
0.0419645
0.0314715
0.0217323
0.0262957
0.0415326
0.0558862
0.0210012
0.0211055
0.019418
0.0214588
0.0264507
0.0295555
0.0443696
0.0332322
0.0228275
0.0270437
0.0425675
0.0569812
0.0258871
0.0248711
0.0215644
0.0242573
0.0345829
0.0450437
0.0581781
0.0436605
0.0281463
0.0214305
0.0233768
0.0233575
0.0313616
0.0282543
0.0231389
0.0246367
0.0355426
0.0472028
0.0605442
0.0454114
0.0290787
0.0230457
0.0262784
0.0271628
0.0474142
0.0365738
0.0258994
0.0300877
0.0462922
0.0611292
0.0243201
0.0244913
0.0226935
0.0247488
0.0302584
0.0336367
0.0501507
0.037871
0.0263408
0.0308586
0.0476999
0.0633802
0.0290025
0.0280214
0.0245657
0.0276554
0.0390784
0.0505805
0.0636433
0.0482884
0.0314643
0.0243261
0.0262726
0.0260671
0.0348686
0.0314385
0.0258447
0.0280055
0.0401062
0.0528849
0.0661379
0.0499146
0.0321818
0.0257489
0.0291029
0.0298877
0.0526871
0.0407207
0.0289429
0.0332021
0.0506884
0.0669504
0.0268871
0.0272513
0.0254335
0.0274582
0.0334498
0.0371532
0.0562167
0.0426415
0.0297496
0.0338336
0.0523454
0.0693837
0.03172
0.0308833
0.0273229
0.0308484
0.043656
0.0565848
0.0703255
0.0537076
0.0352408
0.0284877
0.0322414
0.0332119
0.0581791
0.0451291
0.0321004
0.0359669
0.0545
0.0711768
0.0342398
0.0330845
0.0290652
0.0323132
0.0451282
0.0580267
0.0722025
0.0550745
0.0364588
0.0282636
0.0302446
0.0298665
0.0400347
0.0362572
0.0300374
0.0326688
0.0464564
0.0610067
0.0747365
0.0565756
0.0369292
0.0298563
0.033587
0.0344062
0.0612603
0.0473539
0.0335487
0.0379322
0.0572447
0.0748252
0.0355062
0.0346223
0.0307739
0.0346603
0.0485291
0.0624383
0.0762085
0.0587092
0.0389414
0.0315516
0.0355348
0.0365686
0.0625032
0.048814
0.0351532
0.0393881
0.0594583
0.0776412
0.0316688
0.0322194
0.0303819
0.0324429
0.0393193
0.0435402
0.0658928
0.0501796
0.0353858
0.0399206
0.060662
0.0799505
0.0369557
0.036143
0.0322635
0.0364734
0.051214
0.0661119
0.0807509
0.0619861
0.0412083
0.0333471
0.0375058
0.038508
0.0678448
0.0527621
0.0377022
0.0418991
0.0629955
0.0817675
0.0396586
0.0385099
0.0341627
0.0384579
0.0535371
0.068696
0.0833662
0.0641204
0.042905
0.0348731
0.0390856
0.0400968
0.0696396
0.0543555
0.0390989
0.0434378
0.0647344
0.0842676
0.0409709
0.0397529
0.0352915
0.0393661
0.0544428
0.0696499
0.0846796
0.0649478
0.0434692
0.0337719
0.0359612
0.035494
0.0476398
0.0432641
0.036103
0.0394183
0.0556138
0.072813
0.0884881
0.0669991
0.0442505
0.0356588
0.0398077
0.0406235
0.0733414
0.0567688
0.0404547
0.0453308
0.0678708
0.0883582
0.0418647
0.0409964
0.0367045
0.0416113
0.0580753
0.0747589
0.0902395
0.0690079
0.0462762
0.0376348
0.0422967
0.0434452
0.0762034
0.0593017
0.0425481
0.0470571
0.0704155
0.0915544
0.0435492
0.0426342
0.0381998
0.0431525
0.0599536
0.0768767
0.0926339
0.0712581
0.0478324
0.0390509
0.0437408
0.0448916
0.0781343
0.0608613
0.0437551
0.0482971
0.0720412
0.0935485
0.0449149
0.0439296
0.0393695
0.0443703
0.0614982
0.0787169
0.0949186
0.0731225
0.0491789
0.0401386
0.0450119
0.0462285
0.0800053
0.0624861
0.0451
0.0497569
0.0737998
0.0956213
0.0461457
0.0451195
0.0404903
0.045403
0.0628232
0.080272
0.0963225
0.0747886
0.050313
0.0408412
0.0456595
0.0468269
0.0798726
0.0625712
0.0454129
0.0504554
0.0753174
0.0977979
0.0403763
0.0412378
0.0391825
0.0421006
0.0505436
0.0557225
0.0843902
0.0644867
0.0458075
0.0511721
0.0769056
0.100879
0.0467794
0.0459138
0.0412771
0.0467055
0.0652409
0.0841074
0.101406
0.0780767
0.0523269
0.0424938
0.0474568
0.0485007
0.0861615
0.0670197
0.0480766
0.0533358
0.0794642
0.102738
0.0497385
0.0485846
0.0433964
0.0487874
0.0678746
0.0871524
0.104533
0.0805525
0.0539349
0.044095
0.0491552
0.0501936
0.0883923
0.0689368
0.0496589
0.0548984
0.0815155
0.105266
0.0511582
0.0499585
0.0447247
0.0502389
0.0696002
0.0891788
0.106671
0.0823765
0.0557031
0.0452942
0.0504835
0.0515803
0.0902819
0.0705559
0.0509229
0.0561515
0.0832804
0.107908
0.0525582
0.0512917
0.045922
0.0515597
0.0713153
0.0910908
0.109346
0.0845646
0.0568685
0.0464205
0.0517331
0.0529122
0.0921792
0.0722141
0.0523
0.0578426
0.0855468
0.110123
0.0538296
0.0525568
0.0471057
0.0527106
0.0725961
0.092676
0.11096
0.0860189
0.0582477
0.0470986
0.0523794
0.0535827
0.0918505
0.0721979
0.0526748
0.0583494
0.0864473
0.112066
0.0475257
0.0482
0.0454534
0.0486905
0.0584826
0.0644821
0.096958
0.0741986
0.052788
0.0588045
0.0883547
0.116246
0.0528856
0.052223
0.0472707
0.0538511
0.0749995
0.0965683
0.116321
0.0891661
0.0600835
0.0489921
0.0547301
0.0559357
0.0989406
0.0769978
0.0553731
0.0611554
0.0909707
0.118032
0.0561135
0.0550984
0.0496585
0.0560819
0.0777366
0.099502
0.119574
0.0921275
0.062092
0.0505608
0.0564178
0.057714
0.100981
0.0787991
0.0568395
0.0628566
0.0933253
0.12044
0.0577019
0.0566822
0.0511918
0.05768
0.0796564
0.101702
0.122059
0.0941904
0.0635799
0.0518611
0.0577452
0.0591041
0.102342
0.0800392
0.0579469
0.0639404
0.0945992
0.122706
0.0584079
0.057315
0.0517764
0.057767
0.0792222
0.100775
0.124087
0.0956271
0.0643913
0.0500207
0.0526286
0.0516015
0.0706542
0.0642167
0.053713
0.0584887
0.081794
0.106552
0.128559
0.0983312
0.0653863
0.0523879
0.0578084
0.0586532
0.106274
0.0828474
0.0597176
0.0665284
0.0988556
0.128092
0.0616219
0.0602601
0.0540014
0.0610499
0.0843838
0.107835
0.130628
0.100439
0.0678769
0.0550703
0.0611799
0.0623964
0.108874
0.0852973
0.061794
0.0686168
0.101709
0.131371
0.0635309
0.0620925
0.0557922
0.0622739
0.0855244
0.108869
0.13233
0.101425
0.0683747
0.0531503
0.0559639
0.054848
0.0737522
0.0674043
0.0567979
0.0617685
0.086381
0.112621
0.136453
0.104142
0.0693805
0.0557722
0.0615781
0.0625193
0.112255
0.0874154
0.0629985
0.0706277
0.105131
0.136566
0.0636753
0.0627455
0.0569141
0.0643513
0.0882004
0.112265
0.138873
0.106877
0.0717732
0.0551956
0.0580694
0.0568321
0.0776379
0.0707115
0.0591911
0.0642093
0.0899802
0.117243
0.142392
0.108731
0.072053
0.0578494
0.0636058
0.0643783
0.116718
0.0908974
0.0655222
0.0734501
0.109103
0.141813
0.0676621
0.0662706
0.0595405
0.0671655
0.0923581
0.118007
0.144055
0.11084
0.0747004
0.0574157
0.0603257
0.058898
0.0791687
0.0724892
0.061111
0.0667369
0.0933836
0.121628
0.148597
0.113328
0.0749761
0.0601665
0.066296
0.0671563
0.121059
0.0943451
0.0681035
0.0764686
0.113874
0.148025
0.0683798
0.0675094
0.06132
0.068905
0.0943407
0.120221
0.150839
0.116786
0.0786004
0.0596277
0.062534
0.0609814
0.0835247
0.0765486
0.0645808
0.0685968
0.0959112
0.1249
0.154784
0.118826
0.0787119
0.0621776
0.0682978
0.0691637
0.123066
0.0966169
0.0704545
0.0794247
0.118891
0.153836
0.0632556
0.0646107
0.061551
0.0662019
0.0788249
0.086443
0.130345
0.100425
0.0721668
0.0806462
0.121716
0.160129
0.0700016
0.0695555
0.0637648
0.0716015
0.098028
0.124803
0.158938
0.122304
0.0817303
0.0616532
0.0648817
0.0636581
0.0872197
0.0797785
0.0672984
0.0718427
0.0999098
0.129937
0.163707
0.124488
0.0827389
0.0628024
0.0651861
0.0632037
0.0873433
0.0803004
0.0681659
0.0741478
0.103732
0.134713
0.167043
0.126876
0.0835491
0.0666132
0.072934
0.0736486
0.130297
0.102134
0.0743783
0.0855713
0.127862
0.166831
0.0646768
0.0665195
0.0638765
0.0703232
0.0827825
0.0899678
0.133821
0.10315
0.0746149
0.0886808
0.133385
0.173748
0.0659969
0.0681332
0.0654211
0.071229
0.0839366
0.0911352
0.134495
0.103572
0.074531
0.0878648
0.132957
0.174778
0.0646962
0.0668102
0.0644653
0.0715246
0.0840504
0.0912703
0.136589
0.105061
0.0758925
0.0907268
0.136941
0.178361
0.0678481
0.070012
0.067233
0.0732483
0.0862629
0.0934721
0.13776
0.106079
0.0763567
0.0891028
0.13545
0.179213
0.0663431
0.0685011
0.0659259
0.0688677
0.0766561
0.0797581
0.0910234
0.0829897
0.0701146
0.0778611
0.108342
0.141234
0.185931
0.140574
0.0918652
0.0680178
0.0704231
0.0677269
0.0940589
0.0865346
0.0733154
0.0781318
0.108735
0.141303
0.186593
0.141468
0.0923677
0.0672729
0.0685874
0.065324
0.0814264
0.0786459
0.0708968
0.073354
0.0867338
0.0954528
0.145737
0.112739
0.0809711
0.092726
0.143687
0.19169
0.0669729
0.0699128
0.0680191
0.0710943
0.0802787
0.0840607
0.0959903
0.0871932
0.0730861
0.0797579
0.111148
0.14522
0.194468
0.146593
0.0953036
0.0694923
0.0715188
0.0683181
0.0809223
0.0787134
0.0711915
0.0681498
0.0765046
0.079664
0.0907657
0.0840824
0.0716725
0.0773762
0.108084
0.14149
0.198308
0.148243
0.0955828
0.0672232
0.0686111
0.0648297
0.0775819
0.0759222
0.0688796
0.0662585
0.0747338
0.0780786
0.0802997
0.0772087
0.0685768
0.0673402
0.0780697
0.0828052
0.092633
0.0851949
0.070691
0.0737821
0.105643
0.139859
0.200041
0.148402
0.0936603
0.0664377
0.0690753
0.0667926
0.0784604
0.07689
0.0691455
0.062515
0.0708156
0.0740453
0.073627
0.0704726
0.0623754
0.0594813
0.0684369
0.0708997
0.0703342
0.06674
0.0566568
0.0535553
0.0631907
0.0664968
0.0673862
0.0637406
0.0523698
0.0491348
0.0603903
0.0641432
0.0643383
0.0597909
0.0475766
0.0455258
0.0575637
0.0618313
0.062389
0.0571949
0.044262
0.0427258
0.0551752
0.0598916
0.0605813
0.0550013
0.0417924
0.0404403
0.0531616
0.0583657
0.0591772
0.0532106
0.0398005
0.0386407
0.0515074
0.0570657
0.0578793
0.0515926
0.0381585
0.0371544
0.0499972
0.0558506
0.0567242
0.0502006
0.0368051
0.0359315
0.0487018
0.0547554
0.0556224
0.048932
0.0356951
0.0349335
0.0475262
0.0537213
0.0546476
0.047865
0.0347919
0.0341224
0.0465399
0.0527951
0.053713
0.0468926
0.0340592
0.0334963
0.0457145
0.0520146
0.052885
0.0460839
0.0334765
0.0330455
0.0450674
0.0513772
0.0520898
0.0453404
0.0330275
0.0327067
0.0445477
0.050821
0.0514023
0.0447425
0.0326905
0.0324551
0.0440514
0.0502764
0.0507444
0.0441831
0.0324402
0.0322746
0.0436623
0.0498118
0.0501877
0.0437459
0.0322611
0.0321464
0.0432815
0.0493579
0.0496593
0.0433302
0.0321338
0.0320605
0.0429958
0.0489866
0.0492198
0.0430145
0.0320492
0.0320072
0.0427093
0.0486234
0.0488042
0.0427075
0.0319966
0.0319784
0.0425042
0.048334
0.0484682
0.0424851
0.0319683
0.0319681
0.0422899
0.0480491
0.0481495
0.0422611
0.0319585
0.0319713
0.0421491
0.0478333
0.0479009
0.0421098
0.0319622
0.0319851
0.041992
0.0476162
0.0476619
0.0419487
0.0319763
0.0320064
0.041902
0.0474629
0.0474817
0.0418525
0.031998
0.0320345
0.0417912
0.047299
0.0473046
0.0417403
0.0320264
0.0320667
0.0417413
0.0471932
0.0471779
0.0416867
0.0320588
0.0321032
0.0416664
0.047071
0.0470491
0.0416133
0.0320957
0.0321424
0.0416493
0.0470033
0.0469626
0.0415907
0.032135
0.0321844
0.0416005
0.0469127
0.0468706
0.0415458
0.0321774
0.0322275
0.0416069
0.0468738
0.0468147
0.0415466
0.0322206
0.0322729
0.0415782
0.0468075
0.0467513
0.0415234
0.0322663
0.0323176
0.041602
0.0468116
0.0467398
0.0415419
0.0323111
0.0323646
0.0415889
0.0467458
0.0466777
0.0415335
0.0323584
0.0324119
0.041626
0.0467432
0.0466642
0.0415665
0.0324058
0.0324599
0.0416233
0.046709
0.0466345
0.0415686
0.0324541
0.032507
0.0416677
0.0467167
0.0466353
0.0416107
0.0325013
0.0325545
0.0416728
0.0466941
0.0466155
0.0416191
0.0325491
0.0326019
0.0417238
0.0467111
0.0466269
0.0416682
0.0325966
0.0326495
0.0417347
0.0466967
0.046616
0.0416822
0.0326445
0.0326969
0.0417898
0.0467199
0.0466355
0.0417357
0.0326921
0.0327441
0.041803
0.0467106
0.0466308
0.0417524
0.0327395
0.0327901
0.0418587
0.0467385
0.0466575
0.0418077
0.0327858
0.0328352
0.0418723
0.0467337
0.0466577
0.0418248
0.032831
0.0328786
0.0419276
0.0467644
0.0466876
0.0418802
0.0328747
0.0329207
0.0419414
0.0467619
0.0466891
0.0418977
0.032917
0.032961
0.041997
0.0467933
0.0467205
0.0419536
0.0329574
0.033
0.0420097
0.0467906
0.0467234
0.0419695
0.0329966
0.0330376
0.0420629
0.0468222
0.0467551
0.0420225
0.0330344
0.0330737
0.0420724
0.0468192
0.0467578
0.0420355
0.0330707
0.0331073
0.0421219
0.0468498
0.0467895
0.042086
0.0331045
0.033139
0.0421284
0.0468461
0.0467915
0.042096
0.0331363
0.0331681
0.0421748
0.0468756
0.0468223
0.0421435
0.0331655
0.0331952
0.0421782
0.0468708
0.0468228
0.0421501
0.0331927
0.03322
0.0422218
0.0468995
0.0468523
0.0421945
0.0332177
0.0332432
0.0422226
0.0468938
0.0468515
0.0421982
0.033241
0.0332644
0.0422639
0.0469217
0.0468798
0.04224
0.0332623
0.0332843
0.0422624
0.0469153
0.0468778
0.0422412
0.0332823
0.0333026
0.0423015
0.0469422
0.0469051
0.0422806
0.0333007
0.0333197
0.042298
0.046935
0.046902
0.0422795
0.0333179
0.0333353
0.0423351
0.046961
0.0469281
0.0423168
0.0333336
0.0333501
0.0423297
0.046953
0.0469238
0.0423136
0.0333485
0.0333635
0.0423649
0.046978
0.0469488
0.0423489
0.033362
0.0333762
0.0423577
0.046969
0.0469434
0.0423437
0.0333748
0.0333877
0.0423912
0.046993
0.0469673
0.0423771
0.0333864
0.0333986
0.0423824
0.0469831
0.0469607
0.0423702
0.0333973
0.0334085
0.0424143
0.0470062
0.0469835
0.0424019
0.0334073
0.0334178
0.0424039
0.0469954
0.0469758
0.0423933
0.0334166
0.0334262
0.0424343
0.0470175
0.0469976
0.0424235
0.033425
0.033434
0.0424225
0.0470058
0.0469888
0.0424134
0.033433
0.033441
0.0424516
0.047027
0.0470096
0.0424421
0.03344
0.0334475
0.0424384
0.0470144
0.0469998
0.0424306
0.0334466
0.0334533
0.0424661
0.0470348
0.0470196
0.042458
0.0334523
0.0334586
0.0424517
0.0470213
0.0470089
0.0424451
0.0334577
0.0334632
0.0424783
0.0470409
0.0470277
0.0424712
0.0334624
0.0334675
0.0424627
0.0470266
0.0470161
0.0424572
0.0334667
0.0334712
0.0424882
0.0470454
0.0470341
0.0424821
0.0334704
0.0334745
0.0424717
0.0470305
0.0470217
0.042467
0.0334738
0.0334773
0.0424962
0.0470486
0.0470389
0.0424909
0.0334766
0.03348
0.0424788
0.0470331
0.0470257
0.0424748
0.0334793
0.0334821
0.0425025
0.0470506
0.0470422
0.0424979
0.0334814
0.0334842
0.0424845
0.0470347
0.0470284
0.0424811
0.0334836
0.0334859
0.0425077
0.0470519
0.0470444
0.0425035
0.0334853
0.0334877
0.0424892
0.0470356
0.0470301
0.0424861
0.0334871
0.0334892
0.042512
0.0470526
0.0470457
0.0425081
0.0334886
0.0334908
0.0424932
0.0470362
0.0470311
0.0424904
0.0334902
0.0334922
0.0425159
0.0470531
0.0470466
0.0425121
0.0334916
0.0334938
0.0424971
0.0470369
0.047032
0.0424943
0.0334933
0.0334953
0.0425198
0.047054
0.0470475
0.0425161
0.0334947
0.0334971
0.0425012
0.0470381
0.047033
0.0424983
0.0334966
0.0334988
0.0425241
0.0470555
0.0470487
0.0425202
0.0334983
0.0335009
0.0425059
0.0470402
0.0470346
0.0425028
0.0335005
0.0335032
0.0425296
0.0470586
0.0470508
0.0425252
0.0335028
0.0335064
0.0425126
0.0470447
0.0470375
0.0425085
0.033506
0.0335104
0.0425382
0.0470653
0.0470547
0.0425322
0.03351
0.0335162
0.0425241
0.0470547
0.047043
0.0425176
0.0335159
0.0335242
0.0425542
0.0470803
0.0470629
0.0425446
0.033524
0.033536
0.0425469
0.0470768
0.0470557
0.0425352
0.0335359
0.0335518
0.0425856
0.0471115
0.0470815
0.0425692
0.0335519
0.0335736
0.0425897
0.0471215
0.0470517
0.0425496
0.0335738
0.0335593
0.0425773
0.0471039
0.0469479
0.0424927
0.0335424
0.0334712
0.0425606
0.047199
0.0469233
0.0426088
0.0337701
0.0339687
0.0435681
0.0488005
0.0514754
0.0466576
0.0369248
0.0378475
0.0499462
0.057582
0.0682142
0.059826
0.0457535
0.0469117
0.0633071
0.0749469
0.0779031
0.067913
0.0519709
0.084864
0.0959725
0.101454
0.0936569
0.0693107
0.05882
0.0524865
0.0347823
0.0269238
0.0247584
0.0240346
0.0237243
0.0236195
0.023579
0.0235893
0.0236078
0.0236308
0.0236489
0.0236663
0.023682
0.0237189
0.0237415
0.0238823
0.02392
0.0240706
0.0240972
0.0237417
0.024179
0.0237347
0.0226278
0.0208285
0.0197495
0.0173245
0.0168885
0.0158514
0.015768
0.0155887
0.0155901
0.0155853
0.0155929
0.0155928
0.0155925
0.015592
0.0155912
0.0155902
0.0155888
0.0155869
0.0155848
0.0155823
0.0155802
0.0155782
0.0155756
0.0155718
0.0155666
0.0155605
0.0155537
0.0155463
0.0155384
0.0155298
0.0155205
0.0155103
0.0154991
0.0154867
0.0154729
0.0154575
0.0154405