/*--------------------------------*- C++ -*----------------------------------*\
| =========                 |                                                 |
| \\      /  F ield         | OpenFOAM: The Open Source CFD Toolbox           |
|  \\    /   O peration     | Version:  v2006                                 |
|   \\  /    A nd           | Website:  www.openfoam.com                      |
|    \\/     M anipulation  |                                                 |
\*---------------------------------------------------------------------------*/
FoamFile
{
    version     2.0;
    format      ascii;
    class       volScalarField;
    location    "0.013";
    object      isentropic(p);
}
// * * * * * * * * * * * * * * * * * * * * * * * * * * * * * * * * * * * * * //

dimensions      [1 -1 -2 0 0 0 0];


internalField   nonuniform List<scalar> 
12716
(
150007
150006
150024
150025
150025
150026
150026
150027
150027
150031
150033
150032
150031
150030
150028
150027
150026
150026
150026
150025
150025
150025
150024
150024
150024
150023
150023
150023
150023
150022
150022
150022
150021
150021
150021
150021
150020
150020
150020
150020
150019
150019
150019
150018
150018
150018
150018
150017
150017
150017
150017
150016
150016
150016
150015
150014
150013
150011
150011
150012
150015
150016
150018
150017
150016
150017
150019
150026
150039
150038
149967
149893
150032
150054
150055
150019
149825
149755
150002
150050
150043
149984
149691
149633
149964
150034
150025
149945
149581
149535
149926
150016
150006
149907
149494
149457
149889
149995
149986
149871
149424
149394
149854
149975
149965
149837
149366
149339
149821
149955
149945
149806
149315
149292
149791
149935
149926
149776
149272
149252
149762
149916
149907
149748
149233
149215
149735
149897
149888
149722
149199
149182
149709
149878
149869
149696
149168
149153
149684
149860
149851
149672
149139
149126
149660
149841
149832
149648
149113
149101
149636
149822
149814
149625
149089
149077
149613
149803
149795
149602
149066
149055
149590
149784
149775
149579
149044
149034
149568
149765
149756
149557
149024
149013
149545
149745
149736
149534
149004
148994
149523
149725
149716
149512
148985
148976
149501
149705
149696
149490
148967
148958
149478
149684
149674
149467
148949
148940
149455
149663
149653
149444
148932
148924
149433
149641
149631
149422
148916
148908
149410
149620
149609
149399
148901
148893
149388
149597
149587
149377
148886
148879
149365
149574
149563
149354
148872
148865
149343
149551
149541
149332
148860
148854
149321
149528
149518
149310
148849
148843
149299
149506
149495
149289
148839
148834
149278
149483
149472
149268
148830
148826
149257
149460
149450
149247
148823
148820
149237
149438
149428
149228
148818
148815
149218
149416
149406
149209
148814
148813
149200
149394
149384
149191
148813
148813
149182
149373
149363
149174
148814
148814
149165
149351
149341
149156
148816
148818
149148
149330
149320
149140
148821
148823
149131
149308
149297
149123
148826
148829
149114
149284
149272
149104
148833
148837
149095
149258
149245
149085
148841
148846
149074
149230
149215
149063
148851
148856
149050
149197
149177
149035
148861
148866
149019
149154
149125
148995
148867
148874
148969
149088
149034
148918
148859
148861
148874
148969
148914
148864
148876
148884
148867
148878
148878
148886
148903
148919
148907
148889
148927
148941
148948
148958
148960
148952
148982
148982
148979
148961
148965
148968
148985
148982
148979
148950
148956
148959
148979
148976
148969
148931
148940
148941
148962
148962
148951
148919
148929
148928
148950
148952
148943
148922
148930
148928
148945
148947
148940
148926
148932
148931
148941
148942
148937
148926
148930
148929
148936
148936
148933
148922
148925
148924
148929
148930
148927
148916
148919
148918
148922
148923
148921
148911
148913
148912
148916
148917
148916
148906
148907
148907
148911
148912
148911
148902
148903
148902
148907
148908
148908
148900
148900
148900
148905
148906
148906
148900
148900
148900
148906
148907
148907
148904
148904
148904
148911
148912
148912
148913
148913
148913
148921
148921
148921
148925
148925
148925
148934
148934
148933
148939
148939
148940
148949
148948
148947
148953
148954
148955
148963
148962
148960
148964
148967
148968
148974
148972
148968
148972
148977
148978
148985
148983
148978
148983
148990
148992
149000
148998
148990
148996
149006
149008
149016
149014
149003
149008
149021
149024
149032
149029
149015
149021
149037
149041
149050
149046
149028
149034
149054
149059
149068
149063
149040
149045
149071
149077
149084
149078
149050
149052
149084
149091
149097
149090
149055
149057
149096
149104
149112
149103
149061
149064
149110
149120
149129
149118
149069
149073
149126
149138
149147
149133
149076
149079
149139
149155
149162
149146
149081
149082
149151
149169
149176
149156
149084
149085
149160
149182
149189
149165
149086
149088
149169
149195
149200
149173
149089
149091
149177
149205
149215
149186
149097
149220
149217
149215
149211
149215
149223
149224
149234
149238
149251
149256
149271
149277
149296
149301
149319
149320
149341
149347
149343
149322
149311
149305
149284
149231
149184
149101
149101
149182
149225
149128
149053
148983
149019
149094
149172
149171
149088
149014
149021
149096
149180
149178
149095
149022
149028
149102
149185
149185
149103
149030
149037
149111
149193
149195
149115
149039
149045
149122
149203
149205
149124
149047
149052
149131
149212
149213
149133
149054
149057
149139
149220
149221
149141
149059
149062
149146
149228
149229
149148
149062
149065
149153
149236
149238
149155
149066
149069
149161
149246
149250
149164
149070
149074
149172
149260
149265
149176
149077
149083
149186
149277
149284
149191
149086
149092
149202
149296
149303
149207
149096
149102
149218
149316
149324
149224
149106
149112
149235
149338
149345
149241
149116
149124
149253
149360
149368
149260
149128
149135
149272
149382
149390
149279
149140
149146
149291
149404
149410
149296
149149
149153
149305
149422
149425
149307
149154
149156
149315
149435
149437
149316
149154
149156
149322
149445
149446
149322
149154
149155
149329
149454
149454
149328
149153
149153
149335
149462
149462
149334
149151
149152
149340
149469
149469
149340
149150
149152
149347
149477
149477
149346
149150
149152
149354
149484
149485
149354
149150
149152
149361
149492
149493
149361
149151
149154
149369
149501
149501
149369
149154
149157
149377
149510
149510
149378
149157
149160
149387
149519
149520
149388
149161
149164
149396
149528
149529
149398
149165
149169
149406
149538
149539
149407
149169
149173
149416
149547
149548
149417
149173
149177
149425
149556
149556
149426
149177
149181
149435
149564
149565
149436
149181
149186
149446
149573
149575
149448
149187
149193
149458
149584
149586
149461
149195
149202
149472
149594
149597
149475
149205
149213
149487
149606
149608
149491
149218
149227
149503
149617
149622
149510
149235
149248
149524
149632
149636
149529
149257
149271
149545
149646
149653
149552
149282
149298
149569
149663
149668
149575
149311
149327
149589
149677
149683
149597
149340
149357
149611
149692
149696
149617
149370
149390
149631
149706
149713
149642
149408
149425
149655
149721
149726
149662
149441
149458
149674
149734
149740
149684
149477
149497
149695
149748
149755
149705
149516
149538
149717
149763
149769
149726
149554
149577
149737
149777
149783
149747
149598
149618
149756
149790
149797
149764
149639
149665
149779
149808
149811
149788
149682
149592
149741
149790
149823
149790
149659
149684
149805
149833
149843
149821
149718
149746
149833
149851
149856
149845
149777
149809
149851
149865
149882
149884
149846
149854
149895
149890
149899
149909
149871
149885
149922
149908
149911
149929
149897
149899
149942
149925
149933
149957
149912
149924
149973
149941
149950
149985
149939
149950
149997
149963
149960
150005
149959
149971
150010
149966
149948
150001
149979
149985
149996
149936
149960
150005
149990
149995
150003
149960
149927
149987
149998
149999
149975
149922
149946
149975
150000
149998
149956
149915
149899
149936
149994
149992
149918
149879
149871
149905
149992
149990
149888
149856
149839
149867
149989
149987
149848
149822
149841
149830
150001
149973
149790
149794
149835
149821
150050
150016
149912
149998
149835
149820
150161
149891
149941
149980
149802
149915
150133
148444
150031
149688
149869
149833
147195
143601
148050
149193
148073
146568
142075
141129
145055
146986
145554
143802
141124
141287
143087
145112
144350
142533
141403
141471
142086
143413
143418
141935
141556
141569
141773
142939
142363
141624
141599
141630
141473
141818
141966
141448
141669
141692
141378
141707
141505
141335
141734
141785
141339
141259
141591
141362
141845
141885
141395
141311
141849
141442
141950
141985
141505
141827
141826
141544
142047
142144
141590
141648
142278
141782
142284
142381
141968
142277
142349
142102
142512
142677
142243
142268
142858
142521
142872
143004
142801
143016
143215
142999
143140
143268
143187
143348
143311
143249
143361
143546
143519
143762
143833
143658
143641
143749
143790
143933
143894
143808
143804
144064
144057
144266
144263
144123
144076
144221
144284
144405
144500
144405
144335
144331
144398
144472
144763
144697
144608
144638
144739
144853
144913
144780
144664
144726
144845
144967
144919
144804
144681
144970
145107
145196
145244
145121
144978
145006
145147
145271
145210
145089
144947
145206
145367
145464
145493
145367
145203
145212
145373
145502
145436
145307
145145
145398
145578
145681
145700
145571
145389
145375
145564
145706
145717
145578
145387
145306
145499
145639
145869
145764
145562
145550
145752
145883
145875
145738
145539
145461
145658
145798
146030
145922
145709
145692
145907
146041
146030
145889
145675
145579
145794
145940
146177
146071
145849
145828
146054
146188
146170
146027
145805
145704
145927
146075
146311
146196
145953
145936
146181
146321
146305
146156
145915
145807
146049
146206
146441
146324
146070
146045
146302
146442
146415
146264
146011
145917
146166
146322
146549
146436
146175
146152
146410
146548
146436
146288
146039
146286
146546
146662
146657
146519
146253
146230
146485
146632
146533
146377
146119
146369
146639
146754
146753
146615
146335
146291
146565
146716
146606
146445
146168
146438
146721
146834
146829
146690
146409
146283
146556
146709
146918
146803
146521
146483
146773
146911
146874
146721
146434
146309
146600
146764
146986
146873
146578
146543
146840
146980
146856
146700
146411
146655
146949
147064
147058
146920
146614
146557
146860
147014
146903
146737
146434
146703
147012
147127
147116
146973
146661
146521
146827
146986
147190
147074
146764
146717
147039
147178
147134
146977
146655
146519
146847
147018
147235
147119
146793
146750
147081
147226
147093
146928
146603
146855
147179
147297
147288
147146
146805
146741
147078
147239
147111
146933
146588
146871
147220
147340
147329
147178
146825
146667
147016
147188
147393
147274
146926
146876
147227
147376
147235
147067
146725
146975
147323
147444
147419
147268
146916
146793
147132
147298
147500
147383
147042
146984
147345
147487
147434
147270
146904
146744
147119
147302
147514
147390
147012
146954
147339
147495
147346
147164
146784
147067
147437
147557
147543
147389
147011
146844
147217
147395
147603
147480
147107
147050
147430
147585
147439
147262
146887
147145
147519
147643
147632
147482
147086
146998
147400
147574
147441
147247
146845
147129
147535
147666
147648
147480
147060
146878
147291
147485
147696
147566
147160
147092
147509
147674
147515
147326
146918
147188
147599
147730
147707
147542
147125
146965
147370
147560
147766
147639
147234
147167
147584
147747
147584
147394
146986
147257
147666
147796
147773
147608
147187
147013
147426
147618
147824
147689
147269
147200
147647
147808
147753
147565
147111
146910
147373
147592
147816
147675
147215
147135
147614
147795
147616
147402
146932
147231
147692
147833
147810
147627
147147
146949
147418
147632
147861
147715
147246
147171
147651
147835
147663
147448
146980
147269
147738
147880
147858
147673
147186
146984
147461
147678
147902
147757
147280
147201
147690
147876
147695
147477
146993
147285
147770
147916
147892
147705
147205
147006
147496
147717
147943
147797
147310
147220
147727
147916
147730
147506
147009
147307
147803
147951
147928
147738
147222
147006
147516
147743
147971
147822
147318
147231
147754
147947
147761
147530
147009
147329
147838
147986
147979
147794
147245
147106
147669
147893
147700
147438
146868
147229
147791
147957
147932
147715
147125
146875
147459
147719
147964
147801
147234
147129
147721
147937
147719
147461
146877
147232
147804
147968
147939
147721
147125
146875
147465
147725
147972
147808
147227
147128
147731
147947
147730
147466
146871
147223
147809
147978
147949
147726
147118
146861
147464
147731
147980
147811
147222
147114
147730
147954
147730
147461
146850
147207
147811
147984
147954
147728
147100
146838
147461
147733
147984
147811
147195
147090
147729
147957
147734
147459
146829
147199
147816
147990
147964
147733
147090
146809
147449
147730
147985
147804
147174
147063
147721
147957
147735
147451
146797
147175
147814
147996
147979
147749
147062
146895
147599
147874
147632
147304
146583
147024
147731
147929
147907
147642
146886
146576
147323
147645
147922
147717
146985
146849
147611
147882
147614
147287
146536
146962
147697
147904
147870
147596
146830
146521
147280
147609
147907
147699
146959
146828
147599
147874
147601
147271
146505
146943
147689
147895
147874
147599
146820
146469
147249
147587
147889
147668
146901
146771
147563
147848
147582
147241
146453
146900
147670
147886
147859
147575
146771
146438
147244
147590
147898
147682
146908
146785
147620
147892
147767
147436
146579
146219
147088
147474
147806
147557
146692
146531
147440
147763
147467
147083
146195
146701
147565
147809
147766
147445
146546
146189
147074
147460
147800
147561
146707
146561
147454
147771
147457
147073
146185
146701
147553
147790
147766
147454
146568
146138
147037
147430
147763
147511
146633
146476
147428
147739
147622
147246
146263
145848
146849
147296
147685
147415
146453
146281
147294
147654
147309
146876
145870
146442
147406
147674
147659
147306
146298
145861
146869
147302
147660
147377
146396
146220
147276
147625
147478
147064
145981
145546
146641
147131
147561
147265
146211
146036
147142
147531
147162
146689
145594
146223
147271
147565
147533
147142
146052
145633
146704
147162
147537
147236
146180
145931
147080
147465
147322
146867
145677
145232
146430
146962
147423
147102
145950
145754
146962
147385
146994
146482
145289
145971
147105
147420
147403
146986
145789
145323
146506
147006
147422
147118
146024
145750
146967
147365
147177
146698
145451
144970
146241
146796
147289
146957
145753
145553
146821
147261
146867
146330
145070
145799
146985
147316
147323
146906
145630
145354
146658
147155
146674
146086
144765
145442
146768
147154
147082
146590
145188
144710
146085
146666
147168
146808
145523
145322
146708
147155
146997
146452
145034
144470
145900
146533
147064
146677
145323
145152
146626
147100
146899
146311
144759
144004
145591
146301
146900
146467
144975
144723
146283
146835
146408
145754
144213
145117
146546
146953
146975
146473
144913
144606
146201
146805
146283
145584
143992
145041
146457
146861
146783
146242
144620
144208
145880
146524
146062
145333
143640
144690
146259
146700
146712
146173
144448
144140
145916
146575
146014
145241
143461
144652
146204
146641
146665
146116
144381
143722
145572
146289
145740
144932
143070
144238
145952
146440
146428
145831
143946
143631
145668
146364
146203
145390
143224
142499
144640
145571
146292
145770
143882
143264
145434
146148
145872
145043
142836
142187
144377
145316
146134
145561
143584
143315
145504
146189
146153
145358
142999
142732
145139
146005
144950
143795
141289
142863
145115
145835
145812
145003
142573
142235
144796
145716
145565
144515
141869
141136
143714
144875
145738
145084
142853
141990
144633
145535
145291
144315
141498
141078
144170
145219
145132
143942
140693
140067
143205
144517
145432
144664
142000
141179
144257
145242
145056
144003
140701
140342
143860
144995
145003
143794
140050
139555
143534
144904
144296
142625
138451
137606
141519
143301
144744
143714
140470
140265
143658
144771
144516
143080
139234
138648
142841
144296
144224
142753
138389
137630
142416
144092
143851
142004
136911
136467
141783
143684
143478
141347
135819
135449
141138
143382
143301
140919
135199
134959
140752
143261
143132
140494
134723
134529
140317
143060
142907
140067
134348
134204
139910
142833
142669
139678
134065
133963
139540
142589
142422
139328
133858
133791
139210
142345
142175
139020
133714
133674
138923
142099
141933
138754
133620
133600
138677
141863
141698
138527
133563
133559
138469
141632
141474
138337
133536
133547
138296
141417
141263
138181
133535
133562
138152
141214
141070
138053
133558
133598
138039
141031
140894
137952
133600
133648
137946
140865
140739
137871
133655
133708
137877
140720
140601
137810
133718
133774
137821
140591
140483
137762
133786
133845
137782
140483
140382
137731
133857
133916
137753
140390
140299
137708
133929
133988
137737
140315
140230
137698
134001
134059
137728
140252
140175
137693
134071
134128
137729
140204
140132
137698
134139
134194
137734
140165
140100
137706
134205
134258
137746
140138
140077
137722
134269
134320
137761
140118
140062
137740
134329
134379
137783
140107
140053
137763
134387
134435
137805
140100
140050
137787
134443
134489
137832
140100
140052
137816
134496
134540
137858
140102
140058
137843
134546
134589
137889
140110
140066
137875
134595
134636
137918
140119
140078
137905
134641
134680
137950
140134
140094
137938
134685
134723
137982
140147
140109
137970
134726
134764
138015
140163
140125
138004
134766
134802
138046
140178
140142
138035
134804
134839
138079
140196
140160
138068
134841
134875
138110
140213
140179
138099
134876
134909
138142
140232
140198
138132
134909
134941
138172
140250
140217
138161
134941
134972
138204
140270
140236
138192
134971
135001
138232
140287
140255
138220
135000
135029
138261
140306
140273
138249
135027
135056
138287
140323
140291
138274
135053
135081
138314
140341
140307
138300
135078
135104
138338
140356
140324
138323
135100
135126
138362
140373
140339
138347
135122
135147
138383
140387
140355
138368
135142
135166
138405
140402
140368
138389
135161
135184
138423
140415
140382
138407
135178
135201
138443
140428
140394
138425
135194
135216
138459
140440
140407
138441
135208
135230
138476
140452
140418
138457
135222
135243
138489
140462
140429
138471
135234
135255
138504
140472
140438
138485
135246
135266
138517
140481
140448
138497
135257
135276
138530
140491
140457
138510
135266
135285
138540
140499
140466
138520
135275
135294
138552
140507
140473
138532
135284
135302
138561
140514
140481
138540
135291
135309
138571
140522
140487
138550
135298
135316
138579
140528
140494
138558
135305
135322
138588
140534
140499
138566
135310
135327
138595
140539
140505
138573
135316
135332
138602
140545
140510
138580
135321
135337
138608
140549
140515
138586
135325
135341
138615
140554
140519
138592
135329
135345
138620
140558
140524
138597
135333
135349
138626
140562
140527
138603
135336
135352
138630
140565
140531
138606
135340
135355
138635
140569
140533
138612
135343
135358
138638
140571
140537
138615
135345
135360
138643
140574
140539
138619
135348
135363
138645
140576
140542
138622
135350
135365
138649
140579
140544
138626
135352
135367
138651
140581
140546
138628
135353
135368
138655
140583
140547
138631
135355
135370
138656
140584
140549
138632
135356
135371
138659
140586
140550
138635
135358
135372
138660
140586
140552
138636
135359
135373
138663
140588
140552
138639
135360
135374
138664
140588
140553
138639
135361
135375
138666
140589
140553
138641
135361
135376
138666
140589
140554
138641
135362
135376
138668
140590
140554
138643
135363
135377
138668
140590
140555
138643
135363
135377
138670
140590
140554
138645
135363
135377
138670
140590
140555
138645
135364
135378
138671
140591
140555
138646
135364
135378
138671
140590
140555
138646
135364
135378
138672
140590
140554
138647
135364
135378
138672
140590
140555
138647
135364
135378
138673
140590
140554
138648
135364
135378
138672
140589
140554
138647
135364
135378
138673
140590
140554
138648
135363
135377
138673
140589
140554
138648
135363
135377
138674
140590
140554
138649
135363
135377
138674
140589
140555
138649
135362
135376
138675
140591
140555
138651
135362
135376
138676
140592
140559
138652
135361
135379
138679
140598
140565
138656
135363
135386
138691
140615
140593
138679
135369
135422
138750
140702
140792
138811
135462
135627
139022
141098
141514
139351
135885
136223
139763
141970
142357
140158
136565
144412
145651
146197
146864
147354
147592
148005
148377
148704
148943
149129
149279
149397
149490
149562
149617
149659
149692
149716
149736
149751
149762
149771
149778
149783
149788
149789
149791
149791
149792
149800
149803
149804
149804
149805
149805
149807
149808
149811
149815
149819
149826
149834
149844
149855
149869
149884
149899
149911
149919
149920
149917
149912
149906
149901
149897
149894
149891
149888
149885
149882
149879
149876
149873
149870
149867
149864
149862
149859
149857
149855
149853
149852
149851
149851
149851
149852
149853
149854
149856
149859
149861
149864
149867
149870
149873
149875
149878
149880
149882
149883
149884
149884
149884
149883
149882
149880
149878
149875
149872
149869
149865
149861
149856
149852
149847
149842
149837
149832
149827
149822
149817
149813
149808
149804
149801
149797
149795
149792
149790
149789
149788
149788
149788
149789
149790
149792
149794
149797
149800
149804
149808
149812
149816
149821
149826
149831
149836
149841
149846
149851
149856
149862
149867
149872
149877
149882
149887
149892
149896
149900
149904
149907
149910
149913
149914
149915
149916
149916
149916
149915
149914
149913
149912
149910
149908
149906
149904
149901
149898
149895
149892
149888
149885
149881
149878
149875
149872
149870
149869
149868
149868
149869
149871
149874
149878
149882
149887
149893
149899
149906
149915
149926
149938
149950
149960
149976
149978
149980
149984
149989
149997
150011
150028
150037
150038
150036
150033
150030
150028
150026
150025
150024
150023
150022
150021
150020
150020
150019
150019
150018
150018
150018
150018
150017
150017
150017
150017
150017
150017
150017
150017
150017
150017
150017
150016
150016
150016
150016
150016
150015
150015
150015
150014
150014
150013
150012
150011
150009
150007
150005
150003
150004
150009
150013
150016
150021
150033
150056
150063
150066
150063
150060
150056
150053
150049
150045
150041
150036
150031
150027
150022
150018
150013
150008
150003
149998
149993
149988
149982
149977
149971
149965
149959
149953
149946
149940
149933
149926
149919
149912
149905
149897
149889
149882
149873
149865
149857
149848
149839
149830
149821
149812
149802
149793
149783
149773
149763
149752
149742
149732
149721
149711
149701
149690
149679
149669
149658
149647
149637
149626
149616
149605
149595
149585
149574
149563
149553
149542
149531
149520
149509
149497
149485
149472
149459
149445
149431
149416
149400
149382
149362
149339
149310
149270
149213
149153
149089
149037
148998
148993
148977
148993
148968
148983
148954
148977
148934
148960
148917
148947
148919
148942
148926
148939
148927
148935
148923
148928
148917
148922
148911
148916
148905
148910
148901
148906
148899
148905
148899
148906
148904
148911
148913
148921
148926
148935
148941
148950
148956
148964
148970
148975
148980
148987
148994
149002
149010
149018
149025
149034
149042
149052
149060
149070
149078
149086
149092
149099
149106
149114
149122
149131
149140
149149
149157
149165
149172
149179
149186
149193
149199
149205
149210
149208
149205
149201
149203
149198
149196
149190
149192
149185
149183
149190
149193
149197
149202
149205
149200
149196
149209
149211
149215
149216
149212
149209
149207
149196
149177
149178
149179
149172
149171
149166
149165
149158
149157
149164
149150
149151
149150
149141
149142
149135
149133
149124
149125
149135
149122
149120
149116
149108
149111
149107
149102
149095
149099
149110
149096
149095
149089
149081
149084
149079
149074
149064
149068
149081
149067
149063
149056
149046
149051
149046
149039
149030
149035
149051
149038
149032
149023
149014
149019
149016
149007
148998
149003
149023
149009
149001
148992
148984
148989
148989
148981
148974
148978
148998
148985
148978
148969
148960
148964
148963
148955
148944
148948
148970
148953
148947
148939
148929
148932
148933
148925
148916
148918
148940
148929
148923
148914
148906
148908
148916
148908
148901
148902
148922
148918
148913
148906
148899
148900
148914
148907
148900
148901
148916
148914
148917
148911
148903
148905
148922
148915
148908
148910
148915
148922
148928
148920
148915
148917
148935
148927
148922
148922
148940
148961
148943
148933
148926
148924
148949
148935
148923
148913
148992
149029
148952
148928
148906
148890
148954
148921
148897
148884
149093
149196
148983
148939
148925
148946
149056
148980
148966
149039
149304
149401
149151
149015
149016
149149
149252
149074
149097
149264
149486
149553
149344
149149
149192
149365
149431
149251
149302
149458
149606
149645
149511
149357
149399
149531
149572
149441
149466
149577
149669
149681
149607
149488
149503
149602
149628
149519
149531
149623
149691
149703
149646
149545
149556
149642
149664
149569
149579
149661
149716
149731
149682
149591
149602
149680
149699
149613
149623
149697
149746
149761
149716
149633
149642
149714
149732
149652
149662
149731
149775
149791
149748
149671
149681
149747
149764
149690
149699
149763
149806
149821
149780
149709
149718
149779
149796
149728
149737
149796
149835
149851
149812
149747
149756
149812
149828
149766
149775
149829
149866
149882
149845
149785
149794
149846
149861
149804
149812
149862
149897
149911
149877
149822
149830
149879
149893
149840
149848
149895
149926
149941
149908
149858
149866
149910
149923
149876
149883
149925
149954
149967
149937
149892
149899
149939
149951
149907
149914
149952
149979
149990
149963
149922
149928
149965
149975
149936
149942
149976
150000
150010
149986
149950
149955
149987
149996
149962
149967
149996
150018
150026
150005
149973
149978
150005
150013
149984
149988
150014
150033
150039
150021
149994
149998
150021
150027
150003
150007
150028
150044
150048
150033
150012
150015
150033
150038
150019
150022
150039
150051
150054
150043
150026
150029
150043
150047
150032
150035
150047
150056
150057
150050
150038
150040
150050
150053
150043
150045
150053
150058
150058
150055
150048
150050
150055
150057
150052
150055
150058
150058
150057
150059
150057
150059
150059
150060
150060
150062
150060
150054
150048
150060
150063
150064
150059
150031
150043
150051
150056
150059
150061
150062
150062
150062
150061
150059
150057
150053
150049
150044
150039
150032
150024
150016
150006
149996
149985
149973
149961
149947
149933
149919
149905
149890
149876
149863
149850
149836
149822
149809
149796
149783
149769
149757
149747
149738
149729
149717
149698
149671
149635
149582
149513
149429
149339
149256
149184
149123
149077
149048
149025
149004
148990
148982
148982
148985
148994
149006
149021
149034
149046
149059
149070
149083
149093
149106
149118
149131
149143
149154
149163
149175
149185
149213
149221
149226
149225
149226
149229
149234
149231
149229
149255
149253
149251
149256
149257
149258
149259
149260
149307
149295
149287
149281
149276
149282
149286
149291
149325
149316
149306
149313
149322
149330
149339
149360
149375
149314
149260
149260
149207
149201
149197
149259
149259
149327
149321
149389
149403
149417
149333
149338
149256
149189
149180
149253
149252
149173
149165
149252
149354
149349
149342
149443
149430
149517
149496
149473
149451
149429
149408
149377
149363
149350
149337
149338
149349
149360
149390
149376
149363
149367
149382
149397
149417
149453
149443
149427
149408
149389
149371
149355
149322
149314
149312
149285
149236
149265
149311
149315
149273
149284
149328
149339
149355
149344
149333
149286
149294
149296
149349
149361
149373
149391
149408
149424
149457
149470
149478
149505
149534
149565
149562
149546
149528
149513
149497
149483
149454
149439
149424
149411
149409
149397
149394
149382
149378
149365
149308
149306
149318
149320
149329
149331
149341
149342
149352
149354
149426
149438
149440
149366
149364
149377
149453
149470
149488
149470
149455
149380
149393
149399
149473
149490
149508
149528
149547
149568
149581
149596
149595
149622
149538
149551
149454
149463
149472
149362
149252
149158
149152
149253
149256
149146
149138
149253
149381
149379
149370
149483
149492
149495
149586
149583
149577
149568
149560
149644
149636
149647
149642
149629
149616
149609
149588
149572
149555
149551
149534
149530
149514
149510
149493
149419
149413
149435
149441
149457
149463
149479
149486
149502
149510
149577
149593
149598
149533
149526
149548
149612
149627
149641
149628
149616
149553
149566
149568
149628
149638
149649
149655
149654
149655
149660
149663
149659
149649
149642
149645
149636
149579
149578
149587
149587
149594
149593
149647
149653
149650
149599
149600
149606
149656
149666
149660
149650
149655
149659
149662
149673
149673
149668
149669
149664
149664
149669
149671
149675
149665
149660
149662
149656
149659
149653
149604
149610
149609
149615
149614
149620
149620
149663
149669
149677
149681
149685
149689
149678
149677
149663
149585
149493
149379
149248
149128
149118
149243
149242
149110
149101
149240
149379
149378
149377
149492
149492
149495
149497
149381
149241
149096
149094
149246
149254
149099
149108
149266
149397
149391
149386
149499
149501
149504
149510
149409
149284
149126
149149
149305
149329
149176
149210
149358
149472
149447
149426
149523
149540
149560
149586
149503
149394
149252
149305
149440
149488
149362
149425
149542
149624
149580
149541
149620
149649
149685
149732
149710
149689
149660
149638
149622
149608
149599
149595
149594
149591
149590
149587
149584
149585
149664
149663
149666
149683
149686
149681
149684
149679
149682
149696
149692
149686
149681
149682
149676
149677
149671
149673
149667
149626
149626
149632
149632
149638
149638
149645
149645
149651
149651
149685
149690
149688
149656
149657
149661
149692
149697
149700
149695
149691
149661
149666
149666
149694
149698
149702
149706
149707
149712
149689
149688
149670
149671
149673
149674
149706
149709
149700
149702
149693
149696
149721
149715
149712
149709
149709
149706
149705
149702
149702