/*--------------------------------*- C++ -*----------------------------------*\
| =========                 |                                                 |
| \\      /  F ield         | OpenFOAM: The Open Source CFD Toolbox           |
|  \\    /   O peration     | Version:  v2006                                 |
|   \\  /    A nd           | Website:  www.openfoam.com                      |
|    \\/     M anipulation  |                                                 |
\*---------------------------------------------------------------------------*/
FoamFile
{
    version     2.0;
    format      ascii;
    class       volScalarField;
    location    "0.017";
    object      p;
}
// * * * * * * * * * * * * * * * * * * * * * * * * * * * * * * * * * * * * * //

dimensions      [1 -1 -2 0 0 0 0];


internalField   nonuniform List<scalar> 
12716
(
146475
146475
146475
146475
146475
146475
146475
146475
146475
146478
146485
146494
146504
146515
146526
146538
146550
146562
146575
146588
146601
146615
146630
146645
146660
146676
146693
146709
146726
146743
146761
146779
146797
146815
146833
146852
146870
146888
146907
146925
146943
146961
146979
146996
147014
147031
147047
147063
147079
147094
147108
147122
147136
147150
147163
147175
147186
147195
147201
147203
147204
147204
147203
147201
147201
147206
147215
147237
147275
147301
147319
147295
147293
147284
147280
147282
147284
147271
147270
147270
147259
147259
147259
147248
147248
147249
147240
147240
147239
147232
147233
147233
147228
147227
147227
147222
147222
147223
147219
147218
147218
147215
147215
147216
147214
147213
147213
147212
147212
147213
147212
147211
147211
147211
147211
147212
147212
147212
147211
147212
147213
147213
147215
147215
147215
147217
147217
147218
147221
147220
147220
147223
147224
147224
147228
147227
147227
147231
147231
147232
147236
147236
147236
147240
147241
147241
147246
147246
147246
147251
147251
147252
147258
147257
147257
147263
147263
147264
147271
147270
147270
147277
147277
147277
147285
147284
147284
147292
147292
147292
147301
147300
147300
147308
147309
147309
147318
147318
147318
147327
147327
147328
147338
147337
147337
147347
147348
147348
147359
147359
147358
147370
147370
147370
147383
147382
147382
147394
147394
147395
147408
147408
147407
147421
147421
147422
147436
147435
147435
147450
147450
147450
147466
147465
147465
147481
147481
147482
147498
147498
147497
147514
147515
147515
147533
147533
147532
147550
147551
147551
147570
147570
147569
147589
147589
147589
147610
147609
147609
147629
147630
147630
147651
147651
147650
147672
147673
147673
147696
147695
147695
147718
147718
147719
147742
147742
147741
147765
147766
147766
147791
147791
147790
147815
147816
147817
147843
147842
147842
147868
147868
147869
147897
147896
147895
147923
147924
147924
147953
147952
147952
147981
147981
147982
148012
148012
148011
148042
148042
148043
148075
148074
148073
148106
148106
148107
148140
148139
148139
148172
148173
148174
148208
148208
148207
148242
148243
148244
148279
148279
148278
148314
148315
148316
148353
148352
148351
148388
148389
148390
148427
148427
148426
148464
148464
148465
148503
148502
148502
148540
148540
148541
148579
148578
148578
148615
148616
148617
148654
148654
148653
148690
148690
148691
148728
148727
148726
148761
148762
148763
148798
148797
148796
148829
148830
148831
148863
148862
148861
148892
148893
148894
148923
148922
148921
148948
148949
148950
148975
148975
148974
148997
148998
148999
149021
149020
149019
149039
149039
149040
149057
149056
149056
149070
149070
149071
149083
149082
149081
149091
149091
149092
149100
149099
149099
149107
149107
149108
149115
149114
149114
149121
149121
149121
149127
149126
149126
149131
149131
149131
149135
149135
149135
149137
149137
149137
149139
149140
149140
149141
149141
149141
149142
149142
149142
149142
149142
149142
149141
149142
149142
149141
149141
149141
149140
149140
149140
149139
149139
149139
149138
149138
149138
149137
149137
149137
149135
149135
149136
149134
149134
149134
149132
149132
149132
149130
149130
149130
149128
149128
149128
149126
149126
149125
149123
149123
149124
149121
149121
149120
149118
149118
149118
149115
149115
149115
149112
149112
149112
149109
149109
149109
149106
149106
149106
149103
149103
149102
149099
149099
149100
149096
149096
149096
149092
149093
149093
149089
149089
149089
149085
149085
149085
149082
149082
149082
149078
149078
149078
149074
149074
149074
149070
149070
149071
149067
149067
149067
149063
149063
149063
149059
149059
149059
149055
149055
149056
149052
149052
149052
149048
149048
149048
149045
149045
149045
149041
149041
149041
149038
149038
149038
149035
149035
149035
149031
149031
149031
149028
149028
149028
149025
149025
149025
149021
149021
149021
149018
149018
149018
149015
149015
149015
149012
149012
149012
149008
149008
149008
149005
149005
149005
149002
149002
149002
149002
149002
149000
149002
149000
149002
148999
149002
148999
149001
149000
149001
149001
149002
149001
149002
149001
149001
149001
149002
149000
148999
148999
149002
149011
149014
149017
149027
149034
149020
148984
148905
148986
148987
148994
148989
148997
148997
148997
149003
149003
149003
149004
149003
149003
149007
149007
149007
149007
149007
149007
149010
149010
149010
149010
149010
149010
149013
149013
149013
149013
149013
149013
149016
149016
149016
149016
149016
149016
149019
149019
149019
149019
149019
149019
149022
149022
149022
149022
149022
149022
149024
149024
149024
149024
149024
149025
149027
149027
149027
149027
149027
149027
149030
149030
149030
149030
149030
149030
149032
149032
149032
149032
149032
149033
149035
149035
149035
149035
149035
149035
149038
149038
149038
149038
149038
149038
149041
149041
149041
149041
149041
149041
149044
149044
149044
149044
149044
149044
149047
149047
149047
149047
149047
149047
149050
149050
149050
149050
149050
149050
149053
149053
149053
149053
149053
149053
149056
149056
149056
149056
149056
149056
149059
149059
149059
149059
149059
149059
149062
149062
149062
149062
149062
149062
149065
149065
149065
149065
149065
149065
149068
149068
149068
149068
149068
149068
149071
149071
149071
149072
149072
149072
149074
149074
149074
149075
149075
149075
149077
149077
149077
149078
149077
149078
149080
149080
149080
149080
149080
149080
149083
149083
149083
149083
149083
149083
149086
149086
149086
149086
149086
149086
149088
149089
149089
149089
149089
149089
149091
149091
149091
149091
149091
149091
149094
149094
149094
149094
149094
149094
149096
149096
149096
149097
149096
149096
149099
149099
149099
149099
149099
149099
149101
149101
149101
149101
149101
149101
149103
149103
149103
149102
149102
149102
149104
149104
149104
149103
149103
149103
149104
149104
149104
149102
149102
149102
149100
149101
149102
149101
149100
149099
149103
149104
149104
149104
149103
149103
149105
149107
149108
149112
149110
149109
149118
149119
149120
149127
149126
149125
149133
149134
149134
149141
149140
149139
149149
149150
149150
149155
149154
149153
149162
149163
149164
149174
149174
149173
149184
149185
149185
149194
149193
149193
149201
149202
149203
149213
149212
149212
149223
149223
149224
149235
149235
149234
149249
149249
149249
149259
149259
149257
149272
149273
149273
149286
149286
149286
149299
149299
149300
149314
149312
149310
149333
149333
149334
149352
149355
149345
149397
149269
149381
149373
149377
149371
149393
149393
149392
149413
149414
149414
149433
149433
149433
149449
149452
149453
149464
149465
149469
149504
149508
149510
149537
149538
149534
149567
149572
149568
149598
149608
149602
149629
149638
149629
149653
149670
149656
149685
149704
149689
149724
149748
149718
149759
149796
149767
149809
149849
149810
149849
149905
149854
149897
149958
149902
149936
149992
149938
149974
150025
149969
150023
150068
150011
150047
150104
150054
150061
150125
150081
150111
150145
150086
150137
150180
150144
150178
150200
150135
150141
150208
150212
150243
150203
150129
150125
150198
150269
150283
150186
150118
150078
150143
150281
150258
150076
149997
149944
149993
150195
150034
149826
149788
149552
149580
149772
149260
149251
149333
148695
148606
148550
147233
147916
148093
147167
146984
145837
143079
145872
146097
145009
144638
141221
138279
143131
143998
142827
142340
138478
138941
141832
142434
142053
141695
140168
141114
141866
142133
142272
141999
141700
142014
142087
142244
142521
142294
142290
142474
142403
142629
142624
142471
142620
142763
142571
142662
142958
142756
142887
142950
142831
142982
142958
142859
143018
143095
142892
142964
143176
142980
143179
143227
142998
143172
143345
143093
143346
143499
143248
143444
143538
143383
143610
143683
143485
143620
143883
143673
143807
143932
143792
143947
143997
143896
144031
144112
144002
144073
144309
144200
144246
144365
144311
144364
144432
144386
144437
144484
144457
144484
144528
144520
144542
144656
144665
144703
144697
144688
144700
144727
144718
144708
144725
144743
144746
144948
144925
144909
144926
144939
144950
144975
144976
144987
145020
145018
145019
145000
144993
144993
145176
145201
145197
145197
145189
145182
145186
145187
145190
145200
145205
145199
145212
145073
145245
145327
145341
145312
145304
145309
145315
145303
145296
145294
145268
145265
145272
145403
145406
145387
145376
145382
145386
145372
145366
145365
145342
145341
145347
145464
145466
145448
145435
145442
145446
145435
145433
145432
145437
145444
145438
145495
145288
145455
145499
145523
145508
145494
145490
145487
145470
145474
145467
145530
145351
145487
145535
145559
145547
145524
145520
145517
145491
145493
145488
145521
145380
145493
145559
145588
145582
145548
145544
145538
145504
145506
145501
145538
145371
145506
145556
145579
145568
145562
145552
145544
145516
145516
145534
145403
145573
145436
145554
145560
145567
145540
145538
145532
145508
145503
145521
145395
145623
145429
145555
145556
145570
145518
145518
145515
145455
145450
145455
145542
145544
145530
145511
145519
145524
145508
145493
145487
145442
145455
145445
145518
145519
145506
145478
145483
145486
145445
145435
145438
145372
145478
145346
145515
145502
145488
145452
145459
145465
145383
145375
145383
145440
145452
145450
145424
145420
145414
145377
145376
145387
145287
145422
145310
145417
145429
145442
145388
145383
145377
145304
145296
145302
145369
145371
145358
145331
145337
145340
145296
145293
145292
145255
145255
145264
145349
145344
145323
145283
145289
145293
145203
145200
145205
145261
145274
145273
145242
145239
145233
145191
145188
145202
145078
145259
145110
145220
145228
145247
145184
145181
145174
145096
145086
145095
145155
145156
145143
145111
145116
145119
145076
145056
145060
144956
145171
144904
145120
145095
145090
145043
145053
145054
144970
144946
144967
145007
145021
145018
144973
144970
144967
144887
144885
144888
144959
144961
144946
144917
144923
144926
144883
144867
144863
144908
144926
144929
144877
144872
144865
144800
144797
144811
144647
144867
144693
144798
144798
144813
144759
144761
144755
144687
144670
144688
144773
144768
144745
144702
144709
144716
144611
144606
144610
144654
144669
144669
144619
144615
144611
144525
144519
144523
144588
144590
144576
144547
144555
144561
144497
144499
144492
144479
144333
144536
144493
144511
144480
144430
144429
144435
144326
144335
144330
144381
144394
144393
144345
144343
144339
144253
144247
144253
144323
144324
144307
144271
144280
144288
144203
144191
144190
144225
144240
144240
144180
144177
144173
144071
144066
144070
144133
144134
144119
144078
144082
144085
143991
143986
143990
144038
144052
144049
144029
144017
144006
143946
143956
143950
144030
143668
143946
143896
143938
143902
143862
143841
143851
143725
143834
143702
143813
143798
143798
143743
143748
143742
143661
143625
143656
143698
143717
143712
143674
143661
143656
143549
143575
143551
143605
143605
143594
143541
143545
143547
143437
143425
143436
143478
143493
143489
143442
143435
143431
143325
143328
143321
143388
143390
143375
143331
143339
143346
143241
143226
143231
143266
143283
143282
143216
143214
143210
143097
143091
143097
143152
143155
143139
143092
143096
143100
142982
142977
142983
143024
143041
143039
142981
142978
142973
142863
142855
142861
142928
142927
142907
142862
142872
142879
142773
142763
142761
142638
142764
142607
142753
142730
142732
142665
142676
142667
142572
142517
142565
142596
142617
142613
142544
142539
142538
142404
142412
142400
142475
142474
142457
142400
142406
142406
142280
142264
142281
142324
142344
142341
142283
142272
142268
142132
142143
142125
142193
142193
142179
142120
142127
142128
141998
141978
141997
142035
142054
142050
141982
141978
141976
141839
141839
141834
141903
141904
141887
141830
141837
141839
141703
141688
141703
141741
141757
141752
141696
141689
141683
141550
141549
141554
141602
141604
141586
141520
141525
141527
141367
141360
141377
141415
141429
141421
141368
141364
141360
141233
141228
141233
141289
141292
141274
141222
141231
141236
141132
141109
141108
140936
141174
140877
141092
141053
141067
140977
140992
140973
140879
140765
140857
140849
140877
140844
140780
140767
140780
140619
140670
140602
140704
140703
140691
140627
140638
140634
140512
140442
140501
140522
140546
140538
140463
140452
140452
140276
140303
140269
140343
140339
140325
140246
140254
140249
140060
140023
140078
140108
140123
140107
140061
140050
140050
139899
139914
139895
139972
139972
139953
139885
139894
139897
139721
139708
139726
139759
139782
139781
139709
139699
139687
139527
139531
139541
139393
139293
139378
139395
139418
139372
139335
139322
139338
139175
139224
139170
139258
139256
139242
139165
139174
139169
139008
138970
139005
139038
139067
139061
138969
138958
138957
138751
138760
138740
138806
138805
138788
138694
138698
138695
138436
138443
138484
138532
138546
138536
138491
138485
138480
138351
138358
138356
138282
138085
138241
138251
138308
138268
138185
138157
138172
137941
138013
137926
138021
137997
137998
137883
137898
137880
137642
137580
137665
137658
137672
137628
137579
137579
137588
137450
137448
137459
137213
137431
137265
137401
137390
137433
137302
137323
137295
137126
137017
137141
137127
137161
137112
137004
136991
137017
136724
136760
136733
136736
136715
136685
136579
136609
136625
136505
136491
136503
136229
136598
136306
136474
136455
136496
136360
136386
136357
136188
136063
136213
136169
136210
136157
136040
136020
136043
135725
135762
135741
135745
135729
135729
135522
135576
135593
135422
135403
135383
135247
135257
135273
135376
135411
135407
135312
135307
135295
135064
135045
135055
135098
135101
135076
134957
134973
134988
134706
134687
134683
134363
134296
134323
134290
134362
134378
134295
134263
134259
134087
134123
134104
134194
134218
134213
134132
134127
134112
133908
133910
133928
133636
133621
133634
133675
133700
133699
133561
133552
133548
133219
133183
133156
132745
132798
132865
133012
133027
133010
132962
132962
132960
132765
132749
132761
132815
132820
132792
132672
132684
132692
132402
132383
132380
132007
131981
131995
131949
131982
131991
131767
131708
131602
131442
131501
131546
131393
131372
131351
131558
131565
131524
131447
131465
131471
131229
131212
131212
130822
130822
130805
130839
130816
130821
130583
130548
130467
129955
130073
130166
129962
129915
129865
130172
130182
130140
130089
130106
130111
129926
129908
129896
129552
129557
129576
129090
129065
129106
129032
129004
128921
128481
128637
128739
128548
128500
128432
128344
128363
128386
128530
128574
128564
128456
128448
128433
128122
128122
128136
127576
127553
127576
126843
126649
126483
127009
127057
127086
127162
127155
127166
127097
127078
127082
126831
126869
126832
126472
126196
126457
126201
126139
126008
125347
125614
125782
125584
125517
125400
125503
125536
125551
125408
125468
125378
125172
124790
125159
124850
124775
124557
123974
124255
124434
124282
124201
124064
124204
124237
124260
124153
124134
124103
123577
123718
123803
123227
123062
122835
122708
123161
122937
123493
123480
123519
123303
123415
123469
123211
122972
122625
122785
122974
123061
123124
123083
123033
122807
123050
123153
123230
123130
122934
123385
123465
123495
123935
123866
123718
124422
124484
124492
125043
125051
125038
125493
125504
125496
125834
125834
125828
126134
126141
126142
126388
126387
126383
126627
126632
126634
126826
126825
126823
127024
127027
127030
127188
127186
127185
127357
127360
127363
127495
127493
127492
127640
127643
127647
127756
127754
127754
127882
127885
127889
127980
127978
127978
128090
128093
128097
128173
128172
128171
128272
128274
128278
128343
128342
128342
128432
128434
128438
128495
128494
128494
128576
128578
128581
128629
128629
128629
128704
128706
128709
128751
128750
128751
128818
128820
128823
128860
128859
128859
128921
128923
128926
128958
128958
128958
129016
129017
129020
129048
129048
129048
129100
129102
129104
129129
129129
129129
129178
129179
129181
129203
129203
129203
129248
129249
129250
129270
129270
129271
129312
129313
129315
129332
129332
129333
129371
129372
129373
129389
129389
129389
129425
129426
129427
129441
129441
129442
129474
129475
129476
129488
129489
129489
129520
129520
129521
129532
129533
129533
129561
129562
129562
129573
129573
129573
129600
129600
129601
129610
129610
129611
129635
129635
129636
129644
129644
129645
129667
129668
129669
129676
129676
129677
129697
129698
129698
129704
129705
129705
129725
129726
129726
129732
129732
129733
129751
129751
129752
129756
129757
129757
129774
129775
129776
129779
129780
129780
129796
129796
129797
129800
129801
129801
129816
129817
129817
129820
129820
129821
129835
129835
129836
129838
129839
129839
129852
129853
129853
129855
129855
129856
129868
129869
129869
129870
129871
129871
129883
129883
129884
129885
129885
129886
129896
129897
129897
129897
129898
129899
129909
129909
129910
129909
129910
129911
129920
129920
129921
129920
129921
129922
129931
129931
129932
129931
129931
129932
129940
129940
129941
129940
129940
129941
129949
129949
129950
129948
129949
129950
129957
129957
129958
129956
129957
129957
129964
129965
129966
129963
129964
129964
129971
129972
129972
129970
129970
129971
129977
129978
129978
129976
129976
129977
129983
129983
129984
129981
129982
129982
129988
129988
129989
129986
129986
129987
129993
129993
129993
129990
129991
129991
129997
129997
129998
129994
129995
129995
130000
130001
130001
129998
129998
129999
130004
130004
130005
130001
130002
130002
130007
130008
130008
130004
130005
130005
130010
130010
130011
130007
130007
130008
130012
130013
130013
130009
130010
130010
130015
130015
130016
130011
130012
130012
130017
130017
130018
130013
130014
130014
130018
130019
130019
130015
130015
130016
130020
130020
130021
130016
130016
130017
130021
130021
130022
130017
130017
130018
130022
130022
130023
130018
130018
130019
130022
130023
130023
130018
130019
130019
130023
130023
130024
130019
130019
130020
130023
130024
130024
130019
130020
130020
130024
130024
130025
130019
130020
130020
130024
130024
130025
130019
130020
130020
130024
130024
130025
130019
130020
130020
130024
130024
130025
130019
130020
130020
130023
130024
130024
130019
130019
130020
130023
130024
130024
130019
130019
130020
130023
130023
130024
130018
130019
130019
130022
130023
130023
130018
130018
130019
130022
130022
130023
130017
130018
130018
130021
130022
130022
130016
130017
130017
130020
130021
130021
130016
130016
130017
130020
130020
130021
130015
130015
130016
130019
130019
130019
130014
130014
130015
130017
130018
130018
130013
130013
130014
130016
130017
130017
130011
130012
130012
130015
130015
130016
130010
130010
130011
130013
130014
130014
130008
130009
130009
130012
130012
130013
130007
130007
130008
130010
130010
130011
130005
130005
130006
130008
130008
130009
130003
130003
130004
130006
130006
130007
130001
130001
130002
130004
130004
130005
129999
129999
130000
130002
130002
130003
129996
129997
129997
129999
130000
130000
129994
129994
129995
129996
129997
129997
129991
129991
129992
129993
129994
129994
129987
129988
129988
129990
129990
129991
129983
129984
129984
129985
129986
129986
129979
129979
129980
129980
129981
129981
129973
129974
129974
129974
129974
129975
129966
129967
129967
129966
129966
129967
129957
129957
129958
129956
129956
129957
129945
129946
129946
129942
129943
129944
129929
129928
129929
129924
129925
129927
129916
129915
129915
129930
129932
129932
129989
129989
129984
130072
130076
130071
130103
130111
130109
130084
130072
130031
130078
130089
130045
130047
130056
130035
130021
130013
130009
130007
130006
130005
130004
130004
130004
130004
130004
130004
130004
130005
130005
130006
130006
130007
130006
130007
130007
130005
130005
130009
130012
130015
130019
130023
130028
130033
130039
130047
130055
130066
130079
130095
130112
130130
130147
130163
130174
130180
130184
130189
130197
130207
130219
130233
130249
130267
130286
130308
130333
130361
130392
130428
130468
130514
130565
130623
130688
130761
130843
130934
131035
131147
131271
131407
131555
131716
131891
132078
132279
132493
132719
132957
133205
133464
133732
134008
134291
134579
134872
135169
135467
135767
136067
136366
136663
136959
137251
137539
137823
138103
138377
138646
138910
139168
139420
139665
139905
140138
140365
140586
140800
141009
141211
141406
141596
141780
141957
142129
142295
142455
142610
142759
142903
143042
143176
143305
143429
143549
143665
143777
143884
143989
144089
144186
144280
144371
144459
144544
144626
144706
144783
144858
144930
145000
145067
145132
145195
145256
145315
145371
145426
145478
145528
145577
145623
145667
145710
145751
145790
145827
145863
145897
145930
145961
145991
146019
146046
146072
146097
146121
146143
146165
146186
146206
146225
146244
146262
146279
146296
146312
146327
146342
146356
146369
146381
146393
146404
146415
146425
146439
146455
146467
146473
146475
146475
146475
146474
146474
146475
146485
146500
146507
146514
146522
146531
146540
146550
146560
146571
146582
146594
146607
146621
146635
146649
146664
146680
146696
146712
146729
146746
146763
146780
146798
146816
146834
146852
146870
146888
146906
146924
146942
146959
146977
146994
147010
147027
147043
147058
147073
147087
147101
147114
147127
147139
147150
147161
147171
147180
147188
147194
147196
147194
147200
147213
147237
147249
147257
147247
147240
147233
147227
147223
147219
147216
147215
147213
147213
147213
147213
147214
147216
147219
147222
147225
147229
147233
147237
147242
147247
147253
147259
147265
147272
147278
147286
147294
147302
147310
147319
147329
147339
147349
147360
147372
147384
147396
147409
147423
147437
147452
147467
147483
147500
147517
147534
147553
147571
147591
147611
147632
147653
147675
147697
147720
147744
147768
147793
147818
147844
147871
147898
147926
147955
147984
148014
148045
148077
148109
148142
148176
148211
148246
148282
148318
148355
148392
148430
148468
148506
148544
148582
148619
148657
148694
148730
148766
148800
148834
148866
148896
148925
148952
148978
149001
149023
149042
149059
149073
149085
149094
149103
149111
149118
149124
149130
149134
149137
149140
149141
149142
149143
149143
149142
149141
149141
149139
149138
149136
149135
149133
149132
149129
149128
149125
149123
149120
149117
149114
149112
149108
149105
149102
149099
149095
149092
149089
149085
149081
149078
149074
149070
149066
149063
149059
149055
149052
149048
149045
149041
149038
149035
149031
149028
149025
149022
149018
149015
149012
149008
149005
149006
149004
149009
149009
149013
149015
149017
149016
149017
149017
149012
149016
149014
149008
148998
148997
149000
149022
149020
149011
148997
148996
149000
149016
149023
149020
149023
149022
149024
149023
149029
149028
149030
149030
149028
149035
149036
149035
149037
149037
149043
149042
149044
149044
149042
149049
149050
149048
149051
149051
149057
149056
149058
149058
149056
149064
149065
149063
149066
149065
149072
149071
149073
149073
149071
149079
149080
149078
149080
149080
149087
149085
149088
149087
149086
149093
149094
149092
149095
149094
149101
149099
149101
149101
149100
149107
149108
149106
149107
149107
149114
149112
149113
149113
149114
149120
149120
149118
149119
149119
149126
149123
149124
149124
149125
149131
149131
149128
149129
149129
149135
149132
149133
149133
149136
149140
149139
149136
149136
149137
149143
149139
149139
149140
149144
149148
149146
149142
149141
149143
149148
149143
149142
149144
149151
149153
149149
149143
149142
149145
149148
149142
149139
149143
149153
149151
149145
149138
149133
149138
149139
149131
149125
149130
149145
149136
149129
149120
149113
149118
149116
149106
149097
149102
149122
149101
149098
149088
149075
149080
149072
149062
149044
149050
149073
149035
149036
149026
149003
149009
148992
148981
148954
148960
148988
148933
148939
148928
148898
148904
148880
148868
148836
148841
148871
148803
148815
148803
148768
148773
148744
148732
148696
148701
148730
148655
148671
148659
148621
148626
148595
148583
148545
148550
148579
148502
148519
148507
148469
148474
148443
148431
148393
148398
148426
148352
148368
148356
148319
148324
148295
148283
148247
148252
148279
148209
148224
148212
148177
148182
148155
148143
148110
148115
148141
148076
148089
148078
148046
148051
148026
148016
147986
147990
148015
147956
147967
147957
147928
147932
147910
147900
147872
147877
147900
147846
147855
147846
147820
147824
147804
147795
147770
147773
147795
147746
147754
147746
147722
147725
147707
147699
147676
147680
147699
147655
147662
147655
147633
147637
147620
147613
147592
147596
147614
147574
147580
147574
147554
147557
147543
147536
147518
147521
147538
147503
147508
147502
147484
147487
147475
147469
147453
147456
147471
147441
147445
147439
147424
147427
147417
147411
147398
147400
147414
147388
147391
147386
147373
147376
147367
147362
147351
147353
147365
147344
147345
147341
147330
147333
147326
147321
147312
147314
147325
147307
147308
147304
147295
147297
147292
147288
147280
147282
147292
147277
147277
147273
147266
147268
147264
147260
147254
147256
147264
147253
147252
147249
147243
147245
147242
147239
147234
147236
147243
147234
147233
147230
147226
147228
147226
147223
147220
147222
147227
147220
147220
147218
147215
147217
147216
147214
147214
147215
147217
147216
147215
147214
147214
147215
147216
147215
147217
147217
147216
147218
147219
147220
147223
147222
147225
147227
147232
147229
147220
147220
147232
147237
147243
147236
147203
147208
147212
147215
147217
147220
147225
147231
147239
147248
147258
147269
147282
147297
147312
147330
147349
147370
147393
147418
147445
147475
147507
147541
147577
147616
147657
147701
147746
147794
147844
147897
147952
148009
148070
148133
148200
148269
148341
148416
148493
148571
148649
148727
148803
148875
148942
149001
149051
149091
149121
149141
149154
149161
149163
149162
149160
149155
149150
149145
149140
149134
149129
149123
149118
149111
149105
149099
149092
149085
149078
149071
149063
149056
149049
149042
149035
149029
149026
149020
149014
149017
149015
149009
148999
148999
149004
149015
149012
149006
149000
149001
149006
149014
149020
149019
149013
149013
149010
149005
149002
149003
149006
149011
149008
149004
149002
149004
149007
149013
149018
149024
149025
149026
149032
149033
149040
149047
149046
149039
149038
149031
149030
149037
149043
149044
149051
149052
149054
149061
149059
149066
149068
149075
149073
149071
149064
149057
149055
149049
149047
149041
149035
149030
149024
149018
149012
149009
149006
149004
149003
149004
149007
149008
149005
149003
149003
149004
149007
149012
149017
149016
149013
149010
149007
149005
149002
149000
148998
148997
148995
148991
148994
148999
148999
148998
149003
149003
149003
149007
149007
149004
149004
149007
149007
149007
149010
149010
149013
149016
149019
149019
149022
149023
149028
149034
149039
149038
149035
149032
149029
149027
149024
149024
149021
149022
149019
149019
149016
149016
149013
149013
149010
149010
149010
149013
149013
149016
149016
149019
149019
149022
149022
149022
149024
149024
149024
149024
149027
149027
149027
149029
149030
149027
149027
149030
149030
149030
149033
149032
149035
149038
149040
149041
149044
149045
149052
149054
149060
149062
149068
149075
149078
149080
149082
149090
149087
149094
149097
149104
149101
149098
149091
149084
149082
149088
149095
149092
149086
149079
149073
149066
149064
149058
149056
149053
149050
149047
149046
149044
149044
149041
149041
149038
149038
149035
149035
149032
149032
149032
149035
149035
149038
149038
149041
149041
149044
149044
149044
149047
149047
149047
149047
149050
149050
149050
149053
149053
149050
149050
149053
149053
149053
149056
149056
149059
149059
149062
149065
149065
149062
149062
149059
149059
149056
149056
149056
149059
149059
149062
149062
149062
149065
149065
149065
149065
149068
149068
149068
149069
149071
149077
149083
149089
149087
149084
149081
149078
149075
149072
149071
149075
149077
149077
149075
149075
149072
149071
149068
149068
149071
149072
149074
149075
149077
149078
149078
149080
149081
149083
149086
149089
149090
149092
149096
149098
149101
149105
149108
149110
149117
149114
149121
149124
149130
149128
149126
149119
149112
149108
149115
149123
149132
149135
149135
149137
149144
149144
149153
149151
149158
149163
149170
149156
149145
149144
149158
149174
149193
149184
149174
149166
149174
149186
149197
149181
149186
149209
149234
149217
149200
149214
149237
149263
149293
149252
149216
149187
149184
149218
149214
149174
149155
149197
149248
149262
149260
149314
149321
149308
149386
149392
149378
149341
149299
149264
149233
149205
149181
149160
149143
149130
149120
149112
149105
149102
149108
149115
149108
149106
149103
149101
149098
149095
149095
149092
149092
149089
149089
149086
149086
149083
149083
149081
149080
149080
149083
149083
149086
149086
149089
149089
149091
149092
149092
149094
149094
149094
149094
149096
149097
149097
149100
149099
149097
149097
149099
149099
149099
149102
149102
149105
149107
149109
149112
149114
149125
149139
149158
149183
149174
149163
149147
149139
149126
149121
149116
149111
149106
149105
149106
149105
149105
149104
149104
149102