/*--------------------------------*- C++ -*----------------------------------*\
| =========                 |                                                 |
| \\      /  F ield         | OpenFOAM: The Open Source CFD Toolbox           |
|  \\    /   O peration     | Version:  v2006                                 |
|   \\  /    A nd           | Website:  www.openfoam.com                      |
|    \\/     M anipulation  |                                                 |
\*---------------------------------------------------------------------------*/
FoamFile
{
    version     2.0;
    format      ascii;
    class       volScalarField;
    location    "0.028";
    object      Co;
}
// * * * * * * * * * * * * * * * * * * * * * * * * * * * * * * * * * * * * * //

dimensions      [0 0 0 0 0 0 0];


internalField   nonuniform List<scalar> 
41981
(
0.0151689
0.0143625
0.0156096
0.0163316
0.0165068
0.0162174
0.0160972
0.0157888
0.0157324
0.0157221
0.0156807
0.0156734
0.0156653
0.0156582
0.0156486
0.0156371
0.0156245
0.0156115
0.0155984
0.0155855
0.0155727
0.0155599
0.015547
0.015534
0.0155207
0.015507
0.015493
0.0154787
0.0154639
0.0154489
0.0154334
0.0154177
0.0154015
0.0153851
0.0153683
0.0153513
0.0153338
0.0153161
0.015298
0.0152796
0.0152608
0.0152417
0.0152224
0.0152026
0.0151826
0.0151622
0.0151416
0.0151206
0.0150993
0.0150777
0.0150558
0.0150336
0.0150111
0.0149884
0.0149654
0.0149421
0.0149185
0.0148947
0.0148706
0.0148463
0.0148218
0.014797
0.014772
0.0147468
0.0147214
0.0146958
0.01467
0.014644
0.0146179
0.0145916
0.0145651
0.0145385
0.0145118
0.0144849
0.0144579
0.0144309
0.0144037
0.0143764
0.0143491
0.0143217
0.0142942
0.0142667
0.0142391
0.0142116
0.014184
0.0141564
0.0141288
0.0141012
0.0140737
0.0140462
0.0140188
0.0139914
0.0139641
0.0139368
0.0139097
0.0138827
0.0138558
0.013829
0.0138023
0.0137758
0.0137495
0.0137233
0.0136974
0.0136716
0.013646
0.0136206
0.0135955
0.0135706
0.0135459
0.0135215
0.0134973
0.0134735
0.0134499
0.0134266
0.0134036
0.013381
0.0133586
0.0133366
0.0133149
0.0132936
0.0132726
0.013252
0.0132317
0.0132118
0.0131922
0.0131731
0.0131543
0.0131359
0.013118
0.0131005
0.0130835
0.0130669
0.0130506
0.0130346
0.0130185
0.0130022
0.0129854
0.0129681
0.0129506
0.0129342
0.0129209
0.0129127
0.0129103
0.0129124
0.0129166
0.012929
0.0129574
0.0130666
0.0132254
0.0136426
0.0143642
0.0160369
0.0199156
0.0283614
0.0429949
0.034714
0.0319514
0.0306657
0.0304123
0.0293091
0.0275183
0.0248003
0.0276954
0.0296484
0.0269661
0.02642
0.0243752
0.019953
0.0217455
0.0222361
0.0218216
0.0215576
0.0197517
0.0178719
0.0196977
0.0200454
0.0206871
0.0201474
0.017871
0.0171806
0.0193313
0.0198455
0.0203253
0.0196573
0.0172507
0.0169599
0.0193155
0.0198647
0.0202805
0.0195306
0.016808
0.0166454
0.0192583
0.0198904
0.0202015
0.0193781
0.0165065
0.0163671
0.0191278
0.0198361
0.0201181
0.0192342
0.0162448
0.0161181
0.0189983
0.0197709
0.0200342
0.0190961
0.0160069
0.0158905
0.0188731
0.0197031
0.0199507
0.0189637
0.0157885
0.0156806
0.0187518
0.0196336
0.0198677
0.0188361
0.0155857
0.0154853
0.0186341
0.0195633
0.0197857
0.0187131
0.015397
0.0153022
0.0185192
0.0194918
0.0197049
0.0185945
0.0152196
0.0151292
0.0184065
0.0194198
0.0196247
0.0184787
0.0150515
0.0149649
0.0182965
0.0193475
0.0195449
0.0183657
0.0148914
0.0148083
0.0181889
0.0192752
0.0194657
0.0182553
0.0147388
0.014659
0.0180835
0.019203
0.0193869
0.0181472
0.0145931
0.0145166
0.0179804
0.0191306
0.0193085
0.0180419
0.0144535
0.0143796
0.0178792
0.0190581
0.0192312
0.0179387
0.0143192
0.0142476
0.0177796
0.0189857
0.0191544
0.0178375
0.0141897
0.0141201
0.0176816
0.0189134
0.0190778
0.0177378
0.0140646
0.0139969
0.0175849
0.0188409
0.0190016
0.0176397
0.0139435
0.0138775
0.0174895
0.0187682
0.0189255
0.017543
0.0138261
0.0137615
0.0173952
0.0186954
0.0188495
0.0174475
0.013712
0.0136488
0.0173018
0.0186223
0.0187737
0.0173533
0.0136008
0.0135387
0.0172094
0.018549
0.018698
0.01726
0.0134923
0.0134312
0.0171176
0.0184754
0.0186222
0.0171676
0.0133862
0.0133259
0.0170266
0.0184014
0.0185462
0.0170759
0.0132823
0.0132227
0.016936
0.0183271
0.0184702
0.0169848
0.0131803
0.0131214
0.016846
0.0182524
0.018394
0.0168943
0.0130801
0.0130217
0.0167564
0.0181774
0.0183175
0.0168042
0.0129815
0.0129235
0.016667
0.0181018
0.0182408
0.0167145
0.0128842
0.0128267
0.0165779
0.0180257
0.0181638
0.0166251
0.0127882
0.012731
0.0164889
0.017949
0.0180863
0.0165359
0.0126933
0.0126363
0.0163998
0.0178717
0.0180085
0.0164467
0.0125992
0.0125424
0.0163107
0.0177938
0.0179301
0.0163574
0.0125059
0.0124493
0.0162214
0.017715
0.0178511
0.0162681
0.0124133
0.0123567
0.0161319
0.0176355
0.0177715
0.0161786
0.0123212
0.0122646
0.016042
0.017555
0.0176911
0.0160887
0.0122294
0.0121727
0.0159517
0.0174736
0.01761
0.0159985
0.0121378
0.0120811
0.0158609
0.0173913
0.017528
0.0159078
0.0120464
0.0119894
0.0157694
0.0173078
0.0174451
0.0158165
0.0119549
0.0118977
0.0156773
0.0172233
0.0173612
0.0157246
0.0118633
0.0118059
0.0155844
0.0171376
0.0172763
0.015632
0.0117715
0.0117137
0.0154907
0.0170506
0.0171902
0.0155385
0.0116794
0.0116213
0.015396
0.0169623
0.017103
0.0154442
0.0115869
0.0115284
0.0153004
0.0168726
0.0170145
0.0153489
0.0114938
0.0114349
0.0152036
0.0167815
0.0169247
0.0152525
0.0114002
0.0113408
0.0151057
0.016689
0.0168336
0.0151551
0.0113059
0.0112459
0.0150067
0.0165948
0.0167412
0.0150566
0.0112106
0.01115
0.0149063
0.0164992
0.0166473
0.0149568
0.0111143
0.0110529
0.0148047
0.0164019
0.0165519
0.0148557
0.0110168
0.0109548
0.0147016
0.0163029
0.0164549
0.0147532
0.0109182
0.0108554
0.014597
0.0162022
0.0163562
0.0146492
0.0108185
0.010755
0.0144909
0.0160997
0.0162558
0.0145436
0.0107176
0.0106534
0.0143831
0.0159954
0.0161536
0.0144365
0.0106156
0.0105507
0.0142736
0.015889
0.0160494
0.0143276
0.0105124
0.0104467
0.0141623
0.0157807
0.0159434
0.014217
0.0104079
0.0103415
0.0140493
0.0156702
0.0158353
0.0141045
0.0103022
0.0102349
0.0139343
0.0155577
0.0157252
0.0139902
0.0101951
0.0101271
0.0138174
0.0154429
0.0156129
0.013874
0.0100867
0.0100179
0.0136986
0.0153258
0.0154985
0.0137558
0.0099769
0.00990724
0.0135777
0.0152065
0.0153818
0.0136356
0.00986561
0.0097951
0.0134547
0.0150848
0.0152629
0.0135134
0.00975281
0.00968144
0.0133296
0.0149607
0.0151416
0.013389
0.00963847
0.00956621
0.0132023
0.0148342
0.015018
0.0132624
0.00952256
0.0094494
0.0130728
0.0147053
0.0148919
0.0131337
0.00940505
0.009331
0.0129412
0.0145739
0.0147634
0.0130028
0.00928594
0.009211
0.0128073
0.0144401
0.0146325
0.0128697
0.00916525
0.00908942
0.0126713
0.0143039
0.0144991
0.0127344
0.00904299
0.00896629
0.0125331
0.0141653
0.0143632
0.0125969
0.0089192
0.00884165
0.0123928
0.0140243
0.0142249
0.0124573
0.00879393
0.00871556
0.0122505
0.0138811
0.0140843
0.0123156
0.00866724
0.0085881
0.0121062
0.0137356
0.0139412
0.0121719
0.00853922
0.00845936
0.01196
0.013588
0.0137959
0.0120263
0.00840999
0.00832947
0.0118122
0.0134385
0.0136484
0.0118789
0.00827968
0.00819858
0.0116627
0.0132872
0.0134988
0.0117298
0.00814844
0.00806686
0.011512
0.0131343
0.0133474
0.0115794
0.00801648
0.00793452
0.0113601
0.01298
0.0131942
0.0114277
0.00788402
0.00780182
0.0112074
0.0128247
0.0130394
0.0112751
0.00775133
0.00766905
0.0110542
0.0126687
0.0128835
0.0111219
0.00761874
0.00753655
0.0109009
0.0125123
0.0127266
0.0109683
0.0074866
0.00740472
0.010748
0.0123561
0.0125691
0.010815
0.00735534
0.00727399
0.010596
0.0122005
0.0124115
0.0106623
0.00722541
0.00714486
0.0104453
0.0120461
0.0122542
0.0105107
0.00709733
0.00701786
0.0102967
0.0118935
0.0120978
0.010361
0.00697166
0.00689358
0.0101508
0.0117434
0.0119429
0.0102137
0.00684901
0.00677268
0.0100085
0.0115966
0.0117901
0.0100696
0.00673007
0.00665585
0.00987042
0.0114539
0.0116403
0.00992946
0.00661557
0.00654386
0.00973751
0.011316
0.0114941
0.0097942
0.00650623
0.00643737
0.00961058
0.0111839
0.0113525
0.00966464
0.00640271
0.00633704
0.00949055
0.0110584
0.0112163
0.00954163
0.00630569
0.00624362
0.00937828
0.0109405
0.0110864
0.00942605
0.00621595
0.00615788
0.0092746
0.0108309
0.0109638
0.00931877
0.00613424
0.00608053
0.0091803
0.0107304
0.0108492
0.00922061
0.00606122
0.00601218
0.00909606
0.0106397
0.0107435
0.00913232
0.00599746
0.00595332
0.00902249
0.0105594
0.0106476
0.00905454
0.00594335
0.0059043
0.00896005
0.01049
0.010562
0.00898777
0.00589922
0.00586555
0.00890938
0.0104322
0.0104871
0.00893181
0.00586537
0.00584332
0.00887418
0.0103857
0.0104238
0.0088876
0.00584315
0.00583136
0.00885
0.0103506
0.0103725
0.0088552
0.00583123
0.00582895
0.00883697
0.0103268
0.0103332
0.00883452
0.00582883
0.00583547
0.00883486
0.0103144
0.010306
0.00882529
0.00583537
0.00585015
0.00884301
0.0103125
0.0102901
0.00882679
0.00585006
0.00587253
0.00886077
0.0103207
0.0102854
0.00883922
0.00587357
0.00590241
0.00888739
0.0103385
0.0102919
0.00886318
0.00590737
0.00593813
0.00892096
0.0103646
0.0103087
0.00889517
0.00594573
0.00597834
0.00896198
0.0103998
0.0103354
0.00893468
0.00598796
0.00602315
0.0090102
0.0104421
0.0103697
0.00898077
0.00603463
0.00607118
0.00906277
0.0104895
0.0104111
0.00903224
0.00608392
0.00612152
0.00912009
0.0105426
0.0104594
0.00908871
0.00613549
0.00617344
0.0091799
0.0105996
0.0105132
0.00914827
0.00618789
0.00622561
0.00924199
0.0106587
0.0105714
0.00921056
0.00623972
0.00627694
0.00930514
0.0107199
0.0106328
0.00927415
0.00629043
0.00632731
0.00936869
0.0107824
0.010696
0.00933799
0.00634007
0.00637655
0.00943208
0.0108456
0.0107605
0.00940174
0.00638836
0.00642408
0.00949437
0.0109084
0.0108256
0.00946466
0.00643469
0.00646907
0.00955488
0.0109702
0.0108907
0.00952629
0.00647812
0.00651101
0.00961348
0.0110306
0.010955
0.00958613
0.00651855
0.00654994
0.00966966
0.0110892
0.0110178
0.00964357
0.00655601
0.0065859
0.00972305
0.0111456
0.0110785
0.00969822
0.00659054
0.00661894
0.00977342
0.0111993
0.0111368
0.00974983
0.00662223
0.00664917
0.00982058
0.0112503
0.0111923
0.0097982
0.00665116
0.0066767
0.00986449
0.0112984
0.0112449
0.00984327
0.00667751
0.00670177
0.00990516
0.0113434
0.0112942
0.00988521
0.0067018
0.00672472
0.00994268
0.0113854
0.0113403
0.00992436
0.00672475
0.0067457
0.00997704
0.0114245
0.0113832
0.00996031
0.00674572
0.0067648
0.0100084
0.0114605
0.0114229
0.00999317
0.00676482
0.00678215
0.010037
0.0114938
0.0114595
0.0100231
0.00678217
0.00679795
0.0100631
0.0115245
0.0114933
0.0100505
0.00679796
0.00681232
0.0100868
0.0115527
0.0115243
0.0100753
0.00681233
0.00682546
0.0101084
0.0115787
0.0115527
0.0100978
0.00682547
0.00683759
0.0101281
0.0116025
0.0115787
0.0101183
0.0068376
0.00684894
0.0101462
0.0116245
0.0116026
0.010137
0.00684895
0.00685955
0.0101627
0.0116447
0.0116244
0.0101541
0.00685956
0.00686961
0.010178
0.0116633
0.0116444
0.0101698
0.00686962
0.00687919
0.0101921
0.0116807
0.011663
0.0101843
0.0068792
0.00688832
0.0102051
0.0116967
0.0116801
0.0101977
0.00688833
0.00689705
0.0102173
0.0117115
0.0116959
0.0102101
0.00689706
0.00690545
0.0102286
0.0117253
0.0117106
0.0102217
0.00690545
0.00691354
0.0102392
0.0117381
0.0117241
0.0102325
0.00691354
0.00692138
0.0102492
0.01175
0.0117367
0.0102428
0.00692139
0.00692896
0.0102586
0.0117612
0.0117485
0.0102524
0.00692897
0.00693626
0.0102675
0.0117716
0.0117596
0.0102616
0.00693627
0.00694328
0.010276
0.0117815
0.01177
0.0102702
0.00694329
0.00695002
0.010284
0.0117908
0.0117798
0.0102785
0.00695003
0.0069565
0.0102916
0.0117997
0.0117892
0.0102863
0.00695651
0.00696272
0.0102989
0.0118082
0.0117981
0.0102938
0.00696273
0.00696871
0.010306
0.0118164
0.0118066
0.0103011
0.00696872
0.00697451
0.0103128
0.0118243
0.0118148
0.0103081
0.00697453
0.00698021
0.0103196
0.0118322
0.0118228
0.0103149
0.00698023
0.00698594
0.0103266
0.0118402
0.0118305
0.0103217
0.00698596
0.00699194
0.0103339
0.0118487
0.0118382
0.0103286
0.00699197
0.00699883
0.0103424
0.0118583
0.0118454
0.0103355
0.00699886
0.00699685
0.0103349
0.0118484
0.0117645
0.0102582
0.00695858
0.00704261
0.0103049
0.0118069
0.0114629
0.0099561
0.00681321
0.0069958
0.0102246
0.0117658
0.0112224
0.00971829
0.00662348
0.0075143
0.0109132
0.0125358
0.0119434
0.0102234
0.00702029
0.00841077
0.011725
0.0130431
0.0136032
0.0116377
0.00806372
0.00899003
0.0125718
0.0142518
0.0159807
0.0166648
0.0166792
0.0168726
0.0168345
0.0168741
0.0169894
0.0170336
0.0171456
0.017218
0.0172874
0.0173429
0.0173951
0.0174384
0.0174791
0.0175133
0.0175454
0.0175727
0.017598
0.0176194
0.0176391
0.0176554
0.0176699
0.0176814
0.017691
0.0176975
0.0177016
0.0177026
0.0177002
0.0176941
0.0176829
0.0176538
0.017638
0.0177396
0.017944
0.0185224
0.0194754
0.0217883
0.0269452
0.0388828
0.0570308
0.0437673
0.0366995
0.0347624
0.031592
0.0260963
0.0213616
0.0117372
0.0106197
0.0200861
0.0254562
0.0239459
0.0198205
0.0110077
0.00901608
0.0170033
0.0209452
0.02144
0.0177359
0.00967364
0.00884239
0.0167466
0.0209077
0.021549
0.0175997
0.00953478
0.00917457
0.0173066
0.0213474
0.021943
0.0179693
0.00941794
0.00937105
0.0177563
0.0218882
0.0219473
0.0178208
0.00945159
0.00947921
0.0179053
0.0220526
0.0220591
0.0179138
0.00948679
0.00949742
0.0179284
0.0220751
0.0220811
0.0179368
0.00950571
0.0095166
0.0179514
0.0220966
0.0221034
0.0179606
0.0095255
0.00953715
0.017976
0.0221198
0.0221265
0.0179853
0.00954638
0.00955806
0.0180005
0.0221425
0.0221498
0.0180104
0.00956766
0.0095799
0.0180263
0.0221665
0.0221737
0.0180362
0.00958971
0.00960191
0.0180519
0.02219
0.0221977
0.0180623
0.00961201
0.00962469
0.0180786
0.0222148
0.0222224
0.018089
0.00963498
0.00964761
0.0181052
0.022239
0.0222471
0.018116
0.00965815
0.00967124
0.0181327
0.0222645
0.0222725
0.0181435
0.00968194
0.00969496
0.01816
0.0222895
0.0222979
0.0181713
0.00970591
0.00971937
0.0181883
0.0223156
0.0223239
0.0181995
0.00973047
0.00974384
0.0182164
0.0223412
0.02235
0.0182281
0.00975518
0.00976898
0.0182454
0.0223679
0.0223766
0.0182571
0.00978046
0.00979417
0.0182742
0.0223941
0.0224033
0.0182863
0.00980589
0.00982003
0.018304
0.0224215
0.0224305
0.018316
0.00983187
0.00984592
0.0183335
0.0224484
0.0224579
0.018346
0.00985801
0.00987249
0.018364
0.0224764
0.0224858
0.0183764
0.00988472
0.00989912
0.0183942
0.022504
0.0225139
0.0184072
0.0099116
0.00992643
0.0184255
0.0225327
0.0225426
0.0184384
0.00993907
0.00995384
0.0184566
0.0225611
0.0225715
0.01847
0.00996676
0.00998198
0.0184888
0.0225906
0.022601
0.0185022
0.00999507
0.0100102
0.0185208
0.0226199
0.0226308
0.0185347
0.0100236
0.0100393
0.0185538
0.0226504
0.0226612
0.0185678
0.0100529
0.0100685
0.0185868
0.0226806
0.022692
0.0186013
0.0100824
0.0100984
0.0186209
0.022712
0.0227234
0.0186354
0.0101125
0.0101286
0.0186549
0.0227432
0.0227552
0.0186699
0.0101429
0.0101595
0.01869
0.0227757
0.0227877
0.018705
0.0101741
0.0101906
0.0187251
0.022808
0.0228206
0.0187406
0.0102055
0.0102225
0.0187613
0.0228418
0.0228544
0.018777
0.0102377
0.0102547
0.0187976
0.0228753
0.0228887
0.0188138
0.0102702
0.0102877
0.0188351
0.0229104
0.0229239
0.0188514
0.0103034
0.010321
0.0188727
0.0229455
0.0229598
0.0188896
0.010337
0.0103552
0.0189115
0.0229822
0.0229966
0.0189286
0.0103714
0.0103897
0.0189506
0.023019
0.0230342
0.0189682
0.0104063
0.0104251
0.018991
0.0230576
0.023073
0.0190088
0.010442
0.0104609
0.0190317
0.0230964
0.0231127
0.0190502
0.0104782
0.0104977
0.0190738
0.0231371
0.0231536
0.0190926
0.0105152
0.0105349
0.0191164
0.0231782
0.0231957
0.0191358
0.0105528
0.0105731
0.0191605
0.0232214
0.0232393
0.0191802
0.0105914
0.0106118
0.0192051
0.0232652
0.0232841
0.0192256
0.0106305
0.0106515
0.0192514
0.0233114
0.0233309
0.0192723
0.0106706
0.0106918
0.0192985
0.0233586
0.0233792
0.0193202
0.0107113
0.0107331
0.0193473
0.0234084
0.0234296
0.0193695
0.010753
0.0107751
0.0193971
0.0234595
0.0234821
0.0194202
0.0107955
0.0108182
0.0194489
0.0235136
0.0235371
0.0194725
0.010839
0.010862
0.0195018
0.0235696
0.0235948
0.0195265
0.0108833
0.0109069
0.0195569
0.0236291
0.0236556
0.0195823
0.0109286
0.0109523
0.0196133
0.023691
0.0237196
0.0196399
0.0109742
0.0109983
0.0196721
0.0237573
0.0237877
0.0196995
0.0110202
0.0110439
0.0197324
0.0238271
0.0238601
0.019761
0.0110653
0.0110884
0.0197951
0.0239024
0.0239379
0.0198246
0.0111086
0.0111297
0.0198595
0.0239829
0.0240221
0.0198903
0.0111477
0.011166
0.0199268
0.0240712
0.0241145
0.0199588
0.0111803
0.011194
0.0199967
0.0241681
0.0242171
0.0200309
0.0112031
0.0112111
0.0200715
0.0242772
0.0243333
0.0201088
0.0112139
0.0112154
0.020153
0.0244013
0.0244668
0.020199
0.0112156
0.0112109
0.0202521
0.0245454
0.0246231
0.0203092
0.0112032
0.0111887
0.0203738
0.0247161
0.0248115
0.0204434
0.0111744
0.0111615
0.0205207
0.0249241
0.0250399
0.0206128
0.0111704
0.0111978
0.0207232
0.025174
0.0253146
0.0208464
0.0112427
0.0113136
0.0209937
0.0254759
0.0256479
0.021161
0.011413
0.0115508
0.0213606
0.0258454
0.0260606
0.0215914
0.0117326
0.0119693
0.021863
0.0263038
0.0265781
0.0222242
0.0123203
0.0127046
0.0226717
0.0268902
0.0271454
0.0229547
0.0130802
0.0133024
0.0230921
0.0274002
0.0273729
0.0233662
0.0135791
0.0138954
0.0236245
0.0276993
0.0281243
0.024193
0.0145869
0.0148364
0.0242572
0.0280773
0.0283408
0.0245934
0.0153872
0.0157966
0.0249488
0.0287425
0.0287493
0.0253751
0.0164741
0.0168945
0.0256052
0.0291127
0.0292543
0.0260641
0.0176495
0.0181826
0.0264697
0.0297962
0.0303546
0.0272267
0.0192739
0.020103
0.0280047
0.0307876
0.0307517
0.0286161
0.0212465
0.0208486
0.0261338
0.026493
0.084149
0.0584582
0.030175
0.0158523
0.0331564
0.0502431
0.0325363
0.0269861
0.0146409
0.0134741
0.0243795
0.0286274
0.0296155
0.0249462
0.0140142
0.0140328
0.0242633
0.0284576
0.029381
0.024962
0.0145956
0.0147875
0.0247
0.0286615
0.0298095
0.0257279
0.0160381
0.0164612
0.0254209
0.0292225
0.0301954
0.026668
0.0176501
0.0187586
0.0272588
0.0306879
0.0311623
0.0279001
0.0197138
0.0212851
0.0287857
0.0313937
0.0280698
0.0274069
0.0215968
0.030371
0.0573682
0.0816278
0.0523924
0.0361684
0.019112
0.018006
0.0296043
0.0357603
0.0321969
0.0277948
0.0177837
0.018234
0.0275684
0.031357
0.0309734
0.0274025
0.018386
0.0191298
0.0275881
0.0308525
0.0311552
0.0282698
0.0202555
0.020514
0.0283655
0.0315152
0.0313124
0.0290921
0.0220735
0.0216003
0.0265666
0.0265695
0.0813009
0.0573485
0.0309273
0.0199652
0.0365657
0.0523554
0.0347853
0.0296801
0.0187212
0.0179777
0.0270867
0.0306481
0.031731
0.0284528
0.0195958
0.0200694
0.0284351
0.0312723
0.0321437
0.0288831
0.0208196
0.0221339
0.0295105
0.0317001
0.0280971
0.0276263
0.0221915
0.0310777
0.0570906
0.0801172
0.0543747
0.0380364
0.0214004
0.0213483
0.0320279
0.0372298
0.0331969
0.0293739
0.020637
0.0222789
0.03025
0.0330234
0.0320767
0.0292716
0.0220307
0.0233752
0.0298364
0.0317369
0.026784
0.0271602
0.0226057
0.0325534
0.0577713
0.0804908
0.0544787
0.0391576
0.0233608
0.0225888
0.03286
0.0377427
0.032279
0.0295417
0.0218037
0.0231278
0.0295472
0.0311499
0.0271708
0.0274228
0.0228709
0.0315207
0.0559499
0.0779075
0.0546247
0.0389414
0.0230438
0.0224086
0.0323459
0.037212
0.0335726
0.0305897
0.0226359
0.0228008
0.0297425
0.0323464
0.0318489
0.0299961
0.0237295
0.0234167
0.0267785
0.0259602
0.0772914
0.0564754
0.0324517
0.0245063
0.039903
0.0543471
0.0362786
0.0322345
0.0236364
0.0240181
0.0303621
0.031959
0.0271488
0.0274864
0.0237443
0.032144
0.0544447
0.0742812
0.0548824
0.0403501
0.0252689
0.0249792
0.0336487
0.037568
0.0327579
0.0304648
0.0242097
0.0235113
0.0263679
0.0253995
0.0729103
0.0535039
0.0319986
0.0254606
0.039625
0.052968
0.0346027
0.0315382
0.0243312
0.0224126
0.0253972
0.0245904
0.068801
0.0512153
0.0311835
0.026071
0.0395035
0.0522588
0.0340716
0.0310129
0.0241101
0.0228878
0.0253463
0.0241534
0.0632668
0.0480485
0.0305152
0.0245487
0.036312
0.0465085
0.0248947
0.0253532
0.0221944
0.0279748
0.0441894
0.0573641
0.0426995
0.0334313
0.0225311
0.0199256
0.0221995
0.0213682
0.0488556
0.0380273
0.0247798
0.0183778
0.025652
0.0323867
0.0139585
0.0155439
0.0151376
0.0174068
0.0254113
0.0309404
0.0101351
0.0103011
0.00959665
0.00957842
0.015326
0.0196407
0.0117037
0.00918536
0.00528056
0.00984816
0.0147095
0.0177576
0.0270231
0.0237592
0.0183576
0.0270407
0.0322281
0.034969
0.0470816
0.0436716
0.0371358
0.0426106
0.0495444
0.0543155
0.0537593
0.053499
0.047409
0.0602088
0.0821551
0.0977486
0.0942691
0.0791501
0.0581327
0.0614721
0.0835827
0.0988017
0.100624
0.0855224
0.0621979
0.0608495
0.0832853
0.0987449
0.101505
0.0830583
0.0594692
0.0571194
0.0800681
0.0966343
0.103824
0.0837218
0.0586735
0.0547989
0.0759165
0.0906125
0.106219
0.0874998
0.0607884
0.0516083
0.0620851
0.0646449
0.104584
0.0802861
0.0549688
0.0575523
0.0877785
0.114461
0.0604927
0.0577978
0.0478511
0.0535347
0.0797209
0.104931
0.111904
0.0848333
0.0550624
0.0498155
0.0697296
0.0843984
0.104275
0.0825533
0.0551238
0.0457819
0.0558145
0.0592205
0.0960718
0.073884
0.04924
0.0531926
0.0845722
0.111955
0.0570681
0.054321
0.0441575
0.0485112
0.0725598
0.0941657
0.1091
0.0832553
0.0524256
0.0422481
0.0515585
0.0548364
0.0921804
0.0703468
0.0463506
0.0515693
0.0822599
0.109198
0.0550078
0.0520034
0.0422097
0.04573
0.0694989
0.0915566
0.107664
0.080958
0.0502973
0.0410554
0.0506199
0.0534859
0.0893005
0.0679178
0.0448848
0.049648
0.0802873
0.10694
0.053187
0.0500703
0.0405874
0.043669
0.0664623
0.0870526
0.105289
0.0796856
0.0491112
0.0378805
0.044335
0.04499
0.0602137
0.0527809
0.0396139
0.0424435
0.0659612
0.0889121
0.105646
0.0776878
0.0468057
0.037204
0.0469217
0.0498456
0.0859697
0.0645708
0.0416454
0.04669
0.0764579
0.104122
0.050773
0.0475074
0.0377253
0.0410358
0.064484
0.0870657
0.104678
0.0774469
0.0467922
0.0381039
0.0482188
0.0515957
0.0866116
0.0640993
0.0412018
0.0470559
0.0769683
0.103175
0.0506784
0.0474491
0.0377351
0.0415421
0.064731
0.0863918
0.103302
0.0767607
0.0468243
0.0379234
0.0478229
0.0508699
0.085761
0.0646001
0.0420281
0.0468978
0.0768958
0.103388
0.0508668
0.0476344
0.0380035
0.0416831
0.0647493
0.0859318
0.10175
0.0760712
0.046719
0.0377465
0.0476601
0.0508184
0.0854671
0.063485
0.0410198
0.0467233
0.0765372
0.102728
0.0505199
0.0477417
0.0384187
0.0411082
0.0640678
0.0856469
0.101133
0.0762431
0.0463504
0.0380937
0.0481457
0.0512001
0.0846802
0.063699
0.0413005
0.0464431
0.0761113
0.101915
0.0507526
0.0476437
0.0379824
0.0411278
0.0640686
0.0855994
0.101769
0.0761799
0.0465641
0.038106
0.0478973
0.0510581
0.0852105
0.0643968
0.0414446
0.0462607
0.0764283
0.101581
0.0511352
0.0477547
0.0376546
0.0412971
0.0640414
0.0846463
0.101846
0.0761608
0.0465221
0.0382961
0.0481179
0.0514838
0.0861192
0.0645428
0.0417481
0.0467907
0.0762344
0.102355
0.0509236
0.0474185
0.0377902
0.0420314
0.0650746
0.0863573
0.101469
0.0755847
0.0464111
0.0380055
0.0480818
0.0513458
0.0851885
0.0644315
0.0414798
0.0464412
0.0769658
0.102238
0.0509762
0.047819
0.0377917
0.0418543
0.0650917
0.0868817
0.102837
0.0766006
0.0465553
0.0387402
0.0486417
0.0514842
0.0877989
0.0658513
0.0420166
0.0471783
0.0776703
0.103199
0.0520394
0.0489079
0.0385862
0.0419983
0.0668902
0.091532
0.101523
0.075354
0.0461563
0.0423307
0.0613018
0.0756307
0.094612
0.0740591
0.047427
0.0403158
0.050471
0.0537341
0.088524
0.0659385
0.0426825
0.0474434
0.077379
0.102845
0.0529871
0.0497478
0.0396017
0.0430357
0.0657349
0.0882126
0.10304
0.0766662
0.0477587
0.0389905
0.04884
0.0519067
0.0885807
0.0666426
0.042939
0.048046
0.0779823
0.103838
0.0528657
0.0496473
0.0393856
0.0446107
0.0697392
0.0930015
0.103216
0.0776653
0.0479062
0.0430546
0.0626134
0.0766714
0.0956846
0.075206
0.0482952
0.0406289
0.0515649
0.0550159
0.0903259
0.0680413
0.0444645
0.0482539
0.0783088
0.104384
0.0539388
0.0506722
0.0406711
0.044382
0.0688473
0.0918142
0.106542
0.0804616
0.0495784
0.0410765
0.0519767
0.0551068
0.0944171
0.0706123
0.0452472
0.0484649
0.0792138
0.104529
0.0790184
0.0647837
0.0445171
0.0496726
0.0770739
0.0976206
0.0565336
0.0531353
0.0423886
0.0456182
0.0699006
0.0934017
0.106715
0.080545
0.0503392
0.041775
0.0519628
0.0552886
0.0966635
0.0722191
0.0463144
0.0496905
0.0801802
0.106274
0.0792952
0.065454
0.0451868
0.0502061
0.0776648
0.0985607
0.0571829
0.0535599
0.0429793
0.0470472
0.0718229
0.0951164
0.109147
0.0822326
0.0518015
0.0425517
0.0538447
0.0572038
0.0983258
0.0740741
0.0477854
0.0499242
0.0811095
0.107589
0.0807972
0.0667711
0.045714
0.0509355
0.078917
0.10025
0.0587332
0.0552071
0.0438916
0.0483822
0.0751597
0.100387
0.108836
0.0832778
0.0522436
0.0478831
0.0683523
0.0828455
0.101448
0.0799129
0.0521592
0.045062
0.0565342
0.0605372
0.101689
0.076463
0.0495542
0.0522111
0.0826906
0.109495
0.0839655
0.0683593
0.0478322
0.0525181
0.0801932
0.101532
0.0603105
0.0565418
0.0450493
0.0495851
0.0747482
0.0994007
0.112069
0.0851078
0.0538485
0.044904
0.0560153
0.0589806
0.102332
0.0775308
0.0500128
0.0528299
0.0853115
0.111573
0.0848929
0.0694964
0.0482513
0.053033
0.0813733
0.103616
0.060929
0.0571123
0.0456005
0.0500652
0.0778672
0.104949
0.111134
0.0842717
0.0531589
0.048902
0.0709852
0.0866577
0.103776
0.0815314
0.053093
0.0459531
0.0580368
0.0619514
0.105458
0.0779238
0.0506726
0.0538505
0.0847643
0.114634
0.0868759
0.0712634
0.049548
0.0547327
0.0832773
0.105622
0.0630972
0.0587453
0.0473838
0.0516089
0.0808092
0.108321
0.115913
0.0875427
0.0548872
0.0507245
0.0732966
0.0897525
0.10716
0.0843715
0.0556405
0.0478838
0.0598092
0.0637804
0.107758
0.0811009
0.0526229
0.0545136
0.0867984
0.114255
0.089792
0.0731741
0.0505824
0.055951
0.0856523
0.106974
0.064453
0.0602201
0.0481588
0.0540656
0.083534
0.10986
0.11623
0.0895383
0.0562336
0.0530428
0.0776933
0.0944833
0.10713
0.086001
0.0569568
0.0537875
0.0763907
0.0917048
0.107848
0.0867581
0.058033
0.0508993
0.0632731
0.0671688
0.111643
0.0841917
0.0549429
0.0579452
0.0906893
0.118879
0.0924767
0.0766913
0.0542294
0.0582696
0.0878264
0.11008
0.0671579
0.0625098
0.050194
0.054861
0.0842282
0.112353
0.117893
0.0909143
0.0582904
0.0548753
0.0796227
0.0969754
0.109227
0.0868738
0.0579543
0.0547474
0.0784471
0.095216
0.110915
0.0887311
0.0589758
0.0518299
0.0640987
0.0686175
0.115466
0.0864563
0.056043
0.0583144
0.0920152
0.121856
0.095052
0.0775115
0.0544208
0.060148
0.0902103
0.114017
0.0683673
0.0643775
0.0521683
0.0570043
0.0869966
0.117168
0.121949
0.0927533
0.0593067
0.0563616
0.0812742
0.10001
0.112912
0.0894233
0.0599044
0.0565947
0.0799954
0.0975944
0.112375
0.0909428
0.0615801
0.0538418
0.06693
0.0715589
0.11857
0.0891201
0.0591112
0.0614695
0.095376
0.124752
0.0981256
0.0813691
0.057816
0.062291
0.0926479
0.116538
0.0705763
0.0666108
0.0541135
0.0581077
0.0896758
0.121113
0.12535
0.0962291
0.0613714
0.0582686
0.0839821
0.102961
0.11485
0.092036
0.061805
0.0581966
0.0823907
0.100233
0.115434
0.0912463
0.0614995
0.0538584
0.0672733
0.0717368
0.122204
0.0922346
0.0607048
0.0623954
0.0974904
0.127803
0.104443
0.0842148
0.058039
0.061149
0.0922104
0.116505
0.102254
0.0834495
0.058633
0.0635402
0.0945421
0.117234
0.073438
0.0686504
0.0557178
0.060783
0.0942206
0.125219
0.12919
0.0995767
0.0633753
0.0597277
0.0864453
0.107772
0.11902
0.0938804
0.0633511
0.0610194
0.0879717
0.107626
0.117734
0.0941925
0.0638505
0.0604883
0.0856705
0.104398
0.119555
0.0962644
0.065704
0.0571073
0.0707175
0.0763195
0.126112
0.0952489
0.0626815
0.0648749
0.0994602
0.128764
0.1084
0.0882737
0.0623672
0.0652405
0.0959875
0.120897
0.105722
0.086634
0.0617494
0.0666766
0.0981136
0.121192
0.0771754
0.0721271
0.0583336
0.0655356
0.0979402
0.12913
0.133269
0.102162
0.067067
0.0629059
0.0906056
0.110158
0.12245
0.0974504
0.0655577
0.0623424
0.0886974
0.107369
0.122161
0.0995953
0.0674875
0.0594703
0.0738595
0.0786119
0.13037
0.0999968
0.0662757
0.0672156
0.103247
0.13453
0.11143
0.0911448
0.063494
0.0668361
0.0981167
0.12277
0.113033
0.091824
0.0644583
0.0682274
0.0994204
0.123798
0.109506
0.0897445
0.0639627
0.0698092
0.101143
0.124605
0.0797594
0.0745916
0.0609813
0.0667202
0.101741
0.135207
0.137033
0.106273
0.0687534
0.0658098
0.0945892
0.115658
0.126067
0.101019
0.0688864
0.0663519
0.0949328
0.116236
0.125283
0.101556
0.0693471
0.0660569
0.0917499
0.111714
0.128048
0.103323
0.0712599
0.0626817
0.0768004
0.0825212
0.136071
0.102558
0.0688422
0.0704186
0.106931
0.139117
0.116458
0.0950194
0.0660543
0.0694413
0.102968
0.127136
0.113443
0.0936838
0.0671194
0.0721876
0.104805
0.129881
0.0819756
0.0771294
0.0630077
0.0700579
0.104921
0.138794
0.143224
0.109413
0.0716374
0.0683838
0.0977348
0.119602
0.129838
0.104663
0.0712328
0.0683343
0.0980988
0.120126
0.128943
0.105103
0.0720626
0.0688819
0.0986081
0.120641
0.129975
0.106576
0.0731621
0.0687203
0.0962341
0.11687
0.132656
0.107227
0.0739997
0.0654617
0.0802519
0.0858725
0.142484
0.108127
0.0721012
0.0738981
0.112255
0.144692
0.121884
0.0995941
0.0697049
0.0723547
0.106713
0.131965
0.121698
0.0995562
0.070202
0.0739764
0.106767
0.131205
0.118377
0.0978086
0.0702683
0.0753151
0.108661
0.135505
0.0863157
0.0808
0.0659079
0.0733349
0.110431
0.145266
0.147965
0.115055
0.0751996
0.0718676
0.102059
0.12456
0.135965
0.109481
0.0749076
0.0715844
0.1021
0.124905
0.135093
0.108857
0.0749338
0.0716256
0.100109
0.121393
0.136612
0.111502
0.077124
0.0680351
0.083207
0.0888088
0.148091
0.112413
0.0748374
0.0762179
0.116353
0.148611
0.12704
0.103712
0.0724797
0.0746575
0.10957
0.137116
0.127434
0.104017
0.0729549
0.0769746
0.110792
0.135604
0.127721
0.104385
0.0736623
0.0777535
0.111575
0.138189
0.12375
0.102013
0.0732546
0.0794102
0.114488
0.140155
0.0900015
0.0843602
0.0692801
0.077045
0.115071
0.151774
0.155008
0.118088
0.0781037
0.0746053
0.106159
0.130214
0.141899
0.113041
0.0775607
0.0754102
0.106877
0.130558
0.13954
0.11264
0.078458
0.07551
0.105181
0.127659
0.142435
0.115188
0.0802911
0.0701479
0.0857731
0.0914459
0.154974
0.117025
0.0777317
0.0801938
0.121605
0.157024
0.132396
0.107619
0.0755858
0.0791469
0.11455
0.143255
0.132459
0.108328
0.0759047
0.079077
0.114699
0.140616
0.133397
0.109017
0.0768568
0.081389
0.116349
0.142959
0.128864
0.106332
0.0764402
0.0824452
0.118269
0.145021
0.0937632
0.0879766
0.0723459
0.0802767
0.119899
0.15838
0.160202
0.124712
0.0830187
0.077962
0.110843
0.13518
0.146463
0.118506
0.0812857
0.0785513
0.111581
0.136401
0.144268
0.116977
0.0815626
0.079288
0.112169
0.137242
0.146501
0.11975
0.0834703
0.0790876
0.110148
0.13358
0.147925
0.120637
0.0844533
0.0744597
0.0903275
0.0959171
0.161855
0.123242
0.0831523
0.0837516