/*--------------------------------*- C++ -*----------------------------------*\
| =========                 |                                                 |
| \\      /  F ield         | OpenFOAM: The Open Source CFD Toolbox           |
|  \\    /   O peration     | Version:  v2006                                 |
|   \\  /    A nd           | Website:  www.openfoam.com                      |
|    \\/     M anipulation  |                                                 |
\*---------------------------------------------------------------------------*/
FoamFile
{
    version     2.0;
    format      ascii;
    class       volScalarField;
    location    "0.028";
    object      T;
}
// * * * * * * * * * * * * * * * * * * * * * * * * * * * * * * * * * * * * * //

dimensions      [0 0 0 1 0 0 0];


internalField   nonuniform List<scalar> 
41981
(
298.438
298.438
298.438
298.438
298.438
298.438
298.438
298.438
298.438
298.438
298.438
298.438
298.439
298.441
298.442
298.445
298.447
298.45
298.453
298.455
298.458
298.46
298.463
298.466
298.468
298.471
298.474
298.477
298.48
298.483
298.486
298.489
298.492
298.495
298.499
298.502
298.506
298.509
298.513
298.516
298.52
298.524
298.528
298.531
298.535
298.539
298.543
298.547
298.551
298.556
298.56
298.564
298.568
298.573
298.577
298.582
298.586
298.591
298.595
298.6
298.605
298.609
298.614
298.619
298.624
298.628
298.633
298.638
298.643
298.648
298.653
298.658
298.663
298.668
298.673
298.678
298.683
298.688
298.693
298.698
298.703
298.708
298.713
298.718
298.723
298.728
298.733
298.737
298.742
298.747
298.752
298.757
298.762
298.767
298.772
298.776
298.781
298.786
298.79
298.795
298.8
298.804
298.809
298.813
298.818
298.822
298.826
298.831
298.835
298.839
298.843
298.847
298.851
298.855
298.859
298.863
298.867
298.87
298.874
298.878
298.881
298.885
298.888
298.891
298.895
298.898
298.901
298.904
298.907
298.91
298.913
298.915
298.918
298.921
298.923
298.926
298.928
298.931
298.934
298.936
298.938
298.939
298.939
298.939
298.939
298.938
298.938
298.937
298.937
298.937
298.936
298.936
298.937
298.938
298.94
298.943
298.947
298.954
298.963
298.973
299.014
299.025
298.974
298.958
298.959
298.979
299.044
299.064
298.984
298.959
298.961
298.99
299.076
299.087
298.997
298.964
298.967
299.001
299.091
299.097
299.007
298.969
298.972
299.011
299.098
299.098
299.014
298.976
298.978
299.016
299.098
299.097
299.02
298.981
298.983
299.021
299.096
299.093
299.024
298.986
298.988
299.025
299.092
299.09
299.026
298.99
298.992
299.027
299.089
299.087
299.029
298.994
298.996
299.03
299.086
299.084
299.031
298.997
298.999
299.032
299.083
299.081
299.033
299
299.002
299.033
299.081
299.079
299.034
299.003
299.005
299.035
299.078
299.077
299.036
299.006
299.008
299.036
299.077
299.075
299.037
299.009
299.01
299.038
299.075
299.074
299.039
299.012
299.013
299.039
299.074
299.073
299.04
299.014
299.015
299.04
299.073
299.072
299.041
299.017
299.017
299.042
299.072
299.071
299.043
299.019
299.02
299.043
299.071
299.071
299.044
299.021
299.022
299.044
299.071
299.071
299.046
299.024
299.025
299.046
299.071
299.071
299.048
299.026
299.027
299.048
299.071
299.071
299.049
299.029
299.03
299.049
299.071
299.071
299.051
299.032
299.032
299.051
299.071
299.072
299.053
299.034
299.035
299.053
299.072
299.073
299.055
299.037
299.038
299.055
299.073
299.074
299.057
299.04
299.041
299.057
299.074
299.075
299.06
299.043
299.044
299.059
299.075
299.076
299.062
299.046
299.047
299.062
299.077
299.078
299.064
299.049
299.05
299.064
299.078
299.079
299.067
299.053
299.053
299.067
299.08
299.081
299.069
299.056
299.056
299.069
299.082
299.083
299.072
299.059
299.06
299.072
299.084
299.085
299.075
299.063
299.063
299.075
299.086
299.087
299.078
299.066
299.066
299.078
299.088
299.089
299.081
299.07
299.07
299.081
299.09
299.092
299.084
299.073
299.073
299.084
299.092
299.094
299.087
299.077
299.077
299.087
299.095
299.097
299.09
299.081
299.081
299.09
299.097
299.099
299.093
299.085
299.085
299.094
299.1
299.102
299.097
299.089
299.089
299.097
299.103
299.105
299.101
299.093
299.093
299.101
299.106
299.109
299.104
299.097
299.097
299.105
299.11
299.112
299.108
299.101
299.102
299.109
299.113
299.115
299.112
299.106
299.106
299.113
299.117
299.119
299.116
299.11
299.111
299.117
299.12
299.123
299.121
299.115
299.115
299.121
299.124
299.127
299.125
299.12
299.12
299.125
299.128
299.131
299.13
299.125
299.125
299.13
299.132
299.135
299.134
299.13
299.13
299.135
299.136
299.139
299.139
299.135
299.136
299.14
299.141
299.144
299.144
299.141
299.141
299.144
299.145
299.148
299.149
299.146
299.147
299.149
299.15
299.153
299.154
299.152
299.152
299.155
299.154
299.158
299.159
299.157
299.158
299.16
299.159
299.163
299.165
299.163
299.164
299.165
299.164
299.168
299.17
299.169
299.17
299.171
299.169
299.173
299.176
299.175
299.176
299.176
299.175
299.178
299.181
299.181
299.182
299.182
299.18
299.184
299.187
299.187
299.188
299.188
299.186
299.19
299.193
299.194
299.195
299.194
299.191
299.195
299.2
299.2
299.201
299.201
299.197
299.201
299.206
299.207
299.208
299.207
299.203
299.208
299.212
299.214
299.215
299.213
299.209
299.214
299.219
299.221
299.222
299.22
299.216
299.22
299.226
299.228
299.229
299.227
299.222
299.227
299.233
299.235
299.236
299.234
299.229
299.233
299.24
299.243
299.244
299.241
299.235
299.24
299.247
299.25
299.251
299.248
299.242
299.247
299.254
299.258
299.259
299.255
299.249
299.254
299.261
299.265
299.267
299.263
299.256
299.261
299.269
299.273
299.274
299.27
299.263
299.268
299.276
299.281
299.282
299.278
299.271
299.276
299.284
299.289
299.29
299.285
299.278
299.283
299.292
299.297
299.299
299.293
299.286
299.291
299.299
299.306
299.307
299.301
299.293
299.299
299.307
299.314
299.315
299.309
299.301
299.306
299.315
299.322
299.323
299.317
299.309
299.314
299.324
299.331
299.332
299.325
299.317
299.322
299.332
299.339
299.34
299.333
299.325
299.33
299.34
299.347
299.349
299.341
299.332
299.338
299.348
299.356
299.357
299.35
299.34
299.346
299.356
299.364
299.366
299.358
299.348
299.354
299.364
299.373
299.374
299.366
299.356
299.362
299.372
299.381
299.382
299.374
299.364
299.37
299.38
299.389
299.391
299.382
299.372
299.378
299.388
299.397
299.399
299.39
299.38
299.386
299.396
299.405
299.407
299.398
299.388
299.393
299.404
299.413
299.414
299.405
299.395
299.401
299.411
299.421
299.422
299.413
299.403
299.408
299.418
299.428
299.429
299.42
299.41
299.415
299.426
299.436
299.436
299.427
299.417
299.422
299.432
299.442
299.443
299.434
299.424
299.429
299.439
299.449
299.45
299.44
299.431
299.435
299.445
299.455
299.456
299.446
299.437
299.441
299.451
299.461
299.462
299.452
299.443
299.447
299.457
299.467
299.467
299.458
299.449
299.452
299.462
299.472
299.472
299.463
299.454
299.457
299.467
299.477
299.477
299.467
299.459
299.462
299.471
299.481
299.481
299.472
299.464
299.466
299.475
299.485
299.485
299.476
299.468
299.47
299.479
299.488
299.488
299.479
299.472
299.473
299.482
299.491
299.49
299.482
299.475
299.476
299.484
299.493
299.492
299.484
299.478
299.479
299.486
299.495
299.494
299.486
299.481
299.481
299.488
299.496
299.495
299.488
299.483
299.483
299.489
299.497
299.496
299.489
299.484
299.485
299.49
299.497
299.496
299.49
299.486
299.486
299.491
299.497
299.496
299.49
299.487
299.487
299.491
299.497
299.496
299.49
299.487
299.487
299.491
299.496
299.495
299.49
299.487
299.487
299.49
299.495
299.494
299.489
299.487
299.487
299.49
299.494
299.492
299.489
299.487
299.487
299.489
299.493
299.491
299.488
299.486
299.486
299.488
299.491
299.489
299.486
299.486
299.486
299.487
299.489
299.487
299.485
299.485
299.485
299.485
299.487
299.485
299.484
299.484
299.484
299.484
299.485
299.483
299.482
299.483
299.483
299.482
299.483
299.481
299.48
299.482
299.482
299.481
299.481
299.479
299.479
299.481
299.48
299.479
299.479
299.477
299.477
299.479
299.479
299.477
299.477
299.474
299.475
299.478
299.478
299.475
299.475
299.472
299.474
299.477
299.476
299.474
299.473
299.47
299.472
299.475
299.475
299.472
299.471
299.468
299.47
299.474
299.473
299.471
299.469
299.467
299.469
299.472
299.472
299.469
299.467
299.465
299.467
299.471
299.47
299.467
299.465
299.463
299.466
299.469
299.469
299.466
299.463
299.461
299.464
299.468
299.468
299.464
299.461
299.46
299.463
299.467
299.466
299.463
299.46
299.458
299.461
299.465
299.465
299.461
299.458
299.457
299.46
299.464
299.463
299.46
299.456
299.455
299.459
299.463
299.462
299.459
299.455
299.454
299.457
299.461
299.46
299.457
299.454
299.452
299.456
299.46
299.459
299.456
299.452
299.451
299.455
299.459
299.458
299.455
299.451
299.45
299.454
299.457
299.456
299.453
299.45
299.449
299.452
299.456
299.455
299.452
299.449
299.447
299.451
299.455
299.454
299.451
299.447
299.446
299.45
299.454
299.453
299.45
299.446
299.445
299.449
299.452
299.451
299.449
299.445
299.444
299.448
299.451
299.45
299.448
299.444
299.443
299.447
299.45
299.449
299.446
299.443
299.442
299.445
299.449
299.448
299.445
299.442
299.441
299.444
299.447
299.447
299.444
299.441
299.44
299.443
299.446
299.445
299.443
299.44
299.439
299.442
299.445
299.444
299.442
299.439
299.438
299.441
299.444
299.443
299.441
299.438
299.437
299.44
299.443
299.442
299.44
299.437
299.436
299.439
299.442
299.441
299.439
299.436
299.435
299.438
299.441
299.44
299.438
299.435
299.434
299.437
299.44
299.439
299.437
299.434
299.433
299.436
299.439
299.438
299.436
299.433
299.432
299.435
299.437
299.437
299.435
299.432
299.431
299.434
299.435
299.435
299.434
299.431
299.429
299.433
299.434
299.434
299.432
299.43
299.428
299.43
299.432
299.431
299.43
299.429
299.43
299.43
299.428
299.428
299.43
299.43
299.43
299.43
299.426
299.426
299.43
299.43
299.423
299.415
299.408
299.404
299.406
299.405
299.405
299.405
299.404
299.404
299.403
299.403
299.403
299.402
299.402
299.402
299.401
299.401
299.401
299.401
299.401
299.401
299.401
299.401
299.401
299.401
299.401
299.402
299.402
299.402
299.403
299.404
299.404
299.405
299.406
299.408
299.409
299.411
299.414
299.416
299.417
299.417
299.421
299.429
299.429
299.432
299.432
299.432
299.432
299.431
299.432
299.43
299.431
299.432
299.432
299.432
299.432
299.431
299.431
299.432
299.432
299.432
299.431
299.431
299.433
299.432
299.431
299.432
299.431
299.431
299.431
299.431
299.432
299.431
299.431
299.431
299.432
299.432
299.432
299.431
299.431
299.431
299.431
299.432
299.431
299.431
299.431
299.431
299.431
299.431
299.431
299.431
299.431
299.43
299.431
299.431
299.431
299.431
299.43
299.43
299.431
299.431
299.431
299.431
299.43
299.43
299.431
299.431
299.431
299.431
299.43
299.43
299.431
299.431
299.431
299.431
299.43
299.43
299.431
299.431
299.431
299.43
299.43
299.43
299.43
299.43
299.43
299.43
299.429
299.429
299.43
299.43
299.43
299.43
299.429
299.429
299.43
299.43
299.43
299.43
299.429
299.429
299.43
299.43
299.43
299.43
299.429
299.429
299.43
299.43
299.43
299.429
299.429
299.429
299.429
299.429
299.429
299.429
299.428
299.428
299.429
299.429
299.429
299.429
299.428
299.428
299.429
299.429
299.429
299.429
299.428
299.428
299.429
299.429
299.429
299.429
299.428
299.428
299.428
299.429
299.428
299.428
299.427
299.427
299.428
299.428
299.428
299.428
299.427
299.427
299.428
299.428
299.428
299.428
299.427
299.427
299.428
299.428
299.428
299.427
299.427
299.427
299.427
299.428
299.427
299.427
299.426
299.426
299.427
299.427
299.427
299.427
299.426
299.426
299.427
299.427
299.427
299.427
299.426
299.426
299.426
299.427
299.426
299.426
299.425
299.425
299.426
299.426
299.426
299.426
299.425
299.425
299.426
299.426
299.426
299.426
299.425
299.425
299.425
299.426
299.425
299.425
299.424
299.424
299.425
299.425
299.425
299.425
299.424
299.424
299.425
299.425
299.425
299.425
299.424
299.424
299.424
299.425
299.424
299.424
299.423
299.423
299.424
299.424
299.424
299.424
299.423
299.423
299.424
299.424
299.424
299.423
299.423
299.422
299.423
299.423
299.423
299.423
299.422
299.422
299.423
299.423
299.423
299.423
299.422
299.422
299.422
299.423
299.422
299.422
299.421
299.421
299.422
299.422
299.422
299.422
299.421
299.421
299.422
299.422
299.421
299.421
299.42
299.42
299.421
299.421
299.421
299.421
299.42
299.42
299.421
299.421
299.42
299.42
299.42
299.419
299.42
299.42
299.42
299.42
299.419
299.419
299.42
299.42
299.419
299.419
299.419
299.418
299.419
299.419
299.419
299.419
299.418
299.418
299.419
299.419
299.418
299.418
299.418
299.417
299.418
299.418
299.418
299.418
299.417
299.417
299.418
299.418
299.417
299.417
299.416
299.416
299.417
299.417
299.417
299.417
299.416
299.416
299.417
299.416
299.416
299.416
299.415
299.415
299.416
299.416
299.415
299.416
299.415
299.414
299.416
299.415
299.415
299.415
299.414
299.414
299.415
299.415
299.414
299.415
299.413
299.413
299.414
299.414
299.414
299.414
299.413
299.412
299.414
299.414
299.413
299.414
299.412
299.412
299.413
299.413
299.413
299.413
299.411
299.411
299.413
299.412
299.412
299.413
299.41
299.41
299.412
299.412
299.411
299.412
299.409
299.409
299.412
299.411
299.411
299.412
299.408
299.408
299.412
299.411
299.41
299.411
299.407
299.406
299.411
299.41
299.41
299.411
299.405
299.404
299.41
299.41
299.41
299.41
299.403
299.402
299.409
299.41
299.41
299.409
299.4
299.399
299.408
299.41
299.41
299.407
299.396
299.395
299.407
299.41
299.41
299.406
299.392
299.39
299.405
299.41
299.41
299.403
299.386
299.383
299.401
299.41
299.41
299.399
299.379
299.373
299.394
299.408
299.411
299.393
299.37
299.366
299.389
299.411
299.413
299.387
299.363
299.359
299.383
299.41
299.412
299.383
299.357
299.355
299.38
299.412
299.413
299.379
299.353
299.351
299.377
299.412
299.413
299.377
299.35
299.349
299.376
299.413
299.41
299.374
299.347
299.347
299.372
299.406
299.402
299.372
299.346
299.347
299.374
299.4
299.399
299.375
299.348
299.353
299.379
299.394
299.375
299.363
299.355
299.36
299.385
299.412
299.423
299.382
299.349
299.354
299.392
299.428
299.437
299.394
299.355
299.355
299.395
299.441
299.446
299.394
299.356
299.355
299.394
299.447
299.452
299.393
299.355
299.354
299.388
299.451
299.453
299.387
299.356
299.354
299.377
299.449
299.447
299.373
299.356
299.361
299.362
299.445
299.45
299.341
299.371
299.295
299.426
299.449
299.408
299.428
299.399
299.369
299.394
299.452
299.447
299.405
299.372
299.371
299.402
299.448
299.447
299.403
299.372
299.373
299.403
299.446
299.441
299.399
299.373
299.374
299.399
299.438
299.438
299.398
299.378
299.387
299.399
299.43
299.278
299.545
299.354
299.387
299.502
299.466
299.504
299.413
299.377
299.382
299.426
299.506
299.509
299.418
299.38
299.38
299.41
299.51
299.514
299.402
299.382
299.383
299.388
299.516
299.52
299.362
299.392
299.312
299.432
299.543
299.489
299.454
299.424
299.396
299.428
299.514
299.508
299.432
299.398
299.397
299.423
299.511
299.514
299.42
299.398
299.4
299.411
299.519
299.509
299.415
299.405
299.496
299.074
299.853
299.507
299.545
299.448
299.404
299.428
299.571
299.576
299.431
299.411
299.411
299.402
299.583
299.603
299.371
299.43
299.311
299.442
299.721
299.529
299.499
299.493
299.441
299.466
299.545
299.547
299.474
299.447
299.447
299.467
299.55
299.552
299.463
299.45
299.458
299.454
299.559
299.559
299.584
299.395
299.489
299.565
299.56
299.615
299.468
299.46
299.473
299.47
299.615
299.649
299.424
299.485
299.356
299.529
299.71
299.582
299.555
299.541
299.503
299.52
299.595
299.599
299.531
299.515
299.525
299.518
299.614
299.612
299.736
299.45
299.528
299.564
299.613
299.691
299.549
299.536
299.534
299.538
299.675
300.16
299.083
299.618
299.616
299.649
299.641
299.684
299.59
299.583
299.604
299.578
299.7
299.695
299.742
299.514
299.655
299.698
299.748
299.821
299.548
299.632
299.485
299.704
299.961
299.751
299.703
299.71
299.696
299.718
299.726
300.048
299.498
299.744
299.765
299.763
299.736
299.771
299.77
299.778
299.799
299.797
299.793
299.783
299.799
299.809
299.811
299.808
299.809
299.778
299.774
299.777
299.664
299.652
299.689
299.589
299.497
299.628
299.436
299.433
299.386
299.284
299.243
299.256
299.161
299.153
299.118
299.084
299.065
299.073
299.015
299.007
298.99
299.091
299.021
298.998
298.971
298.949
298.945
299.064
299.01
298.98
298.994
299.006
299.078
299.088
299.025
298.986
298.974
299.01
299.117
299.132
299.058
299.012
298.995
299.002
299.053
299.17
299.175
299.088
299.141
298.704
299.392
299.108
298.984
299.01
299.145
299.178
298.962
299.881
298.24
299.164
298.884
299.049
299.098
299.312
298.876
298.999
298.996
298.941
299.085
299.22
299.123
299.069
299.112
298.785
299.261
299.096
299.056
299.02
298.984
299.043
299.127
298.953
299.292
298.984
299.042
298.999
299.086
299.227
299.188
299.114
298.96
299.335
298.846
299.072
299.019
299.056
299.051
299.114
299.144
299.229
298.905
299.165
299.047
299.075
299.036
299.179
299.199
299.121
299.186
298.78
299.221
299.042
299.118
299.049
299.068
299.094
299.136
299
299.197
299.051
299.085
299.109
299.124
299.146
299.097
299.057
299.215
299.285
299.142
299.767
298.359
299.221
299.036
298.997
299.14
299.099
299.171
299.189
299.19
298.42
299.633
299.016
299.06
299.015
299.049
299.055
299.282
298.801
299.344
298.933
299.051
298.957
299.1
299.141
299.216
299.144
298.875
299.358
298.831
299.059
298.909
299.056
299.091
299.164
299.146
298.721
299.258
298.947
299.054
299.008
299.125
298.963
299.045
299.041
299.174
298.63
299.475
298.97
299.092
299.001
299.018
299.073
299.16
298.804
299.305
298.969
299.042
299.007
299.017
299.144
299.188
299.106
298.935
299.314
298.724
299.005
299.022
299.042
299.03
299.082
299.079
299.079
298.901
299.12
299.025
299.052
298.941
299.11
299.204
299.118
299.162
298.682
299.156
298.95
299.089
299.025
299.008
299.054
299.073
298.834
299.209
298.997
299.04
299.008
298.961
299.128
299.192
299.101
298.941
299.283
298.695
298.999
299.017
299.038
299.028
299.067
299.038
299.035
298.902
299.102
299.014
299.066
298.966
299.105
299.078
299.018
298.934
299.331
298.751
298.987
299.013
299.02
299.009
299.082
299.075
299.08
298.858
299.118
298.993
299.039
298.943
299.079
299.2
299.117
299.146
298.577
299.248
298.883
299
298.976
299.063
299.123
299.074
299.079
298.693
299.096
298.988
298.962
298.847
299.009
299.171
299.122
299.125
298.384
299.292
298.895
298.955
298.952
299.064
299.087
298.986
298.616
299.27
298.75
299.046
298.581
299.169
298.96
298.908
298.887
298.957
298.884
298.944
299.043
299
298.983
298.858
299.126
298.71
298.892
298.876
298.954
298.979
299.052
299.013
299.029
298.674
299.042
298.917
298.941
298.871
298.928
299.093
299.022
299.06
298.429
299.242
298.739
298.879
298.925
299.042
299.117
299.014
299.186
298.214
299.036
298.771
299.051
298.675
298.967
298.701
298.884
298.906
298.827
298.851
298.952
298.935
298.931
298.975
298.642
298.951
298.801
298.866
298.892
298.943
298.964
298.92
298.921
298.585
298.961
298.876
298.826
298.823
298.736
299.056
298.996
298.992
297.918
299.59
298.636
299.063
298.786
298.738
298.916
298.852
298.853
298.756
298.853
298.878
298.912
298.973
298.579
299.059
298.764
298.858
298.798
298.875
298.834
298.861
298.84
298.977
298.151
299.403
298.56
299.082
298.705
298.727
298.911
298.805
298.814
298.73
298.814
298.835
298.87
298.899
298.902
298.598
298.87
298.788
298.759
298.788
298.662
299.02
298.936
298.935
297.812
299.623
298.567
299.043
298.697
298.66
298.849
298.759
298.748
298.655
298.775
298.834
298.92
298.969
298.262
299.033
298.588
298.831
298.45
298.925
298.777
298.718
298.698
298.748
298.68
298.754
298.762
298.879
298.845
298.851
298.11
299.133
298.652
298.807
298.654
298.68
298.685
298.782
298.798
298.727
298.724
298.696
298.732
298.79
298.873
298.644
298.772
298.681
298.707
298.7
298.743
298.979
298.85
298.847
297.802
299.412
298.4
299.025
298.59
298.59
298.787
298.666
298.669
298.562
298.697
298.751
298.825
298.867
298.192
298.959
298.525
298.77
298.287
298.916
298.687
298.641
298.622
298.676
298.589
298.704
298.706
298.813
298.762
298.379
299.038
298.311
298.901
298.196
298.762
298.63
298.464
298.747
298.607
298.554
298.626
298.703
298.773
298.824
298.131
298.913
298.443
298.705
298.21
298.864
298.622
298.571
298.554
298.61
298.523
298.632
298.622
298.76
298.72
298.722
297.823
299.159
298.423
298.792
298.447
298.469
298.606
298.59
298.589
298.478
298.573
298.666
298.735
298.606
299.147
297.726
298.666
298.788
297.871
298.869
298.482
298.532
298.509
298.536
298.537
298.582
298.578
298.561
298.52
298.522
298.519
298.576
298.61
298.685
298.613
298.337
298.899
298.255
298.69
298.334
298.59
298.518
298.515
298.614
298.56
298.501
298.526
298.622
298.709
298.742
298.117
298.919
298.307
298.505
298.697
298.276
298.507
298.497
298.507
298.503
298.525
298.54
298.567
298.538
298.498
298.482
298.482
298.531
298.689
298.688
298.579
298.307
298.851
298.175
298.695
298.225
298.561
298.475
298.447
298.581
298.534
298.448
298.473
298.571
298.632
298.545
298.939
297.883
298.614
298.564
298.157
298.762
298.549
298.476
298.449
298.442
298.446
298.544
298.552
298.486
298.439
298.428
298.437
298.513
298.521
298.615
298.523
298.58
297.869
298.929
298.363
298.56
298.327
298.395
298.406
298.508
298.469
298.359
298.409
298.504
298.634
298.507
298.136
298.793
298.121
298.326
298.788
298.063
298.289
298.486
298.325
298.386
298.361
298.486
298.492
298.44
298.372
298.363
298.371
298.479
298.475
298.592
298.504
298.522
297.6
298.989
297.933
298.819
298.224
298.224
298.556
298.17
298.437
298.272
298.338
298.297
298.337
298.411
298.389
298.269
298.311
298.409
298.522
298.411
298.025
298.757
298.016
298.279
298.558
297.942
298.291
298.253
298.309
298.286
298.307
298.365
298.364
298.31
298.277
298.272
298.295
298.389
298.398
298.338
298.278
298.266
298.281
298.354
298.524
298.461
298.344
298.148
298.637
297.964
298.54
297.947
298.394
298.274
298.186
298.393
298.319
298.279
298.229
298.253
298.284
298.372
298.328
298.24
298.225
298.327
298.421
298.35
298.711
297.665
298.385
298.338
297.89
298.514
298.319
298.234
298.222
298.208
298.216
298.348
298.358
298.27
298.219
298.193
298.21
298.309
298.325
298.442
298.338
298.371
297.454
298.831
297.927
298.574
298.071
298.115
298.385
298.114
298.32
298.127
298.185
298.138
298.186
298.288
298.28
298.155
298.146
298.151
298.209
298.296
298.231
298.141
298.137
298.225
298.367
298.402
297.82
298.552
297.97
298.125
298.421
298.112
298.241
298.148
298.128
298.116
298.138
298.272
298.275
298.182
298.124
298.096
298.124
298.267
298.279
298.186
298.111
298.086
298.116
298.236
298.253
298.269
298.171
298.251
297.691
298.588
298.05
298.306
297.988
298.07
298.168
298.207
298.215
298.092
298.079
298.07
298.14
298.222
298.179
298.063
298.048
298.204
298.297
298.191
298.748
297.272
298.221
298.281
297.412
298.578
298.171
297.846
298.085
297.992
298.084
298.168
298.188
298.022
298.042
298.001
298.021
298.172
298.165
298.068
298.01
297.987
298.015
298.165
298.175
298.083
298.001
297.979
297.998
298.127
298.166
298.177
298.058
297.841
298.42
297.812
298.316
297.691
298.09
298.015
297.92
298.182
298.148
297.998
297.96
297.973
298.031
298.143
298.11
297.978
297.948
297.958
298.036
298.127
298.058
297.946
297.934
298.034
298.195
298.25
297.614
298.392
297.763
297.892
298.317
297.799
298.003
298.028
297.892
297.916
297.916
298.108
298.106
298.003
297.915
297.886
297.912
298.084
298.097
297.992
297.904
297.875
297.906
298.05
298.066
298.038
297.94
298.028
297.614
298.34
297.696
298.309
297.744
297.824
298.151
297.852
298.12
297.812
297.887
297.862
297.933
298.053
298.042
297.862
297.84
297.847
297.922
298.033
298.022
297.851
297.819
297.837
297.924
298.034
297.958
297.828
297.806
297.882
298.049
298.12
297.594
298.214
297.684
297.779
298.149
297.75
297.913
297.937
297.785
297.793
297.803
298.025
297.997
297.893
297.798
297.766
297.798
297.999
298.003
297.881
297.787
297.748
297.755
297.933
297.97
298.146
297.918
297.406
298.356
297.425
297.61
297.939
297.655
297.547
298.106
297.754
297.975
297.678
297.719
297.679
297.776
297.932
297.923
297.705
297.68
297.69
297.777
297.914
297.88
297.695
297.661
297.683
297.778
297.899
297.832
297.669
297.65
297.762
297.923
297.874
297.402
298.183
297.404
297.6
298.198
297.309
297.557
297.873
297.615
297.659
297.549
297.918
297.799
297.688
297.617
297.606
297.63
297.837
297.827
297.699
297.618
297.584
297.625
297.8
297.823
297.701
297.608
297.557
297.588
297.754
297.761
297.912
297.768
297.778
296.472
298.588
298.062
297.135
297.581
297.677
297.203
298.067
297.75
297.563
297.495
297.526
297.519
297.778
297.751
297.512
297.493
297.507
297.595
297.743
297.716
297.508
297.472
297.49
297.596
297.729
297.635
297.493
297.456
297.58
297.731
297.794
298.002
296.97
297.647
297.644
297.026
297.995
297.742
297.344
297.532
297.418
297.53
297.625
297.686
297.462
297.487
297.426
297.455
297.669
297.654
297.516
297.434
297.398
297.44
297.658
297.655
297.52
297.422
297.378
297.429
297.613
297.632
297.511
297.398
297.362
297.399
297.553
297.705
297.604
297.414
297.329
297.721
297.328
297.698
297.239
297.4
297.322
297.496
297.554
297.594
297.372
297.325
297.349
297.45
297.579
297.592
297.365
297.314
297.336
297.45
297.587
297.555
297.34
297.29
297.32
297.438
297.574
297.487
297.32
297.278
297.333
297.511
297.643
297.25
297.672
297.218
297.205
297.629
297.277
297.439
297.454
297.251
297.255
297.271
297.531
297.506
297.377
297.258
297.224
297.268
297.501
297.516
297.365
297.248
297.202
297.261
297.445
297.479
297.352
297.228
297.183
297.229
297.4
297.559
297.402
297.237
297.156
297.562
297.185
297.563
297.021
297.22
297.146
297.315
297.426
297.394
297.202
297.145
297.174
297.29
297.453
297.426
297.189
297.129
297.156
297.276
297.419
297.4
297.157
297.105
297.143
297.259
297.419
297.312
297.136
297.085
297.17
297.34
297.476
297.534
296.873
297.259
297.167
296.768
297.625
297.448
297.041
297.133
297
297.151
297.303
297.358
297.106
297.077
297.014
297.058
297.328
297.321
297.143
297.043
296.987
297.04
297.304
297.298
297.137
297.016
296.962
297.016
297.261
297.277
297.119
296.993
296.94
296.986
297.173
297.338
297.186
296.993
296.906
297.366
296.913
297.318
296.843
296.985
296.948
297.088
297.193
297.221
296.965
296.923
296.945
297.046
297.2
297.2
296.946
296.893
296.924
297.046
297.225
297.141
296.933
296.867
296.897
297.026
297.172
297.087
296.889
296.841
296.841
297.075
297.198
296.947
297.189
296.857
296.793
297.081
297.056
297.089
297.039
296.827
296.788
296.856
297.116
297.129
296.975
296.824
296.761
296.815
297.113
297.103
296.929
296.797
296.731
296.79
297.059
297.074
296.904
296.768
296.705
296.749
296.951
297.162
297.037
296.795
296.656
297.143
296.646
296.969
296.835
296.691
296.681
296.867
296.966
297.04
296.714
296.664
296.697
296.823
297.015
296.999
296.696
296.639
296.679
296.808
297.007
296.914
296.683
296.613
296.655
296.789
296.956
296.858
296.637
296.582
296.581
296.841
296.974
296.658
296.966
296.594
296.508
296.865
296.749
296.863
296.819
296.562
296.515
296.601
296.914
296.897
296.718
296.555
296.488
296.551
296.876
296.882
296.673
296.529
296.459
296.532
296.787
296.822
296.641
296.498
296.424
296.476
296.701
296.889
296.711
296.493
296.375
296.876
296.41
296.644
296.557
296.43
296.428
296.638
296.728
296.759
296.442
296.399
296.434
296.572
296.775
296.708
296.421
296.361
296.4
296.538
296.73
296.625
296.38
296.323
296.386
296.584
296.755
296.431
296.747
296.295
296.237
296.66
296.445
296.612
296.542
296.29
296.256
296.323
296.673
296.644
296.457
296.285
296.225
296.285
296.615
296.622
296.412
296.268
296.19
296.264
296.525
296.562
296.381
296.233
296.151
296.216
296.457
296.58
296.395
296.194
296.18
296.425
296.386
296.578
296.052
296.146
296.114
296.289
296.54
296.465
296.116
296.08
296.129
296.313
296.501
296.434
296.134
296.062
296.107
296.266
296.475
296.358
296.085
296.026
296.034
296.301
296.498
296.264
296.39
296.078
295.975
296.302
296.26
296.385
296.242
296.024
295.96
296.028
296.394
296.383
296.154
295.999
295.915
295.988
296.372
296.369
296.123
295.959
295.878
295.965
296.244
296.301
296.093
295.936
295.84
295.916
296.186
296.286
296.091
295.849
295.915
296.117
296.172
296.241
295.868
295.831
295.848
296.015
296.222
296.185
295.81
295.753
295.776
295.957
296.165
296.09
295.755
295.706
295.761
295.941
296.126
296.033
295.739
295.682
295.694
295.933
296.156
296.06
295.998
295.77
295.672
295.776
296.025
296.094
295.872
295.713
295.612
295.703
296.001
296.066
295.827
295.668
295.563
295.644
295.997
296.025
295.782
295.62
295.525
295.602
295.882
296.018
295.829
295.544
295.769
295.396
296.12
295.976
295.506
295.502
295.574
295.6
295.981
295.836
295.544
295.43
295.501
295.627
295.925
295.812
295.465
295.38
295.43
295.579
295.844
295.7
295.414
295.328
295.31
295.477
295.788
295.647
295.689
295.378
295.29
295.051
295.879
295.741
295.502
295.258
295.223
295.277
295.716
295.739
295.458
295.278
295.186
295.259
295.647
295.662
295.414
295.234
295.146
295.219
295.534
295.646
295.434
295.164
295.186
295.532
295.417
295.517
295.233
295.13
295.152
295.359
295.57
295.497
295.137
295.068
295.11
295.307
295.538
295.41
295.085
295.012
295.003
295.22
295.521
295.521
295.235
295.15
294.957
295.094
295.379
295.445
295.161
295.005
294.885
294.999
295.311
295.384
295.09
294.943
294.807
294.917
295.227
295.284
295.007
294.85
294.735
294.816
295.092
295.189
294.89
294.716
294.852
295.023
295.197
295.203
294.814
294.724
294.781
294.971
295.231
295.115
294.76
294.662
294.719
294.911
295.162
295.023
294.697
294.607
294.613
294.843
295.155
295.117
294.901
294.732
294.576
294.686
295.013
295.081
294.815
294.631
294.501
294.599
294.973
295.014
294.74
294.548
294.427
294.522
294.854
294.985
294.649
294.428
294.587
294.689
294.995
294.808
294.521
294.371
294.425
294.591
294.891
294.774
294.397
294.286
294.32
294.495
294.814
294.631
294.292
294.216
294.18
294.424
294.715
294.669
294.355
294.295
294.119
294.166
294.609
294.695
294.424
294.226
294.089
294.174
294.637
294.677
294.376
294.171
294.023
294.115
294.504
294.611
294.332
294.018
294.128
294.413
294.515
294.482
294.096
294.019
294.05
294.264
294.529
294.392
294.002
293.915
293.963
294.179
294.439
294.292
293.929
293.844
293.827
294.068
294.42
294.437
294.084
293.994
293.761
293.907
294.223
294.298
293.993
293.811
293.669
293.766
294.106
294.254
293.96
293.626
293.699
294.104
294.056
294.041
293.621
293.574
293.547
293.741
294.059
293.946
293.511
293.406
293.5
293.676
294.011
293.851
293.473
293.386
293.407
293.672