/*--------------------------------*- C++ -*----------------------------------*\
| =========                 |                                                 |
| \\      /  F ield         | OpenFOAM: The Open Source CFD Toolbox           |
|  \\    /   O peration     | Version:  v2006                                 |
|   \\  /    A nd           | Website:  www.openfoam.com                      |
|    \\/     M anipulation  |                                                 |
\*---------------------------------------------------------------------------*/
FoamFile
{
    version     2.0;
    format      ascii;
    class       volScalarField;
    location    "0.028";
    object      turbulenceProperties:L;
}
// * * * * * * * * * * * * * * * * * * * * * * * * * * * * * * * * * * * * * //

dimensions      [0 1 0 0 0 0 0];


internalField   nonuniform List<scalar> 
41981
(
1999.75
1999.72
1999.82
1999.89
1999.92
1999.91
1999.9
1999.94
1999.92
1999.92
1999.89
1999.82
1999.69
1999.49
1999.23
1998.97
1998.72
1998.5
1998.3
1998.13
1997.98
1997.85
1997.72
1997.6
1997.49
1997.38
1997.28
1997.18
1997.08
1996.99
1996.9
1996.81
1996.73
1996.65
1996.56
1996.48
1996.41
1996.33
1996.25
1996.17
1996.1
1996.02
1995.94
1995.87
1995.8
1995.72
1995.65
1995.57
1995.5
1995.43
1995.36
1995.29
1995.22
1995.15
1995.08
1995.02
1994.95
1994.89
1994.83
1994.76
1994.7
1994.64
1994.59
1994.53
1994.48
1994.42
1994.37
1994.32
1994.27
1994.23
1994.18
1994.14
1994.1
1994.06
1994.03
1993.99
1993.96
1993.93
1993.9
1993.88
1993.86
1993.84
1993.82
1993.8
1993.79
1993.78
1993.77
1993.76
1993.76
1993.76
1993.76
1993.76
1993.77
1993.77
1993.78
1993.79
1993.8
1993.81
1993.82
1993.82
1993.81
1993.78
1993.72
1993.61
1993.43
1993.15
1992.71
1992.02
1990.97
1989.38
1986.99
1983.41
1978.1
1970.25
1958.76
1942.05
1918.03
1883.94
1836.38
1771.51
1685.5
1575.5
1440.91
1284.65
1113.61
937.818
768.21
614.067
481.232
371.753
284.645
217.112
165.646
126.793
97.5623
75.5589
59.0919
47.4832
43.0234
42.2538
37.1306
36.6109
44.7367
70.3693
132.825
297.241
272.246
46.0837
14.2472
5.02417
2.01059
0.890897
0.400902
0.29879
0.351401
0.13976
0.0490678
0.013629
0.00151373
0.000271821
1.97374e-05
1.84067e-05
0.000128202
0.000578651
0.000304819
8.20745e-05
1.70347e-05
1.60754e-05
7.64148e-05
0.000262526
0.00021038
6.86986e-05
1.56391e-05
1.52887e-05
6.86191e-05
0.000206819
0.000182877
6.37382e-05
1.49608e-05
1.47958e-05
6.51853e-05
0.000182842
0.000171932
6.20022e-05
1.46257e-05
1.43963e-05
6.28205e-05
0.000172688
0.000164146
6.11397e-05
1.42564e-05
1.41716e-05
6.20044e-05
0.00016659
0.000159296
6.06172e-05
1.4062e-05
1.39985e-05
6.12491e-05
0.000161953
0.000155375
5.99878e-05
1.393e-05
1.38959e-05
6.04557e-05
0.000158038
0.000151873
5.92709e-05
1.38461e-05
1.38219e-05
5.96759e-05
0.000154463
0.000148589
5.85235e-05
1.37798e-05
1.37597e-05
5.88791e-05
0.000151096
0.000145455
5.77328e-05
1.37213e-05
1.37032e-05
5.80893e-05
0.000147902
0.000142493
5.6993e-05
1.36674e-05
1.36506e-05
5.73506e-05
0.000144916
0.000139735
5.62984e-05
1.36167e-05
1.36008e-05
5.66575e-05
0.000142147
0.000137185
5.56483e-05
1.35685e-05
1.35533e-05
5.60093e-05
0.000139587
0.000134822
5.50427e-05
1.35225e-05
1.35079e-05
5.54054e-05
0.000137213
0.000132626
5.44783e-05
1.34783e-05
1.34643e-05
5.48431e-05
0.000135007
0.000130585
5.39542e-05
1.34357e-05
1.34222e-05
5.43186e-05
0.000132957
0.000128687
5.34623e-05
1.33946e-05
1.33815e-05
5.38272e-05
0.000131048
0.000126918
5.30021e-05
1.33548e-05
1.33421e-05
5.33677e-05
0.000129267
0.000125262
5.25715e-05
1.33161e-05
1.33038e-05
5.29382e-05
0.000127599
0.000123709
5.2169e-05
1.32786e-05
1.32666e-05
5.25362e-05
0.000126031
0.000122247
5.17915e-05
1.3242e-05
1.32303e-05
5.21589e-05
0.000124555
0.000120868
5.14364e-05
1.32063e-05
1.31949e-05
5.18037e-05
0.000123161
0.000119563
5.10991e-05
1.31714e-05
1.31602e-05
5.14677e-05
0.00012184
0.000118324
5.07792e-05
1.31371e-05
1.31261e-05
5.11496e-05
0.000120587
0.000117149
5.04764e-05
1.31034e-05
1.30926e-05
5.08486e-05
0.000119397
0.000116032
5.01893e-05
1.30702e-05
1.30595e-05
5.05627e-05
0.000118266
0.000114969
4.99163e-05
1.30374e-05
1.30268e-05
5.02909e-05
0.00011719
0.000113959
4.96564e-05
1.3005e-05
1.29945e-05
5.00321e-05
0.000116166
0.000112997
4.94087e-05
1.29729e-05
1.29625e-05
4.97853e-05
0.000115191
0.00011208
4.91724e-05
1.2941e-05
1.29307e-05
4.95497e-05
0.000114261
0.000111205
4.89464e-05
1.29094e-05
1.28991e-05
4.93244e-05
0.000113373
0.000110368
4.873e-05
1.28779e-05
1.28676e-05
4.91086e-05
0.000112523
0.000109566
4.85224e-05
1.28465e-05
1.28363e-05
4.89014e-05
0.000111708
0.000108796
4.83228e-05
1.28151e-05
1.28049e-05
4.8702e-05
0.000110925
0.000108055
4.81304e-05
1.27838e-05
1.27736e-05
4.85097e-05
0.000110171
0.000107341
4.79444e-05
1.27524e-05
1.27421e-05
4.83237e-05
0.000109444
0.000106652
4.77643e-05
1.27209e-05
1.27106e-05
4.81435e-05
0.000108741
0.000105985
4.75893e-05
1.26892e-05
1.26788e-05
4.79683e-05
0.000108061
0.000105339
4.74189e-05
1.26573e-05
1.26468e-05
4.77977e-05
0.000107401
0.000104711
4.72528e-05
1.26252e-05
1.26146e-05
4.76312e-05
0.000106761
0.000104102
4.70903e-05
1.25927e-05
1.2582e-05
4.74685e-05
0.000106138
0.000103508
4.69313e-05
1.25599e-05
1.2549e-05
4.7309e-05
0.000105532
0.00010293
4.67753e-05
1.25267e-05
1.25157e-05
4.71526e-05
0.000104941
0.000102366
4.66222e-05
1.2493e-05
1.24818e-05
4.69989e-05
0.000104364
0.000101816
4.64716e-05
1.24588e-05
1.24475e-05
4.68477e-05
0.000103801
0.000101278
4.63232e-05
1.24241e-05
1.24126e-05
4.66987e-05
0.00010325
0.000100752
4.61768e-05
1.23889e-05
1.23771e-05
4.65518e-05
0.000102711
0.000100236
4.60322e-05
1.2353e-05
1.23409e-05
4.64057e-05
0.000102184
9.9732e-05
4.58877e-05
1.23164e-05
1.23038e-05
4.62594e-05
0.000101668
9.92378e-05
4.57431e-05
1.22789e-05
1.22657e-05
4.61131e-05
0.000101162
9.8753e-05
4.55992e-05
1.22406e-05
1.22267e-05
4.59678e-05
0.000100666
9.82769e-05
4.54565e-05
1.22014e-05
1.21869e-05
4.58238e-05
0.000100179
9.78089e-05
4.5315e-05
1.21613e-05
1.21463e-05
4.56812e-05
9.96991e-05
9.73486e-05
4.51749e-05
1.21203e-05
1.21047e-05
4.55401e-05
9.92274e-05
9.68955e-05
4.50361e-05
1.20784e-05
1.20621e-05
4.54004e-05
9.8763e-05
9.64494e-05
4.48985e-05
1.20355e-05
1.20186e-05
4.52619e-05
9.83057e-05
9.601e-05
4.47623e-05
1.19916e-05
1.1974e-05
4.51247e-05
9.78553e-05
9.5577e-05
4.46272e-05
1.19466e-05
1.19284e-05
4.49885e-05
9.74114e-05
9.51502e-05
4.44927e-05
1.19004e-05
1.18816e-05
4.48531e-05
9.69737e-05
9.47297e-05
4.43589e-05
1.1853e-05
1.18336e-05
4.47183e-05
9.65424e-05
9.43151e-05
4.42256e-05
1.18044e-05
1.17843e-05
4.45842e-05
9.6117e-05
9.39062e-05
4.40928e-05
1.17544e-05
1.17337e-05
4.44506e-05
9.56974e-05
9.35026e-05
4.39603e-05
1.17031e-05
1.16816e-05
4.43175e-05
9.52832e-05
9.31042e-05
4.3828e-05
1.16503e-05
1.16282e-05
4.41848e-05
9.48744e-05
9.27108e-05
4.36959e-05
1.1596e-05
1.15732e-05
4.40524e-05
9.44707e-05
9.23224e-05
4.35641e-05
1.15401e-05
1.15166e-05
4.39204e-05
9.40724e-05
9.19391e-05
4.34324e-05
1.14825e-05
1.14583e-05
4.37887e-05
9.36793e-05
9.1561e-05
4.33009e-05
1.14233e-05
1.13984e-05
4.36575e-05
9.32917e-05
9.11882e-05
4.31697e-05
1.13623e-05
1.13367e-05
4.35266e-05
9.29098e-05
9.08209e-05
4.30387e-05
1.12995e-05
1.12733e-05
4.33962e-05
9.25337e-05
9.04594e-05
4.29081e-05
1.12348e-05
1.1208e-05
4.32663e-05
9.21638e-05
9.0104e-05
4.27778e-05
1.11683e-05
1.11408e-05
4.31382e-05
9.18006e-05
8.97554e-05
4.26484e-05
1.10999e-05
1.10718e-05
4.30115e-05
9.14448e-05
8.9414e-05
4.25196e-05
1.10295e-05
1.10009e-05
4.28854e-05
9.10967e-05
8.90802e-05
4.23911e-05
1.09572e-05
1.09281e-05
4.27602e-05
9.07568e-05
8.87545e-05
4.22635e-05
1.0883e-05
1.08534e-05
4.26363e-05
9.04258e-05
8.84377e-05
4.21372e-05
1.0807e-05
1.07769e-05
4.25141e-05
9.01047e-05
8.81311e-05
4.20125e-05
1.0729e-05
1.06986e-05
4.2394e-05
8.97947e-05
8.78356e-05
4.18899e-05
1.06494e-05
1.06187e-05
4.22765e-05
8.94969e-05
8.75526e-05
4.17699e-05
1.05681e-05
1.05373e-05
4.2162e-05
8.92129e-05
8.72834e-05
4.1653e-05
1.04854e-05
1.04546e-05
4.20511e-05
8.8944e-05
8.70297e-05
4.15398e-05
1.04014e-05
1.03707e-05
4.19444e-05
8.86921e-05
8.67932e-05
4.1431e-05
1.03164e-05
1.02861e-05
4.18426e-05
8.8459e-05
8.6576e-05
4.13271e-05
1.02308e-05
1.02009e-05
4.17463e-05
8.82472e-05
8.63806e-05
4.12292e-05
1.01448e-05
1.01156e-05
4.16564e-05
8.80595e-05
8.62101e-05
4.11381e-05
1.00589e-05
1.00306e-05
4.1574e-05
8.7899e-05
8.60674e-05
4.10554e-05
9.97379e-06
9.94629e-06
4.15003e-05
8.77686e-05
8.59551e-05
4.09824e-05
9.89001e-06
9.86338e-06
4.1436e-05
8.76706e-05
8.58746e-05
4.09186e-05
9.80811e-06
9.78245e-06
4.13804e-05
8.76067e-05
8.58272e-05
4.08638e-05
9.72852e-06
9.704e-06
4.13335e-05
8.75782e-05
8.58142e-05
4.08183e-05
9.6518e-06
9.62872e-06
4.12961e-05
8.7586e-05
8.58364e-05
4.07833e-05
9.57875e-06
9.55738e-06
4.12691e-05
8.76306e-05
8.5894e-05
4.07592e-05
9.51012e-06
9.49071e-06
4.12526e-05
8.77118e-05
8.59864e-05
4.07456e-05
9.44658e-06
9.42934e-06
4.12457e-05
8.78287e-05
8.61121e-05
4.07418e-05
9.38873e-06
9.37383e-06
4.12473e-05
8.79794e-05
8.62689e-05
4.07464e-05
9.33705e-06
9.32464e-06
4.12562e-05
8.8161e-05
8.64542e-05
4.07584e-05
9.29195e-06
9.28219e-06
4.12712e-05
8.83731e-05
8.66683e-05
4.07809e-05
9.25368e-06
9.24795e-06
4.12769e-05
8.86147e-05
8.69002e-05
4.07882e-05
9.22372e-06
9.22111e-06
4.12711e-05
8.88638e-05
8.71366e-05
4.07864e-05
9.20039e-06
9.20075e-06
4.12563e-05
8.91161e-05
8.73755e-05
4.07781e-05
9.18405e-06
9.18756e-06
4.12336e-05
8.93674e-05
8.76136e-05
4.07639e-05
9.17332e-06
9.18019e-06
4.12038e-05
8.96121e-05
8.78462e-05
4.07449e-05
9.16868e-06
9.1788e-06
4.11686e-05
8.98541e-05
8.80724e-05
4.07183e-05
9.17031e-06
9.18335e-06
4.1126e-05
9.00865e-05
8.82826e-05
4.06745e-05
9.17827e-06
9.19313e-06
4.10651e-05
9.02962e-05
8.84649e-05
4.06151e-05
9.19067e-06
9.20714e-06
4.09963e-05
9.04782e-05
8.86229e-05
4.05491e-05
9.20692e-06
9.22469e-06
4.09251e-05
9.06344e-05
8.87577e-05
4.04808e-05
9.2263e-06
9.24592e-06
4.08493e-05
9.07638e-05
8.88663e-05
4.04078e-05
9.24897e-06
9.27003e-06
4.07688e-05
9.08672e-05
8.89514e-05
4.03317e-05
9.27459e-06
9.29693e-06
4.06864e-05
9.09443e-05
8.90114e-05
4.0252e-05
9.30259e-06
9.32545e-06
4.06007e-05
9.09937e-05
8.90427e-05
4.01692e-05
9.33171e-06
9.35451e-06
4.05118e-05
9.10119e-05
8.9044e-05
4.00847e-05
9.36124e-06
9.38387e-06
4.04224e-05
9.10012e-05
8.90214e-05
4.00016e-05
9.39099e-06
9.41346e-06
4.03359e-05
9.09683e-05
8.89798e-05
3.99226e-05
9.42089e-06
9.44304e-06
4.02536e-05
9.09154e-05
8.89194e-05
3.98479e-05
9.45061e-06
9.47225e-06
4.01752e-05
9.0843e-05
8.88418e-05
3.97703e-05
9.4792e-06
9.49977e-06
4.00971e-05
9.07622e-05
8.87466e-05
3.96911e-05
9.50621e-06
9.52584e-06
4.00206e-05
9.06641e-05
8.86372e-05
3.96164e-05
9.53179e-06
9.55051e-06
3.99485e-05
9.05522e-05
8.85168e-05
3.95467e-05
9.55598e-06
9.57382e-06
3.98811e-05
9.04294e-05
8.83881e-05
3.94826e-05
9.5788e-06
9.59575e-06
3.98192e-05
9.02986e-05
8.82538e-05
3.94241e-05
9.60025e-06
9.61633e-06
3.97633e-05
9.01624e-05
8.81174e-05
3.93717e-05
9.62034e-06
9.6356e-06
3.97143e-05
9.00244e-05
8.79814e-05
3.93262e-05
9.63922e-06
9.65371e-06
3.96718e-05
8.9887e-05
8.78473e-05
3.9286e-05
9.6571e-06
9.67084e-06
3.96341e-05
8.97515e-05
8.77165e-05
3.92524e-05
9.67394e-06
9.6869e-06
3.96025e-05
8.96195e-05
8.75908e-05
3.92254e-05
9.68972e-06
9.70192e-06
3.95773e-05
8.94931e-05
8.74721e-05
3.92051e-05
9.70447e-06
9.71597e-06
3.95584e-05
8.93745e-05
8.7362e-05
3.91911e-05
9.71827e-06
9.72913e-06
3.95456e-05
8.92646e-05
8.72611e-05
3.91828e-05
9.73119e-06
9.74147e-06
3.95383e-05
8.91641e-05
8.71696e-05
3.91788e-05
9.74333e-06
9.75309e-06
3.95363e-05
8.9073e-05
8.70877e-05
3.91803e-05
9.75477e-06
9.7641e-06
3.95397e-05
8.89917e-05
8.70155e-05
3.91867e-05
9.76561e-06
9.77455e-06
3.95475e-05
8.89201e-05
8.69529e-05
3.91975e-05
9.77593e-06
9.78453e-06
3.95592e-05
8.88579e-05
8.6899e-05
3.92117e-05
9.78579e-06
9.79411e-06
3.9574e-05
8.88041e-05
8.68525e-05
3.9228e-05
9.79523e-06
9.80325e-06
3.95911e-05
8.87573e-05
8.68121e-05
3.9246e-05
9.80424e-06
9.812e-06
3.96098e-05
8.87161e-05
8.67768e-05
3.92654e-05
9.81286e-06
9.82037e-06
3.96297e-05
8.86795e-05
8.67454e-05
3.92856e-05
9.82111e-06
9.82838e-06
3.965e-05
8.86464e-05
8.67168e-05
3.93061e-05
9.82901e-06
9.83606e-06
3.96703e-05
8.86156e-05
8.66898e-05
3.93261e-05
9.83657e-06
9.84338e-06
3.969e-05
8.85858e-05
8.6663e-05
3.93452e-05
9.84377e-06
9.85034e-06
3.97084e-05
8.85559e-05
8.66357e-05
3.93629e-05
9.8506e-06
9.85693e-06
3.97253e-05
8.8525e-05
8.66068e-05
3.93789e-05
9.85706e-06
9.86314e-06
3.97403e-05
8.84923e-05
8.65758e-05
3.93929e-05
9.86315e-06
9.86898e-06
3.97533e-05
8.84571e-05
8.65419e-05
3.94049e-05
9.86886e-06
9.87446e-06
3.97641e-05
8.84188e-05
8.65047e-05
3.94145e-05
9.8742e-06
9.87963e-06
3.97725e-05
8.83771e-05
8.64641e-05
3.94219e-05
9.87923e-06
9.88449e-06
3.97786e-05
8.83318e-05
8.64199e-05
3.94271e-05
9.88395e-06
9.88907e-06
3.97825e-05
8.82831e-05
8.63726e-05
3.94302e-05
9.88844e-06
9.89347e-06
3.97846e-05
8.82319e-05
8.63233e-05
3.94319e-05
9.89276e-06
9.8978e-06
3.97854e-05
8.81793e-05
8.62737e-05
3.94333e-05
9.8971e-06
9.90233e-06
3.97865e-05
8.81287e-05
8.62306e-05
3.94391e-05
9.90182e-06
9.90845e-06
3.97967e-05
8.80999e-05
8.60634e-05
3.93758e-05
9.90162e-06
1.00456e-05
4.01798e-05
8.81275e-05
8.62941e-05
3.90032e-05
1.00089e-05
1.0071e-05
4.0267e-05
8.95169e-05
8.76368e-05
3.99697e-05
1.02338e-05
1.08798e-05
4.25219e-05
9.4584e-05
0.000101062
4.49161e-05
1.15557e-05
1.21748e-05
4.60133e-05
0.000101885
0.000106306
4.80387e-05
1.24871e-05
1.28716e-05
4.8447e-05
0.000107808
0.000285003
0.00056145
0.000889287
0.00117274
0.00161425
0.002014
0.00241607
0.00278184
0.00313363
0.00345597
0.00375957
0.00403518
0.0042876
0.00451109
0.00470769
0.00487373
0.00500993
0.00511426
0.00518686
0.00522682
0.00523391
0.00520841
0.00515046
0.00506138
0.00494099
0.00479198
0.00461388
0.00441088
0.00418187
0.00393304
0.003662
0.00337711
0.00307481
0.00276877
0.00245095
0.0021436
0.00182844
0.0015774
0.00130436
0.000991852
0.00075012
0.000646337
0.000420342
0.000247005
0.000117943
4.23533e-05
1.74461e-05
3.27345e-06
3.18522e-06
1.73676e-05
4.24647e-05
3.97069e-05
1.65247e-05
3.06075e-06
2.93635e-06
1.64351e-05
3.9817e-05
3.95253e-05
1.62554e-05
2.95372e-06
2.93861e-06
1.62289e-05
3.93139e-05
3.88035e-05
1.6105e-05
2.88919e-06
2.78889e-06
1.58996e-05
3.8686e-05
3.88475e-05
1.5941e-05
2.79247e-06
2.78369e-06
1.57112e-05
3.84665e-05
3.86408e-05
1.57899e-05
2.79622e-06
2.79322e-06
1.57867e-05
3.86445e-05
3.86886e-05
1.5801e-05
2.79618e-06
2.79819e-06
1.58043e-05
3.87043e-05
3.87524e-05
1.58205e-05
2.801e-06
2.80316e-06
1.58237e-05
3.87695e-05
3.88186e-05
1.58403e-05
2.80609e-06
2.8084e-06
1.58445e-05
3.88368e-05
3.88876e-05
1.58619e-05
2.81142e-06
2.81376e-06
1.58659e-05
3.89064e-05
3.89578e-05
1.58833e-05
2.81686e-06
2.8193e-06
1.5888e-05
3.89773e-05
3.90302e-05
1.59061e-05
2.82246e-06
2.82491e-06
1.59106e-05
3.90501e-05
3.91034e-05
1.59287e-05
2.82813e-06
2.83068e-06
1.59337e-05
3.91239e-05
3.91785e-05
1.59524e-05
2.83395e-06
2.8365e-06
1.59573e-05
3.91994e-05
3.92545e-05
1.59759e-05
2.83983e-06
2.84246e-06
1.59813e-05
3.92758e-05
3.93323e-05
1.60006e-05
2.84584e-06
2.84848e-06
1.60057e-05
3.9354e-05
3.94109e-05
1.6025e-05
2.85192e-06
2.85463e-06
1.60307e-05
3.94331e-05
3.94913e-05
1.60505e-05
2.85811e-06
2.86083e-06
1.6056e-05
3.95138e-05
3.95724e-05
1.60758e-05
2.86436e-06
2.86716e-06
1.60818e-05
3.95954e-05
3.96554e-05
1.61022e-05
2.87073e-06
2.87353e-06
1.6108e-05
3.96787e-05
3.97391e-05
1.61284e-05
2.87716e-06
2.88003e-06
1.61347e-05
3.97628e-05
3.98245e-05
1.61557e-05
2.8837e-06
2.88658e-06
1.61617e-05
3.98486e-05
3.99107e-05
1.61827e-05
2.89031e-06
2.89326e-06
1.61893e-05
3.99352e-05
3.99987e-05
1.62109e-05
2.89703e-06
2.89999e-06
1.62172e-05
4.00234e-05
4.00874e-05
1.62388e-05
2.90383e-06
2.90686e-06
1.62457e-05
4.01125e-05
4.01778e-05
1.62679e-05
2.91074e-06
2.91378e-06
1.62745e-05
4.02032e-05
4.0269e-05
1.62967e-05
2.91774e-06
2.92086e-06
1.63039e-05
4.02948e-05
4.0362e-05
1.63267e-05
2.92486e-06
2.92799e-06
1.63337e-05
4.0388e-05
4.04557e-05
1.63565e-05
2.93207e-06
2.93529e-06
1.63641e-05
4.04821e-05
4.05512e-05
1.63876e-05
2.93942e-06
2.94265e-06
1.63949e-05
4.05779e-05
4.06475e-05
1.64185e-05
2.94685e-06
2.95018e-06
1.64264e-05
4.06745e-05
4.07455e-05
1.64507e-05
2.95443e-06
2.95777e-06
1.64583e-05
4.07727e-05
4.08442e-05
1.64827e-05
2.96211e-06
2.96554e-06
1.64908e-05
4.08716e-05
4.09446e-05
1.6516e-05
2.96994e-06
2.97339e-06
1.65238e-05
4.0972e-05
4.10455e-05
1.65491e-05
2.97787e-06
2.98141e-06
1.65574e-05
4.10732e-05
4.1148e-05
1.65834e-05
2.98595e-06
2.98952e-06
1.65916e-05
4.11758e-05
4.12511e-05
1.66177e-05
2.99415e-06
2.9978e-06
1.66263e-05
4.12791e-05
4.13556e-05
1.66532e-05
3.0025e-06
3.00619e-06
1.66615e-05
4.13829e-05
4.14602e-05
1.66886e-05
3.01098e-06
3.01476e-06
1.66973e-05
4.14877e-05
4.15663e-05
1.67252e-05
3.01964e-06
3.02345e-06
1.67336e-05
4.15927e-05
4.16721e-05
1.67618e-05
3.02843e-06
3.03234e-06
1.67706e-05
4.16986e-05
4.17792e-05
1.67995e-05
3.03741e-06
3.04137e-06
1.68081e-05
4.18046e-05
4.18858e-05
1.68373e-05
3.04654e-06
3.0506e-06
1.68462e-05
4.19109e-05
4.19934e-05
1.68762e-05
3.05587e-06
3.05998e-06
1.68848e-05
4.2017e-05
4.21e-05
1.69151e-05
3.06537e-06
3.06958e-06
1.69239e-05
4.2123e-05
4.2207e-05
1.69551e-05
3.07507e-06
3.07934e-06
1.69635e-05
4.22282e-05
4.23125e-05
1.6995e-05
3.08495e-06
3.08933e-06
1.70036e-05
4.23327e-05
4.24177e-05
1.70359e-05
3.09506e-06
3.09949e-06
1.7044e-05
4.24355e-05
4.25204e-05
1.70766e-05
3.10535e-06
3.1099e-06
1.70847e-05
4.25365e-05
4.26217e-05
1.71182e-05
3.11588e-06
3.12049e-06
1.71256e-05
4.26345e-05
4.27192e-05
1.71595e-05
3.12662e-06
3.13136e-06
1.71668e-05
4.27294e-05
4.28137e-05
1.72016e-05
3.13763e-06
3.14244e-06
1.72081e-05
4.28198e-05
4.29026e-05
1.72435e-05
3.14888e-06
3.15383e-06
1.72497e-05
4.29049e-05
4.29862e-05
1.72863e-05
3.16043e-06
3.16544e-06
1.72917e-05
4.29831e-05
4.30613e-05
1.73291e-05
3.17221e-06
3.17732e-06
1.7334e-05
4.30526e-05
4.31267e-05
1.73728e-05
3.18421e-06
3.18929e-06
1.73769e-05
4.31102e-05
4.31772e-05
1.74156e-05
3.19625e-06
3.20126e-06
1.74189e-05
4.31519e-05
4.3209e-05
1.74577e-05
3.20811e-06
3.21281e-06
1.7459e-05
4.31726e-05
4.32125e-05
1.74947e-05
3.21929e-06
3.22344e-06
1.74926e-05
4.31633e-05
4.31797e-05
1.75221e-05
3.22911e-06
3.2323e-06
1.75132e-05
4.31129e-05
4.30962e-05
1.75286e-05
3.23643e-06
3.23837e-06
1.75081e-05
4.30076e-05
4.29605e-05
1.74983e-05
3.23977e-06
3.23994e-06
1.74565e-05
4.28295e-05
4.2756e-05
1.74099e-05
3.23928e-06
3.23624e-06
1.7337e-05
4.25727e-05
4.24659e-05
1.72503e-05
3.23158e-06
3.2239e-06
1.71245e-05
4.22315e-05
4.2082e-05
1.69999e-05
3.21705e-06
3.20876e-06
1.68285e-05
4.18028e-05
4.16261e-05
1.6658e-05
3.20466e-06
3.20234e-06
1.64479e-05
4.13325e-05
4.11565e-05
1.62564e-05
3.20268e-06
3.20661e-06
1.60212e-05
4.08948e-05
4.07459e-05
1.58175e-05
3.21764e-06
3.2337e-06
1.55773e-05
4.05408e-05
4.0533e-05
1.53854e-05
3.26098e-06
3.29847e-06
1.51872e-05
4.04972e-05
4.07075e-05
1.50598e-05
3.35271e-06
3.41477e-06
1.50048e-05
4.09638e-05
4.15932e-05
1.52569e-05
3.53181e-06
3.64732e-06
1.54633e-05
4.21616e-05
4.2551e-05
1.52417e-05
3.68941e-06
3.69782e-06
1.51405e-05
4.24899e-05
4.35824e-05
1.49657e-05
3.75674e-06
3.896e-06
1.56943e-05
4.44545e-05
4.49998e-05
1.54447e-05
4.03585e-06
4.19445e-06
1.61402e-05
4.60857e-05
4.73408e-05
1.6282e-05
4.34513e-06
4.56826e-06
1.7195e-05
4.84664e-05
4.96173e-05
1.75818e-05
4.80486e-06
4.98209e-06
1.84733e-05
4.98387e-05
5.09425e-05
1.87708e-05
5.0621e-06
5.29776e-06
1.91698e-05
5.11346e-05
5.2648e-05
2.19973e-05
5.65353e-06
6.01938e-06
2.26245e-05
5.26553e-05
5.20183e-05
2.43522e-05
3.79634e-06
1.51911e-06
6.04687e-06
1.62083e-05
3.73336e-05
1.21747e-05
2.24135e-06
2.37477e-06
1.06998e-05
3.26387e-05
3.25431e-05
1.03575e-05
2.48182e-06
2.6727e-06
1.08932e-05
3.46136e-05
3.38789e-05
1.08859e-05
2.8718e-06
3.03116e-06
1.16731e-05
3.61388e-05
3.58521e-05
1.14488e-05
3.27792e-06
3.5209e-06
1.31893e-05
3.95412e-05
3.84239e-05
1.27046e-05
3.7672e-06
4.12082e-06
1.45397e-05
4.14314e-05
4.12777e-05
1.47522e-05
4.39526e-06
4.76872e-06
1.67836e-05
4.40994e-05
4.48284e-05
1.8342e-05
5.40854e-06
3.55803e-06
2.20683e-05
4.71705e-05
1.47559e-05
5.38564e-06
1.76361e-06
2.7319e-06
1.26906e-05
3.83792e-05
3.62065e-05
1.15157e-05
3.25681e-06
3.7375e-06
1.42936e-05
4.38226e-05
4.36789e-05
1.46419e-05
4.038e-06
4.37509e-06
1.59189e-05
4.81252e-05
4.87905e-05
1.70816e-05
4.80646e-06
5.14516e-06
1.90995e-05
5.16929e-05
5.28019e-05
1.95764e-05
5.57122e-06
6.10178e-06
2.30651e-05
5.50361e-05
5.31453e-05
2.38315e-05
3.93211e-06
1.93454e-06
5.74465e-06
1.59764e-05
4.10379e-05
1.35117e-05
2.91267e-06
3.23486e-06
1.19044e-05
3.7436e-05
3.9794e-05
1.23257e-05
3.61948e-06
4.04599e-06
1.50299e-05
4.32497e-05
4.31236e-05
1.51725e-05
4.39968e-06
4.93809e-06
1.7783e-05
4.69708e-05
4.81515e-05
2.00091e-05
5.64359e-06
3.75858e-06
2.36887e-05
5.0216e-05
1.5584e-05
5.64417e-06
1.95439e-06
3.11567e-06
1.3325e-05
4.27998e-05
4.22739e-05
1.35078e-05
3.84521e-06
4.47835e-06
1.70294e-05
5.17276e-05
5.3216e-05
1.90416e-05
5.09757e-06
5.77122e-06
2.14906e-05
5.76941e-05
5.8871e-05
2.44802e-05
6.47985e-06
4.27273e-06
2.61546e-05
5.71098e-05
1.77781e-05
6.3179e-06
2.2187e-06
3.3936e-06
1.55217e-05
4.65943e-05
4.61062e-05
1.50778e-05
4.10788e-06
4.72452e-06
1.86984e-05
5.17447e-05
5.17434e-05
1.9953e-05
5.50413e-06
3.75936e-06
2.45644e-05
5.38033e-05
1.67893e-05
5.69576e-06
1.96762e-06
3.17723e-06
1.44981e-05
4.71689e-05
4.76637e-05
1.52198e-05
4.03551e-06
4.8171e-06
2.03584e-05
5.92419e-05
6.05422e-05
2.17304e-05
5.62525e-06
6.57954e-06
2.74691e-05
6.63322e-05
6.25268e-05
2.87251e-05
4.48564e-06
2.31961e-06
6.96065e-06
2.02022e-05
5.36778e-05
1.77101e-05
3.59759e-06
4.59968e-06
1.76223e-05
5.28682e-05
6.22069e-05
2.53246e-05
5.76113e-06
4.03235e-06
2.69934e-05
6.14262e-05
2.0823e-05
6.62046e-06
2.17884e-06
3.70841e-06
1.88877e-05
5.86954e-05
6.2369e-05
2.21459e-05
5.00397e-06
6.31765e-06
3.00799e-05
7.4931e-05
7.06428e-05
3.16333e-05
4.4584e-06
2.41771e-06
7.90478e-06
2.50392e-05
6.53631e-05
2.39675e-05
4.1403e-06
5.56207e-06
2.5362e-05
6.67203e-05
6.98522e-05
3.07135e-05
3.99962e-06
2.16916e-06
7.66175e-06
2.54481e-05
6.91515e-05
2.41162e-05
4.15649e-06
5.91984e-06
2.90447e-05
7.63946e-05
8.23914e-05
3.65192e-05
4.50868e-06
2.52066e-06
9.81849e-06
3.24647e-05
8.31906e-05
3.19757e-05
4.8775e-06
3.8774e-06
3.38732e-05
8.20465e-05
3.4517e-05
1.01472e-05
2.30213e-06
4.85514e-06
3.46994e-05
9.34275e-05
9.59254e-05
3.74304e-05
4.04171e-06
2.38104e-06
1.35048e-05
4.51828e-05
0.000112315
4.26141e-05
5.68828e-06
5.15333e-06
4.63697e-05
0.000120776
7.69861e-05
2.68275e-05
3.21636e-06
4.20231e-06
3.97478e-05
0.00010562
0.000112941
4.32546e-05
4.67133e-06
6.25938e-06
5.05429e-05
0.000130968
0.000109393
4.01987e-05
4.59198e-06
3.79926e-06
3.2642e-05
9.00203e-05
9.14064e-05
3.27406e-05
3.92159e-06
4.83335e-06
3.67263e-05
0.000103846
0.00017499
7.4705e-05
7.10787e-06
5.58456e-06
1.46531e-05
3.93158e-05
8.04583e-05
3.99275e-05
5.14955e-06
4.67812e-06
1.15989e-05
2.72143e-05
5.64957e-05
3.26549e-05
4.85505e-06
4.5836e-06
1.03405e-05
2.364e-05
4.82113e-05
2.78413e-05
4.90645e-06
4.75842e-06
1.10977e-05
2.3515e-05
4.58412e-05
2.8538e-05
5.14662e-06
5.19953e-06
1.10334e-05
2.37909e-05
4.75549e-05
2.62071e-05
6.16405e-06
7.03858e-06
2.11753e-05
4.27926e-05
1.75894e-05
7.84816e-06
3.92121e-06
4.76492e-06
2.01145e-05
3.77021e-05
3.51069e-05
1.83451e-05
5.7356e-06
3.19818e-06
6.2341e-06
1.4275e-05
3.01708e-05
2.16926e-05
3.8061e-06
4.27e-06
8.07938e-06
1.70584e-05
3.67921e-05
1.99061e-05
5.16224e-06
6.34703e-06
1.76597e-05
3.36803e-05
1.52514e-05
7.26783e-06
3.82566e-06
4.82801e-06
1.86973e-05
3.2679e-05
3.08237e-05
1.70458e-05
5.9694e-06
3.47459e-06
6.53925e-06
1.40927e-05
3.0326e-05
1.68964e-05
4.45326e-06
5.84684e-06
1.57213e-05
2.89332e-05
1.35972e-05
6.52738e-06
3.54505e-06
4.44087e-06
1.67976e-05
2.91069e-05
2.7708e-05
1.53309e-05
5.69271e-06
3.47792e-06
6.3505e-06
1.31043e-05
2.7625e-05
1.59338e-05
4.42444e-06
5.6964e-06
1.47748e-05
2.66846e-05
1.28243e-05
6.26624e-06
3.45438e-06
4.41835e-06
1.57186e-05
2.71203e-05
2.61854e-05
1.46912e-05
5.72882e-06
3.5283e-06
6.28258e-06
1.27789e-05
2.69228e-05
1.6032e-05
4.66349e-06
6.46246e-06
1.41471e-05
2.5525e-05
2.31876e-05
1.19673e-05
4.66751e-06
2.73856e-06
4.91452e-06
1.05664e-05
2.15804e-05
1.22454e-05
3.48264e-06
4.82557e-06
1.2193e-05
2.16945e-05
1.05252e-05
5.22824e-06
2.97843e-06
3.61562e-06
1.25757e-05
2.17375e-05
2.15667e-05
1.22006e-05
4.84585e-06
2.97986e-06
5.24971e-06
1.05428e-05
2.11414e-05
1.25667e-05
3.704e-06
4.93629e-06
1.2033e-05
2.08478e-05
1.02788e-05
5.12091e-06
2.92899e-06
3.66707e-06
1.22457e-05
2.0937e-05
2.08237e-05
1.19153e-05
4.98649e-06
3.05685e-06
5.31426e-06
1.02593e-05
2.01051e-05
1.22338e-05
3.77713e-06
5.0752e-06
1.16639e-05
2.00306e-05
1.00065e-05
5.30616e-06
3.0828e-06
3.77775e-06
1.22041e-05
2.01216e-05
1.99454e-05
1.16658e-05
5.07398e-06
3.08135e-06
5.36025e-06
9.9371e-06
1.94166e-05
1.19404e-05
3.84193e-06
5.16666e-06
1.12034e-05
1.9286e-05
9.94172e-06
5.44529e-06
3.15769e-06
3.90989e-06
1.20733e-05
1.94418e-05
1.94537e-05
1.12726e-05
5.17324e-06
3.14547e-06
5.53575e-06
9.86412e-06
1.90373e-05
1.19255e-05
3.92488e-06
5.16213e-06
1.10242e-05
1.86808e-05
9.66204e-06
5.44999e-06
3.16274e-06
3.87428e-06
1.17399e-05
1.88643e-05
1.84836e-05
1.10601e-05
5.14056e-06
3.17402e-06
5.5217e-06
9.62797e-06
1.865e-05
1.17103e-05
3.94916e-06
5.27041e-06
1.08015e-05
1.80112e-05
9.51832e-06
5.54653e-06
3.2403e-06
3.95971e-06
1.16695e-05
1.84855e-05
1.7635e-05
1.073e-05
5.27816e-06
3.234e-06
5.59773e-06
9.47309e-06
1.81823e-05
1.1509e-05
3.93904e-06
5.18304e-06
1.06055e-05
1.73623e-05
9.14688e-06
5.38153e-06
3.10855e-06
3.83393e-06
1.10443e-05
1.78393e-05
1.70174e-05
1.04181e-05
5.19465e-06
3.18228e-06
5.44746e-06
9.01976e-06
1.72014e-05
1.08827e-05
3.82146e-06
5.08784e-06
9.93273e-06
1.63535e-05
8.74937e-06
5.34885e-06
3.05466e-06
3.74653e-06
1.06804e-05
1.68607e-05
1.60692e-05
9.94899e-06
5.03099e-06
3.10268e-06
5.33324e-06
8.657e-06
1.63132e-05
1.03976e-05
3.71893e-06
4.90002e-06
9.53595e-06
1.56028e-05
8.20092e-06
5.14899e-06
2.93776e-06
3.64811e-06
1.00132e-05
1.55927e-05
1.48187e-05
9.07974e-06
4.85487e-06
2.75699e-06
4.73238e-06
7.78287e-06
1.31842e-05
1.11691e-05
2.97266e-06
3.60388e-06
5.41842e-06
8.53724e-06
1.6504e-05
1.04203e-05
4.2664e-06
5.43058e-06
9.49239e-06
1.55255e-05
8.55487e-06
5.54019e-06
3.22153e-06
3.94968e-06
1.04096e-05
1.58662e-05
1.5097e-05
9.50145e-06
5.1159e-06
3.03843e-06
5.26489e-06
8.23201e-06
1.53042e-05
9.77916e-06
3.72231e-06
4.98707e-06
9.11252e-06
1.47048e-05
7.97906e-06
5.17217e-06
2.9757e-06
3.59245e-06
9.57317e-06
1.48608e-05
1.42132e-05
8.88074e-06
4.77032e-06
2.74364e-06
4.68934e-06
7.44413e-06
1.27499e-05
1.0456e-05
3.01533e-06
3.77587e-06
5.52298e-06
8.40486e-06
1.6048e-05
1.02282e-05
4.3948e-06
5.61939e-06
9.427e-06
1.50813e-05
8.44821e-06
5.62366e-06
3.40779e-06
3.95159e-06
1.02287e-05
1.55593e-05
1.49543e-05
9.47774e-06
5.1234e-06
3.05622e-06
5.28558e-06
8.08639e-06
1.48673e-05
9.78493e-06
3.68986e-06
4.82034e-06
8.86835e-06
1.40762e-05
7.49411e-06
4.79618e-06
2.76618e-06
3.06199e-06
1.06801e-05
1.2518e-05
8.21552e-06
5.46815e-06
3.69152e-06
4.2873e-06
9.95716e-06
1.54012e-05
1.44194e-05
9.0958e-06
5.43701e-06
3.11195e-06
5.30625e-06
7.97706e-06
1.43069e-05
9.52235e-06
3.7344e-06
4.90478e-06
8.74739e-06
1.36302e-05
7.35351e-06
4.80048e-06
2.77523e-06
3.04356e-06
1.04449e-05
1.2096e-05
8.07607e-06
5.47864e-06
3.72453e-06
4.32435e-06
9.76586e-06
1.51262e-05
1.4232e-05
9.06383e-06
5.49475e-06
3.2067e-06
5.41391e-06
7.98082e-06
1.42809e-05
9.52899e-06
3.76789e-06
4.96102e-06
8.76535e-06
1.35962e-05
7.31429e-06
4.82901e-06
2.86482e-06
3.11328e-06
1.0192e-05
1.22767e-05
8.15616e-06
5.52336e-06
3.77415e-06
4.1977e-06
9.84113e-06
1.49005e-05
1.39221e-05
8.95902e-06
5.28925e-06
2.96574e-06
4.9619e-06
7.59345e-06
1.22154e-05
1.07011e-05
3.23595e-06
3.97394e-06
5.76455e-06
8.26663e-06
1.51641e-05
9.84641e-06
4.40773e-06
5.54592e-06
9.03536e-06
1.4069e-05
7.80216e-06
5.25296e-06
3.15398e-06
3.38433e-06
1.07839e-05
1.26758e-05
8.62523e-06
5.95286e-06
4.08025e-06
4.71756e-06
1.02049e-05
1.54618e-05
1.44755e-05
9.39027e-06
5.92414e-06
3.35784e-06
5.66976e-06
8.27732e-06
1.4315e-05
9.70922e-06
3.875e-06
5.04011e-06
8.87986e-06
1.369e-05
7.4512e-06
4.92398e-06
2.91791e-06
3.16486e-06
1.03179e-05
1.21454e-05
8.22436e-06
5.59124e-06
3.816e-06
4.33937e-06
9.58738e-06
1.46708e-05
1.37361e-05
8.84106e-06
5.42485e-06
3.06317e-06
5.08263e-06
7.6353e-06
1.2082e-05
1.0637e-05
3.26847e-06
3.95236e-06
5.76781e-06
8.24662e-06
1.4591e-05
9.63678e-06
4.43828e-06
5.48001e-06
8.8084e-06
1.35849e-05
7.63686e-06
5.0143e-06
3.01637e-06
3.18562e-06
1.04911e-05
1.2207e-05
8.26503e-06
5.69959e-06
3.86772e-06
4.3591e-06
9.54927e-06
1.45041e-05
1.35657e-05
8.84363e-06
5.45723e-06
3.09113e-06
5.13814e-06
7.60594e-06
1.18596e-05
1.06183e-05
3.32707e-06
3.97007e-06
5.87761e-06
8.19681e-06
1.43337e-05
9.46912e-06
4.3862e-06
5.4223e-06
8.68648e-06
1.33818e-05
7.52933e-06
5.14794e-06
3.04431e-06
3.28984e-06
1.02645e-05
1.19696e-05
8.20535e-06
5.70449e-06
3.92002e-06
4.39826e-06
9.62472e-06
1.42353e-05
1.32752e-05
8.86883e-06
5.52983e-06
3.11961e-06
5.14254e-06
7.54537e-06
1.14256e-05
1.06618e-05
3.25699e-06
3.80719e-06
5.85809e-06
8.03929e-06
1.2907e-05
1.00567e-05
3.8518e-06
4.51934e-06
6.27374e-06
8.85487e-06
1.49625e-05
9.85018e-06
4.88803e-06
5.96203e-06
9.03275e-06
1.38963e-05
7.92717e-06
5.43193e-06
3.2959e-06
3.55079e-06
1.0941e-05
1.22156e-05
8.52728e-06
6.1558e-06
4.2306e-06
4.67345e-06
9.85597e-06
1.46217e-05
1.35929e-05
9.05567e-06
5.81296e-06
3.27017e-06
5.36537e-06
7.90461e-06
1.18438e-05
1.09615e-05
3.3653e-06
3.95013e-06
6.10814e-06
8.41499e-06
1.32055e-05
1.02106e-05
4.01409e-06
4.67999e-06
6.54479e-06
9.14494e-06
1.51971e-05
1.00129e-05
4.91883e-06
5.91646e-06
9.18759e-06
1.40999e-05
8.10854e-06
5.55219e-06
3.38788e-06
3.58259e-06
1.08968e-05
1.2516e-05
8.74976e-06
6.19275e-06
4.19921e-06
4.69673e-06
9.99783e-06
1.47123e-05
1.38193e-05
9.13152e-06
5.71846e-06
3.20237e-06
5.36608e-06