/*--------------------------------*- C++ -*----------------------------------*\
| =========                 |                                                 |
| \\      /  F ield         | OpenFOAM: The Open Source CFD Toolbox           |
|  \\    /   O peration     | Version:  v2006                                 |
|   \\  /    A nd           | Website:  www.openfoam.com                      |
|    \\/     M anipulation  |                                                 |
\*---------------------------------------------------------------------------*/
FoamFile
{
    version     2.0;
    format      ascii;
    class       volScalarField;
    location    "0.022";
    object      p;
}
// * * * * * * * * * * * * * * * * * * * * * * * * * * * * * * * * * * * * * //

dimensions      [1 -1 -2 0 0 0 0];


internalField   nonuniform List<scalar> 
9148
(
146698
146700
146695
146702
146699
146703
146711
146723
146736
146751
146767
146784
146801
146819
146839
146859
146880
146903
146926
146951
146976
147002
147029
147057
147085
147115
147144
147174
147205
147236
147267
147298
147330
147361
147393
147424
147456
147487
147518
147548
147578
147608
147637
147665
147693
147720
147746
147771
147796
147819
147842
147863
147883
147902
147920
147937
147953
147967
147980
147990
147997
148003
148007
148009
148006
148007
148010
148017
148033
148059
148075
148084
148064
148063
148059
148052
148053
148054
148044
148044
148044
148036
148036
148036
148029
148029
148030
148026
148025
148025
148022
148023
148023
148022
148021
148021
148020
148021
148021
148021
148021
148021
148021
148022
148022
148024
148024
148023
148026
148026
148027
148030
148029
148029
148032
148033
148033
148038
148037
148037
148042
148042
148043
148048
148047
148047
148053
148053
148054
148060
148060
148060
148067
148067
148068
148075
148075
148074
148083
148083
148083
148092
148092
148091
148101
148101
148101
148111
148110
148110
148121
148121
148121
148132
148132
148131
148143
148143
148143
148155
148155
148154
148167
148167
148168
148180
148180
148179
148193
148193
148194
148208
148207
148207
148221
148222
148222
148237
148237
148236
148252
148252
148253
148269
148268
148268
148285
148285
148286
148303
148302
148302
148320
148320
148321
148339
148339
148338
148358
148358
148359
148379
148378
148378
148398
148399
148399
148420
148420
148419
148441
148442
148442
148465
148464
148464
148487
148488
148488
148513
148512
148511
148536
148537
148537
148563
148562
148562
148588
148589
148590
148617
148616
148616
148644
148644
148645
148674
148673
148673
148703
148703
148704
148735
148734
148734
148766
148766
148767
148800
148799
148798
148832
148833
148833
148868
148867
148866
148902
148903
148903
148940
148939
148938
148976
148977
148977
149016
149016
149015
149056
149056
149057
149099
149099
149098
149142
149143
149143
149188
149188
149187
149234
149235
149235
149283
149283
149282
149331
149332
149331
149378
149379
149378
149427
149426
149422
149440
149443
149444
149444
149445
149445
149446
149446
149445
149444
149444
149447
149453
149454
149454
149480
149480
149475
149513
149516
149517
149545
149545
149545
149541
149541
149541
149548
149548
149550
149539
149538
149538
149540
149540
149541
149528
149529
149529
149528
149528
149528
149520
149521
149521
149524
149524
149524
149529
149529
149529
149538
149538
149538
149546
149546
149546
149551
149551
149552
149553
149553
149553
149551
149552
149552
149547
149547
149547
149540
149540
149540
149532
149532
149532
149523
149523
149524
149517
149517
149517
149512
149512
149512
149511
149510
149510
149512
149512
149513
149517
149516
149516
149522
149522
149522
149527
149527
149527
149531
149531
149531
149534
149534
149534
149535
149535
149535
149537
149538
149538
149542
149542
149541
149549
149550
149550
149562
149562
149561
149576
149577
149577
149593
149592
149591
149607
149609
149609
149624
149623
149622
149636
149637
149637
149648
149647
149646
149654
149655
149655
149657
149657
149656
149654
149655
149656
149652
149651
149650
149646
149647
149648
149643
149643
149642
149639
149633
149623
149615
149608
149605
149605
149608
149611
149615
149617
149618
149617
149617
149619
149624
149632
149643
149653
149659
149662
149665
149669
149668
149671
149672
149672
149670
149671
149670
149676
149659
149673
149663
149667
149666
149662
149663
149663
149662
149661
149662
149657
149659
149657
149659
149659
149659
149654
149656
149654
149659
149651
149657
149646
149647
149647
149643
149643
149643
149636
149641
149637
149636
149636
149637
149631
149636
149632
149630
149630
149630
149620
149627
149621
149620
149610
149619
149604
149616
149605
149606
149595
149604
149589
149600
149589
149589
149579
149587
149574
149584
149574
149573
149565
149572
149560
149568
149560
149553
149560
149555
149548
149555
149548
149543
149549
149544
149539
149547
149539
149536
149542
149537
149534
149542
149534
149538
149531
149537
149537
149528
149535
149535
149535
149537
149544
149543
149542
149554
149555
149556
149569
149568
149567
149583
149584
149584
149601
149601
149601
149620
149620
149619
149639
149640
149640
149660
149662
149660
149683
149684
149681
149703
149703
149702
149736
149701
149743
149749
149747
149746
149764
149771
149774
149797
149793
149785
149801
149811
149815
149831
149825
149812
149831
149853
149838
149848
149834
149814
149797
149823
149851
149770
149757
149736
149661
149636
149736
149468
149432
149362
149031
148997
149052
148397
148273
148361
147057
146915
146826
144693
145661
145926
144044
143938
142375
141540
142903
143617
143466
143151
142750
143576
143811
144026
144323
144093
143834
144129
144292
144430
144916
144868
144787
144982
145013
145065
145408
145384
145342
145423
145457
145469
145764
145745
145726
145828
145840
145849
145868
145980
145795
146128
146078
146142
146125
146155
146129
146318
146311
146322
146353
146346
146348
146372
146349
146382
146539
146408
146618
146564
146448
146532
146617
146630
146634
146623
146602
146613
146712
146723
146719
146719
146716
146715
146718
146696
146752
146896
146715
146829
146811
146696
146843
146874
146845
146851
146828
146804
146837
146908
146901
146892
146859
146856
146865
146942
146939
146927
146897
146902
146913
146958
146959
146951
146930
146943
146959
146853
146965
146887
146982
146921
147017
146989
146871
146945
146970
146947
146998
146959
146871
146934
146960
146962
146981
146938
146918
146919
146944
146954
146956
146898
146892
146894
146938
146955
146961
146899
146890
146886
146900
146908
146905
146864
146857
146853
146890
146907
146913
146843
146835
146832
146844
146853
146852
146802
146795
146793
146822
146838
146844
146772
146765
146761
146768
146777
146777
146723
146716
146713
146739
146755
146761
146685
146677
146674
146674
146683
146682
146619
146615
146616
146649
146622
146690
146597
146560
146574
146585
146485
146621
146576
146381
146527
146526
146433
146591
146498
146512
146487
146404
146391
146416
146411
146414
146402
146340
146342
146351
146379
146372
146355
146281
146287
146299
146278
146276
146265
146187
146187
146188
146203
146202
146192
146126
146134
146149
146152
146122
146122
146031
146025
146036
146071
145955
146023
145947
145864
145959
146015
145899
145950
145895
145921
145900
145810
145780
145797
145780
145800
145793
145712
145696
145701
145694
145712
145715
145625
145611
145606
145580
145587
145603
145477
145480
145479
145465
145471
145482
145391
145367
145377
145367
145323
145393
145304
145325
145301
145192
145176
145197
145178
145187
145169
145084
145078
145093
145084
145087
145065
144972
144975
144991
144937
144946
144928
144820
144823
144827
144778
144842
144795
144666
144701
144665
144619
144691
144644
144601
144597
144623
144448
144471
144453
144432
144441
144454
144310
144320
144309
144276
144285
144295
144158
144162
144151
144112
144137
144115
143974
143971
143973
143952
143926
143969
143874
143896
143871
143727
143714
143735
143691
143698
143678
143551
143542
143551
143524
143529
143507
143377
143369
143377
143346
143351
143328
143189
143187
143197
143139
143147
143124
142962
142951
142940
142897
142950
142916
142846
142844
142862
142667
142677
142661
142599
142608
142621
142430
142441
142434
142361
142357
142372
142175
142196
142193
142154
142165
142179
142003
142008
141997
141914
141920
141939
141717
141733
141729
141657
141659
141650
141523
141541
141537
141319
141304
141294
141280
141283
141264
141093
141099
141108
141015
141012
140990
140776
140774
140783
140595
140616
140616
140419
140399
140384
140414
140408
140383
140187
140187
140186
140056
140064
140061
139891
139904
139895
139509
139545
139580
139460
139470
139453
139239
139242
139246
139149
139175
139174
138937
138921
138911
138715
138737
138735
138364
138385
138415
138227
138220
138184
137967
137981
137998
137914
137941
137941
137677
137670
137664
137451
137480
137484
137060
137078
137106
136834
136819
136775
136509
136536
136565
136471
136500
136498
136202
136196
136187
135912
135944
135951
135403
135442
135488
135155
135133
135066
134777
134822
134853
134738
134784
134703
134534
134493
134507
134004
134009
133950
133446
133502
133535
133098
132999
132880
132944
132963
132942
132609
132648
132662
132076
132029
132013
131598
131630
131659
130586
130772
130940
130685
130680
130625
130282
130291
130319
129946
129999
129993
129263
129272
129332
128420
128274
128088
127630
127758
127882
127674
127700
127669
127165
127172
127184
126303
126293
126252
124585
125002
125334
124857
124805
124664
124353
124378
124391
123406
123351
123477
121583
121835
121980
121121
120833
120517
120486
120543
120588
119794
119780
119578
117403
117805
118237
117011
116631
116160
115293
115511
115712
114296
114081
113838
111316
112214
112843
111273
110884
110419
108847
109329
109758
108256
107417
106169
105347
105996
106512
104090
103088
101741
102207
102944
103668
103286
102036
99867.7
99998.2
102044
103015
103521
102879
101089
104344
105324
105480
109912
110210
109969
113685
113782
113622
115754
115835
115762
117103
117147
117108
118256
118276
118243
119218
119238
119227
120101
120103
120086
120792
120802
120801
121446
121442
121431
121971
121977
121977
122503
122496
122489
122931
122934
122936
123378
123370
123364
123731
123734
123736
124109
124100
124095
124399
124401
124404
124721
124713
124708
124965
124966
124968
125242
125234
125229
125447
125448
125450
125690
125682
125678
125867
125868
125869
126081
126074
126070
126234
126235
126235
126425
126418
126415
126560
126560
126560
126733
126726
126723
126851
126850
126850
127006
127001
126998
127113
127112
127111
127255
127250
127248
127350
127349
127348
127479
127474
127472
127565
127564
127562
127683
127679
127677
127760
127759
127757
127867
127864
127862
127937
127936
127934
128038
128034
128033
128101
128099
128097
128191
128188
128187
128249
128247
128245
128334
128331
128330
128386
128385
128383
128463
128461
128460
128511
128509
128507
128584
128582
128581
128627
128626
128624
128693
128691
128690
128732
128731
128729
128796
128794
128793
128831
128830
128828
128888
128886
128886
128920
128919
128917
128975
128974
128973
129004
129003
129001
129053
129052
129051
129080
129078
129076
129128
129126
129126
129152
129150
129148
129194
129193
129192
129216
129214
129213
129258
129256
129256
129277
129275
129274
129314
129313
129313
129332
129330
129329
129368
129367
129366
129384
129382
129381
129416
129415
129415
129431
129430
129428
129463
129462
129461
129475
129474
129472
129504
129503
129503
129515
129514
129513
129543
129542
129542
129553
129552
129551
129579
129578
129578
129588
129587
129585
129612
129612
129611
129621
129619
129618
129643
129642
129642
129650
129649
129647
129671
129671
129670
129678
129677
129675
129697
129697
129696
129703
129702
129700
129722
129721
129721
129727
129726
129724
129744
129743
129743
129748
129747
129746
129765
129764
129764
129768
129768
129766
129784
129783
129783
129787
129786
129785
129802
129801
129801
129804
129804
129802
129818
129818
129817
129820
129819
129818
129834
129833
129833
129835
129834
129833
129848
129847
129847
129849
129848
129847
129861
129861
129860
129862
129861
129860
129873
129873
129872
129873
129872
129871
129885
129884
129884
129884
129884
129883
129895
129895
129894
129894
129894
129892
129905
129905
129904
129904
129903
129902
129914
129913
129913
129913
129912
129911
129923
129922
129922
129921
129920
129919
129930
129930
129929
129928
129927
129926
129938
129937
129936
129935
129934
129933
129944
129943
129943
129941
129940
129939
129950
129949
129949
129947
129946
129945
129955
129955
129954
129952
129951
129950
129961
129960
129959
129957
129956
129955
129965
129964
129964
129961
129961
129960
129969
129968
129968
129965
129965
129964
129973
129972
129972
129969
129968
129967
129976
129975
129975
129972
129971
129970
129979
129978
129978
129975
129974
129973
129982
129981
129981
129977
129977
129976
129984
129983
129983
129979
129979
129978
129986
129985
129985
129981
129981
129980
129988
129987
129986
129983
129982
129981
129989
129988
129988
129984
129983
129983
129990
129989
129989
129985
129984
129983
129991
129990
129990
129986
129985
129984
129992
129991
129991
129986
129986
129985
129992
129992
129991
129987
129986
129985
129992
129992
129991
129987
129986
129985
129992
129992
129991
129987
129986
129985
129992
129991
129991
129986
129985
129985
129992
129991
129991
129986
129985
129984
129991
129990
129990
129985
129984
129983
129990
129989
129989
129984
129983
129982
129989
129988
129988
129982
129982
129981
129988
129987
129986
129981
129980
129979
129985
129985
129984
129979
129978
129977
129984
129983
129982
129977
129976
129975
129981
129980
129980
129974
129973
129972
129978
129977
129977
129971
129970
129969
129975
129974
129973
129967
129967
129966
129971
129971
129970
129964
129963
129962
129967
129967
129966
129960
129959
129958
129964
129963
129963
129956
129956
129955
129960
129960
129959
129953
129952
129952
129958
129957
129957
129951
129950
129949
129955
129955
129954
129949
129948
129948
129956
129955
129955
129952
129951
129951
129962
129961
129961
129960
129959
129958
129971
129969
129968
129970
129970
129970
130001
130000
129997
130055
130059
130061
130065
130065
130064
130065
130069
130029
129982
130040
130123
130054
129991
130048
130113
130088
130051
130032
130021
130015
130011
130009
130008
130008
130007
130007
130006
130006
130005
130004
130002
130000
129998
129997
129996
129994
129994
130002
130005
130009
130014
130021
130029
130039
130052
130067
130084
130103
130122
130140
130152
130158
130162
130168
130176
130188
130202
130217
130236
130256
130279
130305
130335
130369
130408
130452
130502
130560
130625
130698
130782
130875
130981
131099
131231
131377
131540
131719
131917
132133
132368
132623
132897
133191
133504
133835
134182
134544
134919
135305
135700
136101
136506
136912
137317
137720
138118
138510
138894
139269
139633
139987
140329
140659
140977
141283
141575
141856
142124
142380
142624
142856
143078
143289
143489
143679
143860
144032
144195
144350
144497
144636
144768
144894
145012
145125
145231
145332
145427
145518
145603
145684
145760
145832
145900
145965
146025
146082
146136
146186
146233
146278
146319
146358
146395
146428
146460
146489
146516
146541
146563
146584
146603
146620
146634
146647
146658
146667
146676
146688
146697
146700
146698
146706
146725
146740
146750
146761
146773
146786
146800
146816
146832
146850
146869
146889
146910
146933
146957
146981
147007
147033
147061
147089
147117
147147
147176
147207
147237
147268
147300
147331
147362
147394
147425
147456
147487
147518
147549
147578
147608
147637
147665
147693
147720
147746
147771
147795
147818
147840
147861
147881
147899
147917
147933
147948
147962
147975
147986
147996
148002
148007
148015
148025
148028
148029
148026
148024
148022
148022
148022
148023
148025
148027
148031
148034
148039
148043
148049
148055
148062
148069
148076
148084
148093
148102
148112
148122
148133
148145
148156
148169
148182
148195
148209
148223
148238
148254
148270
148287
148304
148322
148341
148360
148380
148401
148422
148444
148466
148490
148514
148539
148565
148591
148619
148647
148676
148706
148737
148769
148801
148835
148869
148905
148941
148979
149018
149058
149100
149144
149189
149235
149282
149328
149372
149411
149432
149440
149443
149446
149460
149495
149533
149556
149542
149549
149536
149543
149526
149529
149517
149522
149525
149538
149546
149553
149554
149553
149548
149541
149533
149525
149518
149513
149512
149514
149518
149523
149528
149531
149534
149535
149536
149540
149547
149558
149572
149588
149604
149618
149632
149643
149650
149652
149651
149647
149643
149636
149627
149629
149639
149643
149631
149633
149645
149644
149630
149609
149618
149618
149617
149609
149609
149608
149600
149603
149605
149605
149603
149599
149590
149571
149594
149623
149635
149625
149611
149597
149610
149596
149581
149564
149535
149567
149580
149565
149552
149542
149551
149542
149533
149519
149522
149531
149537
149534
149530
149532
149534
149533
149532
149529
149534
149533
149532
149529
149530
149529
149525
149521
149524
149534
149530
149523
149517
149515
149520
149521
149517
149521
149524
149529
149539
149532
149528
149535
149538
149547
149543
149549
149552
149552
149555
149560
149554
149555
149558
149562
149555
149547
149543
149567
149566
149544
149541
149527
149505
149524
149522
149511
149488
149522
149506
149549
149526
149519
149505
149569
149546
149549
149517
149515
149512
149564
149568
149532
149524
149552
149540
149513
149503
149487
149449
149502
149494
149467
149459
149456
149456
149442
149429
149411
149373
149425
149434
149417
149396
149383
149396
149358
149338
149322
149257
149312
149320
149274
149261
149229
149231
149184
149177
149184
149109
149144
149142
149098
149095
149063
149058
149017
149017
149034
148962
148986
148979
148941
148943
148913
148906
148870
148872
148893
148826
148844
148836
148802
148805
148778
148770
148738
148741
148763
148702
148716
148707
148677
148681
148657
148648
148620
148624
148645
148592
148601
148593
148566
148570
148549
148541
148516
148520
148541
148492
148500
148492
148468
148472
148453
148446
148424
148427
148447
148405
148410
148403
148382
148386
148369
148362
148343
148346
148365
148327
148331
148324
148306
148310
148295
148289
148272
148276
148292
148260
148262
148256
148240
148244
148231
148226
148211
148214
148229
148201
148203
148197
148183
148187
148176
148171
148158
148161
148175
148151
148152
148147
148135
148138
148129
148125
148114
148117
148129
148109
148109
148105
148095
148098
148091
148087
148078
148081
148091
148076
148075
148071
148063
148066
148061
148057
148051
148053
148062
148050
148049
148045
148040
148042
148039
148036
148032
148034
148041
148033
148031
148029
148026
148028
148026
148024
148023
148024
148027
148024
148024
148023
148023
148023
148023
148024
148025
148024
148020
148015
148024
148030
148038
148046
148057
148069
148083
148098
148116
148136
148157
148181
148206
148234
148263
148295
148329
148365
148404
148445
148489
148535
148585
148636
148691
148749
148810
148873
148939
149006
149075
149144
149211
149273
149328
149375
149418
149460
149495
149519
149530
149533
149537
149551
149574
149561
149545
149534
149532
149534
149531
149523
149513
149508
149520
149544
149543
149569
149591
149600
149604
149607
149610
149607
149602
149604
149609
149613
149615
149611
149604
149593
149571
149568
149587
149603
149610
149615
149613
149608
149599
149597
149606
149612
149613
149607
149595
149577
149559
149546
149552
149550
149534
149524
149511
149508
149509
149520
149527
149541
149537
149528
149516
149512
149497
149500
149510
149514
149494
149493
149516
149517
149503
149498
149486
149486
149497
149504
149522
149525
149531
149539
149551
149568
149586
149600
149612
149617
149625
149619
149607
149620
149631
149635
149645
149641
149631
149608
149591
149617
149628
149637
149644
149651
149653
149664
149662
149668
149666
149668
149665
149664
149659
149662
149661
149661
149655
149652
149660
149655
149657
149659
149655
149653
149655
149645
149637
149628
149619
149607
149595
149571
149555
149543
149536
149538
149544
149549
149560
149570
149583
149593
149606
149615
149620
149628
149631
149637
149638
149645
149646
149648
149656
149644
149638
149636
149632
149629
149622
149615
149608
149606
149600
149592
149592
149600
149584
149584
149578
149566
149570
149577
149577
149570
149563
149563
149557
149553
149546
149540
149542
149541
149544
149539
149557
149527
149541
149502
149515
149526
149515
149519
149526
149543
149532
149538
149550
149551
149531
149499
149518
149523
149522
149497
149460
149403
149466
149521
149551
149553
149602
149586
149619
149597
149574
149560
149564
149548
149541
149540
149538
149539
149540
149543
149547
149551
149551
149556
149546
149542
149539
149538
149536
149537
149539
149547
149550
149557
149570
149570
149557
149584
149580
149585
149612
149610
149598
149600
149617
149636
149629
149646
149643
149671
149641
149661
149649
149696
149696
149717
149698
149684
149666
149679
149657
149698
149715
149731
149714
149750
149734
149748
149727
149740
149727
149761
149762
149783
149767
149782
149813
149789
149775
149757
149734
149691
149646
149594
149510
149412
149320
149189
149327
149487
149529
149637
149672
149667
149738
149757
149770
149677
149709
149579
149523
149386
149497
149509
149302
149116
149270
149181
149001
149156
149436
149683
148882
148601
148588
148870
148775
148708
148509
148211
148130
147836
148139
146732
147416
147662
148200
148277
148684
148899
149095
149201
149008
148958
148556
148059
147908
147586
147213
146625
145877
145250
144340
144545
145325
145683
145117
144824
144848
145291
145320
145599
145655
145850
145925
146021
146142
146226
146309
146375
146441
146500
146554
146594
146642
146667
146712
146749
146763
146802
146807
146839
146847
146873
146873
146903
146892
146913
146927
146914
146930
146911
146921
146903
146913
146888
146897
146870
146876
146847
146852
146819
146821
146786
146789
146750
146749
146709
146707
146664
146659
146616
146609
146563
146554
146502
146488
146464
146461
146471
146520
146533
146573
146579
146625
146634
146670
146673
146715
146721
146751
146750
146788
146790
146816
146811
146844
146843
146863
146854
146882
146876
146891
146878
146901
146890
146898
146875
146861
146814
146839
146816
146875
146857
146826
146785
146827
146789
146744
146815
146779
146733
146676
146713
146661
146602
146684
146632
146573
146501
146533
146470
146398
146488
146423
146420
146401
146383
146335
146327
146272
146255
146193
146174
146123
146104
146035
146007
145948
145919
145882
145895
145922
145983
146000
146064
146089
146148
146158
146216
146239
146292
146297
146350
146371
146268
146223
146134
146076
145974
145913
145812
145830
145804
145770
145702
145677
145601
145574
145494
145457
145386
145352
145295
145206
145164
145089
145056
144976
144934
144844
144793
144710
144656
144590
144634
144687
144772
144817
144899
144946
145025
145065
145136
145178
145253
145320
145357
145427
145467
145530
145564
145635
145668
145733
145745
145687
145681
145588
145490
145595
145495
145393
145279
145394
145283
145176
145068
144954
144820
144696
144568
144548
144487
144427
144325
144275
144171
144114
144010
143950
143872
143924
143831
143751
143685
143580
143514
143404
143336
143223
143143
143020
142934
142844
142696
142613
142475
142388
142253
142164
142034
141942
141794
141689
141564
141670
141539
141396
141281
141136
141025
140843
140701
140539
140396
140243
140112
139930
139686
139521
139332
139184
138968
138804
138554
138346
138145
137956
137747
137551
137265
137006
136773
136529
136302
136054
135720
135381
135123
134826
134589
134915
134676
134222
133843
133502
133081
132836
132416
131876
131476
130916
130678
130189
129731
129060
128629
127901
127646
126928
126381
125386
125197
124285
123062
122618
121235
120958
119580
119228
117406
115743
115661
113557
111619
112058
109606
107691
105580
107553
105691
105481
105964
107331
110692
113876
115974
117256
118395
119296
120169
120826
121480
121985
122526
122938
123398
123736
124126
124403
124737
124965
125255
125445
125702
125863
126093
126229
126437
126553
126744
126844
127019
127105
127269
127342
127491
127557
127696
127753
127878
127930
128049
128093
128201
128241
128345
128379
128472
128503
128593
128620
128700
128725
128804
128824
128894
128913
128982
128997
129059
129072
129134
129144
129199
129209
129263
129270
129318
129325
129373
129377
129420
129424
129467
129469
129507
129508
129547
129547
129582
129581
129616
129614
129646
129643
129675
129671
129700
129696
129725
129720
129747
129741
129769
129762
129787
129780
129806
129798
129821
129814
129837
129829
129851
129843
129864
129856
129876
129867
129888
129879
129898
129889
129908
129899
129917
129907
129926
129916
129933
129923
129940
129930
129946
129936
129953
129942
129958
129947
129963
129952
129967
129956
129972
129961
129975
129964
129979
129967
129981
129970
129984
129973
129986
129975
129989
129977
129990
129978
129992
129980
129992
129980
129994
129982
129994
129982
129995
129983
129995
129982
129995
129983
129994
129982
129994
129982
129993
129980
129993
129980
129991
129978
129990
129977
129988
129975
129986
129973
129983
129970
129980
129967
129977
129963
129974
129960
129969
129956
129966
129953
129962
129949
129960
129947
129957
129945
129958
129948
129965
129958
129981
129979
130022
130075
130095
130043
130020
129977
129983
129968
129948
129964
129944
129941
129959
129947
129939
129958
129945
129944
129963
129955
129946
129965
129952
129951
129970
129961
129953
129972
129959
129958
129977
129968
129961
129979
129966
129965
129984
129974
129967
129986
129972
129971
129989
129979
129972
129990
129976
129975
129994
129983
129976
129994
129979
129978
129996
129986
129978
129996
129981
129980
129998
129987
129979
129997
129982
129981
129999
129988
129980
129997
129982
129981
129999
129987
129979
129997
129981
129980
129998
129986
129978
129995
129980
129978
129996
129984
129976
129993
129977
129975
129993
129981
129972
129989
129973
129971
129989
129976
129967
129985
129968
129965
129983
129971
129961
129978
129961
129959
129976
129964
129954
129971
129953
129950
129968
129955
129945
129961
129943
129940
129958
129944
129934
129950
129931
129928
129945
129932
129920
129937
129917
129913
129931
129917
129905
129921
129900
129896
129914
129900
129887
129902
129881
129877
129894
129879
129865
129880
129858
129854
129871
129855
129841
129855
129832
129827
129844
129828
129812
129826
129802
129796
129812
129796
129779
129792
129767
129760
129776
129759
129740
129752
129726
129718
129733
129716
129694
129706
129678
129669
129683
129665
129642
129652
129622
129612
129625
129606
129580
129588
129557
129545
129556
129536
129508
129514
129481
129467
129476
129455
129423
129427
129393
129376
129382
129360
129325
129325
129290
129270
129274
129249
129209
129206
129169
129145
129146
129119
129073
129066
129027
128998
128995
128966
128914
128902
128860
128826
128818
128786
128728
128710
128665
128623
128609
128574
128507
128483
128435
128384
128362
128324
128247
128215
128162
128100
128069
128027
127938
127896
127838
127762
127719
127672
127569
127514
127448
127355
127296
127243
127123
127049
126975
126861
126776
126718
126576
126473
126390
126250
126131
126062
125890
125745
125647
125469
125296
125213
124992
124784
124673
124425
124166
124075
123757
123441
123305
122941
122553
122447
121969
121503
121451
120799
120215
120272
119287
118438
118453
117176
115767
115514
113709
111559
113225
109157
108669
112747
108502
108706
113240
109968
111133
109420
111194
112882
115071
117376
114304
113075
115117
114336
116055
118489
116480
118061
117599
119277
120932
120880
122233
122408
123835
124052
125137
125716
126112
126204
127167
127359
128234
128429
129192
129411
130139
130408
131041
131255
131844
132092
132609
133116
133317
133759
133993
134450
134887
135050
135288
135489
135849
136073
136399
136590
136885
137069
137358
137543
137804
137984
138228
138382
138617
138788
139010
139169
139367
139525
139721
139876
140087
140258
140405
140565
140711
140870
141002
141140
141277
141408
141491
141658
141792
141911
142027
142144
142254
142361
142467
142580
142677
142790
142925
143008
143119
143200
143315
143389
143489
143559
143664
143729
143733
143574
143401
143225
143034
142850
142763
142843
142608
142417
142563
142356
142172
141989
142130
141910
141719
142194
142308
142600
142686
143017
143210
143362
143567
143707
143876
144047
144194
144295
144384
144425
144343
144351
144204
144417
144648
144650
144895
144903
145127
145112
145342
145336
145536
145512
145734
145862
145894
146016
146059
146169
146188
146296
146328
146418
146425
146515
146536
146610
146606
146676
146686
146740
146720
146768
146766
146792
146757
146777
146796
146831
146822
146772
146763
146735
146729
146684
146698
146721
146785
146674
146680
146652
146624
146578
146547
146497
146441
146373
146333
146239
146160
146047
145992
146202
146286
146427
146435
146518
146579
146551
146606
146646
146539
146644
146407
146512
146334
146011
145834
145608
145681
145343
145581
145989
146559
146186
146120
146172
146793
146672
147154
146604
147528
147377
147017
146989
147141
146806
146689
146303
145917
146152
145830
146185
146544
146633
146866
146838
146919
146770
146710
146651
146641
146713
146748
146762
146724
146727
146727
146669
146650
146552
146504
146376
146299
146146
146038
145859
145718
145936
146020
146196
146255
146404
146445
146562
146593
146671
146705
146727
146792
146916
146890
146775
146727
146647
146561
146494
146383
146316
146178
146100
145937
145839
145736
145623
145400
145255
145010
144829
144555
144335
144282
144173
143995
143741
144035
143415
143088
143403
143715
144015
144273
143997
143724
143420
143080
142705
142350
141892
141407
141238
140980
141200
140658
140387
140031
139932
140114
139728
139327
139205
138939
138641
138827
138460
138191
137850
137626
137336
136981
137155
136703
136400
135989
135645
135322
136171
136643
137205
137547
138062
138341
138766
139048
139435
139668
140350
140677
140837
139850
139063
138519
137616
136992
136327
135647
135274
135190
135864
134210
134534
133662
132805
132327
132358
131634
131323
130798
129913
129639
129127
128961
128057
127849
127386
126999
128302
128936
130151
130470