/*--------------------------------*- C++ -*----------------------------------*\
| =========                 |                                                 |
| \\      /  F ield         | OpenFOAM: The Open Source CFD Toolbox           |
|  \\    /   O peration     | Version:  v2006                                 |
|   \\  /    A nd           | Website:  www.openfoam.com                      |
|    \\/     M anipulation  |                                                 |
\*---------------------------------------------------------------------------*/
FoamFile
{
    version     2.0;
    format      ascii;
    class       volScalarField;
    location    "0.05";
    object      turbulenceProperties:L;
}
// * * * * * * * * * * * * * * * * * * * * * * * * * * * * * * * * * * * * * //

dimensions      [0 1 0 0 0 0 0];


internalField   nonuniform List<scalar> 
12716
(
2000
2000
2000
2000
2000
2000
2000
1999.99
1999.95
1999.74
1999.25
1998.58
1997.89
1997.29
1996.81
1996.42
1996.09
1995.81
1995.55
1995.3
1995.06
1994.84
1994.62
1994.42
1994.22
1994.04
1993.87
1993.7
1993.53
1993.37
1993.2
1993.01
1992.78
1992.48
1992.04
1991.33
1990.13
1988.03
1984.27
1977.47
1965.09
1942.63
1902.32
1831.73
1713.69
1530.93
1279.23
982.942
691.678
451.062
278.441
166.09
97.1306
56.2218
32.6865
20.1298
16.7564
11.899
10.1413
10.0889
9.2243
4.33034
2.45405
1.52747
0.808894
0.340138
0.129859
0.0349753
0.00381055
0.000671895
4.60773e-05
4.38481e-05
0.000303701
0.00137033
0.000845402
0.000224061
4.19772e-05
4.07092e-05
0.000195913
0.000655487
0.000575285
0.000185451
4.03202e-05
3.99423e-05
0.000177579
0.000521334
0.000492277
0.000174224
3.97984e-05
3.97153e-05
0.000171044
0.000466083
0.000454231
0.000170161
3.96729e-05
3.96216e-05
0.000167049
0.000435781
0.000430387
0.000166917
3.95859e-05
3.9544e-05
0.000164314
0.000417379
0.000413826
0.000164403
3.95154e-05
3.948e-05
0.000162079
0.000403635
0.000401058
0.000162212
3.94563e-05
3.94257e-05
0.000160143
0.000392481
0.000390536
0.000160188
3.94052e-05
3.9378e-05
0.000158338
0.000383025
0.000381526
0.000158317
3.93597e-05
3.93348e-05
0.00015664
0.000374785
0.000373614
0.000156588
3.93179e-05
3.92948e-05
0.000155045
0.000367483
0.000366535
0.000154977
3.9279e-05
3.9257e-05
0.000153543
0.00036092
0.000360136
0.000153469
3.92421e-05
3.9221e-05
0.000152124
0.000354952
0.000354295
0.000152054
3.92065e-05
3.9186e-05
0.000150783
0.000349467
0.000348917
0.00015072
3.91718e-05
3.91518e-05
0.000149512
0.000344391
0.00034393
0.000149462
3.91378e-05
3.9118e-05
0.000148308
0.000339663
0.000339278
0.00014827
3.91041e-05
3.90844e-05
0.000147162
0.00033523
0.000334912
0.000147138
3.90705e-05
3.90508e-05
0.00014607
0.000331041
0.000330793
0.000146059
3.90367e-05
3.90169e-05
0.000145026
0.000327086
0.000326901
0.00014503
3.90027e-05
3.89827e-05
0.000144027
0.000323339
0.000323208
0.000144045
3.89682e-05
3.89479e-05
0.000143069
0.000319777
0.00031969
0.000143101
3.8933e-05
3.89123e-05
0.000142148
0.000316374
0.000316324
0.000142192
3.8897e-05
3.88757e-05
0.000141258
0.00031311
0.000313088
0.000141314
3.88599e-05
3.88379e-05
0.000140396
0.000309963
0.000309964
0.000140463
3.88215e-05
3.87987e-05
0.000139557
0.000306917
0.000306936
0.000139635
3.87815e-05
3.87578e-05
0.000138738
0.000303958
0.00030399
0.000138827
3.87398e-05
3.87149e-05
0.000137937
0.000301072
0.000301112
0.000138037
3.86959e-05
3.86697e-05
0.00013715
0.000298245
0.000298289
0.000137259
3.86495e-05
3.86218e-05
0.000136372
0.000295464
0.000295506
0.00013649
3.86002e-05
3.85708e-05
0.0001356
0.000292714
0.000292747
0.000135725
3.85476e-05
3.85162e-05
0.000134828
0.000289979
0.000290001
0.000134961
3.84912e-05
3.84574e-05
0.000134053
0.000287248
0.000287254
0.000134195
3.84304e-05
3.83938e-05
0.000133274
0.000284511
0.000284498
0.000133427
3.83644e-05
3.83247e-05
0.00013249
0.000281759
0.000281727
0.000132657
3.82926e-05
3.82493e-05
0.0001317
0.000278988
0.000278934
0.000131876
3.82141e-05
3.81667e-05
0.000130903
0.00027619
0.000276113
0.00013109
3.8128e-05
3.80759e-05
0.000130099
0.000273361
0.000273261
0.0001303
3.80333e-05
3.79757e-05
0.000129289
0.000270498
0.000270377
0.000129508
3.79285e-05
3.78648e-05
0.000128477
0.000267603
0.000267465
0.000128719
3.78123e-05
3.77415e-05
0.000127668
0.000264685
0.00026454
0.00012794
3.76832e-05
3.76043e-05
0.000126873
0.000261763
0.000261625
0.000127186
3.75394e-05
3.74514e-05
0.000126108
0.000258866
0.000258802
0.000126473
3.73792e-05
3.72812e-05
0.000125402
0.000256052
0.000256117
0.000125837
3.72009e-05
3.70923e-05
0.000124815
0.000253393
0.000253636
0.000125318
3.7004e-05
3.68844e-05
0.000124363
0.000250967
0.000251467
0.000124963
3.67881e-05
3.66578e-05
0.000124107
0.000248898
0.000249668
0.000124836
3.65545e-05
3.64149e-05
0.000124114
0.000247315
0.000248502
0.000125014
3.63068e-05
3.61606e-05
0.000124467
0.00024644
0.000248161
0.000125579
3.60513e-05
3.59031e-05
0.000125246
0.000246445
0.000248796
0.000126603
3.57976e-05
3.56533e-05
0.000126512
0.000247489
0.000250557
0.000128134
3.55573e-05
3.54237e-05
0.000128293
0.000249701
0.000253529
0.000130184
3.53433e-05
3.52269e-05
0.000130576
0.000253183
0.000257697
0.000132692
3.51663e-05
3.50717e-05
0.000133254
0.000257865
0.000262952
0.000135534
3.50329e-05
3.49622e-05
0.000136178
0.000263553
0.000268978
0.000138502
3.49426e-05
3.49007e-05
0.000139004
0.000269975
0.000275417
0.000141124
3.48962e-05
3.48772e-05
0.000141244
0.000276511
0.000281896
0.000143192
3.48794e-05
3.48717e-05
0.000143081
0.000282887
0.000288156
0.000144865
3.48798e-05
3.48791e-05
0.000144592
0.000288928
0.000293925
0.000146195
3.48914e-05
3.48959e-05
0.0001458
0.000294378
0.000299011
0.000147175
3.49144e-05
3.49215e-05
0.000146682
0.000299106
0.000303336
0.000147819
3.49431e-05
3.49515e-05
0.000147246
0.000303084
0.000306921
0.000148182
3.49741e-05
3.49832e-05
0.000147557
0.000306379
0.000309834
0.000148325
3.50059e-05
3.5015e-05
0.000147667
0.00030907
0.000312126
0.000148279
3.5037e-05
3.50457e-05
0.000147609
0.000311201
0.000313883
0.000148092
3.50665e-05
3.50748e-05
0.000147432
0.000312829
0.000315195
0.000147817
3.50943e-05
3.51022e-05
0.000147175
0.000314049
0.000316111
0.000147481
3.51205e-05
3.51278e-05
0.00014686
0.000314919
0.000316723
0.000147105
3.51446e-05
3.51514e-05
0.000146503
0.000315506
0.000317104
0.000146711
3.5167e-05
3.51733e-05
0.000146125
0.000315883
0.000317287
0.000146319
3.51879e-05
3.51939e-05
0.000145738
0.000316075
0.000317303
0.000145916
3.52077e-05
3.52138e-05
0.000145331
0.000316095
0.000317174
0.000145505
3.52269e-05
3.52327e-05
0.000144921
0.000315964
0.000316916
0.000145095
3.52448e-05
3.52501e-05
0.00014451
0.000315674
0.000316577
0.000144684
3.52613e-05
3.5266e-05
0.000144097
0.000315248
0.00031611
0.000144268
3.52761e-05
3.52801e-05
0.00014368
0.000314694
0.000315527
0.000143847
3.52891e-05
3.52927e-05
0.000143256
0.000314048
0.000314847
0.000143418
3.53009e-05
3.53039e-05
0.000142823
0.000313316
0.000314074
0.000142979
3.53109e-05
3.53132e-05
0.000142378
0.000312483
0.000313198
0.000142526
3.53188e-05
3.53204e-05
0.000141915
0.000311531
0.000312281
0.000142073
3.5325e-05
3.53187e-05
0.000141446
0.000310518
0.000311152
0.000141505
3.53373e-05
3.52936e-05
0.000140959
0.000309276
0.000310965
0.000141531
3.54641e-05
3.56057e-05
0.000141283
0.000311383
0.00031613
0.00014373
3.62659e-05
3.65375e-05
0.00014512
0.00031974
0.000317505
0.000144243
3.69908e-05
3.7427e-05
0.000149132
0.000329087
0.000332411
0.000150953
3.82194e-05
0.000823669
0.00144484
0.00206834
0.00266869
0.00314307
0.00362171
0.00400183
0.00430946
0.00452379
0.00465617
0.0047019
0.00466102
0.00453784
0.00432854
0.00405248
0.00369821
0.00330547
0.00284849
0.00246317
0.00200262
0.00144918
0.00101039
0.000781663
0.000396693
0.000132774
6.55591e-05
1.94447e-05
1.23771e-05
5.87895e-05
0.000114284
4.3726e-05
1.83382e-05
6.56296e-06
8.84606e-06
4.12984e-05
9.14207e-05
8.46819e-05
3.70526e-05
9.7381e-06
9.80698e-06
3.9962e-05
9.11855e-05
8.55192e-05
3.71701e-05
9.66535e-06
9.58948e-06
3.83077e-05
8.76096e-05
8.38384e-05
3.62819e-05
9.45134e-06
9.38087e-06
3.781e-05
8.62484e-05
8.36234e-05
3.62729e-05
9.26343e-06
9.29054e-06
3.75212e-05
8.64658e-05
8.38758e-05
3.62303e-05
9.28801e-06
9.32087e-06
3.76492e-05
8.68262e-05
8.45665e-05
3.65529e-05
9.31067e-06
9.34707e-06
3.78378e-05
8.74138e-05
8.51577e-05
3.66288e-05
9.33729e-06
9.36272e-06
3.7849e-05
8.80177e-05
8.56914e-05
3.66834e-05
9.34774e-06
9.37771e-06
3.79646e-05
8.85733e-05
8.61999e-05
3.68288e-05
9.36611e-06
9.40144e-06
3.81591e-05
8.91104e-05
8.67302e-05
3.70071e-05
9.39411e-06
9.42769e-06
3.83246e-05
8.96635e-05
8.72527e-05
3.7134e-05
9.41773e-06
9.44913e-06
3.84332e-05
9.02086e-05
8.77822e-05
3.7249e-05
9.44006e-06
9.47546e-06
3.86179e-05
9.07641e-05
8.82902e-05
3.75259e-05
9.46727e-06
9.50932e-06
3.89695e-05
9.13282e-05
8.89104e-05
3.77657e-05
9.50442e-06
9.53851e-06
3.91458e-05
9.19814e-05
8.95464e-05
3.79524e-05
9.53057e-06
9.56629e-06
3.93341e-05
9.26459e-05
9.01849e-05
3.81372e-05
9.55864e-06
9.59546e-06
3.95574e-05
9.3322e-05
9.08418e-05
3.83737e-05
9.589e-06
9.62752e-06
3.97975e-05
9.40112e-05
9.15109e-05
3.85594e-05
9.62003e-06
9.65353e-06
3.99739e-05
9.47023e-05
9.21695e-05
3.87536e-05
9.64474e-06
9.68351e-06
4.02078e-05
9.54036e-05
9.28671e-05
3.89804e-05
9.67805e-06
9.71652e-06
4.04412e-05
9.61535e-05
9.35937e-05
3.91851e-05
9.70948e-06
9.74698e-06
4.0659e-05
9.6928e-05
9.43638e-05
3.94102e-05
9.74053e-06
9.78118e-06
4.09328e-05
9.77694e-05
9.5187e-05
3.96903e-05
9.776e-06
9.81769e-06
4.12526e-05
9.86257e-05
9.60231e-05
3.99877e-05
9.81316e-06
9.85333e-06
4.1504e-05
9.95081e-05
9.68743e-05
4.01258e-05
9.84754e-06
9.88195e-06
4.16495e-05
0.00010036
9.76545e-05
4.03637e-05
9.87544e-06
9.91858e-06
4.19392e-05
0.000101232
9.85322e-05
4.06005e-05
9.91469e-06
9.95352e-06
4.2177e-05
0.000102136
9.93704e-05
4.0849e-05
9.94705e-06
9.98969e-06
4.24615e-05
0.000103024
0.000100229
4.11353e-05
9.9868e-06
1.00313e-05
4.27726e-05
0.000103922
0.000101108
4.14261e-05
1.00286e-05
1.00735e-05
4.30963e-05
0.000104852
0.000102019
4.17485e-05
1.00731e-05
1.01203e-05
4.34384e-05
0.000105803
0.000102951
4.20524e-05
1.01192e-05
1.01655e-05
4.37545e-05
0.000106774
0.000103879
4.23539e-05
1.01641e-05
1.02115e-05
4.40542e-05
0.00010773
0.000104805
4.26129e-05
1.02099e-05
1.02567e-05
4.43233e-05
0.000108694
0.000105727
4.28828e-05
1.02562e-05
1.0307e-05
4.45939e-05
0.000109639
0.000106633
4.3103e-05
1.03085e-05
1.03581e-05
4.47917e-05
0.000110602
0.000107578
4.32675e-05
1.03601e-05
1.0416e-05
4.49584e-05
0.000111667
0.000108691
4.34312e-05
1.04235e-05
1.04911e-05
4.52125e-05
0.000113024
0.00011016
4.37357e-05
1.05093e-05
1.05906e-05
4.56535e-05
0.000114875
0.0001122
4.42309e-05
1.06158e-05
1.06821e-05
4.65728e-05
0.00011834
0.000115215
4.47561e-05
1.07998e-05
1.08807e-05
4.8545e-05
0.000121543
0.000118363
4.62404e-05
1.08747e-05
1.10325e-05
5.0026e-05
0.000125638
0.000122032
4.789e-05
1.11255e-05
1.13696e-05
5.11478e-05
0.000128693
0.000125995
4.99699e-05
1.14804e-05
1.16337e-05
5.27111e-05
0.000133112
0.000130322
5.12146e-05
1.174e-05
1.19819e-05
5.3969e-05
0.000137515
0.000135664
5.38274e-05
1.23026e-05
1.25382e-05
5.77175e-05
0.000143397
0.000140998
5.59601e-05
1.27363e-05
1.29832e-05
5.93601e-05
0.000147433
0.000145399
5.79389e-05
1.31937e-05
1.35279e-05
6.10275e-05
0.00015146
0.00014956
6.00837e-05
1.38645e-05
1.43188e-05
6.29875e-05
0.000153779
0.000150467
6.23592e-05
1.46784e-05
1.50742e-05
6.29627e-05
0.000153135
0.00014845
6.26474e-05
1.56587e-05
1.63308e-05
6.42099e-05
0.000150844
0.000146577
6.38248e-05
1.74138e-05
1.92926e-05
7.26214e-05
0.000150407
0.00014559
8.07683e-05
1.40529e-05
8.57562e-06
2.36556e-05
5.79404e-05
0.000126215
5.32126e-05
1.15465e-05
1.31845e-05
5.01982e-05
0.00012219
0.000132002
5.66112e-05
1.44766e-05
1.55838e-05
5.58419e-05
0.000133971
0.000161519
6.08303e-05
1.67575e-05
2.84935e-05
7.19855e-05
0.00026116
0.000361673
0.000167335
4.13713e-05
4.71313e-05
0.00016433
0.000385845
0.000460552
0.000220916
5.22249e-05
5.45321e-05
0.000237375
0.000486772
0.000467709
0.000226168
5.19157e-05
4.87208e-05
0.000179675
0.00036177
0.000440623
0.000198494
5.16577e-05
5.48358e-05
0.000217708
0.000458413
0.000484408
0.0002287
5.79142e-05
5.92496e-05
0.000235495
0.000502151
0.000498776
0.000237926
6.16585e-05
6.39591e-05
0.000272803
0.00058159
0.000596966
0.000288089
6.57163e-05
6.27247e-05
0.000293527
0.000612274
0.000491154
0.000246871
5.82191e-05
5.56709e-05
0.000248572
0.00050121
0.000468514
0.000237284
5.46623e-05
5.20288e-05
0.000241418
0.000477268
0.000381381
0.000205721
4.85466e-05
4.80817e-05
0.000211336
0.000406438
0.000448862
0.000229262
5.00606e-05
5.16923e-05
0.000243056
0.000483434
0.000478678
0.000247927
5.09916e-05
5.13973e-05
0.000239758
0.000441959
0.000520968
0.000258972
5.33487e-05
5.77071e-05
0.000293158
0.00063229
0.000712379
0.000341637
5.79352e-05
6.18338e-05
0.000391814
0.000762011
0.000879179
0.000452158
6.55167e-05
7.18058e-05
0.000497253
0.000877168
0.000886455
0.000529728
7.31568e-05
8.01656e-05
0.000519697
0.000858707
0.000766619
0.000488193
7.39105e-05
6.64334e-05
0.000327703
0.000603007
0.000733483
0.000272835
5.97602e-05
4.78453e-05
0.000105257
0.000279709
0.000241382
8.74449e-05
4.63529e-05
4.25113e-05
7.47874e-05
0.000212686
0.000122427
6.2218e-05
4.18472e-05
4.08922e-05
6.29665e-05
0.000138133
0.000137178
6.21002e-05
4.18641e-05
4.05861e-05
5.73466e-05
9.93982e-05
0.000123295
6.17865e-05
4.16529e-05
4.20329e-05
6.33601e-05
0.000118264
0.000111809
6.127e-05
4.08359e-05
3.90224e-05
5.76785e-05
9.01761e-05
0.000114883
6.3905e-05
4.02873e-05
4.09756e-05
6.74579e-05
0.000114226
0.000112078
6.65151e-05
3.97586e-05
3.86373e-05
6.43381e-05
9.47703e-05
0.000123012
7.28964e-05
4.05232e-05
4.47873e-05
7.5496e-05
0.000116589
0.000176892
9.4646e-05
5.05506e-05
5.52003e-05
0.000105687
0.00019932
0.000208085
0.000112728
5.47952e-05
5.42247e-05
0.000110075
0.00017811
0.000237089
0.000128746
5.63169e-05
5.81431e-05
0.000138546
0.000239748
0.000233269
0.000134187
5.45943e-05
5.14569e-05
0.000124655
0.000193539
0.00024112
0.000141863
5.25049e-05
5.49087e-05
0.000152019
0.000252333
0.000244405
0.000148289
5.23143e-05
4.74496e-05
0.00013596
0.000236152
0.000191851
0.000118275
4.29418e-05
4.36443e-05
0.000138126
0.000243325
0.00023398
0.000129808
4.3061e-05
3.59297e-05
0.000115911
0.00020254
0.000124963
4.58121e-05
2.14543e-05
1.60999e-05
5.78549e-05
0.000162875
0.000144299
5.55433e-05
2.0634e-05
1.76091e-05
4.86617e-05
0.000113345
0.00011121
4.81541e-05
1.46066e-05
1.02366e-05
2.38615e-05
5.50055e-05
0.000118295
7.12404e-05
1.56478e-05
2.07428e-05
7.07501e-05
0.000121272
0.000107048
5.2601e-05
1.78702e-05
1.42282e-05
4.89307e-05
0.000102284
4.89029e-05
2.24936e-05
9.84066e-06
1.45485e-05
6.83193e-05
0.000112208
0.000108488
5.83535e-05
1.9164e-05
1.55142e-05
5.18582e-05
0.000101769
4.84591e-05
2.2847e-05
1.06965e-05
1.53146e-05
6.78545e-05
0.000111732
0.000106202
5.68757e-05
1.9805e-05
1.58132e-05
4.94273e-05
9.67469e-05
4.60876e-05
2.23075e-05
1.08809e-05
1.53204e-05
6.22213e-05
0.000106694
0.000104517
5.9057e-05
1.99913e-05
1.70928e-05
4.43937e-05
8.97303e-05
8.68358e-05
4.21993e-05
1.39625e-05
9.82117e-06
1.89689e-05
3.98604e-05
9.53266e-05
5.45885e-05
1.41362e-05
1.86411e-05
4.95949e-05
9.10638e-05
8.33483e-05
4.27233e-05
1.48448e-05
1.0138e-05
1.90727e-05
3.89161e-05
9.07042e-05
5.2242e-05
1.39694e-05
1.83134e-05
4.65608e-05
8.51144e-05
8.03124e-05
4.1996e-05
1.46918e-05
1.0298e-05
1.88036e-05
3.80368e-05
9.0188e-05
5.20043e-05
1.4375e-05
1.88137e-05
4.71164e-05
8.56125e-05
7.83022e-05
4.10457e-05
1.49493e-05
1.02994e-05
1.83098e-05
3.67944e-05
8.442e-05
4.90166e-05
1.3975e-05
1.83808e-05
4.42599e-05
7.94392e-05
7.48613e-05
3.99266e-05
1.47017e-05
1.02958e-05
1.80667e-05
3.61891e-05
8.36789e-05
4.88957e-05
1.40956e-05
1.86001e-05
4.50478e-05
7.99272e-05
7.27555e-05
3.86219e-05
1.48492e-05
1.02243e-05
1.75963e-05
3.48871e-05
7.78011e-05
4.61437e-05
1.34924e-05
1.70024e-05
4.42931e-05
7.70429e-05
3.85751e-05
2.04613e-05
1.1906e-05
1.5578e-05
5.1617e-05
8.59408e-05
8.0958e-05
4.68735e-05
2.00667e-05
1.58786e-05
4.02733e-05
7.28983e-05
3.57331e-05
1.8343e-05
1.09623e-05
1.4592e-05
4.71347e-05
7.86069e-05
7.52436e-05
4.38239e-05
1.91432e-05
1.5377e-05
3.84545e-05
6.92432e-05
3.36075e-05
1.73159e-05
1.06654e-05
1.37039e-05
4.27883e-05
7.01637e-05
6.87742e-05
4.04735e-05
1.69583e-05
1.16482e-05
1.92295e-05
3.52428e-05
7.4096e-05
4.59386e-05
1.49179e-05
1.92241e-05
4.17507e-05
6.95779e-05
6.47393e-05
3.72262e-05
1.52431e-05
1.06134e-05
1.71701e-05
3.28811e-05
6.65452e-05
4.16031e-05
1.37524e-05
1.71501e-05
4.02616e-05
6.57647e-05
3.45994e-05
1.91427e-05
1.18958e-05
1.5284e-05
4.46478e-05
7.09918e-05
6.82858e-05
4.17828e-05
1.98416e-05
1.58597e-05
3.69735e-05
6.28375e-05
3.26002e-05
1.74284e-05
1.0967e-05
1.39622e-05
4.13139e-05
6.48368e-05
6.36341e-05
3.98561e-05
1.72632e-05
1.19415e-05
1.90255e-05
3.37574e-05
6.72258e-05
4.29375e-05
1.50533e-05
1.92863e-05
3.95187e-05
6.34152e-05
5.8919e-05
3.48476e-05
1.5257e-05
1.06093e-05
1.69883e-05
3.06828e-05
5.89141e-05
3.8465e-05
1.36328e-05
1.70284e-05
3.67852e-05
5.79479e-05
3.1943e-05
1.87322e-05
1.17939e-05
1.49191e-05
4.05964e-05
6.12171e-05
5.94863e-05
3.801e-05
1.93497e-05
1.53296e-05
3.3898e-05
5.51938e-05
2.94025e-05
1.67471e-05
1.05202e-05
1.33524e-05
3.71083e-05
5.60766e-05
5.44764e-05
3.561e-05
1.66181e-05
1.14152e-05
1.81019e-05
3.00579e-05
5.70286e-05
3.87449e-05
1.41696e-05
1.74218e-05
3.65111e-05
5.52316e-05
3.08486e-05
1.8702e-05
1.19195e-05
1.4647e-05
3.92684e-05
5.67979e-05
5.48936e-05
3.63705e-05
1.79578e-05
1.23987e-05
1.92917e-05
3.1414e-05
5.80547e-05
3.95764e-05
1.53156e-05
1.95206e-05
3.69479e-05
5.65486e-05
5.17283e-05
3.26047e-05
1.53954e-05
1.07013e-05
1.69324e-05
2.82722e-05
5.20933e-05
3.53564e-05
1.35698e-05
1.68483e-05
3.37635e-05
5.03776e-05
2.86656e-05
1.81401e-05
1.16172e-05
1.42054e-05
3.60636e-05
5.17144e-05
5.00493e-05
3.41707e-05
1.73749e-05
1.19657e-05
1.86092e-05
2.90025e-05
5.27327e-05
3.69826e-05
1.47153e-05
1.79764e-05
3.49195e-05
5.0791e-05
2.99032e-05
1.93357e-05
1.24879e-05
1.56438e-05
3.75527e-05
5.38271e-05
5.34464e-05
3.62461e-05
2.0088e-05
1.59539e-05
3.16994e-05
4.87114e-05
2.70256e-05
1.71896e-05
1.10277e-05
1.36795e-05
3.40709e-05
4.9279e-05
4.77363e-05
3.26724e-05
1.69254e-05
1.16564e-05
1.80445e-05
2.74201e-05
4.97709e-05
3.50749e-05
1.4256e-05
1.75188e-05
3.33447e-05
4.78393e-05
2.79334e-05
1.86174e-05
1.21028e-05
1.47017e-05
3.54635e-05
4.96109e-05
4.75904e-05
3.33983e-05
1.78928e-05
1.2295e-05
1.88584e-05
2.8046e-05
5.01678e-05
3.57895e-05
1.4913e-05
1.81647e-05
3.39781e-05
4.81643e-05
2.84805e-05
1.92242e-05
1.25705e-05
1.52226e-05
3.60735e-05
5.00812e-05
4.79373e-05
3.4014e-05
1.84803e-05
1.28357e-05
1.95782e-05
2.86828e-05
5.03405e-05
3.58063e-05
1.56935e-05
1.99304e-05
3.44274e-05
4.88405e-05
4.5183e-05
3.05063e-05
1.57344e-05
1.0881e-05
1.69725e-05
2.55964e-05
4.50319e-05
3.18205e-05
1.35653e-05
1.68241e-05
3.06903e-05
4.36552e-05
2.57519e-05
1.78017e-05
1.16127e-05
1.40198e-05
3.22743e-05
4.45831e-05
4.30779e-05
3.08643e-05
1.71618e-05
1.18122e-05
1.80612e-05
2.58266e-05
4.4774e-05
3.2586e-05
1.434e-05
1.75054e-05
3.09883e-05
4.30393e-05
2.59177e-05
1.82763e-05
1.20253e-05
1.44417e-05
3.25726e-05
4.44863e-05
4.30007e-05
3.11563e-05
1.76235e-05
1.22073e-05
1.85048e-05
2.61226e-05
4.49137e-05
3.29416e-05
1.47568e-05
1.7914e-05
3.13189e-05
4.3235e-05
2.62916e-05
1.87414e-05
1.23645e-05
1.49311e-05
3.29935e-05
4.48777e-05
4.33845e-05
3.15251e-05
1.81362e-05
1.26006e-05
1.89971e-05
2.65611e-05
4.53989e-05
3.34657e-05
1.51648e-05
1.83424e-05
3.18545e-05
4.37225e-05
2.6761e-05
1.91721e-05
1.27458e-05
1.52628e-05
3.33972e-05
4.53211e-05
4.38446e-05
3.20283e-05
1.85094e-05
1.29809e-05
1.94934e-05
2.70125e-05
4.60234e-05
3.40109e-05
1.56958e-05
1.89768e-05
3.24659e-05
4.44389e-05
2.77507e-05
2.00772e-05
1.34218e-05
1.64804e-05
3.45873e-05
4.7116e-05
4.66369e-05
3.41021e-05
2.07802e-05
1.65338e-05
3.00812e-05
4.26702e-05
2.52428e-05
1.75653e-05
1.15002e-05
1.41909e-05
3.10655e-05
4.31469e-05
4.20015e-05
2.99556e-05
1.74233e-05
1.21643e-05
1.82749e-05
2.53742e-05
4.33816e-05
3.18401e-05
1.46726e-05
1.77641e-05
3.04798e-05
4.19455e-05
2.56864e-05
1.85689e-05
1.23289e-05
1.48088e-05
3.20203e-05
4.3208e-05
4.16664e-05
3.05804e-05
1.78981e-05
1.24763e-05
1.87537e-05
2.57454e-05
4.35157e-05
3.22739e-05
1.50377e-05
1.81428e-05
3.09281e-05
4.20594e-05
2.60723e-05
1.89069e-05
1.26204e-05
1.51524e-05
3.24145e-05
4.35505e-05
4.1999e-05
3.09247e-05
1.82703e-05
1.26965e-05
1.90265e-05
2.60961e-05
4.38438e-05
3.25538e-05
1.52898e-05
1.84835e-05
3.12046e-05
4.24053e-05
2.64633e-05
1.93008e-05
1.29593e-05
1.55239e-05
3.28552e-05
4.39501e-05
4.24032e-05
3.13999e-05
1.86438e-05
1.30525e-05
1.94671e-05
2.65212e-05
4.43043e-05
3.3135e-05
1.57345e-05
1.89472e-05
3.1759e-05
4.28783e-05
2.696e-05
1.97306e-05
1.32878e-05
1.59049e-05
3.3358e-05
4.44411e-05
4.28992e-05
3.19038e-05
1.90852e-05
1.34009e-05
1.98863e-05
2.70682e-05
4.49071e-05
3.35869e-05
1.61614e-05
1.95091e-05
3.23065e-05
4.35528e-05
2.78952e-05
2.05224e-05
1.39183e-05
1.70051e-05
3.42396e-05
4.59937e-05
4.51331e-05
3.37674e-05
2.11985e-05
1.6752e-05
2.97853e-05
4.10753e-05
2.52302e-05
1.77424e-05
1.17047e-05
1.43133e-05
3.01487e-05
4.09864e-05
4.00985e-05
2.92668e-05
1.74968e-05
1.23763e-05
1.84132e-05
2.53103e-05
4.07349e-05
3.05788e-05
1.48838e-05
1.79219e-05
2.93072e-05
3.94313e-05
2.51824e-05
1.85698e-05
1.25142e-05
1.5007e-05
3.05104e-05
4.02349e-05
3.91617e-05
2.93849e-05
1.80959e-05
1.26909e-05
1.88196e-05
2.52411e-05
4.05492e-05
3.08575e-05
1.52593e-05
1.83305e-05
2.9628e-05
3.93077e-05
2.54547e-05
1.90658e-05
1.28848e-05
1.54427e-05
3.10297e-05
4.07971e-05
3.97354e-05
3.00017e-05
1.85255e-05
1.31083e-05
1.93262e-05
2.57675e-05
4.15475e-05
3.16185e-05
1.58575e-05
1.89962e-05
3.03461e-05
4.03448e-05
2.62261e-05
1.97289e-05
1.34077e-05
1.61381e-05
3.20433e-05
4.20593e-05
4.10022e-05
3.10051e-05
1.93787e-05
1.39629e-05
2.04654e-05
2.70162e-05
4.39472e-05
3.31798e-05
1.71968e-05
2.14162e-05
3.30787e-05
4.32565e-05
3.98345e-05
2.95337e-05
1.71056e-05
1.20846e-05
1.81517e-05
2.52891e-05
4.04045e-05
3.01788e-05
1.49998e-05
1.83429e-05
2.93559e-05
3.96676e-05
2.5501e-05
1.91069e-05
1.30745e-05
1.56845e-05
3.1046e-05
4.07496e-05
3.95772e-05
2.98536e-05
1.88163e-05
1.33371e-05
1.94915e-05
2.57437e-05
4.13387e-05
3.15923e-05
1.59939e-05
1.91434e-05
3.04388e-05
4.02791e-05
2.63945e-05
1.99465e-05
1.36493e-05
1.64215e-05
3.21775e-05
4.1949e-05
4.07169e-05
3.10034e-05
1.95437e-05
1.39979e-05
2.04062e-05
2.69054e-05
4.28187e-05
3.25339e-05
1.69922e-05
2.10673e-05
3.23249e-05
4.16135e-05
3.8984e-05
2.91926e-05
1.6982e-05
1.21983e-05
1.81849e-05
2.53193e-05
3.97585e-05
2.99303e-05
1.51433e-05
1.83489e-05
2.89845e-05
3.89346e-05
2.53894e-05
1.91593e-05
1.30906e-05
1.58406e-05
3.06375e-05
4.0075e-05
3.92157e-05
2.98196e-05
1.90492e-05
1.37526e-05
1.99593e-05
2.60918e-05
4.18164e-05
3.18398e-05
1.6941e-05
2.1159e-05
3.19118e-05
4.09302e-05
3.79964e-05
2.87984e-05
1.70816e-05
1.22649e-05
1.81841e-05
2.49067e-05
3.91191e-05
2.95656e-05
1.52156e-05
1.84642e-05
2.88447e-05
3.84592e-05
2.53374e-05
1.92851e-05
1.32606e-05
1.60192e-05
3.07605e-05
3.99224e-05
3.87692e-05
2.95805e-05
1.90909e-05
1.35981e-05
1.98307e-05
2.58764e-05
4.08708e-05
3.12077e-05
1.65473e-05
2.0666e-05
3.11459e-05
3.96189e-05
3.73578e-05
2.83381e-05
1.67805e-05
1.21663e-05
1.79707e-05
2.46909e-05
3.84926e-05
2.91886e-05
1.51285e-05
1.83362e-05
2.83722e-05
3.77581e-05
2.50578e-05
1.91318e-05
1.31767e-05
1.59493e-05
3.02167e-05
3.92087e-05
3.84016e-05
2.94463e-05
1.91964e-05
1.40201e-05
2.02167e-05
2.6037e-05
4.14976e-05
3.18376e-05
1.73283e-05
2.16071e-05
3.20328e-05
4.06921e-05
3.79368e-05
2.90722e-05
1.76295e-05
1.27996e-05
1.88635e-05
2.53822e-05
3.96047e-05
3.01699e-05
1.60047e-05
1.9364e-05
2.95547e-05
3.89989e-05
2.64461e-05
2.04364e-05
1.42033e-05
1.75778e-05
3.20081e-05
4.15889e-05
4.07283e-05
3.21255e-05
2.17348e-05
1.74593e-05
2.9183e-05
3.77905e-05
2.51617e-05
1.86237e-05
1.25972e-05
1.56693e-05
2.9701e-05
3.92424e-05
3.88311e-05
2.92206e-05
1.91609e-05
1.42121e-05
2.02916e-05
2.64482e-05
4.1227e-05
3.18091e-05
1.76915e-05
2.20154e-05
3.21192e-05
4.04363e-05
3.78126e-05
2.93396e-05
1.79854e-05
1.31465e-05
1.93061e-05
2.58549e-05
3.96283e-05
3.03626e-05
1.63903e-05
2.04993e-05
3.05073e-05
3.85644e-05
3.69257e-05
2.82213e-05
1.68509e-05
1.25513e-05
1.8296e-05
2.49392e-05
3.83341e-05
2.90196e-05
1.58466e-05
1.9219e-05
2.85477e-05
3.7805e-05
2.60191e-05
2.03089e-05
1.42172e-05
1.77432e-05
3.14458e-05
4.05883e-05
3.99668e-05
3.19158e-05
2.21779e-05
1.84099e-05
2.95421e-05
3.77311e-05
2.61285e-05
1.98569e-05
1.36462e-05
1.73069e-05
3.14201e-05
4.10759e-05
4.03622e-05
3.17361e-05
2.17389e-05
1.80997e-05
2.91817e-05
3.80323e-05
2.61359e-05
1.96771e-05
1.35241e-05
1.72723e-05
3.10776e-05
4.0747e-05
4.01727e-05
3.15872e-05
2.17662e-05
1.82783e-05
2.92884e-05
3.82887e-05
2.64981e-05
1.98095e-05
1.37018e-05
1.73584e-05
3.12253e-05
4.07312e-05
4.00494e-05
3.15643e-05
2.16778e-05
1.81001e-05
2.90395e-05
3.78869e-05
2.61807e-05
1.97045e-05
1.36575e-05
1.74172e-05
3.09474e-05
4.05495e-05
3.97594e-05
3.08479e-05
2.19272e-05
1.92713e-05
2.94539e-05
3.74135e-05
3.69752e-05
2.78336e-05
1.64845e-05
1.26825e-05
1.85228e-05
2.56381e-05
3.89362e-05
2.9507e-05
1.64463e-05
2.092e-05
2.99072e-05
3.82399e-05
3.66107e-05
2.77653e-05
1.77386e-05
1.34444e-05
1.92819e-05
2.55079e-05
3.95366e-05
3.01513e-05
1.73305e-05
2.21622e-05
3.03138e-05
3.92273e-05
3.71982e-05
2.88445e-05
1.98148e-05
1.68773e-05
2.8151e-05
3.67292e-05
2.533e-05
1.88504e-05
1.31639e-05
1.74808e-05
3.00604e-05
4.01773e-05
4.00806e-05
3.01923e-05
2.24802e-05
2.00049e-05
2.92784e-05
3.75334e-05
3.66385e-05
2.75699e-05
1.70028e-05
1.30844e-05
1.89697e-05
2.55067e-05
3.99195e-05
3.00588e-05
1.69075e-05
2.16271e-05
2.98502e-05
3.91495e-05
3.81332e-05
2.92218e-05
1.97822e-05
1.82043e-05
2.7193e-05
3.66516e-05
3.70532e-05
2.64374e-05
1.64131e-05
1.30924e-05
1.8803e-05
2.56083e-05
4.06679e-05
3.02836e-05
1.75892e-05
2.29888e-05
3.0444e-05
4.06397e-05
3.99668e-05
3.00772e-05
2.17232e-05
2.03795e-05
2.8868e-05
3.88045e-05
3.89745e-05
2.82456e-05
1.90685e-05
1.767e-05
2.60159e-05
3.63521e-05
3.65567e-05
2.5022e-05
1.5983e-05
1.29053e-05
1.81863e-05
2.46992e-05
3.95963e-05
2.92854e-05
1.7218e-05
2.20006e-05
2.92912e-05
3.9477e-05
3.79996e-05
2.85479e-05
2.04705e-05
1.98678e-05
2.81489e-05
3.80363e-05
3.79406e-05
2.76421e-05
1.92968e-05
1.89147e-05
2.67401e-05
3.81248e-05
3.75908e-05
2.60747e-05
1.88418e-05
1.86996e-05
2.58557e-05
3.81216e-05
3.72917e-05
2.5838e-05
1.86168e-05
1.86873e-05
2.61119e-05
3.75148e-05
3.72336e-05
2.6774e-05
1.86837e-05
1.86549e-05
2.7528e-05
3.75297e-05
3.76456e-05
2.84395e-05
1.86149e-05
1.85698e-05
2.93696e-05
3.80119e-05
3.83987e-05
3.02742e-05
1.85273e-05
1.84824e-05
3.09509e-05
3.88218e-05
3.93431e-05
3.16733e-05
1.84413e-05
1.83992e-05
3.22394e-05
3.98236e-05
4.04733e-05
3.27205e-05
1.83606e-05
1.83233e-05
3.3407e-05
4.10102e-05
4.18673e-05
3.36013e-05
1.82885e-05
1.82566e-05
3.43504e-05
4.24931e-05
4.36308e-05
3.4386e-05
1.82261e-05
1.81994e-05
3.51537e-05
4.43194e-05
4.56185e-05
3.51889e-05
1.81734e-05
1.81522e-05
3.59809e-05
4.63961e-05
4.77559e-05
3.60032e-05
1.813e-05
1.81146e-05
3.68365e-05
4.86835e-05
5.00909e-05
3.68534e-05
1.80957e-05
1.80863e-05
3.76978e-05
5.11487e-05
5.25798e-05
3.77061e-05
1.80704e-05
1.80659e-05
3.85982e-05
5.36863e-05
5.49779e-05
3.8605e-05
1.80531e-05
1.80516e-05
3.95175e-05
5.6025e-05
5.71716e-05
3.9508e-05
1.80422e-05
1.80427e-05
4.04552e-05
5.81743e-05
5.91548e-05
4.04329e-05
1.80363e-05
1.8038e-05
4.13641e-05
6.0096e-05
6.09546e-05
4.13142e-05
1.80338e-05
1.80363e-05
4.22518e-05
6.18755e-05
6.25997e-05
4.21837e-05
1.80336e-05
1.80367e-05
4.3083e-05
6.3483e-05
6.41105e-05
4.29814e-05
1.8035e-05
1.80385e-05
4.3875e-05
6.49941e-05
6.54924e-05
4.37503e-05
1.80373e-05
1.80414e-05
4.45992e-05
6.63669e-05
6.67669e-05
4.44307e-05
1.80405e-05
1.80451e-05
4.52729e-05
6.7649e-05
6.79495e-05
4.50794e-05
1.80443e-05
1.80492e-05
4.58694e-05
6.88229e-05
6.90442e-05
4.56431e-05
1.80483e-05
1.80534e-05
4.64246e-05
6.99257e-05
7.00634e-05
4.61795e-05
1.80526e-05
1.80576e-05
4.6909e-05
7.09344e-05
7.10103e-05
4.66325e-05
1.80568e-05
1.80618e-05
4.73582e-05
7.18907e-05
7.18969e-05
4.70674e-05
1.8061e-05
1.8066e-05
4.77444e-05
7.27685e-05
7.27273e-05
4.74254e-05
1.80651e-05
1.807e-05
4.81051e-05
7.36117e-05
7.3512e-05
4.77762e-05
1.80692e-05
1.8074e-05
4.84121e-05
7.43909e-05
7.42551e-05
4.80588e-05
1.80733e-05
1.8078e-05
4.87033e-05
7.51493e-05
7.4964e-05
4.83431e-05
1.80772e-05
1.80819e-05
4.89471e-05
7.58538e-05
7.56344e-05
4.8565e-05
1.80811e-05
1.80856e-05
4.91824e-05
7.65536e-05
7.62987e-05
4.87964e-05
1.80849e-05
1.80893e-05
4.93889e-05
7.71964e-05
7.69213e-05
4.89752e-05
1.80885e-05
1.80929e-05
4.95839e-05
7.78399e-05
7.75258e-05
4.91668e-05
1.80921e-05
1.80964e-05
4.9752e-05
7.844e-05
7.811e-05
4.93102e-05
1.80956e-05
1.80998e-05
4.99144e-05
7.90398e-05
7.86745e-05
4.94726e-05
1.8099e-05
1.81032e-05
5.00544e-05
7.95965e-05
7.92248e-05
4.95903e-05
1.81023e-05
1.81064e-05
5.01928e-05
8.01561e-05
7.97463e-05
4.97305e-05
1.81056e-05
1.81096e-05
5.03105e-05
8.06642e-05
8.02447e-05
4.98263e-05
1.81087e-05
1.81127e-05
5.04271e-05
8.11692e-05
8.07109e-05
4.99455e-05
1.81118e-05
1.81157e-05
5.05231e-05
8.16181e-05
8.11523e-05
5.00203e-05
1.81148e-05
1.81186e-05
5.06192e-05
8.20623e-05
8.1559e-05
5.01202e-05
1.81176e-05
1.81213e-05
5.06956e-05
8.24502e-05
8.19426e-05
5.01761e-05
1.81204e-05
1.8124e-05
5.07728e-05
8.28392e-05
8.22957e-05
5.02578e-05
1.8123e-05
1.81265e-05
5.08304e-05
8.31688e-05
8.26248e-05
5.02952e-05
1.81255e-05
1.81288e-05
5.08892e-05
8.35166e-05
8.29289e-05
5.03595e-05
1.81278e-05
1.8131e-05
5.0929e-05
8.37862e-05
8.32031e-05
5.03802e-05
1.813e-05
1.81331e-05
5.09718e-05
8.40881e-05
8.34607e-05
5.04298e-05
1.8132e-05
1.8135e-05
5.09971e-05
8.43107e-05
8.36908e-05
5.04371e-05
1.81339e-05
1.81367e-05
5.10272e-05
8.45701e-05
8.39082e-05
5.04753e-05
1.81356e-05
1.81383e-05
5.10414e-05
8.47532e-05
8.4102e-05
5.04727e-05
1.81371e-05
1.81397e-05