/*--------------------------------*- C++ -*----------------------------------*\
| =========                 |                                                 |
| \\      /  F ield         | OpenFOAM: The Open Source CFD Toolbox           |
|  \\    /   O peration     | Version:  v2006                                 |
|   \\  /    A nd           | Website:  www.openfoam.com                      |
|    \\/     M anipulation  |                                                 |
\*---------------------------------------------------------------------------*/
FoamFile
{
    version     2.0;
    format      ascii;
    class       volScalarField;
    location    "0.12";
    object      nut;
}
// * * * * * * * * * * * * * * * * * * * * * * * * * * * * * * * * * * * * * //

dimensions      [0 2 -1 0 0 0 0];


internalField   nonuniform List<scalar> 
16277
(
58.4945
43.5413
95.1135
30.9212
38.866
11.4204
3.59071
1.46825
0.813032
0.552359
0.434427
0.374705
0.339005
0.313065
0.291215
0.27154
0.253624
0.237506
0.223206
0.210626
0.199575
0.18982
0.181142
0.173352
0.166302
0.159877
0.15399
0.148574
0.143575
0.13895
0.134661
0.130677
0.126971
0.12352
0.120305
0.117307
0.114512
0.111907
0.109479
0.107218
0.105116
0.103163
0.101354
0.0996803
0.098138
0.0967218
0.0954276
0.094252
0.0931925
0.0922469
0.091414
0.090693
0.0900838
0.0895868
0.0892019
0.0889328
0.0887817
0.088753
0.0888511
0.0890779
0.089441
0.0899482
0.0906081
0.0914319
0.092432
0.0936231
0.095023
0.0966534
0.0985413
0.100722
0.103242
0.106163
0.109563
0.113534
0.118168
0.123527
0.129615
0.136385
0.143899
0.152814
0.165438
0.188324
0.238303
0.359211
0.669086
1.4067
2.48347
2.65554
1.57356
1.03935
0.511787
0.233361
0.126887
0.0598644
0.0141836
0.00255184
8.4554e-05
7.33873e-05
0.00119942
0.0055239
0.00304383
0.000777229
6.42807e-05
5.75592e-05
0.000708649
0.00255968
0.00204248
0.000609129
5.31902e-05
4.9764e-05
0.000590341
0.00193699
0.00167604
0.000531764
4.68455e-05
4.48783e-05
0.000522631
0.00163261
0.00148599
0.000487045
4.29387e-05
4.18903e-05
0.000489989
0.00147089
0.00137594
0.000463937
4.0609e-05
3.99202e-05
0.000468107
0.00136752
0.00129544
0.000447127
3.89748e-05
3.84986e-05
0.000451264
0.00129168
0.00123209
0.000433467
3.77598e-05
3.74143e-05
0.000437485
0.00123093
0.0011793
0.000421822
3.68143e-05
3.65546e-05
0.000425824
0.0011798
0.00113386
0.000411598
3.60471e-05
3.58423e-05
0.000415615
0.00113545
0.00109377
0.000402367
3.53965e-05
3.52295e-05
0.000406336
0.00109609
0.00105777
0.000393854
3.48287e-05
3.46883e-05
0.000397773
0.00106061
0.00102507
0.000385931
3.43204e-05
3.41987e-05
0.000389809
0.00102829
0.000995102
0.000378524
3.38556e-05
3.37476e-05
0.000382367
0.00099866
0.000967437
0.00037157
3.3424e-05
3.33265e-05
0.000375375
0.000971296
0.00094181
0.000365009
3.30185e-05
3.29291e-05
0.000368776
0.000945926
0.000917992
0.000358798
3.26338e-05
3.25508e-05
0.000362526
0.000922335
0.000895814
0.000352903
3.22662e-05
3.21883e-05
0.000356602
0.000900356
0.000875122
0.000347311
3.19127e-05
3.18391e-05
0.000350982
0.000879827
0.000855753
0.000341998
3.15713e-05
3.15016e-05
0.000345638
0.000860582
0.000837546
0.000336933
3.12405e-05
3.11741e-05
0.000340541
0.000842464
0.000820359
0.000332089
3.09184e-05
3.08548e-05
0.000335662
0.000825336
0.000804069
0.000327439
3.06037e-05
3.05424e-05
0.000330973
0.000809083
0.000788569
0.000322955
3.02948e-05
3.02353e-05
0.000326448
0.000793597
0.000773763
0.000318612
2.99902e-05
2.99322e-05
0.000322059
0.000778787
0.00075957
0.000314386
2.96888e-05
2.96317e-05
0.000317786
0.000764574
0.000745918
0.000310258
2.93893e-05
2.93328e-05
0.000313608
0.000750889
0.000732744
0.000306211
2.90903e-05
2.9034e-05
0.000309509
0.000737671
0.000719993
0.000302229
2.87909e-05
2.87345e-05
0.000305474
0.000724868
0.00070762
0.000298299
2.849e-05
2.84331e-05
0.000301492
0.00071244
0.000695593
0.000294414
2.81865e-05
2.81289e-05
0.000297554
0.000700357
0.000683886
0.000290565
2.78797e-05
2.78212e-05
0.000293656
0.000688594
0.00067248
0.000286751
2.75687e-05
2.75093e-05
0.000289802
0.000677136
0.000661363
0.000282972
2.72529e-05
2.71926e-05
0.000286017
0.000665977
0.000650536
0.000279243
2.69321e-05
2.68709e-05
0.000282271
0.000655115
0.000639995
0.000275548
2.66058e-05
2.65438e-05
0.000278573
0.000644547
0.000629744
0.000271902
2.62739e-05
2.6211e-05
0.000274936
0.000634285
0.0006198
0.00026832
2.59362e-05
2.58729e-05
0.000271379
0.000624352
0.000610198
0.000264823
2.55932e-05
2.55298e-05
0.000267925
0.00061479
0.000600984
0.00026144
2.52455e-05
2.51826e-05
0.000264612
0.000605737
0.000592257
0.000258211
2.48943e-05
2.48327e-05
0.000261483
0.000597274
0.000584095
0.000255185
2.45415e-05
2.44823e-05
0.000258589
0.00058941
0.000576568
0.000252416
2.41893e-05
2.4134e-05
0.00025599
0.000582282
0.000569824
0.00024997
2.38409e-05
2.37913e-05
0.000253761
0.00057605
0.000564036
0.000247929
2.35003e-05
2.34593e-05
0.000251988
0.000570897
0.000559399
0.000246397
2.31722e-05
2.31445e-05
0.000250711
0.00056702
0.000556136
0.000245444
2.28669e-05
2.28484e-05
0.000249832
0.000564564
0.000554316
0.000244846
2.25964e-05
2.25807e-05
0.000249371
0.000563812
0.000554215
0.000244737
2.236e-05
2.23466e-05
0.000249399
0.000564774
0.000555809
0.000245156
2.21771e-05
2.21546e-05
0.0002499
0.000567346
0.000559037
0.000246088
2.2046e-05
2.20166e-05
0.000250805
0.000571306
0.00056359
0.000247298
2.19203e-05
2.19336e-05
0.000251938
0.000576547
0.000569401
0.00024858
2.18388e-05
2.18884e-05
0.00025306
0.000582869
0.000576192
0.000249887
2.18045e-05
2.18982e-05
0.000254003
0.000589535
0.000583111
0.000251019
2.18288e-05
2.1953e-05
0.000254782
0.000595927
0.000589631
0.000251841
2.1898e-05
2.20459e-05
0.000255527
0.000601756
0.000595579
0.000252498
2.20057e-05
2.21746e-05
0.000256122
0.000606889
0.000600856
0.000253103
2.21486e-05
2.23344e-05
0.000256662
0.000611278
0.000605357
0.000253439
2.23203e-05
2.2516e-05
0.000257064
0.000614995
0.000608949
0.000253657
2.25129e-05
2.27135e-05
0.000257336
0.000617888
0.000611467
0.000253772
2.27198e-05
2.292e-05
0.000257477
0.000620329
0.000613219
0.000253815
2.29339e-05
2.31288e-05
0.000257535
0.000621815
0.000614009
0.000253662
2.31489e-05
2.33344e-05
0.000257512
0.000622294
0.000613347
0.000253243
2.33588e-05
2.35312e-05
0.000257112
0.00062152
0.000611911
0.000252692
2.35568e-05
2.3712e-05
0.000256569
0.00061992
0.000609864
0.000252076
2.3737e-05
2.38742e-05
0.000255947
0.000617596
0.000607233
0.000251452
2.38976e-05
2.40144e-05
0.000255274
0.000614641
0.000604063
0.000250799
2.40327e-05
2.4127e-05
0.000254543
0.000611159
0.000600545
0.000250189
2.41457e-05
2.42243e-05
0.000253849
0.000607178
0.000596627
0.0002496
2.42373e-05
2.42978e-05
0.000253142
0.000602846
0.000592407
0.00024901
2.43059e-05
2.4348e-05
0.000252418
0.000598242
0.000587928
0.000248408
2.43542e-05
2.43827e-05
0.000251677
0.00059351
0.000583359
0.000247793
2.43871e-05
2.44046e-05
0.000250927
0.000588719
0.000578771
0.000247158
2.44069e-05
2.44163e-05
0.000250161
0.000584001
0.000574159
0.000246494
2.44145e-05
2.44245e-05
0.000249414
0.00057925
0.000569452
0.000245724
2.44114e-05
2.44131e-05
0.000248566
0.000574472
0.000564794
0.000244898
2.43935e-05
2.43975e-05
0.000247726
0.000569737
0.000560175
0.000244089
2.43742e-05
2.43768e-05
0.000246891
0.000565038
0.000555565
0.000243269
2.43486e-05
2.43503e-05
0.000246016
0.000560334
0.000550874
0.000242385
2.43177e-05
2.43184e-05
0.00024508
0.000555592
0.000546174
0.000241447
2.42821e-05
2.42821e-05
0.000244113
0.000550862
0.000541497
0.000240504
2.42435e-05
2.42427e-05
0.000243136
0.000546157
0.000536854
0.000239528
2.42032e-05
2.42002e-05
0.000242137
0.000541477
0.000532242
0.000238502
2.41465e-05
2.4166e-05
0.000241135
0.000536901
0.000527339
0.00023747
2.40904e-05
2.4117e-05
0.000239856
0.000532537
0.00052318
0.000235756
2.39989e-05
2.41494e-05
0.000240012
0.000531134
0.000524685
0.000239701
2.40868e-05
2.44812e-05
0.000240128
0.000530529
0.000555589
0.000252482
2.46632e-05
2.62848e-05
0.000236812
0.000540154
0.000824888
0.000340381
2.96162e-05
3.19451e-05
0.0001785
0.000409603
0.00101082
0.00231586
0.00432909
0.00617183
0.00743277
0.00976995
0.0112621
0.0126011
0.013355
0.0137156
0.0136144
0.0130088
0.0121466
0.0107635
0.00940752
0.00735166
0.00642355
0.00467414
0.00349712
0.00237535
0.00135033
0.000619778
0.000225744
9.34156e-05
1.81766e-05
1.18731e-05
8.7276e-05
0.000204636
0.000193328
8.31914e-05
1.14079e-05
1.09436e-05
8.00862e-05
0.000183459
0.000184008
7.87455e-05
1.08174e-05
1.07397e-05
7.81983e-05
0.00018112
0.000181246
7.7378e-05
1.06296e-05
1.06215e-05
7.73222e-05
0.000180984
0.000181513
7.73646e-05
1.06369e-05
1.06373e-05
7.74739e-05
0.000181898
0.000182165
7.76038e-05
1.0655e-05
1.06635e-05
7.77143e-05
0.000182716
0.000182975
7.78431e-05
1.06734e-05
1.06903e-05
7.7984e-05
0.000183559
0.000183874
7.81234e-05
1.06849e-05
1.07031e-05
7.82944e-05
0.000184466
0.00018479
7.84049e-05
1.07119e-05
1.07312e-05
7.85842e-05
0.000185417
0.000185722
7.86751e-05
1.07331e-05
1.07377e-05
7.89369e-05
0.000186412
0.000186728
7.90001e-05
1.07619e-05
1.07673e-05
7.92542e-05
0.000187403
0.000187717
7.93363e-05
1.07755e-05
1.07801e-05
7.95693e-05
0.000188415
0.000188741
7.96536e-05
1.08041e-05
1.081e-05
7.98805e-05
0.000189438
0.000189772
8.0001e-05
1.08196e-05
1.08223e-05
8.02252e-05
0.000190477
0.000190818
8.03306e-05
1.08509e-05
1.08516e-05
8.05606e-05
0.000191538
0.000191874
8.06672e-05
1.08646e-05
1.08696e-05
8.09232e-05
0.000192616
0.000192966
8.10142e-05
1.08938e-05
1.0901e-05
8.1276e-05
0.00019374
0.000194117
8.14216e-05
1.09116e-05
1.09183e-05
8.16819e-05
0.000194918
0.000195296
8.18513e-05
1.09396e-05
1.09581e-05
8.20508e-05
0.000196094
0.000196481
8.22045e-05
1.09646e-05
1.097e-05
8.25117e-05
0.000197317
0.000197701
8.26614e-05
1.09893e-05
1.10118e-05
8.28938e-05
0.000198514
0.000198889
8.30224e-05
1.10133e-05
1.10202e-05
8.33307e-05
0.000199712
0.000200092
8.34772e-05
1.10392e-05
1.10609e-05
8.37077e-05
0.000200907
0.000201294
8.38511e-05
1.10644e-05
1.10722e-05
8.41825e-05
0.00020214
0.00020253
8.4332e-05
1.1093e-05
1.11153e-05
8.4571e-05
0.000203362
0.000203747
8.47158e-05
1.11186e-05
1.11258e-05
8.50511e-05
0.00020459
0.000204973
8.5193e-05
1.11448e-05
1.1167e-05
8.54416e-05
0.000205801
0.000206173
8.55708e-05
1.117e-05
1.11775e-05
8.59004e-05
0.000206997
0.00020736
8.60237e-05
1.11959e-05
1.12178e-05
8.62561e-05
0.000208145
0.000208488
8.63615e-05
1.12188e-05
1.12246e-05
8.66689e-05
0.000209263
0.000209578
8.67653e-05
1.12418e-05
1.12614e-05
8.69514e-05
0.000210304
0.00021055
8.69906e-05
1.12594e-05
1.12624e-05
8.72311e-05
0.00021121
0.000211458
8.7213e-05
1.12837e-05
1.12856e-05
8.73944e-05
0.000212009
0.000212196
8.73685e-05
1.12899e-05
1.12867e-05
8.74495e-05
0.000212646
0.000212725
8.73261e-05
1.13038e-05
1.12944e-05
8.7295e-05
0.000212997
0.00021299
8.71119e-05
1.12922e-05
1.12803e-05
8.70033e-05
0.000213082
0.000212967
8.67197e-05
1.12833e-05
1.12847e-05
8.64233e-05
0.000212965
0.000212704
8.60385e-05
1.12699e-05
1.12549e-05
8.57344e-05
0.000212631
0.000212175
8.52524e-05
1.12504e-05
1.12456e-05
8.47577e-05
0.000212042
0.000211389
8.4131e-05
1.12238e-05
1.1206e-05
8.36076e-05
0.000211235
0.00021034
8.27964e-05
1.1208e-05
1.11922e-05
8.2143e-05
0.000210153
0.000209111
8.12555e-05
1.11823e-05
1.117e-05
8.05657e-05
0.000209004
0.000207977
7.96797e-05
1.1176e-05
1.11907e-05
7.88591e-05
0.000207809
0.000206565
7.78503e-05
1.11866e-05
1.12116e-05
7.707e-05
0.000206636
0.000205698
7.61573e-05
1.12423e-05
1.12928e-05
7.55282e-05
0.000206018
0.000206084
7.49188e-05
1.13709e-05
1.14724e-05
7.45851e-05
0.000207342
0.000208229
7.36675e-05
1.15703e-05
1.1668e-05
7.30819e-05
0.000210397
0.000213703
7.40626e-05
1.17912e-05
1.19103e-05
7.43612e-05
0.000216363
0.00021808
7.39778e-05
1.1944e-05
1.20315e-05
7.26305e-05
0.000221411
0.00022503
7.6543e-05
1.22024e-05
1.232e-05
7.42988e-05
0.000228203
0.00023117
7.61512e-05
1.25214e-05
1.26688e-05
7.71492e-05
0.000236806
0.000238399
7.88285e-05
1.28812e-05
1.31817e-05
8.29878e-05
0.000245926
0.000247302
8.52202e-05
1.34776e-05
1.37375e-05
8.88599e-05
0.000253865
0.000255858
9.19795e-05
1.42503e-05
1.52972e-05
0.000106676
0.000267292
0.00026534
0.000112591
1.14736e-05
8.85029e-06
2.75472e-05
7.46803e-05
0.000207464
6.41021e-05
1.03902e-05
1.08918e-05
5.76341e-05
0.000190509
0.000200823
5.99931e-05
1.1169e-05
1.13667e-05
5.66183e-05
0.000191806
0.000206266
6.09125e-05
1.1678e-05
1.19967e-05
5.99655e-05
0.000203406
0.000224285
6.84788e-05
1.24065e-05
1.28688e-05
6.81869e-05
0.000220224
0.000242002
7.96587e-05
1.33805e-05
1.41127e-05
8.19887e-05
0.000244075
0.000272432
9.98082e-05
1.56547e-05
1.19272e-05
0.000109642
0.000278019
7.49742e-05
2.5993e-05
9.55748e-06
1.13244e-05
6.98565e-05
0.000233188
0.000227769
6.50236e-05
1.23016e-05
1.31045e-05
8.52084e-05
0.000281259
0.00028673
8.59577e-05
1.36243e-05
1.43741e-05
9.97292e-05
0.000318295
0.000327171
0.000106546
1.53668e-05
1.72422e-05
0.000127528
0.000357689
0.000348247
0.000137883
1.34057e-05
1.01177e-05
3.13349e-05
9.19627e-05
0.000284273
8.41971e-05
1.20865e-05
1.30815e-05
7.83555e-05
0.000279027
0.000320644
9.67606e-05
1.39732e-05
1.49607e-05
9.68833e-05
0.000316072
0.000359228
0.000123654
1.725e-05
1.37506e-05
0.000142796
0.000360439
9.78081e-05
3.13829e-05
1.0223e-05
1.26471e-05
8.81519e-05
0.000321919
0.00033184
9.30591e-05
1.43054e-05
1.66819e-05
0.000132938
0.000428802
0.000448771
0.000154698
1.93561e-05
1.58789e-05
0.000179677
0.000452543
0.000126158
3.71544e-05
1.07805e-05
1.38761e-05
0.000118539
0.000401775
0.000399707
0.000115127
1.62022e-05
2.03808e-05
0.000172766
0.000507324
0.000515089
0.000200543
1.68583e-05
1.13683e-05
4.20598e-05
0.00015708
0.000518232
0.000152446
1.60956e-05
2.02935e-05
0.000161077
0.00055715
0.000772299
0.000271966
2.77735e-05
2.31195e-05
0.000289605
0.000741547
0.000261837
6.87447e-05
1.50725e-05
2.68496e-05
0.000280728
0.000806509
0.00080694
0.000300348
2.50548e-05
1.70143e-05
7.71385e-05
0.000317393
0.00111941
0.000372215
3.73204e-05
3.68041e-05
0.000429042
0.00121589
0.00055339
0.00015285
2.33835e-05
3.72111e-05
0.000497379
0.00144978
0.000957672
0.000317517
2.47807e-05
4.59973e-05
0.000559824
0.00112925
0.000968686
0.000468334
3.78183e-05
3.83121e-05
0.000446459
0.00106248
0.00136293
0.000492821
4.39634e-05
6.07695e-05
0.000920445
0.00227264
0.000506511
0.000157506
3.45641e-05
3.53855e-05
0.000441697
0.00101216
0.00031304
0.000111891
2.4687e-05
2.67934e-05
0.00027307
0.000656171
0.000560896
0.000201283
2.69803e-05
1.49345e-05
5.18742e-05
0.000160677
0.000378894
0.00020908
1.77838e-05
1.67999e-05
6.7519e-05
0.000172824
0.000419058
0.000183821
1.91659e-05
2.04644e-05
0.000149143
0.000379249
0.000123113
4.61984e-05
1.35286e-05
1.61257e-05
0.000145632
0.00032756
0.000300839
0.000122354
1.81602e-05
1.25929e-05
3.97032e-05
0.000100471
0.000278038
0.000123738
1.46031e-05
1.67647e-05
0.000107171
0.000255589
8.86018e-05
3.68303e-05
1.2218e-05
1.37381e-05
0.000109776
0.000245211
0.000221741
9.69953e-05
1.61969e-05
1.20097e-05
3.42495e-05
7.87445e-05
0.000215568
9.89877e-05
1.30474e-05
1.56757e-05
8.77492e-05
0.000196919
7.16073e-05
3.23899e-05
1.18382e-05
1.26532e-05
9.19958e-05
0.000194835
0.000175819
8.10889e-05
1.51946e-05
1.16159e-05
3.04576e-05
6.58884e-05
0.00017717
8.49402e-05
1.21256e-05
1.49596e-05
7.58551e-05
0.00016214
6.38742e-05
3.02839e-05
1.16895e-05
1.21317e-05
8.64009e-05
0.000172844
0.000146885
6.99027e-05
1.54479e-05
1.28531e-05
5.52924e-05
0.000119341
4.74103e-05
2.18281e-05
1.06211e-05
1.01866e-05
5.82516e-05
0.000117935
0.000112062
5.41402e-05
1.30338e-05
1.04661e-05
2.18345e-05
4.56842e-05
0.00010957
5.55913e-05
1.00131e-05
1.28465e-05
5.11015e-05
0.000101499
4.26807e-05
2.13879e-05
1.04307e-05
9.72549e-06
5.18763e-05
9.69872e-05
9.29221e-05
4.93593e-05
1.25343e-05
1.02931e-05
2.0498e-05
4.04639e-05
9.2294e-05
4.99551e-05
9.66991e-06
1.24232e-05
4.69274e-05
8.68007e-05
3.86481e-05
1.99289e-05
1.01051e-05
9.39734e-06
4.58627e-05
8.40963e-05
8.06373e-05
4.47816e-05
1.22496e-05
1.01876e-05
1.93273e-05
3.64774e-05
7.94091e-05
4.47026e-05
9.24608e-06
1.215e-05
4.2388e-05
7.57053e-05
3.5204e-05
1.91051e-05
1.005e-05
9.02769e-06
4.17554e-05
7.24101e-05
7.03403e-05
3.9787e-05
1.19428e-05
9.94277e-06
1.75104e-05
3.17303e-05
6.31698e-05
4.70322e-05
8.69715e-06
1.11922e-05
2.20641e-05
3.66179e-05
8.33447e-05
4.77378e-05
9.97318e-06
1.24916e-05
4.37457e-05
7.70398e-05
3.70606e-05
2.1307e-05
1.02248e-05
9.39265e-06
4.57479e-05
7.67978e-05
7.25938e-05
4.22551e-05
1.23394e-05
1.02573e-05
2.12173e-05
3.59963e-05
7.59097e-05
4.54311e-05
9.36581e-06
1.22039e-05
4.18954e-05
7.14508e-05
3.51661e-05
2.12441e-05
1.01854e-05
9.29455e-06
4.29148e-05
6.86134e-05
6.50683e-05
3.87624e-05
1.23377e-05
1.02758e-05
2.09226e-05
3.31109e-05
6.33115e-05
3.99731e-05
9.06658e-06
1.19637e-05
3.62376e-05
5.98712e-05
2.94888e-05
1.91374e-05
9.89832e-06
8.4637e-06
3.99585e-05
5.31525e-05
3.2253e-05
2.2141e-05
1.11023e-05
9.80756e-06
3.9391e-05
6.32352e-05
5.80068e-05
3.5634e-05
1.24699e-05
1.01481e-05
2.12555e-05
3.09361e-05
5.7513e-05
3.75255e-05
9.01825e-06
1.19377e-05
3.455e-05
5.21011e-05
2.79176e-05
1.98988e-05
9.96453e-06
8.44373e-06
3.69938e-05
4.75248e-05
3.01143e-05
2.18398e-05
1.11722e-05
9.71487e-06
3.7672e-05
5.79194e-05
5.25199e-05
3.41135e-05
1.23382e-05
1.01195e-05
2.15106e-05
2.94023e-05
5.43709e-05
3.62518e-05
8.99738e-06
1.19465e-05
3.29287e-05
4.93052e-05
2.68832e-05
1.99912e-05
9.94264e-06
8.43436e-06
3.46754e-05
4.37403e-05
2.83285e-05
2.15179e-05
1.11735e-05
9.58289e-06
3.51394e-05
5.34959e-05
4.8241e-05
3.2061e-05
1.22241e-05
1.00562e-05
2.13971e-05
2.73681e-05
4.88465e-05
3.33355e-05
8.96674e-06
1.1894e-05
3.05153e-05
4.43441e-05
2.4932e-05
1.97005e-05
9.78673e-06
8.38462e-06
3.16805e-05
3.8987e-05
2.59656e-05
2.0888e-05
1.10622e-05
9.36869e-06
3.17074e-05
4.75332e-05
4.24481e-05
2.91109e-05
1.20522e-05
9.78945e-06
2.01234e-05
2.44159e-05
3.81667e-05
3.17475e-05
8.17531e-06
1.09713e-05
2.14135e-05
2.58473e-05
4.7011e-05
3.11974e-05
9.27407e-06
1.21931e-05
2.87954e-05
4.21416e-05
2.46373e-05
2.07434e-05
9.99643e-06
8.39474e-06
3.1121e-05
3.78971e-05
2.59534e-05
2.18388e-05
1.10126e-05
9.18342e-06
3.1365e-05
4.63961e-05
4.14601e-05
2.88405e-05
1.2031e-05
9.85802e-06
2.0713e-05
2.43329e-05
3.73651e-05
3.14967e-05
8.18774e-06
1.10514e-05
2.1927e-05
2.56878e-05
4.56115e-05
3.0678e-05
9.3328e-06
1.21514e-05
2.85475e-05
4.09616e-05
2.43843e-05
2.12134e-05
9.98677e-06
8.34803e-06
3.13709e-05
3.67248e-05
2.56087e-05
2.24566e-05
1.11115e-05
9.31931e-06
3.04136e-05
4.48165e-05
3.9995e-05
2.8031e-05
1.21172e-05
9.92431e-06
2.10423e-05
2.38802e-05
3.55409e-05
3.12172e-05
8.2884e-06
1.08984e-05
2.28736e-05
2.54974e-05
3.86804e-05
2.95693e-05
8.74991e-06
1.13376e-05
2.29819e-05
2.67845e-05
4.56216e-05
3.04644e-05
9.51415e-06
1.21072e-05
2.83523e-05
4.06342e-05
2.46203e-05
2.17922e-05
9.89409e-06
8.2406e-06
3.13005e-05
3.64265e-05
2.57427e-05
2.32878e-05
1.11595e-05
9.35136e-06
3.0151e-05
4.40127e-05
3.94543e-05
2.81319e-05
1.22019e-05
9.93409e-06
2.16713e-05
2.40149e-05
3.51e-05
3.08859e-05
8.40189e-06
1.10862e-05
2.33317e-05
2.56109e-05
3.80536e-05
2.93424e-05
8.96426e-06
1.13145e-05
2.35893e-05
2.67685e-05
4.48202e-05
3.02263e-05
9.37444e-06
1.21466e-05
2.8307e-05
3.99718e-05
2.46653e-05
2.2618e-05
1.00305e-05
8.2885e-06
3.13858e-05
3.57907e-05
2.65262e-05
2.44583e-05
1.11789e-05
8.9606e-06
3.05317e-05
3.91305e-05
2.77201e-05
2.50599e-05
1.14716e-05
9.56789e-06
3.06074e-05
4.58257e-05
4.09039e-05
2.88566e-05
1.23927e-05
1.0063e-05
2.31956e-05
2.53662e-05
3.63881e-05
3.24926e-05
8.34438e-06
1.1137e-05
2.48486e-05
2.69842e-05
3.92375e-05
3.09215e-05
8.9657e-06
1.14784e-05
2.52469e-05
2.79795e-05
4.59494e-05
3.10651e-05
9.56718e-06
1.23256e-05
2.9325e-05
4.10505e-05
2.58188e-05
2.39906e-05
1.01604e-05
8.47833e-06
3.2668e-05
3.6857e-05
2.76234e-05
2.57326e-05
1.13567e-05
9.18548e-06
3.15883e-05
3.99366e-05
2.86766e-05
2.61308e-05
1.15287e-05
9.54066e-06
3.13509e-05
4.6445e-05
4.14411e-05
2.9547e-05
1.22428e-05
1.01652e-05
2.38137e-05
2.58008e-05
3.63394e-05
3.25161e-05
8.46345e-06
1.13633e-05
2.54055e-05
2.7217e-05
3.88766e-05
3.10145e-05
9.1377e-06
1.16261e-05
2.59327e-05
2.80943e-05
4.48525e-05
3.06456e-05
9.6308e-06
1.24265e-05
2.91275e-05
4.01785e-05
2.56343e-05
2.4156e-05
1.03304e-05
8.51069e-06
3.24765e-05
3.60846e-05
2.73086e-05
2.56172e-05
1.1295e-05
8.92384e-06
3.05902e-05
3.854e-05
2.86862e-05
2.61691e-05
1.1414e-05
9.08333e-06
3.12901e-05
4.01198e-05
2.95175e-05
2.77721e-05
1.15833e-05
9.648e-06
3.19703e-05
4.60552e-05
4.11654e-05
3.0356e-05
1.23685e-05
1.00982e-05
2.50916e-05
2.65002e-05
3.69694e-05
3.36577e-05
8.52166e-06
1.13615e-05
2.62981e-05
2.80753e-05
3.88766e-05
3.1047e-05
9.16978e-06
1.15353e-05
2.66252e-05
2.91836e-05
4.02374e-05
3.16395e-05
9.13831e-06
1.15996e-05
2.81615e-05
2.98391e-05
4.60884e-05
3.21895e-05
9.6306e-06
1.23886e-05
3.06448e-05
4.13229e-05
2.70354e-05
2.57687e-05
1.03234e-05
8.51799e-06
3.41106e-05
3.7311e-05
2.86226e-05
2.71419e-05
1.14872e-05
9.19388e-06
3.16124e-05
3.97687e-05
3.00125e-05
2.76288e-05
1.16569e-05
9.30693e-06
3.26001e-05
4.11908e-05
3.082e-05
2.93274e-05
1.17794e-05
9.81164e-06
3.32187e-05
4.70051e-05
4.21731e-05
3.15804e-05
1.25245e-05
1.03274e-05
2.63709e-05
2.78773e-05
3.78075e-05
3.47984e-05
8.56639e-06
1.1558e-05
2.76649e-05
2.92831e-05
3.98472e-05
3.20142e-05
9.15766e-06
1.16643e-05
2.77719e-05
3.02159e-05
4.08958e-05
3.24443e-05
9.26811e-06
1.18459e-05
2.94128e-05
3.0889e-05
4.61882e-05
3.28254e-05
9.79167e-06
1.25943e-05
3.15545e-05
4.18255e-05
2.80758e-05
2.68973e-05
1.0329e-05
8.7893e-06
3.45475e-05
3.76393e-05
2.95712e-05
2.8199e-05
1.16129e-05
9.22563e-06
3.25117e-05
4.00322e-05
3.0665e-05
2.84267e-05
1.16299e-05
9.16082e-06
3.25015e-05
4.09555e-05
3.14143e-05
2.91468e-05
1.16435e-05
9.33182e-06
3.3976e-05
4.20335e-05
3.19608e-05
3.0857e-05
1.17848e-05
9.80942e-06
3.4269e-05
4.74736e-05
4.2931e-05
3.27742e-05
1.25709e-05
1.04933e-05
2.73624e-05
2.90383e-05
3.809e-05
3.54729e-05
8.62014e-06
1.17437e-05
2.86452e-05
3.02323e-05
3.99556e-05
3.25238e-05
9.34597e-06
1.18404e-05
2.89271e-05
3.11186e-05
4.10273e-05
3.27383e-05
9.30336e-06
1.17654e-05
2.99828e-05
3.19038e-05
4.24931e-05
3.45577e-05
9.41419e-06
1.18884e-05
3.16501e-05
3.25914e-05
4.8242e-05
3.50342e-05
9.86692e-06
1.27066e-05
3.36481e-05
4.3776e-05
3.01521e-05
2.88882e-05
1.05502e-05
8.70943e-06
3.71163e-05
3.95673e-05
3.14686e-05
3.01745e-05
1.16886e-05
9.2215e-06
3.42856e-05
4.19295e-05
3.25939e-05
3.02502e-05
1.18111e-05
9.39476e-06
3.4466e-05
4.29404e-05
3.3395e-05
3.13116e-05
1.18189e-05
9.41647e-06
3.61612e-05
4.41881e-05
3.40196e-05
3.2922e-05
1.19434e-05
1.00015e-05
3.62617e-05
4.95068e-05
4.50332e-05
3.4739e-05
1.27378e-05
1.06448e-05
2.95537e-05
3.11946e-05
4.00326e-05
3.74184e-05
8.86201e-06
1.18976e-05
3.07885e-05
3.24056e-05
4.2005e-05
3.47221e-05
9.45414e-06
1.20232e-05
3.07406e-05
3.33141e-05
4.2775e-05
3.42885e-05
9.50921e-06
1.20041e-05
3.18187e-05
3.38643e-05
4.41294e-05
3.6192e-05
9.62517e-06
1.20972e-05
3.3733e-05
3.44222e-05
4.95122e-05
3.68942e-05
1.002e-05
1.29126e-05
3.55765e-05
4.53935e-05
3.19665e-05
3.06734e-05
1.07032e-05
8.89253e-06
3.87532e-05
4.10356e-05
3.33388e-05
3.18897e-05
1.19154e-05
9.45959e-06
3.57386e-05
4.31587e-05
3.4432e-05
3.19609e-05
1.20534e-05
9.55579e-06
3.5691e-05
4.42701e-05
3.52183e-05
3.2932e-05
1.19981e-05
9.61428e-06
3.75218e-05
4.54055e-05
3.56072e-05
3.46024e-05
1.20889e-05
1.00461e-05
3.76268e-05
5.04902e-05
4.6239e-05
3.62992e-05
1.29778e-05
1.08481e-05
3.11207e-05
3.26971e-05
4.09154e-05
3.89937e-05
8.92333e-06
1.207e-05
3.23124e-05
3.38164e-05
4.23957e-05
3.55466e-05
9.52817e-06
1.21512e-05
3.23183e-05
3.45488e-05
4.33326e-05
3.53857e-05
9.62445e-06
1.20797e-05
3.32489e-05
3.51877e-05
4.45807e-05
3.69795e-05
9.61854e-06
1.20371e-05
3.43804e-05
3.6145e-05
4.62322e-05
3.8783e-05
9.61495e-06
1.21466e-05
3.61281e-05
3.66727e-05
5.19744e-05
3.9069e-05
1.01093e-05
1.31328e-05
3.78419e-05
4.7883e-05
3.4396e-05
3.32887e-05
1.08758e-05
9.06037e-06
4.1231e-05
4.32605e-05
3.58899e-05
3.46554e-05
1.20867e-05
9.64943e-06
3.83304e-05
4.55095e-05
3.69659e-05
3.47607e-05
1.21994e-05
9.66502e-06
3.86481e-05
4.68301e-05
3.78907e-05
3.57203e-05
1.21061e-05
9.67815e-06
4.04215e-05
4.8487e-05
3.869e-05
3.75617e-05
1.22507e-05
1.02465e-05
4.06486e-05
5.37702e-05
4.93245e-05
3.93156e-05
1.32794e-05
1.0994e-05
3.43864e-05
3.56758e-05
4.4324e-05
4.25277e-05
9.13358e-06
1.22324e-05
3.56405e-05
3.71877e-05
4.5838e-05
3.92161e-05
9.7569e-06
1.23117e-05
3.53576e-05
3.78029e-05
4.648e-05
3.86814e-05
9.83023e-06
1.2255e-05
3.62981e-05
3.83603e-05
4.7723e-05
4.02997e-05
9.78875e-06
1.24082e-05
3.81484e-05
3.87922e-05
5.30775e-05
4.06634e-05
1.03289e-05
1.35363e-05
3.9709e-05
4.904e-05
3.63005e-05
3.55023e-05
1.11328e-05
9.21115e-06
4.30701e-05
4.45748e-05
3.78427e-05
3.68342e-05
1.2313e-05
9.84908e-06
4.02503e-05
4.67231e-05
3.89346e-05
3.69269e-05
1.23995e-05
9.80996e-06
4.03317e-05
4.78282e-05
3.96131e-05
3.78156e-05
1.23259e-05
9.89939e-06
4.16632e-05
4.94568e-05
4.04706e-05
3.98619e-05
1.25948e-05
1.04744e-05
4.23696e-05
5.48382e-05
5.05082e-05
4.1335e-05
1.36356e-05
1.12494e-05
3.68984e-05
3.77646e-05
4.60584e-05
4.4958e-05
9.30713e-06
1.2393e-05
3.79089e-05
3.92614e-05
4.75035e-05
4.11912e-05
9.88751e-06
1.25659e-05
3.78504e-05
3.99781e-05
4.82259e-05
4.09845e-05
9.9427e-06
1.2596e-05
3.89645e-05
4.06403e-05
4.95653e-05
4.24139e-05
1.0026e-05
1.28741e-05
4.11407e-05
4.11957e-05
5.50515e-05
4.3124e-05
1.07794e-05
1.40714e-05
4.24155e-05
5.10948e-05
3.91404e-05
3.88756e-05
1.15809e-05
9.62902e-06
4.62305e-05
4.73709e-05
4.07726e-05
4.00534e-05
1.26344e-05
1.00612e-05
4.38182e-05
4.96504e-05
4.19364e-05
4.02464e-05
1.28e-05
1.00589e-05
4.37283e-05
5.10846e-05
4.24792e-05
4.18555e-05
1.30052e-05
1.09189e-05
4.37422e-05
5.59756e-05
5.17446e-05
4.30537e-05
1.43422e-05
1.1819e-05
3.9197e-05
3.97528e-05
4.71236e-05
4.64538e-05
9.71325e-06
1.29017e-05
4.04304e-05
4.12026e-05
4.87869e-05
4.3604e-05
1.02749e-05
1.30799e-05
4.05073e-05
4.19903e-05
4.99754e-05
4.30407e-05
1.03065e-05
1.33526e-05
4.25487e-05
4.24689e-05
5.49128e-05
4.38228e-05
1.10469e-05
1.45676e-05
4.34403e-05
5.11733e-05
4.03743e-05
4.04749e-05
1.1851e-05
9.83088e-06
4.72094e-05
4.75988e-05
4.18384e-05
4.16216e-05
1.29719e-05
1.02446e-05
4.39783e-05
4.98326e-05
4.31283e-05
4.20657e-05
1.32671e-05
1.05255e-05
4.46366e-05
5.13435e-05
4.38451e-05
4.39388e-05
1.35163e-05
1.11886e-05
4.49709e-05
5.59627e-05
5.21808e-05
4.46992e-05
1.48664e-05
1.21924e-05
4.12727e-05
4.16426e-05
4.79463e-05
4.81212e-05
9.87957e-06
1.33433e-05
4.2716e-05
4.29279e-05
4.98653e-05
4.51154e-05
1.05752e-05
1.35183e-05
4.30097e-05
4.3824e-05
5.13178e-05
4.47756e-05
1.06538e-05
1.38955e-05
4.5268e-05
4.44652e-05
5.65286e-05
4.59066e-05
1.15618e-05
1.52432e-05
4.5782e-05
5.28966e-05
4.29198e-05
4.34891e-05
1.23808e-05
1.01596e-05
4.9966e-05
4.98168e-05
4.46141e-05
4.50756e-05
1.36682e-05
1.08522e-05
4.74469e-05
5.2407e-05
4.60383e-05
4.55351e-05
1.39803e-05
1.11163e-05
4.71949e-05
5.42363e-05
4.70977e-05
4.78799e-05
1.44276e-05
1.19814e-05
4.85057e-05
5.93738e-05
5.5645e-05
4.85015e-05
1.58585e-05
1.28942e-05
4.57763e-05
4.55951e-05
5.19811e-05
5.24359e-05
1.05339e-05
1.40425e-05
4.72283e-05
4.69327e-05
5.44199e-05
4.92468e-05
1.11824e-05
1.4725e-05
4.88205e-05
4.7937e-05
5.92991e-05
4.88102e-05
1.22384e-05
1.61362e-05
4.84954e-05
5.58535e-05
4.59749e-05
4.67843e-05
1.32593e-05
1.0715e-05
5.28321e-05
5.24009e-05
4.79039e-05
4.86379e-05
1.44715e-05
1.15328e-05
5.04926e-05
5.53756e-05
4.94252e-05
4.9559e-05
1.4929e-05
1.18612e-05
5.0628e-05
5.76744e-05
5.08482e-05
5.23827e-05
1.54455e-05
1.28391e-05
5.256e-05
6.34129e-05
5.94977e-05
5.27383e-05
1.6986e-05
1.38664e-05
5.09334e-05
4.99048e-05
5.64449e-05
5.7339e-05
1.12471e-05
1.50777e-05
5.24259e-05
5.17141e-05
5.9529e-05
5.39967e-05
1.20764e-05
1.58707e-05
5.43198e-05
5.28977e-05
6.50949e-05
5.39941e-05
1.29707e-05
1.73413e-05
5.42101e-05
6.15444e-05
5.20242e-05
5.34017e-05
1.46102e-05
1.19947e-05
5.87822e-05
5.84424e-05
5.3757e-05
5.52758e-05
1.59544e-05
1.27834e-05
5.63723e-05
6.20345e-05
5.54986e-05
5.75308e-05
1.67937e-05
1.40009e-05
5.68134e-05
6.79599e-05
6.42258e-05
5.71611e-05
1.85194e-05
1.51469e-05
5.60348e-05
5.46687e-05
6.13923e-05
6.1775e-05
1.22713e-05
1.672e-05
5.88603e-05
5.63456e-05
6.77688e-05
5.77284e-05
1.39417e-05
1.863e-05
5.77364e-05
6.45375e-05
5.49669e-05
5.57669e-05
1.51685e-05
1.21128e-05
6.24342e-05
6.12209e-05
5.66104e-05
5.76418e-05
1.65172e-05
1.32348e-05
5.82278e-05
6.39625e-05
5.78769e-05
5.99473e-05
1.75802e-05
1.46369e-05
5.85775e-05
6.94198e-05
6.60915e-05
5.9434e-05
1.94838e-05
1.59572e-05
5.89032e-05
5.74102e-05
6.32675e-05
6.37085e-05
1.30779e-05
1.77819e-05
6.22549e-05
5.89757e-05
6.95065e-05
6.03289e-05
1.49005e-05
1.98992e-05
6.05581e-05
6.64756e-05
5.83607e-05
6.01542e-05
1.63984e-05
1.32501e-05
6.48787e-05
6.39866e-05
5.95234e-05
6.29606e-05
1.78817e-05
1.46033e-05
6.0557e-05
6.99821e-05
6.70741e-05
6.11606e-05
1.99522e-05
1.66771e-05
6.05962e-05
5.89451e-05
6.44279e-05
6.47801e-05
1.36645e-05
1.86179e-05
6.43037e-05
6.05924e-05
7.01951e-05
6.1535e-05
1.54394e-05
2.08382e-05
6.21377e-05
6.73981e-05
6.02056e-05
6.24347e-05
1.71373e-05
1.38756e-05
6.63137e-05
6.5227e-05
6.16901e-05
6.57162e-05
1.88312e-05
1.55553e-05
6.27568e-05
7.14512e-05
6.86392e-05
6.32173e-05
2.096e-05
1.72138e-05
6.3315e-05
6.12206e-05
6.63926e-05
6.84778e-05
1.34882e-05
1.88285e-05
6.66987e-05
6.26919e-05
7.21912e-05
6.30808e-05
1.58638e-05
2.17019e-05
6.38934e-05
6.94582e-05
6.2884e-05
6.62678e-05
1.80768e-05
1.48021e-05
6.8752e-05
6.79752e-05
6.49181e-05
7.04398e-05
2.01086e-05
1.67396e-05
6.65807e-05
7.49908e-05
7.22165e-05
6.74222e-05
2.24485e-05
1.85489e-05
6.90621e-05
6.57926e-05
7.09139e-05
7.2017e-05
1.50189e-05
2.04963e-05
7.34357e-05
6.77799e-05
7.85857e-05
7.00254e-05
1.68862e-05
2.24887e-05
6.99629e-05
7.5782e-05
6.88683e-05
7.48433e-05
1.9639e-05
1.69362e-05
7.4409e-05
7.77559e-05
7.52948e-05
7.41478e-05
2.35418e-05
1.9892e-05
7.40426e-05
7.00338e-05
7.5802e-05
7.62832e-05
1.63621e-05
2.21446e-05
7.82282e-05
7.26381e-05
8.27001e-05
7.36076e-05
1.84895e-05