/*--------------------------------*- C++ -*----------------------------------*\
| =========                 |                                                 |
| \\      /  F ield         | OpenFOAM: The Open Source CFD Toolbox           |
|  \\    /   O peration     | Version:  v2006                                 |
|   \\  /    A nd           | Website:  www.openfoam.com                      |
|    \\/     M anipulation  |                                                 |
\*---------------------------------------------------------------------------*/
FoamFile
{
    version     2.0;
    format      ascii;
    class       volScalarField;
    location    "0.12";
    object      omega;
}
// * * * * * * * * * * * * * * * * * * * * * * * * * * * * * * * * * * * * * //

dimensions      [0 0 -1 0 0 0 0];


internalField   nonuniform List<scalar> 
16277
(
0.00810515
0.0081052
0.00810422
0.00810392
0.00810303
0.00810314
0.0081029
0.00810149
0.00809775
0.00809147
0.00808289
0.00807268
0.00806154
0.00804989
0.00803787
0.00802545
0.00801255
0.00799907
0.00798495
0.00797014
0.00795464
0.00793844
0.00792156
0.00790402
0.00788582
0.00786698
0.00784751
0.0078274
0.00780669
0.00778537
0.00776347
0.00774099
0.00771795
0.00769437
0.00767027
0.00764567
0.00762059
0.00759505
0.00756907
0.00754267
0.00751589
0.00748874
0.00746125
0.00743346
0.00740538
0.00737704
0.00734848
0.00731972
0.0072908
0.00726175
0.00723259
0.00720336
0.0071741
0.00714483
0.0071156
0.00708642
0.00705734
0.0070284
0.00699963
0.00697107
0.00694277
0.00691478
0.00688719
0.00686016
0.00683406
0.00680969
0.00678896
0.00677661
0.00678509
0.0068436
0.00700282
0.00737717
0.00820687
0.00999173
0.0137342
0.0213652
0.0365718
0.0665366
0.125291
0.238472
0.453803
0.842528
1.407
1.82865
2.49788
2.99647
3.63689
6.6259
11.4692
14.4724
12.972
34.241
105.412
397.789
3406.77
18601.1
254898
251709
37848.5
8637.94
15117.7
52962.8
248574
245278
54893.1
17469.8
20705.9
58055.5
236456
232034
57495
21300.6
23279.4
58848.2
226110
223289
58184.9
23405.7
24488.9
58586.6
218920
216054
57190.3
24344
24967.3
57662.9
212519
210464
56434
24791.7
25247.6
56963.7
207750
206195
55926.7
25050.7
25438.4
56494.8
204000
202775
55590.6
25235.3
25590.3
56182.9
200921
199916
55356.6
25384.8
25720.4
55973
198291
197433
55192.8
25514.5
25837.5
55833.6
195972
195220
55088.4
25631.9
25945.6
55741.8
193877
193200
55020.1
25740.1
26045
55677.3
191943
191319
54970.9
25839.2
26137
55626.2
190128
189543
54930.3
25929.5
26221.4
55580.8
188404
187849
54892.5
26010.8
26296.6
55536.3
186750
186217
54853.8
26082.8
26362.8
55489.8
185150
184634
54812
26146
26420.6
55439.3
183593
183090
54764.6
26201.1
26470.9
55382.5
182071
181577
54710.4
26249.1
26514.4
55318.8
180575
180089
54649.1
26290.8
26552.2
55247.9
179102
178620
54580.3
26327
26584.6
55169.2
177644
177165
54503.3
26358.1
26612.2
55081.9
176197
175719
54417.5
26384.3
26635.1
54985.6
174755
174277
54322.4
26406.1
26653.5
54880
173315
172835
54217.8
26423.6
26667.9
54764.4
171871
171386
54103.1
26437
26678.1
54638.5
170419
169928
53977.8
26446.4
26684.2
54501.6
168955
168457
53841.3
26451.7
26686.2
54353.1
167475
166968
53692.8
26452.8
26683.8
54192.1
165975
165458
53531.6
26449.4
26676.7
54017.9
164453
163925
53356.7
26441.3
26664.5
53829.4
162907
162367
53167.3
26427.8
26646.7
53625.6
161334
160782
52960.5
26408.5
26622.5
53404.7
159733
159171
52731.6
26382.3
26590.9
53164.7
158106
157533
52485.2
26348.5
26551.2
52906.1
156453
155871
52218.1
26306.1
26502.3
52626.1
154777
154189
51927.8
26253.9
26442.7
52322.2
153082
152490
51611.7
26190.3
26370.6
51991.6
151375
150783
51266.9
26113.1
26283.5
51631.6
149664
149078
50889.8
26016.5
26178
51238.4
147961
147389
50476.7
25897.6
26051.4
50808.5
146282
145732
50024.3
25756.9
25901.5
50338.7
144646
144131
49529.1
25589.7
25723.9
49825.5
143078
142609
48987
25391.5
25513.9
49265.3
141604
141200
48395.3
25157.6
25267
48655.1
140258
139941
47759.7
24884.4
24979.7
47997.7
139085
138866
47101.7
24571.6
24652.2
47313.1
138140
138018
46412.5
24210.8
24278.2
46598.2
137442
137424
45701
23807.9
23865
45867.1
137045
137110
44988.2
23373.9
23424.1
45140.6
136901
137093
44299.1
22924.2
22971
44451.8
137044
137381
43654.8
22466.1
22512
43823.1
137433
137949
43083.4
22012.3
22064
43270.2
138106
138772
42619.4
21592.5
21656
42831.1
139007
139778
42265.9
21225
21304.1
42530
140070
140914
42005.1
20916.4
21012.6
42349.4
141247
142145
41864.4
20669.8
20783.2
42266.9
142507
143436
41833.8
20485.1
20616
42296.9
143810
144743
41912.8
20361.8
20510.1
42431.4
145116
146035
42089.7
20294.7
20461.6
42657.1
146395
147278
42353.8
20268.3
20463.7
42959.3
147616
148447
42686
20294.4
20518
43345.7
148755
149521
43074.2
20369.7
20635.2
43809.9
149795
150484
43533.8
20494.4
20785.7
44304.5
150718
151321
44020.1
20649
20958.5
44811.1
151511
152029
44515.5
20823.6
21146.2
45312.5
152176
152605
45005.1
21013.3
21348.1
45803.2
152707
153049
45481.1
21216.5
21551.5
46261.2
153122
153400
45923.4
21416.5
21750.3
46683.9
153435
153647
46331.6
21612.2
21943.8
47069
153652
153803
46702.6
21801.9
22127.8
47414.1
153789
153894
47034.9
21981.4
22298.8
47719
153865
153934
47327.9
22147.7
22456.4
47987.5
153891
153934
47586.4
22301.7
22596.2
48217.7
153877
153912
47802.6
22434.6
22724.6
48427.1
153822
153840
48006.5
22563.3
22845.5
48613.2
153731
153752
48176.7
22678.3
22948.7
48766.5
153634
153650
48317.2
22777.9
23040.7
48896.3
153519
153530
48439.3
22867.4
23125.9
49011.4
153388
153397
48549.2
22948.5
23203
49113.2
153246
153254
48644.3
23021.1
23271.3
49200.1
153100
153104
48725.9
23085.3
23332
49274.9
152945
152950
48797.3
23142.2
23385.4
49342.2
152817
152761
48854.6
23189.2
23445.5
49403.1
152691
152604
48948.5
23224.8
23467.2
49571.6
152644
151979
48745.6
23127.3
23266.2
48761.1
151437
149538
48552.6
22986.7
21914.1
46332.2
147109
138347
48502.9
22439.1
15525.4
27068.6
124054
139408
60765.9
28151.4
13622.3
7035.81
4374.12
3429.63
3055.14
2533.26
2312.58
2154.64
2089.04
2072.3
2105.87
2203.54
2337.69
2582.03
2861.04
3452.85
3781.94
4729.68
5754.14
7585.11
11739.3
22966.7
55653
128596
405883
435483
139255
61058.4
64558.9
147084
461132
483181
153588
68132.4
68303.9
155013
489407
495242
156286
69538
69730.1
157865
498948
499534
158265
69996
69923.5
158275
499328
499692
158315
69936.5
69931.1
158340
499525
499636
158327
69900.3
69889.5
158335
499766
499614
158321
69860.2
69831.7
158326
500313
500172
158293
69807.2
69779.1
158288
500302
500175
158270
69742
69721.8
158270
500597
501042
158186
69672.4
69648.2
158214
500612
501078
158148
69612.8
69597.1
158202
501226
501667
158109
69561.2
69542.3
158155
501247
501684
158066
69503.2
69488.3
158130
501855
502285
158008
69446.9
69433
158075
501890
502329
157985
69398.8
69385
158041
502488
502951
157953
69358.2
69339.8
157999
502542
502993
157914
69302.8
69280.6
157954
503166
503623
157831
69240.8
69227.8
157887
503529
503421
157841
69188.3
69172.8
157842
503884
504356
157758
69131.7
69114.9
157787
504244
504172
157773
69094.5
69089.5
157791
504630
505104
157736
69074.3
69069.4
157782
504995
504900
157763
69053
69042.7
157787
505354
505837
157717
69017.7
69011
157767
505736
505654
157756
68997.7
68995.6
157808
506121
506610
157770
68987
68987.4
157850
506503
506425
157853
68981.9
68985.7
157937
506891
507384
157922
68982.9
68987.7
158031
507273
507189
158060
68985.1
68991.2
158175
507647
508132
158184
68988.7
69005.2
158338
508024
507951
158418
69020
69057.2
158610
508391
508855
158684
69068.4
69079.6
158875
508419
508872
158968
69078.7
69095.3
159205
509021
509448
159333
69104.2
69148.3
159637
509013
509401
159858
69171.1
69212.3
160208
509511
509879
160418
69229.2
69265.5
160801
509685
509479
161104
69269.9
69276.2
161492
509846
510237
161787
69271.8
69276.5
162249
510045
509856
162623
69253.3
69242.6
163084
510222
510644
163425
69184.3
69150.5
163915
510228
510739
164241
69046.4
68971.4
164718
511018
511650
164972
68801.3
68667.4
165365
511776
512096
165635
68508.1
68442.7
166043
512975
513772
166220
68192.9
67997.4
166313
514712
515794
166273
67604.1
67080.9
165988
517234
519111
165390
66475.6
65959.3
164730
521228
523572
163697
65211
64098.4
160224
520918
518268
156597
63270.1
62698.5
154481
524690
522087
155408
62195
61176.5
146802
514344
511351
148014
61010.2
60436.9
143473
503283
496408
141120
60064.3
60132.9
138256
484790
470105
133456
59883.9
60251.6
131020
459701
452939
129906
60776.4
61605.7
130155
434981
406726
121081
62274.4
63928.1
120229
595878
974664
352499
141486
69452.1
172730
728163
656608
187192
74571.8
71760.4
176662
649142
642977
181908
74042.4
70940.8
169894
624292
602020
171348
71857.3
68497.9
155508
574909
548800
157717
70108
68281.7
144467
520412
489243
145112
69181.1
68237.3
133403
446413
637568
128508
69513.1
146672
365100
1.00354e+06
718396
165923
71551.6
74345.2
176980
605278
548073
145234
66700.4
67266.2
146900
513156
478103
136412
65407
65801.7
133210
446670
412751
124406
65225.7
68085.3
123506
597430
938343
341035
140625
72410.2
155839
683871
594410
167544
75425.9
71783
149349
557279
518444
153753
73915.2
73208
140621
468615
666875
134023
75633.4
153905
362938
1.01218e+06
704912
172679
78273
79510.9
172819
578667
502603
145107
71098.2
71694.3
136904
450898
654940
135739
75068.6
153109
363591
998050
705181
162868
80061.2
82928.7
175721
581195
512782
151313
77054.8
79588.6
145319
719578
1.04184e+06
379870
160904
80907.5
169297
705301
551771
174401
80345.8
69078.1
137794
486215
664685
139541
74207.8
149150
343345
902041
623327
153395
74919.2
78316.3
157089
788427
986019
370232
153999
66459.5
150548
656615
792619
146263
65245.9
128141
288404
833977
1.01279e+06
163628
64913.9
91553.7
198682
809459
827205
160516
58691.4
71129
191384
993482
1.02878e+06
196839
73012.1
65746.5
175159
915613
800491
104078
39069.6
153620
341378
806636
935815
160994
81528.1
186070
374626
846899
781518
189823
99428.5
105709
214934
673334
1.11527e+06
470988
225982
127502
178503
959562
828524
368509
190511
103231
175094
696840
576137
186226
104433
192693
393195
917156
717540
171171
107024
106153
180097
575512
926680
389073
189668
106302
168046
713398
571099
175479
105586
186184
380615
912947
698663
163458
103906
102637
170312
564742
908032
378564
181144
102002
161944
685788
551654
168653
100761
178372
368424
884593
658225
157385
100503
99787.4
164819
535812
874617
363805
175265
98709.8
155046
646259
520904
160943
97323
167083
343386
828433
601637
144202
94410.4
94775
162379
463987
636754
185889
101503
191386
416625
1.04544e+06
748215
170925
105205
102576
174536
598380
988625
396757
185446
103002
163614
716901
579090
173639
102557
184128
385326
971081
710084
162207
103514
102095
168577
576782
961127
386230
182025
101609
160337
695673
567662
170161
101811
183030
388745
966867
702431
162974
102577
101807
168014
564428
953997
389862
183444
102017
160975
694392
563147
170553
102003
184135
390035
970958
722380
163657
103244
102774
172888
593122
1.04271e+06
420245
194375
112233
145297
818862
734249
318295
164698
92842.1
141566
558826
476323
154223
94631.3
169374
348459
824359
614137
147896
96115.6
97076
158040
501659
843244
351142
171257
96429.8
148684
621783
512734
156848
96871.2
175272
365681
875052
651781
152540
98079.6
98718.8
163364
531962
903954
376081
178490
99819.9
158542
679120
566922
169484
100620
194940
419858
1.01812e+06
811825
144875
113631
171240
325088
743259
579664
152028
96521.8
98372.4
163742
497746
870191
365806
178549
101850
158503
662857
550877
167301
102389
193332
409588
968731
784237
144628
113369
169204
321929
721101
558782
148355
95550.6
97859.4
162379
486977
859530
364732
177120
101717
158008
652384
550451
172029
102899
196528
416703
987688
796683
148610
116029
173804
330134
736129
578680
154199
98960.8
101144
169103
506376
893530
376461
184431
105666
164576
669652
569349
179091
106559
204924
438359
1.02311e+06
823423
155129
120535
181202
344551
761348
593993
160854
103143
106448
179839
527026
982519
422451
202721
120688
152042
807899
762020
337854
180256
103084
162760
599025
520359
178709
105558
200964
419135
948000
786446
158278
121065
179435
335303
742530
590777
160856
103556
107125
180710
520427
968182
429727
204717
123150
155819
811856
762348
342393
183089
106031
165890
598257
528745
185605
109422
207988
426235
968535
803091
156799
125079
184550
339479
763913
614961
167426
106958
110534
187797
550547
1.0159e+06
450206
213812
130033
157244
856523
835394
367978
196286
119498
158422
714943
684087
330715
177872
106554
167670
562773
514054
189471
111029
210410
433018
967750
810544
161530
128090
188930
344910
768012
618217
172723
110859
114524
195151
556837
1.03814e+06
460822
220426
134288
164402
874980
846910
374875
201410
123124
163220
731092
715303
336212
182128
109681
173153
587244
528883
193555
114231
218094
443413
989717
845801
165154
133257
196893
358369
817555
714680
157169
122036
181626
331646
701927
583681
175222
109827
115306
199287
531349
990437
446209
218909
135176
164442
853017
835937
367870
200845
124624
161041
722298
707317
337688
184284
111572
176471
581029
529299
198919
116824
220588
444783
984399
836543
168825
136265
200962
364209
815959
717704
162521
125526
186006
339882
716160
601202
180452
113203
119310
205179
554400
1.04589e+06
462688
230015
142294
173845
899017
881168
382597
211026
131296
165533
757648
751437
356098
195423
118407
187927
617029
560720
211154
124058
235592
472418
1.04168e+06
891433
178899
145390
214801
392556
886708
773206
171417
134565
201017
364464
778725
706472
170066
128934
190767
342196
704889
587650
183625
117565
124532
210489
546593
1.03878e+06
476877
235490
147245
178772
908702
903501
399016
218877
138492
179948
790226
798534
376145
205126
132718
174435
715375
714954
351702
195532
121129
189514
603922
557258
213250
127476
239546
473950
1.04225e+06
906580
182957
149980
220595
399601
898925
781814
178869
139383
206718
372040
789142
708497
174959
133951
196802
353169
711842
602834
190989
122251
129477
216645
559842
1.05511e+06
482300
243295
153044
187573
923307
920130
407752
225119
143809
182419
815051
832895
390886
214472
139631
183850
747416
745910
368065
204226
127362
198851
624123
580630
225387
133758
250754
499596
1.08384e+06
929796
191525
158059
232083
414858
925520
814146
187105
147441
219067
397498
837097
774661
188816
143349
211596
380971
794809
719069
182828
140101
205238
361231
729561
628025
201053
128832
136322
228698
588835
1.12124e+06
510358
257179
162516
199883
971891
965302
432242
239000
153434
193888
838000
856050
407505
226175
148935
194909
783130
804004
390147
218019
144183
188811
733551
744309
369797
209219
131453
203693
628805
582002
228250
138367
256523
499993
1.07969e+06
927810
196729
163334
241247
429170
936529
834306
196443
154050
227732
407026
852343
772863
195080
149855
220411
391925
799113
734761
191469
146553
212398
370378
743088
633034
207504
134662
142366
236247
596402
1.11613e+06
514292
263779
168625
207635
966590
976810
440714
245914
159472
201082
871336
893196
420298
234982
155944
202860
809741
832119
404552
227778
151547
197174
745416
756821
382101
219597
139521
212208
639313
598423
239805
146326
268028
519879
1.11576e+06
966820
208594
171249
251274
445337
977764
863051
204833
161916
237216
420231
881829
804068
204416
157486
230455
406593
833481
758751
200198
154256
223890
389818
775712
662445
218836
142594
150596
249916
626205
1.17975e+06
541502
279743
179188
219186
1.01194e+06
1.02476e+06
468617
262602
170279
215419
898921
916977
439445
248905
165995
214828
838400
872323
425234
241908
162597
209987
797319
830289
410672
235528
158271
204808
758612
772056
391599
227040
144766
219814
645830
608284
248225
152154
277281
531987
1.12688e+06
967666
215795
178655
259371
451494
975015
856761
212143
168280
245555
430084
881739
798716
211345
163872
238113
415630
830806
758501
208678
159916
229793
392800
770343
653055
222716
147266
155967
253539
621265
1.15295e+06
542978
285079
183969
223580
991646
1.00192e+06
466516
266651
174683
220136
894153
923117
446312
254147
171126
220157
830032
863849
430086
247556
167239
216394
786198
803603
409216
239604
153529
231729
670418
632707
260666
161249
292300
558103
1.16755e+06
1.00194e+06
229918
189063
272514
470969
1.0042e+06
880297
223411
177774
257404
447824
907258
825861
222318
172730
249372
430302
859384
775163
218740
168182
240343
408695
795972
672893
232730
154908
163929
265107
643339
1.18498e+06
564925
296982
192585
233823
1.02619e+06
1.0447e+06
488000
279665
183735
232197
913749
943281
466149
266410
179855
232113
850626
884787
446324
259146
175512
227515
800240
819655
422547
249963
161024
240363
682876
651077
270119
168861
300669
564910
1.17652e+06
1.00686e+06
239186
195629
281769
483823
1.02534e+06
895318
229890
184468
266463
457597
927931
837235
229607
178896
258507
440747
861700
723731
251760
165345
174847
285185
692509
1.26334e+06
601359
319602
206932
254802
1.07876e+06
1.0924e+06
513349
297465
195042
242456
950101
983917
484721
281108
188383
242666
865665
884928
457695
270107
172837
259915
738817
704404
291232
181193
325094
616865
1.26904e+06
1.08626e+06
257247
211104
302576
515820
1.10159e+06
950578
247001
197955
286141
490359
985357
880339
247606
191606
276642
470107
913726
765563
267498
177017
186577
303516
730300
1.32761e+06
634205
338223
219064
270573
1.12776e+06
1.14213e+06
540522
314698
206402
256248
980143
1.01881e+06
505650
295741
198456
256007
899612
925652
478050
283582
181535
272562
771372
740325
303799
190058
340045
629670
1.32217e+06
1.11211e+06
269179
220467
317418
540857
1.13342e+06
977844
259316
207092
297660
505452
1.01554e+06
893541
257960
199608
286826
481795
928724
780228
276762
183955
193467
311545
751094
1.33652e+06
647924
347486
225768
278725
1.12458e+06
1.14858e+06
547449
323021
210912
267449
976080
994411
505689
300474
191287
285286
813415
779248
314872
199660
361237
672642
1.38551e+06
1.14941e+06
288841
232401
333256
563950
1.16902e+06
1.00437e+06
273097
216899
310519
525189
1.04675e+06
912339
268564
207307
295950
494859
948812
784802
283001
189461
200072
318331
754926
1.33358e+06
660667
356262
231384
287493
1.12921e+06
1.15353e+06
556950
330053
216262
274778
979529
1.0093e+06
515914
307964
195860
291967
827250
788701
324645
204425
363304
670937
1.359e+06
1.13619e+06
294807
235803
337246
565496
1.16745e+06
985305
281086
219130
311762
519398
1.011e+06
822783
294756
198117
208129
330088
789477
1.37193e+06
684699
369064
237569
303041
1.13842e+06
1.14365e+06
568430
338820
210034
307860
904577
859033
341220
217736
387207
721854
1.49836e+06
1.23125e+06
306173
249422
361797
614947
1.26055e+06
1.05821e+06
304989
233747
335395
562601
1.08368e+06
882444
318055
211794
221060
355294
848311
1.46061e+06
724045
391985
251883
323135
1.19881e+06
1.20641e+06
595215
357833
220590
320833
943943
894673
353507
228022
401809
744806
1.5224e+06
1.24596e+06
326073
257997
370562
617851
1.26573e+06
1.00184e+06
338560
227736
235583
376952
949597
1.62416e+06
800073
425865
269683
346017
1.29641e+06
1.29943e+06
646573
386148
234920
344306
1.01104e+06
953483
379438
242472
429302
793629
1.61554e+06
1.31082e+06
349488
273470
392445
651977
1.32221e+06
1.04214e+06
352510
239587
247624
390017
988831
1.68986e+06
827306
441658
279497
342577
1.3557e+06
1.37076e+06
680242
405983
244912
367916
1.05381e+06
991555
401777
252587
447763
827743
1.65875e+06
1.33209e+06
366095
283571
403859
666836
1.34041e+06
1.04421e+06
358806
245420
253388
395536
990507
1.66185e+06
825892
446256
282747
366364
1.33259e+06
1.34023e+06
666694
402954
242673
355837
1.02546e+06
965409
379586
248565
434095
798364
1.57284e+06
1.17703e+06
378267
261114
266294
408153
1.0851e+06
1.76543e+06
871819
469129
291503
381031
1.39394e+06
1.3962e+06
693983
416527
249928
366195
1.06666e+06
1.00554e+06
401215
257941
445336
814533
1.61958e+06
1.2185e+06
390647
266557
268958
406655
1.11699e+06
1.78993e+06
886166
471132
277453
411823
1.31431e+06
1.19102e+06
437215
279854
501318
942403
1.90361e+06
1.47171e+06
407318
308274
442904
733785
1.46462e+06
1.10084e+06
382475
259940
267766
415487
1.03024e+06
1.63596e+06
830912
458821
270100
397612
1.2158e+06
1.11178e+06
408934
272466
472531
872132
1.75982e+06
1.27408e+06
408196
276073
279184
432358
1.14981e+06
1.77289e+06
885231
482917
278484
413094
1.2803e+06
1.15529e+06
434884
280945
482044
882382
1.76854e+06
1.28767e+06
413099
279986
283668
437026
1.17446e+06
1.82334e+06
898568
488354
281067
416118
1.30665e+06
1.11984e+06
453209
286456
299546
512669
1.47074e+06
2.19838e+06
1.06114e+06
545130
305051
472825
1.5047e+06
1.33174e+06
487425
303116
523390
977721
1.9899e+06
1.38744e+06
446376
294843
294950
457121
1.18639e+06
1.54273e+06
525031
308601
570173
1.1184e+06
2.2656e+06
1.50793e+06
485251
309057
311984
506071
1.26648e+06
1.63462e+06
569837
326112
595788
1.14028e+06
2.39675e+06
1.5904e+06
497780
316906
318350
513911
1.3412e+06
1.68332e+06
579709
324884
591630
1.15948e+06
2.40407e+06
1.54786e+06
499781
312800
304568
491073
1.27102e+06
1.54899e+06
612180
333268
329263
552991
1.92799e+06
2.69795e+06
1.37701e+06
644714
329960
546536
1.70172e+06
1.39228e+06
548077
325825
334858
618563
1.60292e+06
1.80033e+06
589989
318908
343054
726334
1.95468e+06
2.15907e+06
727805
327305
633033
1.35729e+06
2.76006e+06
1.62911e+06
521350
310951
302368
514810
1.29778e+06
1.4009e+06
563443
303729
297328
560207
1.4673e+06
1.51958e+06
571884
292425
289799
598919
1.53253e+06
1.51672e+06
608005
288043
285006
613677
1.49569e+06
1.46056e+06
612511
283267
280538
607684
1.42381e+06
1.38553e+06
598482
278476
276171
591330
1.34781e+06
1.31156e+06
586368
274995
273961
583220
1.27764e+06
1.24619e+06
581540
273992
274154
580748
1.21731e+06
1.1909e+06
580564
275014
275973
580518
1.16676e+06
1.14493e+06
580390
277578
278965
580059
1.12514e+06
1.10742e+06
579397
280750
282158
578222
1.09146e+06
1.07722e+06
576660
283705
284806
574527
1.06449e+06
1.05324e+06
572042
285882
286491
568995
1.04326e+06
1.03455e+06
565701
286965
286898
561881
1.02688e+06
1.02026e+06
557920
286717
286091
553482
1.01448e+06
1.00955e+06
549016
285365
283993
544112
1.00527e+06
1.00164e+06
539242
282869
281138
533984
998506
995879
528689
280068
278397
523127
993607
991745
517656
277366
275736
511993
990141
988853
506510
274720
273116
500884
987748
986874
495504
272103
270499
490022
986131
985543
484837
269465
267846
479587
985023
984648
474669
266785
265145
469714
984273
983999
465093
264052
262393
460474
983760
983565
456184
261279
259608
451904
983419
983267
447949
258487
256817
444000
983146
982977
440382
255702
254055
436765
982845
982642
433474
252950
251322
430177
982488
982230
427206
250245
248655
424215
982037
981721
421536
247602
246063
418831
981490
981117
416429
245041
243562
413985
980850
980449
411824
242568
241150
409615
980164
979739
407685
240184
238817
405696
979427
978991
403962
237863
236533
402163
978657
978209
400614
235612
234325
398986
977852
977399
397594
233434
232193
396114
977033
976577
394875
231340
230146
393538
976204
975751
392421
229328
228182
391204
975383
974927
390202
227408
226311
389093
974559
974107
388186
225576
224527
387167
973746
973303
386356
223836
222834
385420
972953
972516
384681
222181
221222
383813
972180
971757
383156
220609
219705
382359
971433
971025
381754
219121
218260
381014
970718
970328
380477
217716
216898
379795
970040
969666
379302
216387
215608
378674
969402
969054
378225
215130
214393
377650
968815
968488
377239
213946
213246
376711
968279
967976
376328
212825
212165
375846
967798
967520
375490
211769
211145
375046
967372
967121
374715
210773
210184
374305
967001
966784
374002
209835
209279
373617
966689
966507
373338
208951
208425
372978
966432
966288
372720
208119
207619
372379
966235
966129
372138
207333
206858
371816
966096
966026
371592
206592
206139
371286
966013
965986
371076
205891
205460
370787
965989
965988
370589
205229
204817
370316
966018
966036
370128
204601
204208
369871
966097
966130
369694
204007
203630
369449
966219
966268
369282
203443
203083
369053
966381
966446
368893
202908
202563
368677
966580
966661
368525
202400
202069
368323
966812
966907
368180
201918
201598
367988
967074
967183
367853
201458
201150
367674
967365
967485
367546
201021
200723
367378
967681
967814
367257
200603
200317
367101
968021
968164
366987
200205
199930
366842
968382
968534
366735
199825
199561
366601
968761
968922
366498
199461
199208
366375
969156
969326
366277
199113
198869
366165
969568
969746
366071
198780
198545
365968
969994
970179
365878
198461
198235
365786
970433
970624
365701
198155
197936
365617
970883
971080
365537
197861
197650
365462
971342
971544
365387
197579
197375
365319
971809
972014
365249
197307
197111
365189
972281
972490
365124
197047
196857
365071
972759
972969
365013
196796
196613
364965
973240
973450
364912
196555
196377
364868
973722
973932
364822
196323
196151
364784
974205
974415
364743
196101
195934
364712
974686
974896
364674
195887
195726
364649
975166
975376
364614
195681
195524
364594
975645
975855
364563
195482
195330
364547
976125
976333
364520
195290
195142
364505
976603
976810
364484
195105
194960
364472
977081
977288
364455
194925
194784
364444
977560
977767
364431
194751
194613
364423
978040
978247
364414
194582
194447
364407
978523
978731
364403
194417
194286
364399
979010
979218
364397
194258
194129
364397
979499
979708
364400
194103
193977
364403
979991
980200
364411
193953
193830
364417
980483
980690
364432
193809
193690
364442
980972
981174
364462
193672
193556
364476
981454
981649
364501
193540
193451
364524
981927
982110
364550
193388
193314
364570
982018
982576
364608
193302
193194
364628
983220
983008
364669
193203
193063
364697
983303
983434
364864
193090
192921
364493
983325
983258
364737
192881
192536
363952
982871
985038
365409
193115
193330
366398
988896
998163
371119
195201
196113
372095
993399
981198
361230
191013
188847
356484
963698
105137
57938.2
31262.6
19287.3
17996
12112.1
8884.98
7355.35
6959.74
5245.87
3817.43
2988.69
2263.54
1648.93
1168.02
815.101
573.65
411.573
303.356
229.998
179.256
143.363
117.439
98.3562
84.1041
73.3268
65.1971
59.0583
54.6133
51.4827
49.471
48.3068
47.7816
47.2646
46.3365
45.0624
43.5273
41.8419
40.0478
38.2106
36.3224
34.3932
32.404
30.3395
28.1708
25.4104
21.3972
16.3559
11.4259
7.47614
4.67365
2.82275
1.66615
0.986294
0.622038
0.446513
0.367789
0.334595
0.320929
0.314978
0.312018
0.309695
0.307542
0.305491
0.303502
0.301535
0.299561
0.297548
0.295467
0.293293
0.290998
0.288556
0.28594
0.283127
0.280093
0.276814
0.27327
0.269444
0.265319
0.260887
0.25614
0.251079
0.245708
0.240039
0.234089
0.227881
0.221443
0.214807
0.208008
0.201085
0.194075
0.187019
0.179954
0.172916
0.165941
0.159059
0.152298
0.145683
0.139235
0.132971
0.126903
0.121046
0.115403
0.109982
0.104784
0.0998101
0.0950582
0.0905275
0.0862107
0.0821052
0.0782037
0.0744998
0.0709862
0.0676557
0.0645004
0.0615128
0.0586851
0.0560095
0.0534787
0.051085
0.0488212
0.0466814
0.0446575
0.0427444
0.0409351
0.0392244
0.0376062
0.0360759
0.0346282
0.0332581
0.0319616
0.0307342
0.0295721
0.0284713
0.0274286
0.0264406
0.0255039
0.0246157
0.0237736
0.0229747
0.0222165
0.0214968
0.0208134
0.0201642
0.0195476
0.0189615
0.0184044
0.0178746
0.0173706
0.0168913
0.0164351
0.0160009
0.0155874
0.0151937
0.0148187
0.0144614
0.0141209
0.0137964
0.013487
0.0131922
0.012911
0.0126428
0.0123871
0.0121432
0.0119105
0.0116885
0.0114768
0.0112748
0.0110822
0.0108984
0.0107232
0.0105561
0.0103967
0.0102449
0.0101002
0.00996229
0.009831
0.00970602
0.00958711
0.00947404
0.0093666
0.00926457
0.00916776
0.009076
0.00898911
0.00890692
0.0088293
0.0087561
0.0086872
0.00862246
0.00856179
0.00850508
0.00845224
0.00840319
0.00835786
0.00831621
0.00827821
0.00824386
0.0082132
0.00818635
0.00816344
0.0081447
0.00813027
0.00812049
0.00811434
0.00811067
0.00810821
0.00810661
0.0081066
0.00810685
0.0081075
0.00810915
0.00811114
0.00811341
0.00811585
0.0081172
0.00811646
0.00811359
0.00810908
0.00810343
0.00809694
0.00808972
0.00808181
0.00807316
0.00806375
0.00805352
0.00804246
0.00803056
0.00801784
0.0080043
0.00798997
0.00797484
0.00795893
0.00794227
0.00792484
0.00790668
0.00788779
0.00786819
0.0078479
0.00782693
0.00780529
0.00778301
0.00776011
0.0077366
0.00771251
0.00768785
0.00766265
0.00763692
0.0076107
0.007584
0.00755686
0.00752928
0.00750131
0.00747296
0.00744427
0.00741527
0.00738598
0.00735643
0.00732665
0.00729669
0.00726658
0.00723635
0.00720606
0.00717578
0.00714567
0.00711608
0.00708773
0.00706229
0.00704365
0.00704039
0.00707207
0.00718172
0.00746274
0.00811325
0.00954264
0.0126136
0.0190722
0.0323338
0.05889
0.110753
0.20972
0.39443
0.73307
1.34728
2.45558
4.43368
7.81133
12.9518
19.3045
25.4074
30.6238
37.1984
54.6474
111.233
353.224
1710.33
5117.09
6290.96
6386.69
7291.3
7250.97
7981.89
7894.45
8501.64
8379.86
8920.41
8775
9266.54
9104.28
9558.25
9383.61
9807.92
9623.88
10024.4
9832.8
10213.9
10016.3
10381.3
10178.7
10529.7
10322.8
10661.4
10451
10779
10565.7
10884.5
10669
10980.1
10762.7
11067.2
10848.4
11147.5
10927.6
11221.8
11001.3
11291.2
11070.4
11356.6
11135.5
11418.4
11197.2
11477.1
11255.9
11533.2
11312
11587.1
11366
11638.8
11417.9
11688.8
11467.5
11737.1
11515
11782.9
11560.2
11826.5
11603.3
11868
11644.3
11907.3
11683.1
11944.1
11719.2
11978.1
11752.4
12008.5
11781.6
12034.6
11806
12054.9
11824
12067.9
11833.8
12071.1
11833
12062.4
11819
12038.8
11788.6
11996.8
11738.4
11932.8
11664.8
11843.3
11563.2
11725.2
11426
11577.1
11264.9
11404.9
11081.2
11210.9
10879.1
10999.3
10661.3
10775.1
10437
10548.1
10217.5
10328.1
10009.4
10120.7
9816.32
9929.56
9641.15
9757.34
9485.99
9605.93
9352.13
9476.41
9239.94
9368.92
9148.9
9282.74
9073.33
9215.48
9015.75
9168.44
8978.39
9142.83
8961.59
9137.43
8963.54
9149.74
8981.13
9175.62
9010.55
9212.57
9050.01
9258.54
9096.58
9311.26
9147.97
9365.94
9201.08
9421.23
9254.48
9475.29
9306.54
9528.53
9358.09
9579.33
9406.19
9626.67
9451.42
9671.8
9494
9713.85
9533.59
9753.12
9570.19
9788.83
9603.75
9821.6
9634.52
9851.8
9662.43
9878.47
9683.87
9910.82
9701.84
9944.94
9706.72
9955.29
9550.69
9875.43
8918.01
8754.34
7016.07
4674.63
5045.28
5504.26
3490.26
5966.55
5553.46
3508.2
6015.71
5556.79
3541.18
6028.81
5568.36
3536.54
6023.25
5561.98
3532.01
6008.97
5550.88
3522.93
5995.38
5538.06
3512.43
5980.77
5524.01
3501.58
5964.56
5508.71
3490.39