/*--------------------------------*- C++ -*----------------------------------*\
| =========                 |                                                 |
| \\      /  F ield         | OpenFOAM: The Open Source CFD Toolbox           |
|  \\    /   O peration     | Version:  v2006                                 |
|   \\  /    A nd           | Website:  www.openfoam.com                      |
|    \\/     M anipulation  |                                                 |
\*---------------------------------------------------------------------------*/
FoamFile
{
    version     2.0;
    format      ascii;
    class       volScalarField;
    location    "0.12";
    object      T;
}
// * * * * * * * * * * * * * * * * * * * * * * * * * * * * * * * * * * * * * //

dimensions      [0 0 0 1 0 0 0];


internalField   nonuniform List<scalar> 
16277
(
298.839
298.839
298.839
298.839
298.839
298.839
298.839
298.84
298.841
298.844
298.847
298.851
298.854
298.858
298.862
298.866
298.87
298.874
298.879
298.883
298.888
298.893
298.898
298.903
298.909
298.914
298.92
298.926
298.932
298.938
298.945
298.951
298.958
298.964
298.971
298.978
298.985
298.992
298.999
299.006
299.013
299.021
299.028
299.035
299.043
299.05
299.058
299.065
299.073
299.08
299.088
299.095
299.102
299.11
299.117
299.124
299.131
299.139
299.146
299.152
299.159
299.166
299.172
299.179
299.185
299.191
299.197
299.203
299.209
299.214
299.22
299.225
299.23
299.235
299.24
299.244
299.248
299.252
299.256
299.26
299.264
299.268
299.271
299.273
299.273
299.274
299.273
299.273
299.273
299.273
299.273
299.274
299.276
299.279
299.285
299.291
299.316
299.322
299.29
299.281
299.281
299.292
299.331
299.341
299.295
299.282
299.282
299.298
299.346
299.353
299.301
299.284
299.286
299.304
299.355
299.359
299.308
299.289
299.291
299.311
299.361
299.363
299.314
299.293
299.296
299.316
299.364
299.365
299.319
299.298
299.3
299.321
299.365
299.366
299.324
299.303
299.305
299.326
299.366
299.367
299.328
299.307
299.309
299.33
299.367
299.368
299.332
299.312
299.314
299.333
299.368
299.369
299.336
299.316
299.318
299.337
299.369
299.369
299.34
299.321
299.322
299.341
299.37
299.371
299.343
299.325
299.327
299.344
299.371
299.372
299.347
299.329
299.331
299.348
299.372
299.374
299.35
299.334
299.335
299.351
299.374
299.376
299.354
299.338
299.34
299.355
299.376
299.378
299.358
299.343
299.345
299.359
299.378
299.38
299.362
299.348
299.35
299.363
299.381
299.383
299.366
299.353
299.355
299.368
299.384
299.386
299.371
299.358
299.36
299.372
299.387
299.39
299.376
299.363
299.365
299.377
299.391
299.393
299.38
299.369
299.371
299.382
299.394
299.397
299.386
299.375
299.377
299.387
299.398
299.402
299.391
299.381
299.383
299.393
299.403
299.406
299.397
299.387
299.389
299.398
299.407
299.411
299.403
299.394
299.396
299.404
299.412
299.416
299.409
299.401
299.403
299.411
299.418
299.422
299.415
299.408
299.41
299.417
299.423
299.427
299.422
299.415
299.418
299.424
299.429
299.433
299.429
299.423
299.425
299.431
299.435
299.44
299.436
299.431
299.433
299.438
299.442
299.446
299.444
299.439
299.442
299.446
299.448
299.453
299.452
299.447
299.45
299.454
299.455
299.46
299.46
299.456
299.459
299.462
299.463
299.468
299.468
299.465
299.468
299.47
299.47
299.476
299.476
299.474
299.477
299.479
299.478
299.483
299.485
299.484
299.487
299.488
299.486
299.492
299.494
299.493
299.496
299.497
299.494
299.5
299.503
299.503
299.506
299.506
299.502
299.508
299.512
299.512
299.515
299.515
299.511
299.516
299.521
299.522
299.525
299.524
299.519
299.525
299.53
299.532
299.534
299.532
299.527
299.533
299.539
299.541
299.543
299.541
299.535
299.541
299.547
299.55
299.552
299.549
299.543
299.548
299.555
299.558
299.56
299.557
299.55
299.555
299.562
299.565
299.567
299.564
299.556
299.561
299.568
299.572
299.574
299.569
299.562
299.566
299.573
299.578
299.579
299.574
299.567
299.569
299.577
299.582
299.583
299.578
299.57
299.572
299.58
299.585
299.585
299.58
299.572
299.573
299.581
299.586
299.585
299.58
299.573
299.573
299.58
299.585
299.583
299.578
299.572
299.571
299.578
299.583
299.58
299.575
299.569
299.568
299.574
299.579
299.574
299.57
299.564
299.563
299.568
299.573
299.568
299.564
299.559
299.557
299.561
299.565
299.56
299.556
299.553
299.551
299.554
299.557
299.551
299.548
299.546
299.544
299.545
299.548
299.541
299.539
299.538
299.536
299.536
299.538
299.531
299.53
299.531
299.528
299.527
299.528
299.521
299.52
299.523
299.521
299.518
299.518
299.511
299.511
299.515
299.513
299.509
299.508
299.501
299.503
299.508
299.506
299.5
299.498
299.492
299.495
299.501
299.499
299.492
299.489
299.483
299.487
299.495
299.493
299.485
299.481
299.476
299.481
299.489
299.488
299.479
299.474
299.47
299.475
299.484
299.482
299.473
299.468
299.464
299.469
299.479
299.479
299.468
299.462
299.458
299.465
299.477
299.476
299.465
299.457
299.454
299.462
299.475
299.473
299.461
299.453
299.451
299.459
299.47
299.467
299.458
299.451
299.449
299.456
299.464
299.463
299.455
299.449
299.448
299.454
299.461
299.46
299.454
299.447
299.446
299.452
299.459
299.462
299.452
299.445
299.444
299.451
299.461
299.463
299.451
299.443
299.44
299.449
299.462
299.459
299.447
299.439
299.44
299.448
299.459
299.456
299.446
299.44
299.439
299.446
299.455
299.456
299.447
299.439
299.439
299.445
299.453
299.454
299.446
299.439
299.438
299.445
299.453
299.452
299.445
299.439
299.438
299.443
299.45
299.452
299.445
299.438
299.437
299.443
299.448
299.45
299.444
299.438
299.437
299.443
299.449
299.449
299.443
299.437
299.437
299.443
299.449
299.449
299.442
299.437
299.436
299.441
299.448
299.45
299.442
299.436
299.435
299.441
299.448
299.449
299.441
299.434
299.434
299.44
299.447
299.445
299.439
299.432
299.434
299.44
299.444
299.437
299.437
299.435
299.442
299.438
299.429
299.413
299.432
299.439
299.434
299.442
299.427
299.419
299.429
299.429
299.436
299.43
299.425
299.422
299.421
299.422
299.423
299.423
299.424
299.424
299.425
299.427
299.428
299.43
299.432
299.434
299.436
299.44
299.444
299.449
299.46
299.464
299.438
299.476
299.512
299.518
299.484
299.436
299.469
299.484
299.462
299.457
299.48
299.467
299.459
299.47
299.473
299.48
299.472
299.462
299.469
299.473
299.479
299.475
299.473
299.471
299.471
299.473
299.475
299.473
299.473
299.472
299.473
299.474
299.473
299.473
299.475
299.474
299.474
299.475
299.474
299.474
299.476
299.474
299.474
299.475
299.474
299.473
299.475
299.474
299.474
299.475
299.473
299.473
299.476
299.475
299.475
299.476
299.473
299.474
299.476
299.475
299.474
299.477
299.474
299.48
299.476
299.47
299.47
299.477
299.484
299.484
299.477
299.47
299.471
299.477
299.483
299.482
299.477
299.471
299.47
299.477
299.483
299.484
299.478
299.472
299.47
299.477
299.484
299.485
299.478
299.471
299.471
299.478
299.485
299.485
299.478
299.471
299.474
299.48
299.486
299.481
299.48
299.478
299.479
299.481
299.478
299.478
299.481
299.479
299.478
299.48
299.478
299.479
299.481
299.478
299.478
299.48
299.477
299.476
299.479
299.477
299.476
299.479
299.477
299.484
299.479
299.472
299.471
299.48
299.488
299.488
299.48
299.472
299.474
299.48
299.487
299.486
299.481
299.476
299.48
299.482
299.482
299.479
299.482
299.481
299.48
299.482
299.479
299.48
299.482
299.48
299.48
299.483
299.481
299.48
299.483
299.48
299.481
299.483
299.48
299.482
299.484
299.481
299.482
299.484
299.482
299.482
299.484
299.481
299.482
299.484
299.481
299.479
299.483
299.481
299.481
299.483
299.479
299.479
299.484
299.482
299.479
299.485
299.482
299.492
299.485
299.475
299.475
299.486
299.494
299.491
299.486
299.479
299.484
299.486
299.484
299.481
299.486
299.484
299.482
299.486
299.482
299.485
299.485
299.477
299.472
299.485
299.492
299.492
299.485
299.472
299.473
299.484
299.492
299.488
299.483
299.474
299.475
299.484
299.488
299.485
299.485
299.482
299.484
299.486
299.481
299.483
299.486
299.482
299.479
299.485
299.486
299.484
299.482
299.478
299.478
299.479
299.472
299.467
299.479
299.478
299.482
299.481
299.466
299.468
299.49
299.49
299.494
299.496
299.477
299.482
299.497
299.494
299.48
299.495
299.488
299.527
299.489
299.45
299.447
299.486
299.538
299.536
299.485
299.447
299.448
299.481
299.535
299.485
299.474
299.468
299.469
299.466
299.45
299.461
299.459
299.437
299.413
299.45
299.488
299.481
299.447
299.417
299.425
299.443
299.463
299.464
299.444
299.425
299.423
299.445
299.475
299.48
299.449
299.425
299.426
299.45
299.485
299.484
299.446
299.425
299.42
299.438
299.479
299.473
299.431
299.415
299.414
299.432
299.476
299.491
299.439
299.419
299.421
299.442
299.495
299.478
299.441
299.419
299.412
299.429
299.433
299.422
299.394
299.414
299.403
299.346
299.393
299.552
299.341
299.215
299.45
299.439
299.35
299.357
299.421
299.455
299.509
299.447
299.366
299.382
299.451
299.508
299.48
299.455
299.45
299.487
299.451
299.474
299.478
299.46
299.482
299.564
299.457
299.42
299.365
299.478
299.655
299.642
299.473
299.382
299.397
299.413
299.648
299.646
299.312
299.348
299.132
299.474
300.093
299.59
299.521
299.454
299.49
299.514
299.505
299.434
299.482
299.493
299.448
299.48
299.488
299.481
299.465
299.455
299.453
299.456
299.455
299.456
299.483
299.431
299.458
299.518
299.41
299.248
299.614
299.556
299.504
299.46
299.501
299.528
299.49
299.459
299.42
299.496
299.618
299.625
299.492
299.429
299.424
299.443
299.662
299.719
299.354
299.392
299.218
299.52
300.166
299.599
299.564
299.536
299.52
299.516
299.549
299.601
299.51
299.469
299.486
299.493
299.666
299.674
299.395
299.464
299.287
299.493
300.08
299.588
299.607
299.549
299.529
299.534
299.622
299.659
299.524
299.528
299.488
299.426
299.686
300.082
299.488
299.31
299.577
299.606
299.583
299.616
299.582
299.558
299.595
299.585
299.586
299.606
299.611
299.612
299.622
299.597
299.592
299.63
299.659
299.649
299.669
299.721
299.651
299.552
299.828
299.731
299.702
299.714
299.773
299.726
299.742
299.746
299.765
299.767
299.764
299.77
299.783
299.8
299.849
299.85
299.859
299.86
299.868
299.873
299.816
299.795
299.77
299.739
299.735
299.744
299.619
299.604
299.628
299.5
299.521
299.532
299.476
299.473
299.486
299.426
299.425
299.422
299.397
299.414
299.449
299.424
299.394
299.372
299.404
299.372
299.416
300.323
299.297
299.138
299.15
299.306
299.682
299.615
299.296
299.283
299.34
299.345
299.453
299.452
299.36
299.337
299.363
299.417
299.475
299.428
299.351
299.296
299.46
299.349
299.234
299.127
299.181
299.468
299.458
299.369
299.259
299.592
299.412
299.229
299.206
299.56
299.656
299.458
299.289
299.221
299.459
299.326
299.237
299.155
299.217
299.479
299.37
299.405
299.267
299.054
299.368
299.563
299.556
299.041
298.94
299.176
299.414
299.44
299.557
299.38
299.077
298.989
299.089
299.539
299.39
299.377
299.19
299.21
299.363
299.432
299.471
299.187
299.131
299.258
299.329
299.358
299.284
299.408
299.422
299.268
299.339
299.463
299.136
299.285
300.004
299.521
299.295
299.333
299.314
299.326
299.693
299.625
299.947
299.447
299.151
299.4
299.795
299.597
299.429
299.165
299.106
299.105
299.89
299.416
299.269
299.36
299.345
299.345
299.613
299.469
299.789
299.423
299.24
299.432
299.44
299.561
299.377
299.124
299.265
299.646
299.276
299.519
299.386
299.187
299.311
299.485
299.439
299.696
299.107
299.269
299.425
299.349
299.364
299.413
299.318
299.476
299.099
299.387
300.363
299.674
299.204
299.161
299.233
299.077
299.677
300.787
299.576
298.874
298.864
299.155
300.015
299.795
299.251
299.044
299.258
299.206
299.449
299.371
299.274
299.267
299.196
299.31
299.378
299.318
299.222
299.266
299.226
299.276
299.402
299.418
299.379
299.174
299.293
299.231
299.36
299.766
299.324
299.011
299.044
299.797
299.921
299.603
299.228
299.146
298.939
299.322
299.947
300.057
299.859
299.011
299.099
299.308
299.503
299.525
299.275
299.227
298.911
299.521
300.732
300.003
299.106
298.873
299.055
299.195
299.841
299.462
299.2
299.174
299.197
299.26
299.392
299.384
299.352
299.22
299.221
299.268
299.301
299.362
299.298
299.201
299.05
299.387
300.466
299.814
299.071
298.969
299.073
299.214
299.762
299.406
299.172
299.13
299.15
299.221
299.368
299.347
299.285
299.197
299.186
299.229
299.285
299.352
299.262
299.156
299.016
299.29
300.346
299.715
299.078
298.975
299.071
299.162
299.666
299.355
299.136
299.155
299.134
299.192
299.307
299.318
299.288
299.148
299.153
299.192
299.205
299.419
299.281
299.06
299.305
299.788
299.155
299.454
299.303
299.101
299.121
299.51
299.571
299.425
299.167
299.06
299.108
299.171
299.299
299.604
299.044
299.096
299.084
299.087
299.252
299.235
299.07
299.102
299.069
299.101
299.13
299.1
299.113
299.146
299.213
299.149
298.734
299.037
299.177
299.143
299.113
299.141
299.052
299.047
299.125
299.059
299.103
299.11
299.141
298.723
299.184
299.171
299.129
299.129
299.001
299.054
299.146
299.116
299.096
299.108
299.099
299.181
299.103
299.058
298.994
298.989
299.548
299.169
299.003
299.005
299.046
299.039
299.189
299.064
299.036
299.01
299.129
299.105
299.066
298.36
299.159
299.258
299.252
299.056
299.002
299.042
299.113
299.138
299.021
299.049
299.049
299.113
299.076
298.993
298.98
298.992
299.089
299.099
299.037
298.996
299.025
299.037
299.063
299.042
299.014
299
299.004
299.019
299.054
298.985
298.991
298.933
299.017
299.036
299.05
298.364
299.088
299.12
299.166
298.97
298.961
298.983
299.055
299.078
298.976
299.018
298.984
299.001
298.987
298.914
298.92
298.936
299.008
299.004
298.954
298.959
298.933
298.815
299.262
299.043
298.913
298.899
298.899
298.903
299.066
298.974
298.886
298.892
298.911
298.93
298.972
298.95
298.932
298.884
298.895
298.95
299.056
298.701
299.053
298.912
298.901
298.901
298.891
298.914
298.937
298.91
298.881
298.905
298.952
298.958
298.906
298.855
298.846
298.863
298.938
298.941
298.882
298.865
298.876
298.797
299.079
298.918
298.841
298.827
298.844
298.865
298.978
298.93
298.85
298.825
298.83
298.879
298.919
298.914
298.877
298.845
298.817
298.864
298.966
299.598
298.726
298.754
298.679
298.802
299.001
299.027
298.777
298.745
298.763
298.762
298.936
298.94
298.81
298.792
298.802
298.843
298.9
298.925
298.815
298.791
298.735
298.653
299.528
298.92
298.754
298.653
298.681
298.717
298.951
298.859
298.697
298.687
298.731
298.755
298.864
298.825
298.749
298.726
298.743
298.783
298.83
298.785
298.735
298.697
298.687
298.777
298.907
298.46
298.887
298.688
298.762
298.657
298.786
298.759
298.757
298.737
298.698
298.726
298.761
298.777
298.733
298.674
298.637
298.658
298.753
298.772
298.688
298.634
298.633
298.672
298.747
298.784
298.668
298.656
298.633
298.501
299.135
298.769
298.63
298.576
298.584
298.607
298.821
298.733
298.583
298.578
298.608
298.634
298.741
298.718
298.626
298.602
298.619
298.664
298.728
298.726
298.628
298.593
298.594
298.626
298.687
299.089
298.465
298.587
298.48
298.605
298.668
298.724
298.553
298.531
298.497
298.52
298.659
298.675
298.562
298.539
298.524
298.545
298.631
298.638
298.58
298.538
298.499
298.521
298.594
298.73
298.59
298.474
298.455
298.717
298.304
298.558
298.412
298.552
298.525
298.546
298.544
298.554
298.493
298.484
298.453
298.519
298.561
298.545
298.44
298.411
298.42
298.475
298.568
298.55
298.43
298.404
298.407
298.473
298.562
298.589
298.46
298.397
298.406
298.415
298.488
299.179
298.258
298.413
298.248
298.468
298.469
298.573
298.378
298.355
298.308
298.345
298.484
298.496
298.391
298.351
298.346
298.371
298.485
298.475
298.402
298.363
298.331
298.354
298.436
298.435
298.373
298.318
298.291
298.315
298.407
298.421
298.343
298.297
298.308
298.199
298.634
298.432
298.321
298.229
298.247
298.291
298.466
298.391
298.246
298.218
298.239
298.272
298.409
298.374
298.25
298.227
298.246
298.293
298.377
298.336
298.241
298.215
298.208
298.262
298.343
298.356
298.246
298.187
298.181
298.201
298.305
298.814
298.043
298.201
298.052
298.262
298.329
298.383
298.176
298.134
298.08
298.113
298.31
298.313
298.176
298.123
298.108
298.148
298.279
298.272
298.19
298.14
298.102
298.131
298.242
298.25
298.166
298.106
298.07
298.105
298.235
298.218
298.135
298.077
298.094
297.972
298.45
298.227
298.117
297.993
298.017
298.079
298.278
298.188
298.018
297.981
298.004
298.049
298.203
298.16
298.011
297.987
298.008
298.062
298.156
298.112
298.007
297.978
297.981
298.031
298.127
298.146
298.006
297.939
297.952
297.981
298.08
298.639
297.771
297.977
297.789
298.047
298.003
298.117
297.911
297.885
297.816
297.857
298.033
298.044
297.919
297.853
297.838
297.886
298.029
298.012
297.927
297.874
297.83
297.866
297.998
298.002
297.902
297.839
297.797
297.828
297.946
297.947
297.86
297.792
297.774
297.798
297.915
297.945
297.84
297.757
297.763
297.893
297.853
297.881
297.746
297.728
297.751
297.82
297.909
297.892
297.745
297.718
297.721
297.792
297.881
297.848
297.713
297.679
297.69
297.757
297.866
297.824
297.681
297.654
297.666
297.728
297.841
297.799
297.654
297.624
297.63
297.717
297.844
297.922
297.585
297.653
297.551
297.674
297.784
297.843
297.671
297.59
297.533
297.576
297.777
297.792
297.618
297.559
297.528
297.557
297.745
297.735
297.61
297.545
297.5
297.533
297.683
297.689
297.573
297.514
297.466
297.495
297.628
297.72
297.554
297.463
297.454
297.604
297.556
297.58
297.447
297.414
297.434
297.493
297.6
297.585
297.428
297.4
297.413
297.49
297.577
297.551
297.399
297.351
297.37
297.441
297.565
297.503
297.347
297.314
297.328
297.393
297.525
297.47
297.311
297.275
297.266
297.362
297.515
297.584
297.289
297.287
297.18
297.289
297.41
297.472
297.304
297.226
297.162
297.233
297.397
297.429
297.258
297.191
297.145
297.183
297.365
297.384
297.245
297.17
297.115
297.157
297.319
297.344
297.209
297.137
297.085
297.12
297.29
297.332
297.168
297.059
297.098
297.149
297.38
297.206
297.085
297.001
297.04
297.126
297.28
297.206
297.029
296.961
296.975
297.051
297.205
297.144
296.947
296.912
296.937
297.006
297.159
297.125
296.918
296.882
296.896
296.987
297.134
297.365
296.827
296.945
296.785
296.946
297.107
297.198
296.945
296.84
296.754
296.821
297.071
297.129
296.862
296.78
296.731
296.762
296.992
297.001
296.84
296.76
296.698
296.748
296.896
297.025
296.83
296.694
296.664
296.924
296.748
296.852
296.633
296.639
296.613
296.649
296.763
296.826
296.635
296.594
296.604
296.643
296.769
296.723
296.572
296.542
296.56
296.624
296.783
296.75
296.505
296.475
296.484
296.596
296.762
297.018
296.372
296.53
296.32
296.515
296.675
296.789
296.524
296.424
296.308
296.379
296.645
296.705
296.407
296.322
296.265
296.28
296.572
296.579
296.369
296.288
296.215
296.283
296.492
296.522
296.305
296.195
296.197
296.177
296.581
296.438
296.215
296.074
296.168
296.259
296.494
296.392
296.135
296.07
296.085
296.211
296.424
296.309
296.075
296.028
296.04
296.126
296.332
296.233
296.036
295.98
295.967
296.106
296.32
296.353
296.019
295.987
295.861
295.98
296.108
296.188
296.017
295.941
295.823
295.917
296.147
296.151
295.929
295.821
295.732
295.788
296.031
296.029
295.802
295.687
295.724
295.654
296.275
295.977
295.713
295.568
295.693
295.812
296.099
295.959
295.669
295.566
295.587
295.744
295.988
295.842
295.565
295.511
295.53
295.629
295.862
295.749
295.501
295.463
295.433
295.596
295.811
295.728
295.584
295.448
295.338
295.365
295.619
295.63
295.435
295.352
295.275
295.324
295.635
295.593
295.375
295.247
295.14
295.189
295.411
295.457
295.21
295.083
295.194
295.307
295.495
295.407
295.145
295.058
295.09
295.229
295.447
295.354
295.046
294.972
295
295.129
295.371
295.243
294.961
294.902
294.862
295.027
295.309
295.264
295.076
294.932
294.778
294.865
295.137
295.159
294.925
294.799
294.681
294.745
295.036
295.051
294.774
294.608
294.62
294.743
294.946
294.841
294.549
294.457
294.509
294.645
294.905
294.813
294.477
294.399
294.439
294.6
294.872
294.735
294.411
294.339
294.314
294.54
294.83
294.856
294.491
294.367
294.203
294.3
294.566
294.612
294.377
294.248
294.109
294.215
294.491
294.543
294.248
294.052
294.105
294.234
294.481
294.277
293.982
293.892
293.887
293.994
294.252
294.093
293.807
293.715
293.659
293.85
294.217
294.226
293.992
293.783
293.64
293.747
294.092
294.148
293.859
293.677
293.555
293.62
293.982
294.105
293.761
293.512
293.551
293.647
294.042
293.82
293.47
293.342
293.386
293.532
293.849
293.742
293.315
293.193
293.1
293.341
293.767
293.525
293.263
293.112
292.912
293.028
293.407
293.499
293.043
292.833
292.744
292.819
293.232
293.431
293.015
292.786
292.862
293.126
293.255
293.122
292.772
292.655
292.674
292.879
293.202
293.078
292.604
292.539
292.474
292.758
293.164
293.048
292.654
292.489
292.268
292.364
292.742
292.685
292.382
292.228
291.988
292.14
292.478
292.409
291.924
291.769
291.891
292.122
292.449
292.266
291.856
291.709
291.706
291.97
292.462
292.365
292.098
291.797
291.59
291.709
292.204
292.231
291.828
291.618
291.413
291.503
292.07
292.11
291.568
291.287
291.303
291.545
291.913
291.647
291.213
291.053
290.822
291.08
291.55
291.355
291.066
290.784
290.536
290.693
291.18
291.504
290.908
290.556
290.734
291.065
291.412
291.23
290.626
290.463
290.51
290.796
291.244
290.981
290.391
290.246
290.1
290.435
291.021
290.805
290.41
290.104
289.78
289.983
290.48
290.352
289.759
289.509
289.419
289.682
290.079
289.868
289.343
289.159
289.176
289.465
290.263
290.331
289.808
289.388
289.149
289.348
289.994
290.083
289.372
288.993
289.111
289.49
289.934
289.566
288.951
288.699
288.439
288.795
289.529
289.084
288.599
288.294
287.821
287.956
288.592
288.78
287.978
287.709
287.777
288.302
289.121
289.261
288.486
288.051
287.723
288.007
288.801
288.89
287.946
287.505
287.569
287.985
288.555
288.091
287.149
286.972
286.571
286.787
287.391
287.441
286.401
286.162
286.532
286.942
287.656
287.382
286.607
286.269
286.239
286.569
287.754
287.734
286.794
286.136
286.276
286.564
287.54
286.66
285.929
285.552
285.02
284.976
286.271
286.51
284.946
284.629
285.123
285.626
286.694
286.463
285.274
284.8
284.784
285.105
286.556
286.646
285.18
284.499
283.962
284.426
285.684
285.76
284.553
283.788
283.674
284.074
285.268
285.946
284.593
283.663
283.714
284.64
286.242
285.736
284.207
283.271
283.167
284.091
285.886
286.819
284.928
283.395
283.799
285.002
286.163
285.514
284.169
283.528
283.708
284.533
285.624
286.597
284.959
283.973
284.504
285.365
287.05
287.813
285.965
284.816
285.496
286.75
288.632
289.63
287.592
286.215
286.843
288.322
290.441
291.016
288.866
287.322
287.708
289.321
291.487
291.832
289.737
288.066
288.41
290.124
292.047
292.191
290.469
288.737
289.04
290.784
292.339
292.496
291.074
289.329
289.606
291.356
292.662
292.814
291.611
289.867
290.101
291.836
292.942
293.035
292.025
290.313
290.513
292.196
293.111
293.17
292.349
290.714
290.914
292.49
293.225
293.27
292.608
291.108
291.291
292.714
293.31
293.334
292.804
291.462
291.624
292.888
293.352
293.367
292.96
291.777
291.919
293.027
293.391
293.42
293.083
292.048
292.167
293.137
293.452
293.476
293.183
292.276
292.381
293.227
293.491
293.495
293.261
292.477
292.568
293.294
293.494
293.491
293.317
292.647
292.721
293.34
293.485
293.479
293.354
292.783
292.84
293.371
293.475
293.473
293.38
292.885
292.927
293.391
293.474
293.474
293.398
292.958
292.991
293.408
293.476
293.478
293.415
293.016
293.044
293.424
293.48
293.481
293.43
293.064
293.085
293.435
293.481
293.481
293.437
293.098
293.111
293.438
293.48
293.478
293.437
293.117
293.124
293.436
293.476
293.47
293.432
293.127
293.13
293.428
293.466
293.457
293.42
293.13
293.129
293.415
293.452
293.444
293.404
293.126
293.123
293.397
293.441
293.433
293.386
293.117
293.114
293.38
293.429
293.421
293.368
293.108
293.105
293.36
293.416
293.407
293.347
293.098
293.094
293.338
293.402
293.392
293.324
293.085
293.081
293.315
293.387
293.378
293.301
293.071
293.066
293.293
293.373
293.364
293.28
293.057
293.053
293.272
293.36
293.351
293.26
293.046
293.043
293.254
293.346
293.336
293.242
293.036
293.034
293.235
293.329
293.317
293.223
293.027
293.025
293.215
293.309
293.296
293.203
293.018
293.015
293.196
293.287
293.274
293.184
293.009
293.006
293.176
293.266
293.252
293.164
293
292.997
293.157
293.244
293.232
293.145
292.99
292.987
293.138
293.225
293.213
293.126
292.979
292.976
293.12
293.206
293.194
293.109
292.968
292.964
293.103
293.188
293.177
293.092
292.957
292.954
293.087
293.171
293.16
293.077
292.947
292.944
293.072
293.154
293.143
293.062
292.937
292.934
293.057
293.138
293.128
293.048
292.926
292.923
293.043
293.123
293.113
293.033
292.915
292.911
293.028
293.108
293.098
293.019
292.903
292.899
293.014
293.093
293.083
293.004
292.89
292.887
293
293.077
293.067
292.99
292.878
292.874
292.985
293.061
293.051
292.976
292.866
292.861
292.971
293.045
293.035
292.961
292.853
292.848
292.956
293.029
293.019
292.946
292.839
292.834
292.94
293.013
293.002
292.93
292.824
292.819
292.924
292.996
292.986
292.914
292.809
292.804
292.908
292.98
292.97
292.898
292.793
292.788
292.892
292.965
292.954
292.882
292.777
292.772
292.876
292.949
292.939
292.866
292.761
292.755
292.859
292.933
292.922
292.85
292.744
292.738
292.843
292.916
292.906
292.833
292.728
292.72
292.825
292.9
292.888
292.815
292.711
292.701
292.808
292.882
292.871
292.797
292.693
292.683
292.79
292.865
292.853
292.779
292.674
292.665
292.772
292.847
292.834
292.76
292.655
292.647
292.753
292.828
292.816
292.741
292.635
292.628
292.734
292.81
292.797
292.722
292.616
292.609
292.715
292.791
292.778
292.703
292.596
292.59
292.696
292.772
292.759
292.683
292.577
292.57
292.676
292.753
292.74
292.664
292.557
292.55
292.657
292.733
292.721
292.644
292.537
292.531
292.637
292.714
292.701
292.624
292.517
292.511
292.617
292.694
292.681
292.604
292.498
292.491
292.597
292.674
292.662
292.584
292.478
292.471
292.576
292.655
292.642
292.564
292.458
292.451
292.556
292.635
292.622
292.544
292.438
292.431
292.536
292.615
292.602
292.524
292.418
292.412
292.516
292.595
292.583
292.504
292.399
292.392
292.496
292.575
292.563
292.484
292.379
292.372
292.476
292.556
292.543
292.463
292.359
292.353
292.456
292.536
292.523
292.443
292.34
292.333
292.436
292.516
292.503
292.424
292.321
292.314
292.416
292.496
292.483
292.404
292.301
292.295
292.396
292.475
292.462
292.384
292.282
292.276
292.377
292.455
292.442
292.364
292.264
292.257
292.357
292.435
292.422
292.344
292.245
292.238
292.337
292.415
292.402
292.324
292.226
292.22
292.318
292.395
292.381
292.305
292.207
292.201
292.298
292.374
292.361
292.285
292.189
292.182
292.278
292.354
292.341
292.265
292.17
292.164
292.258
292.334
292.32
292.246
292.151
292.145
292.239
292.314
292.3
292.226
292.133
292.127
292.219
292.293
292.28
292.206
292.114
292.108
292.2
292.274
292.26
292.187
292.096
292.09
292.18
292.254
292.241
292.168
292.077
292.072
292.161
292.234
292.222
292.149
292.059
292.054
292.142
292.215
292.203
292.13
292.042
292.036
292.124
292.196
292.184
292.112
292.024
292.019
292.106
292.178
292.166
292.094
292.007
292.001
292.088
292.159
292.147
292.076
291.99
291.984
292.07
292.141
292.129
292.058
291.973
291.967
292.052
292.122
292.111
292.042
291.957
291.952
292.034
292.103
292.095
292.027
291.943
291.936
292.016
292.078
292.073
292.011
291.927
291.898
291.994
292.061
292.052
291.985
291.872
291.853
291.968
292.037
291.647
291.332
290.351
289.89
289.794
289.379
289.124
288.963
288.878
288.74
288.677
288.521
288.398
288.301
288.226
288.171
288.133
288.107
288.089
288.077
288.068
288.062
288.058
288.055
288.053
288.051
288.05
288.049
288.048
288.048
288.047
288.047
288.047
288.047
288.047
288.047
288.047
288.047
288.046
288.046
288.046
288.046
288.046
288.045
288.045
288.045
288.044
288.042
288.041
288.041
288.042
288.044
288.048
288.054
288.06
288.069
288.078
288.089
288.102
288.117
288.133
288.152
288.172
288.196
288.222
288.252
288.285
288.322
288.363
288.409
288.461
288.519
288.583
288.654
288.732
288.819
288.914
289.018
289.132
289.256
289.39
289.533
289.687
289.851
290.024
290.206
290.396
290.593
290.797
291.007
291.221
291.439
291.659
291.88
292.102
292.323
292.543
292.761
292.976
293.188
293.396
293.599
293.798
293.992
294.18
294.363
294.54
294.712
294.878
295.038
295.193
295.342
295.486
295.624
295.757
295.885
296.008
296.127
296.24
296.349
296.454
296.554
296.651
296.744
296.832
296.918
296.999
297.078
297.153
297.225
297.295
297.361
297.425
297.486
297.545
297.601
297.656
297.708
297.757
297.805
297.851
297.896
297.938
297.979
298.018
298.056
298.092
298.126
298.16
298.192
298.222
298.252
298.28
298.308
298.334
298.359
298.383
298.406
298.429
298.45
298.471
298.491
298.51
298.528
298.545
298.562
298.578
298.594
298.608
298.623
298.636
298.649
298.662
298.674
298.685
298.696
298.706
298.716
298.726
298.735
298.743
298.751
298.759
298.766
298.773
298.78
298.786
298.792
298.797
298.802
298.807
298.811
298.815
298.819
298.822
298.826
298.828
298.831
298.833
298.834
298.836
298.837
298.838
298.838
298.838
298.839
298.839
298.839
298.839
298.839
298.839
298.839
298.839
298.84
298.842
298.845
298.848
298.852
298.856
298.859
298.863
298.867
298.872
298.876
298.881
298.886
298.891
298.896
298.901
298.907
298.912
298.918
298.924
298.93
298.937
298.943
298.949
298.956
298.963
298.97
298.977
298.984
298.991
298.998
299.005
299.012
299.02
299.027
299.035
299.042
299.05
299.057
299.065
299.072
299.08
299.087
299.095
299.102
299.11
299.117
299.124
299.131
299.139
299.146
299.153
299.159
299.166
299.173
299.179
299.186
299.192
299.198
299.204
299.21
299.215
299.221
299.226
299.231
299.236
299.241
299.245
299.25
299.254
299.258
299.262
299.265
299.268
299.271
299.272
299.273
299.273
299.273
299.273
299.273
299.273
299.274
299.275
299.276
299.277
299.278
299.279
299.281
299.282
299.284
299.286
299.288
299.289
299.292
299.294
299.296
299.298
299.3
299.302
299.304
299.306
299.309
299.311
299.313
299.316
299.318
299.321
299.323
299.326
299.328
299.331
299.333
299.337
299.339
299.342
299.344
299.348
299.35
299.354
299.357
299.361
299.363
299.367
299.37
299.374
299.377
299.381
299.384
299.389
299.392
299.397
299.399
299.405
299.408
299.413
299.416
299.422
299.425
299.431
299.434
299.44
299.443
299.449
299.452
299.459
299.462
299.469
299.472
299.479
299.482
299.489
299.493
299.5
299.503
299.51
299.513
299.521
299.524
299.531
299.534
299.541
299.544
299.55
299.553
299.56
299.562
299.568
299.57
299.575
299.577
299.581
299.582
299.586
299.587
299.589
299.589
299.59
299.59
299.59
299.588
299.587
299.585
299.583
299.579
299.577
299.572
299.569
299.563
299.56
299.553
299.55
299.543
299.539
299.532
299.528
299.521
299.517
299.509