/*--------------------------------*- C++ -*----------------------------------*\
| =========                 |                                                 |
| \\      /  F ield         | OpenFOAM: The Open Source CFD Toolbox           |
|  \\    /   O peration     | Version:  v2006                                 |
|   \\  /    A nd           | Website:  www.openfoam.com                      |
|    \\/     M anipulation  |                                                 |
\*---------------------------------------------------------------------------*/
FoamFile
{
    version     2.0;
    format      ascii;
    class       volScalarField;
    location    "0.12";
    object      turbulenceProperties:I;
}
// * * * * * * * * * * * * * * * * * * * * * * * * * * * * * * * * * * * * * //

dimensions      [0 0 0 0 0 0 0];


internalField   nonuniform List<scalar> 
16277
(
0.149985
0.149984
0.14999
0.149992
0.149996
0.149994
0.149993
0.149994
0.15
0.150009
0.150015
0.150018
0.150018
0.150017
0.150015
0.150013
0.150011
0.150009
0.150008
0.150007
0.150006
0.150005
0.150005
0.150004
0.150004
0.150003
0.150003
0.150003
0.150002
0.150002
0.150002
0.150002
0.150002
0.150002
0.150002
0.150002
0.150002
0.150002
0.150002
0.150002
0.150002
0.150001
0.150001
0.150001
0.150001
0.150001
0.150001
0.150001
0.150001
0.150001
0.150001
0.150001
0.150001
0.150001
0.150001
0.150001
0.150001
0.150001
0.150001
0.150001
0.150001
0.150001
0.150001
0.150001
0.150001
0.150001
0.150001
0.150001
0.150001
0.15
0.15
0.15
0.15
0.15
0.149999
0.149999
0.149998
0.149997
0.149996
0.149995
0.149998
0.150005
0.150018
0.150031
0.150035
0.150024
0.150006
0.149987
0.149966
0.149968
0.149981
0.149977
0.149989
0.150008
0.149873
0.149304
0.14506
0.13908
0.145978
0.148746
0.14598
0.139197
0.133277
0.129405
0.135533
0.143821
0.139875
0.129548
0.125376
0.123121
0.127253
0.138208
0.13454
0.122608
0.120472
0.119191
0.121243
0.13329
0.130277
0.117866
0.11744
0.116713
0.117168
0.12941
0.126996
0.114913
0.115549
0.115164
0.114557
0.126377
0.124399
0.112922
0.11435
0.114173
0.11277
0.123969
0.122298
0.111519
0.113571
0.113516
0.111488
0.121994
0.120553
0.110494
0.113058
0.113089
0.110551
0.120351
0.119086
0.109737
0.112727
0.112809
0.10985
0.118957
0.117821
0.109151
0.112502
0.112616
0.1093
0.117746
0.116713
0.108685
0.112352
0.112489
0.10886
0.116683
0.115736
0.10831
0.112254
0.112407
0.108505
0.115742
0.114868
0.108006
0.112194
0.112358
0.108219
0.114905
0.114094
0.107763
0.112163
0.112336
0.107991
0.114157
0.113401
0.107571
0.112155
0.112337
0.107814
0.11349
0.112785
0.107427
0.112168
0.112356
0.107684
0.112899
0.112242
0.107327
0.112198
0.112394
0.1076
0.112381
0.111771
0.107272
0.112246
0.112448
0.10756
0.111934
0.111369
0.10726
0.112309
0.112519
0.107565
0.111555
0.111032
0.107291
0.11239
0.112607
0.107613
0.111242
0.110757
0.107364
0.112486
0.112712
0.107701
0.11099
0.110542
0.107476
0.112598
0.112833
0.10783
0.110796
0.110383
0.107626
0.112727
0.11297
0.107997
0.11066
0.110279
0.107813
0.11287
0.113123
0.108203
0.110578
0.110229
0.108038
0.11303
0.113292
0.108445
0.110551
0.110232
0.108298
0.113205
0.113478
0.108725
0.110577
0.110288
0.108595
0.113396
0.11368
0.109042
0.110656
0.110395
0.108928
0.113603
0.113898
0.109396
0.110788
0.110554
0.109299
0.113826
0.114132
0.109789
0.110973
0.110766
0.109707
0.114064
0.114383
0.110221
0.11121
0.11103
0.110154
0.114319
0.114651
0.110692
0.111502
0.111349
0.11064
0.114589
0.114934
0.111204
0.111848
0.111721
0.111166
0.114874
0.115233
0.111758
0.112249
0.112147
0.111735
0.115174
0.115546
0.112354
0.112703
0.112626
0.112343
0.115486
0.11587
0.112989
0.113211
0.113155
0.112988
0.115807
0.116202
0.11366
0.113767
0.113731
0.113667
0.116134
0.116538
0.114363
0.114368
0.114349
0.114375
0.11646
0.116872
0.115092
0.115008
0.115001
0.115105
0.11678
0.117194
0.115837
0.115676
0.115676
0.115844
0.117082
0.117493
0.116585
0.116361
0.116359
0.11658
0.117356
0.117756
0.117319
0.117045
0.11703
0.117292
0.117584
0.117965
0.118014
0.117702
0.117661
0.117952
0.117748
0.118098
0.11864
0.118304
0.118222
0.118528
0.117825
0.118133
0.11916
0.118814
0.118673
0.118985
0.117788
0.118039
0.119532
0.119192
0.118973
0.119277
0.117619
0.117758
0.119688
0.119393
0.119068
0.119302
0.117293
0.11729
0.119542
0.11935
0.118903
0.119017
0.116785
0.116627
0.119065
0.119023
0.118443
0.118399
0.11613
0.115786
0.118245
0.118388
0.117675
0.117449
0.115302
0.114827
0.117111
0.117456
0.116629
0.116201
0.114282
0.113753
0.115655
0.116222
0.115269
0.114596
0.113078
0.112522
0.113852
0.114677
0.113625
0.11269
0.111786
0.111303
0.111847
0.11293
0.11184
0.110671
0.110576
0.110162
0.10978
0.111082
0.109993
0.10864
0.109474
0.109134
0.107753
0.109212
0.108159
0.10669
0.108506
0.108247
0.105843
0.107386
0.106396
0.104875
0.107691
0.107512
0.10411
0.105656
0.10475
0.103217
0.107034
0.106928
0.102576
0.104078
0.10325
0.101771
0.106531
0.106491
0.101258
0.10266
0.101904
0.100547
0.106177
0.106193
0.10016
0.10142
0.100743
0.0995468
0.105958
0.106019
0.099279
0.100362
0.0997669
0.098765
0.105857
0.105953
0.098608
0.0994843
0.0989694
0.0981815
0.105849
0.105975
0.0981063
0.0987698
0.0983281
0.0977587
0.105921
0.106062
0.0977563
0.0981995
0.0978265
0.0974802
0.106047
0.106198
0.0975395
0.0977502
0.09743
0.0973276
0.106226
0.106381
0.0974358
0.097394
0.0971283
0.097278
0.106428
0.106559
0.0974182
0.0971443
0.0969215
0.0973059
0.106625
0.106752
0.0974635
0.0969343
0.0967397
0.0973843
0.106828
0.106938
0.0975487
0.0967569
0.0965875
0.0974948
0.107017
0.107101
0.0976549
0.0966027
0.0964466
0.097619
0.107185
0.107251
0.097769
0.0964639
0.0963122
0.0977445
0.107338
0.107388
0.0978802
0.0963262
0.0961793
0.0978657
0.107474
0.1075
0.0979855
0.0962078
0.0960485
0.097966
0.10757
0.107619
0.098072
0.0960543
0.0958765
0.0980499
0.107685
0.1077
0.0981391
0.0958924
0.0957169
0.0981065
0.107743
0.107765
0.098189
0.0957298
0.0955342
0.0981441
0.107797
0.107817
0.0982159
0.0955409
0.0953339
0.0981628
0.107837
0.107856
0.0982251
0.0953398
0.0951204
0.0981637
0.107868
0.10788
0.0982129
0.0951197
0.0948907
0.09814
0.107881
0.107892
0.0981806
0.0948834
0.0946428
0.0980991
0.107884
0.107895
0.0981346
0.0946337
0.0943881
0.098048
0.107888
0.107883
0.0980689
0.0943668
0.09411
0.0979648
0.107863
0.107867
0.0979892
0.0940876
0.0938193
0.0978731
0.107835
0.107825
0.0978703
0.0937756
0.0934768
0.0977188
0.107786
0.107708
0.0976899
0.0934095
0.0931387
0.0976407
0.107675
0.107431
0.0972676
0.0929063
0.0926671
0.097141
0.106964
0.106376
0.0955999
0.0918391
0.0927734
0.0958761
0.104194
0.105
0.0933551
0.0906604
0.0953632
0.100942
0.107142
0.112689
0.116349
0.120711
0.123519
0.125771
0.127336
0.128392
0.128919
0.12895
0.128437
0.127319
0.125555
0.122569
0.120264
0.115111
0.110274
0.105084
0.100403
0.0991199
0.101903
0.116092
0.131759
0.133837
0.117544
0.102769
0.103844
0.11915
0.13542
0.136297
0.120311
0.10463
0.105244
0.120953
0.137133
0.137397
0.121279
0.105475
0.105792
0.121493
0.13769
0.137768
0.121708
0.105907
0.105989
0.121771
0.137794
0.137791
0.121774
0.106081
0.106119
0.121803
0.137788
0.13777
0.121807
0.106211
0.106232
0.121804
0.137747
0.137714
0.121815
0.106324
0.106341
0.121789
0.137677
0.137648
0.121817
0.106436
0.106453
0.121784
0.137605
0.137576
0.121809
0.106544
0.106561
0.121778
0.137537
0.137498
0.121792
0.106655
0.106675
0.121785
0.137466
0.137423
0.121781
0.106771
0.106787
0.121763
0.137368
0.137338
0.121768
0.106895
0.106904
0.121758
0.137282
0.137272
0.121767
0.107019
0.107025
0.12175
0.137204
0.137156
0.121736
0.107126
0.107155
0.121756
0.137143
0.137054
0.121712
0.107246
0.107282
0.121739
0.137051
0.136999
0.121728
0.10739
0.1074
0.121706
0.136931
0.136912
0.121719
0.107525
0.107534
0.121712
0.136845
0.136831
0.12173
0.107664
0.107686
0.121737
0.136793
0.136726
0.121734
0.107792
0.107826
0.121737
0.136708
0.136654
0.12175
0.10794
0.107963
0.121746
0.13661
0.136578
0.121777
0.108092
0.108111
0.121741
0.13651
0.136479
0.121774
0.108245
0.108265
0.121765
0.136426
0.13639
0.121797
0.10839
0.108406
0.121773
0.136338
0.136308
0.121811
0.108529
0.108551
0.121817
0.136277
0.136247
0.121858
0.108676
0.108689
0.121835
0.136196
0.136163
0.121877
0.108815
0.108828
0.121872
0.136118
0.136087
0.121918
0.108946
0.108953
0.121897
0.136044
0.13602
0.121945
0.109066
0.109065
0.121938
0.135979
0.135956
0.121983
0.109162
0.109146
0.121947
0.135902
0.135879
0.121985
0.109232
0.109214
0.12197
0.13584
0.135811
0.121998
0.109289
0.109257
0.12195
0.135762
0.135735
0.121967
0.1093
0.109238
0.121928
0.135693
0.135672
0.121907
0.109236
0.10915
0.121858
0.135631
0.135602
0.121797
0.10912
0.109016
0.121722
0.135562
0.135497
0.121589
0.108927
0.108775
0.121454
0.135435
0.135363
0.121271
0.108619
0.108421
0.121064
0.135297
0.135218
0.120824
0.108211
0.107935
0.120534
0.135144
0.135046
0.120197
0.107678
0.107318
0.119788
0.134899
0.134736
0.119332
0.107002
0.106556
0.118784
0.134557
0.134375
0.118208
0.106184
0.10563
0.117514
0.13415
0.133911
0.116758
0.105179
0.10452
0.115872
0.133614
0.133273
0.114928
0.104003
0.10328
0.113868
0.132901
0.132492
0.112743
0.102723
0.10194
0.111388
0.131968
0.131472
0.110083
0.101327
0.100476
0.108537
0.130881
0.130285
0.107055
0.0997664
0.0988814
0.105403
0.129705
0.129056
0.103709
0.0981724
0.0973573
0.10163
0.128114
0.12678
0.0997227
0.096573
0.0957742
0.0981262
0.125337
0.12403
0.0961038
0.0951132
0.0945636
0.0943289
0.122879
0.12169
0.0932561
0.094569
0.0942896
0.0923443
0.120594
0.119605
0.0909542
0.0946079
0.0946208
0.0902218
0.118497
0.117255
0.0896376
0.0953093
0.0956567
0.0893876
0.11604
0.115152
0.0898419
0.09697
0.0975543
0.089919
0.114343
0.113523
0.0911553
0.099287
0.100397
0.0925847
0.112469
0.112498
0.0959255
0.103364
0.105052
0.0986757
0.11365
0.133497
0.0908269
0.0857533
0.0974924
0.0950366
0.12649
0.125653
0.0916403
0.0966695
0.0974967
0.0906613
0.125407
0.124205
0.0892764
0.0969856
0.098323
0.0889389
0.122583
0.120658
0.0882638
0.098292
0.100727
0.0893215
0.118902
0.117383
0.0894985
0.10113
0.104656
0.0921707
0.11594
0.114815
0.0933776
0.105815
0.11114
0.0983755
0.114743
0.115323
0.101421
0.114146
0.0884065
0.0887685
0.129363
0.121474
0.0946115
0.106508
0.107131
0.0936919
0.1191
0.11732
0.0964682
0.112687
0.114361
0.0971396
0.115758
0.114868
0.100619
0.118966
0.121049
0.102414
0.114415
0.116036
0.108263
0.126425
0.128386
0.112626
0.118516
0.127395
0.0940437
0.0971248
0.120499
0.101229
0.121413
0.11974
0.101013
0.12203
0.128104
0.105875
0.119512
0.119093
0.107579
0.129634
0.138123
0.116057
0.120472
0.123734
0.122387
0.142055
0.107915
0.0991683
0.129406
0.122873
0.111714
0.137673
0.141224
0.11441
0.121498
0.123197
0.125432
0.152651
0.157833
0.131535
0.125362
0.131947
0.142475
0.164168
0.126271
0.110502
0.131175
0.128254
0.129757
0.16185
0.165963
0.133452
0.128944
0.134773
0.152484
0.182279
0.189948
0.163035
0.14111
0.13638
0.125434
0.152189
0.196077
0.157966
0.137729
0.141106
0.166716
0.206065
0.229824
0.195573
0.153744
0.161854
0.208468
0.240938
0.209641
0.16642
0.151461
0.170572
0.228478
0.267201
0.287617
0.249715
0.184776
0.172996
0.206601
0.265903
0.345664
0.302567
0.212662
0.245412
0.353964
0.398746
0.438241
0.347708
0.23762
0.414357
0.610752
0.648783
0.918388
0.847712
0.510999
1
1
1
0.825142
0.797128
0.508973
0.275486
0.424577
0.47174
0.342303
0.30887
0.213205
0.211376
0.276964
0.289217
0.239448
0.199203
0.17173
0.177716
0.216375
0.232979
0.192658
0.164824
0.149195
0.149765
0.177939
0.198256
0.18718
0.16242
0.141552
0.133586
0.123425
0.146832
0.166272
0.148558
0.136874
0.129381
0.123634
0.138549
0.155654
0.136663
0.127607
0.122694
0.127852
0.148959
0.116839
0.10557
0.122245
0.121011
0.120319
0.139721
0.133628
0.114298
0.118007
0.120144
0.0978207
0.104679
0.128005
0.110003
0.116615
0.114672
0.105803
0.122846
0.0978931
0.0938358
0.119173
0.113665
0.102901
0.119576
0.113147
0.0995549
0.113187
0.118832
0.0907933
0.0912933
0.111424
0.0976804
0.110921
0.110873
0.0944329
0.105775
0.0864898
0.0871954
0.117299
0.10861
0.0930664
0.105364
0.0996894
0.0900422
0.109135
0.116169
0.0842373
0.0823802
0.0997673
0.088947
0.106238
0.107845
0.0863486
0.0947918
0.0793427
0.0818228
0.11516
0.104085
0.0865383
0.0964376
0.0890397
0.0831535
0.105526
0.109124
0.080297
0.0835349
0.0740848
0.0781586
0.120595
0.104834
0.0785871
0.084908
0.0816208
0.0769481
0.107866
0.118049
0.0760708
0.0716104
0.0808587
0.0750074
0.102614
0.106561
0.0748739
0.0777603
0.0691039
0.0744752
0.117777
0.101324
0.0722651
0.0764281
0.0742366
0.0722945
0.105123
0.116375
0.0728645
0.0668948
0.0737786
0.0705473
0.100623
0.104783
0.07097
0.071627
0.0655023
0.0720649
0.11568
0.0991983
0.0679613
0.0705922
0.0688929
0.0687609
0.103591
0.115703
0.0711802
0.0636465
0.0683975
0.0667479
0.0984388
0.103124
0.0674957
0.0668485
0.0625419
0.0706436
0.115232
0.0980278
0.0648253
0.065548
0.0644035
0.0655214
0.103246
0.117145
0.0701228
0.0609179
0.0638292
0.0648641
0.100174
0.109684
0.0670775
0.0594861
0.0656364
0.0632478
0.0935308
0.0971079
0.0635308
0.0637158
0.0604059
0.0686251
0.107946
0.0935988
0.0632586
0.0639965
0.0626273
0.0633197
0.0983982
0.109128
0.0686654
0.0596925
0.0633294
0.0627624
0.0933897
0.0977291
0.0622039
0.0615727
0.0593047
0.0695667
0.109033
0.0941169
0.0615323
0.0604886
0.059223
0.0610473
0.0994184
0.111163
0.0701984
0.0580277
0.058543
0.0604862
0.0941859
0.0992247
0.0597972
0.0569968
0.0567967
0.070363
0.112207
0.0958306
0.0573781
0.0568315
0.0551239
0.0654608
0.106555
0.0922581
0.0578652
0.05673
0.0549075
0.0575969
0.0971811
0.10755
0.0681393
0.0549458
0.055229
0.0572702
0.0918743
0.0970953
0.056785
0.0526383
0.0540052
0.0694258
0.109553
0.0935249
0.0540993
0.0527504
0.0520254
0.0635172
0.104609
0.0895951
0.0548803
0.0530799
0.051019
0.0548187
0.0941722
0.104856
0.0667587
0.0521668
0.0525893
0.0550391
0.0899654
0.0955854
0.0551063
0.0503571
0.0523683
0.0686824
0.108328
0.0926451
0.052036
0.0502118
0.0501332
0.0625833
0.103951
0.0888425
0.0530232
0.0509718
0.0487989
0.0531791
0.0935786
0.10447
0.0662814
0.0504175
0.0498877
0.0528138
0.0894773
0.0953995
0.0529643
0.0476325
0.0505356
0.0684585
0.107382
0.0922375
0.0498668
0.0474159
0.0481043
0.0618132
0.10341
0.0876026
0.0504173
0.0480951
0.0460611
0.0513163
0.0930648
0.105036
0.0669823
0.0490373
0.0462248
0.0485935
0.0896715
0.101152
0.0605916
0.0469289
0.0468722
0.049146
0.0858531
0.0919624
0.0499095
0.0449579
0.0483657
0.0667822
0.104061
0.0896177
0.048643
0.0456233
0.0464506
0.0604595
0.100329
0.0844296
0.048434
0.0461204
0.0442776
0.0494967
0.0904513
0.102624
0.0663431
0.0476791
0.044837
0.04752
0.0878715
0.0994588
0.0598844
0.0458011
0.0455536
0.0478818
0.0845467
0.0905233
0.0493167
0.0439434
0.0476776
0.0662396
0.102843
0.0880965
0.047212
0.0444987
0.0454499
0.0596509
0.0990105
0.0843108
0.0471961
0.0448013
0.0429044
0.0482027
0.0905218
0.102457
0.0663226
0.0469014
0.0437363
0.0462076
0.0883674
0.100133
0.0617623
0.0460249
0.0433429
0.0446852
0.085177
0.0954597
0.0582303
0.0445926
0.0443127
0.0465202
0.0821508
0.0876299
0.0478698
0.0425797
0.0462627
0.0647573
0.0992513
0.0853518
0.0458435
0.0430001
0.0442945
0.058777
0.0967307
0.0826005
0.045956
0.0435446
0.0418849
0.0475252
0.089083
0.100855
0.0656884
0.0461151
0.042695
0.0453993
0.0875948
0.0995185
0.0609628
0.0452583
0.0423379
0.0438364
0.0852581
0.0944601
0.0572845
0.0435117
0.0428163
0.0451333
0.0804101
0.0861734
0.0464341
0.0412004
0.04538
0.0642081
0.0981277
0.0848005
0.0447105
0.0419274
0.044336
0.0592838
0.0966566
0.082837
0.0425915
0.041588
0.0431113
0.0570401
0.0925176
0.0799904
0.0447492
0.042439
0.0411615
0.0467697
0.0862135
0.0975626
0.0641791
0.0453414
0.0418193
0.0445702
0.0841851
0.0956946
0.0592078
0.0442283
0.0412053
0.0424342
0.081928
0.091408
0.0564331
0.0426527
0.0418078
0.0440965
0.0784296
0.0840874
0.0457779
0.0404226
0.0446929
0.0632549
0.0956775
0.0830307
0.0441945
0.0412652
0.0438657
0.0587654
0.0946053
0.081898
0.0423722
0.0409747
0.0425851
0.0565997
0.0910732
0.0782147
0.0439719
0.0415451
0.0402419
0.0457706
0.0839307
0.0961829
0.0629512
0.0446985
0.0410032
0.0437551
0.0836601
0.0953662
0.0583479
0.0435783
0.0403758
0.041255
0.0816384
0.0912243
0.0562578
0.042214
0.0408733
0.0433941
0.078126
0.0838147
0.0452139
0.039649
0.0443526
0.0630669
0.0959321
0.0830286
0.0437298
0.040654
0.043285
0.0584255
0.0943554
0.0802227
0.0409109
0.0398922
0.042386
0.0560408
0.0902072
0.0780874
0.0407744
0.0394613
0.0414982
0.0553253
0.0874096
0.0754381
0.0424848
0.04008
0.0389944
0.0445962
0.0812872
0.0926127
0.0623004
0.0436171
0.04007
0.0429982
0.0814796
0.0932327
0.0577795
0.0429855
0.0395821
0.0411406
0.0806201
0.0902518
0.0560722
0.0421232
0.039117
0.0405311
0.0774807
0.0864941
0.0550514
0.0411524
0.0396049
0.0421336
0.0746448
0.0802345
0.0438483
0.0384379
0.0431536
0.0611008
0.091888
0.0800225
0.0424728
0.0394594
0.0422509
0.0569165
0.0915363
0.0786291
0.0400562
0.0389353
0.0415517
0.0549068
0.0882139
0.0763435
0.0399418
0.0385945
0.0407985
0.0546917
0.0852951
0.0741464
0.0419069
0.0391657
0.0381598
0.0437534
0.0794849
0.0908163
0.060743
0.0430379
0.0390959
0.0423173
0.0793315
0.0908307
0.0565032
0.0420316
0.0385254
0.0395784
0.0780646
0.087924
0.0548001
0.0412804
0.0381931
0.0397146
0.0761187
0.0851325
0.0543154
0.0404479
0.0385121
0.0412569
0.0734045
0.0791037
0.0432892
0.0375349
0.0426592
0.0606563
0.0899203
0.079171
0.0415304
0.0386391
0.0418447
0.0561015
0.0900796
0.0772319
0.0393963
0.0381246
0.0409525
0.0544998
0.0866353
0.0752124
0.0391923
0.0376757
0.0403925
0.0535019
0.0847208
0.0737806
0.0391311
0.0374618
0.0397995
0.0531236
0.08244
0.0719365
0.0408759
0.0378942
0.0370516
0.042893
0.0774367
0.0893493
0.0595959
0.0423522
0.0379822
0.0414042
0.0777196
0.0891919
0.0556116
0.0413788
0.03755
0.0387498
0.0766916
0.0861395
0.053845
0.0405575
0.0372133
0.0386872
0.0744791
0.0835807
0.0530934
0.0399619
0.0369472
0.0387602
0.0729235
0.0813808
0.0525555
0.0392026
0.0372623
0.0401482
0.0705074
0.0757405
0.0418635
0.0363927
0.0415871
0.0583962
0.0865787
0.0752479
0.0405069
0.037455
0.0408884
0.05475
0.0860912
0.0741233
0.0385121
0.0371047
0.0400628
0.0528288
0.0835795
0.0726825
0.0382178
0.0367878
0.0396546
0.052412
0.0816653
0.0713573
0.0385428
0.0366824
0.0389615
0.0517363
0.0796048
0.0695218
0.0398172
0.0369197
0.0361706
0.0417906
0.074664
0.0857754
0.0577771
0.0414081
0.0369817
0.0403506
0.0751509
0.0859909
0.0541027
0.0404533
0.0365233
0.0378731
0.0743704
0.0836397
0.0522535
0.0397562
0.036191
0.0375291
0.0725686
0.0813138
0.051746
0.0391806
0.0360011
0.0377635
0.0708635
0.0788106
0.0513818
0.0385032
0.0363141
0.0392269
0.0683655
0.0735923
0.0411502
0.0355754
0.0408153
0.057138
0.0841488
0.0736299
0.0397344
0.0364429
0.0400334
0.0533577
0.084077
0.072522
0.0373984
0.0359906
0.0391672
0.0513576
0.0814924
0.0708601
0.0370639
0.0356934
0.0387523
0.0508457
0.0794142
0.0695039
0.0373333
0.0355191
0.0381007
0.0506082
0.0774822
0.0675516
0.0387715
0.0357484
0.0351288
0.0409113
0.0729506
0.0841526
0.0565887
0.0406534
0.0358914
0.0393789
0.0731481
0.0838083
0.0531588
0.039762
0.0353344
0.0369427
0.0721356
0.080963
0.0509862
0.0388122
0.0349986
0.036514
0.0705059
0.0790844
0.0504345
0.0383052
0.0348786
0.0366311
0.0690817
0.0773587
0.050013
0.0380257
0.0347754
0.0367491
0.0676175
0.0753327
0.049571
0.0372759
0.0349895
0.0378961
0.0653901
0.0706866
0.0397725
0.0343774
0.0396872
0.0553589
0.0806231
0.0705303
0.0383889
0.0352446
0.0388929
0.0514978
0.0801461
0.0692954
0.0363206
0.0347619
0.03806
0.049848
0.0775771
0.0675308
0.0361297
0.0345382
0.0376597
0.0492855
0.0755035
0.0661684
0.0364473
0.0344712
0.0370934
0.0487022
0.0736856
0.0643978
0.0374602
0.0345836
0.0340553
0.0394759
0.0697727
0.0796815
0.0547298
0.039487
0.0348979
0.0382299
0.0696986
0.0794044
0.0512119
0.0387216
0.0343183
0.0361255
0.0689584
0.0772278
0.0493942
0.0377846
0.0339478
0.0355983
0.0673255
0.075116
0.0487245
0.0372718
0.033717
0.0356982
0.0656775
0.0732492
0.0482057
0.0365252
0.0337923
0.0367833
0.0636188
0.0690777
0.0387237
0.0332593
0.0388493
0.0542842
0.0785499
0.0685832
0.0375774
0.0341692
0.0380129
0.0503097
0.0777666
0.0673515
0.0354854
0.033647
0.037154
0.0486769
0.0752138
0.065524
0.0351462
0.0332947
0.0365772
0.0478308
0.0732971
0.0641598
0.0351412
0.0331466
0.0359831
0.047418
0.0717648
0.0625153
0.0362218
0.0332156
0.032718
0.0382889
0.0678372
0.0772188
0.0534063
0.0383433
0.033658
0.0371288
0.0675066
0.0767104
0.0497903
0.0376316
0.033121
0.0351184
0.0664784
0.074556
0.0482654
0.036792
0.0328163
0.0348144
0.0649481
0.0728562
0.0475728
0.0363405
0.0326138
0.0347755
0.0635803
0.0713009
0.0470995
0.0356196
0.0326666
0.0357439
0.0620847
0.067314
0.0376688
0.0321495
0.0378136
0.0527354
0.0761964
0.0665966
0.0366818
0.0331374
0.0370531
0.0490428
0.0751338
0.0649223
0.0346434
0.0326278
0.0361594
0.0472627
0.0727596
0.0630171
0.0341916
0.0322581
0.0354785
0.0467319
0.0708786
0.0621545
0.0355672
0.0322399
0.0318694
0.0377487
0.067685
0.0770485
0.0529361
0.0380559
0.032935
0.0367694
0.0670413
0.0758735
0.0492311
0.0371135
0.0322773
0.0344425
0.0655292
0.073509
0.0474231
0.036106
0.0318448
0.0339527
0.0634343
0.0712482
0.0467893
0.0352833
0.0317083
0.0351452
0.0617809
0.0671846
0.0370988
0.0312501
0.0374177
0.0526775
0.0756367
0.0660326
0.0359745
0.0322978
0.0363596
0.0482114
0.0744869
0.0637775
0.0335504
0.0316255
0.0355296
0.0467075
0.0720266
0.0627931
0.0336641
0.0313886
0.0350183
0.0464862
0.070683
0.0614986
0.0348895
0.0312941
0.0309922
0.0372113
0.0670561
0.0761655
0.052256
0.0375298
0.0319857
0.0360756
0.0657112
0.0747969
0.0485543
0.0364472
0.0314048
0.0336872
0.0642463
0.072136
0.0466187
0.0353572
0.0309165
0.0331839
0.0623132
0.0702471
0.0459539
0.0344905
0.0307303
0.0343058
0.061009
0.0663185
0.0361884
0.0302839
0.036641
0.0511574
0.074445
0.0643961
0.0351203
0.0313714
0.0358447
0.04787
0.0734305
0.0633522
0.0334392
0.0310326
0.035035
0.0461904
0.0713671
0.061933
0.0330117
0.0307695
0.0344995
0.045851
0.0698781
0.060901
0.0343917
0.0306729
0.0303833
0.0365813
0.0663895
0.0747319
0.0517629
0.0370856
0.0315258
0.0356202
0.0645369
0.0730993
0.0477819
0.035948
0.0308401
0.0334035
0.0627293
0.0706001
0.0460501
0.0346046
0.0303037
0.0339197
0.0609682
0.0659686
0.0354721
0.029878
0.0366519
0.0513884
0.0745216
0.0640908
0.0351817
0.0310516
0.0357792
0.0477317
0.0729666
0.0630102
0.0332563
0.0306696
0.0348097
0.0461151
0.0710886
0.0615009
0.0327287
0.0303463
0.0341385
0.0455413
0.0693287
0.0602096
0.0339078
0.0301404
0.0299045
0.0360691
0.0654881
0.0737094
0.0515422
0.0367489
0.0311092
0.0353712
0.0636604
0.072093
0.0474101
0.0356457
0.0305071
0.0330909
0.0620244
0.0697917
0.0457047
0.0343164
0.0299487
0.0335755
0.0597151
0.0648549
0.0354609
0.0296242
0.0365722
0.0512104
0.0738205
0.0641347
0.0351018
0.030938
0.0356457
0.0475928
0.0726348
0.0625511
0.03328
0.0304864
0.0344837
0.0460444
0.0703541
0.0608878
0.0338812
0.0300611
0.0298515
0.0360066
0.0660747
0.0742401
0.0518074
0.0368638
0.0309667
0.0355001
0.0637677
0.0720595
0.0477799
0.0354969
0.0302196
0.0341199
0.0617499
0.066828
0.0358387
0.0298146
0.0367753
0.0514971
0.0748958
0.0635467
0.0346906
0.0307083
0.0357094
0.0476904
0.0724002
0.0626335
0.0332919
0.0302078
0.0345931
0.0463507
0.0707643
0.0613191
0.0339055
0.0297874
0.0296269
0.0361835
0.0666701
0.0749486
0.0518871
0.0369679
0.0307121
0.0353274
0.0643914
0.0727352
0.0477183
0.0354141
0.0297722
0.0338055
0.0622176
0.0672933
0.0355164
0.0294299
0.036749
0.0517703
0.0755079
0.0643874
0.0348177
0.0304079
0.0351116
0.0473741
0.0724403
0.0613472
0.033578
0.0293664
0.0291614
0.0356843
0.0669242
0.0761688
0.052442
0.0370589
0.0305323
0.0351049
0.0652018
0.0736287
0.0482571
0.035583
0.0294961
0.0338102
0.0627263
0.0679642
0.035697
0.0292449
0.0369434
0.0521796
0.0762693
0.0649767
0.0349247
0.0302659
0.0353202
0.0478084
0.0732515
0.0623722
0.0335978
0.0292502
0.0289246
0.0353761
0.0675057
0.0757538
0.0518247
0.0365451
0.029771
0.0337676
0.0630073
0.0716496
0.0472248
0.0348958
0.0287763
0.033294
0.0616597
0.0673267
0.0352128
0.0286816
0.0366002
0.0520816
0.0759125
0.064873
0.0345992
0.0299108
0.0349856
0.0476245
0.0730912
0.0623128
0.0333032
0.0289138
0.0286646
0.0351523
0.0673079
0.07548
0.0517647
0.0364275
0.0296728
0.0344255
0.0640256
0.0719457
0.0470365
0.0345725
0.0283833
0.0326911
0.0603379
0.0643009
0.033441
0.0278833
0.0352467
0.0505263
0.0730084
0.0629214
0.034287
0.0288061
0.0286653
0.0357577
0.0684385
0.0769894
0.0527933
0.0369328
0.0298827
0.0346823
0.0654541
0.0733615
0.0476929
0.0350258
0.0285223
0.0329084
0.0621727
0.0667511
0.0346074
0.0282476
0.0356966
0.0512609
0.0745387
0.0631233
0.0346037
0.0288473
0.0282412
0.0346356
0.0672867
0.0752762
0.0515132
0.035842
0.0285896
0.0343497
0.0637899
0.0694209
0.0353784
0.0283545
0.0369556
0.053105
0.0782872
0.0660149
0.0344656
0.0296008
0.0349453
0.047838
0.0737899
0.0620904
0.0327157
0.0281913
0.0279148
0.0342966
0.0664363
0.0738523
0.0508812
0.0353015
0.0283324
0.0340783
0.0620792
0.0657793
0.0338159
0.0276904
0.0350566
0.0502129
0.0735735
0.0623159
0.033521
0.0279577
0.0277841
0.0346926
0.0676782
0.0763645
0.0519325
0.0358141
0.0284671
0.0344851
0.0642042
0.0687096
0.035129
0.0281366
0.0359286
0.0518376
0.0763756
0.0637384
0.0341597
0.0283104
0.0277755
0.0345514
0.0677337
0.0747244
0.050513
0.0351549
0.0275311
0.0330129
0.0617596
0.0661128
0.0359727
0.0276667
0.0278538
0.0379034
0.0723616
0.0814749
0.0545882
0.0372983
0.0285373
0.0351934
0.0673079
0.0716252
0.0353227
0.0280291
0.0359123
0.0524363
0.0789469
0.0644146
0.0334679
0.0275031
0.0268456
0.0343107
0.0665038
0.0708481
0.035891
0.0266647
0.036157
0.0537871
0.0802869
0.0668871
0.0341211
0.0274294
0.0276179
0.0366721
0.0710391
0.0761943
0.0383363
0.0276812
0.0371673
0.0547065
0.0839134
0.0659124
0.0338841
0.0273747
0.0266836
0.0348189
0.0682522
0.073074
0.0363298
0.0264247
0.0359126
0.0537743
0.0832498
0.0681585
0.0338763
0.0267933
0.026265
0.0333236
0.0716543
0.0765991
0.0396091
0.026927
0.0260042
0.0351681
0.0776038
0.0839939
0.0566577
0.0363598
0.0264937
0.033946
0.0692497
0.0749315
0.0346907
0.0262591
0.0263636
0.0384903
0.0795611
0.0821193
0.0361291
0.0254606
0.025965
0.0405906
0.0851463
0.0895379
0.0399186
0.0252437
0.0364279
0.0592725
0.0971407
0.0724989
0.0340418
0.0257536
0.0252392
0.0338454
0.0751496
0.0802829
0.0378271
0.0253263
0.0252834
0.0383208
0.0859897
0.0913199
0.0397263
0.0255417
0.0260534
0.0424366
0.0959853
0.100927
0.0447848
0.0266218
0.0271996
0.0470481
0.104834
0.106856
0.0494129
0.0277658
0.0282822
0.0514271
0.108002
0.108673
0.0536595
0.0288861
0.0294722
0.0558794
0.109055
0.109221
0.0584298
0.0302712
0.0309825
0.0609259
0.109291
0.109305
0.063377
0.03199
0.0328406
0.0657734
0.109291
0.109273
0.0681301
0.0339984
0.0349877
0.0704325
0.109244
0.109223
0.0726663
0.0362793
0.0375055
0.0747014
0.109205
0.10921
0.0766644
0.0390053
0.040388
0.0784627
0.109226
0.109262
0.0802252
0.0420003
0.0433936
0.0819099
0.109311
0.109381
0.0835507
0.0450119
0.0464077
0.085104
0.109463
0.109566
0.0866059
0.0480205
0.0494146
0.0880121
0.109675
0.109798
0.0893603
0.0510183
0.0524082
0.0906102
0.109922
0.110057
0.091803
0.0540001
0.0553883
0.0928973
0.110188
0.110325
0.0939355
0.0569796
0.0583653
0.0948739
0.110453
0.110581
0.0957547
0.0599523
0.0612957
0.0965477
0.110697
0.110811
0.0972924
0.0628048
0.0640664
0.097955
0.110911
0.111007
0.0985752
0.0654775
0.0666455
0.0991204
0.111088
0.111163
0.0996277
0.0679552
0.0690253
0.100069
0.111225
0.11128
0.100468
0.07023
0.0711958
0.100825
0.111319
0.111357
0.10115
0.0722911
0.0731468
0.101409
0.111378
0.111395
0.10167
0.0741249
0.0748703
0.101854
0.111401
0.111401
0.102049
0.0757339
0.0763748
0.102173
0.111394
0.11138
0.102309
0.0771298
0.0776741
0.102381
0.111361
0.111335
0.102467
0.0783294
0.0787887
0.1025
0.111308
0.111272
0.102545
0.0793521
0.0797344
0.102547
0.111238
0.111194
0.102558
0.0802146
0.0805302
0.102534
0.111155
0.111104
0.102515
0.08093
0.0811879
0.102471
0.111061
0.111005
0.102428
0.0815152
0.0817271
0.10237
0.11096
0.1109
0.102308
0.0819886
0.0821625
0.102238
0.110853
0.110793
0.102164
0.0823695
0.0825123
0.102088
0.110747
0.110688
0.102004
0.0826672
0.0827851
0.10192
0.11064
0.110582
0.101833
0.0829048
0.082995
0.101744
0.110535
0.110478
0.101654
0.083093
0.0831554
0.101562
0.110431
0.110376
0.101474
0.0832315
0.0832627
0.101381
0.11033
0.110277
0.101294
0.0833209
0.0833289
0.1012
0.110232
0.110181
0.101112
0.0833743
0.0833663
0.10102
0.110139
0.110089
0.100932
0.0834011
0.083382
0.100843
0.110048
0.110001
0.100755
0.0834097
0.083385
0.10067
0.109963
0.109916
0.100582
0.0834046
0.0833775
0.100502
0.10988
0.109836
0.100416
0.0833919
0.0833682
0.100341
0.109804
0.109761
0.100258
0.0833771
0.0833547
0.100189
0.10973
0.10969
0.100109
0.0833634
0.0833438
0.100046
0.109662
0.109625
0.0999718
0.0833522
0.0833351
0.0999146
0.109598
0.109562
0.0998446
0.0833444
0.0833322
0.0997934
0.109539
0.109506
0.0997297
0.0833434
0.083335
0.0996841
0.109485
0.109453
0.0996255
0.0833478
0.0833444
0.0995855
0.109435
0.109406
0.0995327
0.0833595
0.0833605
0.0994981
0.10939
0.109362
0.0994501
0.0833777
0.0833838
0.0994209
0.109348
0.109324
0.0993781
0.0834036
0.083414
0.0993536
0.109311
0.109289
0.0993153
0.0834359
0.0834509
0.0992952
0.109277
0.109257
0.0992614
0.0834759
0.0834933
0.0992447
0.109246
0.109228
0.0992144
0.0835196
0.0835416
0.0992008
0.109217
0.109202
0.0991745
0.083569
0.0835942
0.0991629
0.109191
0.109179
0.0991405
0.0836223
0.0836508
0.0991302
0.109168
0.109157
0.0991119
0.0836795
0.0837101
0.0991024
0.109147
0.109136
0.0990875
0.0837393
0.083772
0.0990789
0.109127
0.109117
0.0990671
0.0838013
0.0838352
0.0990589
0.10911
0.109099
0.0990502
0.083864
0.0838993
0.0990429
0.109094
0.109083
0.0990357
0.0839277
0.0839633
0.0990291
0.109079
0.109068
0.0990219
0.0839909
0.0840269
0.0990173
0.109064
0.109055
0.0990103
0.0840538
0.0840894
0.099007
0.109051
0.109042
0.099
0.0841153
0.0841508
0.0989982
0.109039
0.10903
0.0989913
0.0841759
0.0842106
0.0989905
0.109027
0.109018
0.0989835
0.0842347
0.0842691
0.0989839
0.109017
0.109008
0.0989769
0.0842923
0.0843259
0.0989783
0.109006
0.108998
0.0989711
0.0843481
0.0843809
0.0989732
0.108996
0.108988
0.0989658
0.084402
0.0844335
0.0989681
0.108987
0.108978
0.0989602
0.0844533
0.0844834
0.0989629
0.108977
0.108969