/*--------------------------------*- C++ -*----------------------------------*\
| =========                 |                                                 |
| \\      /  F ield         | OpenFOAM: The Open Source CFD Toolbox           |
|  \\    /   O peration     | Version:  v2006                                 |
|   \\  /    A nd           | Website:  www.openfoam.com                      |
|    \\/     M anipulation  |                                                 |
\*---------------------------------------------------------------------------*/
FoamFile
{
    version     2.0;
    format      ascii;
    class       volScalarField;
    location    "0.076";
    object      alphat;
}
// * * * * * * * * * * * * * * * * * * * * * * * * * * * * * * * * * * * * * //

dimensions      [1 -1 -1 0 0 0 0];


internalField   nonuniform List<scalar> 
16277
(
42.5477
31.2072
90.5943
22.1394
32.0609
16.5179
6.47867
2.62548
1.4132
0.953875
0.75034
0.64698
0.585029
0.540062
0.502296
0.468368
0.4375
0.409729
0.385089
0.363412
0.344367
0.327556
0.312599
0.299173
0.28702
0.275944
0.265796
0.256459
0.247842
0.23987
0.232478
0.225612
0.219226
0.21328
0.20774
0.202575
0.19776
0.193272
0.18909
0.185197
0.181575
0.178213
0.175096
0.172215
0.16956
0.167122
0.164895
0.162873
0.161051
0.159426
0.157996
0.156759
0.155716
0.154867
0.154212
0.153757
0.153506
0.153467
0.153647
0.154049
0.154687
0.155573
0.156724
0.158158
0.159897
0.161966
0.164396
0.167224
0.170499
0.17428
0.178648
0.183709
0.1896
0.19648
0.204506
0.213788
0.22433
0.236054
0.249065
0.264504
0.286364
0.325982
0.412476
0.621688
1.15788
2.43457
4.29936
4.5982
2.72468
1.80002
0.886135
0.404016
0.219672
0.103641
0.0245577
0.00441852
0.000146401
0.000127054
0.00207673
0.00956445
0.00527019
0.00134568
0.00011128
9.96371e-05
0.00122689
0.0044318
0.00353619
0.00105454
9.20691e-05
8.61344e-05
0.00102197
0.00335345
0.00290157
0.000920534
8.10801e-05
7.7673e-05
0.000904697
0.00282632
0.00257243
0.000843074
7.43146e-05
7.24987e-05
0.000848153
0.00254624
0.00238182
0.000803043
7.02804e-05
6.90878e-05
0.000810251
0.00236723
0.00224242
0.000773927
6.74512e-05
6.66269e-05
0.000781081
0.0022359
0.00213273
0.000750272
6.53482e-05
6.47503e-05
0.000757222
0.00213071
0.00204133
0.00073011
6.37121e-05
6.32627e-05
0.000737036
0.0020422
0.00196267
0.000712413
6.23848e-05
6.20308e-05
0.000719367
0.00196543
0.00189328
0.000696439
6.12596e-05
6.09713e-05
0.000703313
0.00189731
0.00183098
0.000681711
6.02782e-05
6.00359e-05
0.000688501
0.00183591
0.0017744
0.000668009
5.93999e-05
5.919e-05
0.000674728
0.00178
0.00172256
0.000655201
5.85971e-05
5.84111e-05
0.000661861
0.00172874
0.00167471
0.000643181
5.78519e-05
5.76841e-05
0.000649776
0.00168141
0.00163039
0.000631843
5.71521e-05
5.69984e-05
0.000638373
0.00163754
0.0015892
0.000621111
5.64884e-05
5.63459e-05
0.000627576
0.00159675
0.00155086
0.000610928
5.58543e-05
5.57207e-05
0.000617344
0.00155876
0.0015151
0.000601271
5.52448e-05
5.51188e-05
0.00060764
0.00152327
0.00148162
0.000592099
5.46565e-05
5.45373e-05
0.000598416
0.00149002
0.00145017
0.000583358
5.40865e-05
5.3973e-05
0.00058962
0.00145871
0.00142047
0.000575001
5.35318e-05
5.34232e-05
0.000581202
0.00142913
0.00139234
0.000566978
5.299e-05
5.28854e-05
0.000573114
0.00140106
0.00136557
0.000559246
5.24583e-05
5.23569e-05
0.000565311
0.00137432
0.00134001
0.000551758
5.19343e-05
5.18354e-05
0.000557746
0.00134875
0.00131551
0.000544475
5.14158e-05
5.13186e-05
0.000550381
0.00132422
0.00129195
0.000537362
5.09005e-05
5.08044e-05
0.000543182
0.0013006
0.00126922
0.000530388
5.03863e-05
5.02906e-05
0.00053612
0.0012778
0.00124722
0.000523529
4.98714e-05
4.97755e-05
0.00052917
0.00125571
0.00122588
0.000516762
4.93539e-05
4.92573e-05
0.000522313
0.00123427
0.00120514
0.000510071
4.88322e-05
4.87344e-05
0.000515533
0.00121344
0.00118495
0.000503446
4.83048e-05
4.82056e-05
0.000508821
0.00119315
0.00116529
0.00049688
4.77703e-05
4.76695e-05
0.000502188
0.0011734
0.00114612
0.000490376
4.72277e-05
4.71253e-05
0.000495674
0.00115417
0.00112746
0.000483958
4.66763e-05
4.65725e-05
0.000489229
0.00113545
0.0011093
0.000477601
4.61156e-05
4.60102e-05
0.000482866
0.00111724
0.00109163
0.000471327
4.55449e-05
4.54382e-05
0.000476608
0.00109955
0.0010745
0.000465164
4.49643e-05
4.48568e-05
0.000470489
0.00108244
0.00105796
0.000459149
4.43744e-05
4.42665e-05
0.000464549
0.00106597
0.00104208
0.000453328
4.3776e-05
4.3669e-05
0.000458849
0.00105037
0.00102705
0.000447774
4.31714e-05
4.30665e-05
0.000453469
0.0010358
0.001013
0.000442571
4.25635e-05
4.24628e-05
0.000448494
0.00102226
0.00100004
0.000437811
4.19568e-05
4.18626e-05
0.000444029
0.00100999
0.000988432
0.000433609
4.13564e-05
4.12722e-05
0.000440204
0.000999274
0.000978479
0.000430107
4.07692e-05
4.06997e-05
0.000437166
0.00099042
0.000970514
0.000427484
4.02033e-05
4.01566e-05
0.000434986
0.000983771
0.000964923
0.000425862
3.96765e-05
3.96457e-05
0.00043349
0.000979577
0.000961825
0.000424852
3.92096e-05
3.91834e-05
0.000432716
0.000978328
0.000961698
0.000424685
3.88013e-05
3.87789e-05
0.000432784
0.000980042
0.0009645
0.000425427
3.84854e-05
3.84469e-05
0.000433666
0.000984533
0.000970122
0.000427056
3.82587e-05
3.8208e-05
0.000435243
0.00099142
0.00097803
0.000429158
3.80408e-05
3.80637e-05
0.000437209
0.00100051
0.000988104
0.000431378
3.78989e-05
3.79844e-05
0.000439146
0.00101146
0.000999857
0.000433632
3.78381e-05
3.79997e-05
0.000440765
0.00102299
0.00101182
0.000435576
3.78784e-05
3.80926e-05
0.000442093
0.00103403
0.00102307
0.000436978
3.79961e-05
3.82514e-05
0.000443358
0.00104408
0.00103333
0.000438088
3.81803e-05
3.84719e-05
0.000444359
0.00105291
0.00104241
0.000439105
3.84254e-05
3.87459e-05
0.000445261
0.00106044
0.00105013
0.000439652
3.87199e-05
3.90577e-05
0.000445921
0.00106681
0.00105628
0.000439994
3.90507e-05
3.9397e-05
0.000446356
0.00107174
0.00106056
0.000440156
3.94063e-05
3.97517e-05
0.000446563
0.00107589
0.00106352
0.000440196
3.97744e-05
4.01106e-05
0.000446628
0.00107839
0.00106481
0.000439896
4.01438e-05
4.04639e-05
0.000446557
0.00107914
0.00106359
0.000439138
4.05046e-05
4.0802e-05
0.000445831
0.00107773
0.00106103
0.000438154
4.0845e-05
4.11131e-05
0.000444862
0.00107489
0.00105743
0.00043706
4.11553e-05
4.13906e-05
0.000443756
0.00107083
0.00105281
0.000435934
4.14295e-05
4.16305e-05
0.00044255
0.00106564
0.00104729
0.000434813
4.16642e-05
4.18307e-05
0.000441305
0.00105948
0.00104105
0.000433722
4.18578e-05
4.1992e-05
0.000440055
0.00105256
0.00103422
0.000432674
4.20123e-05
4.21177e-05
0.000438806
0.00104501
0.00102693
0.000431652
4.21315e-05
4.22063e-05
0.000437555
0.00103703
0.00101918
0.000430619
4.2217e-05
4.22674e-05
0.00043628
0.00102885
0.00101127
0.000429556
4.22751e-05
4.23056e-05
0.000434971
0.00102055
0.0010033
0.000428457
4.23103e-05
4.2328e-05
0.000433652
0.00101234
0.000995289
0.000427253
4.2324e-05
4.23347e-05
0.000432289
0.00100416
0.000987236
0.000425908
4.23121e-05
4.23209e-05
0.000430891
0.000995955
0.000979194
0.000424549
4.22867e-05
4.22932e-05
0.000429474
0.000987765
0.000971128
0.000423136
4.22501e-05
4.22543e-05
0.000427967
0.000979535
0.000963071
0.000421668
4.22053e-05
4.22076e-05
0.000426462
0.000971368
0.000955021
0.000420168
4.21497e-05
4.21503e-05
0.00042486
0.000963189
0.000946837
0.000418553
4.20874e-05
4.20892e-05
0.000423176
0.000954966
0.000938691
0.000416869
4.20223e-05
4.202e-05
0.000421449
0.000946783
0.000930666
0.000415177
4.19499e-05
4.19447e-05
0.000419696
0.000938665
0.000922623
0.000413382
4.18503e-05
4.18829e-05
0.000417935
0.000930639
0.000913997
0.000411567
4.17515e-05
4.17975e-05
0.000415734
0.000923037
0.000906866
0.000408631
4.15895e-05
4.18465e-05
0.000415993
0.000920597
0.000909376
0.000415469
4.17382e-05
4.24201e-05
0.000416157
0.000919466
0.000962878
0.000437552
4.27351e-05
4.55271e-05
0.000410331
0.000936089
0.0014295
0.000596355
5.13535e-05
5.54176e-05
0.000309263
0.000709889
0.00175129
0.00401349
0.00750333
0.0106975
0.0128831
0.016934
0.0195202
0.0218409
0.0231475
0.0237723
0.0235967
0.0225468
0.0210522
0.0186549
0.0163045
0.0127411
0.0111326
0.00810052
0.00606059
0.00411646
0.00233992
0.00107412
0.000391652
0.000163021
3.14001e-05
2.04632e-05
0.000150754
0.000355095
0.000335036
0.000143144
1.97066e-05
1.89275e-05
0.00013817
0.000317569
0.000319188
0.000136292
1.87288e-05
1.8592e-05
0.000135372
0.00031406
0.000313957
0.000133998
1.84273e-05
1.84074e-05
0.000134038
0.000313777
0.000314592
0.000134091
1.84347e-05
1.84358e-05
0.000134275
0.00031529
0.000315731
0.000134504
1.84663e-05
1.84788e-05
0.0001347
0.000316695
0.000317149
0.000134917
1.84966e-05
1.85265e-05
0.000135172
0.000318142
0.000318676
0.000135396
1.85158e-05
1.85493e-05
0.000135689
0.000319692
0.000320239
0.000135873
1.85622e-05
1.85962e-05
0.000136176
0.000321314
0.000321825
0.000136329
1.85974e-05
1.8606e-05
0.000136768
0.000322993
0.000323533
0.000136872
1.86471e-05
1.86557e-05
0.000137288
0.000324721
0.000325266
0.000137458
1.86729e-05
1.86807e-05
0.000137865
0.000326446
0.000326988
0.000138002
1.87237e-05
1.87312e-05
0.00013841
0.000328241
0.000328833
0.000138617
1.87504e-05
1.87556e-05
0.00013903
0.000330118
0.000330718
0.000139213
1.88045e-05
1.88102e-05
0.000139624
0.000331936
0.000332535
0.000139834
1.88315e-05
1.88362e-05
0.000140264
0.000333867
0.000334499
0.000140445
1.8884e-05
1.88921e-05
0.000140886
0.000335801
0.000336439
0.000141111
1.89127e-05
1.89231e-05
0.000141584
0.000337812
0.000338438
0.000141841
1.89554e-05
1.89921e-05
0.000142195
0.000339829
0.00034048
0.00014245
1.89983e-05
1.90097e-05
0.000142973
0.000341905
0.000342562
0.000143224
1.90432e-05
1.90812e-05
0.000143623
0.000343985
0.000344649
0.000143871
1.90871e-05
1.90996e-05
0.00014442
0.000346098
0.000346765
0.000144675
1.91332e-05
1.91719e-05
0.000145095
0.000348226
0.000348912
0.000145347
1.91778e-05
1.91914e-05
0.000145929
0.000350416
0.000351104
0.000146194
1.92252e-05
1.92653e-05
0.000146626
0.000352547
0.000353207
0.000146861
1.92708e-05
1.92832e-05
0.000147428
0.00035465
0.000355316
0.000147682
1.93164e-05
1.9355e-05
0.000148124
0.000356773
0.000357427
0.000148336
1.93582e-05
1.93743e-05
0.000148927
0.000358877
0.000359481
0.000149145
1.94045e-05
1.94442e-05
0.000149545
0.000360823
0.00036138
0.000149705
1.94429e-05
1.94552e-05
0.000150231
0.000362751
0.00036331
0.000150385
1.94807e-05
1.95185e-05
0.000150732
0.000364554
0.000364938
0.00015081
1.95151e-05
1.95199e-05
0.000151192
0.000366005
0.000366377
0.000151161
1.95568e-05
1.95537e-05
0.000151419
0.0003673
0.000367581
0.000151333
1.95607e-05
1.95559e-05
0.000151495
0.000368371
0.000368579
0.000151305
1.95859e-05
1.95757e-05
0.000151306
0.000369077
0.000369074
0.000150969
1.95715e-05
1.95542e-05
0.000150774
0.000369276
0.000369199
0.000150334
1.95595e-05
1.95619e-05
0.000149868
0.000369258
0.000368894
0.000149249
1.95334e-05
1.95038e-05
0.000148679
0.000368768
0.000367898
0.000147815
1.94997e-05
1.94937e-05
0.000146946
0.000367662
0.000366519
0.000145813
1.94505e-05
1.94195e-05
0.000144906
0.000366224
0.000364657
0.000143471
1.94195e-05
1.93936e-05
0.000142292
0.000364056
0.000362215
0.000140755
1.93682e-05
1.93505e-05
0.000139571
0.000362079
0.000360387
0.000137995
1.93558e-05
1.9392e-05
0.000136609
0.000360256
0.000358055
0.000134919
1.93923e-05
1.9442e-05
0.000133616
0.000358037
0.00035664
0.00013206
1.94806e-05
1.95843e-05
0.000131037
0.000357743
0.000357079
0.000129785
1.96895e-05
1.98739e-05
0.00012912
0.000359215
0.000360584
0.000127494
2.00319e-05
2.02348e-05
0.000126944
0.000365129
0.000370266
0.000128354
2.04299e-05
2.06409e-05
0.000128986
0.000375253
0.000378035
0.000128271
2.06916e-05
2.08364e-05
0.000125897
0.000383514
0.000389725
0.000132619
2.11293e-05
2.13297e-05
0.0001286
0.000394781
0.000399551
0.000131672
2.16773e-05
2.19299e-05
0.000133303
0.000408926
0.000411748
0.000136087
2.22976e-05
2.28176e-05
0.000143306
0.000424795
0.000427375
0.000147118
2.33286e-05
2.3775e-05
0.000153318
0.000438496
0.000441877
0.000158684
2.4658e-05
2.6509e-05
0.000184393
0.000461534
0.000458758
0.000194698
1.98944e-05
1.51252e-05
4.74306e-05
0.000129419
0.000359031
0.000110314
1.79625e-05
1.89009e-05
9.98934e-05
0.000329877
0.000347336
0.000103926
1.93655e-05
1.97445e-05
9.82851e-05
0.000332054
0.000356776
0.000105585
2.0274e-05
2.08178e-05
0.000103747
0.000351723
0.000387157
0.000117879
2.14569e-05
2.22623e-05
0.000117631
0.000380351
0.000418315
0.000137826
2.3212e-05
2.4444e-05
0.000141662
0.000421587
0.000469826
0.000172038
2.7047e-05
2.06706e-05
0.000189594
0.000480044
0.000129868
4.43971e-05
1.60275e-05
1.95079e-05
0.000120615
0.000404079
0.000395248
0.000112598
2.13017e-05
2.27853e-05
0.0001482
0.000488936
0.000498103
0.000149
2.35857e-05
2.49872e-05
0.000173983
0.000553269
0.000568949
0.00018578
2.67239e-05
2.98427e-05
0.000221021
0.000621639
0.000602629
0.000238535
2.31794e-05
1.76645e-05
5.40683e-05
0.000158077
0.000489607
0.000143701
2.08062e-05
2.26303e-05
0.000134931
0.00048058
0.000552476
0.000166977
2.42295e-05
2.5771e-05
0.000166254
0.000544602
0.000619531
0.000213281
2.98433e-05
2.3987e-05
0.000248814
0.00062563
0.00017137
5.45309e-05
1.74206e-05
2.1988e-05
0.000153856
0.000558294
0.000574629
0.000160935
2.48087e-05
2.86788e-05
0.000226576
0.000739191
0.00077437
0.000268884
3.36748e-05
2.75603e-05
0.000310718
0.000781392
0.000218779
6.33076e-05
1.81593e-05
2.39734e-05
0.000204883
0.000694279
0.000690274
0.000198965
2.80738e-05
3.53397e-05
0.000298951
0.000877384
0.000893251
0.000349104
2.93984e-05
1.91672e-05
7.23223e-05
0.000275217
0.000901969
0.000266569
2.80142e-05
3.52681e-05
0.000279917
0.000968883
0.00134505
0.000473274
4.83043e-05
4.02367e-05
0.000504383
0.00129221
0.000456588
0.000119763
2.62393e-05
4.67082e-05
0.000488228
0.00140679
0.00140577
0.000522563
4.35288e-05
3.00764e-05
0.000135261
0.000550674
0.00194829
0.000647258
6.50306e-05
6.41096e-05
0.000747492
0.00211769
0.000964491
0.000266416
4.07545e-05
6.49207e-05
0.000867563
0.00252798
0.00167
0.000553871
4.32299e-05
8.02869e-05
0.000976811
0.00196958
0.00168935
0.000817163
6.60129e-05
6.67786e-05
0.000778172
0.00185144
0.00237184
0.000857631
7.64767e-05
0.000105524
0.00159894
0.00394734
0.000879066
0.000273263
5.99243e-05
6.13501e-05
0.000766022
0.00175546
0.000542728
0.000193885
4.27511e-05
4.63882e-05
0.000472947
0.00113717
0.000972102
0.000349015
4.66176e-05
2.41498e-05
8.77573e-05
0.000280033
0.000655792
0.000358366
3.11189e-05
2.9073e-05
0.000116967
0.000299876
0.000725677
0.0003189
3.3176e-05
3.5397e-05
0.000258113
0.000655992
0.000212637
7.97984e-05
2.33866e-05
2.78688e-05
0.000251384
0.000565802
0.000519567
0.00021111
3.13697e-05
2.1814e-05
6.84646e-05
0.000173498
0.000480799
0.000213848
2.52521e-05
2.89587e-05
0.000185078
0.000441675
0.000153167
6.38278e-05
2.11025e-05
2.38347e-05
0.000190271
0.000423805
0.000383932
0.000168467
2.81259e-05
2.08223e-05
5.92665e-05
0.000136659
0.000374027
0.000170983
2.25479e-05
2.6892e-05
0.000150401
0.00034058
0.0001237
5.56597e-05
2.04564e-05
2.19284e-05
0.00015953
0.000338171
0.000305416
0.000140083
2.61749e-05
2.00597e-05
5.24861e-05
0.0001145
0.000308339
0.00014732
2.09907e-05
2.56807e-05
0.000130822
0.00028151
0.000110537
5.21317e-05
2.01588e-05
2.10874e-05
0.000149752
0.000300071
0.000254323
0.000120175
2.64023e-05
2.22694e-05
9.65189e-05
0.000208352
8.38821e-05
3.79167e-05
1.75178e-05
1.77269e-05
0.000101992
0.000206277
0.000195322
9.42836e-05
2.2627e-05
1.85465e-05
3.7913e-05
7.84894e-05
0.000189371
9.5992e-05
1.72858e-05
2.20411e-05
8.78381e-05
0.00017533
7.43159e-05
3.68983e-05
1.74052e-05
1.69043e-05
9.07162e-05
0.000169065
0.000161835
8.64337e-05
2.19444e-05
1.82962e-05
3.55641e-05
6.96832e-05
0.000159129
8.57398e-05
1.66907e-05
2.12702e-05
8.01916e-05
0.000149051
6.62428e-05
3.4314e-05
1.77294e-05
1.61801e-05
7.90395e-05
0.00014592
0.00014032
7.73154e-05
2.10941e-05
1.71778e-05
3.36464e-05
6.38966e-05
0.000138708
7.75678e-05
1.61418e-05
2.1366e-05
7.56525e-05
0.000132918
6.17464e-05
3.33327e-05
1.69615e-05
1.57043e-05
7.12648e-05
0.000125781
0.000122572
7.04683e-05
2.08474e-05
1.63545e-05
3.02677e-05
5.53603e-05
0.000108268
7.93115e-05
1.50933e-05
1.95176e-05
3.88431e-05
6.29081e-05
0.000143274
8.20935e-05
1.73958e-05
2.17818e-05
7.51789e-05
0.000132582
6.39243e-05
3.67826e-05
1.77324e-05
1.6226e-05
7.90839e-05
0.000132398
0.000125265
7.34064e-05
2.14131e-05
1.78655e-05
3.68076e-05
6.22051e-05
0.000130461
7.84444e-05
1.62698e-05
2.11925e-05
7.28019e-05
0.000123167
6.07235e-05
3.67571e-05
1.76579e-05
1.60893e-05
7.39255e-05
0.000118006
0.000111931
6.74042e-05
2.15472e-05
1.78774e-05
3.61176e-05
5.69801e-05
0.000109615
6.92172e-05
1.57035e-05
2.07871e-05
6.37654e-05
0.000102664
5.07929e-05
3.2973e-05
1.62592e-05
1.46516e-05
6.82502e-05
9.18839e-05
5.57704e-05
3.84546e-05
1.91049e-05
1.68886e-05
6.77292e-05
0.00010945
9.97599e-05
6.11252e-05
2.14808e-05
1.75301e-05
3.66182e-05
5.3228e-05
9.92577e-05
6.47906e-05
1.56311e-05
2.0746e-05
5.98608e-05
9.00303e-05
4.84708e-05
3.45467e-05
1.66666e-05
1.46761e-05
6.43053e-05
8.27835e-05
5.23553e-05
3.80103e-05
1.92839e-05
1.67697e-05
6.51028e-05
0.00010029
9.05812e-05
5.87138e-05
2.12438e-05
1.74325e-05
3.70266e-05
5.06457e-05
9.38186e-05
6.25427e-05
1.55713e-05
2.07706e-05
5.69939e-05
8.51442e-05
4.66012e-05
3.46822e-05
1.66021e-05
1.46486e-05
5.99993e-05
7.58109e-05
4.90957e-05
3.74285e-05
1.92899e-05
1.65423e-05
6.06853e-05
9.24847e-05
8.30329e-05
5.52142e-05
2.10926e-05
1.7372e-05
3.68942e-05
4.71158e-05
8.39658e-05
5.7311e-05
1.55222e-05
2.0719e-05
5.25928e-05
7.64932e-05
4.3012e-05
3.4065e-05
1.77364e-05
1.44211e-05
5.52071e-05
6.76752e-05
4.48979e-05
3.59982e-05
1.90657e-05
1.61744e-05
5.4849e-05
8.22368e-05
7.35754e-05
5.04883e-05
2.0876e-05
1.65994e-05
3.49695e-05
4.24911e-05
6.63784e-05
5.51555e-05
1.4252e-05
1.90026e-05
3.71743e-05
4.48681e-05
8.13967e-05
5.4043e-05
1.6049e-05
2.10375e-05
4.97318e-05
7.29007e-05
4.24924e-05
3.57151e-05
1.74107e-05
1.44641e-05
5.37057e-05
6.5439e-05
4.48742e-05
3.7738e-05
1.90316e-05
1.59019e-05
5.43013e-05
8.03902e-05
7.19371e-05
4.99959e-05
2.07904e-05
1.73144e-05
3.58172e-05
4.21752e-05
6.4688e-05
5.46269e-05
1.41345e-05
1.90984e-05
3.78941e-05
4.44056e-05
7.88332e-05
5.28889e-05
1.61386e-05
2.10939e-05
4.9284e-05
7.08305e-05
4.22794e-05
3.68087e-05
1.69966e-05
1.45357e-05
5.44093e-05
6.37615e-05
4.44116e-05
3.88958e-05
1.92315e-05
1.61304e-05
5.27767e-05
7.76723e-05
6.9338e-05
4.85771e-05
2.08656e-05
1.78539e-05
3.63508e-05
4.12995e-05
6.14674e-05
5.40744e-05
1.41709e-05
1.88662e-05
3.95559e-05
4.40596e-05
6.6987e-05
5.09845e-05
1.51656e-05
1.96419e-05
3.96175e-05
4.63405e-05
7.9003e-05
5.27289e-05
1.6474e-05
2.09391e-05
4.91369e-05
7.04668e-05
4.26745e-05
3.77284e-05
1.70842e-05
1.42465e-05
5.42369e-05
6.308e-05
4.45398e-05
4.02629e-05
1.92865e-05
1.61818e-05
5.2182e-05
7.61536e-05
6.83852e-05
4.87014e-05
2.1017e-05
1.79657e-05
3.74623e-05
4.15904e-05
6.06311e-05
5.36617e-05
1.43689e-05
1.9175e-05
4.02969e-05
4.42166e-05
6.58776e-05
5.06255e-05
1.55256e-05
1.95982e-05
4.07033e-05
4.63005e-05
7.75898e-05
5.22868e-05
1.62332e-05
2.1042e-05
4.89953e-05
6.93105e-05
4.27287e-05
3.90696e-05
1.693e-05
1.43939e-05
5.40774e-05
6.18698e-05
4.58466e-05
4.2348e-05
1.93168e-05
1.54867e-05
5.29017e-05
6.75816e-05
4.79012e-05
4.33803e-05
1.97981e-05
1.6527e-05
5.2929e-05
7.92559e-05
7.06638e-05
4.98946e-05
2.13822e-05
1.76932e-05
3.99956e-05
4.38058e-05
6.28116e-05
5.64441e-05
1.43662e-05
1.92066e-05
4.28674e-05
4.65586e-05
6.77902e-05
5.32605e-05
1.54812e-05
1.98351e-05
4.35724e-05
4.83242e-05
7.93187e-05
5.36268e-05
1.65296e-05
2.12984e-05
5.06148e-05
7.09067e-05
4.45916e-05
4.14105e-05
1.73038e-05
1.46901e-05
5.63663e-05
6.37126e-05
4.7752e-05
4.4463e-05
1.9618e-05
1.58636e-05
5.46348e-05
6.89863e-05
4.95589e-05
4.51775e-05
1.99016e-05
1.64698e-05
5.40862e-05
8.01351e-05
7.13846e-05
5.08946e-05
2.11949e-05
1.68163e-05
4.09916e-05
4.45028e-05
6.24479e-05
5.5612e-05
1.47955e-05
1.95495e-05
4.38605e-05
4.68433e-05
6.69925e-05
5.36139e-05
1.57592e-05
1.99962e-05
4.4924e-05
4.85217e-05
7.74481e-05
5.28972e-05
1.65871e-05
2.14622e-05
5.02017e-05
6.91916e-05
4.41826e-05
4.15596e-05
1.70061e-05
1.48689e-05
5.54862e-05
6.21725e-05
4.70353e-05
4.42106e-05
1.94624e-05
1.53966e-05
5.28131e-05
6.63931e-05
4.94551e-05
4.51671e-05
1.96359e-05
1.56472e-05
5.40478e-05
6.92006e-05
5.09185e-05
4.79507e-05
1.99524e-05
1.66356e-05
5.51939e-05
7.946e-05
7.09816e-05
5.23532e-05
2.13022e-05
1.80701e-05
4.31116e-05
4.56601e-05
6.36256e-05
5.86504e-05
1.45637e-05
1.95361e-05
4.53543e-05
4.83256e-05
6.70731e-05
5.3377e-05
1.58096e-05
1.99331e-05
4.58929e-05
5.03702e-05
6.94136e-05
5.4648e-05
1.57798e-05
1.99944e-05
4.85667e-05
5.14604e-05
7.93922e-05
5.53905e-05
1.66055e-05
2.13866e-05
5.27106e-05
7.11575e-05
4.6597e-05
4.43191e-05
1.71518e-05
1.48266e-05
5.85096e-05
6.42356e-05
4.93029e-05
4.68128e-05
1.97738e-05
1.58376e-05
5.45203e-05
6.8439e-05
5.16576e-05
4.76161e-05
2.00355e-05
1.60094e-05
5.61536e-05
7.09269e-05
5.30776e-05
5.05102e-05
2.02698e-05
1.68905e-05
5.72934e-05
8.1012e-05
7.26368e-05
5.43697e-05
2.16115e-05
1.70842e-05
4.5327e-05
4.80136e-05
6.51747e-05
5.95655e-05
1.49762e-05
1.98294e-05
4.76272e-05
5.04529e-05
6.86084e-05
5.52397e-05
1.57602e-05
2.00246e-05
4.78003e-05
5.2002e-05
7.0388e-05
5.57924e-05
1.59253e-05
2.03657e-05
5.06262e-05
5.3157e-05
7.95051e-05
5.66069e-05
1.68538e-05
2.16562e-05
5.43615e-05
7.20039e-05
4.82999e-05
4.61841e-05
1.86935e-05
1.49841e-05
6.01011e-05
6.4736e-05
5.07409e-05
4.85664e-05
1.98958e-05
1.58711e-05
5.57549e-05
6.87856e-05
5.2733e-05
4.88446e-05
2.0071e-05
1.57916e-05
5.60222e-05
7.05715e-05
5.414e-05
5.02057e-05
2.00337e-05
1.60619e-05
5.84562e-05
7.24152e-05
5.50294e-05
5.30725e-05
2.02718e-05
1.68563e-05
5.9002e-05
8.16156e-05
7.38966e-05
5.62954e-05
2.16501e-05
1.68636e-05
4.67558e-05
4.98962e-05
6.56799e-05
6.03646e-05
1.51592e-05
2.00729e-05
4.92515e-05
5.2091e-05
6.87484e-05
5.61286e-05
1.60612e-05
2.02983e-05
4.97622e-05
5.34756e-05
7.04731e-05
5.6205e-05
1.59543e-05
2.0185e-05
5.14764e-05
5.47713e-05
7.29536e-05
5.94302e-05
1.61619e-05
2.04111e-05
5.43975e-05
5.59526e-05
8.29016e-05
6.01485e-05
1.69505e-05
2.18673e-05
5.77493e-05
7.52029e-05
5.17916e-05
4.95806e-05
1.76519e-05
1.50608e-05
6.3594e-05
6.78537e-05
5.40203e-05
5.18615e-05
2.00658e-05
1.58391e-05
5.89324e-05
7.19732e-05
5.59186e-05
5.19392e-05
2.02385e-05
1.61036e-05
5.9106e-05
7.36776e-05
5.72867e-05
5.37015e-05
2.02661e-05
1.61564e-05
6.21255e-05
7.58295e-05
5.8383e-05
5.6539e-05
2.04882e-05
1.7157e-05
6.22158e-05
8.49997e-05
7.73147e-05
5.95449e-05
2.19288e-05
1.72624e-05
5.05324e-05
5.34915e-05
6.88782e-05
6.38302e-05
1.54782e-05
2.03337e-05
5.28334e-05
5.5683e-05
7.20926e-05
5.96421e-05
1.62152e-05
2.05535e-05
5.26965e-05
5.70786e-05
7.32346e-05
5.86607e-05
1.6263e-05
2.05522e-05
5.44559e-05
5.79669e-05
7.55581e-05
6.20438e-05
1.6491e-05
2.07202e-05
5.78823e-05
5.89309e-05
8.49072e-05
6.32601e-05
1.717e-05
2.21827e-05
6.0925e-05
7.78737e-05
5.47803e-05
5.24972e-05
1.77557e-05
1.53663e-05
6.62639e-05
7.04473e-05
5.7174e-05
5.46786e-05
2.04156e-05
1.6214e-05
6.12877e-05
7.39808e-05
5.89584e-05
5.47257e-05
2.0597e-05
1.63349e-05
6.10448e-05
7.57705e-05
6.0264e-05
5.63021e-05
2.0521e-05
1.64555e-05
6.42219e-05
7.76966e-05
6.09347e-05
5.92869e-05
2.06851e-05
1.7191e-05
6.44319e-05
8.6405e-05
7.9148e-05
6.2037e-05
2.22962e-05
1.72704e-05
5.29452e-05
5.59235e-05
7.03394e-05
6.61554e-05
1.56674e-05
2.05591e-05
5.53046e-05
5.79997e-05
7.26114e-05
6.0902e-05
1.63016e-05
2.07235e-05
5.52728e-05
5.90598e-05
7.40996e-05
6.04516e-05
1.64125e-05
2.0625e-05
5.66983e-05
6.01268e-05
7.61739e-05
6.317e-05
1.64343e-05
2.05605e-05
5.88731e-05
6.17612e-05
7.89991e-05
6.64001e-05
1.64249e-05
2.07574e-05
6.16996e-05
6.26887e-05
8.89084e-05
6.67572e-05
1.72944e-05
2.24547e-05
6.47532e-05
8.18378e-05
5.87446e-05
5.69315e-05
1.87491e-05
1.54512e-05
7.05167e-05
7.38448e-05
6.12249e-05
5.91281e-05
2.05761e-05
1.64401e-05
6.54217e-05
7.77162e-05
6.31274e-05
5.93287e-05
2.08271e-05
1.65039e-05
6.6031e-05
8.0006e-05
6.4733e-05
6.10314e-05
2.06662e-05
1.65249e-05
6.90851e-05
8.28369e-05
6.60745e-05
6.41135e-05
2.09077e-05
1.74941e-05
6.93966e-05
9.18161e-05
8.41801e-05
6.70491e-05
2.27076e-05
1.83258e-05
5.85649e-05
6.08004e-05
7.57301e-05
7.23927e-05
1.56691e-05
2.0856e-05
6.07769e-05
6.35151e-05
7.82763e-05
6.69341e-05
1.66469e-05
2.09663e-05
6.0318e-05
6.44944e-05
7.92808e-05
6.60204e-05
1.67422e-05
2.08601e-05
6.18003e-05
6.53708e-05
8.13298e-05
6.86084e-05
1.66704e-05
2.11301e-05
6.50055e-05
6.60813e-05
9.04329e-05
6.93352e-05
1.7595e-05
2.3029e-05
6.76723e-05
8.35311e-05
6.18418e-05
6.05033e-05
1.92356e-05
1.56682e-05
7.34314e-05
7.58854e-05
6.43963e-05
6.26959e-05
2.08986e-05
1.67308e-05
6.85818e-05
7.95284e-05
6.62483e-05
6.283e-05
2.11063e-05
1.66981e-05
6.86202e-05
8.14312e-05
6.74351e-05
6.43788e-05
2.09722e-05
1.68451e-05
7.09852e-05
8.42066e-05
6.88753e-05
6.78106e-05
2.14161e-05
1.78233e-05
7.20971e-05
9.33646e-05
8.59556e-05
7.02717e-05
2.32299e-05
1.88277e-05
6.26477e-05
6.41713e-05
7.83848e-05
7.63179e-05
1.58848e-05
2.10648e-05
6.44062e-05
6.67865e-05
8.08092e-05
7.00191e-05
1.68122e-05
2.13204e-05
6.431e-05
6.79624e-05
8.1988e-05
6.97182e-05
1.68755e-05
2.13646e-05
6.61285e-05
6.9027e-05
8.41989e-05
7.19852e-05
1.70116e-05
2.18412e-05
6.98219e-05
6.99406e-05
9.34845e-05
7.32631e-05
1.82989e-05
2.38966e-05
7.19776e-05
8.67439e-05
6.63934e-05
6.58873e-05
1.94739e-05
1.63561e-05
7.84166e-05
8.04523e-05
6.9216e-05
6.7967e-05
2.1441e-05
1.70786e-05
7.44014e-05
8.42825e-05
7.11359e-05
6.82416e-05
2.16792e-05
1.7044e-05
7.41937e-05
8.66417e-05
7.19761e-05
7.08772e-05
2.20055e-05
1.84905e-05
7.411e-05
9.48842e-05
8.76819e-05
7.28002e-05
2.43958e-05
1.9127e-05
6.60861e-05
6.72532e-05
7.97883e-05
7.84539e-05
1.65325e-05
2.18934e-05
6.85092e-05
6.99669e-05
8.27083e-05
7.39284e-05
1.74288e-05
2.20946e-05
6.8585e-05
7.11134e-05
8.46312e-05
7.29553e-05
1.74203e-05
2.25229e-05
7.19054e-05
7.18015e-05
9.29546e-05
7.40664e-05
1.86624e-05
2.45686e-05
7.34606e-05
8.65283e-05
6.8146e-05
6.85523e-05
2.06089e-05
1.65801e-05
7.98158e-05
8.02884e-05
7.05907e-05
7.02012e-05
2.17943e-05
1.72452e-05
7.43098e-05
8.41136e-05
7.27588e-05
7.09829e-05
2.23584e-05
1.77617e-05
7.52462e-05
8.6678e-05
7.40296e-05
7.41653e-05
2.28259e-05
1.89038e-05
7.60387e-05
9.44606e-05
8.80737e-05
7.53002e-05
2.52418e-05
1.93018e-05
6.90944e-05
7.01776e-05
8.06437e-05
8.0936e-05
1.6719e-05
2.26089e-05
7.22174e-05
7.29119e-05
8.42081e-05
7.62626e-05
1.78726e-05
2.27431e-05
7.25138e-05
7.38965e-05
8.65376e-05
7.55778e-05
1.7938e-05
2.33026e-05
7.61384e-05
7.48314e-05
9.52189e-05
7.7236e-05
1.94162e-05
2.56899e-05
7.68776e-05
8.9113e-05
7.20838e-05
7.28666e-05
2.02682e-05
1.70119e-05
8.39297e-05
8.34783e-05
7.51675e-05
7.58138e-05
2.30204e-05
1.82489e-05
7.97758e-05
8.81493e-05
7.74423e-05
7.65087e-05
2.3504e-05
1.8702e-05
7.94342e-05
9.12363e-05
7.91746e-05
8.05103e-05
2.42318e-05
2.01287e-05
8.15418e-05
9.97887e-05
9.34977e-05
8.14112e-05
2.66674e-05
2.12285e-05
7.66246e-05
7.64403e-05
8.70991e-05
8.79012e-05
1.76864e-05
2.35744e-05
7.92349e-05
7.88224e-05
9.12825e-05
8.25663e-05
1.87747e-05
2.46601e-05
8.18e-05
8.03751e-05
9.94406e-05
8.18884e-05
2.05291e-05
2.71691e-05
8.11284e-05
9.36137e-05
7.69362e-05
7.79264e-05
2.13201e-05
1.78501e-05
8.85187e-05
8.72615e-05
8.06254e-05
8.16661e-05
2.43807e-05
1.93435e-05
8.45795e-05
9.27392e-05
8.26995e-05
8.28428e-05
2.49621e-05
1.98402e-05
8.46876e-05
9.65116e-05
8.50163e-05
8.75444e-05
2.57753e-05
2.1437e-05
8.78884e-05
0.000106001
9.9454e-05
8.81328e-05
2.83453e-05
2.32568e-05
8.50467e-05
8.33113e-05
9.42047e-05
9.57285e-05
1.87379e-05
2.5128e-05
8.73669e-05
8.60792e-05
9.91768e-05
8.99045e-05
2.00988e-05
2.63629e-05
9.03427e-05
8.80325e-05
0.000108395
8.9881e-05
2.15529e-05
2.87964e-05
9.01504e-05
0.000102425
8.65088e-05
8.87493e-05
2.42645e-05
1.99477e-05
9.78292e-05
9.72598e-05
8.9432e-05
9.19124e-05
2.65064e-05
2.12438e-05
9.38006e-05
0.000103224
9.22727e-05
9.56041e-05
2.78856e-05
2.32565e-05
9.44579e-05
0.000112998
0.000106723
9.49352e-05
3.07342e-05
2.50969e-05
9.29201e-05
9.06971e-05
0.000101912
0.000102537
2.03503e-05
2.76952e-05
9.75802e-05
9.34528e-05
0.0001124
9.57309e-05
2.30967e-05
3.08324e-05
9.56292e-05
0.00010695
9.09305e-05
9.22137e-05
2.50692e-05
2.001e-05
0.000103254
0.000101291
9.35523e-05
9.51829e-05
2.72454e-05
2.18505e-05
9.6257e-05
0.000105763
9.56382e-05
9.90061e-05
2.90086e-05
2.41688e-05
9.68386e-05
0.000114764
0.0001092
9.81044e-05
3.21872e-05
2.60938e-05
9.70287e-05
9.4699e-05
0.000104382
0.000105177
2.15696e-05
2.93029e-05
0.000102676
9.73457e-05
0.000114627
9.94872e-05
2.45668e-05
3.27598e-05
9.97011e-05
0.000109552
9.60018e-05
9.88667e-05
2.6898e-05
2.18141e-05
0.000106771
0.000105372
9.78635e-05
0.00010347
2.93529e-05
2.39502e-05
9.94578e-05
0.000114968
0.000110071
0.000100274
3.26529e-05
2.74039e-05
9.92845e-05
9.66007e-05
0.000105727
0.000106213
2.24098e-05
3.04534e-05
0.000105299
9.92837e-05
0.000115074
0.000100899
2.52807e-05
3.41301e-05
0.000101647
0.000110411
9.84157e-05
0.000101843
2.76457e-05
2.26613e-05
0.000108451
0.000106498
0.000101019
0.00010744
3.07554e-05
2.54209e-05
0.000102623
0.000116791
0.000112052
0.000103153
3.41443e-05
2.79982e-05
0.00010307
9.97188e-05
0.000108224
0.00011129
2.20704e-05
3.03611e-05
0.000108095
0.000101958
0.000117423
0.000102702
2.56747e-05
3.51194e-05
0.000103945
0.000112913
0.000102116
0.000107829
2.98229e-05
2.40967e-05
0.000111451
0.000110592
0.000105224
0.000114083
3.25472e-05
2.71322e-05
0.000108046
0.000121707
0.000117089
0.000109201
3.6383e-05
2.96145e-05
0.000111311
0.000106326
0.00011454
0.000116431
2.42058e-05
3.30119e-05
0.000118587
0.000109613
0.000126901
0.000113145
2.72376e-05
3.61586e-05
0.000112678
0.000122157
0.00011059
0.000119989
3.14161e-05
2.71783e-05
0.000119525
0.000125032
0.000121046
0.000119178
3.7726e-05
3.24061e-05
0.000119136
0.00011253
0.000121957
0.000122364
2.63256e-05
3.55055e-05
0.000125393
0.000116529
0.00013282
0.000118198
2.96801e-05
3.95226e-05
0.000119861
0.000127991
0.00011755
0.000127579
3.31672e-05
2.82174e-05
0.00012712
0.000132181