/*--------------------------------*- C++ -*----------------------------------*\
| =========                 |                                                 |
| \\      /  F ield         | OpenFOAM: The Open Source CFD Toolbox           |
|  \\    /   O peration     | Version:  v2006                                 |
|   \\  /    A nd           | Website:  www.openfoam.com                      |
|    \\/     M anipulation  |                                                 |
\*---------------------------------------------------------------------------*/
FoamFile
{
    version     2.0;
    format      ascii;
    class       volScalarField;
    location    "0.076";
    object      p;
}
// * * * * * * * * * * * * * * * * * * * * * * * * * * * * * * * * * * * * * //

dimensions      [1 -1 -2 0 0 0 0];


internalField   nonuniform List<scalar> 
16277
(
147985
147991
147994
147980
147990
147987
147988
147991
147995
148000
148005
148011
148017
148023
148030
148036
148043
148051
148058
148066
148074
148082
148091
148100
148109
148119
148128
148138
148149
148159
148170
148181
148192
148204
148215
148227
148239
148251
148263
148276
148288
148301
148313
148326
148339
148352
148364
148377
148390
148403
148416
148428
148441
148454
148466
148479
148491
148503
148515
148527
148539
148550
148561
148572
148583
148594
148604
148614
148624
148634
148643
148652
148660
148669
148677
148684
148691
148698
148705
148711
148717
148723
148728
148732
148734
148736
148736
148736
148735
148737
148736
148740
148745
148755
148771
148783
148790
148779
148778
148774
148771
148772
148773
148767
148767
148767
148762
148762
148762
148758
148758
148758
148754
148754
148754
148752
148752
148752
148750
148749
148749
148748
148748
148748
148747
148746
148746
148746
148746
148746
148745
148745
148745
148745
148745
148745
148745
148745
148745
148745
148745
148745
148746
148745
148745
148746
148747
148747
148748
148747
148747
148749
148749
148749
148750
148750
148750
148752
148752
148752
148754
148753
148753
148756
148756
148756
148758
148758
148758
148760
148760
148761
148763
148762
148762
148765
148766
148766
148768
148768
148768
148771
148772
148772
148774
148774
148774
148778
148778
148778
148781
148781
148781
148785
148785
148785
148789
148789
148788
148793
148793
148793
148797
148797
148797
148801
148801
148802
148805
148805
148805
148810
148810
148811
148815
148815
148815
148820
148820
148820
148825
148825
148824
148830
148830
148830
148835
148835
148835
148841
148841
148841
148846
148846
148846
148852
148853
148853
148858
148858
148858
148864
148865
148865
148871
148870
148870
148877
148877
148878
148884
148883
148883
148890
148891
148891
148897
148897
148897
148904
148905
148905
148912
148911
148911
148919
148919
148919
148926
148926
148926
148934
148934
148935
148942
148942
148942
148950
148950
148950
148958
148958
148958
148967
148967
148967
148975
148975
148975
148984
148984
148984
148992
148992
148992
149001
149001
149002
149010
149010
149010
149019
149020
149020
149029
149028
149028
149038
149038
149039
149047
149047
149047
149057
149057
149058
149067
149066
149066
149076
149077
149077
149086
149086
149086
149096
149096
149096
149106
149105
149105
149116
149116
149116
149125
149125
149125
149135
149135
149135
149145
149144
149144
149154
149154
149155
149163
149163
149163
149173
149173
149173
149182
149181
149181
149190
149190
149191
149199
149198
149198
149207
149207
149207
149214
149214
149214
149222
149222
149222
149228
149228
149228
149235
149235
149235
149240
149240
149240
149246
149246
149246
149250
149250
149250
149254
149254
149254
149256
149256
149256
149259
149259
149259
149260
149259
149260
149260
149260
149260
149260
149260
149260
149259
149259
149259
149256
149257
149257
149254
149254
149254
149249
149249
149250
149245
149245
149245
149239
149239
149240
149234
149234
149234
149227
149227
149227
149221
149221
149220
149212
149213
149213
149206
149206
149205
149197
149197
149197
149189
149189
149189
149180
149180
149181
149173
149172
149172
149163
149163
149164
149156
149155
149155
149146
149147
149147
149139
149139
149139
149130
149130
149130
149123
149123
149122
149114
149115
149115
149108
149108
149108
149100
149100
149100
149094
149094
149094
149087
149087
149087
149082
149082
149082
149075
149076
149076
149071
149071
149071
149065
149066
149066
149062
149062
149061
149057
149057
149057
149054
149054
149053
149049
149050
149050
149047
149047
149047
149043
149043
149043
149041
149041
149041
149038
149038
149038
149036
149036
149036
149034
149034
149034
149032
149032
149032
149030
149030
149030
149029
149029
149029
149027
149027
149027
149026
149026
149026
149024
149024
149024
149023
149023
149023
149022
149021
149021
149020
149021
149021
149019
149019
149019
149018
149018
149019
149017
149017
149017
149017
149017
149017
149015
149015
149015
149015
149015
149015
149014
149014
149013
149013
149013
149013
149012
149012
149012
149011
149011
149012
149010
149010
149010
149010
149010
149010
149009
149008
149008
149008
149008
149008
149007
149007
149007
149007
149006
149006
149005
149005
149005
149005
149005
149005
149004
149004
149004
149003
149003
149003
149001
149001
149001
149001
149001
149001
148999
148999
148999
148999
149000
149000
149007
149008
149006
148981
148978
148979
148987
148995
149000
149001
149000
149001
149000
149000
149000
149000
149000
149000
149000
149000
149001
149000
149002
149001
149001
149002
149003
149003
149003
149005
149006
149003
149003
149001
149000
148999
148998
148997
148998
148998
148998
148997
148997
148999
148999
148998
148999
148999
148998
148999
148999
149000
149000
149000
149000
149001
149001
149001
149001
149001
149001
149002
149002
149002
149002
149002
149002
149003
149003
149003
149003
149003
149003
149003
149003
149003
149004
149004
149004
149004
149004
149004
149004
149004
149004
149005
149005
149005
149005
149005
149005
149005
149005
149005
149006
149006
149006
149006
149006
149006
149006
149006
149006
149007
149007
149007
149007
149007
149007
149007
149007
149007
149008
149008
149008
149008
149008
149008
149008
149008
149008
149009
149009
149008
149009
149009
149009
149009
149009
149009
149009
149009
149009
149010
149010
149010
149010
149010
149010
149010
149010
149010
149010
149010
149010
149011
149011
149011
149011
149011
149011
149011
149011
149011
149011
149011
149011
149012
149012
149012
149012
149012
149012
149012
149012
149012
149012
149012
149012
149013
149013
149013
149013
149013
149013
149013
149013
149013
149013
149013
149013
149013
149013
149013
149014
149014
149014
149014
149014
149014
149014
149014
149014
149014
149014
149014
149014
149014
149014
149014
149014
149014
149014
149014
149014
149014
149014
149014
149014
149014
149014
149014
149014
149014
149014
149014
149014
149014
149014
149014
149014
149014
149014
149014
149014
149014
149013
149013
149014
149013
149013
149013
149013
149013
149013
149013
149013
149013
149012
149012
149012
149012
149012
149012
149011
149011
149011
149011
149011
149011
149010
149010
149010
149009
149009
149009
149009
149008
149008
149007
149007
149008
149006
149006
149006
149005
149005
149005
149004
149004
149004
149002
149002
149003
149001
149001
149001
148999
148999
148999
148997
148997
148998
148995
148995
148995
148993
148993
148992
148989
148990
148991
148987
148987
148987
148983
148983
148983
148979
148979
148979
148973
148974
148975
148968
148968
148967
148958
148959
148961
148956
148955
148954
148947
148949
148952
148950
148948
148945
148947
148949
148951
148953
148951
148949
148952
148954
148956
148958
148956
148954
148957
148960
148962
148968
148966
148965
148972
148973
148974
148979
148977
148976
148980
148982
148984
148989
148986
148984
149001
149002
149003
149016
149026
149024
148973
148949
148971
148995
148996
148997
149008
149009
149011
149018
149016
149014
149020
149023
149027
149034
149029
149027
149033
149034
149036
149044
149046
149047
149049
149051
149053
149062
149058
149056
149063
149064
149064
149080
149078
149074
149099
149102
149094
149054
149036
149080
149089
149086
149081
149092
149099
149103
149100
149104
149110
149114
149117
149118
149119
149122
149126
149132
149129
149126
149150
149149
149150
149162
149165
149161
149127
149145
149136
149157
149163
149168
149175
149176
149176
149195
149190
149186
149201
149201
149200
149220
149216
149210
149237
149243
149243
149229
149196
149231
149237
149243
149250
149269
149263
149260
149276
149278
149280
149304
149300
149294
149324
149326
149321
149311
149284
149322
149342
149343
149343
149368
149364
149360
149383
149390
149394
149421
149424
149420
149426
149387
149424
149463
149460
149457
149477
149485
149487
149530
149527
149521
149555
149561
149561
149593
149587
149580
149647
149651
149651
149693
149696
149694
149730
149760
149745
149818
149823
149819
149900
149902
149889
149995
150003
149997
150147
150124
150087
150120
150170
150188
150273
150218
150163
150123
150178
150227
149991
149989
149957
149684
149688
149634
149308
149380
149395
149220
149168
149080
149059
149085
149096
149013
148974
148915
148935
148957
148971
148937
148911
148870
148904
148830
148887
148869
148867
148830
148842
148846
148858
148860
148852
148838
148822
148834
148845
148820
148811
148807
148814
148828
148837
148838
148823
148814
148801
148804
148810
148827
148827
148820
148826
148819
148810
148800
148800
148802
148827
148834
148837
148836
148817
148806
148792
148795
148805
148835
148842
148840
148823
148821
148815
148800
148795
148794
148842
148844
148838
148826
148830
148834
148800
148799
148803
148840
148844
148841
148830
148830
148832
148809
148806
148806
148858
148856
148845
148831
148839
148845
148812
148823
148845
148828
148769
148839
148869
148869
148850
148828
148841
148849
148804
148836
148811
148858
148855
148851
148838
148838
148841
148822
148791
148844
148866
148867
148852
148837
148838
148840
148798
148828
148810
148853
148862
148865
148856
148845
148837
148811
148836
148803
148850
148851
148853
148832
148833
148835
148832
148784
148813
148856
148858
148850
148834
148839
148849
148819
148782
148840
148833
148850
148861
148848
148826
148811
148836
148757
148812
148842
148858
148843
148817
148814
148816
148841
148845
148843
148823
148821
148821
148796
148792
148794
148838
148840
148834
148822
148824
148827
148806
148800
148800
148826
148834
148833
148820
148812
148802
148777
148776
148779
148813
148819
148819
148819
148800
148789
148785
148784
148790
148823
148821
148814
148780
148792
148811
148767
148717
148793
148790
148805
148795
148769
148763
148763
148798
148800
148792
148781
148786
148795
148758
148753
148755
148783
148784
148779
148752
148758
148765
148735
148696
148756
148761
148772
148763
148736
148733
148733
148781
148779
148768
148748
148753
148760
148713
148710
148714
148747
148748
148744
148714
148722
148733
148700
148660
148721
148723
148735
148727
148700
148697
148697
148750
148746
148733
148711
148715
148720
148673
148670
148673
148699
148707
148705
148679
148680
148690
148645
148679
148622
148697
148683
148683
148653
148651
148650
148697
148697
148689
148670
148664
148663
148642
148599
148632
148653
148663
148651
148617
148617
148620
148636
148640
148635
148616
148616
148620
148590
148603
148584
148640
148636
148630
148601
148603
148610
148618
148619
148611
148586
148585
148589
148544
148570
148550
148582
148584
148589
148545
148546
148549
148569
148573
148569
148547
148550
148553
148530
148501
148541
148576
148583
148566
148526
148524
148525
148543
148543
148535
148507
148509
148515
148449
148509
148471
148511
148499
148530
148470
148472
148472
148487
148493
148491
148461
148459
148460
148491
148505
148510
148477
148470
148465
148423
148421
148428
148451
148454
148448
148415
148413
148415
148432
148434
148427
148403
148406
148414
148346
148409
148368
148409
148394
148427
148371
148374
148373
148399
148412
148416
148371
148366
148365
148371
148377
148374
148345
148346
148345
148313
148280
148330
148326
148343
148332
148300
148296
148298
148322
148324
148318
148283
148279
148277
148309
148312
148305
148285
148286
148292
148255
148278
148253
148282
148282
148295
148232
148234
148237
148245
148251
148250
148207
148206
148209
148223
148230
148228
148200
148200
148198
148166
148143
148173
148191
148202
148191
148159
148156
148156
148196
148195
148185
148151
148150
148154
148165
148167
148161
148132
148132
148130
148126
148050
148095
148111
148142
148106
148070
148067
148077
148088
148095
148092
148047
148047
148052
148071
148077
148073
148045
148049
148048
148019
147972
148052
148053
148087
148050
148012
148007
148013
148017
148020
148014
147970
147966
147967
147981
147984
147978
147941
147938
147939
147961
147963
147956
147930
147929
147935
147866
147923
147886
147924
147910
147942
147878
147882
147882
147899
147906
147904
147875
147867
147865
147875
147883
147882
147834
147832
147833
147841
147847
147845
147806
147811
147810
147774
147730
147800
147784
147816
147790
147752
147746
147748
147765
147769
147763
147724
147721
147722
147745
147747
147740
147703
147700
147699
147738
147737
147726
147698
147703
147704
147692
147614
147660
147672
147709
147665
147629
147624
147631
147638
147645
147643
147582
147583
147591
147604
147610
147607
147562
147562
147566
147580
147589
147588
147550
147546
147549
147502
147549
147474
147569
147524
147545
147499
147501
147501
147519
147519
147509
147459
147457
147458
147467
147470
147464
147419
147415
147415
147433
147437
147430
147391
147389
147392
147402
147406
147401
147370
147372
147369
147377
147268
147328
147342
147399
147326
147301
147293
147306
147321
147329
147324
147278
147274
147277
147290
147301
147301
147236
147236
147240
147247
147255
147254
147201
147199
147202
147209
147216
147214
147168
147173
147172
147133
147098
147155
147148
147176
147150
147106
147101
147106
147112
147117
147111
147063
147057
147058
147076
147080
147074
147031
147029
147031
147055
147055
147045
147000
146999
147000
147011
147014
147008
146972
146976
146973
146962
146864
146924
146938
146990
146930
146896
146889
146897
146900
146907
146901
146839
146839
146847
146859
146868
146867
146798
146801
146808
146820
146829
146827
146779
146775
146776
146784
146791
146788
146749
146750
146746
146698
146655
146721
146717
146749
146717
146666
146659
146663
146665
146672
146666
146612
146606
146608
146632
146633
146623
146568
146562
146559
146584
146586
146577
146529
146526
146528
146540
146543
146537
146498
146500
146494
146502
146377
146445
146454
146524
146437
146409
146398
146410
146413
146419
146412
146358
146354
146359
146366
146374
146370
146304
146304
146309
146314
146321
146317
146263
146260
146262
146265
146273
146270
146209
146209
146212
146216
146225
146223
146180
146175
146174
146104
146116
146102
146149
146138
146136
146077
146075
146075
146079
146082
146076
146015
146010
146009
146024
146027
146020
145965
145962
145963
145970
145975
145968
145918
145916
145918
145928
145931
145923
145880
145884
145884
145840
145788
145819
145832
145860
145829
145778
145774
145779
145785
145796
145794
145709
145711
145720
145722
145731
145729
145662
145659
145662
145656
145663
145659
145590
145590
145594
145591
145596
145588
145551
145547
145548
145476
145496
145477
145512
145502
145503
145444
145442
145444
145451
145454
145446
145381
145377
145377
145394
145394
145383
145316
145311
145309
145322
145325
145315
145255
145253
145256
145259
145261
145251
145196
145200
145198
145128
145090
145113
145124
145150
145124
145041
145044
145055
145054
145060
145049
144987
144985
144991
144997
145007
145002
144937
144933
144936
144932
144941
144938
144861
144862
144866
144866
144878
144877
144821
144818
144812
144720
144707
144727
144755
144766
144744
144674
144667
144669
144668
144673
144663
144581
144575
144578
144566
144571
144562
144477
144461
144447
144478
144488
144484
144441
144447
144441
144402
144316
144372
144384
144424
144381
144316
144312
144319
144314
144325
144317
144232
144229
144237
144234
144245
144240
144153
144153
144157
144151
144166
144168
144089
144081
144082
143965
143999
143951
144008
143984
143988
143898
143895
143895
143854
143862
143865
143767
143753
143739
143784
143791
143782
143720
143715
143713
143723
143730
143722
143663
143670
143661
143641
143513
143578
143577
143626
143567
143489
143488
143496
143492
143509
143505
143394
143393
143401
143380
143391
143384
143283
143282
143286
143269
143284
143284
143182
143186
143180
143041
143001
143061
142990
143028
143024
142947
142934
142928
142979
142984
142970
142894
142887
142884
142895
142901
142890
142807
142803
142803
142811
142814
142800
142725
142729
142729
142629
142586
142607
142616
142643
142623
142522
142518
142522
142490
142500
142490
142373
142371
142377
142346
142358
142353
142232
142237
142235
142064
141986
142036
142063
142097
142082
142019
142012
142009
142041
142046
142032
141942
141937
141937
141937
141941
141927
141824
141819
141820
141816
141820
141805
141716
141724
141734
141568
141568
141561
141581
141589
141601
141454
141460
141465
141413
141421
141417
141262
141263
141269
141202
141210
141206
140955
141012
141050
140919
140894
140872
141000
141007
140990
140915
140913
140914
140906
140914
140901
140794
140791
140793
140778
140785
140770
140670
140679
140684
140510
140494
140495
140511
140530
140528
140388
140391
140398
140342
140359
140357
140213
140201
140189
139941
139932
139948
139837
139868
139881
139731
139686
139650
139739
139763
139762
139691
139687
139688
139709
139716
139698
139611
139620
139622
139454
139425
139434
139440
139467
139458
139300
139301
139310
139260
139281
139278
139123
139119
139109
138869
138866
138887
138877
138886
138859
138696
138680
138677
138446
138495
138519
138346
138291
138229
138137
138176
138202
138300
138320
138315
138195
138201
138206
138190
138212
138210
138068
138071
138060
137825
137812
137856
137820
137837
137814
137659
137656
137664
137583
137591
137573
137366
137373
137381
137050
137031
137036
136927
136944
136906
136494
136586
136673
136672
136650
136601
136575
136587
136601
136463
136485
136452
136519
136515
136501
136362
136354
136349
136320
136327
136309
136131
136142
136146
135862
135823
135831
135788
135817
135807
135553
135553
135565
135350
135364
135358
134910
134967
135027
134586
134453
134319
134649
134687
134696
134664
134657
134655
134502
134534
134509
134516
134532
134540
134304
134317
134332
134243
134264
134259
134023
134016
134004
133622
133611
133630
133573
133574
133548
133269
133257
133273
132548
132647
132714
132525
132427
132304
132342
132381
132440
132283
132288
132247
132402
132408
132379
132225
132209
132198
132166
132172
132146
131889
131906
131912
131430
131410
131424
131297
131322
131324
130944
130932
130952
130257
130132
129999
129724
129887
130028
129951
129873
129797
129781
129798
129820
129918
129952
129943
129799
129796
129788
129408
129397
129402
129295
129287
129256
128875
128881
128889
128119
128113
128171
127649
127465
127272
126864
127130
127328
127196
127116
126978
127031
127049
127085
127203
127256
127246
127045
127035
127030
126520
126537
126512
126150
126157
126159
125585
125500
125453
123771
124162
124484
124040
123850
123628
124336
124384
124377
124447
124439
124436
124247
124266
124245
123752
123659
123783
123295
123336
123377
122648
122464
122235
120565
121105
121488
121229
121032
120849
121777
121794
121723
121762
121762
121763
121402
121419
121444
120647
120532
120642
118070
118777
119116
119232
118993
118820
119380
119378
119487
119496
119427
119423
119151
119183
119292
118533
118164
117625
117353
117705
118005
117999
117923
117667
118792
118829
118757
118990
118750
118309
118076
118641
118947
119146
118991
118740
119645
119793
119795
120655
120548
120259
121398
121521
121547
122417
122444
122409
123125
123143
123122
123669
123679
123665
124119
124129
124124
124523
124525
124518
124873
124879
124878
125197
125197
125192
125480
125485
125485
125750
125748
125744
125986
125990
125992
126216
126213
126210
126417
126420
126423
126614
126610
126608
126785
126787
126790
126955
126951
126949
127102
127104
127107
127250
127247
127245
127378
127380
127383
127509
127506
127504
127622
127623
127626
127738
127735
127733
127838
127839
127842
127941
127938
127936
128029
128031
128033
128122
128119
128118
128201
128202
128204
128284
128281
128280
128355
128356
128358
128430
128428
128427
128495
128496
128497
128563
128560
128559
128621
128622
128623
128683
128681
128680
128736
128737
128738
128792
128790
128790
128840
128841
128842
128891
128890
128890
128936
128936
128937
128982
128981
128981
129023
129024
129024
129065
129065
129064
129103
129103
129104
129142
129141
129140
129176
129176
129176
129211
129210
129210
129242
129243
129243
129275
129274
129274
129304
129304
129304
129334
129333
129333
129360
129360
129360
129388
129387
129387
129412
129412
129412
129437
129437
129437
129460
129460
129460
129483
129483
129483
129504
129504
129504
129525
129525
129525
129544
129544
129544
129563
129563
129563
129581
129581
129581
129599
129599
129599
129615
129615
129615
129632
129632
129632
129647
129647
129647
129662
129662
129662
129676
129676
129676
129690
129691
129690
129703
129703
129703
129716
129716
129716
129728
129728
129728
129740
129740
129740
129751
129751
129751
129762
129762
129762
129772
129772
129772
129783
129783
129783
129792
129792
129792
129801
129802
129802
129810
129810
129810
129819
129819
129819
129827
129827
129827
129835
129835
129835
129842
129842
129842
129850
129850
129850
129857
129857
129857
129864
129864
129864
129870
129870
129870
129876
129876
129876
129882
129882
129882
129888
129888
129888
129893
129893
129893
129899
129899
129899
129904
129904
129904
129909
129909
129909
129914
129914
129913
129918
129918
129918
129923
129923
129922
129927
129927
129927
129931
129931
129931
129935
129935
129935
129939
129939
129938
129943
129943
129943
129946
129946
129946
129950
129949
129949
129953
129952
129952
129956
129956
129956
129959
129959
129958
129962
129962
129962
129964
129964
129964
129967
129967
129967
129969
129969
129969
129972
129972
129972
129974
129974
129974
129977
129977
129977
129979
129979
129979
129981
129981
129981
129983
129983
129983
129985
129985
129985
129986
129986
129986
129989
129988
129988
129990
129990
129990
129992
129992
129992
129993
129993
129993
129995
129995
129995
129996
129996
129996
129997
129997
129997
129998
129998
129998
130000
130000
130000
130001
130001
130001
130002
130002
130002
130003
130003
130003
130004
130004
130004
130005
130005
130005
130006
130006
130006
130007
130007
130007
130008
130008
130008
130008
130008
130008
130009
130009
130009
130010
130010
130009
130010
130010
130010
130011
130011
130011
130011
130011
130011
130012
130012
130012
130012
130012
130012
130012
130012
130012
130013
130013
130013
130013
130013
130013
130013
130013
130013
130013
130013
130013
130014
130014
130014
130014
130014
130014
130014
130014
130014
130014
130014
130014
130014
130014
130014
130014
130014
130014
130014
130014
130014
130014
130014
130014
130014
130014
130014
130014
130014
130013
130014
130013
130014
130013
130013
130013
130013
130013
130013
130013
130013
130013
130013
130013
130013
130012
130012
130012
130012
130012
130012
130011
130011
130011
130011
130011
130011
130010
130010
130010
130010
130010
130010
130009
130009
130009
130009
130009
130009
130008
130008
130008
130007
130007
130007
130006
130006
130006
130005
130005
130005
130004
130004
130004
130003
130003
130003
130002
130002
130002
130001
130001
130001
130000
129999
129999
129998
129998
129998
129997
129997
129997
129996
129996
129996
129994
129994
129994
129993
129993
129993
129992
129992
129991
129990
129990
129990
129989
129989
129989
129988
129988
129988
129986
129986
129986
129985
129985
129985
129983
129983
129983
129982
129982
129982
129980
129980
129980
129980
129980
129980
129979
129979
129978
129977
129977
129977
129973
129973
129973
129967
129967
129968
129965
129964
129963
129972
129973
129973
130004
130006
130007
130031
130027
130024
130040
130067
130036
130014
129986
130035
130070
130028
130003
130029
130055
130044
130028
130019
130014
130012
130011
130012
130012
130012
130012
130013
130013
130013
130013
130013
130012
130012
130011
130011
130010
130011
130010
130008
130010
130016
130021
130029
130037
130047
130058
130071
130083
130094
130102
130106
130109
130113
130118
130125
130132
130141
130151
130161
130173
130186
130201
130218
130236
130257
130281
130307
130338
130373
130412
130457
130508
130565
130629
130702
130783
130874
130976
131090
131216
131355
131509
131678
131863
132064
132282
132516
132767
133033
133316
133612
133922
134244
134577
134918
135267
135622
135981
136342
136704
137065
137424
137780
138132
138478
138818
139151
139477
139794
140104
140404
140696
140979
141253
141517
141773
142020
142258
142487
142708
142921
143126
143323
143512
143694
143869
144037
144198
144354
144503
144646
144783
144915
145042
145164
145281
145393
145501
145605
145705
145800
145892
145981
146066
146148
146226
146301
146374
146444
146511
146575
146637
146697
146754
146810
146863
146914
146963
147010
147056
147099
147142
147182
147221
147259
147295
147329
147363
147395
147426
147455
147484
147511
147538
147563
147587
147611
147633
147654
147675
147695
147714
147732
147749
147766
147782
147797
147811
147825
147838
147851
147862
147874
147884
147894
147904
147912
147921
147928
147935
147942
147948
147953
147958
147963
147967
147970
147976
147983
147989
147992
147992
147994
147981
147989
147989
147997
148005
148009
148014
148018
148023
148028
148033
148038
148044
148050
148057
148064
148071
148078
148086
148095
148103
148112
148121
148131
148141
148151
148161
148172
148183
148194
148205
148217
148228
148240
148252
148264
148277
148289
148301
148314
148327
148339
148352
148365
148378
148391
148403
148416
148429
148441
148454
148466
148479
148491
148503
148515
148527
148539
148550
148561
148572
148583
148593
148604
148614
148623
148633
148642
148650
148659
148667
148675
148682
148689
148695
148701
148707
148713
148718
148723
148727
148731
148732
148733
148735
148740
148749
148755
148758
148754
148752
148750
148748
148747
148746
148746
148746
148745
148746
148746
148747
148748
148750
148751
148753
148754
148757
148758
148761
148763
148766
148769
148772
148775
148779
148782
148786
148789
148794
148797
148802
148806
148811
148815
148821
148825
148831
148836
148842
148847
148853
148859
148865
148871
148878
148884
148891
148898
148905
148912
148920
148927
148935
148942
148951
148958
148967
148975
148984
148993
149002
149011
149020
149029
149039
149048
149058
149067
149077
149086
149097
149106
149116
149126
149136
149145
149155
149164
149174
149182
149191
149199
149208
149215
149223
149229
149236
149241
149247
149250
149254
149257
149259
149260
149261
149260
149259
149257
149254
149249
149245
149239
149234
149226
149220
149212
149205
149196
149189
149179
149172
149162
149155
149145
149138
149129
149122
149113
149107
149099
149093
149086
149081
149075
149070
149065
149061
149056
149053
149049
149047
149043
149041
149038
149036
149033
149032
149030
149029
149026
149026
149024
149023
149021
149021
149019
149018
149017
149016
149015
149015
149013
149013
149012
149011
149010
149010
149009
149008
149007
149006
149005
149005
149004
149003
149001
149002
149001
149002
149005
149003
149003
149004
149003
149001
149001
149002
149002
149002
149003
149003
149004
149005
149005
149005
149007
149006
149007
149008
149008
149008
149010
149009
149010
149011
149011
149012
149013
149013
149013
149015
149014
149015
149017
149016
149017
149018
149018
149019
149021
149020
149021
149023
149022
149023
149025
149024
149026
149028
149027
149029
149032
149030
149033
149036
149034
149037
149040
149039
149042
149046
149044
149048
149052
149050
149055
149060
149057
149063
149069
149066
149072
149079
149077
149084
149091
149089
149096
149105
149103
149111
149120
149118
149126
149136
149134
149142
149152
149151
149159
149169
149169
149177
149187
149186
149194
149203
149204
149210
149219
149220
149225
149233
149234
149238
149245
149248
149249
149255
149258
149257
149260
149263
149261
149262
149265
149261
149261
149264
149258
149257
149259
149252
149249
149251
149243
149239
149239
149231
149226
149226
149217
149211
149211
149201
149195
149194
149184
149177
149175
149166
149159
149157
149147
149140
149137
149127
149120
149118
149108
149101
149098
149088
149081
149078
149069
149062
149059
149050
149042
149040
149031
149024
149021
149012
149005
149003
148994
148988
148985
148977
148971
148968
148960
148954
148952
148944
148938
148936
148928
148923
148921
148913
148908
148906
148899
148894
148892
148885
148881
148879
148872
148868
148866
148860
148856
148854
148848
148844
148843
148837
148833
148832
148826
148823
148822
148816
148813
148812
148807
148804
148803
148798
148796
148795
148790
148788
148787
148783
148780
148780
148776
148774
148774
148770
148768
148768
148764
148763
148763
148759
148758
148758
148755
148754
148754
148752
148751
148751
148749
148748
148749
148747
148747
148747
148746
148746
148747
148746
148747
148747
148747
148748
148748
148749
148751
148749
148753
148743
148745
148746
148747
148748
148750
148753
148756
148760
148764
148770
148776
148782
148789
148797
148805
148814
148823
148834
148844
148856
148868
148880
148893
148907
148922
148937
148952
148969
148986
149003
149022
149040
149059
149079
149099
149119
149139
149159
149178
149197
149215
149231
149246
149258
149267
149272
149274
149272
149266
149254
149239
149222
149205
149186
149167
149148
149131
149114
149098
149085
149073
149063
149054
149047
149041
149037
149033
149029
149026
149024
149022
149020
149018
149016
149014
149013
149011
149010
149008
149007
149005
149004
149003
149002
149002
149001
149002
149002
149000
149002
149000
149001
149001
149001
149000
149001
149002
149003
149004
149005
149006
149008
149009
149010
149012
149013
149015
149016
149018
149020
149022
149020
149019
149017
149016
149014
149013
149012
149010
149009
149008
149006
149005
149004
149003
149002
149001
149001
149000
149001
149001
149000
149001
149001
149002
149003
149004
149004
149003
149002
149001
149000
149001
149002
149000
149000
149001
149001
149001
149002
149003
149005
149005
149005