/*--------------------------------*- C++ -*----------------------------------*\
| =========                 |                                                 |
| \\      /  F ield         | OpenFOAM: The Open Source CFD Toolbox           |
|  \\    /   O peration     | Version:  v2006                                 |
|   \\  /    A nd           | Website:  www.openfoam.com                      |
|    \\/     M anipulation  |                                                 |
\*---------------------------------------------------------------------------*/
FoamFile
{
    version     2.0;
    format      ascii;
    class       volScalarField;
    location    "0.07";
    object      Co;
}
// * * * * * * * * * * * * * * * * * * * * * * * * * * * * * * * * * * * * * //

dimensions      [0 0 0 0 0 0 0];


internalField   nonuniform List<scalar> 
41981
(
0.0151568
0.0143511
0.0155972
0.0163186
0.0164937
0.0162045
0.0160844
0.0157763
0.0157199
0.0157096
0.0156685
0.0156617
0.0156543
0.0156477
0.0156386
0.0156274
0.0156149
0.0156019
0.0155887
0.0155757
0.0155628
0.01555
0.0155371
0.0155241
0.0155108
0.0154971
0.0154831
0.0154688
0.015454
0.015439
0.0154235
0.0154077
0.0153916
0.0153751
0.0153584
0.0153413
0.0153238
0.015306
0.0152879
0.0152695
0.0152507
0.0152316
0.0152122
0.0151924
0.0151724
0.015152
0.0151313
0.0151102
0.0150889
0.0150673
0.0150454
0.0150232
0.0150007
0.0149779
0.0149548
0.0149315
0.0149079
0.0148841
0.01486
0.0148357
0.0148111
0.0147863
0.0147613
0.0147361
0.0147106
0.014685
0.0146592
0.0146332
0.014607
0.0145807
0.0145542
0.0145276
0.0145008
0.0144739
0.0144469
0.0144199
0.0143927
0.0143654
0.014338
0.0143106
0.0142831
0.0142556
0.014228
0.0142005
0.0141729
0.0141453
0.0141177
0.0140901
0.0140626
0.0140351
0.0140076
0.0139802
0.0139529
0.0139257
0.0138986
0.0138715
0.0138446
0.0138179
0.0137912
0.0137647
0.0137384
0.0137122
0.0136863
0.0136605
0.0136349
0.0136095
0.0135844
0.0135595
0.0135349
0.0135105
0.0134863
0.0134625
0.0134389
0.0134157
0.0133927
0.01337
0.0133477
0.0133257
0.013304
0.0132827
0.0132617
0.0132411
0.0132208
0.013201
0.0131814
0.0131623
0.0131435
0.0131252
0.0131072
0.0130898
0.0130727
0.0130561
0.0130399
0.0130239
0.0130079
0.0129916
0.0129748
0.0129574
0.01294
0.0129236
0.0129103
0.0129021
0.0128997
0.0129018
0.012906
0.0129184
0.0129468
0.0130559
0.0132146
0.0136315
0.0143525
0.0160238
0.0198993
0.0283382
0.0429598
0.0346857
0.0319254
0.0306406
0.0303875
0.0292852
0.0274959
0.0247802
0.0276728
0.0296242
0.0269441
0.0263985
0.0243555
0.0199369
0.0217278
0.022218
0.0218038
0.0215402
0.0197358
0.0178576
0.0196818
0.0200292
0.0206704
0.0201312
0.0178566
0.0171668
0.0193157
0.0198293
0.0203089
0.0196414
0.0172368
0.0169462
0.0192999
0.0198485
0.0202641
0.0195147
0.0167943
0.0166316
0.0192424
0.0198739
0.0201851
0.0193622
0.0164927
0.0163533
0.0191118
0.0198196
0.0201017
0.0192182
0.016231
0.0161044
0.0189823
0.0197543
0.0200177
0.0190801
0.0159932
0.0158768
0.0188571
0.0196866
0.0199341
0.0189477
0.0157749
0.0156671
0.0187359
0.0196171
0.019851
0.0188201
0.0155723
0.015472
0.0186183
0.019547
0.019769
0.0186972
0.0153839
0.0152893
0.0185036
0.0194757
0.0196883
0.0185787
0.0152069
0.0151169
0.0183912
0.0194038
0.0196081
0.0184632
0.0150394
0.0149531
0.0182816
0.0193318
0.0195285
0.0183505
0.0148799
0.0147972
0.0181743
0.0192597
0.0194495
0.0182405
0.0147279
0.0146484
0.0180693
0.0191878
0.0193709
0.0181327
0.0145829
0.0145067
0.0179666
0.0191156
0.0192928
0.0180278
0.0144439
0.0143703
0.0178659
0.0190434
0.0192157
0.0179251
0.0143103
0.014239
0.0177667
0.0189712
0.0191392
0.0178243
0.0141814
0.0141121
0.0176691
0.0188991
0.019063
0.0177251
0.0140568
0.0139894
0.0175728
0.0188269
0.018987
0.0176274
0.0139362
0.0138704
0.0174777
0.0187545
0.0189112
0.0175311
0.0138193
0.0137549
0.0173838
0.0186818
0.0188356
0.017436
0.0137055
0.0136425
0.0172907
0.018609
0.01876
0.0173421
0.0135947
0.0135327
0.0171986
0.0185359
0.0186845
0.0172491
0.0134865
0.0134254
0.0171071
0.0184624
0.018609
0.017157
0.0133806
0.0133204
0.0170162
0.0183886
0.0185333
0.0170655
0.0132768
0.0132173
0.0169259
0.0183145
0.0184575
0.0169746
0.0131749
0.013116
0.016836
0.01824
0.0183814
0.0168842
0.0130747
0.0130164
0.0167465
0.018165
0.0183052
0.0167943
0.0129761
0.0129182
0.0166572
0.0180896
0.0182286
0.0167047
0.0128789
0.0128214
0.0165682
0.0180137
0.0181517
0.0166154
0.0127829
0.0127257
0.0164792
0.0179371
0.0180744
0.0165263
0.0126879
0.012631
0.0163903
0.0178599
0.0179967
0.0164372
0.0125939
0.0125372
0.0163013
0.0177821
0.0179184
0.016348
0.0125006
0.012444
0.0162121
0.0177036
0.0178396
0.0162588
0.012408
0.0123515
0.0161227
0.0176242
0.0177601
0.0161693
0.0123159
0.0122594
0.016033
0.0175439
0.0176799
0.0160796
0.0122242
0.0121677
0.0159428
0.0174627
0.0175989
0.0159896
0.0121328
0.0120761
0.0158522
0.0173806
0.0175171
0.015899
0.0120414
0.0119846
0.0157609
0.0172973
0.0174344
0.0158079
0.0119501
0.0118931
0.015669
0.017213
0.0173507
0.0157162
0.0118587
0.0118014
0.0155764
0.0171275
0.017266
0.0156238
0.0117671
0.0117095
0.0154829
0.0170408
0.0171801
0.0155306
0.0116752
0.0116172
0.0153884
0.0169527
0.0170931
0.0154365
0.0115829
0.0115245
0.015293
0.0168633
0.0170048
0.0153414
0.0114901
0.0114313
0.0151965
0.0167724
0.0169153
0.0152453
0.0113967
0.0113374
0.0150989
0.0166801
0.0168244
0.0151481
0.0113026
0.0112428
0.015
0.0165861
0.0167322
0.0150498
0.0112076
0.0111471
0.0148999
0.0164907
0.0166385
0.0149503
0.0111115
0.0110503
0.0147985
0.0163936
0.0165433
0.0148494
0.0110143
0.0109524
0.0146956
0.0162948
0.0164465
0.0147471
0.0109159
0.0108533
0.0145912
0.0161943
0.016348
0.0146433
0.0108164
0.0107531
0.0144853
0.016092
0.0162478
0.014538
0.0107157
0.0106517
0.0143777
0.0159878
0.0161458
0.014431
0.0106139
0.0105491
0.0142684
0.0158817
0.0160418
0.0143223
0.0105109
0.0104453
0.0141573
0.0157735
0.015936
0.0142119
0.0104066
0.0103402
0.0140444
0.0156633
0.0158281
0.0140996
0.010301
0.0102339
0.0139297
0.0155509
0.0157182
0.0139855
0.0101941
0.0101262
0.013813
0.0154363
0.0156061
0.0138695
0.0100858
0.0100171
0.0136943
0.0153195
0.0154919
0.0137515
0.00997616
0.0099066
0.0135736
0.0152003
0.0153754
0.0136315
0.00986502
0.00979461
0.0134508
0.0150788
0.0152567
0.0135094
0.00975238
0.00968111
0.0133259
0.014955
0.0151356
0.0133853
0.00963819
0.00956604
0.0131989
0.0148287
0.0150122
0.0132589
0.00952244
0.00944939
0.0130696
0.0147
0.0148864
0.0131304
0.00940509
0.00933115
0.0129382
0.0145689
0.0147581
0.0129997
0.00928616
0.00921133
0.0128046
0.0144354
0.0146274
0.0128669
0.00916564
0.00908993
0.0126688
0.0142994
0.0144943
0.0127318
0.00904356
0.00896698
0.0125309
0.0141611
0.0143587
0.0125945
0.00891996
0.00884253
0.0123908
0.0140204
0.0142207
0.0124552
0.00879488
0.00871664
0.0122488
0.0138774
0.0140803
0.0123138
0.0086684
0.00858939
0.0121047
0.0137322
0.0139376
0.0121703
0.00854059
0.00846086
0.0119589
0.013585
0.0137925
0.012025
0.00841158
0.0083312
0.0118113
0.0134358
0.0136453
0.0118779
0.00828149
0.00820054
0.0116622
0.0132848
0.0134961
0.0117292
0.00815049
0.00806905
0.0115117
0.0131322
0.013345
0.0115791
0.00801877
0.00793696
0.0113602
0.0129783
0.0131921
0.0114277
0.00788655
0.00780451
0.0112078
0.0128233
0.0130377
0.0112754
0.00775412
0.007672
0.011055
0.0126677
0.0128821
0.0111225
0.0076218
0.00753977
0.010902
0.0125117
0.0127256
0.0109693
0.00748993
0.00740821
0.0107494
0.0123558
0.0125685
0.0108163
0.00735894
0.00727775
0.0105977
0.0122005
0.0124112
0.0106639
0.00722928
0.0071489
0.0104474
0.0120465
0.0122543
0.0105127
0.00710148
0.00702218
0.0102992
0.0118942
0.0120982
0.0103633
0.00697608
0.00689818
0.0101536
0.0117445
0.0119437
0.0102164
0.00685371
0.00677754
0.0100116
0.011598
0.0117913
0.0100726
0.00673504
0.00666098
0.00987387
0.0114557
0.0116418
0.00993284
0.00662079
0.00654923
0.00974126
0.0113182
0.011496
0.0097979
0.00651169
0.00644296
0.00961464
0.0111864
0.0113547
0.00966865
0.00640839
0.00634285
0.00949491
0.0110612
0.0112189
0.00954595
0.00631158
0.00624964
0.00938292
0.0109436
0.0110894
0.00943066
0.00622204
0.0061641
0.00927952
0.0108343
0.010967
0.00932366
0.00614053
0.00608694
0.00918549
0.0107341
0.0108527
0.00922578
0.0060677
0.00601878
0.00910151
0.0106437
0.0107474
0.00913775
0.00600411
0.00596009
0.00902818
0.0105637
0.0106518
0.00906022
0.00595018
0.00591124
0.00896598
0.0104946
0.0105665
0.00899369
0.00590621
0.00587266
0.00891553
0.0104371
0.0104918
0.00893795
0.00587252
0.00585056
0.00888053
0.0103908
0.0104289
0.00889396
0.00585044
0.00583874
0.00885654
0.0103559
0.0103778
0.00886176
0.00583865
0.00583645
0.00884369
0.0103324
0.0103388
0.00884127
0.00583638
0.00584308
0.00884175
0.0103202
0.0103118
0.00883221
0.00584303
0.00585788
0.00885006
0.0103185
0.0102961
0.00883388
0.00585784
0.00588038
0.00886797
0.0103269
0.0102916
0.00884649
0.00588151
0.00591037
0.00889474
0.0103448
0.0102983
0.00887059
0.00591541
0.00594621
0.00892844
0.0103711
0.0103152
0.00890272
0.00595387
0.00598652
0.00896958
0.0104064
0.0103421
0.00894235
0.00599621
0.00603142
0.00901792
0.010449
0.0103766
0.00898857
0.00604297
0.00607954
0.00907061
0.0104964
0.0104181
0.00904016
0.00609235
0.00612997
0.00912803
0.0105498
0.0104666
0.00909674
0.00614399
0.00618197
0.00918797
0.0106069
0.0105206
0.00915641
0.0061965
0.00623428
0.0092502
0.0106662
0.0105788
0.00921884
0.00624849
0.00628578
0.00931352
0.0107275
0.0106404
0.00928257
0.00629937
0.00633631
0.00937721
0.0107901
0.0107037
0.00934658
0.00634919
0.00638573
0.00944078
0.0108535
0.0107684
0.00941048
0.00639766
0.00643345
0.00950323
0.0109165
0.0108337
0.00947357
0.00644418
0.00647864
0.00956391
0.0109785
0.010899
0.00953538
0.00648781
0.0065208
0.0096227
0.0110391
0.0109634
0.00959539
0.00652847
0.00655994
0.00967906
0.0110978
0.0110263
0.00965301
0.00656615
0.00659612
0.00973264
0.0111543
0.0110872
0.00970785
0.0066009
0.00662939
0.00978318
0.0112083
0.0111457
0.00975963
0.00663281
0.00665983
0.00983053
0.0112594
0.0112014
0.0098082
0.00666196
0.00668757
0.00987462
0.0113076
0.0112541
0.00985345
0.00668851
0.00671283
0.00991547
0.0113528
0.0113036
0.00989552
0.00671292
0.00673596
0.00995318
0.011395
0.0113498
0.00993488
0.00673605
0.00675713
0.00998773
0.0114342
0.0113929
0.009971
0.00675721
0.00677642
0.0100193
0.0114704
0.0114327
0.010004
0.0067765
0.00679396
0.0100481
0.0115039
0.0114696
0.0100342
0.00679404
0.00680993
0.0100743
0.0115347
0.0115035
0.0100617
0.00681
0.00682447
0.0100982
0.0115631
0.0115347
0.0100867
0.00682454
0.00683777
0.0101199
0.0115892
0.0115632
0.0101094
0.00683784
0.00685008
0.0101398
0.0116132
0.0115894
0.01013
0.00685015
0.00686157
0.010158
0.0116353
0.0116134
0.0101489
0.00686164
0.00687232
0.0101747
0.0116556
0.0116353
0.0101661
0.00687238
0.00688254
0.0101901
0.0116745
0.0116556
0.010182
0.0068826
0.00689223
0.0102044
0.0116919
0.0116743
0.0101966
0.00689228
0.00690146
0.0102175
0.011708
0.0116915
0.0102101
0.00690151
0.00691029
0.0102298
0.011723
0.0117074
0.0102227
0.00691034
0.00691877
0.0102412
0.0117369
0.0117222
0.0102344
0.00691882
0.00692696
0.0102519
0.0117497
0.0117358
0.0102453
0.00692701
0.00693488
0.010262
0.0117617
0.0117484
0.0102557
0.00693493
0.00694252
0.0102715
0.0117729
0.0117603
0.0102654
0.00694256
0.00694987
0.0102805
0.0117835
0.0117714
0.0102746
0.00694991
0.00695693
0.010289
0.0117934
0.0117819
0.0102833
0.00695697
0.00696371
0.0102971
0.0118028
0.0117918
0.0102916
0.00696375
0.00697021
0.0103048
0.0118117
0.0118013
0.0102995
0.00697025
0.00697646
0.0103121
0.0118202
0.0118102
0.010307
0.0069765
0.00698247
0.0103191
0.0118284
0.0118187
0.0103142
0.00698251
0.0069883
0.010326
0.0118364
0.011827
0.0103212
0.00698834
0.006994
0.0103328
0.0118443
0.0118349
0.0103281
0.00699404
0.00699973
0.0103397
0.0118523
0.0118427
0.0103349
0.00699977
0.00700571
0.010347
0.0118608
0.0118504
0.0103418
0.00700575
0.00701256
0.0103556
0.0118705
0.0118576
0.0103488
0.0070126
0.0070105
0.0103481
0.0118605
0.0117767
0.0102714
0.00697205
0.00705611
0.0103179
0.0118188
0.0114746
0.00996869
0.00682629
0.0070091
0.0102373
0.0117775
0.0112335
0.0097303
0.00663592
0.00752802
0.0109264
0.0125481
0.0119549
0.0102356
0.00703283
0.00842554
0.0117388
0.0130555
0.0136161
0.0116512
0.00807767
0.0090055
0.0125863
0.0142652
0.0159932
0.0166766
0.0166905
0.0168835
0.0168442
0.0168833
0.016998
0.0170417
0.0171531
0.0172251
0.0172941
0.0173494
0.0174012
0.0174443
0.0174846
0.0175187
0.0175505
0.0175775
0.0176026
0.0176238
0.0176433
0.0176594
0.0176737
0.017685
0.0176944
0.0177008
0.0177047
0.0177055
0.0177029
0.0176967
0.0176854
0.0176561
0.0176401
0.0177415
0.0179458
0.018524
0.0194769
0.0217899
0.026947
0.0388854
0.0570341
0.0437695
0.0367013
0.0347642
0.0315943
0.0261003
0.0213679
0.0117474
0.0106289
0.0200921
0.0254601
0.0239496
0.0198266
0.0110175
0.00902435
0.0170086
0.0209485
0.0214433
0.0177414
0.00968257
0.00885061
0.016752
0.0209111
0.0215525
0.0176054
0.0095436
0.00918319
0.0173121
0.0213509
0.0219466
0.017975
0.00942689
0.00937996
0.017762
0.0218917
0.0219508
0.0178265
0.00946057
0.00948816
0.0179109
0.022056
0.0220625
0.0179194
0.00949572
0.00950631
0.017934
0.0220785
0.0220845
0.0179424
0.0095146
0.00952548
0.0179569
0.0221
0.0221068
0.0179661
0.00953435
0.00954595
0.0179814
0.0221231
0.0221298
0.0179907
0.00955518
0.00956686
0.018006
0.0221458
0.022153
0.0180158
0.00957645
0.00958865
0.0180317
0.0221697
0.0221769
0.0180415
0.00959846
0.00961063
0.0180572
0.0221932
0.0222009
0.0180676
0.00962073
0.00963339
0.0180839
0.0222179
0.0222255
0.0180942
0.00964366
0.00965626
0.0181103
0.0222422
0.0222502
0.0181212
0.0096668
0.00967985
0.0181378
0.0222676
0.0222755
0.0181486
0.00969055
0.00970353
0.0181651
0.0222924
0.0223009
0.0181763
0.00971448
0.00972789
0.0181933
0.0223185
0.0223268
0.0182045
0.00973898
0.0097523
0.0182213
0.022344
0.0223528
0.0182329
0.00976363
0.00977738
0.0182502
0.0223706
0.0223793
0.0182618
0.00978883
0.00980249
0.0182789
0.0223967
0.0224059
0.0182909
0.00981419
0.00982827
0.0183085
0.022424
0.022433
0.0183206
0.00984009
0.00985409
0.0183379
0.0224508
0.0224603
0.0183504
0.00986616
0.00988058
0.0183684
0.0224788
0.0224882
0.0183808
0.00989279
0.00990714
0.0183986
0.0225063
0.0225162
0.0184115
0.00991963
0.00993442
0.0184298
0.022535
0.0225449
0.0184427
0.00994707
0.0099618
0.0184609
0.0225633
0.0225738
0.0184743
0.00997474
0.00998993
0.018493
0.0225929
0.0226032
0.0185064
0.010003
0.0100182
0.018525
0.0226221
0.022633
0.0185389
0.0100316
0.0100472
0.018558
0.0226525
0.0226633
0.0185719
0.0100608
0.0100764
0.0185909
0.0226826
0.022694
0.0186053
0.0100902
0.0101063
0.0186249
0.022714
0.0227253
0.0186393
0.0101203
0.0101363
0.0186588
0.0227451
0.0227571
0.0186737
0.0101507
0.0101672
0.0186938
0.0227776
0.0227895
0.0187088
0.0101818
0.0101983
0.0187288
0.0228098
0.0228224
0.0187444
0.0102132
0.0102302
0.018765
0.0228435
0.0228562
0.0187806
0.0102452
0.0102623
0.0188012
0.022877
0.0228904
0.0188174
0.0102777
0.0102952
0.0188386
0.022912
0.0229255
0.0188549
0.0103108
0.0103284
0.0188761
0.0229471
0.0229613
0.0188929
0.0103444
0.0103625
0.0189149
0.0229837
0.0229981
0.0189318
0.0103787
0.0103969
0.0189538
0.0230205
0.0230356
0.0189714
0.0104135
0.0104323
0.0189942
0.023059
0.0230744
0.019012
0.0104492
0.0104681
0.0190348
0.0230977
0.0231139
0.0190532
0.0104853
0.0105047
0.0190768
0.0231383
0.0231548
0.0190955
0.0105223
0.0105419
0.0191193
0.0231793
0.0231968
0.0191387
0.0105598
0.01058
0.0191633
0.0232225
0.0232403
0.019183
0.0105983
0.0106186
0.0192079
0.0232663
0.0232851
0.0192283
0.0106373
0.0106583
0.0192541
0.0233124
0.0233318
0.019275
0.0106773
0.0106985
0.0193011
0.0233596
0.0233801
0.0193228
0.010718
0.0107398
0.0193499
0.0234092
0.0234304
0.019372
0.0107597
0.0107817
0.0193995
0.0234603
0.0234829
0.0194226
0.010802
0.0108248
0.0194512
0.0235144
0.0235379
0.0194749
0.0108455
0.0108685
0.019504
0.0235703
0.0235954
0.0195287
0.0108897
0.0109133
0.0195591
0.0236297
0.0236562
0.0195845
0.0109349
0.0109587
0.0196155
0.0236916
0.0237202
0.019642
0.0109806
0.0110046
0.0196742
0.0237579
0.0237882
0.0197015
0.0110264
0.0110501
0.0197344
0.0238276
0.0238605
0.0197629
0.0110714
0.0110945
0.019797
0.0239029
0.0239384
0.0198264
0.0111146
0.0111357
0.0198614
0.0239834
0.0240226
0.0198921
0.0111536
0.0111719
0.0199285
0.0240716
0.0241149
0.0199605
0.011186
0.0111997
0.0199983
0.0241685
0.0242175
0.0200326
0.0112086
0.0112165
0.020073
0.0242776
0.0243337
0.0201104
0.0112192
0.0112205
0.0201545
0.0244017
0.0244672
0.0202006
0.0112206
0.0112158
0.0202537
0.0245459
0.0246236
0.0203109
0.0112079
0.0111933
0.0203755
0.0247167
0.0248121
0.0204451
0.011179
0.0111662
0.0205224
0.0249248
0.0250406
0.0206147
0.0111756
0.0112032
0.0207252
0.0251747
0.0253153
0.0208484
0.0112484
0.0113195
0.0209958
0.0254766
0.0256486
0.0211631
0.0114191
0.0115571
0.0213628
0.0258461
0.0260613
0.0215936
0.0117391
0.011976
0.0218652
0.0263044
0.0265786
0.0222263
0.0123271
0.0127114
0.0226738
0.0268907
0.0271458
0.0229568
0.0130871
0.0133091
0.023094
0.0274005
0.0273731
0.023368
0.0135858
0.013902
0.0236262
0.0276994
0.0281243
0.0241946
0.0145933
0.0148425
0.0242586
0.0280772
0.0283406
0.0245947
0.015393
0.015802
0.0249499
0.0287422
0.028749
0.0253761
0.0164792
0.0168993
0.025606
0.0291122
0.0292538
0.0260647
0.0176539
0.0181866
0.0264701
0.0297955
0.0303539
0.0272269
0.0192776
0.0201063
0.0280048
0.0307869
0.030751
0.0286161
0.0212494
0.020851
0.0261338
0.0264925
0.0841476
0.0584584
0.0301785
0.0158597
0.0331601
0.0502449
0.0325365
0.0269878
0.0146477
0.0134807
0.024381
0.0286274
0.0296153
0.0249477
0.014021
0.0140393
0.0242647
0.0284571
0.0293804
0.0249632
0.014602
0.0147935
0.0247009
0.0286607
0.0298085
0.0257285
0.0160437
0.0164664
0.0254212
0.0292213
0.0301942
0.0266682
0.0176549
0.0187629
0.0272587
0.0306865
0.0311608
0.0278998
0.0197175
0.0212884
0.0287853
0.0313922
0.0280686
0.0274064
0.0215995
0.0303746
0.0573676
0.0816248
0.0523925
0.0361725
0.0191205
0.0180116
0.0296045
0.0357591
0.0321955
0.0277948
0.0177888
0.0182386
0.0275682
0.0313554
0.0309717
0.027402
0.01839
0.0191333
0.0275875
0.0308507
0.0311533
0.028269
0.0202587
0.0205167
0.0283646
0.0315133
0.0313105
0.0290911
0.0220758
0.0216022
0.0265656
0.0265679
0.0812965
0.0573467
0.03093
0.0199724
0.0365684
0.0523545
0.0347834
0.0296797
0.0187265
0.0179821
0.0270862
0.0306464
0.0317291
0.0284521
0.0195998
0.0200728
0.0284342
0.0312702
0.0321416
0.0288821
0.0208225
0.0221363
0.0295094
0.0316981
0.0280954
0.0276252
0.0221934
0.0310802
0.0570888
0.080113
0.0543732
0.0380386
0.021407
0.0213525
0.0320271
0.0372278
0.0331951
0.029373
0.0206403
0.0222819
0.0302491
0.0330217
0.0320751
0.0292706
0.0220332
0.0233773
0.0298354
0.0317353
0.0267827
0.0271593
0.0226075
0.0325551
0.0577688
0.0804872
0.0544778
0.0391559
0.0233625
0.0225931
0.0328599
0.0377411
0.0322777
0.029541
0.0218069
0.0231307
0.0295468
0.0311489
0.0271702
0.0274225
0.0228733
0.031524
0.0559497
0.0779059
0.0546246
0.0389442
0.0230505
0.0224122
0.0323457
0.0372115
0.0335723
0.0305899
0.0226392
0.0228037
0.0297427
0.0323463
0.031849
0.0299965
0.0237322
0.0234196
0.0267794
0.0259608
0.0772911
0.0564752
0.0324543
0.0245126
0.0399041
0.0543443
0.0362811
0.0322376
0.0236418
0.0240215
0.0303634
0.0319602
0.0271501
0.0274876
0.0237475
0.0321484
0.0544479
0.0742848
0.0548851
0.0403514
0.0252745
0.0249844
0.0336537
0.0375712
0.0327611
0.0304677
0.0242137
0.0235152
0.0263707
0.0254026
0.0729169
0.0535088
0.0320037
0.0254691
0.039633
0.0529755
0.0346083
0.0315432
0.024337
0.0224181
0.0254021
0.0245955
0.0688135
0.0512239
0.0311909
0.0260792
0.0395091
0.0522659
0.0340834
0.0310206
0.0241138
0.0228957
0.0253539
0.0241621
0.0632854
0.0480628
0.0305263
0.0245637
0.0363323
0.046529
0.0249078
0.0253638
0.0222048
0.0279894
0.0442097
0.0573903
0.0427269
0.033454
0.0225487
0.0199411
0.0222176
0.0213881
0.048889
0.0380534
0.024799
0.0183995
0.0256841
0.0324292
0.0139888
0.0155723
0.0151614
0.0174341
0.0254503
0.0309876
0.0101828
0.0103403
0.0096245
0.00960615
0.0153564
0.0196751
0.0116413
0.0091379
0.00525479
0.00981256
0.0146823
0.0177354
0.0269787
0.0237144
0.0183144
0.0269895
0.0321728
0.0349135
0.0470182
0.0436094
0.0370764
0.0425514
0.0494792
0.0542466
0.0536964
0.0534339
0.0473493
0.060133
0.0820477
0.0976194
0.094164
0.0790614
0.0580677
0.0614034
0.0834857
0.0986849
0.100519
0.0854341
0.0621346
0.0607876
0.083197
0.0986379
0.101406
0.082978
0.0594129
0.0570654
0.079989
0.0965365
0.103728
0.0836449
0.0586213
0.0547502
0.0758454
0.0905253
0.106124
0.087423
0.0607367
0.0515643
0.0620285
0.0645836
0.104494
0.0802173
0.0549192
0.0575059
0.087704
0.114363
0.0604396
0.0577486
0.0478129
0.0534882
0.0796539
0.104843
0.111814
0.0847658
0.0550185
0.0497789
0.0696744
0.084329
0.104191
0.0824887
0.0550832
0.0457481
0.055769
0.0591711
0.0959963
0.0738276
0.0492036
0.0531542
0.0845084
0.111868
0.0570246
0.0542794
0.044126
0.0484817
0.07251
0.0940927
0.109019
0.0831951
0.0523903
0.0422189
0.05152
0.0547943
0.0921109
0.0702979
0.0463242
0.0515354
0.0822023
0.109119
0.0549675
0.0519663
0.0421822
0.0456983
0.0694504
0.091492
0.107588
0.0809029
0.0502654
0.0410296
0.0505847
0.0534472
0.089239
0.0678707
0.0448539
0.0496174
0.0802334
0.106866
0.0531504
0.0500366
0.0405621
0.0436439
0.0664181
0.0869922
0.105218
0.0796339
0.0490819
0.0378583
0.0443061
0.0449594
0.0601734
0.0527461
0.0395912
0.0424175
0.0659222
0.0888581
0.105581
0.0776398
0.0467789
0.0371838
0.0468923
0.0498101
0.0859182
0.0645291
0.0416171
0.0466644
0.0764105
0.104056
0.0507403
0.0474778
0.0377046
0.0410184
0.0644474
0.0870105
0.104612
0.0774001
0.046767
0.0380836
0.0481893
0.0515627
0.086558
0.0640642
0.0411839
0.0470313
0.0769226
0.103111
0.0506462
0.0474204
0.0377148
0.0415252
0.0646976
0.0863388
0.103239
0.0767171
0.0467975
0.0379021
0.0477955
0.0508394
0.0857101
0.0645586
0.0420002
0.0468727
0.0768499
0.103325
0.0508352
0.0476057
0.0379833
0.0416657
0.0647135
0.0858789
0.101689
0.076027
0.046695
0.037727
0.0476323
0.0507871
0.0854158
0.063451
0.0410024
0.0466993
0.0764924
0.102666
0.0504896
0.047714
0.0383987
0.0410847
0.0640303
0.0855962
0.101074
0.0762003
0.0463282
0.0380766
0.0481193
0.0511685
0.0846348
0.0636644
0.0412773
0.0464195
0.0760686
0.101857
0.0507226
0.0476194
0.0379661
0.0411031
0.0640262
0.0855457
0.101709
0.076137
0.046541
0.0380864
0.0478701
0.051028
0.0851593
0.0643636
0.041429
0.0462386
0.0763858
0.101522
0.0511033
0.0477244
0.0376339
0.0412755
0.0640066
0.0845988
0.101787
0.0761182
0.0464984
0.0382773
0.0480909
0.0514539
0.0860677
0.0645088
0.0417313
0.0467666
0.0761896
0.102293
0.0508956
0.0473941
0.0377733
0.0420092
0.0650358
0.0863054
0.101412
0.0755438
0.0463865
0.0379857
0.0480553
0.0513159
0.0851415
0.0643943
0.0414545
0.0464166
0.0769206
0.102177
0.0509483
0.0477951
0.0377751
0.0418298
0.065052
0.0868304
0.102776
0.0765576
0.0465314
0.0387195
0.0486111
0.0514556
0.0877458
0.06581
0.041992
0.0471533
0.0776259
0.103137
0.0520087
0.04888
0.0385667
0.0419817
0.0668568
0.0914797
0.101462
0.075314
0.0461373
0.0423106
0.0612675
0.0755856
0.0945553
0.0740165
0.0474024
0.0402946
0.0504419
0.0537018
0.0884717
0.0659033
0.0426636
0.0474193
0.077335
0.102784
0.0529556
0.0497186
0.0395812
0.0430096
0.0656953
0.0881612
0.102979
0.0766219
0.0477338
0.0389702
0.0488111
0.051875
0.0885328
0.0666049
0.0429131
0.0480208
0.0779387
0.10378
0.0528324
0.0496206
0.0393668
0.0445829
0.0696996
0.0929507
0.103156
0.0776197
0.0478802
0.0430332
0.0625785
0.076627
0.0956278
0.0751625
0.0482696
0.0406072
0.0515352
0.0549832
0.0902712
0.0680011
0.0444378
0.0482261
0.0782628
0.104321
0.0539089
0.0506468
0.0406513
0.0443567
0.0688047
0.0917557
0.10648
0.0804156
0.049554
0.0410427
0.0519368
0.055072
0.0943758
0.0705944
0.0452339
0.0484386
0.0791624
0.104463
0.0789647
0.0647465
0.0444998
0.0496445
0.0770266
0.0975596
0.0564981
0.0531033
0.042365
0.0455978
0.0698627
0.0933436
0.106651
0.0805026
0.0503142
0.0417536
0.0519348
0.0552567
0.0966051
0.0721735
0.0462845
0.0496562
0.080127
0.106208
0.0792433
0.0654142
0.0451621
0.0501747
0.0776202
0.0984991
0.0571475
0.0535275
0.0429513
0.0470138
0.0717743
0.0950557
0.109077
0.0821797
0.0517705
0.0425264
0.0538103
0.0571699
0.0982684
0.0740322
0.0477574
0.0498909
0.0810568
0.107524
0.0807434
0.0667287
0.0456883
0.0509065
0.0788684
0.100186
0.058695
0.0551746
0.0438663
0.0483547
0.0751075
0.100322
0.108767
0.0832314
0.0522191
0.0478565
0.0683093
0.0827914
0.101382
0.0798624
0.0521281
0.0450345
0.0564972
0.0604976
0.101622
0.0764069
0.0495159
0.0521779
0.0826366
0.109423
0.0839114
0.0683157
0.047804
0.0524867
0.0801423
0.101466
0.0602721
0.0565058
0.0450222
0.0495537
0.0746989
0.0993353
0.111995
0.0850516
0.0538157
0.0448787
0.0559812
0.0589396
0.102276
0.0774867
0.0499794
0.0527908
0.0852485
0.111498
0.0848314
0.0694492
0.0482227
0.0530031
0.081321
0.103545
0.0608888
0.0570724
0.0455733
0.0500407
0.0778275
0.104882
0.111058
0.0842188
0.0531299
0.048872
0.0709382
0.0865988
0.103706
0.0814775
0.0530595
0.0459242
0.0579984
0.06191
0.105387
0.0778754
0.0506448
0.0538152
0.0847025
0.11455
0.0868178
0.0712123
0.0495118
0.054697
0.0832226
0.105551
0.0630536
0.0587055
0.0473532
0.0515808
0.0807584
0.108246
0.11583
0.0874859
0.0548559
0.0506936
0.0732504
0.089692
0.107089
0.0843193
0.0556057
0.0478507
0.0597649
0.0637364
0.107678
0.0810341
0.0525794
0.0544728
0.0867343
0.114173
0.0897335
0.0731271
0.0505513
0.0559135
0.0855932
0.106899
0.0644082
0.0601783
0.0481269
0.0540243
0.0834792
0.109791
0.116148
0.0894784
0.0562026
0.0530081
0.077637
0.0944147
0.107054
0.0859411
0.0569186
0.0537518
0.0763379
0.0916407
0.107772
0.0866973
0.0579937
0.0508648
0.0632286
0.067121
0.111563
0.0841363
0.0549108
0.0579076
0.0906263
0.118793
0.0924109
0.0766375
0.0541927
0.0582298
0.0877645
0.110001
0.06711
0.0624655
0.0501597
0.0548299
0.0841722
0.112272
0.117806
0.0908433
0.0582474
0.0548375
0.0795643
0.0969102
0.109153
0.0868114
0.0579123
0.0547084
0.0783898
0.0951466
0.110834
0.0886667
0.058934
0.0517933
0.0640525
0.0685676
0.115381
0.0863967
0.0560073
0.058275
0.0919492
0.121765
0.0949809
0.0774542
0.0543817
0.0601049
0.0901443
0.113932
0.068317
0.0643307
0.0521315
0.0569553
0.0869311
0.117085
0.121856
0.0926807
0.0592642
0.0563208
0.081211
0.0999409
0.112833
0.0893575
0.0598607
0.056553
0.0799353
0.0975209
0.112292
0.0908752
0.061535
0.0538025
0.0668799
0.0715054
0.118482
0.0890515
0.0590613
0.0614231
0.0953035
0.12466
0.0980516
0.0813077
0.057774
0.062246
0.0925791
0.11645
0.070523
0.0665619
0.0540746
0.0580686
0.0896089
0.12102
0.125255
0.0961465
0.0613161
0.0582278
0.0839181
0.102884
0.114765
0.0919664
0.0617597
0.0581538
0.082329
0.100158
0.115346
0.0911772
0.0614539
0.0538187
0.067222
0.071682
0.122113
0.0921647
0.0606555
0.0623403
0.097418
0.127717
0.104366
0.0841581
0.0579985
0.061104
0.0921407
0.116414
0.102177
0.0833871
0.0585907
0.0634924
0.0944697
0.117143
0.0733812
0.0685976
0.0556758
0.0607446
0.0941538
0.125121
0.129091
0.0994934
0.0633211
0.0596828
0.0863769
0.107689
0.118928
0.0938082
0.0633036
0.0609736
0.0879043
0.107543
0.117642
0.0941196
0.0638024
0.0604427
0.0856045
0.104317
0.119461
0.0961897
0.065654
0.0570633
0.0706622
0.0762595
0.126012
0.0951781
0.0626393
0.0648294
0.0993855
0.128661
0.108315
0.0882051
0.062318
0.065191
0.0959171
0.120803
0.105641
0.08657
0.0617025
0.0666242
0.0980355
0.121095
0.0771141
0.0720697
0.0582882
0.0654743
0.0978592
0.129031
0.13316
0.102083
0.0670236
0.0628624
0.0905329
0.110073
0.122355
0.0973717
0.065506
0.0622934
0.0886265
0.107283
0.122064
0.0995162
0.0674342
0.0594235
0.0738001
0.0785489
0.130267
0.0999155
0.066217
0.0671552
0.10316
0.134423
0.11134
0.0910742
0.0634461
0.0667816
0.0980433
0.122672
0.112943
0.0917524
0.0644059
0.0681732
0.0993404
0.123698
0.109418
0.0896726
0.0639119
0.0697533
0.101061
0.124504
0.0796945
0.0745314
0.0609321
0.0666739
0.101663
0.135095
0.13692
0.106181
0.0686952
0.0657556
0.0945097
0.115571
0.12597
0.100936
0.0688285
0.066297
0.0948535
0.11614
0.125181
0.101473
0.0692908
0.0660032
0.0916747
0.111622
0.127943
0.103238
0.0712022
0.0626314
0.0767378
0.0824534
0.13596
0.102475
0.0687859
0.0703598
0.106845
0.139001
0.116364
0.0949421
0.0660035
0.0693846
0.102883
0.12703
0.113349
0.0936066
0.0670647
0.072129
0.104719
0.129775
0.081908
0.0770691
0.0629582
0.069995
0.104838
0.138689
0.143102
0.109317
0.0715855
0.0683246
0.0976504
0.119505
0.129729
0.104578
0.0711743
0.0682779
0.0980167
0.120025
0.128835
0.105016
0.0720036
0.0688257
0.0985265
0.120541
0.129866
0.106488
0.0731022
0.0686641
0.0961544
0.116773
0.132545
0.107138
0.0739386
0.0654076
0.0801851
0.0858006
0.142364
0.108039
0.072045
0.0738413
0.112163
0.144567
0.121783
0.0995117
0.0696455
0.0722952
0.106624
0.131856
0.121596
0.0994735
0.0701442
0.0739152
0.106678
0.131095
0.118277
0.0977269
0.0702102
0.075252
0.108569
0.13539
0.0862423
0.0807319
0.0658523
0.0732817
0.110343
0.14514
0.14784
0.114948
0.075125
0.0718047
0.101975
0.124456
0.135852
0.109393
0.0748434
0.0715246
0.102014
0.124799
0.134978
0.108764
0.0748707
0.0715653
0.100024
0.121289
0.136496
0.111407
0.077059
0.0679779
0.0831361
0.088733
0.147965
0.112318
0.0747741
0.0761473
0.11625
0.148486
0.126931
0.103627
0.0724213
0.0745943
0.109479
0.136998
0.127324
0.103928
0.0728932
0.0769097
0.110698
0.135488
0.127612
0.104296
0.0736002
0.0776877
0.11148
0.138071
0.123645
0.101926
0.0731925
0.0793421
0.114389
0.140034
0.0899239
0.0842879
0.0692182
0.0769932
0.114977
0.151644
0.15488
0.117987
0.0780378
0.0745421
0.106066
0.1301
0.141777
0.112945
0.0774966
0.0753479
0.106786
0.130446
0.139419
0.112542
0.0783904
0.0754445
0.10509
0.127548
0.142312
0.115087
0.0802208
0.0700902
0.0857103
0.0913695
0.154833
0.116909
0.0776674
0.0801195
0.121498
0.156901
0.132277
0.107524
0.0755209
0.0790768
0.11445
0.143127
0.132347
0.108239
0.0758402
0.0790085
0.114599
0.140496
0.133282
0.108923
0.0767906
0.0813184
0.116248
0.142835
0.128751
0.10624
0.0763737
0.082373
0.118166
0.144895
0.093681
0.0878996
0.0722826
0.0802155
0.119799
0.15824
0.160065
0.124595
0.082938
0.0778958
0.110744
0.135061
0.146335
0.118403
0.0812174
0.0784852
0.111484
0.136282
0.144142
0.116875
0.0814915
0.079219
0.112071
0.137122
0.146373
0.119645
0.0833975
0.0790188
0.110052
0.133463
0.147796
0.120532
0.0843794
0.0743944
0.0902461
0.0958319
0.161719