/*--------------------------------*- C++ -*----------------------------------*\
| =========                 |                                                 |
| \\      /  F ield         | OpenFOAM: The Open Source CFD Toolbox           |
|  \\    /   O peration     | Version:  v2006                                 |
|   \\  /    A nd           | Website:  www.openfoam.com                      |
|    \\/     M anipulation  |                                                 |
\*---------------------------------------------------------------------------*/
FoamFile
{
    version     2.0;
    format      ascii;
    class       volScalarField;
    location    "0.07";
    object      rho;
}
// * * * * * * * * * * * * * * * * * * * * * * * * * * * * * * * * * * * * * //

dimensions      [1 -3 0 0 0 0 0];


internalField   nonuniform List<scalar> 
23013
(
1.73105
1.73107
1.73111
1.731
1.73108
1.73105
1.73106
1.73107
1.73109
1.73111
1.73113
1.73115
1.73118
1.7312
1.73123
1.73126
1.73129
1.73132
1.73135
1.73138
1.73141
1.73145
1.73148
1.73152
1.73156
1.7316
1.73164
1.73168
1.73172
1.73177
1.73181
1.73186
1.73191
1.73196
1.73201
1.73206
1.73211
1.73216
1.73222
1.73227
1.73233
1.73239
1.73244
1.7325
1.73256
1.73262
1.73268
1.73274
1.73281
1.73287
1.73293
1.73299
1.73306
1.73312
1.73319
1.73325
1.73332
1.73338
1.73345
1.73351
1.73358
1.73364
1.73371
1.73377
1.73384
1.7339
1.73397
1.73403
1.7341
1.73416
1.73422
1.73429
1.73435
1.73441
1.73447
1.73454
1.7346
1.73466
1.73471
1.73477
1.73483
1.73489
1.73494
1.735
1.73505
1.7351
1.73515
1.7352
1.73525
1.7353
1.73535
1.73539
1.73544
1.73548
1.73552
1.73556
1.7356
1.73564
1.73567
1.7357
1.73574
1.73577
1.7358
1.73583
1.73585
1.73588
1.7359
1.73592
1.73594
1.73596
1.73597
1.73597
1.73597
1.73597
1.73597
1.73598
1.73598
1.73601
1.73604
1.73609
1.73618
1.73622
1.73617
1.73608
1.73618
1.73619
1.73618
1.73613
1.73599
1.73593
1.73609
1.73614
1.73609
1.73604
1.73588
1.73583
1.736
1.73607
1.73605
1.73597
1.73577
1.73575
1.73594
1.73601
1.73601
1.73591
1.73572
1.73575
1.73589
1.73595
1.73601
1.73587
1.73566
1.73569
1.73587
1.73596
1.73588
1.73585
1.73575
1.73573
1.73584
1.7359
1.73595
1.73583
1.73566
1.7357
1.73583
1.73591
1.73594
1.73582
1.73568
1.73572
1.73583
1.7359
1.73584
1.73582
1.73576
1.73569
1.73583
1.73593
1.73585
1.73583
1.73576
1.73576
1.73584
1.73588
1.73595
1.73584
1.73571
1.7358
1.73585
1.73588
1.73595
1.73585
1.73574
1.73583
1.73586
1.73589
1.73596
1.73587
1.73578
1.73581
1.73588
1.73595
1.7359
1.73589
1.73587
1.73581
1.73591
1.736
1.73593
1.73592
1.73589
1.73588
1.73593
1.73597
1.73604
1.73595
1.73585
1.73594
1.73597
1.73598
1.73606
1.73597
1.7359
1.73599
1.736
1.73601
1.73609
1.73601
1.73594
1.736
1.73603
1.73606
1.73605
1.73605
1.73604
1.736
1.73607
1.73614
1.73608
1.73609
1.73608
1.73609
1.73611
1.73613
1.73612
1.73613
1.73612
1.73608
1.73615
1.73621
1.73615
1.73617
1.73618
1.73617
1.7362
1.73622
1.73624
1.73622
1.73619
1.7362
1.73624
1.73629
1.73624
1.73627
1.73627
1.73627
1.73629
1.7363
1.73638
1.73631
1.73624
1.73633
1.73633
1.73634
1.73642
1.73635
1.73629
1.73638
1.73639
1.73639
1.73645
1.73641
1.73638
1.73644
1.73644
1.73645
1.7365
1.73646
1.73644
1.73646
1.7365
1.73654
1.7365
1.73653
1.73656
1.73654
1.73656
1.73658
1.73659
1.73659
1.73658
1.7366
1.73662
1.73664
1.73663
1.73665
1.73667
1.73666
1.73668
1.73671
1.73667
1.73671
1.73673
1.73673
1.73674
1.73674
1.73683
1.73677
1.73671
1.73681
1.7368
1.7368
1.73688
1.73683
1.73679
1.73687
1.73687
1.73688
1.73686
1.7369
1.73695
1.73695
1.73693
1.73692
1.73702
1.73696
1.73693
1.73698
1.737
1.73702
1.737
1.73704
1.73707
1.73705
1.73707
1.73709
1.73707
1.7371
1.73712
1.73712
1.73713
1.73714
1.73712
1.73716
1.7372
1.73717
1.73719
1.73721
1.73717
1.73721
1.73726
1.73722
1.73724
1.73727
1.73722
1.73727
1.73731
1.73727
1.73729
1.73732
1.73727
1.73731
1.73736
1.73732
1.73734
1.73737
1.73731
1.73736
1.7374
1.73736
1.73738
1.7374
1.73735
1.73739
1.73743
1.73742
1.7374
1.7374
1.73743
1.73741
1.73739
1.73747
1.73742
1.73737
1.73745
1.73742
1.7374
1.73747
1.73742
1.73738
1.7374
1.73741
1.73743
1.73737
1.73741
1.73744
1.73736
1.73739
1.73742
1.73735
1.73737
1.73741
1.73732
1.73734
1.73737
1.73726
1.73732
1.73738
1.73728
1.73729
1.73727
1.73729
1.73724
1.73717
1.73717
1.73718
1.73719
1.73706
1.73713
1.73719
1.73708
1.73708
1.73705
1.73707
1.73701
1.73693
1.73694
1.73693
1.73693
1.73679
1.73685
1.73692
1.7368
1.73678
1.73673
1.73666
1.7367
1.7367
1.73663
1.73661
1.73655
1.73653
1.73652
1.73647
1.73642
1.73642
1.73639
1.73626
1.73632
1.73637
1.73623
1.73622
1.73618
1.736
1.73612
1.73622
1.73606
1.73604
1.73596
1.73591
1.73592
1.73592
1.73583
1.73581
1.73578
1.73558
1.73571
1.73581
1.73567
1.73563
1.73553
1.7355
1.73552
1.73549
1.73544
1.73542
1.73536
1.73524
1.7353
1.73535
1.73525
1.7352
1.73513
1.73501
1.73511
1.73517
1.73506
1.73502
1.73492
1.7348
1.73492
1.73501
1.73487
1.73482
1.73475
1.73462
1.73473
1.73481
1.73468
1.73464
1.73456
1.73445
1.73455
1.73462
1.73452
1.73446
1.73437
1.73431
1.73438
1.73441
1.73438
1.7343
1.73419
1.73416
1.73423
1.73424
1.73425
1.73415
1.73402
1.73401
1.73408
1.73411
1.73412
1.73401
1.73387
1.73388
1.73395
1.73398
1.73399
1.73389
1.73375
1.73371
1.73384
1.73392
1.73383
1.73378
1.73368
1.73359
1.73373
1.73383
1.73372
1.73368
1.7336
1.73349
1.73364
1.73378
1.73366
1.7336
1.73351
1.73349
1.73357
1.73361
1.73366
1.73353
1.73338
1.73343
1.73351
1.73355
1.7336
1.73348
1.73334
1.73339
1.73346
1.73351
1.73347
1.73343
1.73337
1.73328
1.73341
1.73353
1.73341
1.73339
1.73335
1.73326
1.73338
1.73348
1.73348
1.73335
1.73321
1.73328
1.73334
1.73338
1.73346
1.73332
1.73319
1.73326
1.73332
1.73337
1.73333
1.7333
1.73327
1.73319
1.73329
1.7334
1.73331
1.73328
1.73324
1.73322
1.73328
1.73331
1.73337
1.73326
1.73316
1.73315
1.73326
1.73336
1.7333
1.73324
1.73318
1.73321
1.73324
1.73326
1.73333
1.73323
1.73313
1.73312
1.73322
1.73333
1.73322
1.73321
1.7332
1.73311
1.73321
1.73331
1.73322
1.7332
1.73317
1.73318
1.73319
1.7332
1.73329
1.73318
1.73308
1.73314
1.73318
1.73321
1.73317
1.73317
1.73315
1.73308
1.73317
1.73325
1.73323
1.73316
1.73309
1.73315
1.73315
1.73316
1.73323
1.73314
1.73306
1.7331
1.73314
1.73316
1.73312
1.73312
1.73312
1.73304
1.73312
1.73321
1.7332
1.73311
1.73302
1.7331
1.73311
1.73311
1.73318
1.73309
1.73302
1.73307
1.73309
1.73312
1.73307
1.73308
1.7331
1.73302
1.73308
1.73315
1.73314
1.73307
1.73301
1.73308
1.73307
1.73306
1.73314
1.73305
1.73298
1.73306
1.73305
1.73305
1.73305
1.73304
1.73303
1.73297
1.73303
1.73311
1.73301
1.73303
1.73304
1.73295
1.73302
1.7331
1.73301
1.73301
1.73302
1.73303
1.73301
1.73299
1.73307
1.733
1.73294
1.73299
1.733
1.73299
1.73296
1.73298
1.733
1.73291
1.73298
1.73305
1.73301
1.73297
1.73293
1.73298
1.73297
1.73296
1.73304
1.73296
1.73289
1.73297
1.73295
1.73293
1.73302
1.73294
1.73287
1.73295
1.73294
1.73291
1.73291
1.73294
1.73296
1.73275
1.73294
1.73316
1.73283
1.73296
1.73305
1.73288
1.73293
1.73301
1.73291
1.73293
1.73295
1.73291
1.7329
1.73292
1.73298
1.73303
1.73306
1.73307
1.73307
1.73307
1.73307
1.73306
1.73306
1.73305
1.73304
1.73303
1.73302
1.73301
1.73296
1.73292
1.73292
1.73288
1.73278
1.73275
1.73277
1.73279
1.73279
1.73278
1.73278
1.73275
1.73274
1.73274
1.73274
1.73273
1.73273
1.73274
1.73272
1.73272
1.73272
1.73272
1.73274
1.73275
1.73275
1.73275
1.73273
1.73273
1.73275
1.73275
1.73272
1.73271
1.73274
1.73274
1.73275
1.73276
1.73275
1.73274
1.73272
1.73274
1.73276
1.73276
1.73274
1.73273
1.73278
1.73277
1.73277
1.73277
1.73276
1.73275
1.73272
1.73274
1.73277
1.73278
1.73277
1.73276
1.73279
1.73279
1.73279
1.73278
1.73276
1.73275
1.73275
1.73276
1.73279
1.7328
1.73279
1.73279
1.73278
1.73278
1.7328
1.7328
1.73277
1.73275
1.7328
1.73281
1.73281
1.73282
1.73281
1.73281
1.73274
1.73276
1.7328
1.73281
1.73278
1.73277
1.73287
1.73286
1.73283
1.73283
1.73283
1.73283
1.73271
1.73274
1.73281
1.73283
1.73279
1.73279
1.73291
1.7329
1.73285
1.73284
1.73284
1.73284
1.7327
1.73274
1.73282
1.73284
1.73281
1.73281
1.73293
1.73291
1.73286
1.73286
1.73285
1.73284
1.73271
1.73274
1.73283
1.73286
1.73283
1.73283
1.73295
1.73293
1.73287
1.73287
1.73286
1.73285
1.73272
1.73275
1.73285
1.73287
1.73285
1.73285
1.73296
1.73294
1.73288
1.73288
1.73287
1.73285
1.73273
1.73277
1.73286
1.73289
1.73287
1.73286
1.73297
1.73295
1.7329
1.73289
1.73287
1.73286
1.73274
1.73278
1.73287
1.7329
1.73288
1.73288
1.73298
1.73296
1.73291
1.73291
1.73288
1.73286
1.73276
1.7328
1.73289
1.73292
1.7329
1.73289
1.73298
1.73297
1.73292
1.73292
1.73289
1.73287
1.73278
1.73282
1.7329
1.73293
1.73291
1.73291
1.73299
1.73298
1.73294
1.73293
1.73289
1.73287
1.7328
1.73284
1.73292
1.73294
1.73293
1.73293
1.73299
1.73298
1.73295
1.73294
1.7329
1.73288
1.73282
1.73285
1.73293
1.73295
1.73294
1.73294
1.73298
1.73298
1.73296
1.73295
1.73291
1.73288
1.73284
1.73287
1.73294
1.73296
1.73296
1.73295
1.73298
1.73298
1.73296
1.73296
1.73292
1.73289
1.73287
1.7329
1.73295
1.73297
1.73296
1.73295
1.73297
1.73297
1.73297
1.73297
1.73293
1.7329
1.73289
1.73292
1.73297
1.73298
1.73296
1.73295
1.73295
1.73296
1.73298
1.73298
1.73294
1.73292
1.73292
1.73294
1.73298
1.73299
1.73296
1.73295
1.73293
1.73295
1.73298
1.73299
1.73295
1.73293
1.73295
1.73296
1.73299
1.73299
1.73296
1.73295
1.73291
1.73293
1.73298
1.73299
1.73296
1.73294
1.73297
1.73298
1.733
1.733
1.73296
1.73294
1.73289
1.73292
1.73298
1.733
1.73296
1.73294
1.73298
1.733
1.733
1.733
1.73295
1.73293
1.73287
1.73291
1.73299
1.733
1.73296
1.73294
1.73299
1.733
1.73301
1.733
1.73295
1.73292
1.73286
1.7329
1.73298
1.733
1.73295
1.73292
1.73298
1.733
1.73301
1.733
1.73294
1.73291
1.73284
1.73288
1.73298
1.73299
1.73294
1.73291
1.73298
1.73299
1.733
1.73299
1.73293
1.7329
1.73281
1.73286
1.73297
1.73298
1.73291
1.73288
1.73295
1.73297
1.73299
1.73298
1.73291
1.73287
1.73276
1.73282
1.73296
1.73298
1.73288
1.73284
1.73292
1.73295
1.73298
1.73298
1.7329
1.73283
1.7327
1.73279
1.73295
1.73297
1.73285
1.73278
1.73288
1.73293
1.73298
1.73297
1.73288
1.73281
1.73266
1.73277
1.73294
1.73295
1.73281
1.73272
1.73284
1.7329
1.73297
1.73295
1.73285
1.73278
1.73262
1.73272
1.73291
1.73293
1.73274
1.73265
1.73272
1.73281
1.73294
1.73293
1.73278
1.73266
1.73252
1.73268
1.73289
1.73291
1.73269
1.73253
1.73255
1.73271
1.73292
1.73291
1.73272
1.73256
1.7325
1.73268
1.7329
1.73289
1.73265
1.73247
1.73249
1.73266
1.73288
1.73286
1.73262
1.73244
1.73239
1.7326
1.73286
1.73283
1.73254
1.7323
1.73226
1.73252
1.73281
1.73281
1.73252
1.73222
1.73221
1.73253
1.73281
1.73281
1.73256
1.73224
1.73228
1.73256
1.73281
1.73287
1.73262
1.73231
1.73237
1.73268
1.73291
1.73291
1.73266
1.73235
1.73236
1.73261
1.73289
1.73299
1.73277
1.73273
1.73308
1.73307
1.73312
1.73265
1.73161
1.7328
1.73217
1.73253
1.73276
1.73283
1.73254
1.73237
1.73237
1.73258
1.73289
1.73295
1.73263
1.7324
1.73247
1.73271
1.73302
1.73307
1.73275
1.7324
1.73235
1.7328
1.73311
1.73316
1.73277
1.73238
1.73249
1.73294
1.73322
1.7333
1.73304
1.73259
1.73267
1.73313
1.73337
1.73343
1.7332
1.73271
1.73271
1.73323
1.73347
1.73355
1.73333
1.73284
1.73295
1.73338
1.73361
1.73368
1.73343
1.73298
1.73308
1.73365
1.73381
1.73395
1.73404
1.73314
1.73094
1.73361
1.73276
1.73346
1.73297
1.73282
1.73301
1.7334
1.73371
1.73374
1.73342
1.73304
1.73312
1.73348
1.73379
1.73385
1.73351
1.73311
1.73325
1.73372
1.73399
1.73413
1.73382
1.73334
1.73327
1.73374
1.73415
1.73421
1.73375
1.73331
1.73366
1.73391
1.73427
1.73445
1.73427
1.73421
1.73419
1.73222
1.73421
1.73415
1.73386
1.7335
1.73391
1.73383
1.73426
1.73433
1.73396
1.73383
1.73368
1.73397
1.73434
1.73448
1.73413
1.73388
1.73397
1.73418
1.73453
1.73457
1.73422
1.73399
1.73416
1.73431
1.73468
1.73486
1.73446
1.73465
1.73473
1.7327
1.73439
1.7346
1.73418
1.73358
1.73383
1.73429
1.73474
1.73494
1.73462
1.73401
1.73393
1.73464
1.73499
1.73506
1.73457
1.73394
1.73424
1.73466
1.73514
1.73537
1.73505
1.73491
1.73489
1.73293
1.73534
1.73517
1.73466
1.73402
1.73429
1.73464
1.73532
1.73543
1.73495
1.73421
1.73426
1.73497
1.73546
1.73557
1.73515
1.73459
1.73508
1.73532
1.73567
1.73576
1.73327
1.73505
1.73463
1.7353
1.73566
1.73561
1.73512
1.73471
1.73476
1.73531
1.73576
1.73583
1.73541
1.73484
1.73511
1.73559
1.736
1.73613
1.73578
1.73554
1.73542
1.73383
1.73609
1.73612
1.73569
1.73455
1.73475
1.73597
1.73632
1.73647
1.73621
1.73451
1.73447
1.73673
1.73664
1.73558
1.73755
1.73049
1.73527
1.73564
1.73638
1.73666
1.73646
1.73524
1.73504
1.73655
1.73679
1.73696
1.73699
1.73505
1.73145
1.73812
1.73604
1.73674
1.73615
1.73597
1.73589
1.73683
1.73694
1.73727
1.73721
1.73621
1.73606
1.73737
1.73734
1.73667
1.73825
1.73342
1.7366
1.73687
1.73736
1.7377
1.7374
1.73678
1.73698
1.73762
1.73788
1.73819
1.73591
1.73706
1.73634
1.73831
1.73825
1.73851
1.73846
1.73658
1.73227
1.74062
1.73766
1.73856
1.73806
1.73835
1.73833
1.73894
1.73899
1.73936
1.73927
1.73873
1.73798
1.73937
1.73957
1.74017
1.73929
1.73885
1.73516
1.74284
1.73996
1.7405
1.74041
1.74071
1.7415
1.74146
1.74124
1.74175
1.74173
1.74164
1.74287
1.74264
1.74234
1.74282
1.74315
1.7433
1.74357
1.74335
1.74302
1.74299
1.74332
1.74354
1.74292
1.74285
1.74259
1.74188
1.74208
1.74202
1.74069
1.74086
1.74078
1.74031
1.74026
1.74017
1.73913
1.73937
1.73944
1.7391
1.73904
1.73891
1.73851
1.73873
1.73879
1.73844
1.73827
1.73801
1.7384
1.73843
1.73841
1.73813
1.738
1.73745
1.73855
1.73609
1.73823
1.73774
1.73854
1.73726
1.73709
1.73743
1.73764
1.73753
1.7375
1.73705
1.73721
1.73731
1.7375
1.73727
1.73729
1.73671
1.73684
1.7372
1.73729
1.73707
1.7374
1.73628
1.73792
1.73544
1.73723
1.73712
1.73705
1.7372
1.7366
1.73682
1.73703
1.73753
1.73459
1.73746
1.7367
1.73706
1.737
1.73722
1.73705
1.73604
1.73687
1.73402
1.73783
1.73688
1.73762
1.73543
1.73534
1.73619
1.73669
1.73716
1.73697
1.73633
1.73596
1.73688
1.73691
1.73665
1.73586
1.73586
1.73006
1.73906
1.73596
1.7372
1.73707
1.73503
1.73415
1.7369
1.73679
1.73741
1.73374
1.73579
1.73566
1.73697
1.73711
1.73684
1.73558
1.73573
1.73169
1.7376
1.73597
1.73705
1.73686
1.73515
1.73444
1.73693
1.73668
1.73705
1.73408
1.73634
1.73595
1.73669
1.73687
1.73672
1.73557
1.73593
1.73355
1.73692
1.73589
1.73681
1.73663
1.73575
1.73509
1.73672
1.7365
1.73658
1.73438
1.73694
1.73629
1.73636
1.73663
1.73664
1.7359
1.73643
1.7356
1.73629
1.73615
1.73661
1.73665
1.73622
1.73595
1.7366
1.73645
1.7362
1.73595
1.73607
1.73632
1.73653
1.73657
1.73649
1.73649
1.7362
1.73606
1.73612
1.73625
1.73659
1.73663
1.7364
1.73613
1.73655
1.73647
1.73619
1.73602
1.73598
1.73636
1.73655
1.73657
1.73647
1.73637
1.7361
1.73586
1.73596
1.73614
1.73659
1.73658
1.73639
1.73618
1.73638
1.73649
1.73617
1.73598
1.73588
1.73633
1.73653
1.73655
1.73644
1.73631
1.7361
1.73583
1.73595
1.73612
1.73651
1.73649
1.73629
1.73612
1.73629
1.73641
1.73612
1.73597
1.73587
1.7363
1.73648
1.73649
1.73637
1.73627
1.73608
1.73581
1.73591
1.73608
1.73646
1.73645
1.73627
1.73605
1.73624
1.73635
1.73606
1.7359
1.7358
1.73629
1.73647
1.73648
1.73637
1.73626
1.7361
1.73583
1.73591
1.73608
1.73643
1.73642
1.73624
1.73602
1.73619
1.7363
1.73602
1.73586
1.73575
1.73623
1.73641
1.73641
1.73628
1.73622
1.73596
1.73572
1.73582
1.73599
1.73646
1.73647
1.73631
1.736
1.73618
1.73631
1.73602
1.73584
1.73575
1.73613
1.7364
1.73637
1.73617
1.73628
1.73571
1.73562
1.73572
1.73588
1.73633
1.73624
1.73618
1.73585
1.73586
1.7363
1.73603
1.73459
1.73681
1.73643
1.73617
1.73627
1.7362
1.7361
1.73585
1.73761
1.73419
1.73634
1.7362
1.73604
1.73653
1.73545
1.73613
1.73611
1.73682
1.73294
1.73665
1.73529
1.73666
1.73622
1.73603
1.73542
1.7351
1.73567
1.7361
1.73633
1.73619
1.73588
1.73538
1.73533
1.73549
1.73597
1.73631
1.73629
1.73586
1.73544
1.73603
1.73605
1.73578
1.73555
1.7355
1.73587
1.7361
1.73616
1.73586
1.73527
1.73588
1.73081
1.73808
1.73512
1.73645
1.73614
1.73475
1.73404
1.73565
1.73598
1.73631
1.73615
1.73548
1.73527
1.73581
1.73603
1.73565
1.73532
1.73503
1.73551
1.73605
1.73609
1.73582
1.73585
1.73494
1.73495
1.73521
1.73556
1.73606
1.73596
1.73559
1.73562
1.73477
1.7357
1.73478
1.73796
1.72972
1.73433
1.73603
1.73634
1.73585
1.73547
1.73364
1.73519
1.73599
1.73614
1.73587
1.73566
1.73504
1.73488
1.7352
1.73553
1.73603
1.73597
1.73545
1.73517
1.73516
1.73555
1.73462
1.73802
1.7293
1.73442
1.73573
1.73629
1.73569
1.73533
1.73344
1.73495
1.73595
1.73595
1.73566
1.73568
1.73445
1.73648
1.73305
1.73572
1.73568
1.73571
1.73532
1.73499
1.73493
1.73536
1.73579
1.73572
1.7355
1.73513
1.73544
1.73565
1.7353
1.73501
1.73482
1.73533
1.73575
1.73572
1.73533
1.73529
1.73515
1.73074
1.73744
1.7346
1.73586
1.73546
1.73443
1.73364
1.73513
1.73539
1.73571
1.73552
1.73499
1.73447
1.73512
1.73545
1.73511
1.73368
1.73556
1.73524
1.73532
1.73542
1.7351
1.7348
1.73496
1.73525
1.73543
1.73547
1.73526
1.73504
1.73475
1.73457
1.73472
1.735
1.73542
1.73538
1.7351
1.73539
1.73413
1.73509
1.73405
1.73796
1.72877
1.73428
1.73475
1.73582
1.73514
1.73484
1.73319
1.73442
1.7355
1.73551
1.73496
1.73484
1.73458
1.7291
1.73749
1.73414
1.73572
1.73483
1.73404
1.73299
1.73478
1.73512
1.73538
1.73538
1.73436
1.73369
1.73503
1.73515
1.73552
1.73148
1.73564
1.73352
1.73592
1.73483
1.73476
1.73432
1.73363
1.73432
1.7352
1.73508
1.73461
1.73445
1.73424
1.72764
1.73772
1.73376
1.73598
1.73328
1.73521
1.73323
1.73476
1.73468
1.73506
1.73488
1.73439
1.73402
1.73437
1.73466
1.73496
1.73492
1.73455
1.7343
1.73464
1.73478
1.73435
1.73401
1.73404
1.7345
1.73479
1.73481
1.73444
1.73422
1.734
1.73438
1.73468
1.73469
1.73462
1.73443
1.7339
1.73511
1.73275
1.73441
1.7345
1.73463
1.73438
1.7342
1.73397
1.73425
1.73451
1.73451
1.73426
1.73427
1.73404
1.7342
1.73351
1.73571
1.73142
1.734
1.73423
1.7347
1.73426
1.73418
1.73319
1.73412
1.73478
1.73445
1.73434
1.73446
1.73351
1.73576
1.73088
1.7349
1.7336
1.73635
1.73241
1.7333
1.73373
1.73398
1.73415
1.73435
1.73369
1.7333
1.73376
1.73387
1.73417
1.73426
1.73373
1.73387
1.73372
1.73389
1.73316
1.73567
1.73067
1.73367
1.73368
1.73442
1.73386
1.73375
1.73264
1.73349
1.73404
1.73408
1.73375
1.73355
1.73322
1.73367
1.73401
1.73404
1.73389
1.73379
1.73352
1.73324
1.73313
1.73347
1.73386
1.73384
1.73357
1.73307
1.73327
1.7335
1.73368
1.73368
1.73336
1.73281
1.73359
1.73359
1.73419
1.73025
1.73513
1.73229
1.73487
1.73326
1.73337
1.73307
1.73266
1.73301
1.73362
1.73353
1.73324
1.7331
1.73265
1.7331
1.73368
1.73356
1.73316
1.73307
1.7332
1.72842
1.73591
1.73239
1.73413
1.73244
1.73336
1.73178
1.73318
1.73326
1.73362
1.73353
1.73293
1.73252
1.73292
1.73323
1.73338
1.73333
1.73293
1.73238
1.73303
1.73316
1.73347
1.72989
1.73475
1.73203
1.73407
1.73279
1.73277
1.73243
1.73225
1.73255
1.73301
1.73298
1.73269
1.73254
1.73218
1.73258
1.7331
1.73301
1.73257
1.73245
1.73268
1.72781
1.73551
1.73179
1.73362
1.73155
1.73305
1.73127
1.73262
1.73266
1.733
1.73288
1.73229
1.73188
1.73232
1.7326
1.73282
1.73299
1.73246
1.73198
1.7326
1.73274
1.73311
1.72904
1.73428
1.73109
1.73436
1.73202
1.73224
1.73194
1.73171
1.73195
1.73257
1.73244
1.73212
1.73199
1.73153
1.73194
1.73238
1.73239
1.7321
1.73187
1.73158
1.73191
1.73236
1.73237
1.73211
1.73189
1.73197
1.72942
1.73346
1.73136
1.73254
1.73159
1.73206
1.73089
1.73175
1.73188
1.7322
1.73213
1.73165
1.73126
1.73157
1.73183
1.73207
1.73197
1.73168
1.73125
1.73185
1.73199
1.73238
1.72849
1.73378
1.73068
1.73318
1.73146
1.73155
1.73123
1.73112
1.73126
1.73181
1.73174
1.73139
1.73123
1.73083
1.73119
1.73163
1.73164
1.73131
1.7311
1.7308
1.73119
1.73172
1.73164
1.73123
1.73108
1.73136
1.72693
1.73392
1.73033
1.7322
1.72988
1.73207
1.73005
1.73124
1.73113
1.73146
1.73135
1.73081
1.73042
1.73078
1.73105
1.73132
1.73131
1.73094
1.73053
1.73079
1.73099
1.73126
1.7312
1.73093
1.73036
1.73095
1.73108
1.73103
1.72869
1.7322
1.73044
1.73152
1.73079
1.73059
1.73026
1.73045
1.7305
1.73079
1.73083
1.73047
1.73028
1.73006
1.73038
1.73078
1.73079
1.73042
1.7302
1.72994
1.73032
1.73073
1.73072
1.73036
1.73011
1.73037
1.72682
1.73258
1.72945
1.73117
1.72901
1.73119
1.72924
1.73024
1.73014
1.73048
1.73038
1.72985
1.72946
1.7298
1.73008
1.73033
1.73028
1.7299
1.72952
1.72979
1.73
1.73026
1.73029
1.72979
1.72976
1.72972
1.72997
1.7292
1.73123
1.72765
1.73003
1.72944
1.73039
1.72968
1.72956
1.72883
1.72935
1.72991
1.72996
1.72953
1.72927
1.72891
1.7293
1.72976
1.72979
1.72943
1.72918
1.72887
1.72928
1.72975
1.72973
1.72925
1.72899
1.72948
1.72376
1.73285
1.72818
1.73055
1.72702
1.73071
1.72802
1.72949
1.72909
1.72952
1.72939
1.72888
1.72844
1.7288
1.72908
1.72932
1.72929
1.7289
1.72843
1.72872
1.72895
1.72918
1.7292
1.72886
1.72803
1.72887
1.72896
1.72967
1.72506
1.73104
1.72718
1.73153
1.72817
1.7287
1.72841
1.72832
1.72835
1.72901
1.72882
1.72847
1.72837
1.72785
1.72818
1.72876
1.72875
1.72835
1.72811
1.72773
1.72819
1.72865
1.72868
1.72829
1.728
1.72764
1.72814
1.72865
1.72859
1.72815
1.72787
1.7282
1.72334
1.73129
1.72704
1.72916
1.72623
1.7293
1.72678
1.72812
1.72786
1.72827
1.72818
1.72754
1.72703
1.72745
1.72777
1.72803
1.72801
1.72748
1.72703
1.72737
1.72762
1.7279
1.72789
1.72737
1.72686
1.72722
1.72749
1.72779
1.72779
1.72724
1.72732
1.72721
1.72748
1.72649
1.72932
1.72427
1.72765
1.72663
1.728
1.72713
1.72705
1.72599
1.72674
1.72744
1.72749
1.72701
1.72671
1.72629
1.7266
1.7272
1.72724
1.72683
1.72655
1.72617
1.72662
1.72711
1.72715
1.72675
1.72644
1.72613
1.72657
1.72688
1.72699
1.72671
1.72646
1.7258
1.72814
1.72365
1.72682
1.72603
1.72845
1.72517
1.72596
1.72585
1.72626
1.72645
1.72655
1.72596
1.72555
1.72596
1.7261
1.72638
1.72638
1.72582
1.72538
1.72573
1.72598
1.72632
1.72627
1.72581
1.72531
1.72563
1.72592
1.72621
1.72616
1.72578
1.72514
1.72579
1.72602
1.72604
1.72279
1.72716
1.72473
1.72704
1.7255
1.7254
1.72496
1.72502
1.72507
1.72562
1.72563
1.7252
1.72499
1.72465
1.72487
1.72549
1.7255
1.72505
1.72478
1.7244
1.72479
1.72533
1.72536
1.72491
1.72461
1.72423
1.72476
1.72526
1.72526
1.72485
1.72454
1.72461
1.72124
1.72692
1.72374
1.72562
1.72324
1.72566
1.7235
1.72457
1.72446
1.72482
1.72471
1.72405
1.72358
1.724
1.72433
1.72463
1.72457
1.72401
1.72337
1.72381
1.72413
1.72449
1.72446
1.72395
1.72339
1.72376
1.72406
1.72432
1.72427
1.72383
1.72305
1.72375
1.72404
1.72432
1.72018
1.72578
1.72246
1.72553
1.72339
1.72351
1.72313
1.72314
1.72314
1.7237
1.7237
1.72329
1.72309
1.72266
1.72295
1.72361
1.7236
1.72312
1.72282
1.72238
1.7228
1.72332
1.7234
1.72299
1.72268
1.72233
1.72273
1.72333
1.72333
1.72285
1.72251
1.72266
1.71793
1.726
1.72159
1.72403
1.72008
1.72482
1.72156
1.72283
1.72241
1.72284
1.72275
1.72218
1.72175
1.72206
1.72237
1.72261
1.72253
1.72192
1.72145
1.72182
1.72212
1.72244
1.72241
1.72176
1.72125
1.72166
1.72198
1.72221
1.72213
1.72159
1.72096
1.72138
1.72173
1.72206
1.72204
1.72143
1.72121
1.7214
1.72171
1.7206
1.72277
1.71882
1.7214
1.72084
1.72189
1.7212
1.721
1.72013
1.72064
1.7215
1.72154
1.72098
1.72062
1.72006
1.72049
1.72122
1.72127
1.72075
1.7204
1.71992
1.72042
1.72098
1.72106
1.7206
1.72025
1.71985
1.72023
1.72088
1.72089
1.72042
1.72006
1.7201
1.71574
1.72333
1.719
1.72129
1.71851
1.72135
1.71873
1.72011
1.71998
1.72035
1.72028
1.71946
1.71886
1.71942
1.71983
1.72005
1.71993
1.71919
1.71862
1.71913
1.71948
1.71984
1.7198
1.71912
1.7185
1.71898
1.71935
1.71966
1.71964
1.71895
1.71881
1.71879
1.71921
1.71791
1.72139
1.7153
1.71935
1.71803
1.7197
1.71869
1.71857
1.71734
1.71807
1.71908
1.7191
1.71855
1.71817
1.71757
1.71786
1.71871
1.71879
1.71822
1.71784
1.71731
1.71777
1.7185
1.71855
1.71801
1.71761
1.71707
1.71771
1.71837
1.71836
1.71783
1.71735
1.71755
1.71232
1.72147
1.71632
1.71896
1.71505
1.71946
1.71606
1.71757
1.71727
1.71773
1.71776
1.71679
1.7162
1.71678
1.71717
1.71746
1.71738
1.71666
1.7159
1.71641
1.71682
1.71706
1.717
1.71629
1.71561
1.71617
1.71654
1.71696
1.71697
1.71627
1.7161
1.71616
1.71653
1.71505
1.71863
1.71227
1.71666
1.71518
1.71701
1.71589
1.71574
1.71446
1.71524
1.71623
1.71627
1.7157
1.71528
1.71461
1.71504
1.7159
1.71598
1.71536
1.71492
1.71434
1.71488
1.71561
1.71568
1.71514
1.71474
1.71423
1.71467
1.71539
1.71541
1.71485
1.71432
1.71443
1.70958
1.71817
1.71328
1.71586
1.71248
1.7161
1.71285
1.71437
1.71424
1.71468
1.71473
1.7137
1.71298
1.71365
1.71409
1.71429
1.71415
1.71344
1.71271
1.71324
1.71367
1.71383
1.7137
1.71294
1.71231
1.71288
1.71326
1.71367
1.71365
1.71284
1.71271
1.71291
1.71329
1.71178
1.71466
1.7093
1.71299
1.7123
1.71355
1.71262
1.71235
1.71117
1.71197
1.71302
1.71301
1.71231
1.71185
1.71106
1.71172
1.71262
1.71268
1.71203
1.71158
1.71098
1.71149
1.7122
1.71231
1.71171
1.71131
1.7108
1.71132
1.71197
1.71203
1.71169
1.7113
1.71051
1.71256
1.70773
1.7116
1.71098
1.71249
1.70982
1.71008
1.71018
1.71074
1.71102
1.71094
1.71028
1.70946
1.70998
1.71034
1.71068
1.71063
1.70993
1.70909
1.70966
1.71003
1.71025
1.71022
1.70953
1.70871
1.70907
1.70965
1.70811
1.71179
1.70551
1.70955
1.70848
1.70999
1.70897
1.70875
1.70738
1.70828
1.70935
1.70938
1.70879
1.70836
1.7076
1.70803
1.70904
1.7091
1.7084
1.70796
1.70727
1.70786
1.70863
1.70873
1.70808
1.70763
1.70705
1.70769
1.70839
1.70842
1.70802
1.70759
1.70685
1.70697
1.70569
1.70726
1.70756
1.70819
1.70657
1.70628
1.7065
1.70713
1.7073
1.7072
1.70641
1.70561
1.70616
1.70656
1.70687
1.7068
1.70601
1.70519
1.70579
1.70619
1.70649
1.70648
1.70574
1.70504
1.70554
1.70602
1.7044
1.70621
1.70239
1.70527
1.70461
1.7058
1.70465
1.70439
1.70308
1.70389
1.70489
1.70502
1.70439
1.70396
1.70322
1.70382
1.70474
1.70484
1.7042
1.70373
1.70308
1.70373
1.70456
1.70462
1.70417
1.70368
1.7031
1.70063
1.70421
1.70265
1.70414
1.70306
1.70351
1.7018
1.7029
1.70321
1.70351
1.70338
1.70241
1.7015
1.70229
1.70277
1.70305
1.70295
1.70202
1.70117
1.70186
1.70232
1.70264
1.7026
1.70178
1.70083
1.7017
1.70219
1.70127
1.69944
1.70086
1.70043
1.70216
1.70158
1.70104
1.7003
1.70006
1.70014
1.70117
1.70121
1.70027
1.69981
1.69914
1.69969
1.70054
1.70059
1.69977
1.69936
1.69865
1.69841
1.69944
1.69971
1.69919
1.69863
1.6977
1.69716
1.6979
1.69827
1.69923
1.69902
1.69816
1.69728
1.69799
1.69851
1.69891
1.6988
1.69786
1.69676
1.69757
1.69808
1.69851
1.69845
1.69754
1.69651
1.69751
1.69801
1.69745
1.69454
1.69734
1.6961
1.69836
1.69746
1.69688
1.69607
1.69587
1.69605
1.69695
1.6971
1.69621
1.69569
1.69512
1.69554
1.69646
1.69658
1.69576
1.69532
1.69463
1.69498
1.69595
1.69603
1.69548
1.69498
1.69426
1.69201
1.695
1.6938
1.69509
1.69391
1.69432
1.69256
1.69369
1.69397
1.69415
1.69391
1.69304
1.69148
1.69263
1.69303
1.69319
1.6929
1.6917
1.69075
1.69181
1.69257
1.69209
1.68949
1.69146
1.69101
1.693
1.69246
1.69184
1.69102
1.69053
1.69111
1.69207
1.69225
1.69135
1.69079
1.69007
1.69058
1.69162
1.69174
1.69112
1.69043
1.68988
1.68521
1.69317
1.68889
1.6912
1.6894
1.69071
1.68783
1.6894
1.68976
1.69015
1.69001
1.68872
1.68743
1.68863
1.68916
1.68947
1.68934
1.68812
1.68696
1.68791
1.68845
1.68867
1.6886
1.68752
1.68653
1.68746
1.68805
1.68634
1.6858
1.68524
1.68605
1.68707
1.68721
1.68614
1.6856
1.68472
1.68497
1.68604
1.68615
1.68465
1.68375
1.68238
1.68375
1.68495
1.68519
1.68481
1.68422
1.68311
1.68195
1.6835
1.68354
1.68463
1.68441
1.68335
1.68224
1.68312
1.68377
1.68422
1.68414
1.68294
1.68215
1.68304
1.68366
1.68147
1.68349
1.67877
1.68214
1.68209
1.68317
1.68191
1.68141
1.68002
1.68094
1.68224
1.68236
1.68134
1.68072
1.67967
1.68026
1.68153
1.68159
1.68086
1.68021
1.6792
1.67676
1.67988
1.6788
1.68019
1.67891
1.67918
1.67684
1.67836
1.67869
1.67907
1.67881
1.67766
1.67597
1.67728
1.67777
1.67774
1.67756
1.67634
1.67464
1.676
1.67672
1.67414
1.67289
1.6716
1.67376
1.67502
1.67541
1.6746
1.67395
1.67286
1.67413
1.67547
1.6756
1.67505
1.67431
1.67317
1.67037
1.67421
1.67292
1.67452
1.67338
1.67325
1.67124
1.67272
1.67322
1.67371
1.67348
1.6721
1.67069
1.67194
1.67257
1.67286
1.67277
1.67136
1.6702
1.67143
1.67211
1.67012
1.66895
1.66866
1.66967
1.67101
1.67118
1.67001
1.66933
1.66824
1.66854
1.67002
1.67016
1.6692
1.66842
1.66708
1.66504
1.66591
1.66673
1.66786
1.66767
1.66629
1.66465
1.66588
1.66656
1.66583
1.66556
1.66406
1.66044
1.66283
1.66421
1.66241
1.66138
1.65992
1.6622
1.66384
1.66414
1.66332
1.66251
1.66128
1.66237
1.66392
1.66411
1.66328
1.66249
1.66059
1.6615
1.65825
1.66211
1.66235
1.6632
1.66016
1.65936
1.66003
1.6613
1.66165
1.66146
1.65967
1.65834
1.65942
1.66022
1.66055
1.66044
1.65893
1.65722
1.65867
1.65953
1.65717
1.65635
1.65537
1.65665
1.65798
1.65816
1.6574
1.65665
1.65481
1.65611
1.65036
1.65595
1.65517
1.65629
1.65286
1.65207
1.65254
1.6539
1.65299
1.65282
1.65114
1.64657
1.6492
1.65093
1.64853
1.64721
1.64561
1.64842
1.65026
1.65066
1.64981
1.64885
1.64752
1.64858
1.65041
1.6507
1.64989
1.64893
1.64693
1.6465
1.64505
1.64804
1.64875
1.64911
1.64639
1.64508
1.6464
1.64757
1.64782
1.64775
1.64592
1.64409
1.64566
1.64677
1.64358
1.6429
1.64151
1.64319
1.64479
1.64513
1.64353
1.64252
1.64105
1.64162
1.64345
1.6436
1.64218
1.64128
1.63964
1.63649
1.6378
1.63872
1.63931
1.63891
1.63739
1.63514
1.6376
1.63805
1.63416
1.62638
1.63098
1.63062
1.63317
1.63428
1.63335
1.6321
1.62981
1.63228
1.6347
1.63508
1.63446
1.63333
1.63101
1.6291
1.63078
1.63189
1.63343
1.63306
1.63103
1.62952
1.63123
1.63268
1.62907
1.63018
1.62545
1.6287
1.62977
1.6311
1.62908
1.62819
1.62592
1.6269
1.62913
1.62937
1.62779
1.62659
1.62429
1.62142
1.62296
1.62417
1.62513
1.62483
1.62277
1.62051
1.62274
1.6238
1.61988
1.61776
1.61763
1.6161
1.61875
1.61906
1.61609
1.61335
1.60885
1.60799
1.6106
1.61277
1.61593
1.61531
1.61252
1.61131
1.61345
1.61484
1.61627
1.61579
1.61317
1.61136
1.61431
1.61551
1.6122
1.61035
1.60867
1.61061
1.61306
1.61359
1.6127
1.61132
1.60871
1.60522
1.60706
1.60869
1.60989
1.60933
1.60695
1.60465
1.60714
1.60865
1.60424
1.60236
1.60122
1.60161
1.60447
1.60481
1.60267
1.60125
1.5987
1.59254
1.59551
1.59705
1.59479
1.59237
1.58805
1.58547
1.5898
1.59302
1.59129
1.58775
1.58639
1.59041
1.59409
1.59425
1.59411
1.59235
1.58912
1.58549
1.59081
1.59065
1.59296
1.59215
1.5895
1.58687
1.59005
1.59179
1.58751
1.58459
1.58409
1.5847
1.58838
1.58844
1.58707
1.585
1.58248
1.57711
1.58068
1.58135
1.58265
1.58127
1.57951
1.57536
1.579
1.58024
1.57351
1.56971
1.56874
1.56
1.56554
1.56922
1.56713
1.56335
1.55817
1.56061
1.56228
1.56604
1.57028
1.5698
1.56565
1.56485
1.56904
1.57051
1.56868
1.56677
1.56201
1.56187
1.55978
1.56555
1.5661
1.56616
1.5615
1.5592
1.56216
1.56481
1.55802
1.55794
1.55265
1.55583
1.55815
1.55975
1.55677
1.55525
1.55063
1.54367
1.54505
1.54931
1.54403
1.53967
1.53327
1.5303
1.53772
1.54149
1.54037