/*--------------------------------*- C++ -*----------------------------------*\
| =========                 |                                                 |
| \\      /  F ield         | OpenFOAM: The Open Source CFD Toolbox           |
|  \\    /   O peration     | Version:  v2006                                 |
|   \\  /    A nd           | Website:  www.openfoam.com                      |
|    \\/     M anipulation  |                                                 |
\*---------------------------------------------------------------------------*/
FoamFile
{
    version     2.0;
    format      ascii;
    class       volScalarField;
    location    "0.09";
    object      T;
}
// * * * * * * * * * * * * * * * * * * * * * * * * * * * * * * * * * * * * * //

dimensions      [0 0 0 1 0 0 0];


internalField   nonuniform List<scalar> 
23013
(
299.273
299.273
299.273
299.273
299.273
299.273
299.273
299.273
299.274
299.275
299.276
299.278
299.28
299.282
299.284
299.286
299.288
299.29
299.292
299.295
299.297
299.299
299.302
299.305
299.307
299.31
299.313
299.316
299.319
299.322
299.325
299.329
299.332
299.335
299.339
299.343
299.346
299.35
299.354
299.358
299.361
299.365
299.369
299.374
299.378
299.382
299.386
299.39
299.395
299.399
299.403
299.408
299.412
299.417
299.421
299.426
299.43
299.435
299.439
299.444
299.448
299.453
299.458
299.462
299.467
299.471
299.476
299.48
299.485
299.489
299.494
299.498
299.502
299.507
299.511
299.515
299.519
299.524
299.528
299.532
299.536
299.54
299.543
299.547
299.551
299.555
299.558
299.562
299.565
299.568
299.572
299.575
299.578
299.581
299.584
299.587
299.589
299.592
299.594
299.597
299.599
299.601
299.604
299.606
299.608
299.609
299.611
299.613
299.614
299.615
299.615
299.615
299.615
299.615
299.615
299.615
299.615
299.616
299.617
299.619
299.622
299.626
299.641
299.644
299.626
299.62
299.621
299.628
299.652
299.656
299.629
299.621
299.622
299.633
299.66
299.665
299.635
299.624
299.624
299.636
299.67
299.67
299.637
299.626
299.626
299.639
299.672
299.67
299.641
299.628
299.629
299.643
299.671
299.669
299.644
299.632
299.632
299.645
299.67
299.668
299.647
299.634
299.635
299.647
299.67
299.668
299.649
299.637
299.637
299.649
299.67
299.668
299.65
299.639
299.639
299.651
299.669
299.667
299.652
299.641
299.641
299.652
299.669
299.667
299.653
299.643
299.643
299.654
299.669
299.668
299.655
299.645
299.645
299.655
299.669
299.668
299.656
299.647
299.647
299.656
299.67
299.668
299.658
299.649
299.649
299.658
299.67
299.669
299.659
299.651
299.651
299.659
299.67
299.67
299.66
299.653
299.653
299.661
299.67
299.671
299.662
299.655
299.656
299.663
299.671
299.673
299.664
299.656
299.659
299.665
299.671
299.675
299.666
299.659
299.662
299.667
299.672
299.675
299.668
299.662
299.663
299.668
299.674
299.675
299.67
299.664
299.665
299.671
299.678
299.678
299.673
299.668
299.667
299.673
299.681
299.679
299.675
299.67
299.669
299.675
299.682
299.681
299.678
299.673
299.672
299.678
299.684
299.684
299.68
299.676
299.675
299.681
299.687
299.686
299.683
299.679
299.678
299.684
299.69
299.69
299.686
299.682
299.682
299.687
299.691
299.692
299.689
299.685
299.686
299.689
299.693
299.694
299.692
299.688
299.689
299.692
299.696
299.698
299.695
299.691
299.695
299.696
299.697
299.701
299.698
299.695
299.698
299.699
299.701
299.705
299.702
299.7
299.701
299.703
299.705
299.707
299.705
299.702
299.705
299.706
299.706
299.71
299.709
299.707
299.707
299.71
299.711
299.713
299.712
299.71
299.712
299.713
299.713
299.716
299.716
299.714
299.715
299.717
299.717
299.719
299.719
299.718
299.719
299.72
299.72
299.723
299.723
299.722
299.723
299.723
299.723
299.725
299.726
299.725
299.725
299.726
299.727
299.728
299.729
299.728
299.729
299.729
299.728
299.729
299.731
299.732
299.731
299.732
299.731
299.731
299.734
299.734
299.733
299.734
299.735
299.734
299.736
299.737
299.734
299.736
299.737
299.735
299.737
299.737
299.736
299.736
299.737
299.735
299.737
299.739
299.737
299.737
299.737
299.735
299.737
299.738
299.737
299.737
299.736
299.735
299.736
299.738
299.735
299.735
299.736
299.734
299.735
299.736
299.734
299.733
299.732
299.732
299.731
299.73
299.73
299.728
299.727
299.729
299.727
299.727
299.725
299.724
299.726
299.725
299.722
299.722
299.717
299.717
299.719
299.714
299.714
299.715
299.708
299.709
299.711
299.708
299.706
299.707
299.7
299.701
299.706
299.701
299.698
299.697
299.689
299.691
299.696
299.691
299.687
299.685
299.676
299.679
299.684
299.68
299.675
299.674
299.665
299.668
299.673
299.67
299.665
299.661
299.653
299.656
299.662
299.659
299.652
299.647
299.638
299.642
299.651
299.648
299.638
299.634
299.625
299.63
299.64
299.637
299.627
299.621
299.613
299.619
299.629
299.626
299.615
299.607
299.598
299.605
299.618
299.615
299.602
299.595
299.587
299.594
299.608
299.605
299.591
299.583
299.574
299.584
299.598
299.595
299.579
299.57
299.561
299.571
299.587
299.584
299.568
299.558
299.551
299.561
299.578
299.576
299.558
299.548
299.541
299.552
299.569
299.567
299.549
299.537
299.531
299.543
299.561
299.559
299.54
299.527
299.522
299.535
299.554
299.552
299.533
299.52
299.514
299.528
299.547
299.545
299.526
299.512
299.507
299.521
299.542
299.538
299.519
299.505
299.501
299.516
299.536
299.534
299.514
299.5
299.498
299.511
299.529
299.53
299.509
299.493
299.494
299.507
299.525
299.526
299.506
299.492
299.491
299.505
299.523
299.523
299.504
299.489
299.489
299.502
299.519
299.519
299.502
299.488
299.488
299.501
299.516
299.518
299.501
299.487
299.485
299.5
299.517
299.515
299.5
299.486
299.484
299.498
299.516
299.514
299.499
299.485
299.486
299.497
299.51
299.512
299.498
299.485
299.485
299.497
299.509
299.51
299.497
299.485
299.485
299.496
299.508
299.509
299.497
299.485
299.485
299.495
299.507
299.508
299.496
299.484
299.485
299.495
299.505
299.508
299.495
299.484
299.484
299.494
299.505
299.505
299.495
299.485
299.484
299.493
299.504
299.505
299.494
299.482
299.484
299.493
299.501
299.5
299.494
299.486
299.483
299.493
299.503
299.503
299.494
299.484
299.486
299.492
299.5
299.504
299.493
299.482
299.484
299.492
299.499
299.5
299.492
299.485
299.483
299.492
299.5
299.5
299.492
299.484
299.484
299.491
299.5
299.499
299.492
299.484
299.484
299.491
299.497
299.499
299.491
299.482
299.483
299.49
299.496
299.495
299.491
299.486
299.482
299.49
299.498
299.497
299.49
299.483
299.483
299.489
299.496
299.497
299.49
299.482
299.482
299.489
299.495
299.495
299.49
299.485
299.483
299.489
299.495
299.494
299.49
299.485
299.483
299.489
299.495
299.495
299.49
299.483
299.483
299.489
299.494
299.491
299.49
299.486
299.483
299.488
299.493
299.494
299.489
299.484
299.484
299.488
299.492
299.495
299.489
299.482
299.483
299.488
299.492
299.492
299.489
299.484
299.481
299.487
299.494
299.49
299.488
299.486
299.483
299.487
299.491
299.493
299.487
299.482
299.478
299.486
299.493
299.487
299.486
299.487
299.483
299.484
299.494
299.488
299.484
299.485
299.484
299.484
299.49
299.489
299.487
299.485
299.475
299.466
299.46
299.458
299.458
299.458
299.458
299.459
299.46
299.462
299.464
299.467
299.469
299.472
299.477
299.482
299.484
299.493
299.51
299.516
299.515
299.514
299.517
299.513
299.516
299.515
299.511
299.519
299.521
299.511
299.515
299.516
299.516
299.517
299.517
299.516
299.515
299.515
299.518
299.517
299.519
299.517
299.515
299.515
299.518
299.519
299.52
299.518
299.515
299.516
299.519
299.521
299.519
299.517
299.515
299.516
299.518
299.519
299.521
299.519
299.516
299.516
299.519
299.52
299.52
299.518
299.516
299.517
299.519
299.52
299.519
299.518
299.516
299.517
299.52
299.52
299.522
299.52
299.516
299.517
299.519
299.52
299.519
299.519
299.516
299.517
299.521
299.522
299.523
299.52
299.517
299.517
299.519
299.52
299.52
299.52
299.517
299.518
299.521
299.523
299.522
299.52
299.517
299.518
299.52
299.521
299.522
299.521
299.517
299.518
299.521
299.523
299.522
299.52
299.518
299.518
299.521
299.522
299.523
299.521
299.518
299.518
299.521
299.523
299.523
299.521
299.518
299.519
299.522
299.524
299.522
299.521
299.518
299.519
299.522
299.522
299.525
299.522
299.519
299.519
299.522
299.524
299.523
299.522
299.519
299.52
299.523
299.524
299.525
299.522
299.519
299.52
299.522
299.523
299.525
299.524
299.519
299.52
299.524
299.527
299.523
299.521
299.519
299.52
299.523
299.523
299.528
299.525
299.52
299.52
299.524
299.527
299.524
299.522
299.52
299.521
299.524
299.525
299.527
299.525
299.52
299.521
299.525
299.527
299.527
299.524
299.52
299.521
299.524
299.526
299.526
299.524
299.52
299.521
299.525
299.527
299.529
299.526
299.521
299.522
299.525
299.528
299.526
299.524
299.521
299.522
299.526
299.527
299.53
299.527
299.522
299.523
299.526
299.529
299.527
299.525
299.522
299.523
299.527
299.53
299.53
299.527
299.523
299.524
299.528
299.53
299.531
299.528
299.523
299.524
299.528
299.53
299.529
299.528
299.524
299.525
299.529
299.533
299.533
299.529
299.524
299.525
299.529
299.532
299.531
299.529
299.525
299.526
299.53
299.532
299.535
299.532
299.525
299.526
299.531
299.535
299.533
299.53
299.526
299.527
299.532
299.535
299.536
299.532
299.527
299.528
299.533
299.536
299.537
299.533
299.528
299.529
299.534
299.537
299.535
299.533
299.528
299.53
299.536
299.538
299.541
299.536
299.53
299.531
299.535
299.539
299.538
299.536
299.53
299.531
299.538
299.542
299.543
299.538
299.531
299.532
299.538
299.542
299.542
299.538
299.532
299.533
299.54
299.544
299.546
299.541
299.533
299.534
299.541
299.546
299.547
299.542
299.533
299.534
299.542
299.547
299.547
299.542
299.534
299.535
299.544
299.548
299.553
299.545
299.535
299.536
299.544
299.55
299.549
299.544
299.536
299.538
299.547
299.553
299.554
299.548
299.537
299.539
299.548
299.553
299.554
299.549
299.54
299.541
299.552
299.557
299.558
299.553
299.541
299.542
299.554
299.559
299.561
299.555
299.543
299.544
299.558
299.564
299.565
299.559
299.544
299.546
299.561
299.566
299.572
299.563
299.546
299.547
299.563
299.574
299.573
299.564
299.546
299.547
299.568
299.579
299.583
299.568
299.546
299.546
299.568
299.583
299.583
299.568
299.545
299.545
299.57
299.589
299.591
299.57
299.544
299.543
299.569
299.589
299.592
299.57
299.543
299.543
299.572
299.595
299.594
299.571
299.543
299.543
299.572
299.592
299.595
299.574
299.542
299.543
299.577
299.599
299.601
299.575
299.542
299.542
299.579
299.602
299.614
299.581
299.541
299.541
299.582
299.613
299.615
299.576
299.538
299.535
299.578
299.613
299.622
299.575
299.532
299.53
299.568
299.62
299.605
299.57
299.527
299.528
299.567
299.606
299.602
299.568
299.526
299.521
299.562
299.597
299.595
299.547
299.513
299.509
299.536
299.605
299.626
299.534
299.509
299.508
299.543
299.629
299.573
299.599
299.5
299.606
299.452
299.72
299.588
299.57
299.557
299.516
299.568
299.619
299.621
299.575
299.531
299.525
299.575
299.628
299.63
299.577
299.526
299.527
299.579
299.627
299.623
299.585
299.53
299.533
299.581
299.633
299.633
299.58
299.534
299.531
299.58
299.632
299.63
299.577
299.527
299.528
299.568
299.638
299.643
299.569
299.533
299.539
299.567
299.644
299.639
299.569
299.54
299.534
299.568
299.635
299.638
299.552
299.531
299.551
299.48
299.708
299.645
299.734
299.493
299.542
299.622
299.661
299.662
299.593
299.548
299.547
299.598
299.675
299.674
299.6
299.551
299.552
299.605
299.664
299.669
299.594
299.554
299.541
299.593
299.652
299.677
299.571
299.538
299.537
299.571
299.701
299.703
299.569
299.542
299.544
299.628
299.612
299.861
299.419
299.675
299.54
299.612
299.713
299.664
299.601
299.57
299.568
299.634
299.686
299.675
299.627
299.565
299.557
299.614
299.674
299.665
299.617
299.552
299.559
299.615
299.67
299.66
299.62
299.564
299.555
299.705
299.565
299.724
299.568
299.679
299.574
299.643
299.77
299.744
299.65
299.576
299.573
299.639
299.758
299.76
299.624
299.561
299.555
299.616
299.775
299.773
299.634
299.557
299.574
299.672
299.699
300.061
299.494
299.716
299.554
299.669
299.835
299.764
299.651
299.591
299.565
299.639
299.772
299.792
299.616
299.564
299.567
299.643
299.79
299.728
299.692
299.586
299.727
299.502
300.035
299.828
299.681
299.567
299.613
299.674
299.765
299.79
299.655
299.595
299.594
299.645
299.786
299.789
299.661
299.597
299.602
299.726
299.718
299.974
299.566
299.736
299.591
299.65
299.901
299.848
299.645
299.598
299.592
299.623
299.864
299.971
299.522
299.607
299.458
299.983
300.011
299.831
299.743
299.587
299.62
299.649
299.833
299.859
299.628
299.607
299.618
299.563
299.917
299.931
299.972
299.496
299.624
299.759
299.777
299.798
299.669
299.648
299.635
299.653
299.812
299.925
299.565
299.655
299.55
299.915
299.903
299.776
299.795
299.642
299.653
299.704
299.834
299.786
299.757
299.666
299.774
299.57
300.038
299.983
299.612
299.651
299.677
299.602
300.015
299.994
300.055
299.509
299.687
299.823
299.742
299.818
299.727
299.726
299.728
299.73
299.818
299.897
299.785
299.737
299.821
299.535
300.06
299.949
300.086
299.586
299.816
299.836
299.812
299.83
299.827
299.847
299.866
299.871
299.868
299.88
299.885
299.892
299.92
299.916
299.917
299.929
299.931
299.933
299.919
299.915
299.912
299.898
299.894
299.897
299.856
299.853
299.862
299.811
299.819
299.822
299.786
299.789
299.796
299.775
299.773
299.773
299.76
299.76
299.773
299.753
299.736
299.732
299.729
299.736
299.752
299.706
299.71
299.71
299.697
299.711
299.754
299.934
299.44
299.817
299.684
299.819
299.591
299.761
299.672
299.719
299.681
299.679
299.739
299.742
299.694
299.671
299.656
299.744
299.729
299.74
299.663
299.682
299.684
299.622
299.809
299.821
299.538
299.777
299.665
299.746
299.605
299.784
299.683
299.649
299.82
299.345
300.07
299.642
299.75
299.629
299.617
299.63
299.931
300.355
299.261
299.856
299.583
299.808
299.743
299.963
299.706
299.677
299.627
299.667
299.789
299.818
299.638
299.639
299.601
299.801
299.718
299.906
300.091
299.439
299.622
299.52
299.993
300.003
299.563
299.607
299.808
299.413
300.247
299.746
299.774
299.644
299.635
299.729
299.904
300.046
300.01
299.494
299.633
299.575
299.982
300.033
299.547
299.622
299.783
299.474
300.093
299.732
299.765
299.634
299.65
299.691
299.866
299.829
299.869
299.564
299.655
299.601
299.825
299.874
299.562
299.653
299.766
299.523
299.827
299.653
299.752
299.644
299.653
299.709
299.752
299.767
299.728
299.627
299.631
299.635
299.73
299.69
299.664
299.63
299.654
299.686
299.712
299.702
299.663
299.629
299.632
299.674
299.704
299.723
299.695
299.66
299.635
299.652
299.701
299.706
299.66
299.633
299.657
299.683
299.709
299.689
299.649
299.634
299.634
299.652
299.712
299.709
299.68
299.653
299.635
299.649
299.686
299.693
299.661
299.633
299.653
299.68
299.697
299.682
299.648
299.634
299.631
299.653
299.692
299.694
299.672
299.646
299.632
299.645
299.679
299.692
299.652
299.631
299.644
299.668
299.692
299.674
299.642
299.631
299.628
299.648
299.684
299.684
299.664
299.64
299.627
299.639
299.669
299.68
299.644
299.625
299.639
299.663
299.682
299.669
299.638
299.625
299.622
299.643
299.681
299.679
299.658
299.633
299.622
299.633
299.662
299.674
299.64
299.62
299.633
299.655
299.675
299.661
299.632
299.62
299.618
299.64
299.67
299.679
299.659
299.634
299.617
299.628
299.66
299.671
299.637
299.613
299.626
299.647
299.669
299.651
299.622
299.613
299.609
299.622
299.662
299.668
299.646
299.625
299.607
299.616
299.657
299.741
299.566
299.617
299.684
299.546
299.67
299.576
299.686
299.597
299.614
299.577
299.741
299.719
299.437
299.724
299.597
299.713
299.512
299.761
299.564
299.593
299.785
299.18
300.123
299.549
299.757
299.574
299.635
299.636
299.805
299.724
299.588
299.577
299.565
299.632
299.722
299.769
299.673
299.586
299.574
299.603
299.679
299.648
299.654
299.569
299.595
299.646
299.691
299.627
299.609
299.579
299.558
299.738
299.531
299.713
300.005
299.374
299.617
299.384
299.852
299.776
299.615
299.568
299.541
299.596
299.676
299.715
299.594
299.554
299.61
299.657
299.727
299.678
299.596
299.573
299.562
299.593
299.704
299.695
299.64
299.582
299.567
299.586
299.627
299.504
299.737
299.547
299.336
300.035
299.731
299.883
299.363
299.613
299.564
299.599
299.796
299.682
299.572
299.524
299.54
299.583
299.705
299.723
299.654
299.571
299.549
299.585
299.653
299.54
299.736
299.526
299.311
300.059
299.759
299.953
299.286
299.578
299.52
299.598
299.798
299.687
299.523
299.507
299.536
299.49
299.815
299.859
299.36
299.69
299.534
299.689
299.5
299.668
299.627
299.586
299.529
299.555
299.626
299.643
299.552
299.52
299.537
299.594
299.647
299.588
299.554
299.524
299.514
299.686
299.496
299.612
299.974
299.339
299.576
299.347
299.809
299.704
299.563
299.528
299.494
299.528
299.615
299.692
299.507
299.514
299.627
299.469
299.637
299.501
299.621
299.505
299.543
299.592
299.592
299.579
299.521
299.515
299.506
299.535
299.592
299.58
299.553
299.517
299.511
299.527
299.541
299.428
299.69
299.489
299.255
300.052
299.618
299.942
299.181
299.558
299.473
299.577
299.694
299.604
299.495
299.472
299.465
299.663
299.496
299.634
300.017
299.27
299.525
299.229
299.909
299.733
299.565
299.464
299.462
299.443
299.626
299.764
299.418
299.47
299.662
299.056
300.056
299.403
299.709
299.452
299.539
299.502
299.713
299.588
299.485
299.48
299.425
299.651
299.48
299.642
300.047
299.215
299.535
298.927
300.025
299.473
299.605
299.431
299.446
299.463
299.558
299.592
299.514
299.471
299.464
299.469
299.569
299.557
299.495
299.456
299.461
299.513
299.567
299.532
299.444
299.44
299.448
299.481
299.538
299.499
299.457
299.43
299.439
299.445
299.576
299.571
299.316
299.546
299.423
299.559
299.374
299.482
299.49
299.467
299.443
299.44
299.505
299.5
299.467
299.452
299.292
299.786
299.376
299.639
299.279
299.472
299.44
299.449
299.536
299.479
299.422
299.424
299.425
299.365
299.626
299.963
298.908
299.614
299.359
299.828
299.147
299.664
299.319
299.488
299.42
299.384
299.503
299.513
299.411
299.409
299.394
299.373
299.475
299.468
299.402
299.408
299.226
299.786
299.336
299.686
299.185
299.436
299.385
299.438
299.486
299.466
299.39
299.38
299.391
299.435
299.48
299.47
299.416
299.387
299.39
299.42
299.479
299.483
299.418
299.421
299.377
299.41
299.436
299.458
299.421
299.384
299.378
299.379
299.427
299.551
299.315
299.383
299.553
298.868
299.867
299.192
299.658
299.318
299.42
299.346
299.535
299.458
299.357
299.378
299.377
299.384
299.484
299.451
299.341
299.358
299.346
299.476
299.355
299.292
299.9
299.141
299.415
298.959
299.823
299.441
299.454
299.317
299.326
299.35
299.436
299.446
299.393
299.341
299.336
299.363
299.409
299.494
299.332
299.343
299.511
298.923
299.731
299.173
299.6
299.292
299.38
299.313
299.451
299.393
299.321
299.335
299.33
299.339
299.422
299.405
299.29
299.315
299.306
299.426
299.326
299.21
299.9
299.088
299.393
298.858
299.821
299.367
299.41
299.278
299.291
299.316
299.393
299.42
299.365
299.314
299.313
299.325
299.384
299.462
299.294
299.308
299.494
298.79
299.799
299.038
299.681
299.22
299.342
299.227
299.462
299.367
299.271
299.299
299.294
299.289
299.379
299.342
299.27
299.268
299.27
299.3
299.358
299.362
299.251
299.264
299.278
299.303
299.349
299.17
299.628
299.144
299.323
299.069
299.558
299.336
299.326
299.266
299.256
299.271
299.341
299.345
299.307
299.263
299.255
299.289
299.315
299.378
299.272
299.255
299.439
298.775
299.693
299.026
299.584
299.184
299.299
299.214
299.377
299.319
299.24
299.257
299.253
299.254
299.331
299.305
299.232
299.229
299.235
299.257
299.325
299.331
299.185
299.225
299.241
299.244
299.318
299.049
299.792
299.005
299.322
298.74
299.722
299.213
299.32
299.191
299.195
299.213
299.296
299.302
299.259
299.204
299.198
299.221
299.282
299.295
299.249
299.212
299.194
299.23
299.259
299.339
299.211
299.198
299.319
298.974
299.385
299.073
299.388
299.16
299.222
299.2
299.24
299.235
299.197
299.191
299.194
299.21
299.258
299.255
299.183
299.176
299.185
299.207
299.268
299.274
299.147
299.175
299.193
299.184
299.271
298.973
299.693
298.98
299.267
298.728
299.607
299.154
299.251
299.144
299.144
299.162
299.234
299.239
299.202
299.148
299.14
299.164
299.222
299.239
299.187
299.157
299.144
299.14
299.24
299.244
299.178
299.16
299.023
299.506
299.012
299.406
298.941
299.191
299.126
299.175
299.19
299.204
299.123
299.114
299.118
299.158
299.203
299.204
299.123
299.109
299.121
299.144
299.211
299.222
299.078
299.119
299.125
299.173
299.181
298.855
299.855
298.842
299.27
298.394
299.759
299.035
299.23
299.06
299.066
299.088
299.171
299.172
299.145
299.069
299.067
299.096
299.159
299.169
299.12
299.084
299.071
299.097
299.133
299.266
299.039
299.087
299.279
298.389
299.722
298.643
299.612
298.934
299.114
298.966
299.25
299.159
299.039
299.072
299.064
299.053
299.164
299.133
299.042
299.043
299.046
299.074
299.143
299.122
299.036
299.022
299.033
299.062
299.135
299.144
298.982
299.029
299.046
299.048
299.133
298.752
299.723
298.774
299.16
298.396
299.621
299.003
299.12
298.984
298.984
299.003
299.096
299.095
299.058
298.988
298.98
299.008
299.091
299.087
299.033
298.995
298.981
298.993
299.076
299.087
299.022
298.991
298.977
298.97
299.088
299.081
299.017
298.991
298.804
299.478
298.757
299.347
298.664
299.05
298.958
299.022
299.031
299.059
298.953
298.948
298.948
298.998
299.052
299.055
298.959
298.938
298.953
298.995
299.059
299.038
298.955
298.936
298.945
298.989
299.047
299.013
298.954
298.928
298.917
299.017
299.033
299.336
298.514
299.1
298.82
299.344
298.661
299.07
298.855
298.954
298.925
298.921
299.007
299.008
298.924
298.927
298.909
298.912
298.996
299.009
298.944
298.915
298.891
298.909
298.988
298.998
298.946
298.897
298.876
298.916
298.959
299.028
298.908
298.878
299.048
298.474
299.298
298.71
299.194
298.801
298.912
298.873
298.976
298.961
298.887
298.88
298.885
298.896
298.963
298.962
298.864
298.856
298.863
298.898
298.969
298.949
298.855
298.838
298.85
298.889
298.959
298.946
298.816
298.83
298.858
298.828
298.99
298.577
299.395
298.643
298.941
298.354
299.314
298.843
298.899
298.797
298.797
298.812
298.907
298.919
298.87
298.799
298.781
298.814
298.911
298.921
298.851
298.802
298.784
298.804
298.891
298.902
298.839
298.792
298.77
298.804
298.863
298.899
298.852
298.763
298.978
298.18
299.353
298.477
299.2
298.644
298.781
298.737
298.9
298.854
298.768
298.757
298.763
298.77
298.855
298.842
298.743
298.741
298.747
298.778
298.855
298.829
298.742
298.722
298.734
298.777
298.852
298.848
298.699
298.714
298.744
298.719
298.885
298.329
299.494
298.458
298.921
297.883
299.429
298.635
298.81
298.671
298.67
298.695
298.763
298.768
298.753
298.672
298.654
298.694
298.797
298.786
298.723
298.675
298.656
298.674
298.781
298.785
298.709
298.662
298.641
298.663
298.749
298.768
298.7
298.654
298.631
298.638
298.754
298.808
298.64
298.653
298.506
299.053
298.458
298.893
298.454
298.675
298.624
298.654
298.742
298.744
298.603
298.603
298.607
298.657
298.741
298.728
298.605
298.579
298.592
298.652
298.735
298.696
298.601
298.573
298.587
298.636
298.714
298.704
298.56
298.569
298.605
298.589
298.753
298.195
299.339
298.334
298.726
297.967
299.18
298.621
298.622
298.53
298.524
298.532
298.644
298.661
298.6
298.517
298.494
298.531
298.657
298.659
298.574
298.514
298.492
298.515
298.631
298.636
298.555
298.504
298.484
298.485
298.62
298.678
298.497
298.518
298.299
299.115
298.197
298.914
298.138
298.574
298.47
298.53
298.599
298.611
298.458
298.457
298.453
298.512
298.595
298.592
298.452
298.424
298.436
298.5
298.59
298.566
298.44
298.416
298.434
298.484
298.579
298.558
298.399
298.414
298.455
298.421
298.622
297.936
299.321
298.131
298.624
297.573
299.176
298.421
298.466
298.368
298.36
298.371
298.494
298.488
298.434
298.357
298.326
298.368
298.489
298.484
298.407
298.339
298.324
298.347
298.461
298.478
298.388
298.341
298.32
298.318
298.459
298.521
298.335
298.347
298.128
298.974
298.014
298.774
297.954
298.412
298.295
298.347
298.443
298.428
298.287
298.284
298.282
298.342
298.434
298.417
298.277
298.245
298.257
298.328
298.424
298.391
298.265
298.237
298.25
298.311
298.405
298.375
298.229
298.231
298.274
298.243
298.463
297.774
299.117
297.972
298.417
297.506
298.924
298.28
298.275
298.189
298.181
298.187
298.323
298.321
298.247
298.172
298.139
298.182
298.291
298.313
298.222
298.147
298.129
298.157
298.275
298.295
298.201
298.148
298.12
298.133
298.27
298.31
298.171
298.137
297.973
298.679
297.905
298.476
297.887
298.174
298.109
298.166
298.282
298.257
298.083
298.087
298.094
298.147
298.27
298.236
298.081
298.051
298.058
298.136
298.239
298.186
298.069
298.035
298.047
298.117
298.202
298.156
298.06
298.019
298.02
298.08
298.229
298.631
297.496
298.201
297.897
298.363
297.867
298.152
298.05
298.022
297.981
298.024
298.128
298.142
298.047
297.997
297.957
297.98
298.093
298.11
298.012
297.965
297.928
297.936
298.057
298.142
297.998
297.953
297.739
298.6
297.596
298.31
297.643
298.004
297.914
297.96
298.108
298.063
297.893
297.894
297.896
297.952
298.082
298.056
297.885
297.855
297.868
297.943
298.06
297.999
297.87
297.834
297.849
297.919
298.016
297.96
297.847
297.814
297.811
297.898
298.015
298.135
297.701
297.914
297.739
297.972
297.819
297.981
297.845
297.802
297.762
297.809
297.923
297.96
297.843
297.785
297.74
297.772
297.906
297.926
297.816
297.755
297.708
297.729
297.864
297.912
297.798
297.702
297.597
298.117
297.608
298.052
297.442
297.734
297.663
297.77
297.823
297.818
297.671
297.648
297.663
297.725
297.849
297.806
297.652
297.616
297.635
297.712
297.831
297.768
297.621
297.594
297.6
297.7
297.819
297.565
297.976
297.521
297.623
297.419
297.911
297.77
297.679
297.57
297.55
297.565
297.741
297.758
297.634
297.554
297.513
297.549
297.709
297.728
297.609
297.528
297.483
297.518
297.658
297.733
297.553
297.479
297.588
297.344
297.848
297.503
297.621
297.393
297.458
297.507
297.654
297.59
297.455
297.399
297.427
297.48
297.625
297.545
297.396
297.362
297.368
297.427
297.547
297.494
297.358
297.325
297.325
297.409
297.559
297.547
297.473
297.37
297.311
297.35
297.511
297.54
297.412
297.328
297.275
297.316
297.477
297.507
297.373
297.299
297.24
297.274
297.436
297.549
297.305
297.252
297.41
296.845
297.853
297.22
297.458
297.136
297.231
297.274
297.406
297.345
297.229
297.163
297.187
297.263
297.389
297.334
297.177
297.134
297.15
297.222
297.352
297.285
297.128
297.092
297.076
297.237
297.308
297.101
297.423
297.026
297.102
296.9
297.419
297.247
297.164
297.026
296.997
296.998
297.235
297.193
297.076
296.989
296.935
296.97
297.139
297.239
297.041
296.945
297.103
296.62
297.566
297.007
297.11
296.858
296.939
297.015
297.155
297.094
296.939
296.876
296.902
296.999
297.119
297.043
296.885
296.837
296.849
296.974
297.138
296.41
297.775
296.612
296.918
296.485
297.309
297.057
296.885
296.784
296.761
296.765
296.999
297.016
296.845
296.764
296.692
296.725
296.946
296.96
296.799
296.705
296.65
296.686
296.877
296.92
296.743
296.624
296.677
296.762
296.895
296.798
296.625
296.566
296.577
296.655
296.806
296.706
296.527
296.494
296.508
296.585
296.735
296.665
296.493
296.453
296.461
296.56
296.749
296.687
296.668
296.482
296.439
296.478
296.674
296.712
296.548
296.456
296.385
296.432
296.622
296.676
296.565
296.362
296.278
296.914
296.299
296.71
296.223
296.377
296.327
296.488
296.609
296.554
296.319
296.281
296.293
296.391
296.582
296.478
296.264
296.226
296.202
296.347
296.547
296.244
296.607
296.149
296.198
296.012
296.572
296.381
296.303
296.135
296.085
296.089
296.371
296.329
296.18
296.067
295.988
296.025
296.247
296.242
296.025
295.911
295.986
296.107
296.261
296.175
295.984
295.912
295.968
296.064
296.25
296.143
295.926
295.861
295.856
296.065
296.209
295.954
296.296
295.811
295.861
295.748
296.224
296.132
296.011
295.822
295.772
295.802
296.09
296.097
295.903
295.788
295.71
295.754
296.002
296.045
295.822
295.676
295.764
295.785
296.085
295.912
295.696
295.606
295.626
295.747
295.937
295.841
295.591
295.541
295.49
295.64
295.891
295.86
295.689
295.558
295.401
295.477
295.726
295.712
295.496
295.395
295.291
295.338
295.569
295.616
295.352
295.229
295.347
295.47
295.666
295.585
295.325
295.247
295.287
295.427
295.646
295.525
295.24
295.181
295.194
295.333
295.691
296.072
294.755
295.391
295.046
295.409
295.279
295.516
295.218
295.15
295.025
295.129
295.355
295.429
295.172
295.06
294.95
295.015
295.279
295.346
295.075
294.915
294.97
295.119
295.312
295.17
294.905
294.845
294.806
294.973
295.321
295.89
294.049
295.024
294.59
295.043
294.794
294.998
294.652
294.666
294.498
294.59
294.775
294.867
294.553
294.419
294.563
294.719
294.914
294.854
294.56
294.45
294.504
294.669
294.909
294.78
294.455
294.382
294.378
294.557
294.925
295.127
294.251
294.56
294.26
294.497
294.597
294.773
294.435
294.324
294.208
294.274
294.57
294.673
294.37
294.158
294.234
294.437
294.594
294.455
294.149
294.043
294.059
294.221
294.483
294.347
294.011
293.939
293.855
294.045
294.367
294.27
294.012
293.871
293.695
293.779
294.107
293.981
293.714
293.503
293.815
292.815
294.902
293.977
293.668
293.469
293.596
293.791
294.078
293.923
293.546
293.428
293.42
293.623
294.068
294
293.832
293.523
293.368
293.506
293.845
293.99
293.605
293.334
293.293
293.959
293.584
293.86
293.196
293.246
293.226
293.483
293.712
293.596
293.16
293.096
293.019
293.265
293.63
293.551
293.261
293.061
292.868
292.969
293.358
293.374
293.002
292.735
292.805
292.756
293.354
292.873
292.645
292.447
292.341
292.535
293.028
293.138
292.783
292.573
292.394
292.547
293.004
293.094
292.728
292.487
292.318
292.454
292.905
293.034
292.494
292.258
292.378
292.669
293.012
292.772
292.332
292.172
292.075
292.35
292.86
292.776
292.503
292.176
291.965
292.111
292.562
292.613
292.169
291.839
291.928
292.124
292.552
292.218
291.83
291.618
291.457
291.684
292.264
292.061
291.721
291.338
291.069
291.224
291.658
291.949
291.406
291.087
291.397
291.456
292.202
291.809
291.36
291.096
291.124
291.41
292.087
291.76
291.855
291.144
291.029
291.126
291.688
291.832
291.316
290.923
291.088
291.101
291.874
291.349
291.007
290.724
290.623
290.947
291.58
291.208
291.109
290.595
290.381
290.383
291.152
290.917
290.524
290.034
290.082
290.026
291.092
290.232
289.688
289.55
289.651
290.065
290.649
290.875
289.967
290.018
289.691
290.057
290.572
290.749
289.947
289.672
289.655
290.254
290.889
291.277
289.453
290.018
289.455
289.838
290.265
290.575
289.737
289.365
289.266
290.028
289.959
289.976
289.115
289.02
288.652
289.191
289.752
289.703
288.696
288.625
288.034
288.184
288.788
289.09
288.319
288.033
288.262