/*--------------------------------*- C++ -*----------------------------------*\
| =========                 |                                                 |
| \\      /  F ield         | OpenFOAM: The Open Source CFD Toolbox           |
|  \\    /   O peration     | Version:  v2006                                 |
|   \\  /    A nd           | Website:  www.openfoam.com                      |
|    \\/     M anipulation  |                                                 |
\*---------------------------------------------------------------------------*/
FoamFile
{
    version     2.0;
    format      ascii;
    class       volScalarField;
    location    "0.09";
    object      turbulenceProperties:L;
}
// * * * * * * * * * * * * * * * * * * * * * * * * * * * * * * * * * * * * * //

dimensions      [0 1 0 0 0 0 0];


internalField   nonuniform List<scalar> 
23013
(
1999.06
1999.02
1999.36
1999.47
1999.65
1999.58
1999.66
1999.6
1999.42
1999.06
1998.53
1997.94
1997.38
1996.89
1996.47
1996.1
1995.76
1995.44
1995.12
1994.82
1994.51
1994.22
1993.92
1993.64
1993.36
1993.09
1992.82
1992.56
1992.29
1992.03
1991.77
1991.51
1991.26
1991
1990.75
1990.5
1990.25
1990
1989.75
1989.51
1989.27
1989.03
1988.8
1988.57
1988.34
1988.12
1987.9
1987.68
1987.47
1987.27
1987.07
1986.87
1986.68
1986.5
1986.32
1986.15
1985.99
1985.83
1985.68
1985.54
1985.41
1985.28
1985.17
1985.06
1984.96
1984.87
1984.79
1984.72
1984.67
1984.62
1984.59
1984.57
1984.56
1984.56
1984.57
1984.6
1984.65
1984.71
1984.78
1984.87
1984.97
1985.09
1985.22
1985.37
1985.53
1985.71
1985.89
1986.07
1986.2
1986.19
1985.83
1984.58
1981.15
1972.28
1950.07
1902.75
1808.05
1635
1361.23
1012.81
669.203
401.598
225.588
122.571
65.839
35.2726
19.1535
11.1618
8.46483
5.73656
4.4408
3.50674
2.09728
1.40678
0.810394
0.631094
0.709289
0.284818
0.0949437
0.024044
0.00287216
0.00053127
3.97312e-05
3.75021e-05
0.000257994
0.00113628
0.00059407
0.000166927
3.51447e-05
3.3451e-05
0.000159115
0.000530242
0.000414853
0.000137783
3.25266e-05
3.15558e-05
0.000136732
0.000403002
0.000355583
0.000126188
3.0816e-05
3.03301e-05
0.000128575
0.000355426
0.000331497
0.000121909
2.99598e-05
2.97976e-05
0.000126738
0.000336028
0.000319191
0.000120995
2.95848e-05
2.94775e-05
0.000124825
0.000323672
0.000310281
0.000119553
2.92964e-05
2.92222e-05
0.000123237
0.000315001
0.000302742
0.000118185
2.90641e-05
2.90094e-05
0.000121655
0.000307382
0.000295879
0.000116766
2.88676e-05
2.88222e-05
0.000120076
0.000300416
0.000289512
0.000115332
2.86926e-05
2.86527e-05
0.000118541
0.000293998
0.000283648
0.000113953
2.85306e-05
2.84939e-05
0.000117078
0.000288098
0.000278237
0.000112635
2.83764e-05
2.83426e-05
0.000115712
0.000282706
0.000273296
0.0001114
2.82282e-05
2.81965e-05
0.000114429
0.000277771
0.000268769
0.000110246
2.80843e-05
2.80541e-05
0.000113235
0.000273257
0.000264619
0.000109168
2.79433e-05
2.79146e-05
0.000112124
0.000269119
0.000260805
0.000108161
2.78047e-05
2.77772e-05
0.000111085
0.000265305
0.000257293
0.000107221
2.76681e-05
2.76413e-05
0.000110113
0.000261784
0.000254028
0.000106335
2.75321e-05
2.75066e-05
0.000109211
0.000258509
0.000250967
0.000105497
2.73967e-05
2.73723e-05
0.000108348
0.000255426
0.00024808
0.000104705
2.72644e-05
2.72454e-05
0.000107513
0.000252489
0.000245309
0.00010392
2.71562e-05
2.71438e-05
0.000106668
0.000249643
0.000242616
0.000103129
2.70648e-05
2.70528e-05
0.000105816
0.000246866
0.000239986
0.000102334
2.69757e-05
2.69632e-05
0.000104972
0.00024416
0.000237391
0.000101546
2.6885e-05
2.68723e-05
0.000104156
0.000241501
0.000234828
0.000100776
2.6793e-05
2.67797e-05
0.000103349
0.000238859
0.000232317
0.000100035
2.66993e-05
2.66857e-05
0.000102587
0.00023631
0.000229909
9.93349e-05
2.66039e-05
2.65899e-05
0.000101865
0.000233867
0.000227582
9.86612e-05
2.65061e-05
2.64923e-05
0.000101172
0.000231497
0.00022532
9.80145e-05
2.64067e-05
2.63922e-05
0.000100501
0.000229187
0.00022313
9.73936e-05
2.63053e-05
2.62901e-05
9.98614e-05
0.000226963
0.000221005
9.67867e-05
2.62001e-05
2.61857e-05
9.92556e-05
0.00022483
0.000218976
9.62212e-05
2.60934e-05
2.60783e-05
9.86648e-05
0.000222753
0.000217005
9.56746e-05
2.59844e-05
2.59693e-05
9.81083e-05
0.00022076
0.000215123
9.51602e-05
2.58732e-05
2.58581e-05
9.75918e-05
0.000218877
0.000213383
9.47014e-05
2.5761e-05
2.57449e-05
9.71073e-05
0.000217109
0.000211704
9.42418e-05
2.56454e-05
2.56305e-05
9.66532e-05
0.000215434
0.000210124
9.38282e-05
2.55299e-05
2.55155e-05
9.62305e-05
0.000213842
0.00020866
9.34538e-05
2.54146e-05
2.54014e-05
9.58627e-05
0.000212413
0.000207366
9.31327e-05
2.53006e-05
2.52892e-05
9.55446e-05
0.000211155
0.00020625
9.28683e-05
2.51901e-05
2.51815e-05
9.52903e-05
0.000210094
0.000205328
9.26617e-05
2.50843e-05
2.50805e-05
9.51145e-05
0.000209273
0.000204668
9.25501e-05
2.49878e-05
2.49882e-05
9.50135e-05
0.000208699
0.000204271
9.25205e-05
2.49042e-05
2.49095e-05
9.50181e-05
0.000208443
0.00020422
9.26059e-05
2.48359e-05
2.48482e-05
9.51543e-05
0.000208631
0.000204603
9.28241e-05
2.47876e-05
2.48086e-05
9.54305e-05
0.000209343
0.000205435
9.31838e-05
2.47648e-05
2.47943e-05
9.58306e-05
0.000210455
0.00020664
9.36487e-05
2.47648e-05
2.48095e-05
9.6356e-05
0.000212003
0.000208343
9.42877e-05
2.47931e-05
2.48631e-05
9.70511e-05
0.000214121
0.000210608
9.50692e-05
2.4858e-05
2.49543e-05
9.79214e-05
0.000216831
0.000213419
9.59773e-05
2.49591e-05
2.50758e-05
9.88735e-05
0.000219962
0.000216582
9.69755e-05
2.50944e-05
2.52272e-05
9.98903e-05
0.000223345
0.000220034
9.79057e-05
2.52586e-05
2.54034e-05
0.000100842
0.000226951
0.00022361
9.87405e-05
2.54456e-05
2.55977e-05
0.00010168
0.000230537
0.000227093
9.94461e-05
2.56471e-05
2.58025e-05
0.000102395
0.000233922
0.000230306
0.000100031
2.58563e-05
2.60111e-05
0.000102984
0.000236979
0.000233151
0.000100493
2.60673e-05
2.62183e-05
0.000103439
0.000239629
0.000235585
0.000100829
2.62746e-05
2.64211e-05
0.000103774
0.000241989
0.000237616
0.000101051
2.6475e-05
2.66144e-05
0.00010398
0.000243942
0.000239185
0.000101174
2.66661e-05
2.67958e-05
0.000104073
0.000245341
0.000240218
0.000101156
2.68458e-05
2.69672e-05
0.000104008
0.000246198
0.000240704
0.00010099
2.70131e-05
2.71248e-05
0.000103785
0.000246475
0.000240699
0.000100706
2.71671e-05
2.72682e-05
0.000103457
0.000246273
0.000240213
0.000100332
2.73099e-05
2.74202e-05
0.000103043
0.000245658
0.000239305
9.98821e-05
2.74719e-05
2.75934e-05
0.000102557
0.000244668
0.00023809
9.93623e-05
2.7646e-05
2.77644e-05
0.000102
0.000243362
0.000236541
9.87589e-05
2.78134e-05
2.79231e-05
0.000101364
0.000241716
0.000234703
9.81019e-05
2.7967e-05
2.80651e-05
0.000100682
0.000239766
0.000232626
9.74429e-05
2.81029e-05
2.81888e-05
9.99943e-05
0.000237562
0.000230344
9.67865e-05
2.82201e-05
2.82939e-05
9.92988e-05
0.000235132
0.000227883
9.61411e-05
2.83192e-05
2.83808e-05
9.86018e-05
0.000232497
0.000225269
9.55067e-05
2.84e-05
2.84498e-05
9.79099e-05
0.0002297
0.000222548
9.48873e-05
2.84633e-05
2.85023e-05
9.72381e-05
0.000226816
0.000219773
9.42867e-05
2.85087e-05
2.85392e-05
9.65998e-05
0.000223911
0.000217011
9.37287e-05
2.85397e-05
2.85599e-05
9.59849e-05
0.000220983
0.000214316
9.32295e-05
2.8557e-05
2.85682e-05
9.54275e-05
0.000218145
0.00021172
9.27506e-05
2.85623e-05
2.85676e-05
9.49134e-05
0.000215418
0.000209259
9.23152e-05
2.85567e-05
2.85595e-05
9.4447e-05
0.000212837
0.00020697
9.19312e-05
2.85429e-05
2.85439e-05
9.4046e-05
0.00021046
0.000204866
9.1594e-05
2.85227e-05
2.85241e-05
9.37101e-05
0.00020831
0.000202933
9.13146e-05
2.84996e-05
2.84999e-05
9.34074e-05
0.000206327
0.000201192
9.10826e-05
2.84746e-05
2.84746e-05
9.31498e-05
0.00020454
0.000199592
9.08564e-05
2.84466e-05
2.84474e-05
9.29272e-05
0.000202916
0.0001981
9.06591e-05
2.8418e-05
2.84193e-05
9.27274e-05
0.000201419
0.000196718
9.04849e-05
2.83898e-05
2.83917e-05
9.25448e-05
0.000200038
0.000195456
9.03371e-05
2.83627e-05
2.83628e-05
9.23656e-05
0.000198744
0.000194267
9.01709e-05
2.83344e-05
2.83377e-05
9.22201e-05
0.000197607
0.000193171
9.00282e-05
2.8307e-05
2.83092e-05
9.20604e-05
0.000196485
0.000192179
8.99109e-05
2.82823e-05
2.8285e-05
9.19134e-05
0.000195464
0.000191166
8.97497e-05
2.82546e-05
2.82592e-05
9.17766e-05
0.000194502
0.000190288
8.963e-05
2.82308e-05
2.82329e-05
9.16145e-05
0.000193559
0.000189394
8.94865e-05
2.82059e-05
2.82103e-05
9.1471e-05
0.000192666
0.000188506
8.93322e-05
2.81803e-05
2.81841e-05
9.13085e-05
0.00019176
0.000187674
8.91878e-05
2.81568e-05
2.81618e-05
9.1156e-05
0.00019092
0.000186861
8.90387e-05
2.8133e-05
2.81368e-05
9.09897e-05
0.000190074
0.000186085
8.88988e-05
2.81106e-05
2.81151e-05
9.08309e-05
0.000189272
0.000185274
8.87252e-05
2.80858e-05
2.80907e-05
9.06679e-05
0.000188468
0.000184537
8.85759e-05
2.80634e-05
2.80677e-05
9.04963e-05
0.000187685
0.000183789
8.84217e-05
2.80413e-05
2.80459e-05
9.03247e-05
0.000186905
0.000183021
8.82454e-05
2.80174e-05
2.80237e-05
9.01611e-05
0.000186158
0.000182315
8.80871e-05
2.79953e-05
2.79998e-05
8.99786e-05
0.000185396
0.0001816
8.79287e-05
2.79738e-05
2.79788e-05
8.98038e-05
0.000184652
0.000180862
8.7753e-05
2.79507e-05
2.7956e-05
8.96361e-05
0.000183927
0.000180173
8.75877e-05
2.79282e-05
2.7934e-05
8.94759e-05
0.000183259
0.000179244
8.73203e-05
2.79012e-05
2.79179e-05
8.90944e-05
0.000182597
0.000178444
8.74587e-05
2.79647e-05
2.82568e-05
9.03976e-05
0.000184761
0.000180511
8.94224e-05
2.86241e-05
2.98506e-05
9.34692e-05
0.000192802
0.000208337
9.9651e-05
3.13439e-05
3.2592e-05
9.96779e-05
0.000207759
0.00021752
0.000104786
3.34092e-05
3.43597e-05
0.000105527
0.000220256
0.000554341
0.00104349
0.00156158
0.00189106
0.00263436
0.00306067
0.00340615
0.00352932
0.00348445
0.00331704
0.00296452
0.00259754
0.00193137
0.00165129
0.00123118
0.000900299
0.000817475
0.000503313
0.000250537
0.000104361
4.84103e-05
1.32809e-05
1.26041e-05
4.75252e-05
0.000101657
9.35286e-05
4.39799e-05
1.18124e-05
1.12769e-05
4.31592e-05
9.15618e-05
9.16807e-05
4.3036e-05
1.11438e-05
1.085e-05
4.16491e-05
8.82249e-05
8.91714e-05
4.18073e-05
1.06674e-05
1.05168e-05
4.09437e-05
8.68397e-05
8.73474e-05
4.10996e-05
1.04539e-05
1.03237e-05
4.04305e-05
8.56805e-05
8.66962e-05
4.07652e-05
1.03224e-05
1.03359e-05
4.05938e-05
8.60728e-05
8.71285e-05
4.07515e-05
1.03357e-05
1.03377e-05
4.0405e-05
8.58128e-05
8.68858e-05
4.07032e-05
1.03421e-05
1.03434e-05
4.05844e-05
8.59719e-05
8.74706e-05
4.08109e-05
1.0348e-05
1.03494e-05
4.04574e-05
8.60677e-05
8.71363e-05
4.07555e-05
1.03544e-05
1.03557e-05
4.06362e-05
8.62137e-05
8.77177e-05
4.08638e-05
1.03601e-05
1.03618e-05
4.05106e-05
8.63086e-05
8.73859e-05
4.08098e-05
1.03671e-05
1.03681e-05
4.06899e-05
8.64575e-05
8.79717e-05
4.09181e-05
1.03726e-05
1.03744e-05
4.05641e-05
8.65568e-05
8.76425e-05
4.08639e-05
1.03797e-05
1.03808e-05
4.07444e-05
8.67088e-05
8.82309e-05
4.09731e-05
1.03853e-05
1.03872e-05
4.06187e-05
8.68056e-05
8.78984e-05
4.09193e-05
1.03924e-05
1.03939e-05
4.08008e-05
8.69641e-05
8.85018e-05
4.10304e-05
1.03986e-05
1.04004e-05
4.06755e-05
8.70711e-05
8.81749e-05
4.09775e-05
1.04056e-05
1.04074e-05
4.08601e-05
8.72427e-05
8.87946e-05
4.10912e-05
1.04125e-05
1.04145e-05
4.07388e-05
8.73577e-05
8.84703e-05
4.10441e-05
1.04198e-05
1.04217e-05
4.09263e-05
8.75332e-05
8.90991e-05
4.11609e-05
1.04272e-05
1.04294e-05
4.08101e-05
8.76535e-05
8.87692e-05
4.11144e-05
1.04343e-05
1.0436e-05
4.09964e-05
8.78221e-05
8.9398e-05
4.12316e-05
1.04419e-05
1.04438e-05
4.08788e-05
8.79429e-05
8.90674e-05
4.11814e-05
1.04483e-05
1.04502e-05
4.10642e-05
8.81205e-05
8.9713e-05
4.13008e-05
1.04563e-05
1.04579e-05
4.09479e-05
8.82498e-05
8.93877e-05
4.12542e-05
1.04628e-05
1.04649e-05
4.11381e-05
8.84373e-05
9.00393e-05
4.13763e-05
1.04707e-05
1.04726e-05
4.10248e-05
8.85688e-05
8.97216e-05
4.13356e-05
1.04781e-05
1.04802e-05
4.12195e-05
8.87603e-05
9.03717e-05
4.14587e-05
1.04854e-05
1.04876e-05
4.11058e-05
8.88875e-05
9.00503e-05
4.14176e-05
1.04935e-05
1.04951e-05
4.13017e-05
8.90778e-05
9.06949e-05
4.15379e-05
1.04998e-05
1.05023e-05
4.11848e-05
8.92018e-05
9.03759e-05
4.14989e-05
1.05086e-05
1.05096e-05
4.13839e-05
8.93954e-05
9.10246e-05
4.16222e-05
1.05144e-05
1.05169e-05
4.127e-05
8.95253e-05
9.0705e-05
4.15856e-05
1.05227e-05
1.05242e-05
4.14699e-05
8.97213e-05
9.13645e-05
4.17127e-05
1.05294e-05
1.05317e-05
4.13599e-05
8.98538e-05
9.10349e-05
4.16761e-05
1.0537e-05
1.05388e-05
4.15609e-05
9.00415e-05
9.16895e-05
4.18042e-05
1.0544e-05
1.05459e-05
4.14483e-05
9.01618e-05
9.13399e-05
4.17628e-05
1.05505e-05
1.05521e-05
4.16468e-05
9.03326e-05
9.19891e-05
4.18893e-05
1.05575e-05
1.05589e-05
4.15298e-05
9.04483e-05
9.16278e-05
4.18438e-05
1.05629e-05
1.05644e-05
4.17286e-05
9.06092e-05
9.22649e-05
4.1969e-05
1.05692e-05
1.05701e-05
4.16049e-05
9.07073e-05
9.18859e-05
4.19193e-05
1.05743e-05
1.05753e-05
4.18029e-05
9.08495e-05
9.24957e-05
4.2041e-05
1.05791e-05
1.05801e-05
4.16722e-05
9.09185e-05
9.20856e-05
4.19826e-05
1.05836e-05
1.05838e-05
4.1864e-05
9.10237e-05
9.26509e-05
4.2095e-05
1.05864e-05
1.05866e-05
4.17166e-05
9.10465e-05
9.21952e-05
4.20208e-05
1.05896e-05
1.05886e-05
4.18997e-05
9.11063e-05
9.27115e-05
4.21214e-05
1.05904e-05
1.05895e-05
4.17325e-05
9.10833e-05
9.22069e-05
4.20284e-05
1.05917e-05
1.0589e-05
4.19034e-05
9.10872e-05
9.26601e-05
4.2112e-05
1.059e-05
1.05871e-05
4.17058e-05
9.09962e-05
9.20762e-05
4.19859e-05
1.05877e-05
1.05829e-05
4.18541e-05
9.09167e-05
9.24396e-05
4.20409e-05
1.05825e-05
1.05762e-05
4.16049e-05
9.07223e-05
9.17438e-05
4.18567e-05
1.05752e-05
1.05662e-05
4.17094e-05
9.05286e-05
9.19839e-05
4.18571e-05
1.05639e-05
1.05533e-05
4.13698e-05
9.02012e-05
9.11465e-05
4.1576e-05
1.05503e-05
1.05357e-05
4.13996e-05
8.98536e-05
9.12153e-05
4.14936e-05
1.05304e-05
1.05137e-05
4.09395e-05
8.93188e-05
9.01957e-05
4.11005e-05
1.05071e-05
1.04846e-05
4.08464e-05
8.87762e-05
9.00659e-05
4.08781e-05
1.04746e-05
1.04493e-05
4.02284e-05
8.80312e-05
8.88453e-05
4.03342e-05
1.0438e-05
1.04053e-05
3.99495e-05
8.72712e-05
8.84974e-05
3.99212e-05
1.03898e-05
1.03548e-05
3.91468e-05
8.62995e-05
8.706e-05
3.91793e-05
1.03382e-05
1.02971e-05
3.86496e-05
8.53236e-05
8.65119e-05
3.85505e-05
1.02777e-05
1.02391e-05
3.76553e-05
8.41661e-05
8.49144e-05
3.76082e-05
1.02224e-05
1.01906e-05
3.69559e-05
8.30721e-05
8.43e-05
3.67883e-05
1.01798e-05
1.01675e-05
3.58369e-05
8.18803e-05
8.26917e-05
3.57534e-05
1.01664e-05
1.01649e-05
3.50603e-05
8.07831e-05
8.22605e-05
3.49101e-05
1.01827e-05
1.02e-05
3.40435e-05
7.98227e-05
8.07617e-05
3.39994e-05
1.02393e-05
1.02741e-05
3.3335e-05
7.88148e-05
8.05846e-05
3.33774e-05
1.03353e-05
1.0397e-05
3.26304e-05
7.81807e-05
7.94145e-05
3.27203e-05
1.04834e-05
1.05721e-05
3.21664e-05
7.76418e-05
7.96242e-05
3.24748e-05
1.06869e-05
1.08073e-05
3.18897e-05
7.74451e-05
7.86416e-05
3.2461e-05
1.08555e-05
1.09749e-05
3.17941e-05
7.75202e-05
7.90611e-05
3.28542e-05
1.11084e-05
1.12377e-05
3.21139e-05
7.7318e-05
7.81554e-05
3.35781e-05
1.14365e-05
1.16241e-05
3.33494e-05
7.65363e-05
7.74315e-05
3.4904e-05
1.18592e-05
1.22556e-05
3.52073e-05
7.60614e-05
7.854e-05
3.88239e-05
1.31793e-05
8.73934e-06
4.07631e-05
7.96042e-05
3.21918e-05
1.33827e-05
4.7628e-06
6.70444e-06
2.64172e-05
6.7554e-05
6.13958e-05
2.4463e-05
7.59067e-06
8.18582e-06
2.67976e-05
6.82495e-05
6.68935e-05
2.6632e-05
8.42364e-06
8.67894e-06
2.6871e-05
7.07182e-05
7.06548e-05
2.79246e-05
9.00984e-06
9.35238e-06
2.78611e-05
7.32832e-05
7.45256e-05
2.90716e-05
9.71989e-06
1.01633e-05
2.93702e-05
7.74382e-05
7.79017e-05
3.09321e-05
1.06406e-05
1.10032e-05
3.11133e-05
7.99534e-05
8.17159e-05
3.30925e-05
1.14623e-05
1.18291e-05
3.33133e-05
8.25472e-05
8.38492e-05
3.472e-05
1.21876e-05
1.27228e-05
3.60129e-05
8.45213e-05
8.5238e-05
3.78356e-05
1.34409e-05
1.42832e-05
4.0882e-05
8.70301e-05
8.61398e-05
4.18368e-05
9.30841e-06
5.30576e-06
1.27431e-05
3.19322e-05
7.13421e-05
2.66968e-05
7.54886e-06
8.34935e-06
2.41765e-05
6.48422e-05
6.7749e-05
2.5119e-05
8.61284e-06
8.93276e-06
2.44684e-05
6.5324e-05
6.89293e-05
2.6638e-05
9.34899e-06
9.81872e-06
2.64756e-05
6.81887e-05
7.21478e-05
2.93543e-05
1.04083e-05
1.09742e-05
2.9373e-05
7.15662e-05
7.54441e-05
3.34461e-05
1.18114e-05
1.31682e-05
3.56171e-05
7.66188e-05
8.0425e-05
3.87289e-05
8.90372e-06
5.40248e-06
1.1939e-05
2.96417e-05
7.02933e-05
2.67194e-05
7.68324e-06
9.10435e-06
2.42385e-05
6.62952e-05
7.76462e-05
2.97487e-05
1.01236e-05
1.08909e-05
2.93312e-05
7.75016e-05
8.40807e-05
3.39138e-05
1.16613e-05
1.24277e-05
3.40592e-05
8.44051e-05
8.85472e-05
3.80055e-05
1.3468e-05
1.45965e-05
4.10131e-05
9.0552e-05
9.0159e-05
4.25741e-05
9.70883e-06
5.92855e-06
1.2765e-05
3.19066e-05
7.41554e-05
2.81554e-05
8.42626e-06
9.54059e-06
2.61812e-05
7.01248e-05
7.57303e-05
2.9239e-05
1.00899e-05
1.08173e-05
2.94733e-05
7.33335e-05
7.79769e-05
3.37522e-05
1.17793e-05
1.30492e-05
3.59095e-05
7.95686e-05
8.40835e-05
3.94736e-05
8.85484e-06
5.55892e-06
1.19897e-05
3.0027e-05
7.26324e-05
2.69596e-05
8.11873e-06
9.92272e-06
2.64537e-05
7.11883e-05
8.51228e-05
3.48187e-05
1.12482e-05
1.25721e-05
3.51665e-05
8.63599e-05
9.27641e-05
4.22512e-05
1.39356e-05
9.33784e-06
4.18045e-05
9.07853e-05
3.11403e-05
1.23477e-05
5.72395e-06
8.03519e-06
2.87509e-05
7.54174e-05
7.07825e-05
2.60468e-05
9.41428e-06
1.04697e-05
3.08478e-05
7.88726e-05
8.25546e-05
3.38844e-05
1.17665e-05
1.36141e-05
4.09375e-05
9.0575e-05
9.27353e-05
4.32189e-05
9.58891e-06
6.20677e-06
1.34149e-05
3.32616e-05
8.07324e-05
3.1594e-05
9.07552e-06
1.13691e-05
3.27302e-05
8.29998e-05
9.87786e-05
4.36041e-05
1.35119e-05
9.3673e-06
4.35002e-05
9.53875e-05
3.35979e-05
1.28275e-05
5.81473e-06
8.57363e-06
3.23893e-05
8.19113e-05
8.08787e-05
3.13024e-05
1.04653e-05
1.24642e-05
4.02031e-05
9.52842e-05
9.64126e-05
4.48805e-05
8.91548e-06
5.70831e-06
1.32608e-05
3.51339e-05
8.9813e-05
3.28961e-05
8.88681e-06
1.15158e-05
3.6648e-05
9.4934e-05
0.000116869
5.21986e-05
1.38369e-05
9.9842e-06
5.07678e-05
0.000110678
4.10292e-05
1.54102e-05
6.43209e-06
9.87677e-06
4.21952e-05
0.000102327
0.000106682
4.39871e-05
1.3076e-05
9.90997e-06
5.68073e-05
0.000117021
4.60249e-05
1.67602e-05
6.54788e-06
1.08024e-05
5.18274e-05
0.000120033
0.000117798
5.14455e-05
8.56128e-06
5.64604e-06
1.51108e-05
4.58545e-05
0.000129368
5.02019e-05
9.76044e-06
1.40687e-05
5.40343e-05
0.000143527
0.000163675
7.86897e-05
1.14749e-05
8.18248e-06
2.47304e-05
6.9003e-05
0.000152736
7.18252e-05
7.85551e-06
5.82609e-06
1.98207e-05
6.48017e-05
0.000205365
7.33574e-05
1.24875e-05
1.20301e-05
9.25761e-05
0.000230401
0.000123182
4.37005e-05
1.16663e-05
1.62195e-05
0.000148809
0.00049474
0.000287514
9.81748e-05
1.1398e-05
8.82467e-06
8.41316e-05
0.000247579
0.000239923
8.13979e-05
8.85226e-06
1.00801e-05
8.58683e-05
0.000247911
0.000275981
9.74655e-05
1.21639e-05
1.64937e-05
0.000170134
0.000433919
0.000112033
3.94079e-05
1.25077e-05
1.1094e-05
9.37833e-05
0.000215949
7.61689e-05
3.0718e-05
9.75183e-06
1.02588e-05
8.02881e-05
0.000158473
6.75563e-05
2.63263e-05
1.00106e-05
1.15972e-05
6.55832e-05
0.000140257
0.000124673
5.15532e-05
1.26517e-05
6.68076e-06
1.56352e-05
4.28774e-05
9.11233e-05
6.00175e-05
8.04213e-06
8.43883e-06
2.00514e-05
4.71735e-05
0.000104895
5.04299e-05
1.07169e-05
1.24292e-05
4.26718e-05
9.6313e-05
3.7746e-05
1.54072e-05
6.89e-06
8.88099e-06
4.21306e-05
8.58589e-05
8.22789e-05
3.83761e-05
1.10191e-05
6.42871e-06
1.42367e-05
3.38866e-05
7.84908e-05
3.9247e-05
8.29331e-06
1.03223e-05
3.55992e-05
7.46565e-05
3.07901e-05
1.31502e-05
6.19662e-06
7.92249e-06
3.53333e-05
7.02673e-05
6.68683e-05
3.23763e-05
9.80406e-06
5.60248e-06
1.14621e-05
2.69577e-05
5.8704e-05
4.19195e-05
6.8108e-06
7.93255e-06
1.54157e-05
3.33151e-05
7.54233e-05
4.14482e-05
1.01376e-05
1.3001e-05
3.29038e-05
6.63193e-05
5.87708e-05
2.75271e-05
9.16399e-06
5.48808e-06
1.06659e-05
2.5513e-05
5.77667e-05
2.94975e-05
7.32837e-06
9.75224e-06
2.78827e-05
5.65598e-05
2.53481e-05
1.15412e-05
5.9705e-06
7.487e-06
2.97574e-05
5.62202e-05
5.47799e-05
2.82385e-05
9.72158e-06
5.99266e-06
1.13787e-05
2.52557e-05
5.54362e-05
2.94686e-05
7.60236e-06
9.85539e-06
2.78216e-05
5.37101e-05
2.47099e-05
1.14381e-05
6.03238e-06
7.65914e-06
2.88949e-05
5.29516e-05
5.2003e-05
2.75025e-05
9.97466e-06
6.08979e-06
1.1313e-05
2.42681e-05
5.19343e-05
2.84744e-05
7.70231e-06
1.01337e-05
2.73877e-05
5.05923e-05
2.39828e-05
1.13136e-05
6.23376e-06
7.73426e-06
2.78396e-05
4.98317e-05
4.91661e-05
2.69411e-05
1.01532e-05
6.28625e-06
1.14061e-05
2.37933e-05
4.94523e-05
2.79513e-05
7.89969e-06
1.03354e-05
2.69808e-05
4.83969e-05
2.37677e-05
1.15649e-05
6.42245e-06
8.00556e-06
2.74011e-05
4.80342e-05
4.75401e-05
2.69868e-05
1.05125e-05
6.59407e-06
1.17216e-05
2.38641e-05
4.79651e-05
2.77026e-05
8.13225e-06
1.05833e-05
2.68109e-05
4.71104e-05
2.35785e-05
1.16777e-05
6.55782e-06
8.09759e-06
2.68482e-05
4.62697e-05
4.59541e-05
2.60195e-05
1.06113e-05
6.64453e-06
1.17224e-05
2.32677e-05
4.59569e-05
2.68492e-05
8.19762e-06
1.06842e-05
2.5751e-05
4.54068e-05
2.29656e-05
1.18362e-05
6.66277e-06
8.27715e-06
2.63137e-05
4.41935e-05
4.40073e-05
2.51994e-05
1.08556e-05
6.79461e-06
1.18532e-05
2.25585e-05
4.36757e-05
2.62404e-05
8.35845e-06
1.08616e-05
2.45154e-05
4.32346e-05
2.22269e-05
1.18935e-05
6.68841e-06
8.19438e-06
2.52848e-05
4.20535e-05
4.18837e-05
2.39755e-05
1.06685e-05
6.67176e-06
1.17839e-05
2.17352e-05
4.16555e-05
2.50066e-05
8.29329e-06
1.08727e-05
2.35041e-05
4.07031e-05
2.13422e-05
1.183e-05
6.79293e-06
8.23491e-06
2.43848e-05
4.05478e-05
3.96816e-05
2.30879e-05
1.08196e-05
6.70812e-06
1.16976e-05
2.09756e-05
4.01623e-05
2.43698e-05
8.22887e-06
1.07932e-05
2.26569e-05
3.88097e-05
2.06399e-05
1.1749e-05
6.71935e-06
8.16342e-06
2.36144e-05
3.89294e-05
3.76611e-05
2.20604e-05
1.05833e-05
6.62187e-06
1.15658e-05
2.01993e-05
3.84143e-05
2.33196e-05
8.1138e-06
1.05505e-05
2.1559e-05
3.67244e-05
1.96537e-05
1.1464e-05
6.51877e-06
7.89668e-06
2.23826e-05
3.67901e-05
3.5442e-05
2.09801e-05
1.03466e-05
6.47734e-06
1.12675e-05
1.90292e-05
3.59952e-05
2.2039e-05
7.85667e-06
1.0267e-05
2.04222e-05
3.43306e-05
1.83239e-05
1.09996e-05
6.30247e-06
7.56429e-06
2.0852e-05
3.40656e-05
3.27641e-05
1.96313e-05
9.9818e-06
6.13816e-06
1.07096e-05
1.75734e-05
3.28572e-05
2.02618e-05
7.37155e-06
9.62561e-06
1.88144e-05
3.15431e-05
1.64697e-05
9.99889e-06
5.73272e-06
6.44414e-06
2.22677e-05
2.81708e-05
1.84667e-05
1.16398e-05
7.78904e-06
8.97628e-06
2.19494e-05
3.53285e-05
3.32997e-05
2.00165e-05
1.13444e-05
6.86119e-06
1.16868e-05
1.85275e-05
3.43516e-05
2.17673e-05
8.13518e-06
1.06343e-05
2.01926e-05
3.28933e-05
1.79825e-05
1.12526e-05
6.52158e-06
7.78913e-06
2.06518e-05
3.27914e-05
3.1295e-05
1.89332e-05
1.01226e-05
5.97545e-06
1.02028e-05
1.66326e-05
2.80627e-05
2.23736e-05
6.57046e-06
7.94043e-06
1.18729e-05
1.85196e-05
3.44333e-05
2.17158e-05
9.20587e-06
1.14788e-05
1.97999e-05
3.2172e-05
1.82165e-05
1.18667e-05
6.91286e-06
8.14402e-06
2.09967e-05
3.23761e-05
3.11196e-05
1.94935e-05
1.05111e-05
6.50219e-06
1.11846e-05
1.74244e-05
3.11665e-05
1.98146e-05
7.72292e-06
1.00046e-05
1.83714e-05
3.00503e-05
1.61678e-05
1.01368e-05
5.95817e-06
6.52905e-06
2.16539e-05
2.67386e-05
1.77367e-05
1.16721e-05
7.82884e-06
9.07811e-06
2.068e-05
3.27221e-05
3.06689e-05
1.89727e-05
1.13885e-05
6.73925e-06
1.15492e-05
1.74205e-05
3.08397e-05
2.01655e-05
7.93011e-06
1.01809e-05
1.85387e-05
2.94789e-05
1.60558e-05
1.01595e-05
5.98191e-06
6.51049e-06
2.16399e-05
2.62641e-05
1.7549e-05
1.17903e-05
7.86749e-06
8.93545e-06
2.00615e-05
3.17656e-05
2.97588e-05
1.82871e-05
1.09244e-05
6.21678e-06
1.06203e-05
1.6255e-05
2.64159e-05
2.16855e-05
6.83688e-06
8.31108e-06
1.20688e-05
1.78727e-05
3.23064e-05
2.12647e-05
9.58279e-06
1.17903e-05
1.97e-05
3.04586e-05
1.78474e-05
1.21174e-05
7.17239e-06
8.36501e-06
2.04531e-05
3.06119e-05
2.92918e-05
1.88517e-05
1.05744e-05
6.28867e-06
1.05856e-05
1.6269e-05
2.63936e-05
2.1905e-05
6.79567e-06
8.08924e-06
1.20819e-05
1.77789e-05
3.16846e-05
2.03298e-05
9.19342e-06
1.14139e-05
1.87703e-05
2.9652e-05
1.66696e-05
1.10896e-05
6.68424e-06
7.17072e-06
2.16753e-05
2.67008e-05
1.82416e-05
1.24962e-05
8.52659e-06
9.56711e-06
2.1307e-05
3.22749e-05
3.02263e-05
1.95745e-05
1.17694e-05
6.9601e-06
1.1772e-05
1.74586e-05
2.97876e-05
1.98276e-05
8.15933e-06
1.05034e-05
1.82691e-05
2.85942e-05
1.59794e-05
1.03913e-05
6.18509e-06
6.74266e-06
2.12387e-05
2.54664e-05
1.7356e-05
1.19691e-05
8.02354e-06
8.85738e-06
1.92884e-05
3.01143e-05
2.8211e-05
1.77204e-05
1.08727e-05
6.237e-06
1.04382e-05
1.59021e-05
2.50794e-05
2.03889e-05
6.72132e-06
8.01667e-06
1.17631e-05
1.7252e-05
2.96975e-05
1.98515e-05
9.08562e-06
1.11083e-05
1.81849e-05
2.79548e-05
1.59401e-05
1.07092e-05
6.32739e-06
6.72218e-06
2.12368e-05
2.50154e-05
1.71765e-05
1.18173e-05
7.91932e-06
8.84984e-06
1.90721e-05
2.93509e-05
2.75716e-05
1.75425e-05
1.08937e-05
6.19874e-06
1.03888e-05
1.56665e-05
2.40506e-05
2.11429e-05
6.59303e-06
7.63298e-06
1.19093e-05
1.6912e-05
2.6571e-05
2.02169e-05
7.9346e-06
9.23389e-06
1.28746e-05
1.83688e-05
3.08692e-05
2.00728e-05
1.00102e-05
1.20741e-05
1.86227e-05
2.88367e-05
1.68409e-05
1.15132e-05
7.00501e-06
7.38964e-06
2.23705e-05
2.62206e-05
1.83828e-05
1.29613e-05
8.73402e-06
9.7524e-06
2.06298e-05
3.1157e-05
2.91093e-05
1.89273e-05
1.18712e-05
6.88605e-06
1.13667e-05
1.67631e-05
2.61338e-05
2.20651e-05
7.26434e-06
8.56844e-06
1.27003e-05
1.81804e-05
3.06754e-05
2.03171e-05
9.60139e-06
1.17014e-05
1.87078e-05
2.88484e-05
1.66293e-05
1.11787e-05
6.72943e-06
7.25034e-06
2.17692e-05
2.56961e-05
1.79636e-05
1.25767e-05
8.61788e-06
9.53882e-06
2.02008e-05
3.00503e-05
2.80812e-05
1.84093e-05
1.14335e-05
6.4791e-06
1.08659e-05
1.61884e-05
2.44772e-05
2.1653e-05
6.83212e-06
7.88191e-06
1.22394e-05
1.73426e-05
2.66881e-05
2.0351e-05
7.99341e-06
9.25715e-06
1.30392e-05
1.85624e-05
3.03418e-05
1.97952e-05
9.92025e-06
1.18997e-05
1.82902e-05
2.82917e-05
1.65244e-05
1.11855e-05
6.84848e-06
7.16893e-06
2.19443e-05
2.46997e-05
1.77853e-05
1.28247e-05
8.26878e-06
8.50995e-06
2.1075e-05
2.73589e-05
1.93422e-05
1.37879e-05
9.81707e-06
1.06226e-05
2.05708e-05
3.13208e-05
2.91059e-05
1.89599e-05
1.25247e-05
7.0629e-06
1.16147e-05
1.7099e-05
2.59008e-05
2.24167e-05
7.45919e-06
8.84375e-06
1.30339e-05
1.83532e-05
3.00916e-05
2.02321e-05
9.82771e-06
1.18747e-05
1.85708e-05
2.82349e-05
1.65354e-05
1.11788e-05
6.77348e-06
7.1193e-06
2.16763e-05
2.48232e-05
1.78012e-05
1.26269e-05
8.19765e-06
8.24604e-06
2.06943e-05
2.68673e-05
1.885e-05
1.33744e-05
9.40284e-06
9.93485e-06
1.97313e-05
3.03822e-05
2.81407e-05
1.81335e-05
1.18844e-05
6.81218e-06
1.10665e-05
1.65365e-05
2.44202e-05
2.1353e-05
7.16669e-06
8.23914e-06
1.25446e-05
1.76751e-05
2.65342e-05
2.09419e-05
8.41305e-06
9.62138e-06
1.34892e-05
1.88777e-05
3.01235e-05
1.99247e-05
1.02796e-05
1.23679e-05
1.84685e-05
2.80745e-05
1.66959e-05
1.14552e-05
7.08918e-06
7.24607e-06
2.2096e-05
2.44744e-05
1.7846e-05
1.281e-05
8.32632e-06
8.44403e-06
2.06827e-05
2.67034e-05
1.89763e-05
1.36376e-05
9.66563e-06
1.02041e-05
1.98551e-05
3.02675e-05
2.80853e-05
1.83202e-05
1.21722e-05
6.96911e-06
1.12318e-05
1.66556e-05
2.42621e-05
2.14564e-05
7.23218e-06
8.33356e-06
1.27865e-05
1.78387e-05
2.641e-05
2.06668e-05
8.47017e-06
9.72563e-06
1.35543e-05
1.89678e-05
2.96335e-05
1.99443e-05
1.04006e-05
1.23057e-05
1.84733e-05
2.77463e-05
1.67375e-05
1.14616e-05
7.0891e-06
7.29868e-06
2.18351e-05
2.42675e-05
1.78614e-05
1.28235e-05
8.39427e-06
8.40401e-06
2.03787e-05
2.63032e-05
1.89558e-05
1.34206e-05
9.32467e-06
9.12721e-06
2.12563e-05
2.75879e-05
1.98194e-05
1.43983e-05
1.02128e-05
1.08035e-05
2.06609e-05
3.10635e-05
2.87716e-05
1.89898e-05
1.27518e-05
7.21455e-06
1.16234e-05
1.71293e-05
2.47145e-05
2.21448e-05
7.44975e-06
8.60828e-06
1.31652e-05
1.83278e-05
2.67478e-05
2.11059e-05
8.75992e-06
9.92207e-06
1.3925e-05
1.93817e-05
3.00038e-05
1.99864e-05
1.06043e-05
1.26256e-05
1.85791e-05
2.80611e-05
1.69882e-05
1.16948e-05
7.25411e-06
7.50355e-06
2.1886e-05
2.44536e-05
1.82404e-05
1.32128e-05
8.6627e-06
8.63028e-06
2.06747e-05
2.63244e-05
1.92192e-05
1.36603e-05
9.49804e-06
9.23027e-06
2.12292e-05
2.74815e-05
1.9977e-05
1.45014e-05
1.03202e-05
1.07235e-05
2.05408e-05
3.05967e-05
2.83778e-05
1.88597e-05
1.25741e-05
7.20848e-06
1.1509e-05
1.70807e-05
2.43066e-05
2.1699e-05
7.42693e-06
8.52952e-06
1.30178e-05
1.81246e-05
2.58258e-05
2.02579e-05
8.54317e-06
9.52595e-06
1.35757e-05
1.90491e-05
2.70592e-05
2.10004e-05
9.41301e-06
1.0597e-05
1.47082e-05
2.00004e-05
3.03918e-05
2.06654e-05
1.11582e-05
1.3111e-05
1.92159e-05
2.84313e-05
1.7487e-05
1.21055e-05
7.60612e-06
7.74495e-06
2.25488e-05
2.47213e-05
1.85128e-05
1.34375e-05
8.84215e-06
8.86402e-06
2.06381e-05
2.64829e-05
1.95854e-05
1.40546e-05
9.92888e-06
9.65171e-06
2.1632e-05
2.76929e-05
2.03583e-05
1.49047e-05
1.06901e-05
1.11076e-05
2.08719e-05
3.07535e-05
2.85604e-05
1.92812e-05
1.29715e-05
7.39596e-06
1.18166e-05
1.73444e-05
2.4368e-05
2.20252e-05
7.626e-06
8.81614e-06
1.33474e-05
1.84241e-05
2.59028e-05
2.051e-05
8.80154e-06
9.72514e-06
1.38398e-05
1.93057e-05
2.69369e-05
2.11294e-05
9.59489e-06
1.07246e-05
1.48503e-05
2.00592e-05
3.00007e-05
2.06863e-05
1.13544e-05
1.33798e-05
1.93015e-05
2.81105e-05
1.75992e-05
1.22013e-05
7.73167e-06
7.89569e-06
2.24898e-05
2.45265e-05
1.85897e-05
1.36196e-05
9.01611e-06
8.90538e-06
2.08208e-05
2.62293e-05
1.95541e-05
1.40846e-05
9.91147e-06
9.65831e-06
2.14112e-05
2.72156e-05
2.02233e-05
1.48787e-05
1.06818e-05
1.1116e-05
2.06164e-05
3.00654e-05
2.79039e-05
1.90341e-05
1.29496e-05
7.40335e-06
1.16922e-05
1.72108e-05
2.3998e-05
2.16048e-05
7.66636e-06
8.86815e-06
1.33463e-05
1.83032e-05
2.53685e-05
2.03965e-05
8.83164e-06
9.71196e-06
1.37174e-05
1.90952e-05
2.62373e-05
2.07923e-05
9.43777e-06
1.05829e-05
1.46443e-05
1.98044e-05
2.90979e-05
2.02131e-05
1.10915e-05
1.29682e-05
1.88385e-05
2.72175e-05
1.71506e-05
1.20134e-05
7.52731e-06
7.78601e-06
2.16594e-05
2.38522e-05
1.82902e-05
1.34224e-05
8.92792e-06
8.84899e-06
2.04637e-05
2.53629e-05
1.90933e-05
1.3718e-05
9.65433e-06
9.26201e-06
2.04042e-05
2.60589e-05
1.97358e-05
1.43451e-05
1.02037e-05
9.89651e-06
2.15421e-05
2.69476e-05
2.03942e-05
1.51846e-05
1.09401e-05
1.1526e-05
2.08893e-05
2.97333e-05
2.76328e-05
1.93298e-05
1.33371e-05