/*--------------------------------*- C++ -*----------------------------------*\
| =========                 |                                                 |
| \\      /  F ield         | OpenFOAM: The Open Source CFD Toolbox           |
|  \\    /   O peration     | Version:  v2006                                 |
|   \\  /    A nd           | Website:  www.openfoam.com                      |
|    \\/     M anipulation  |                                                 |
\*---------------------------------------------------------------------------*/
FoamFile
{
    version     2.0;
    format      ascii;
    class       volScalarField;
    location    "0.03";
    object      isentropic(p);
}
// * * * * * * * * * * * * * * * * * * * * * * * * * * * * * * * * * * * * * //

dimensions      [1 -1 -2 0 0 0 0];


internalField   nonuniform List<scalar> 
16277
(
150008
150014
150017
150003
150012
150010
150011
150012
150013
150013
150013
150012
150012
150011
150011
150011
150010
150010
150010
150010
150010
150010
150010
150009
150009
150009
150009
150009
150009
150009
150009
150009
150008
150008
150008
150008
150008
150008
150008
150008
150007
150007
150007
150007
150007
150007
150007
150007
150006
150006
150006
150006
150006
150006
150006
150006
150006
150005
150005
150005
150005
150005
150005
150005
150005
150005
150004
150004
150004
150004
150004
150004
150004
150004
150004
150003
150003
150003
150003
150002
150002
150001
150001
150000
150001
150003
150004
150005
150004
150006
150005
150007
150008
150011
150017
150015
149976
149936
150011
150022
150021
150002
149897
149860
149993
150018
150013
149981
149826
149796
149971
150008
150002
149959
149768
149744
149949
149997
149991
149938
149721
149702
149929
149986
149979
149918
149684
149668
149910
149975
149968
149900
149653
149640
149893
149964
149958
149884
149627
149616
149877
149953
149947
149868
149604
149595
149862
149943
149937
149854
149585
149577
149848
149934
149928
149840
149568
149560
149836
149925
149919
149828
149552
149546
149824
149916
149911
149817
149539
149534
149813
149908
149903
149806
149527
149522
149803
149900
149895
149796
149516
149512
149793
149893
149888
149787
149507
149503
149784
149886
149881
149778
149498
149495
149776
149879
149875
149770
149491
149488
149768
149873
149869
149763
149484
149482
149761
149867
149863
149756
149478
149476
149754
149862
149858
149749
149473
149471
149747
149856
149852
149743
149469
149467
149741
149851
149847
149737
149465
149464
149736
149846
149843
149732
149462
149461
149731
149842
149838
149727
149459
149459
149726
149838
149834
149722
149458
149458
149722
149833
149830
149718
149456
149457
149718
149829
149826
149714
149456
149456
149714
149826
149823
149711
149456
149457
149711
149822
149819
149708
149456
149457
149708
149819
149816
149705
149457
149458
149705
149816
149813
149702
149459
149460
149703
149813
149810
149700
149461
149463
149701
149810
149807
149698
149463
149465
149699
149808
149805
149697
149466
149469
149697
149805
149803
149695
149470
149472
149696
149803
149801
149694
149474
149477
149695
149801
149799
149694
149478
149481
149695
149799
149797
149694
149483
149486
149695
149798
149796
149694
149489
149492
149695
149796
149795
149694
149494
149498
149696
149795
149794
149695
149500
149504
149697
149795
149793
149696
149507
149511
149698
149794
149793
149698
149514
149518
149700
149794
149793
149700
149521
149525
149703
149795
149794
149703
149528
149532
149706
149796
149795
149706
149536
149540
149709
149797
149797
149710
149543
149548
149713
149799
149799
149714
149551
149555
149718
149802
149802
149719
149558
149563
149723
149805
149805
149724
149565
149570
149728
149808
149809
149729
149572
149576
149733
149812
149813
149735
149578
149582
149739
149817
149818
149741
149583
149586
149744
149821
149822
149746
149587
149590
149749
149825
149826
149750
149589
149592
149754
149829
149830
149755
149591
149592
149758
149833
149833
149758
149590
149591
149761
149836
149836
149761
149589
149589
149763
149839
149839
149763
149586
149586
149765
149842
149841
149764
149583
149582
149765
149843
149843
149764
149578
149577
149766
149845
149844
149764
149573
149572
149765
149846
149845
149764
149567
149566
149764
149847
149845
149762
149562
149560
149763
149847
149845
149761
149556
149554
149761
149847
149845
149759
149549
149548
149759
149846
149844
149756
149544
149542
149756
149845
149843
149754
149538
149536
149754
149844
149842
149751
149532
149531
149751
149843
149841
149748
149527
149526
149748
149842
149839
149745
149522
149521
149745
149840
149838
149743
149518
149517
149743
149838
149836
149740
149513
149512
149740
149837
149834
149737
149510
149509
149737
149835
149833
149734
149506
149505
149734
149833
149831
149732
149502
149501
149731
149831
149829
149729
149499
149498
149729
149829
149827
149726
149496
149495
149726
149827
149825
149724
149493
149492
149724
149825
149823
149721
149490
149489
149721
149823
149821
149719
149487
149486
149719
149821
149819
149716
149484
149484
149716
149820
149817
149714
149482
149481
149714
149818
149816
149711
149479
149479
149712
149816
149814
149709
149476
149477
149710
149815
149814
149709
149475
149478
149712
149816
149818
149714
149482
149494
149725
149829
149865
149774
149550
149514
149695
149790
149861
149919
149953
149963
149969
149982
149986
149992
149994
149996
149997
149996
149994
149990
149987
149976
149972
149965
149957
149944
149911
149840
149701
149541
149278
149258
149524
149685
149666
149506
149243
149232
149495
149657
149652
149491
149227
149226
149491
149652
149650
149489
149224
149224
149489
149651
149652
149490
149225
149226
149491
149653
149654
149492
149226
149227
149493
149655
149656
149494
149228
149229
149495
149657
149658
149496
149230
149231
149497
149659
149659
149498
149232
149233
149499
149660
149661
149500
149234
149235
149501
149663
149664
149502
149236
149237
149504
149665
149666
149505
149237
149238
149506
149667
149668
149507
149239
149240
149508
149669
149670
149509
149241
149242
149510
149671
149672
149512
149243
149244
149513
149673
149674
149514
149245
149246
149515
149676
149677
149516
149247
149248
149518
149678
149679
149519
149249
149250
149520
149680
149681
149521
149251
149252
149522
149683
149684
149524
149253
149254
149525
149685
149686
149526
149255
149256
149527
149687
149688
149528
149257
149258
149530
149690
149691
149531
149259
149259
149532
149692
149693
149533
149260
149261
149535
149695
149696
149536
149262
149263
149537
149697
149698
149538
149264
149265
149540
149700
149701
149541
149266
149267
149542
149702
149704
149544
149268
149269
149545
149705
149706
149546
149269
149270
149548
149708
149709
149549
149271
149272
149550
149711
149712
149552
149273
149273
149553
149714
149715
149554
149274
149274
149556
149717
149718
149557
149275
149275
149559
149720
149722
149560
149276
149276
149561
149724
149726
149563
149277
149277
149565
149728
149730
149566
149277
149277
149568
149732
149734
149570
149277
149277
149571
149736
149738
149573
149277
149277
149575
149741
149744
149577
149277
149277
149579
149746
149749
149582
149277
149277
149584
149752
149756
149587
149277
149277
149590
149759
149762
149593
149278
149279
149597
149765
149768
149600
149280
149282
149604
149772
149776
149609
149284
149286
149614
149780
149784
149619
149289
149292
149625
149789
149794
149631
149296
149301
149637
149799
149804
149644
149306
149313
149652
149809
149817
149664
149325
149335
149675
149824
149832
149688
149349
149365
149696
149839
149846
149710
149380
149397
149720
149853
149859
149730
149414
149433
149741
149865
149872
149752
149455
149475
149763
149878
149882
149773
149493
149513
149782
149887
149891
149790
149533
149558
149810
149903
149891
149828
149590
149361
149614
149792
149816
149744
149446
149418
149751
149872
149896
149758
149422
149438
149765
149909
149887
149786
149494
149486
149790
149929
149908
149816
149550
149562
149824
149929
149930
149842
149600
149621
149850
149939
149945
149871
149664
149629
149880
150011
149916
149689
149491
149523
149822
149992
149905
149864
149648
149612
149867
149976
149964
149890
149666
149684
149899
149976
149982
149913
149710
149740
149931
149994
149982
149943
149766
149609
149876
149892
149899
149919
149751
149655
149907
150030
149990
149937
149744
149752
149942
150010
150011
149964
149806
149688
149960
150167
150015
149831
149697
149698
149932
150081
150001
149980
149837
149828
149985
150041
150052
150005
149860
149911
150022
150023
150015
149899
149824
149899
150022
150009
150076
150016
149867
149925
150041
150072
150159
150044
149874
149875
149934
150093
150158
150043
149887
149990
150075
150086
150117
150093
150014
150039
150101
150106
150108
150080
149995
150067
150128
150141
150135
150132
150092
150049
150175
150133
150179
150176
150150
150181
150193
150178
150209
150214
150197
150275
150251
150216
150180
150219
150231
150276
150226
150186
150214
150259
150310
150291
150270
150231
150186
150211
150178
150032
150102
150101
150005
149950
149840
149886
149963
149975
149920
149865
149739
149798
149903
149929
149912
149864
149716
149728
149694
149888
149873
149856
149653
149628
149783
149847
149889
149848
149693
149653
149813
149876
149823
149752
149584
149653
149825
149877
149863
149798
149629
149557
149734
149810
149867
149816
149637
149607
149787
149854
149799
149718
149529
149632
149814
149865
149852
149783
149600
149516
149706
149791
149863
149813
149636
149599
149780
149849
149787
149703
149513
149626
149809
149860
149849
149781
149600
149512
149701
149787
149857
149807
149627
149595
149779
149849
149790
149700
149508
149702
149819
149789
149858
149783
149594
149546
149752
149833
149803
149572
149530
149587
149801
149850
149834
149753
149560
149418
149737
149745
149849
149788
149588
149540
149759
149833
149791
149610
149504
149585
149798
149850
149835
149753
149556
149421
149723
149745
149849
149790
149586
149561
149756
149831
149744
149740
149418
149587
149789
149852
149837
149763
149542
149503
149613
149784
149853
149795
149585
149551
149764
149841
149794
149603
149515
149584
149797
149854
149840
149759
149534
149521
149563
149797
149852
149809
149560
149503
149713
149808
149879
149820
149618
149590
149784
149857
149788
149701
149506
149623
149817
149872
149859
149785
149588
149514
149711
149800
149880
149824
149627
149596
149793
149867
149796
149705
149504
149620
149821
149879
149861
149785
149581
149502
149705
149798
149883
149825
149624
149576
149796
149871
149823
149593
149547
149607
149834
149849
149778
149740
149564
149684
149839
149822
149884
149800
149593
149495
149713
149827
149901
149832
149617
149577
149800
149877
149818
149631
149546
149619
149838
149859
149784
149747
149565
149682
149852
149863
149897
149816
149615
149508
149722
149832
149908
149842
149632
149588
149809
149885
149828
149641
149557
149609
149844
149877
149813
149745
149543
149675
149859
149883
149898
149820
149614
149509
149726
149830
149904
149845
149628
149608
149800
149875
149772
149817
149412
149607
149812
149912
149852
149743
149482
149560
149851
150000
149890
149821
149601
149558
149678
149809
149860
149859
149638
149589
149768
149784
149824
149862
149712
149586
149807
149902
149819
149738
149463
149600
149834
149912
149859
149759
149524
149636
149863
149930
149896
149816
149606
149467
149765
149808
149904
149836
149623
149529
149761
149836
149906
149859
149643
149587
149815
149893
149829
149674
149517
149613
149865
149909
149859
149760
149524
149634
149866
149922
149891
149813
149605
149399
149825
149786
149924
149797
149626
149480
149747
149841
149871
149858
149646
149589
149771
149767
149817
149878
149744
149596
149824
149924
149855
149712
149476
149536
149836
149979
149967
149720
149385
149459
149844
150083
149870
149808
149598
149395
149828
149768
149917
149789
149614
149454
149736
149829
149854
149866
149659
149609
149789
149756
149801
149872
149732
149572
149817
149911
149853
149655
149484
149543
149845
149914
149862
149731
149458
149541
149845
149966
149923
149729
149415
149523
149853
150009
149875
149810
149580
149445
149760
149800
149905
149828
149603
149482
149749
149827
149891
149853
149602
149524
149763
149819
149910
149859
149616
149564
149811
149894
149813
149681
149461
149557
149838
149891
149820
149724
149464
149603
149853
149881
149804
149766
149537
149644
149861
149877
149898
149811
149548
149483
149606
149834
149882
149871
149507
149433
149711
149828
149886
149840
149558
149471
149737
149812
149889
149843
149590
149516
149793
149879
149815
149576
149466
149498
149867
149874
149823
149705
149431
149535
149832
149899
149828
149716
149438
149544
149832
149900
149834
149730
149452
149574
149843
149902
149874
149781
149536
149314
149766
149761
149899
149759
149541
149383
149700
149798
149888
149811
149499
149407
149706
149817
149895
149824
149525
149430
149718
149827
149900
149834
149555
149492
149779
149871
149790
149583
149436
149464
149829
149857
149795
149675
149377
149492
149805
149871
149794
149691
149393
149509
149811
149876
149803
149698
149406
149540
149822
149887
149864
149771
149478
149425
149561
149783
149843
149837
149433
149355
149658
149786
149866
149797
149469
149352
149667
149786
149863
149792
149474
149370
149679
149791
149871
149803
149507
149462
149730
149833
149707
149741
149203
149475
149695
149866
149757
149650
149298
149443
149778
149856
149771
149652
149322
149442
149777
149854
149772
149655
149330
149451
149780
149855
149782
149667
149353
149477
149786
149858
149830
149731
149407
149375
149466
149748
149792
149828
149334
149274
149599
149740
149826
149752
149392
149279
149617
149743
149835
149759
149415
149295
149628
149752
149836
149760
149421
149313
149642
149761
149843
149769
149453
149380
149702
149811
149707
149538
149267
149359
149747
149802
149725
149589
149250
149373
149734
149815
149727
149598
149252
149376
149734
149816
149730
149603
149262
149397
149743
149821
149744
149623
149286
149420
149750
149825
149796
149691
149348
149293
149426
149702
149761
149775
149277
149199
149557
149705
149791
149715
149319
149187
149560
149699
149793
149713
149333
149199
149569
149702
149793
149711
149340
149231
149586
149713
149801
149722
149376
149303
149656
149769
149663
149430
149210
149264
149714
149752
149677
149527
149153
149280
149686
149770
149676
149534
149151
149301
149690
149774
149680
149542
149162
149304
149689
149774
149689
149556
149184
149336
149696
149778
149745
149628
149244
149208
149323
149646
149697
149749
149157
149092
149480
149642
149736
149654
149220
149091
149490
149642
149742
149652
149230
149094
149498
149644
149741
149649
149233
149110
149504
149647
149745
149655
149254
149128
149517
149657
149750
149665
149291
149228
149591
149715
149579
149446
149006
149211
149598
149719
149611
149465
149035
149197
149622
149721
149617
149468
149048
149201
149624
149719
149622
149473
149070
149212
149625
149720
149631
149488
149089
149245
149638
149727
149693
149563
149165
149020
149348
149562
149669
149608
149115
148979
149410
149579
149689
149594
149140
148981
149423
149583
149686
149590
149140
149002
149432
149586
149688
149592
149152
149018
149444
149594
149689
149594
149176
149098
149508
149653
149503
149367
148877
149086
149509
149655
149536
149376
148901
149077
149546
149657
149546
149380
148919
149096
149557
149660
149551
149388
148938
149105
149558
149660
149563
149407
148964
149143
149571
149668
149632
149491
149054
148877
149255
149481
149602
149538
149001
148842
149311
149501
149613
149508
148999
148844
149318
149498
149613
149503
149011
148861
149333
149505
149620
149513
149033
148875
149348
149515
149626
149525
149070
148982
149445
149595
149427
149207
148770
148944
149474
149571
149464
149273
148776
148960
149482
149589
149474
149290
148797
148990
149488
149591
149470
149290
148793
148979
149468
149580
149540
149382
148872
148753
149065
149394
149502
149459
148815
148669
149200
149407
149534
149423
148852
148674
149209
149410
149539
149422
148879
148703
149233
149423
149549
149439
148930
148832
149332
149511
149305
149205
148488
148826
149316
149512
149367
149178
148577
148806
149367
149505
149344
149149
148562
148784
149358
149486
149366
149166
148599
148824
149371
149497
149453
149272
148690
148599
148893
149294
149408
149369
148641
148471
149066
149299
149447
149321
148702
148498
149092
149314
149456
149326
148718
148520
149113
149324
149463
149342
148770
148653
149246
149434
149220
148937
148414
148562
149240
149368
149219
148976
148344
148602
149247
149389
149247
149020
148382
148618
149260
149402
149265
149042
148411
148663
149273
149410
149368
149166
148534
148296
148836
149154
149327
149221
148504
148294
148946
149201
149356
149223
148540
148316
148974
149212
149365
149235
148596
148492
149150
149337
149074
148656
148198
148362
149108
149234
149097
148832
148145
148411
149124
149285
149129
148874
148173
148440
149145
149299
149150
148903
148210
148487
149162
149313
149269
149042
148367
148024
148744
149014
149238
149046
148351
148075
148819
149084
149262
149101
148376
148114
148857
149105
149257
149130
148482
148205
148931
149170
148910
148608
147877
148196
148967
149143
148988
148712
147935
148226
149011
149183
149025
148754
147976
148283
149038
149204
149157
148903
148132
147790
148557
148881
149111
148926
148130
147844
148660
148958
149153
148985
148200
148045
148857
149121
148815
148481
147664
147970
148825
149020
148782
148456
147581
147906
148794
149005
148835
148525
147648
147999
148849
149045
148998
148712
147834
147470
148298
148698
148956
148775
147831
147520
148441
148787
149009
148825
147923
147734
148660
148965
148623
148238
147315
147723
148709
148901
148752
148407
147452
147780
148710
148907
148780
148439
147455
147001
148055
148442
148768
148520
147509
147150
148202
148573
148831
148606
147619
147406
148454
148790
148422
147947
146984
147386
148508
148725
148531
148126
147063
147527
148579
148785
148742
148387
147310
146819
147908
148351
148629
148499
147372
146796
147900
148331
148594
148334
147223
147001
148115
148507
148159
147792
146491
147091
148226
148543
148307
147889
146657
147207
148339
148602
148557
148180
146971
146467
147593
148129
148470
148247
146997
146629
147829
148282
148528
148347
147265
147000
148142
148500
147915
147380
146117
146723
147960
148276
148208
147758
146487
145906
147391
147829
148256
147907
146621
146095
147522
147996
148340
148054
146779
146517
147882
148304
147828
147272
145900
146603
147914
148200
148274
147833
146491
145564
147166
147664
147955
147549
145997
145685
147263
147825
147361
146805
145053
145926
147490
147894
147613
147034
145392
146201
147677
148021
148001
147506
145945
145287
146822
147469
147875
147579
146119
146031
147489
147978
147272
146708
144958
145400
147098
147565
147415
146818
145027
144477
146253
146981
147523
147107
145425
145144
146919
147519
147010
146287
144442
145480
147120
147522
147574
147018
145169
144531
146305
147024
147250
146790
145033
144280
146345
147026
146769
145999
143785
143183
145280
146294
146947
146466
144376
144112
146276
147014
146393
145618
143204
144655
146549
146981
147245
146762
144611
142996
145538
146488
145573
144476
141842
143333
145712
146350
146351
145555
142962
142475
145331
146245
145715
144274
141870
143636
145924
146326
146541
145826
143302
141305
144417
145579
144686
143293
140280
142282
145022
145666
145773
144888
141895
141451
144887
145843
145959
144640
141716
138187
142721
143958
144984
143808
140340
139899
143712
144918
144905
143577
139412
139346
143842
145150
144768
142989
137684
136442
141792
143954
142739
140885
135085
139382
143284
144449
144432
143038
138567
137357
142376
144107
143723
141943
136581
136168
141736
143505
143356
141282
135303
134877
141036
143255
143238
140876
134599
134320
140685
143213
143152
140462
134041
133788
140229
143066
142969
139998
133569
133386
139773
142863
142753
139558
133230
133096
139352
142638
142521
139154
132983
132889
138965
142399
142277
138787
132814
132755
138621
142154
142031
138467
132709
132675
138323
141909
141787
138189
132652
132638
138064
141665
141544
137949
132632
132634
137844
141424
141308
137748
132642
132656
137660
141192
141081
137579
132676
132699
137506
140970
140863
137440
132727
132758
137379
140757
140655
137325
132792
132828
137276
140554
140459
137233
132866
132905
137195
140366
140278
137160
132947
132988
137129
140192
140111
137102
133031
133074
137077
140032
139958
137056
133118
133161
137037
139886
139819
137021
133204
133247
137007
139754
139694
136995
133289
133331
136985
139637
139584
136977
133372
133412
136969
139533
139486
136963
133452
133490
136958
139441
139400
136954
133528
133565
136951
139361
139326
136949
133601
133635
136947
139291
139260
136946
133669
133701
136946
139230
139204
136946
133732
133762
136947
139178
139155
136949
133791
133818
136951
139133
139114
136954
133845
133870
136956
139095
139079
136960
133895
133917
136963
139062
139049
136967
133940
133961
136971
139035
139023
136976
133982
134001
136980
139012
139002
136985
134020
134037
136990
138992
138984
136995
134054
134070
137000
138976
138969
137005
134086
134100
137010
138962
138956
137015
134115
134128
137019
138950
138945
137024
134142
134154
137029
138940
138936
137033
134166
134177
137038
138931
138927
137042
134188
134198
137046
138923
138920
137051
134208
134217
137054
138916
138913
137059
134227
134235
137062
138910
138908
137066
134243
134251
137070
138905
138903
137074
134259
134266
137077
138901
138900
137081
134273
134279
137084
138897
138897
137088
134286
134292
137091
138895
138894
137095
134298
134303
137098
138892
138892
137101
134309
134314
137104
138890
138891
137108
134320
134324
137111
138889
138890
137114
134330
134334
137117
138889
138889
137121
134339
134343
137123
138888
138889
137127
134348
134352
137130
138888
138890
137133
134357
134361
137136
138889
138891
137140
134366
134369
137143
138890
138892
137147
134374
134378
137149
138891
138893
137153
134382
134386
137156
138893
138895
137160
134390
134394
137163
138895
138898
137167
134399
134402
137170
138898
138900
137174
134407
134410
137177
138901
138904
137181
134415
134418
137184
138904
138907
137188
134422
134426
137191
138907
138911
137195
134430
134434
137199
138911
138915
137203
134438
134442
137206
138915
138919
137210
134446
134450
137214
138920
138924
137218
134454
134457
137221
138924
138928
137225
134461
134465
137229
138930
138934
137233
134469
134473
137237
138935
138939
137241
134477
134480
137245
138940
138945
137249
134484
134488
137252
138946
138951
137257
134492
134495
137261
138952
138957
137265
134499
134503
137269
138959
138963
137273
134506
134510
137277
138965
138970
137281
134514
134517
137285
138972
138977
137289
134521
134525
137293
138979
138983
137298
134528
134532
137302
138985
138991
137306
134535
134539
137310
138993
138998
137314
134542
134546
137318
139000
139005
137323
134549
134553
137327
139007
139012
137331
134556
134559
137335
139015
139020
137339
134563
134566
137343
139022
139027
137348
134569
134572
137352
139030
139035
137356
134576
134579
137360
139037
139043
137364
134582
134585
137368
139045
139050
137372
134588
134591
137376
139053
139058
137380
134594
134597
137384
139061
139066
137388
134600
134603
137392
139068
139074
137396
134606
134609
137400
139076
139082
137404
134612
134614
137408
139084
139089
137412
134617
134620
137416
139092
139097
137420
134623
134625
137424
139100
139105
137428
134628
134630
137432
139107
139113
137436
134633
134635
137439
139115
139121
137443
134638
134640
137447
139123
139128
137451
134642
134644
137454
139131
139136
137458
134647
134649
137461
139138
139144
137465
134651
134653
137468
139145
139151
137472
134655
134656
137475
139153
139158
137479
134658
134660
137482
139160
139165
137486
134662
134663
137488
139167
139173
137492
134665
134666
137495
139175
139181
137499
134671
134673
137503
139184
139187
137507
134676
134677
137506
139185
139172
137495
134675
134668
137479
139155
139199
137499
134683
134757
137596
139350
139443
137669
134815
142050
144687
146365
146737
146887
147544
147881
148027
148172
148586
148854
149137
149348
149503
149618
149700
149759
149802
149833
149856
149874
149887
149898
149906
149913
149919
149923
149926
149929
149931
149932
149933
149933
149929
149930
149938
149943
149951
149959
149970
149980
149992
150003
150013
150019
150022
150021
150019
150017
150015
150014
150012
150011
150009
150007
150005
150004
150002
150000
149998
149996
149994
149992
149991
149990
149989
149988
149988
149988
149989
149990
149992
149994
149997
150000
150004
150009
150014
150019
150025
150031
150038
150044
150050
150057
150062
150068
150073
150077
150080
150083
150085
150086
150086
150086
150085
150084
150082
150079
150077
150073
150070
150066
150062
150058
150054
150049
150045
150041
150037
150033
150029
150025
150021
150018
150014
150011
150008
150004
150002
149999
149996
149993
149991
149989
149987
149985
149983
149981
149979
149978
149976
149975
149974
149972
149971
149970
149970
149969
149968
149967
149967
149966
149966
149965
149965
149965
149964
149964
149964
149964
149964
149964
149964
149964
149964
149965
149965
149965
149966
149966
149966
149967
149967
149968
149968
149969
149969
149970
149970
149971
149972
149972
149973
149973
149974
149975
149975
149976
149977
149977
149978
149979
149979
149980
149981
149982
149983
149983
149984
149985
149986
149987
149988
149989
149989
149990
149991
149992
149993
149995
149997
150000
150007
150012
150015
150015
150017
150005
150012
150012
150020
150026
150029
150029
150028
150026
150024
150023
150021
150020
150019
150018
150017
150017
150016
150015
150015
150014
150014
150013
150013
150013
150012
150012
150012
150011
150011
150011
150011
150010
150010
150010
150010
150009
150009
150009
150009
150008
150008
150008
150008
150008
150007
150007
150007
150007
150006
150006
150006
150006
150006
150005
150005
150005
150005
150005
150004
150004
150004
150004
150003
150003
150003
150002
150002
150002
150001
150001
150000
150000
149999
149999
149998
149997
149996
149994
149994
149995
149997
149999
150000
150004
150009
150019
150024
150024
150021
150019
150016
150013
150010
150008
150005
150003
150000
149998
149995
149993
149990
149988
149985
149983
149980
149979
149975
149974
149971
149970
149967
149966
149963
149962
149959
149958
149955
149955
149951
149951
149948
149948
149945
149945
149941
149941
149938
149938
149935
149935
149932
149932
149929
149930
149927
149927
149924
149924
149921
149922
149919
149919
149916
149917
149914
149915
149912
149912
149909
149910
149907
149908
149905
149906
149903
149904
149901
149902
149899
149900
149897
149898
149896
149897
149894
149895
149893
149894
149891
149893
149891
149892
149890
149891
149889
149891
149889
149892
149890
149892
149890
149893
149892
149894
149893
149896
149895
149898
149897
149900
149899
149902
149901
149905
149904
149907
149906
149910
149908
149912
149911
149914
149913
149916
149915
149918
149917
149920
149918
149921
149920
149922
149921
149923
149921
149923
149922
149924
149922
149923
149922
149923
149921
149923
149921
149922
149920
149922
149920
149921
149919
149920
149918
149919
149917
149918
149916
149917
149915
149916
149914
149915
149913
149914
149912
149913
149911
149912
149910
149911
149909
149910
149908
149909
149907
149909
149907
149912
149920
149929
149953
149952
149950
149963
149946
149949
149962
149946
149949
149963
149946
149950
149964
149947
149951
149964
149948
149952
149965
149949
149952
149966
149949
149953
149967
149950
149954
149967
149951
149955
149968
149952
149955
149969
149952
149956
149970
149953
149957
149970
149954
149957
149971
149954
149958
149972
149955
149959
149972
149955
149959
149973
149956
149960
149973
149956
149960
149973
149956
149960
149974
149956
149960
149974
149956
149960
149974
149956
149960
149974
149956
149960
149973
149955
149959
149973
149954
149958
149972
149953
149957
149971
149951
149955
149970
149949
149953
149969
149948
149952
149967
149946
149950
149966
149944
149948
149964
149942
149946
149963
149940
149945
149962
149939
149943
149962
149938
149942
149962
149937
149941
149960
149936
149940
149960
149936
149941
149961
149936
149941
149962
149937
149942
149963
149937
149942
149964
149938
149943
149965
149939
149945
149966
149940
149946
149967
149941
149947
149969
149942
149948
149970
149944
149950
149971
149945
149951
149972
149947
149953
149974
149948
149954
149975
149949
149956
149976
149951
149957
149977
149952
149958
149979
149954
149960
149980
149956
149961
149981
149957
149963
149982
149959
149964
149983
149960
149966
149985
149962
149967
149986
149963
149969
149987
149965
149970
149988
149967
149972
149989
149969
149974
149991
149970
149975
149992
149972
149977
149993
149974
149979
149994
149976
149981
149996
149978
149982
149997
149980
149984
149998
149982
149986
150000
149984
149988
150001
149986
149990
150002
149989
149992
150004
149991
149995
150005
149993
149997
150007
149996
149999
150008
149999
150002
150010
150001
150004
150011
150004
150007
150012
150007
150010
150014
150010
150012
150016
150013
150015
150017
150017
150018
150019
150020
150022
150020
150023
150013
150015
150015
150015
150015
150014
150014
150013
150013
150012
150012
150011
150011
150011
150010
150010
150010
150009
150009
150008
150008
150008
150007
150007
150007
150006
150006
150005
150005
150004
150004
150003
150002
150002
150001
150000
149999
149998
149997
149996
149995
149994
149992
149991
149990
149990
149989
149989
149990
149992
149994
149995
149997
150000
150002
150004
150006
150007
150008
150009
150008
150008
150007
150006
150004
150003
150002
150001
149999
149998
149997
149996
149995
149994
149993
149992
149991
149990
149989
149989
149988
149987
149986
149985
149985
149983
149966
149963
149963
149968
149982
149986
149986
149993
149992
149994
149994
149994
149995
149996
149996
149997
149998
149999
150000
150001
150002
150002
150003
150005
150006
150007
150010
150009
150008
150007
150006
150005
150004
150004
150003
150002
150001
150000
149999
149998
149998
149997
149997
149997
149997
149996
149996
149995
149995
149997
149997
149998
149991
149990
149990
149990
149990
149987
149988
149973
149974
149969
149969
149970
149970
149971
149972
149992