/*--------------------------------*- C++ -*----------------------------------*\
| =========                 |                                                 |
| \\      /  F ield         | OpenFOAM: The Open Source CFD Toolbox           |
|  \\    /   O peration     | Version:  v2006                                 |
|   \\  /    A nd           | Website:  www.openfoam.com                      |
|    \\/     M anipulation  |                                                 |
\*---------------------------------------------------------------------------*/
FoamFile
{
    version     2.0;
    format      ascii;
    class       volScalarField;
    location    "0.03";
    object      k;
}
// * * * * * * * * * * * * * * * * * * * * * * * * * * * * * * * * * * * * * //

dimensions      [0 2 -2 0 0 0 0];


internalField   nonuniform List<scalar> 
16277
(
78.8299
78.8304
78.8373
78.8393
78.8447
78.838
78.8235
78.7778
78.6714
78.4992
78.2758
78.0255
77.7646
77.5006
77.2341
76.9632
76.685
76.3971
76.0982
75.7877
75.4654
75.1315
74.7863
74.4301
74.0631
73.6855
73.2975
72.8994
72.4915
72.0742
71.6476
71.2124
70.7688
70.3173
69.8584
69.3926
68.9202
68.442
67.9583
67.4697
66.9768
66.48
65.9801
65.4774
64.9726
64.4663
63.9591
63.4515
62.944
62.4374
61.9321
61.4288
60.928
60.4303
59.9362
59.4465
58.9615
58.4819
58.0082
57.5409
57.0806
56.6278
56.1831
55.7469
55.3197
54.9019
54.4941
54.0966
53.7099
53.3343
52.9701
52.6179
52.278
51.9509
51.6368
51.336
51.0479
50.7708
50.5024
50.2398
49.983
49.7394
49.5305
49.3863
49.3213
49.3124
49.3269
49.3458
49.3572
49.3559
49.3457
49.28
49.1291
48.8767
48.3589
47.5049
43.1684
38.7101
45.4325
47.7534
46.0528
41.1974
34.553
31.6601
38.9315
44.7533
42.3257
35.3922
28.9411
27.2265
33.9695
41.2924
39.0486
31.3188
25.4639
24.3978
30.4339
38.2431
36.4189
28.5569
23.2064
22.5086
28.0445
35.835
34.379
26.772
21.675
21.1901
26.4365
33.9277
32.7291
25.4876
20.5631
20.2054
25.2546
32.3788
31.3617
24.5039
19.7065
19.4303
24.3347
31.0811
30.195
23.7124
19.0155
18.7921
23.5848
29.9645
29.1771
23.0499
18.4338
18.2456
22.9501
28.9834
28.272
22.4759
17.9272
17.7642
22.3943
28.1061
27.4545
21.9635
17.4748
17.3296
21.8946
27.3098
26.7069
21.4963
17.0617
16.9292
21.4367
26.579
26.0171
21.0641
16.6778
16.5549
21.0116
25.9027
25.3752
20.66
16.3165
16.2009
20.613
25.2716
24.7735
20.2789
15.973
15.863
20.2362
24.6794
24.2075
19.9169
15.6437
15.538
19.8779
24.1218
23.674
19.5715
15.3259
15.2236
19.5358
23.5962
23.1706
19.2413
15.0176
14.9181
19.2085
23.0997
22.6943
18.9247
14.7173
14.62
18.8943
22.6295
22.2421
18.6199
14.4237
14.3282
18.5916
22.1826
21.8113
18.3254
14.1356
14.0415
18.2987
21.7562
21.3991
18.0394
13.852
13.7589
18.0139
21.3477
21.0033
17.7604
13.5717
13.4792
17.7357
20.955
20.6218
17.487
13.2939
13.2017
17.4626
20.576
20.2528
17.2177
13.0177
12.9254
17.1934
20.2091
19.8946
16.9515
12.7422
12.6495
16.9269
19.8525
19.5458
16.6872
12.4668
12.3735
16.6621
19.505
19.205
16.4241
12.1907
12.0966
16.3983
19.1653
18.8713
16.1613
11.9136
11.8185
16.1347
18.8323
18.5437
15.8982
11.6349
11.5387
15.8707
18.5052
18.2214
15.6345
11.3544
11.257
15.6059
18.1833
17.9037
15.3696
11.0717
10.9732
15.3401
17.8659
17.5902
15.1035
10.787
10.6875
15.0732
17.5525
17.2803
14.8365
10.5004
10.4002
14.8053
17.2427
16.9736
14.568
10.2124
10.1117
14.536
16.936
16.6698
14.2982
9.92351
9.82267
14.2656
16.6321
16.3686
14.0275
9.63452
9.53416
13.9944
16.331
16.0701
13.7564
9.34662
9.24746
13.7232
16.0325
15.7743
13.4857
9.06133
8.9643
13.4529
15.7371
15.482
13.2168
8.78062
8.68688
13.185
15.4456
15.1941
12.9515
8.50698
8.41794
12.9213
15.1587
14.9114
12.6916
8.24337
8.16071
12.664
14.8776
14.6354
12.4397
7.99331
7.91903
12.4155
14.6038
14.368
12.1986
7.76085
7.69737
12.1791
14.3394
14.1116
11.9721
7.55054
7.50106
11.9575
14.0871
13.8694
11.7642
7.3687
7.33487
11.7508
13.8494
13.6425
11.5676
7.22323
7.20433
11.5569
13.6276
13.4329
11.3871
7.11613
7.11318
11.3805
13.4236
13.2421
11.2271
7.05512
7.06485
11.2249
13.2387
13.0727
11.0906
7.0373
7.06157
11.0923
13.0745
12.9241
10.9746
7.05397
7.10451
10.9799
12.9306
12.7963
10.8749
7.11218
7.19002
10.8839
12.8081
12.6909
10.7936
7.21368
7.31518
10.8062
12.7073
12.6056
10.7319
7.35091
7.46929
10.7489
12.6263
12.5394
10.6909
7.5141
7.64462
10.7134
12.5644
12.4928
10.6729
7.69644
7.83645
10.7021
12.5224
12.4661
10.6775
7.89323
8.03954
10.7167
12.5006
12.4589
10.6992
8.09866
8.24718
10.7537
12.5015
12.4689
10.7425
8.30674
8.45414
10.8107
12.5196
12.4916
10.8046
8.51226
8.65526
10.8847
12.5535
12.5295
10.8833
8.71025
8.84591
10.9728
12.6008
12.58
10.975
8.89648
9.0225
11.0722
12.6586
12.6395
11.0748
9.06782
9.18206
11.1737
12.7218
12.7035
11.1762
9.22095
9.32169
11.2755
12.7862
12.7677
11.2773
9.35357
9.44012
11.3755
12.8484
12.829
11.376
9.46484
9.53725
11.471
12.9052
12.8842
11.4699
9.55504
9.61405
11.5599
12.954
12.9309
11.557
9.62544
9.67236
11.6409
12.9929
12.9671
11.6356
9.67811
9.71446
11.7121
13.02
12.9914
11.7044
9.71535
9.74154
11.7727
13.035
13.002
11.7622
9.73919
9.7574
11.8219
13.0388
13.001
11.8088
9.75249
9.76425
11.8601
13.0317
12.9893
11.8444
9.75717
9.76478
11.8882
13.0158
12.9674
11.8691
9.75456
9.75962
11.9066
12.9906
12.9357
11.8829
9.74445
9.74838
11.916
12.9559
12.8954
11.8883
9.73012
9.73318
11.9175
12.9129
12.8473
11.8862
9.71251
9.71491
11.9117
12.8622
12.7922
11.8772
9.69231
9.69417
11.8993
12.8048
12.7308
11.8619
9.67
9.67142
11.8808
12.7411
12.6635
11.8407
9.64597
9.64703
11.8568
12.6718
12.5912
11.8145
9.62053
9.62136
11.8287
12.5976
12.5146
11.7836
9.59409
9.59484
11.7965
12.5194
12.4343
11.7488
9.56687
9.56789
11.7608
12.4377
12.3499
11.7112
9.53959
9.54091
11.7206
12.3543
12.2633
11.6663
9.5106
9.52223
11.6787
12.2705
12.1914
11.666
9.50879
9.53195
11.6363
12.1785
12.1595
11.6752
9.57228
9.67983
11.4628
12.11
12.7871
12.1759
10.2116
10.1946
10.8253
11.5064
13.7525
16.274
18.9136
21.1425
22.6831
24.7238
26.018
27.1236
27.8721
28.3952
28.6418
28.6368
28.3664
27.7634
26.8868
25.3561
24.2658
22.0813
20.0988
17.9952
15.8298
14.2148
12.5788
12.5017
8.15231
7.91495
12.4634
12.5336
12.506
12.4645
7.70883
7.55652
12.4753
12.5053
12.5594
12.5128
7.46126
7.46482
12.537
12.5776
12.6178
12.5431
7.39515
7.39761
12.5603
12.6483
12.6728
12.5786
7.40597
7.41487
12.5885
12.7022
12.721
12.6074
7.42723
7.43885
12.6233
12.7539
12.7699
12.6386
7.45169
7.46542
12.6597
12.8054
12.822
12.6718
7.47862
7.49363
12.6972
12.859
12.8762
12.7093
7.50674
7.52263
12.7347
12.9135
12.931
12.7471
7.53644
7.55255
12.7714
12.9699
12.9878
12.7881
7.5669
7.58305
12.809
13.0275
13.0462
12.8288
7.59873
7.61473
12.8501
13.087
13.106
12.8705
7.63055
7.64699
12.8908
13.1478
13.1676
12.9128
7.66373
7.68024
12.9346
13.2106
13.2308
12.9565
7.6969
7.71399
12.9778
13.2749
13.2958
13.0011
7.73148
7.74867
13.0241
13.3412
13.3625
13.0472
7.76605
7.78387
13.0699
13.409
13.4311
13.0943
7.80206
7.82
13.1188
13.479
13.5017
13.1429
7.83814
7.85694
13.1715
13.5504
13.5736
13.1918
7.87501
7.89442
13.2215
13.6241
13.6478
13.2449
7.91257
7.93245
13.277
13.6989
13.7232
13.2977
7.95075
7.97099
13.3304
13.776
13.8008
13.3548
7.98942
8.00996
13.3896
13.8541
13.8794
13.4114
8.0285
8.0493
13.447
13.9344
13.9602
13.473
8.06792
8.08888
13.5107
14.0152
14.0414
13.5341
8.10755
8.12868
13.5727
14.0978
14.1243
13.6005
8.14733
8.16843
13.641
14.1802
14.2067
13.6661
8.18697
8.20817
13.7073
14.2632
14.2896
13.737
8.22655
8.24739
13.7796
14.3443
14.37
13.8063
8.26535
8.28589
13.849
14.4239
14.4486
13.8795
8.30333
8.32291
13.9228
14.4985
14.5214
13.9492
8.33921
8.35777
13.9905
14.5681
14.5887
14.02
8.37296
8.38971
14.0542
14.629
14.6465
14.0844
8.40444
8.41884
14.1135
14.6798
14.6932
14.1406
8.43204
8.44455
14.1608
14.7159
14.7239
14.1823
8.45677
8.46722
14.1949
14.735
14.7363
14.204
8.4775
8.48716
14.2079
14.7388
14.7254
14.2032
8.49634
8.50507
14.1893
14.7201
14.6884
14.169
8.51429
8.52405
14.1387
14.6735
14.6247
14.0905
8.53493
8.54893
14.0392
14.6013
14.534
13.9679
8.56447
8.58629
13.8892
14.5008
14.4177
13.7909
8.61223
8.64651
13.6861
14.3768
14.2794
13.5581
8.68769
8.74184
13.4304
14.2312
14.126
13.2671
8.80632
8.88964
13.118
14.0759
13.9713
12.9275
8.98744
9.11311
12.7582
13.9224
13.83
12.5484
9.26098
9.44889
12.3604
13.789
13.7268
12.1289
9.67126
9.92605
11.9593
13.7063
13.6835
11.8476
10.149
10.362
11.6372
13.677
13.6598
11.4134
10.5781
10.7307
11.2691
13.7522
13.7461
11.2157
10.8891
11.035
10.9718
13.8953
13.9449
10.8986
11.1928
11.34
10.8597
14.1972
14.3134
10.868
11.4472
11.5659
11.0354
14.7012
14.868
11.119
11.7209
11.8933
11.4868
15.3917
15.7334
11.9219
12.0266
12.2374
12.8806
16.5994
16.9045
13.5465
12.4591
10.7554
9.7789
10.5366
14.3896
11.4733
11.1177
10.9894
10.7817
14.1909
14.3994
10.5874
11.2495
11.466
10.286
14.1867
14.6122
10.3366
11.7308
11.9495
10.2585
14.6065
15.3427
10.5955
12.153
12.327
10.6864
15.4019
16.4784
11.4422
12.5347
12.7392
11.8307
16.8611
18.5823
13.2328
13.1113
13.4244
14.1102
19.2808
11.0009
9.62381
12.2991
12.5869
11.5781
16.6716
16.9325
11.5041
12.4433
12.5769
12.3794
18.774
19.2805
12.6418
12.6822
12.9179
13.6395
20.7871
21.5081
14.2296
13.2318
13.8224
15.8684
23.3396
23.7063
16.9821
14.5574
13.1895
10.5427
12.8817
20.5341
13.0655
12.9831
12.9553
13.0458
21.0016
22.9779
14.3397
13.3253
13.6198
14.7727
23.3467
26.2504
17.2561
14.3965
15.3247
19.1304
27.1918
15.0024
11.5284
13.2769
13.7142
15.1404
25.151
26.3677
15.9869
13.7749
14.5151
19.1161
30.4634
32.0703
21.0916
15.3507
16.9654
24.3163
33.8679
19.2135
13.5549
13.7125
14.6163
19.1951
32.1106
33.1489
20.1171
14.8915
16.6604
25.9759
39.0781
40.9668
29.1594
18.1843
14.2847
16.097
25.2883
41.9614
25.8209
16.2249
17.0958
28.1594
44.7913
53.4149
37.5311
20.2277
21.7263
40.5095
55.0944
39.1843
23.739
16.5406
21.3296
43.168
60.526
63.3092
47.2175
23.5342
17.7223
28.2599
49.1706
74.4527
56.0679
25.4634
29.1506
62.7662
79.3615
70.9388
44.1117
19.4632
37.6472
81.3866
94.1326
87.7077
63.1637
20.071
37.9576
89.7694
105.686
107.5
89.5896
37.5657
39.4337
87.8734
105.507
101.689
86.3179
42.834
56.0397
95.7902
102.203
77.8089
53.785
38.9136
45.2212
71.1095
82.5084
58.2476
41.9304
31.8605
33.4266
51.8589
65.2517
59.3044
43.1609
29.6794
23.6911
24.8721
36.4187
48.3955
37.3623
27.0526
22.6372
24.6655
32.9385
43.2356
32.0412
23.9505
21.6431
27.6241
39.5484
23.6183
18.0489
20.1133
21.1872
24.8167
34.9943
31.9623
21.9114
19.3988
18.878
15.3954
19.0629
29.4718
20.7285
19.3559
18.1542
18.7879
26.7679
16.3679
14.0394
18.0659
18.0289
17.9918
25.4173
22.8499
16.5374
17.3215
17.5968
12.9468
14.3595
22.0673
15.9894
16.9673
16.5506
14.7229
19.8844
12.7605
11.8921
17.1238
16.0888
14.4696
19.5668
17.6038
13.3505
15.8212
16.6569
11.0814
11.6169
17.5507
13.1866
15.3314
15.2411
12.198
15.8979
10.7393
10.3867
16.1386
14.7547
12.4778
16.3461
14.0678
11.348
14.5848
15.0298
10.291
12.1993
9.12941
9.43371
15.7085
13.7653
10.0121
12.2992
11.439
9.41555
14.2905
16.0118
8.42179
8.36063
11.299
9.019
13.451
14.0132
8.83445
10.3952
7.903
8.43081
15.1663
12.8207
8.44054
9.99935
9.45547
8.32677
13.5129
15.3866
7.7519
7.32509
9.42996
7.93759
12.789
13.4635
7.99197
8.8673
7.05402
7.50396
15.408
12.6519
7.52853
8.70887
8.21795
7.46022
13.3795
14.8704
7.87132
6.76093
8.10675
7.28346
12.1951
13.0584
7.13095
7.6829
6.43574
7.8286
14.5757
12.0921
6.89702
7.44324
7.06082
6.65606
13.1507
14.696
7.93228
6.05768
6.95417
6.73121
12.2935
14.0581
7.00289
5.934
7.61334
6.71002
11.6843
12.5722
6.70436
7.15369
6.21452
7.40281
14.4571
11.9011
6.74017
7.30225
6.96735
6.66911
12.833
14.7042
7.44249
6.12107
7.22061
6.72374
12.0292
12.9919
6.57319
6.82789
6.10471
7.72588
15.0151
12.2727
6.51603
6.67748
6.36824
6.30756
13.2812
15.2415
7.81549
5.87079
6.34832
6.33593
12.2731
13.4534
6.13428
5.98543
5.703
8.36128
15.2775
12.5132
5.83487
5.98242
5.47158
7.13455
14.6348
12.0081
5.95463
6.06597
5.658
5.81004
13.0471
15.0805
7.73532
5.4913
5.83039
5.92291
12.3056
13.5152
5.75765
5.31322
5.37694
8.37933
15.4982
12.5968
5.43411
5.3761
5.07516
7.01572
14.8011
11.9315
5.56529
5.51511
5.1204
5.51381
13.0881
15.3207
7.80509
5.18545
5.50021
5.69613
12.4333
13.7915
5.63306
5.04611
5.24972
8.54391
15.9265
12.9433
5.23175
5.08194
4.91428
7.07839
15.286
12.2484
5.40203
5.2791
4.85113
5.40186
13.54
15.9168
8.02142
5.02053
5.13938
5.46719
12.8413
14.2535
5.45928
4.71703
5.12533
8.26593
17.5342
13.5884
4.78211
4.67988
4.7
7.22297
15.9912
12.5578
5.10326
4.90373
4.53053
5.23861
14.0199
16.4234
8.65839
4.95973
4.62513
4.89344
13.2167
16.105
7.23055
4.66335
4.85507
5.08432
12.7302
14.1832
5.15884
4.47509
4.97738
8.6239
17.0058
13.5022
4.89147
4.58449
4.65766
7.33552
16.1752
12.7084
5.04979
4.81036
4.46315
5.22724
14.3131
17.4998
8.8026
5.01256
4.60338
4.87112
13.7941
16.8015
7.54191
4.70984
4.83398
5.09298
13.1554
14.7846
5.29515
4.47476
5.06768
9.17457
17.4226
13.9157
4.97952
4.60979
4.73208
7.61074
16.967
13.4657
5.10707
4.81643
4.46042
5.28839
15.1836
19.0216
9.09212
5.15396
4.57437
4.77903
14.7378
17.9711
8.41063
4.97169
4.60037
4.68352
14.0436
16.7627
7.64303
4.75545
4.84657
5.11257
13.3093
15.0104
5.3841
4.51986
5.19256
9.47106
18.1653
14.471
5.0782
4.67992
4.87677
8.03692
17.8106
14.0488
5.22173
4.90758
4.54832
5.50982
15.9201
20.0416
9.58449
5.33635
4.66893
4.95528
15.5758
18.8974
8.77341
5.13412
4.67282
4.79279
14.9022
17.7578
7.95396
4.86883
4.90568
5.2363
14.0079
15.8496
5.48482
4.57319
5.38062
10.1304
19.0731
15.3286
5.26121
4.78787
5.24318
8.81203
19.0404
15.0515
4.82045
4.78741
5.04182
8.29553
18.0813
14.3893
5.36465
5.04696
4.72224
5.75246
16.304
19.9649
10.2211
5.56112
4.89892
5.29639
15.8836
19.7299
9.13041
5.40537
4.88433
4.97255
15.515
18.6663
8.55482
5.15878
5.12957
5.49072
14.7376
16.6957
5.83639
4.80111
5.6945
10.7054
20.3157
16.2432
5.53378
5.03284
5.56317
9.40132
20.1149
15.9949
5.1526
5.01873
5.33925
8.88336
19.1651
15.2006
5.6524
5.25107
4.93063
6.04475
17.3401
20.8756
11.1875
5.89242
5.20146
5.73811
17.1328
21.3461
9.77838
5.7771
5.12527
5.18114
16.7688
20.1902
9.24238
5.50285
5.32374
5.76885
15.8319
17.9563
6.14186
4.98399
6.00489
11.6105
21.395
17.3448
5.91583
5.28567
5.90292
10.1219
21.7284
16.9515
5.28565
5.21004
5.77928
9.54363
20.7288
16.5178
5.32584
5.18733
5.64026
9.49707
20.0447
15.892
5.87612
5.43101
5.14486
6.40013
18.1452
23.0925
11.7091
6.29932
5.41639
5.93671
18.3494
22.8572
10.4622
6.1155
5.37271
5.55449
18.0101
21.7643
10.0039
5.98363
5.33727
5.51868
17.1608
20.7786
9.92546
5.83534
5.57664
6.10527
16.5179
18.8613
6.52011
5.25862
6.43616
12.3399
22.9721
18.6392
6.30038
5.60993
6.33994
10.8972
23.5426
18.4533
5.69907
5.55587
6.21159
10.3058
22.4226
17.7782
5.70964
5.52356
6.06898
10.3499
21.4833
17.1278
6.3465
5.75489
5.4642
6.8291
19.4963
23.669
12.8763
6.74493
5.80214
6.57397
19.3887
24.5213
11.3305
6.60808
5.73972
5.87965
19.3121
23.7024
10.8808
6.4816
5.71266
5.96947
18.7425
22.7175
10.8195
6.30859
5.88833
6.52434
17.9321
20.5044
7.11958
5.6094
7.10596
13.0703
26.2636
20.6646
6.53239
5.94864
6.85467
11.6699
25.4871
19.9263
6.05356
5.89798
6.72017
11.2748
24.4112
19.4308
6.13931
5.88294
6.66616
11.135
23.9066
19.0776
6.2315
5.89795
6.56804
11.1683
23.1624
18.5838
6.89653
6.11968
5.86284
7.48292
21.2976
25.9135
14.2389
7.40588
6.2313
7.14735
21.369
26.9603
12.4502
7.26986
6.15682
6.37197
21.0822
25.7188
11.8313
7.05417
6.11169
6.38403
20.3404
24.9556
11.6849
6.95146
6.12522
6.51949
19.993
24.3027
11.6981
6.81759
6.34636
7.13656
19.3192
22.0424
7.67726
6.06207
7.72073
14.5244
27.2648
21.7295
7.29928
6.46867
7.60559
12.9571
27.5265
21.5823
6.75691
6.47016
7.42968
12.3438
26.6033
21.0859
6.73436
6.43646
7.35981
12.2711
25.83
20.6943
6.92318
6.47669
7.22806
12.1951
25.1764
20.1868
7.52897
6.67271
6.41884
8.19747
23.0827
28.1777
15.4749
8.17142
6.78099
7.8466
23.1301
29.3689
13.6336
8.01411
6.71806
7.0363
23.2415
28.4887
12.9684
7.8399
6.67139
6.96481
22.5446
27.5746
12.8591
7.70752
6.68146
7.126
21.9169
26.473
12.8803
7.55108
6.91315
7.82915
21.0059
24.086
8.52181
6.65027
8.54019
16.1108
29.6741
23.9966
8.13938
7.03862
8.39997
14.2413
30.4629
23.9288
7.34942
6.99577
8.17123
13.4658
29.3239
23.2783
7.3061
6.96974
8.11208
13.3864
28.5401
22.8431
7.50638
6.99974
7.96687
13.4849
27.7537
22.1514
8.23537
7.20444
6.96889
9.05375
25.5746
31.2624
17.2305
9.06643
7.37674
8.60986
25.6458
32.5281
15.213
8.93918
7.23652
7.7192
25.4257
31.1465
14.2723
8.61532
7.18782
7.61269
24.7553
30.3745
14.1239
8.50213
7.23883
7.75197
24.2229
29.6556
14.113
8.50321
7.31327
7.93319
23.7416
28.8763
14.1426
8.33024
7.52786
8.59611
22.8608
26.444
9.40726
7.28719
9.55317
17.6773
33.3999
26.4957
8.88405
7.72477
9.30104
15.6213
33.2844
26.0705
8.12258
7.65948
9.07848
14.9387
31.9179
25.2568
8.16703
7.67995
9.02891
14.8518
30.8856
24.7353
8.4392
7.75923
8.89581
14.7619
30.033
23.9921
9.06336
7.92471
7.69447
9.9606
27.8499
34.7774
18.7862
10.1476
8.16386
9.51043
27.8605
35.1229
16.6435
9.93348
8.01645
8.65377
27.7605
34.0209
15.8163
9.61646
7.95452
8.53222
26.9649
32.8746
15.6119
9.49592
7.97872
8.71626
26.2802
32.0923
15.6094
9.29113
8.14793
9.4206
25.3481
29.4704
10.3532
7.90722
10.6435
19.7585
37.1957
29.3311
9.89811
8.42256
10.3074
17.3423
36.6864
28.7273
8.98765
8.30572
10.0191
16.5165
35.03
27.7711
8.95831
8.26702
9.88575
16.2762
34.0974
27.2001
9.1203
8.32456
9.7336
16.2995
33.3884
26.5252
9.87244
8.50272
8.28551
10.9573
30.955
38.6914
20.9342
11.1953
8.88297
10.5144
30.9498
39.0153
18.5286
10.9946
8.7392
9.58327
30.5508
37.4617
17.6768
10.662
8.67801
9.5311
29.5723
36.4164
17.3994
10.5358
8.69998
9.64999
28.9394
35.7023
17.3845
10.2981
8.86677
10.3695
28.2653
32.9672
11.4533
8.63046
11.7579
22.0183
40.9271
32.5637
11.0663
9.27694
11.4946
19.4053
40.5116
31.6751
10.0887
9.16744
11.1862
18.4364
39.0538
30.7611
10.0513
9.14366
10.9847
18.4571
38.243
30.4321
11.0246
9.26037
9.0465
12.2495
35.6218
43.6488
23.9284
12.6482
9.74681
11.9115
34.8782
43.692
20.7916
12.288
9.5382
10.6022
34.14
42.0311
19.6938
11.8268
9.42236
10.4891
32.7322
40.4342
19.4865
11.4732
9.48967
11.3822
31.8467
37.3392
12.6507
9.26412
13.1903
24.6936
47.1112
36.7924
12.0293
10.025
12.6477
21.377
45.9136
35.3333
10.8249
9.85157
12.3312
20.6069
44.1078
34.6416
11.0359
9.83357
12.1264
20.6633
42.9611
33.8758
12.055
9.91332
9.73907
13.5374
39.8308
48.3088
26.7409
14.0236
10.4659
13.1409
38.3966
48.7108
23.1321
13.5564
10.3224
11.5869
37.6495
46.6327
21.803
12.9923
10.1965
11.5196
36.4303
45.402
21.6576
12.6138
10.2659
12.5017
35.865
42.1834
13.8919
10.0526
14.5501
27.548
51.849
40.536
13.4424
10.9576
14.1492
24.3462
51.2452
39.6305
12.2978
10.8552
13.7198
23.0309
49.3405
38.6772
12.204
10.8322
13.5124
23.0968
48.26
38.2163
13.43
10.9217
10.7618
15.089
44.9809
55.1794
29.8121
15.7984
11.7079
14.6079
43.1167
54.1836
25.864
15.1499
11.4789
13.1611
41.9197
52.226
24.7014
14.4087
11.3505
13.9538
40.9208
47.9042
15.2632
11.1486
16.5536
31.8931
58.8597
45.4295
15.3711
12.0989
15.9352
27.4366
57.3191
44.4339
13.7834
12.0149
15.3503
25.9633
55.5323
43.3801
13.5994
11.9617
15.0504
25.9233
54.2357
42.6989
14.8668
12.0146
11.8994
16.7771
50.1781
62.4167
33.58
17.7666
13.0411
16.4774
48.3654
60.9051
29.1165
17.0316
12.8557
14.8064
47.2386
59.1222
27.9804
16.2724
12.7379
15.7491
45.8702
54.052
17.5822
12.5694
18.8837
35.8175
67.7325
52.4404
17.3173
13.7693
18.1195
31.2469
65.6969
50.7606
15.8396
13.5895
17.3019
29.8819
63.0847
49.3287
16.7484
13.4621
13.3651
18.8703
57.7028
71.2852
38.3694
20.1738
14.5824
18.7146
54.8648
68.7709
33.455
19.0851
14.2281
17.7653
53.0823
62.134
19.6961
14.0472
21.2808
40.2527
77.0582
58.4302
19.1125
15.2665
20.4809
35.4471
74.1137
57.0307
17.7571
14.9481
19.4093
33.7251
71.0219
55.4891
18.6376
14.7
14.6072
21.0985
64.987
80.0149
42.7569
22.4712
15.9299
20.5943
61.9128
77.3967
37.0732
21.0883
15.3286
19.3417
59.5924
69.5098
21.4081
15.1599
23.4493
44.8268
85.7977
65.5842
21.1395
16.5199
22.0636
38.921
82.1666
62.7675
20.5051
15.9352
15.8
23.0649
73.9778
92.6401
48.4366
25.1237
17.3806
22.3901
69.9968
87.0789
41.5539
23.3916
16.4855
21.1918
66.2991
77.2547
23.547
16.3324
25.8079
49.8109
94.7745
72.3856
23.1791
17.8052
24.1885
42.889
90.3105
69.2969
22.095
17.1087
16.9921
24.6597
81.1131
100.776
52.3944
27.0504
18.6276
23.3484
74.693
95.2853
45.4547
25.4844
17.685
23.2596
72.8163
84.9898
25.6867
17.5401
28.2458
54.6913
106.224
80.3796
25.155
19.33
26.2343
46.8735
99.7907
76.1858
23.8901
18.4049
18.3048
26.6291
88.6163
108.973
57.244
29.3504
20.0462
26.3903
82.8686
103.462
49.0798
27.3169
19.0703
24.9215
78.2606
90.459
26.5797
18.8296
29.8915
59.7474
114.368
86.6395
28.134
20.2981
20.0524
30.3095
100.326
124.931
64.2542
32.9903
22.1393
29.0298
93.9929
116.002
54.2033
30.2968
20.6809
26.9759
87.8411
101.421
29.9921
20.5996
32.7793
65.2044
124.535
94.5771
31.0429
22.0469
21.6125
31.7066
108.441
137.043
69.6976
35.0208
22.899
32.2438
102.395
118.002
33.7677
22.489
37.6111
74.1075
146.198
108.281
32.4893
24.6751
34.201
61.7703
132.436
99.2179
30.1764
22.9211
22.8304
33.3864
113.877
139.018
73.0812
36.4733
24.2564
34.3636
104.786
119.537
34.6808
23.7809
38.4204
76.4084
151.206
112.713
35.3599
25.1009
24.7164
37.312
129.435
159.1
81.8826
40.4199
26.1342
37.4357
117.958
134.033
38.8641
25.7182
41.8098
83.6022
163.231
121.504
38.2696
26.8619
26.5003
39.7911
138.712
170.133
85.9548
42.9259
27.3872
38.9592
126.132
142.388
46.1985
27.8581
28.0948
50.3452
165.096
198.386
102.894
49.4989
29.7711
44.1015
144.362
162.39
44.6635
28.9933
47.7736
96.5509
197.279
143.372
42.3479
29.2078
29.0296
46.3672
159.452
183.187
51.7497
29.2038
52.8846
112.93
223.825
160.742
46.5351
30.8833
31.1901
53.3783
176.85
201.679
57.5107
31.5258
56.3614
121.624
233.971
165.488
48.7119
32.3128
32.0502
53.9438
185.157
212.209
58.8344
31.8806
57.52
125.336
254.853
180.277
50.4016
32.5308
31.2842
48.9455
196.177
227.949
68.9141
33.4702
32.2022
58.4474
237.05
297.403
138.195
63.5418
34.4899
54.2647
205.963
224.736
55.2387
33.3796
33.5979
68.1747
249.338
268.017
61.1855
31.8189
33.7811
78.7026
290.459
304.658
75.3196
31.7805
64.3684
149.635
342.562
214.867
53.8217
32.5565
31.0239
53.0264
226.778
247.858
65.4143
30.8262
30.0382
64.925
263.2
275.248
66.7987
29.5527
29.4149
72.1074
276.644
273.432
75.5054
29.3308
29.3122
78.5464
265.93
253.186
82.3773
29.4424
29.5819
85.3402
239.424
225.756
89.1266
29.968
30.3529
92.9003
212.639
200.326
97.7578
31.1923
31.8632
102.441
189.109
179.01
107.001
33.1639
34.1618
111.431
169.971
161.887
115.742
35.8272
37.1426
119.909
154.656
148.266
123.895
39.1312
41.0123
127.262
142.6
137.612
130.452
43.5381
45.8285
133.134
133.183
129.281
135.763
48.6684
51.0196
138.197
125.84
122.839
140.558
53.9326
56.338
142.708
120.209
117.931
144.786
59.3116
61.775
146.648
115.944
114.243
148.437
64.8117
67.341
150.001
112.767
111.527
151.488
70.4354
73.0241
152.74
110.456
109.563
153.91
76.1805
78.8049
154.849
108.796
108.162
155.7
82.0028
84.5676
156.359
107.616
107.171
156.955
87.629
90.0461
157.371
106.789
106.482
157.744
92.9317
95.1661
157.941
106.219
106.012
158.115
97.8439
99.8614
158.124
105.828
105.684
158.091
102.299
104.073
157.985
105.558
105.471
157.852
106.26
107.782
157.571
105.386
105.33
157.361
109.705
110.981
156.967
105.282
105.245
156.664
112.649
113.695
156.192
105.224
105.199
155.809
115.12
115.952
155.278
105.182
105.15
154.83
117.149
117.786
154.258
105.128
105.084
153.761
118.765
119.225
153.167
105.051
104.993
152.637
120.008
120.326
152.039
104.952
104.881
151.49
120.931
121.139
150.901
104.832
104.748
150.343
121.587
121.714
149.77
104.689
104.597
149.212
122.02
122.085
148.659
104.533
104.433
148.112
122.273
122.287
147.58
104.36
104.257
147.048
122.363
122.344
146.535
104.178
104.071
146.028
122.349
122.282
145.531
103.986
103.878
145.05
122.256
122.138
144.573
103.791
103.683
144.122
122.076
121.893
143.664
103.595
103.489
143.235
121.805
121.581
142.799
103.403
103.296
142.388
121.478
121.228
141.974
103.21
103.105
141.581
121.118
120.858
141.192
103.022
102.917
140.814
120.744
120.486
140.452
102.835
102.732
140.09
120.368
120.122
139.756
102.653
102.553
139.411
120.003
119.781
139.103
102.476
102.379
138.776
119.662
119.46
138.498
102.306
102.213
138.191
119.353
119.172
137.937
102.145
102.056
137.654
119.076
118.918
137.427
101.993
101.91
137.168
118.835
118.703
136.966
101.853
101.775
136.73
118.633
118.523
136.553
101.725
101.653
136.34
118.468
118.381
136.186
101.61
101.544
135.996
118.339
118.274
135.863
101.509
101.451
135.695
118.245
118.202
135.583
101.423
101.372
135.434
118.187
118.163
135.343
101.35
101.308
135.213
118.16
118.157
135.139
101.292
101.259
135.026
118.168
118.178
134.969
101.248
101.225
134.872
118.199
118.229
134.828
101.219
101.205
134.748
118.257
118.302
134.716
101.203
101.2
134.652
118.338
118.398
134.628
101.203
101.205
134.58
118.441
118.514
134.565
101.214
101.221
134.532
118.562
118.647
134.524
101.238
101.249
134.505
118.701
118.795
134.503
101.273
101.288
134.497
118.852
118.956
134.503
101.318
101.337
134.505
119.016
119.126
134.516
101.372
101.395
134.523
119.188
119.304
134.544
101.434
101.461
134.554
119.367
119.486
134.583
101.504
101.534
134.597
119.551
119.674
134.632
101.58
101.613
134.649
119.739
119.864
134.691
101.662
101.698
134.712
119.93
120.056
134.759
101.75
101.788
134.782
120.122
120.25
134.834
101.843
101.884
134.859
120.316
120.444
134.916
101.941
101.983
134.943
120.509
120.637
135.003
102.042
102.087
135.032
120.702
120.828
135.095
102.148
102.194
135.125
120.892
121.018
135.191
102.257
102.306
135.223
121.08
121.204
135.291
102.37
102.42
135.324
121.266
121.387
135.395
102.485
102.537
135.428
121.447
121.567
135.5
102.603
102.656
135.534
121.625
121.742
135.607
102.723
102.776
135.642
121.799
121.913
135.716
102.844
102.898
135.751
121.967
122.078
135.826
102.966
103.02
135.86
122.131
122.238
135.935
103.089
103.143
135.97
122.289
122.392
136.044
103.212
103.266
136.078
122.441
122.54
136.152
103.335
103.389
136.186
122.586
122.681
136.26
103.458
103.512
136.294
122.725
122.816
136.366
103.58
103.635
136.4
122.858
122.945
136.471
103.703
103.758
136.505
122.985
123.069
136.575
103.826
103.88
136.608
123.107
123.187
136.678
103.949
104.003
136.711
123.223
123.3
136.78
104.072
104.126
136.812
123.334
123.407
136.88
104.195
104.249
136.912
123.439
123.509
136.979
104.319
104.374
137.011
123.539
123.606
137.077
104.444
104.499
137.108
123.635
123.698
137.174
104.57
104.624
137.204
123.725
123.785
137.269
104.696
104.751
137.299
123.81
123.867
137.363
104.823
104.877
137.393
123.89
123.944
137.457
104.949
105.003
137.487
123.966
124.018
137.551
105.074
105.127
137.58
124.038
124.085
137.643
105.198
105.249
137.672
124.104
124.151
137.735
105.319
105.367
137.763
124.167
124.219
137.83
105.438
105.487
137.859
124.236
124.277
137.918
105.555
105.598
137.947
124.293
124.333
138.016
105.673
105.708
138.034
124.347
124.381
138.094
105.822
105.853
138.109
124.387
124.404
138.17
105.945
105.975
138.19
124.447
124.46
138.046
106.084
105.983
137.768
124.619
124.386
137.351
106.261
106.956
137.155
124.263
124.32
137.534
107.369
116.051
72.0711
43.1094
40.3211
41.2479
45.4353
48.9604
54.5622
56.6943
63.6369
67.4725
68.6063
68.7859
68.3073
67.8261
67.562
67.4955
67.5573
67.6814
67.8272
67.9733
68.1097
68.2324
68.3402
68.4336
68.5134
68.5801
68.6349
68.6773
68.7087
68.7297
68.742
68.7476
68.7551
68.7688
68.7891
68.8156
68.8471
68.8834
68.9234
68.9677
69.0164
69.0704
69.1304
69.1977
69.2882
69.4326
69.6482
69.915
70.1966
70.4683
70.7204
70.9511
71.1616
71.3536
71.5283
71.6866
71.8294
71.9575
72.0718
72.1734
72.2637
72.3443
72.4167
72.4824
72.5425
72.5983
72.6507
72.7006
72.7488
72.796
72.8428
72.8899
72.9378
72.9871
73.0383
73.0916
73.1477
73.2067
73.269
73.3347
73.4038
73.4766
73.5529
73.6325
73.7154
73.8011
73.8894
73.98
74.0725
74.1663
74.2612
74.3567
74.4524
74.5479
74.6429
74.7369
74.8298
74.9212
75.011
75.0989
75.1847
75.2684
75.3498
75.4289
75.5056
75.5798
75.6516
75.721
75.7879
75.8525
75.9148
75.9748
76.0325
76.0881
76.1417
76.1932
76.2429
76.2907
76.3367
76.3811
76.4239
76.4652
76.505
76.5435
76.5808
76.6169
76.6518
76.6857
76.7187
76.7507
76.7819
76.8123
76.842
76.871
76.8994
76.9272
76.9545
76.9813
77.0076
77.0335
77.059
77.0841
77.1088
77.1333
77.1574
77.1812
77.2048
77.2282
77.2513
77.2743
77.297
77.3196
77.3421
77.3644
77.3867
77.4089
77.4311
77.4533
77.4756
77.4979
77.5204
77.5429
77.5657
77.5887
77.612
77.6355
77.6594
77.6837
77.7083
77.7334
77.7589
77.7849
77.8113
77.8382
77.8656
77.8934
77.9217
77.9504
77.9796
78.0091
78.0391
78.0694
78.1001
78.1312
78.1626
78.1944
78.2267
78.2593
78.2925
78.3263
78.3606
78.3955
78.4312
78.4676
78.5048
78.5427
78.5814
78.6204
78.6592
78.6968
78.7317
78.7621
78.7853
78.8008
78.8087
78.8154
78.822
78.8211
78.8199
78.8154
78.7991
78.7566
78.6655
78.5137
78.3083
78.0683
77.8116
77.5475
77.2787
77.0045
76.7227
76.4315
76.1296
75.8163
75.4916
75.1556
74.8085
74.4505
74.0819
73.7028
73.3136
72.9144
72.5055
72.0873
71.6601
71.2242
70.7801
70.3283
69.869
69.4029
68.9304
68.4519
67.9681
67.4794
66.9863
66.4895
65.9894
65.4866
64.9818
64.4753
63.968
63.4602
62.9526
62.4458
61.9403
61.4368
60.9357
60.4378
59.9435
59.4535
58.9682
58.4883
58.0143
57.5466
57.086
56.6328
56.1876
55.7509
55.3233
54.905
54.4967
54.0987
53.7114
53.3354
52.9709
52.6183
52.2782
51.951
51.6371
51.3365
51.0488
50.7729
50.5067
50.2492
50.0019
49.7736
49.5826
49.4483
49.3741
49.3403
49.3228
49.3053
49.2607
49.0939
48.2374
46.7047
45.5849
45.1742
44.0162
43.6918
42.5513
42.292
41.199
40.9983
39.9446
39.7938
38.7794
38.6707
37.6941
37.6209
36.68
36.6368
35.7286
35.7108
34.834
34.8368
33.9934
34.0097
33.1942
33.2226
32.4337
32.4737
31.7109
31.7625
31.0255
31.0876
30.3746
30.4457
29.7546
29.8334
29.1621
29.2474
28.5944
28.6851
28.0487
28.144
27.5229
27.6219
27.0148
27.1171
26.5231
26.628
26.046
26.1528
25.5818
25.6901
25.1293
25.2386
24.6874
24.7974
24.2551
24.3656
23.8317
23.9422
23.4162
23.5264
23.0078
23.1174
22.6057
22.7145
22.2092
22.317
21.8179
21.9244
21.4311
21.5363
21.0487
21.1522
20.6701
20.7718
20.2954
20.3952
19.9249
20.0231
19.5594
19.656
19.1997
19.2951
18.8474
18.9421
18.5044
18.5991
18.1735
18.269
17.8583
17.9557
17.5622
17.6623
17.2878
17.3917
17.0384
17.1467
16.8146
16.9286
16.6217
16.7441
16.4659
16.5981
16.3456
16.4876
16.2581
16.4093
16.2008
16.3613
16.1723
16.3417
16.1699
16.3476
16.1904