/*--------------------------------*- C++ -*----------------------------------*\
| =========                 |                                                 |
| \\      /  F ield         | OpenFOAM: The Open Source CFD Toolbox           |
|  \\    /   O peration     | Version:  v2006                                 |
|   \\  /    A nd           | Website:  www.openfoam.com                      |
|    \\/     M anipulation  |                                                 |
\*---------------------------------------------------------------------------*/
FoamFile
{
    version     2.0;
    format      ascii;
    class       volScalarField;
    location    "0.03";
    object      rho;
}
// * * * * * * * * * * * * * * * * * * * * * * * * * * * * * * * * * * * * * //

dimensions      [1 -3 0 0 0 0 0];


internalField   nonuniform List<scalar> 
16277
(
1.72481
1.72488
1.72491
1.72475
1.72486
1.72483
1.72484
1.72487
1.72491
1.72495
1.725
1.72504
1.72509
1.72514
1.7252
1.72525
1.72531
1.72537
1.72543
1.72549
1.72556
1.72563
1.7257
1.72577
1.72585
1.72593
1.72601
1.72609
1.72618
1.72627
1.72635
1.72645
1.72654
1.72663
1.72673
1.72683
1.72693
1.72703
1.72713
1.72723
1.72733
1.72744
1.72754
1.72765
1.72775
1.72786
1.72797
1.72807
1.72818
1.72829
1.72839
1.7285
1.7286
1.72871
1.72881
1.72892
1.72902
1.72912
1.72922
1.72932
1.72941
1.72951
1.7296
1.72969
1.72978
1.72987
1.72996
1.73004
1.73012
1.7302
1.73028
1.73035
1.73042
1.73049
1.73055
1.73062
1.73068
1.73073
1.73079
1.73084
1.73089
1.73093
1.73097
1.73101
1.73103
1.73105
1.73105
1.73105
1.73105
1.73106
1.73105
1.7311
1.73114
1.73123
1.7314
1.73149
1.73143
1.73127
1.73144
1.73145
1.73141
1.73136
1.73114
1.73102
1.73129
1.73136
1.7313
1.73121
1.73093
1.73085
1.73114
1.73125
1.73119
1.73108
1.73079
1.73074
1.73103
1.73115
1.73111
1.73099
1.7307
1.73067
1.73096
1.73108
1.73105
1.73092
1.73065
1.73063
1.7309
1.73103
1.731
1.73088
1.73062
1.73061
1.73086
1.73099
1.73097
1.73085
1.73061
1.73061
1.73084
1.73096
1.73095
1.73083
1.73061
1.73062
1.73083
1.73095
1.73095
1.73083
1.73063
1.73065
1.73084
1.73095
1.73095
1.73084
1.73066
1.73068
1.73085
1.73096
1.73097
1.73086
1.73069
1.73071
1.73087
1.73098
1.73099
1.73089
1.73073
1.73076
1.73091
1.73101
1.73102
1.73092
1.73078
1.73081
1.73095
1.73104
1.73106
1.73097
1.73084
1.73087
1.73099
1.73108
1.73111
1.73102
1.7309
1.73093
1.73105
1.73113
1.73116
1.73107
1.73096
1.731
1.7311
1.73119
1.73122
1.73114
1.73103
1.73107
1.73117
1.73125
1.73128
1.73121
1.73111
1.73115
1.73124
1.73132
1.73135
1.73128
1.73119
1.73124
1.73132
1.73139
1.73143
1.73136
1.73128
1.73133
1.7314
1.73147
1.73151
1.73145
1.73138
1.73142
1.73149
1.73156
1.7316
1.73154
1.73147
1.73153
1.73159
1.73165
1.7317
1.73164
1.73158
1.73163
1.73169
1.73175
1.7318
1.73174
1.73169
1.73174
1.73179
1.73185
1.7319
1.73185
1.7318
1.73186
1.73191
1.73196
1.73201
1.73197
1.73192
1.73198
1.73202
1.73207
1.73213
1.73209
1.73205
1.73211
1.73215
1.73219
1.73225
1.73221
1.73218
1.73225
1.73228
1.73231
1.73238
1.73234
1.73232
1.73239
1.73241
1.73244
1.73251
1.73248
1.73246
1.73253
1.73255
1.73258
1.73265
1.73263
1.73261
1.73268
1.7327
1.73272
1.7328
1.73278
1.73277
1.73284
1.73285
1.73287
1.73295
1.73293
1.73293
1.733
1.73301
1.73302
1.73311
1.73309
1.73309
1.73317
1.73317
1.73318
1.73327
1.73326
1.73326
1.73334
1.73333
1.73335
1.73343
1.73343
1.73344
1.73352
1.73351
1.73351
1.7336
1.7336
1.73361
1.7337
1.73368
1.73368
1.73377
1.73377
1.73379
1.73388
1.73386
1.73386
1.73395
1.73395
1.73397
1.73406
1.73403
1.73403
1.73412
1.73413
1.73415
1.73424
1.73421
1.7342
1.73429
1.7343
1.73433
1.73441
1.73438
1.73437
1.73446
1.73447
1.7345
1.73458
1.73455
1.73454
1.73462
1.73463
1.73467
1.73474
1.73471
1.73469
1.73477
1.73479
1.73482
1.73489
1.73486
1.73484
1.73491
1.73493
1.73497
1.73503
1.73499
1.73497
1.73504
1.73506
1.73509
1.73515
1.73511
1.73509
1.73514
1.73516
1.7352
1.73525
1.73521
1.73519
1.73523
1.73525
1.73529
1.73532
1.73528
1.73526
1.73528
1.73531
1.73535
1.73537
1.73533
1.73531
1.73532
1.73534
1.73538
1.73538
1.73535
1.73533
1.73532
1.73535
1.73538
1.73537
1.73534
1.73532
1.7353
1.73532
1.73535
1.73532
1.7353
1.73527
1.73524
1.73526
1.73528
1.73524
1.73522
1.7352
1.73516
1.73517
1.73519
1.73513
1.73512
1.7351
1.73505
1.73506
1.73507
1.735
1.735
1.73499
1.73493
1.73494
1.73494
1.73486
1.73487
1.73486
1.73479
1.7348
1.73479
1.7347
1.73472
1.73472
1.73465
1.73465
1.73463
1.73454
1.73457
1.73457
1.7345
1.73449
1.73446
1.73438
1.73441
1.73442
1.73435
1.73434
1.7343
1.73422
1.73426
1.73427
1.7342
1.73419
1.73414
1.73406
1.73411
1.73413
1.73406
1.73404
1.73399
1.73392
1.73397
1.734
1.73394
1.73391
1.73385
1.73378
1.73384
1.73388
1.73382
1.73379
1.73372
1.73366
1.73373
1.73377
1.73371
1.73368
1.73361
1.73356
1.73363
1.73367
1.73362
1.73358
1.73351
1.73347
1.73354
1.73358
1.73354
1.7335
1.73343
1.73339
1.73346
1.73351
1.73347
1.73343
1.73335
1.73332
1.7334
1.73345
1.73341
1.73337
1.73329
1.73327
1.73334
1.73339
1.73336
1.73331
1.73324
1.73322
1.73329
1.73334
1.73332
1.73327
1.7332
1.73318
1.73325
1.7333
1.73328
1.73323
1.73317
1.73315
1.73322
1.73327
1.73325
1.7332
1.73314
1.73313
1.73319
1.73324
1.73322
1.73317
1.73312
1.73311
1.73317
1.73321
1.73319
1.73315
1.7331
1.73309
1.73314
1.73319
1.73317
1.73313
1.73308
1.73307
1.73313
1.73317
1.73315
1.73312
1.73307
1.73306
1.73311
1.73315
1.73314
1.7331
1.73306
1.73305
1.7331
1.73313
1.73312
1.73309
1.73305
1.73304
1.73308
1.73312
1.73311
1.73308
1.73304
1.73303
1.73307
1.73311
1.7331
1.73307
1.73303
1.73302
1.73306
1.73309
1.73308
1.73305
1.73302
1.73301
1.73305
1.73308
1.73307
1.73304
1.733
1.733
1.73304
1.73307
1.73306
1.73303
1.73299
1.73298
1.73302
1.73305
1.73304
1.73301
1.73297
1.73297
1.73301
1.73304
1.73303
1.733
1.73296
1.73295
1.73299
1.73302
1.733
1.73297
1.73294
1.733
1.73302
1.73304
1.73309
1.73306
1.73309
1.73284
1.73276
1.73277
1.73284
1.73299
1.73307
1.7331
1.7331
1.7331
1.73309
1.73309
1.73309
1.73308
1.73308
1.73307
1.73307
1.73306
1.73305
1.73304
1.73304
1.73302
1.733
1.73297
1.73293
1.73291
1.73289
1.7329
1.73297
1.73294
1.73288
1.73287
1.73283
1.73283
1.73286
1.73281
1.7328
1.73282
1.73281
1.73279
1.73279
1.7328
1.7328
1.73282
1.73282
1.7328
1.73279
1.73279
1.7328
1.73282
1.73283
1.73281
1.73279
1.7328
1.73281
1.73283
1.73284
1.73281
1.7328
1.7328
1.73282
1.73284
1.73285
1.73282
1.7328
1.73281
1.73282
1.73285
1.73285
1.73283
1.73281
1.73281
1.73283
1.73285
1.73285
1.73283
1.73282
1.73282
1.73284
1.73285
1.73286
1.73284
1.73283
1.73283
1.73284
1.73286
1.73286
1.73284
1.73283
1.73284
1.73285
1.73287
1.73287
1.73285
1.73284
1.73284
1.73285
1.73287
1.73287
1.73285
1.73284
1.73285
1.73286
1.73288
1.73288
1.73286
1.73285
1.73285
1.73286
1.73288
1.73288
1.73286
1.73285
1.73285
1.73287
1.73289
1.73289
1.73287
1.73286
1.73286
1.73287
1.73289
1.73289
1.73287
1.73286
1.73286
1.73288
1.7329
1.7329
1.73288
1.73287
1.73287
1.73288
1.7329
1.73291
1.73288
1.73287
1.73287
1.73289
1.73291
1.73291
1.73289
1.73288
1.73288
1.73289
1.73292
1.73292
1.7329
1.73288
1.73289
1.7329
1.73292
1.73293
1.7329
1.73289
1.73289
1.73291
1.73293
1.73293
1.73291
1.7329
1.7329
1.73291
1.73294
1.73294
1.73291
1.7329
1.7329
1.73292
1.73294
1.73295
1.73292
1.7329
1.73291
1.73292
1.73295
1.73295
1.73293
1.73291
1.73291
1.73293
1.73296
1.73296
1.73293
1.73292
1.73292
1.73294
1.73296
1.73297
1.73294
1.73292
1.73293
1.73294
1.73297
1.73297
1.73295
1.73293
1.73293
1.73295
1.73297
1.73298
1.73295
1.73294
1.73294
1.73295
1.73298
1.73298
1.73295
1.73294
1.73295
1.73296
1.73298
1.73298
1.73296
1.73295
1.73295
1.73296
1.73298
1.73298
1.73296
1.73296
1.73296
1.73296
1.73298
1.73298
1.73296
1.73297
1.73297
1.73296
1.73298
1.73298
1.73296
1.73297
1.73296
1.73296
1.73298
1.73299
1.73296
1.73296
1.73296
1.73296
1.73299
1.73299
1.73296
1.73295
1.73294
1.73295
1.73299
1.73298
1.73294
1.73294
1.73293
1.73293
1.73297
1.73296
1.73292
1.73292
1.7329
1.73291
1.73295
1.73293
1.73289
1.73288
1.73286
1.73286
1.73292
1.73291
1.73284
1.73283
1.73279
1.73282
1.73289
1.73288
1.7328
1.73276
1.73274
1.73278
1.73287
1.73286
1.73277
1.73271
1.73269
1.73277
1.73286
1.73285
1.73277
1.73268
1.73271
1.73276
1.73283
1.7328
1.73273
1.73269
1.73265
1.73268
1.73276
1.73272
1.73262
1.73258
1.7325
1.73256
1.73267
1.73261
1.73248
1.73237
1.73223
1.73239
1.73256
1.73254
1.73236
1.73217
1.73212
1.73235
1.73253
1.73259
1.73244
1.73218
1.73234
1.73255
1.73268
1.73275
1.73264
1.73243
1.73248
1.73267
1.73279
1.73279
1.73266
1.73246
1.73246
1.73262
1.73276
1.73275
1.7326
1.73256
1.73278
1.73262
1.7328
1.73285
1.73264
1.73306
1.73331
1.73258
1.73292
1.73303
1.73242
1.73355
1.73414
1.73232
1.7333
1.73356
1.73238
1.73484
1.73824
1.72873
1.73339
1.73286
1.73355
1.73227
1.73318
1.73317
1.73325
1.73344
1.73324
1.73292
1.73294
1.73324
1.73356
1.73342
1.73334
1.73315
1.73321
1.73342
1.73371
1.73367
1.73367
1.73395
1.73417
1.73371
1.73387
1.73393
1.73364
1.73446
1.73466
1.73329
1.734
1.7342
1.73296
1.73523
1.73539
1.73274
1.73499
1.73477
1.72803
1.7398
1.73201
1.73443
1.7344
1.734
1.73415
1.73416
1.73364
1.73423
1.73447
1.7345
1.73452
1.73401
1.73377
1.73472
1.73465
1.73475
1.73503
1.73332
1.73298
1.73548
1.73483
1.73467
1.73602
1.733
1.72864
1.73875
1.73405
1.73422
1.73435
1.736
1.73469
1.73482
1.7352
1.73503
1.73495
1.73602
1.73639
1.73479
1.73523
1.73547
1.7345
1.73695
1.73662
1.73406
1.73685
1.73644
1.72984
1.74202
1.73402
1.73592
1.73602
1.73565
1.73557
1.73659
1.73658
1.73556
1.73597
1.73626
1.73533
1.73756
1.73825
1.73513
1.73646
1.73688
1.73075
1.74298
1.73598
1.73704
1.73627
1.73677
1.7362
1.73768
1.73824
1.73638
1.73708
1.73803
1.73588
1.73867
1.74362
1.73139
1.73823
1.73821
1.73803
1.73591
1.73785
1.73795
1.73797
1.73849
1.73838
1.73797
1.73831
1.73874
1.73877
1.73916
1.73882
1.73767
1.73806
1.73998
1.73986
1.74024
1.74114
1.7379
1.73259
1.74559
1.74057
1.74099
1.74093
1.74205
1.7418
1.74192
1.74168
1.74284
1.74292
1.74291
1.74458
1.74425
1.74371
1.74385
1.74437
1.74452
1.74551
1.74483
1.74416
1.744
1.74478
1.74548
1.7429
1.7429
1.74248
1.74002
1.74016
1.73938
1.73634
1.73705
1.73716
1.73546
1.73486
1.73376
1.73389
1.73417
1.73432
1.73351
1.733
1.73204
1.73281
1.73284
1.73311
1.73278
1.73274
1.72997
1.74126
1.72485
1.7328
1.73149
1.73172
1.7328
1.73349
1.7315
1.73153
1.73183
1.73166
1.73254
1.73197
1.73144
1.73165
1.73143
1.73147
1.73165
1.73154
1.73162
1.73174
1.73168
1.73154
1.73138
1.73121
1.73129
1.73145
1.73172
1.73163
1.73134
1.73119
1.7314
1.73162
1.73128
1.73112
1.73083
1.73135
1.73169
1.73175
1.73163
1.73144
1.73109
1.73084
1.73106
1.73129
1.73184
1.7318
1.73154
1.73121
1.73151
1.73168
1.73131
1.7311
1.7309
1.73154
1.73181
1.73184
1.73172
1.73156
1.7313
1.73089
1.73108
1.7313
1.73181
1.73178
1.73151
1.73129
1.73158
1.73173
1.7314
1.73114
1.73099
1.73204
1.73202
1.73151
1.73184
1.73163
1.73166
1.72934
1.73226
1.73175
1.73257
1.72316
1.74048
1.73401
1.73034
1.73244
1.73137
1.72954
1.73536
1.72423
1.73721
1.73095
1.73177
1.73345
1.73
1.72815
1.73367
1.73236
1.73253
1.72614
1.73784
1.73367
1.73103
1.73258
1.73169
1.7302
1.7347
1.72543
1.73606
1.73075
1.73171
1.73381
1.72937
1.73118
1.73172
1.73165
1.73139
1.73821
1.72032
1.72846
1.73398
1.73203
1.73269
1.73411
1.72705
1.73625
1.72661
1.7326
1.73274
1.73065
1.73391
1.73173
1.73186
1.73226
1.73221
1.72493
1.74163
1.73631
1.72959
1.73237
1.73181
1.73141
1.73233
1.7451
1.72298
1.73221
1.73192
1.73062
1.73496
1.73537
1.73094
1.73144
1.732
1.73168
1.73352
1.7329
1.73144
1.73171
1.73158
1.7318
1.73263
1.73261
1.73221
1.73206
1.73196
1.73206
1.73236
1.73224
1.73206
1.73194
1.73218
1.73232
1.73241
1.73189
1.73192
1.73197
1.73152
1.73135
1.73123
1.73173
1.73196
1.73195
1.73176
1.73153
1.73129
1.73106
1.73127
1.73145
1.73197
1.73179
1.73194
1.72928
1.73231
1.73191
1.73196
1.72321
1.74166
1.73395
1.73024
1.73159
1.7308
1.73054
1.73448
1.7333
1.73137
1.73129
1.73151
1.73116
1.73256
1.73164
1.73127
1.73129
1.73173
1.73156
1.73201
1.72974
1.732
1.73177
1.73152
1.72495
1.73973
1.73386
1.73011
1.7315
1.7307
1.73047
1.73425
1.73306
1.73132
1.73131
1.73132
1.73098
1.73226
1.73142
1.73098
1.731
1.73148
1.73134
1.73186
1.72967
1.7318
1.73156
1.73135
1.72488
1.7397
1.73357
1.73
1.73131
1.73068
1.73039
1.73395
1.73302
1.73122
1.73123
1.73109
1.73081
1.73201
1.7314
1.7307
1.7307
1.73114
1.73132
1.7309
1.7333
1.72997
1.7305
1.73047
1.7399
1.71695
1.7279
1.73329
1.73162
1.7316
1.73177
1.72605
1.72912
1.73191
1.73208
1.73144
1.7317
1.72828
1.73507
1.72633
1.73077
1.7306
1.7304
1.73176
1.73199
1.72989
1.72987
1.7301
1.73045
1.73137
1.73112
1.7299
1.73032
1.72996
1.73209
1.72717
1.72977
1.73105
1.73066
1.73049
1.73042
1.72917
1.72975
1.73088
1.73067
1.73018
1.7299
1.73044
1.72424
1.7335
1.72982
1.7305
1.73093
1.72899
1.72791
1.73024
1.73012
1.73028
1.73043
1.72939
1.7281
1.73026
1.73025
1.72985
1.72615
1.7336
1.73096
1.72993
1.73016
1.72966
1.72928
1.73071
1.72992
1.72984
1.72991
1.72913
1.72858
1.73196
1.71655
1.73798
1.72912
1.73127
1.72887
1.72839
1.72591
1.72908
1.73002
1.72988
1.73008
1.72828
1.72789
1.72899
1.72915
1.72937
1.73007
1.72969
1.72841
1.72947
1.72987
1.72903
1.72805
1.72855
1.72815
1.72903
1.7297
1.72954
1.72817
1.72748
1.72746
1.72926
1.73037
1.72858
1.72819
1.73095
1.71584
1.73784
1.72881
1.73077
1.72813
1.72811
1.72552
1.72845
1.72935
1.72906
1.72945
1.72793
1.72734
1.72821
1.72817
1.72807
1.7287
1.72828
1.7262
1.72825
1.72861
1.72786
1.72367
1.73158
1.72807
1.72764
1.72796
1.72755
1.72702
1.72807
1.7277
1.7277
1.72845
1.72817
1.72727
1.72715
1.72749
1.72817
1.72881
1.72773
1.72766
1.72877
1.72375
1.73098
1.72765
1.72847
1.72765
1.72795
1.7263
1.72741
1.72761
1.7275
1.72768
1.72697
1.72616
1.72672
1.72684
1.72713
1.7271
1.7265
1.72554
1.72669
1.72693
1.72634
1.72466
1.72705
1.72639
1.72695
1.72689
1.72654
1.72627
1.72631
1.72708
1.72704
1.72693
1.72643
1.72664
1.7268
1.72721
1.72683
1.72667
1.72681
1.7268
1.72484
1.73383
1.72026
1.72624
1.72529
1.72791
1.72618
1.7269
1.72623
1.72567
1.72581
1.72614
1.72655
1.72604
1.72577
1.72545
1.72574
1.72581
1.72632
1.72397
1.72591
1.72576
1.72532
1.719
1.73372
1.72585
1.72732
1.72452
1.72499
1.72584
1.7265
1.72582
1.72554
1.72518
1.72495
1.72512
1.72539
1.72524
1.72518
1.7252
1.72478
1.7247
1.72471
1.72464
1.72521
1.72506
1.72447
1.72411
1.72604
1.71448
1.73096
1.72428
1.72625
1.7235
1.72414
1.72186
1.7238
1.72487
1.72515
1.72488
1.72327
1.72274
1.72382
1.72461
1.7248
1.72464
1.72352
1.72289
1.72368
1.72428
1.72437
1.72423
1.72368
1.72185
1.72388
1.72404
1.72337
1.71839
1.72921
1.72343
1.72434
1.72276
1.72276
1.72307
1.7237
1.72335
1.72313
1.72302
1.72263
1.72276
1.72292
1.723
1.72302
1.72302
1.72256
1.72246
1.72232
1.72302
1.72299
1.723
1.72297
1.72294
1.72112
1.7292
1.71698
1.72231
1.72126
1.7244
1.7219
1.72265
1.72245
1.72183
1.72197
1.72239
1.72217
1.72165
1.72169
1.72163
1.72195
1.72193
1.72175
1.72119
1.72134
1.72148
1.72184
1.72198
1.72128
1.72286
1.72064
1.72107
1.72101
1.72909
1.70923
1.7212
1.71965
1.72351
1.72181
1.72023
1.71877
1.72005
1.72157
1.72203
1.72121
1.72025
1.71908
1.71984
1.72115
1.72136
1.72074
1.72004
1.71912
1.71986
1.7208
1.72093
1.72043
1.71996
1.71931
1.72001
1.72036
1.72054
1.72036
1.72026
1.7176
1.72882
1.71234
1.71961
1.71748
1.72319
1.71782
1.71934
1.72001
1.71892
1.71911
1.71982
1.71926
1.71884
1.71913
1.71893
1.71932
1.71941
1.71896
1.7182
1.71856
1.71871
1.71897
1.71895
1.71852
1.71785
1.71819
1.71847
1.71867
1.71865
1.71829
1.7171
1.71808
1.71834
1.71766
1.71582
1.71959
1.71744
1.71877
1.71765
1.71748
1.7175
1.71736
1.71724
1.71776
1.71769
1.71714
1.71698
1.71671
1.71684
1.71739
1.71745
1.71689
1.71666
1.71629
1.71677
1.71724
1.71726
1.71672
1.71645
1.71605
1.71659
1.71685
1.71694
1.71679
1.71668
1.71444
1.72364
1.70959
1.71595
1.7145
1.71878
1.715
1.71593
1.71625
1.7154
1.71545
1.71624
1.71538
1.71499
1.71518
1.71512
1.71551
1.71556
1.7151
1.71428
1.71468
1.71486
1.71521
1.71516
1.71464
1.71402
1.71441
1.71468
1.71491
1.71485
1.71447
1.71298
1.71447
1.71468
1.71381
1.70982
1.7184
1.71377
1.71531
1.71345
1.71343
1.71365
1.71386
1.71339
1.71386
1.71359
1.71307
1.71302
1.7129
1.713
1.71349
1.7135
1.71281
1.71256
1.71216
1.71255
1.71308
1.71312
1.71252
1.71224
1.71181
1.71242
1.71266
1.71277
1.7126
1.71241
1.70984
1.72091
1.70446
1.71174
1.70937
1.71596
1.70966
1.71121
1.7123
1.71108
1.71105
1.71216
1.71093
1.7106
1.71098
1.71086
1.71116
1.71126
1.71051
1.70987
1.71035
1.71048
1.71079
1.71073
1.71001
1.70934
1.70983
1.71012
1.71042
1.71034
1.70965
1.70889
1.7094
1.70974
1.71005
1.71004
1.70929
1.70905
1.70918
1.7095
1.70867
1.70976
1.70582
1.70888
1.70861
1.70973
1.70871
1.70817
1.70725
1.70785
1.70864
1.70897
1.70812
1.70763
1.70679
1.70726
1.70829
1.70837
1.70765
1.70721
1.70647
1.70691
1.70782
1.70793
1.70726
1.70683
1.70621
1.70671
1.70743
1.70754
1.70713
1.70686
1.70561
1.70787
1.70391
1.70614
1.70602
1.70738
1.70537
1.7052
1.70579
1.70575
1.70613
1.70626
1.70534
1.7045
1.70512
1.70534
1.70569
1.70564
1.70476
1.70402
1.70461
1.70494
1.70515
1.70507
1.70415
1.7034
1.70401
1.70436
1.70462
1.70454
1.7035
1.70327
1.70357
1.70402
1.70314
1.7044
1.70001
1.7031
1.70288
1.70424
1.70313
1.70255
1.70147
1.70217
1.70311
1.70346
1.70255
1.702
1.70107
1.7016
1.70275
1.70282
1.70192
1.70144
1.70052
1.70113
1.70212
1.70222
1.70144
1.70098
1.70025
1.70075
1.70157
1.70165
1.70116
1.70084
1.69956
1.70101
1.69795
1.6999
1.6998
1.70139
1.69883
1.69853
1.69928
1.69948
1.69964
1.69987
1.69853
1.69794
1.69858
1.69887
1.69933
1.69921
1.69828
1.69745
1.69812
1.69851
1.69885
1.69874
1.69775
1.69675
1.6975
1.69795
1.69827
1.69818
1.69733
1.69626
1.69741
1.69778
1.69638
1.69508
1.69638
1.69594
1.6973
1.69683
1.6961
1.6957
1.6953
1.69521
1.69643
1.69642
1.69544
1.695
1.69447
1.69431
1.69558
1.69564
1.69451
1.69393
1.69294
1.69381
1.69466
1.69492
1.69462
1.69421
1.69213
1.69791
1.68865
1.69334
1.69284
1.69504
1.69272
1.69269
1.69295
1.69267
1.69294
1.69335
1.69229
1.69166
1.69194
1.69211
1.69257
1.69255
1.69163
1.69071
1.6913
1.69161
1.69204
1.69206
1.69107
1.69083
1.6907
1.6911
1.68987
1.69357
1.68352
1.68957
1.68962
1.6914
1.68994
1.68919
1.68715
1.68777
1.68919
1.68988
1.68842
1.68763
1.6858
1.6871
1.68875
1.68888
1.68803
1.68732
1.68606
1.68699
1.68813
1.68835
1.68797
1.68748
1.68471
1.69256
1.68045
1.68655
1.68568
1.68824
1.68556
1.68538
1.6858
1.68543
1.68586
1.68613
1.68532
1.68431
1.68475
1.68488
1.68516
1.68516
1.68406
1.68293
1.68363
1.68399
1.68424
1.68422
1.68341
1.68182
1.6831
1.68352
1.68155
1.67965
1.68231
1.68032
1.6818
1.68156
1.68065
1.68009
1.67976
1.68028
1.68129
1.68151
1.68046
1.67989
1.6791
1.67958
1.68075
1.68095
1.67986
1.67927
1.67839
1.67902
1.68005
1.68019
1.67957
1.67914
1.6775
1.67879
1.67546
1.67781
1.67803
1.67906
1.67713
1.67644
1.67686
1.67719
1.67726
1.67746
1.67594
1.67476
1.67552
1.6759
1.67614
1.67605
1.67504
1.67312
1.67491
1.6754
1.67275
1.66809
1.67542
1.67276
1.67312
1.67305
1.67226
1.67182
1.67238
1.67224
1.67282
1.67321
1.67197
1.67146
1.67107
1.67105
1.67227
1.67246
1.67113
1.67057
1.66974
1.66997
1.67137
1.67144
1.67054
1.66979
1.66905
1.66633
1.66874
1.66853
1.66963
1.66882
1.66819
1.66619
1.66756
1.6682
1.66815
1.66774
1.66627
1.66432
1.66577
1.66649
1.66626
1.66607
1.66469
1.66142
1.66367
1.66483
1.66268
1.66161
1.66032
1.66237
1.66397
1.66425
1.6632
1.66237
1.66115
1.66152
1.66342
1.66365
1.66221
1.66145
1.66008
1.66061
1.66232
1.66248
1.66152
1.66067
1.65913
1.65742
1.65818
1.65906
1.6601
1.65988
1.65825
1.6565
1.65786
1.65866
1.65868
1.65857
1.65677
1.65501
1.65648
1.65727
1.65425
1.65347
1.65246
1.65176
1.65378
1.65445
1.65237
1.65108
1.64918
1.65075
1.65292
1.65337
1.65231
1.65136
1.64983
1.65084
1.65265
1.65295
1.65218
1.65147
1.64915
1.64858
1.64783
1.64952
1.65043
1.65068
1.64829
1.64666
1.64794
1.64887
1.64905
1.649
1.6471
1.645
1.64664
1.64762
1.64449
1.64345
1.64307
1.64298
1.64572
1.64521
1.64343
1.64292
1.6413
1.63945
1.64185
1.64252
1.64065
1.63878
1.6365
1.63446
1.63775
1.63826
1.64032
1.64002
1.63782
1.63602
1.63799
1.63899
1.63952
1.63927
1.63722
1.6348
1.63759
1.63843
1.63498
1.63293
1.63424
1.63326
1.63616
1.63587
1.63405
1.63311
1.63194
1.63147
1.63403
1.63407
1.632
1.63099
1.62905
1.62652
1.62722
1.62837
1.62762
1.62954
1.62455
1.61984
1.62333
1.62491
1.62577
1.62523
1.62207
1.62158
1.62339
1.62479
1.62276
1.62401
1.61737
1.62123
1.62388
1.62469
1.62282
1.62173
1.61838
1.61977
1.62262
1.623
1.62148
1.62063
1.6171
1.61535
1.61514
1.61743
1.61794
1.61848
1.61496
1.61274
1.6144
1.6156
1.61448
1.61411
1.61173
1.60689
1.61006
1.61179
1.60578
1.60288
1.59957
1.60422
1.60728
1.60813
1.60782
1.60583
1.60403
1.59948
1.6062
1.6052
1.60684
1.60597
1.60332
1.5996
1.60332
1.60443
1.60462
1.60421
1.6011
1.59787
1.60135
1.60248
1.59769
1.59591
1.59379
1.59464
1.59767
1.59811
1.59641
1.59447
1.59286
1.58194
1.58898
1.5894
1.5887
1.5873
1.58134
1.58122
1.58491
1.58747
1.58469
1.58514
1.57756
1.58273
1.58702
1.58753
1.58529
1.58365
1.57958
1.58139
1.58513
1.5857
1.58355
1.58218
1.57812
1.57371
1.57563
1.57797
1.57793
1.57746
1.57385
1.57141
1.57317
1.57565
1.56725
1.56579
1.5588
1.55777
1.56363
1.56616
1.56508
1.56303
1.5565
1.55624
1.55962
1.56245
1.56502
1.56427
1.56033
1.5582
1.5617
1.56417
1.55879
1.55705
1.55354
1.55517
1.55817
1.55929
1.55618
1.55474
1.55007
1.54373
1.54549
1.54853
1.54471
1.5416
1.53587
1.52998
1.5371
1.54129
1.53943
1.53634
1.52917
1.53239
1.53224
1.53696
1.53989
1.53897
1.53478
1.53326
1.53595
1.53913
1.53211
1.5314
1.52547
1.52569
1.53017
1.53094
1.52611
1.52493
1.51977
1.49925
1.50963
1.51514
1.50769
1.50276
1.49633
1.50626
1.51161
1.51321
1.51429
1.51183
1.50675
1.50304
1.51088
1.51261
1.50765
1.50067
1.50556
1.50001
1.50369
1.50487
1.49837
1.49425
1.48881
1.46656
1.47834
1.48609
1.48013
1.47366
1.47142
1.4815
1.48679
1.48808
1.48896
1.48608
1.48125
1.47603
1.48439
1.4865
1.4804
1.47292
1.47759
1.43338
1.45867
1.4595
1.46382
1.45923
1.44878
1.45108
1.46304
1.46643
1.46668
1.4628
1.45124
1.45088
1.46182
1.46665
1.45783
1.45008
1.43118
1.42547
1.43826
1.45043
1.44583
1.44686
1.42316
1.4468
1.45746
1.45874
1.46097
1.45603
1.4398
1.432
1.45179
1.45937
1.45919
1.45389
1.43781
1.4446
1.46026
1.46496
1.47197
1.46527
1.44815
1.45739
1.47288
1.47941
1.48685
1.48008
1.4655
1.47151
1.4853
1.49277
1.4973
1.48922
1.47632
1.48018
1.49236
1.50095
1.50397
1.49492
1.48353
1.48693
1.49726
1.50649
1.50876
1.49955
1.49025
1.49316
1.50167
1.51083
1.51268
1.50343
1.49564
1.49796
1.50492
1.51422
1.51555
1.50633
1.50023
1.50234
1.50778
1.51675
1.51789
1.50922
1.50419
1.50589
1.51056
1.51896
1.51992
1.51175
1.50755
1.5092
1.51284
1.52072
1.52144
1.51391
1.51076
1.51221
1.51503
1.52209
1.52278
1.51616
1.51358
1.51491
1.51728
1.52348
1.52418
1.51832
1.51621
1.51744
1.5193
1.52482
1.52538
1.5202
1.5186
1.51965
1.52106
1.52585
1.5263
1.52188
1.5206
1.52149
1.52269
1.52675
1.52722
1.52347
1.52232
1.52311
1.52422
1.52772
1.52823
1.52492
1.52388
1.52463
1.52558
1.52872
1.52917
1.5262
1.52537
1.52609
1.52679
1.52959
1.52998
1.52737
1.52679
1.52747
1.52794
1.53038
1.5308
1.52853
1.52816
1.52886
1.52913
1.53125
1.53171
1.52971
1.52954
1.53017
1.53029
1.53218
1.53265
1.53085
1.53076
1.53131
1.53139
1.53312
1.53358
1.53192
1.53181
1.53227
1.53242
1.53403
1.53449
1.53289
1.5327
1.53309
1.53334
1.53491
1.53533
1.53377
1.53349
1.53387
1.53417
1.53572
1.5361
1.53456
1.53425
1.53462
1.53494
1.53646
1.53681
1.5353
1.53499
1.53535
1.53567
1.53714
1.53747
1.53601
1.53569
1.53603
1.53636
1.53777
1.53807
1.53668
1.53635
1.53667
1.53701
1.53836
1.53865
1.53732
1.53696
1.53726
1.53763
1.53892
1.53918
1.53792
1.53754
1.53783
1.53822
1.53944
1.5397
1.5385
1.5381
1.53838
1.5388
1.53995
1.54019
1.53906
1.53863
1.53889
1.53934
1.54044
1.54067
1.53959
1.53913
1.53937
1.53985
1.5409
1.54111
1.54008
1.53959
1.53981
1.54031
1.54133
1.54152
1.54052
1.54002
1.54023
1.54074
1.54172
1.54189
1.54093
1.54042
1.54061
1.54112
1.54206
1.54222
1.5413
1.54079
1.54097
1.54148
1.54238
1.54252
1.54164
1.54113
1.54131
1.54181
1.54266
1.5428
1.54196
1.54146
1.54163
1.54212
1.54293
1.54305
1.54226
1.54177
1.54193
1.54241
1.54318
1.5433
1.54255
1.54207
1.54222
1.54269
1.54343
1.54354
1.54282
1.54235
1.5425
1.54296
1.54366
1.54378
1.54308
1.54262
1.54276
1.54321
1.5439
1.544
1.54332
1.54288
1.54301
1.54345
1.54411
1.54421
1.54355
1.54312
1.54325
1.54367
1.54431
1.54441
1.54377
1.54336
1.54348
1.54389
1.5445
1.54459
1.54398
1.54358
1.5437
1.54409
1.54469
1.54478
1.54418
1.54379
1.5439
1.54429
1.54488
1.54496
1.54438
1.54399
1.5441
1.54449
1.54506
1.54514
1.54457
1.54419
1.54429
1.54467
1.54524
1.54532
1.54475
1.54437
1.54447
1.54485
1.54541
1.54549
1.54493
1.54455
1.54464
1.54502
1.54558
1.54566
1.5451
1.54472
1.54481
1.54519
1.54575
1.54582
1.54526
1.54488
1.54497
1.54535
1.54591
1.54598
1.54542
1.54503
1.54512
1.54551
1.54606
1.54613
1.54557
1.54518
1.54527
1.54566
1.54622
1.54628
1.54572
1.54533
1.54541
1.5458
1.54636
1.54643
1.54587
1.54547
1.54555
1.54594
1.5465
1.54657
1.54601
1.54561
1.54569
1.54608
1.54664
1.54672
1.54615
1.54575
1.54583
1.54622
1.54678
1.54685
1.54628
1.54588
1.54596
1.54636
1.54691
1.54699
1.54641
1.54601
1.54609
1.54649
1.54705
1.54712
1.54654
1.54614
1.54622
1.54662
1.54719
1.54725
1.54667
1.54627
1.54634
1.54675
1.54732
1.54737
1.5468
1.54639
1.54647
1.54688
1.54745
1.5475
1.54693
1.54652
1.54659
1.547
1.54757
1.54762
1.54705
1.54664
1.54671
1.54713
1.5477
1.54775
1.54717
1.54676
1.54683
1.54725
1.54782
1.54787
1.5473
1.54688
1.54695
1.54737
1.54794
1.54799
1.54742
1.547
1.54707
1.54749
1.54806
1.5481
1.54753
1.54711
1.54718
1.5476
1.54818
1.54822
1.54765
1.54723
1.5473
1.54772
1.54829
1.54833
1.54777
1.54734
1.54741
1.54783
1.5484
1.54844
1.54788
1.54745
1.54752
1.54795
1.54851
1.54855
1.54799
1.54757
1.54763
1.54806
1.54862
1.54866
1.5481
1.54768
1.54774
1.54817
1.54873
1.54876
1.54821
1.54778
1.54785
1.54827
1.54883
1.54887
1.54831
1.54789
1.54796
1.54838
1.54893
1.54897
1.54842
1.548
1.54806
1.54848
1.54903
1.54907
1.54852
1.5481
1.54817
1.54859
1.54913
1.54916
1.54862
1.5482
1.54827
1.54869
1.54923
1.54926
1.54872
1.5483
1.54837
1.54878
1.54932
1.54935
1.54882
1.5484
1.54846
1.54888
1.54941
1.54944
1.54891
1.5485
1.54856
1.54897
1.5495
1.54953
1.54901
1.54859
1.54865
1.54906
1.54959
1.54961
1.54909
1.54868
1.54874
1.54915
1.54967
1.5497
1.54918
1.54877
1.54883
1.54924
1.54975
1.54977
1.54926
1.54885
1.54891
1.54932
1.54982
1.54985
1.54934
1.54893
1.54899
1.54939
1.5499
1.54992
1.54942
1.54901
1.54906
1.54947
1.54996
1.54999
1.54949
1.54908
1.54913
1.54954
1.55003
1.55005
1.54956
1.54915
1.5492
1.5496
1.55009
1.55011
1.54962
1.54922
1.54927
1.54967
1.55015
1.55017
1.54968
1.54928
1.54933
1.54973
1.55021
1.55023
1.54975
1.54935
1.54939
1.54979
1.55027
1.55028
1.54981
1.54941
1.54945
1.54985
1.55032
1.55034
1.54986
1.54947
1.54951
1.5499
1.55037
1.55039
1.54992
1.54953
1.54957
1.54996
1.55042
1.55045
1.54998
1.5496
1.54964
1.55002
1.55049
1.5505
1.55004
1.54966
1.54966
1.55003
1.55049
1.55046
1.55002
1.54968
1.54967
1.55001
1.55045
1.55071
1.55021
1.54983
1.55024
1.55064
1.55127
1.55165
1.55098
1.55057
1.55289
1.55494
1.55987
1.56211
1.5623
1.56517
1.56698
1.56736
1.56751
1.56858
1.56927
1.56999
1.57045
1.57088
1.57122
1.5715
1.5717
1.57184
1.57194
1.57201
1.57206
1.5721
1.57213
1.57215
1.57216
1.57217
1.57217
1.57217
1.57216
1.57217
1.57216
1.57217
1.57217
1.57214
1.57215
1.57224
1.57229
1.57239
1.57249
1.57262
1.57275
1.5729
1.57305
1.57319
1.57329
1.57335
1.57339
1.57345
1.57352
1.5736
1.57369
1.57379
1.57388
1.57399
1.5741
1.57421
1.57434
1.57447
1.57463
1.5748
1.575
1.57522
1.57548
1.57577
1.5761
1.57648
1.5769
1.57739
1.57794
1.57856
1.57926
1.58004
1.58092
1.5819
1.58299
1.58419
1.58552
1.58699
1.58858
1.59032
1.5922
1.59423
1.59639
1.5987
1.60113
1.60368
1.60634
1.60911
1.61196
1.61489
1.61787
1.6209
1.62395
1.62703
1.6301
1.63317
1.63622
1.63923
1.6422
1.64513
1.648
1.65081
1.65355
1.65622
1.65882
1.66135
1.6638
1.66617
1.66846
1.67068
1.67282
1.67489
1.67688
1.67879
1.68064
1.68242
1.68413
1.68577
1.68735
1.68887
1.69033
1.69173
1.69308
1.69437
1.69561
1.69681
1.69795
1.69905
1.70011
1.70112
1.7021
1.70303
1.70393
1.7048
1.70563
1.70643
1.70719
1.70793
1.70864
1.70932
1.70997
1.7106
1.7112
1.71178
1.71234
1.71288
1.7134
1.71389
1.71437
1.71483
1.71528
1.7157
1.71611
1.71651
1.71689
1.71726
1.71761
1.71795
1.71828
1.71859
1.71889
1.71919
1.71947
1.71974
1.72
1.72025
1.72049
1.72072
1.72095
1.72116
1.72137
1.72156
1.72175
1.72194
1.72211
1.72228
1.72244
1.72259
1.72274
1.72288
1.72302
1.72315
1.72327
1.72339
1.7235
1.7236
1.7237
1.7238
1.72389
1.72398
1.72406
1.72413
1.72421
1.72427
1.72434
1.72439
1.72445
1.7245
1.72454
1.72458
1.72462
1.72465
1.72471
1.72479
1.72486
1.72489
1.72489
1.72491
1.72477
1.72486
1.72486
1.72495
1.72503
1.72508
1.72512
1.72516
1.72519
1.72523
1.72527
1.72531
1.72536
1.7254
1.72546
1.72551
1.72557
1.72563
1.72569
1.72576
1.72583
1.7259
1.72597
1.72605
1.72613
1.72621
1.7263
1.72639
1.72648
1.72657
1.72666
1.72675
1.72685
1.72695
1.72705
1.72715
1.72725
1.72735
1.72745
1.72756
1.72766
1.72777
1.72787
1.72798
1.72808
1.72819
1.7283
1.7284
1.72851
1.72861
1.72871
1.72882
1.72892
1.72902
1.72912
1.72922
1.72932
1.72941
1.72951
1.7296
1.72969
1.72978
1.72986
1.72995
1.73003
1.73011
1.73018
1.73026
1.73033
1.7304
1.73046
1.73052
1.73058
1.73064
1.73069
1.73074
1.73078
1.73083
1.73087
1.73091
1.73096
1.73099
1.73101
1.73101
1.73104
1.7311
1.73121
1.73128
1.73129
1.73125
1.73122
1.73118
1.73116
1.73113
1.73112
1.7311
1.73109
1.73107
1.73107
1.73106
1.73106
1.73106
1.73106
1.73106
1.73108
1.73108
1.73109
1.7311
1.73112
1.73113
1.73115
1.73117
1.73119
1.73121
1.73124
1.73126
1.73129
1.73132
1.73135
1.73138
1.73141
1.73145
1.73148
1.73152
1.73156
1.7316
1.73164
1.73168
1.73173
1.73178
1.73182
1.73187
1.73192
1.73197
1.73203
1.73208
1.73214
1.7322
1.73225
1.73231
1.73238
1.73244
1.7325
1.73257
1.73264
1.7327
1.73277
1.73285
1.73292
1.73299
1.73307
1.73314
1.73322
1.7333
1.73338
1.73346
1.73354
1.73363
1.73371
1.73379
1.73387
1.73396
1.73404
1.73413
1.73421
1.7343
1.73438
1.73446
1.73454
1.73462
1.73469
1.73477
1.73483
1.7349
1.73496
1.73503
1.73508
1.73513
1.73517
1.73521
1.73524
1.73527
1.73529
1.7353
1.73531
1.7353
1.7353
1.73528
1.73526
1.73522
1.73518
1.73514
1.73509
1.73503
1.73498
1.73491
1.73485
1.73478
1.73472
1.73464
1.73457
1.7345
1.73443
1.73436
1.73429
1.73422