/*--------------------------------*- C++ -*----------------------------------*\
| =========                 |                                                 |
| \\      /  F ield         | OpenFOAM: The Open Source CFD Toolbox           |
|  \\    /   O peration     | Version:  v2006                                 |
|   \\  /    A nd           | Website:  www.openfoam.com                      |
|    \\/     M anipulation  |                                                 |
\*---------------------------------------------------------------------------*/
FoamFile
{
    version     2.0;
    format      ascii;
    class       volScalarField;
    location    "0.128";
    object      alphat;
}
// * * * * * * * * * * * * * * * * * * * * * * * * * * * * * * * * * * * * * //

dimensions      [1 -1 -1 0 0 0 0];


internalField   nonuniform List<scalar> 
16277
(
37.3261
25.2778
91.2971
18.2414
26.907
15.3406
6.34014
2.61108
1.41213
0.953863
0.750194
0.646876
0.585098
0.540234
0.502452
0.468456
0.437531
0.409726
0.38507
0.363387
0.344342
0.327535
0.312582
0.29916
0.287011
0.275938
0.265792
0.256458
0.247842
0.23987
0.232478
0.225611
0.219225
0.213279
0.207738
0.202573
0.197757
0.193269
0.189088
0.185195
0.181574
0.178212
0.175096
0.172215
0.16956
0.167123
0.164896
0.162874
0.161053
0.159428
0.157998
0.156761
0.155718
0.154869
0.154213
0.153758
0.153506
0.153466
0.153645
0.154047
0.154684
0.155569
0.15672
0.158153
0.159891
0.16196
0.16439
0.167219
0.170493
0.174274
0.178642
0.183703
0.189594
0.196474
0.2045
0.213782
0.224323
0.236047
0.249057
0.264495
0.286352
0.325971
0.41248
0.621744
1.15802
2.43443
4.29758
4.59548
2.72334
1.79894
0.885875
0.403961
0.219658
0.103639
0.0245576
0.00441851
0.0001464
0.000127054
0.00207673
0.0095644
0.00527016
0.00134567
0.00011128
9.96369e-05
0.00122688
0.00443177
0.00353617
0.00105454
9.20689e-05
8.61342e-05
0.00102197
0.00335343
0.00290156
0.000920533
8.108e-05
7.76728e-05
0.000904697
0.00282632
0.00257243
0.000843074
7.43144e-05
7.24985e-05
0.000848153
0.00254625
0.00238182
0.000803042
7.028e-05
6.90874e-05
0.000810249
0.00236723
0.00224242
0.000773924
6.74507e-05
6.66264e-05
0.000781077
0.00223589
0.00213272
0.000750267
6.53477e-05
6.47498e-05
0.000757216
0.00213069
0.00204132
0.000730104
6.37115e-05
6.32622e-05
0.000737029
0.00204218
0.00196265
0.000712407
6.23843e-05
6.20303e-05
0.000719361
0.00196541
0.00189327
0.000696434
6.12592e-05
6.09709e-05
0.000703309
0.00189729
0.00183097
0.000681708
6.02779e-05
6.00356e-05
0.000688498
0.0018359
0.00177439
0.000668007
5.93996e-05
5.91898e-05
0.000674727
0.00177999
0.00172256
0.000655201
5.85969e-05
5.84109e-05
0.00066186
0.00172874
0.00167471
0.000643181
5.78518e-05
5.7684e-05
0.000649776
0.00168141
0.00163039
0.000631843
5.7152e-05
5.69983e-05
0.000638374
0.00163754
0.00158921
0.000621112
5.64883e-05
5.63459e-05
0.000627577
0.00159675
0.00155087
0.000610929
5.58544e-05
5.57207e-05
0.000617344
0.00155876
0.0015151
0.000601272
5.52449e-05
5.5119e-05
0.00060764
0.00152328
0.00148163
0.0005921
5.46567e-05
5.45374e-05
0.000598416
0.00149002
0.00145017
0.000583359
5.40867e-05
5.39732e-05
0.00058962
0.00145872
0.00142048
0.000575001
5.35321e-05
5.34235e-05
0.000581202
0.00142913
0.00139234
0.000566979
5.29902e-05
5.28856e-05
0.000573115
0.00140106
0.00136558
0.000559246
5.24584e-05
5.2357e-05
0.000565311
0.00137432
0.00134001
0.000551758
5.19344e-05
5.18355e-05
0.000557746
0.00134875
0.00131551
0.000544475
5.14158e-05
5.13187e-05
0.000550381
0.00132422
0.00129195
0.000537362
5.09005e-05
5.08044e-05
0.000543182
0.0013006
0.00126922
0.000530388
5.03864e-05
5.02907e-05
0.00053612
0.0012778
0.00124722
0.000523529
4.98716e-05
4.97757e-05
0.000529171
0.00125571
0.00122588
0.000516762
4.93541e-05
4.92575e-05
0.000522313
0.00123428
0.00120514
0.000510072
4.88324e-05
4.87346e-05
0.000515533
0.00121344
0.00118495
0.000503446
4.8305e-05
4.82057e-05
0.000508821
0.00119315
0.00116529
0.00049688
4.77704e-05
4.76696e-05
0.000502188
0.0011734
0.00114612
0.000490376
4.72277e-05
4.71254e-05
0.000495674
0.00115417
0.00112746
0.000483958
4.66763e-05
4.65725e-05
0.000489228
0.00113545
0.00110929
0.000477601
4.61155e-05
4.60101e-05
0.000482865
0.00111723
0.00109163
0.000471326
4.55448e-05
4.5438e-05
0.000476608
0.00109955
0.0010745
0.000465163
4.49641e-05
4.48564e-05
0.000470488
0.00108244
0.00105795
0.000459148
4.43739e-05
4.42661e-05
0.000464548
0.00106596
0.00104208
0.000453327
4.37755e-05
4.36684e-05
0.000458848
0.00105037
0.00102705
0.000447772
4.31708e-05
4.30659e-05
0.000453467
0.0010358
0.001013
0.00044257
4.2563e-05
4.24622e-05
0.000448493
0.00102226
0.00100004
0.00043781
4.19562e-05
4.18621e-05
0.000444028
0.00100999
0.00098843
0.000433608
4.13559e-05
4.12716e-05
0.000440203
0.000999272
0.000978477
0.000430106
4.07687e-05
4.06992e-05
0.000437165
0.000990419
0.000970512
0.000427483
4.0203e-05
4.01563e-05
0.000434985
0.00098377
0.000964923
0.000425862
3.96764e-05
3.96457e-05
0.00043349
0.000979577
0.000961825
0.000424852
3.92097e-05
3.91837e-05
0.000432716
0.000978328
0.000961699
0.000424684
3.88016e-05
3.87791e-05
0.000432782
0.000980045
0.000964503
0.000425425
3.84858e-05
3.84471e-05
0.000433665
0.000984535
0.000970124
0.000427057
3.8259e-05
3.82084e-05
0.000435245
0.000991422
0.000978032
0.00042916
3.80412e-05
3.80644e-05
0.000437212
0.00100052
0.000988107
0.00043138
3.78996e-05
3.79852e-05
0.000439146
0.00101146
0.00099986
0.000433632
3.78389e-05
3.80004e-05
0.000440765
0.00102299
0.00101182
0.000435577
3.7879e-05
3.80932e-05
0.000442093
0.00103403
0.00102307
0.000436978
3.79966e-05
3.82519e-05
0.000443359
0.00104408
0.00103333
0.000438088
3.81808e-05
3.84723e-05
0.000444359
0.00105291
0.0010424
0.000439104
3.84256e-05
3.8746e-05
0.000445259
0.00106044
0.00105013
0.00043965
3.872e-05
3.90577e-05
0.00044592
0.0010668
0.00105628
0.000439993
3.90507e-05
3.93969e-05
0.000446355
0.00107174
0.00106056
0.000440156
3.94062e-05
3.97517e-05
0.000446563
0.00107589
0.00106352
0.000440196
3.97743e-05
4.01105e-05
0.000446629
0.00107839
0.00106481
0.000439897
4.01437e-05
4.04638e-05
0.000446557
0.00107914
0.00106359
0.000439139
4.05046e-05
4.0802e-05
0.000445833
0.00107773
0.00106104
0.000438156
4.0845e-05
4.11131e-05
0.000444863
0.00107489
0.00105744
0.00043706
4.11551e-05
4.13903e-05
0.000443761
0.00107084
0.00105284
0.000435946
4.14302e-05
4.16317e-05
0.000442572
0.00106566
0.00104736
0.000434834
4.16666e-05
4.18359e-05
0.000441347
0.00105953
0.00104113
0.000433757
4.18636e-05
4.19981e-05
0.000440114
0.00105264
0.00103426
0.000432722
4.20198e-05
4.21204e-05
0.000438844
0.00104508
0.00102686
0.000431646
4.21319e-05
4.21985e-05
0.000437519
0.001037
0.00101907
0.000430571
4.22086e-05
4.22557e-05
0.000436191
0.00102871
0.00101111
0.000429485
4.22618e-05
4.22937e-05
0.000434879
0.00102039
0.00100316
0.000428378
4.22952e-05
4.23151e-05
0.000433566
0.0010122
0.000995193
0.000427198
4.23105e-05
4.23195e-05
0.000432214
0.00100403
0.000987179
0.000425898
4.23013e-05
4.23087e-05
0.000430804
0.000995878
0.000979106
0.00042446
4.22677e-05
4.2289e-05
0.000429433
0.000987738
0.000970987
0.000423024
4.2237e-05
4.22402e-05
0.000427852
0.000979415
0.000963039
0.000421633
4.21974e-05
4.21869e-05
0.000426286
0.000971189
0.000954886
0.00042009
4.21404e-05
4.21418e-05
0.000424726
0.000963048
0.000946654
0.000418412
4.20699e-05
4.20868e-05
0.000423095
0.000954844
0.000938485
0.000416743
4.20098e-05
4.20104e-05
0.000421394
0.00094666
0.000930562
0.000415156
4.19526e-05
4.19424e-05
0.000419695
0.000938644
0.000922699
0.000413472
4.18636e-05
4.18974e-05
0.000418032
0.000930834
0.000914125
0.00041156
4.17491e-05
4.18183e-05
0.000415866
0.000923283
0.000906915
0.00040862
4.15971e-05
4.18557e-05
0.00041603
0.000920654
0.000909376
0.000415419
4.17385e-05
4.24208e-05
0.000416096
0.000919372
0.000962924
0.000437612
4.27447e-05
4.55299e-05
0.000410375
0.00093605
0.00142943
0.000596907
5.13712e-05
5.54295e-05
0.000309343
0.000709954
0.0017513
0.00401353
0.00750341
0.0106976
0.0128833
0.0169343
0.0195206
0.0218413
0.0231479
0.0237729
0.0235972
0.0225474
0.0210528
0.0186555
0.0163051
0.0127416
0.011133
0.00810086
0.00606077
0.00411632
0.00233964
0.0010738
0.00039091
0.000162234
3.13453e-05
2.0456e-05
0.00015068
0.000354334
0.00033571
0.000143473
1.96953e-05
1.89274e-05
0.000138199
0.000318059
0.000318887
0.000136131
1.87358e-05
1.86127e-05
0.000135352
0.000313821
0.00031405
0.000134032
1.84196e-05
1.84047e-05
0.000134021
0.000313721
0.000314648
0.000134119
1.84365e-05
1.84354e-05
0.000134281
0.000315285
0.000315774
0.000134491
1.84673e-05
1.84836e-05
0.000134695
0.0003167
0.000317138
0.000134907
1.84971e-05
1.85243e-05
0.000135145
0.000318133
0.000318685
0.000135422
1.85175e-05
1.85477e-05
0.000135707
0.000319719
0.000320285
0.000135893
1.85637e-05
1.85982e-05
0.000136182
0.000321348
0.000321847
0.000136316
1.8598e-05
1.86062e-05
0.000136759
0.00032297
0.000323508
0.000136885
1.86458e-05
1.86533e-05
0.000137291
0.000324702
0.000325297
0.000137485
1.86727e-05
1.8681e-05
0.000137902
0.000326511
0.000327066
0.000138012
1.87249e-05
1.87346e-05
0.000138416
0.000328273
0.000328829
0.0001386
1.87527e-05
1.87568e-05
0.000138999
0.000330075
0.000330684
0.000139198
1.88012e-05
1.88091e-05
0.000139628
0.000331944
0.000332529
0.000139815
1.88289e-05
1.8837e-05
0.00014026
0.000333843
0.000334443
0.000140456
1.88827e-05
1.88914e-05
0.000140899
0.000335831
0.000336508
0.000141173
1.89148e-05
1.89231e-05
0.000141597
0.000337868
0.000338513
0.000141842
1.89581e-05
1.89956e-05
0.000142218
0.000339884
0.000340516
0.000142441
1.89997e-05
1.90096e-05
0.000142932
0.000341909
0.000342572
0.000143226
1.90436e-05
1.90805e-05
0.000143632
0.000343985
0.000344657
0.000143874
1.90856e-05
1.90985e-05
0.000144445
0.000346138
0.000346838
0.000144716
1.91337e-05
1.91735e-05
0.000145134
0.000348307
0.000348987
0.000145384
1.91809e-05
1.91927e-05
0.000145925
0.000350457
0.000351141
0.000146199
1.92274e-05
1.92667e-05
0.000146639
0.000352597
0.000353251
0.000146867
1.92709e-05
1.92843e-05
0.000147432
0.000354699
0.000355321
0.000147658
1.93165e-05
1.93525e-05
0.000148085
0.000356738
0.000357382
0.000148331
1.93579e-05
1.93702e-05
0.000148907
0.00035882
0.000359476
0.000149152
1.94034e-05
1.94427e-05
0.000149575
0.000360857
0.000361427
0.000149726
1.94456e-05
1.94562e-05
0.000150212
0.000362774
0.000363194
0.00015036
1.94842e-05
1.95128e-05
0.000150649
0.000364346
0.00036479
0.000150697
1.95081e-05
1.95183e-05
0.000151174
0.000365945
0.000366414
0.000151184
1.95532e-05
1.95517e-05
0.000151438
0.000367378
0.000367726
0.000151364
1.95651e-05
1.95618e-05
0.00015153
0.000368514
0.000368595
0.000151303
1.9587e-05
1.95745e-05
0.000151264
0.000369084
0.000369052
0.00015092
1.95716e-05
1.95506e-05
0.000150737
0.000369247
0.000369208
0.000150339
1.95555e-05
1.95581e-05
0.000149878
0.000369291
0.000368894
0.000149289
1.95325e-05
1.95062e-05
0.000148724
0.000368797
0.000368013
0.000147866
1.95014e-05
1.94933e-05
0.000146965
0.000367776
0.000366641
0.000145892
1.94609e-05
1.94272e-05
0.000144877
0.000366125
0.000364636
0.000143413
1.94265e-05
1.93873e-05
0.000142243
0.000363942
0.000362187
0.000140722
1.93644e-05
1.93436e-05
0.000139449
0.000361814
0.000359701
0.000137794
1.93477e-05
1.93694e-05
0.000136401
0.00035952
0.0003579
0.00013492
1.93785e-05
1.94312e-05
0.000133731
0.000358461
0.000357397
0.000132205
1.95039e-05
1.95956e-05
0.000130912
0.00035748
0.000356595
0.000129521
1.96931e-05
1.98424e-05
0.000128893
0.000358368
0.000360865
0.000127651
2.00302e-05
2.02256e-05
0.000126904
0.000364881
0.000370135
0.000128191
2.04294e-05
2.0637e-05
0.000128886
0.00037507
0.000377924
0.000128174
2.06895e-05
2.08405e-05
0.000125883
0.000383817
0.000390141
0.000132703
2.11377e-05
2.13453e-05
0.000128851
0.00039572
0.000400666
0.000132062
2.16942e-05
2.19531e-05
0.000133793
0.000410419
0.000412868
0.000136605
2.23191e-05
2.28438e-05
0.000143742
0.000425828
0.000428219
0.000147552
2.33632e-05
2.38174e-05
0.00015385
0.000439776
0.000443153
0.000159262
2.47011e-05
2.64955e-05
0.000184045
0.000462052
0.000458206
0.000194028
1.98365e-05
1.5362e-05
4.77498e-05
0.000128354
0.000360118
0.00011199
1.80076e-05
1.88982e-05
0.000100219
0.000330611
0.000348421
0.000104241
1.93826e-05
1.96877e-05
9.79508e-05
0.000332391
0.000356802
0.000105182
2.02368e-05
2.08029e-05
0.000103606
0.00035181
0.000387323
0.000118033
2.14897e-05
2.22772e-05
0.000117661
0.000380522
0.000418029
0.00013764
2.31575e-05
2.43846e-05
0.000141434
0.000420973
0.000469693
0.000170666
2.69027e-05
2.05319e-05
0.00018902
0.000480888
0.000128503
4.52072e-05
1.66132e-05
1.97293e-05
0.000121897
0.000404674
0.000395718
0.000112915
2.13927e-05
2.26594e-05
0.00014727
0.000487815
0.000496794
0.000148862
2.35872e-05
2.49829e-05
0.00017338
0.000551427
0.000567856
0.000185047
2.665e-05
2.98778e-05
0.000221068
0.000621371
0.000604454
0.000240027
2.32919e-05
1.74815e-05
5.41096e-05
0.000159658
0.000491249
0.000144936
2.089e-05
2.26296e-05
0.000134978
0.000481828
0.000555406
0.00016753
2.41948e-05
2.59288e-05
0.000167798
0.000548045
0.000620899
0.000213341
2.97976e-05
2.37107e-05
0.000245829
0.000623086
0.00016838
5.48897e-05
1.78501e-05
2.20031e-05
0.000153614
0.000559134
0.000576341
0.000161426
2.48163e-05
2.88436e-05
0.000229417
0.000743099
0.000777039
0.000268056
3.36397e-05
2.73828e-05
0.000309606
0.000783835
0.000217311
6.48557e-05
1.88116e-05
2.41837e-05
0.000206764
0.000698054
0.000692924
0.000199844
2.81146e-05
3.51703e-05
0.000296609
0.000872465
0.000886252
0.000344466
2.90735e-05
1.98281e-05
7.34807e-05
0.000269314
0.000901549
0.000266006
2.80701e-05
3.53192e-05
0.0002803
0.000970267
0.00134282
0.000472632
4.81994e-05
4.02152e-05
0.000503348
0.0012891
0.000455191
0.00011946
2.62147e-05
4.6769e-05
0.000489715
0.00140516
0.00140818
0.000524223
4.37324e-05
2.95025e-05
0.000134204
0.000555755
0.00194937
0.000647963
6.49352e-05
6.41492e-05
0.000747559
0.00211797
0.000964647
0.000266498
4.0765e-05
6.49162e-05
0.00086756
0.00252796
0.00167
0.000553871
4.32259e-05
8.02853e-05
0.000976779
0.00197009
0.0016894
0.000817166
6.60139e-05
6.67805e-05
0.000778192
0.00185118
0.00237214
0.000857672
7.64766e-05
0.000105536
0.00159891
0.00395023
0.000879071
0.000273272
5.99298e-05
6.13618e-05
0.000766094
0.00175564
0.000542718
0.000193962
4.27582e-05
4.63581e-05
0.000473116
0.0011378
0.000972138
0.00034956
4.68213e-05
2.61253e-05
9.08605e-05
0.000277396
0.000653141
0.00036907
3.04979e-05
2.89472e-05
0.000116453
0.000297338
0.000722826
0.000314032
3.31147e-05
3.54297e-05
0.000257025
0.000655727
0.000213898
8.02775e-05
2.34074e-05
2.78871e-05
0.0002524
0.000567949
0.000521456
0.000211416
3.14233e-05
2.17897e-05
6.87123e-05
0.000173977
0.000481194
0.000214102
2.52711e-05
2.89949e-05
0.000185475
0.000441925
0.000152917
6.36143e-05
2.11414e-05
2.39111e-05
0.000190397
0.000424679
0.000384296
0.000167532
2.79426e-05
2.07364e-05
5.88645e-05
0.00013673
0.000374721
0.000171516
2.25531e-05
2.71199e-05
0.00015199
0.000342439
0.000124678
5.62884e-05
2.05658e-05
2.19682e-05
0.000159982
0.000339056
0.000305047
0.000139827
2.61263e-05
2.00451e-05
5.21685e-05
0.000113758
0.000307939
0.000147169
2.09947e-05
2.57121e-05
0.000131059
0.000281904
0.000111125
5.23216e-05
2.02069e-05
2.09975e-05
0.000149691
0.00030084
0.000255972
0.00012084
2.6514e-05
2.22043e-05
9.5844e-05
0.000208805
8.15693e-05
3.79169e-05
1.85045e-05
1.76384e-05
0.000100249
0.000204729
0.00019453
9.3601e-05
2.24503e-05
1.80058e-05
3.81208e-05
8.03287e-05
0.000191547
9.79263e-05
1.73893e-05
2.24527e-05
8.97274e-05
0.000178017
7.36331e-05
3.70272e-05
1.81984e-05
1.67877e-05
8.89341e-05
0.000168401
0.000160325
8.45808e-05
2.14721e-05
1.76098e-05
3.55247e-05
7.02752e-05
0.000160203
8.72443e-05
1.67802e-05
2.17173e-05
8.2175e-05
0.000151207
6.75561e-05
3.45642e-05
1.75076e-05
1.62687e-05
7.9773e-05
0.000146463
0.000139665
7.73265e-05
2.12233e-05
1.76741e-05
3.32449e-05
6.25113e-05
0.000136944
7.68584e-05
1.59403e-05
2.09035e-05
7.21017e-05
0.000129602
6.09308e-05
3.33662e-05
1.7436e-05
1.56513e-05
7.29123e-05
0.000125228
0.000121745
6.87014e-05
2.06929e-05
1.73442e-05
3.04355e-05
5.4815e-05
0.000108964
8.27146e-05
1.50855e-05
1.92004e-05
3.80602e-05
6.34101e-05
0.000144739
8.23198e-05
1.71741e-05
2.18017e-05
7.67797e-05
0.000133966
6.43318e-05
3.71036e-05
1.79241e-05
1.63292e-05
7.90533e-05
0.000132488
0.000125464
7.36161e-05
2.14763e-05
1.78714e-05
3.66638e-05
6.21401e-05
0.000131326
7.83508e-05
1.62608e-05
2.11542e-05
7.22291e-05
0.000122795
6.05804e-05
3.65564e-05
1.75757e-05
1.61441e-05
7.42992e-05
0.000118255
0.000112309
6.72706e-05
2.14007e-05
1.77668e-05
3.62705e-05
5.74495e-05
0.000110476
6.95818e-05
1.57316e-05
2.07833e-05
6.31852e-05
0.000103043
5.09065e-05
3.3159e-05
1.72756e-05
1.46899e-05
7.04704e-05
9.16643e-05
5.5653e-05
3.81572e-05
1.89754e-05
1.68281e-05
6.75223e-05
0.000109402
0.000100308
6.17476e-05
2.15044e-05
1.75731e-05
3.68347e-05
5.34478e-05
9.90898e-05
6.47015e-05
1.56066e-05
2.06822e-05
5.96068e-05
8.9812e-05
4.80558e-05
3.44169e-05
1.73287e-05
1.46057e-05
6.41787e-05
8.19089e-05
5.20903e-05
3.78832e-05
1.92119e-05
1.67568e-05
6.51131e-05
0.000100494
9.10512e-05
5.93119e-05
2.12919e-05
1.74909e-05
3.72784e-05
5.0935e-05
9.39487e-05
6.25958e-05
1.55672e-05
2.07112e-05
5.68483e-05
8.52045e-05
4.62711e-05
3.45736e-05
1.72851e-05
1.45819e-05
6.02723e-05
7.5692e-05
4.89884e-05
3.72358e-05
1.92259e-05
1.65276e-05
6.06338e-05
9.27644e-05
8.35189e-05
5.57183e-05
2.11318e-05
1.74106e-05
3.71173e-05
4.74412e-05
8.45177e-05
5.76647e-05
1.55197e-05
2.05609e-05
5.27311e-05
7.68371e-05
4.32531e-05
3.40476e-05
1.67002e-05
1.44988e-05
5.45252e-05
6.76148e-05
4.50434e-05
3.61738e-05
1.91912e-05
1.6204e-05
5.53922e-05
8.2294e-05
7.34591e-05
5.01995e-05
2.08271e-05
1.70311e-05
3.46844e-05
4.20588e-05
6.60277e-05
5.49118e-05
1.41604e-05
1.88898e-05
3.69245e-05
4.46935e-05
8.14944e-05
5.40105e-05
1.59961e-05
2.09267e-05
4.99917e-05
7.29958e-05
4.27637e-05
3.5812e-05
1.71078e-05
1.44933e-05
5.37301e-05
6.54699e-05
4.48922e-05
3.78642e-05
1.9151e-05
1.59389e-05
5.4212e-05
8.01025e-05
7.18297e-05
4.97748e-05
2.08195e-05
1.69442e-05
3.5829e-05
4.21121e-05
6.47308e-05
5.44754e-05
1.417e-05
1.91028e-05
3.79808e-05
4.45113e-05
7.8978e-05
5.32743e-05
1.61566e-05
2.10377e-05
4.93656e-05
7.08203e-05
4.21087e-05
3.66077e-05
1.73588e-05
1.44481e-05
5.42447e-05
6.345e-05
4.42596e-05
3.88295e-05
1.91916e-05
1.61531e-05
5.25471e-05
7.75506e-05
6.94505e-05
4.86708e-05
2.08523e-05
1.68437e-05
3.64731e-05
4.14454e-05
6.13577e-05
5.28531e-05
1.4339e-05
1.89595e-05
3.94738e-05
4.40935e-05
6.69194e-05
5.1761e-05
1.5215e-05
1.96836e-05
4.00514e-05
4.63546e-05
7.88996e-05
5.25531e-05
1.64923e-05
2.09234e-05
4.89397e-05
7.02738e-05
4.25231e-05
3.76334e-05
1.70726e-05
1.42352e-05
5.40885e-05
6.29521e-05
4.45087e-05
4.02564e-05
1.92886e-05
1.61841e-05
5.21476e-05
7.61284e-05
6.84147e-05
4.86908e-05
2.09866e-05
1.68566e-05
3.74143e-05
4.16408e-05
6.05875e-05
5.2452e-05
1.45494e-05
1.92294e-05
4.02073e-05
4.43222e-05
6.58555e-05
5.14964e-05
1.55553e-05
1.96265e-05
4.11328e-05
4.62958e-05
7.76002e-05
5.2049e-05
1.62356e-05
2.10243e-05
4.87239e-05
6.9105e-05
4.25024e-05
3.89475e-05
1.74174e-05
1.4312e-05
5.46412e-05
6.1795e-05
4.57956e-05
4.23287e-05
1.92716e-05
1.54832e-05
5.25695e-05
6.76146e-05
4.78832e-05
4.32336e-05
1.98233e-05
1.65352e-05
5.28998e-05
7.914e-05
7.0713e-05
4.98248e-05
2.13685e-05
1.72586e-05
4.00445e-05
4.38025e-05
6.27845e-05
5.57778e-05
1.44187e-05
1.92669e-05
4.28712e-05
4.6592e-05
6.77886e-05
5.35309e-05
1.54967e-05
1.98328e-05
4.37769e-05
4.83724e-05
7.93335e-05
5.36081e-05
1.65214e-05
2.12775e-05
5.05571e-05
7.09475e-05
4.45146e-05
4.13835e-05
1.75719e-05
1.4633e-05
5.64925e-05
6.36518e-05
4.76907e-05
4.44128e-05
1.9566e-05
1.58543e-05
5.45029e-05
6.90013e-05
4.96052e-05
4.51002e-05
1.99086e-05
1.6461e-05
5.39669e-05
7.98395e-05
7.13762e-05
5.09056e-05
2.11776e-05
1.7692e-05
4.10997e-05
4.44388e-05
6.27897e-05
5.69034e-05
1.46041e-05
1.94936e-05
4.38988e-05
4.70381e-05
6.71771e-05
5.32396e-05
1.57455e-05
2.00271e-05
4.46862e-05
4.85528e-05
7.70674e-05
5.27377e-05
1.65873e-05
2.14567e-05
5.01253e-05
6.91348e-05
4.40998e-05
4.15675e-05
1.79739e-05
1.47086e-05
5.65834e-05
6.23057e-05
4.71387e-05
4.42577e-05
1.93674e-05
1.53711e-05
5.26196e-05
6.6525e-05
4.94971e-05
4.51395e-05
1.96668e-05
1.56538e-05
5.4068e-05
6.91888e-05
5.08621e-05
4.78145e-05
1.99414e-05
1.66137e-05
5.4978e-05
7.93114e-05
7.10605e-05
5.22597e-05
2.12519e-05
1.71711e-05
4.30467e-05
4.56994e-05
6.37673e-05
5.77464e-05
1.47125e-05
1.96287e-05
4.5388e-05
4.84282e-05
6.70516e-05
5.38382e-05
1.58134e-05
1.98919e-05
4.59071e-05
5.03361e-05
6.94052e-05
5.44893e-05
1.57614e-05
1.99925e-05
4.85755e-05
5.14764e-05
7.93541e-05
5.54813e-05
1.65986e-05
2.13614e-05
5.27891e-05
7.11836e-05
4.6521e-05
4.44814e-05
1.79188e-05
1.46747e-05
5.91593e-05
6.42485e-05
4.93338e-05
4.6711e-05
1.96924e-05
1.58228e-05
5.41912e-05
6.85898e-05
5.17431e-05
4.76371e-05
2.00775e-05
1.60357e-05
5.63089e-05
7.09901e-05
5.31163e-05
5.04905e-05
2.02797e-05
1.68843e-05
5.70724e-05
8.07417e-05
7.2597e-05
5.42822e-05
2.15848e-05
1.7924e-05
4.55008e-05
4.79296e-05
6.50199e-05
6.02394e-05
1.47331e-05
1.97833e-05
4.76045e-05
5.03129e-05
6.86141e-05
5.48548e-05
1.57564e-05
2.00836e-05
4.78468e-05
5.20505e-05
7.04458e-05
5.60215e-05
1.59604e-05
2.03689e-05
5.06126e-05
5.31791e-05
7.93828e-05
5.63903e-05
1.68373e-05
2.15895e-05
5.42055e-05
7.20646e-05
4.8268e-05
4.59347e-05
1.74655e-05
1.51158e-05
5.92023e-05
6.48942e-05
5.10378e-05
4.86424e-05
2.00658e-05
1.58943e-05
5.64366e-05
6.89964e-05
5.27707e-05
4.88541e-05
2.00083e-05
1.57599e-05
5.57237e-05
7.0479e-05
5.4049e-05
5.01756e-05
2.00236e-05
1.60527e-05
5.85678e-05
7.23322e-05
5.50194e-05
5.30825e-05
2.02616e-05
1.68451e-05
5.88776e-05
8.14785e-05
7.38687e-05
5.6327e-05
2.16256e-05
1.82136e-05
4.72025e-05
4.98587e-05
6.54632e-05
6.15566e-05
1.48027e-05
1.99873e-05
4.92239e-05
5.18548e-05
6.87306e-05
5.55297e-05
1.60268e-05
2.03573e-05
4.97355e-05
5.35697e-05
7.05845e-05
5.65005e-05
1.59939e-05
2.01957e-05
5.15083e-05
5.48373e-05
7.30215e-05
5.9334e-05
1.61627e-05
2.04129e-05
5.43244e-05
5.59921e-05
8.28237e-05
6.01243e-05
1.69484e-05
2.18279e-05
5.77762e-05
7.51978e-05
5.17268e-05
4.97428e-05
1.82187e-05
1.49535e-05
6.39799e-05
6.78777e-05
5.40372e-05
5.1748e-05
1.99837e-05
1.58154e-05
5.87364e-05
7.21003e-05
5.60502e-05
5.19802e-05
2.02696e-05
1.61312e-05
5.93637e-05
7.38248e-05
5.73581e-05
5.3755e-05
2.02699e-05
1.6155e-05
6.20719e-05
7.58879e-05
5.84385e-05
5.64655e-05
2.04901e-05
1.7153e-05
6.21308e-05
8.47945e-05
7.72769e-05
5.95584e-05
2.18773e-05
1.84275e-05
5.09223e-05
5.34643e-05
6.85724e-05
6.45332e-05
1.52092e-05
2.01975e-05
5.27336e-05
5.54743e-05
7.21023e-05
5.923e-05
1.61593e-05
2.06194e-05
5.27805e-05
5.72011e-05
7.34758e-05
5.91055e-05
1.63154e-05
2.05614e-05
5.45669e-05
5.81038e-05
7.56832e-05
6.20217e-05
1.64901e-05
2.07234e-05
5.77787e-05
5.90191e-05
8.47922e-05
6.31671e-05
1.71715e-05
2.21314e-05
6.09361e-05
7.78316e-05
5.4741e-05
5.27264e-05
1.84639e-05
1.52365e-05
6.65017e-05
7.02362e-05
5.70285e-05
5.45193e-05
2.02977e-05
1.61705e-05
6.10022e-05
7.39324e-05
5.90082e-05
5.481e-05
2.06386e-05
1.63739e-05
6.13825e-05
7.59177e-05
6.03424e-05
5.64156e-05
2.05248e-05
1.64534e-05
6.42331e-05
7.7777e-05
6.09716e-05
5.92027e-05
2.06855e-05
1.71899e-05
6.4376e-05
8.64074e-05
7.91131e-05
6.2133e-05
2.2235e-05
1.87825e-05
5.3589e-05
5.59882e-05
6.98616e-05
6.71542e-05
1.5315e-05
2.03881e-05
5.52079e-05
5.77182e-05
7.25101e-05
6.03901e-05
1.62221e-05
2.08087e-05
5.53672e-05
5.91373e-05
7.41958e-05
6.08747e-05
1.64865e-05
2.06467e-05
5.68894e-05
6.02161e-05
7.62769e-05
6.32053e-05
1.64355e-05
2.05607e-05
5.8742e-05
6.17989e-05
7.9059e-05
6.62883e-05
1.64294e-05
2.07601e-05
6.17303e-05
6.2715e-05
8.8841e-05
6.67881e-05
1.72844e-05
2.24231e-05
6.46862e-05
8.18207e-05
5.87115e-05
5.67793e-05
1.84927e-05
1.54582e-05
7.04444e-05
7.39684e-05
6.13257e-05
5.91891e-05
2.0644e-05
1.6471e-05
6.55642e-05
7.78022e-05
6.31447e-05
5.93217e-05
2.08056e-05
1.64909e-05
6.59947e-05
8.00372e-05
6.47263e-05
6.09835e-05
2.06567e-05
1.65197e-05
6.90632e-05
8.28381e-05
6.60711e-05
6.41224e-05
2.09037e-05
1.74937e-05
6.94014e-05
9.18072e-05
8.41716e-05
6.71022e-05
2.26557e-05
1.88384e-05
5.87826e-05
6.08624e-05
7.5589e-05
7.2573e-05
1.55792e-05
2.07763e-05
6.07212e-05
6.33821e-05
7.81879e-05
6.67794e-05
1.66169e-05
2.09818e-05
6.03427e-05
6.4478e-05
7.92959e-05
6.61209e-05
1.67628e-05
2.08667e-05
6.18813e-05
6.54019e-05
8.13842e-05
6.86811e-05
1.66715e-05
2.11296e-05
6.4976e-05
6.61113e-05
9.04795e-05
6.93063e-05
1.7596e-05
2.30299e-05
6.76215e-05
8.35701e-05
6.18001e-05
6.03246e-05
1.88674e-05
1.56662e-05
7.33619e-05
7.59777e-05
6.44755e-05
6.27661e-05
2.09824e-05
1.67667e-05
6.86944e-05
7.96014e-05
6.62623e-05
6.28055e-05
2.10783e-05
1.6682e-05
6.85796e-05
8.14559e-05
6.74269e-05
6.43176e-05
2.09595e-05
1.68398e-05
7.09454e-05
8.42051e-05
6.88742e-05
6.78236e-05
2.1414e-05
1.782e-05
7.21083e-05
9.33264e-05
8.59208e-05
7.03005e-05
2.31705e-05
1.91862e-05
6.2788e-05
6.41787e-05
7.82803e-05
7.63953e-05
1.58179e-05
2.09794e-05
6.43528e-05
6.66744e-05
8.0737e-05
6.99465e-05
1.67738e-05
2.13334e-05
6.43454e-05
6.79347e-05
8.19839e-05
6.97578e-05
1.68908e-05
2.13628e-05
6.61644e-05
6.90348e-05
8.42206e-05
7.20304e-05
1.70098e-05
2.18401e-05
6.98087e-05
6.99548e-05
9.3489e-05
7.32276e-05
1.82979e-05
2.38626e-05
7.19855e-05
8.67526e-05
6.6385e-05
6.59555e-05
1.96497e-05
1.63348e-05
7.84123e-05
8.03904e-05
6.91268e-05
6.7889e-05
2.13823e-05
1.70428e-05
7.42684e-05
8.42295e-05
7.11151e-05
6.82268e-05
2.16844e-05
1.7049e-05
7.41759e-05
8.66399e-05
7.20051e-05
7.09353e-05
2.20202e-05
1.85001e-05
7.4128e-05
9.48633e-05
8.76746e-05
7.2933e-05
2.42989e-05
2.01499e-05
6.67053e-05
6.73961e-05
7.97874e-05
7.86253e-05
1.65097e-05
2.16724e-05
6.81968e-05
6.95888e-05
8.25525e-05
7.36152e-05
1.73066e-05
2.20994e-05
6.8538e-05
7.10365e-05
8.46293e-05
7.28918e-05
1.74459e-05
2.25579e-05
7.20187e-05
7.18871e-05
9.29284e-05
7.42255e-05
1.86801e-05
2.45706e-05
7.34208e-05
8.65894e-05
6.81716e-05
6.80677e-05
1.98734e-05
1.65257e-05
7.9794e-05
8.03817e-05
7.09374e-05
7.0498e-05
2.20228e-05
1.7348e-05
7.46593e-05
8.42535e-05
7.28048e-05
7.09898e-05
2.23581e-05
1.77401e-05
7.52875e-05
8.66903e-05
7.39618e-05
7.40416e-05
2.27872e-05
1.8883e-05
7.58903e-05
9.45217e-05
8.80533e-05
7.54565e-05
2.51009e-05
2.07515e-05
7.0146e-05
7.03351e-05
8.104e-05
8.12827e-05
1.67633e-05
2.22684e-05
7.17253e-05
7.21096e-05
8.39174e-05
7.57784e-05
1.7693e-05
2.27336e-05
7.23726e-05
7.37331e-05
8.64934e-05
7.53602e-05
1.79523e-05
2.33777e-05
7.62477e-05
7.49475e-05
9.51881e-05
7.74277e-05
1.94656e-05
2.56214e-05
7.7137e-05
8.91163e-05
7.22376e-05
7.33278e-05
2.09368e-05
1.70821e-05
8.401e-05
8.38491e-05
7.48834e-05
7.55831e-05
2.28681e-05
1.81643e-05
7.95569e-05
8.80508e-05
7.73388e-05
7.64222e-05
2.34506e-05
1.86738e-05
7.93094e-05
9.11783e-05
7.91644e-05
8.04956e-05
2.42273e-05
2.01376e-05
8.15958e-05
9.97701e-05
9.34867e-05
8.14716e-05
2.66094e-05
2.16978e-05
7.69185e-05
7.6501e-05
8.73157e-05
8.79777e-05
1.76932e-05
2.34823e-05
7.91424e-05
7.86279e-05
9.12243e-05
8.25207e-05
1.87089e-05
2.46459e-05
8.17477e-05
8.03072e-05
9.94513e-05
8.18286e-05
2.0518e-05
2.70169e-05
8.12844e-05
9.35609e-05
7.69408e-05
7.86297e-05
2.23389e-05
1.80224e-05
8.85396e-05
8.80835e-05
7.9887e-05
8.11913e-05
2.40789e-05
1.91652e-05
8.43554e-05
9.24809e-05
8.24811e-05
8.258e-05
2.48398e-05
1.97797e-05
8.44551e-05
9.64424e-05
8.50412e-05
8.75073e-05
2.57941e-05
2.14631e-05
8.79729e-05
0.000106009
9.94584e-05
8.81752e-05
2.83545e-05
2.30791e-05
8.49088e-05
8.33335e-05
9.41544e-05
9.57291e-05
1.87488e-05
2.51454e-05
8.74103e-05
8.63235e-05
9.93307e-05
9.0041e-05
2.01317e-05
2.6408e-05
9.0477e-05
8.81762e-05
0.000108483
9.00131e-05
2.15899e-05
2.88133e-05
9.02186e-05
0.000102464
8.64914e-05
8.874e-05
2.42569e-05
1.99379e-05
9.78025e-05
9.7256e-05
8.93959e-05
9.1881e-05
2.64981e-05
2.12355e-05
9.37605e-05
0.000103197
9.22432e-05
9.55763e-05
2.78761e-05
2.32489e-05
9.44385e-05
0.000112984
0.000106711
9.49232e-05
3.07261e-05
2.51049e-05
9.29206e-05
9.06966e-05
0.000101927
0.000102536
2.03502e-05
2.76982e-05
9.75906e-05
9.34566e-05
0.000112408
9.57467e-05
2.31002e-05
3.08362e-05
9.56426e-05
0.000106961
9.0936e-05
9.22156e-05
2.50688e-05
2.00097e-05
0.000103262
0.000101298
9.35565e-05
9.51829e-05
2.72443e-05
2.18503e-05
9.62592e-05
0.000105767
9.56393e-05
9.90067e-05
2.90085e-05
2.41739e-05
9.6828e-05
0.000114761
0.000109201
9.81493e-05
3.21251e-05
2.63383e-05
9.72271e-05
9.46961e-05
0.000104628
0.000105212
2.15954e-05
2.9274e-05
0.000102656
9.71742e-05
0.000114579
9.94302e-05
2.4541e-05
3.27352e-05
9.96527e-05
0.000109508
9.59629e-05
9.88729e-05
2.69479e-05
2.17835e-05
0.000106735
0.000105366
9.78375e-05
0.000103499
2.93641e-05
2.39542e-05
9.94538e-05
0.000114946
0.000110055
0.000100233
3.26579e-05
2.72601e-05
9.91322e-05
9.6569e-05
0.000105612
0.000106192
2.23662e-05
3.04666e-05
0.000105328
9.93349e-05
0.000115118
0.000100921
2.53002e-05
3.40678e-05
0.000101793
0.000110437
9.8478e-05
0.000102272
2.80701e-05
2.27092e-05
0.000108579
0.00010701
0.000100731
0.000107407
3.07517e-05
2.53757e-05
0.000102428
0.000116671
0.000111952
0.000102999
3.41159e-05
2.79892e-05
0.000102994
9.9672e-05
0.000108171
0.000111325
2.18512e-05
3.05559e-05
0.000108328
0.000101895
0.000117348
0.000102599
2.57577e-05
3.51403e-05
0.000103653
0.000112843
0.000101997
0.000107223
2.92359e-05
2.39473e-05
0.000111465
0.000109977
0.000105473
0.000114167
3.2567e-05
2.71629e-05
0.000108152
0.000121815
0.0001172
0.000109416
3.63709e-05
2.99908e-05
0.000111823
0.000106492
0.000115042
0.000116697
2.42743e-05
3.30821e-05
0.000118695
0.00010943
0.00012685
0.000112946
2.72241e-05
3.61403e-05
0.000112524
0.000122092
0.000110496
0.000119878
3.13931e-05
2.71565e-05
0.000119501
0.00012496
0.000120997
0.00011904
3.77146e-05
3.17762e-05
0.000118435
0.000112417
0.000121307
0.000122375
2.61526e-05
3.54613e-05
0.00012541
0.000116712
0.000132804
0.000118185
2.96376e-05
3.94973e-05
0.000119811
0.000127992
0.000117686
0.000127871
3.32864e-05
2.82842e-05
0.00012718