/*--------------------------------*- C++ -*----------------------------------*\
| =========                 |                                                 |
| \\      /  F ield         | OpenFOAM: The Open Source CFD Toolbox           |
|  \\    /   O peration     | Version:  v2006                                 |
|   \\  /    A nd           | Website:  www.openfoam.com                      |
|    \\/     M anipulation  |                                                 |
\*---------------------------------------------------------------------------*/
FoamFile
{
    version     2.0;
    format      ascii;
    class       volScalarField;
    location    "0.028";
    object      k;
}
// * * * * * * * * * * * * * * * * * * * * * * * * * * * * * * * * * * * * * //

dimensions      [0 2 -2 0 0 0 0];


internalField   nonuniform List<scalar> 
12716
(
143.763
143.763
143.763
143.763
143.763
143.764
143.765
143.766
143.766
143.76
143.709
143.542
143.239
142.834
142.371
141.884
141.389
140.89
140.385
139.87
139.342
138.798
138.237
137.661
137.069
136.462
135.842
135.209
134.565
133.91
133.247
132.574
131.895
131.211
130.521
129.829
129.135
128.441
127.748
127.057
126.371
125.691
125.018
124.353
123.699
123.057
122.429
121.816
121.219
120.638
120.072
119.517
118.969
118.424
117.887
117.381
116.959
116.691
116.593
116.606
116.659
116.718
116.761
116.773
116.726
116.563
116.222
115.64
114.432
112.516
102.599
91.044
107.061
112.991
109.818
99.4051
81.8294
74.0247
91.602
105.492
101.543
85.5306
68.1384
63.2566
79.7653
97.2431
93.8875
75.7692
59.6836
56.5696
71.7319
90.1672
87.6821
69.3485
54.4146
52.2972
66.2839
84.5113
82.6678
64.8101
50.8844
49.3432
62.4578
80.0035
78.5689
61.4749
48.3393
47.1516
59.591
76.2866
75.1373
58.8847
46.3856
45.4307
57.3419
73.1459
72.2
56.7758
44.8116
44.013
55.4885
70.4309
69.6375
55.0168
43.4898
42.7966
53.9071
68.0441
67.3637
53.5016
42.3395
41.7238
52.5223
65.9165
65.3129
52.1643
41.3149
40.7566
51.2841
63.9962
63.4502
50.9626
40.3829
39.8684
50.1608
62.2447
61.7447
49.868
39.5214
39.041
49.1291
60.6312
60.1701
48.8593
38.7146
38.2612
48.1719
59.1351
58.7071
47.9207
37.9508
37.5191
47.276
57.7393
57.3396
47.0401
37.2213
36.807
46.431
56.4299
56.0546
46.2077
36.5191
36.1186
45.6283
55.1953
54.8413
45.4154
35.8382
35.4488
44.8612
54.0267
53.6916
44.6569
35.174
34.7933
44.1242
52.9171
52.5989
43.9272
34.5224
34.1484
43.4132
51.8605
51.5573
43.2222
33.8801
33.5109
42.7239
50.851
50.5611
42.5376
33.244
32.8777
42.0524
49.8833
49.605
41.8698
32.6107
32.2458
41.395
48.9523
48.6841
41.2149
31.9775
31.6122
40.7481
48.0533
47.7938
40.5696
31.3415
30.9743
40.1087
47.1822
46.9301
39.9308
30.7002
30.3298
39.4737
46.335
46.0891
39.2955
30.0511
29.676
38.8402
45.5079
45.267
38.6608
29.3919
29.0108
38.2052
44.6974
44.4604
38.0236
28.7201
28.3315
37.5657
43.8997
43.6654
37.381
28.0332
27.6356
36.9188
43.1113
42.8785
36.73
27.3285
26.9206
36.2613
42.3286
42.0962
36.0676
26.6036
26.1839
35.5906
41.5483
41.3154
35.3912
25.8563
25.4237
34.9041
40.7673
40.5328
34.6982
25.0847
24.6384
34.1995
39.9827
39.7459
33.9862
24.2872
23.8264
33.4739
39.1918
38.9516
33.2526
23.4626
22.9865
32.7256
38.3916
38.1473
32.4956
22.6098
22.1181
31.9526
37.5798
37.3306
31.7136
21.7287
21.2213
31.1534
36.7541
36.4994
30.905
20.8194
20.297
30.3271
35.9125
35.652
30.0694
19.8837
19.3473
29.4737
35.0539
34.7873
29.2072
18.9243
18.3763
28.5945
34.1776
33.9055
28.3202
17.946
17.39
27.6929
33.2847
33.0082
27.413
16.956
16.3977
26.7762
32.3785
32.0992
26.4929
15.9656
15.4113
25.8512
31.4632
31.1831
25.5682
14.9874
14.4453
24.929
30.5456
30.2671
24.6508
14.0379
13.5174
24.0226
29.6333
29.3609
23.7551
13.1356
12.6477
23.149
28.7396
28.4784
22.8986
12.3015
11.8572
22.326
27.8778
27.6324
22.098
11.556
11.1651
21.5686
27.0614
26.836
21.3668
10.9163
10.5856
20.8872
26.302
26.0994
20.7133
10.3935
10.1266
20.2869
25.6095
25.4313
20.14
9.99154
9.78709
19.7645
24.9894
24.8352
19.6414
9.70422
9.55803
19.3119
24.4411
24.3077
19.207
9.51633
9.43062
18.9115
23.9593
23.8389
18.8011
9.42017
9.38059
18.4991
23.5186
23.4076
18.393
9.38396
9.36801
18.1065
23.1074
23.0038
18.0141
9.3836
9.38157
17.7546
22.7195
22.6218
17.6741
9.40534
9.41315
17.4382
22.3511
22.2588
17.3669
9.44865
9.46191
17.1513
22.0013
21.9147
17.0882
9.50395
9.51981
16.8911
21.6712
21.5908
16.8357
9.56413
9.58116
16.6562
21.3621
21.2889
16.6086
9.6255
9.64302
16.447
21.0771
21.0114
16.4068
9.68701
9.7048
16.2618
20.8162
20.7578
16.2286
9.74775
9.76502
16.0995
20.5789
20.5272
16.0727
9.80576
9.82223
15.9581
20.3632
20.3177
15.937
9.8606
9.87623
15.8354
20.1675
20.1276
15.8195
9.91227
9.92706
15.7294
19.9899
19.9549
15.7178
9.96079
9.97464
15.6373
19.828
19.7968
15.6294
10.0062
10.0192
15.5571
19.6789
19.6507
15.5519
10.0487
10.0606
15.4855
19.5397
19.5135
15.4822
10.088
10.0988
15.4201
19.4074
19.3824
15.4179
10.124
10.1336
15.3588
19.2792
19.2546
15.3573
10.1565
10.165
15.2999
19.1529
19.1281
15.2984
10.1857
10.1929
15.2416
19.0264
19.0007
15.2397
10.2112
10.2171
15.1827
18.8981
18.8711
15.1799
10.2329
10.2374
15.1218
18.7666
18.7379
15.1178
10.2506
10.2537
15.0581
18.6308
18.6
15.0526
10.2642
10.2658
14.9905
18.489
18.4574
14.9841
10.2737
10.2736
14.9218
18.3437
18.3071
14.9087
10.2786
10.2742
14.8512
18.191
18.1503
14.8325
10.2919
10.2954
14.7882
18.0752
18.0869
14.8165
10.3535
10.3805
14.8156
18.0391
17.9546
14.7526
10.3985
10.477
14.8492
18.0349
17.9916
14.8386
10.5336
24.3386
30.3343
35.6532
40.46
44.5959
48.5285
51.737
54.4298
56.5729
58.2512
59.4522
60.1895
60.4331
60.1644
59.3481
57.8955
55.7745
52.9051
49.6641
45.5548
39.6438
33.9228
30.1985
23.6615
17.6402
15.229
12.3448
12.7342
15.8728
17.9414
13.7457
12.6773
10.1714
10.5434
15.8317
16.9072
16.8171
15.4748
10.2686
10.3201
15.9386
17.258
17.0845
15.7085
10.187
10.2885
15.9192
17.263
17.1863
15.7723
10.1946
10.3019
16.013
17.4015
17.3378
15.889
10.2045
10.3097
16.1038
17.5761
17.5156
15.9686
10.2731
10.3822
16.2185
17.7645
17.6968
16.0895
10.3456
10.453
16.324
17.9462
17.8762
16.1932
10.4171
10.5271
16.4318
18.134
18.0632
16.3013
10.4924
10.6044
16.5443
18.3298
18.2578
16.4134
10.5704
10.6847
16.6604
18.5327
18.4592
16.5297
10.6518
10.7681
16.7818
18.7444
18.6696
16.6506
10.7358
10.8544
16.9069
18.9635
18.8869
16.7759
10.823
10.9436
17.0375
19.192
19.1141
16.9061
10.9129
11.0358
17.1723
19.4289
19.3493
17.0412
11.006
11.1312
17.3132
19.6764
19.5956
17.1818
11.102
11.2297
17.459
19.9333
19.8506
17.3279
11.2016
11.3317
17.6115
20.202
20.1181
17.4801
11.3042
11.4371
17.7693
20.481
20.3951
17.6384
11.4108
11.5463
17.9346
20.7731
20.686
17.8033
11.5208
11.6594
18.1057
21.0767
20.9874
17.9747
11.6351
11.7769
18.286
21.3947
21.3044
18.1537
11.7534
11.8986
18.474
21.7259
21.6334
18.3406
11.8763
12.025
18.6712
22.0734
21.9797
18.5361
12.0036
12.1562
18.8766
22.4347
22.3383
18.7402
12.136
12.2925
19.0917
22.813
22.7153
18.9534
12.2732
12.4341
19.3159
23.2069
23.1067
19.1763
12.4162
12.5815
19.5514
23.621
23.5199
19.41
12.5648
12.7355
19.7971
24.0523
23.948
19.654
12.7205
12.8966
20.054
24.504
24.3982
19.9087
12.8827
13.0644
20.3201
24.9721
24.8621
20.1728
13.0519
13.2393
20.5963
25.4602
25.3481
20.4459
13.2281
13.4217
20.8795
25.964
25.8463
20.7258
13.4123
13.6123
21.1683
26.4861
26.3649
21.0096
13.6047
13.812
21.4565
27.0203
26.8911
21.2915
13.8069
14.0223
21.7389
27.5692
27.4345
21.5648
14.0207
14.2472
22.0065
28.1285
27.9845
21.8214
14.252
14.4944
22.2549
28.7088
28.5608
22.0564
14.5111
14.7823
22.4837
29.3182
29.1661
22.2734
14.8215
15.1418
22.7068
29.9851
29.8391
22.4863
15.2359
15.6168
22.9544
30.7464
30.5884
22.7442
15.7567
16.1117
23.3961
31.7029
31.5001
23.1408
16.1876
16.5768
23.8899
32.5796
32.3811
23.584
16.5467
16.8287
24.3606
33.5647
33.3074
24.0094
16.7726
16.9912
24.6557
34.4456
34.2545
24.4182
17.0009
17.2249
24.932
35.4421
35.2886
24.6302
17.2327
17.3875
25.2646
36.521
36.3795
25.1585
17.3812
17.5052
25.7043
37.6718
37.5527
25.407
17.4728
17.5826
25.8233
38.8078
38.7143
25.5768
17.5685
17.6259
25.9923
40.0582
40.0295
25.7952
17.6154
17.7423
26.2517
41.5053
41.4796
26.0766
17.8365
18.2198
26.6583
43.2004
43.3788
26.7128
18.6854
19.8191
28.3175
45.5753
46.1398
28.9637
20.9945
22.6099
33.0905
48.9138
49.7932
36.4507
23.5015
18.996
19.5937
27.1391
45.182
27.274
19.6568
20.1942
27.7965
45.6447
51.9328
31.5163
22.5331
25.9892
32.7151
55.4287
71.3144
39.6406
31.9753
36.711
52.9339
86.8425
98.482
72.2941
42.7519
43.9872
75.0828
103.969
113.222
87.049
47.1207
48.8657
91.446
119.097
121.912
93.7712
49.7907
48.6727
89.1225
115.551
126.446
96.8275
53.0845
56.1297
103.126
131.838
139.055
110.084
59.4404
62.4362
116.234
145.991
150.33
121.517
66.3557
71.1359
134.402
162.956
170.752
141.914
74.3291
77.3169
150.738
178.646
176.56
148.476
76.1606
78.3572
154.779
183.061
188.63
159.084
80.5017
83.8086
167.224
195.681
192.637
165.754
83.5003
88.398
173.999
201.4
212.616
186.481
96.7163
103.877
198.245
224.129
231.414
207.524
110.171
114.767
213.39
235.107
246.618
225.639
125.498
139.526
241.316
259.068
269.06
255.842
148.747
161.468
266.453
274.663
276.266
275.204
178.134
193.862
281.254
277.337
271.623
286.231
205.396
217.035
289.31
265.151
274.659
298.11
222.242
218.656
311.495
276.498
299.042
312.563
212.051
204.96
288.95
301.246
299.015
262.764
199.791
191.833
234.97
288.423
248.22
203.292
181.722
167.369
192.312
249.047
240.469
183.474
153.823
138.253
162.548
206.479
213.2
163.487
124.807
111.888
154.997
198.624
188.257
146.134
101.215
89.5917
132.093
167.147
176.501
135.868
80.919
73.1078
134.019
167.291
161.374
127.26
67.5019
60.0991
120.525
146.207
156.337
125.664
57.8033
59.1148
123.809
149.086
170.384
135.26
62.9081
64.1827
136.619
169.46
166.992
135.63
62.1242
58.7924
130.496
154.768
164.877
136.364
61.2281
61.798
137.707
159.842
155.431
132.46
59.0879
56.9306
125.038
144.51
150.015
128.467
59.8139
60.8717
129.81
149.185
143.842
124.739
59.0515
56.7876
117.537
140.045
128.907
107.133
54.2133
56.2938
112.797
136.021
129.71
105.931
54.3048
52.1063
98.2442
120.715
99.8182
62.438
46.2378
44.8177
61.7281
109.083
97.926
54.9358
41.0051
36.2843
47.8533
80.7293
76.7076
45.4854
33.2932
28.3871
33.1942
48.8717
74.9084
58.0096
37.6662
36.7603
54.8248
72.7303
62.777
45.2737
35.0913
32.9161
41.1891
58.7623
37.256
29.8486
30.0413
35.3088
48.1917
62.3658
57.8506
42.6663
34.5099
33.282
38.5552
53.1474
34.5619
29.3992
30.9285
35.0455
44.2064
56.4459
51.8977
38.7323
34.559
33.635
35.3186
46.5605
30.8737
27.6011
31.8431
33.7787
38.5739
50.7674
47.858
35.921
33.6031
33.2424
31.4552
40.501
37.7462
29.4912
31.9539
31.0383
24.6154
26.2226
42.956
33.1023
31.8416
31.9503
30.3392
38.9364
34.931
28.1228
31.5619
31.3085
23.8743
24.7746
39.2221
30.4935
31.073
31.5246
27.8809
35.2716
32.1982
26.0142
31.3894
31.7085
22.8114
23.2075
36.9762
28.8929
30.5518
31.0932
26.75
33.5413
30.2509
24.9352
31.515
32.4885
22.4083
22.4638
33.9923
27.1149
30.0434
30.5969
25.0818
30.7636
28.2503
23.5283
31.2348
33.1955
21.2939
21.1643
32.5255
25.9348
29.692
30.3484
24.1995
29.4105
26.7816
22.9305
31.384
33.855
21.0033
20.6167
30.0555
24.399
29.2783
30.1608
23.1833
28.4417
21.1163
21.5353
32.3651
29.6663
25.398
31.5349
28.3987
23.7374
30.6586
32.0943
22.815
25.9136
20.8938
21.682
34.4532
30.0222
24.2916
29.0021
26.3196
22.4878
31.0273
32.6381
22.0744
24.4207
20.3064
21.4021
35.3358
29.5449
22.3018
25.8254
24.7211
21.6412
30.8839
33.8212
20.922
19.8542
26.6945
22.5508
29.4673
30.715
21.2788
23.9239
22.5413
21.1906
32.7006
35.9718
21.0549
19.512
23.4582
20.9024
29.622
31.1876
20.6549
22.739
18.9569
20.4651
34.4866
29.2803
21.0829
24.3608
22.2533
20.1515
30.689
33.08
20.4442
21.1385
18.8118
20.6469
37.0001
30.1569
20.2346
22.3647
21.5814
20.073
31.7868
35.3606
20.6802
18.5216
22.9678
20.4924
29.8245
31.5626
19.8957
21.0972
20.1074
19.6782
34.1875
38.5734
21.4519
18.4586
20.2091
19.3791
30.8461
32.6159
18.7101
19.3985
17.7857
21.4656
36.3684
29.9068
19.1966
20.1713
19.0955
18.7881
31.849
34.8468
18.5238
18.3967
17.6138
21.8721
39.6629
31.5172
18.58
18.833
18.1264
18.0081
33.5556
37.6611
21.9434
17.2399
19.2558
18.8436
30.5921
33.2749
18.2687
18.3996
17.6083
22.0771
37.8037
30.848
18.7559
18.999
18.2767
18.351
33.5273
38.2015
22.2461
17.5792
19.3126
18.9939
31.3848
33.7149
18.9242
18.7576
17.4326
18.6989
37.2403
42.4994
23.6174
17.4975
18.1282
18.371
33.5133
36.0956
17.9682
16.9394
17.1013
23.8961
40.8462
32.6532
18.1731
17.7395
16.7583
17.8071
35.8303
41.0295
23.4537
16.9886
17.893
18.2154
32.8205
35.8951
17.9467
16.8507
17.1016
23.9025
41.3696
33.2457
18.1464
17.7844
17.2933
18.4621
35.9261
40.0298
18.6641
16.4192
17.0799
26.2385
45.0165
35.067
18.3415
17.4464
16.4019
17.9263
38.7499
44.7527
25.1158
17.0226
17.5777
18.2422
35.1098
38.3477
18.027
16.4558
17.1326
25.6242
44.0738
35.1652
18.3113
17.4813
16.4706
18.1974
38.9565
44.9505
25.8277
17.2196
17.7034
18.5091
35.6542
39.3158
18.3556
16.5894
17.4055
26.4361
45.7198
36.2724
18.5674
17.6193
16.5912
18.5128
40.1585
46.6233
26.8738
17.4786
17.6574
18.6732
37.06
40.4197
19.3835
16.931
16.2305
19.8846
45.3388
51.3346
30.0986
17.8141
16.975
18.7226
39.2184
43.6879
18.3902
16.0659
17.5113
28.1719
50.9928
39.2923
18.2513
16.8891
15.8465
18.2632
43.2171
49.9614
28.7494
17.3254
16.7804
18.3512
38.9295
43.5664
18.3649
15.9239
17.518
28.6835
50.9106
39.5167
18.3593
16.8981
15.9242
18.4132
43.8445
51.334
29.3114
17.5448
16.9428
18.5445
39.8892
44.6584
18.6806
16.0973
17.8315
29.6078
52.4983
40.8078
18.7313
17.136
16.2291
18.8581
45.3299
53.1498
30.3196
18.0126
17.3219
19.0116
41.301
46.2259
19.1971
16.4854
18.3925
30.9048
54.3473
42.2363
19.316
17.5373
16.6586
19.4046
47.0279
55.3826
31.3575
18.5843
17.7716
19.547
42.8982
47.8452
19.7863
16.9213
18.8092
31.7838
56.3047
43.765
19.8318
18.0179
17.3283
20.7891
47.8244
54.1881
22.1386
16.7416
20.0138
35.5033
63.1149
47.8322
20.683
18.397
17.3932
20.7226
52.7396
61.1854
34.7844
19.9033
18.4628
20.7411
46.9555
52.7712
20.8778
17.6387
20.221
34.5979
62.1663
47.6071
20.8224
18.7862
17.7901
21.1807
52.9549
62.1286
35.4392
20.4044
18.9038
21.2092
47.9797
53.7973
21.3509
18.0441
20.7607
35.6594
63.6475
48.7773
21.359
19.2053
18.2341
21.7877
54.3764
64.1163
36.5963
21.0288
19.3765
21.8206
49.3087
55.3355
22.0103
18.525
21.417
36.8788
65.615
50.5003
22.0083
19.699
18.7527
22.4016
56.3454
66.4935
37.8004
21.7604
19.953
22.4732
51.1693
57.2852
22.7125
19.0887
22.2584
38.3297
67.8199
52.0531
22.7315
20.2611
19.3462
23.1521
58.1178
68.8665
39.1431
22.5924
20.4837
23.1664
52.8978
59.0941
23.3938
19.5939
22.7581
39.2958
70.011
53.7404
23.312
20.6914
19.9019
24.905
58.9942
67.0175
26.9751
19.4119
25.1013
44.545
78.7009
59.5876
24.4478
20.8705
19.7218
24.4559
65.8661
77.7991
42.6367
24.2563
20.5481
23.7656
58.9022
65.7469
24.3998
19.5797
24.248
43.3
77.8378
59.102
24.0323
20.638
19.6976
24.5187
65.925
77.65
43.6925
24.3219
20.6686
24.2697
58.9923
66.4917
24.6865
19.9265
24.5573
43.7285
79.2399
60.2537
24.4575
21.0572
20.1082
24.8214
67.1577
79.8712
44.5455
24.723
21.2231
24.8564
60.6362
68.2366
25.4134
20.5147
25.2182
45.1137
81.2444
61.9464
25.324
21.7109
20.834
25.6686
69.0578
82.0404
45.2263
25.1761
22.0382
25.5097
62.3844
68.546
27.4194
21.1712
20.7296
29.9384
78.0442
90.8413
52.5351
28.1798
22.3801
27.3053
67.9141
76.2347
27.3526
21.56
27.3871
49.7487
90.7499
68.1737
26.8739
22.7536
21.859
27.61
75.9302
89.6009
50.3834
27.6369
22.9633
27.3836
67.822
76.1773
27.8796
22.2352
27.9205
50.2991
90.8126
68.6604
27.5237
23.3632
22.5177
28.2247
76.6448
91.5311
51.2398
28.2492
23.6656
28.1465
70.1182
77.3093
30.524
22.727
22.2862
32.9599
87.8028
103.391
57.5969
31.0003
24.1117
29.557
76.8514
85.2882
30.0606
23.0974
30.0668
55.6678
100.32
75.3732
29.4193
24.1444
23.3285
29.6289
84.5018
101.099
54.9378
29.7657
24.4921
29.3243
75.7976
83.0077
31.8649
23.4077
23.05
34.8893
94.2159
109.792
63.1488
33.0894
25.0567
31.5538
81.4681
91.257
31.6243
24.1274
31.8922
58.9952
108.79
81.1371
30.7355
25.4454
24.472
31.8892
90.4916
107.18
59.4329
31.9127
25.6677
31.3777
81.1774
89.7526
34.486
24.6971
24.2361
37.1336
101.923
118.616
67.5075
35.2539
26.1696
33.3094
87.4516
98.1749
33.5753
25.2456
34.039
63.1753
117.239
87.4135
32.5678
26.5826
25.4586
33.0249
96.9042
114.913
62.2482
33.1154
26.5163
32.4146
85.6533
94.2353
35.2537
25.4679
25.1464
38.9608
107.412
126.676
70.7065
36.8365
27.5781
34.8276
93.3796
103.639
35.1877
26.5002
35.4641
66.5602
122.379
91.0063
34.1906
27.5735
26.6473
37.7126
100.028
113.813
41.2403
26.3995
39.3543
75.3814
134.695
99.774
36.731
28.9113
27.7807
36.7186
110.637
130.884
70.2693
37.5383
28.3617
35.5362
96.5113
105.723
38.7362
27.3013
27.0393
42.8789
120.028
140.435
78.7335
40.4848
29.4744
38.003
103.74
114.292
41.828
28.4778
27.9677
43.8848
128.381
151.588
82.1774
42.6027
30.041
38.9877
110.68
122.236
39.4257
28.9114
40.1416
76.6178
143.017
105.272
38.0029
29.8862
28.6
41.082
115.184
130.46
44.7498
28.2195
42.1729
83.7787
152.737
110.399
39.5933
30.7153
29.7366
43.3511
121.265
137.454
47.6102
29.4768
44.9286
88.218
161.073
117.262
41.4247
31.6506
30.4474
44.5903
127.823
143.447
47.9881
30.0837
46.0672
90.4064
166.668
119.818
41.7946
31.8264
31.0266
45.8811
131.408
148.411
50.2872
30.8012
47.9165
94.6296
173.878
126.428
43.6764
32.8023
31.3438
44.2986
138.443
153.601
56.4452
32.0394
31.1583
56.5773
168.997
193.725
102.961
51.2575
32.997
44.877
136.609
149.881
49.4684
32.1217
31.7481
53.3835
167.72
193.902
102.913
50.7706
34.0104
46.3288
138.888
149.646
45.476
31.9165
32.3812
57.5389
167.532
180.794
55.0085
31.3291
52.6164
110.758
210.47
148.44
47.8704
34.4163
32.5368
46.5681
161.015
176.369
61.0392
33.656
32.9728
62.6133
192.746
218.861
116.197
56.0106
35.8063
49.4314
153.878
169.463
52.4441
34.4403
34.1715
58.7802
186.591
205.35
66.8304
34.5598
32.8674
63.9595
218.363
244.167
121.273
56.4331
34.8808
48.9156
164.939
178.771
51.7472
33.541
32.4404
53.6701
194.918
211.519
62.5714
32.2661
31.2559
61.2044
224.903
238.087
76.0638
34.1327
32.4508
74.6324
249.883
274.202
141.416
62.6364
36.1696
55.0962
180.432
190.243
52.6127
34.4188
34.333
64.8237
208.997
224.345
65.2913
33.568
32.9401
66.0655
236.581
245.224
68.3597
32.4576
32.4166
73.6086
251.32
250.481
70.671
31.3713
32.2778
78.441
247.878
241.537
79.1019
32.0182
33.0906
84.7077
231.231
219.602
86.1531
32.9822
34.6398
92.8702
208.49
197.562
94.8798
34.6555
36.94
102.392
187.863
178.737
104.229
37.1018
40.015
111.135
170.848
163.556
112.919
40.4127
43.855
118.692
157.231
151.579
121.531
44.3989
48.6047
125.337
146.553
142.22
128.662
49.4001
54.3192
130.998
138.255
134.935
134.017
55.1326
60.4386
135.932
131.82
129.339
138.521
61.3482
66.7397
140.171
126.856
125.118
142.459
67.65
73.2194
143.898
123.096
122.025
145.86
74.2116
79.8924
147.029
120.375
119.806
148.617
80.7613
86.3287
149.599
118.494
118.228
150.914
87.1218
92.4247
151.689
117.252
117.179
152.752
93.0285
98.0544
153.397
116.498
116.548
154.266
98.5495
103.219
154.752
116.08
116.202
155.426
103.519
107.843
155.822
115.876
116.055
156.361
108.022
111.955
156.634
115.83
116.049
157.055
111.951
115.491
157.247
115.867
116.163
157.621
115.412
118.559
157.665
116.001
116.341
157.983
118.368
121.208
157.951
116.187
116.549
158.226
120.959
123.465
158.14
116.402
116.775
158.362
123.127
125.38
158.24
116.632
117.014
158.436
125.007
126.993
158.274
116.874
117.255
158.432
126.555
128.343
158.248
117.117
117.5
158.39
127.89
129.471
158.174
117.364
117.744
158.288
128.971
130.4
158.063
117.608
117.985
158.171
129.902
131.171
157.922
117.85
118.223
158.011
130.641
131.797
157.762
118.089
118.457
157.851
131.278
132.312
157.585
118.324
118.688
157.67
131.749
132.72
157.418
118.556
118.915
157.512
132.2
133.064
157.245
118.786
119.145
157.326
132.53
133.336
157.064
119.016
119.371
157.155
132.823
133.555
156.883
119.244
119.594
156.967
133.035
133.738
156.703
119.468
119.814
156.799
133.235
133.897
156.533
119.69
120.032
156.625
133.373
133.997
156.368
119.909
120.249
156.469
133.485
134.06
156.209
120.128
120.464
156.301
133.527
134.066
156.048
120.343
120.676
156.144
133.54
134.037
155.883
120.556
120.882
155.968
133.485
133.952
155.71
120.762
121.081
155.796
133.409
133.842
155.53
120.961
121.27
155.604
133.279
133.693
155.341
121.149
121.449
155.417
133.137
133.524
155.146
121.327
121.617
155.21
132.945
133.319
154.941
121.494
121.775
155.008
132.749
133.101
154.731
121.65
121.919
154.789
132.516
132.863
154.516
121.793
122.053
154.577
132.291
132.623
154.298
121.926
122.176
154.353
132.04
132.374
154.081
122.047
122.288
154.143
131.809
132.132
153.868
122.158
122.389
153.924
131.557
131.884
153.658
122.258
122.48
153.723
131.327
131.643
153.454
122.349
122.563
153.515
131.077
131.4
153.256
122.43
122.637
153.328
130.855
131.172
153.068
122.504
122.703
153.137
130.62
130.946
152.887
122.57
122.763
152.966
130.415
130.735
152.716
122.629
122.816
152.791
130.195
130.523
152.551
122.681
122.864
152.636
130.001
130.322
152.395
122.729
122.907
152.477
129.793
130.123
152.245
122.772
122.947
152.338
129.613
129.937
152.105
122.812
122.982
152.193
129.418
129.752
151.969
122.847
123.016
152.068
129.252
129.581
151.843
122.881
123.047
151.937
129.072
129.412
151.72
122.911
123.075
151.823
128.921
129.255
151.604
122.94
123.101
151.702
128.753
129.096
151.491
122.965
123.124
151.598
128.612
128.947
151.385
122.988
123.146
151.487
128.452
128.798
151.281
123.008
123.165
151.393
128.32
128.66
151.185
123.027
123.182
151.292
128.174
128.527
151.092
123.043
123.197
151.207
128.06
128.407
151.005
123.058
123.209
151.114
127.929
128.286
150.919
123.069
123.219
151.036
127.823
128.17
150.836
123.079
123.227
150.947
127.694
128.051
150.754
123.086
123.233
150.874
127.592
127.942
150.678
123.093
123.238
150.792
127.472
127.834
150.603
123.097
123.242
150.726
127.381
127.736
150.534
123.102
123.246
150.651
127.273
127.641
150.467
123.105
123.249
150.592
127.195
127.556
150.404
123.108
123.251
150.522
127.097
127.466
150.34
123.111
123.254
150.467
127.021
127.381
150.281
123.114
123.256
150.402
126.926
127.299
150.223
123.117
123.26
150.35
126.862
127.228
150.166
123.121
123.264
150.286
126.776
127.145
150.108
123.126
123.27
150.235
126.699
127.054
150.055
123.133
123.278
150.178
126.596
126.969
150.008
123.142
123.286
150.143
126.541
126.923
149.971
123.151
123.293
150.099
126.496
126.892
149.93
123.157
123.299
150.062
126.472
126.841
149.884
123.162
123.304
150.005
126.387
126.747
149.831
123.168
123.31
149.961
126.298
126.653
149.787
123.176
123.319
149.915
126.205
126.59
149.753
123.186
123.33
149.893
126.175
126.566
149.729
123.199
123.343
149.862
126.145
126.543
149.701
123.212
123.359
149.838
126.129
126.503
149.669
123.23
123.38
149.794
126.057
126.42
149.63
123.256
123.415
149.763
125.972
126.32
149.602
123.296
123.463
149.737
125.865
126.252
149.592
123.348
123.527
149.736
125.857
126.256
149.593
123.414
123.651
149.72
125.87
126.25
149.553
123.544
123.846
149.607
125.716
125.749
149.633
123.774
124.253
149.585
124.99
124.082
149.479
124.748
126.073
148.639
123.48
118.56
147.388
128.266
129.945
145.535
114.711
107.122
143.892
132.077
71.6454
56.5678
58.2399
69.2566
83.0479
90.0917
104.764
121.373
127.823
132.686
135.538
137
137.579
137.648
137.454
137.152
136.826
136.515
136.236
135.994
135.788
135.615
135.47
135.352
135.256
135.183
135.128
135.092
135.071
135.061
135.058
135.052
135.043
135.031
135.015
134.997
134.975
134.95
134.923
134.894
134.862
134.827
134.79
134.751
134.71
134.666
134.62
134.572
134.521
134.467
134.404
134.312
134.173
133.996
133.803
133.616
133.453
133.324
133.235
133.193
133.184
133.205
133.254
133.323
133.403
133.488
133.574
133.658
133.74
133.82
133.899
133.977
134.057
134.138
134.222
134.31
134.401
134.496
134.597
134.702
134.813
134.929
135.051
135.177
135.309
135.446
135.587
135.731
135.879
136.03
136.183
136.338
136.495
136.652
136.809
136.966
137.122
137.277
137.431
137.584
137.734
137.882
138.028
138.171
138.311
138.449
138.584
138.715
138.844
138.97
139.092
139.211
139.328
139.441
139.551
139.658
139.762
139.863
139.961
140.057
140.149
140.239
140.326
140.41
140.492
140.571
140.648
140.722
140.795
140.864
140.932
140.998
141.062
141.124
141.184
141.242
141.299
141.354
141.407
141.46
141.511
141.561
141.609
141.657
141.704
141.75
141.795
141.839
141.883
141.926
141.969
142.011
142.053
142.095
142.136
142.177
142.218
142.259
142.3
142.34
142.381
142.422
142.462
142.503
142.544
142.585
142.626
142.667
142.708
142.75
142.791
142.833
142.876
142.918
142.961
143.005
143.048
143.093
143.137
143.182
143.228
143.274
143.32
143.367
143.414
143.46
143.506
143.551
143.593
143.631
143.664
143.692
143.715
143.735
143.751
143.76
143.763
143.763
143.763
143.763
143.764
143.763
143.755
143.726
143.648
143.485
143.212
142.839
142.398
141.923
141.433
140.934
140.427
139.909
139.377
138.83
138.267
137.688
137.093
136.484
135.861
135.226
134.58
133.924
133.258
132.584
131.903
131.217
130.527
129.833
129.138
128.443
127.748
127.057
126.37
125.689
125.015
124.349
123.694
123.052
122.423
121.809
121.212
120.631
120.065
119.512
118.968
118.434
117.918
117.446
117.067
116.821
116.704
116.666
116.662
116.665
116.642
116.519
115.864
114.939
112.193
110.387
108.777
106.78
105.249
103.225
101.818
99.8432
98.5741
96.6736
95.5421
93.7218
92.7169
90.9792
90.0822
88.4287
87.6216
86.0483
85.3197
83.8221
83.1595
81.7371
81.1199
79.7745
79.1971
77.9202
77.378
76.1623
75.6515
74.491
74.0084
72.8982
72.4418
71.3786
70.9464
69.9271
69.5171
68.5382
68.1483
67.2065
66.8348
65.9266
65.5713
64.6935
64.3529
63.5032
63.1757
62.3513
62.0354
61.2336
60.9278
60.1458
59.8488
59.0841
58.7943
58.0444
57.7606
57.0228
56.7436
56.0156
55.7396
55.019
54.745
54.0296
53.7566
53.0441
52.7708
52.059
51.7844
51.0712
50.7939
50.0773
49.7964
49.0743
48.7887
48.0593
47.7681
47.0297
46.732
45.9832
45.6782
44.9167
44.6047
43.8323
43.5138
42.7315
42.4071
41.6169
41.2881
40.4946
40.1642
39.3729
39.0449
38.2613
37.9412
37.1751
36.8686
36.1299
35.8439
35.1452
34.8875
34.2433
34.017
33.4334
33.2389
32.716
32.5517
32.086
31.944
31.5215
31.3933
31.0012
30.884
30.5163
30.4083
30.0618
29.963
29.637
29.5473
29.2409
29.161
28.876
28.8053
28.5398
28.4784
28.2319
28.1783
27.948
27.9012
27.6854
27.6446
27.4414
27.4054
27.2128
27.1804
26.9958
26.9658
26.7872
26.7584
26.5836
26.555
26.3821
26.3526
26.1798
26.1486
25.9744
25.9409
25.7642
25.7278
25.5476
25.508
25.3236
25.2804
25.0909
25.045
24.8511
24.7973
24.5981
24.5444
24.386
24.397
24.3367
24.2303
24.2239
30.363
35.8624
35.9361
30.3763
30.5201
36.0056
35.8565
30.5079
30.3792
35.1857
43.3193
41.4863
41.1105
40.8196
44.9443
45.1109
45.156
49.9317
49.4421
48.9945
52.1937
52.613
52.8669
52.3442
52.9353
43.8547
36.5326
30.7774
30.6683
35.5959
36.9275
31.1244
31.0167
36.0478
44.5017
45.1762
37.3913
31.4811
31.3616
36.4895
37.8539
31.821
31.6983
36.9239
45.8312
46.4809
38.3113
32.154
32.0236
37.3456
38.7573
32.4763
32.3377
37.7532
47.1224
47.7477
39.1888
32.7876
32.6411
38.1464
39.6056
33.0888
32.9348
38.5263
48.3517
48.9379
40.0088
33.3809
33.2199
38.893
40.3985
33.6653
33.498
39.2472
49.5049
50.0512
40.7754
33.944
33.7712
39.5901
41.1405
34.2194
34.0422
39.9235
50.5756
51.0784
41.4956
34.4944
34.314
40.2503
41.8438
34.7726
34.5906
40.5744
51.5609
52.0263
42.1889
35.0581
34.876
40.9007
42.5363
35.3551
35.1745
41.2349
52.4805
52.9319
42.892
35.6677
35.4902
41.5832
43.2629
36.0004
35.8275
41.9533
53.3925
53.8766
43.658
36.3593
36.1932
42.3547
44.0883
36.7508
36.5932
42.7985
54.3999
54.9744
44.5657
37.1825
37.0358
43.2972
45.1035
37.6616
37.5274
43.8726
55.6014
56.3408
45.7251
38.1944
38.0736
44.5389
46.4474
38.7879
38.6817
45.2937
57.1946
58.1933
47.2946
39.4551
39.365
46.1489
48.2735
40.2116
40.1396
47.1283
59.3475
60.6619
49.3855
41.0686
41.0172
48.2381
50.6312
42.0347
42.0052
49.4767
62.1284
63.724
51.9999
43.1111
43.1024
50.833
53.471
44.2924
44.3045
52.2845
65.4186
67.1644
55.0107
45.5638
45.5945
53.801
56.5861
46.8983
46.9365
55.3503
68.9233
70.6526
58.1655
48.2653
48.302
56.9027
59.7197
49.6403
49.6691
58.4305
72.3298
73.9248
61.2255
51.0047
51.0213
59.9148
62.6729
52.3447
52.3464
61.3469
75.4272
76.8391
64.0603
53.655
53.6447
62.7253
65.3888
54.9314
54.9101
64.0515
78.1685
79.4267
66.6645
56.1739
56.1429
65.3304
67.8945
57.3858
57.3469
66.5696
80.626
81.7767
69.0898
58.5714
58.5251
67.776
70.2538
59.7325
59.6804
68.9544
82.8883
83.9686
71.3928
60.8736
60.8165
70.1098
72.5116
61.9979
61.9372
71.2466
85.0232
86.0564
73.614
63.1093
63.0461
72.3689
74.7038
64.2112
64.1465
73.4801
87.0714
88.07
75.7844
65.3067
65.2413
74.5819
76.8589
66.3987
66.3336
75.6739
89.0538
90.0242
77.9288
67.4908
67.4271
76.7633
78.9956
68.5862
68.5251
77.8534
90.983
91.9344
80.063
69.6881
69.6309
78.9481
81.1348
70.7997
70.7473
80.0489
92.8861
93.8367
82.2124
71.9241
71.8774
81.1578
83.2974
73.0637
73.0242
82.2767
94.7867
95.7359
84.3915
74.2219
74.1908
83.4075
85.4964
75.4016
75.3804
84.5524
96.6845
97.6326
86.614
76.606
76.5958
85.7139
87.7467
77.8378
77.8407
86.8946
98.5813
99.5322
88.897
79.1018
79.1227
88.0971
90.0669
80.3999
80.4403
89.3228
100.487
101.443
91.2578
81.7347
81.7968
90.5734
92.4711
83.1093
83.1953
91.85
102.4
103.355
93.7094
84.5275
84.639
93.1503
94.9744
85.9928
86.1328
94.4813
104.308
105.255
96.2692
87.5093
87.68
95.8493
97.6042
89.077
89.2778
97.2454
106.19
107.119
98.964
90.6937
90.9248
98.6635
100.341
92.3601
92.6236
100.102
108.043
108.959
101.733
94.0779
94.3768
101.56
103.139
95.8494
96.1869
103.034
109.862
110.75
104.555
97.6768
98.0571
104.521
105.976
99.5629
99.991
106.028
111.618
112.457
107.397
101.508
101.99
107.544
108.807
103.492
104.048
109.049
113.26
114.015
110.195
105.503
106.146
110.525
111.545
107.537
108.259
111.946
114.71
115.329
112.831
109.567
110.343
113.279
114.018
111.536
112.333
114.473
115.851
116.252
115.053
113.372
114.129
115.46
116.528
116.349
116.106
115.806
115.458
115.068
114.642
114.186
113.702
113.197
112.672
112.13
111.574
111.005
110.424
109.831
109.226
108.612
107.99
107.362
106.731
106.097
105.458
104.812
104.161
103.507
102.852
102.196
101.541
100.885
100.205
99.5064
98.7952
98.0735
97.3419
96.5994
95.8438
95.071
94.2746
93.446
92.5747
91.6473
90.6484
89.5614
88.376
87.0861
85.7245
84.2786
82.6776
81.0034
79.3077
77.6659
76.1335
74.7558
73.5531
72.5196
71.6334
70.8593
70.1611
69.5009