/*--------------------------------*- C++ -*----------------------------------*\
| =========                 |                                                 |
| \\      /  F ield         | OpenFOAM: The Open Source CFD Toolbox           |
|  \\    /   O peration     | Version:  v2006                                 |
|   \\  /    A nd           | Website:  www.openfoam.com                      |
|    \\/     M anipulation  |                                                 |
\*---------------------------------------------------------------------------*/
FoamFile
{
    version     2.0;
    format      ascii;
    class       volScalarField;
    location    "0.026";
    object      Ma;
}
// * * * * * * * * * * * * * * * * * * * * * * * * * * * * * * * * * * * * * //

dimensions      [0 0 0 0 0 0 0];


internalField   nonuniform List<scalar> 
16277
(
0.139509
0.13951
0.139509
0.139508
0.139507
0.139502
0.139488
0.139443
0.13934
0.139178
0.138972
0.138746
0.138514
0.13828
0.138044
0.137804
0.137556
0.137299
0.137031
0.136752
0.136461
0.13616
0.135847
0.135524
0.13519
0.134845
0.13449
0.134124
0.133749
0.133363
0.132968
0.132564
0.13215
0.131728
0.131298
0.130859
0.130413
0.12996
0.129499
0.129033
0.12856
0.128082
0.1276
0.127112
0.126621
0.126126
0.125629
0.125129
0.124627
0.124123
0.12362
0.123115
0.122612
0.122109
0.121608
0.12111
0.120614
0.120121
0.119633
0.119149
0.11867
0.118198
0.117731
0.117272
0.116821
0.116378
0.115944
0.115519
0.115104
0.1147
0.114307
0.113925
0.113556
0.113199
0.112855
0.112525
0.112209
0.111904
0.111607
0.111316
0.111029
0.110752
0.110507
0.110335
0.110257
0.110255
0.110285
0.11032
0.110348
0.110346
0.110326
0.110256
0.110079
0.109781
0.109296
0.108738
0.106685
0.105369
0.108763
0.109433
0.109502
0.108615
0.103884
0.102415
0.108439
0.109566
0.109559
0.108168
0.101064
0.0998181
0.107881
0.109517
0.109404
0.107511
0.0986555
0.0976045
0.107173
0.109284
0.109111
0.10679
0.0966102
0.0957387
0.106457
0.108958
0.10875
0.106055
0.0948945
0.0941407
0.105716
0.108563
0.108326
0.105306
0.0933977
0.092727
0.104966
0.108119
0.107863
0.104555
0.0920605
0.0914564
0.104222
0.107646
0.107368
0.103804
0.090838
0.090277
0.103471
0.107136
0.106845
0.103052
0.0896999
0.0891764
0.102723
0.106606
0.106306
0.102307
0.0886351
0.0881409
0.101982
0.10606
0.105752
0.101567
0.0876252
0.0871528
0.101244
0.1055
0.105182
0.100828
0.0866564
0.086201
0.100506
0.104924
0.104598
0.100089
0.0857198
0.0852774
0.0997664
0.104334
0.103999
0.0993463
0.0848078
0.0843752
0.0990225
0.103728
0.103385
0.0985988
0.0839141
0.0834884
0.0982722
0.103106
0.102753
0.097844
0.0830333
0.0826125
0.0975135
0.102467
0.102104
0.09708
0.0821614
0.0817435
0.0967447
0.10181
0.101437
0.0963054
0.0812948
0.0808782
0.0959643
0.101133
0.100751
0.0955182
0.0804305
0.0800137
0.0951703
0.100437
0.100043
0.0947168
0.0795654
0.0791473
0.0943611
0.0997199
0.0993145
0.0938996
0.0786974
0.0782765
0.0935357
0.0989801
0.0985624
0.0930651
0.0778235
0.0773989
0.0926921
0.0982166
0.097786
0.0922116
0.0769417
0.0765122
0.0918287
0.097428
0.096984
0.0913374
0.0760499
0.0756144
0.0909436
0.096613
0.0961549
0.0904409
0.0751458
0.0747033
0.0900353
0.0957703
0.0952973
0.0895203
0.0742275
0.0737771
0.0891022
0.0948983
0.0944098
0.0885741
0.0732931
0.072834
0.0881426
0.0939958
0.0934913
0.0876008
0.0723409
0.0718721
0.0871552
0.0930615
0.0925403
0.086599
0.0713693
0.0708901
0.0861386
0.0920942
0.0915559
0.0855675
0.0703768
0.0698867
0.0850918
0.0910931
0.0905372
0.0845054
0.0693624
0.068861
0.0840141
0.0900574
0.089484
0.0834124
0.0683256
0.0678131
0.0829054
0.088987
0.0883962
0.0822886
0.0672669
0.0667438
0.0817664
0.0878825
0.0872749
0.0811352
0.0661874
0.0656546
0.0805986
0.0867452
0.0861218
0.0799541
0.0650891
0.0645481
0.0794045
0.0855774
0.0849397
0.0787485
0.0639753
0.0634281
0.0781879
0.0843823
0.0837327
0.0775229
0.0628504
0.0623001
0.0769541
0.0831649
0.0825064
0.0762834
0.0617209
0.0611713
0.0757104
0.0819319
0.0812687
0.0750386
0.0605952
0.0600517
0.0744666
0.0806922
0.0800297
0.0737995
0.0594845
0.0589537
0.0732352
0.0794573
0.0788025
0.0725802
0.0584029
0.0578932
0.0720319
0.0782419
0.0776035
0.0713983
0.0573678
0.0568893
0.0708761
0.0770643
0.0764527
0.070275
0.0564004
0.0559653
0.0697913
0.0759466
0.0753745
0.0692362
0.055526
0.0551482
0.0688053
0.0749151
0.0743968
0.0683111
0.0547731
0.0544706
0.0679479
0.0739992
0.073551
0.0675323
0.054175
0.0539793
0.0672525
0.0732292
0.0728694
0.0669338
0.053775
0.0536992
0.0667594
0.0726476
0.0723882
0.066552
0.053596
0.0536517
0.0664973
0.0722808
0.0721336
0.0664122
0.0536577
0.053849
0.0664846
0.0721492
0.0721216
0.0665274
0.0539667
0.0542809
0.0667195
0.0722541
0.0723399
0.0668797
0.0545073
0.0549518
0.0672035
0.0726027
0.072814
0.0674942
0.0553068
0.0558834
0.0679597
0.0732183
0.0735523
0.0683718
0.0563435
0.0569847
0.0689248
0.0740474
0.074466
0.0694158
0.0574997
0.0581793
0.0700328
0.0750316
0.0755104
0.070576
0.0587209
0.059414
0.0712307
0.0761228
0.0766421
0.0718041
0.059961
0.0606498
0.0724768
0.0772828
0.0778242
0.0730612
0.061185
0.061853
0.0737332
0.0784749
0.0790204
0.0743106
0.0623594
0.0629919
0.074965
0.079664
0.0801975
0.0755194
0.063456
0.0640416
0.0761421
0.0808193
0.0813271
0.0766602
0.064453
0.0649832
0.0772405
0.0819151
0.082386
0.0777119
0.065335
0.0658046
0.078241
0.0829307
0.0833561
0.0786568
0.066095
0.0665016
0.0791294
0.0838506
0.0842229
0.079483
0.066735
0.0670752
0.0798973
0.0846634
0.0849818
0.0801909
0.0672522
0.0675284
0.0805467
0.0853669
0.085632
0.0807815
0.0676521
0.067869
0.0810812
0.0859625
0.0861758
0.0812606
0.0679446
0.068109
0.0815082
0.0864546
0.08662
0.0816373
0.068143
0.0682635
0.081839
0.0868526
0.0869757
0.0819245
0.0682636
0.0683489
0.0820869
0.0871681
0.0872547
0.0821356
0.0683224
0.0683803
0.0822654
0.0874132
0.0874691
0.082284
0.0683336
0.068371
0.0823874
0.0875998
0.0876305
0.0823817
0.0683095
0.0683321
0.0824641
0.0877386
0.0877489
0.0824392
0.0682599
0.0682713
0.0825048
0.0878383
0.0878322
0.0824649
0.0681916
0.068196
0.0825182
0.0879076
0.0878887
0.0824672
0.0681116
0.0681114
0.0825111
0.087953
0.0879241
0.0824517
0.0680239
0.0680206
0.0824883
0.0879796
0.0879428
0.0824227
0.0679311
0.0679264
0.0824541
0.0879919
0.0879488
0.0823838
0.0678363
0.0678313
0.0824115
0.0879929
0.087945
0.0823378
0.0677411
0.0677363
0.0823629
0.0879854
0.0879337
0.0822866
0.0676463
0.067642
0.0823099
0.0879713
0.0879168
0.0822318
0.0675524
0.0675489
0.0822541
0.0879525
0.0878959
0.082175
0.0674599
0.0674577
0.082197
0.0879306
0.0878729
0.0821178
0.0673698
0.0673697
0.0821405
0.0879076
0.08785
0.0820625
0.0672841
0.0672876
0.0820877
0.0878867
0.0878308
0.0820123
0.0672056
0.0672147
0.0820441
0.0878851
0.0878448
0.081982
0.0671321
0.0672299
0.0820548
0.0879291
0.0879147
0.0820621
0.0672086
0.0674288
0.0822696
0.0881042
0.0882648
0.0825033
0.0678446
0.068672
0.0830658
0.0887883
0.0903272
0.0853564
0.0719731
0.0712687
0.0826373
0.0878256
0.0912292
0.0937351
0.0951876
0.0956877
0.0959945
0.0966011
0.0968439
0.0971125
0.0972327
0.0973377
0.0973618
0.0973322
0.0972598
0.0970671
0.0968682
0.0963649
0.0960782
0.0957573
0.0953626
0.0946863
0.09296
0.0892294
0.0814157
0.071459
0.0509494
0.0493437
0.0704256
0.0805979
0.0797593
0.0694691
0.0480751
0.0472741
0.0688373
0.079222
0.0789657
0.0685808
0.0466843
0.0465958
0.0684566
0.0788576
0.0787475
0.0683482
0.0462711
0.0462598
0.068279
0.0787579
0.078771
0.0682921
0.0462771
0.0463062
0.0683174
0.0787944
0.0788226
0.0683537
0.0463482
0.046394
0.0683973
0.0788586
0.0788916
0.0684406
0.0464424
0.0464947
0.0684896
0.0789321
0.0789717
0.0685393
0.0465496
0.0466059
0.0685923
0.0790154
0.0790553
0.0686434
0.0466613
0.04672
0.0686977
0.0791003
0.0791439
0.0687529
0.0467801
0.0468414
0.0688099
0.0791911
0.0792344
0.0688647
0.0469013
0.0469636
0.0689224
0.0792818
0.0793279
0.0689805
0.0470277
0.0470918
0.0690403
0.0793774
0.0794228
0.0690975
0.047155
0.0472201
0.0691577
0.0794722
0.0795201
0.0692179
0.047287
0.0473536
0.0692799
0.0795714
0.0796185
0.0693392
0.0474195
0.0474871
0.0694014
0.0796697
0.0797193
0.0694636
0.0475564
0.0476254
0.0695275
0.0797723
0.0798212
0.0695888
0.0476936
0.0477635
0.0696529
0.0798742
0.0799257
0.069717
0.047835
0.0479062
0.0697829
0.0799806
0.0800315
0.0698461
0.0479765
0.0480485
0.0699124
0.0800868
0.0801403
0.0699786
0.0481215
0.048195
0.0700464
0.0801974
0.0802508
0.0701119
0.0482669
0.0483408
0.0701804
0.0803087
0.0803649
0.0702489
0.0484154
0.0484905
0.070319
0.0804249
0.0804813
0.070387
0.0485637
0.0486389
0.070458
0.0805425
0.0806022
0.0705291
0.0487144
0.0487901
0.0706017
0.0806657
0.080726
0.0706724
0.0488634
0.0489388
0.0707462
0.0807913
0.0808557
0.0708206
0.049014
0.0490892
0.0708964
0.080924
0.0809896
0.0709707
0.0491617
0.0492359
0.0710484
0.0810609
0.0811318
0.0711272
0.0493096
0.0493832
0.0712079
0.0812073
0.0812811
0.0712877
0.0494536
0.0495255
0.0713715
0.0813611
0.0814417
0.0714571
0.0495963
0.0496669
0.0715452
0.0815278
0.0816135
0.0716337
0.0497342
0.0498024
0.0717269
0.0817063
0.0818005
0.0718224
0.0498687
0.0499339
0.0719209
0.0819007
0.0820019
0.072021
0.0499955
0.0500575
0.0721266
0.0821111
0.0822232
0.0722359
0.0501178
0.050176
0.0723498
0.0823428
0.0824647
0.0724668
0.050232
0.0502883
0.0725914
0.0825966
0.0827333
0.0727221
0.0503449
0.0504005
0.0728599
0.0828796
0.0830303
0.0730038
0.0504565
0.0505154
0.0731583
0.0831934
0.0833636
0.0733225
0.0505787
0.0506464
0.0734979
0.0835461
0.0837362
0.0736839
0.0507208
0.0508057
0.0738861
0.0839418
0.0841577
0.0741035
0.050904
0.051019
0.0743388
0.0843886
0.0846314
0.0745914
0.0511533
0.0513149
0.0748684
0.0848924
0.0851681
0.0751678
0.0515067
0.0517356
0.0754948
0.085462
0.0857726
0.0758485
0.0520061
0.0523286
0.0762377
0.0861061
0.0864589
0.076661
0.0527069
0.0531549
0.077126
0.0868368
0.0872387
0.0776344
0.0536782
0.0542931
0.078196
0.0876727
0.0881384
0.0788143
0.0550066
0.0558564
0.0795141
0.0886553
0.089249
0.0803371
0.0569136
0.0582418
0.0812881
0.0899165
0.0905849
0.0822676
0.0595708
0.0608299
0.0832086
0.0911866
0.0916705
0.083988
0.0620484
0.0631127
0.0844295
0.0919929
0.0922504
0.0850679
0.064156
0.065117
0.0854362
0.0924577
0.0926038
0.0858436
0.0661887
0.0673298
0.0862508
0.0927624
0.0927888
0.086535
0.0683625
0.0692567
0.086791
0.0927753
0.0927683
0.0870732
0.0702347
0.0713006
0.0873487
0.0927741
0.0927381
0.0875745
0.0724018
0.0730133
0.0877485
0.0925436
0.0919307
0.0873267
0.0729372
0.0581677
0.0802417
0.0888476
0.0912976
0.0837109
0.0617583
0.0618008
0.0840039
0.0914472
0.0913
0.0841763
0.0627167
0.0639531
0.0842438
0.0910869
0.0911703
0.0847157
0.0654606
0.0671291
0.0850799
0.0911729
0.0912352
0.0856092
0.0687426
0.070233
0.085867
0.0911285
0.0911243
0.0862892
0.0717148
0.0731099
0.0865922
0.0910461
0.0909415
0.0868732
0.0743678
0.0748027
0.086684
0.0903978
0.0879715
0.0812051
0.0645237
0.0683354
0.0845031
0.0899658
0.0900693
0.0848535
0.0693335
0.0709348
0.0854953
0.0901225
0.0901013
0.085808
0.0721489
0.0732852
0.0860147
0.0899798
0.0898569
0.0862938
0.0744509
0.0750489
0.0863139
0.0895621
0.0889456
0.0859804
0.0753225
0.0662625
0.0816409
0.0868233
0.0882702
0.0837742
0.0697318
0.0705775
0.0840406
0.0881255
0.0877792
0.0841227
0.0718217
0.0729479
0.0840547
0.0874112
0.0870571
0.0841349
0.0741695
0.0745463
0.0837072
0.086208
0.0842589
0.0796012
0.067004
0.0707073
0.0819875
0.0855115
0.0852709
0.0821412
0.0718203
0.0728301
0.0820563
0.0848165
0.0842738
0.0819491
0.0735083
0.0734854
0.0811607
0.0832168
0.0815472
0.0777796
0.0671043
0.0699775
0.0794802
0.0821648
0.0813096
0.0789599
0.0704678
0.0713101
0.0785164
0.0803942
0.0790241
0.0775015
0.0711578
0.0660233
0.0745169
0.0773754
0.0774119
0.0754594
0.0684856
0.0686105
0.0744688
0.0760583
0.0744412
0.073332
0.0685237
0.0674087
0.0714292
0.0721207
0.0697934
0.0683466
0.0627798
0.0632147
0.0672287
0.0680795
0.0646516
0.0643798
0.0612134
0.056326
0.0605671
0.0615047
0.0582934
0.057753
0.0555642
0.0513639
0.0522208
0.0521212
0.0447746
0.0445021
0.0433223
0.0343915
0.0342609
0.0346923
0.0235731
0.021638
0.0202335
0.00543085
0.00893136
0.0149077
0.0299711
0.028401
0.0288077
0.0540936
0.052417
0.0516833
0.0697359
0.0711969
0.072624
0.0836812
0.0835251
0.0826296
0.0870128
0.0869404
0.0857317
0.0892773
0.0920006
0.0920522
0.0934808
0.0926819
0.0891965
0.0911038
0.0954423
0.0961293
0.0970467
0.0956475
0.0905313
0.087944
0.094216
0.0966855
0.0985779
0.0969299
0.0897899
0.0868888
0.095062
0.0976433
0.0995669
0.0977824
0.0905448
0.089474
0.0970933
0.0995417
0.0982538
0.0951315
0.0865247
0.0897685
0.0978306
0.0999969
0.0996866
0.096786
0.0882014
0.0852044
0.0946178
0.0981602
0.0999511
0.0976051
0.088878
0.0873172
0.0965357
0.0996057
0.0977823
0.0940018
0.0839183
0.087818
0.0969653
0.0995255
0.0993764
0.0961972
0.0867168
0.083226
0.0934938
0.0974864
0.0992433
0.0965555
0.0874661
0.0866364
0.0959925
0.0992271
0.097292
0.09334
0.0831252
0.0868347
0.0962231
0.0989833
0.0989185
0.0955786
0.0859357
0.0827569
0.0930463
0.0970655
0.0988803
0.0960815
0.0866819
0.0856125
0.0953604
0.098751
0.0968579
0.0927963
0.0823035
0.0865232
0.0958625
0.0986898
0.0986495
0.095344
0.0855023
0.0836932
0.0941637
0.0979708
0.0955649
0.0905192
0.0795288
0.0839681
0.0945112
0.0977264
0.0978412
0.0938471
0.0829246
0.0787738
0.0912583
0.0957236
0.0978325
0.0947257
0.0837055
0.0822899
0.0937942
0.0976228
0.0953619
0.0904908
0.0786936
0.0836169
0.0944556
0.0976311
0.0977368
0.0937861
0.0826977
0.0786822
0.091094
0.0955746
0.0977371
0.094568
0.0832985
0.0822337
0.0936147
0.0976291
0.0955794
0.0911004
0.0784709
0.0836281
0.0947759
0.0979278
0.0979155
0.0941108
0.0824559
0.0790076
0.0905952
0.0956059
0.0979089
0.0944832
0.083681
0.0824632
0.0938642
0.0979004
0.095792
0.0907183
0.0793431
0.0841909
0.0948999
0.0982833
0.0982917
0.0942883
0.0828809
0.079169
0.0905776
0.0958014
0.098272
0.0948227
0.0835294
0.0811839
0.0928694
0.0970962
0.0995862
0.0966182
0.0863675
0.0857851
0.0960348
0.0996471
0.0976433
0.0933459
0.0826196
0.086694
0.0967623
0.0998614
0.0997346
0.0959735
0.0854594
0.0823843
0.0934576
0.0978826
0.100372
0.0973997
0.0873105
0.0865958
0.0969925
0.100619
0.0986904
0.0943662
0.0834799
0.0875956
0.0978438
0.10089
0.10072
0.0969546
0.0862298
0.0827225
0.0940523
0.0986819
0.101098
0.0979673
0.0876293
0.0868814
0.0977263
0.101421
0.0992965
0.0945124
0.08382
0.08772
0.0985721
0.101738
0.100359
0.0963656
0.085149
0.0889002
0.0994874
0.10251
0.102411
0.0986956
0.087876
0.0851728
0.0962722
0.100628
0.103088
0.100175
0.0898876
0.088904
0.099749
0.103277
0.101184
0.0965495
0.0858156
0.0897777
0.100539
0.103604
0.102179
0.0981975
0.0870604
0.0911071
0.101314
0.104329
0.104536
0.100983
0.0907611
0.08808
0.0986752
0.102879
0.105195
0.102308
0.0923505
0.09134
0.101812
0.105331
0.103285
0.0987344
0.0882154
0.0918714
0.102598
0.105635
0.10414
0.100125
0.0889656
0.0930505
0.103261
0.106205
0.106559
0.103038
0.0927998
0.0900512
0.100821
0.104939
0.107234
0.104434
0.0942226
0.0933868
0.103662
0.107374
0.105391
0.10136
0.0893539
0.0933958
0.104837
0.107684
0.106214
0.10233
0.0906157
0.0949483
0.105515
0.108425
0.108684
0.10508
0.0944327
0.0916386
0.102351
0.106793
0.109313
0.1064
0.0956321
0.0934948
0.104496
0.10831
0.110641
0.107915
0.0978061
0.0966919
0.107018
0.110513
0.108336
0.103993
0.0932269
0.0964789
0.107405
0.110474
0.109382
0.105378
0.09425
0.0992251
0.109186
0.11196
0.11213
0.108603
0.0985245
0.0953407
0.105932
0.110245
0.112604
0.109744
0.0991459
0.0968175
0.1077
0.111468
0.113664
0.110952
0.100896
0.0997882
0.109976
0.113492
0.111241
0.106913
0.0960158
0.099781
0.110582
0.113434
0.112691
0.109005
0.0980834
0.102471
0.112653
0.115244
0.115402
0.111924
0.101857
0.0978963
0.109633
0.113514
0.115814
0.112975
0.101665
0.0993531
0.110673
0.114549
0.116818
0.114094
0.103276
0.100615
0.111538
0.115338
0.117238
0.114486
0.104325
0.103973
0.114082
0.117542
0.115883
0.111717
0.101219
0.104969
0.115528
0.118317
0.117317
0.1136
0.102794
0.106809
0.117015
0.119604
0.119527
0.115957
0.105871
0.101812
0.113685
0.117582
0.11985
0.116958
0.105381
0.102549
0.114318
0.118302
0.120471
0.117667
0.106358
0.104659
0.11587
0.119602
0.122024
0.119443
0.109326
0.108494
0.118835
0.122208
0.120374
0.116037
0.105703
0.109076
0.119922
0.122717
0.121445
0.117643
0.106505
0.110391
0.121165
0.123801
0.122615
0.119049
0.108339
0.111722
0.121886
0.124549
0.124345
0.12079
0.110482
0.107249
0.118134
0.122476
0.124944
0.122176
0.111224
0.10917
0.120253
0.124008
0.126439
0.123894
0.113185
0.111224
0.121907
0.125446
0.1276
0.125081
0.115176
0.114394
0.124352
0.12768
0.125832
0.121719
0.111255
0.114346
0.125169
0.127957
0.126541
0.122709
0.111661
0.115042
0.126002
0.128766
0.127787
0.12406
0.113201
0.117432
0.12743
0.130012
0.130215
0.126861
0.116628
0.113778
0.123993
0.128377
0.130652
0.128068
0.116944
0.114499
0.125951
0.129578
0.131852
0.129397
0.118298
0.116156
0.127205
0.130726
0.132792
0.13024
0.120095
0.118951
0.129361
0.132696
0.130526
0.125952
0.115674
0.118739
0.129878
0.132706
0.131813
0.127926
0.116661
0.120989
0.131876
0.134496
0.133475
0.129829
0.119079
0.122745
0.133302
0.135815
0.134763
0.131309
0.120779
0.124495
0.134395
0.136845
0.136814
0.133429
0.123715
0.120031
0.131159
0.135013
0.137291
0.134466
0.123213
0.120611
0.132114
0.135972
0.138171
0.135404
0.12392
0.121601
0.133023
0.136927
0.13927
0.136651
0.125853
0.124082
0.134739
0.138362
0.140593
0.138129
0.128223
0.127372
0.137513
0.140769
0.138972
0.13462
0.124512
0.127636
0.138618
0.141266
0.140162
0.136397
0.12516
0.128813
0.139923
0.142538
0.141297
0.137619
0.126607
0.130234
0.140933
0.143471
0.142264
0.138668
0.128084
0.131582
0.141618
0.14424
0.144354
0.141008
0.130754
0.128117
0.138142
0.142604
0.144973
0.142353
0.131268
0.128849
0.14021
0.143993
0.14645
0.143923
0.132733
0.130628
0.141681
0.145329
0.147487
0.144951
0.134156
0.132056
0.142816
0.146402
0.148512
0.146008
0.135973
0.135241
0.145029
0.148515
0.146687
0.142886
0.131155
0.134402
0.146074
0.148978
0.147706
0.143702
0.131831
0.136086
0.147595
0.150284
0.149232
0.145399
0.134156
0.137976
0.14907
0.15167
0.15055
0.14688
0.135909
0.139437
0.150203
0.152767
0.151725
0.148148
0.137519
0.1413
0.151357
0.153852
0.153955
0.150646
0.14028
0.137532
0.147449
0.152088
0.154331
0.151755
0.140429
0.137719
0.149368
0.153173
0.155453
0.15282
0.141252
0.138902
0.150323
0.154199
0.156634
0.153955
0.142848
0.140997
0.151896
0.155627
0.157983
0.155403
0.144637
0.142825
0.153496
0.157077
0.159361
0.156877
0.146938
0.146075
0.156172
0.159516
0.15773
0.153471
0.142889
0.146228
0.157346
0.160053
0.15893
0.155051
0.143859
0.147762
0.158912
0.161522
0.16036
0.156615
0.14556
0.149022
0.160025
0.162648
0.161387
0.157643
0.146799
0.150382
0.161035
0.163644
0.162726
0.159177
0.148611
0.152414
0.162445
0.164931
0.16512
0.161819
0.151524
0.148825
0.158779
0.163346
0.165592
0.16302
0.151572
0.149105
0.160756
0.164612
0.167128
0.164588
0.152939
0.150634
0.162227
0.165973
0.168344
0.165765
0.154416
0.152389
0.163554
0.167218
0.169456
0.16687
0.15589
0.154004
0.164821
0.16845
0.170727
0.168228
0.158109
0.157184
0.167533
0.170925
0.169161
0.164672
0.154289
0.157457
0.168827
0.171555
0.170581
0.16669
0.155177
0.15915
0.170674
0.173262
0.172112
0.168324
0.15684
0.16068
0.171937
0.174543
0.173466
0.169796
0.15875
0.162272
0.173221
0.175816
0.174845
0.17121
0.160392
0.164391
0.174578
0.177088
0.177262
0.173884
0.163318
0.160597
0.170695
0.175458
0.177815
0.17531
0.163585
0.161063
0.172941
0.176848
0.179405
0.176808
0.164991
0.162704
0.174414
0.178277
0.180838
0.178188
0.166528
0.164483
0.175939
0.179743
0.182183
0.179537
0.168155
0.166145
0.177315
0.181102
0.183591
0.181004
0.17008
0.168265
0.179075
0.182702
0.185029
0.1825
0.172416
0.171663
0.181897
0.185377
0.183718
0.179492
0.168608
0.172006
0.18337
0.186179
0.185164
0.181243
0.169735
0.173899
0.185315
0.187927
0.186879
0.183088
0.171826
0.175607
0.18675
0.189365
0.188298
0.184548
0.173661
0.177351
0.188114
0.190706
0.189766
0.186172
0.175473
0.179433
0.189585
0.192089
0.192311
0.18886
0.17842
0.175583
0.186266
0.190666
0.193129
0.190446
0.178938
0.176373
0.188043
0.192011
0.194659
0.192021
0.180336
0.1783
0.189852
0.19366
0.196166
0.193556
0.182082
0.180227
0.19146
0.195232
0.197859
0.195334
0.184286
0.182578
0.193527
0.1971
0.199485
0.197061
0.186799
0.185601
0.196143
0.199673
0.198004
0.193748
0.1824
0.186213
0.197748
0.200684
0.199556
0.195489
0.183698
0.187891
0.199575
0.202327
0.20124
0.19728
0.185744
0.189857
0.201221
0.203905
0.202961
0.199176
0.188026
0.191895
0.202913
0.205528
0.204734
0.201042
0.190069
0.194435
0.204744
0.207273
0.207785
0.204267
0.193652
0.190935
0.20182
0.206303
0.208959
0.206304
0.194693
0.192448
0.204093
0.208008
0.210701
0.208047
0.196291
0.19393
0.20558
0.209539
0.212031
0.209302
0.197756
0.195664
0.207081
0.21098
0.213681
0.211049
0.199865
0.197923
0.209135
0.21286
0.215359
0.212798
0.202226
0.201482
0.212354
0.215924
0.214377
0.209944
0.19874
0.202382
0.214153
0.217061
0.216145
0.212054
0.200207
0.204784
0.216501
0.219206
0.218478
0.214564
0.202939
0.207906
0.219021
0.221493
0.220749
0.21719
0.206118
0.209669
0.220466
0.223018
0.223094
0.219496
0.208102
0.205357
0.21636
0.221316
0.223983
0.221183
0.20889
0.206367
0.2188
0.222974
0.225885
0.223154
0.210804
0.208544
0.220826
0.224885
0.227766
0.225002
0.213166
0.211061
0.222944
0.226921
0.229712
0.227023
0.215898
0.215228
0.22657
0.230407
0.228938
0.224572
0.212018
0.216644
0.229005
0.23211
0.231401
0.227218
0.214544
0.220141
0.232234
0.234848
0.233839
0.229893
0.217765
0.221509
0.233576
0.236367
0.235227
0.2312
0.219066
0.223614
0.235057
0.237868
0.238141
0.234243
0.222085
0.21966
0.23098
0.236448
0.239485
0.23658
0.2239
0.221231
0.234158
0.238521
0.241632
0.238755
0.226046
0.223959
0.236586
0.24081
0.244177
0.241336
0.229036
0.226978
0.239418
0.24354
0.246604
0.243867
0.232203
0.231799
0.243918
0.247799
0.246687
0.241948
0.229859
0.234311
0.247066
0.249924
0.248448
0.244064
0.230966
0.235306
0.248212
0.251225
0.250021
0.245727
0.232811
0.237473
0.250124
0.25308
0.252123
0.247867
0.235161
0.240111
0.252113
0.25503
0.255641
0.251551
0.239041
0.236291
0.248804
0.25401
0.257164
0.254073
0.240994
0.23863
0.251915
0.2564
0.260033
0.257197
0.244333
0.242277
0.255384
0.259606
0.263112
0.260405
0.24827
0.248423
0.260968
0.264718
0.263209
0.258106
0.246312
0.249789
0.262813
0.266037
0.264466
0.259788
0.246388
0.251095
0.26443
0.267649
0.266526
0.261973
0.248578
0.253785
0.266845
0.269897
0.269149
0.264762
0.251652
0.257064
0.269426
0.272427
0.273312
0.26902
0.256235
0.253407
0.266651
0.271798
0.2753
0.271903
0.258757
0.2564
0.27001
0.27465
0.278731
0.275812
0.262666
0.260996
0.274421
0.278721
0.282585
0.280257
0.268787
0.268554
0.280372
0.283826
0.281737
0.276952
0.264117
0.267547
0.281091
0.284443
0.283147
0.278392
0.264389
0.269895
0.28355
0.286732
0.285975
0.281393
0.26747
0.273332
0.286358
0.289427
0.290429
0.285985
0.272389
0.269512
0.283405
0.288905
0.292485
0.289013
0.275313
0.272789
0.287041
0.291914
0.296136
0.29305
0.279719
0.279622
0.293725
0.298271
0.297594
0.292214
0.277884
0.285244
0.299017
0.301955
0.300703
0.296139
0.281927
0.285929
0.300352
0.303765
0.302232
0.297244
0.282394
0.288094
0.302086
0.305511
0.306203
0.301365
0.286727
0.28364
0.298483
0.304537
0.308536
0.304864
0.289839
0.287192
0.302724
0.307898
0.312248
0.308965
0.294515
0.294005
0.309223
0.314101
0.312836
0.30685
0.291236
0.298445
0.313783
0.317334
0.317685
0.312666
0.297127
0.306607
0.320336
0.322957
0.323868
0.319568
0.305098
0.29944
0.315398
0.321143
0.324408
0.32041
0.304465
0.300747
0.3174
0.322997
0.32718
0.323477
0.308129
0.306998
0.323277
0.328571
0.32701
0.320314
0.303978
0.311136
0.327671
0.331697
0.331153
0.325398
0.308396
0.317157
0.332827
0.336325
0.338958
0.33366
0.317082
0.314999
0.331981
0.338402
0.344098
0.341353
0.326134
0.324014
0.339304
0.343877
0.347657
0.344263
0.328809
0.325695
0.342187
0.347466
0.344931
0.338609
0.320622
0.327833
0.345045
0.349443
0.348393
0.342434
0.324396
0.332902
0.349375
0.353273
0.355274
0.349667
0.33218
0.329421
0.346934
0.354048
0.359407
0.355453
0.33831
0.336682
0.354308
0.360116
0.366581
0.363747
0.348942
0.352093
0.367152
0.370976
0.369666
0.364421
0.348764
0.35231
0.368789
0.372901
0.37241
0.366501
0.348671
0.343456
0.362963
0.369884
0.375171
0.370559
0.352146
0.348889
0.368253
0.374481
0.380181
0.376182
0.358775
0.358938
0.37739
0.383172
0.382646
0.375571
0.356616
0.367208
0.384509
0.38851
0.393136
0.387663
0.369352
0.368844
0.387765
0.393693
0.399685
0.395931
0.37775
0.372855
0.393039
0.399229
0.395713
0.38802
0.366029
0.375184
0.395601
0.400827
0.399592
0.39262
0.371374
0.382353
0.401215
0.405746
0.408939
0.402552
0.38262
0.380844
0.40103
0.408783
0.415597
0.411513
0.393639
0.39733
0.416002
0.421386
0.422599
0.416867
0.397847
0.406888
0.425213
0.428872
0.428151
0.422115
0.401202
0.394341
0.416449
0.424788
0.429847
0.424486
0.404139
0.402574
0.424391
0.431519
0.430671
0.42215
0.399498
0.413613
0.433629
0.438574
0.444128
0.437513
0.415592
0.418064
0.439447
0.446813
0.456242
0.453526
0.435993
0.43259
0.452893
0.457893
0.456652
0.449006
0.425054
0.416388
0.442114
0.452654
0.458614
0.452523
0.428616
0.42738
0.453077
0.461415
0.461546
0.452131
0.425022
0.445941
0.467537
0.472114
0.482126
0.477892
0.455147
0.458779
0.481717
0.487623
0.483622
0.474344
0.447551
0.455344
0.480882
0.48765
0.486748
0.478438
0.449583
0.446324
0.477698
0.487834
0.487747
0.474266
0.44425
0.471289
0.494868
0.499581
0.510926
0.505987
0.481732
0.481429
0.507838
0.515129
0.509177
0.49739
0.466401
0.476773
0.505415
0.513111
0.51357
0.504867
0.472724
0.472132
0.507943
0.517831
0.528418
0.517489
0.483727
0.48071
0.519052
0.527915
0.535894
0.527136
0.493173
0.481465
0.521617
0.532428
0.532047
0.519603
0.475273
0.478074
0.525204
0.536788
0.541943
0.528872
0.479418
0.468962
0.522792
0.540719
0.529118
0.510218
0.449439
0.482624
0.523791
0.535888
0.5332
0.522163
0.480154
0.469488
0.51684
0.530498
0.524304
0.508088
0.451405
0.43369
0.495952
0.514298
0.502242
0.481459
0.413632
0.390583
0.466045
0.490073
0.478894
0.451964
0.370652
0.354693
0.440241
0.46961
0.461826
0.430125
0.341087
0.328989
0.420926
0.454889
0.448501
0.412359
0.318068
0.308234
0.404332
0.442539
0.436932
0.396795
0.29928
0.291115
0.389693
0.431616
0.426557
0.382993
0.283667
0.276857
0.376653
0.421716
0.417081
0.370666
0.270653
0.265024
0.365025
0.412638
0.408375
0.359714
0.259915
0.255287
0.354719
0.404272
0.400323
0.350019
0.251087
0.247289
0.345605
0.396512
0.392834
0.341454
0.243857
0.240769
0.337556
0.389279
0.385842
0.333891
0.237991
0.235505
0.330453
0.382514
0.379295
0.327225
0.233281
0.231303
0.324203
0.376182
0.373173
0.321371
0.229546
0.227994
0.318722
0.370263
0.367452
0.316241
0.226624
0.225421
0.313924
0.364736
0.362116
0.311757
0.224367
0.22345
0.309732
0.359591
0.35716
0.307832
0.222653
0.221966
0.306053
0.354822
0.352576
0.304383
0.221376
0.220873
0.302819
0.350422
0.348353
0.30135
0.220446
0.220089
0.299974
0.346373
0.344476
0.298681
0.219791
0.219548
0.29747
0.342666
0.340935
0.29633
0.21935
0.219194
0.295261
0.339286
0.337712
0.294255
0.21907
0.218981
0.293312
0.336219
0.334795
0.292419
0.218923
0.218887
0.291581
0.333445
0.33216
0.290786
0.218877
0.218879
0.290042
0.330944
0.329788
0.289338
0.218897
0.218917
0.288678
0.328695
0.327656
0.288052
0.218948
0.218979
0.28747
0.326676
0.325745
0.286917
0.219016
0.219047
0.286401
0.324866
0.32403
0.28591
0.219083
0.219114
0.285455
0.323246
0.322499
0.285023
0.219148
0.219172
0.28462
0.321796
0.321127
0.284238
0.219201
0.219226
0.283885
0.320502
0.319907
0.283552
0.219254
0.219271
0.283242
0.319347
0.318811
0.282946
0.21929
0.219303
0.282673
0.318311
0.317832
0.282414
0.219318
0.219324
0.282173
0.317382
0.316951
0.281943
0.219332
0.219335
0.281732
0.316549
0.316163
0.28153
0.219341
0.21934
0.28134
0.315798
0.315447
0.281156
0.219341
0.219339
0.280986
0.315119
0.314804
0.280823
0.219339
0.219331
0.280668
0.314504
0.314215
0.280519
0.219325
0.219317
0.280381
0.313946
0.313685
0.280248
0.219311
0.219299
0.280122
0.313438
0.313198
0.28
0.219288
0.219275
0.279888
0.312975
0.312758
0.279781
0.219265
0.21925
0.279678
0.312553
0.312353
0.279578
0.219235
0.21922
0.279487
0.312167
0.311988
0.2794
0.219208
0.219192
0.279316
0.311817
0.311654
0.279236
0.219176
0.21916
0.279162
0.311498
0.311356
0.279093
0.219148
0.219135
0.27903
0.311215
0.311086
0.278969
0.219123
0.219109
0.278911
0.310955
0.310841
0.278858
0.219099
0.219089
0.278809
0.310723
0.310621
0.278764
0.219082
0.219073
0.278723
0.310513
0.310424
0.278685
0.21907
0.219065
0.278651
0.310326
0.310248
0.278621
0.219065
0.219063
0.278592
0.310158
0.31009
0.278568
0.219067
0.21907
0.278546
0.31001
0.309951
0.278529
0.219078
0.219085
0.278512
0.309878
0.309829
0.278502
0.219099
0.219111
0.278492
0.309764
0.309724
0.278488
0.219129
0.219147
0.278483
0.309666
0.309634
0.278486
0.21917
0.219193
0.278488
0.309584
0.30956
0.278496
0.219221
0.219249
0.278503
0.309515
0.3095
0.278516
0.219281
0.219314
0.278529
0.309463
0.309455
0.278548
0.219351
0.219388
0.278565
0.309422
0.309423
0.278589
0.219429
0.219471
0.278611
0.309396
0.309403
0.27864
0.219516
0.219561
0.278666
0.30938
0.309395
0.278699
0.21961
0.219659
0.27873
0.309378
0.309398
0.278767
0.219711
0.219763
0.278802
0.309385
0.309411
0.278842
0.219818
0.219874
0.278881
0.309404
0.309435
0.278925
0.219931
0.219989
0.278968
0.309432
0.309468
0.279015
0.220049
0.22011
0.279061
0.30947
0.30951
0.279111
0.220173
0.220235
0.27916
0.309516
0.30956
0.279213
0.2203
0.220365
0.279265
0.30957
0.309618
0.279321
0.220431
0.220498
0.279375
0.309632
0.309685
0.279435
0.220567
0.220637
0.279493
0.309702
0.309759
0.279554
0.220708
0.220779
0.279615
0.30978
0.309841
0.27968
0.220852
0.220925
0.279743
0.309865
0.30993
0.27981
0.220999
0.221074
0.279875
0.309956
0.310025
0.279945
0.22115
0.221226
0.280013
0.310055
0.310126
0.280084
0.221302
0.22138
0.280154
0.310158
0.310233
0.280227
0.221457
0.221536
0.280299
0.310268
0.310345
0.280374
0.221614
0.221693
0.280447
0.310382
0.310461
0.280524
0.221771
0.221851
0.280598
0.310501
0.310582
0.280676
0.221929
0.222009
0.280751
0.310623
0.310706
0.28083
0.222088
0.222167
0.280906
0.310749
0.310833
0.280986
0.222246
0.222326
0.281063