/*--------------------------------*- C++ -*----------------------------------*\
| =========                 |                                                 |
| \\      /  F ield         | OpenFOAM: The Open Source CFD Toolbox           |
|  \\    /   O peration     | Version:  v2006                                 |
|   \\  /    A nd           | Website:  www.openfoam.com                      |
|    \\/     M anipulation  |                                                 |
\*---------------------------------------------------------------------------*/
FoamFile
{
    version     2.0;
    format      ascii;
    class       volScalarField;
    location    "0.026";
    object      turbulenceProperties:I;
}
// * * * * * * * * * * * * * * * * * * * * * * * * * * * * * * * * * * * * * //

dimensions      [0 0 0 0 0 0 0];


internalField   nonuniform List<scalar> 
16277
(
0.149976
0.149975
0.149983
0.149986
0.149992
0.14999
0.149991
0.149995
0.150002
0.15001
0.150016
0.150019
0.150019
0.150018
0.150016
0.150014
0.150012
0.15001
0.150009
0.150008
0.150008
0.150007
0.150007
0.150006
0.150006
0.150006
0.150005
0.150005
0.150005
0.150005
0.150005
0.150006
0.150006
0.150006
0.150006
0.150006
0.150006
0.150006
0.150007
0.150007
0.150007
0.150007
0.150007
0.150008
0.150008
0.150008
0.150008
0.150008
0.150008
0.150008
0.150009
0.150009
0.150009
0.150009
0.150009
0.150009
0.150009
0.150009
0.150009
0.150008
0.150008
0.150008
0.150008
0.150008
0.150008
0.150007
0.150007
0.150007
0.150007
0.150006
0.150006
0.150006
0.150005
0.150005
0.150004
0.150003
0.150002
0.150001
0.15
0.149999
0.150001
0.150007
0.15002
0.150033
0.150037
0.150025
0.150007
0.149988
0.149967
0.149969
0.149981
0.149977
0.14999
0.15001
0.149874
0.149306
0.145061
0.139083
0.145984
0.148751
0.14599
0.139207
0.133282
0.129411
0.135547
0.143834
0.139891
0.129564
0.125383
0.123129
0.127271
0.138226
0.13456
0.122627
0.12048
0.119201
0.121263
0.13331
0.130298
0.117885
0.11745
0.116723
0.117186
0.129431
0.127015
0.11493
0.115559
0.115173
0.114573
0.126395
0.124413
0.112934
0.114358
0.114179
0.112779
0.12398
0.122304
0.111525
0.113576
0.113521
0.111493
0.122
0.120557
0.110499
0.113065
0.113096
0.110555
0.120353
0.119082
0.109734
0.112731
0.112811
0.109845
0.118949
0.117807
0.109142
0.112503
0.112616
0.109288
0.117729
0.116691
0.10867
0.11235
0.112486
0.108842
0.116658
0.115705
0.108288
0.11225
0.112402
0.108481
0.115708
0.114829
0.107978
0.112188
0.112351
0.10819
0.114863
0.114048
0.10773
0.112155
0.112328
0.107957
0.11411
0.113351
0.107536
0.112146
0.112327
0.107778
0.113438
0.112731
0.10739
0.112159
0.112347
0.107647
0.112844
0.112186
0.10729
0.112189
0.112384
0.107562
0.112325
0.111715
0.107235
0.112236
0.112438
0.107523
0.111878
0.111312
0.107224
0.1123
0.11251
0.107529
0.1115
0.110976
0.107256
0.11238
0.112598
0.107578
0.111186
0.110701
0.107329
0.112476
0.112702
0.107667
0.110934
0.110485
0.107441
0.112588
0.112822
0.107796
0.110739
0.110323
0.107591
0.112715
0.112958
0.107962
0.110599
0.110215
0.107776
0.112858
0.11311
0.108164
0.110512
0.110158
0.107997
0.113016
0.113278
0.108404
0.110478
0.110154
0.108254
0.113189
0.113461
0.108679
0.110496
0.1102
0.108546
0.113379
0.113662
0.108992
0.110566
0.110299
0.108875
0.113584
0.113879
0.109343
0.110689
0.11045
0.109242
0.113806
0.114112
0.109732
0.110866
0.110654
0.109647
0.114044
0.114363
0.110161
0.111096
0.110912
0.110092
0.114299
0.114631
0.110631
0.111382
0.111224
0.110577
0.11457
0.114915
0.111143
0.111723
0.111592
0.111104
0.114856
0.115215
0.111697
0.11212
0.112015
0.111673
0.115157
0.115529
0.112295
0.112572
0.112492
0.112284
0.11547
0.115856
0.112932
0.113078
0.113021
0.112932
0.115794
0.116191
0.113607
0.113634
0.113599
0.113616
0.116124
0.116531
0.114316
0.114238
0.11422
0.11433
0.116454
0.116868
0.115052
0.114881
0.114876
0.115066
0.116778
0.117194
0.115804
0.115555
0.115557
0.115815
0.117085
0.117498
0.116562
0.116247
0.116249
0.11656
0.117363
0.117767
0.117306
0.11694
0.11693
0.117283
0.117597
0.117981
0.118013
0.11761
0.117575
0.117956
0.117767
0.11812
0.118653
0.118227
0.118152
0.118547
0.11785
0.118161
0.119189
0.118754
0.118621
0.119019
0.11782
0.118075
0.119578
0.119151
0.118942
0.119331
0.117656
0.117804
0.119756
0.119375
0.11906
0.119377
0.117336
0.117342
0.119631
0.119355
0.11892
0.119112
0.116834
0.116683
0.119172
0.119052
0.118482
0.118511
0.116181
0.115844
0.118367
0.118439
0.117735
0.117574
0.115356
0.114882
0.117243
0.117526
0.116706
0.116333
0.114339
0.113814
0.115799
0.116312
0.115367
0.114742
0.11314
0.112579
0.114002
0.114782
0.113733
0.112837
0.111841
0.111356
0.111996
0.113045
0.111957
0.110816
0.110626
0.110209
0.109925
0.111203
0.110115
0.10878
0.109519
0.109176
0.107893
0.109338
0.108285
0.106824
0.108545
0.108283
0.105975
0.107514
0.106525
0.105005
0.107724
0.107545
0.104235
0.105787
0.104882
0.103341
0.107063
0.106957
0.102697
0.104212
0.103385
0.10189
0.106558
0.106518
0.101375
0.102799
0.102044
0.100662
0.106203
0.106219
0.100275
0.101565
0.100889
0.0996609
0.105984
0.106045
0.0993935
0.100515
0.0999213
0.098879
0.105882
0.10598
0.0987251
0.0996472
0.0991346
0.0982987
0.105875
0.106002
0.0982275
0.0989455
0.0985063
0.0978801
0.105947
0.106091
0.0978824
0.0983863
0.0980133
0.097607
0.106079
0.10623
0.0976714
0.0979501
0.097636
0.0974589
0.106252
0.106401
0.0975699
0.0976154
0.0973516
0.0974117
0.106448
0.106589
0.0975546
0.097359
0.0971361
0.0974408
0.106653
0.10678
0.0976024
0.0971589
0.0969675
0.0975228
0.106854
0.106964
0.0976904
0.0969936
0.0968259
0.097636
0.107042
0.107128
0.0977989
0.0968473
0.0966918
0.0977617
0.107212
0.107276
0.0979126
0.096711
0.0965597
0.0978869
0.107362
0.107408
0.0980214
0.0965765
0.0964258
0.098003
0.107494
0.107529
0.0981196
0.0964418
0.0962815
0.0980997
0.107603
0.107631
0.0982013
0.0962973
0.0961228
0.0981718
0.107683
0.107709
0.0982635
0.096137
0.0959489
0.0982246
0.107747
0.10777
0.098306
0.09596
0.095759
0.0982576
0.107795
0.107816
0.0983283
0.0957659
0.0955523
0.0982705
0.10783
0.107847
0.0983303
0.0955546
0.0953289
0.0982632
0.107851
0.107865
0.098312
0.0953259
0.0950887
0.0982358
0.107862
0.107872
0.0982741
0.09508
0.094832
0.098189
0.107861
0.107868
0.098221
0.0948178
0.0945605
0.098123
0.107851
0.107854
0.0981483
0.0945397
0.0942732
0.0980374
0.107829
0.107828
0.0980566
0.094245
0.0939649
0.0979344
0.107795
0.107787
0.0979343
0.0939221
0.0936113
0.0977763
0.107743
0.107651
0.0977402
0.0935474
0.0932539
0.0976737
0.107604
0.107382
0.0973031
0.0930037
0.092756
0.0971885
0.106947
0.106251
0.0956475
0.0920185
0.092957
0.0959538
0.104137
0.105077
0.0934237
0.0906559
0.0954493
0.10107
0.107306
0.112868
0.116542
0.120918
0.123738
0.125995
0.127569
0.128623
0.129148
0.129176
0.12866
0.127536
0.125759
0.122758
0.120445
0.115276
0.110431
0.105233
0.100525
0.099231
0.102281
0.116137
0.131503
0.133778
0.117658
0.103133
0.1041
0.119281
0.135501
0.136423
0.120427
0.104802
0.105371
0.121058
0.137269
0.137564
0.121397
0.105593
0.105911
0.121619
0.137879
0.137938
0.121827
0.106026
0.106112
0.121893
0.137966
0.137964
0.121897
0.106204
0.106245
0.121925
0.137956
0.137929
0.121926
0.106335
0.106358
0.121923
0.137905
0.137878
0.121938
0.106452
0.106469
0.12191
0.137839
0.137811
0.121939
0.106565
0.106583
0.121906
0.137769
0.137742
0.121933
0.106678
0.106693
0.121896
0.137692
0.137661
0.121912
0.106791
0.106807
0.121896
0.137617
0.137582
0.121895
0.106908
0.106923
0.121887
0.137537
0.137496
0.121885
0.107025
0.107042
0.121881
0.137456
0.137415
0.121873
0.107148
0.107165
0.121871
0.137372
0.137328
0.121867
0.107272
0.107292
0.121867
0.137288
0.137246
0.12186
0.107403
0.107421
0.12186
0.137202
0.137157
0.121858
0.107535
0.107556
0.12186
0.137116
0.137073
0.121856
0.107673
0.107693
0.121858
0.137029
0.136985
0.121859
0.107814
0.107836
0.121861
0.136943
0.136904
0.12188
0.107958
0.107979
0.121859
0.136854
0.136815
0.121881
0.108105
0.108129
0.121875
0.13677
0.136733
0.121906
0.108255
0.108276
0.121882
0.136681
0.136645
0.121913
0.108406
0.108429
0.121907
0.136599
0.136565
0.121946
0.108558
0.108578
0.121922
0.136513
0.13648
0.121961
0.108709
0.10873
0.121957
0.136434
0.136403
0.122002
0.108858
0.108874
0.12198
0.136353
0.136324
0.122026
0.109002
0.109017
0.122023
0.136281
0.136254
0.122074
0.109139
0.109146
0.122051
0.136206
0.136181
0.122099
0.109264
0.109266
0.122094
0.136141
0.136118
0.122143
0.10937
0.109361
0.122116
0.136073
0.13605
0.122156
0.109452
0.109432
0.122141
0.136011
0.135988
0.122175
0.1095
0.109462
0.12213
0.135942
0.135919
0.122146
0.109507
0.109451
0.122108
0.135877
0.135848
0.122081
0.109461
0.109379
0.12203
0.135806
0.135767
0.121967
0.109347
0.109237
0.12189
0.135724
0.135674
0.121771
0.109152
0.109003
0.121648
0.135621
0.135556
0.121474
0.108856
0.108666
0.121277
0.135488
0.135408
0.121039
0.108464
0.108199
0.120755
0.135313
0.135202
0.120408
0.107945
0.107588
0.120024
0.135079
0.134931
0.11957
0.107272
0.106822
0.119022
0.134757
0.134564
0.118432
0.106447
0.105899
0.117737
0.134334
0.134079
0.116972
0.105455
0.104814
0.116097
0.133779
0.133449
0.115157
0.104308
0.103581
0.114085
0.133068
0.132656
0.11297
0.103009
0.102213
0.111665
0.132186
0.131692
0.110371
0.101591
0.100748
0.108851
0.131124
0.130542
0.107361
0.100075
0.099217
0.10564
0.129891
0.129207
0.103923
0.0984943
0.097621
0.101891
0.128292
0.127008
0.0999974
0.0968255
0.0960319
0.098345
0.125562
0.124248
0.0963644
0.0953757
0.0948125
0.094548
0.123072
0.121873
0.0934584
0.0948002
0.0945143
0.0925383
0.120783
0.1198
0.0911384
0.0948131
0.0948349
0.0904017
0.118707
0.117466
0.0898151
0.0955226
0.0958801
0.0895546
0.116246
0.115346
0.0899806
0.0971864
0.0977507
0.0900302
0.114509
0.113634
0.0912212
0.0994457
0.100548
0.0926769
0.112539
0.112579
0.0961369
0.103523
0.105222
0.0990092
0.113721
0.132627
0.0913589
0.0858684
0.0977645
0.0950738
0.126627
0.125934
0.0918571
0.0968721
0.0977213
0.0908466
0.125582
0.12438
0.0894866
0.0972216
0.0986116
0.0892033
0.122877
0.120997
0.0885004
0.0985627
0.100988
0.0894082
0.119141
0.117474
0.0895266
0.101296
0.104774
0.0921647
0.116029
0.114748
0.0933667
0.10606
0.111479
0.098397
0.114431
0.115174
0.101838
0.114253
0.0885359
0.0895193
0.12802
0.121877
0.094668
0.106725
0.107402
0.0939398
0.119509
0.117451
0.0967224
0.113036
0.114592
0.0973898
0.115951
0.115205
0.100934
0.119138
0.121347
0.102772
0.114763
0.116389
0.108548
0.126874
0.128782
0.112796
0.118873
0.128291
0.0936609
0.0973973
0.120866
0.101412
0.121306
0.119912
0.101081
0.122248
0.128477
0.105839
0.119456
0.118897
0.107509
0.130051
0.138407
0.116069
0.120213
0.12369
0.122779
0.142187
0.108046
0.10003
0.128157
0.123058
0.111658
0.137964
0.141695
0.114474
0.12144
0.122975
0.125351
0.153094
0.158102
0.131766
0.125307
0.131824
0.14288
0.164547
0.12638
0.111121
0.12999
0.128347
0.129669
0.162221
0.166523
0.133554
0.128735
0.134531
0.152604
0.182861
0.190476
0.16376
0.140983
0.134872
0.126406
0.152728
0.196793
0.158479
0.138166
0.141585
0.167602
0.206991
0.230942
0.196494
0.154228
0.162524
0.209604
0.242095
0.210993
0.16764
0.152131
0.171658
0.229949
0.268859
0.289559
0.251232
0.186151
0.175039
0.206867
0.268157
0.34818
0.304981
0.213537
0.247112
0.356896
0.402033
0.442572
0.351184
0.23912
0.41923
0.619318
0.657874
0.93477
0.864948
0.521203
1
1
1
0.813427
0.783513
0.50029
0.273138
0.420626
0.467442
0.340179
0.307006
0.212087
0.210557
0.275713
0.287857
0.238557
0.198553
0.171356
0.177349
0.215707
0.232206
0.192143
0.164469
0.149024
0.14943
0.177564
0.19776
0.186738
0.161796
0.141643
0.130766
0.124602
0.146662
0.165981
0.148176
0.136462
0.128973
0.123124
0.138287
0.155413
0.136231
0.127225
0.122417
0.127365
0.148629
0.116343
0.105076
0.122049
0.120714
0.119767
0.139116
0.133374
0.113777
0.117547
0.120054
0.0976017
0.104648
0.127776
0.109738
0.116509
0.114856
0.105637
0.122173
0.0973327
0.093811
0.119223
0.113786
0.10291
0.119133
0.113123
0.0994481
0.112952
0.118635
0.0905523
0.0914359
0.111317
0.0974141
0.110821
0.110505
0.0940234
0.105679
0.0863609
0.086922
0.117165
0.10869
0.0929796
0.105084
0.0997378
0.0899115
0.108914
0.116062
0.0841612
0.0825892
0.0996086
0.0888766
0.106269
0.107296
0.0861256
0.0949257
0.0795703
0.0816949
0.11487
0.104399
0.0866475
0.0963815
0.0893799
0.0830883
0.105107
0.108923
0.0801421
0.0838209
0.0742454
0.0795474
0.11786
0.104123
0.0785177
0.0845115
0.0812553
0.0768588
0.107314
0.119177
0.0749691
0.0711527
0.0806766
0.0746419
0.102872
0.106961
0.074598
0.0776466
0.0692467
0.0753507
0.116811
0.100998
0.0722663
0.0762302
0.0739774
0.0723071
0.104675
0.116991
0.0720028
0.0666315
0.073753
0.0701302
0.100769
0.104966
0.0710338
0.0716809
0.0654967
0.0709724
0.117327
0.0998131
0.0681552
0.0707798
0.0687965
0.0683347
0.104247
0.115127
0.0725968
0.0639375
0.0683751
0.0671038
0.0984062
0.10309
0.0669051
0.0664952
0.0622451
0.0722135
0.113524
0.0974061
0.0649976
0.065256
0.0634797
0.0644184
0.102993
0.114463
0.0726429
0.060426
0.0630858
0.0643287
0.099139
0.108717
0.0670141
0.0589989
0.065181
0.0630493
0.0930604
0.0972481
0.063398
0.0631134
0.0600584
0.068609
0.108339
0.0936618
0.0631258
0.0636483
0.0622498
0.0633053
0.0986705
0.10957
0.0687076
0.0594642
0.0629735
0.0626433
0.0935037
0.0979594
0.0621856
0.0610916
0.0589041
0.0693296
0.10922
0.0941014
0.0613704
0.0602411
0.0589142
0.0609193
0.0994433
0.111047
0.0699417
0.0577437
0.058611
0.0604267
0.0940714
0.0992811
0.0596116
0.0566854
0.0565695
0.0717447
0.110131
0.095115
0.0573757
0.0565393
0.0548268
0.06532
0.105737
0.0916904
0.0576749
0.0565298
0.0545717
0.0574249
0.0967409
0.107362
0.0679968
0.0547559
0.0550809
0.0571505
0.0918957
0.0972983
0.0565959
0.0525015
0.0538917
0.0703903
0.108278
0.0931802
0.0543744
0.0526673
0.0519312
0.063566
0.104021
0.0892017
0.0547901
0.0530067
0.0509129
0.0547015
0.0938105
0.104634
0.0666256
0.0520599
0.0524404
0.0548879
0.0899117
0.0956714
0.0548585
0.0501846
0.0521832
0.0695208
0.106777
0.0923193
0.0522806
0.0502221
0.0501084
0.0626154
0.103508
0.0885286
0.0529584
0.0509165
0.0486213
0.0530632
0.0933405
0.104317
0.0661097
0.0502295
0.0497312
0.0526885
0.089524
0.0952263
0.0530506
0.0476054
0.0505832
0.0670613
0.109714
0.0926355
0.0494053
0.047286
0.048028
0.0617155
0.103851
0.0879285
0.0503845
0.0480085
0.0461136
0.051281
0.0933156
0.10423
0.0675765
0.0490935
0.0463234
0.0488287
0.0895217
0.10101
0.0606046
0.046951
0.046909
0.0491917
0.0858321
0.0917017
0.049942
0.0450473
0.0484419
0.06673
0.103802
0.0895293
0.0486103
0.0456266
0.0464344
0.0604533
0.100405
0.0845397
0.0484425
0.0461042
0.0443452
0.0495401
0.0903656
0.102628
0.066325
0.04777
0.0448796
0.0475713
0.0879244
0.0995501
0.0599344
0.0458298
0.0455336
0.0478547
0.0845608
0.0906355
0.0492519
0.0438738
0.0476394
0.0663182
0.102819
0.0882231
0.0472883
0.0445323
0.0454495
0.0596629
0.0989289
0.0843265
0.0472529
0.0448434
0.0430938
0.0483909
0.0901431
0.104418
0.0649657
0.0471322
0.0435236
0.0458902
0.0886287
0.100484
0.0616388
0.045848
0.0432466
0.044569
0.0854277
0.0957312
0.0583596
0.0445402
0.0442587
0.0465242
0.0823
0.0877142
0.0479044
0.0425997
0.0463035
0.0648156
0.0992285
0.0853587
0.0458975
0.0430416
0.0442978
0.0587628
0.0967163
0.082686
0.0459921
0.0435754
0.0420447
0.0476933
0.0888018
0.103048
0.06434
0.0463485
0.0425154
0.0451829
0.0879099
0.0998631
0.0609208
0.0451302
0.0422787
0.0437492
0.0854758
0.0947167
0.0573306
0.0434768
0.0427938
0.0451408
0.0805697
0.0863654
0.0463985
0.0412153
0.0453626
0.064643
0.0974394
0.0846138
0.0448952
0.0419909
0.0443953
0.0593722
0.0964796
0.0827711
0.0426869
0.0416247
0.0431182
0.0569849
0.0924842
0.0800061
0.044777
0.0424785
0.0411858
0.046778
0.0861015
0.0975778
0.0641513
0.045359
0.0418239
0.0446165
0.0842319
0.0957583
0.0591867
0.0442203
0.0412206
0.0423947
0.0819185
0.0914225
0.0564521
0.0426721
0.0418258
0.0441174
0.0784592
0.0840848
0.0457608
0.0404381
0.0446958
0.0632534
0.0955873
0.0830625
0.044192
0.0413041
0.0439085
0.0588094
0.0945832
0.0818674
0.0424369
0.0410005
0.0426128
0.0565903
0.0910557
0.0781886
0.0439628
0.0415481
0.0401794
0.0456421
0.0840745
0.094853
0.0636436
0.0445289
0.0411025
0.0438255
0.0834179
0.0950642
0.0584437
0.0436718
0.0404588
0.04146
0.0815669
0.0911156
0.0563201
0.0422865
0.0409535
0.0434563
0.0780428
0.0838876
0.0451238
0.0396411
0.0442112
0.0638221
0.0944699
0.0827655
0.0438399
0.040787
0.0433914
0.0585193
0.0940757
0.0801588
0.0411
0.0399846
0.0424402
0.0560911
0.0900932
0.0780148
0.0408053
0.0395202
0.0415256
0.0552938
0.0873337
0.0754345
0.0424983
0.0401342
0.0390696
0.0446884
0.0811316
0.0940015
0.0615021
0.0438397
0.0399828
0.0429891
0.0816784
0.0934142
0.0576661
0.0428796
0.0395371
0.0409401
0.0806772
0.090357
0.0559894
0.0420986
0.0390968
0.0405151
0.0775403
0.0865481
0.0551071
0.0411448
0.0395913
0.0421648
0.0746838
0.0803165
0.0437532
0.0384017
0.0430122
0.061576
0.0908819
0.0798195
0.0424715
0.0394989
0.0423099
0.0569592
0.0913109
0.078571
0.0402192
0.038973
0.0415724
0.0549882
0.0881361
0.0762914
0.039972
0.0386125
0.0408139
0.0546702
0.0852641
0.0741141
0.0419236
0.039206
0.0381695
0.0436678
0.0795582
0.0896984
0.0613278
0.0429089
0.0391434
0.0422328
0.0791457
0.0905205
0.0565284
0.0420438
0.0385543
0.0397162
0.0780184
0.0878436
0.0548839
0.0412876
0.0382017
0.0397364
0.0760558
0.085059
0.054283
0.0404405
0.0385136
0.0412331
0.0733917
0.0789245
0.0433797
0.0375944
0.0428832
0.0596063
0.0917514
0.0794434
0.0416044
0.0386039
0.0418034
0.0560595
0.090321
0.0773265
0.0392156
0.038104
0.0409538
0.0543868
0.0867707
0.0752838
0.0391805
0.0377056
0.0404332
0.0535652
0.0847902
0.0738378
0.0391925
0.0374787
0.0398174
0.0531798
0.0824893
0.0719175
0.0409051
0.0379136
0.0370847
0.0427895
0.077528
0.0875023
0.0605233
0.042172
0.0381181
0.0412434
0.0775975
0.088822
0.0556337
0.0414511
0.0376204
0.0389482
0.0766384
0.0860751
0.0539554
0.0406031
0.0372183
0.0387058
0.0744282
0.0835172
0.0530586
0.0399457
0.0369428
0.0387411
0.0728764
0.081366
0.0525328
0.0391979
0.0372801
0.0401542
0.0705225
0.0757674
0.0418345
0.0363989
0.0415481
0.0585582
0.0862921
0.0752293
0.0404017
0.0374723
0.040905
0.0547167
0.0859607
0.0741211
0.0385698
0.0371368
0.0400796
0.052905
0.0835457
0.0726536
0.0382479
0.0367897
0.0396443
0.0523998
0.0816269
0.0713277
0.0385366
0.0366812
0.0389658
0.0517377
0.0796071
0.0695122
0.0398403
0.0369451
0.0361931
0.0417138
0.0747544
0.0842931
0.0586084
0.0412577
0.0370871
0.0402457
0.0749964
0.0856081
0.0540758
0.0405132
0.0365757
0.0380323
0.0743006
0.0835744
0.0523771
0.0397911
0.036196
0.037565
0.0725229
0.081259
0.0517124
0.0391586
0.0359872
0.037734
0.0708175
0.0787806
0.0513527
0.0384821
0.0363365
0.0392374
0.068362
0.0736323
0.041095
0.0355959
0.0407397
0.057595
0.0833876
0.0735074
0.0396934
0.0364787
0.0400499
0.0533224
0.0838531
0.0724713
0.0374706
0.0360129
0.0391817
0.051441
0.0814409
0.07083
0.0370994
0.0356904
0.0387372
0.0508343
0.0793737
0.0694721
0.0373172
0.0355076
0.0380854
0.0505969
0.0774693
0.0675367
0.0387878
0.035768
0.0351492
0.0408087
0.0730342
0.0823285
0.0576199
0.0404736
0.0360283
0.0391861
0.0731463
0.0834071
0.0531051
0.0398238
0.0353697
0.0370947
0.0720594
0.0809257
0.0511185
0.0388466
0.0349902
0.0365468
0.0704913
0.0790464
0.0504057
0.0382811
0.0348555
0.0365973
0.0690479
0.0773202
0.0499885
0.0379976
0.0347677
0.0367249
0.0675881
0.0753427
0.0495561
0.0372822
0.0350039
0.0379184
0.0654297
0.0706759
0.0397951
0.0343735
0.0396763
0.0553026
0.0806901
0.0705545
0.0384278
0.0352451
0.0388826
0.0514991
0.0801673
0.0692762
0.0363199
0.0347661
0.0380607
0.0498227
0.0775693
0.0675256
0.0361268
0.0345498
0.0376714
0.0492915
0.0755087
0.0661756
0.0364601
0.0344837
0.0371017
0.04871
0.0736955
0.0644216
0.0374839
0.0345988
0.0340546
0.0394433
0.0698014
0.0793123
0.0549846
0.0394333
0.034927
0.0381373
0.069687
0.0792701
0.0511765
0.0387317
0.0343385
0.0361652
0.0689397
0.0772098
0.0494545
0.0378018
0.0339479
0.0356346
0.0673143
0.0750886
0.0487214
0.0372659
0.0337111
0.0356871
0.0656608
0.0732365
0.0481963
0.036515
0.0337917
0.0367778
0.0636209
0.0690406
0.0387349
0.0332564
0.038911
0.0541009
0.0788842
0.0686221
0.0376243
0.0341555
0.038007
0.0503331
0.077833
0.0673469
0.0354868
0.0336433
0.0371451
0.0486395
0.0752236
0.0655242
0.0351254
0.0333036
0.0365847
0.0478257
0.0733112
0.0641667
0.0351493
0.0331585
0.0359921
0.0474235
0.0717751
0.0625454
0.0362473
0.0332313
0.0327258
0.0382728
0.0678397
0.0769698
0.053596
0.0383085
0.0336948
0.0370553
0.0675385
0.0766137
0.0497903
0.0376397
0.0331418
0.035142
0.066483
0.0745303
0.0483087
0.0368069
0.0328245
0.0348463
0.0649462
0.0728351
0.0475787
0.0363438
0.0326143
0.0347721
0.063569
0.0712965
0.047095
0.0356178
0.0326713
0.0357534
0.0620961
0.0673068
0.0376518
0.0321507
0.037793
0.052821
0.0760708
0.0666246
0.0366846
0.0331533
0.0370572
0.0490478
0.0750941
0.0649109
0.0346527
0.0326409
0.0361743
0.0472761
0.0727418
0.0630198
0.0342037
0.0322658
0.0354799
0.0467364
0.0708754
0.0621607
0.0355898
0.03225
0.0318682
0.0376604
0.0677679
0.0760092
0.0536551
0.0379357
0.0329926
0.0367629
0.0669641
0.0756622
0.0491317
0.0371062
0.0323055
0.0344749
0.0654596
0.0734605
0.04751
0.0361404
0.0318598
0.0340298
0.0634339
0.071201
0.0468059
0.0352841
0.0317056
0.0351301
0.0617757
0.0670854
0.0371188
0.0312287
0.0375155
0.0521496
0.0764009
0.0660342
0.0359406
0.0322489
0.0363752
0.0482441
0.0746182
0.0638348
0.0335463
0.0316127
0.0355189
0.0466814
0.0720728
0.0627996
0.0336302
0.0313765
0.0350085
0.0464847
0.0707123
0.0615264
0.0349298
0.0313038
0.0309994
0.0371205
0.067196
0.074786
0.0532722
0.0373969
0.0320762
0.0361638
0.0656414
0.0745833
0.0484179
0.036428
0.0314249
0.0336981
0.064138
0.0720921
0.0466803
0.035388
0.0309333
0.0332648
0.0623177
0.0702078
0.0459835
0.0344969
0.0307392
0.034302
0.0610031
0.0662738
0.036146
0.0302746
0.0365746
0.0513858
0.0741241
0.0643324
0.0350866
0.031363
0.0358059
0.0477964
0.0733131
0.0632783
0.0334142
0.031031
0.0350552
0.0461987
0.071372
0.0619595
0.0330513
0.0307795
0.0345088
0.0458877
0.0698893
0.0609194
0.0344088
0.0306723
0.0303769
0.036543
0.0663888
0.0743782
0.0520421
0.0370245
0.0315351
0.0355907
0.0645456
0.0729857
0.0477426
0.0359103
0.0308374
0.0333794
0.0626946
0.070585
0.0460626
0.0346107
0.0303187
0.0339625
0.0609922
0.0659707
0.0354368
0.0298717
0.0365767
0.052016
0.0737454
0.0640309
0.0353288
0.0310587
0.0356989
0.0476225
0.0727859
0.0628289
0.0332054
0.0306557
0.0347983
0.0460458
0.0709562
0.0614329
0.0327295
0.0303491
0.0341398
0.0455433
0.0692836
0.0601912
0.0339035
0.0301406
0.0299003
0.0360656
0.0654574
0.0738044
0.0514402
0.036743
0.0310569
0.0353843
0.0636072
0.0720957
0.0473456
0.0356117
0.0304828
0.0330563
0.0619742
0.0697769
0.0456671
0.0343025
0.0299367
0.0335633
0.059695
0.064855
0.0354473
0.029612
0.0365593
0.0512109
0.0738155
0.0641294
0.0350932
0.0309269
0.0356354
0.047585
0.0726255
0.0625442
0.0332714
0.0304797
0.034481
0.046043
0.0703521
0.0608903
0.0338808
0.0300567
0.029847
0.0360065
0.0660778
0.0742364
0.0518082
0.0368601
0.0309623
0.0354912
0.0637681
0.0720491
0.0477765
0.0354891
0.0302107
0.034111
0.0617435
0.0668229
0.0358319
0.0298069
0.0367717
0.0514939
0.0748961
0.0635467
0.0346857
0.0307028
0.0357079
0.0476899
0.072403
0.0626331
0.0332886
0.0302025
0.0345888
0.0463472
0.0707636
0.0613245
0.0339119
0.0297823
0.029624
0.0361626
0.0666797
0.074775
0.0520347
0.0369351
0.0307288
0.0353413
0.0644307
0.0726687
0.0477156
0.0353933
0.0297637
0.0337786
0.0621919
0.0672741
0.0355061
0.0294267
0.0367472
0.0517963
0.0754683
0.0644205
0.0347704
0.0304242
0.0351068
0.0473939
0.0723912
0.0613419
0.0335885
0.0293625
0.0291577
0.0356861
0.0669245
0.0762954
0.0523614
0.0370748
0.0305225
0.0350731
0.0652174
0.0736511
0.048256
0.0355802
0.0294895
0.0338184
0.0627475
0.0679847
0.0356638
0.0292335
0.0369071
0.0524388
0.0760161
0.0649908
0.0349592
0.0302676
0.0352964
0.0478045
0.0732023
0.0623582
0.0335702
0.0292347
0.0289119
0.0353713
0.0674733
0.0757473
0.0518135
0.036549
0.0298391
0.0336202
0.0630396
0.0715308
0.0472932
0.0349199
0.0287828
0.0333627
0.0616763
0.0672941
0.0352377
0.0286758
0.0366637
0.0518377
0.0763835
0.0649443
0.0345448
0.0298952
0.0350112
0.0476187
0.0731847
0.0623565
0.0333157
0.0289128
0.0286786
0.0351379
0.0673928
0.075338
0.0519662
0.0364343
0.0296888
0.0344488
0.0640621
0.071895
0.0470711
0.0345629
0.0283788
0.0326984
0.0603556
0.0643211
0.0334442
0.0278763
0.0352403
0.0505222
0.0730012
0.0629206
0.0342716
0.0287975
0.0286576
0.0358014
0.0683928
0.0774878
0.0524855
0.0370254
0.0298734
0.0345893
0.0655185
0.0734803
0.0477139
0.0350618
0.0285334
0.0329435
0.062242
0.0668372
0.0346187
0.0282622
0.0357048
0.0512842
0.0745596
0.0631431
0.034574
0.0288453
0.0282318
0.0346745
0.067246
0.0756591
0.0512625
0.0358871
0.0285859
0.0342201
0.063853
0.069433
0.0353703
0.028357
0.0370319
0.052885
0.0787776
0.0660794
0.0343679
0.0295943
0.0349784
0.0478494
0.0739
0.0621772
0.0327244
0.0281991
0.0279335
0.034302
0.0665583
0.0739066
0.0509344
0.0353259
0.0283443
0.0340574
0.0621374
0.0657621
0.0338759
0.0276891
0.0350983
0.050101
0.0737985
0.06235
0.0334432
0.0279604
0.0277873
0.0346827
0.0677231
0.076399
0.0520001
0.0358294
0.0284797
0.034506
0.0642496
0.0687499
0.0351519
0.0281474
0.0359575
0.0518135
0.0764695
0.0637672
0.0341821
0.0283097
0.0277914
0.0345533
0.0677998
0.0746868
0.0505667
0.0351737
0.0275296
0.033045
0.0617405
0.0660979
0.0359893
0.0276651
0.0278561
0.0378689
0.0724075
0.0809609
0.0550889
0.0372423
0.0285622
0.0351718
0.0672331
0.07157
0.0353795
0.0280147
0.035987
0.0520683
0.0791741
0.0643936
0.0334446
0.0275049
0.0268796
0.0342935
0.0664969
0.0707498
0.0359683
0.0266706
0.0361733
0.0538382
0.0802505
0.0668871
0.0341154
0.0274219
0.0276089
0.0367196
0.0710383
0.0764375
0.0381262
0.0276913
0.0369671
0.0562024
0.0824933
0.0657941
0.0339572
0.0273725
0.026732
0.0349593
0.0681027
0.0729483
0.0363788
0.026464
0.0358579
0.0543966
0.0823205
0.0678291
0.0338365
0.026819
0.0262685
0.0333529
0.0714053
0.0768843
0.0393608
0.0269341
0.0259352
0.0357318
0.0766443
0.0866068
0.054236
0.0366052
0.0265119
0.0337652
0.0701491
0.0745971
0.0344644
0.0262271
0.0263306
0.0383978
0.079813
0.0824167
0.0360162
0.025419
0.0259517
0.0405588
0.0855509
0.0894793
0.0400761
0.0252226
0.0367112
0.0575822
0.0991272
0.0731137
0.0339057
0.0257624
0.0252404
0.0337407
0.0751978
0.0804614
0.0377732
0.0252794
0.0252281
0.0382417
0.0862494
0.0917265
0.0396972
0.0254963
0.0260199
0.04243
0.0962941
0.101221
0.0447904
0.0265988
0.0271832
0.0470406
0.105044
0.107012
0.0494027
0.0277589
0.0282723
0.0514186
0.108152
0.108824
0.0536532
0.0288692
0.0294489
0.0558699
0.109187
0.109326
0.0584127
0.0302366
0.0309343
0.0608987
0.109373
0.109369
0.0633469
0.0319352
0.0327834
0.0657454
0.109339
0.109308
0.0681034
0.0339463
0.0349334
0.0704087
0.10927
0.109246
0.0726517
0.0362282
0.0374612
0.0746988
0.109227
0.10923
0.076675
0.038975
0.0403673
0.0784781
0.109244
0.109279
0.0802425
0.0419835
0.0433731
0.0819262
0.109327
0.109397
0.0835658
0.0449868
0.0463769
0.0851182
0.109477
0.109578
0.0866213
0.0479889
0.049382
0.0880296
0.109686
0.109809
0.0893834
0.0509915
0.0523857
0.0906373
0.109933
0.110069
0.0918354
0.053986
0.0553778
0.0929306
0.1102
0.110337
0.0939698
0.0569725
0.0583544
0.0949064
0.110465
0.110595
0.0957858
0.059937
0.061274
0.096576
0.11071
0.110824
0.0973189
0.0627784
0.0640375
0.0979777
0.110923
0.111018
0.0985958
0.0654492
0.0666182
0.0991356
0.111097
0.111172
0.0996414
0.0679294
0.0689984
0.100075
0.111231
0.111285
0.100472
0.0702004
0.0711618
0.100824
0.111323
0.111359
0.101146
0.0722531
0.0731058
0.101402
0.11138
0.111396
0.101661
0.0740827
0.0748288
0.101843
0.111401
0.111401
0.102037
0.0756943
0.076338
0.10216
0.111393
0.111378
0.102295
0.0770962
0.0776435
0.102368
0.111359
0.111333
0.102454
0.0783011
0.0787619
0.102486
0.111305
0.111268
0.102529
0.0793253
0.0797067
0.102529
0.111233
0.111189
0.102538
0.0801854
0.0804997
0.102514
0.11115
0.111099
0.102494
0.080899
0.0811568
0.102451
0.111056
0.111001
0.102408
0.0814855
0.0816983
0.102351
0.110956
0.110896
0.102289
0.0819615
0.0821361
0.10222
0.110849
0.110789
0.102145
0.082344
0.0824871
0.102069
0.110742
0.110682
0.101985
0.0826419
0.0827597
0.101901
0.110634
0.110576
0.101813
0.0828794
0.0829689
0.101724
0.110529
0.110472
0.101634
0.0830667
0.0831285
0.101541
0.110424
0.11037
0.101454
0.0832044
0.083235
0.101361
0.110324
0.110271
0.101273
0.0832931
0.0833005
0.101179
0.110226
0.110175
0.101092
0.0833458
0.0833374
0.101
0.110133
0.110083
0.100912
0.0833721
0.0833524
0.100822
0.110043
0.109995
0.100734
0.08338
0.083355
0.100649
0.109958
0.109911
0.100562
0.0833746
0.0833473
0.100481
0.109875
0.109831
0.100396
0.0833618
0.0833379
0.100321
0.109798
0.109756
0.100238
0.0833471
0.0833246
0.100169
0.109724
0.109685
0.100089
0.0833334
0.0833138
0.100027
0.109657
0.109619
0.099952
0.0833221
0.083305
0.0998947
0.109593
0.109557
0.0998247
0.0833142
0.0833021
0.0997736
0.109533
0.1095
0.0997098
0.0833133
0.0833052
0.0996645
0.109479
0.109448
0.0996061
0.0833181
0.0833151
0.0995663
0.10943
0.1094
0.0995136
0.0833305
0.0833318
0.0994793
0.109384
0.109357
0.0994316
0.0833495
0.0833561
0.0994026
0.109343
0.109318
0.0993602
0.0833764
0.0833872
0.0993361
0.109306
0.109284
0.0992982
0.0834097
0.0834251
0.0992784
0.109272
0.109252
0.0992449
0.0834505
0.0834682
0.0992284
0.109241
0.109224
0.0991983
0.0834949
0.0835172
0.0991849
0.109212
0.109198
0.0991586
0.0835448
0.0835702
0.0991471
0.109186
0.109174
0.0991245
0.0835983
0.0836267
0.0991142
0.109163
0.109153
0.0990956
0.0836554
0.0836857
0.099086
0.109142
0.109131
0.0990707
0.0837145
0.083747
0.099062
0.109123
0.109112
0.0990498
0.0837759
0.0838095
0.0990416
0.109105
0.109094
0.0990325
0.0838381
0.0838731
0.0990253
0.109089
0.109079
0.0990181
0.0839014
0.0839369
0.0990114
0.109074
0.109064
0.0990044
0.0839645
0.0840006
0.0989998
0.10906
0.10905
0.0989931
0.0840277
0.0840635
0.09899
0.109047
0.109038
0.0989832
0.0840897
0.0841256
0.0989817
0.109035
0.109026
0.0989751
0.0841509
0.0841861
0.0989746
0.109024
0.109015
0.0989677
0.0842104
0.0842451
0.0989684
0.109013
0.109005
0.0989616
0.0842685
0.0843023
0.098963
0.109003
0.108995
0.0989559
0.0843246
0.0843572
0.098958
0.108993
0.108985
0.0989506
0.0843784
0.0844097
0.0989528
0.108984
0.108975
0.098945
0.0844295
0.0844594