/*--------------------------------*- C++ -*----------------------------------*\
| =========                 |                                                 |
| \\      /  F ield         | OpenFOAM: The Open Source CFD Toolbox           |
|  \\    /   O peration     | Version:  v2006                                 |
|   \\  /    A nd           | Website:  www.openfoam.com                      |
|    \\/     M anipulation  |                                                 |
\*---------------------------------------------------------------------------*/
FoamFile
{
    version     2.0;
    format      ascii;
    class       volScalarField;
    location    "0.026";
    object      yPlus;
}
// * * * * * * * * * * * * * * * * * * * * * * * * * * * * * * * * * * * * * //

dimensions      [0 0 0 0 0 0 0];


internalField   uniform 0;

boundaryField
{
    bottomEmptyFaces
    {
        type            empty;
    }
    topEmptyFaces
    {
        type            empty;
    }
    inlet
    {
        type            calculated;
        value           uniform 0;
    }
    outlet
    {
        type            calculated;
        value           uniform 0;
    }
    walls
    {
        type            calculated;
        value           nonuniform List<scalar> 
1055
(
30.3216
29.5843
28.909
28.2905
27.7324
27.2262
26.7732
26.3647
26.0012
25.6766
25.3914
25.1394
24.9213
24.7303
24.5676
24.4265
24.3085
24.2073
24.1245
24.0543
23.9981
23.9508
23.9144
23.8842
23.8622
23.8441
23.8322
23.8228
23.8175
23.8135
23.8134
23.8129
23.815
23.8177
23.8216
23.826
23.8304
23.8349
23.8384
23.842
23.8439
23.8463
23.8461
23.8471
23.8451
23.8447
23.8408
23.8391
23.8341
23.8313
23.8251
23.8213
23.8144
23.8096
23.8021
23.7965
23.7887
23.7827
23.7747
23.7683
23.7603
23.7539
23.7456
23.739
23.7307
23.7241
23.7156
23.709
23.7007
23.6942
23.686
23.6796
23.6716
23.6655
23.6578
23.6522
23.6448
23.6396
23.6328
23.6282
23.6219
23.618
23.6123
23.6092
23.6041
23.6019
23.5975
23.596
23.5924
23.5917
23.589
23.5888
23.5871
23.5875
23.5869
23.5878
23.5882
23.5896
23.5911
23.5929
23.5952
23.5976
23.6003
23.6036
23.6068
23.6108
23.6145
23.6192
23.6234
23.6286
23.6332
23.6389
23.6439
23.6501
23.6555
23.662
23.6677
23.6746
23.6806
23.6878
23.6941
23.7016
23.7081
23.7159
23.7227
23.7306
23.7377
23.7459
23.7531
23.7615
23.769
23.7775
23.7852
23.7939
23.8017
23.8105
23.8185
23.8274
23.8354
23.8444
23.8525
23.8615
23.8696
23.8787
23.8869
23.8959
23.9041
23.9131
23.9214
23.9303
23.9386
23.9474
23.9557
23.9646
23.9728
23.9817
23.9899
23.9989
24.007
24.016
24.0241
24.0331
24.0412
24.0503
24.0584
24.0675
24.0756
24.0847
24.0928
24.1019
24.11
24.1191
24.127
24.1361
24.1439
24.1529
24.1605
24.1694
24.1768
24.1856
24.1927
24.2097
24.2086
24.2093
24.2238
24.2331
24.2387
24.2648
24.2739
24.3018
24.2613
24.2016
23.9851
24.1441
24.5533
8.4568
7.2231
6.57898
11.3976
10.569
9.6689
7.98814
18.2668
13.3657
11.5889
11.4852
12.7401
9.39781
7.94679
12.4959
11.3966
13.6659
13.649
10.7181
9.21157
9.75908
9.65552
8.53647
7.37732
10.1425
9.90457
8.84235
7.49011
9.13545
7.62041
8.60727
7.38648
9.60453
10.0851
8.54853
7.41187
8.37444
7.30577
8.33691
7.19522
6.44911
10.4484
10.9371
9.7342
10.6147
9.48826
10.4106
9.22055
9.96795
9.25511
10.1295
10.129
10.5477
9.32627
10.2179
11.5554
8.42328
8.78886
8.99519
9.73634
10.328
10.7754
11.8797
8.61302
9.03626
9.58885
10.3873
8.35865
9.01688
10.009
7.32154
7.60681
8.80633
9.0721
10.1705
7.42617
7.74714
8.02301
8.49978
9.16581
9.53188
8.15222
8.70368
8.42009
9.13335
8.67188
9.40056
8.34094
8.91899
10.7604
9.39957
9.77749
7.76644
8.15554
10.5521
7.67264
8.05655
10.4468
9.10149
9.40931
8.29796
9.01954
7.96998
8.55441
7.53502
7.92765
9.88225
10.2924
11.3954
8.2948
8.72177
8.85554
9.74091
11.0305
7.96615
8.33931
8.67739
9.28779
9.13397
9.95043
9.64683
10.1019
8.97533
9.73926
8.65249
9.53571
8.52259
9.18776
9.46006
9.83485
10.8896
7.97952
8.33765
8.66609
9.40868
9.13473
9.98287
8.82469
9.59339
8.67139
9.09963
7.8619
7.69278
7.32798
7.04
9.57081
7.43791
7.85629
8.3498
8.52785
9.47003
6.97579
7.22822
8.39037
8.59302
9.72274
7.10721
7.40407
7.60798
8.03588
8.15298
8.25847
7.03031
7.24949
7.97867
7.98299
7.82057
7.80072
9.16909
6.85721
7.02135
9.21072
7.87358
7.93426
6.79899
7.01937
9.06545
7.3452
7.03437
9.00024
7.79842
7.74006
8.70121
6.67289
6.7398
7.82096
7.74995
6.68396
6.70767
6.68466
6.80139
9.25722
7.96655
8.04717
9.29775
6.92595
7.10853
6.8381
7.10516
8.98071
8.79795
7.39663
6.96579
8.32543
6.98976
6.52898
8.35062
7.12463
6.54241
8.45606
7.11338
6.55653
8.37423
7.02732
6.49048
8.05255
6.4079
6.24054
8.25895
6.81449
6.42876
7.75768
7.38139
8.37224
7.71704
7.50321
6.49312
6.45041
8.74607
8.67041
7.26923
6.87508
7.38864
6.93898
7.09149
6.80892
8.95418
7.21133
6.92232
8.55465
6.63999
6.67623
8.73125
8.95353
10.0726
7.39775
7.69278
9.90649
7.19157
7.50868
8.58885
8.83356
7.7769
8.28544
7.86314
8.33674
8.71876
9.03821
8.04865
8.57731
13.1832
11.3387
8.6631
11.2457
8.31338
11.6844
9.71741
7.00193
10.6622
10.3467
7.14144
12.2411
9.97668
26.1646
24.6463
8.21584
8.76643
6.0812
25.2722
21.2136
21.2245
20.3878
10.3351
20.1219
8.83095
25.4077
7.70536
20.6622
8.90274
6.08813
20.1273
21.4305
20.8828
10.6697
9.54761
8.41552
7.40924
8.26341
5.93061
28.0501
26.4937
21.8342
21.3823
22.0919
21.523
25.0697
21.9997
20.8411
27.1547
23.3223
22.4292
9.95065
8.96997
8.44035
7.96092
7.30237
8.49713
6.05105
10.4918
9.65866
9.0944
8.59235
8.19872
7.65527
6.93442
7.80047
5.69185
9.65023
8.90866
8.47114
8.10311
7.79489
7.49772
7.24576
7.02177
6.89765
6.75336
6.38364
7.75019
5.34207
9.78663
9.25134
8.94376
8.77372
8.57304
13.9749
8.34997
8.17591
8.03903
7.8891
7.79526
10.9705
12.0123
7.65301
12.0616
12.507
10.3945
11.2189
13.4681
11.6624
12.1855
9.71509
10.2588
10.6787
11.7133
7.56168
7.52241
7.4037
7.28104
7.18679
7.10357
7.03255
6.97624
14.7213
10.5375
11.072
12.6097
13.1711
11.592
12.7031
6.92818
6.89055
6.85825
6.83557
6.8122
6.79385
6.78276
6.77272
13.5556
14.1631
12.383
13.4723
6.76656
6.75607
6.75302
6.7511
6.74515
6.73928
6.73816
6.73673
13.8115
14.2603
13.2275
14.3617
12.5631
13.5698
16.1039
11.6297
12.2535
6.73066
15.7942
6.72429
6.72232
11.3701
11.9862
6.71735
6.71448
12.2993
13.1766
6.70459
6.70094
6.69489
15.2227
11.8258
12.9201
13.0684
13.5918
11.8213
12.7906
10.9898
11.5746
11.3949
12.295
11.2974
12.3202
12.1842
12.6613
11.0786
12.1932
14.1198
10.1877
10.6859
10.9017
11.7673
14.4451
11.1464
12.0604
10.4301
11.0535
12.3941
12.9309
10.7954
11.6646
10.1638
10.6878
19.2071
14.362
14.9478
6.69026
6.67958
6.67424
6.6698
20.6886
6.6596
6.65032
6.6442
19.998
6.63913
14.5469
15.4505
17.3091
17.3623
19.8333
16.8683
17.2336
14.6095
15.3012
16.7079
16.9813
6.62845
6.61879
6.61236
6.607
6.59615
6.58631
6.57982
6.57433
6.5635
6.55363
6.54721
6.54172
6.53103
6.52122
6.51498
15.428
6.50956
15.7187
16.2485
16.7778
14.4182
15.3999
18.2053
13.1167
13.9252
6.49915
6.48943
6.48351
6.47815
6.46816
6.45845
6.45308
6.44548
17.4679
13.99
14.9563
12.9008
13.6378
13.3461
14.2774
17.0993
14.6286
15.1909
12.2353
13.0357
14.8144
15.4478
18.3875
15.7079
16.1996
13.298
14.0566
19.2326
19.0419
13.9575
14.5944
16.2827
16.4859
16.1314
16.5977
6.44016
14.1291
6.42859
14.8795
6.42349
6.41613
6.41107
6.39977
6.39492
6.38784
21.3948
6.38301
6.37205
15.9037
16.5695
6.36738
6.36072
6.35596
6.34562
6.34086
22.1871
6.33707
21.9036
18.109
17.8814
18.7145
18.8906
19.8305
19.927
23.5295
6.32818
18.8434
6.32257
18.6755
6.31406
6.31257
6.30459
22.7601
6.29906
6.29406
18.7553
18.4628
6.28659
22.9772
17.8928
18.4654
16.8338
17.4388
18.0764
18.3393
15.5163
16.2052
6.28479
6.27897
6.28204
6.34461
6.38735
6.48464
6.74754
7.09693
29.3246
25.9544
30.2076
23.7334
22.0822
29.8338
27.0953
26.9313
23.3477
22.0869
9.91044
10.7629
33.285
32.1267
30.9401
32.8727
25.4748
23.3461
31.0922
26.7258
25.5566
23.1585
12.5382
30.4925
9.97977
10.916
10.8472
11.2667
29.0437
35.4622
27.5616
25.5569
10.2497
11.2104
10.0394
11.0052
35.7241
12.8086
11.1214
11.5897
9.29285
9.75444
36.3224
9.78821
10.5687
9.12317
9.58289
36.7436
36.6787
36.7786
36.4601
35.715
13.1665
34.7914
10.7549
11.7113
10.447
11.4919
10.2409
11.0541
9.51716
10.0422
10.4152
11.3896
11.3352
11.7797
10.2183
11.1397
33.8422
32.8954
31.9808
31.1206
9.60411
10.5525
11.9888
8.71019
9.07762
9.33186
10.0786
9.78535
10.7294
25.036
7.54161
36.5106
33.2294
31.0358
29.5642
28.4536
27.4199
26.6874
25.9761
25.5788
25.1026
24.8185
24.4489
24.2349
23.9336
23.7651
23.5097
23.3708
23.1466
23.028
22.826
22.7218
22.5357
22.4416
22.2672
22.1804
22.0149
21.9335
21.775
21.6977
21.5446
21.4703
21.3216
21.2495
21.1042
21.0339
20.8914
20.8222
20.682
20.6137
20.4752
20.4075
20.2701
20.2027
20.066
19.9986
19.8622
19.7945
19.658
19.5896
19.4527
19.3835
19.2457
19.1755
19.0365
18.965
18.8245
18.7516
18.6092
18.5347
18.3902
18.3139
18.167
18.0888
17.9393
17.8591
17.7069
17.6249
17.4699
17.3861
17.2284
17.1429
16.9825
16.8957
16.7329
16.6452
16.4804
16.3923
16.2262
16.1386
15.9721
15.8861
15.7203
15.6372
15.4737
15.3953
15.236
15.1643
15.0114
14.9491
14.8052
14.7557
14.6241
14.59
14.4774
14.458
14.3681
14.3647
14.3046
14.3142
14.2875
14.3092
14.3011
14.3514
14.3585
14.4361
14.4592
14.56
14.595
14.7114
14.755
14.8818
14.9317
15.0662
15.1202
15.2591
15.3147
15.454
15.5093
15.6458
15.6992
15.8301
15.88
16.0028
16.0482
16.1611
16.2014
16.3029
16.3371
16.4259
16.4538
16.5296
16.551
16.614
16.6293
16.6804
16.6901
16.7306
16.7353
16.7666
16.7671
16.7895
16.7873
16.8027
16.7982
16.8081
16.8017
16.808
16.7988
16.8029
16.7893
16.7924
16.7761
16.7785
16.76
16.7618
16.7417
16.743
16.7214
16.7223
16.6996
16.7002
16.6765
16.6768
16.6524
16.6527
16.6248
16.6309
16.5971
16.6061
16.5601
16.6338
16.6613
16.8622
17.1421
18.1813
20.8105
18.8477
39.9823
)
;
    }
    rightWall
    {
        type            calculated;
        value           uniform 0;
    }
    symmetryLine
    {
        type            symmetryPlane;
    }
}


// ************************************************************************* //
