/*--------------------------------*- C++ -*----------------------------------*\
| =========                 |                                                 |
| \\      /  F ield         | OpenFOAM: The Open Source CFD Toolbox           |
|  \\    /   O peration     | Version:  v2006                                 |
|   \\  /    A nd           | Website:  www.openfoam.com                      |
|    \\/     M anipulation  |                                                 |
\*---------------------------------------------------------------------------*/
FoamFile
{
    version     2.0;
    format      ascii;
    class       volScalarField;
    location    "0.036";
    object      Co;
}
// * * * * * * * * * * * * * * * * * * * * * * * * * * * * * * * * * * * * * //

dimensions      [0 0 0 0 0 0 0];


internalField   nonuniform List<scalar> 
11076
(
0.0216001
0.0206431
0.022348
0.0232475
0.023606
0.023094
0.0232356
0.0230415
0.0228574
0.0228085
0.0226471
0.0226071
0.0225471
0.022508
0.0224662
0.022426
0.0223838
0.0223415
0.0222976
0.0222514
0.0222033
0.0221534
0.0221018
0.0220486
0.0219939
0.0219377
0.0218802
0.0218215
0.0217616
0.0217007
0.0216388
0.021576
0.0215126
0.0214485
0.021384
0.0213192
0.0212541
0.021189
0.0211239
0.0210591
0.0209946
0.0209305
0.0208671
0.0208045
0.0207427
0.020682
0.0206225
0.0205644
0.0205077
0.0204526
0.020399
0.0203461
0.0202895
0.0202387
0.0201927
0.0201648
0.0201615
0.020275
0.0204993
0.0211438
0.0222573
0.0248753
0.0307325
0.0436957
0.067361
0.0548325
0.0488896
0.0488393
0.0473533
0.0453806
0.0446267
0.0428747
0.0387177
0.041945
0.0438874
0.0395539
0.0394712
0.0377356
0.0315226
0.0334833
0.0339976
0.0325903
0.0328293
0.0311438
0.0284412
0.0307437
0.0312894
0.0310985
0.0307555
0.028398
0.0276495
0.0302557
0.0308359
0.0308617
0.030198
0.0274581
0.0272256
0.0301001
0.0307696
0.0307791
0.0300733
0.0270212
0.0268123
0.0298425
0.0306206
0.0306639
0.0298633
0.0266177
0.0264295
0.0296319
0.0304964
0.0305315
0.0296506
0.0262515
0.0260802
0.0294219
0.0303616
0.030393
0.0294413
0.0259167
0.0257581
0.0292144
0.0302203
0.0302485
0.0292345
0.0256059
0.0254568
0.029009
0.0300744
0.0300996
0.0290293
0.0253134
0.0251718
0.0288053
0.0299242
0.0299468
0.0288255
0.0250352
0.0248995
0.0286026
0.0297701
0.0297902
0.0286223
0.024768
0.0246366
0.0284
0.0296122
0.0296295
0.0284187
0.024509
0.024381
0.0281967
0.02945
0.0294645
0.028214
0.0242562
0.0241305
0.0279918
0.0292834
0.0292949
0.0280074
0.0240077
0.0238835
0.0277848
0.029112
0.0291203
0.0277983
0.023762
0.0236388
0.027575
0.0289356
0.0289406
0.0275861
0.023518
0.0233951
0.0273618
0.0287539
0.0287553
0.0273702
0.0232744
0.0231512
0.0271446
0.0285663
0.0285638
0.0271497
0.02303
0.022906
0.0269224
0.0283723
0.0283656
0.0269239
0.0227837
0.0226583
0.0266945
0.0281713
0.0281601
0.026692
0.0225345
0.0224072
0.0264602
0.0279628
0.0279467
0.0264532
0.0222813
0.0221517
0.0262187
0.027746
0.0277247
0.0262069
0.0220232
0.0218909
0.0259692
0.0275202
0.0274932
0.025952
0.0217593
0.0216236
0.0257108
0.0272846
0.0272513
0.0256876
0.0214885
0.0213489
0.0254423
0.0270381
0.0269982
0.0254124
0.0212095
0.0210654
0.0251627
0.0267802
0.0267332
0.025126
0.0209215
0.0207726
0.0248715
0.0265101
0.0264555
0.0248275
0.0206238
0.0204698
0.0245678
0.0262268
0.0261643
0.0245156
0.0203154
0.0201555
0.0242502
0.0259297
0.0258588
0.0241894
0.0199947
0.019828
0.023918
0.0256181
0.0255379
0.0238485
0.0196606
0.0194866
0.0235698
0.0252892
0.0251984
0.0234886
0.0193103
0.0191272
0.0232013
0.0249415
0.0248398
0.0231088
0.018942
0.0187505
0.022814
0.0245744
0.0244611
0.0227106
0.0185575
0.0183577
0.022407
0.0241868
0.0240616
0.0222901
0.0181549
0.0179452
0.021978
0.0237794
0.023642
0.0218506
0.0177343
0.0175157
0.0215299
0.0233482
0.023196
0.0213872
0.0172946
0.0170637
0.0210533
0.022891
0.0227243
0.0208945
0.0168296
0.0165881
0.0205515
0.0224095
0.022228
0.0203812
0.0163454
0.016096
0.0200284
0.0218997
0.0217034
0.0198409
0.0158431
0.0155839
0.0194784
0.021368
0.0211623
0.0192828
0.0153255
0.0150625
0.0189182
0.0208176
0.0205938
0.0187078
0.0147974
0.0145232
0.0183286
0.0202374
0.0200007
0.0181014
0.014246
0.0139665
0.0177183
0.019637
0.0193871
0.0174857
0.0136893
0.0134098
0.0170995
0.0190118
0.0187483
0.0168555
0.0131324
0.0128535
0.0164648
0.0183717
0.0181125
0.0162232
0.0125826
0.0123218
0.0158515
0.0177456
0.0174908
0.0156252
0.0120731
0.0118323
0.015268
0.0171301
0.0168811
0.0150492
0.0116023
0.0113796
0.0147068
0.016535
0.0163014
0.01451
0.0111756
0.0109814
0.0141946
0.0159708
0.0157593
0.0140198
0.0108011
0.0106433
0.0137268
0.0154303
0.0152742
0.0136007
0.0105073
0.0103902
0.0133469
0.0149802
0.0148657
0.0132673
0.0103032
0.0102339
0.0130623
0.0146163
0.0145307
0.0130243
0.0101972
0.0101763
0.0128829
0.0143579
0.0143032
0.0128819
0.0101829
0.0102198
0.0128398
0.0142049
0.0141439
0.0128331
0.0102607
0.0103139
0.0128752
0.0141451
0.0141167
0.0128432
0.0103656
0.0104256
0.0129326
0.0141648
0.0141424
0.0129043
0.0104808
0.0105406
0.0129942
0.0141872
0.0141617
0.0129695
0.0105956
0.0106715
0.0130847
0.0142461
0.0142377
0.0130805
0.0107417
0.010825
0.0132084
0.0143378
0.0143386
0.0132137
0.0109015
0.0109863
0.0133422
0.0144412
0.0144439
0.0133518
0.0110632
0.0111498
0.0134883
0.01456
0.0145805
0.0135008
0.0112215
0.0112965
0.0136346
0.0146848
0.0146948
0.0136317
0.0113548
0.0114141
0.0137519
0.014785
0.0148014
0.0137461
0.0114582
0.0115101
0.0138432
0.0148628
0.014886
0.0138417
0.0115515
0.01159
0.0139311
0.0149411
0.0149608
0.0139275
0.011632
0.0116711
0.0140187
0.0150223
0.0150432
0.0140174
0.0117126
0.011751
0.0141052
0.0150982
0.0151051
0.0140891
0.0117882
0.0118241
0.0141886
0.0151728
0.015171
0.0141724
0.011866
0.0119037
0.0142755
0.0152594
0.0152395
0.0142476
0.0119354
0.0119685
0.0143461
0.0153243
0.0153211
0.0143331
0.0119963
0.0120214
0.0144149
0.0153962
0.0154968
0.0145719
0.0122328
0.0122864
0.0147016
0.0157178
0.0165029
0.0156892
0.0132823
0.0134286
0.0161735
0.0174233
0.0202405
0.0190563
0.0159617
0.016456
0.0203828
0.0225986
0.0239009
0.0220278
0.0181557
0.0260158
0.0275974
0.0283565
0.0297808
0.0302849
0.0308997
0.0312402
0.0315799
0.0317957
0.0320691
0.0322401
0.0324408
0.0325421
0.0326641
0.0328779
0.0332383
0.0338235
0.0346707
0.0370483
0.0465663
0.0701582
0.0744569
0.0695619
0.0624957
0.0588062
0.0518005
0.0385154
0.0346117
0.0486148
0.0568426
0.0513589
0.045407
0.033104
0.0269414
0.0379429
0.0435923
0.0377106
0.0344896
0.0254512
0.0232731
0.0323557
0.0363681
0.035028
0.0315942
0.0229602
0.022783
0.0314822
0.0351154
0.034847
0.0313272
0.0228266
0.0229131
0.0314302
0.0349335
0.0348852
0.0313655
0.0229314
0.0230548
0.0315148
0.0349735
0.0350684
0.0315756
0.0231308
0.0231997
0.0316022
0.0350134
0.0352401
0.0317797
0.0233304
0.0233446
0.0316921
0.0350578
0.0354117
0.0319853
0.0235322
0.0234859
0.0317657
0.0350878
0.0355335
0.0321412
0.023696
0.0236435
0.0318881
0.0351564
0.0356032
0.0322033
0.0238211
0.0238015
0.032024
0.0353016
0.0356234
0.0322892
0.0239528
0.0239577
0.0321642
0.0353657
0.0358049
0.0324658
0.0241219
0.0241145
0.0322669
0.0354582
0.0359632
0.0326952
0.0243704
0.0243043
0.0323439
0.0354427
0.0361755
0.0329042
0.0245703
0.0244858
0.0325229
0.0356221
0.0362167
0.0330176
0.024759
0.0246791
0.0326415
0.0356727
0.0363644
0.0331603
0.0249243
0.0248753
0.0328747
0.0359211
0.0363636
0.0332293
0.025093
0.0250999
0.0330625
0.036043
0.0365088
0.0333733
0.0253098
0.0253349
0.033256
0.036226
0.0366243
0.0335597
0.0255371
0.0255763
0.0334533
0.0363754
0.0368098
0.033788
0.0257849
0.0258313
0.0336444
0.0365185
0.0370117
0.0340326
0.026075
0.0260858
0.033841
0.0366325
0.0372723
0.0343042
0.0263673
0.0263672
0.0340422
0.0368035
0.0374557
0.0345672
0.0266491
0.026644
0.0342888
0.0369584
0.0377339
0.034853
0.0269756
0.0269746
0.0345522
0.0371956
0.0379443
0.0351536
0.0273185
0.0273321
0.0348727
0.037439
0.0382855
0.035559
0.0277515
0.0277685
0.0351802
0.0376424
0.0387197
0.036072
0.0283
0.0282877
0.0355483
0.0378793
0.0392419
0.0366852
0.0289787
0.029041
0.0360211
0.0382886
0.0399889
0.0374041
0.029885
0.0300135
0.036743
0.0387619
0.0405563
0.0382118
0.0308491
0.0309575
0.0373901
0.0390781
0.0407128
0.0384732
0.0317539
0.0315994
0.0377184
0.0392532
0.041164
0.0390387
0.0322415
0.0319554
0.0376464
0.0393725
0.0408222
0.0389778
0.0327019
0.0326293
0.0381406
0.0396288
0.0409643
0.0391644
0.0333025
0.0331952
0.038286
0.0396951
0.0409111
0.0392653
0.0338685
0.034191
0.0387932
0.0399612
0.0411774
0.039737
0.0349635
0.0354171
0.0394251
0.0405042
0.0541321
0.0413634
0.0372046
0.037493
0.0521867
0.0519099
0.0507256
0.0551582
0.0519953
0.0391581
0.0405592
0.0412629
0.0725017
0.0508237
0.0417575
0.0433899
0.0538369
0.0729275
0.0514535
0.0485734
0.0424165
0.0410925
0.0432697
0.0446944
0.041635
0.0410862
0.0403163
0.0406452
0.0398783
0.0400565
0.0382558
0.0387666
0.0404962
0.0407693
0.0372588
0.0360638
0.0293632
0.0351393
0.039937
0.04335
0.0474733
0.0658361
0.0582605
0.0461333
0.0456755
0.0465773
0.0416003
0.0409844
0.0388724
0.0400747
0.0456565
0.0463969
0.0430814
0.0362254
0.0719887
0.0569191
0.0483292
0.052194
0.0618073
0.0609985
0.0950937
0.0682739
0.0540101
0.0555327
0.0631486
0.0754084
0.0553148
0.0535753
0.0531765
0.0499602
0.0498578
0.0513493
0.0443293
0.0503753
0.0457103
0.0426914
0.0614561
0.0794735
0.0699465
0.0609314
0.0367372
0.0268231
0.0561847
0.0607751
0.0545614
0.0575581
0.0151086
0.0188211
0.0698849
0.0780816
0.09647
0.0797569
0.0402216
0.0614708
0.0862639
0.0862691
0.106986
0.107189
0.086356
0.109733
0.126532
0.141885
0.127081
0.142796
0.122483
0.134106
0.179084
0.150695
0.197297
0.220621
0.152283
0.168382
0.226627
0.203956
0.185001
0.194908
0.175775
0.187197
0.146362
0.136189
0.174423
0.157087
0.20858
0.231251
0.182931
0.179388
0.224237
0.216147
0.230311
0.232941
0.206951
0.194551
0.192473
0.221857
0.225531
0.23469
0.261298
0.308912
0.243694
0.225003
0.215079
0.20943
0.224932
0.210711
0.304398
0.241469
0.199466
0.185396
0.195089
0.248509
0.179484
0.190428
0.171827
0.167529
0.201392
0.259676
0.233478
0.17037
0.151437
0.145696
0.168108
0.172002
0.220065
0.167385
0.133612
0.120013
0.157029
0.237428
0.140799
0.132618
0.107768
0.0987093
0.118338
0.154702
0.0898211
0.0989853
0.092643
0.0936974
0.10811
0.115971
0.15192
0.109437
0.0858045
0.0759474
0.0958028
0.141827
0.081543
0.0815502
0.0717741
0.0724088
0.0923042
0.129893
0.123989
0.0847026
0.0661995
0.0642051
0.0709473
0.071315
0.0957959
0.0848496
0.0673037
0.0675935
0.092873
0.133749
0.122576
0.0811044
0.0617576
0.062405
0.0780316
0.0831475
0.136556
0.109646
0.0894135
0.0788963
0.0864705
0.117495
0.0870409
0.0665639
0.0600807
0.0643021
0.0803655
0.0947063
0.136509
0.0990894
0.0686825
0.0802681
0.128114
0.173845
0.0774383
0.0734768
0.0632121
0.0713793
0.102747
0.134946
0.172884
0.129145
0.0826733
0.063493
0.0702502
0.0709333
0.0952543
0.0843581
0.0676857
0.072341
0.106157
0.141994
0.175338
0.130918
0.0835851
0.0673066
0.0770289
0.0801197
0.141604
0.108407
0.0751505
0.0863075
0.13239
0.174255
0.0839922
0.0805583
0.0699555
0.078214
0.110778
0.143702
0.176201
0.1346
0.0881497
0.0712073
0.0812561
0.0844503
0.143302
0.111324
0.0792647
0.0884878
0.134913
0.176588
0.0752411
0.0749598
0.0688625
0.0736501
0.0906751
0.101188
0.150513
0.1144
0.0808805
0.0886217
0.136366
0.181915
0.0832378
0.0809913
0.0714027
0.0813847
0.11511
0.150485
0.181118
0.138695
0.0916258
0.0743372
0.0851617
0.0880336
0.154046
0.117594
0.0826244
0.0932933
0.141276
0.184888
0.0884461
0.0854378
0.0758021
0.085744
0.121838
0.157134
0.186322
0.142756
0.0940913
0.077678
0.088771
0.0918258
0.162088
0.124456
0.0869073
0.0972016
0.146289
0.190405
0.0933251
0.090739
0.0798845
0.0897598
0.128916
0.168836
0.190752
0.147033
0.098653
0.088907
0.116169
0.138352
0.177605
0.142488
0.0992967
0.0829225
0.0943897
0.0982526
0.165702
0.129026
0.0922984
0.101306
0.150535
0.194803
0.0982603
0.0948008
0.0836289
0.0937284
0.131153
0.168807
0.198493
0.153512
0.103118
0.0851664
0.0959359
0.0989765
0.173019
0.13423
0.0948383
0.104943
0.156425
0.201545
0.102435
0.0991923
0.0873626
0.099432
0.141566
0.183779
0.202504
0.156626
0.105619
0.0965037
0.127575
0.150449
0.187565
0.151184
0.105634
0.0911328
0.104232
0.107947
0.183065
0.1425
0.101687
0.110045
0.161941
0.209065
0.1067
0.103584
0.0915512
0.103487
0.147234
0.190869
0.209905
0.162617
0.11098
0.100866
0.131913
0.156429
0.195702
0.158472
0.111505
0.0950615
0.107637
0.11167
0.189872
0.147867
0.10563
0.11423
0.16795
0.216748
0.112578
0.108729
0.0954822
0.108767
0.153894
0.199789
0.218738
0.170478
0.115771
0.106096
0.13927
0.164455
0.20266
0.163707
0.115855
0.0999239
0.114093
0.117905
0.205191
0.158868
0.112377
0.119099
0.173833
0.22354
0.169451
0.143374
0.109813
0.120004
0.169432
0.208394
0.121518
0.11732
0.103108
0.114522
0.159265
0.20379
0.230931
0.180449
0.123588
0.103026
0.116548
0.120095
0.214035
0.164824
0.116658
0.123021
0.180145
0.231882
0.177414
0.149405
0.114302
0.123588
0.173825
0.214187
0.125216
0.121166
0.106559
0.120222
0.16999
0.219889
0.236866
0.184151
0.12632
0.116198
0.152095
0.180146
0.220167
0.178427
0.126932
0.109573
0.124693
0.129009
0.225527
0.17441
0.123606
0.130401
0.188532
0.241294
0.186727
0.157528
0.120385
0.129716
0.181285
0.224772
0.132254
0.127673
0.112101
0.126139
0.178113
0.230215
0.248498
0.193201
0.133191
0.12303
0.160293
0.189681
0.230099
0.187559
0.134028
0.115708
0.131445
0.136156
0.236452
0.183004
0.129691
0.136135
0.197078
0.253146
0.195887
0.165325
0.126408
0.137034
0.191588
0.23488
0.139133
0.134416
0.118163
0.133023
0.187458
0.241745
0.258836
0.202352
0.139767
0.128733
0.167792
0.198582
0.240429
0.195206
0.139594
0.120779
0.137574
0.142456
0.247736
0.192018
0.136382
0.142964
0.206499
0.264991
0.205211
0.173113
0.132289
0.142954
0.199683
0.245949
0.145635
0.140728
0.123836
0.139706
0.19649
0.253244
0.271235
0.212455
0.147037
0.135396
0.176197
0.208143
0.251998
0.205751
0.146952
0.127
0.144187
0.149159
0.259786
0.201264
0.142827
0.149472
0.21586
0.276876
0.215042
0.181595
0.138978
0.150174
0.209484
0.256867
0.152124
0.147127
0.129431
0.145791
0.20545
0.265107
0.283124
0.221398
0.152986
0.141587
0.184432
0.217884
0.264368
0.215016
0.153225
0.13258
0.150556
0.155708
0.271829
0.2106
0.14937
0.15652
0.226265
0.289328
0.224756
0.189679
0.145124
0.157145
0.219243
0.268678
0.159051
0.154135
0.136023
0.152362
0.214846
0.277551
0.296702
0.231903
0.160395
0.148151
0.192986
0.227831
0.275645
0.22484
0.160742
0.138644
0.157463
0.162793
0.284709
0.220599
0.156867
0.164866
0.237501
0.303379
0.235739
0.199213
0.152923
0.164704
0.229025
0.281896
0.166148
0.161029
0.142199
0.159691
0.224797
0.290418
0.311588
0.242758
0.167791
0.154776
0.201554
0.238043
0.289204
0.2361
0.168421
0.145309
0.164821
0.170196
0.298043
0.231075
0.164064
0.172181
0.248608
0.319155
0.246423
0.208382
0.159606
0.17165
0.239679
0.295132
0.173737
0.168329
0.148491
0.167482
0.235346
0.303522
0.327539
0.25524
0.176548
0.162477
0.211204
0.249038
0.303267
0.24775
0.176839
0.153309
0.173416
0.178714
0.312197
0.242679
0.172821
0.181027
0.261356
0.33353
0.257427
0.217754
0.16709
0.180166
0.251608
0.309573
0.182284
0.176631
0.156059
0.174695
0.245358
0.316334
0.342079
0.267866
0.185442
0.16938
0.219312
0.258969
0.319661
0.260951
0.187712
0.158763
0.178588
0.183832
0.313328
0.24585
0.1779
0.189877
0.274749
0.352048
0.184915
0.179706
0.16011
0.180386
0.253895
0.328423
0.356305
0.277437
0.191607
0.176054
0.228427
0.269303
0.330911
0.268948
0.192295
0.166136
0.187262
0.192398
0.338507
0.263068
0.187776
0.197983
0.285501
0.365815
0.276629
0.23474
0.18114
0.197573
0.27718
0.340089
0.196868
0.190814
0.168991
0.189031
0.261151
0.332952
0.378504
0.295158
0.203667
0.170338
0.190538
0.19539
0.352661
0.273493
0.194858
0.204986
0.297017
0.38283
0.287393
0.243556
0.187316
0.204407
0.287213
0.353324
0.200486
0.195375
0.174448
0.195116
0.270033
0.345311
0.393535
0.307681
0.211728
0.176522
0.196872
0.201335
0.366241
0.283787
0.202063
0.214381
0.311648
0.400197
0.297438
0.252904
0.19546
0.213675
0.300221
0.370582
0.211132
0.205268
0.182631
0.203761
0.281385
0.359504
0.413119
0.322093
0.2212
0.18492
0.206224
0.210824
0.381915
0.295835
0.210807
0.223591
0.325773
0.419862
0.31019
0.263762
0.203921
0.222585
0.31251
0.385785
0.216215
0.210708
0.188407
0.210801
0.289832
0.368786
0.427287
0.334567
0.229317
0.189511
0.210849
0.215511
0.377703
0.295327
0.214483
0.234292
0.34231
0.438612
0.213192
0.209907
0.190244
0.214582
0.296447
0.37894
0.445402
0.345937
0.235248
0.193561
0.215048
0.219178
0.388547
0.303103
0.219463
0.242553
0.355225
0.456037
0.219865
0.217701
0.198288
0.225467
0.311628
0.397369
0.466941
0.362263
0.245367
0.199843
0.221199
0.225341
0.401716
0.313445
0.226377
0.249572
0.368414
0.47461
0.226007
0.223775
0.203409
0.232714
0.321304
0.412123
0.491466
0.378417
0.256783
0.207996
0.229592
0.233082
0.415669
0.325142
0.235241
0.259233
0.383605
0.494487
0.234174
0.231343
0.210452
0.240259
0.330436
0.421676
0.510467
0.397903
0.270928
0.22219
0.242409
0.243366
0.42763
0.33616
0.245232
0.271654
0.400253
0.516371
0.239187
0.237042
0.217223
0.244747
0.332058
0.420726
0.527778
0.411003
0.279253
0.216137
0.222096
0.21392
0.293427
0.270223
0.229761
0.245268
0.338478
0.436994
0.545826
0.415253
0.277081
0.21062
0.216251
0.207543
0.288503
0.265923
0.228736
0.255172
0.351372
0.45075
0.568229
0.431447
0.284741
0.213736
0.220312
0.212081
0.297525
0.273465
0.232162
0.256018
0.354605
0.460921
0.583656
0.442365
0.293789
0.217281
0.22148
0.210672
0.287099
0.267198
0.230402
0.25002
0.34284
0.442575
0.599591
0.456147
0.301642
0.217127
0.216636
0.202413
0.247922
0.243545
0.223712
0.217475
0.244508
0.25746
0.295351
0.274761
0.234946
0.243467
0.339722
0.439666
0.60007
0.450199
0.291423
0.206581
0.210321
0.20183
0.237677
0.234708
0.214252
0.192985
0.214169
0.223224
0.223962
0.21757
0.193216
0.174329
0.197969
0.205809
0.204269
0.196414
0.168114
0.153331
0.182306
0.190747
0.188905
0.177771
0.145456
0.136594
0.168729
0.179387
0.179606
0.166479
0.131472
0.124842
0.158756
0.171032
0.171996
0.157381
0.121093
0.116156
0.151187
0.164874
0.166196
0.150246
0.113354
0.109237
0.144672
0.159615
0.161277
0.144248
0.107087
0.103575
0.139128
0.155039
0.156746
0.138881
0.101936
0.0989262
0.134149
0.15081
0.152726
0.134301
0.0977147
0.0951227
0.129922
0.147029
0.148974
0.130214
0.0942697
0.0920343
0.126159
0.143528
0.14567
0.126798
0.0914838
0.089544
0.123022
0.140419
0.142581
0.123749
0.0892435
0.0875556
0.120224
0.137529
0.139873
0.12122
0.0874672
0.086188
0.118162
0.135228
0.137335
0.118939
0.0861246
0.0851882
0.116564
0.133458
0.135149
0.1171
0.0851315
0.0844596
0.115069
0.131771
0.133125
0.115422
0.0844081
0.0839458
0.113897
0.130356
0.13142
0.114104
0.0838993
0.0835933
0.112782
0.129017
0.130101
0.11311
0.0836348
0.0833689
0.11195
0.127995
0.128352
0.11174
0.0832487
0.0832387
0.111135
0.126907
0.127373
0.111098
0.0832039
0.083184
0.110572
0.12611
0.126419
0.110477
0.0831512
0.0831872
0.110001
0.125337
0.125548
0.109883
0.0831563
0.0832317
0.109647
0.124774
0.12487
0.109492
0.0832027
0.0833101
0.109261
0.12421
0.124243
0.109099
0.0832829
0.0834134
0.10907
0.123834
0.123782
0.108883
0.0833876
0.0835388
0.10883
0.123436
0.12335
0.108643
0.0835143
0.083679
0.108764
0.123208
0.123054
0.108558
0.0836557
0.0838345
0.108633
0.122936
0.122765
0.108433
0.0838123
0.0839989
0.108662
0.12282
0.122591
0.108446
0.0839776
0.0841743
0.108613
0.122642
0.12241
0.108409
0.0841541
0.0843538
0.108712
0.122604
0.122325
0.108492
0.0843341
0.0845422
0.108722
0.122496
0.122219
0.108513
0.0845237
0.0847338
0.10887
0.122515
0.122204
0.10865
0.0847161
0.0849298
0.108921
0.122456
0.122153
0.108711
0.0849131
0.0851266
0.1091
0.122514
0.122188
0.108884
0.0851107
0.0853252
0.109179
0.122493
0.122176
0.108973
0.0853103
0.0855235
0.109378
0.122578
0.122248
0.109167
0.0855093
0.0857211
0.109469
0.122579
0.122264
0.10927
0.0857079
0.0859148
0.109674
0.12268
0.122358
0.109473
0.0859023
0.0861046
0.109766
0.122694
0.122391
0.10958
0.086093
0.0862878
0.109971
0.122806
0.1225
0.109784
0.086277
0.0864646
0.110059
0.122827
0.122545
0.109889
0.0864546
0.0866331
0.110257
0.122946
0.122664
0.110087
0.0866238
0.0867949
0.110338
0.122972
0.122715
0.110184
0.0867865
0.0869469
0.110526
0.123093
0.122835
0.110375
0.0869391
0.0870913
0.110599
0.12312
0.122885
0.110464
0.0870843
0.0872258
0.110779
0.123238
0.123005
0.110646
0.0872193
0.0873536
0.110843
0.123263
0.123052
0.110724
0.0873478
0.0874729
0.111013
0.123379
0.123169
0.110895
0.0874675
0.0875857
0.111067
0.123401
0.123213
0.110962
0.0875809
0.0876896
0.111226
0.123514
0.123326
0.111123
0.0876851
0.0877876
0.111269
0.123531
0.123364
0.111179
0.0877836
0.0878778
0.111419
0.12364
0.123473
0.111329
0.087874
0.0879632
0.111453
0.123654
0.123506
0.111374
0.0879598
0.0880416
0.111594
0.123758
0.123609
0.111515
0.0880384
0.088116
0.11162
0.123768
0.123637
0.111551
0.0881132
0.0881842
0.111752
0.123867
0.123735
0.111683
0.0881816
0.0882495
0.11177
0.123873
0.123757
0.11171
0.0882472
0.0883095
0.111895
0.123969
0.12385
0.111834
0.0883074
0.0883672
0.111906
0.123971
0.123868
0.111853
0.0883653
0.0884199
0.112024
0.124063
0.123957
0.11197
0.0884181
0.0884708
0.112028
0.124061
0.12397
0.111982
0.0884693
0.0885172
0.112141
0.124149
0.124054
0.112093
0.0885159
0.0885622
0.112139
0.124144
0.124063
0.112099
0.0885612
0.088603
0.112245
0.124228
0.124143
0.112203
0.088602
0.0886428
0.112239
0.124219
0.124148
0.112203
0.088642
0.0886786
0.11234
0.124299
0.124224
0.112302
0.088678
0.0887138
0.112328
0.124288
0.124224
0.112297
0.0887133
0.0887453
0.112424
0.124365
0.124297
0.112391
0.0887449
0.0887764
0.112408
0.12435
0.124294
0.112382
0.0887762
0.088804
0.1125
0.124424
0.124364
0.112471
0.0888039
0.0888316
0.11248
0.124407
0.124358
0.112457
0.0888316
0.0888558
0.112569
0.124478
0.124424
0.112542
0.088856
0.0888801
0.112545
0.124458
0.124415
0.112525
0.0888804
0.0889012
0.112629
0.124526
0.124478
0.112606
0.0889015
0.0889223
0.112602
0.124503
0.124466
0.112585
0.0889229
0.0889406
0.112683
0.124569
0.124526
0.112663
0.0889411
0.0889592
0.112652
0.124544
0.124511
0.112638
0.0889598
0.0889752
0.112731
0.124607
0.124569
0.112713
0.0889759
0.088992
0.112698
0.124581
0.124552
0.112685
0.0889928
0.0890065
0.112775
0.124643
0.124608
0.112758
0.0890074
0.0890223
0.11274
0.124616
0.124589
0.112729
0.0890233
0.0890363
0.112816
0.124677
0.124644
0.1128
0.0890373
0.0890519
0.112781
0.12465
0.124625
0.11277
0.0890531
0.0890663
0.112857
0.124712
0.124679
0.112841
0.0890674
0.0890825
0.112822
0.124685
0.12466
0.112811
0.0890838
0.0890978
0.112898
0.124749
0.124715
0.112882
0.0890991
0.0891153
0.112865
0.124723
0.124697
0.112853
0.0891168
0.0891319
0.112942
0.124788
0.124754
0.112926
0.0891335
0.0891508
0.11291
0.124764
0.124737
0.112898
0.0891525
0.0891686
0.112988
0.12483
0.124795
0.112972
0.0891703
0.0891882
0.112957
0.124806
0.124779
0.112944
0.0891901
0.0892065
0.113036
0.124873
0.124838
0.113019
0.0892084
0.0892266
0.113004
0.12485
0.124823
0.112992
0.0892286
0.0892457
0.113084
0.124919
0.124882
0.113067
0.0892478
0.0892679
0.113056
0.1249
0.124869
0.113042
0.0892702
0.089292
0.113143
0.124976
0.124928
0.113121
0.0892943
0.0893241
0.113185
0.125014
0.124875
0.113101
0.0893268
0.0894383
0.113227
0.125027
0.124905
0.113144
0.0893947
0.0892803
0.113097
0.124917
0.124573
0.112928
0.0892841
0.0890793
0.113183
0.125253
0.124528
0.113357
0.0901046
0.0901067
0.115352
0.12885
0.135488
0.123355
0.0979818
0.100148
0.13145
0.15087
0.177575
0.156817
0.12067
0.123006
0.164948
0.194096
0.20048
0.176263
0.136106
0.22138
0.248073
0.268855
0.253203
0.176303
0.147096
0.171525
0.115379
0.0805826
0.0653917
0.0584005
0.0555927
0.0539836
0.0534689
0.0531535
0.053136
0.0531475
0.0531913
0.0532264
0.053261
0.0532958
0.0533529
0.0533614
0.0537003
0.0537931
0.0542309
0.0547
0.0543697
0.0555767
0.0547334
0.0526142
0.0486065
0.047296
0.0417334
0.0420774
0.039807
0.0405955
0.0403575
0.0408168
0.0409074
0.0410488
0.0410578
0.0410761
0.0410728
0.0410581
0.0410734
0.0410571
0.0410524
0.0410482
0.0410426
0.0410341
0.0410217
0.0410063
0.0409888
0.0409696
0.0409385
0.0409362
0.0408907
0.0408834
0.0408323
0.0408185
0.04076
0.0407376
0.0406693
0.0406357
0.0405549
0.0405071
0.0404107
0.0403456
0.0402299
0.0401436
0.0400151
0.0398836
0.0397378
0.039567
0.0394093
0.0391954
0.0390026
0.0387522
0.0385213
0.0382327
0.0379627
0.0376358
0.0373181
0.0369731
0.036611
0.0362329
0.0358403
0.0354434
0.0350087
0.0345988
0.0341466
0.0337215
0.0332667
0.0328089
0.0323738
0.0319065
0.0314641
0.031024
0.0305646
0.0301398
0.029691
0.0292778
0.0288496
0.0284293
0.0280378
0.0276341
0.0272393
0.0268737
0.0264909
0.0261436
0.0257801
0.0254517
0.0251138
0.0247856
0.0244853
0.0241702
0.0238883
0.0235921
0.0233282
0.0230559
0.0227925
0.0225546
0.0223028
0.0220814
0.0218461
0.021635
0.0214262
0.021225
0.0210311
0.0208444
0.0206647
0.0204917
0.0203254
0.0201654
0.0200116
0.0198641
0.0197224
0.0195865
0.0194562
0.0193312
0.0192116
0.0190971
0.0189876
0.0188829
0.0187829
0.0186874
0.0185963
0.0185096
0.018427
0.0183484
0.0182742
0.0182029
0.0181354
0.0180723
0.0180123
0.0179557
0.0179024
0.0178524
0.0178056
0.0177618
0.017721
0.0176832
0.0176489
0.0176163
0.0175868
0.0175609
0.0175361
0.0175088
0.0174812
0.0174103
0.0173576
0.0171548
0.017253
0.0169077
0.0178727
0.0177237
0.020089
0.0193951
0.0193079
0.0193513
0.0193852
0.0193646
0.0192899
0.0192066
0.0191315
0.0190761
0.0190341
0.0190001
0.0189699
0.0189414
0.018912
0.0188802
0.0188473
0.0188122
0.0187756
0.0187377
0.0186971
0.0186558
0.0186124
0.0185676
0.0185209
0.0184733
0.018425
0.0183747
0.0183237
0.0182718
0.0182191
0.0181656
0.0181115
0.0180569
0.0180019
0.0179465
0.0178914
0.0178358
0.0177797
0.0177242
0.0176693
0.0176144
0.0175594
0.0175058
0.017452
0.017399
0.0173476
0.0172968
0.0172467
0.017197
0.0171472
0.0171009
0.0170619
0.0170362
0.0170369
0.0171088
0.0172881
0.0176025
0.0180443
0.0184082
0.0180841
0.0175898
0.0368462
0.0314742
0.0311847
0.0310897
0.0309031
0.0310112
0.0309007
0.0310005
0.0308679
0.0309672
0.0308213
0.0309119
0.0307587
0.0308431
0.0306846
0.0307636
0.0306007
0.0306749
0.0305082
0.030578
0.0304078
0.0304735
0.0302999
0.0303615
0.0301847
0.0302422
0.0300621
0.0301155
0.0299323
0.0299814
0.0297951
0.02984
0.0296505
0.029691
0.0294982
0.0295341
0.0293378
0.0293689
0.0291689
0.0291948
0.028991
0.0290115
0.0288035
0.0288183
0.028606
0.0286146
0.0283975
0.0283995
0.0281775
0.0281724
0.027945
0.0279325
0.0276995
0.0276791
0.0274402
0.0274116
0.0271665
0.0271289
0.0268769
0.0268296
0.0265698
0.0265118
0.0262437
0.0261744
0.0258977
0.0258171
0.0255322
0.02544
0.0251462
0.0250411
0.024737
0.0246181
0.0243031
0.0241691
0.023843
0.0236938
0.0233569
0.0231947
0.0228502
0.022676
0.0223229
0.0221338
0.0217705
0.0215665
0.0211933
0.0209759
0.0205944
0.0203674
0.0199846
0.0197565
0.0193799
0.0191549
0.0187874
0.0185688
0.0182122
0.0180022
0.0176577
0.0174685
0.0171185
0.0169803
0.0166581
0.0165556
0.016274
0.0162034
0.0159819
0.0159439
0.0157576
0.0157448
0.0156162
0.015627
0.0155563
0.0155502
0.015521
0.0154944
0.0155181
0.0154937
0.0155571
0.0155434
0.0156195
0.0156147
0.0157031
0.0157064
0.0157766
0.0157765
0.0158425
0.0158398
0.0159049
0.0159021
0.0159617
0.0159565
0.0160194
0.0160139
0.0160762
0.0160718
0.016133
0.0161224
0.0162163
0.0161927
0.0162732
0.0162568
0.0163378
0.0164056
0.0166564
0.017221
0.0185769
0.0211317
0.0240104
0.025534
0.022507
0.0231022
0.0265568
0.0280174
0.0262945
0.00955881
0.0238292
0.0199101
0.0177491
0.0209919
0.0209245
0.0175104
0.0172438
0.0206488
0.00943877
0.00936657
0.0207457
0.0172843
0.0171607
0.0206161
0.0207562
0.0172598
0.0171233
0.0206096
0.0093719
0.00936904
0.0207079
0.0172042
0.0170596
0.0205459
0.0206921
0.0171597
0.0170107
0.020484
0.00936125
0.00934519
0.0206599
0.017123
0.0169638
0.0204383
0.0206337
0.0170895
0.0169172
0.020394
0.00933538
0.00932343
0.0206071
0.0170527
0.0168836
0.0203667
0.0205734
0.0170147
0.0168613
0.0203659
0.00931347
0.00930037
0.0205311
0.0169713
0.016838
0.0203754
0.0204885
0.0169205
0.0168034
0.0203618
0.00929279
0.00927985
0.0204391
0.0168644
0.0167576
0.0203368
0.020404
0.0168138
0.0167226
0.0203215
0.00926915
0.00926763
0.0203815
0.0167871
0.0167068
0.0203287
0.0203922
0.0167785
0.0167463
0.0203863
0.00927592
0.00932393
0.0204347
0.0168078
0.016838
0.0205114
0.0204806
0.0168494
0.0169728
0.0206965
0.00939447
0.00948223
0.0205412
0.0169043
0.0171586
0.0209352
0.0206159
0.0170104
0.0174006
0.02124
0.0096014
0.00974948
0.0207277
0.0171789
0.0177028
0.0216186
0.0209196
0.0174191
0.0180853
0.0220866
0.00993554
0.010159
0.0212074
0.0177421
0.018543
0.0226383
0.0215875
0.0181404
0.0190633
0.0232662
0.0104159
0.0106884
0.0220362
0.018606
0.0196147
0.0239136
0.0225688
0.0191293
0.0201931
0.0245851
0.0109743
0.0112649
0.0231597
0.0196915
0.0207819
0.0252649
0.0237777
0.0202617
0.0213787
0.0259505
0.0115599
0.0118562
0.0244211
0.0208372
0.0219782
0.0266336
0.0250766
0.0214104
0.0225682
0.0273013
0.0121487
0.0124329
0.0257277
0.0219688
0.0231381
0.0279421
0.0263789
0.0225237
0.0236829
0.0285503
0.0127045
0.0129632
0.0270308
0.0230779
0.0242001
0.0291272
0.0276637
0.0236105
0.0246935
0.0296768
0.013209
0.0134451
0.0282786
0.0241253
0.0251661
0.0302016
0.0288704
0.0246191
0.0256153
0.0306998
0.0136688
0.0138804
0.0294337
0.0250879
0.0260388
0.0311691
0.0299659
0.02553
0.0264366
0.0316094
0.014079
0.0142664
0.0304677
0.0259464
0.0268108
0.0320231
0.0309414
0.0263393
0.0271642
0.0324132
0.0144419
0.0146078
0.0313901
0.0267112
0.0274981
0.0327814
0.0318144
0.0270628
0.0278127
0.0331279
0.0147637
0.0149109
0.0322132
0.0273934
0.0281079
0.0334527
0.0325868
0.0277034
0.028385
0.0337569
0.0150472
0.0151759
0.032937
0.0279947
0.0286458
0.0340422
0.0332659
0.028269
0.0288914
0.0343104
0.0152967
0.0154094
0.0335748
0.0285275
0.029123
0.0345625
0.0338649
0.028771
0.0293414
0.0347994
0.015515
0.0156151
0.0341369
0.0290002
0.0295472
0.035022
0.0343918
0.0292158
0.029741
0.0352308
0.0157076
0.0157946
0.0346307
0.0294186
0.0299234
0.0354265
0.0348548
0.0296094
0.0300951
0.0356099
0.0158754
0.0159518
0.0350648
0.029789
0.0302568
0.0357816
0.0352611
0.0299579
0.0304089
0.035942
0.0160219
0.0160873
0.0354441
0.0301165
0.030552
0.0360919
0.0356149
0.0302654
0.0306863
0.0362316
0.016148