/*--------------------------------*- C++ -*----------------------------------*\
| =========                 |                                                 |
| \\      /  F ield         | OpenFOAM: The Open Source CFD Toolbox           |
|  \\    /   O peration     | Version:  v2006                                 |
|   \\  /    A nd           | Website:  www.openfoam.com                      |
|    \\/     M anipulation  |                                                 |
\*---------------------------------------------------------------------------*/
FoamFile
{
    version     2.0;
    format      ascii;
    class       volScalarField;
    location    "0.036";
    object      k;
}
// * * * * * * * * * * * * * * * * * * * * * * * * * * * * * * * * * * * * * //

dimensions      [0 2 -2 0 0 0 0];


internalField   nonuniform List<scalar> 
11076
(
146.346
146.346
146.346
146.346
146.347
146.347
146.347
146.344
146.301
146.138
145.816
145.372
144.862
144.326
143.782
143.236
142.681
142.114
141.529
140.925
140.301
139.657
138.994
138.313
137.616
136.904
136.177
135.438
134.688
133.927
133.158
132.381
131.599
130.813
130.024
129.234
128.445
127.658
126.876
126.099
125.33
124.57
123.82
123.083
122.36
121.652
120.961
120.289
119.637
119.006
118.396
117.803
117.222
116.65
116.085
115.543
115.069
114.73
114.568
114.544
114.579
114.633
114.68
114.701
114.717
114.648
114.452
114.097
113.535
112.353
110.422
100.216
88.9648
105.187
110.926
107.808
97.7484
79.8592
72.8972
91.6417
104.355
100.35
85.2679
67.077
62.8692
80.802
96.9062
93.0315
75.8707
59.1626
56.4511
72.5716
90.146
86.7335
69.0034
53.9275
52.1788
66.9341
84.5058
81.5561
64.1234
50.3548
49.1379
62.7948
79.876
77.358
60.5808
47.7499
46.8447
59.6639
76.0259
73.8483
57.8691
45.7434
45.0312
57.1929
72.7676
70.8553
55.7119
44.1277
43.538
55.1655
69.9585
68.255
53.9221
42.7706
42.266
53.4652
67.4986
65.9613
52.3909
41.5961
41.1522
51.9979
65.3103
63.9147
51.0499
40.5538
40.1538
50.7027
63.3339
62.0655
49.8505
39.6088
39.2414
49.5385
61.5393
60.3768
48.7617
38.7374
38.395
48.4773
59.8946
58.8201
47.7609
37.9229
37.5996
47.4984
58.3751
57.3755
46.831
37.1528
36.8443
46.5862
56.9619
56.0263
45.9591
36.4176
36.1207
45.7286
55.6395
54.7588
45.1348
35.71
35.4221
44.916
54.3951
53.5624
44.3499
35.0243
34.7433
44.1407
53.219
52.429
43.5983
34.3557
34.0797
43.3971
52.1037
51.3519
42.8747
33.6998
33.4271
42.6801
51.0426
50.3246
42.1745
33.0529
32.7822
41.985
50.0293
49.3412
41.4934
32.4118
32.1419
41.308
49.0579
48.3959
40.8279
31.7739
31.5038
40.6456
48.1233
47.4845
40.1746
31.1367
30.8653
39.9945
47.2211
46.6027
39.5307
30.4974
30.2237
39.3517
46.3473
45.7469
38.8925
29.8533
29.5758
38.7135
45.4984
44.9135
38.257
29.2017
28.9202
38.0776
44.6708
44.0986
37.6225
28.5421
28.2562
37.4421
43.8605
43.2989
36.9866
27.8725
27.5807
36.8041
43.0649
42.5129
36.3461
27.1889
26.8888
36.1598
42.282
41.7358
35.6963
26.4876
26.1816
35.5068
41.5046
40.9601
35.0365
25.7703
25.453
34.8407
40.7297
40.1871
34.3599
25.0273
24.6991
34.158
39.9543
39.4073
33.6658
24.263
23.9254
33.4569
39.1714
38.6221
32.9531
23.4757
23.1246
32.7381
38.3885
37.8399
32.223
22.6626
22.3084
32.0037
37.6002
37.0428
31.4798
21.8401
21.4758
31.2548
36.8025
36.2478
30.7203
20.9894
20.6106
30.4853
36.0075
35.4474
29.9325
20.1155
19.7388
29.6927
35.1952
34.6181
29.1295
19.2359
18.8406
28.8803
34.3684
33.7915
28.2998
18.3228
17.9309
28.0439
33.5318
32.9383
27.454
17.4188
17.024
27.2006
32.678
32.0933
26.6057
16.4914
16.091
26.3397
31.8354
31.243
25.7318
15.5747
15.2037
25.4761
30.978
30.3722
24.8847
14.7043
14.3303
24.6331
30.112
29.5251
24.0409
13.8277
13.4741
23.7861
29.27
28.6861
23.2081
13.0181
12.6999
22.9765
28.433
27.8596
22.4342
12.275
11.9767
22.2113
27.6257
27.083
21.6934
11.5959
11.3557
21.4988
26.8643
26.3517
21.0381
11.0358
10.843
20.872
26.1555
25.6763
20.4501
10.5717
10.4264
20.302
25.499
25.0699
19.932
10.2189
10.1239
19.8128
24.9192
24.5303
19.4856
9.97301
9.92107
19.3896
24.392
24.048
19.103
9.82614
9.81693
19.0111
23.9431
23.6495
18.7495
9.78254
9.78589
18.658
23.5489
23.2655
18.3933
9.77122
9.78026
18.3012
23.1653
22.8852
18.0427
9.77074
9.78458
17.9589
22.7967
22.5295
17.7198
9.78227
9.79824
17.6387
22.4313
22.1707
17.4215
9.80941
9.84455
17.3614
22.0885
21.836
17.16
9.85322
9.89773
17.1185
21.769
21.533
16.9193
9.89398
9.93061
16.8831
21.478
21.2681
16.716
9.94338
10.0005
16.6973
21.2268
21.0247
16.5444
10.0039
10.0431
16.5217
20.9788
20.7792
16.3789
10.0563
10.0782
16.3486
20.7292
20.5959
16.2575
10.1055
10.1192
16.2322
20.5599
20.4211
16.1303
10.1417
10.1671
16.1156
20.3784
20.2352
16.022
10.1935
10.2177
16.0018
20.1905
20.072
15.9335
10.2449
10.262
15.9161
20.0324
19.9233
15.847
10.2779
10.2984
15.8372
19.8954
19.7835
15.7623
10.3106
10.3377
15.7628
19.7567
19.6441
15.6996
10.3494
10.3681
15.6939
19.6234
19.5101
15.634
10.3769
10.3992
15.6205
19.4765
19.4021
15.5798
10.4144
10.4121
15.5327
19.3009
19.3011
15.4993
10.4497
10.5717
15.642
19.4632
19.6856
15.853
10.6957
27.0032
34.0348
40.4607
46.5415
51.5907
56.9673
61.2061
64.9867
68.0434
70.6445
72.6872
74.2319
75.194
75.6049
75.3532
74.3409
72.4674
69.5188
66.1577
61.1888
53.1982
46.5279
38.9931
30.7171
22.8449
19.6093
12.7523
12.6417
18.9971
22.0847
21.6245
18.8334
12.4235
12.0788
18.3015
21.1218
21.1339
18.3852
11.8946
11.8961
18.4979
21.3163
21.1574
18.2459
11.8529
11.9166
18.3557
21.5664
21.4481
18.1344
11.8333
11.9291
18.4545
21.918
21.8368
18.3271
11.8936
12.0716
18.7162
22.286
22.1888
18.5788
12.0915
12.2705
18.9779
22.6568
22.5579
18.8691
12.2609
12.4413
19.3146
23.0609
22.9626
19.2151
12.4375
12.6455
19.574
23.4386
23.3226
19.3979
12.645
12.762
19.7087
23.8343
23.7257
19.5647
12.7114
12.8619
19.9056
24.2601
24.1539
19.7851
12.8114
13.0234
20.1993
24.7542
24.6696
20.065
13.0196
13.2092
20.5676
25.2558
25.1418
20.422
13.2572
13.4603
20.8781
25.7633
25.651
20.7601
13.4393
13.6147
21.2073
26.3017
26.1823
21.0596
13.6029
13.7826
21.4652
26.8176
26.6978
21.2771
13.753
13.8814
21.6911
27.3964
27.279
21.4942
13.864
14.0457
21.9574
28.0068
27.8842
21.7812
14.0373
14.2782
22.2819
28.6439
28.5173
22.1323
14.2646
14.5113
22.6584
29.3438
29.2276
22.4896
14.5183
14.7641
23.0938
30.0305
29.8907
22.9412
14.764
15.0185
23.5405
30.7803
30.6452
23.3896
15.0251
15.3195
23.9417
31.5189
31.3744
23.7619
15.3087
15.5528
24.3508
32.2919
32.1271
24.1463
15.5679
15.8361
24.6591
33.0397
32.8695
24.442
15.8178
16.0968
25.0128
33.8916
33.7244
24.7967
16.1485
16.5338
25.3946
34.7322
34.5474
25.1528
16.6122
16.9919
25.7186
35.6621
35.4826
25.4492
17.1473
17.5616
26.0652
36.658
36.4419
25.807
17.7729
18.2314
26.4519
37.8283
37.5406
26.1119
18.3545
18.7144
26.9034
39.0899
38.6904
26.4035
18.6913
18.8842
27.1125
40.1634
39.7485
26.651
18.8111
18.9669
27.3372
41.3914
40.9797
26.6943
18.8967
19.0801
27.3375
42.6167
42.3723
26.8772
19.0005
19.2807
27.7529
44.3571
44.3067
27.527
19.5194
20.3337
29.1914
47.2
47.6604
29.4913
21.3703
23.8952
32.01
52.4475
54.9597
32.8609
26.9695
32.0958
39.5486
70.7103
82.9131
51.3984
35.7156
40.5878
68.8684
94.4535
98.6912
68.704
40.1775
42.1848
64.8037
91.4022
105.25
75.8446
46.534
50.2677
82.9789
110.984
120.159
92.1044
53.952
57.535
98.8882
126.581
134.823
107.911
61.421
64.8605
116.1
142.129
151.121
125.031
68.0636
70.2472
129.549
155.198
153.671
128.753
70.2289
76.4792
139.49
163.577
170.727
147.675
79.8534
83.5512
154.942
178.158
181.368
157.233
83.0493
81.7323
154.27
178.888
181.547
156.532
82.3427
85.5802
158.744
181.753
190.731
168.46
92.532
101.048
178.538
198.75
208.099
188.664
108.822
115.012
195.669
213.859
216.038
200.296
121.06
131.682
209.428
223.018
229.289
219.778
142.79
150.846
224.705
230.659
229.762
225.913
158.929
166.549
226.175
226.212
221.988
224.674
172.903
177.111
221.03
216.793
207.103
215.385
180.487
181.526
208.957
200.076
197.511
205.268
180.974
180.229
203.984
196.948
197.088
203.914
178.395
176.779
206.238
198.972
203.634
206.348
173.507
170.5
205.09
208.043
207.855
197.693
167.399
164.446
192.48
208.411
203.761
182.384
161.284
158.074
169.507
185.945
184.478
162.907
154.221
150.534
154.832
174.894
154.763
145.829
145.768
141.133
138.902
156.345
149.573
132.116
135.764
130.524
124.375
133.188
137.794
117.523
124.371
118.662
112.952
130.521
115.734
103.332
112.321
106.323
103.953
129.866
121.765
96.9806
100.146
94.7773
98.6424
137.305
128.873
93.5484
89.5598
84.6435
88.9463
119.246
100.373
81.4207
79.5334
74.4402
81.3025
108.731
106.339
78.5739
70.2934
65.6833
71.2115
89.7017
100.309
73.0995
62.0465
58.8161
69.7615
92.9918
85.8571
64.5538
55.5945
52.4572
57.4033
71.5998
80.0312
58.6678
49.0217
47.5012
56.7961
75.7148
57.7362
45.5742
44.0787
40.0696
41.8357
65.5995
52.7579
36.6997
37.8883
35.8554
33.6028
45.9795
31.8677
27.686
30.6483
30.7745
33.4268
41.0868
38.4184
31.0319
30.8866
30.3916
24.9274
26.4771
40.0318
31.4313
30.9411
31.0533
28.864
35.4695
31.5255
26.4899
30.8002
32.818
22.1338
22.7847
33.8169
26.5674
29.3227
28.9194
25.1668
31.7012
22.2552
21.781
30.2062
28.2452
26.0664
33.2153
30.6893
24.5964
28.6975
29.6475
21.6692
21.83
32.5143
25.6544
28.0545
28.671
24.1803
30.0731
21.6786
21.4968
29.9739
28.2914
25.4077
32.0785
28.402
23.6328
29.0584
30.2205
22.3256
25.423
20.4173
21.3345
30.458
26.9968
22.7288
26.0284
24.7082
21.4028
28.0387
31.3382
19.7456
19.2478
25.4775
21.2638
27.4587
28.5136
20.4544
23.8824
18.5362
18.9808
31.8512
27.1239
20.0961
23.9337
22.7574
19.8898
27.7447
30.0444
19.2909
18.2537
22.9079
19.8195
26.1691
28.3445
18.9269
21.4272
17.0344
18.1826
33.8809
28.225
18.2296
21.2528
20.6173
18.7594
29.0663
32.7113
18.1577
17.2532
21.1922
18.3274
27.5235
30.1882
18.0914
17.7636
23.8144
19.5315
25.9681
27.1184
19.2027
21.9751
17.8373
18.9539
30.173
26.3255
19.3282
22.5564
21.068
19.0336
28.4014
32.3449
19.3621
17.5808
21.8305
19.2057
27.5944
29.587
18.9488
20.381
17.8495
19.7368
33.5518
28.1872
18.6879
20.4401
19.0827
18.1925
30.4517
34.3141
21.4778
17.5769
18.9111
18.5592
28.8031
32.5806
20.4885
17.0636
20.2478
18.2286
28.1182
31.2383
17.687
18.414
17.1742
21.428
35.5818
29.3336
18.1106
18.4663
17.4716
17.5776
31.641
36.2613
21.5256
16.9339
18.4679
17.1144
30.0024
34.5592
19.0572
17.0046
18.9564
17.914
28.9332
30.8877
17.6738
17.9941
17.1477
21.2476
34.2764
28.6125
18.0159
18.4017
17.067
17.6705
31.844
37.6205
22.6095
16.9997
17.4544
17.1083
30.6562
35.0848
21.3385
16.545
17.8557
17.46
29.4138
33.0546
17.1932
16.4646
16.781
23.3704
38.5309
31.2798
16.9168
16.8362
16.2885
20.8207
36.0213
29.9671
17.3966
17.5345
16.526
17.3524
33.2797
38.5327
23.0087
16.8108
17.6279
17.9548
31.6432
35.1705
17.9769
16.4726
17.3497
25.077
40.2486
32.6941
17.1674
16.5238
16.3911
21.9714
37.721
31.2625
17.3795
17.2286
16.0094
17.4754
35.2189
41.6092
25.0807
17.0482
16.2186
16.7679
33.5533
39.7102
21.6599
16.1252
16.6733
16.866
32.3607
36.321
17.1587
15.5723
16.9456
25.8432
42.3303
33.867
16.7811
15.9509
16.1254
22.3878
40.2962
33.1158
17.0828
16.7865
15.6838
17.42
37.4555
44.2807
26.5816
17.1861
16.1054
16.9266
35.4009
41.9651
22.9154
16.353
16.7317
17.1324
33.9366
38.2309
17.6222
15.7428
17.4895
27.4889
45.2162
36.3161
17.3837
16.3684
16.7487
23.7987
43.4803
35.2897
17.5899
17.1513
16.0836
18.1603
40.0634
47.6733
28.7312
18.0243
16.6717
17.8128
38.0544
45.57
24.5647
17.0783
17.2766
17.821
36.7802
41.6377
18.4827
16.27
18.4281
29.9355
49.4624
39.4664
18.3269
17.0332
17.6142
25.6787
47.4283
38.3464
18.4247
17.8027
16.7502
19.1664
43.5423
51.9208
31.3239
19.118
17.4784
18.9165
41.1121
49.4429
26.6993
18.1012
18.0933
18.7973
39.5296
44.945
19.6857
17.0691
19.6083
32.3049
53.7124
42.7527
19.4133
17.8915
18.7179
27.9498
51.5575
41.3608
19.4522
18.6217
17.5707
20.3729
47.0931
56.4137
33.8795
20.3629
18.4556
20.1063
44.8038
54.0741
28.8999
19.3351
19.0104
19.8949
43.1502
49.0823
20.8496
17.9418
20.9728
35.0768
58.7855
46.613
20.6927
18.9512
20.0492
30.3713
56.3996
45.0015
20.6166
19.5902
18.5356
21.7276
51.3017
61.6548
36.7621
21.7933
19.5973
21.4752
48.7024
58.9536
31.5364
20.779
20.1026
21.223
46.8994
53.4039
22.2972
19.0162
22.5122
38.2536
64.1911
50.4834
22.2538
20.2132
21.6344
33.2576
61.2681
48.8126
22.0816
20.8288
19.7515
23.3622
55.8252
67.331
39.9334
23.4808
20.9526
23.0842
53.032
64.2397
34.137
22.3732
21.3754
22.6557
50.8433
57.9313
23.9123
20.2599
24.2599
41.3419
69.7897
55.0784
23.8322
21.5951
23.2955
36.0435
67.0309
53.4197
23.6708
22.2091
21.0859
25.0052
60.9268
73.4535
43.5485
25.5059
22.3951
24.8582
57.6389
69.9629
37.2177
24.1588
22.8624
24.3764
55.2793
62.9675
25.7211
21.7146
26.3954
45.1067
76.2352
59.9532
25.8006
23.1985
25.2136
39.1698
72.9091
57.9672
25.4508
23.8142
22.6708
27.0046
66.142
79.8187
46.9756
27.6293
24.0601
26.7521
62.7192
76.2526
40.5619
26.1133
24.6016
26.3539
59.7344
67.9982
27.7808
23.3693
27.9572
48.1339
82.4011
64.7176
28.3764
24.9769
24.1163
29.507
73.7782
89.3596
51.976
30.1735
25.4014
28.576
69.2122
83.9804
44.162
28.2164
25.7953
27.8967
65.745
74.9593
29.4353
24.5669
30.9026
53.2751
91.0819
70.7489
29.5285
26.0405
28.9969
45.8119
86.1108
67.4604
28.7883
26.6416
25.4718
30.7157
76.7744
92.6558
54.1964
31.2938
26.9351
31.1616
72.6418
82.7012
31.963
25.981
33.4589
58.4834
101.357
78.0708
31.3264
27.4174
31.4264
49.9061
95.1768
74.0366
30.4038
27.6309
26.4957
32.5056
84.3007
101.772
58.6516
33.3482
27.8655
32.8546
79.0631
89.9833
33.7733
26.93
35.2873
62.5974
109.946
84.0109
32.7989
28.4824
33.1306
53.7182
102.682
79.4019
31.9135
28.6954
27.6893
34.2683
90.3403
109.126
63.0369
35.2597
29.2544
34.7607
84.4426
96.5038
36.2463
28.3628
37.6503
66.4935
117.875
90.308
34.7981
30.1384
35.6421
57.9426
110.687
85.7048
34.0843
30.2393
29.2247
36.4038
97.4291
117.734
67.3168
37.5606
30.7969
36.9032
90.729
103.41
38.3773
29.8479
39.1475
71.0427
126.349
96.5467
38.0864
31.5723
30.4934
39.4115
109.771
133.635
74.289
40.4471
32.1711
39.1764
101.354
114.923
40.9356
31.1686
42.1205
78.1429
139.08
105.467
40.723
33.0544
31.9313
41.1301
118.976
146.336
81.1311
43.6577
33.7296
41.704
110.156
125.048
43.4483
32.65
44.9983
83.7321
151.267
114.021
42.9881
34.5679
33.3889
44.393
129.473
157.581
86.1271
46.1722
35.0829
43.3962
118.451
134.634
45.2799
33.9467
47.5571
89.6058
163.413
122.642
45.3917
36.0312
34.8584
46.6146
138.633
167.687
91.4144
48.6201
36.7522
45.5511
124.193
141.014
47.6872
35.5494
49.9941
95.216
173.354
129.478
47.8791
37.8048
36.5657
48.9392
145.886
176.505
94.5387
49.8564
38.2843
47.7788
131.063
144.311
52.3413
36.9276
36.6413
58.801
166.819
202.286
111.763
56.4806
40.5445
52.857
149.173
166.936
59.8094
39.5047
38.5526
58.2171
185.542
225.785
120.209
60.1263
41.3061
54.7069
162.815
178.633
60.2636
40.1094
39.6447
65.4219
203.068
239.998
127.905
63.534
43.0176
57.5113
173.749
194.142
64.1955
41.4398
40.3438
65.5072
217.766
256.137
129.215
62.673
42.8153
56.806
176.315
198.951
60.6163
40.9958
39.6015
63.0768
218.682
247.19
79.3265
40.7862
39.0589
74.7406
263.176
306.082
157.506
70.473
45.0815
64.5823
209.76
230.34
61.4677
42.4292
42.3344
78.4697
253.033
276.453
74.0011
41.1149
41.0744
85.1394
292.936
308.328
81.6259
39.9306
40.2935
90.4449
309.552
304.569
90.9345
39.8449
40.4904
96.86
294.639
277.465
97.3394
40.139
41.1402
102.633
260.194
242.943
103.757
40.8637
42.5468
110.031
227.262
212.522
112.111
42.5177
45.0317
119.759
199.766
188.198
121.53
45.2296
48.5163
127.814
178.238
169.356
130.437
49.0401
53.1408
134.696
161.597
154.833
137.825
53.945
59.1492
140.112
148.807
143.618
142.874
60.1902
65.8952
144.614
138.953
135.003
146.927
66.9149
72.7574
148.425
131.387
128.454
150.526
73.9106
79.86
151.728
125.625
123.552
153.603
81.0198
87.1201
154.595
121.247
120.001
156.169
88.2438
94.1318
156.919
118.113
117.486
158.151
95.0603
100.651
158.738
115.976
115.706
159.716
101.435
106.611
160.106
114.573
114.516
160.822
107.16
111.934
161.088
113.713
113.787
161.657
112.323
116.651
161.673
113.2
113.346
162.102
116.777
120.669
162.028
112.923
113.126
162.354
120.721
124.148
162.183
112.803
113.044
162.406
124.055
127.087
162.173
112.783
113.062
162.335
126.922
129.558
162.04
112.84
113.174
162.144
129.295
131.617
161.818
112.966
113.329
161.894
131.308
133.311
161.533
113.131
113.511
161.579
132.933
134.691
161.21
113.32
113.715
161.246
134.291
135.802
160.857
113.532
113.934
160.878
135.357
136.682
160.494
113.758
114.167
160.515
136.234
137.372
160.12
113.998
114.41
160.136
136.897
137.9
159.752
114.246
114.665
159.776
137.432
138.297
159.379
114.507
114.927
159.398
137.812
138.579
159.019
114.774
115.197
159.049
138.107
138.774
158.659
115.048
115.473
158.684
138.289
138.907
158.317
115.33
115.756
158.355
138.423
138.983
157.987
115.617
116.044
158.024
138.471
138.985
157.668
115.908
116.334
157.712
138.476
138.943
157.353
116.202
116.625
157.393
138.406
138.82
157.042
116.496
116.915
157.082
138.271
138.624
156.722
116.788
117.198
156.749
138.041
138.348
156.391
117.072
117.472
156.417
137.762
138.027
156.043
117.347
117.733
156.052
137.408
137.655
155.683
117.607
117.98
155.697
137.037
137.262
155.313
117.853
118.211
155.312
136.611
136.826
154.937
118.082
118.426
154.941
136.168
136.372
154.556
118.297
118.624
154.545
135.699
135.901
154.167
118.493
118.805
154.165
135.238
135.433
153.789
118.673
118.97
153.773
134.765
134.962
153.408
118.836
119.121
153.406
134.31
134.501
153.044
118.986
119.257
153.039
133.853
134.051
152.691
119.122
119.383
152.701
133.422
133.614
152.355
119.247
119.496
152.367
132.993
133.191
152.037
119.36
119.6
152.06
132.585
132.78
151.733
119.464
119.695
151.758
132.182
132.384
151.446
119.559
119.783
151.482
131.8
132
151.172
119.646
119.862
151.21
131.424
131.632
150.914
119.726
119.936
150.963
131.07
131.275
150.669
119.8
120.003
150.719
130.722
130.935
150.438
119.867
120.066
150.499
130.395
130.606
150.218
119.93
120.124
150.279
130.071
130.291
150.012
119.988
120.178
150.083
129.773
129.99
149.815
120.042
120.227
149.885
129.477
129.702
149.63
120.092
120.274
149.71
129.201
129.424
149.454
120.139
120.317
149.532
128.926
129.159
149.288
120.182
120.358
149.376
128.677
128.905
149.13
120.223
120.394
149.215
128.418
128.661
148.981
120.26
120.429
149.075
128.189
128.429
148.838
120.295
120.461
148.929
127.952
128.206
148.703
120.327
120.491
148.803
127.745
127.995
148.575
120.357
120.518
148.672
127.528
127.792
148.454
120.384
120.544
148.559
127.34
127.6
148.339
120.41
120.568
148.441
127.142
127.415
148.23
120.434
120.591
148.34
126.972
127.241
148.127
120.456
120.611
148.233
126.79
127.073
148.029
120.476
120.63
148.143
126.637
126.914
147.936
120.495
120.647
148.046
126.471
126.762
147.848
120.512
120.663
147.966
126.333
126.618
147.764
120.528
120.677
147.878
126.179
126.478
147.684
120.541
120.69
147.806
126.055
126.348
147.609
120.555
120.702
147.726
125.915
126.221
147.537
120.566
120.713
147.662
125.803
126.102
147.47
120.577
120.723
147.589
125.676
125.987
147.405
120.587
120.733
147.532
125.574
125.878
147.343
120.598
120.743
147.465
125.455
125.772
147.284
120.608
120.753
147.414
125.363
125.673
147.229
120.619
120.764
147.352
125.253
125.575
147.176
120.631
120.776
147.307
125.17
125.484
147.126
120.644
120.79
147.251
125.067
125.394
147.078
120.658
120.805
147.211
124.991
125.31
147.034
120.675
120.821
147.161
124.896
125.227
146.991
120.692
120.84
147.126
124.827
125.15
146.952
120.712
120.86
147.081
124.738
125.073
146.914
120.733
120.883
147.051
124.675
125.001
146.88
120.757
120.906
147.01
124.592
124.929
146.846
120.781
120.931
146.985
124.533
124.862
146.817
120.807
120.957
146.948
124.454
124.794
146.788
120.833
120.985
146.927
124.4
124.733
146.763
120.863
121.016
146.896
124.326
124.671
146.735
120.895
121.053
146.868
124.267
124.589
146.713
120.932
121.138
146.848
124.197
124.524
146.686
121.026
121.212
146.805
124.126
124.436
146.64
121.101
121.382
146.735
123.971
124.102
146.654
121.291
121.729
146.694
123.44
122.873
146.59
122.114
123.256
145.913
121.993
118.347
144.9
125.133
126.735
143.555
115.235
109.78
142.609
128.677
76.5443
61.5156
62.3301
72.8711
89.0752
97.3503
102.885
118.955
129.562
134.843
137.533
138.691
138.913
138.569
138.014
137.441
136.935
136.516
136.181
135.917
135.709
135.547
135.419
135.319
135.241
135.18
135.135
135.102
135.081
135.068
135.063
135.061
135.058
135.054
135.049
135.042
135.035
135.026
135.017
135.008
134.999
134.989
134.981
134.973
134.967
134.962
134.959
134.958
134.959
134.964
134.976
134.994
135.017
135.044
135.081
135.133
135.203
135.291
135.395
135.512
135.636
135.761
135.884
136.001
136.112
136.215
136.313
136.407
136.498
136.589
136.679
136.772
136.866
136.964
137.066
137.173
137.286
137.405
137.53
137.661
137.799
137.944
138.095
138.251
138.413
138.58
138.75
138.924
139.1
139.278
139.457
139.637
139.816
139.994
140.17
140.344
140.515
140.683
140.847
141.008
141.165
141.318
141.467
141.611
141.751
141.887
142.018
142.145
142.268
142.386
142.501
142.611
142.718
142.82
142.92
143.015
143.108
143.197
143.283
143.366
143.446
143.524
143.599
143.672
143.742
143.81
143.876
143.94
144.002
144.062
144.121
144.178
144.234
144.288
144.341
144.393
144.444
144.494
144.543
144.591
144.639
144.686
144.732
144.778
144.824
144.87
144.915
144.96
145.005
145.05
145.096
145.142
145.188
145.234
145.281
145.328
145.377
145.426
145.476
145.526
145.578
145.631
145.685
145.74
145.797
145.854
145.913
145.972
146.032
146.09
146.147
146.2
146.247
146.287
146.319
146.338
146.344
146.346
146.346
146.346
146.345
146.34
146.317
146.248
146.087
145.802
145.397
144.912
144.387
143.847
143.297
142.738
142.165
141.576
140.967
140.339
139.691
139.025
138.341
137.641
136.926
136.197
135.456
134.704
133.941
133.171
132.393
131.609
130.822
130.032
129.241
128.451
127.664
126.88
126.103
125.333
124.572
123.822
123.084
122.36
121.651
120.96
120.288
119.637
119.006
118.397
117.805
117.229
116.666
116.121
115.611
115.179
114.871
114.699
114.627
114.6
114.586
114.545
114.366
113.482
112.271
108.869
107.053
105.521
103.546
102.091
100.123
98.7894
96.8707
95.6676
93.8187
92.7443
90.9712
90.0142
88.324
87.465
85.8565
85.0832
83.5535
82.8544
81.3995
80.7596
79.3799
78.7834
77.4776
76.9191
75.6791
75.1542
73.9729
73.4779
72.3494
71.8819
70.8024
70.3602
69.3265
68.9075
67.9159
67.5179
66.5646
66.1855
65.2669
64.9047
64.0174
63.6702
62.8113
62.4779
61.6455
61.3247
60.5165
60.2065
59.4194
59.1182
58.349
58.0558
57.3031
57.0172
56.2786
55.998
55.2701
54.9935
54.2746
54.0013
53.2891
53.0163
52.3072
52.0363
51.3311
51.0605
50.3563
50.0843
49.3807
49.1086
48.4051
48.1306
47.4229
47.1417
46.4263
46.1399
45.4159
45.1259
44.3994
44.109
43.383
43.0865
42.3483
42.0416
41.2956
40.9886
40.2404
39.9324
39.1869
38.8784
38.1463
37.8475
37.1334
36.8478
36.1543
35.8873
35.2219
34.9709
34.3493
34.1304
33.5604
33.3655
32.8389
32.6827
32.2256
32.0861
31.6663
31.5365
31.145
31.0484
30.6965
30.576
30.222
30.1146
29.7735
29.7052
29.4049
29.3644
29.0833
29.0353
28.7589
28.6962
28.4206
28.3766
28.1855
28.1534
27.9692
27.928
27.7056
27.6547
27.4603
27.4251
27.2462
27.2197
27.0495
27.0244
26.8527
26.8222
26.6261
26.5904
26.4533
26.3542
26.4234
26.5466
33.7259
33.5272
40.143
40.3796
46.7477
46.898
48.7707
39.5884
33.3465
33.2519
38.7935
40.3214
33.6313
33.4908
39.2274
49.1656
49.8094
40.7218
33.9446
33.7818
39.5755
41.0933
34.224
34.0495
39.9069
50.3628
50.8658
41.4604
34.501
34.3235
40.2428
41.823
34.7845
34.6014
40.593
51.3672
51.8506
42.1881
35.0565
34.8746
40.8972
42.5069
35.3441
35.1568
41.1918
52.3152
52.7634
42.8328
35.6406
35.4555
41.5342
43.2104
35.9469
35.76
41.9157
53.2281
53.7066
43.6104
36.2754
36.0896
42.2859
43.9659
36.5886
36.4197
42.6617
54.1998
54.7283
44.3803
36.9707
36.8165
43.1145
44.8886
37.4205
37.2689
43.6106
55.3138
55.948
45.4063
37.9003
37.7746
44.1812
46.0188
38.4209
38.3102
44.8422
56.6676
57.4832
46.7353
39.0012
38.8884
45.5824
47.5596
39.6551
39.5621
46.4022
58.4662
59.5735
48.4826
40.398
40.3265
47.3362
49.5508
41.2398
41.1872
48.3972
60.8226
62.2085
50.7428
42.1951
42.1727
49.5924
52.0331
43.2453
43.2355
50.8764
63.7118
65.2781
53.4052
44.3694
44.3785
52.2439
54.8499
45.5676
45.5821
53.6622
66.8769
68.4742
56.304
46.8085
46.826
55.0883
57.7457
48.0727
48.0915
56.5191
70.039
71.5847
59.1792
49.3514
49.3623
57.931
60.5913
50.6257
50.627
59.3251
73.0771
74.4838
61.9636
51.8834
51.8729
60.6801
63.2787
53.1167
53.0979
61.9808
75.8223
77.0874
64.5415
54.3256
54.2987
63.2398
65.7562
55.5107
55.4754
64.4621
78.3009
79.4717
66.9462
56.6774
56.6379
65.6639
68.1188
57.8282
57.7836
66.8451
80.6043
81.7025
69.2621
58.9581
58.9063
67.9968
70.3802
60.0673
60.0106
69.1288
82.7677
83.809
71.481
61.1647
61.1052
70.2452
72.5687
62.2538
62.1928
71.3519
84.8317
85.8381
73.6482
63.3387
63.2777
72.4538
74.7236
64.4236
64.363
73.5508
86.8319
87.8095
75.7946
65.5072
65.4466
74.6392
76.8607
66.5907
66.531
75.7257
88.7732
89.7277
77.9254
67.6789
67.6222
76.8154
78.994
68.7776
68.7261
77.9121
90.6796
91.6309
80.0685
69.891
69.8454
79.0156
81.1488
71.02
70.9811
80.1273
92.5808
93.529
82.236
72.1661
72.1347
81.2486
83.3319
73.3313
73.3088
82.3821
94.4758
95.4214
84.4389
74.5188
74.5064
83.5303
85.5591
75.7309
75.7299
84.6962
96.3663
97.3109
86.6956
76.9731
76.9888
85.8819
87.8493
78.2473
78.2813
87.0888
98.2562
99.2025
89.0221
79.5557
79.6097
88.3185
90.2152
80.9011
80.9771
89.5718
100.149
101.095
91.4312
82.2866
82.3867
90.8471
92.6713
83.7164
83.8432
92.1499
102.039
102.978
93.9372
85.1947
85.3509
93.4837
95.2338
86.7249
86.9127
94.8545
103.908
104.823
96.5709
88.3052
88.5223
96.2472
97.9239
89.9339
90.1821
97.6601
105.734
106.636
99.2923
91.6125
91.8947
99.0918
100.674
93.3433
93.6624
100.54
107.528
108.405
102.067
95.1284
95.4886
102.003
103.468
96.9698
97.3746
103.477
109.264
110.099
104.868
98.8699
99.3257
104.973
106.262
100.821
101.337
106.46
110.9
111.659
107.637
102.792
103.395
107.926
108.98
104.79
105.474
109.348
112.367
113.011
110.273
106.793
107.538
110.701
111.487
108.755
109.541
111.941
113.577
114.039
112.581
110.624
111.39
113.013
114.403
114.194
113.927
113.611
113.255
112.862
112.438
111.985
111.507
111.008
110.491
109.958
109.41
108.849
108.274
107.686
107.088
106.481
105.868
105.251
104.626
103.993
103.354
102.71
102.062
101.412
100.759
100.104
99.4512
98.7871
98.1017
97.3989
96.6807
95.9509
95.2101
94.4546
93.6806
92.8779
92.0463
91.1802
90.2714
89.3127
88.2734
87.1586
85.9635
84.7221
83.3939
81.9454
80.4286
78.8856
77.3461
75.8905
74.5718
73.4211
72.4252
71.572
70.8442
70.17
69.5338
68.8669
68.2071
67.5112
66.7831
66.0297
65.2259
64.4237
63.5913
62.7072
61.8539
60.8676
60.413
57.6287
51.6141
51.6779
57.2701
61.4489
61.6467
65.6696
65.2751
68.313
68.5919
68.1755
73.5711
71.3852
70.9484
73.0052
73.445
75.1086
74.5823
75.558
76.1052
76.9735
78.1011
76.6187
76.0123
75.7956
76.4328
75.4917
74.8113
72.9192
73.5572
76.2161
69.2633
69.9482
69.7265
66.1024
66.4113
57.9895
58.2346
48.9149
46.9174
46.009
44.2154
44.4563
37.2141
36.4771
28.9096
29.3539
28.0265
34.9764
34.0195
27.9691
28.592
36.2684
45.3311
57.2317
56.5861
45.6659
37.0082
34.6405
28.31
29.2758
28.947
35.3342
37.8182
46.9352
59.268
70.763
78.1673
79.9584
78.6205
74.977
69.1573
70.4488
76.5775
80.5561
82.2033
84.4182
82.4478
78.1367
71.6571
72.8981
79.7157
81.2924
74.1028
75.2558
82.8536
88.2979
86.3261
84.3852
86.7116
89.0454
91.4421
93.8952
90.2724
84.3878
76.4236
77.5354
85.9185
87.4006
78.5994
79.6299
88.8396
96.1636
94.2215
92.2506
96.4022
98.9441
101.517
104.092
98.0574
90.2007
80.5785
81.4651
91.4655
92.6232
82.2808
83.0611
93.6665
103.108
101.566
99.8697
106.643
109.121
111.468
118.237
114.616
111.004
107.466
104.029
100.706
97.4976
94.4195
91.4634
88.6013
85.8749
83.2054
80.7294
73.6348
61.7451
58.5152
47.6108
49.0422
49.7018
60.931
64.2691
76.2769
79.2818
82.3296
85.6215
73.2802
69.4708
70.0323
66.3877
67.0483
63.5369
52.0393
51.2951
41.2891
38.4462
40.2349
37.5363
39.4472
36.7783
38.5471
35.9896
29.5493
29.9182
30.4715
30.0652
31.0074
30.567
31.5285
31.0983
32.1306
31.682
39.3072
42.1512
40.2822
32.4365
32.8317
33.6474
43.2477
53.7806
54.6121
44.1466
41.1845
33.2053
34.4063
33.9692
42.2308
45.3665
56.4858
57.3994
59.4406
60.4708
72.8503
76.8634
89.0968
92.7549
96.6828
100.876
89.698
84.9779
85.0357
80.5773
80.7765
76.5546
63.8563
62.6998
50.2983
46.8087
48.8446
45.5355
47.7369
44.4231
46.3936
43.2482
34.6435
35.1506
35.9015
35.4423
36.7853
36.2784
37.7124
37.2753
38.7878
38.2892
48.0163
51.4855
49.3931
39.3728
39.8368
40.954
53.0884
66.2846
67.5735
54.4355
50.7374
40.4165
42.0337
41.5239
52.2795
56.2104
70.2355
71.6858
74.6448
76.2965
89.8677
94.819
105.378
110.2
115.361
120.851
113.483
107.949
106.669
101.297
100.446
95.2929
81.4731
79.5789
63.6262
59.1198
61.3863
57.1898
59.7057
55.4989
57.7054
53.777
42.6213
43.201
44.3526
43.8011
45.6405
45.0328
46.9582
46.3987
48.4686
47.8495
61.0185
65.5086
63.1882
49.3867
49.9815
51.6022
68.0382
85.158
87.3474
70.26
65.3803
50.9112
53.2763
52.6673
67.9075
73.2221
91.5606
94.1674
99.0856
102.136
115.152
120.715
126.725
121.758
113.61
104.465
94.6018
83.8251
84.6318
95.4512
96.261
85.5273
86.5613
97.0851
107.076
106.452
105.589
115.441
116.748
117.315
117.357
107.57
97.9964
87.7542
89.0731
98.9899
100.01
90.4244
91.7039
100.857
109.108
108.479
107.975
117.145
117.081
117.467
117.643
109.863
101.752
92.8613
93.985
102.599
103.38
95.0433
95.9904
104.066
111.082
110.842
110.461
117.666
117.454
117.172
116.84
111.214
104.619
96.86
97.6424
105.073
105.447
98.346
98.9898
105.768
111.281
111.285
111.271
116.488
116.145
115.818
119.581
120.21
120.908
121.684
122.529
123.436
124.438
125.522
126.438
127.289
128.457
129.317
129.115
127.726
125.003
132.72
138.584
143.541
147.123
142.344
137.317
132.4
128.622
123.29
111.853
107.899
86.7457
80.235
82.4907
76.5797
79.3158
73.4737
75.8506
70.4998
54.5042
55.229
57.3277
56.6256
59.6334
58.8309
62.07
61.2901
64.7749
64.1286
84.2725
90.9607
89.1298
67.474
67.9482
71.806
96.5637
118.324
123.504
102.501
94.7837
71.4679
76.3207
76.2243
101.566
109.996
130.321
136.776
144.684
152.701
152.8
156.351
145.892
145.346
141.028
136.938
150.915
154.714
157.584
161.927
161.916
161.209
166.468
159.656
152.306
146.226
141.941
134.237
127.825
118.692
118.625
109.393
81.7389
81.5621
99.1266
100.668
113.535
124.612
134.502
139.211
128.369
122.867
113.027
136.456
146.343
151.099
156.433
161.618
166.372
162.647
157.368
149.339
142.123