/*--------------------------------*- C++ -*----------------------------------*\
| =========                 |                                                 |
| \\      /  F ield         | OpenFOAM: The Open Source CFD Toolbox           |
|  \\    /   O peration     | Version:  v2006                                 |
|   \\  /    A nd           | Website:  www.openfoam.com                      |
|    \\/     M anipulation  |                                                 |
\*---------------------------------------------------------------------------*/
FoamFile
{
    version     2.0;
    format      ascii;
    class       volScalarField;
    location    "0.036";
    object      turbulenceProperties:I;
}
// * * * * * * * * * * * * * * * * * * * * * * * * * * * * * * * * * * * * * //

dimensions      [0 0 0 0 0 0 0];


internalField   nonuniform List<scalar> 
11076
(
0.15
0.15
0.15
0.15
0.15
0.15
0.15
0.149999
0.149998
0.150002
0.150008
0.150013
0.150016
0.150016
0.150015
0.150013
0.150011
0.150009
0.150007
0.150006
0.150005
0.150005
0.150004
0.150004
0.150003
0.150003
0.150003
0.150002
0.150002
0.150002
0.150002
0.150002
0.150002
0.150002
0.150001
0.150001
0.150001
0.150001
0.150001
0.150001
0.150001
0.150001
0.150001
0.15
0.15
0.15
0.15
0.15
0.149999
0.149999
0.149998
0.149997
0.149996
0.149995
0.149997
0.150003
0.150014
0.150027
0.150033
0.150025
0.15001
0.149996
0.149981
0.149977
0.149983
0.149977
0.14998
0.149993
0.150008
0.149871
0.14931
0.144855
0.138055
0.145686
0.148749
0.146532
0.140574
0.13247
0.12817
0.136304
0.14408
0.141264
0.131732
0.124395
0.121758
0.128538
0.138864
0.136167
0.12493
0.119348
0.117727
0.122548
0.134182
0.131789
0.119869
0.116121
0.11519
0.118435
0.130279
0.1282
0.116303
0.114076
0.113539
0.115473
0.12709
0.125313
0.113798
0.112744
0.112436
0.113312
0.124468
0.122933
0.11197
0.111854
0.111683
0.111688
0.122281
0.120941
0.110608
0.111254
0.111171
0.11044
0.120438
0.119251
0.109563
0.110844
0.110815
0.109471
0.118862
0.117798
0.10874
0.11056
0.110571
0.108704
0.117496
0.116541
0.108084
0.110368
0.110407
0.10809
0.116299
0.115445
0.107556
0.110244
0.110303
0.107597
0.115251
0.114483
0.107132
0.110171
0.110247
0.107202
0.114331
0.113636
0.106795
0.11014
0.11023
0.10689
0.113521
0.112892
0.106532
0.110143
0.110245
0.106649
0.11281
0.112238
0.106334
0.110175
0.110288
0.106472
0.112187
0.111666
0.106193
0.110234
0.110356
0.106352
0.111644
0.111171
0.106106
0.110316
0.110448
0.106285
0.111177
0.110749
0.10607
0.110422
0.110565
0.106269
0.110783
0.110398
0.106084
0.110551
0.110704
0.106303
0.11046
0.110116
0.106146
0.110703
0.110868
0.106388
0.110207
0.109902
0.106257
0.110879
0.111056
0.106521
0.110022
0.109756
0.106417
0.11108
0.111269
0.106704
0.109904
0.109676
0.106627
0.111306
0.11151
0.10694
0.109855
0.109665
0.106888
0.11156
0.11178
0.107228
0.109876
0.109724
0.107204
0.111842
0.112078
0.107573
0.10997
0.109857
0.107575
0.112155
0.112409
0.107976
0.110139
0.110064
0.108006
0.112501
0.112776
0.10844
0.110383
0.110347
0.108498
0.112883
0.11318
0.10897
0.110708
0.110716
0.109059
0.113303
0.113622
0.109572
0.111122
0.111174
0.109692
0.113762
0.114116
0.110254
0.111627
0.111725
0.110411
0.114281
0.114665
0.111023
0.112234
0.112382
0.111215
0.114846
0.115261
0.111882
0.112946
0.113135
0.112107
0.115465
0.115914
0.112829
0.113755
0.113995
0.113091
0.116135
0.116613
0.11388
0.114687
0.11499
0.114189
0.11686
0.117401
0.115056
0.115753
0.116116
0.115425
0.117697
0.118294
0.116384
0.11697
0.117421
0.116821
0.118615
0.119259
0.117872
0.118376
0.118906
0.118363
0.119624
0.120354
0.119515
0.119945
0.120531
0.12007
0.120756
0.121496
0.121312
0.121673
0.122336
0.121907
0.121889
0.122702
0.123243
0.123564
0.124293
0.123909
0.12317
0.124064
0.125392
0.125651
0.126513
0.126164
0.124523
0.125467
0.127762
0.128012
0.128957
0.128586
0.125998
0.127084
0.130321
0.130558
0.131553
0.131246
0.127669
0.128731
0.133079
0.133253
0.134314
0.134007
0.129188
0.1302
0.135832
0.136046
0.13707
0.136707
0.130646
0.131613
0.138526
0.138774
0.139743
0.139377
0.13195
0.132766
0.141131
0.141437
0.142369
0.141882
0.133005
0.133825
0.143566
0.144004
0.144852
0.144266
0.134034
0.13475
0.145805
0.146376
0.147035
0.146274
0.134742
0.135152
0.147432
0.14826
0.148615
0.147542
0.134872
0.134956
0.148269
0.149471
0.149451
0.147953
0.134377
0.134092
0.148189
0.149847
0.149476
0.147484
0.133291
0.132811
0.147298
0.149616
0.14912
0.146431
0.132143
0.131576
0.146007
0.149057
0.148319
0.144901
0.130882
0.130228
0.144255
0.148033
0.147101
0.142973
0.129467
0.128808
0.142223
0.146697
0.145689
0.140918
0.128086
0.127332
0.14001
0.145063
0.143811
0.138546
0.126496
0.125781
0.13758
0.143059
0.141694
0.13608
0.124891
0.124212
0.135115
0.140885
0.139532
0.133615
0.12328
0.122585
0.132673
0.138737
0.137494
0.131351
0.121839
0.121421
0.130593
0.13682
0.13569
0.129442
0.120776
0.120396
0.12878
0.135089
0.134065
0.127797
0.119979
0.119577
0.127162
0.133487
0.132719
0.126438
0.119322
0.119012
0.12594
0.132282
0.131496
0.125179
0.118726
0.11845
0.124695
0.131009
0.130217
0.123989
0.118222
0.117921
0.123461
0.129689
0.128955
0.122838
0.117687
0.117401
0.122365
0.128478
0.127767
0.121738
0.1171
0.116829
0.121292
0.127317
0.126636
0.120686
0.116551
0.116386
0.120342
0.12625
0.125643
0.11986
0.116198
0.116036
0.119538
0.125315
0.124691
0.119039
0.115793
0.1156
0.118676
0.12428
0.123823
0.118296
0.11545
0.115226
0.117888
0.123269
0.122889
0.117413
0.115027
0.114715
0.117303
0.122784
0.122823
0.11732
0.114421
0.136015
0.147889
0.157903
0.167349
0.174699
0.180873
0.185902
0.18957
0.192649
0.194741
0.196455
0.197301
0.197717
0.197296
0.196346
0.194365
0.191583
0.18737
0.182756
0.176113
0.164881
0.154919
0.142995
0.129464
0.117408
0.117776
0.120795
0.123866
0.117476
0.116352
0.11617
0.118756
0.126838
0.129224
0.118555
0.115774
0.116569
0.11999
0.131127
0.131671
0.120438
0.117067
0.116961
0.120013
0.132125
0.131979
0.120152
0.117793
0.117627
0.119696
0.131664
0.131479
0.12024
0.118537
0.118377
0.119905
0.131152
0.131406
0.120594
0.119185
0.118962
0.120167
0.131279
0.131438
0.120866
0.119801
0.119565
0.120534
0.131245
0.131362
0.121389
0.120498
0.120275
0.121095
0.131236
0.131469
0.12167
0.121148
0.120902
0.121172
0.131468
0.131223
0.121692
0.121886
0.12167
0.121324
0.131042
0.130987
0.121882
0.122692
0.122463
0.121561
0.130718
0.130961
0.122255
0.123593
0.123386
0.121827
0.130815
0.130889
0.122795
0.124439
0.12415
0.12232
0.130924
0.13096
0.123125
0.125281
0.124989
0.122733
0.130805
0.130718
0.123525
0.12618
0.125874
0.123053
0.130541
0.130509
0.123695
0.127004
0.126696
0.123123
0.130283
0.130072
0.123798
0.127949
0.12764
0.123204
0.129777
0.129801
0.12396
0.12891
0.128577
0.123409
0.129454
0.12967
0.124191
0.129868
0.129493
0.123671
0.129288
0.129488
0.124489
0.130883
0.130506
0.123876
0.129146
0.12929
0.124884
0.131791
0.131346
0.124309
0.128915
0.129047
0.125261
0.132789
0.132338
0.124668
0.128664
0.128909
0.125429
0.133696
0.133194
0.124727
0.128486
0.128488
0.125575
0.134583
0.134003
0.12477
0.128043
0.128064
0.125324
0.135309
0.134661
0.124432
0.127437
0.127413
0.125053
0.136099
0.135393
0.124069
0.126796
0.126985
0.124618
0.136691
0.135871
0.123471
0.126297
0.12622
0.123829
0.137258
0.136321
0.122461
0.125456
0.125027
0.122709
0.137597
0.136429
0.121152
0.123909
0.123263
0.121307
0.137949
0.136711
0.11959
0.121771
0.121094
0.120396
0.138744
0.137817
0.118979
0.119874
0.119494
0.120186
0.140315
0.139758
0.119138
0.118566
0.118282
0.120472
0.142682
0.142178
0.119084
0.117241
0.11666
0.120234
0.145097
0.145215
0.119554
0.115934
0.116093
0.121606
0.149048
0.149436
0.121235
0.115857
0.117245
0.124953
0.154746
0.156322
0.125994
0.119577
0.1256
0.131705
0.164814
0.169541
0.133913
0.13225
0.142573
0.147151
0.193249
0.209962
0.16845
0.147382
0.157107
0.194117
0.225574
0.233544
0.196357
0.158463
0.164406
0.193276
0.22706
0.245537
0.210621
0.173409
0.181573
0.222187
0.254948
0.269102
0.23692
0.189817
0.19802
0.248985
0.280787
0.295315
0.264492
0.207081
0.215522
0.279753
0.310062
0.32816
0.297023
0.223689
0.231091
0.309723
0.341595
0.346699
0.316218
0.236407
0.251948
0.33991
0.366805
0.388732
0.364159
0.263534
0.277484
0.389955
0.417508
0.446302
0.411693
0.286126
0.294639
0.423863
0.460644
0.484254
0.445064
0.306984
0.326039
0.468305
0.50256
0.540326
0.511125
0.355966
0.395651
0.567335
0.590315
0.656277
0.634927
0.445848
0.510303
0.714064
0.72782
0.784388
0.796352
0.601472
0.727793
0.875388
0.828357
0.821643
0.904668
0.859084
0.861816
0.833487
0.758023
0.685148
0.732898
0.729102
0.571159
0.615819
0.583158
0.492132
0.503214
0.45128
0.374525
0.435578
0.433565
0.375888
0.374418
0.31814
0.276378
0.321482
0.319244
0.287141
0.289716
0.24625
0.223085
0.266686
0.265029
0.246677
0.247259
0.203313
0.186361
0.231215
0.229669
0.219813
0.216865
0.172541
0.162214
0.201239
0.209352
0.198172
0.186353
0.155084
0.150361
0.175009
0.188307
0.178171
0.165384
0.147695
0.147069
0.156994
0.165868
0.16204
0.152494
0.147756
0.149823
0.14943
0.15672
0.14754
0.14661
0.151888
0.154386
0.144395
0.147473
0.14558
0.142875
0.156421
0.158173
0.14092
0.138845
0.140845
0.138513
0.158967
0.159465
0.137717
0.138967
0.132129
0.13338
0.159085
0.158187
0.133277
0.139587
0.136478
0.129411
0.156157
0.15398
0.130338
0.144745
0.142194
0.128928
0.151954
0.150433
0.128443
0.139454
0.130468
0.125764
0.149199
0.147278
0.126215
0.135831
0.136222
0.12628
0.145585
0.143416
0.122576
0.127395
0.13462
0.124278
0.141029
0.138988
0.123434
0.131584
0.129647
0.121872
0.13709
0.13598
0.117916
0.121123
0.127158
0.118775
0.132702
0.130793
0.118707
0.125704
0.114053
0.114284
0.127982
0.118998
0.111254
0.121274
0.110669
0.105068
0.117866
0.116504
0.101372
0.10679
0.0931151
0.0955275
0.112399
0.10362
0.0963053
0.100826
0.0979486
0.0932533
0.104405
0.106463
0.086012
0.0836173
0.0985363
0.0911567
0.100129
0.101368
0.0879577
0.0931238
0.088666
0.0853114
0.102037
0.108704
0.0801201
0.0773488
0.090688
0.083383
0.0965292
0.0966454
0.0817763
0.0880253
0.0754053
0.0779956
0.101349
0.0925946
0.081466
0.088959
0.0856301
0.0795528
0.0938542
0.0978627
0.0765216
0.073742
0.0872673
0.0799334
0.0906244
0.091783
0.0777257
0.0838289
0.0724587
0.07485
0.0958877
0.0895642
0.0785666
0.0857427
0.0806139
0.0759183
0.0913591
0.0936519
0.0742012
0.0765561
0.0700347
0.0744336
0.0966828
0.0873911
0.074019
0.0769149
0.074798
0.0719681
0.0895346
0.0964672
0.0703606
0.0670359
0.0750553
0.0703756
0.0863158
0.0886842
0.0694708
0.072762
0.0651704
0.0682264
0.0960341
0.0847237
0.0676995
0.0721199
0.0701171
0.0674592
0.0858744
0.0912766
0.0677425
0.0637566
0.0697711
0.0665756
0.0823468
0.0861988
0.0652073
0.067352
0.060763
0.0647533
0.0957572
0.0838819
0.0627062
0.0662573
0.0651475
0.0638565
0.0855171
0.0930284
0.0641741
0.0606255
0.0655562
0.0623773
0.0821328
0.0867469
0.062625
0.0604414
0.0681696
0.0629748
0.0774297
0.0794136
0.0626697
0.0653959
0.0597608
0.0633959
0.0854408
0.0772773
0.062186
0.0657071
0.0631918
0.0615751
0.0801829
0.0866823
0.0628594
0.0582884
0.0635664
0.0608138
0.0774409
0.0806135
0.0605342
0.061281
0.0580151
0.0627106
0.0874155
0.0774391
0.0593023
0.0608255
0.0584652
0.0584052
0.0805213
0.0868189
0.0643754
0.0567179
0.0576728
0.0582304
0.0772752
0.0832789
0.0618781
0.0551154
0.0589525
0.0569806
0.0750595
0.0791645
0.0560459
0.0559836
0.0545227
0.0623874
0.0854679
0.0753453
0.0559475
0.0555376
0.0538523
0.0551716
0.0785839
0.0856488
0.0619935
0.0536195
0.0549877
0.0538669
0.0756702
0.0819558
0.0572886
0.052978
0.0548333
0.0540965
0.0726438
0.0751479
0.0537681
0.053213
0.0524532
0.05974
0.0803005
0.0717024
0.0538003
0.0534309
0.0513521
0.0534009
0.0760781
0.0837786
0.0611128
0.0517088
0.0513643
0.0516721
0.0732718
0.0790879
0.0581797
0.0501738
0.0512224
0.051414
0.0703399
0.0747769
0.0510487
0.049042
0.0500093
0.0603466
0.0819724
0.0720857
0.0502315
0.0493362
0.0486317
0.0560576
0.0778802
0.0689539
0.0500073
0.049537
0.0478983
0.0499364
0.0727788
0.079299
0.0581487
0.0486931
0.049148
0.050331
0.0702798
0.0745025
0.0504543
0.0473954
0.0490549
0.060291
0.0807607
0.0708661
0.0486526
0.0470421
0.0470104
0.0554764
0.0767657
0.0680757
0.0482562
0.0474037
0.0455583
0.0484514
0.072493
0.0798496
0.0587513
0.0474252
0.0455839
0.04703
0.0701757
0.0771323
0.0538893
0.04562
0.045642
0.0464875
0.0676568
0.0717671
0.0468702
0.043909
0.0461389
0.0581399
0.0783598
0.0684935
0.0458533
0.0440913
0.0445061
0.0534068
0.0754521
0.0668736
0.0457389
0.0447514
0.0431058
0.0462119
0.0713226
0.0783991
0.0576632
0.0454415
0.0433305
0.0449966
0.0684011
0.0750993
0.0527268
0.0437833
0.0436293
0.044673
0.0658898
0.0700363
0.0453088
0.0421501
0.0447656
0.0572101
0.0770838
0.0677537
0.0446047
0.0427025
0.0433374
0.0525817
0.0748041
0.0656494
0.0442543
0.0431905
0.0416578
0.0449643
0.0700681
0.0773348
0.0571412
0.044408
0.0421185
0.0440747
0.0676135
0.0746829
0.0521493
0.0427654
0.0424236
0.043587
0.0656047
0.0699919
0.0444179
0.041019
0.0439305
0.0570743
0.0770725
0.0672881
0.0437075
0.0416201
0.0424512
0.0521166
0.0744284
0.0653915
0.0432979
0.0420834
0.0406601
0.0441668
0.0698145
0.0770803
0.057025
0.0437231
0.0412407
0.0434292
0.0671417
0.0743076
0.0519786
0.0420943
0.0414959
0.0427659
0.0648725
0.0693121
0.0437714
0.0401383
0.0432869
0.056588
0.0765486
0.0669096
0.0429963
0.0407786
0.0418472
0.0519896
0.0741655
0.0648763
0.0425382
0.0411629
0.0398402
0.0435541
0.0693898
0.0768242
0.0567323
0.043173
0.0405556
0.0428334
0.0670427
0.0742676
0.0516991
0.0416141
0.0406929
0.0420684
0.0648016
0.0692678
0.0430755
0.0393706
0.042833
0.0564063
0.0766126
0.0667944
0.0424623
0.0401654
0.0414267
0.0518101
0.0741094
0.0646986
0.0418861
0.0403953
0.0391227
0.0429864
0.0691725
0.0766622
0.0564454
0.0426859
0.0399599
0.0423175
0.0667723
0.074104
0.051644
0.0412582
0.0400277
0.0415602
0.0645739
0.0690117
0.0425824
0.0387552
0.0424117
0.0562923
0.0764378
0.0663593
0.0420824
0.0396391
0.0411107
0.0517952
0.0736963
0.0642608
0.0413828
0.0397771
0.0385932
0.0425885
0.068906
0.0765403
0.0562195
0.042349
0.0394993
0.0419381
0.0666013
0.0739884
0.0513734
0.0409346
0.0394632
0.0410459
0.0642483
0.0686247
0.0421217
0.0382193
0.0420332
0.0558383
0.0759992
0.0660899
0.0415472
0.0391186
0.0407426
0.0514566
0.0735392
0.0642934
0.0409615
0.0392699
0.0381209
0.0421189
0.0688382
0.0763747
0.0561029
0.0421726
0.0390041
0.0415587
0.0662406
0.073565
0.0511701
0.0405927
0.0389295
0.0405946
0.063806
0.0680019
0.041587
0.037696
0.0417709
0.0555166
0.0754593
0.0657612
0.0412499
0.0386802
0.040465
0.05122
0.0732204
0.0638846
0.0405446
0.0388197
0.0377179
0.0417552
0.0683562
0.0758299
0.0555335
0.0418539
0.0385431
0.0410834
0.0657885
0.0729989
0.0508374
0.0401863
0.0384304
0.0401211
0.0628526
0.0670446
0.0411192
0.0372527
0.0409753
0.0546311
0.0746784
0.0650379
0.041271
0.0382966
0.0374774
0.0420688
0.069626
0.0773868
0.0562929
0.0421364
0.038131
0.0408967
0.0666164
0.0739046
0.0511194
0.0402357
0.037887
0.0397553
0.0636131
0.0678053
0.0407093
0.0367237
0.0414081
0.0552564
0.0754924
0.0653955
0.040442
0.0375685
0.0397617
0.0507386
0.0728174
0.0629829
0.0394727
0.0375983
0.0365775
0.0407228
0.0672415
0.0744856
0.0544593
0.0406934
0.0372493
0.0404745
0.0644233
0.0685928
0.0408071
0.0363047
0.0413591
0.0555802
0.0765059
0.0659252
0.0399403
0.0369697
0.0397372
0.0508428
0.073586
0.0635329
0.0390072
0.0368063
0.0358719
0.0402997
0.0678818
0.0751965
0.0544901
0.0403885
0.0364088
0.0399543
0.0646977
0.0689146
0.0403342
0.0355133
0.0407591
0.0552019
0.0765948
0.0654171
0.0391088
0.0360839
0.0390553
0.0504739
0.0730937
0.0630063
0.038273
0.0359166
0.0351403
0.0396504
0.0673271
0.0745853
0.0541376
0.0397993
0.0357529
0.0393899
0.0640607
0.0684227
0.0400705
0.0349365
0.0402783
0.0544139
0.0758145
0.06471
0.0384516
0.0354571
0.0387205
0.0500886
0.0725159
0.0626051
0.0378335
0.035271
0.034553
0.0391109
0.0669226
0.0741313
0.0535208
0.0393011
0.0350689
0.038783
0.0633933
0.0675532
0.0393587
0.034233
0.0391822
0.0536192
0.0747835
0.0636394
0.0383712
0.0346352
0.0339631
0.03914
0.0683736
0.076447
0.0542918
0.0393565
0.0346464
0.038667
0.0650231
0.0692847
0.039425
0.0338879
0.0394654
0.0547402
0.0766817
0.0646179
0.0385221
0.0343704
0.0334161
0.0383923
0.0682038
0.0762667
0.0542918
0.0392105
0.0340668
0.038298
0.0650308
0.0696709
0.0391477
0.0334298
0.039412
0.0547668
0.0773983
0.0652631
0.0383312
0.0340003
0.0330806
0.0387065
0.0693517
0.0764104
0.0538586
0.0387999
0.0331968
0.0372293
0.0641984
0.0690661
0.0381719
0.0325932
0.0388403
0.0543018
0.0771802
0.065168
0.0378676
0.0333497
0.0325835
0.0382581
0.0693325
0.0764893
0.0537017
0.0384635
0.0327656
0.0367311
0.0629144
0.0666708
0.0373142
0.0319004
0.0380292
0.0532715
0.0750942
0.06378
0.037203
0.0327098
0.0320149
0.0375544
0.0678759
0.0749456
0.0523013
0.0373484
0.0320879
0.0360784
0.0618282
0.0641909
0.0372874
0.0310859
0.0308349
0.0395268
0.0693485
0.0777785
0.0551002
0.0385108
0.0322224
0.0371806
0.0652141
0.0689297
0.039265
0.0315061
0.0306465
0.0381713
0.07166
0.0791624
0.0549474
0.0382435
0.0312972
0.0364084
0.0658071
0.0695983
0.0382959
0.0307846
0.0304482
0.0398479
0.0743707
0.0805137
0.0555362
0.0383917
0.0308249
0.0359177
0.0653402
0.0697815
0.0379981
0.0301314
0.029675
0.0385065
0.0746439
0.0815172
0.054343
0.0370448
0.0299489
0.0347273
0.0636562
0.0674113
0.0355643
0.0289947
0.0284111
0.0363465
0.0716714
0.0766889
0.040687
0.0287081
0.0278381
0.0391994
0.0786402
0.0860017
0.0575222
0.0376412
0.0297722
0.036128
0.0688948
0.0723018
0.0352147
0.0288887
0.0288353
0.0399003
0.0764715
0.081394
0.0388904
0.0284521
0.028619
0.0421459
0.0855689
0.0911923
0.0420063
0.0285922
0.0294387
0.0456535
0.0963163
0.101871
0.0475458
0.0301543
0.0312482
0.0508516
0.106203
0.108166
0.0524623
0.0317977
0.032824
0.0553155
0.109217
0.109703
0.0569159
0.0332593
0.0345109
0.0600099
0.109966
0.109934
0.0618337
0.0350007
0.036569
0.0652956
0.10988
0.109757
0.066996
0.0371222
0.0389926
0.0700693
0.109669
0.109588
0.0719719
0.0396696
0.0418447
0.0744702
0.109522
0.109509
0.0764653
0.0426217
0.0451945
0.0783729
0.109476
0.109506
0.0801975
0.0460532
0.0487563
0.0818875
0.1095
0.10957
0.083501
0.0495864
0.0522849
0.0850458
0.109581
0.109705
0.086513
0.0531487
0.0558228
0.0878932
0.109713
0.109905
0.0892022
0.0566621
0.0593324
0.0904328
0.109864
0.110107
0.0915852
0.0601383
0.0626767
0.0926661
0.110034
0.110304
0.0936209
0.0633836
0.0657776
0.0945767
0.110229
0.110469
0.0953874
0.066399
0.068607
0.0962141
0.110438
0.110623
0.0968543
0.06911
0.0711494
0.0975731
0.110641
0.11077
0.0981085
0.0715563
0.0734064
0.0986854
0.11081
0.110883
0.0990932
0.0736745
0.0753521
0.0995781
0.110932
0.110964
0.0999034
0.0755615
0.0770542
0.100306
0.111018
0.111019
0.100529
0.0771739
0.0785108
0.100855
0.111054
0.111032
0.101017
0.0785648
0.0797447
0.101282
0.11106
0.11104
0.101367
0.0797303
0.0807853
0.101574
0.111042
0.111013
0.10162
0.08072
0.0816474
0.101782
0.111007
0.110972
0.101771
0.0815296
0.0823585
0.101892
0.110947
0.110904
0.101856
0.0822049
0.0829339
0.101944
0.110875
0.110829
0.101865
0.0827421
0.0833952
0.101923
0.110786
0.110734
0.101831
0.0831802
0.0837569
0.101867
0.110691
0.110639
0.101742
0.0835156
0.0840356
0.101757
0.110584
0.110526
0.101628
0.0837807
0.0842431
0.101627
0.110474
0.110417
0.101472
0.0839712
0.0843924
0.101459
0.110359
0.110297
0.101306
0.0841133
0.08449
0.10128
0.110241
0.110179
0.101105
0.0841984
0.0845523
0.101073
0.110119
0.110055
0.100906
0.0842537
0.0845783
0.100867
0.109999
0.109937
0.100683
0.0842667
0.0845724
0.100639
0.109877
0.109814
0.100464
0.0842566
0.0845378
0.100415
0.109758
0.109695
0.100226
0.0842111
0.084473
0.100175
0.109638
0.109574
0.0999936
0.0841398
0.0843753
0.0999403
0.109521
0.109457
0.0997443
0.0840311
0.0842511
0.0996894
0.109404
0.109339
0.0995028
0.0839049
0.0841056
0.099445
0.109292
0.109225
0.099244
0.0837497
0.0839442
0.0991867
0.109178
0.109111
0.0989983
0.0835889
0.0837714
0.0989392
0.10907
0.109003
0.0987402
0.0834075
0.0835875
0.0986834
0.108963
0.108893
0.0984985
0.0832222
0.0833938
0.0984414
0.10886
0.108791
0.0982453
0.0830259
0.0831981
0.0981905
0.108759
0.108689
0.0980102
0.0828343
0.0829998
0.0979589
0.108664
0.108594
0.0977683
0.0826369
0.0828049
0.0977209
0.108571
0.1085
0.097547
0.0824479
0.0826101
0.0975034
0.108483
0.108414
0.0973224
0.0822569
0.0824232
0.097284
0.108399
0.10833
0.09712
0.0820771
0.0822381
0.097085
0.108321
0.108253
0.0969156
0.0818967
0.0820621
0.0968861
0.108246
0.108178
0.0967326
0.0817266
0.0818875
0.0967065
0.108176
0.10811
0.0965474
0.0815569
0.0817228
0.0965267
0.108109
0.108043
0.0963831
0.081398
0.0815597
0.0963656
0.108047
0.107983
0.0962161
0.0812398
0.0814068
0.0962037
0.107988
0.107923
0.0960693
0.0810924
0.0812555
0.0960597
0.107933
0.10787
0.095919
0.0809457
0.0811144
0.0959142
0.107881
0.107818
0.0957879
0.0808097
0.0809745
0.0957855
0.107832
0.107771
0.0956523
0.0806736
0.0808443
0.0956543
0.107785
0.107724
0.0955353
0.0805491
0.0807157
0.0955393
0.107742
0.107682
0.0954131
0.0804241
0.0805965
0.0954213
0.107701
0.10764
0.0953087
0.0803094
0.0804778
0.0953185
0.107662
0.107603
0.0951983
0.0801936
0.0803684
0.095212
0.107625
0.107566
0.0951052
0.0800896
0.0802601
0.0951203
0.107591
0.107533
0.0950054
0.0799813
0.0801595
0.0950241
0.107558
0.1075
0.0949223
0.0798863
0.0800603
0.094942
0.107528
0.107471
0.094832
0.0797871
0.0799689
0.0948551
0.107498
0.107441
0.0947579
0.0797009
0.0798784
0.0947819
0.107471
0.107415
0.0946762
0.0796101
0.0797954
0.0947034
0.107445
0.107389
0.0946103
0.0795321
0.0797129
0.0946383
0.107421
0.107366
0.0945364
0.0794491
0.0796376
0.0945674
0.107398
0.107342
0.094478
0.0793786
0.0795625
0.0945095
0.107376
0.107322
0.0944112
0.0793027
0.0794943
0.0944455
0.107355
0.107301
0.0943594
0.0792392
0.0794261
0.0943941
0.107336
0.107283
0.094299
0.0791701
0.0793646
0.0943365
0.107318
0.107264
0.0942534
0.0791131
0.0793027
0.0942911
0.107301
0.107249
0.0941988
0.0790497
0.0792469
0.0942389
0.107284
0.107232
0.0941586
0.0789987
0.0791908
0.0941988
0.107269
0.107218
0.094109
0.0789409
0.0791405
0.0941516
0.107255
0.107202
0.0940735
0.078895
0.0790894
0.0941159
0.107241
0.10719
0.0940282
0.0788422
0.0790437
0.0940727
0.107227
0.107175
0.0939963
0.0788003
0.0789963
0.0940404
0.107214
0.107163
0.0939541
0.0787509
0.078954
0.0940001
0.107201
0.107149
0.0939249
0.0787123
0.0789098
0.0939702
0.107189
0.107138
0.0938848
0.0786657
0.0788701
0.0939318
0.107176
0.107124
0.0938574
0.0786298
0.0788282
0.0939035
0.107164
0.107112
0.0938187
0.0785851
0.0787903
0.0938664
0.107151
0.107098
0.0937924
0.0785508
0.07875
0.0938392
0.107138
0.107087
0.0937547
0.0785077
0.0787136
0.0938028
0.107126
0.107073
0.0937291
0.0784748
0.0786746
0.0937763
0.107113
0.107061
0.093692
0.0784328
0.0786392
0.0937406
0.107101
0.107048
0.0936671
0.0784009
0.0786011
0.0937148
0.107089
0.107037
0.093631
0.0783601
0.078567
0.0936802
0.107077
0.107024
0.0936072
0.0783292
0.07853
0.0936555
0.107066
0.107014
0.0935719
0.0782892
0.0784963
0.0936214
0.107054
0.107
0.0935482
0.0782586
0.0784594
0.0935964
0.107041
0.106988
0.0935116
0.0782177
0.0784244
0.0935589
0.107026
0.10697
0.0934723
0.0781809
0.0783743
0.0935182
0.107006
0.106934
0.093436
0.0781322
0.0783226
0.0934723
0.106964
0.106898
0.0933671
0.0780709
0.0782462
0.0933934
0.106924
0.106817
0.093239
0.0779327
0.0780173
0.0932333
0.106833
0.10654
0.0929087
0.0774681
0.0770301
0.0926001
0.10636
0.105694
0.0915774
0.0759358
0.0738079
0.0901283
0.10489
0.103611
0.0883897
0.0718416
0.0693414
0.0868637
0.102456
0.0536543
0.0463371
0.0458933
0.0486802
0.0530477
0.0550861
0.0563213
0.0598106
0.0619667
0.0626985
0.0629301
0.0629133
0.0627486
0.0625104
0.0622643
0.0620444
0.0618617
0.061715
0.0615991
0.0615079
0.0614362
0.0613795
0.0613347
0.0612989
0.0612707
0.0612483
0.0612316
0.0612193
0.0612112
0.0612065
0.0612043
0.0612036
0.0612029
0.0612018
0.0612004
0.0611987
0.0611969
0.0611952
0.0611937
0.0611927
0.0611923
0.0611928
0.0611945
0.0611976
0.0612022
0.0612082
0.0612156
0.0612234
0.0612316
0.0612429
0.0612608
0.0612854
0.061315
0.0613484
0.0613866
0.0614309
0.0614824
0.0615416
0.0616088
0.0616837
0.0617658
0.0618549
0.0619508
0.0620539
0.0621651
0.0622858
0.0624176
0.0625623
0.0627217
0.0628979
0.063093
0.0633094
0.0635493
0.0638152
0.0641096
0.0644351
0.0647939
0.0651888
0.0656218
0.0660952
0.0666107
0.0671701
0.0677744
0.0684249
0.0691219
0.0698655
0.0706557
0.071492
0.0723734
0.0732988
0.0742672
0.0752762
0.0763249
0.0774106
0.0785317
0.079686
0.0808708
0.0820845
0.0833242
0.0845877
0.0858733
0.0871777
0.0884998
0.0898364
0.0911861
0.0925467
0.0939155
0.0952913
0.096672
0.0980552
0.0994399
0.100823
0.102205
0.103583
0.104955
0.10632
0.107676
0.109024
0.110359
0.111683
0.112993
0.114288
0.115568
0.11683
0.118075
0.119301
0.120509
0.121695
0.122861
0.124004
0.125126
0.126224
0.127299
0.12835
0.129376
0.130378
0.131355
0.132306
0.133231
0.134131
0.135005
0.135853
0.136674
0.13747
0.13824
0.138983
0.139701
0.140393
0.141059
0.1417
0.142315
0.142906
0.143471
0.144012
0.144529
0.145021
0.14549
0.145936
0.146358
0.146757
0.147133
0.147486
0.147817
0.148126
0.148412
0.148676
0.148918
0.149136
0.149331
0.149499
0.149641
0.149755
0.149843
0.149909
0.14996
0.149989
0.149998
0.15
0.15
0.15
0.149998
0.149994
0.149983
0.149965
0.149953
0.149955
0.149966
0.14998
0.14999
0.149995
0.149997
0.149996
0.149994
0.149992
0.149991
0.14999
0.14999
0.14999
0.14999
0.14999
0.14999
0.14999
0.149991
0.149991
0.149992
0.149993
0.149994
0.149995
0.149997
0.149998
0.15
0.150002
0.150004
0.150006
0.150008
0.15001
0.150013
0.150015
0.150018
0.150021
0.150024
0.150028
0.150031
0.150035
0.15004
0.150044
0.150051
0.150061
0.150079
0.150107
0.150145
0.150181
0.150191
0.150159
0.150094
0.150018
0.149946
0.149869
0.149738
0.149182
0.148437
0.146333
0.145058
0.144005
0.142672
0.141711
0.140406
0.139556
0.1383
0.137558
0.136356
0.135717
0.134574
0.134035
0.132952
0.132492
0.131467
0.131078
0.13011
0.129785
0.128872
0.1286
0.127743
0.127513
0.126714
0.126522
0.125775
0.12562
0.124921
0.124799
0.124146
0.124057
0.123447
0.123391
0.122823
0.1228
0.122275
0.122285
0.121801
0.121843
0.121399
0.121474
0.121069
0.121178
0.120812
0.120955
0.120629
0.120809
0.120525
0.120742
0.120499
0.120755
0.120551
0.120849
0.120687
0.121028
0.120911
0.1213
0.121228
0.121669
0.121648
0.122147
0.122178
0.122733
0.122813
0.123429
0.123562
0.124246
0.124438
0.125197
0.125458
0.126305
0.126645
0.127586
0.128002
0.129032
0.129514
0.13063
0.13117
0.132379
0.133001
0.134331
0.135061
0.136512
0.137317
0.138865
0.139728
0.14136
0.142247
0.143906
0.144769
0.146412
0.147241
0.148872
0.149657
0.151258
0.15197
0.153489
0.154044
0.155327
0.155615
0.156601
0.15659
0.157209
0.156877
0.157256
0.156846
0.157059
0.156525
0.156546
0.155893
0.155832
0.155158
0.154835
0.15387
0.153361
0.152231
0.151667
0.150569
0.150035
0.148982
0.148453
0.147453
0.146967
0.146029
0.145595
0.144903
0.144565
0.143876
0.143479
0.142676
0.142205
0.14144
0.141034
0.140292
0.139884
0.139188
0.138843
0.138211
0.137887
0.13715
0.136765
0.136216
0.135722
0.135612
0.135515
0.147511
0.147308
0.157591
0.15791
0.167827
0.168172
0.171234
0.156656
0.147145
0.147214
0.155467
0.158353
0.148131
0.148138
0.156657
0.172225
0.173604
0.15947
0.149252
0.149159
0.157639
0.160438
0.150202
0.150106
0.158548
0.174742
0.175859
0.161437
0.151217
0.151169
0.159589
0.162529
0.152308
0.152224
0.160657
0.177069
0.178196
0.163551
0.153322
0.15326
0.161559
0.164458
0.154372
0.154274
0.162434
0.179228
0.180225
0.16535
0.155372
0.155218
0.163333
0.166258
0.156283
0.156141
0.164228
0.181216
0.182144
0.167171
0.157271
0.15715
0.165081
0.168062
0.15832
0.158339
0.166079
0.183093
0.184137
0.169148
0.159645
0.159652
0.167228
0.170314
0.161011
0.160974
0.168354
0.18523
0.186266
0.171397
0.162319
0.162218
0.169459
0.172375
0.163405
0.16315
0.17038
0.187167
0.187915
0.173134
0.164172
0.163735
0.171058
0.173768
0.16478
0.164253
0.171572
0.188602
0.189134
0.174307
0.165276
0.164635
0.172022
0.174738
0.165602
0.164815
0.172284
0.189471
0.189414
0.174929
0.165734
0.164684
0.172202
0.174575
0.165327
0.163904
0.171508
0.188769
0.187458
0.173592
0.164272
0.162548
0.170252
0.172075
0.162681
0.16073
0.168531
0.185584
0.183319
0.170142
0.160713
0.158655
0.166518
0.167976
0.158545
0.156446
0.164354
0.180806
0.178172
0.165679
0.156263
0.154141
0.162066
0.163283
0.153893
0.151761
0.15969
0.175422
0.17259
0.160796
0.151457
0.149353
0.157264
0.158288
0.149038
0.147018
0.154872
0.169794
0.167115
0.155869
0.146728
0.144822
0.152618
0.153613
0.144587
0.142812
0.150554
0.164631
0.162351
0.151568
0.142652
0.141007
0.148683
0.149707
0.140901
0.13936
0.146968
0.160248
0.158307
0.147987
0.13929
0.137847
0.145388
0.146415
0.137826
0.136488
0.143962
0.15653
0.154927
0.145008
0.136527
0.135294
0.142699
0.143767
0.135395
0.13426
0.141596
0.153496
0.152223
0.142683
0.134418
0.133371
0.140639
0.141738
0.133579
0.132607
0.139805
0.151089
0.150073
0.140911
0.132856
0.131952
0.139076
0.140191
0.13224
0.131402
0.138455
0.149169
0.148377
0.139581
0.131734
0.130962
0.137943
0.139079
0.131339
0.130627
0.137534
0.147694
0.147111
0.138676
0.131044
0.130387
0.137216
0.138358
0.13084
0.130232
0.136979
0.146615
0.146198
0.13812
0.130717
0.130157
0.136819
0.137956
0.130673
0.130157
0.136732
0.145855
0.145579
0.137862
0.130704
0.13023
0.136715
0.137837
0.130807
0.130374
0.136765
0.145367
0.145213
0.137877
0.130981
0.13059
0.136879
0.137978
0.131224
0.130874
0.137053
0.145113
0.145065
0.138137
0.131532
0.131222
0.137286
0.138353
0.131904
0.131635
0.137576
0.145065
0.145109
0.138625
0.13234
0.13211
0.137918
0.13895
0.132839
0.132648
0.138312
0.145195
0.145317
0.139326
0.133401
0.13325
0.138759
0.139755
0.134026
0.133915
0.139262
0.14547
0.145648
0.140243
0.134711
0.134637
0.139808
0.14077
0.135453
0.135417
0.140395
0.14586
0.146101
0.141335
0.136252
0.136255
0.141023
0.141939
0.137109
0.137153
0.141689
0.146371
0.146667
0.142578
0.138026
0.138114
0.142393
0.143251
0.139004
0.139138
0.143133
0.146987
0.147328
0.143954
0.140045
0.14023
0.143918
0.144684
0.141145
0.141386
0.144726
0.147681
0.148046
0.145433
0.142284
0.142606
0.145557
0.146204
0.14348
0.143878
0.146401
0.148422
0.148797
0.146983
0.144718
0.14518
0.147241
0.147754
0.145975
0.146496
0.148056
0.149158