/*--------------------------------*- C++ -*----------------------------------*\
| =========                 |                                                 |
| \\      /  F ield         | OpenFOAM: The Open Source CFD Toolbox           |
|  \\    /   O peration     | Version:  v2006                                 |
|   \\  /    A nd           | Website:  www.openfoam.com                      |
|    \\/     M anipulation  |                                                 |
\*---------------------------------------------------------------------------*/
FoamFile
{
    version     2.0;
    format      ascii;
    class       volScalarField;
    location    "0.036";
    object      yPlus;
}
// * * * * * * * * * * * * * * * * * * * * * * * * * * * * * * * * * * * * * //

dimensions      [0 0 0 0 0 0 0];


internalField   uniform 0;

boundaryField
{
    bottomEmptyFaces
    {
        type            empty;
    }
    topEmptyFaces
    {
        type            empty;
    }
    inlet
    {
        type            calculated;
        value           uniform 0;
    }
    outlet
    {
        type            calculated;
        value           uniform 0;
    }
    walls
    {
        type            calculated;
        value           nonuniform List<scalar> 
768
(
23.3505
23.3766
23.3542
23.3915
23.3753
23.4155
23.4028
23.4485
23.4369
23.4849
23.4739
23.5234
23.5129
23.5633
23.5533
23.604
23.5945
23.6455
23.6364
23.6874
23.6787
23.7297
23.7213
23.7724
23.7643
23.8152
23.8073
23.8581
23.8506
23.9011
23.8937
23.944
23.9367
23.9865
23.9793
24.0286
24.0214
24.0699
24.0626
24.11
24.1025
24.1486
24.1408
24.1852
24.1771
24.2199
24.2113
24.2523
24.2434
24.2826
24.2733
24.3107
24.301
24.3366
24.3265
24.3604
24.3499
24.3824
24.3715
24.4026
24.3915
24.4212
24.4099
24.4383
24.4268
24.4542
24.4425
24.4688
24.457
24.4825
24.4705
24.495
24.483
24.5068
24.4947
24.5177
24.5055
24.5279
24.5156
24.5374
24.5251
24.5464
24.534
24.5547
24.5423
24.5627
24.5502
24.57
24.5575
24.5771
24.5645
24.5836
24.571
24.5898
24.5771
24.5955
24.5828
24.601
24.5883
24.6061
24.5933
24.611
24.5982
24.6156
24.6027
24.6199
24.6069
24.6239
24.6109
24.6277
24.6146
24.6313
24.6181
24.6347
24.6214
24.6378
24.6245
24.6407
24.6274
24.6435
24.6301
24.6461
24.6327
24.6486
24.6352
24.6509
24.6376
24.6533
24.6399
24.6556
24.6423
24.6579
24.6446
24.6603
24.6471
24.6628
24.6496
24.6653
24.6523
24.668
24.6551
24.6709
24.658
24.6738
24.6611
24.6769
24.6643
24.6801
24.6675
24.6833
24.6708
24.6867
24.6742
24.6902
24.6778
24.6939
24.6816
24.6982
24.6858
24.7206
24.7219
24.7412
24.7297
24.7767
24.8483
25.0345
25.5066
26.4045
28.3494
30.5419
13.6407
13.982
12.0307
10.4769
14.3677
15.6729
12.9784
11.0297
12.3127
10.5425
17.6356
15.1545
15.1412
13.0566
13.3925
17.0526
16.3328
14.1336
14.0442
12.1516
12.4183
16.5558
12.3169
12.6175
14.5744
14.3151
17.1905
12.7519
13.077
14.721
14.6347
12.6052
12.9814
15.034
14.8694
12.9775
12.5546
14.9387
13.9808
10.8589
10.7391
13.0086
12.4056
14.2053
11.986
11.3587
10.935
10.862
12.9979
10.2215
9.8685
14.2134
14.0132
11.894
10.8943
12.3685
11.431
13.007
11.3002
10.0566
13.0462
11.1367
10.1298
13.3087
11.2361
10.2208
12.9838
10.9415
9.51513
13.222
11.2336
10.5147
14.0137
13.6667
11.6862
10.98
12.8742
12.226
14.9597
11.929
11.4018
10.6762
10.39
11.8574
10.9021
14.9346
13.0828
12.7432
11.217
11.2629
15.8224
15.9632
11.8998
12.1409
13.6745
13.5153
11.6886
11.9343
15.2783
11.4808
11.593
13.5437
13.2975
15.7284
13.4822
13.0445
15.1684
11.4262
11.4912
12.5707
12.0191
13.9806
13.7181
26.0855
21.6333
20.9977
23.5159
23.0137
19.4807
19.3569
21.8609
19.806
19.7079
16.7312
17.1918
18.2578
18.0042
23.4511
18.7651
18.3845
22.5576
17.323
17.7712
24.4044
20.5879
20.4607
19.5632
19.1505
25.1444
21.0435
20.4095
25.446
20.6332
20.1345
21.4035
21.2876
17.9812
18.3824
24.955
71.2571
73.2934
71.5147
20.5177
19.9598
25.2853
21.2361
20.5971
25.5078
20.8203
20.3671
25.9035
21.4109
20.8558
32.9041
55.872
50.5601
51.945
65.7133
57.8544
59.4405
49.2433
43.0042
34.8471
36.9818
175.23
136.683
154.101
124.593
101.558
108.896
201.611
221.086
253.885
280.54
321.347
333.692
92.6052
79.1266
85.3261
75.2722
70.8665
70.4751
343.562
332.386
307.7
272.596
199.046
223.026
165.783
123.909
144.761
112.831
94.5137
78.509
84.2981
75.7777
68.803
61.9812
58.6043
57.7546
70.9668
63.3425
17.7197
15.1848
20.958
14.2325
12.0859
9.71119
14.2006
13.209
10.6722
15.9605
13.1099
11.7997
10.2175
77.4774
76.3556
73.2699
72.1519
68.4117
72.7195
69.9046
64.4057
58.9387
53.0043
28.9903
25.2006
23.9575
27.1912
22.5228
22.0358
26.5742
22.2327
21.5674
27.4301
47.1862
23.5735
22.6523
40.2481
33.7903
34.4297
34.4351
31.7569
23.9532
31.4824
15.0416
27.9956
24.8102
23.2738
13.3631
12.2347
27.7666
25.4247
23.3596
32.621
29.0061
11.3231
10.806
10.3548
10.1219
9.82465
9.67146
9.52118
9.42027
32.9242
30.0647
27.4499
25.5981
36.2243
35.2699
33.7919
30.3701
37.4994
36.0981
36.1841
28.8199
26.1776
36.0002
36.5391
36.5787
36.5755
25.2345
23.7305
36.3268
35.3681
34.3616
33.2459
32.2378
31.214
30.3265
29.4712
28.7311
28.0388
27.4306
26.8801
26.3865
25.949
25.5534
25.2115
24.8966
24.639
24.3881
24.2059
23.9987
23.894
23.7233
23.6778
23.5417
23.5306
23.4304
23.4398
23.3717
23.3936
23.3384
23.3747
9.27643
9.18245
9.02639
8.97069
8.88408
8.85483
8.74347
8.69195
8.58862
8.5498
8.4518
8.43191
8.3362
8.32326
8.2477
8.2514
8.18484
8.18219
8.11647
8.11701
8.0416
8.03832
7.96733
7.96861
7.90274
7.90134
7.83156
7.83687
7.76912
7.77216
7.72402
7.72881
7.69099
7.69944
7.65065
7.65533
7.60287
7.6091
7.54858
7.53549
7.48193
7.48158
7.42419
7.43832
7.39672
7.41124
7.37515
7.37717
7.31468
7.31704
7.25965
7.26213
7.20613
7.20064
7.14891
7.16163
7.13244
7.16007
7.18928
7.25004
7.35247
7.66562
8.38671
9.19766
19.6742
18.8808
16.1831
16.2695
13.9738
14.4391
19.0109
14.2111
14.5241
16.7417
16.6271
20.5078
17.8036
17.8076
15.2258
15.6771
21.8163
18.6576
18.6413
20.8954
17.4654
17.1429
15.9049
16.2504
20.8833
15.6749
16.071
18.4426
18.3083
19.922
14.8405
15.2712
16.9804
16.9726
14.5661
15.0618
17.5013
17.3821
18.2423
18.4055
13.7225
14.0615
15.7129
15.6681
13.4945
13.9203
17.7795
13.222
13.59
15.5442
15.3844
16.0805
15.9859
21.9573
16.4422
16.9295
9.98865
32.7004
49.7224
46.1631
43.6425
41.9692
40.6428
39.4478
38.4159
37.5498
36.9339
36.2817
35.8395
35.3289
34.9919
34.5779
34.3074
33.9615
33.7339
33.4355
33.238
32.974
32.798
32.5593
32.3989
32.179
32.0302
31.8247
31.6844
31.49
31.3563
31.1705
31.0418
30.8628
30.7378
30.564
30.4416
30.2717
30.1511
29.984
29.8645
29.6993
29.5802
29.416
29.2967
29.1326
29.0125
28.8478
28.7262
28.5602
28.4367
28.2686
28.1426
27.972
27.8435
27.6696
27.538
27.3601
27.2243
27.0419
26.9028
26.7154
26.5716
26.3761
26.2245
26.0205
25.8625
25.6498
25.4837
25.2597
25.0838
24.852
24.6719
24.4293
24.2396
23.9825
23.7845
23.5203
23.3154
23.0383
22.8196
22.5285
22.302
22.0014
21.7666
21.4482
21.2037
20.8791
20.6358
20.3102
20.0655
19.7235
19.4698
19.1349
18.8974
18.5806
18.3493
18.0373
17.824
17.5453
17.3683
17.1204
16.9694
16.7519
16.6381
16.4731
16.3967
16.2704
16.2248
16.1475
16.1404
16.1127
16.1165
16.1059
16.1102
16.1079
16.1177
16.1226
16.1294
16.1486
16.1644
16.179
16.2002
16.2122
16.2313
16.257
16.2934
16.3057
16.3326
16.3451
16.363
16.3759
16.3921
16.3991
16.4305
16.4404
16.4747
16.4867
16.5093
16.5147
16.5358
16.547
16.5661
16.5746
16.5878
16.6055
16.606
16.6547
16.6098
16.809
17.2526
54.1502
17.7844
)
;
    }
    rightWall
    {
        type            calculated;
        value           uniform 0;
    }
    symmetryLine
    {
        type            symmetryPlane;
    }
}


// ************************************************************************* //
