/*--------------------------------*- C++ -*----------------------------------*\
| =========                 |                                                 |
| \\      /  F ield         | OpenFOAM: The Open Source CFD Toolbox           |
|  \\    /   O peration     | Version:  v2006                                 |
|   \\  /    A nd           | Website:  www.openfoam.com                      |
|    \\/     M anipulation  |                                                 |
\*---------------------------------------------------------------------------*/
FoamFile
{
    version     2.0;
    format      ascii;
    class       volScalarField;
    location    "0.052";
    object      nut;
}
// * * * * * * * * * * * * * * * * * * * * * * * * * * * * * * * * * * * * * //

dimensions      [0 2 -1 0 0 0 0];


internalField   nonuniform List<scalar> 
16277
(
22.9024
15.9353
52.7668
11.4151
16.7076
9.11706
3.70123
1.51713
0.819387
0.553234
0.435001
0.375029
0.339188
0.31318
0.291282
0.271574
0.253639
0.237509
0.223202
0.210619
0.199565
0.18981
0.181134
0.173346
0.166298
0.159875
0.15399
0.148575
0.143577
0.138952
0.134664
0.13068
0.126974
0.123524
0.120309
0.117311
0.114516
0.11191
0.109483
0.107222
0.105119
0.103167
0.101356
0.0996823
0.0981394
0.0967227
0.095428
0.0942521
0.0931922
0.0922465
0.0914136
0.0906928
0.090084
0.0895874
0.0892029
0.0889344
0.0887839
0.0887557
0.0888541
0.0890811
0.0894444
0.0899515
0.0906114
0.0914351
0.0924349
0.0936258
0.0950254
0.0966554
0.098543
0.100723
0.103243
0.106164
0.109563
0.113535
0.118168
0.123527
0.129613
0.136383
0.143896
0.152812
0.165436
0.188317
0.238276
0.359124
0.668851
1.40628
2.48337
2.65597
1.57388
1.03977
0.511892
0.233384
0.126893
0.0598648
0.0141836
0.00255184
8.45541e-05
7.33873e-05
0.00119942
0.00552392
0.00304384
0.00077723
6.42808e-05
5.75592e-05
0.000708649
0.00255969
0.00204249
0.00060913
5.31902e-05
4.97639e-05
0.000590341
0.001937
0.00167604
0.000531763
4.68454e-05
4.48782e-05
0.00052263
0.00163261
0.00148599
0.000487042
4.29386e-05
4.18902e-05
0.000489987
0.00147089
0.00137593
0.000463934
4.06089e-05
3.99201e-05
0.000468105
0.00136752
0.00129543
0.000447125
3.89747e-05
3.84985e-05
0.000451262
0.00129167
0.00123209
0.000433465
3.77597e-05
3.74143e-05
0.000437483
0.00123092
0.0011793
0.00042182
3.68142e-05
3.65544e-05
0.000425822
0.0011798
0.00113385
0.000411596
3.6047e-05
3.58421e-05
0.000415613
0.00113544
0.00109376
0.000402365
3.53962e-05
3.52292e-05
0.000406333
0.00109608
0.00105776
0.000393851
3.48285e-05
3.4688e-05
0.00039777
0.0010606
0.00102506
0.000385928
3.43201e-05
3.41984e-05
0.000389806
0.00102829
0.000995093
0.000378521
3.38553e-05
3.37473e-05
0.000382363
0.000998652
0.000967429
0.000371567
3.34238e-05
3.33263e-05
0.000375372
0.000971288
0.000941803
0.000365007
3.30183e-05
3.29289e-05
0.000368774
0.00094592
0.000917987
0.000358796
3.26337e-05
3.25507e-05
0.000362524
0.00092233
0.00089581
0.000352901
3.2266e-05
3.21881e-05
0.0003566
0.000900352
0.000875118
0.000347309
3.19126e-05
3.1839e-05
0.00035098
0.000879824
0.00085575
0.000341997
3.15712e-05
3.15015e-05
0.000345637
0.000860579
0.000837543
0.000336932
3.12404e-05
3.1174e-05
0.00034054
0.000842461
0.000820356
0.000332088
3.09184e-05
3.08548e-05
0.000335661
0.000825334
0.000804066
0.000327437
3.06036e-05
3.05423e-05
0.000330972
0.00080908
0.000788567
0.000322954
3.02947e-05
3.02353e-05
0.000326446
0.000793595
0.000773761
0.000318611
2.99902e-05
2.99322e-05
0.000322058
0.000778785
0.000759568
0.000314385
2.96888e-05
2.96317e-05
0.000317785
0.000764572
0.000745916
0.000310257
2.93892e-05
2.93327e-05
0.000313607
0.000750887
0.000732742
0.00030621
2.90903e-05
2.9034e-05
0.000309508
0.000737669
0.000719991
0.000302228
2.87908e-05
2.87344e-05
0.000305473
0.000724866
0.000707618
0.000298298
2.84898e-05
2.84329e-05
0.000301491
0.000712438
0.000695592
0.000294413
2.81864e-05
2.81288e-05
0.000297553
0.000700355
0.000683885
0.000290565
2.78795e-05
2.78211e-05
0.000293655
0.000688592
0.000672479
0.00028675
2.75686e-05
2.75092e-05
0.000289801
0.000677135
0.000661362
0.000282971
2.72529e-05
2.71926e-05
0.000286016
0.000665976
0.000650535
0.000279242
2.69321e-05
2.6871e-05
0.000282271
0.000655114
0.000639995
0.000275548
2.6606e-05
2.65439e-05
0.000278573
0.000644547
0.000629743
0.000271902
2.62741e-05
2.62113e-05
0.000274936
0.000634284
0.0006198
0.00026832
2.59365e-05
2.58731e-05
0.000271378
0.000624352
0.000610197
0.000264823
2.55934e-05
2.55299e-05
0.000267925
0.000614789
0.000600984
0.00026144
2.52456e-05
2.51826e-05
0.000264611
0.000605736
0.000592256
0.00025821
2.48943e-05
2.48326e-05
0.000261482
0.000597273
0.000584094
0.000255185
2.45413e-05
2.44821e-05
0.000258588
0.00058941
0.000576568
0.000252416
2.41891e-05
2.41337e-05
0.000255989
0.000582281
0.000569823
0.000249969
2.38407e-05
2.37911e-05
0.000253761
0.000576049
0.000564036
0.000247928
2.35001e-05
2.34591e-05
0.000251988
0.000570897
0.000559399
0.000246396
2.3172e-05
2.31442e-05
0.000250711
0.000567021
0.000556137
0.000245443
2.28666e-05
2.28481e-05
0.000249832
0.000564565
0.000554316
0.000244845
2.2596e-05
2.25803e-05
0.000249371
0.000563812
0.000554215
0.000244737
2.23596e-05
2.23463e-05
0.000249399
0.000564775
0.000555811
0.000245156
2.21768e-05
2.21543e-05
0.0002499
0.000567347
0.000559039
0.000246089
2.20458e-05
2.20164e-05
0.000250805
0.000571309
0.000563592
0.000247299
2.19201e-05
2.19335e-05
0.000251939
0.000576551
0.000569405
0.000248581
2.18387e-05
2.18884e-05
0.000253061
0.000582873
0.000576196
0.000249888
2.18045e-05
2.18981e-05
0.000254004
0.000589539
0.000583115
0.00025102
2.18288e-05
2.1953e-05
0.000254783
0.000595931
0.000589635
0.000251842
2.1898e-05
2.2046e-05
0.000255528
0.000601761
0.000595585
0.000252499
2.20059e-05
2.21749e-05
0.000256124
0.000606895
0.000600863
0.000253105
2.21489e-05
2.23347e-05
0.000256664
0.000611284
0.000605364
0.00025344
2.23206e-05
2.25164e-05
0.000257066
0.000615002
0.000608956
0.000253659
2.25133e-05
2.27139e-05
0.000257339
0.000617896
0.000611475
0.000253774
2.27202e-05
2.29204e-05
0.000257479
0.000620337
0.000613227
0.000253818
2.29344e-05
2.31292e-05
0.000257537
0.000621823
0.000614017
0.000253664
2.31492e-05
2.33348e-05
0.000257515
0.000622302
0.000613354
0.000253245
2.3359e-05
2.35314e-05
0.000257114
0.000621527
0.000611918
0.000252694
2.35569e-05
2.37123e-05
0.000256571
0.000619924
0.00060987
0.000252078
2.37373e-05
2.38737e-05
0.000255946
0.000617616
0.000607234
0.00025144
2.38967e-05
2.40132e-05
0.000255261
0.000614646
0.000604079
0.000250804
2.40331e-05
2.41298e-05
0.000254554
0.000611116
0.000600501
0.000250186
2.4146e-05
2.42239e-05
0.000253843
0.000607147
0.000596574
0.000249589
2.42361e-05
2.4297e-05
0.000253128
0.000602802
0.000592368
0.000248999
2.43051e-05
2.43481e-05
0.000252406
0.000598205
0.000587905
0.000248403
2.43543e-05
2.43833e-05
0.00025167
0.000593486
0.000583344
0.000247789
2.43879e-05
2.44053e-05
0.000250914
0.0005887
0.000578743
0.000247154
2.4408e-05
2.44183e-05
0.00025015
0.000583956
0.000574109
0.000246457
2.44155e-05
2.44217e-05
0.000249361
0.000579222
0.000569452
0.000245678
2.44086e-05
2.44136e-05
0.000248547
0.000574477
0.000564803
0.000244889
2.43941e-05
2.43981e-05
0.000247726
0.000569746
0.000560169
0.000244084
2.43724e-05
2.43769e-05
0.000246894
0.000565038
0.00055555
0.000243249
2.43461e-05
2.43506e-05
0.000246026
0.000560345
0.000550885
0.000242372
2.4315e-05
2.43194e-05
0.00024511
0.00055563
0.000546182
0.000241449
2.42802e-05
2.42814e-05
0.000244132
0.000550883
0.000541496
0.000240487
2.42432e-05
2.42388e-05
0.000243122
0.000546151
0.000536878
0.000239523
2.42029e-05
2.41968e-05
0.000242135
0.000541502
0.000532306
0.000238537
2.4149e-05
2.41635e-05
0.00024114
0.000536922
0.000527346
0.000237472
2.40896e-05
2.4116e-05
0.000239859
0.000532543
0.000523195
0.000235757
2.39974e-05
2.41455e-05
0.000240011
0.000531143
0.000524689
0.000239709
2.40826e-05
2.44774e-05
0.000240118
0.000530543
0.000555609
0.000252484
2.46603e-05
2.62696e-05
0.000236768
0.000540141
0.000824805
0.000344112
2.9628e-05
3.19783e-05
0.000178465
0.000409665
0.00101061
0.00231575
0.00432902
0.00617176
0.00743272
0.00976983
0.011262
0.0126008
0.0133547
0.0137152
0.0136139
0.0130082
0.0121459
0.0107629
0.00940686
0.00735104
0.00642295
0.00467368
0.00349681
0.00237497
0.00135008
0.000619873
0.00022597
9.39234e-05
1.81364e-05
1.18021e-05
8.69764e-05
0.000204922
0.000193321
8.25434e-05
1.13503e-05
1.09101e-05
7.97245e-05
0.000183392
0.000184037
7.86076e-05
1.08037e-05
1.07369e-05
7.81369e-05
0.000181132
0.00018123
7.73486e-05
1.06319e-05
1.06229e-05
7.73347e-05
0.000181016
0.000181555
7.73902e-05
1.06376e-05
1.06383e-05
7.74905e-05
0.000181922
0.000182208
7.76121e-05
1.0656e-05
1.06641e-05
7.7725e-05
0.000182752
0.000183005
7.78595e-05
1.06731e-05
1.06897e-05
7.80018e-05
0.000183568
0.000183872
7.81315e-05
1.06839e-05
1.07021e-05
7.82922e-05
0.000184469
0.0001848
7.84007e-05
1.07113e-05
1.07304e-05
7.85923e-05
0.000185423
0.000185746
7.86847e-05
1.07317e-05
1.07378e-05
7.89341e-05
0.000186375
0.000186664
7.89663e-05
1.076e-05
1.07626e-05
7.91841e-05
0.000187323
0.000187658
7.93024e-05
1.07736e-05
1.07787e-05
7.95495e-05
0.000188377
0.000188703
7.96325e-05
1.08042e-05
1.08093e-05
7.9865e-05
0.000189403
0.00018973
7.99689e-05
1.08194e-05
1.08232e-05
8.02099e-05
0.000190461
0.000190798
8.03155e-05
1.08496e-05
1.08539e-05
8.05541e-05
0.000191537
0.000191884
8.06749e-05
1.0865e-05
1.08701e-05
8.09316e-05
0.000192649
0.000193001
8.10362e-05
1.08968e-05
1.09018e-05
8.12928e-05
0.000193768
0.000194128
8.14232e-05
1.09136e-05
1.09191e-05
8.16892e-05
0.000194936
0.000195312
8.18504e-05
1.09393e-05
1.09598e-05
8.20641e-05
0.000196125
0.000196504
8.22146e-05
1.09641e-05
1.09709e-05
8.25206e-05
0.000197318
0.000197688
8.26569e-05
1.09895e-05
1.10099e-05
8.28727e-05
0.0001985
0.000198883
8.30247e-05
1.10135e-05
1.10203e-05
8.33491e-05
0.000199731
0.000200121
8.3501e-05
1.10403e-05
1.10626e-05
8.37385e-05
0.000200957
0.000201349
8.38831e-05
1.10664e-05
1.10734e-05
8.42112e-05
0.000202203
0.000202593
8.43595e-05
1.10927e-05
1.11148e-05
8.46041e-05
0.000203422
0.000203805
8.47467e-05
1.11182e-05
1.11255e-05
8.50734e-05
0.000204636
0.000205017
8.52068e-05
1.11449e-05
1.11678e-05
8.54642e-05
0.00020586
0.000206264
8.56145e-05
1.1172e-05
1.11805e-05
8.5954e-05
0.000207094
0.000207442
8.6078e-05
1.11993e-05
1.12195e-05
8.62925e-05
0.000208226
0.00020852
8.63789e-05
1.12194e-05
1.12247e-05
8.66866e-05
0.000209289
0.000209603
8.67791e-05
1.1241e-05
1.12604e-05
8.69704e-05
0.000210299
0.000210542
8.70178e-05
1.12592e-05
1.12621e-05
8.72453e-05
0.000211181
0.000211399
8.72151e-05
1.1283e-05
1.12826e-05
8.7367e-05
0.000211966
0.00021216
8.73334e-05
1.12867e-05
1.1284e-05
8.7447e-05
0.000212589
0.000212691
8.73492e-05
1.13024e-05
1.12952e-05
8.73064e-05
0.000212978
0.000212955
8.70992e-05
1.12926e-05
1.12805e-05
8.69982e-05
0.000213084
0.000213074
8.67704e-05
1.12846e-05
1.12887e-05
8.65115e-05
0.000213116
0.000212868
8.61745e-05
1.12749e-05
1.12568e-05
8.5817e-05
0.000212749
0.000212272
8.52823e-05
1.12508e-05
1.12442e-05
8.47585e-05
0.000212115
0.000211505
8.41758e-05
1.12239e-05
1.12076e-05
8.36464e-05
0.000211223
0.000210308
8.27675e-05
1.12073e-05
1.11844e-05
8.20516e-05
0.000209967
0.000209004
8.1177e-05
1.11705e-05
1.11604e-05
8.0525e-05
0.000208886
0.00020777
7.96341e-05
1.11717e-05
1.11873e-05
7.87223e-05
0.000207441
0.000206481
7.77392e-05
1.11877e-05
1.12135e-05
7.70787e-05
0.000206775
0.000206113
7.63358e-05
1.12543e-05
1.13148e-05
7.56966e-05
0.00020635
0.00020608
7.48476e-05
1.13773e-05
1.14572e-05
7.42879e-05
0.000206886
0.000207761
7.34827e-05
1.15557e-05
1.16657e-05
7.3074e-05
0.000210178
0.000213483
7.39532e-05
1.17912e-05
1.19081e-05
7.42768e-05
0.000216217
0.000217968
7.39495e-05
1.19416e-05
1.20278e-05
7.26464e-05
0.000221436
0.000225178
7.65994e-05
1.22024e-05
1.23222e-05
7.43355e-05
0.000228399
0.000231132
7.6149e-05
1.25227e-05
1.26606e-05
7.70268e-05
0.000236631
0.000238347
7.86602e-05
1.28646e-05
1.31722e-05
8.30018e-05
0.000246232
0.000247505
8.53193e-05
1.34828e-05
1.37474e-05
8.87527e-05
0.000253236
0.000254753
9.13456e-05
1.42105e-05
1.51937e-05
0.000104986
0.000264882
0.000263952
0.000111205
1.14073e-05
8.89607e-06
2.74383e-05
7.38258e-05
0.000207373
6.45886e-05
1.04305e-05
1.09047e-05
5.76695e-05
0.000190486
0.000200556
5.98559e-05
1.11663e-05
1.13761e-05
5.67142e-05
0.000192014
0.000207265
6.11555e-05
1.16933e-05
1.2041e-05
6.0434e-05
0.000204633
0.000225264
6.91346e-05
1.24635e-05
1.29045e-05
6.85689e-05
0.000220756
0.000240835
7.93118e-05
1.34007e-05
1.40692e-05
8.12771e-05
0.000241908
0.000269895
9.72271e-05
1.54772e-05
1.18227e-05
0.000108127
0.000277473
7.4046e-05
2.59911e-05
9.6562e-06
1.14408e-05
7.0629e-05
0.000233566
0.000228313
6.49389e-05
1.22936e-05
1.30731e-05
8.51551e-05
0.000281446
0.000286894
8.61736e-05
1.36516e-05
1.4419e-05
0.000100214
0.000318918
0.000328073
0.00010708
1.53821e-05
1.73405e-05
0.000129346
0.000360352
0.000349217
0.000138955
1.34369e-05
1.00233e-05
3.12156e-05
9.24462e-05
0.000285564
8.4292e-05
1.20116e-05
1.31882e-05
7.91649e-05
0.000279596
0.000320367
9.6494e-05
1.39663e-05
1.48447e-05
9.59115e-05
0.000315251
0.000354825
0.000120117
1.69787e-05
1.3641e-05
0.000140601
0.000359656
9.6835e-05
3.1615e-05
1.03658e-05
1.27586e-05
8.90776e-05
0.000322443
0.000331814
9.27131e-05
1.42378e-05
1.65928e-05
0.000131249
0.000426076
0.000445263
0.000151733
1.91923e-05
1.57345e-05
0.000176785
0.000449602
0.000123993
3.68738e-05
1.08869e-05
1.38777e-05
0.000118281
0.000399774
0.000396848
0.000114058
1.60714e-05
2.0108e-05
0.000168337
0.000500954
0.000509373
0.000196502
1.67128e-05
1.15319e-05
4.19637e-05
0.000154094
0.000517907
0.000153105
1.61573e-05
2.02382e-05
0.000160867
0.000556826
0.000772734
0.00027198
2.77767e-05
2.312e-05
0.000289907
0.000742979
0.000262473
6.89148e-05
1.5097e-05
2.69946e-05
0.000283257
0.000812061
0.000813917
0.000302982
2.51978e-05
1.68913e-05
7.74486e-05
0.000321642
0.00111992
0.000372343
3.72681e-05
3.68014e-05
0.000429032
0.0012159
0.000553356
0.000152835
2.33825e-05
3.72121e-05
0.000497374
0.00144977
0.000957675
0.000317519
2.47812e-05
4.59977e-05
0.000559826
0.00112935
0.000968619
0.000468345
3.78194e-05
3.83137e-05
0.000446473
0.00106236
0.00136294
0.000492834
4.39625e-05
6.07685e-05
0.00092046
0.00227258
0.000506516
0.000157509
3.45609e-05
3.53958e-05
0.000441717
0.00101214
0.000313121
0.000111904
2.46909e-05
2.67372e-05
0.000273521
0.00065656
0.000560449
0.000201909
2.70194e-05
1.51932e-05
5.21331e-05
0.000159264
0.000376318
0.000210405
1.74815e-05
1.66985e-05
6.66462e-05
0.000170489
0.000415129
0.000179535
1.91042e-05
2.04095e-05
0.000147441
0.000376531
0.000122659
4.6118e-05
1.35086e-05
1.60479e-05
0.000144967
0.000326895
0.000300473
0.000121572
1.81228e-05
1.26372e-05
3.98765e-05
0.000100991
0.000278441
0.000123926
1.46285e-05
1.69315e-05
0.000107952
0.000256217
8.9588e-05
3.74639e-05
1.23044e-05
1.38639e-05
0.000111026
0.000246167
0.000222524
9.74914e-05
1.61624e-05
1.19518e-05
3.3965e-05
7.86746e-05
0.000216574
9.88344e-05
1.30161e-05
1.55425e-05
8.70645e-05
0.0001966
7.05764e-05
3.18167e-05
1.17187e-05
1.25756e-05
9.13998e-05
0.000194323
0.000174764
8.04109e-05
1.50742e-05
1.1521e-05
3.00702e-05
6.51373e-05
0.000177276
8.46759e-05
1.20766e-05
1.47553e-05
7.52213e-05
0.000161416
6.30286e-05
2.98525e-05
1.15476e-05
1.20859e-05
8.53664e-05
0.000172136
0.000147293
6.97956e-05
1.5225e-05
1.27822e-05
5.48977e-05
0.000118853
4.56354e-05
2.13731e-05
1.06771e-05
1.00252e-05
5.63201e-05
0.000115801
0.0001105
5.26369e-05
1.27739e-05
1.02771e-05
2.19729e-05
4.6011e-05
0.000110484
5.66478e-05
1.00811e-05
1.31093e-05
5.21419e-05
0.000102382
4.23726e-05
2.12787e-05
1.06527e-05
9.69697e-06
5.12202e-05
9.68221e-05
9.26084e-05
4.8482e-05
1.2314e-05
1.00676e-05
2.0584e-05
4.06578e-05
9.27211e-05
5.02575e-05
9.68458e-06
1.25985e-05
4.78285e-05
8.74765e-05
3.93903e-05
2.01226e-05
1.00772e-05
9.44965e-06
4.68673e-05
8.55351e-05
8.1182e-05
4.52617e-05
1.24487e-05
1.03835e-05
1.94236e-05
3.64551e-05
7.95485e-05
4.47763e-05
9.25675e-06
1.20239e-05
4.11607e-05
7.44694e-05
3.45988e-05
1.90608e-05
1.00447e-05
8.96323e-06
4.16712e-05
7.13864e-05
6.84663e-05
3.83552e-05
1.18402e-05
1.00585e-05
1.75915e-05
3.10575e-05
6.1728e-05
4.66676e-05
8.61468e-06
1.10002e-05
2.18469e-05
3.62546e-05
8.33531e-05
4.76199e-05
9.88748e-06
1.2595e-05
4.43766e-05
7.70226e-05
3.74396e-05
2.16231e-05
1.03723e-05
9.49817e-06
4.60786e-05
7.68609e-05
7.27207e-05
4.25944e-05
1.24959e-05
1.02372e-05
2.09759e-05
3.57164e-05
7.49998e-05
4.50044e-05
9.29015e-06
1.22102e-05
4.18998e-05
7.08773e-05
3.46553e-05
2.09389e-05
1.01175e-05
9.1705e-06
4.22697e-05
6.76325e-05
6.40418e-05
3.83924e-05
1.22426e-05
1.02648e-05
2.091e-05
3.29608e-05
6.33966e-05
4.01064e-05
9.08622e-06
1.20196e-05
3.64364e-05
5.93501e-05
2.90896e-05
1.89935e-05
1.00382e-05
8.39885e-06
4.01033e-05
5.20466e-05
3.164e-05
2.17505e-05
1.08925e-05
9.68456e-06
3.86533e-05
6.25884e-05
5.76537e-05
3.56064e-05
1.23968e-05
1.01189e-05
2.12589e-05
3.08528e-05
5.73069e-05
3.7466e-05
8.9974e-06
1.1974e-05
3.45266e-05
5.20115e-05
2.77086e-05
1.98167e-05
1.01082e-05
8.42225e-06
3.69077e-05
4.71482e-05
2.98168e-05
2.17121e-05
1.10472e-05
9.62891e-06
3.71131e-05
5.74092e-05
5.22547e-05
3.40245e-05
1.22629e-05
1.00922e-05
2.15063e-05
2.93613e-05
5.43132e-05
3.62447e-05
8.98779e-06
1.19826e-05
3.29521e-05
4.93471e-05
2.67246e-05
1.99234e-05
1.00621e-05
8.39681e-06
3.48291e-05
4.37659e-05
2.8161e-05
2.13949e-05
1.10595e-05
9.51596e-06
3.46309e-05
5.32233e-05
4.80343e-05
3.19633e-05
1.21871e-05
1.00296e-05
2.13569e-05
2.73197e-05
4.88027e-05
3.32944e-05
8.94808e-06
1.18695e-05
3.05411e-05
4.4392e-05
2.52507e-05
1.98926e-05
9.57289e-06
8.44864e-06
3.17585e-05
3.92453e-05
2.61593e-05
2.10973e-05
1.12048e-05
9.43027e-06
3.21253e-05
4.7695e-05
4.25105e-05
2.90686e-05
1.20548e-05
9.90807e-06
2.009e-05
2.43106e-05
3.80318e-05
3.1685e-05
8.2026e-06
1.09348e-05
2.13031e-05
2.57109e-05
4.68128e-05
3.09455e-05
9.24991e-06
1.21474e-05
2.87397e-05
4.21296e-05
2.46588e-05
2.07005e-05
9.85224e-06
8.34753e-06
3.11145e-05
3.78757e-05
2.59936e-05
2.18875e-05
1.10323e-05
9.18942e-06
3.14291e-05
4.65053e-05
4.1525e-05
2.8854e-05
1.19994e-05
9.78401e-06
2.0891e-05
2.45092e-05
3.75621e-05
3.16327e-05
8.297e-06
1.11141e-05
2.20651e-05
2.58286e-05
4.56346e-05
3.08322e-05
9.36629e-06
1.22235e-05
2.8465e-05
4.1109e-05
2.42511e-05
2.10091e-05
1.00478e-05
8.28698e-06
3.12312e-05
3.65759e-05
2.5473e-05
2.22972e-05
1.10237e-05
9.27043e-06
3.02278e-05
4.47461e-05
3.99776e-05
2.80866e-05
1.2017e-05
9.67713e-06
2.12096e-05
2.41349e-05
3.52862e-05
3.06236e-05
8.41407e-06
1.10178e-05
2.29521e-05
2.54025e-05
3.86911e-05
2.99424e-05
8.80241e-06
1.13649e-05
2.32704e-05
2.68606e-05
4.5786e-05
3.05312e-05
9.52881e-06
1.21116e-05
2.84412e-05
4.07481e-05
2.46605e-05
2.18191e-05
9.86774e-06
8.24114e-06
3.12742e-05
3.64415e-05
2.57611e-05
2.33028e-05
1.11671e-05
9.35643e-06
3.01993e-05
4.40947e-05
3.95027e-05
2.81994e-05
1.21454e-05
9.69638e-06
2.18303e-05
2.42534e-05
3.50065e-05
3.03655e-05
8.56565e-06
1.1192e-05
2.33815e-05
2.55782e-05
3.80644e-05
2.99207e-05
9.01418e-06
1.13335e-05
2.3866e-05
2.67917e-05
4.50337e-05
3.01376e-05
9.37578e-06
1.21495e-05
2.82768e-05
4.00329e-05
2.45982e-05
2.24898e-05
1.01208e-05
8.25564e-06
3.15697e-05
3.56828e-05
2.64286e-05
2.44045e-05
1.11182e-05
8.93831e-06
3.0327e-05
3.90247e-05
2.76502e-05
2.49737e-05
1.14703e-05
9.56585e-06
3.0594e-05
4.57345e-05
4.08813e-05
2.8814e-05
1.23889e-05
9.9471e-06
2.3214e-05
2.53993e-05
3.61983e-05
3.21627e-05
8.37851e-06
1.11819e-05
2.48608e-05
2.68906e-05
3.91852e-05
3.10435e-05
8.97672e-06
1.14727e-05
2.5411e-05
2.80065e-05
4.60245e-05
3.10648e-05
9.56018e-06
1.23163e-05
2.93534e-05
4.10841e-05
2.57973e-05
2.39478e-05
1.02111e-05
8.46204e-06
3.27222e-05
3.68295e-05
2.75831e-05
2.56786e-05
1.13165e-05
9.1722e-06
3.15086e-05
3.99207e-05
2.86844e-05
2.60768e-05
1.15283e-05
9.52956e-06
3.13115e-05
4.62663e-05
4.13418e-05
2.95284e-05
1.22672e-05
1.03332e-05
2.37045e-05
2.56761e-05
3.6294e-05
3.28767e-05
8.40454e-06
1.12646e-05
2.53225e-05
2.71697e-05
3.88569e-05
3.06915e-05
9.11742e-06
1.16228e-05
2.58447e-05
2.80737e-05
4.46511e-05
3.06456e-05
9.61767e-06
1.24434e-05
2.91003e-05
4.00948e-05
2.55147e-05
2.39799e-05
1.05128e-05
8.46613e-06
3.27289e-05
3.60187e-05
2.72438e-05
2.55588e-05
1.11823e-05
8.89377e-06
3.03972e-05
3.85188e-05
2.86685e-05
2.61827e-05
1.14053e-05
9.07561e-06
3.13565e-05
4.00794e-05
2.94851e-05
2.76774e-05
1.15783e-05
9.64826e-06
3.18568e-05
4.60156e-05
4.117e-05
3.03294e-05
1.23615e-05
9.87946e-06
2.50714e-05
2.66017e-05
3.69455e-05
3.33474e-05
8.62141e-06
1.14283e-05
2.63641e-05
2.80311e-05
3.88081e-05
3.1236e-05
9.18735e-06
1.15375e-05
2.66476e-05
2.91754e-05
4.02655e-05
3.16563e-05
9.14773e-06
1.16005e-05
2.82528e-05
2.98687e-05
4.61188e-05
3.22494e-05
9.6216e-06
1.23851e-05
3.06745e-05
4.13533e-05
2.69746e-05
2.57222e-05
1.04733e-05
8.47606e-06
3.43284e-05
3.72216e-05
2.8556e-05
2.7018e-05
1.13958e-05
9.16975e-06
3.13364e-05
3.9743e-05
3.00031e-05
2.76525e-05
1.16506e-05
9.30409e-06
3.26755e-05
4.11655e-05
3.08111e-05
2.92903e-05
1.17808e-05
9.80398e-06
3.31376e-05
4.69158e-05
4.21411e-05
3.15586e-05
1.25323e-05
1.04945e-05
2.63167e-05
2.77972e-05
3.76445e-05
3.49874e-05
8.49871e-06
1.14607e-05
2.75319e-05
2.91078e-05
3.97641e-05
3.16864e-05
9.13825e-06
1.16658e-05
2.77905e-05
3.018e-05
4.08501e-05
3.25585e-05
9.26698e-06
1.18463e-05
2.93653e-05
3.08589e-05
4.61413e-05
3.27058e-05
9.79095e-06
1.25839e-05
3.15169e-05
4.18037e-05
2.81315e-05
2.68479e-05
1.0031e-05
8.88696e-06
3.43427e-05
3.77859e-05
2.97018e-05
2.83511e-05
1.17321e-05
9.26741e-06
3.28752e-05
4.01143e-05
3.07141e-05
2.843e-05
1.16422e-05
9.17049e-06
3.24465e-05
4.10374e-05
3.14867e-05
2.92752e-05
1.16457e-05
9.33441e-06
3.41769e-05
4.20875e-05
3.19859e-05
3.08549e-05
1.17809e-05
9.78828e-06
3.42251e-05
4.74461e-05
4.29693e-05
3.27883e-05
1.25687e-05
1.07273e-05
2.73002e-05
2.89471e-05
3.79187e-05
3.5794e-05
8.51947e-06
1.15915e-05
2.84666e-05
3.00134e-05
3.98062e-05
3.2006e-05
9.3097e-06
1.18451e-05
2.89334e-05
3.1081e-05
4.09441e-05
3.29184e-05
9.30514e-06
1.17607e-05
2.9922e-05
3.18336e-05
4.2427e-05
3.43627e-05
9.4097e-06
1.18931e-05
3.16004e-05
3.25761e-05
4.81474e-05
3.50434e-05
9.87064e-06
1.26957e-05
3.36739e-05
4.37402e-05
3.01018e-05
2.88755e-05
1.06618e-05
8.68207e-06
3.7214e-05
3.95053e-05
3.14278e-05
3.00734e-05
1.1614e-05
9.20114e-06
3.40937e-05
4.19224e-05
3.26112e-05
3.02782e-05
1.18085e-05
9.3957e-06
3.46143e-05
4.2951e-05
3.33835e-05
3.12921e-05
1.18137e-05
9.41218e-06
3.60701e-05
4.41762e-05
3.40338e-05
3.28916e-05
1.19455e-05
9.99192e-06
3.62382e-05
4.94066e-05
4.50246e-05
3.47451e-05
1.27344e-05
1.08681e-05
2.95315e-05
3.11468e-05
3.98395e-05
3.76693e-05
8.80101e-06
1.17427e-05
3.06151e-05
3.2218e-05
4.188e-05
3.42566e-05
9.40833e-06
1.20178e-05
3.07411e-05
3.32563e-05
4.27296e-05
3.45036e-05
9.50981e-06
1.19952e-05
3.17959e-05
3.38149e-05
4.40834e-05
3.60419e-05
9.61836e-06
1.2098e-05
3.36726e-05
3.4417e-05
4.94135e-05
3.68684e-05
1.00191e-05
1.28992e-05
3.55915e-05
4.53726e-05
3.19428e-05
3.06744e-05
1.08493e-05
8.86664e-06
3.87975e-05
4.09153e-05
3.32273e-05
3.17553e-05
1.18185e-05
9.42447e-06
3.54624e-05
4.30692e-05
3.43989e-05
3.19825e-05
1.20481e-05
9.55834e-06
3.58792e-05
4.42529e-05
3.51912e-05
3.29329e-05
1.19907e-05
9.60931e-06
3.74184e-05
4.53796e-05
3.56044e-05
3.45502e-05
1.20889e-05
1.00372e-05
3.7602e-05
5.04211e-05
4.61827e-05
3.63166e-05
1.29717e-05
1.11448e-05
3.11164e-05
3.26771e-05
4.06689e-05
3.93265e-05
8.84531e-06
1.18844e-05
3.21006e-05
3.35672e-05
4.22056e-05
3.49395e-05
9.47061e-06
1.21571e-05
3.2293e-05
3.44809e-05
4.32372e-05
3.56384e-05
9.63366e-06
1.20754e-05
3.32766e-05
3.51235e-05
4.45158e-05
3.68316e-05
9.61098e-06
1.20342e-05
3.4306e-05
3.61085e-05
4.61978e-05
3.87334e-05
9.61541e-06
1.21497e-05
3.61357e-05
3.66684e-05
5.19189e-05
3.90559e-05
1.01066e-05
1.31403e-05
3.78203e-05
4.78429e-05
3.43677e-05
3.32596e-05
1.0799e-05
9.07877e-06
4.12046e-05
4.33178e-05
3.59383e-05
3.46978e-05
1.21201e-05
9.6592e-06
3.84276e-05
4.55627e-05
3.69857e-05
3.47576e-05
1.2194e-05
9.65974e-06
3.86221e-05
4.68686e-05
3.79161e-05
3.57168e-05
1.21025e-05
9.67829e-06
4.0456e-05
4.85089e-05
3.86978e-05
3.75745e-05
1.22473e-05
1.02439e-05
4.06341e-05
5.37649e-05
4.93118e-05
3.9331e-05
1.32592e-05
1.10932e-05
3.43981e-05
3.56793e-05
4.42421e-05
4.25721e-05
9.12008e-06
1.21665e-05
3.55723e-05
3.71164e-05
4.57756e-05
3.9064e-05
9.73295e-06
1.23023e-05
3.53566e-05
3.77741e-05
4.64434e-05
3.87767e-05
9.8304e-06
1.22475e-05
3.63059e-05
3.83325e-05
4.76924e-05
4.02345e-05
9.78356e-06
1.24092e-05
3.81111e-05
3.87758e-05
5.30538e-05
4.06539e-05
1.03294e-05
1.35494e-05
3.96879e-05
4.90234e-05
3.62819e-05
3.54728e-05
1.10324e-05
9.22453e-06
4.30368e-05
4.46187e-05
3.7888e-05
3.68866e-05
1.23529e-05
9.86017e-06
4.03673e-05
4.67588e-05
3.89377e-05
3.691e-05
1.23914e-05
9.80299e-06
4.02539e-05
4.78538e-05
3.96367e-05
3.77952e-05
1.23232e-05
9.90175e-06
4.17082e-05
4.94811e-05
4.04877e-05
3.98959e-05
1.25923e-05
1.04715e-05
4.2376e-05
5.48436e-05
5.05179e-05
4.13369e-05
1.36288e-05
1.13116e-05
3.6888e-05
3.77614e-05
4.60122e-05
4.49814e-05
9.30046e-06
1.23392e-05
3.78663e-05
3.92178e-05
4.74658e-05
4.11273e-05
9.86256e-06
1.2566e-05
3.78511e-05
3.9963e-05
4.8203e-05
4.10345e-05
9.9463e-06
1.259e-05
3.89726e-05
4.06182e-05
4.95476e-05
4.23764e-05
1.00212e-05
1.28748e-05
4.11111e-05
4.11896e-05
5.50402e-05
4.3115e-05
1.07816e-05
1.40766e-05
4.24304e-05
5.10883e-05
3.9137e-05
3.88698e-05
1.16056e-05
9.62159e-06
4.62328e-05
4.73319e-05
4.0737e-05
4.00208e-05
1.26121e-05
1.00465e-05
4.37543e-05
4.96252e-05
4.19283e-05
4.02329e-05
1.27944e-05
1.00618e-05
4.37456e-05
5.1078e-05
4.24795e-05
4.18738e-05
1.30022e-05
1.09153e-05
4.37226e-05
5.59619e-05
5.17304e-05
4.30809e-05
1.43265e-05
1.20554e-05
3.92724e-05
3.97849e-05
4.703e-05
4.64986e-05
9.72202e-06
1.27742e-05
4.02546e-05
4.10048e-05
4.86718e-05
4.33525e-05
1.02076e-05
1.30533e-05
4.03684e-05
4.19005e-05
4.99421e-05
4.29807e-05
1.03089e-05
1.33375e-05
4.25803e-05
4.24638e-05
5.48467e-05
4.38506e-05
1.10332e-05
1.45807e-05
4.33847e-05
5.117e-05
4.03435e-05
4.03697e-05
1.16501e-05
9.81221e-06
4.7154e-05
4.76484e-05
4.19913e-05
4.17708e-05
1.30739e-05
1.0303e-05
4.42432e-05
4.9899e-05
4.31446e-05
4.21436e-05
1.32702e-05
1.05146e-05
4.45873e-05
5.13535e-05
4.38323e-05
4.38339e-05
1.35059e-05
1.11887e-05
4.4949e-05
5.60184e-05
5.21874e-05
4.47911e-05
1.48635e-05
1.25037e-05
4.14441e-05
4.16904e-05
4.79568e-05
4.82951e-05
9.91246e-06
1.3165e-05
4.25229e-05
4.26755e-05
4.96911e-05
4.48186e-05
1.04754e-05
1.3476e-05
4.27812e-05
4.36664e-05
5.12745e-05
4.46087e-05
1.06544e-05
1.38812e-05
4.52712e-05
4.44716e-05
5.64276e-05
4.59577e-05
1.15446e-05
1.52242e-05
4.58005e-05
5.28811e-05
4.29206e-05
4.34946e-05
1.2516e-05
1.01726e-05
4.99365e-05
4.97963e-05
4.44825e-05
4.49662e-05
1.36005e-05
1.07985e-05
4.72832e-05
5.22964e-05
4.59534e-05
4.53869e-05
1.39449e-05
1.11038e-05
4.71175e-05
5.41855e-05
4.70752e-05
4.78996e-05
1.44139e-05
1.19723e-05
4.85138e-05
5.93056e-05
5.56162e-05
4.84859e-05
1.58481e-05
1.29756e-05
4.57644e-05
4.55695e-05
5.19862e-05
5.24492e-05
1.05344e-05
1.39938e-05
4.71758e-05
4.68391e-05
5.43591e-05
4.91733e-05
1.11487e-05
1.4699e-05
4.87385e-05
4.78877e-05
5.93199e-05
4.87792e-05
1.22371e-05
1.61724e-05
4.84851e-05
5.5822e-05
4.59221e-05
4.68299e-05
1.34283e-05
1.07653e-05
5.2866e-05
5.25353e-05
4.76595e-05
4.8497e-05
1.43489e-05
1.14197e-05
5.02914e-05
5.51876e-05
4.92206e-05
4.92421e-05
1.48194e-05
1.1808e-05
5.03788e-05
5.75981e-05
5.08265e-05
5.23059e-05
1.54206e-05
1.2822e-05
5.25781e-05
6.33304e-05
5.94389e-05
5.2735e-05
1.69608e-05
1.37867e-05
5.08422e-05
4.98745e-05
5.6401e-05
5.72226e-05
1.12298e-05
1.50925e-05
5.23939e-05
5.17086e-05
5.95538e-05
5.39874e-05
1.20955e-05
1.5867e-05
5.43508e-05
5.2938e-05
6.51075e-05
5.40586e-05
1.29701e-05
1.7343e-05
5.42438e-05
6.15525e-05
5.20259e-05
5.34037e-05
1.46125e-05
1.19954e-05
5.87684e-05
5.8436e-05
5.37472e-05
5.52651e-05
1.59528e-05
1.27813e-05
5.63641e-05
6.20326e-05
5.55017e-05
5.753e-05
1.67933e-05
1.4002e-05
5.6824e-05
6.79673e-05
6.42328e-05
5.71708e-05
1.85218e-05
1.51508e-05
5.60401e-05
5.46734e-05
6.13971e-05
6.17827e-05
1.2271e-05
1.6719e-05
5.88612e-05
5.63436e-05
6.77673e-05
5.77261e-05
1.39413e-05
1.86308e-05
5.77335e-05
6.45385e-05
5.49703e-05
5.57682e-05
1.51706e-05
1.21142e-05
6.24367e-05
6.12253e-05
5.66141e-05
5.76457e-05
1.65189e-05
1.32364e-05
5.82307e-05
6.39639e-05
5.78754e-05
5.99478e-05
1.758e-05
1.46404e-05
5.85762e-05
6.9423e-05
6.6088e-05
5.94534e-05
1.94756e-05
1.60083e-05
5.89249e-05
5.73993e-05
6.33235e-05
6.37342e-05
1.30833e-05
1.77738e-05
6.22507e-05
5.89134e-05
6.94507e-05
6.02507e-05
1.48923e-05
1.98745e-05
6.04737e-05
6.64264e-05
5.83357e-05
6.011e-05
1.63977e-05
1.32419e-05
6.48776e-05
6.39778e-05
5.95227e-05
6.29852e-05
1.78839e-05
1.46075e-05
6.05625e-05
6.99634e-05
6.70636e-05
6.1129e-05
1.99634e-05
1.66521e-05
6.05657e-05
5.89342e-05
6.43881e-05
6.47662e-05
1.36521e-05
1.86202e-05
6.43051e-05
6.0611e-05
7.0213e-05
6.15677e-05
1.54561e-05
2.08378e-05
6.22209e-05
6.74156e-05
6.02132e-05
6.25122e-05
1.72329e-05
1.3902e-05
6.63372e-05
6.53183e-05
6.16209e-05
6.57253e-05
1.88338e-05
1.55562e-05
6.26651e-05
7.13697e-05
6.85656e-05
6.3108e-05
2.09338e-05
1.7204e-05
6.32423e-05
6.11766e-05
6.63565e-05
6.84479e-05
1.34838e-05
1.88233e-05
6.67063e-05
6.27038e-05
7.2175e-05
6.31209e-05
1.58607e-05
2.17186e-05
6.38633e-05
6.94586e-05
6.28441e-05
6.61593e-05
1.79594e-05
1.47446e-05
6.86964e-05
6.78477e-05
6.49373e-05
7.03919e-05
2.01209e-05
1.67775e-05
6.66185e-05
7.50423e-05
7.22986e-05
6.76043e-05
2.24893e-05
1.85938e-05
6.91745e-05
6.58796e-05
7.10483e-05
7.21321e-05
1.50422e-05
2.05054e-05
7.34953e-05
6.7729e-05
7.85555e-05
6.99766e-05
1.69139e-05
2.25064e-05
6.98675e-05
7.57442e-05
6.88177e-05
7.47859e-05
1.96362e-05
1.69322e-05
7.43829e-05
7.77133e-05
7.52861e-05
7.41261e-05
2.35622e-05
1.97192e-05
7.3924e-05
7.00162e-05
7.56322e-05
7.63004e-05
1.63092e-05
2.21806e-05