/*--------------------------------*- C++ -*----------------------------------*\
| =========                 |                                                 |
| \\      /  F ield         | OpenFOAM: The Open Source CFD Toolbox           |
|  \\    /   O peration     | Version:  v2006                                 |
|   \\  /    A nd           | Website:  www.openfoam.com                      |
|    \\/     M anipulation  |                                                 |
\*---------------------------------------------------------------------------*/
FoamFile
{
    version     2.0;
    format      ascii;
    class       volScalarField;
    location    "0.054";
    object      k;
}
// * * * * * * * * * * * * * * * * * * * * * * * * * * * * * * * * * * * * * //

dimensions      [0 2 -2 0 0 0 0];


internalField   nonuniform List<scalar> 
12716
(
144.477
144.477
144.477
144.477
144.477
144.477
144.478
144.477
144.466
144.391
144.185
143.849
143.426
142.96
142.48
141.998
141.515
141.025
140.526
140.012
139.482
138.935
138.371
137.792
137.197
136.589
135.968
135.334
134.69
134.035
133.371
132.699
132.021
131.336
130.648
129.956
129.263
128.571
127.879
127.19
126.506
125.827
125.155
124.492
123.84
123.2
122.573
121.961
121.365
120.785
120.22
119.665
119.117
118.572
118.034
117.528
117.107
116.841
116.744
116.757
116.81
116.87
116.913
116.925
116.877
116.713
116.37
115.785
114.574
112.653
102.724
91.1558
107.189
113.13
109.953
99.5271
81.9312
74.1179
91.7181
105.624
101.671
85.6387
68.2247
63.336
79.8651
97.3663
94.0085
75.8648
59.7576
56.6393
71.8244
90.2865
87.802
69.4411
54.4821
52.3628
66.3762
84.6317
82.7904
64.9045
50.9497
49.4079
62.5527
80.1272
78.6945
61.5716
48.4041
47.216
59.688
76.4128
75.2646
58.9821
46.4502
45.4948
57.4391
73.2728
72.3273
56.8732
44.8752
44.0754
55.585
70.5575
69.7639
55.113
43.552
42.8592
54.0021
68.1693
67.4887
53.5965
42.403
41.7879
52.6167
66.0408
65.4372
52.2589
41.3797
40.8219
51.3787
64.1202
63.5744
51.0575
40.449
39.9349
50.2557
62.3687
61.8688
49.9631
39.5885
39.1083
49.2241
60.7551
60.2942
48.9544
38.7825
38.3293
48.2669
59.2588
58.8309
48.0159
38.0195
37.588
47.3711
57.8629
57.4632
47.1354
37.2907
36.8766
46.5262
56.5533
56.1779
46.3031
36.5891
36.1889
45.7237
55.3186
54.9646
45.5109
35.9088
35.5197
44.9567
54.1499
53.8148
44.7526
35.2453
34.865
44.2201
53.0402
52.722
44.0232
34.5946
34.2209
43.5092
51.9833
51.6801
43.3183
33.9531
33.5842
42.8199
50.9734
50.6834
42.6338
33.3176
32.9517
42.1484
50.0051
49.7266
41.9658
32.6852
32.3205
41.4908
49.0732
48.8047
41.3108
32.0527
31.6877
40.8439
48.1731
47.9132
40.6654
31.4174
31.0506
40.2042
47.3006
47.0481
40.0263
30.7768
30.4068
39.5691
46.452
46.2057
39.3909
30.1286
29.754
38.9355
45.6237
45.3825
38.7562
29.4704
29.0899
38.3008
44.8121
44.5749
38.1194
28.7998
28.4119
37.6619
44.0138
43.7793
37.4775
28.1143
27.7176
37.0158
43.2251
42.9923
36.8275
27.4114
27.0044
36.3596
42.4425
42.2103
36.1664
26.6885
26.27
35.6903
41.6627
41.43
35.4915
25.9435
25.5124
35.0055
40.8825
40.6484
34.8004
25.1746
24.7301
34.3031
40.0992
39.863
34.0907
24.3804
23.9215
33.5803
39.3102
39.0708
33.3601
23.5594
23.0854
32.8352
38.5126
38.2693
32.6065
22.7106
22.2211
32.0659
37.7038
37.4557
31.8282
21.8335
21.3286
31.2707
36.8814
36.6279
31.0238
20.9287
20.4089
30.4489
36.0436
35.7844
30.1929
19.9977
19.4642
29.6005
35.1893
34.9243
29.3358
19.0435
18.4985
28.7269
34.3181
34.0478
28.4546
18.0707
17.5178
27.8313
33.4308
33.1565
27.5536
17.0864
16.5314
26.9216
32.5313
32.2543
26.6408
16.102
15.5511
26.0039
31.6232
31.3456
25.7234
15.1299
14.591
25.0889
30.713
30.4368
24.813
14.1861
13.6685
24.1892
29.8077
29.5373
23.9237
13.289
12.8035
23.3213
28.92
28.6605
23.0724
12.459
12.0164
22.5026
28.0632
27.819
22.2757
11.7163
11.3263
21.7482
27.2505
27.0258
21.547
11.078
10.7475
21.0681
26.4933
26.2914
20.895
10.5554
10.2883
20.4692
25.8027
25.6253
20.3229
10.1531
9.94829
19.9481
25.1846
25.0313
19.8257
9.86522
9.71879
19.4973
24.6387
24.5063
19.3931
9.67728
9.59177
19.0982
24.1595
24.0404
18.9887
9.58141
9.54233
18.6882
23.7223
23.6129
18.5834
9.54604
9.5307
18.2988
23.3153
23.2132
18.2073
9.54666
9.54515
17.9491
22.9312
22.835
17.8694
9.56917
9.57758
17.635
22.567
22.4766
17.5649
9.61409
9.62815
17.3513
22.2226
22.1384
17.2897
9.67157
9.68838
17.0951
21.899
21.8214
17.0415
9.73438
9.75247
16.865
21.5975
21.5269
16.8192
9.79871
9.8172
16.6603
21.3193
21.2558
16.6217
9.86273
9.88124
16.4794
21.0642
21.0079
16.4478
9.92531
9.94322
16.3212
20.8324
20.7828
16.2958
9.98507
10.0022
16.1837
20.6222
20.5787
16.1641
10.0416
10.0578
16.065
20.432
20.394
16.0503
10.0948
10.1099
15.9622
20.2596
20.2263
15.9517
10.1442
10.1584
15.873
20.1024
20.073
15.8662
10.1906
10.2038
15.7956
19.9578
19.9314
15.7913
10.2337
10.2454
15.7259
19.8231
19.7984
15.7232
10.2724
10.2831
15.6617
19.6944
19.6707
15.6603
10.3083
10.318
15.6019
19.5692
19.5458
15.6013
10.341
10.3498
15.5448
19.4455
19.4219
15.5443
10.371
10.3786
15.4887
19.3219
19.2975
15.4877
10.3974
10.4035
15.4316
19.1967
19.171
15.4296
10.4196
10.4246
15.3726
19.0681
19.0408
15.3696
10.4385
10.4421
15.3114
18.9355
18.9062
15.3071
10.4537
10.4556
15.2464
18.7973
18.7672
15.2411
10.4643
10.4643
15.1798
18.6552
18.6196
15.1673
10.4697
10.4655
15.1106
18.5042
18.4644
15.0929
10.4842
10.4882
15.0509
18.3919
18.4048
15.0803
10.5476
10.5753
15.0804
18.3578
18.2741
15.0166
10.5928
10.6716
15.1143
18.3571
18.3145
15.1038
10.7276
24.7693
30.859
36.2517
41.1136
45.2868
49.2439
52.47
55.1736
57.3229
59.0035
60.2038
60.9375
61.1744
60.8956
60.0654
58.5947
56.4514
53.5535
50.2755
46.1192
40.1443
34.3563
30.5828
23.9572
17.9433
15.4128
12.551
12.8489
16.1422
18.2301
13.9188
12.9091
9.93637
10.5142
16.0179
17.1284
17.0111
15.6519
10.3525
10.4171
16.1226
17.4552
17.278
15.8663
10.285
10.439
16.0564
17.4561
17.3633
15.8879
10.3563
10.4421
16.1325
17.5768
17.5171
16.0035
10.344
10.4411
16.2634
17.7596
17.7028
16.133
10.4137
10.5714
16.3637
17.9377
17.8616
16.2127
10.5434
10.6547
16.4313
18.1164
18.0456
16.3017
10.6218
10.724
16.5454
18.3156
18.2449
16.4398
10.6836
10.7922
16.6802
18.5204
18.4463
16.5491
10.7538
10.8483
16.7818
18.7207
18.6429
16.6633
10.8037
10.9054
16.9304
18.9344
18.8628
16.7916
10.875
10.9964
17.0447
19.1557
19.079
16.9087
10.9646
11.0735
17.1907
19.3881
19.3144
17.0596
11.0425
11.1632
17.335
19.6313
19.5538
17.1962
11.1327
11.2423
17.473
19.8832
19.8045
17.3395
11.2051
11.3064
17.6372
20.1403
20.0567
17.5069
11.2718
11.4182
17.787
20.4036
20.3172
17.6456
11.397
11.5638
17.9505
20.677
20.5889
17.811
11.5557
11.7338
18.1018
20.9583
20.8651
17.9456
11.7157
11.8591
18.2309
21.2555
21.1603
18.0976
11.835
11.9673
18.4247
21.572
21.4812
18.2965
11.9377
12.0805
18.6124
21.9076
21.813
18.4802
12.0587
12.2131
18.8058
22.2568
22.1606
18.6671
12.1946
12.3504
19.0041
22.6172
22.5167
18.8725
12.3287
12.4901
19.2274
22.9957
22.8949
19.0928
12.4717
12.637
19.4502
23.3895
23.2853
19.3122
12.6168
12.7759
19.6839
23.8026
23.6969
19.5475
12.7527
12.9192
19.931
24.2317
24.1237
19.7886
12.9028
13.0816
20.1854
24.6826
24.5748
20.0414
13.0692
13.2585
20.4567
25.1549
25.0426
20.3125
13.2495
13.4485
20.7361
25.6453
25.5293
20.5898
13.4386
13.6376
21.0222
26.149
26.0271
20.8727
13.6264
13.828
21.3118
26.6714
26.5462
21.1586
13.817
14.0246
21.6056
27.2068
27.0735
21.4471
14.0167
14.2339
21.8933
27.757
27.6195
21.7253
14.2291
14.4536
22.1714
28.3241
28.1782
21.9958
14.4528
14.6929
22.4333
28.9102
28.7571
22.2402
14.7024
14.9648
22.6569
29.5127
29.353
22.4471
14.9921
15.3061
22.8781
30.1684
30.017
22.6651
15.3876
15.7711
23.1378
30.9347
30.7771
22.9347
15.9385
16.2845
23.5836
31.8873
31.6752
23.3162
16.3158
16.6895
24.0319
32.7635
32.5639
23.7382
16.6725
16.958
24.5115
33.7487
33.4901
24.1573
16.9141
17.1204
24.8034
34.6071
34.4074
24.5489
17.1231
17.341
25.0537
35.5822
35.4252
24.7538
17.3457
17.4956
25.3837
36.647
36.4988
25.2719
17.4861
17.6008
25.7916
37.7664
37.6342
25.4816
17.5646
17.6644
25.8722
38.849
38.7411
25.6049
17.6459
17.6995
25.9922
40.0599
40.0325
25.7908
17.6874
17.8151
26.2663
41.5341
41.5215
26.1148
17.9161
18.29
26.7815
43.2932
43.4737
26.8519
18.6425
19.4098
28.2958
45.5416
46.0371
28.7917
20.1011
21.6966
32.7548
48.9125
49.7973
36.1568
23.4319
18.9806
19.3129
26.8697
45.2598
27.1588
19.8672
20.3433
27.8599
45.6686
51.9541
31.5896
22.6338
26.2491
32.8331
55.4656
71.3775
39.7245
32.1374
36.8677
52.9901
86.9707
98.6063
72.3253
42.8704
44.0955
75.1063
104.097
113.369
87.0623
47.1991
48.9319
91.4436
119.239
122.065
93.739
49.8829
48.7749
89.0364
115.608
126.624
96.7903
53.2381
56.2956
103.093
132.003
139.291
110.157
59.6714
62.7166
116.336
146.23
150.589
121.776
66.7237
71.524
134.794
163.28
171.021
142.345
74.7241
77.8299
151.262
178.903
176.831
149.022
76.7048
79.0311
155.391
183.327
188.942
159.798
81.2699
84.6085
167.969
196.005
193.021
166.521
84.3423
89.3475
174.764
201.725
212.853
187.136
97.5978
104.644
198.679
224.193
231.438
207.812
110.8
115.263
213.501
235.062
246.497
225.645
125.957
139.89
241.034
258.883
268.883
255.522
148.874
161.511
266.16
274.458
276.286
275.061
178.021
193.881
281.192
277.47
271.763
286.196
205.394
217.027
289.443
265.31
274.584
298.291
222.09
218.861
312.323
276.985
297.343
313.842
212.321
204.985
291.673
300.852
298.15
267.222
199.793
192.11
239.736
287.678
249.355
206.004
182.168
167.943
193.801
249.595
241.003
184.125
154.402
138.745
162.841
207.127
213.63
163.746
125.131
112.107
155.057
199.004
188.644
145.88
101.211
89.4857
131.575
167.435
176.595
135.615
80.5237
72.67
133.608
167.258
161.283
126.562
66.9075
59.4997
119.383
145.967
155.96
124.597
56.9847
58.2003
122.752
148.631
169.839
134.265
62.073
63.3509
135.64
168.846
166.366
134.833
61.3122
58.1201
129.817
154.122
164.29
135.886
60.7756
61.4974
137.265
159.333
155.038
132.37
58.8664
56.7099
125.137
144.273
149.88
128.76
59.7517
60.9649
130.106
149.126
144.01
125.237
59.2123
57.0011
118.166
140.297
129.299
107.738
54.4053
56.5403
113.376
136.388
130.175
106.512
54.5571
52.3518
98.8013
121.203
100.271
62.7367
46.4296
44.9908
62.0717
109.578
98.4535
55.2738
41.1465
36.4078
48.1012
81.1202
77.0843
45.7243
33.4068
28.595
33.2176
49.0057
75.364
58.1896
37.8281
36.9112
55.0777
73.0927
63.1159
45.5462
35.2139
33.0538
41.2676
59.1669
37.3043
29.7661
30.2532
35.5142
48.2058
62.4925
58.0134
42.4578
34.0373
32.3222
38.1771
53.3413
34.0193
28.3969
30.4724
34.5502
43.8283
56.6448
52.0334
38.3553
33.8219
32.6909
34.8379
46.8071
30.6696
27.0259
31.386
33.6115
38.5323
51.0543
48.0894
35.8004
33.3313
32.783
31.2239
40.4861
37.6347
29.4001
31.3867
30.7708
24.5931
26.1091
43.0183
33.3129
31.7119
32.373
30.5992
39.0955
35.1443
28.4372
32.2959
31.9566
24.2135
25.04
39.4913
30.9623
31.5632
32.0526
28.2255
35.4727
32.3597
26.2949
31.9828
32.2185
23.006
23.3193
37.1939
29.1719
30.886
31.4892
26.9514
33.6572
30.3526
25.1095
32.0219
32.9161
22.5372
22.524
34.2091
27.4453
30.3022
30.9635
25.2349
30.91
28.4046
23.7354
31.759
33.2327
21.9099
21.5735
32.6225
26.4228
30.0463
30.7926
24.3937
29.5766
26.977
23.1911
32.0108
33.9628
21.7812
21.1216
29.9409
24.9292
29.6082
30.7021
23.6393
28.5611
21.6097
22.1633
32.9741
30.3923
26.0168
31.8639
28.6727
24.1788
31.8856
33.6338
23.4415
26.2782
21.4003
22.405
35.9157
30.7184
24.7584
29.2519
26.4961
22.8745
31.7219
33.4597
22.4838
24.6419
20.6129
21.8908
36.0867
29.9535
22.6014
25.9195
24.8578
22.1189
31.3865
34.4739
21.5653
20.2759
27.0143
23.0284
30.1858
31.7022
21.7517
24.3322
22.9337
21.6579
33.7236
36.8923
21.3219
19.833
23.6805
21.2126
29.963
31.4734
20.9194
22.8992
19.2052
20.8736
34.6945
29.5716
21.3619
24.4826
22.578
20.4914
31.1635
33.7675
20.6135
21.387
18.975
21.0107
37.7608
30.6511
20.3067
22.4628
21.6763
20.1753
32.2475
35.5976
20.5545
18.4338
23.033
20.427
29.7456
31.2696
19.7966
21.1116
20.0003
19.4133
33.8179
38.0154
21.6919
18.2623
20.1163
19.3236
30.5979
32.7039
18.6537
19.2973
17.8237
21.5006
36.7551
30.1864
19.2446
20.1416
19.1717
18.881
32.1076
35.2233
18.5695
18.4499
17.6325
22.2446
40.0264
31.7331
18.606
18.9608
18.1665
17.9465
34.0181
38.2273
21.6191
17.2413
19.3648
18.7452
30.6982
32.8681
18.1419
18.395
17.4389
21.6656
37.0461
30.2867
18.6087
19.0128
18.1857
18.1659
33.0173
37.6991
21.9228
17.4487
19.2372
18.8631
31.046
33.6125
18.8508
18.7057
17.3865
18.6536
37.387
42.4882
24.1332
17.4843
18.1368
18.4809
33.5311
36.4384
18.0513
16.9712
17.1679
23.9261
41.4746
33.0124
18.2238
17.7994
16.7909
17.882
36.0004
41.1646
23.7055
17.0214
17.9237
18.2801
33.0072
36.1993
17.9972
16.8759
17.1361
23.9951
41.619
33.3471
18.188
17.8145
17.3302
18.5092
36.0287
40.1952
18.7081
16.4392
17.121
25.9682
45.5408
35.4406
18.3034
17.4955
16.4254
17.9652
38.7936
44.5505
25.3454
17.0377
17.5988
18.3064
35.0847
38.6219
18.0714
16.4842
17.1759
25.6439
44.5267
35.4035
18.3435
17.5249
16.5021
18.2474
39.0886
45.0501
25.9908
17.2491
17.732
18.5598
35.7698
39.5226
18.3954
16.6184
17.4447
26.5057
45.898
36.3892
18.6117
17.6621
16.6284
18.5559
40.2995
46.8376
26.9827
17.525
17.6961
18.7192
37.2166
40.5854
19.4414
16.9676
16.2631
19.9474
45.5059
51.9158
29.7365
17.8707
17.0929
18.6624
39.6801
43.7891
18.4474
16.0779
17.5262
28.5851
50.6375
39.1907
18.3627
16.8943
15.9221
18.3404
43.5364
50.6184
28.6293
17.395
16.8676
18.3536
39.2533
43.6604
18.4262
15.9503
17.5519
29.0139
50.8813
39.5945
18.4592
16.9096
15.9932
18.4855
44.1394
51.7642
29.2798
17.6084
17.0126
18.5667
40.1318
44.7821
18.7467
16.1357
17.8793
29.8671
52.5591
40.9171
18.8278
17.1743
16.3
18.9495
45.6072
53.489
30.3399
18.0728
17.386
19.0545
41.5078
46.3337
19.2499
16.5228
18.4431
31.0444
54.4819
42.3825
19.3889
17.5878
16.7166
19.4755
47.2493
55.6407
31.4372
18.6441
17.8358
19.6058
43.077
48.0153
19.8415
16.9694
18.8637
31.8947
56.5059
43.9252
19.8945
18.0712
17.382
20.8765
48.0066
54.3838
22.1979
16.7875
20.0444
36.0152
62.7894
47.641
20.8026
18.3469
17.4763
20.7991
53.0028
62.0021
34.6219
19.9775
18.5783
20.7026
47.3655
52.8734
20.935
17.6486
20.2485
34.9561
62.0401
47.6122
20.9282
18.7873
17.8633
21.2474
53.2304
62.641
35.3625
20.4671
18.9977
21.1801
48.2393
53.8769
21.4213
18.0665
20.7975
35.9655
63.5486
48.7878
21.4747
19.2132
18.314
21.8721
54.6332
64.5463
36.5691
21.0973
19.4646
21.8225
49.555
55.4296
22.0781
18.5536
21.4464
37.0824
65.6018
50.5506
22.11
19.7194
18.8228
22.4753
56.5644
66.8648
37.824
21.8198
20.0301
22.4979
51.4096
57.4548
22.784
19.1253
22.2954
38.4924
67.9035
52.1506
22.8226
20.2942
19.404
23.2115
58.3405
69.1613
39.2083
22.643
20.5465
23.2226
53.1012
59.2779
23.4574
19.6423
22.8056
39.4152
70.2104
53.9003
23.3806
20.7463
19.9605
25.0175
59.1979
67.2302
27.0708
19.4713
25.1726
45.2064
78.2105
59.1981
24.6122
20.8154
19.8075
24.578
66.0611
77.9342
43.0465
24.3316
20.5349
23.9084
58.8653
65.9541
24.4911
19.6524
24.328
43.6371
77.835
59.0798
24.2089
20.6265
19.775
24.5993
66.21
78.3394
43.5827
24.3646
20.7839
24.2404
59.3959
66.6413
24.7745
19.9588
24.5964
44.048
79.0399
60.2017
24.6025
21.0432
20.1799
24.8979
67.4646
80.4371
44.5418
24.7788
21.3268
24.8586
60.9895
68.4244
25.5041
20.5647
25.2606
45.3331
81.2425
61.996
25.406
21.7469
20.9004
25.7619
69.3365
82.4394
45.3429
25.2367
22.1125
25.5837
62.6471
68.7319
27.5166
21.2376
20.7954
29.9971
78.2709
91.7335
52.1865
28.1905
22.5278
27.2956
68.3959
76.4648
27.4348
21.6152
27.4362
50.0705
90.5517
68.0876
27.0516
22.728
21.9413
27.6994
76.2513
90.2336
50.4022
27.7024
23.0637
27.4349
68.2326
76.4148
27.9568
22.2847
27.9695
50.5061
90.8409
68.7409
27.6541
23.3865
22.5962
28.3216
76.9866
92.0244
51.3193
28.3072
23.7451
28.2113
70.4046
77.4326
30.661
22.7895
22.3285
33.093
87.989
103.108
58.1388
31.0943
24.0765
29.7796
76.5397
85.5815
30.203
23.1477
30.1599
55.6114
101.313
75.9487
29.4538
24.285
23.3699
29.7204
84.7708
100.988
55.1708
29.7879
24.5089
29.433
75.8101
83.2468
31.9851
23.4648
23.1257
34.9627
94.632
110.752
62.6843
33.0429
25.2134
31.4839
82.0485
91.508
31.7036
24.2
31.9042
59.3445
108.385
80.9485
30.9728
25.375
24.5262
32.0003
90.8437
107.949
59.537
32.0764
25.8028
31.4496
81.4897
89.9939
34.5464
24.7395
24.2909
37.2143
102.159
119.694
67.0077
35.1923
26.3719
33.245
88.2507
98.5578
33.6832
25.3447
34.0429
63.5839
116.627
87.0167
32.7862
26.5322
25.5308
33.1632
97.1832
115.725
62.4234
33.2294
26.6246
32.4944
86.0582
94.3927
35.2946
25.5101
25.1865
39.025
107.623
126.676
71.0654
36.9105
27.5982
34.9667
93.2636
103.874
35.3301
26.5555
35.5375
66.6646
123.096
91.4953
34.246
27.6633
26.7186
37.8291
100.348
113.913
41.3412
26.4398
39.4498
75.8232
134.32
99.6513
36.9516
28.9286
27.8095
36.8856
110.825
131.604
70.4277
37.6167
28.4514
35.6116
96.9535
106.038
38.8607
27.3704
27.097
42.9592
120.251
140.701
78.8792
40.5445
29.5504
38.1018
103.985
114.665
42.0819
28.5582
28.0218
43.9939
128.865
151.511
82.5992
42.653
30.051
39.2113
110.294
122.396
39.6524
28.9353
40.208
76.7787
144.088
106.013
38.0701
29.9881
28.6747
41.1579
115.46
130.606
44.8281
28.2785
42.2823
84.0564
153.143
110.904
39.7332
30.8146
29.8058
43.4505
121.75
137.945
47.6926
29.5355
44.9577
88.3579
161.537
117.633
41.5298
31.7243
30.5271
44.7986
128.243
144.016
48.1413
30.1561
46.1961
90.7734
167.237
120.362
42.0011
31.9186
31.0957
46.0025
131.945
149.003
50.3583
30.8574
47.9209
94.7505
174.53
126.919
43.7807
32.8703
31.4195
44.4479
138.959
154.246
56.6249
32.1036
31.2152
56.7499
169.704
194.444
103.41
51.4128
33.0782
45.0672
136.918
150.353
49.6286
32.2026
31.8192
53.5505
168.322
194.563
103.173
50.8454
34.0975
46.4801
139.257
150.103
45.6641
32.0034
32.4362
57.6519
168.271
181.584
55.0378
31.3696
52.5851
110.937
211.312
148.99
47.9656
34.4687
32.6195
46.7565
161.583
176.574
61.4648
33.7717
33.0914
63.1602
193.717
219.998
116.879
56.2683
35.7929
49.7745
153.146
169.948
52.5702
34.4844
34.2145
59.0434
187.366
205.386
67.2395
34.6996
33.0144
64.5822
219.298
245.238
122.195
56.7812
34.894
49.3514
163.878
178.757
51.7949
33.6281
32.4865
53.83
195.401
211.907
62.971
32.4065
31.3924
62.0374
225.011
238.821
76.1019
34.2002
32.5019
74.3052
250.497
275.324
140.31
62.2971
36.3048
54.5341
182.487
190.899
53.2895
34.6897
34.4485
64.9218
209.021
224.862
64.9738
33.6138
33.0509
66.9649
237.007
245.739
68.1603
32.5256
32.4894
73.5968
251.327
250.18
70.9098
31.4884
32.4762
78.913
247.503
241.07
79.5041
32.2106
33.2615
84.9609
230.717
219.024
86.3993
33.1419
34.7811
93.1062
207.884
197.005
95.1011
34.7897
37.0654
102.585
187.39
178.352
104.418
37.2245
40.136
111.313
170.548
163.323
113.085
40.5276
43.9587
118.831
157.059
151.461
121.64
44.4916
48.6792
125.407
146.478
142.192
128.702
49.4602
54.3567
131.028
138.265
134.985
134.034
55.1562
60.4443
135.948
131.899
129.452
138.538
61.3444
66.7226
140.189
126.987
125.28
142.463
67.6219
73.168
143.899
123.273
122.226
145.841
74.1522
79.8182
147.005
120.59
120.036
148.572
80.6764
86.2259
149.551
118.737
118.475
150.853
87.0132
92.309
151.626
117.507
117.434
152.677
92.9048
97.9215
153.323
116.756
116.804
154.187
98.4083
103.073
154.674
116.337
116.458
155.346
103.362
107.681
155.748
116.133
116.31
156.296
107.855
111.794
156.575
116.084
116.301
157.001
111.785
115.332
157.202
116.116
116.405
157.581
115.251
118.409
157.628
116.241
116.572
157.949
118.212
121.059
157.92
116.415
116.769
158.199
120.807
123.324
158.113
116.619
116.987
158.338
122.982
125.244
158.217
116.842
117.221
158.415
124.869
126.866
158.25
117.079
117.463
158.409
126.424
128.221
158.224
117.323
117.708
158.367
127.765
129.355
158.15
117.569
117.951
158.267
128.852
130.292
158.039
117.813
118.191
158.15
129.79
131.069
157.901
118.053
118.425
157.995
130.537
131.708
157.743
118.288
118.655
157.836
131.185
132.229
157.571
118.518
118.88
157.662
131.665
132.649
157.407
118.745
119.106
157.504
132.125
132.999
157.238
118.972
119.329
157.325
132.463
133.28
157.06
119.198
119.551
157.154
132.765
133.507
156.883
119.42
119.767
156.971
132.984
133.693
156.706
119.636
119.979
156.805
133.19
133.86
156.538
119.85
120.19
156.634
133.337
133.968
156.377
120.064
120.404
156.482
133.458
134.04
156.223
120.28
120.62
156.321
133.507
134.052
156.069
120.498
120.838
156.172
133.528
134.031
155.914
120.718
121.053
156.006
133.48
133.952
155.752
120.933
121.263
155.843
133.41
133.849
155.58
121.142
121.461
155.659
133.287
133.707
155.399
121.339
121.646
155.479
133.151
133.543
155.207
121.523
121.816
155.274
132.964
133.341
155.003
121.691
121.973
155.07
132.77
133.125
154.788
121.846
122.114
154.844
132.537
132.886
154.566
121.985
122.244
154.626
132.312
132.645
154.342
122.113
122.36
154.394
132.057
132.391
154.117
122.229
122.467
154.178
131.822
132.144
153.898
122.335
122.563
153.954
131.566
131.893
153.684
122.43
122.651
153.75
131.334
131.652
153.479
122.517
122.73
153.541
131.085
131.41
153.281
122.595
122.803
153.354
130.863
131.182
153.093
122.668
122.868
153.163
130.628
130.955
152.913
122.733
122.93
152.995
130.421
130.743
152.744
122.794
122.985
152.822
130.201
130.532
152.583
122.849
123.037
152.672
130.01
130.334
152.431
122.901
123.083
152.516
129.804
130.139
152.285
122.947
123.126
152.381
129.628
129.956
152.148
122.991
123.165
152.24
129.436
129.774
152.017
123.029
123.201
152.118
129.272
129.604
151.892
123.065
123.233
151.988
129.093
129.435
151.771
123.097
123.263
151.877
128.942
129.278
151.657
123.127
123.289
151.758
128.775
129.121
151.547
123.153
123.314
151.656
128.636
128.975
151.442
123.177
123.336
151.546
128.48
128.83
151.341
123.198
123.355
151.454
128.352
128.695
151.246
123.218
123.373
151.353
128.207
128.561
151.153
123.234
123.389
151.27
128.09
128.438
151.066
123.25
123.403
151.177
127.956
128.314
150.981
123.263
123.415
151.101
127.85
128.202
150.902
123.276
123.425
151.016
127.726
128.088
150.824
123.285
123.434
150.946
127.629
127.984
150.75
123.294
123.44
150.866
127.514
127.878
150.677
123.3
123.446
150.801
127.424
127.781
150.608
123.305
123.451
150.726
127.315
127.683
150.54
123.31
123.455
150.666
127.233
127.593
150.477
123.314
123.458
150.596
127.132
127.503
150.414
123.318
123.462
150.542
127.058
127.422
150.356
123.322
123.466
150.477
126.965
127.339
150.298
123.326
123.47
150.428
126.898
127.264
150.245
123.331
123.475
150.367
126.81
127.186
150.191
123.336
123.48
150.322
126.747
127.115
150.141
123.343
123.486
150.266
126.664
127.041
150.092
123.349
123.493
150.225
126.606
126.976
150.047
123.357
123.501
150.173
126.529
126.91
150.003
123.365
123.509
150.137
126.478
126.851
149.962
123.374
123.518
150.09
126.406
126.788
149.922
123.384
123.529
150.058
126.359
126.733
149.886
123.395
123.54
150.015
126.291
126.675
149.85
123.408
123.554
149.987
126.248
126.624
149.818
123.424
123.571
149.948
126.183
126.568
149.785
123.442
123.593
149.923
126.142
126.517
149.757
123.468
123.623
149.888
126.076
126.461
149.73
123.5
123.664
149.87
126.034
126.409
149.709
123.545
123.718
149.841
125.968
126.352
149.691
123.603
123.792
149.827
125.929
126.285
149.675
123.68
123.926
149.8
125.846
126.196
149.637
123.822
124.13
149.717
125.703
125.796
149.748
124.056
124.535
149.713
125.152
124.17
149.608
125
126.279
148.78
123.586
118.663
147.519
128.407
130.095
145.632
114.739
107.031
143.965
132.241
71.6791
56.7163
58.4378
69.5644
83.4548
90.5465
105.244
121.9
128.381
133.271
136.148
137.633
138.231
138.315
138.136
137.845
137.528
137.224
136.95
136.712
136.509
136.338
136.196
136.079
135.984
135.912
135.858
135.822
135.801
135.791
135.788
135.782
135.772
135.759
135.743
135.723
135.7
135.675
135.647
135.616
135.583
135.548
135.51
135.47
135.428
135.384
135.337
135.288
135.237
135.183
135.12
135.028
134.891
134.715
134.525
134.34
134.18
134.053
133.967
133.926
133.918
133.942
133.993
134.065
134.147
134.234
134.322
134.407
134.489
134.57
134.648
134.726
134.805
134.885
134.968
135.053
135.143
135.237
135.337
135.441
135.551
135.667
135.788
135.915
136.047
136.183
136.324
136.469
136.617
136.767
136.92
137.074
137.228
137.383
137.537
137.69
137.842
137.993
138.142
138.289
138.435
138.578
138.719
138.859
138.996
139.13
139.263
139.393
139.519
139.643
139.764
139.881
139.995
140.106
140.212
140.315
140.414
140.511
140.603
140.693
140.78
140.865
140.947
141.027
141.104
141.18
141.253
141.324
141.394
141.462
141.529
141.594
141.658
141.721
141.782
141.843
141.903
141.962
142.02
142.077
142.133
142.188
142.242
142.295
142.346
142.395
142.443
142.49
142.536
142.58
142.623
142.666
142.707
142.747
142.787
142.826
142.865
142.903
142.942
142.98
143.018
143.056
143.095
143.134
143.173
143.213
143.253
143.295
143.336
143.379
143.422
143.466
143.511
143.556
143.602
143.648
143.696
143.744
143.792
143.842
143.892
143.943
143.995
144.047
144.1
144.153
144.206
144.258
144.307
144.353
144.392
144.426
144.453
144.469
144.475
144.476
144.477
144.477
144.477
144.477
144.476
144.47
144.444
144.357
144.168
143.864
143.467
143.016
142.542
142.06
141.573
141.079
140.574
140.056
139.521
138.97
138.404
137.821
137.224
136.614
135.99
135.355
134.708
134.052
133.387
132.714
132.034
131.348
130.659
129.966
129.273
128.579
127.886
127.196
126.51
125.83
125.158
124.494
123.841
123.199
122.572
121.959
121.363
120.782
120.217
119.664
119.12
118.585
118.069
117.597
117.218
116.973
116.856
116.818
116.814
116.817
116.793
116.669
116.013
115.086
112.335
110.529
108.92
106.923
105.393
103.371
101.967
99.9943
98.7277
96.8291
95.6994
93.8799
92.8762
91.139
90.2424
88.5886
87.7818
86.2083
85.4801
83.9825
83.3202
81.8979
81.281
79.9358
79.3587
78.0819
77.5398
76.3242
75.8135
74.6529
74.1705
73.0602
72.6039
71.5407
71.1085
70.0891
69.6791
68.7
68.3101
67.3678
66.9961
66.0872
65.7317
64.8531
64.5121
63.6614
63.3334
62.5077
62.1912
61.3879
61.0815
60.2981
60.0005
59.2345
58.9443
58.1934
57.9092
57.1707
56.8913
56.1629
55.8869
55.1661
54.8923
54.177
53.9043
53.1924
52.9198
52.2091
51.9353
51.2238
50.9476
50.233
49.9533
49.2335
48.9493
48.2224
47.9327
47.1973
46.9015
46.1567
45.8537
45.0964
44.7869
44.0196
43.704
42.9274
42.6062
41.822
41.4964
40.7086
40.3811
39.5949
39.2696
38.4906
38.1727
37.4106
37.1058
36.3697
36.0855
35.3897
35.1338
34.4924
34.2679
33.6868
33.494
32.9736
32.8111
32.3482
32.2079
31.7885
31.6624
31.2734
31.1586
30.7946
30.6897
30.3478
30.2527
29.9322
29.8466
29.5467
29.4706
29.1912
29.1241
28.8637
28.8054
28.5634
28.513
28.2873
28.2437
28.0326
27.9949
27.7963
27.7633
27.5747
27.5451
27.3642
27.337
27.162
27.1358
26.9642
26.9378
26.7675
26.7399
26.569
26.5396
26.3671
26.3355
26.1608
26.1264
25.9484
25.9107
25.7283
25.6871
25.4997
25.4558
25.264
25.2118
25.0135
24.961
24.8047
24.817
24.7582
24.6558
24.6505
30.8848
36.4597
36.5317
30.8961
31.0359
36.6
36.4448
31.0201
30.8873
35.7583
43.9948
42.1434
41.766
41.4737
45.6363
45.8046
45.8502
50.6475
50.1579
49.7095
52.9262
53.3465
53.6012
53.0702
53.6592
44.5233
37.1178
31.2864
31.174
36.1668
37.5106
31.631
31.5196
36.617
45.1693
45.8437
37.9724
31.9844
31.861
37.0563
38.4325
32.3206
32.1938
37.4872
46.4986
47.1457
38.8863
32.6495
32.515
37.905
39.3285
32.9675
32.8248
38.3082
47.7852
48.4047
39.7558
33.2749
33.1244
38.6981
40.1694
33.5725
33.4145
39.0746
49.0056
49.5885
40.5691
33.8608
33.6955
39.4373
40.9547
34.1406
33.9687
39.7867
50.1513
50.6923
41.3264
34.4137
34.236
40.1238
41.6854
34.6826
34.5003
40.4503
51.2104
51.7058
42.0333
34.9504
34.7647
40.7694
42.3734
35.2206
35.0329
41.0847
52.1798
52.6359
42.7095
35.4972
35.3094
41.4016
43.0472
35.785
35.5986
41.726
53.0799
53.5208
43.393
36.0884
35.9052
42.0648
43.7543
36.4123
36.2339
42.4258
53.9705
54.4436
44.1403
36.7623
36.5905
42.8184
44.5614
37.1442
36.9805
43.252
54.9554
55.5192
45.0278
37.5644
37.411
43.7385
45.5528
38.0312
37.8905
44.2996
56.1377
56.8597
46.1603
38.5533
38.4268
44.9527
46.8694
39.1382
39.0272
45.702
57.7001
58.6806
47.7021
39.7975
39.703
46.5454
48.6687
40.5463
40.4703
47.5133
59.8168
61.1121
49.7684
41.3965
41.3414
48.6116
51.0023
42.3562
42.3232
49.8391
62.5599
64.1374
52.3593
43.4266
43.4147
51.1846
53.8188
44.6009
44.6085
52.625
65.8146
67.5433
55.3465
45.8644
45.8903
54.1296
56.9084
47.1901
47.2239
55.6665
69.2846
70.996
58.4752
48.5485
48.5804
57.2063
60.0164
49.9134
49.937
58.7215
72.6564
74.2361
61.5095
51.2667
51.2778
60.1934
62.9444
52.5954
52.5925
61.6131
75.7241
77.1226
64.3194
53.8942
53.8798
62.9793
65.636
55.1592
55.134
64.2939
78.4396
79.6868
66.9007
56.3912
56.3567
65.5622
68.1214
57.5945
57.5528
66.7929
80.8766
82.0193
69.3099
58.7736
58.7248
67.9925
70.468
59.929
59.8746
69.1651
83.1246
84.1998
71.6021
61.0653
61.0061
70.3158
72.7167
62.1854
62.1227
71.4486
85.2499
86.2795
73.8156
63.2931
63.228
72.5675
74.9026
64.3919
64.3256
73.6763
87.2915
88.2881
75.9815
65.4851
65.4184
74.7754
77.0552
66.5758
66.5096
75.8667
89.2708
90.2405
78.1245
67.6674
67.6027
76.956
79.1913
68.7629
68.701
78.0466
91.1993
92.151
80.2594
69.8653
69.8075
79.1422
81.3323
70.9779
70.9249
80.2441
93.104
94.0553
82.4109
72.1034
72.0564
81.3543
83.4972
73.2446
73.2048
82.4746
95.0062
95.9559
84.5926
74.4045
74.3732
83.6068
85.6987
75.586
75.5645
84.7529
96.9047
97.8528
86.8173
76.7918
76.7814
85.9152
87.9504
78.0247
78.0271
87.0963
98.801
99.751
89.1008
79.2894
79.3096
88.2988
90.2704
80.5876
80.6274
89.5241
100.705
101.66
91.4606
81.9224
81.9836
90.7738
92.6728
83.2968
83.3821
92.0504
102.615
103.568
93.9099
84.7145
84.8254
93.3497
95.1737
86.1793
86.3186
94.6796
104.519
105.463
96.4672
87.6952
87.8652
96.0466
97.8011
89.262
89.4619
97.4407
106.394
107.32
99.1587
90.8776
91.1076
98.8567
100.533
92.5425
92.805
100.293
108.24
109.152
101.923
94.2587
94.5566
101.748
103.325
96.0285
96.3651
103.219
110.051
110.935
104.739
97.8542
98.2336
104.704
106.157
99.7383
100.165
106.207
111.798
112.633
107.574
101.681
102.162
107.72
108.98
103.662
104.216
109.22
113.431
114.18
110.363
105.669
106.31
110.691
111.707
107.698
108.418
112.106
114.87
115.485
112.988
109.723
110.496
113.434
114.171
111.687
112.483
114.624
116.005
116.403
115.203
113.52
114.277
115.609
116.68
116.503
116.262
115.966
115.622
115.237
114.815
114.363
113.885
113.385
112.865
112.328
111.776
111.211
110.635
110.045
109.444
108.832
108.212
107.586
106.956
106.325
105.687
105.042
104.392
103.739
103.083
102.427
101.771
101.118
100.439
99.7418
99.0318
98.3117
97.5824
96.8429
96.0909
95.3223
94.5312
93.7091
92.8463
91.9294
90.9434
89.8714
88.7033
87.4312
86.0914
84.6615
83.079
81.4233
79.7464
78.1241
76.6124
75.2561