/*--------------------------------*- C++ -*----------------------------------*\
| =========                 |                                                 |
| \\      /  F ield         | OpenFOAM: The Open Source CFD Toolbox           |
|  \\    /   O peration     | Version:  v2006                                 |
|   \\  /    A nd           | Website:  www.openfoam.com                      |
|    \\/     M anipulation  |                                                 |
\*---------------------------------------------------------------------------*/
FoamFile
{
    version     2.0;
    format      ascii;
    class       volScalarField;
    location    "0.025";
    object      yPlus;
}
// * * * * * * * * * * * * * * * * * * * * * * * * * * * * * * * * * * * * * //

dimensions      [0 0 0 0 0 0 0];


internalField   uniform 0;

boundaryField
{
    bottomEmptyFaces
    {
        type            empty;
    }
    topEmptyFaces
    {
        type            empty;
    }
    inlet
    {
        type            calculated;
        value           uniform 0;
    }
    outlet
    {
        type            calculated;
        value           uniform 0;
    }
    walls
    {
        type            calculated;
        value           nonuniform List<scalar> 
1055
(
30.3154
29.5769
28.9005
28.2813
27.7226
27.2162
26.7633
26.3553
25.9924
25.6686
25.3843
25.1329
24.9152
24.7245
24.5616
24.4202
24.3019
24.2006
24.1176
24.0473
23.9912
23.9441
23.9079
23.878
23.8563
23.8383
23.8264
23.8169
23.8115
23.8074
23.8072
23.8068
23.8093
23.8127
23.8173
23.8224
23.8273
23.8323
23.8361
23.8399
23.842
23.8444
23.8443
23.8452
23.8431
23.8426
23.8385
23.8366
23.8313
23.8283
23.8217
23.8176
23.8104
23.8055
23.7978
23.792
23.7841
23.7779
23.7697
23.7631
23.7548
23.7482
23.7396
23.7326
23.724
23.717
23.7082
23.7013
23.6925
23.6857
23.6771
23.6705
23.6621
23.6558
23.6479
23.6421
23.6345
23.6292
23.6223
23.6177
23.6113
23.6074
23.6016
23.5986
23.5934
23.5912
23.5867
23.5853
23.5817
23.5809
23.5783
23.5781
23.5764
23.5768
23.5762
23.577
23.5774
23.5788
23.5803
23.5821
23.5844
23.5868
23.5896
23.5929
23.5962
23.6002
23.604
23.6088
23.613
23.6184
23.6231
23.6289
23.634
23.6403
23.6458
23.6525
23.6584
23.6654
23.6716
23.6789
23.6853
23.6929
23.6996
23.7075
23.7144
23.7225
23.7296
23.7379
23.7453
23.7538
23.7613
23.77
23.7777
23.7865
23.7944
23.8032
23.8112
23.8202
23.8283
23.8373
23.8455
23.8546
23.8627
23.8719
23.88
23.8892
23.8974
23.9064
23.9146
23.9236
23.9318
23.9407
23.9489
23.9578
23.966
23.9749
23.9829
23.9918
23.9999
24.0088
24.0168
24.0257
24.0337
24.0426
24.0506
24.0596
24.0676
24.0766
24.0846
24.0938
24.1017
24.1108
24.1187
24.1278
24.1356
24.1446
24.1523
24.1613
24.1687
24.1775
24.1846
24.2016
24.2006
24.2012
24.2157
24.225
24.2306
24.2567
24.2658
24.2936
24.2532
24.1934
23.977
24.1359
24.545
8.46388
7.22616
6.56287
11.4052
10.5749
9.67439
7.99058
18.291
13.3829
11.6037
11.4985
12.7473
9.39206
7.99448
12.508
11.4052
13.6816
13.6624
10.7289
9.2168
9.76442
9.66059
8.54264
7.37956
10.1471
9.90919
8.84746
7.49061
9.14149
7.62288
8.61362
7.38832
9.60838
10.0882
8.55635
7.41262
8.38035
7.30741
8.33767
7.19956
6.48305
10.4428
10.9328
9.72883
10.6095
9.48304
10.4075
9.21866
9.96855
9.25004
10.1265
10.1251
10.5443
9.32242
10.2143
11.5478
8.40164
8.8369
8.99499
9.7429
10.3243
10.7725
11.8729
8.60162
9.06554
9.58461
10.3825
8.35796
9.02197
10.0064
7.3129
7.63862
8.80479
9.07108
10.1678
7.41624
7.78191
8.02234
8.50458
9.16219
9.52888
8.14886
8.69659
8.41813
9.13175
8.66849
9.39813
8.34099
8.92185
10.7559
9.39715
9.77511
7.75356
8.18747
10.5474
7.66396
8.08457
10.4464
9.09981
9.40719
8.29448
9.01725
7.96985
8.55924
7.54336
7.88669
9.87925
10.2899
11.3915
8.28715
8.72795
8.85145
9.73792
11.0241
7.94541
8.39071
8.67683
9.29878
9.13076
9.94733
9.64322
10.0981
8.97088
9.73567
8.65122
9.53328
8.51768
9.17864
9.45698
9.83162
10.8882
7.99066
8.2804
8.66218
9.40578
9.13097
9.98011
8.82206
9.59436
8.67203
9.10535
7.86845
7.69825
7.32831
7.04192
9.5699
7.43608
7.85134
8.34702
8.52632
9.47019
6.98565
7.18453
8.38675
8.59034
9.71923
7.10485
7.42237
7.60451
8.02774
8.15256
8.25857
7.03116
7.25154
7.9793
7.98332
7.82203
7.80391
9.17074
6.85787
7.02205
9.21126
7.87351
7.93479
6.79976
7.0189
9.07014
7.34553
7.03637
8.99741
7.78939
7.73253
8.70214
6.67556
6.70442
7.82621
7.75413
6.68293
6.73162
6.68607
6.82128
9.25887
7.9686
8.05201
9.29304
6.9211
7.11398
6.84742
7.06645
8.98932
8.79798
7.39707
6.96575
8.32426
6.98905
6.54447
8.35906
7.13254
6.53552
8.4523
7.11379
6.57
8.37346
7.0292
6.4673
8.05627
6.40751
6.27544
8.26432
6.81464
6.45614
7.77223
7.39161
8.37402
7.72296
7.50789
6.49104
6.48039
8.75049
8.67274
7.27137
6.87826
7.39239
6.94074
7.09422
6.81104
8.95794
7.21119
6.92238
8.55369
6.63939
6.69747
8.73055
8.95335
10.072
7.39707
7.69362
9.90558
7.19173
7.50928
8.58685
8.8316
7.77726
8.28785
7.86285
8.33698
8.71769
9.03785
8.04813
8.57722
13.1905
11.3424
8.67709
11.2541
8.3131
11.692
9.72149
6.98677
10.663
10.348
7.13802
12.2406
9.97568
26.1575
24.647
8.21454
8.76809
6.09472
25.2582
21.2034
21.2214
20.3701
10.3347
20.1254
8.8304
25.4044
7.70119
20.6552
8.90053
6.09669
20.0968
21.4298
20.8919
10.6709
9.54472
8.415
7.40578
8.26208
5.94173
28.0469
26.4807
21.8255
21.3632
22.0919
21.5396
25.0521
22.013
20.9253
27.1252
23.2941
22.3732
9.95017
8.9684
8.43667
7.95205
7.30476
8.49856
6.04079
10.4834
9.65251
9.08741
8.58516
8.19112
7.64578
6.92991
7.7974
5.69974
9.64604
8.90353
8.46624
8.09796
7.79033
7.4935
7.24371
7.01978
6.89777
6.75108
6.38178
7.74743
5.34723
9.78278
9.24598
8.93794
8.76716
8.56627
13.9649
8.34371
8.16988
8.03328
7.88316
7.78871
10.9635
12.0056
7.64553
12.054
12.5007
10.3895
11.2192
13.4565
11.6543
12.1792
9.69971
10.2722
10.6731
11.7093
7.55277
7.51272
7.39421
7.27206
7.17847
7.09596
7.0257
6.96986
14.7013
10.5183
11.1609
12.6053
13.1656
11.5825
12.6931
6.92206
6.88451
6.85226
6.82961
6.8063
6.78794
6.7768
6.76662
13.5471
14.1564
12.3763
13.4658
6.76034
6.7496
6.74627
6.74404
6.73785
6.73172
6.73043
6.72884
13.804
14.2577
13.2256
14.3587
12.5579
13.5547
16.0848
11.6223
12.325
6.72269
15.7789
6.71625
6.71427
11.3551
12.0168
6.70927
6.70636
12.2912
13.172
6.69643
6.69272
6.68662
15.2071
11.8244
12.921
13.058
13.5866
11.8149
12.7855
10.9779
11.5918
11.3927
12.2829
11.2939
12.3203
12.1768
12.6558
11.073
12.1894
14.1028
10.1704
10.7462
10.8984
11.7615
14.4391
11.1394
12.0538
10.4323
10.9994
12.3852
12.9244
10.7895
11.6593
10.1577
10.6915
19.2009
14.357
14.9297
6.68192
6.67116
6.66573
6.66121
20.6856
6.65092
6.64154
6.63531
19.9943
6.63015
14.5118
15.4465
17.3167
17.3899
19.8203
16.8599
17.2294
14.5954
15.3369
16.7037
16.9786
6.61937
6.60961
6.60308
6.59762
6.58668
6.57676
6.57016
6.56459
6.55367
6.54371
6.53719
6.53162
6.52085
6.51095
6.50464
15.4203
6.49913
15.7129
16.241
16.7715
14.4116
15.3939
18.1973
13.1106
13.9199
6.48864
6.47885
6.47286
6.46743
6.45737
6.44759
6.44218
6.43452
17.4563
13.9831
14.9509
12.8948
13.6329
13.338
14.2648
17.0891
14.6208
15.1877
12.2373
13.0194
14.8037
15.4368
18.3799
15.7003
16.1936
13.2915
14.0517
19.2275
19.029
13.9472
14.6163
16.2754
16.4823
16.1287
16.6009
6.42916
14.1172
6.41753
14.8803
6.4124
6.405
6.39991
6.38857
6.3837
6.37659
21.3804
6.37173
6.36075
15.8863
16.5992
6.35607
6.34938
6.34462
6.33426
6.32949
22.1841
6.3257
21.9071
18.1048
17.883
18.7067
18.8901
19.8247
19.9271
23.5248
6.31682
18.831
6.3112
18.6752
6.30271
6.30123
6.29328
22.7532
6.28777
6.28279
18.7439
18.4114
6.2754
22.9807
17.8954
18.4072
16.8258
17.381
18.0691
18.3366
15.5126
16.1523
6.27365
6.26798
6.27116
6.3339
6.37664
6.47395
6.73672
7.08598
29.3252
25.9824
30.2052
23.735
22.0949
29.8637
27.0694
26.8721
23.3244
22.2774
9.90702
10.7615
33.3531
32.1448
30.9468
32.842
25.4926
23.4325
30.9802
26.8565
25.4262
22.8951
12.5326
30.4833
9.97449
10.911
10.8412
11.2616
29.0558
35.5235
27.4036
25.3412
10.2443
11.2057
10.0341
11.0002
35.7521
12.7993
11.1146
11.584
9.28031
9.77059
36.3214
9.78333
10.5642
9.11976
9.57665
36.7136
36.656
36.761
36.4458
35.7031
13.1597
34.7823
10.7494
11.7063
10.4417
11.485
10.2358
11.0481
9.51443
10.0216
10.4093
11.3844
11.3285
11.7741
10.2132
11.1359
33.8355
32.8898
31.9755
31.1154
9.59715
10.5488
11.9776
8.68025
9.1412
9.33081
10.0888
9.77847
10.7221
25.0273
7.53065
36.4839
33.203
31.0093
29.5375
28.4266
27.3929
26.6604
25.9492
25.5519
25.0756
24.7915
24.4221
24.2077
23.9065
23.7377
23.4826
23.3441
23.1204
23.0019
22.8004
22.6963
22.5106
22.4166
22.2426
22.1558
21.9906
21.9091
21.7507
21.6732
21.5202
21.4457
21.2969
21.2246
21.0794
21.0087
20.8663
20.7968
20.6566
20.588
20.4496
20.3817
20.2446
20.177
20.0408
19.9732
19.8375
19.7698
19.634
19.5659
19.4298
19.3609
19.224
19.1542
19.0162
18.9451
18.8056
18.7331
18.5918
18.5176
18.3741
18.2982
18.1523
18.0745
17.9259
17.8461
17.6947
17.613
17.4588
17.3753
17.2183
17.1332
16.9735
16.887
16.7249
16.6374
16.4734
16.3856
16.2201
16.1329
15.967
15.8813
15.7161
15.6334
15.4705
15.3925
15.2337
15.1624
15.0101
14.9481
14.8046
14.7553
14.6242
14.5901
14.4779
14.4585
14.3688
14.3654
14.3055
14.3151
14.2885
14.3102
14.3021
14.3525
14.3595
14.4367
14.4595
14.5597
14.5944
14.7104
14.7537
14.8803
14.9299
15.0641
15.1178
15.2561
15.3112
15.4499
15.5046
15.6404
15.6931
15.8232
15.8724
15.9943
16.039
16.151
16.1905
16.2909
16.3243
16.412
16.439
16.5135
16.5341
16.5959
16.6103
16.6602
16.6691
16.7082
16.7122
16.7421
16.7419
16.7626
16.7599
16.7738
16.7689
16.7773
16.7705
16.776
16.7652
16.7689
16.7542
16.757
16.7397
16.7417
16.7224
16.7238
16.7029
16.7039
16.6817
16.6824
16.6591
16.6595
16.6353
16.6355
16.6107
16.6108
16.5827
16.5886
16.5548
16.5637
16.5178
16.5914
16.6191
16.8198
17.0999
18.1383
20.7637
18.8054
39.9558
)
;
    }
    rightWall
    {
        type            calculated;
        value           uniform 0;
    }
    symmetryLine
    {
        type            symmetryPlane;
    }
}


// ************************************************************************* //
