/*--------------------------------*- C++ -*----------------------------------*\
| =========                 |                                                 |
| \\      /  F ield         | OpenFOAM: The Open Source CFD Toolbox           |
|  \\    /   O peration     | Version:  v2006                                 |
|   \\  /    A nd           | Website:  www.openfoam.com                      |
|    \\/     M anipulation  |                                                 |
\*---------------------------------------------------------------------------*/
FoamFile
{
    version     2.0;
    format      ascii;
    class       volScalarField;
    location    "0.016";
    object      Co;
}
// * * * * * * * * * * * * * * * * * * * * * * * * * * * * * * * * * * * * * //

dimensions      [0 0 0 0 0 0 0];


internalField   nonuniform List<scalar> 
24416
(
0.0179064
0.0171388
0.0185387
0.0192517
0.0195679
0.0191271
0.0192331
0.0190831
0.0189208
0.0188854
0.0187663
0.0187695
0.0187509
0.0187468
0.0187482
0.0187504
0.0187506
0.0187458
0.0187342
0.0187164
0.0186948
0.0186712
0.018647
0.0186226
0.0185981
0.0185733
0.0185479
0.0185219
0.0184951
0.0184677
0.0184396
0.0184109
0.0183817
0.0183519
0.0183216
0.0182908
0.0182596
0.0182278
0.0181956
0.018163
0.0181299
0.0180964
0.0180625
0.0180282
0.0179937
0.0179588
0.0179236
0.0178881
0.0178524
0.0178165
0.0177804
0.0177441
0.0177077
0.0176711
0.0176345
0.0175978
0.0175611
0.0175244
0.0174878
0.0174512
0.0174147
0.0173784
0.0173422
0.0173062
0.0172704
0.0172349
0.0171997
0.0171647
0.0171302
0.017096
0.0170622
0.0170288
0.0169959
0.0169635
0.0169315
0.0169
0.0168692
0.0168389
0.0168091
0.01678
0.0167516
0.0167239
0.0166969
0.0166705
0.0166446
0.016619
0.0165933
0.0165674
0.0165409
0.0165145
0.0164891
0.0164684
0.0164571
0.0164702
0.0165028
0.0166318
0.0168369
0.0173656
0.0182765
0.0204299
0.0252791
0.0360378
0.0553382
0.0446016
0.039343
0.0392187
0.038156
0.0365152
0.0359735
0.0346146
0.0313601
0.0339341
0.0354094
0.0321748
0.0321843
0.030572
0.0255561
0.027297
0.0277715
0.0267662
0.0269329
0.0254031
0.0231045
0.0252494
0.0258093
0.0257538
0.0253757
0.0231737
0.0226091
0.025026
0.0255741
0.025591
0.0251149
0.0226049
0.022285
0.0249502
0.0255761
0.0256474
0.024895
0.0221145
0.0219303
0.0248121
0.0254374
0.0255681
0.0247312
0.0217617
0.0216008
0.0246471
0.0253499
0.0254749
0.0245661
0.0214509
0.0213091
0.0244845
0.0252553
0.0253785
0.0244069
0.0211759
0.0210486
0.0243285
0.0251585
0.0252806
0.0242538
0.0209283
0.0208125
0.0241782
0.0250608
0.0251821
0.0241062
0.0207023
0.0205956
0.024033
0.0249626
0.0250834
0.0239634
0.0204936
0.0203941
0.0238923
0.0248643
0.0249846
0.0238249
0.0202989
0.0202056
0.0237557
0.0247691
0.0248857
0.0236899
0.0201158
0.0200278
0.023623
0.0246753
0.0247876
0.0235586
0.0199425
0.0198587
0.0234934
0.0245807
0.0246903
0.0234305
0.0197773
0.0196966
0.0233656
0.0244854
0.0245921
0.0233041
0.0196185
0.0195407
0.0232402
0.0243898
0.024494
0.0231797
0.0194654
0.0193902
0.0231165
0.0242935
0.0243957
0.0230568
0.0193172
0.0192441
0.0229943
0.0241967
0.0242971
0.0229353
0.0191732
0.0191019
0.0228732
0.024099
0.024198
0.0228146
0.0190327
0.018963
0.0227529
0.0240005
0.0240982
0.0226947
0.0188953
0.0188269
0.0226331
0.023901
0.0239977
0.0225752
0.0187604
0.0186931
0.0225137
0.0238003
0.0238963
0.0224558
0.0186276
0.0185612
0.0223942
0.0236983
0.0237938
0.0223363
0.0184966
0.0184309
0.0222746
0.0235949
0.0236901
0.0222166
0.0183669
0.0183018
0.0221547
0.02349
0.023585
0.0220964
0.0182384
0.0181737
0.0220341
0.0233834
0.0234784
0.0219755
0.0181106
0.0180462
0.0219128
0.023275
0.0233702
0.0218538
0.0179834
0.0179191
0.0217905
0.0231646
0.0232602
0.021731
0.0178564
0.0177921
0.021667
0.0230522
0.0231483
0.0216069
0.0177294
0.017665
0.0215423
0.0229375
0.0230343
0.0214814
0.0176021
0.0175374
0.0214159
0.0228203
0.022918
0.0213542
0.0174742
0.0174092
0.0212878
0.0227024
0.0227994
0.0212252
0.0173455
0.0172799
0.0211577
0.0225833
0.0226783
0.0210941
0.0172157
0.0171496
0.0210256
0.0224616
0.0225545
0.0209609
0.0170847
0.0170178
0.0208911
0.0223372
0.0224278
0.0208252
0.0169522
0.0168845
0.0207541
0.0222099
0.0222982
0.0206869
0.016818
0.0167494
0.0206145
0.0220795
0.0221653
0.0205459
0.0166819
0.0166122
0.0204719
0.0219458
0.022029
0.0204018
0.0165436
0.0164728
0.0203263
0.0218087
0.0218892
0.0202546
0.0164031
0.016331
0.0201774
0.0216679
0.0217456
0.020104
0.01626
0.0161866
0.020025
0.0215234
0.0215982
0.0199499
0.0161141
0.0160393
0.019869
0.0213749
0.0214466
0.0197919
0.0159654
0.0158889
0.0197091
0.0212223
0.0212908
0.01963
0.0158134
0.0157353
0.0195451
0.0210653
0.0211305
0.0194639
0.0156581
0.0155783
0.0193768
0.0209038
0.0209655
0.0192934
0.0154993
0.0154176
0.019204
0.0207375
0.0207957
0.0191183
0.0153366
0.0152528
0.0190265
0.0205662
0.0206206
0.0189383
0.0151698
0.0150839
0.0188438
0.0203897
0.0204401
0.018753
0.0149986
0.0149104
0.0186558
0.0202077
0.0202539
0.0185621
0.0148227
0.0147319
0.0184619
0.0200196
0.0200614
0.0183652
0.0146416
0.0145481
0.0182618
0.0198252
0.0198623
0.0181618
0.0144549
0.0143585
0.0180551
0.019624
0.0196562
0.0179515
0.0142623
0.0141627
0.0178412
0.0194156
0.0194425
0.0177339
0.0140632
0.0139602
0.0176196
0.0191995
0.0192208
0.0175083
0.0138572
0.0137505
0.0173899
0.0189751
0.0189905
0.0172743
0.0136436
0.0135329
0.0171514
0.018742
0.0187511
0.0170311
0.0134219
0.0133068
0.0169033
0.0184995
0.018502
0.016778
0.0131912
0.0130713
0.016645
0.018247
0.018243
0.0165148
0.0129504
0.012824
0.0163772
0.0179855
0.0179748
0.0162414
0.0126947
0.0125587
0.0160969
0.0177134
0.0176943
0.0159536
0.0124197
0.012274
0.0158012
0.0174281
0.0174
0.0156497
0.0121255
0.0119702
0.0154888
0.0171285
0.0170907
0.0153286
0.0118121
0.011647
0.0151586
0.0168135
0.0167651
0.0149891
0.011479
0.0113038
0.0148093
0.0164816
0.0164219
0.0146296
0.0111254
0.0109395
0.0144392
0.0161314
0.0160594
0.0142485
0.0107499
0.0105524
0.0140465
0.0157611
0.0156758
0.0138437
0.0103507
0.0101404
0.0136289
0.0153689
0.0152688
0.0134126
0.00992522
0.00970054
0.0131835
0.0149523
0.0148357
0.0129519
0.00947003
0.00922904
0.0127065
0.0145077
0.0143734
0.012458
0.00898129
0.00872144
0.012194
0.0140329
0.0138786
0.0119259
0.0084533
0.00817094
0.0116401
0.0135233
0.0133461
0.0113487
0.00787813
0.00756822
0.0110369
0.0129735
0.0127698
0.0107171
0.00724477
0.00690004
0.0103732
0.0123763
0.0121414
0.0100181
0.00653726
0.00614701
0.00963354
0.0117222
0.0114497
0.00923291
0.00573171
0.00527946
0.00879512
0.0109989
0.0106809
0.00833387
0.00479105
0.00425022
0.00782435
0.0101913
0.0098187
0.00728193
0.00365357
0.00297432
0.00667333
0.00927893
0.00885726
0.00601029
0.0022034
0.00135117
0.00547532
0.00842104
0.00770722
0.00440725
0.00129826
0.00190004
0.00279868
0.00643775
0.00535165
0.00155401
0.00219899
0.00247792
0.0014176
0.0039433
0.00247321
0.00202926
0.00279612
0.00296154
0.0022543
0.00123464
0.000897051
0.00239846
0.00303319
0.00303189
0.0024132
0.000979242
0.00122645
0.00253571
0.00293825
0.00275137
0.00262933
0.00144944
0.00176499
0.00260814
0.00244849
0.00214937
0.00283331
0.0021358
0.00241312
0.00264015
0.00167544
0.00137186
0.00267308
0.0026196
0.00294687
0.00258336
0.00110316
0.00102643
0.00261735
0.00297106
0.00380964
0.00319037
0.00127472
0.00153876
0.00339096
0.003893
0.00449407
0.00391516
0.00194234
0.00213914
0.00389392
0.00425191
0.00459457
0.00421166
0.00241687
0.00250018
0.00407155
0.00428498
0.0043163
0.00411952
0.00259742
0.00259696
0.00409358
0.00437419
0.00431511
0.00399425
0.0025298
0.00242271
0.00394145
0.00431655
0.00410186
0.00370904
0.00219952
0.00198159
0.00353675
0.00394127
0.00373244
0.00331745
0.00175566
0.00159295
0.00319481
0.00360748
0.00351931
0.00308507
0.00146733
0.00140079
0.003028
0.00347175
0.00350681
0.00306424
0.00141245
0.00145907
0.00311366
0.00357243
0.00358901
0.00316629
0.00151738
0.00157944
0.00321282
0.00363689
0.00362986
0.00325525
0.00164294
0.00170264
0.00328628
0.00365497
0.00362194
0.00330792
0.00175736
0.00180503
0.00331715
0.00362326
0.00357543
0.0033159
0.00184588
0.00187799
0.00330094
0.00354444
0.00352282
0.00327102
0.00189996
0.00191603
0.00325283
0.00347853
0.0034671
0.00321932
0.00192073
0.00191969
0.00317552
0.00339838
0.00336791
0.00312459
0.00191384
0.00189526
0.00305977
0.00326978
0.00321842
0.00298456
0.00186456
0.00182031
0.00289412
0.00309652
0.00301868
0.00279478
0.00176568
0.00170031
0.00268306
0.00287698
0.00277933
0.00256634
0.00162724
0.00154462
0.00243747
0.00262143
0.00250802
0.00230804
0.00145715
0.00136143
0.00216617
0.00233732
0.00221269
0.00202952
0.00126479
0.00116193
0.00188119
0.00203519
0.00190567
0.00174437
0.00106244
0.000959228
0.00159846
0.00173024
0.00159943
0.00146785
0.000862658
0.000766488
0.00133483
0.00144014
0.00131795
0.00121817
0.000678785
0.000595432
0.00110728
0.00118432
0.00108305
0.00101064
0.000520357
0.000452557
0.000926588
0.000987522
0.000912636
0.000848917
0.000390459
0.000337088
0.000789517
0.000859496
0.00079872
0.000720082
0.000284316
0.000243776
0.000682322
0.000783329
0.000718047
0.000612604
0.000196286
0.000165375
0.000591222
0.000727408
0.000657007
0.00052352
0.000122104
9.70086e-05
0.000512716
0.000679854
0.000616491
0.000454833
5.94578e-05
3.78597e-05
0.000447803
0.000642816
0.000602172
0.000411433
1.86718e-05
2.6301e-05
0.000402352
0.000622221
0.000606195
0.000382085
3.13372e-05
3.1762e-05
0.000393152
0.000607179
0.000688492
0.00046654
2.95727e-05
4.33145e-05
0.000535277
0.000753319
0.000914881
0.000693492
0.00010988
0.000217153
0.000831108
0.00106534
0.0011379
0.000941997
0.000313432
0.0011794
0.00115454
0.00100789
0.000747103
0.000478013
0.000479947
0.00081047
0.00113352
0.00135872
0.00155294
0.00169725
0.00181745
0.00190864
0.00198148
0.00203977
0.00208457
0.00212405
0.00215213
0.00218109
0.00219871
0.00222187
0.00223202
0.00225142
0.00225465
0.00227077
0.00226694
0.00228041
0.00226963
0.00228199
0.00226762
0.00228236
0.00227237
0.00229599
0.00230212
0.00234628
0.00238493
0.00246443
0.00255929
0.00270103
0.00289912
0.00313761
0.00348933
0.00381999
0.00448346
0.00565216
0.00847675
0.00961573
0.00961847
0.00921527
0.00968801
0.00877176
0.00556462
0.00453223
0.00768387
0.00884396
0.0076335
0.00670606
0.00383263
0.00280503
0.00526035
0.00618226
0.00515334
0.00447499
0.00235474
0.00192975
0.00384802
0.00458671
0.00398102
0.00339322
0.00169322
0.00154895
0.00314947
0.00372424
0.00339706
0.00290614
0.00144929
0.00140732
0.00283245
0.00334649
0.00304407
0.0026174
0.00131685
0.00127034
0.00250963
0.00291976
0.00270129
0.00236358
0.00121903
0.00120923
0.00234004
0.00269607
0.00245935
0.00218547
0.00114951
0.00112386
0.00211433
0.00236382
0.00218804
0.00201092
0.00109852
0.00109636
0.00200604
0.00220448
0.00203597
0.00190977
0.00106144
0.00105251
0.00186973
0.00197696
0.00183915
0.00180627
0.00105248
0.00105039
0.0018144
0.00188313
0.00172015
0.00172668
0.0010207
0.00101866
0.00170475
0.00168137
0.00159675
0.00169156
0.00103665
0.00103455
0.00168878
0.00164178
0.00147934
0.00161062
0.00101486
0.00101281
0.00160032
0.00145981
0.00144484
0.00162664
0.00104577
0.00104369
0.00161707
0.0014722
0.00130476
0.00154263
0.00102573
0.00102369
0.00153122
0.00129057
0.00130738
0.00157397
0.00106435
0.0010623
0.00156406
0.00133705
0.00114377
0.00146769
0.00103741
0.00103555
0.00146046
0.00113354
0.00114495
0.001497
0.00107736
0.00107531
0.0014937
0.00120021
0.000969986
0.00135664
0.00103199
0.00102971
0.0013441
0.000946864
0.000900363
0.00134216
0.0010626
0.00106228
0.00136235
0.00102065
0.000733663
0.00115237
0.000982221
0.000979374
0.00112893
0.00069238
0.000482188
0.00102321
0.000980064
0.000983884
0.0010835
0.000715274
0.00039692
0.000805282
0.000862951
0.000824169
0.000694215
0.000339711
0.000317334
0.000474651
0.000748261
0.000739968
0.000466832
0.000779643
0.00109771
0.000391362
0.000612666
0.000483451
0.00056812
0.0013703
0.00167918
0.000882422
0.000359962
0.00021157
0.00132226
0.00218876
0.00300921
0.00214962
0.000478383
0.000885463
0.00249269
0.00312947
0.00660872
0.0040711
0.00125084
0.00139467
0.00424095
0.00661331
0.00575277
0.00448243
0.00188975
0.00254252
0.00529032
0.00649598
0.0090073
0.0066963
0.00358551
0.00527153
0.0101287
0.0107786
0.0124814
0.0123048
0.0103066
0.0103443
0.0133013
0.0145178
0.016428
0.0152043
0.0124219
0.0147343
0.0167613
0.0172375
0.0229971
0.019608
0.0176731
0.0229254
0.029114
0.0375468
0.0332031
0.0320183
0.0268077
0.0322167
0.0361595
0.0361927
0.0406058
0.0415501
0.037966
0.0465122
0.049756
0.0479993
0.0576503
0.0590592
0.055002
0.0679641
0.071687
0.0637902
0.102551
0.0920252
0.0821762
0.0946251
0.0953644
0.0862558
0.0903332
0.10234
0.102628
0.119547
0.119342
0.103508
0.139816
0.139065
0.133847
0.139681
0.140003
0.116491
0.125877
0.154431
0.144902
0.151931
0.171198
0.155935
0.109653
0.145081
0.140982
0.150507
0.10928
0.0962064
0.0884288
0.127788
0.166915
0.175769
0.155843
0.107887
0.155476
0.182609
0.199011
0.213465
0.207031
0.227103
0.172447
0.188997
0.201805
0.182408
0.174098
0.16531
0.204805
0.174096
0.169545
0.13638
0.142821
0.139774
0.127372
0.121522
0.10979
0.0825033
0.107213
0.143285
0.0842536
0.0747388
0.0551483
0.0334385
0.0557976
0.0715022
0.0697265
0.0413622
0.0165619
0.00739071
0.0162588
0.0337662
0.0221809
0.00715308
0.00848009
0.013092
0.0167771
0.0147793
0.0209387
0.0126382
0.00424063
0.00616643
0.0145415
0.0145819
0.0291403
0.0212502
0.00979654
0.0221269
0.0426442
0.0578234
0.021108
0.0223545
0.0180469
0.025685
0.0403241
0.0517558
0.0750793
0.0584348
0.0358621
0.0291827
0.0327301
0.0308296
0.0660107
0.0536008
0.0375994
0.0478233
0.0734526
0.0930798
0.0409759
0.0428803
0.0392088
0.0483229
0.0671121
0.0824123
0.105517
0.0837332
0.0565905
0.0467099
0.0506171
0.0489474
0.0953279
0.0774846
0.0561063
0.0602496
0.0858126
0.106931
0.0777332
0.0685774
0.0544139
0.0583648
0.0785707
0.0915891
0.0530591
0.0537048
0.0489785
0.0541532
0.0726251
0.0870529
0.0902066
0.074861
0.0537468
0.0442151
0.049018
0.0487699
0.0773943
0.064398
0.0472723
0.0460021
0.0642609
0.0775911
0.0425127
0.0427934
0.0383637
0.0410259
0.0571395
0.0692576
0.0634267
0.0527343
0.0382087
0.0351476
0.0455756
0.0520572
0.0492381
0.0435718
0.0333511
0.0286525
0.0316118
0.0309107
0.049831
0.0424278
0.0312479
0.0290246
0.0393599
0.0459859
0.0374126
0.0335224
0.0265632
0.0248798
0.0309976
0.0332296
0.0219232
0.0228761
0.0214193
0.0226427
0.0289223
0.0319723
0.0271348
0.0250753
0.0199814
0.016777
0.0177835
0.0168381
0.0242547
0.0224591
0.0175512
0.0141192
0.0166803
0.0165746
0.0160732
0.0155992
0.0132809
0.0103622
0.00942349
0.00660455
0.00838217
0.00950986
0.00968998
0.00641084
0.00373376
0.00438401
0.00438652
0.00308069
0.00561024
0.00583731
0.00392774
0.00679218
0.0151139
0.00728665
0.00241777
0.000707501
0.00473818
0.0083035
0.0232587
0.0143493
0.00535659
0.0046523
0.00944334
0.0121962
0.0219802
0.012387
0.00440622
0.010771
0.0233929
0.0354555
0.0250463
0.0180856
0.010199
0.0156252
0.0284676
0.0401735
0.031326
0.023853
0.0147449
0.0204152
0.03577
0.0493276
0.0285525
0.0247185
0.0177318
0.0198354
0.0338465
0.0488499
0.0614265
0.0439573
0.0253035
0.0238571
0.0369073
0.047575
0.0633147
0.0474451
0.0290816
0.0275918
0.0414439
0.0524072
0.0691679
0.052677
0.0328089
0.0290121
0.0378455
0.0421299
0.0718605
0.0521495
0.032412
0.0366333
0.0606567
0.0807264
0.0654735
0.052011
0.0348619
0.0393797
0.0614718
0.0793367
0.0671855
0.0541438
0.0370701
0.0427888
0.0665173
0.0850571
0.0525517
0.0478766
0.0376391
0.041807
0.0656195
0.0895403
0.097949
0.0735862
0.0460433
0.0435725
0.0640841
0.0801804
0.09458
0.0738336
0.0482406
0.0462732
0.0676065
0.0844071
0.0977092
0.0766878
0.0512249
0.0484663
0.0694549
0.085819
0.103028
0.0818038
0.054519
0.0477655
0.0600653
0.0653353
0.11005
0.0818408
0.0534094
0.0568046
0.0889917
0.11812
0.097568
0.0786435
0.0538726
0.0579511
0.087603
0.111353
0.101774
0.082202
0.0567595
0.0609512
0.0898087
0.113813
0.104542
0.0844007
0.0584354
0.06407
0.0944822
0.117953
0.104633
0.085349
0.0604163
0.0677784
0.100027
0.124322
0.0784856
0.0728381
0.0591161
0.0668565
0.100583
0.133332
0.141749
0.107999
0.0700802
0.0663317
0.0949816
0.117164
0.131358
0.105321
0.0714008
0.0694728
0.0988974
0.121189
0.133961
0.10778
0.0740787
0.0713248
0.10137
0.124959
0.139002
0.111641
0.0774666
0.073687
0.102229
0.124182
0.14376
0.116809
0.0812678
0.0708836
0.0863808
0.0927993
0.156362
0.118528
0.0796151
0.0829819
0.125893
0.162388
0.136732
0.111684
0.0791996
0.0833642
0.12041
0.150903
0.139677
0.114552
0.0814733
0.0862161
0.123492
0.151044
0.141952
0.116092
0.0824985
0.0884282
0.126862
0.156039
0.140493
0.116324
0.084554
0.0925116
0.132514
0.162352
0.103294
0.0971566
0.0807963
0.090536
0.133571
0.175619
0.183676
0.141307
0.0941104
0.0898157
0.125587
0.153221
0.16918
0.135841
0.0946174
0.0918325
0.128632
0.156804
0.170908
0.138949
0.0974967
0.0940121
0.131338
0.160347
0.176549
0.143072
0.100399
0.0959931
0.131303
0.158252
0.180027
0.148625
0.104606
0.0919753
0.110039
0.116771
0.197435
0.15018
0.10235
0.106463
0.158065
0.202872
0.171563
0.141177
0.102223
0.107777
0.153256
0.188425
0.174616
0.143705
0.10376
0.109707
0.153975
0.189525
0.17764
0.146543
0.106268
0.113106
0.15913
0.194289
0.173891
0.144727
0.106854
0.116243
0.163321
0.199347
0.127384
0.120083
0.101243
0.115745
0.167668
0.2185
0.223201
0.176293
0.120068
0.114123
0.156332
0.188882
0.20743
0.169291
0.120196
0.11588
0.159086
0.192176
0.208753
0.172554
0.122707
0.11824
0.162007
0.195722
0.21473
0.176748
0.12633
0.119086
0.159784
0.19175
0.218655
0.179997
0.12974
0.114184
0.134217
0.141544
0.239398
0.18334
0.126723
0.1309
0.190555
0.243674
0.206588
0.170726
0.125503
0.131946
0.185481
0.228443
0.208988
0.173619
0.127984
0.135841
0.188188
0.230389
0.204851
0.17177
0.128155
0.138527
0.193397
0.237129
0.149563
0.142036
0.121331
0.13626
0.196407
0.256227
0.264753
0.20524
0.141517
0.134058
0.182131
0.220755
0.245778
0.199566
0.142368
0.137583
0.186816
0.224123
0.246255
0.202926
0.145866
0.138146
0.183989
0.219775
0.252892
0.208291
0.149925
0.131267
0.153173
0.160903
0.274261
0.211254
0.14733
0.153056
0.223714
0.281885
0.235822
0.19592
0.145429
0.154392
0.215354
0.265979
0.231211
0.195778
0.147862
0.157776
0.221549
0.268426
0.166502
0.159815
0.138372
0.155941
0.222754
0.288564
0.302369
0.235705
0.161857
0.153785
0.206613
0.248835
0.281842
0.228805
0.164165
0.156172
0.206384
0.243851
0.284502
0.232732
0.166863
0.146801
0.169741
0.177166
0.304041
0.234035
0.163656
0.171938
0.249497
0.317042
0.260791
0.217421
0.162611
0.173363
0.240044
0.295874
0.255036
0.216465
0.16506
0.177659
0.24702
0.300915
0.183441
0.176414
0.15346
0.173369
0.245441
0.317176
0.335925
0.263422
0.181428
0.168535
0.221635
0.263628
0.315455
0.258082
0.183917
0.161323
0.182754
0.188144
0.332037
0.257429
0.182016
0.190548
0.275945
0.358564
0.270947
0.229481
0.175212
0.191866
0.271063
0.331199
0.19447
0.18857
0.165726
0.188404
0.26645
0.344602
0.371761
0.28977
0.199466
0.185129
0.241861
0.284937
0.346291
0.281065
0.199435
0.172704
0.194815
0.200193
0.353561
0.274035
0.194675
0.208857
0.303375
0.385412
0.291938
0.248814
0.192027
0.211309
0.296041
0.365719
0.204515
0.19923
0.17721
0.199244
0.274663
0.349621
0.405813
0.315032
0.215733
0.180041
0.200489
0.204533
0.361278
0.282592
0.204327
0.223672
0.32733
0.421814
0.204396
0.201045
0.182213
0.205443
0.285142
0.364776
0.432616
0.338028
0.228697
0.189097
0.208272
0.210933
0.382357
0.30093
0.217668
0.235173
0.34794
0.449759
0.212816
0.209901
0.190476
0.217673
0.300778
0.384308
0.465705
0.365294
0.248458
0.205535
0.223263
0.222521
0.393888
0.310443
0.225777
0.251722
0.3726
0.476603
0.221531
0.221322
0.204205
0.231815
0.313941
0.396147
0.494825
0.381717
0.257532
0.192989
0.199558
0.193287
0.262242
0.242724
0.209047
0.224998
0.307833
0.393448
0.501852
0.381816
0.25287
0.179822
0.183693
0.177293
0.211771
0.209566
0.193197
0.180854
0.203534
0.209679
0.197718
0.194052
0.178649
0.176355
0.199763
0.202812
0.231929
0.214443
0.178715
0.190371
0.275347
0.357602
0.487188
0.356979
0.220116
0.14898
0.160041
0.156086
0.168216
0.163683
0.142164
0.127218
0.151762
0.159849
0.153648
0.144762
0.119096
0.109353
0.13573
0.145928
0.141386
0.130773
0.103169
0.0966731
0.124334
0.136374
0.13284
0.1207
0.0922117
0.0875374
0.116236
0.129124
0.12636
0.112905
0.0839166
0.0806037
0.109762
0.123734
0.12123
0.106794
0.0775664
0.074777
0.103988
0.118829
0.116534
0.10134
0.072213
0.0698538
0.0988398
0.114325
0.11243
0.096482
0.0676809
0.0656806
0.0942582
0.109958
0.108208
0.0921708
0.0638427
0.062153
0.0902025
0.106322
0.104518
0.0883545
0.0606027
0.0591803
0.0866115
0.102772
0.101108
0.0849783
0.0578793
0.0566875
0.0834355
0.0994931
0.0981512
0.0819883
0.0556006
0.0546097
0.0806198
0.0962821
0.0950497
0.0793389
0.0537113
0.0528927
0.0781236
0.0936752
0.0925573
0.0769847
0.0521519
0.051478
0.0759049
0.0909334
0.0899133
0.0748969
0.0508678
0.0503078
0.0739355
0.0887491
0.0878267
0.0730354
0.0498006
0.0493373
0.0721759
0.0864131
0.0855754
0.0713753
0.0489212
0.0485403
0.0706076
0.0845929
0.0838421
0.0698921
0.0481989
0.0478871
0.069205
0.0826141
0.0819401
0.0685693
0.0476104
0.0473557
0.0679562
0.08112
0.0805231
0.0673892
0.0471298
0.0469216
0.0668409
0.0794598
0.0789315
0.0663385
0.0467388
0.0465677
0.0658502
0.0782546
0.0777933
0.0654032
0.0464171
0.0462749
0.0649666
0.0768728
0.0764705
0.0645716
0.0461513
0.046032
0.0641831
0.0759163
0.0755704
0.0638325
0.0459278
0.0458259
0.0634852
0.0747699
0.0744744
0.0631772
0.045739
0.0456515
0.0628696
0.0740231
0.0737743
0.0625973
0.0455761
0.0454991
0.0623227
0.0730733
0.072866
0.0620845
0.0454348
0.0453673
0.0618422
0.0724988
0.0721855
0.0616333
0.0453105
0.0452495
0.0614168
0.0718513
0.0715731
0.0612348
0.0452003
0.0451469
0.0610451
0.0712742
0.0710275
0.0608873
0.0451036
0.0450549
0.0607172
0.0707533
0.070534
0.0605805
0.0450181
0.0449771
0.0604338
0.0702904
0.0700976
0.0603175
0.044946
0.0449087
0.0601855
0.0698721
0.0697002
0.0600857
0.0448836
0.044854
0.0599736
0.0695006
0.0693504
0.0598908
0.0448346
0.044809
0.0597899
0.069164
0.06903
0.05972
0.0447957
0.0447833
0.0596399
0.068866
0.068887
0.05958
0.0447721
0.0447726
0.0595142
0.068459
0.0684927
0.0594648
0.0447693
0.0447768
0.059412
0.0683579
0.0684051
0.059373
0.0447783
0.0447931
0.0593337
0.0680096
0.0680625
0.0592996
0.044803
0.044823
0.0592814
0.0679652
0.0678889
0.0592484
0.0448372
0.044863
0.0592416
0.0678012
0.0677341
0.059216
0.0448835
0.0449118
0.0592104
0.0676569
0.0677319
0.0591872
0.0449334
0.0449648
0.0591881
0.067391
0.067474
0.0591721
0.0449906
0.0450229
0.0591745
0.067416
0.0673686
0.0591595
0.0450477
0.0450822
0.0591703
0.0673329
0.0672801
0.059162
0.0451101
0.0451454
0.0591753
0.0672648
0.0672144
0.0591686
0.0451725
0.0452091
0.0591887
0.067213
0.0671773
0.0591915
0.0452402
0.0452782
0.0592136
0.067178
0.0671449
0.0592175
0.0453086
0.0453485
0.0592467
0.0671571
0.0671367
0.0592594
0.0453835
0.0454253
0.0592906
0.0671503
0.0671311
0.0593039
0.0454601
0.0455043
0.0593416
0.067155
0.0671476
0.0593634
0.0455439
0.0455908
0.0594031
0.0671731
0.0671665
0.0594256
0.045631
0.0456805
0.0594711
0.0672007
0.0672042
0.059501
0.0457256
0.0457779
0.0595486
0.06724
0.0672445
0.0595794
0.045824
0.0458789
0.0596319
0.0672874
0.0673001
0.0596688
0.0459291
0.0459866
0.0597233
0.0673442
0.0674926
0.0597613
0.046038
0.0460981
0.0598198
0.0672744
0.0674296
0.0598628
0.046153
0.0462149
0.0599229
0.0674806
0.067637
0.0599669
0.0462708
0.046335
0.0600306
0.0674247
0.0675875
0.0600793
0.0463942
0.04646
0.060144
0.0676447
0.0676731
0.0601933
0.0465197
0.0465873
0.0602614
0.0677353
0.0677693
0.0603148
0.0466499
0.0467188
0.0603835
0.0678314
0.0678654
0.060437
0.0467815
0.0468517
0.0605086
0.0679319
0.0679708
0.0605657
0.0469167
0.0469877
0.0606377
0.0680368
0.068211
0.0606944
0.0470525
0.0471242
0.0607681
0.068009
0.0681878
0.0608279
0.0471905
0.0472625
0.0609021
0.0682569
0.068435
0.0609613
0.0473283
0.0474005
0.0610369
0.0682348
0.0684172
0.0610986
0.0474674
0.0475396
0.0611741
0.0684886
0.0685335
0.0612351
0.0476055
0.0476776
0.061312
0.0686075
0.0686557
0.0613751
0.0477444
0.0478161
0.0614512
0.0687285
0.0687752
0.061513
0.0478814
0.0479525
0.06159
0.06885
0.0688997
0.0616535
0.0480183
0.0480888
0.0617301
0.0689735
0.0691593
0.0617922
0.0481533
0.0482232
0.061869
0.0689596
0.0691484
0.0619326
0.0482877
0.0483569
0.0620089
0.0692227
0.0694098
0.062071
0.0484199
0.0484882
0.0621472
0.0692092
0.0693991
0.0622104
0.0485511
0.0486184
0.062286
0.0694733
0.0696611
0.0623476
0.0486796
0.0487459
0.062423
0.0695972
0.0696487
0.0624853
0.048807
0.0488723
0.0625595
0.0697228
0.0697723
0.0626201
0.0489315
0.0489955
0.0626941
0.069847
0.0698984
0.0627552
0.0490544
0.0491173
0.0628281
0.0698328
0.0701615
0.0628878
0.0491744
0.0492359
0.0629597
0.0699551
0.0701457
0.0630196
0.0492922
0.0493526
0.0630907
0.0702177
0.0702669
0.0631491
0.0494074
0.0494662
0.063219
0.070338
0.0703883
0.0632776
0.0495202
0.0495779
0.0633466
0.0704585
0.0706479
0.0634036
0.0496305
0.0496869
0.0634713
0.0704361
0.070627
0.0635284
0.0497387
0.0497939
0.0635953
0.0706955
0.0707438
0.0636509
0.0498442
0.049898
0.0637166
0.0708114
0.0708606
0.0637722
0.0499476
0.0500004
0.0638369
0.0709273
0.0709749
0.0638909
0.0500485
0.0500999
0.0639544
0.0710406
0.071089
0.0640085
0.0501473
0.0501977
0.064071
0.0711536
0.0714854
0.0642514
0.0502435
0.0502924
0.0641838
0.0712631
0.0713103
0.0642357
0.0503373
0.0503851
0.064168
0.0710892
0.0715612
0.0643468
0.0504287
0.0504751
0.0644055
0.0713376
0.0715266
0.0644559
0.0505179
0.0505634
0.064514
0.0715871
0.0717745
0.0645629
0.0506049
0.0506491
0.0646194
0.0715481
0.0717364
0.0646681
0.05069
0.0507333
0.0647241
0.0717949
0.0719815
0.0647712
0.0507729
0.050815
0.0648256
0.0717523
0.0719398
0.0648726
0.0508538
0.0508951
0.0649264
0.0719963
0.0721822
0.0649718
0.0509328
0.0509729
0.065024
0.0719501
0.0721367
0.0650693
0.0510098
0.0510491
0.0651211
0.0721914
0.0723764
0.0651648
0.051085
0.0511231
0.065215
0.0721416
0.0723273
0.0652586
0.0511584
0.0511958
0.0653083
0.0723801
0.0725643
0.0653504
0.0512299
0.0512662
0.0653986
0.0723268
0.0725116
0.0654406
0.0512998
0.0513354
0.0654884
0.0725625
0.0727458
0.0655288
0.0513679
0.0514025
0.0655752
0.0725058
0.0726897
0.0656155
0.0514344
0.0514684
0.0656615
0.0727389
0.0729212
0.0657005
0.0514993
0.0515323
0.065745
0.0728233
0.072861
0.0657836
0.0515628
0.0515951
0.0658275
0.0727635
0.0730906
0.0658648
0.0516245
0.0516559
0.0659076
0.0728458
0.0730277
0.0659448
0.0516848
0.0517155
0.0659871
0.0730732
0.0732535
0.066023
0.0517434
0.0517733
0.0660642
0.073152
0.0731869
0.0660997
0.0518009
0.0518301
0.0661401
0.0730854
0.0734109
0.0661744
0.0518566
0.051885
0.0662141
0.0733075
0.0733409
0.0662482
0.0519112
0.0519391
0.0662869
0.0733835
0.0734152
0.0663197
0.0519643
0.0519913
0.0663576
0.0734572
0.0734895
0.0663902
0.0520163
0.0520427
0.0664274
0.0733842
0.0737083
0.0664589
0.0520668
0.0520924
0.0664951
0.0734549
0.0736328
0.0665266
0.0521161
0.0521413
0.0665623
0.0736722
0.0738485
0.0665927
0.0521642
0.0521887
0.0666271
0.0735931
0.07377
0.0666573
0.0522112
0.0522352
0.0666914
0.0738081
0.0738359
0.0667205
0.0522571
0.0522802
0.0667535
0.0738735
0.0739019
0.0667825
0.0523017
0.0523245
0.0668151
0.0739385
0.074113
0.0668428
0.0523453
0.0523674
0.0668744
0.0738538
0.0741765
0.0669023
0.0523879
0.0524096
0.0669333
0.0740638
0.0740891
0.0669597
0.0524294
0.0524505
0.0669902
0.0741243
0.0741501
0.0670165
0.05247
0.0524908
0.0670464
0.0741846
0.0742087
0.0670715
0.0525096
0.0525298
0.0671007
0.0742427
0.0742675
0.067126
0.0525486
0.0525687
0.0671547
0.0741528
0.0744729
0.0671791
0.0525866
0.0526063
0.0672075
0.0743568
0.0743806
0.0672317
0.0526244
0.0526439
0.0672597
0.0742647
0.0745845
0.0672829
0.0526612
0.0526804
0.0673106
0.0743191
0.0744906
0.0673339
0.0526978
0.0527168
0.0673616
0.074522
0.0746925
0.0673838
0.0527336
0.0527524
0.0674109
0.074426
0.074597
0.0674333
0.0527693
0.0527879
0.0674604
0.0746277
0.0747979
0.0674819
0.0528043
0.0528227
0.0675085
0.0745303
0.0747011
0.0675303
0.0528392
0.0528576
0.0675568
0.0747313
0.0749009
0.0675776
0.0528735
0.0528916
0.0676036
0.0746323
0.0748029
0.067625
0.0529078
0.0529258
0.067651
0.0748325
0.0750012
0.0676708
0.0529412
0.0529587
0.0676961
0.0747316
0.0749015
0.0677167
0.0529742
0.0529916
0.0677419
0.0749303
0.0750981
0.0677608
0.0530062
0.0530229
0.0677852
0.0748272
0.0749961
0.0678046
0.0530376
0.0530541
0.0678288
0.075024
0.0751907
0.0678465
0.0530678
0.0530835
0.0678698
0.0749184
0.0750863
0.0678882
0.0530972
0.0531127
0.0679113
0.0751131
0.075279
0.0679279
0.0531255
0.0531403
0.0679501
0.0750052
0.0751723
0.0679674
0.0531532
0.053168
0.0679894
0.0751983
0.075213
0.0680051
0.05318
0.053194
0.0680266
0.0752387
0.0752548
0.0680431
0.0532063
0.0532204
0.0680644
0.0752799
0.0754445
0.0680793
0.0532319
0.0532455
0.0681
0.0751684
0.0754849
0.0681157
0.0532573
0.0532711
0.0681363
0.0752083
0.0755227
0.0681506
0.0532821
0.0532954
0.0681708
0.0753959
0.0754108
0.0681858
0.053307
0.0533205
0.0682057
0.0752845
0.0755986
0.0682194
0.0533313
0.0533443
0.068239
0.0753208
0.0754856
0.0682536
0.0533555
0.0533687
0.0682732
0.0755091
0.075521
0.0682865
0.0533792
0.053392
0.0683058
0.0755443
0.0755579
0.06832
0.053403
0.053416
0.0683391
0.0755809
0.0755923
0.0683519
0.0534263
0.0534388
0.0683708
0.0756152
0.0756282
0.0683845
0.0534495
0.0534622
0.0684032
0.0756507
0.0756617
0.0684155
0.0534722
0.0534845
0.068434
0.0756842
0.0756967
0.0684473
0.0534949
0.0535074
0.0684657
0.0757189
0.0757294
0.0684776
0.0535171
0.0535291
0.0684957
0.0757515
0.0757636
0.0685086
0.0535393
0.0535516
0.0685266
0.0757854
0.0757955
0.0685382
0.0535611
0.0535729
0.068556
0.0758173
0.075829
0.0685687
0.053583
0.0535951
0.0685864
0.0758505
0.0758603
0.0685975
0.0536044
0.0536161
0.0686151
0.0758818
0.0758931
0.0686274
0.0536259
0.0536378
0.0686448
0.0759143
0.0759238
0.0686557
0.053647
0.0536585
0.068673
0.075945
0.075956
0.068685
0.0536681
0.0536798
0.0687021
0.0759769
0.075986
0.0687128
0.0536887
0.0537
0.0687298
0.0760069
0.0760175
0.0687414
0.0537093
0.0537208
0.0687584
0.0760383
0.076047
0.0687688
0.0537295
0.0537405
0.0687856
0.0760678
0.0760781
0.0687969
0.0537496
0.0537609
0.0688137
0.0760986
0.0761071
0.0688238
0.0537694
0.0537802
0.0688404
0.0761276
0.0761377