/*--------------------------------*- C++ -*----------------------------------*\
| =========                 |                                                 |
| \\      /  F ield         | OpenFOAM: The Open Source CFD Toolbox           |
|  \\    /   O peration     | Version:  v2006                                 |
|   \\  /    A nd           | Website:  www.openfoam.com                      |
|    \\/     M anipulation  |                                                 |
\*---------------------------------------------------------------------------*/
FoamFile
{
    version     2.0;
    format      ascii;
    class       volScalarField;
    location    "0.05";
    object      alphat;
}
// * * * * * * * * * * * * * * * * * * * * * * * * * * * * * * * * * * * * * //

dimensions      [1 -1 -1 0 0 0 0];


internalField   nonuniform List<scalar> 
38932
(
0.104097
0.104099
0.104128
0.104125
0.104118
0.104107
0.104089
0.104067
0.104039
0.104006
0.103967
0.103924
0.103876
0.103823
0.103766
0.103703
0.103635
0.103563
0.103485
0.103403
0.103316
0.103225
0.103128
0.103027
0.102922
0.102811
0.102696
0.102577
0.102453
0.102325
0.102192
0.102055
0.101914
0.101769
0.10162
0.101466
0.101309
0.101147
0.100982
0.100813
0.10064
0.100464
0.100284
0.100101
0.0999142
0.0997242
0.099531
0.0993347
0.0991354
0.0989332
0.0987282
0.0985204
0.09831
0.0980971
0.0978819
0.0976643
0.0974445
0.0972227
0.0969989
0.0967733
0.096546
0.0963171
0.0960867
0.095855
0.0956221
0.0953881
0.0951532
0.0949175
0.0946811
0.0944442
0.094207
0.0939694
0.0937318
0.0934943
0.0932569
0.09302
0.0927835
0.0925477
0.0923127
0.0920786
0.0918457
0.0916141
0.0913839
0.0911553
0.0909284
0.0907035
0.0904807
0.09026
0.0900418
0.089826
0.089613
0.0894029
0.0891957
0.0889917
0.088791
0.0885937
0.0884001
0.0882102
0.0880242
0.0878422
0.0876644
0.0874909
0.0873217
0.0871572
0.0869972
0.0868421
0.0866918
0.0865465
0.0864063
0.0862712
0.0861413
0.0860168
0.0858976
0.0857839
0.0856758
0.0855732
0.0854763
0.0853852
0.0853
0.0852208
0.0851473
0.0850778
0.0850057
0.0849026
0.0847691
0.0844372
0.0833981
0.079084
0.0640924
0.0229165
0.00837925
0.000314719
0.000326274
0.00353309
0.00945258
0.00655849
0.0023818
0.00032137
0.000312778
0.00187074
0.00512734
0.00441004
0.00157928
0.000303699
0.000292139
0.00140529
0.00391145
0.00360916
0.00130705
0.000282745
0.00027336
0.00122536
0.00341666
0.00328972
0.00118328
0.000265789
0.000259839
0.00115226
0.00319487
0.00312128
0.00112864
0.000254895
0.000250661
0.00110968
0.00305974
0.00300574
0.00109365
0.000247034
0.000243892
0.0010795
0.0029564
0.00290985
0.00106648
0.000241138
0.000238692
0.00105417
0.00286528
0.00282221
0.00104232
0.000236492
0.000234487
0.0010308
0.00278044
0.00273989
0.00101958
0.000232638
0.000230914
0.00100862
0.00270055
0.0026624
0.000997948
0.00022929
0.000227749
0.000987559
0.00262546
0.00258974
0.000977469
0.000226274
0.000224854
0.000967686
0.00255521
0.00252186
0.000958216
0.000223479
0.000222143
0.000949059
0.00248967
0.00245858
0.000940213
0.000220839
0.000219561
0.000931671
0.00242856
0.00239956
0.000923425
0.000218306
0.000217068
0.000915463
0.00237152
0.00234441
0.000907776
0.000215846
0.000214636
0.000900352
0.00231817
0.00229276
0.00089318
0.000213435
0.000212242
0.000886249
0.00226814
0.00224427
0.000879549
0.000211052
0.000209865
0.000873071
0.00222111
0.00219864
0.000866807
0.000208678
0.00020749
0.000860747
0.00217682
0.00215563
0.000854885
0.000206298
0.000205101
0.000849214
0.00213503
0.00211502
0.000843727
0.000203898
0.000202685
0.000838418
0.00209556
0.00207663
0.000833282
0.000201463
0.000200228
0.000828312
0.00205822
0.00204031
0.000823504
0.00019898
0.000197716
0.000818853
0.00202288
0.0020059
0.000814353
0.000196436
0.000195136
0.000809999
0.00198937
0.00197326
0.000805787
0.000193815
0.000192472
0.000801712
0.00195757
0.00194226
0.000797772
0.000191104
0.000189709
0.000793964
0.00192734
0.00191279
0.000790284
0.000188286
0.000186831
0.000786734
0.0018986
0.00188476
0.000783311
0.000185344
0.000183823
0.000780018
0.00187128
0.00185814
0.000776856
0.000182264
0.000180666
0.00077383
0.00184536
0.00183292
0.000770943
0.000179027
0.000177345
0.000768202
0.00182085
0.00180915
0.000765612
0.000175616
0.00017384
0.000763183
0.00179783
0.00178691
0.000760922
0.000172013
0.000170132
0.00075884
0.00177639
0.00176631
0.000756949
0.000168196
0.000166201
0.000755263
0.00175667
0.0017475
0.000753792
0.000164144
0.000162022
0.000752561
0.00173884
0.0017307
0.000751586
0.000159833
0.000157575
0.000750891
0.00172312
0.00171616
0.000750502
0.000155242
0.000152835
0.000750464
0.00170989
0.00170433
0.000750804
0.000150351
0.000147789
0.000751592
0.00169962
0.00169576
0.000752856
0.000145146
0.000142427
0.000754704
0.00169299
0.0016913
0.000757175
0.000139629
0.000136759
0.00076042
0.00169104
0.00169216
0.000764502
0.000133821
0.000130824
0.00076958
0.00169508
0.00169999
0.000775797
0.000127777
0.0001247
0.00078335
0.00170721
0.00171677
0.000792312
0.000121607
0.000118523
0.000802923
0.00172932
0.00174504
0.000815343
0.000115473
0.000112495
0.000829675
0.001764
0.0017856
0.000845559
0.00010959
0.000106792
0.000863338
0.00181129
0.0018402
0.000882494
0.000104094
0.000101476
0.000902627
0.00187263
0.00190816
0.000923565
9.89404e-05
9.62674e-05
0.00094211
0.00194591
0.00198551
0.000955704
9.45738e-05
9.39765e-05
0.000958136
0.0020233
0.0020627
0.000956874
9.27586e-05
9.0687e-05
0.000948271
0.00209213
0.00210155
0.000928222
8.76038e-05
8.35703e-05
0.000892872
0.00208176
0.00203238
0.00084413
7.8691e-05
7.31669e-05
0.000781077
0.00194865
0.00182693
0.000704441
6.74912e-05
6.22164e-05
0.00061876
0.00166772
0.00145694
0.000520752
5.76099e-05
5.49992e-05
0.000413111
0.00120338
0.00101766
0.000349983
5.42106e-05
5.42343e-05
0.000321346
0.000917594
0.000872924
0.000306579
5.48626e-05
5.55665e-05
0.000299326
0.000854139
0.000849975
0.000299287
5.64005e-05
5.71732e-05
0.000303537
0.000859399
0.000878164
0.000310395
5.78415e-05
5.83978e-05
0.00031796
0.000899035
0.000920481
0.0003264
5.88077e-05
5.90225e-05
0.00033421
0.00094226
0.000961585
0.0003412
5.90879e-05
5.90727e-05
0.000346272
0.000978073
0.000996148
0.000352264
5.88945e-05
5.85282e-05
0.000356423
0.00100891
0.00101931
0.000360128
5.8043e-05
5.74101e-05
0.000362843
0.0010267
0.00103061
0.000364587
5.66384e-05
5.5764e-05
0.000365438
0.00103146
0.00102878
0.000365136
5.47333e-05
5.36103e-05
0.000364
0.00102303
0.0010139
0.00036178
5.23727e-05
5.10092e-05
0.000358549
0.00100157
0.000986088
0.000354418
4.9545e-05
4.79818e-05
0.000349354
0.00096751
0.000945654
0.000343293
4.62848e-05
4.45005e-05
0.000336429
0.000920619
0.000891858
0.00032848
4.25435e-05
4.05497e-05
0.000319667
0.000858916
0.000820812
0.000309361
3.83072e-05
3.57598e-05
0.000297379
0.000775646
0.000718466
0.000282017
3.26942e-05
2.92737e-05
0.000261434
0.000642213
0.000536201
0.000231106
2.47638e-05
1.92684e-05
0.000184588
0.000389145
0.000196632
9.96313e-05
1.42012e-05
9.11777e-06
4.37359e-05
4.95671e-05
6.24071e-05
8.4704e-05
0.000104907
0.0001261
0.00013997
0.000153592
0.000163012
0.000171951
0.000178959
0.000185111
0.000190285
0.000194733
0.000196757
0.000199116
0.00019935
0.000220804
0.000212108
0.000203257
0.00018735
0.000119177
6.66289e-05
8.26868e-05
9.83881e-05
6.63001e-05
3.17656e-05
3.46087e-05
3.62156e-05
3.33541e-05
2.94065e-05
2.57532e-05
1.50773e-05
1.16681e-05
9.31391e-06
7.52173e-06
5.68161e-06
1.24783e-05
2.314e-05
3.72454e-05
6.40108e-05
0.000158963
0.000111537
6.77453e-05
2.85503e-05
7.1814e-06
9.08529e-06
5.31574e-05
0.000126472
0.000197401
0.00026721
0.000350308
0.000254219
0.00016113
6.68637e-05
1.052e-05
1.12563e-05
7.60641e-05
0.000184655
0.000295562
0.00040694
0.00044132
0.000321952
0.000198752
8.15927e-05
1.17616e-05
1.18192e-05
8.33041e-05
0.000203445
0.00033037
0.000453569
0.000453321
0.000329427
0.000202484
8.2769e-05
1.16168e-05
1.12798e-05
8.15515e-05
0.000199096
0.000323986
0.000446671
0.000436129
0.000317126
0.000195179
8.03914e-05
1.08593e-05
1.05004e-05
7.97319e-05
0.000192544
0.000311989
0.000428604
0.000426457
0.000309641
0.000191496
7.99476e-05
1.01944e-05
9.93906e-06
8.01739e-05
0.000190751
0.000308325
0.000425247
0.000424551
0.000306846
0.000189763
8.01353e-05
9.61878e-06
9.23172e-06
7.87896e-05
0.000186708
0.000303429
0.000422215
0.000412473
0.000293601
0.00017899
7.46875e-05
8.6773e-06
8.11501e-06
6.71604e-05
0.000165064
0.000276803
0.000396097
0.000372695
0.000253069
0.00014563
5.70769e-05
7.25821e-06
5.85835e-06
4.29604e-05
0.000118933
0.000221223
0.000342065
0.000300118
0.000179274
8.09508e-05
2.2711e-05
3.68387e-06
2.46796e-06
1.10142e-05
5.11906e-05
0.00012703
0.00024189
0.000169209
7.3218e-05
3.28518e-05
9.56387e-06
2.59149e-06
3.05715e-06
5.99857e-06
2.07236e-05
5.24296e-05
0.000100503
7.24324e-05
2.86724e-05
9.91133e-06
4.92116e-06
6.02231e-06
5.96578e-06
5.0828e-06
1.03468e-05
3.02483e-05
7.60649e-05
8.0873e-05
3.23564e-05
1.08928e-05
5.78118e-06
5.5122e-06
4.85012e-06
6.39021e-06
1.25211e-05
3.54553e-05
8.41287e-05
8.63394e-05
3.74183e-05
1.40943e-05
6.13197e-06
5.48263e-06
6.08669e-06
6.33616e-06
1.47555e-05
3.88024e-05
8.97028e-05
9.42404e-05
4.21855e-05
1.5228e-05
6.42101e-06
5.51918e-06
4.94443e-06
7.57102e-06
1.71909e-05
4.54806e-05
9.82648e-05
0.000106378
5.11406e-05
1.8747e-05
6.65559e-06
5.45739e-06
5.51382e-06
7.62965e-06
1.87536e-05
4.9845e-05
0.000106328
0.000115067
5.68373e-05
2.1334e-05
6.81844e-06
5.90066e-06
6.76962e-06
7.61804e-06
2.03312e-05
5.25413e-05
0.00011153
0.000114052
5.65778e-05
2.23266e-05
7.62161e-06
6.06254e-06
7.11052e-06
7.93177e-06
2.18477e-05
5.33734e-05
0.000111281
0.000114295
5.52544e-05
2.22291e-05
9.23651e-06
6.20712e-06
6.36735e-06
9.43461e-06
2.48555e-05
5.88309e-05
0.000117099
0.000123238
6.16621e-05
2.52375e-05
9.13559e-06
6.7089e-06
6.61318e-06
1.06402e-05
2.58821e-05
6.1041e-05
0.000122633
0.000131137
6.62092e-05
2.81767e-05
9.43486e-06
7.13078e-06
8.23334e-06
1.07538e-05
2.81729e-05
6.17314e-05
0.000128381
0.000130716
6.5758e-05
2.8322e-05
1.13588e-05
7.17619e-06
7.3293e-06
1.15773e-05
3.1504e-05
6.64167e-05
0.000129982
0.00013631
6.95934e-05
3.12114e-05
1.02792e-05
8.59164e-06
9.31289e-06
1.13647e-05
3.35651e-05
6.94523e-05
0.000139585
0.000147363
7.15159e-05
3.26773e-05
1.27656e-05
9.11201e-06
7.98275e-06
1.43869e-05
3.60008e-05
7.58312e-05
0.000147367
0.000155855
8.22496e-05
3.7043e-05
1.22279e-05
7.73974e-06
9.09071e-06
1.27181e-05
4.00733e-05
8.15779e-05
0.000160374
0.000164883
8.74321e-05
3.85994e-05
1.23314e-05
8.38324e-06
8.01843e-06
1.44918e-05
4.21145e-05
8.88366e-05
0.000165587
0.000177867
9.64156e-05
4.27922e-05
1.16261e-05
8.74548e-06
9.7018e-06
1.34388e-05
4.38616e-05
9.26415e-05
0.000176805
0.000189377
0.000107331
4.80452e-05
1.36351e-05
7.67283e-06
9.76456e-06
1.27249e-05
4.79127e-05
0.000101778
0.000187793
0.000193744
0.000110284
5.05298e-05
1.58561e-05
7.71879e-06
9.29288e-06
1.34509e-05
5.08891e-05
0.000109053
0.000193811
0.000198851
0.00011166
5.11725e-05
1.56491e-05
8.4891e-06
9.15182e-06
1.55859e-05
5.28477e-05
0.000112702
0.000199005
0.00020826
0.00011472
5.35428e-05
1.51135e-05
9.36809e-06
1.00408e-05
1.7763e-05
5.40405e-05
0.000111537
0.000204566
0.000217833
0.000123093
5.76947e-05
1.63671e-05
8.96813e-06
1.08857e-05
1.73813e-05
5.89948e-05
0.000114833
0.000215783
0.000221845
0.000127182
5.97691e-05
1.86492e-05
9.183e-06
1.02977e-05
1.7306e-05
6.28246e-05
0.00012494
0.000224461
0.000228365
0.000130125
6.07462e-05
1.67402e-05
1.01351e-05
9.91511e-06
2.0578e-05
6.41726e-05
0.000130281
0.000227811
0.000237697
0.000136161
6.36222e-05
1.68209e-05
1.04141e-05
1.1686e-05
1.84199e-05
6.55039e-05
0.000131345
0.000236257
0.000247061
0.000142978
6.74688e-05
2.03987e-05
1.02298e-05
1.22242e-05
1.72402e-05
7.01214e-05
0.000140616
0.000249312
0.000252657
0.000141983
6.87381e-05
1.99288e-05
1.13516e-05
1.13826e-05
2.30047e-05
7.26748e-05
0.000147085
0.000254508
0.000266321
0.000149708
7.28824e-05
2.00445e-05
1.13146e-05
1.28649e-05
2.28971e-05
7.62996e-05
0.000143057
0.000262538
0.00027607
0.00015967
7.7232e-05
2.29624e-05
1.102e-05
1.29645e-05
2.23408e-05
8.20765e-05
0.000151247
0.00027868
0.000283544
0.000164618
7.8932e-05
2.25247e-05
1.1953e-05
1.20348e-05
2.33943e-05
8.44818e-05
0.000167049
0.000289454
0.000294252
0.000170795
8.15868e-05
2.17423e-05
1.24135e-05
1.23688e-05
2.71184e-05
8.54654e-05
0.000171341
0.000294745
0.000303337
0.000175316
8.34602e-05
2.19587e-05
1.27346e-05
1.39653e-05
2.38806e-05
8.61375e-05
0.000169675
0.00029879
0.000311852
0.000181859
8.6817e-05
2.52341e-05
1.28072e-05
1.51614e-05
2.13963e-05
8.84568e-05
0.000170185
0.000306605
0.000294904
0.000161789
8.37391e-05
2.52615e-05
1.43791e-05
1.42508e-05
3.00167e-05
8.49804e-05
0.000160669
0.000281815
0.000284582
0.000162658
8.25127e-05
2.68579e-05
1.48128e-05
1.39983e-05
3.0845e-05
8.56303e-05
0.0001665
0.000292047
0.000311386
0.000159921
7.93903e-05
2.60997e-05
1.55181e-05
1.65982e-05
2.6796e-05
8.54471e-05
0.000200702
0.000358276
0.000501425
0.000277722
0.000124225
4.31773e-05
2.19498e-05
2.81309e-05
7.33709e-05
0.000218703
0.000494431
0.000894315
0.00111119
0.000679048
0.000340416
0.000117873
3.53699e-05
4.30096e-05
0.000176278
0.000470058
0.000863456
0.00134144
0.00155511
0.00104366
0.00059722
0.000236862
5.01631e-05
5.62779e-05
0.000296517
0.000715052
0.00120789
0.00175204
0.00193525
0.00136094
0.000822821
0.00034587
6.11904e-05
6.61353e-05
0.000393524
0.000920572
0.00149854
0.00209894
0.00222879
0.00161933
0.00101112
0.000440354
7.08655e-05
7.50588e-05
0.00048849
0.00110333
0.00174771
0.00238892
0.00253985
0.00186248
0.00118152
0.000526426
7.87334e-05
8.30237e-05
0.000555126
0.00125448
0.00197719
0.00269817
0.00286152
0.00209652
0.00133108
0.000592383
8.83477e-05
9.72619e-05
0.000626142
0.0014077
0.00220616
0.00299085
0.00312092
0.0023288
0.00150309
0.00068303
0.000106285
0.000113656
0.000744844
0.00161222
0.00248063
0.00331341
0.00350821
0.00263511
0.00172191
0.000800743
0.000120415
0.000127278
0.000865475
0.00183162
0.00278716
0.00369567
0.00388565
0.00293012
0.00193397
0.000929913
0.000131718
0.000132577
0.000962933
0.00199149
0.00302145
0.00406238
0.00391659
0.00296024
0.00195492
0.000942278
0.000130028
0.000127261
0.000914717
0.0018919
0.00283814
0.00369148
0.00387548
0.00291277
0.00192245
0.000920924
0.000129558
0.000131094
0.000962359
0.0020064
0.00304596
0.00405184
0.00422754
0.00318168
0.00210028
0.00101754
0.000134527
0.000135064
0.00104593
0.00218031
0.00330614
0.00439286
0.00454364
0.00341718
0.00224993
0.00107697
0.000138924
0.000135444
0.00107858
0.0022745
0.00347746
0.0046595
0.00463469
0.00342667
0.00223735
0.00106407
0.000133525
0.00012433
0.00100315
0.0021089
0.00320313
0.00421398
0.00376678
0.00290844
0.00193498
0.000920867
0.000114731
0.000105205
0.000849837
0.0017974
0.00274524
0.00369828
0.00347705
0.00260081
0.00169221
0.00079075
9.88092e-05
9.21164e-05
0.000741583
0.00159161
0.00243372
0.00320787
0.00325889
0.00240508
0.00155535
0.000722352
9.11831e-05
8.95003e-05
0.000716246
0.00155846
0.00242585
0.00329397
0.0032857
0.0024272
0.00156029
0.000717583
9.00073e-05
8.94718e-05
0.000718993
0.00155989
0.00242677
0.00328848
0.00330147
0.00243346
0.0015617
0.000721533
9.07029e-05
8.90044e-05
0.000721719
0.00156897
0.00245097
0.00333473
0.0033672
0.00244609
0.00156531
0.000721646
8.91234e-05
8.58446e-05
0.000700785
0.00151538
0.00235651
0.00318752
0.00298662
0.00224361
0.00144726
0.000667628
8.27417e-05
8.35134e-05
0.000669862
0.00146417
0.00228889
0.00312304
0.00325562
0.00238544
0.00152263
0.000697579
8.68507e-05
8.91385e-05
0.000733946
0.00158956
0.00248549
0.00338603
0.00351297
0.0025744
0.00164702
0.000759732
8.95052e-05
8.79757e-05
0.000759092
0.00165665
0.00260757
0.00360587
0.00342626
0.00252652
0.0016134
0.000735851
8.45134e-05
8.02572e-05
0.000706665
0.00155785
0.00242169
0.00322712
0.00339175
0.00248222
0.00157759
0.000706203
7.90565e-05
8.28502e-05
0.000730365
0.00164089
0.00259346
0.0035578
0.00371124
0.00270762
0.00171483
0.000763213
8.60472e-05
8.82018e-05
0.000790699
0.00177186
0.00280595
0.00385456
0.00397199
0.00285203
0.00179607
0.000803524
8.91185e-05
8.79664e-05
0.000795799
0.00176311
0.00277663
0.00378388
0.0035856
0.00268477
0.00172577
0.000782872
8.70517e-05
8.76659e-05
0.000792282
0.00176188
0.00276619
0.00377927
0.00397788
0.00290346
0.00183828
0.00082207
9.02855e-05
9.48019e-05
0.00085613
0.00192243
0.0030393
0.0041684
0.00434837
0.00316636
0.002001
0.000901408
9.78559e-05
9.89466e-05
0.000912174
0.00203761
0.00323144
0.00450194
0.00430189
0.0031537
0.00200505
0.000905839
9.75811e-05
9.58522e-05
0.000900118
0.00197872
0.00307241
0.00409911
0.00433264
0.00317558
0.00202548
0.000913558
9.65533e-05
9.9266e-05
0.000949804
0.00212295
0.00334453
0.00457448
0.0048129
0.00350585
0.00221561
0.000991391
0.000104048
0.000107219
0.00101915
0.0022669
0.00359615
0.00501221
0.00481172
0.00353438
0.00225609
0.00102013
0.000107246
0.00010579
0.00101749
0.00223246
0.00346599
0.00461338
0.00489303
0.00359158
0.00228891
0.00103457
0.000107227
0.000111812
0.00107723
0.0023917
0.00377407
0.00518255
0.00542746
0.00388476
0.00245311
0.00111073
0.000115743
0.000114812
0.00111274
0.00244407
0.00383274
0.00522707
0.00503981
0.00378118
0.00243759
0.00111323
0.000115263
0.00011781
0.00114366
0.00252128
0.0039444
0.00536676
0.00570415
0.00416117
0.00263819
0.0011925
0.000122301
0.000126121
0.00122945
0.00271475
0.00430424
0.00601068
0.00581377
0.00426949
0.00273332
0.00124802
0.000127887
0.000129375
0.00126932
0.0027512
0.00424234
0.00563689
0.00602872
0.0044427
0.00285574
0.00130713
0.000131454
0.000133711
0.00135388
0.00300017
0.00471796
0.00644805
0.00683763
0.0049155
0.0031083
0.001412
0.000142791
0.000150733
0.00146734
0.00316264
0.00491322
0.00666603
0.00652341
0.00492785
0.00321903
0.0015097
0.000158505
0.000166762
0.00157403
0.00334149
0.0051692
0.0069969
0.0074735
0.00539942
0.00346527
0.00163318
0.00017411
0.000177208
0.00166911
0.0035137
0.00541053
0.00731214
0.0071861
0.00543452
0.0035594
0.00169094
0.000173883
0.000169146
0.00169565
0.00365794
0.00569518
0.0077196
0.00827322
0.00593282
0.00374173
0.00167684
0.000156648
0.000159574
0.00167971
0.00378441
0.00596774
0.0081279
0.00806487
0.00604555
0.0038851
0.00176042
0.000174992
0.000190754
0.00184934
0.0040319
0.00631066
0.00872263
0.00868536
0.0064369
0.00416175
0.00193635
0.000205024
0.000221836
0.00204195
0.00431615
0.00660489
0.00871018
0.0094742
0.00693395
0.00450431
0.00214597
0.000237515
0.00025292
0.00224774
0.00466433
0.00710238
0.00949112
0.00955773
0.00731645
0.00485701
0.00236217
0.000269729
0.000285735
0.00248336
0.00508391
0.00770946
0.0104189
0.0104911
0.00792281
0.00527795
0.0025954
0.000302498
0.000320843
0.00272012
0.00550136
0.00819192
0.0105859
0.011481
0.00856987
0.00568763
0.00281177
0.000330867
0.000316718
0.00279998
0.00569771
0.0086138
0.0114609
0.0113846
0.00853381
0.0055785
0.00268749
0.000309711
0.000331349
0.00267219
0.00550951
0.00848136
0.0113936
0.0116953
0.00868375
0.00563891
0.00277129
0.000373353
0.000389352
0.00289674
0.0058789
0.00895639
0.0119526
0.0127024
0.00947961
0.00616985
0.00297162
0.000374163
0.00033997
0.0029054
0.0062406
0.00969723
0.0132359
0.0129259
0.00961619
0.00623855
0.00296532
0.000355296
0.000431526
0.00318058
0.0063381
0.00953722
0.0126603
0.0124245
0.00943651
0.00643043
0.00338786
0.000497913
0.000523561
0.003439
0.00629137
0.0091961
0.0121049
0.0116253
0.00870096
0.00580168
0.00298575
0.00052095
0.000498556
0.0023934
0.00502861
0.00786896
0.0108075
0.0091114
0.00662305
0.00416293
0.00187888
0.00044072
0.000377627
0.00150951
0.00351167
0.00576719
0.00808632
0.0071129
0.00504266
0.003103
0.00138136
0.000339521
0.000316081
0.00120297
0.00278906
0.0046223
0.00662296
0.00595525
0.00418901
0.00253103
0.00107889
0.000288784
0.000267188
0.00096373
0.00234605
0.00396176
0.00573133
0.00519947
0.00360536
0.00212424
0.000846685
0.000237881
0.000200331
0.000765776
0.00202767
0.00351666
0.00516149
0.00474919
0.00329123
0.00191628
0.000712637
0.000178388
0.000180262
0.000782925
0.00195427
0.00332634
0.00486181
0.00455295
0.003215
0.00195025
0.000821677
0.000179725
0.000176958
0.000865058
0.00200909
0.00330887
0.0047453
0.00460195
0.00322106
0.00199383
0.000878383
0.000173518
0.000165561
0.00085468
0.00190224
0.00299919
0.00405414
0.00419075
0.00303537
0.00192592
0.000867884
0.000157674
0.000156086
0.000917874
0.00194391
0.00300033
0.00407818
0.00434151
0.00315232
0.00203375
0.000976335
0.000160731
0.000165935
0.00100752
0.00205665
0.00314549
0.00433566
0.00396333
0.00302131
0.00203036
0.00102609
0.000169954
0.000170464
0.00102001
0.00204967
0.00308654
0.00414296
0.00413621
0.00305141
0.00203488
0.00101528
0.000169055
0.000164889
0.00097825
0.00196864
0.00292266
0.00380601
0.00397058
0.00297216
0.00196605
0.000944743
0.000158351
0.000151557
0.000933165
0.00194182
0.00293264
0.00397036
0.0036605
0.00281534
0.00188519
0.000905215
0.000145323
0.000139359
0.000908249
0.00190487
0.00286885
0.00380922
0.00379571
0.00289076
0.00194407
0.000952923
0.000137893
0.000142312
0.00100695
0.00203653
0.00304834
0.00405219
0.00411458
0.00307415
0.00206821
0.00103616
0.000145933
0.000147556
0.0010378
0.00205219
0.00299789
0.00386065
0.00404939
0.00308319
0.00208499
0.00105107
0.000148408
0.000149404
0.00105991
0.00209367
0.0030884
0.00410212
0.00385137
0.00300541
0.00206338
0.00104871
0.000149199
0.00014969
0.00106103
0.00209678
0.00308528
0.00403365
0.00408558
0.00307911
0.00208762
0.0010499
0.000149062
0.000147921
0.00104052
0.00205562
0.00299703
0.00384372
0.00401897
0.00306961
0.00207603
0.00103998
0.000146655
0.000145182
0.00102603
0.00206939
0.00306939
0.00407518
0.00383451
0.00298476
0.00203411
0.00101366
0.000142846
0.000141289
0.00101514
0.00205964
0.00305871
0.00401013
0.00407014
0.00305873
0.00205561
0.00101271
0.000139555
0.00013726
0.000993222
0.00202191
0.00298289
0.00383548
0.00401473
0.00306404
0.00206147
0.00101848
0.000136793
0.000136554
0.00101335
0.0020593
0.00306688
0.00408406
0.00385477
0.00299546
0.00203069
0.00100398
0.000135382
0.000134152
0.00100141
0.00206314
0.00307958
0.00404292
0.0041204
0.00308426
0.00205118
0.000991183
0.000131932
0.000127838
0.000942406
0.00197524
0.0029643
0.00391083
0.00365256
0.00282806
0.00189046
0.000897387
0.000122901
0.00011987
0.000897263
0.00189996
0.00287475
0.00379969
0.00385974
0.0028696
0.0018949
0.000900445
0.000118109
0.000117166
0.000901061
0.00187201
0.0028016
0.00363799
0.00381414
0.00288377
0.00190943
0.000913374
0.000116992
0.000116363
0.000908259
0.00190849
0.00288834
0.00388437
0.0036631
0.00282172
0.00188366
0.000902772
0.000115255
0.000114923
0.000903151
0.00191275
0.00289967
0.0038389
0.00391225
0.00290673
0.00191602
0.000912429
0.000114315
0.000113849
0.000892117
0.00188643
0.00283768
0.00368574
0.00386171
0.00291424
0.00191909
0.000905643
0.000112948
0.000112918
0.00090082
0.00191456
0.00291334
0.00392925
0.0036976
0.00284164
0.00188624
0.00089184
0.0001119
0.000111663
0.000901451
0.00191535
0.00291511
0.00387009
0.00393587
0.00291553
0.00191077
0.000893531
0.00011122
0.000109898
0.000880946
0.00187831
0.00283714
0.00369886
0.00386817
0.00290722
0.00190362
0.00089013
0.000109664
0.000109082
0.000881365
0.0018961
0.00290565
0.00393331
0.00369115
0.00282412
0.00185805
0.000861607
0.000107312
0.000106114
0.000871215
0.00188397
0.00288974
0.00385673
0.00391583
0.00288224
0.00187585
0.000870937
0.00010549
0.000104389
0.000851294
0.00183936
0.00280399
0.00367358
0.00383686
0.00286911
0.00186431
0.000858069
0.000103198
0.00010283
0.000856687
0.0018558
0.00286341
0.00389257
0.00365256
0.00278575
0.00182643
0.000841187
0.00010163
0.000100112
0.000841641
0.00184555
0.00284986
0.00381651
0.0038733
0.00284304
0.0018387
0.000844483
9.92195e-05
9.86468e-05
0.000825716
0.0018107
0.00277354
0.00364167
0.00381648
0.00284824
0.00184119
0.000839087
9.83051e-05
9.88226e-05
0.000837611
0.00184526
0.00285809
0.00389312
0.0036916
0.00281003
0.001837
0.000839459
9.86176e-05
0.000100916
0.000860007
0.00188853
0.00291892
0.00390467
0.00401871
0.00296276
0.00191977
0.000877005
0.000102818
0.000104926
0.000898928
0.00195477
0.00297567
0.00388765
0.00417299
0.00315481
0.00206156
0.000942515
0.000109248
0.00011366
0.000997354
0.00215208
0.00329066
0.00442823
0.00438463
0.00338145
0.00224944
0.00104676
0.000123489
0.000133309
0.0011501
0.00244646
0.00364628
0.00468427
0.00512897
0.00402089
0.00271689
0.00127693
0.000150586
0.000168899
0.00144133
0.0030815
0.00463161
0.00603551
0.00655824
0.00494575
0.00328712
0.00154001
0.0001812
0.000189357
0.00156097
0.00330293
0.00495183
0.00651558
0.00617428
0.00481808
0.0032447
0.00154168
0.00019133
0.000195315
0.0015612
0.00329985
0.0049368
0.00643474
0.00651221
0.00502312
0.00338095
0.00160823
0.000202792
0.000210753
0.00168027
0.00353327
0.00530987
0.00694152
0.00710758
0.00537111
0.00358458
0.0017144
0.000218657
0.000223841
0.00170843
0.00354099
0.00524167
0.00671654
0.00702291
0.00538007
0.00359671
0.00172167
0.000214695
0.000212792
0.00171814
0.00358539
0.0053774
0.00713267
0.0067016
0.00521678
0.0035107
0.00168575
0.000209822
0.000208916
0.00170455
0.00356529
0.00534801
0.00699538
0.00709687
0.00534473
0.00356182
0.00170967
0.000209097
0.000207929
0.00168087
0.00349035
0.00518288
0.00666434
0.00695749
0.00530931
0.00353608
0.00168974
0.000206715
0.000205909
0.0016901
0.003529
0.00530598
0.00705929
0.00662518
0.00514017
0.00344988
0.00164689
0.000204171
0.000203738
0.00166482
0.00349884
0.00526874
0.00692093
0.00702254
0.00526687
0.00349342
0.00166724
0.000203682
0.000201717
0.0016359
0.00342124
0.00510335
0.00658735
0.00687981
0.00522712
0.00346458
0.00164397
0.0002007
0.000199669
0.00162922
0.00344275
0.00521452
0.0069707
0.00652623
0.00504106
0.00336193
0.00159413
0.000197627
0.000196049
0.00159066
0.00339039
0.00515102
0.00680959
0.00687358
0.0051248
0.00336811
0.00158049
0.000193503
0.000191917
0.00155723
0.00329088
0.0049487
0.0064212
0.00666084
0.00504727
0.00333448
0.001573
0.000193055
0.000196139
0.00159808
0.00338315
0.00508983
0.00667097
0.00707208
0.00534008
0.00350213
0.00164188
0.000200453
0.000202476
0.00164666
0.00351633
0.00534601
0.00716473
0.00670183
0.00516266
0.00342895
0.00162029
0.000201916
0.000200726
0.00162102
0.00345923
0.00526826
0.00698266
0.00702053
0.00521973
0.00341744
0.00160045
0.000198124
0.000195435
0.00155778
0.00332364
0.00502438
0.00653073
0.00676579
0.00510659
0.00335277
0.00156626
0.000194708
0.00019677
0.00158385
0.00338959
0.00513266
0.00675252
0.0071537
0.00537547
0.00350229
0.00162398
0.000199617
0.000200743
0.00162924
0.00350413
0.00536437
0.00722331
0.00672539
0.00515919
0.00340526
0.00159135
0.000199453
0.000197627
0.00158922
0.00342769
0.00526014
0.00700786
0.00703084
0.00519951
0.0033801
0.0015628
0.000195554
0.000193741
0.00152784
0.00328028
0.00498614
0.00651023
0.00674389
0.00506268
0.00330265
0.00152971
0.000193452
0.000195079
0.00154686
0.00333476
0.00507832
0.00671537
0.00711832
0.00531856
0.00343883
0.00158201
0.00019805
0.000198642
0.0015832
0.00343852
0.00530261
0.00717615
0.0066491
0.00508295
0.00333711
0.00154838
0.000196964
0.000195383
0.00154238
0.00334936
0.00517292
0.00692601
0.00693718
0.00510834
0.0032989
0.00151313
0.000193345
0.000190285
0.00146043
0.00318304
0.004873
0.00639493
0.00662216
0.00494468
0.00319626
0.001465
0.000189424
0.000190531
0.00147764
0.00322161
0.00494105
0.00657067
0.006968
0.0051662
0.00331083
0.00150865
0.000192491
0.000193243
0.00150888
0.00330235
0.00513031
0.00699322
0.00644077
0.00490074
0.00319883
0.0014744
0.000191279
0.000191581
0.001475
0.00321416
0.00497398
0.00667016
0.00661321
0.0049732
0.00324305
0.0014924
0.000193847
0.00019611
0.001518
0.00332239
0.00518436
0.0070044
0.00702435
0.00514843
0.00330468
0.00150877
0.000195586
0.000192908
0.00145353
0.00318784
0.0048973
0.00644464
0.00667141
0.0049613
0.00319042
0.00145125
0.000191705
0.000192552
0.0014585
0.00320192
0.00494209
0.00659505
0.00698494
0.00514994
0.00328221
0.00148448
0.000193796
0.000193495
0.00148036
0.00326487
0.00510634
0.00699278
0.00640003
0.00485214
0.00315021
0.00144266
0.000191988
0.000191857
0.00143611
0.003156
0.00491631
0.00662761
0.00654622
0.00489668
0.00317009
0.00144507
0.000192876
0.000194589
0.00147035
0.00325038
0.00510891
0.00693967
0.00694689
0.00506088
0.00322652
0.00146469
0.000194731
0.000192907
0.00140611
0.00310336
0.00479792
0.00634229
0.00656827
0.00485361
0.00309725
0.00139574
0.000191484
0.000192192
0.00141132
0.00311203
0.00483203
0.00648167
0.00686736
0.00503741
0.00318984
0.00143455
0.000193672
0.000192432
0.00142541
0.00316207
0.00498455
0.00686566
0.00624632
0.00471413
0.00303617
0.0013715
0.000189606
0.000187657
0.001361
0.00302987
0.00476554
0.00647047
0.00636331
0.00472963
0.00303112
0.00136338
0.00018785
0.000189113
0.00138611
0.0030995
0.00492173
0.00674512
0.00673416
0.00486531
0.00306829
0.00136008
0.000188096
0.00018415
0.00129367
0.00292327
0.00457943
0.00609667
0.0063137
0.00461907
0.00291136
0.00128608
0.000181696
0.000183684
0.00130598
0.00292325
0.00459053
0.00620099
0.00654655
0.00477656
0.0030181
0.00134974
0.000188209
0.000191451
0.00137441
0.00305906
0.00478362
0.00645137
0.00685719
0.00500017
0.00314185
0.00140412
0.000194356
0.000194508
0.00139553
0.00312357
0.00494796
0.00684119
0.0061844
0.00464452
0.00296689
0.00132054
0.000191329
0.000189181
0.00131045
0.00295032
0.00468618
0.00641293
0.00628078
0.00463806
0.00294616
0.00131332
0.000188885
0.000188963
0.00132941
0.00300423
0.00482405
0.00665935
0.00663217
0.00475764
0.00297088
0.00129672
0.000187033
0.000183162
0.00124894
0.0028251
0.00445745
0.00597114
0.00619101
0.00449896
0.00281145
0.00123931
0.000181775
0.000182165
0.00124447
0.00281442
0.00445346
0.00605465
0.00640554
0.00463503
0.00289924
0.00128259
0.000185148
0.000189075
0.00130527
0.00293397
0.00462985
0.00628279
0.00668043
0.00483427
0.00300415
0.00132154
0.00019098
0.000190253
0.00131889
0.00298445
0.00477378
0.00665218
0.00596873
0.00445411
0.00280998
0.00122304
0.000186385
0.000183128
0.00121459
0.00278419
0.00447582
0.00618236
0.00603002
0.00442485
0.00278259
0.00121907
0.000183793
0.000186199
0.00125603
0.00286132
0.00460505
0.00638522
0.00624575
0.00458934
0.00289405
0.00128043
0.00018984
0.000191981