/*--------------------------------*- C++ -*----------------------------------*\
| =========                 |                                                 |
| \\      /  F ield         | OpenFOAM: The Open Source CFD Toolbox           |
|  \\    /   O peration     | Version:  v2006                                 |
|   \\  /    A nd           | Website:  www.openfoam.com                      |
|    \\/     M anipulation  |                                                 |
\*---------------------------------------------------------------------------*/
FoamFile
{
    version     2.0;
    format      ascii;
    class       volScalarField;
    location    "0.097";
    object      Ma;
}
// * * * * * * * * * * * * * * * * * * * * * * * * * * * * * * * * * * * * * //

dimensions      [0 0 0 0 0 0 0];


internalField   nonuniform List<scalar> 
16277
(
0.139391
0.139392
0.139391
0.13939
0.139389
0.139384
0.13937
0.139325
0.139223
0.139061
0.138856
0.138629
0.138396
0.138162
0.137926
0.137685
0.137437
0.137179
0.136911
0.136631
0.13634
0.136038
0.135725
0.135401
0.135066
0.13472
0.134364
0.133998
0.133622
0.133236
0.13284
0.132435
0.132021
0.131598
0.131167
0.130728
0.130281
0.129828
0.129367
0.1289
0.128427
0.127949
0.127466
0.126978
0.126487
0.125992
0.125494
0.124994
0.124492
0.123989
0.123485
0.122981
0.122477
0.121975
0.121474
0.120976
0.12048
0.119988
0.119499
0.119016
0.118538
0.118066
0.1176
0.117142
0.116691
0.116249
0.115815
0.115391
0.114977
0.114573
0.114181
0.1138
0.113431
0.113075
0.112732
0.112403
0.112087
0.111782
0.111487
0.111196
0.110909
0.110633
0.11039
0.11022
0.110144
0.110143
0.110172
0.110207
0.110235
0.110233
0.110211
0.110141
0.109963
0.109665
0.10918
0.108623
0.106572
0.105257
0.108648
0.109317
0.109386
0.108499
0.103773
0.102305
0.108323
0.10945
0.109443
0.108053
0.100955
0.0997109
0.107767
0.109402
0.109289
0.107397
0.0985498
0.0975003
0.107061
0.10917
0.108999
0.106678
0.0965076
0.0956376
0.106347
0.108846
0.108639
0.105946
0.0947951
0.0940428
0.105608
0.108453
0.108216
0.105199
0.0933007
0.0926301
0.104858
0.108009
0.107754
0.104448
0.0919647
0.091363
0.104117
0.107539
0.107264
0.103703
0.0907492
0.0901905
0.103372
0.107034
0.106742
0.102953
0.0896134
0.0890907
0.102624
0.106503
0.106204
0.10221
0.0885512
0.0880586
0.101886
0.10596
0.105652
0.101472
0.0875444
0.0870735
0.10115
0.105401
0.105085
0.100735
0.0865787
0.0861247
0.100414
0.104828
0.104503
0.099998
0.085645
0.0852041
0.099677
0.104239
0.103906
0.0992581
0.0847359
0.0843047
0.0989356
0.103636
0.103293
0.0985131
0.083845
0.0834207
0.0981878
0.103016
0.102664
0.0977609
0.0829669
0.0825475
0.0974316
0.102379
0.102018
0.0969995
0.0820977
0.0816811
0.0966655
0.101724
0.101353
0.0962276
0.0812338
0.0808186
0.0958879
0.101051
0.100669
0.0954434
0.0803722
0.079957
0.095097
0.100358
0.099965
0.0946451
0.0795102
0.0790938
0.0942911
0.099643
0.0992392
0.0938314
0.0786457
0.0782267
0.0934692
0.0989064
0.0984905
0.0930005
0.0777757
0.0773532
0.0926295
0.0981463
0.0977177
0.0921511
0.0768984
0.0764712
0.0917703
0.0973615
0.0969196
0.0912814
0.0760114
0.0755785
0.0908899
0.0965507
0.0960947
0.0903897
0.0751127
0.074673
0.0899866
0.0957123
0.0952416
0.0894742
0.0742001
0.0737527
0.0890588
0.094845
0.0943591
0.0885336
0.0732718
0.0728158
0.088105
0.0939476
0.0934459
0.0875663
0.072326
0.0718605
0.0871237
0.0930189
0.0925007
0.0865709
0.0713611
0.0708855
0.0861139
0.0920578
0.0915227
0.0855465
0.0703759
0.0698896
0.0850744
0.0910633
0.0905111
0.084492
0.0693693
0.068872
0.0840046
0.0900349
0.0894654
0.0834072
0.0683408
0.0678326
0.0829044
0.0889724
0.0883857
0.082292
0.0672906
0.066772
0.0817743
0.0878762
0.087273
0.0811477
0.0662201
0.065692
0.0806158
0.0867477
0.0861291
0.0799763
0.0651312
0.064595
0.0794317
0.0855893
0.0849568
0.0787811
0.0640272
0.0634852
0.0782258
0.0844045
0.0837604
0.0775665
0.0629127
0.0623678
0.0770035
0.0831982
0.0825457
0.0763388
0.0617941
0.0612503
0.075772
0.0819771
0.0813203
0.0751065
0.0606799
0.0601424
0.0745411
0.0807501
0.0800944
0.0738807
0.0595812
0.0590566
0.0733232
0.0795288
0.0788811
0.0726753
0.0585119
0.0580087
0.0721341
0.0783277
0.0776966
0.0715078
0.0574896
0.0570177
0.0709931
0.0771651
0.0765613
0.0703996
0.0565354
0.056107
0.0699238
0.0760632
0.0754993
0.0693765
0.0556745
0.0553038
0.0689539
0.0750482
0.0745384
0.068468
0.0549357
0.0546414
0.0681126
0.0741496
0.0737103
0.0677056
0.0543527
0.0541649
0.0674346
0.0733978
0.0730467
0.0671245
0.0539673
0.0538991
0.0669589
0.0728342
0.0725837
0.0667599
0.0538023
0.0538652
0.0667137
0.0724854
0.0723469
0.0666366
0.0538772
0.054075
0.066717
0.072371
0.0723521
0.0667676
0.0541985
0.0545173
0.0669662
0.0724919
0.072585
0.0671327
0.0547486
0.0552012
0.067466
0.072858
0.0730785
0.067765
0.0555625
0.0561429
0.0682364
0.07349
0.0738316
0.0686549
0.0566071
0.057252
0.0692138
0.0743336
0.0747586
0.0697101
0.0577701
0.0584527
0.0703319
0.0753302
0.075815
0.0708799
0.0589969
0.0596928
0.071539
0.0764329
0.0769577
0.0721167
0.060242
0.0609332
0.0727934
0.0776036
0.0781498
0.0733816
0.0614702
0.06214
0.074057
0.078805
0.0793548
0.0746376
0.0626476
0.0632816
0.0752951
0.0800025
0.0805398
0.0758522
0.0637465
0.0643333
0.0764777
0.0811653
0.0816765
0.0769982
0.0647454
0.0652767
0.0775809
0.0822678
0.0827417
0.0780544
0.0656289
0.0660994
0.0785856
0.0832893
0.0837172
0.0790028
0.0663902
0.0667972
0.0794772
0.0842142
0.0845884
0.0798319
0.0670307
0.0673709
0.0802476
0.085031
0.0853511
0.080542
0.0675476
0.0678234
0.0808988
0.0857379
0.0860042
0.081134
0.0679465
0.0681627
0.0814344
0.086336
0.0865502
0.0816138
0.0682374
0.0684008
0.0818618
0.0868299
0.0869959
0.0819907
0.0684338
0.0685531
0.0821924
0.0872291
0.0873524
0.0822774
0.068552
0.068636
0.0824397
0.0875453
0.0876319
0.0824878
0.0686082
0.0686647
0.0826174
0.0877908
0.0878466
0.0826352
0.0686167
0.0686528
0.0827383
0.0879775
0.0880081
0.0827318
0.06859
0.0686112
0.0828138
0.0881162
0.0881263
0.0827882
0.068538
0.0685485
0.0828535
0.0882158
0.0882094
0.0828129
0.068468
0.0684716
0.0828659
0.0882848
0.0882655
0.0828143
0.0683865
0.0683856
0.0828577
0.0883296
0.0883002
0.0827978
0.0682976
0.0682934
0.0828337
0.0883552
0.0883176
0.0827672
0.0682035
0.0681989
0.0827985
0.0883665
0.0883231
0.0827279
0.0681089
0.0681037
0.0827552
0.0883668
0.0883185
0.0826812
0.0680134
0.0680094
0.0827065
0.088359
0.0883066
0.0826294
0.0679192
0.0679155
0.0826525
0.0883436
0.0882886
0.0825738
0.0678254
0.067825
0.0825981
0.0883252
0.0882694
0.0825204
0.0677378
0.0677355
0.0825419
0.0883034
0.0882451
0.0824627
0.0676478
0.0676477
0.0824847
0.0882786
0.0882204
0.0824059
0.0675612
0.0675674
0.0824327
0.0882577
0.0882037
0.0823599
0.0674885
0.0674982
0.082392
0.0882581
0.088213
0.0823254
0.067411
0.0675066
0.0823949
0.088294
0.0882819
0.0824045
0.0674878
0.0677124
0.0826169
0.0884757
0.0886395
0.0828552
0.0681355
0.0689752
0.0834272
0.0891718
0.0907157
0.0857253
0.0722856
0.071575
0.0829911
0.0881994
0.0916133
0.0941266
0.0955826
0.0960828
0.0963892
0.0969933
0.0972356
0.0975017
0.0976213
0.0977234
0.0977458
0.0977138
0.0976399
0.0974452
0.0972435
0.0967372
0.0964491
0.0961268
0.0957318
0.095055
0.0933229
0.0895851
0.081741
0.0717602
0.0511813
0.0495855
0.0707314
0.080929
0.0800856
0.0697722
0.0483198
0.0475235
0.0691413
0.0795484
0.0792929
0.0688869
0.0469394
0.0468534
0.0687633
0.0791857
0.0790746
0.068655
0.0465293
0.0465166
0.0685848
0.0790838
0.0790975
0.068598
0.0465334
0.0465615
0.0686228
0.0791207
0.0791483
0.0686583
0.0466026
0.046648
0.068701
0.0791837
0.0792166
0.0687441
0.0466965
0.046748
0.068792
0.0792561
0.079295
0.0688408
0.0468017
0.0468578
0.0688937
0.0793386
0.0793787
0.0689452
0.0469136
0.0469725
0.069
0.0794239
0.0794672
0.0690553
0.0470327
0.0470938
0.0691122
0.0795146
0.0795581
0.0691669
0.0471531
0.0472149
0.0692245
0.0796056
0.0796515
0.0692822
0.0472787
0.0473423
0.0693418
0.0797009
0.0797461
0.0693987
0.0474048
0.0474692
0.0694586
0.0797954
0.0798431
0.0695185
0.0475359
0.0476024
0.0695804
0.0798944
0.0799415
0.0696397
0.0476683
0.0477359
0.0697019
0.0799928
0.0800424
0.0697639
0.0478051
0.0478737
0.0698276
0.0800953
0.0801441
0.0698886
0.0479415
0.0480112
0.0699527
0.0801972
0.0802486
0.0700167
0.0480825
0.0481534
0.0700823
0.0803034
0.0803543
0.0701455
0.0482235
0.0482955
0.0702119
0.0804099
0.0804635
0.0702782
0.0483685
0.0484419
0.070346
0.0805208
0.0805743
0.0704115
0.0485136
0.0485874
0.0704799
0.0806323
0.0806885
0.0705483
0.0486617
0.0487366
0.0706183
0.0807485
0.0808048
0.070686
0.0488095
0.0488843
0.0707567
0.0808658
0.0809255
0.0708276
0.0489596
0.049035
0.0708998
0.080989
0.0810489
0.0709698
0.0491074
0.0491813
0.0710427
0.081114
0.0811778
0.0711157
0.0492543
0.0493275
0.0711905
0.0812462
0.0813119
0.071264
0.0493983
0.0494712
0.0713412
0.0813832
0.0814543
0.0714201
0.0495443
0.0496179
0.0715012
0.0815301
0.081604
0.0715819
0.049689
0.0497624
0.0716671
0.0816849
0.0817667
0.0717543
0.0498345
0.049906
0.0718436
0.0818539
0.0819405
0.0719327
0.0499733
0.0500404
0.0720259
0.082034
0.0821286
0.0721209
0.050105
0.0501683
0.0722185
0.0822289
0.08233
0.0723174
0.0502277
0.0502877
0.0724219
0.082439
0.0825507
0.0725304
0.0503464
0.0504038
0.0726444
0.0826702
0.0827925
0.0727623
0.0504601
0.0505173
0.072888
0.0829246
0.0830626
0.0730205
0.0505745
0.0506303
0.0731603
0.0832108
0.0833637
0.0733062
0.0506858
0.0507447
0.0734629
0.0835295
0.0837022
0.0736299
0.0508098
0.0508815
0.0738076
0.0838859
0.0840764
0.073996
0.0509607
0.0510505
0.0742015
0.0842829
0.0844993
0.0744205
0.0511515
0.0512651
0.0746561
0.084731
0.0849749
0.0749074
0.0513963
0.0515556
0.0751816
0.085236
0.0855111
0.0754786
0.0517481
0.0519799
0.0758044
0.0858042
0.0861148
0.07616
0.0522543
0.0525832
0.0765547
0.0864501
0.0868041
0.0769849
0.0529731
0.0534333
0.0774589
0.0871855
0.0875916
0.0779756
0.0539697
0.0545946
0.078542
0.0880275
0.0884923
0.0791606
0.0553117
0.0561645
0.0798608
0.0890092
0.0896076
0.0806882
0.0572259
0.0585591
0.0816425
0.0902775
0.0909469
0.0826259
0.0598938
0.0611603
0.0835712
0.091551
0.0920365
0.0843548
0.062389
0.0634642
0.0847995
0.0923591
0.092617
0.0854422
0.0645188
0.0654916
0.0858149
0.0928247
0.092971
0.0862262
0.0665721
0.0677162
0.0866347
0.0931292
0.0931551
0.086917
0.0687418
0.0696195
0.087169
0.0931411
0.0931322
0.0874453
0.0705776
0.0716317
0.0877186
0.0931331
0.0930865
0.087945
0.0727249
0.0733496
0.0881298
0.0928813
0.0922826
0.0877348
0.0732926
0.05843
0.0808709
0.0892054
0.0916583
0.0840177
0.0621056
0.0621469
0.0843677
0.0917853
0.0916558
0.0845491
0.0630982
0.0643581
0.0846258
0.0914533
0.0915141
0.0850846
0.0658512
0.0674821
0.0854272
0.0915013
0.0915783
0.0859454
0.0690469
0.0705128
0.0861956
0.0914645
0.0914584
0.0866178
0.0719879
0.073408
0.0869378
0.091369
0.0912455
0.0872332
0.0746751
0.0751009
0.087074
0.0907131
0.0883054
0.081864
0.0646507
0.0686478
0.0847708
0.0903183
0.0904067
0.0851758
0.0696061
0.0711912
0.0857693
0.0904296
0.0903878
0.0860822
0.0724168
0.0735742
0.0863032
0.0902869
0.090212
0.0866175
0.0747978
0.0753863
0.0866203
0.0899156
0.0892524
0.0862368
0.0756182
0.0666441
0.0817256
0.0871512
0.0885882
0.0841714
0.0700837
0.0709305
0.0843906
0.0884448
0.0881205
0.0844588
0.072108
0.073275
0.084404
0.0877412
0.0873676
0.0844939
0.0745043
0.0748419
0.0840638
0.0865198
0.0845825
0.0801863
0.0671303
0.0710197
0.082235
0.0858358
0.0855706
0.0824523
0.0721015
0.0731002
0.0823562
0.0851088
0.0845591
0.0822755
0.0737947
0.0737712
0.0815227
0.0835318
0.0818659
0.078345
0.0672341
0.070243
0.0797175
0.0825018
0.081637
0.0792736
0.0707288
0.0716041
0.0788376
0.0806878
0.0793365
0.0778664
0.0714454
0.0661424
0.0750819
0.0777025
0.077753
0.0757177
0.0687825
0.0689055
0.0747963
0.0763957
0.0747658
0.073652
0.0688276
0.067722
0.071759
0.0724562
0.0701341
0.0686914
0.0631114
0.0635475
0.0675724
0.0684334
0.0650193
0.0647187
0.0615751
0.0568043
0.0607878
0.0618566
0.0586727
0.0581599
0.0559168
0.0517637
0.0526375
0.0525418
0.0452047
0.0449193
0.0437172
0.0348585
0.034754
0.0351824
0.0239814
0.022039
0.020617
0.005934
0.00913364
0.0150059
0.0295603
0.0279383
0.0283309
0.0536085
0.0519396
0.0512234
0.0693136
0.070771
0.0722003
0.0833225
0.0831537
0.082256
0.0866958
0.0866271
0.0854373
0.0890305
0.0917201
0.0917606
0.0932236
0.0924409
0.0889889
0.0908981
0.095231
0.0958911
0.0968438
0.0953548
0.0904085
0.0874246
0.0944102
0.0965495
0.0984302
0.0968314
0.089639
0.08679
0.0949221
0.0974699
0.0994113
0.0976517
0.0904348
0.0893739
0.0969931
0.0994411
0.0981542
0.0950364
0.0864312
0.089663
0.0977131
0.0998629
0.0995616
0.0966734
0.0880991
0.0851281
0.0945276
0.0980648
0.0998545
0.0975346
0.088831
0.0872428
0.0964458
0.0995107
0.0977165
0.0939232
0.0838496
0.0878124
0.0969264
0.0994597
0.0992875
0.096121
0.0866708
0.0831598
0.0934108
0.097416
0.0991865
0.0965299
0.0874819
0.0866169
0.0959339
0.0991489
0.0972304
0.0932731
0.0830831
0.0868485
0.0961969
0.0989322
0.0988474
0.095529
0.0859294
0.0827258
0.0929913
0.0970123
0.0988282
0.0960412
0.0866902
0.0856233
0.0953198
0.0986817
0.0967702
0.0927286
0.082263
0.0864684
0.095817
0.0986268
0.0986669
0.0953312
0.0854328
0.0837008
0.0940435
0.0980181
0.095581
0.0909974
0.0792181
0.083914
0.0945977
0.0977099
0.0978132
0.093998
0.0828691
0.078971
0.0909293
0.09567
0.0978076
0.0946061
0.0836929
0.0823282
0.0936225
0.0976209
0.0953742
0.0907927
0.0784902
0.0835806
0.0945309
0.0976156
0.0977063
0.0938945
0.0826217
0.0788248
0.0908225
0.0955539
0.0977273
0.0944492
0.0833288
0.0821914
0.0936797
0.0976319
0.0955732
0.0907507
0.0787335
0.0836725
0.094662
0.0979299
0.0979063
0.0939317
0.0825482
0.078861
0.0908516
0.0956093
0.0979113
0.0945919
0.0836415
0.0825187
0.0937913
0.0979058
0.0958154
0.0910681
0.0790363
0.0840567
0.0950408
0.0983078
0.0983317
0.0942068
0.0828643
0.0787112
0.0910675
0.0958364
0.0983177
0.0949873
0.0834477
0.0810876
0.0929229
0.0971091
0.0995978
0.0966551
0.0863181
0.0857344
0.0960968
0.099724
0.0977047
0.0933547
0.0825723
0.0866803
0.0968193
0.0999147
0.0997701
0.095996
0.0854233
0.0823868
0.0934753
0.0979086
0.100388
0.0974456
0.0873854
0.086648
0.0970091
0.100616
0.0986903
0.0943449
0.0834796
0.0876428
0.0978676
0.100924
0.100721
0.0969959
0.0863049
0.0827514
0.0940579
0.0986539
0.101107
0.0979877
0.0876318
0.0869538
0.0976035
0.101455
0.0993512
0.0949727
0.0834593
0.0876601
0.0987284
0.101772
0.100352
0.0964169
0.0850944
0.088879
0.0995269
0.102516
0.10247
0.0987502
0.0878501
0.0851499
0.0962982
0.10067
0.103123
0.10022
0.0898873
0.0889796
0.0996638
0.103307
0.101225
0.0969122
0.0855511
0.0897257
0.100681
0.103617
0.10217
0.098228
0.0869954
0.0910959
0.101372
0.104363
0.104625
0.101058
0.0907603
0.0880883
0.0987229
0.102939
0.10522
0.10234
0.0923389
0.0914049
0.101716
0.105341
0.10332
0.0990907
0.0879308
0.0918145
0.102739
0.105661
0.104142
0.100169
0.0889141
0.093032
0.103292
0.106213
0.106606
0.103085
0.0927853
0.0900329
0.100845
0.104976
0.107241
0.104426
0.0942111
0.0932638
0.103809
0.107376
0.105365
0.100858
0.0897523
0.0934852
0.104669
0.107649
0.106203
0.102263
0.0906924
0.0950491
0.10552
0.108425
0.108658
0.105011
0.0945858
0.0915216
0.102579
0.106811
0.10933
0.10647
0.0956253
0.0934976
0.104518
0.108308
0.110636
0.107933
0.0978549
0.0967152
0.107046
0.110473
0.108271
0.103888
0.0931845
0.096449
0.107378
0.110458
0.109401
0.10538
0.0942011
0.0992774
0.109226
0.111985
0.112097
0.108666
0.0985709
0.0953689
0.105837
0.110192
0.112596
0.109732
0.0991699
0.0968164
0.107727
0.11149
0.113688
0.110993
0.100945
0.0998176
0.109956
0.113472
0.111204
0.106979
0.0959764
0.0998425
0.110643
0.113438
0.112711
0.109046
0.0981443
0.102491
0.112643
0.115222
0.115397
0.112054
0.101742
0.098331
0.109099
0.113465
0.115688
0.11289
0.10181
0.0994475
0.110659
0.114482
0.11679
0.114044
0.103312
0.100675
0.111522
0.115291
0.117186
0.114442
0.104358
0.103986
0.114034
0.117478
0.115841
0.111684
0.101245
0.105014
0.115521
0.118299
0.117306
0.113609
0.102824
0.106818
0.116979
0.119569
0.119509
0.116073
0.105746
0.102279
0.113106
0.117512
0.119689
0.116846
0.105519
0.102633
0.114277
0.118198
0.120415
0.117598
0.106386
0.10472
0.115843
0.119539
0.121968
0.119401
0.109348
0.108565
0.118723
0.122143
0.120355
0.116236
0.105507
0.109007
0.119961
0.122708
0.121427
0.117638
0.106457
0.110353
0.121143
0.123765
0.122594
0.119027
0.1083
0.111712
0.121879
0.124534
0.124284
0.120777
0.110416
0.107209
0.118003
0.122401
0.124905
0.12214
0.111225
0.10914
0.120257
0.123993
0.126417
0.123877
0.113166
0.111209
0.121895
0.125426
0.127574
0.12507
0.115178
0.114346
0.124274
0.127613
0.125772
0.121703
0.111156
0.114363
0.125195
0.127948
0.126546
0.122723
0.11169
0.115037
0.125989
0.128741
0.127764
0.124039
0.113187
0.11742
0.127428
0.129995
0.130179
0.126737
0.116707
0.11337
0.124335
0.128365
0.130696
0.128052
0.116779
0.114383
0.125905
0.129583
0.131837
0.129386
0.118228
0.116084
0.127178
0.130721
0.132791
0.13025
0.120047
0.119009
0.129233
0.132676
0.130536
0.126338
0.11522
0.118561
0.129885
0.132764
0.131822
0.127871
0.11654
0.120909
0.13185
0.13448
0.133464
0.129791
0.118987
0.12269
0.133288
0.135798
0.134746
0.131281
0.120715
0.12446
0.134356
0.136816
0.136793
0.133513
0.123581
0.12042
0.130695
0.13495
0.13716
0.134405
0.123313
0.12066
0.132099
0.135898
0.13813
0.13537
0.123941
0.12163
0.133001
0.13689
0.139229
0.13661
0.125851
0.124083
0.134712
0.138316
0.140554
0.138105
0.128215
0.127432
0.137389
0.140716
0.138962
0.1349
0.124167
0.1275
0.138623
0.141288
0.140157
0.136368
0.125076
0.128762
0.139902
0.14251
0.141277
0.13759
0.126551
0.130193
0.140912
0.143447
0.142239
0.138637
0.128039
0.131534
0.141605
0.144216
0.144313
0.140884
0.130796
0.127696
0.138461
0.142601
0.145028
0.142307
0.131099
0.128732
0.140137
0.143986
0.146424
0.143881
0.132654
0.130547
0.141644
0.145308
0.147461
0.144928
0.134104
0.131998
0.142785
0.14638
0.148469
0.145954
0.135938
0.135066
0.145139
0.148486
0.1466
0.142293
0.131676
0.134548
0.146008
0.148795
0.147605
0.143714
0.131902
0.136113
0.14756
0.150217
0.149176
0.145368
0.134197
0.13797
0.149014
0.151614
0.150493
0.14684
0.135906
0.139419
0.150152
0.152717
0.151676
0.148117
0.137513
0.14128
0.151341
0.15382
0.153904
0.150474
0.140381
0.136912
0.147938
0.152099
0.154455
0.151654
0.140242
0.137607
0.149242
0.153183
0.155441
0.152763
0.141164
0.138807
0.150276
0.154184
0.156603
0.153922
0.142779
0.140924
0.151851
0.155594
0.157943
0.155363
0.14458
0.142775
0.153458
0.157042
0.159336
0.156858
0.146915
0.146033
0.156078
0.159449
0.157666
0.153513
0.142683
0.146161
0.157325
0.160052
0.158932
0.155026
0.143832
0.147738
0.158876
0.161491
0.160326
0.156583
0.145529
0.148982
0.159987
0.162607
0.161351
0.157607
0.14676
0.150346
0.161
0.163607
0.162688
0.15914
0.148576
0.15237
0.162426
0.164902
0.165066
0.161663
0.151594
0.148244
0.159206
0.163344
0.165686
0.162939
0.151365
0.148992
0.160654
0.164615
0.167118
0.164522
0.152858
0.150545
0.162184
0.16596
0.168317
0.16574
0.154356
0.152324
0.163517
0.167192
0.169418
0.166835
0.155839
0.153954
0.164781
0.168414
0.170703
0.168211
0.15807
0.157202
0.167416
0.170872
0.169138
0.164909
0.153912
0.157315
0.168809
0.171587
0.170586
0.16665
0.155092
0.159103
0.170635
0.173239
0.172091
0.168289
0.156783
0.160635
0.17191
0.174512
0.173438
0.169763
0.158701
0.162231
0.173189
0.175781
0.174809
0.171171
0.160347
0.164339
0.174561
0.177063
0.177207
0.173705
0.163407
0.159866
0.171234
0.175478
0.177977
0.175182
0.16338
0.160955
0.172796
0.176867
0.179408
0.176715
0.164899
0.162593
0.174357
0.17827
0.180814
0.178158
0.166463
0.16441
0.175897
0.179718
0.182136
0.17949
0.168088
0.16608
0.177265
0.181058
0.18355
0.180964
0.170031
0.168226
0.179041
0.182667
0.184997
0.182477
0.172404
0.171561
0.181825
0.185286
0.183621
0.179348
0.168567
0.17206
0.183346
0.186149
0.185151
0.181255
0.169748
0.173902
0.185297
0.187897
0.186838
0.183065
0.171811
0.17557
0.1867
0.189314
0.188257
0.184509
0.173633
0.177325
0.188079
0.190669
0.18973
0.18614
0.175448
0.179416
0.189563
0.192057
0.19226
0.188778
0.178422
0.175337
0.186392
0.19064
0.193158
0.19042
0.178847
0.176329
0.188003
0.192031
0.194645
0.191995
0.180313
0.178271
0.189827
0.193638
0.196129
0.193523
0.182043
0.180183
0.191423
0.195195
0.19782
0.195295
0.184245
0.182535
0.193487
0.197062
0.19945
0.197028
0.186783
0.185526
0.196142
0.199636
0.197941
0.193547
0.18253
0.186226
0.1977
0.200601
0.19949
0.195451
0.183691
0.187885
0.199552
0.202287
0.201213
0.197264
0.185745
0.189842
0.201189
0.203871
0.202928
0.199148
0.188013
0.191876
0.202882
0.205496
0.204704
0.201017
0.190053
0.194438
0.204736
0.207253
0.20773
0.204186
0.193646
0.190721
0.201902
0.206261
0.208991
0.206254
0.194642
0.192407
0.204065
0.208034
0.210713
0.208026
0.196283
0.193905
0.205567
0.209543
0.212014
0.209285
0.197727
0.195636
0.207062
0.210964
0.21366
0.211029
0.19984
0.197899
0.209114
0.212838
0.215336
0.212782
0.20221
0.201442
0.212273
0.215869
0.21435
0.20995
0.198595
0.202399
0.214194
0.217065
0.21617
0.21209
0.200238
0.204777
0.216485
0.219182
0.218453
0.214547
0.202923
0.207895
0.219003
0.221474
0.220733
0.217173
0.206111
0.209652
0.220468
0.223011
0.223065
0.219387
0.208185
0.204857
0.216777
0.22134
0.224059
0.221173
0.208681
0.20626
0.218772
0.223016
0.225901
0.223126
0.210781
0.208508
0.220819
0.224903
0.227773
0.225002
0.213154
0.211037
0.222939
0.226923
0.229688
0.227006
0.215893
0.215119
0.226615
0.230398
0.228889
0.224188
0.212397
0.216752
0.228972
0.232031
0.231341
0.227191
0.214604
0.220179
0.232254
0.234826
0.233833
0.229917
0.217836
0.221559
0.233577
0.236361
0.235217
0.231196
0.219104
0.223631
0.235067
0.237866
0.238119
0.234117
0.22224
0.21904
0.231584
0.236492
0.239592
0.236597
0.223661
0.221118
0.234136
0.238591
0.241657
0.238762
0.226068
0.223989
0.236618
0.240851
0.244202
0.241358
0.229062
0.227003
0.239449
0.243574
0.246643
0.243931
0.232281
0.231793
0.243843
0.247749
0.246648
0.241984
0.229552
0.234235
0.247106
0.249937
0.248513
0.244118
0.230926
0.235322
0.24827
0.251259
0.250056
0.245771
0.232827
0.237488
0.25014
0.253087
0.25213
0.247878
0.235171
0.240137
0.252142
0.255038
0.255633
0.251496
0.239087
0.236058
0.249006
0.254056
0.257256
0.254111
0.24097
0.238597
0.251946
0.256481
0.260101
0.257232
0.244357
0.242293
0.255428
0.259676
0.263158
0.260469
0.248325
0.24849
0.26088
0.264706
0.263273
0.258482
0.245744
0.24959
0.262982
0.2661
0.264538
0.259884
0.246198
0.251055
0.26449
0.267682
0.266574
0.262015
0.24855
0.2538
0.266874
0.269926
0.269179
0.264787
0.251654
0.257081
0.269443
0.272442
0.27333
0.26906
0.256211
0.253498
0.266585
0.271817
0.275304
0.271957
0.258832
0.256482
0.270043
0.274661
0.278731
0.27583
0.262693
0.261023
0.27443
0.278727
0.282605
0.280282
0.268843
0.268603
0.280402
0.28385
0.28176
0.276984
0.264159
0.267581
0.281117
0.284468
0.283172
0.278421
0.264421
0.269924
0.283574
0.286756
0.286001
0.281422
0.267499
0.273362
0.286385
0.289453
0.290455
0.28601
0.272416
0.269532
0.283434
0.288931
0.292513
0.289045
0.275335
0.272822
0.287066
0.291943
0.296164
0.293079
0.279744
0.279648
0.293749
0.298301
0.297626
0.292241
0.277909
0.285279
0.299053
0.301992
0.300742
0.296177
0.281964
0.285966
0.300391
0.303804
0.302268
0.297279
0.282429
0.288129
0.30213
0.305545
0.306235
0.30134
0.286802
0.283528
0.298652
0.304591
0.308595
0.304894
0.289841
0.287183
0.302759
0.307956
0.312315
0.309029
0.294552
0.294068
0.309292
0.31418
0.312902
0.306943
0.291217
0.298467
0.313783
0.317409
0.317744
0.31268
0.297141
0.306637
0.320377
0.323019
0.323935
0.319657
0.305099
0.299531
0.31536
0.321197
0.324461
0.320435
0.304528
0.30081
0.317423
0.323046
0.327226
0.323527
0.308179
0.307097
0.323244
0.3286
0.327096
0.320559
0.303818
0.311126
0.327732
0.331787
0.33124
0.325443
0.308364
0.317193
0.332901
0.336405
0.339066
0.333755
0.317146
0.315003
0.332141
0.338483
0.344257
0.341253
0.32619
0.324025
0.339228
0.343999
0.347758
0.344306
0.32888
0.325647
0.342343
0.347547
0.344963
0.338356
0.320889
0.327978
0.34504
0.349509
0.348414
0.342426
0.324568
0.333022
0.349435
0.353316
0.355308
0.349625
0.332312
0.32939
0.347138
0.354123
0.359501
0.355495
0.338319
0.336641
0.354338
0.360183
0.366676
0.363857
0.349021
0.352181
0.367269
0.371076
0.369757
0.364522
0.348821
0.35238
0.368834
0.372961
0.372458
0.366694
0.34863
0.343782
0.362723
0.369931
0.375225
0.370619
0.352351
0.349122
0.368292
0.374557
0.380271
0.376282
0.358931
0.359049
0.377413
0.383219
0.38268
0.375617
0.356715
0.367357
0.384575
0.38858
0.393197
0.387859
0.369364
0.369176
0.387631
0.393791
0.39977
0.395923
0.377982
0.37293
0.393174
0.399326
0.395785
0.387799
0.366488
0.375237
0.395558
0.40087
0.399607
0.392488
0.37148
0.382462
0.401286
0.405811
0.40908
0.402675
0.382894
0.381041
0.401253
0.408906
0.41566
0.411509
0.393698
0.397285
0.416226
0.421462
0.422761
0.416829
0.398161
0.407064
0.425266
0.428967
0.428228
0.422123
0.401358
0.394508
0.416553
0.424865
0.42994
0.424559
0.404269
0.402656
0.424519
0.431603
0.430756
0.422154
0.399618
0.413628
0.433726
0.438633
0.444323
0.437681
0.415914
0.418354
0.439846
0.447022
0.456325
0.453577
0.436043
0.432621
0.452995
0.45798
0.456778
0.448984
0.425314
0.416221
0.442693
0.452797
0.458725
0.452661
0.428619
0.427194
0.453344
0.461456
0.46162
0.452013
0.425137
0.446137
0.46765
0.472266
0.482291
0.477974
0.455278
0.458966
0.481829
0.487745
0.483701
0.474415
0.44765
0.455484
0.480922
0.487712
0.486845
0.478601
0.449568
0.44666
0.47758
0.48801
0.48799
0.475476
0.443566
0.471427
0.495316
0.499808
0.511185
0.506422
0.481966
0.481659
0.508271
0.51527
0.509308
0.498122
0.465877
0.476664
0.505651
0.513236
0.513761
0.505285
0.472692
0.472394
0.508115
0.518098
0.528563
0.518644
0.483077
0.48151
0.517404
0.528226
0.536093
0.527132
0.49373
0.481926
0.521324
0.532589
0.532188
0.519375
0.475768
0.478566
0.524978
0.536922
0.542049
0.528555
0.479944
0.468905
0.523342
0.540552
0.52922
0.508451
0.450818
0.48323
0.523777
0.536339
0.533464
0.521984
0.480555
0.469916
0.516683
0.530709
0.524387
0.507915
0.451826
0.434097
0.495805
0.514338
0.502298
0.481407
0.414092
0.391084
0.46605
0.490143
0.47894
0.451956
0.371146
0.355171
0.440214
0.469628
0.461844
0.430106
0.341552
0.329434
0.420924
0.454927
0.448551
0.412364
0.31849
0.308632
0.404341
0.442582
0.436961
0.396813
0.299649
0.291452
0.389726
0.431635
0.426573
0.383038
0.283977
0.277143
0.376702
0.421737
0.417108
0.370717
0.270924
0.265291
0.365085
0.412673
0.408414
0.359786
0.260185
0.255553
0.354802
0.404313
0.400361
0.350106
0.251339
0.247518
0.345687
0.396544
0.392857
0.341528
0.244064
0.240959
0.337621
0.389292
0.385843
0.333948
0.238173
0.235677
0.330504
0.382505
0.379278
0.327273
0.233445
0.231456
0.324247
0.376159
0.373148
0.32141
0.229679
0.228103
0.318755
0.370238
0.367427
0.31627
0.226714
0.2255
0.31395
0.364713
0.362094
0.31178
0.22444
0.223518
0.309755
0.35957
0.35714
0.307856
0.22272
0.222033
0.30608
0.354808
0.352567
0.304413
0.221441
0.220937
0.302853
0.35042
0.348357
0.301387
0.220508
0.22015
0.300014
0.346385
0.344493
0.298724
0.219851
0.219606
0.297514
0.34269
0.340962
0.296376
0.219407
0.219248
0.295306
0.339316
0.337743
0.294299
0.219123
0.219031
0.293354
0.33625
0.334827
0.292461
0.218971
0.218932
0.291623
0.333477
0.332194
0.290829
0.21892
0.21892
0.290086
0.33098
0.329827
0.289383
0.218937
0.218956
0.288724
0.328736
0.327699
0.288099
0.218986
0.219016
0.287516
0.326721
0.325791
0.286963
0.219052
0.219081
0.286446
0.324912
0.324077
0.285955
0.219117
0.219147
0.285499
0.323292
0.322544
0.285065
0.21918
0.219204
0.284661
0.32184
0.32117
0.284278
0.219233
0.219257
0.283925
0.320544
0.319948
0.283591
0.219286
0.219303
0.28328
0.319387
0.318851
0.282984
0.219322
0.219334
0.28271
0.318351
0.317872
0.282451
0.21935
0.219356
0.28221
0.317423
0.316991
0.28198
0.219364
0.219368
0.281768
0.316589
0.316202
0.281567
0.219375
0.219374
0.281376
0.315838
0.315487
0.281193
0.219375
0.219373
0.281022
0.315159
0.314843
0.28086
0.219374
0.219367
0.280705
0.314544
0.314255
0.280556
0.219362
0.219354
0.280418
0.313985
0.313724
0.280285
0.219348
0.219336
0.28016
0.313477
0.313237
0.280038
0.219325
0.219313
0.279926
0.313015
0.312799
0.279819
0.219303
0.219289
0.279717
0.312594
0.312395
0.279618
0.219274
0.21926
0.279527
0.31221
0.312032
0.27944
0.219247
0.219232
0.279357
0.311861
0.3117
0.279278
0.219217
0.219201
0.279205
0.311545
0.311404
0.279137
0.21919
0.219177
0.279074
0.311263
0.311136
0.279014
0.219166
0.219153
0.278957
0.311006
0.310893
0.278906
0.219144
0.219135
0.278858
0.310776
0.310676
0.278814
0.219129
0.219121
0.278774
0.310569
0.310481
0.278737
0.219118
0.219114
0.278704
0.310384
0.310307
0.278674
0.219115
0.219113
0.278646
0.310218
0.310151
0.278623
0.219118
0.219121
0.278602
0.310071
0.310012
0.278585
0.21913
0.219137
0.278568
0.30994
0.309891
0.278559
0.219151
0.219165
0.278549
0.309827
0.309787
0.278546
0.219183
0.219201
0.278542
0.309729
0.309699
0.278545
0.219225
0.219249
0.278548
0.309649
0.309626
0.278556
0.219278
0.219306
0.278564
0.309582
0.309568
0.278579
0.219339
0.219373
0.278592
0.309531
0.309524
0.278612
0.21941
0.219447
0.278629
0.309492
0.309494
0.278654
0.219489
0.219532
0.278677
0.309468
0.309476
0.278707
0.219577
0.219623
0.278734
0.309454
0.30947
0.278768
0.219672
0.219722
0.278799
0.309453
0.309474
0.278837
0.219774
0.219827
0.278872
0.309462
0.309489
0.278914
0.219883
0.219939
0.278954
0.309483
0.309515
0.278998
0.219997
0.220056
0.279042
0.309513
0.309549
0.27909
0.220117
0.220179
0.279137
0.309553
0.309593
0.279188
0.220242
0.220306
0.279238
0.3096
0.309645
0.279292
0.220371
0.220437
0.279345
0.309656
0.309705
0.279402
0.220505
0.220573
0.279458
0.30972
0.309774
0.279518
0.220643
0.220713
0.279577
0.309793
0.309851
0.27964
0.220785
0.220857
0.279702
0.309873
0.309935
0.279768
0.220931
0.221005
0.279832
0.30996
0.310026
0.2799
0.22108
0.221156
0.279967
0.310054
0.310124
0.280037
0.221233
0.22131
0.280106
0.310155
0.310227
0.280179
0.221387
0.221465
0.28025
0.31026
0.310336
0.280324
0.221544
0.221624
0.280397
0.310372
0.31045
0.280473
0.221703
0.221782
0.280547
0.310488
0.310569
0.280625
0.221862
0.221942
0.2807
0.310609
0.310692
0.280779
0.222022
0.222102
0.280855
0.310734
0.310818
0.280935
0.222183
0.222263
0.281013
0.310862
0.310948
0.281093
0.222343
0.222423
0.281172
0.310993
0.311081