/*--------------------------------*- C++ -*----------------------------------*\
| =========                 |                                                 |
| \\      /  F ield         | OpenFOAM: The Open Source CFD Toolbox           |
|  \\    /   O peration     | Version:  v2006                                 |
|   \\  /    A nd           | Website:  www.openfoam.com                      |
|    \\/     M anipulation  |                                                 |
\*---------------------------------------------------------------------------*/
FoamFile
{
    version     2.0;
    format      ascii;
    class       volScalarField;
    location    "0.097";
    object      omega;
}
// * * * * * * * * * * * * * * * * * * * * * * * * * * * * * * * * * * * * * //

dimensions      [0 0 -1 0 0 0 0];


internalField   nonuniform List<scalar> 
16277
(
0.00810626
0.00810633
0.00810513
0.00810471
0.00810353
0.00810354
0.00810284
0.00810126
0.00809761
0.0080914
0.00808285
0.00807266
0.00806153
0.00804989
0.00803787
0.00802546
0.00801255
0.00799908
0.00798495
0.00797014
0.00795464
0.00793844
0.00792156
0.00790402
0.00788582
0.00786698
0.0078475
0.0078274
0.00780669
0.00778537
0.00776346
0.00774099
0.00771795
0.00769437
0.00767028
0.00764568
0.00762059
0.00759505
0.00756907
0.00754268
0.00751589
0.00748875
0.00746126
0.00743346
0.00740538
0.00737705
0.00734849
0.00731973
0.00729081
0.00726176
0.0072326
0.00720337
0.00717411
0.00714484
0.00711561
0.00708643
0.00705735
0.00702841
0.00699964
0.00697108
0.00694278
0.00691479
0.0068872
0.00686018
0.00683407
0.0068097
0.00678898
0.00677664
0.00678512
0.00684366
0.00700293
0.0073774
0.00820739
0.0099929
0.0137368
0.0213708
0.0365833
0.0665603
0.125335
0.238545
0.453901
0.842569
1.40657
1.82805
2.49701
2.99523
3.63484
6.62197
11.464
14.4675
12.9691
34.2379
105.407
397.788
3406.78
18601.2
254899
251710
37848.7
8637.97
15117.7
52963
248575
245280
54893.3
17469.9
20705.9
58055.7
236457
232035
57495.2
21300.6
23279.4
58848.3
226111
223289
58185
23405.7
24488.9
58586.7
218920
216054
57190.4
24344
24967.3
57663
212520
210464
56434.1
24791.7
25247.6
56963.8
207750
206196
55926.8
25050.7
25438.5
56494.9
204001
202776
55590.7
25235.3
25590.4
56183
200922
199916
55356.7
25384.8
25720.4
55973.1
198292
197434
55192.9
25514.5
25837.5
55833.7
195972
195220
55088.4
25631.9
25945.6
55741.9
193877
193200
55020.1
25740
26045
55677.3
191943
191319
54970.9
25839.2
26137
55626.2
190128
189543
54930.3
25929.4
26221.4
55580.8
188404
187849
54892.5
26010.8
26296.6
55536.3
186750
186217
54853.9
26082.8
26362.8
55489.8
185150
184634
54812
26146
26420.7
55439.3
183594
183090
54764.6
26201.2
26470.9
55382.6
182071
181577
54710.4
26249.1
26514.5
55318.8
180576
180089
54649.2
26290.8
26552.2
55248
179102
178620
54580.4
26327
26584.7
55169.2
177644
177165
54503.4
26358.1
26612.2
55082
176197
175720
54417.5
26384.3
26635.1
54985.7
174755
174278
54322.5
26406.1
26653.5
54880
173315
172835
54217.8
26423.6
26667.8
54764.4
171871
171386
54103.1
26437
26678.1
54638.6
170419
169928
53977.8
26446.4
26684.2
54501.7
168955
168457
53841.3
26451.7
26686.2
54353.1
167475
166968
53692.8
26452.8
26683.8
54192.2
165975
165458
53531.6
26449.5
26676.7
54017.9
164454
163925
53356.8
26441.3
26664.5
53829.5
162907
162367
53167.3
26427.9
26646.7
53625.7
161334
160782
52960.6
26408.5
26622.5
53404.8
159733
159171
52731.7
26382.4
26591
53164.8
158106
157533
52485.3
26348.5
26551.3
52906.3
156453
155871
52218.2
26306.2
26502.4
52626.3
154777
154189
51927.9
26254
26442.8
52322.3
153082
152490
51611.8
26190.3
26370.6
51991.7
151375
150783
51267
26113.1
26283.6
51631.7
149664
149078
50889.9
26016.5
26178
51238.5
147961
147388
50476.8
25897.6
26051.4
50808.5
146282
145732
50024.4
25756.9
25901.6
50338.7
144646
144130
49529.1
25589.8
25724
49825.5
143077
142609
48987
25391.5
25513.9
49265.3
141603
141200
48395.3
25157.6
25267
48655.1
140257
139941
47759.7
24884.4
24979.7
47997.6
139085
138866
47101.6
24571.6
24652.2
47313.1
138140
138017
46412.4
24210.8
24278.2
46598.2
137441
137423
45700.9
23807.9
23865
45867.1
137044
137109
44988.2
23373.9
23424.1
45140.6
136901
137093
44299.1
22924.2
22971
44451.7
137044
137380
43654.7
22466.1
22512
43823
137433
137948
43083.4
22012.3
22064
43270.2
138105
138772
42619.4
21592.5
21656
42831.1
139007
139778
42265.8
21225
21304.1
42530
140069
140913
42005
20916.4
21012.6
42349.3
141247
142144
41864.3
20669.8
20783.2
42266.8
142507
143435
41833.8
20485
20616
42296.9
143809
144743
41912.8
20361.8
20510.1
42431.3
145116
146034
42089.6
20294.6
20461.6
42657
146395
147278
42353.7
20268.3
20463.6
42959.1
147616
148447
42685.9
20294.4
20517.9
43345.6
148755
149521
43074
20369.7
20635.1
43809.7
149795
150484
43533.6
20494.3
20785.6
44304.2
150718
151321
44019.8
20648.8
20958.4
44811.1
151511
152027
44515.6
20824.3
21147.8
45314.7
152174
152603
45006.3
21015
21347.2
45801.4
152708
153056
45478.8
21213.9
21550.1
46260.7
153123
153399
45923.4
21414.9
21751
46685.5
153432
153643
46333.8
21613
21945.7
47071.4
153647
153799
46705.9
21803.9
22129.9
47416.6
153785
153891
47038.2
21983.6
22300.8
47721.5
153862
153931
47331.8
22149.9
22457.5
47988.6
153889
153934
47588.9
22302.2
22600.4
48225.2
153874
153904
47814.2
22441
22730
48435.1
153815
153838
48009.3
22566.5
22846.9
48615
153730
153749
48176.7
22679.7
22951.9
48769.1
153626
153641
48320.1
22781.2
23045.5
48900.9
153507
153519
48442.8
22871.7
23130.3
49014.9
153378
153388
48549.5
22952
23206
49113.4
153244
153253
48642.4
23022.2
23270.8
49198.1
153102
153108
48721.4
23082.2
23327.8
49270.6
152950
152953
48790.6
23137.1
23381.7
49337.5
152820
152766
48851.8
23186.7
23442.4
49398.1
152698
152614
48940.8
23220.2
23462.3
49566.5
152649
151977
48745.4
23128.3
23265.4
48759.5
151434
149530
48557.9
22988.8
21918.3
46330.4
147098
138324
48505.4
22453.7
15524.4
27063
124068
139432
60774.9
28134
13626.4
7036.05
4374.14
3429.54
3055.09
2533.25
2312.58
2154.65
2089.06
2072.32
2105.91
2203.6
2337.76
2582.13
2861.17
3453.05
3782.15
4729.97
5754.51
7585.72
11739.9
22969
55792.1
128726
405463
434848
139353
61277.2
64771.3
147202
460696
482955
153759
68338.2
68337
155072
489311
495203
156315
69543.5
69717.7
157855
498950
499535
158263
69984.6
69909.8
158268
499343
499709
158309
69922.3
69915.5
158333
499547
499664
158322
69886.7
69876.8
158329
499784
499635
158317
69854.3
69828.3
158324
500328
500183
158292
69804.4
69774
158284
500309
500183
158264
69731.6
69712.5
158265
500597
501042
158188
69673.6
69655.1
158236
500611
501064
158154
69614
69596.3
158211
501218
501660
158097
69554.2
69536.9
158156
501248
501696
158067
69498
69481.2
158129
501861
502309
158011
69439.9
69423.1
158071
501901
502350
157978
69384.6
69368.1
158038
502520
502972
157919
69327.8
69311.9
157979
502573
503031
157887
69275.6
69260.4
157947
503209
503669
157829
69223.5
69209.6
157884
503558
503455
157846
69175.3
69161.3
157847
503914
504388
157770
69129.9
69117.6
157809
504276
504183
157781
69089
69077.7
157789
504643
505125
157719
69051.7
69042.4
157764
505018
504931
157741
69020.1
69012.3
157762
505395
505884
157702
68993.8
68988.5
157758
505780
505699
157744
68978.1
68977.8
157790
506163
506650
157754
68973.7
68981.9
157843
506539
506449
157854
68981.3
68986.9
157942
506902
507389
157924
68982.4
68986.5
158033
507275
507189
158063
68983
68987.7
158171
507653
508145
158181
68987.5
69005.8
158337
508033
507942
158413
69010.7
69037
158571
508398
508864
158651
69049.9
69092.7
158872
508434
508872
159002
69110.7
69142
159269
508997
509404
159400
69152.1
69177.3
159689
508956
509350
159883
69184.9
69198.4
160211
509474
509865
160415
69202
69231.7
160791
509687
509498
161100
69242.1
69257.3
161513
509882
510255
161828
69254.6
69243.5
162273
510061
509896
162589
69184.1
69164.6
163042
510292
510712
163379
69122.6
69105
163893
510296
510813
164249
69055.2
69030
164777
511070
511677
165087
68932.3
68818.5
165506
511774
512031
165693
68593.2
68442.9
165968
512885
513668
166079
68135.4
67859.3
166129
514602
515825
166098
67463.8
67102.6
165932
517251
519003
165566
66607.7
65952.6
164724
521201
523621
163554
65161.8
64067.4
160153
520961
518301
156534
63218
62686.5
154471
524680
522061
155391
62183.1
61151.6
146783
514322
511342
147987
60979.6
60393.2
143419
503289
496425
141041
60017.6
60100.3
138178
484805
470113
133438
59908.6
60330.5
131237
459753
452947
130400
60945.4
61833.5
130689
434897
406589
121474
62477.5
63941.8
120076
596084
974591
349861
141581
69303.6
172590
729213
657458
187118
74366.7
71623.6
176749
649877
643379
182000
73919
70890.6
169952
624496
602238
171265
71886.4
68777.9
155435
575285
548642
157929
70410.1
68751.1
145055
520136
488624
145758
69849.5
68602.2
134087
445215
636959
127868
69344.9
145920
359761
1.0024e+06
718976
164974
71261
74148.3
176490
605645
547772
145547
66682.2
67146.3
146899
513239
478596
135738
64954.6
65366.2
132544
447476
413227
124142
64941.1
68072.2
123728
597773
939298
343616
140967
72681.7
156596
683606
594428
168095
75740.9
72229.5
150100
557050
517753
154683
74479.7
73792.4
141604
467674
666734
133616
75810.9
154446
358773
1.01103e+06
705033
172942
78624.8
80001.3
173569
578209
502051
146053
71598.4
72028.2
137431
450375
655067
135045
75087.5
153236
359956
997815
705287
163322
80609.5
83697.2
176474
580226
511483
152201
77512.6
79642.2
144677
719306
1.04153e+06
375950
160713
80852.8
169264
705608
551705
174413
80331.2
69009.9
137738
486290
664864
139433
74069.6
148872
343213
902467
623892
153258
74676.4
78143.7
157152
788992
986444
372735
153959
66524.5
150721
656272
792605
146266
65261.6
128139
288389
833961
1.01281e+06
163631
64915.9
91553.3
198678
809455
827199
160514
58690.9
71129.8
191385
993489
1.02879e+06
196842
73012.9
65747.3
175161
915621
800495
104079
39070.5
153621
341375
806628
935789
160999
81531
186062
374610
846882
781208
189831
99480.1
105759
214816
672708
1.115e+06
472489
225756
127317
174852
958889
827019
366410
190662
103323
175896
696294
575825
186800
104641
193148
393121
916861
716880
171703
107501
106930
180825
574994
927610
389953
190468
106233
167874
713702
571933
174754
104907
184640
379280
912786
699106
163543
103587
102799
170688
565116
909103
379326
181342
101954
161708
685898
551815
168776
100873
178337
369544
885966
658534
157163
100301
99914.4
165046
535803
875655
365045
175643
98598.5
154796
646450
519816
161348
97786.4
168360
344939
828811
602114
144909
94778
95855.5
162958
462994
637181
186671
101959
190293
413110
1.0453e+06
748275
168840
104661
102290
173751
597520
987802
399794
185245
102924
164346
715809
578941
173830
102390
184029
381141
970754
710626
161303
103389
102112
168250
576671
960803
389644
182288
101694
160924
695574
567526
170361
101748
182747
391316
967407
702162
163200
102200
101304
167677
565032
955069
385623
182856
101812
159685
695343
563772
169793
101891
183520
386236
969574
721851
162613
103388
102973
173206
593195
1.04006e+06
417098
193416
112184
143025
817153
733103
318836
165404
92970.5
143732
558451
476980
155084
94271.8
168646
347496
826334
615211
147713
95853.4
96474.7
157352
502619
843796
349777
170214
95880.7
148216
622206
513133
155716
95815.5
173646
363649
874648
651504
152444
97760.3
98495.1
163131
530708
901042
374826
178939
100457
158616
678303
566426
169273
101231
194259
414741
1.01481e+06
810000
141728
113788
171687
324886
740876
578832
154158
96821.7
98713.1
165236
497308
870022
365950
179005
101966
158542
662774
550987
166890
102344
192384
404552
966395
783035
142101
113157
169315
321544
719266
558078
149613
95799.5
98262.3
163338
486313
859004
365132
177776
101812
158090
652205
550439
171786
102866
195769
411981
985427
795371
146195
115936
174044
329737
734310
578004
155446
99105.5
101241
169791
506051
893496
376310
184517
105786
164718
669987
569125
179357
106678
205454
440235
1.02289e+06
822863
157467
120522
180606
344234
761496
593897
158998
102806
106047
178585
527186
982124
418911
201623
120195
150150
807772
761156
337301
179858
103318
163583
598726
519610
179795
106217
202638
423034
948228
787081
159752
121625
179780
336189
744092
591340
160506
103693
107361
180670
520309
968764
433215
205337
123189
157112
812758
763817
343271
183135
105801
165440
598639
529093
185115
108998
207133
422681
968735
803522
155332
124857
184494
339006
763319
615075
168311
107361
111360
188804
550179
1.01741e+06
451018
215335
130128
160130
856679
836997
370304
196154
119212
157912
715595
684486
329815
177536
106282
167284
562961
514105
189144
110774
210126
433158
966857
810341
161533
128049
188974
345364
768031
618674
173284
111113
115051
195830
556726
1.03971e+06
460816
221409
134517
167253
875344
848378
377262
201314
122982
162922
731824
715880
335109
181897
109403
172780
587452
529103
193185
113921
217659
441396
990307
845983
163163
133190
196757
356282
816927
714527
157369
122077
181720
332100
701895
583680
175354
110012
115572
199423
531088
990199
447767
219264
135420
166025
853183
836820
369542
201206
124706
161438
722529
707611
337443
184329
111560
176297
581108
529431
198764
116770
220557
443341
985171
836942
167616
136133
200701
363042
815697
717630
162164
125467
186023
340094
716220
601121
180681
113208
119234
204903
554442
1.0458e+06
462145
229359
142844
171204
899289
880082
379438
211291
131485
165999
757274
750822
356948
195553
118644
188152
616581
560465
210898
124192
234974
471654
1.04185e+06
892034
176075
145576
215002
389899
885569
772897
172315
134741
201206
365478
778194
706222
170268
129153
191020
342143
704753
587684
183841
117793
124913
210862
546354
1.03813e+06
477086
236230
147538
181099
908286
904748
401738
219292
138602
180033
790785
799098
375787
205237
132663
174289
715727
715196
351887
195408
120971
189491
603938
557186
212776
127293
238941
472882
1.04307e+06
907126
180604
150331
220638
396757
897929
781450
178900
139415
206720
372518
788694
708248
175177
134022
196867
353092
711644
602542
190978
122396
129638
216532
559855
1.05633e+06
482212
243301
153111
185394
924014
918853
405004
224916
143797
182136
814600
832187
391235
214377
139689
184164
747048
745650
368035
204341
127546
198877
624023
580332
225628
134068
251540
497706
1.08322e+06
928880
194408
158438
232598
418282
927015
814828
187223
147603
219176
396822
837632
775031
188530
143383
211622
381066
795124
719328
182834
139927
204999
361153
729525
627517
200762
128685
136278
228373
588575
1.12139e+06
512743
256866
162489
196735
972804
963251
428134
238637
153371
193464
837381
855333
407861
226085
148940
195269
782672
803566
390156
218045
144395
188882
733178
744245
369800
209519
131656
204048
628834
582158
228419
138641
256584
499264
1.08099e+06
928274
195087
163872
241304
426798
935505
833799
195973
154116
227714
407127
851717
772594
195375
149865
220408
392017
798874
734593
191366
146602
212494
370380
743048
632856
207689
134721
142548
236202
596514
1.11704e+06
516400
263741
168453
204938
967673
974710
437214
245405
159379
200571
870468
892284
420444
234886
155924
203174
809282
831753
404518
227736
151668
197147
745075
756615
381905
219786
139680
212414
639167
598521
239899
146586
268310
520050
1.1174e+06
967590
206970
171251
251005
442873
976548
862384
204193
161905
237153
420179
881124
803735
204730
157462
230421
406719
833225
758564
200195
154299
223961
389676
775552
662128
218925
142673
150842
249840
626231
1.18078e+06
545839
279646
179163
216016
1.01396e+06
1.02196e+06
464206
261896
170146
214518
897753
916081
439209
248817
165957
215131
837922
871956
425207
241765
162669
209820
796955
829908
410400
235651
158491
204918
758336
772233
391859
227307
144954
220123
646068
608412
248374
152333
277301
532397
1.12611e+06
967126
216291
178754
259522
452217
974991
856694
212578
168410
245683
430348
881850
798830
211349
163977
238217
415613
830873
758546
208680
159931
229784
392852
770433
653109
222764
147233
155912
253273
621260
1.15441e+06
542927
285060
183783
222201
992393
1.00118e+06
465000
266307
174593
219578
893823
922570
446111
254001
171058
220257
829731
863596
430197
247510
167218
216452
786053
803403
409107
239576
153566
231685
670249
632492
260710
161279
292523
558493
1.16678e+06
1.00149e+06
230825
189153
272763
472305
1.00435e+06
880301
224019
177872
257467
448193
907373
825903
222297
172821
249467
430195
859423
775175
218714
168232
240382
408762
796085
673016
232847
154900
163933
264992
643289
1.18599e+06
564625
297024
192459
233036
1.0266e+06
1.04415e+06
487112
279476
183666
231836
913588
942961
465860
266307
179810
232083
850460
884547
446267
259082
175472
227478
800084
819509
422425
249923
161026
240343
682728
650879
270029
168901
300788
564984
1.17714e+06
1.00737e+06
238891
195708
281657
483400
1.02514e+06
895229
229591
184486
266480
457289
927729
837120
229572
178905
258485
440665
861655
723655
251805
165344
174848
284707
692564
1.26437e+06
604516
319646
206837
253262
1.08053e+06
1.09139e+06
510808
296901
194997
241006
949489
982948
484088
281039
188378
242977
865175
884470
457965
270106
172726
260007
738700
703828
291235
181033
325324
614804
1.26751e+06
1.08389e+06
258155
211114
303016
517506
1.10178e+06
950682
247842
198145
286451
491536
985948
880805
248038
191698
276660
470282
913953
765506
267547
177127
186651
303009
730532
1.32883e+06
640706
338404
219068
269339
1.131e+06
1.14111e+06
537452
313915
206241
254029
979295
1.01736e+06
504301
295509
198417
256259
898716
924990
478499
283665
181450
272713
771086
739959
303719
189953
339977
630209
1.323e+06
1.11224e+06
268095
220272
317112
539161
1.13334e+06
977656
258447
207174
297783
505017
1.01571e+06
893784
258029
199710
286888
482013
928919
780427
276903
183913
193379
311447
750971
1.3377e+06
648532
347432
225597
278018
1.12541e+06
1.14826e+06
546531
322647
210853
266659
975763
994436
505153
300469
191322
285554
813484
779231
314736
199674
361592
675932
1.38846e+06
1.15239e+06
288182
232226
332453
562330
1.16959e+06
1.0041e+06
271473
216788
310308
523544
1.04606e+06
911925
268295
207349
296130
495155
948810
785074
283224
189521
200037
318518
755246
1.33344e+06
660778
356155
231241
287795
1.12871e+06
1.15244e+06
556533
329763
216257
274724
978415
1.00861e+06
515858
308041
195907
292051
826988
788644
324819
204466
363378
671034
1.35897e+06
1.13612e+06
294835
235825
337247
565457
1.16738e+06
985281
281078
219155
311812
519431
1.01109e+06
822884
294814
198136
208146
330128
789570
1.37201e+06
684741
369069
237554
303035
1.13844e+06
1.14361e+06
568368
338783
210011
307818
904554
859030
341171
217719
387194
721855
1.49842e+06
1.2313e+06
306172
249421
361805
614973
1.26062e+06
1.05826e+06
304989
233746
335392
562608
1.08373e+06
882512
318119
211789
221058
355189
848181
1.46133e+06
724487
392082
251974
323104
1.19981e+06
1.2065e+06
595033
357648
220541
320454
943987
894810
353166
228047
401772
744968
1.52281e+06
1.2462e+06
326033
258051
370550
617939
1.26585e+06
1.00205e+06
338451
227721
235554
376903
949789
1.6243e+06
799888
425749
269598
346025
1.29627e+06
1.29932e+06
646543
386101
234905
344458
1.01104e+06
953265
379391
242424
429499
795453
1.61699e+06
1.31179e+06
349211
273325
392191
651733
1.32279e+06
1.04225e+06
352001
239461
247574
389649
988786
1.69009e+06
827681
441663
279883
342408
1.35399e+06
1.37057e+06
680864
406405
244918
368335
1.0545e+06
991860
401578
252467
447376
827155
1.66021e+06
1.33194e+06
366486
283460
403830
666629
1.33972e+06
1.04374e+06
358943
245448
253395
395825
989916
1.66199e+06
826876
446651
282840
366462
1.33294e+06
1.34077e+06
667037
402891
242573
355555
1.02568e+06
965551
379230
248469
433913
798122
1.57301e+06
1.17717e+06
378256
261126
266353
408362
1.08534e+06
1.76673e+06
870412
469353
291440
381420
1.39379e+06
1.39637e+06
694244
416806
250029
366659
1.06675e+06
1.00553e+06
401773
257984
445509
814544
1.61928e+06
1.21834e+06
390566
266557
268924
406633
1.11675e+06
1.78982e+06
884997
471131
277451
412120
1.31344e+06
1.19004e+06
437587
279855
501500
940905
1.9031e+06
1.47075e+06
407977
308272
443245
734029
1.46422e+06
1.10091e+06
382939
260123
267950
415989
1.03052e+06
1.63642e+06
831079
458996
270138
397574
1.21596e+06
1.11175e+06
408849
272439
472261
871695
1.75981e+06
1.27353e+06
408395
275972
279091
432688
1.14946e+06
1.7731e+06
885227
483045
278536
413210
1.28057e+06
1.15572e+06
435083
281008
482241
882782
1.76932e+06
1.28817e+06
413295
280059
283728
437088
1.17466e+06
1.82322e+06
899172
488345
281055
416162
1.3065e+06
1.11963e+06
453189
286452
299542
512195
1.4706e+06
2.19745e+06
1.06407e+06
544816
304927
472544
1.50569e+06
1.33268e+06
486705
303019
524044
977748
1.9901e+06
1.38667e+06
446525
295195
295596
457743
1.18471e+06
1.54098e+06
526357
308816
570556
1.11981e+06
2.26556e+06
1.5082e+06
485234
309068
311951
506706
1.26735e+06
1.63635e+06
566673
326000
592944
1.15709e+06
2.39148e+06
1.58863e+06
498131
316584
318800
514424
1.34313e+06
1.68584e+06
579604
325345
591542
1.16674e+06
2.40203e+06
1.54831e+06
499203
312760
304461
490815
1.27144e+06
1.54785e+06
608527
333004
328951
554863
1.91706e+06
2.72265e+06
1.3345e+06
646879
331133
548088
1.70975e+06
1.38697e+06
549346
326920
335174
618869
1.59765e+06
1.79662e+06
590073
319020
343349
726541
1.95491e+06
2.15551e+06
731896
327761
637803
1.34394e+06
2.77445e+06
1.63276e+06
521689
312099
303125
515717
1.29548e+06
1.39414e+06
562596
303362
296706
558970
1.46347e+06
1.52164e+06
572356
291915
289487
599905
1.53446e+06
1.51825e+06
608631
287839
284995
613542
1.49587e+06
1.46003e+06
612193
283382
280630
607257
1.42363e+06
1.38589e+06
598573
278464
276120
591907
1.34844e+06
1.31224e+06
587137
274889
273881
583932
1.27828e+06
1.24676e+06
582101
273922
274085
581182
1.21777e+06
1.19126e+06
580897
274961
275942
580780
1.16704e+06
1.14512e+06
580592
277572
278988
580182
1.12524e+06
1.10745e+06
579472
280779
282189
578280
1.09148e+06
1.07725e+06
576717
283716
284816
574590
1.06451e+06
1.05323e+06
572104
285886
286500
569042
1.0432e+06
1.03443e+06
565719
286973
286901
561857
1.02671e+06
1.02007e+06
557860
286713
286078
553393
1.01432e+06
1.00941e+06
548913
285336
283949
544003
1.00514e+06
1.00153e+06
539127
282810
281082
533854
998414
995802
528552
280020
278359
522989
993533
991680
517525
277333
275704
511872
990090
988822
506401
274687
273081
500786
987736
986884
495416
272069
270468
489946
986150
985567
484774
269437
267822
479538
985046
984674
474634
266765
265128
469692
984300
984025
465083
264038
262380
460473
983789
983595
456193
261269
259600
451921
983449
983301
447972
258482
256814
444029
983183
983017
440417
255700
254054
436804
982885
982678
433516
252951
251325
430221
982519
982256
427250
250250
248662
424259
982062
981749
421578
247610
246073
418871
981523
981156
416466
245051
243573
414020
980893
980490
411856
242579
241161
409645
980201
979769
407712
240196
238829
405720
979449
979004
403984
237876
236545
402182
978664
978208
400631
235623
234335
399000
977847
977391
397607
233443
232202
396125
977023
976564
394884
231347
230152
393545
976191
975736
392426
229333
228186
391208
975367
974911
390204
227411
226313
389093
974543
974093
388184
225575
224525
387163
973735
973291
386350
223833
222830
385414
972942
972506
384673
222176
221218
383807
972171
971752
383149
220604
219700
382354
971429
971021
381749
219117
218255
381010
970717
970328
380473
217713
216895
379793
970042
969668
379301
216385
215607
378673
969405
969055
378224
215130
214394
377650
968816
968487
377240
213947
213249
376712
968275
967970
376330
212828
212168
375847
967788
967508
375493
211774
211149
375048
967357
967105
374717
210778
210189
374306
966983
966763
374002
209840
209283
373616
966667
966485
373336
208955
208428
372975
966410
966266
372716
208121
207621
372373
966213
966108
372132
207334
206859
371809
966075
966007
371583
206592
206138
371275
965993
965967
371063
205889
205457
370774
965971
965970
370575
205225
204812
370301
966000
966017
370113
204595
204201
369855
966079
966113
369678
204000
203623
369433
966203
966253
369265
203435
203075
369037
966369
966435
368878
202900
202555
368662
966571
966653
368511
202392
202062
368310
966805
966901
368167
201911
201591
367976
967069
967179
367841
201452
201144
367664
967361
967481
367537
201015
200718
367369
967677
967809
367249
200598
200313
367093
968016
968158
366979
200201
199926
366835
968375
968527
366727
199821
199557
366594
968753
968913
366491
199457
199204
366368
969147
969316
366270
199110
198866
366158
969558
969735
366064
198777
198542
365961
969983
970168
365872
198458
198232
365779
970422
970613
365695
198152
197933
365610
970872
971069
365530
197857
197647
365455
971331
971533
365379
197575
197372
365312
971799
972005
365241
197304
197108
365182
972273
972482
365118
197044
196854
365064
972751
972961
365006
196793
196609
364958
973232
973442
364905
196552
196374
364861
973714
973925
364815
196320
196148
364777
974197
974408
364736
196097
195930
364705
974679
974890
364667
195883
195722
364643
975160
975370
364607
195677
195520
364587
975640
975850
364556
195478
195326
364540
976120
976328
364513
195286
195137
364499
976599
976807
364477
195100
194956
364466
977079
977286
364448
194920
194779
364438
977560
977767
364425
194746
194609
364417
978042
978250
364409
194577
194442
364402
978527
978735
364398
194413
194281
364395
979014
979223
364394
194254
194124
364394
979504
979714
364397
194099
193973
364400
979997
980206
364408
193949
193827
364415
980490
980697
364430
193806
193687
364440
980978
981180
364461
193669
193553
364475
981460
981655
364500
193538
193448
364524
981932
982115
364550
193385
193311
364570
982023
982581
364607
193299
193191
364628
983225
983014
364670
193200
193061
364697
983308
983440
364865
193088
192919
364494
983330
983263
364739
192879
192534
363954
982876
985043
365410
193114
193328
366400
988901
998169
371121
195199
196113
372098
993405
981204
361231
191014
188845
356486
963705
105136
57923.4
31223.8
19288.6
17995.3
12112.5
8886.3
7355.77
6960.12
5245.93
3817.38
2988.66
2263.52
1648.91
1168.01
815.093
573.643
411.568
303.352
229.995
179.254
143.362
117.438
98.3558
84.1041
73.3271
65.1975
59.0589
54.6141
51.4836
49.4719
48.3077
47.7825
47.2656
46.3375
45.0635
43.5283
41.843
40.049
38.2118
36.3236
34.3945
32.4054
30.3409
28.1722
25.4121
21.3994
16.3586
11.4283
7.47777
4.67457
2.82317
1.6663
0.986318
0.62203
0.446501
0.36778
0.33459
0.320926
0.314975
0.312015
0.309692
0.307539
0.305489
0.303499
0.301532
0.299558
0.297545
0.295465
0.293291
0.290995
0.288553
0.285938
0.283125
0.280091
0.276812
0.273269
0.269442
0.265318
0.260887
0.25614
0.251079
0.245708
0.240038
0.234089
0.227881
0.221443
0.214807
0.208009
0.201085
0.194076
0.187019
0.179954
0.172917
0.165942
0.15906
0.152299
0.145684
0.139235
0.132972
0.126904
0.121047
0.115404
0.109983
0.104785
0.0998109
0.0950589
0.0905282
0.0862114
0.0821059
0.0782044
0.0745004
0.0709868
0.0676562
0.064501
0.0615133
0.0586855
0.05601
0.0534791
0.0510854
0.0488216
0.0466817
0.0446579
0.0427448
0.0409354
0.0392247
0.0376066
0.0360763
0.0346285
0.0332584
0.0319619
0.0307345
0.0295724
0.0284716
0.0274288
0.0264408
0.0255041
0.0246159
0.0237738
0.0229748
0.0222166
0.0214969
0.0208134
0.0201643
0.0195476
0.0189615
0.0184044
0.0178745
0.0173706
0.0168912
0.016435
0.0160008
0.0155873
0.0151936
0.0148185
0.0144612
0.0141208
0.0137963
0.0134869
0.013192
0.0129109
0.0126427
0.012387
0.012143
0.0119103
0.0116884
0.0114767
0.0112747
0.0110821
0.0108983
0.0107231
0.010556
0.0103967
0.0102449
0.0101002
0.00996232
0.00983105
0.00970609
0.0095872
0.00947415
0.00936672
0.0092647
0.00916789
0.00907612
0.00898922
0.00890702
0.00882938
0.00875616
0.00868723
0.00862248
0.00856179
0.00850507
0.00845223
0.00840319
0.00835787
0.00831622
0.00827822
0.00824384
0.00821314
0.00818622
0.00816322
0.00814437
0.00812978
0.00811982
0.00811394
0.00811127
0.00810941
0.00810794
0.00810795
0.00810782
0.00810795
0.00810874
0.00811039
0.00811294
0.00811564
0.00811712
0.00811643
0.00811359
0.0081091
0.00810345
0.00809696
0.00808974
0.00808183
0.00807318
0.00806376
0.00805353
0.00804246
0.00803057
0.00801785
0.00800431
0.00798997
0.00797484
0.00795893
0.00794226
0.00792484
0.00790668
0.00788779
0.00786819
0.00784789
0.00782692
0.00780528
0.00778301
0.0077601
0.0077366
0.0077125
0.00768784
0.00766264
0.00763692
0.0076107
0.007584
0.00755685
0.00752928
0.0075013
0.00747296
0.00744427
0.00741526
0.00738597
0.00735642
0.00732665
0.00729669
0.00726657
0.00723634
0.00720605
0.00717577
0.00714567
0.00711607
0.00708772
0.00706229
0.00704365
0.0070404
0.00707208
0.00718175
0.00746283
0.00811346
0.00954314
0.0126148
0.019075
0.0323401
0.0589035
0.110781
0.209778
0.394542
0.733271
1.34761
2.456
4.43392
7.81063
12.9492
19.3001
25.4028
30.6193
37.1911
54.6352
111.213
353.191
1710.29
5117.05
6290.93
6386.66
7291.29
7250.96
7981.89
7894.45
8501.65
8379.86
8920.41
8775
9266.54
9104.28
9558.24
9383.6
9807.9
9623.86
10024.3
9832.77
10213.9
10016.3
10381.2
10178.7
10529.6
10322.8
10661.4
10451
10779
10565.7
10884.6
10669
10980.1
10762.7
11067.2
10848.5
11147.5
10927.6
11221.8
11001.3
11291.2
11070.4
11356.6
11135.5
11418.4
11197.1
11477.1
11255.9
11533.2
11312
11587.1
11366
11638.8
11417.9
11688.7
11467.5
11737.1
11515
11782.9
11560.2
11826.5
11603.3
11868
11644.3
11907.3
11683.1
11944.1
11719.3
11978.1
11752.4
12008.6
11781.7
12034.6
11806
12054.9
11824
12067.9
11833.9
12071.1
11833.1
12062.4
11819
12038.8
11788.6
11996.8
11738.4
11932.8
11664.9
11843.3
11563.2
11725.2
11426
11577
11264.9
11404.9
11081.2
11210.9
10879.1
10999.3
10661.3
10775.1
10437
10548.1
10217.5
10328.1
10009.4
10120.7
9816.33
9929.57
9641.16
9757.35
9486
9605.94
9352.14
9476.41
9239.94
9368.92
9148.89
9282.72
9073.31
9215.46
9015.73
9168.42
8978.37
9142.8
8961.57
9137.41
8963.41
9149.48
8980.94
9175.8
9010.99
9213.14
9050.54
9259.04
9097
9311.64
9148.24
9366.2
9201.18
9421.27
9254.46
9475.66
9306.91
9528.37
9357.58
9578.66
9405.83
9626.42
9451.45
9671.97
9494.39
9714.41
9534.21
9753.63
9570.93
9789.59
9604.48
9822.34
9635.16
9852.08
9662.55
9878.65
9684.35
9911.16
9702.12
9945.19
9707.17
9955.82
9551.92
9875.89
8916.9
8756.27
7015.85
4674.75
5045.26
5504.38
3490.23
5966.9
5553.52
3508.22
6015.89
5556.89
3541.18
6028.96
5568.48
3536.52
6023.35
5562.14
3531.98
6009.12
5550.96
3522.88
5995.62
5538.31
3512.39
5980.97
5524.15
3501.54
5964.67
5508.75
3490.36
5947.31
5492.51