/*--------------------------------*- C++ -*----------------------------------*\
| =========                 |                                                 |
| \\      /  F ield         | OpenFOAM: The Open Source CFD Toolbox           |
|  \\    /   O peration     | Version:  v2006                                 |
|   \\  /    A nd           | Website:  www.openfoam.com                      |
|    \\/     M anipulation  |                                                 |
\*---------------------------------------------------------------------------*/
FoamFile
{
    version     2.0;
    format      ascii;
    class       volScalarField;
    location    "0.097";
    object      yPlus;
}
// * * * * * * * * * * * * * * * * * * * * * * * * * * * * * * * * * * * * * //

dimensions      [0 0 0 0 0 0 0];


internalField   uniform 0;

boundaryField
{
    bottomEmptyFaces
    {
        type            empty;
    }
    topEmptyFaces
    {
        type            empty;
    }
    inlet
    {
        type            calculated;
        value           uniform 0;
    }
    outlet
    {
        type            calculated;
        value           uniform 0;
    }
    walls
    {
        type            calculated;
        value           nonuniform List<scalar> 
1055
(
30.3887
29.6425
28.9606
28.3391
27.7815
27.2787
26.8274
26.4176
26.0493
25.7203
25.4326
25.1807
24.9632
24.7725
24.6087
24.4638
24.3395
24.2336
24.1479
24.0772
24.0205
23.9739
23.938
23.9079
23.8855
23.8673
23.8549
23.8452
23.8395
23.8349
23.834
23.8328
23.8341
23.8362
23.8393
23.8436
23.8476
23.8521
23.8552
23.8587
23.8601
23.8624
23.8617
23.8626
23.8602
23.8598
23.8557
23.8539
23.8488
23.846
23.8398
23.8359
23.829
23.8242
23.8167
23.8111
23.8033
23.7973
23.7893
23.7831
23.7751
23.7688
23.7606
23.754
23.7458
23.7392
23.7308
23.7242
23.7157
23.7092
23.7009
23.6944
23.6862
23.6801
23.6723
23.6666
23.6591
23.6539
23.647
23.6425
23.6362
23.6324
23.6267
23.6237
23.6185
23.6163
23.6118
23.6104
23.6066
23.6058
23.6031
23.6028
23.6011
23.6014
23.6008
23.6016
23.602
23.6033
23.6049
23.6066
23.6089
23.6113
23.6141
23.6173
23.6205
23.6245
23.6282
23.6329
23.637
23.6423
23.6469
23.6527
23.6577
23.6639
23.6693
23.6759
23.6817
23.6887
23.6948
23.7021
23.7086
23.7162
23.7229
23.7308
23.7378
23.746
23.7532
23.7615
23.7689
23.7775
23.7851
23.7938
23.8016
23.8104
23.8183
23.8272
23.8352
23.8443
23.8524
23.8614
23.8696
23.8786
23.8868
23.8959
23.9041
23.9132
23.9214
23.9304
23.9386
23.9476
23.9558
23.9647
23.9729
23.9818
23.99
23.9988
24.007
24.0158
24.0239
24.0328
24.0408
24.0497
24.0577
24.0667
24.0747
24.0836
24.0916
24.1006
24.1086
24.1176
24.1256
24.1346
24.1425
24.1515
24.1594
24.1683
24.176
24.1849
24.1923
24.2011
24.2082
24.2251
24.2241
24.2247
24.2391
24.2484
24.2539
24.28
24.289
24.3167
24.2761
24.2161
23.9995
24.1585
24.568
8.49625
7.19051
6.56065
11.3931
10.5648
9.66059
7.97676
18.2617
13.3596
11.5843
11.4901
12.7183
9.40313
8.01127
12.4934
11.3847
13.657
13.6327
10.7273
9.22024
9.76631
9.66388
8.54805
7.38568
10.141
9.91075
8.85295
7.49329
9.13794
7.61917
8.61955
7.3935
9.61471
10.0745
8.54296
7.40564
8.38664
7.31291
8.32506
7.25289
6.51088
10.4438
10.9339
9.73211
10.6125
9.48515
10.4056
9.21831
9.98169
9.24995
10.1217
10.1264
10.5455
9.32383
10.2168
11.5739
8.44914
8.86021
8.99127
9.76119
10.326
10.772
11.8907
8.62989
9.08453
9.58504
10.3826
8.35454
9.02957
10.0218
7.33927
7.65543
8.80038
9.06372
10.1803
7.44903
7.79676
8.01934
8.50606
9.16715
9.53507
8.15635
8.69641
8.42172
9.13732
8.66771
9.39325
8.33851
8.92889
10.771
9.39529
9.77218
7.78864
8.2062
10.5633
7.69301
8.1032
10.4302
9.10066
9.4035
8.29388
9.01015
7.96743
8.56072
7.51102
7.87123
9.88252
10.2898
11.3992
8.30524
8.74469
8.85075
9.73289
11.0474
7.99038
8.41279
8.67249
9.31516
9.12859
9.94454
9.64434
10.103
8.97716
9.7428
8.65355
9.54215
8.52883
9.17894
9.45969
9.83018
10.8663
7.94887
8.26638
8.66281
9.40154
9.13377
9.98172
8.82281
9.60563
8.67576
9.10075
7.87991
7.71285
7.3207
7.03131
9.57458
7.43563
7.85865
8.34918
8.53001
9.44533
6.96529
7.16792
8.39094
8.59725
9.73408
7.1237
7.4414
7.60452
8.03521
8.15197
8.25782
7.03006
7.25147
7.97955
7.97255
7.8294
7.81707
9.17851
6.83566
6.99872
9.21806
7.86901
7.9123
6.79089
7.00561
9.06468
7.33705
7.02547
9.00532
7.78592
7.73389
8.67392
6.65611
6.68829
7.83208
7.76096
6.69924
6.74256
6.71377
6.84588
9.23219
7.96721
8.05437
9.30727
6.93914
7.13057
6.82081
7.04657
8.96224
8.7841
7.38126
6.9362
8.3069
7.00893
6.54898
8.38378
7.10999
6.53839
8.42366
7.14727
6.56203
8.33513
6.99295
6.46107
8.0717
6.45281
6.27123
8.29257
6.83153
6.45981
7.77593
7.41994
8.35705
7.73606
7.53065
6.53776
6.47081
8.75926
8.68775
7.27985
6.87917
7.4026
6.94312
7.08235
6.80905
8.95522
7.20307
6.91286
8.55668
6.66559
6.69925
8.7324
8.95326
10.0757
7.40448
7.70593
9.901
7.17879
7.49012
8.58431
8.82753
7.7782
8.29119
7.86319
8.32884
8.7171
9.03721
8.04933
8.58316
13.2265
11.3565
8.65272
11.2567
8.33589
11.6918
9.72714
7.00624
10.6711
10.3582
7.16197
12.261
9.99161
26.1732
24.6463
8.22954
8.81192
6.13905
25.2649
21.2041
21.2115
20.3839
10.3674
20.1288
8.85198
25.4127
7.71143
20.6693
8.94589
6.13597
20.0986
21.4396
20.9069
10.7063
9.57901
8.43269
7.41715
8.30431
5.97661
28.0593
26.5046
21.8425
21.3851
22.107
21.5516
25.0936
22.0282
20.9311
27.173
23.3473
22.3783
9.98879
8.99364
8.45741
7.97134
7.32827
8.50729
6.05323
10.5152
9.69145
9.11937
8.61571
8.21783
7.67866
6.95101
7.84018
5.75555
9.68885
8.93048
8.48413
8.117
7.81546
7.52363
7.27507
7.0498
6.92714
6.7796
6.41023
7.78243
5.38944
9.8202
9.27426
8.96707
8.8002
8.60349
13.9761
8.3829
8.20912
8.07151
7.92045
7.82518
10.9698
12.0122
7.68174
12.0596
12.5057
10.3938
11.2318
13.4745
11.6655
12.1884
9.7162
10.284
10.6766
11.7145
7.5895
7.54986
7.43081
7.30857
7.21525
7.13182
7.06252
7.00576
14.735
10.5622
11.1891
12.6092
13.1756
11.6023
12.7063
6.95587
6.91569
6.8814
6.85764
6.83315
6.81496
6.80446
6.7953
13.5638
14.1718
12.3894
13.4807
6.78998
6.78048
6.77777
6.77531
6.76791
6.76116
6.75994
6.75891
13.815
14.2689
13.2397
14.3778
12.5948
13.5994
16.1228
11.655
12.3447
6.75332
15.8045
6.74712
6.74511
11.3706
12.0251
6.73987
6.73685
12.3005
13.1906
6.72675
6.72324
6.71771
15.231
11.8169
12.918
13.0725
13.5951
11.8326
12.8076
10.988
11.6032
11.4086
12.3279
11.2924
12.3197
12.1844
12.6641
11.0777
12.1948
14.1296
10.2005
10.7648
10.9091
11.7929
14.4323
11.1418
12.0401
10.4132
10.9874
12.3979
12.9313
10.7983
11.6765
10.1701
10.7006
19.2118
14.3658
14.9379
6.71358
6.70338
6.69837
6.69421
20.6976
6.68437
6.67512
6.66881
20.0154
6.66348
14.5227
15.4433
17.3288
17.4089
19.841
16.8786
17.2573
14.6136
15.3439
16.7106
16.9821
6.65249
6.64266
6.63617
6.63099
6.62052
6.61102
6.60486
6.59966
6.589
6.57926
6.57289
6.56746
6.55685
6.54713
6.54098
15.4325
6.53563
15.7262
16.2548
16.7839
14.4237
15.4054
18.2118
13.1213
13.9297
6.52527
6.51566
6.50977
6.50448
6.49453
6.48488
6.4796
6.47208
17.4713
13.9954
14.9619
12.905
13.6434
13.3422
14.264
17.1165
14.6472
15.2059
12.2459
13.032
14.8192
15.4423
18.3949
15.7147
16.2072
13.3008
14.0614
19.2499
19.0523
13.9637
14.6246
16.2927
16.5106
16.1423
16.621
6.46687
14.1284
6.45537
14.8871
6.4504
6.44307
6.4381
6.42684
6.42207
6.41507
21.3783
6.41047
6.39966
15.895
16.6035
6.39505
6.38844
6.38372
6.37364
6.36889
22.1974
6.36505
21.9126
18.1202
17.89
18.7196
18.9143
19.8296
19.9253
23.5167
6.356
18.8482
6.35041
18.6813
6.34203
6.34084
6.33279
22.7613
6.32742
6.32248
18.7567
18.4106
6.31501
22.9571
17.8824
18.4073
16.8443
17.3881
18.0699
18.326
15.5204
16.1607
6.31357
6.30778
6.31095
6.37363
6.41643
6.5139
6.77781
7.12813
29.3016
25.981
30.2075
23.7486
22.0927
29.963
27.2022
26.9252
23.3108
22.2758
9.91147
10.778
33.4164
32.0167
30.8461
32.963
25.5684
23.5036
30.9702
26.7506
25.4927
22.8223
12.5378
30.4644
9.97542
10.911
10.85
11.2671
28.9682
35.4632
27.5142
25.3954
10.2505
11.2111
10.0411
11.0057
35.5501
12.8141
11.1227
11.5916
9.29941
9.78462
36.1874
9.78921
10.5619
9.11896
9.57003
36.7063
36.7058
36.8258
36.5115
35.7696
13.1593
34.8619
10.7556
11.7126
10.4495
11.4924
10.2422
11.0442
9.5112
10.0183
10.4151
11.3889
11.334
11.7766
10.2163
11.1386
33.9253
32.9831
32.066
31.1982
9.59567
10.5418
12.0107
8.7366
9.16701
9.32455
10.1149
9.78169
10.7246
25.0505
7.57085
36.4712
33.193
31.0013
29.5311
28.4214
27.3888
26.657
25.9467
25.5499
25.0745
24.7909
24.4222
24.2085
23.9079
23.7399
23.4854
23.3473
23.1238
23.0058
22.8044
22.7008
22.5154
22.4219
22.2482
22.162
21.9971
21.9162
21.7582
21.6813
21.5286
21.4547
21.3063
21.2346
21.0897
21.0196
20.8774
20.8086
20.6687
20.6008
20.4626
20.3953
20.2584
20.1915
20.0555
19.9886
19.8529
19.7858
19.6501
19.5826
19.4465
19.3782
19.2413
19.172
19.0339
18.9634
18.8238
18.7519
18.6105
18.5369
18.3934
18.3181
18.1723
18.0951
17.9467
17.8676
17.7165
17.6355
17.4817
17.3989
17.2424
17.1581
16.9989
16.9132
16.7517
16.6652
16.5017
16.4149
16.2501
16.1639
15.9987
15.9141
15.7497
15.6681
15.506
15.4291
15.2713
15.2011
15.0497
14.9891
14.8465
14.7989
14.6689
14.6359
14.5253
14.5069
14.4189
14.4164
14.3584
14.3687
14.3438
14.3665
14.359
14.4107
14.4188
14.4977
14.5216
14.6233
14.659
14.7762
14.8203
14.948
14.9984
15.1336
15.188
15.3274
15.3833
15.5229
15.5784
15.7152
15.7686
15.8996
15.9496
16.0724
16.1179
16.2307
16.271
16.3723
16.4065
16.495
16.5228
16.5983
16.6196
16.6824
16.6976
16.7484
16.7581
16.7982
16.8029
16.8337
16.8342
16.8562
16.8539
16.8693
16.8649
16.8749
16.8687
16.8751
16.8662
16.8704
16.8573
16.8606
16.8447
16.8473
16.8294
16.8314
16.8118
16.8135
16.793
16.7945
16.7732
16.7744
16.7523
16.7531
16.7297
16.7302
16.7031
16.7097
16.6773
16.687
16.6413
16.7151
16.743
16.945
17.2266
18.2714
20.9105
18.9394
39.9398
)
;
    }
    rightWall
    {
        type            calculated;
        value           uniform 0;
    }
    symmetryLine
    {
        type            symmetryPlane;
    }
}


// ************************************************************************* //
