/*--------------------------------*- C++ -*----------------------------------*\
| =========                 |                                                 |
| \\      /  F ield         | OpenFOAM: The Open Source CFD Toolbox           |
|  \\    /   O peration     | Version:  v2006                                 |
|   \\  /    A nd           | Website:  www.openfoam.com                      |
|    \\/     M anipulation  |                                                 |
\*---------------------------------------------------------------------------*/
FoamFile
{
    version     2.0;
    format      ascii;
    class       volScalarField;
    location    "0.08";
    object      Ma;
}
// * * * * * * * * * * * * * * * * * * * * * * * * * * * * * * * * * * * * * //

dimensions      [0 0 0 0 0 0 0];


internalField   nonuniform List<scalar> 
23013
(
0.110185
0.110186
0.110185
0.110185
0.110185
0.110184
0.110181
0.110171
0.110138
0.110068
0.109959
0.109821
0.109667
0.109508
0.109349
0.10919
0.10903
0.108866
0.108697
0.108522
0.10834
0.108151
0.107954
0.107751
0.107541
0.107323
0.107099
0.106868
0.10663
0.106385
0.106134
0.105875
0.10561
0.105338
0.105059
0.104774
0.104483
0.104185
0.103881
0.103571
0.103255
0.102933
0.102605
0.102273
0.101934
0.101591
0.101243
0.100889
0.100532
0.10017
0.0998032
0.0994328
0.0990586
0.0986809
0.0982997
0.0979154
0.0975282
0.0971383
0.0967459
0.0963513
0.0959547
0.0955564
0.0951567
0.0947557
0.0943538
0.0939512
0.0935482
0.0931451
0.0927422
0.0923397
0.0919379
0.0915372
0.0911379
0.0907402
0.0903444
0.0899509
0.08956
0.089172
0.0887872
0.088406
0.0880286
0.0876555
0.087287
0.0869233
0.0865649
0.086212
0.0858649
0.0855241
0.0851898
0.0848624
0.0845421
0.0842292
0.0839241
0.083627
0.0833381
0.0830578
0.0827862
0.0825237
0.0822705
0.0820271
0.0817936
0.0815698
0.0813549
0.0811468
0.080943
0.0807416
0.0805444
0.080363
0.0802212
0.0801429
0.0801254
0.0801412
0.0801662
0.0801882
0.0802
0.0801829
0.0801481
0.0800721
0.0799129
0.0796775
0.0793177
0.0788806
0.0771808
0.0759689
0.0788566
0.079417
0.0794392
0.0786562
0.0746092
0.0732644
0.0784457
0.0794652
0.0794125
0.0781342
0.0720127
0.0708608
0.0778363
0.0793498
0.0792154
0.0774631
0.0697816
0.0688521
0.0771845
0.0791102
0.0789408
0.0768112
0.0679761
0.0672562
0.0765478
0.0788116
0.0786026
0.0761517
0.0665371
0.0659588
0.0758905
0.0784571
0.0782365
0.0755039
0.0653467
0.0648623
0.0752559
0.0780793
0.0778467
0.0748778
0.0643151
0.0639007
0.0746418
0.0776844
0.0774419
0.0742687
0.0634014
0.0630379
0.0740492
0.077282
0.0770343
0.0736862
0.0625761
0.0622342
0.0734657
0.0768647
0.0766118
0.0731051
0.0617916
0.0614903
0.0729004
0.07645
0.0761924
0.0725441
0.0610711
0.0607855
0.072345
0.0760281
0.0757706
0.0719967
0.0603811
0.0601152
0.0718026
0.0756076
0.0753405
0.0714499
0.0597212
0.059466
0.0712598
0.0751746
0.0749077
0.0709133
0.0590824
0.0588423
0.0707273
0.0747439
0.0744696
0.0703782
0.0584677
0.0582284
0.07019
0.0742983
0.07402
0.0698407
0.0578568
0.0576318
0.0696569
0.0738516
0.0735664
0.0693051
0.0572665
0.0570527
0.0691302
0.0734018
0.0731142
0.068781
0.0566947
0.0564725
0.0685951
0.0729384
0.072643
0.0682408
0.0561148
0.0558835
0.0680465
0.0724582
0.0721543
0.0676843
0.0555082
0.0552686
0.0674872
0.0719664
0.0716602
0.06712
0.0548926
0.0546639
0.0669369
0.0714834
0.0711696
0.0665656
0.0542813
0.0540251
0.0663604
0.0709732
0.0706483
0.0659774
0.0536342
0.0533759
0.0657689
0.0704484
0.0701172
0.0653803
0.0529826
0.0527187
0.0651658
0.0699112
0.0695715
0.0647695
0.0523211
0.0520522
0.0645488
0.0693589
0.0690108
0.0641452
0.0516511
0.0513776
0.0639184
0.0687916
0.068435
0.0635076
0.0509734
0.0506955
0.0632745
0.0682088
0.0678442
0.062857
0.0502886
0.0500076
0.0626185
0.0676119
0.0672401
0.0621958
0.0495998
0.0493159
0.061951
0.0670021
0.0666155
0.061516
0.0488954
0.0485913
0.0612532
0.0663577
0.0659809
0.0608274
0.0481912
0.0479102
0.0605776
0.0657358
0.065338
0.0601332
0.0474889
0.0472047
0.0598822
0.0650882
0.0646928
0.0594426
0.0467968
0.0465045
0.0591799
0.0644336
0.0640195
0.0587272
0.0460773
0.0457834
0.0584604
0.0637543
0.0633568
0.0580224
0.045384
0.045107
0.0577691
0.0631007
0.0627048
0.0573343
0.0447165
0.0444421
0.0570793
0.0624468
0.0620453
0.0566461
0.044044
0.0437861
0.0564008
0.0617973
0.0614051
0.0559791
0.0434068
0.0431748
0.0557549
0.0611718
0.0607994
0.0553551
0.042823
0.0426191
0.0551526
0.0605857
0.0602281
0.0547751
0.0422844
0.04211
0.0545948
0.0600352
0.0597041
0.054249
0.0418076
0.0416658
0.0540933
0.0595328
0.0592378
0.0537909
0.041404
0.0413474
0.0537047
0.0591319
0.0588849
0.0534592
0.0411371
0.0411361
0.0534184
0.0588191
0.0586263
0.0532339
0.0409822
0.0410664
0.0532642
0.0586267
0.058496
0.0531509
0.0409745
0.0411481
0.0532581
0.0585666
0.0585146
0.0532286
0.041136
0.0414078
0.0534262
0.058671
0.058713
0.0535001
0.0414873
0.0418885
0.0538076
0.0589742
0.059119
0.0539932
0.0420669
0.04261
0.0544264
0.0595019
0.0597564
0.0547267
0.0428856
0.0435393
0.0552684
0.0602467
0.0606018
0.0556903
0.0439126
0.0446758
0.0563335
0.0611991
0.0616612
0.0568604
0.0451354
0.0459827
0.0575906
0.0623535
0.0628869
0.0581894
0.0465037
0.0474277
0.0590067
0.063666
0.0643146
0.0597078
0.0480461
0.0490012
0.0605683
0.0651428
0.0658105
0.0612837
0.0496018
0.050588
0.0621905
0.0666912
0.0674216
0.0629602
0.051231
0.0522196
0.0638853
0.0683288
0.069077
0.0646638
0.0528536
0.0538348
0.0655946
0.0699988
0.0707502
0.0663652
0.0544472
0.0553881
0.0672713
0.0716539
0.0723964
0.0680216
0.0559729
0.0568735
0.0688957
0.0732727
0.0739831
0.0696037
0.0574116
0.0582836
0.0704582
0.0748451
0.0755351
0.0711335
0.0587939
0.0596147
0.07195
0.0763628
0.077016
0.0725783
0.0600813
0.0608441
0.0733495
0.0778019
0.0784167
0.0739272
0.0612654
0.0619565
0.0746519
0.0791568
0.0797306
0.0751796
0.0623157
0.0629518
0.0758701
0.0804417
0.0809777
0.0763523
0.0632603
0.0638271
0.0769898
0.0816395
0.0821285
0.0774163
0.0640797
0.0645769
0.077999
0.0827383
0.0831736
0.0783647
0.0647712
0.0652095
0.078901
0.0837394
0.0841276
0.0792134
0.0653575
0.0657244
0.0796887
0.0846344
0.0849594
0.0799333
0.0658149
0.0661154
0.0803471
0.0854063
0.0856732
0.080529
0.0661564
0.0663998
0.0808879
0.0860653
0.0862709
0.081005
0.0663905
0.0665721
0.0813029
0.0866018
0.0867461
0.0813561
0.0665149
0.0666441
0.0816008
0.087023
0.0871148
0.0815994
0.066551
0.0666329
0.0817936
0.0873391
0.0873722
0.0817346
0.0664955
0.0665412
0.0818869
0.0875523
0.0875508
0.0817905
0.0663895
0.0663958
0.0818952
0.0876796
0.0876179
0.0817452
0.0661955
0.0661912
0.0818365
0.0877325
0.0876638
0.0816838
0.0660066
0.0659695
0.0817323
0.0877346
0.0876256
0.0815422
0.0657517
0.065729
0.0815964
0.0876963
0.0875818
0.0814034
0.0655281
0.065486
0.0814305
0.0876229
0.0874876
0.0812218
0.0652735
0.0652381
0.081252
0.0875297
0.0873838
0.0810395
0.065022
0.0649996
0.081073
0.0874257
0.0872803
0.0808636
0.0648001
0.064771
0.0808851
0.087307
0.0871476
0.080666
0.0645653
0.0645488
0.0806984
0.0871854
0.0870343
0.0804933
0.0643561
0.0643488
0.0805266
0.0870691
0.0869127
0.0803166
0.0641601
0.0641539
0.0803469
0.0869421
0.0867804
0.0801355
0.0639645
0.0639622
0.0801725
0.0868178
0.0866619
0.0799727
0.0637811
0.0637975
0.0800203
0.0867056
0.0865518
0.0798208
0.0636234
0.0636357
0.0798635
0.0865897
0.086431
0.0796627
0.0634587
0.0634721
0.0797096
0.0864741
0.0863182
0.079516
0.0633007
0.063325
0.0795692
0.0863668
0.0862153
0.0793801
0.063159
0.0631836
0.0794339
0.086263
0.08611
0.0792444
0.0630155
0.0630521
0.0793079
0.0861661
0.0860157
0.0791224
0.0628936
0.0629222
0.0791802
0.0860664
0.0859181
0.0789962
0.0627635
0.0627944
0.0790574
0.0859733
0.0858186
0.0788701
0.0626257
0.0626685
0.0789396
0.0858797
0.0857335
0.0787614
0.0625156
0.0625549
0.0788301
0.0857938
0.0856412
0.0786457
0.0623944
0.0624375
0.0787198
0.0857089
0.0855635
0.0785437
0.0622828
0.0623221
0.078611
0.0856238
0.0854751
0.0784312
0.0621648
0.0622114
0.078507
0.0855427
0.0853957
0.0783301
0.062058
0.0621035
0.0784067
0.0854653
0.0853161
0.0782289
0.0619493
0.0619896
0.0783044
0.0853863
0.0852424
0.0781347
0.0618395
0.0618886
0.0782133
0.0853145
0.0851703
0.0780404
0.0617358
0.0617888
0.0781215
0.0852424
0.0850951
0.0779462
0.0616365
0.0616872
0.0780668
0.0851989
0.0850894
0.0779614
0.0615503
0.0617111
0.0781446
0.0852812
0.085266
0.078134
0.0616374
0.0622355
0.0786649
0.0857917
0.0861276
0.0791304
0.0626928
0.0628595
0.0793272
0.0862483
0.0865164
0.0796832
0.0632913
0.063386
0.0798006
0.0865957
0.0921254
0.0941043
0.0947415
0.095036
0.0956069
0.0957904
0.0958943
0.0958807
0.0957483
0.0955634
0.0951791
0.0947908
0.0938659
0.0933047
0.0928715
0.0922132
0.0919767
0.0910562
0.0872024
0.07823
0.0677045
0.0471685
0.0463699
0.0672533
0.0779059
0.0771204
0.066306
0.0451146
0.044396
0.0656984
0.0765107
0.0764166
0.0655969
0.0440996
0.0437241
0.0651946
0.07607
0.0760542
0.0651047
0.0434276
0.0431007
0.0649199
0.075774
0.0757607
0.0648922
0.0431065
0.0428331
0.0647651
0.0756109
0.0757152
0.0648567
0.0428806
0.0428961
0.0648309
0.0756311
0.0757342
0.0649184
0.0429334
0.0429374
0.0648046
0.0756451
0.0757548
0.0649142
0.0429868
0.0429989
0.0649164
0.0756673
0.0758172
0.0650193
0.0430307
0.0430276
0.0648985
0.0757263
0.0758389
0.0650094
0.0430796
0.0430917
0.0650129
0.0757519
0.0759016
0.065116
0.0431247
0.0431218
0.064996
0.0758106
0.0759232
0.0651065
0.0431736
0.0431865
0.0651106
0.0758364
0.0759863
0.0652141
0.0432204
0.043218
0.0650949
0.0758954
0.0760087
0.0652061
0.0432709
0.0432852
0.0652114
0.0759225
0.0760732
0.0653154
0.0433196
0.0433184
0.0651975
0.075983
0.0760977
0.0653108
0.0433731
0.0433881
0.0653174
0.076012
0.0761634
0.065421
0.0434214
0.0434202
0.0653036
0.076073
0.0761885
0.0654197
0.0434765
0.0434933
0.065428
0.0761049
0.0762587
0.065532
0.0435262
0.0435275
0.0654157
0.0761679
0.0762821
0.0655318
0.0435827
0.0435993
0.0655384
0.0761993
0.0763524
0.0656431
0.0436308
0.0436363
0.0655277
0.0762612
0.0763758
0.0656448
0.0436873
0.0437057
0.0656472
0.076292
0.0764438
0.0657519
0.0437322
0.0437453
0.0656401
0.0763542
0.0764718
0.0657618
0.0437941
0.0438122
0.0657582
0.0763852
0.076538
0.0658656
0.043838
0.0438572
0.0657564
0.0764478
0.0765635
0.0658751
0.0439015
0.0439125
0.0658617
0.0764701
0.0766221
0.0659693
0.043942
0.0439651
0.0658648
0.0765349
0.0766508
0.0659783
0.0440098
0.0440202
0.0659661
0.0765573
0.0767104
0.0660746
0.0440542
0.044076
0.0659722
0.0766248
0.0767445
0.0660875
0.0441241
0.044136
0.0660771
0.0766498
0.0768028
0.0661876
0.0441694
0.04419
0.0660831
0.0767169
0.0768313
0.0661924
0.0442309
0.0442488
0.0661842
0.0767366
0.0768906
0.0662956
0.0442819
0.0442941
0.066182
0.076799
0.0769109
0.0662899
0.0443339
0.0443543
0.0662816
0.0768149
0.0769688
0.066391
0.044387
0.0443967
0.0662762
0.0768786
0.0769909
0.0663837
0.0444408
0.0444605
0.0663805
0.0768979
0.0770494
0.0664849
0.0444908
0.0444961
0.0663674
0.0769571
0.0770707
0.0664767
0.0445423
0.0445574
0.0664726
0.0769779
0.077129
0.0665737
0.0445842
0.0445879
0.0664561
0.0770367
0.077151
0.0665671
0.0446335
0.0446439
0.0665617
0.0770597
0.0772081
0.0666592
0.0446661
0.0446685
0.0665406
0.0771156
0.0772275
0.0666485
0.0447063
0.0447128
0.0666361
0.0771349
0.0772832
0.066732
0.0447305
0.0447315
0.0666133
0.077191
0.0773021
0.066718
0.0447631
0.0447576
0.0666948
0.0772044
0.0773525
0.0667896
0.044772
0.0447669
0.0666694
0.07726
0.0773707
0.0667687
0.0447914
0.0447767
0.0667436
0.077275
0.0774234
0.0668358
0.0447858
0.0447708
0.0667136
0.0773339
0.0774462
0.0668091
0.0447879
0.0447606
0.0667802
0.0773511
0.0775017
0.06687
0.0447609
0.044729
0.0667437
0.0774146
0.0775303
0.0668364
0.0447371
0.0446917
0.0668041
0.0774377
0.0775915
0.0668899
0.0446793
0.0446233
0.0667568
0.077507
0.077624
0.0668413
0.0446133
0.0445465
0.0668062
0.0775369
0.0776974
0.0668881
0.0445168
0.0444337
0.0667488
0.0776201
0.077744
0.0668304
0.0444039
0.0443072
0.0667921
0.0776654
0.077838
0.0668751
0.0442506
0.0441333
0.0667319
0.077773
0.0779113
0.0668195
0.0440747
0.0439436
0.0667851
0.0778509
0.0780412
0.0668766
0.0438521
0.0436965
0.0667376
0.0779961
0.0781533
0.0668393
0.0436045
0.0434354
0.0668166
0.0781157
0.0783285
0.0669276
0.0433116
0.043122
0.0668061
0.0783081
0.0784884
0.0669351
0.0430103
0.0428223
0.0669416
0.0784781
0.0787159
0.0670857
0.0426987
0.0425238
0.0670054
0.0787242
0.0789309
0.0671742
0.0424619
0.0423486
0.0672325
0.07895
0.0792155
0.0674175
0.0423456
0.04235
0.0673982
0.0792572
0.0794994
0.0676333
0.0424571
0.0425841
0.0677808
0.0795583
0.0798639
0.068053
0.0427898
0.0430658
0.0681698
0.0799533
0.0802433
0.0685173
0.0434364
0.0438592
0.0688465
0.0803557
0.0807133
0.0692586
0.0443846
0.0450048
0.0696043
0.0808613
0.0812076
0.0701193
0.0457401
0.0465643
0.0706429
0.0814235
0.0818645
0.0712645
0.0475305
0.048662
0.0719331
0.082106
0.0825602
0.072719
0.0499578
0.0512705
0.0733549
0.0828715
0.0832901
0.0741795
0.0526739
0.0541685
0.0748034
0.0835066
0.083804
0.0755476
0.0556739
0.0570075
0.0760693
0.083852
0.083989
0.0765926
0.0583457
0.0598791
0.0771659
0.0840719
0.0840929
0.0775916
0.0609013
0.0610723
0.0774929
0.0837078
0.0788609
0.067756
0.0428387
0.0468026
0.0710142
0.0819085
0.0822106
0.0712929
0.0465859
0.0471877
0.0718246
0.0824721
0.0826945
0.0723795
0.0479843
0.0489374
0.0726832
0.0828671
0.0829869
0.0732273
0.0499085
0.0508712
0.0735998
0.0830792
0.0831975
0.0741016
0.0519938
0.0531092
0.0745428
0.0833531
0.0834335
0.0751326
0.0543412
0.0556152
0.0756329
0.0835268
0.083571
0.0760558
0.0567086
0.0578992
0.0764239
0.083585
0.0835735
0.0767699
0.0591887
0.0602761
0.0770714
0.0834899
0.083432
0.0774658
0.0614775
0.0623294
0.0777509
0.0832721
0.0825781
0.0772184
0.0622929
0.0459065
0.0688089
0.0786415
0.0814272
0.072232
0.0498439
0.0498741
0.0726014
0.0815011
0.0813096
0.0726341
0.0507673
0.052269
0.072934
0.0811681
0.0812782
0.0736547
0.0540153
0.0554856
0.0740142
0.0811811
0.0812181
0.0745538
0.0570523
0.058913
0.0751292
0.0812646
0.0813048
0.0757896
0.0606166
0.0615904
0.0760808
0.0811289
0.0806868
0.0760414
0.0620314
0.049285
0.0690674
0.0772849
0.0798973
0.0722535
0.053457
0.0542276
0.0727399
0.0800533
0.0803026
0.0735524
0.0558537
0.0575254
0.0741925
0.0804789
0.0805194
0.0747716
0.0589589
0.0600785
0.0750376
0.0804453
0.0804627
0.0755214
0.0615249
0.0626789
0.0759728
0.080356
0.0796645
0.0755347
0.062867
0.0505553
0.0690358
0.0765865
0.0788768
0.0721573
0.0544597
0.0556157
0.0728912
0.0791021
0.07895
0.0731723
0.0570602
0.0583405
0.0733365
0.0786642
0.0786906
0.0739357
0.0600595
0.0616052
0.0744598
0.078623
0.0780819
0.07432
0.0621627
0.0515292
0.0683726
0.0751978
0.077355
0.0713047
0.0557168
0.0573135
0.0722085
0.0776901
0.0778805
0.0730614
0.058968
0.0601861
0.0735177
0.0778813
0.0777077
0.0738705
0.0611068
0.0616519
0.073644
0.077151
0.0746426
0.0683885
0.0520095
0.055699
0.0709741
0.0764804
0.0763172
0.0712244
0.0567477
0.0588167
0.0718451
0.0763099
0.0763694
0.0724926
0.0606919
0.0616967
0.0727532
0.0761082
0.0754892
0.0724679
0.0620404
0.0549196
0.0683649
0.0734532
0.0752323
0.0709896
0.0589464
0.0599919
0.0714958
0.0752044
0.0749447
0.0716407
0.0607959
0.0615093
0.07159
0.0743602
0.0722878
0.0673575
0.0541668
0.0574481
0.0695386
0.0735917
0.0733535
0.0698413
0.0585931
0.0604137
0.0702951
0.0731878
0.072473
0.0701725
0.0610411
0.0541909
0.0661324
0.0704382
0.0716864
0.0681892
0.057985
0.0599323
0.0690791
0.07178
0.0713236
0.0691287
0.0606518
0.0602766
0.0682494
0.0702016
0.0686803
0.0653153
0.0555031
0.0586465
0.0669992
0.0695253
0.0687504
0.0666458
0.0587042
0.0591615
0.0661993
0.0678193
0.0662413
0.0637017
0.0552721
0.0571789
0.0645377
0.0664153
0.0649724
0.0636232
0.0568048
0.0534177
0.0609889
0.0632854
0.0629918
0.0613233
0.0555696
0.0552409
0.0601163
0.0612515
0.0591478
0.0587047
0.0549036
0.0500086
0.0553944
0.0565848
0.0548969
0.0545882
0.0506558
0.0466502
0.0506815
0.0516605
0.0486586
0.0482067
0.0465455
0.0425134
0.0430604
0.0430367
0.0368044
0.0364524
0.0363884
0.03031
0.0296897
0.0296584
0.0185627
0.0180587
0.0177609
0.00443456
0.00593587
0.00914948
0.0162204
0.0149681
0.0144882
0.0274345
0.0277636
0.0278792
0.0390023
0.0395315
0.0397825
0.0473838
0.0480385
0.0478019
0.0521882
0.0518968
0.0503169
0.0539648
0.0566338
0.0567865
0.0586681
0.0576544
0.0536205
0.0575118
0.0611621
0.0615069
0.0622118
0.0610179
0.0563087
0.0594204
0.0635143
0.0641524
0.065669
0.0645924
0.0602816
0.0569569
0.0632177
0.0652078
0.066619
0.0654549
0.0595124
0.0584331
0.0650002
0.0667956
0.0682764
0.0669609
0.0605953
0.0594629
0.0664209
0.0685114
0.0677966
0.0650905
0.0572207
0.0602902
0.067769
0.0694335
0.0694475
0.0669788
0.058763
0.0553581
0.0646608
0.0680261
0.0696699
0.0677298
0.0597224
0.0592732
0.0676676
0.0701669
0.0684979
0.0650262
0.0552888
0.0584547
0.0675037
0.0698175
0.0701846
0.0672414
0.0578255
0.0544469
0.0648375
0.0685932
0.0703761
0.0679554
0.0582517
0.0556438
0.0659703
0.0692448
0.0707947
0.0684656
0.0596971
0.0589504
0.0680911
0.0709305
0.0706093
0.0671749
0.0577421
0.0534771
0.0642115
0.0685899
0.0703091
0.0675858
0.0578793
0.0568762
0.0670541
0.0704574
0.0685551
0.0643039
0.0532209
0.0578182
0.0677457
0.0704509
0.070657
0.0673101
0.0570349
0.0532253
0.064418
0.0686817
0.0703894
0.067604
0.0575408
0.0566913
0.0670629
0.0704997
0.0685654
0.0643474
0.0531426
0.0577422
0.0676679
0.070438
0.0705774
0.0671372
0.056871
0.0533149
0.0643845
0.0686061
0.0704819
0.0676991
0.0578272
0.0569084
0.0671592
0.0705577
0.0686079
0.0643509
0.0535019
0.057948
0.0677102
0.0705103
0.0706252
0.0672028
0.0570398
0.053628
0.0645329
0.0687078
0.0706345
0.0678767
0.0580919
0.0571896
0.0672965
0.0706744
0.0687532
0.0646347
0.0538299
0.0580234
0.0678741
0.0706484
0.0707328
0.067333
0.0571298
0.0539274
0.0646946
0.0688402
0.0707856
0.0680119
0.058287
0.0576062
0.0675949
0.0709368
0.0690503
0.0649364
0.0543661
0.0584664
0.0680802
0.0708916
0.0710102
0.0676223
0.0576927
0.0543685
0.0649316
0.0690874
0.0709538
0.0681143
0.0586045
0.0580564
0.067819
0.0711847
0.0693499
0.0653291
0.0548781
0.0589441
0.0684287
0.0711796
0.0713418
0.0680388
0.0582576
0.0550834
0.0653668
0.0694552
0.0712638
0.0684321
0.0589372
0.0581025
0.0678977
0.0713244
0.069528
0.0654607
0.0550172
0.0591615
0.0687213
0.071465
0.0716866
0.0683747
0.0584867
0.0553148
0.0658806
0.0698865
0.07174
0.0689905
0.0594026
0.0585982
0.0684973
0.0718078
0.0698524
0.0657422
0.055312
0.0591304
0.0687933
0.0716452
0.0718805
0.0684941
0.0584809
0.0555867
0.0659941
0.0701242
0.0721051
0.0693298
0.0599046
0.0591806
0.0689108
0.072253
0.0703908
0.0663473
0.0559704
0.0597493
0.0694265
0.0722204
0.0723446
0.0689647
0.0589884
0.0554566
0.0661659
0.0703243
0.0721367
0.0692375
0.0594979
0.0590083
0.0689978
0.0724255
0.0706575
0.0665362
0.0558978
0.0599967
0.0698555
0.0726351
0.0728056
0.0694307
0.0591593
0.0558412
0.0667389
0.0709021
0.0728502
0.0700182
0.06001
0.0590096
0.069375
0.072846
0.0706913
0.0663451
0.0553528
0.0594504
0.069575
0.0725688
0.0728686
0.0693262
0.0587841
0.0555845
0.0666261
0.0709559
0.0731014
0.0702163
0.0600161
0.0592138
0.0697812
0.0733058
0.0712002
0.0668514
0.055586
0.0597815
0.0705792
0.0734166
0.0721999
0.0685128
0.0574677
0.0616965
0.0715471
0.0742468
0.074033
0.0706477
0.060636
0.0572611
0.0678664
0.0720614
0.0740819
0.0713169
0.0617999
0.0612519
0.0710796
0.0744211
0.0726387
0.0685612
0.0580858
0.062117
0.071854
0.0746474
0.0747184
0.071241
0.0611906
0.0576333
0.0684345
0.0726807
0.0747808
0.0720289
0.0614889
0.0591248
0.0699659
0.073596
0.0754234
0.0727761
0.0629019
0.0619117
0.0719097
0.0752422
0.0733966
0.0693481
0.058764
0.0629858
0.0727085
0.0753779
0.0757018
0.0724149
0.0623673
0.0590561
0.0698107
0.0739008
0.075881
0.0730989
0.063104
0.0622754
0.0725812
0.0760495
0.074006
0.069756
0.0586392
0.0625108
0.0733134
0.0760667
0.0748496
0.0711755
0.0601386
0.0640969
0.0740737
0.0768099
0.0765774
0.0731029
0.0629852
0.0598395
0.0704961
0.0746793
0.0767945
0.0740195
0.0641787
0.0635561
0.073644
0.07708
0.0751099
0.0709165
0.0600465
0.0639891
0.0745874
0.0772979
0.0761838
0.0726102
0.061717
0.0656116
0.0755369
0.0781016
0.0780132
0.074707
0.0647353
0.0611995
0.0718382
0.0759144
0.0779252
0.075211
0.0648314
0.0621717
0.0730161
0.0765724
0.0783362
0.0757529
0.0660535
0.0658095
0.075471
0.0786164
0.0769559
0.0731654
0.062983
0.0665591
0.0762765
0.0788979
0.0791449
0.0758601
0.0659111
0.0624684
0.0731688
0.0771999
0.0792678
0.076667
0.0660536
0.0638285
0.0747019
0.0781926
0.0801099
0.0776313
0.0678622
0.0669208
0.0768165
0.0799942
0.0778447
0.0738334
0.063448
0.0665809
0.0769471
0.0797238
0.0785305
0.0748736
0.0641754
0.0685246
0.0780085
0.0805576
0.0808024
0.0776418
0.0681238
0.0651524
0.0752103
0.0791092
0.0810272
0.0783592
0.0688471
0.0678825
0.077746
0.0811285
0.0791963
0.0750768
0.0643427
0.0679591
0.0786059
0.0812884
0.0801096
0.0764689
0.0655897
0.0693639
0.0794677
0.0820384
0.0818566
0.0784829
0.068313
0.0645808
0.0754622
0.079686
0.0816128
0.0787293
0.0676782
0.0650716
0.0764736
0.0803115
0.082306
0.0797077
0.0696419
0.0691395
0.079208
0.0825223
0.0806188
0.0764852
0.0658744
0.06935
0.0800887
0.0828277
0.0817319
0.0780912
0.0670109
0.0710401
0.0811032
0.083725
0.0836326
0.0802146
0.0701155
0.0663818
0.0773572
0.0815226
0.083598
0.0808585
0.0698805
0.0675451
0.0786066
0.0822931
0.0842994
0.0817686
0.071294
0.068968
0.0794244
0.0828845
0.0846805
0.0820392
0.0721834
0.071409
0.0813218
0.0846357
0.0828071
0.0788274
0.0685438
0.0722471
0.0824287
0.0850112
0.0841261
0.0807039
0.0703431
0.0741453
0.0837002
0.0861515
0.0861147
0.0829514
0.073254
0.0699922
0.0802242
0.08418
0.0861898
0.0835865
0.0732613
0.071057
0.0816735
0.0851384
0.0870324
0.0845638
0.0748334
0.07383
0.0836368
0.0868858
0.0848282
0.0808684
0.070352
0.0736516
0.0840933
0.0867295
0.0853572
0.0817292
0.07097
0.074617
0.0845561
0.0871651
0.0873673
0.0841016
0.0741726
0.0709507
0.0814363
0.0855283
0.0876726
0.0850519
0.0743693
0.0719245
0.0828543
0.0864809
0.0886202
0.0861118
0.0758095
0.073737
0.0840719
0.0874957
0.0892781
0.0868796
0.077272
0.0764098
0.0860579
0.0892241
0.0872404
0.0833647
0.0730003
0.0761296
0.0866729
0.0892483
0.0880527
0.084537
0.0738649
0.0772434
0.0875332
0.0900158
0.0886583
0.0852665
0.0749492
0.0779375
0.0877528
0.0903367
0.0902401
0.0869062
0.0770611
0.0742139
0.0844196
0.0884234
0.090567
0.0879728
0.0778895
0.0758311
0.0861339
0.0896084
0.0915721
0.0891345
0.0795842
0.0786651
0.0883585
0.0915487
0.0896319
0.0855801
0.0753272
0.0783742
0.0889782
0.0916299
0.0903879
0.0867779
0.0759326
0.079624
0.0900247
0.0925139
0.0912962
0.0878536
0.0774522
0.0808331
0.0905554
0.0930378
0.092826
0.0895745
0.0798262
0.0761527
0.0866582
0.0907205
0.0926113
0.0898443
0.0790744
0.0764893
0.0873897
0.0912008
0.0932064
0.0906131
0.0803124
0.0785624
0.0887404
0.0922138
0.0942777
0.0918528
0.0824576
0.0815348
0.091086
0.0942493
0.0923627
0.0883544
0.0783615
0.0814742
0.0919184
0.0945001
0.093325
0.0897511
0.0790492
0.0826632
0.0929214
0.0954173
0.094248
0.0908227
0.0805805
0.0839329
0.0935749
0.096032
0.0958479
0.0926036
0.0829197
0.0794102
0.0898335
0.0938308
0.0958178
0.0931307
0.0822965
0.0797633
0.0907905
0.0944788
0.0964608
0.0939354
0.0833058
0.0808061
0.0915249
0.0950302
0.0967933
0.094249
0.0842848
0.0837276
0.0936989
0.0969138
0.0950565
0.0909496
0.0806176
0.0839514
0.0945655
0.0971991
0.0960988
0.092493
0.0816899
0.0851429
0.0957708
0.0982818
0.0970476
0.0935402
0.0830311
0.0864155
0.0965996
0.0990386
0.0979042
0.0945442
0.0844536
0.087903
0.0972945
0.0997161
0.0995553
0.096347
0.0869304
0.0835978
0.0936744
0.0975985
0.0995986
0.0969724
0.0865569
0.084114
0.0947584
0.0983574
0.100318
0.0977953
0.0874184
0.0852554
0.0955888
0.0990426
0.100727
0.098214
0.088392
0.0871619
0.0972075
0.100517
0.0986322
0.094473
0.0840718
0.087487
0.0981982
0.100839
0.0997185
0.0960945
0.0851328
0.0887013
0.0994494
0.101921
0.10071
0.0972054
0.0866168
0.0899618
0.100251
0.102708
0.101528
0.0981236
0.0878932
0.0912473
0.10087
0.103297
0.103218
0.10003
0.0904264
0.0869004
0.0972663
0.101255
0.103248
0.100527
0.0897787
0.0873439
0.0982899
0.101991
0.10401
0.101543
0.0908195
0.0885215
0.0991673
0.10266
0.104537
0.102049
0.0917325
0.0895741
0.0998327
0.103241
0.104933
0.10244
0.0926507
0.0916331
0.101589
0.104825
0.102995
0.098915
0.0886466
0.0920537
0.10259
0.105199
0.104093
0.100471
0.0897508
0.0933897
0.103759
0.106264
0.104983
0.101475
0.0911719
0.0944832
0.104509
0.106943
0.105842
0.102503
0.0926282
0.095819
0.105227
0.10763
0.10756
0.104368
0.0949349
0.0915679
0.101748
0.10564
0.107694
0.105047
0.0945201
0.092049
0.102807
0.106444
0.108443
0.105983
0.0952079
0.0929229
0.10365
0.107128
0.109057
0.106597
0.0961999
0.09409
0.10441
0.107801
0.109541
0.107092
0.0973986
0.0962566
0.106041
0.109336
0.107405
0.10335
0.0930517
0.0964585
0.106964
0.109628
0.108527
0.104864
0.0942602
0.0977365
0.10826
0.110754
0.109508
0.106037
0.0955439
0.0987777
0.109076
0.111506
0.110396
0.107039
0.0968509
0.100033
0.109755
0.112189
0.112089
0.108831
0.099131
0.095644
0.10612
0.11014
0.112209
0.10942
0.0986029
0.096054
0.107084
0.110862
0.112931
0.110432
0.0994782
0.0972239
0.108021
0.111618
0.113623
0.111118
0.100571
0.0983632
0.108881
0.112353
0.114144
0.11167
0.101784
0.100709
0.1107
0.11396
0.11192
0.107659
0.0971043
0.100177
0.111248
0.113984
0.112832
0.109071
0.0977621
0.101447
0.1126
0.115152
0.113914
0.110241
0.0992778
0.102658
0.113475
0.116022
0.114742
0.111187
0.100434
0.103867
0.114319
0.116747
0.115639
0.112293
0.101941
0.105273
0.115009
0.117449
0.117393
0.114148
0.104515
0.101106
0.11153
0.115464
0.117548
0.114845
0.103921
0.101326
0.112492
0.116242
0.118397
0.115878
0.104729
0.102432
0.113467
0.117063
0.119013
0.116534
0.105739
0.103567
0.114196
0.117714
0.119655
0.117198
0.106736
0.104686
0.115074
0.118466
0.120237
0.117771
0.10789
0.106908
0.116841
0.120147
0.118253
0.114256
0.103741
0.107039
0.117871
0.120524
0.119351
0.115691
0.104701
0.108005
0.119023
0.121537
0.120334
0.116802
0.105899
0.109304
0.11998
0.122417
0.121117
0.117626
0.107143
0.110327
0.120608
0.12306
0.121972
0.118581
0.108462
0.111945
0.121482
0.123873
0.123779
0.120599
0.111009
0.107564
0.117763
0.121834
0.123842
0.121258
0.110534
0.108102
0.118984
0.12266
0.124814
0.122262
0.111342
0.108975
0.119828
0.123466
0.125415
0.122867
0.112157
0.109891
0.120473
0.124063
0.126032
0.123519
0.113118
0.111052
0.121371
0.124854
0.126706
0.124259
0.114553
0.113761
0.123552
0.126744
0.124879
0.120815
0.110576
0.113463
0.124412
0.127017
0.125915
0.122287
0.111068
0.114508
0.125597
0.128127
0.12687
0.123197
0.112334
0.115774
0.126465
0.128991
0.127712
0.124155
0.113622
0.117027
0.12729
0.129723
0.12858
0.125221
0.115059
0.118388
0.128014
0.130435
0.130393
0.127141
0.117582
0.114159
0.12455
0.128508
0.130661
0.127921
0.117003
0.114542
0.125657
0.129427
0.131619
0.129023
0.117966
0.115542
0.126448
0.130226
0.132288
0.12976
0.11894
0.116722
0.127439
0.131007
0.132968
0.130425
0.119797
0.117827
0.128392
0.131851
0.133822
0.131412
0.121521
0.120618
0.130576
0.133829
0.131961
0.127748
0.117363
0.120435
0.131438
0.134144
0.132914
0.129124
0.117891
0.121421
0.132663
0.135229
0.133923
0.130188
0.119104
0.12269
0.133526
0.136118
0.134867
0.131247
0.120609
0.123899
0.134371
0.136919
0.135711
0.13215
0.121802
0.125315
0.135135
0.137658
0.137571
0.134169
0.124419
0.120909
0.1316
0.13562
0.137922
0.135116
0.124081
0.121607
0.132823
0.136661
0.138846
0.136213
0.124787
0.122389
0.133709
0.1375
0.139636
0.137074
0.125767
0.123527
0.134644
0.138326
0.140416
0.137825
0.126804
0.124749
0.13552
0.139183
0.141305
0.138802
0.128295
0.126204
0.136668
0.140141
0.142056
0.13957
0.129624
0.128721
0.138716
0.142046
0.140265
0.136164
0.125646
0.128734
0.13975
0.14254
0.141225
0.137334
0.12607
0.129763
0.140932
0.143574
0.142308
0.138572
0.127595
0.130962
0.141906
0.144475
0.143215
0.139588
0.128876
0.132308
0.142762
0.145332
0.144213
0.140675
0.130349
0.13383
0.143725
0.146203
0.146175
0.142851
0.132955
0.129468
0.140176
0.144235
0.14647
0.143675
0.132357
0.129944
0.141434
0.145296
0.147643
0.145008
0.133688
0.13138
0.142592
0.146377
0.148646
0.146046
0.134916
0.132623
0.143612
0.147315
0.149429
0.146869
0.136065
0.134119
0.144765
0.14832
0.150394
0.147861
0.137855
0.1369
0.146888
0.150346
0.148433
0.144304
0.133502
0.136728
0.147989
0.150776
0.149526
0.145723
0.134199
0.137695
0.149287
0.151879
0.150635
0.146904
0.13552
0.139136
0.150338
0.152927
0.151657
0.147937
0.136941
0.140514
0.151264
0.153823
0.152677
0.149101
0.138497
0.142038
0.1521
0.154666
0.154679
0.15121
0.141238
0.137692
0.148714
0.152793
0.155187
0.152339
0.140884
0.138323
0.15004
0.153927
0.156235
0.153655
0.141883
0.139514
0.151215
0.154985
0.15735
0.154776
0.143405
0.141446
0.152501
0.156185
0.158386
0.155839
0.144952
0.14266
0.153544
0.157127
0.159094
0.15651
0.146219
0.145391
0.155627
0.159113
0.157203
0.153063
0.141989
0.145365
0.156771
0.159599
0.158398
0.154485
0.142973
0.146588
0.158147
0.160879
0.159579
0.155722
0.144236
0.147879
0.159254
0.161915
0.160662
0.156898
0.145727
0.149215
0.160242
0.162896
0.161799
0.158111
0.147272
0.151206
0.161417
0.163953
0.163988
0.160532
0.15032
0.146683
0.157906
0.162049
0.164508
0.161612
0.150075
0.147592
0.159369
0.163309
0.165733
0.163071
0.151357
0.149241
0.160777
0.164615
0.167113
0.164452
0.153034
0.151098
0.162294
0.166025
0.168374
0.165886
0.154786
0.152507
0.163519
0.167125
0.169174
0.166577
0.156217
0.155311
0.165641
0.169165
0.167272
0.163103
0.151967
0.155232
0.166799
0.169659
0.168396
0.16444
0.152728
0.156663
0.168264
0.170936
0.169679
0.165886
0.154478
0.158046
0.169327
0.171997
0.170822
0.167056
0.156097
0.159743
0.170522
0.173152
0.172044
0.168398
0.157743
0.16146
0.171607
0.174188
0.174291
0.170821
0.16051
0.157455
0.168143
0.172579
0.174971
0.172229
0.160734
0.15804
0.169792
0.173767
0.176236
0.173585
0.161978
0.159856
0.171307
0.175121
0.177627
0.174997
0.163852
0.162048
0.173079
0.176728
0.179117
0.176693
0.166517
0.165647
0.175875
0.179264
0.17736
0.173146
0.162121
0.165384
0.176898
0.179806
0.178404
0.174385
0.162649
0.166385
0.178092
0.180856
0.179554
0.175638
0.164021
0.167819
0.179306
0.182009
0.180821
0.176988
0.165779
0.169569
0.180541
0.183197
0.182132
0.178462
0.167619
0.171588
0.181795
0.184375
0.184558
0.181071
0.170784
0.167632
0.178499
0.18279