/*--------------------------------*- C++ -*----------------------------------*\
| =========                 |                                                 |
| \\      /  F ield         | OpenFOAM: The Open Source CFD Toolbox           |
|  \\    /   O peration     | Version:  v2006                                 |
|   \\  /    A nd           | Website:  www.openfoam.com                      |
|    \\/     M anipulation  |                                                 |
\*---------------------------------------------------------------------------*/
FoamFile
{
    version     2.0;
    format      ascii;
    class       volScalarField;
    location    "0.08";
    object      T;
}
// * * * * * * * * * * * * * * * * * * * * * * * * * * * * * * * * * * * * * //

dimensions      [0 0 0 1 0 0 0];


internalField   nonuniform List<scalar> 
23013
(
299.273
299.273
299.273
299.273
299.273
299.273
299.273
299.273
299.274
299.275
299.276
299.278
299.28
299.282
299.284
299.286
299.288
299.29
299.292
299.295
299.297
299.299
299.302
299.305
299.307
299.31
299.313
299.316
299.319
299.322
299.325
299.329
299.332
299.335
299.339
299.343
299.346
299.35
299.354
299.358
299.361
299.365
299.369
299.374
299.378
299.382
299.386
299.39
299.395
299.399
299.403
299.408
299.412
299.417
299.421
299.426
299.43
299.435
299.439
299.444
299.448
299.453
299.458
299.462
299.467
299.471
299.476
299.48
299.485
299.489
299.494
299.498
299.502
299.507
299.511
299.515
299.519
299.524
299.528
299.532
299.536
299.54
299.543
299.547
299.551
299.555
299.558
299.562
299.565
299.568
299.572
299.575
299.578
299.581
299.584
299.587
299.589
299.592
299.594
299.597
299.599
299.601
299.604
299.606
299.608
299.609
299.611
299.613
299.614
299.615
299.615
299.615
299.615
299.615
299.615
299.615
299.615
299.616
299.617
299.619
299.622
299.626
299.641
299.644
299.626
299.62
299.621
299.628
299.652
299.657
299.629
299.621
299.622
299.632
299.661
299.665
299.634
299.623
299.625
299.636
299.666
299.669
299.638
299.626
299.628
299.64
299.67
299.672
299.642
299.628
299.635
299.643
299.664
299.669
299.644
299.633
299.634
299.646
299.669
299.667
299.646
299.636
299.631
299.648
299.674
299.674
299.649
299.632
299.642
299.649
299.663
299.668
299.65
299.639
299.643
299.651
299.664
299.663
299.652
299.646
299.637
299.653
299.674
299.675
299.653
299.636
299.649
299.653
299.66
299.663
299.655
299.65
299.64
299.656
299.677
299.675
299.656
299.64
299.654
299.656
299.661
299.663
299.657
299.654
299.643
299.658
299.677
299.674
299.659
299.646
299.658
299.659
299.663
299.664
299.66
299.657
299.649
299.661
299.676
299.674
299.663
299.651
299.662
299.663
299.665
299.671
299.665
299.659
299.661
299.664
299.669
299.674
299.666
299.659
299.665
299.666
299.669
299.673
299.668
299.664
299.66
299.669
299.678
299.678
299.67
299.661
299.67
299.67
299.674
299.678
299.673
299.668
299.671
299.673
299.676
299.679
299.675
299.67
299.675
299.675
299.677
299.681
299.678
299.674
299.678
299.678
299.679
299.683
299.681
299.677
299.681
299.681
299.681
299.686
299.683
299.68
299.684
299.683
299.683
299.689
299.686
299.683
299.687
299.687
299.687
299.691
299.689
299.686
299.69
299.689
299.689
299.694
299.692
299.689
299.694
299.693
299.691
299.696
299.695
299.693
299.695
299.696
299.697
299.699
299.698
299.697
299.693
299.7
299.707
299.705
299.702
299.697
299.704
299.702
299.701
299.705
299.705
299.703
299.71
299.706
299.702
299.709
299.709
299.708
299.707
299.71
299.712
299.714
299.712
299.71
299.713
299.713
299.713
299.716
299.716
299.714
299.722
299.716
299.711
299.717
299.719
299.72
299.716
299.72
299.722
299.722
299.722
299.72
299.724
299.723
299.721
299.724
299.726
299.724
299.731
299.726
299.72
299.727
299.729
299.728
299.733
299.728
299.724
299.73
299.731
299.731
299.735
299.731
299.726
299.729
299.733
299.736
299.73
299.734
299.737
299.732
299.735
299.737
299.733
299.736
299.739
299.735
299.737
299.738
299.735
299.737
299.738
299.733
299.737
299.741
299.736
299.737
299.739
299.742
299.738
299.733
299.741
299.736
299.731
299.741
299.737
299.733
299.73
299.736
299.742
299.725
299.734
299.742
299.739
299.732
299.729
299.742
299.732
299.723
299.726
299.729
299.732
299.72
299.727
299.734
299.728
299.724
299.724
299.729
299.722
299.715
299.715
299.717
299.721
299.706
299.714
299.721
299.712
299.709
299.71
299.705
299.707
299.71
299.704
299.7
299.701
299.708
299.698
299.688
299.688
299.691
299.697
299.698
299.687
299.677
299.675
299.679
299.684
299.686
299.676
299.667
299.663
299.668
299.676
299.675
299.664
299.658
299.651
299.656
299.667
299.659
299.652
299.649
299.641
299.643
299.65
299.653
299.639
299.627
299.623
299.63
299.641
299.642
299.626
299.614
299.611
299.619
299.632
299.632
299.616
299.604
299.598
299.607
299.622
299.614
299.603
299.597
299.588
299.594
299.607
299.608
299.59
299.577
299.572
299.582
299.599
299.597
299.579
299.567
299.562
299.572
299.589
299.587
299.569
299.557
299.552
299.561
299.578
299.578
299.558
299.544
299.541
299.551
299.569
299.57
299.549
299.535
299.53
299.543
299.563
299.558
299.54
299.529
299.521
299.535
299.555
299.55
299.532
299.52
299.513
299.527
299.548
299.543
299.525
299.513
299.506
299.521
299.543
299.537
299.52
299.507
299.501
299.516
299.536
299.532
299.514
299.501
299.497
299.511
299.531
299.529
299.51
299.496
299.492
299.508
299.529
299.526
299.507
299.493
299.493
299.504
299.521
299.525
299.505
299.486
299.491
299.502
299.517
299.52
299.502
299.489
299.481
299.502
299.525
299.515
299.501
299.488
299.482
299.5
299.522
299.517
299.5
299.486
299.492
299.498
299.507
299.517
299.499
299.483
299.485
299.497
299.511
299.502
299.497
299.492
299.482
299.497
299.515
299.511
299.497
299.484
299.492
299.496
299.501
299.513
299.497
299.483
299.488
299.495
299.502
299.505
299.496
299.487
299.475
299.495
299.517
299.506
299.495
299.484
299.491
299.493
299.498
299.51
299.495
299.481
299.487
299.493
299.499
299.499
299.494
299.489
299.476
299.494
299.513
299.502
299.494
299.485
299.489
299.492
299.497
299.508
299.494
299.48
299.484
299.492
299.5
299.493
299.492
299.491
299.483
299.492
299.502
299.5
299.492
299.484
299.482
299.492
299.502
299.496
299.492
299.487
299.48
299.491
299.503
299.499
299.492
299.483
299.492
299.49
299.489
299.502
299.492
299.482
299.481
299.491
299.499
299.489
299.49
299.491
299.481
299.49
299.5
299.499
299.491
299.481
299.491
299.489
299.486
299.498
299.491
299.483
299.487
299.489
299.49
299.497
299.49
299.484
299.478
299.489
299.499
299.498
299.49
299.48
299.488
299.488
299.489
299.498
299.49
299.482
299.486
299.488
299.491
299.497
299.49
299.482
299.486
299.488
299.489
299.49
299.489
299.487
299.477
299.489
299.502
299.491
299.489
299.485
299.483
299.488
299.494
299.501
299.489
299.476
299.486
299.487
299.488
299.496
299.488
299.482
299.475
299.487
299.501
299.484
299.487
299.49
299.479
299.486
299.495
299.471
299.485
299.502
299.477
299.486
299.497
299.484
299.485
299.488
299.484
299.485
299.489
299.489
299.486
299.485
299.475
299.466
299.46
299.458
299.458
299.458
299.458
299.459
299.46
299.462
299.464
299.467
299.469
299.472
299.477
299.483
299.485
299.493
299.512
299.517
299.515
299.51
299.514
299.518
299.516
299.515
299.518
299.517
299.51
299.512
299.513
299.516
299.517
299.51
299.525
299.523
299.517
299.515
299.517
299.52
299.512
299.514
299.514
299.518
299.522
299.522
299.521
299.517
299.515
299.516
299.516
299.516
299.513
299.516
299.515
299.519
299.526
299.529
299.526
299.519
299.515
299.515
299.512
299.511
299.515
299.519
299.517
299.518
299.525
299.529
299.528
299.52
299.516
299.515
299.512
299.511
299.515
299.519
299.517
299.519
299.526
299.53
299.528
299.521
299.516
299.515
299.512
299.511
299.515
299.519
299.518
299.519
299.527
299.531
299.53
299.521
299.516
299.516
299.512
299.511
299.515
299.519
299.518
299.52
299.528
299.531
299.531
299.522
299.517
299.516
299.512
299.511
299.515
299.52
299.519
299.52
299.529
299.532
299.531
299.522
299.517
299.516
299.513
299.511
299.517
299.522
299.519
299.52
299.528
299.533
299.53
299.521
299.517
299.517
299.515
299.513
299.519
299.523
299.52
299.52
299.527
299.531
299.527
299.521
299.517
299.518
299.518
299.517
299.524
299.525
299.52
299.52
299.525
299.529
299.523
299.52
299.518
299.52
299.521
299.521
299.528
299.526
299.521
299.52
299.523
299.527
299.521
299.52
299.519
299.521
299.525
299.525
299.53
299.526
299.521
299.52
299.522
299.525
299.522
299.522
299.52
299.521
299.527
299.529
299.53
299.526
299.521
299.521
299.522
299.523
299.524
299.525
299.521
299.522
299.528
299.53
299.529
299.525
299.521
299.522
299.524
299.525
299.528
299.527
299.522
299.523
299.527
299.53
299.527
299.525
299.522
299.523
299.527
299.529
299.532
299.528
299.523
299.523
299.526
299.529
299.528
299.526
299.523
299.525
299.53
299.532
299.535
299.529
299.524
299.524
299.526
299.528
299.528
299.527
299.524
299.526
299.532
299.536
299.536
299.531
299.525
299.525
299.527
299.529
299.53
299.53
299.526
299.527
299.534
299.538
299.537
299.531
299.525
299.526
299.529
299.53
299.534
299.533
299.527
299.528
299.534
299.538
299.536
299.532
299.527
299.528
299.532
299.534
299.538
299.535
299.529
299.529
299.535
299.539
299.536
299.533
299.528
299.529
299.535
299.538
299.542
299.537
299.53
299.53
299.535
299.539
299.539
299.535
299.53
299.531
299.538
299.541
299.544
299.538
299.531
299.532
299.537
299.541
299.541
299.538
299.531
299.533
299.541
299.545
299.546
299.54
299.533
299.533
299.539
299.544
299.545
299.541
299.533
299.535
299.543
299.548
299.548
299.542
299.534
299.535
299.542
299.547
299.549
299.544
299.535
299.536
299.546
299.551
299.551
299.545
299.536
299.537
299.546
299.552
299.553
299.547
299.537
299.538
299.548
299.553
299.554
299.548
299.538
299.539
299.55
299.556
299.558
299.551
299.539
299.54
299.551
299.557
299.558
299.552
299.541
299.542
299.555
299.561
299.563
299.556
299.542
299.543
299.557
299.563
299.565
299.558
299.544
299.545
299.561
299.568
299.57
299.562
299.544
299.545
299.564
299.573
299.577
299.566
299.546
299.546
299.567
299.578
299.581
299.568
299.546
299.547
299.571
299.585
299.592
299.574
299.548
299.548
299.574
299.593
299.594
299.574
299.547
299.548
299.577
299.596
299.601
299.579
299.547
299.546
299.579
299.603
299.604
299.58
299.544
299.543
299.583
299.612
299.612
299.58
299.541
299.54
299.579
299.611
299.612
299.581
299.539
299.538
299.581
299.616
299.617
299.579
299.534
299.532
299.576
299.614
299.616
299.575
299.528
299.524
299.568
299.612
299.595
299.555
299.517
299.516
299.556
299.597
299.601
299.555
299.515
299.513
299.547
299.603
299.6
299.537
299.511
299.509
299.539
299.601
299.604
299.544
299.509
299.511
299.528
299.603
299.623
299.497
299.532
299.522
299.478
299.736
299.583
299.591
299.528
299.531
299.573
299.611
299.617
299.579
299.533
299.528
299.574
299.618
299.613
299.572
299.527
299.527
299.575
299.619
299.623
299.578
299.527
299.529
299.578
299.634
299.64
299.579
299.528
299.526
299.577
299.644
299.646
299.576
299.527
299.527
299.578
299.645
299.638
299.582
299.527
299.529
299.587
299.621
299.617
299.583
299.531
299.529
299.575
299.617
299.618
299.575
299.529
299.531
299.601
299.603
299.615
299.668
299.569
299.549
299.594
299.681
299.657
299.6
299.542
299.549
299.614
299.675
299.672
299.613
299.544
299.547
299.619
299.684
299.687
299.61
299.547
299.549
299.595
299.706
299.709
299.595
299.544
299.54
299.594
299.706
299.709
299.58
299.543
299.568
299.533
299.729
299.879
299.573
299.547
299.562
299.644
299.657
299.652
299.623
299.576
299.571
299.624
299.667
299.672
299.617
299.569
299.566
299.611
299.674
299.683
299.603
299.561
299.558
299.606
299.692
299.693
299.6
299.561
299.58
299.575
299.697
299.773
299.679
299.59
299.573
299.671
299.731
299.748
299.636
299.567
299.567
299.634
299.75
299.772
299.633
299.561
299.557
299.632
299.778
299.78
299.605
299.561
299.589
299.555
299.802
300.013
299.639
299.563
299.579
299.691
299.748
299.771
299.64
299.591
299.574
299.63
299.782
299.782
299.63
299.571
299.572
299.613
299.784
299.829
299.568
299.599
299.563
299.641
300.022
299.75
299.702
299.589
299.605
299.663
299.786
299.801
299.658
299.59
299.586
299.65
299.802
299.816
299.638
299.592
299.617
299.598
299.836
299.979
299.716
299.604
299.592
299.703
299.803
299.859
299.656
299.591
299.591
299.66
299.864
299.825
299.653
299.568
299.627
299.766
300.065
299.797
299.67
299.607
299.604
299.657
299.792
299.855
299.676
299.615
299.59
299.673
299.828
300.028
299.726
299.649
299.641
299.686
299.796
299.774
299.675
299.64
299.64
299.682
299.79
299.78
299.703
299.627
299.687
299.721
299.933
299.846
299.7
299.654
299.652
299.688
299.845
299.883
299.639
299.661
299.621
299.745
300.041
299.867
299.709
299.656
299.641
299.719
299.886
300.211
299.673
299.713
299.705
299.745
299.813
299.798
299.733
299.722
299.723
299.73
299.811
299.985
299.737
299.739
299.723
299.808
299.886
300.113
299.77
299.76
299.815
299.828
299.856
299.821
299.83
299.84
299.869
299.872
299.87
299.881
299.885
299.892
299.919
299.913
299.911
299.922
299.928
299.932
299.918
299.913
299.907
299.896
299.894
299.897
299.856
299.853
299.864
299.814
299.821
299.823
299.785
299.788
299.795
299.776
299.773
299.773
299.76
299.761
299.773
299.753
299.736
299.732
299.73
299.736
299.753
299.717
299.707
299.708
299.713
299.726
299.712
299.927
299.697
299.627
299.691
299.565
299.842
299.789
299.7
299.671
299.668
299.677
299.75
299.753
299.678
299.663
299.689
299.704
299.728
299.71
299.696
299.667
299.669
299.714
299.693
299.787
299.736
299.641
299.673
299.616
299.779
299.704
299.714
299.668
299.57
299.646
300.08
299.914
299.525
299.659
299.612
299.713
299.773
300.372
299.613
299.522
299.638
299.454
300.054
299.993
299.717
299.623
299.599
299.622
299.832
299.825
299.653
299.606
299.611
299.696
299.869
300.204
299.718
299.657
299.58
299.699
299.883
299.819
299.716
299.62
299.523
299.669
300.156
299.945
299.54
299.636
299.602
299.599
299.962
300.041
299.73
299.661
299.59
299.7
299.838
299.779
299.722
299.62
299.567
299.709
299.991
299.884
299.591
299.648
299.623
299.623
299.903
299.851
299.726
299.692
299.622
299.707
299.755
299.721
299.713
299.631
299.607
299.718
299.782
299.776
299.621
299.655
299.64
299.646
299.777
299.767
299.714
299.682
299.639
299.676
299.736
299.72
299.681
299.636
299.65
299.673
299.675
299.688
299.665
299.645
299.653
299.68
299.703
299.696
299.676
299.658
299.643
299.657
299.692
299.69
299.661
299.64
299.648
299.666
299.684
299.678
299.65
299.637
299.634
299.654
299.68
299.68
299.665
299.648
299.633
299.644
299.67
299.685
299.654
299.631
299.647
299.667
299.684
299.67
299.643
299.632
299.63
299.653
299.682
299.682
299.665
299.646
299.632
299.644
299.67
299.68
299.651
299.631
299.641
299.66
299.679
299.664
299.638
299.628
299.625
299.644
299.676
299.677
299.659
299.638
299.625
299.636
299.664
299.68
299.645
299.624
299.639
299.662
299.682
299.667
299.637
299.624
299.621
299.644
299.678
299.676
299.657
299.632
299.62
299.632
299.66
299.672
299.639
299.619
299.633
299.654
299.673
299.659
299.631
299.62
299.619
299.64
299.675
299.678
299.657
299.634
299.619
299.63
299.66
299.67
299.636
299.614
299.628
299.652
299.672
299.656
299.627
299.616
299.608
299.628
299.661
299.675
299.651
299.625
299.611
299.621
299.663
299.657
299.661
299.612
299.607
299.676
299.665
299.68
299.585
299.621
299.612
299.653
299.635
299.721
299.682
299.572
299.613
299.542
299.716
299.58
299.662
299.592
299.464
299.562
300.1
299.909
299.364
299.592
299.555
299.62
299.857
299.73
299.565
299.554
299.54
299.58
299.743
299.749
299.659
299.566
299.573
299.6
299.684
299.687
299.621
299.579
299.605
299.64
299.676
299.645
299.606
299.591
299.571
299.632
299.674
299.811
299.63
299.637
299.529
299.666
299.661
299.773
299.638
299.564
299.561
299.579
299.682
299.696
299.605
299.562
299.587
299.65
299.693
299.653
299.599
299.575
299.574
299.606
299.664
299.657
299.619
299.583
299.577
299.591
299.629
299.65
299.623
299.553
299.609
299.628
299.855
299.661
299.644
299.504
299.545
299.623
299.791
299.683
299.561
299.545
299.544
299.582
299.686
299.672
299.625
299.553
299.562
299.586
299.636
299.652
299.612
299.543
299.596
299.605
299.855
299.655
299.633
299.487
299.532
299.59
299.808
299.681
299.527
299.523
299.534
299.582
299.644
299.735
299.633
299.477
299.545
299.447
299.726
299.692
299.585
299.541
299.535
299.552
299.639
299.641
299.55
299.519
299.523
299.571
299.633
299.596
299.543
299.528
299.518
299.566
299.622
299.693
299.53
299.601
299.487
299.622
299.563
299.68
299.573
299.516
299.506
299.517
299.608
299.615
299.558
299.509
299.506
299.594
299.612
299.612
299.499
299.527
299.533
299.56
299.599
299.581
299.53
299.517
299.509
299.545
299.601
299.591
299.542
299.505
299.508
299.522
299.552
299.577
299.547
299.486
299.54
299.537
299.827
299.589
299.6
299.436
299.489
299.499
299.768
299.616
299.483
299.486
299.469
299.517
299.647
299.79
299.502
299.551
299.446
299.6
299.592
299.744
299.524
299.485
299.47
299.467
299.617
299.537
299.531
299.478
299.36
299.564
299.875
299.804
299.278
299.476
299.441
299.543
299.715
299.619
299.478
299.451
299.425
299.507
299.644
299.878
299.507
299.508
299.415
299.609
299.502
299.749
299.379
299.49
299.456
299.435
299.546
299.558
299.469
299.452
299.454
299.47
299.542
299.529
299.47
299.449
299.453
299.482
299.52
299.504
299.457
299.443
299.451
299.477
299.521
299.509
299.448
299.439
299.447
299.485
299.514
299.518
299.525
299.416
299.444
299.397
299.54
299.511
299.468
299.44
299.434
299.45
299.492
299.534
299.453
299.43
299.504
299.4
299.495
299.407
299.526
299.408
299.44
299.476
299.518
299.484
299.43
299.421
299.431
299.472
299.41
299.723
299.48
299.287
299.419
299.174
299.691
299.501
299.499
299.382
299.39
299.41
299.503
299.524
299.447
299.397
299.382
299.392
299.477
299.51
299.402
299.379
299.478
299.367
299.506
299.4
299.503
299.373
299.407
299.425
299.515
299.462
299.404
299.392
299.394
299.419
299.464
299.462
299.398
299.388
299.388
299.425
299.464
299.472
299.431
299.397
299.384
299.389
299.449
299.458
299.418
299.392
299.377
299.384
299.441
299.396
299.429
299.391
299.257
299.484
299.621
299.669
299.158
299.384
299.34
299.436
299.527
299.482
299.359
299.34
299.356
299.413
299.495
299.445
299.367
299.348
299.338
299.364
299.484
299.564
299.28
299.436
299.321
299.496
299.356
299.556
299.333
299.377
299.349
299.345
299.438
299.431
299.365
299.343
299.336
299.34
299.411
299.385
299.387
299.354
299.234
299.469
299.462
299.588
299.16
299.347
299.307
299.391
299.465
299.427
299.322
299.308
299.322
299.371
299.44
299.403
299.336
299.317
299.305
299.329
299.449
299.528
299.222
299.401
299.283
299.473
299.285
299.515
299.267
299.343
299.313
299.301
299.393
299.408
299.327
299.31
299.298
299.299
299.376
299.333
299.347
299.313
299.173
299.428
299.482
299.566
299.055
299.312
299.258
299.372
299.382
299.394
299.284
299.263
299.281
299.338
299.411
299.367
299.284
299.262
299.262
299.299
299.366
299.33
299.272
299.254
299.254
299.28
299.365
299.334
299.235
299.349
299.256
299.381
299.257
299.376
299.285
299.295
299.262
299.276
299.334
299.336
299.291
299.264
299.251
299.259
299.326
299.3
299.298
299.268
299.138
299.413
299.359
299.505
299.047
299.266
299.215
299.319
299.353
299.353
299.238
299.219
299.238
299.291
299.362
299.326
299.244
299.221
299.224
299.265
299.329
299.289
299.228
299.211
299.207
299.231
299.343
299.401
299.118
299.322
299.2
299.405
299.153
299.388
299.161
299.261
299.221
299.209
299.299
299.292
299.218
299.211
299.195
299.201
299.26
299.281
299.237
299.206
299.198
299.212
299.282
299.278
299.245
299.208
299.151
299.334
299.249
299.354
299.108
299.203
299.176
299.246
299.279
299.268
299.191
299.174
299.188
299.229
299.281
299.268
299.188
299.17
299.176
299.217
299.273
299.239
299.182
299.162
299.155
299.18
299.283
299.293
299.072
299.267
299.149
299.338
299.086
299.306
299.109
299.205
299.164
299.157
299.243
299.24
299.168
299.157
299.139
299.148
299.206
299.223
299.178
299.148
299.138
299.163
299.212
299.27
299.173
299.139
299.225
299.107
299.217
299.116
299.256
299.119
299.156
299.155
299.221
299.213
299.141
299.125
299.13
299.158
299.214
299.197
299.124
299.113
299.119
299.152
299.205
299.185
299.137
299.111
299.102
299.141
299.26
299.412
298.912
299.226
299.068
299.385
298.949
299.289
298.981
299.154
299.106
299.081
299.181
299.17
299.079
299.086
299.069
299.07
299.137
299.161
299.113
299.08
299.072
299.083
299.153
299.129
299.141
299.099
298.933
299.268
299.208
299.385
298.755
299.1
299.01
299.145
299.115
299.151
299.046
299.027
299.047
299.105
299.168
299.162
299.055
299.033
299.04
299.089
299.164
299.118
299.034
299.015
299.017
299.055
299.121
299.088
299.032
299.011
299.007
299.044
299.15
299.265
298.83
299.142
298.988
299.27
298.889
299.205
298.93
299.061
299.016
299.001
299.114
299.101
299.004
299.005
298.982
298.984
299.073
299.075
299.021
298.989
298.981
298.997
299.077
299.089
299.034
298.996
298.983
299.012
299.073
299.106
299.005
298.97
299.083
298.885
299.116
298.923
299.133
298.939
298.999
298.971
299.092
299.065
298.973
298.961
298.962
298.991
299.062
299.053
298.954
298.943
298.952
298.99
299.055
299.036
298.953
298.934
298.945
298.989
299.046
299.025
298.945
298.928
298.942
298.994
299.019
298.978
299.107
298.846
298.94
298.715
299.176
298.974
299.01
298.88
298.891
298.911
299.015
299.022
298.962
298.907
298.895
298.917
299.019
299.03
298.956
298.904
298.883
298.906
298.992
298.999
298.936
298.889
298.874
298.888
298.974
298.96
298.932
298.884
298.795
299.079
298.938
299.138
298.705
298.905
298.85
298.95
298.994
298.998
298.87
298.854
298.867
298.919
298.99
298.98
298.869
298.847
298.858
298.907
298.98
298.947
298.852
298.83
298.837
298.886
298.954
298.913
298.842
298.82
298.818
298.862
298.968
298.996
298.692
298.94
298.792
299.046
298.738
298.982
298.776
298.869
298.818
298.826
298.923
298.931
298.839
298.82
298.793
298.801
298.896
298.903
298.834
298.801
298.78
298.799
298.881
298.897
298.837
298.794
298.772
298.789
298.885
298.876
298.851
298.791
298.654
299.026
298.81
299.07
298.522
298.804
298.72
298.848
298.882
298.881
298.746
298.727
298.742
298.803
298.883
298.87
298.749
298.725
298.74
298.797
298.88
298.839
298.743
298.715
298.721
298.779
298.849
298.805
298.726
298.702
298.702
298.759
298.864
298.973
298.469
298.835
298.648
299.046
298.486
298.893
298.578
298.761
298.71
298.702
298.809
298.803
298.694
298.696
298.669
298.676
298.785
298.771
298.703
298.673
298.653
298.672
298.775
298.781
298.709
298.666
298.643
298.667
298.751
298.772
298.706
298.655
298.633
298.66
298.737
298.79
298.672
298.625
298.716
298.562
298.775
298.612
298.764
298.591
298.646
298.662
298.731
298.736
298.635
298.607
298.618
298.664
298.74
298.726
298.608
298.589
298.598
298.648
298.731
298.688
298.597
298.573
298.58
298.633
298.701
298.665
298.585
298.561
298.562
298.626
298.727
298.835
298.322
298.704
298.493
298.831
298.439
298.745
298.5
298.603
298.544
298.555
298.662
298.689
298.575
298.542
298.509
298.524
298.649
298.645
298.56
298.517
298.493
298.512
298.622
298.633
298.556
298.505
298.485
298.511
298.596
298.658
298.558
298.491
298.62
298.316
298.724
298.427
298.685
298.428
298.516
298.489
298.632
298.61
298.484
298.461
298.467
298.51
298.603
298.587
298.45
298.433
298.44
298.493
298.584
298.554
298.437
298.416
298.427
298.482
298.566
298.522
298.435
298.41
298.414
298.484
298.601
298.775
298.108
298.576
298.321
298.779
298.175
298.597
298.299
298.456
298.394
298.388
298.531
298.535
298.406
298.388
298.347
298.354
298.484
298.474
298.387
298.347
298.326
298.342
298.451
298.471
298.389
298.341
298.321
298.346
298.436
298.501
298.389
298.322
298.461
298.143
298.587
298.263
298.532
298.253
298.344
298.316
298.458
298.424
298.315
298.289
298.297
298.344
298.443
298.419
298.278
298.258
298.264
298.321
298.419
298.376
298.261
298.237
298.242
298.302
298.386
298.34
298.247
298.222
298.227
298.302
298.418
298.574
297.937
298.394
298.13
298.561
298.046
298.414
298.146
298.268
298.202
298.209
298.348
298.361
298.233
298.199
298.159
298.177
298.297
298.313
298.21
298.159
298.132
298.156
298.264
298.279
298.196
298.146
298.121
298.147
298.242
298.297
298.185
298.119
298.247
297.997
298.384
298.112
298.287
298.063
298.142
298.147
298.262
298.242
298.121
298.087
298.105
298.163
298.264
298.24
298.091
298.064
298.071
298.138
298.239
298.185
298.072
298.042
298.05
298.112
298.201
298.173
298.044
298.02
298.025
298.097
298.169
298.051
298.344
297.918
298.048
297.808
298.333
298.194
298.106
297.968
297.966
297.985
298.17
298.176
298.051
297.98
297.95
297.98
298.112
298.124
298.025
297.96
297.926
297.952
298.059
298.146
298.01
297.93
298.067
297.728
298.225
297.893
298.113
297.853
297.941
297.945
298.063
298.027
297.927
297.885
297.902
297.964
298.058
298.052
297.89
297.861
297.874
297.94
298.055
297.993
297.868
297.835
297.847
297.913
298.01
297.959
297.841
297.813
297.809
297.895
297.994
297.943
297.963
297.802
297.807
297.755
298.006
297.959
297.89
297.779
297.76
297.786
297.941
297.952
297.844
297.772
297.733
297.764
297.901
297.919
297.812
297.745
297.706
297.736
297.859
297.918
297.772
297.692
297.783
297.66
297.938
297.706
297.828
297.623
297.703
297.694
297.851
297.807
297.691
297.644
297.677
297.734
297.848
297.809
297.66
297.626
297.642
297.717
297.831
297.767
297.635
297.599
297.595
297.673
297.818
297.852
297.571
297.683
297.538
297.728
297.636
297.765
297.622
297.597
297.543
297.592
297.716
297.751
297.63
297.563
297.516
297.554
297.704
297.726
297.606
297.531
297.485
297.517
297.661
297.699
297.571
297.472
297.458
297.664
297.627
297.69
297.415
297.465
297.434
297.555
297.641
297.624
297.424
297.404
297.419
297.49
297.619
297.549
297.39
297.362
297.367
297.425
297.547
297.493
297.359
297.324
297.324
297.404
297.563
297.568
297.446
297.38
297.307
297.365
297.503
297.538
297.411
297.329
297.275
297.316
297.475
297.509
297.376
297.298
297.243
297.278
297.454
297.481
297.355
297.239
297.17
297.532
297.365
297.535
297.092
297.245
297.185
297.348
297.446
297.407
297.188
297.164
297.176
297.27
297.418
297.349
297.168
297.129
297.144
297.224
297.361
297.29
297.13
297.093
297.081
297.176
297.348
297.371
297.08
297.17
297.008
297.204
297.154
297.259
297.084
297.067
296.991
297.049
297.185
297.204
297.045
297.007
296.941
296.98
297.152
297.198
297.073
296.946
296.905
297.196
297.126
297.23
296.868
296.939
296.912
297.059
297.193
297.131
296.909
296.877
296.894
296.987
297.157
297.066
296.881
296.838
296.838
296.944
297.133
297.321
296.573
297.028
296.723
297.08
296.799
297.036
296.821
296.839
296.758
296.811
296.951
296.985
296.844
296.781
296.701
296.749
296.929
296.953
296.799
296.718
296.656
296.695
296.872
296.914
296.745
296.628
296.677
296.761
296.883
296.795
296.62
296.567
296.576
296.655
296.802
296.705
296.526
296.494
296.506
296.584
296.732
296.664
296.493
296.453
296.459
296.555
296.743
296.777
296.555
296.524
296.429
296.503
296.664
296.707
296.553
296.457
296.393
296.437
296.627
296.698
296.494
296.375
296.516
296.308
296.805
296.471
296.523
296.29
296.371
296.416
296.612
296.52
296.349
296.279
296.301
296.396
296.549
296.469
296.277
296.231
296.208
296.333
296.545
296.563
296.234
296.301
296.114
296.319
296.311
296.433
296.199
296.178
296.062
296.143
296.319
296.346
296.145
296.075
295.987
296.042
296.236
296.243
296.024
295.917
295.989
296.109
296.253
296.173
295.985
295.914
295.969
296.066
296.247
296.151
295.929
295.869
295.865
296
296.238
296.313
295.867
295.986
295.79
296.009
296.023
296.154
295.921
295.862
295.765
295.846
296.047
296.086
295.89
295.793
295.714
295.764
295.988
296.043
295.828
295.681
295.723
295.891
295.995
295.932
295.674
295.618
295.631
295.751
295.945
295.843
295.596
295.543
295.491
295.637
295.891
295.858
295.685
295.557
295.401
295.476
295.725
295.711
295.495
295.395
295.291
295.338
295.569
295.615
295.352
295.229
295.347
295.469
295.666
295.584
295.325
295.246
295.287
295.426
295.646
295.527
295.255
295.185
295.185
295.364
295.636
295.44
295.618
295.099
295.159
295.032
295.594
295.489
295.352
295.108
295.038
295.078
295.438
295.439
295.205
295.055
294.953
295.003
295.311
295.36
295.079
294.913
294.966
295.113
295.315
295.177
294.919
294.848
294.775
294.98
295.249
294.908
295.377
294.591
294.738
294.497
295.231
294.958
294.855
294.579
294.505
294.528
294.863
294.893
294.572
294.41
294.56
294.724
294.989
294.883
294.546
294.446
294.498
294.671
294.941
294.795
294.466
294.381
294.367
294.57
294.899
294.771
294.751
294.357
294.314
294.295
294.79
294.734
294.519
294.305
294.215
294.258
294.622
294.683
294.355
294.151
294.256
294.397
294.649
294.462
294.167
294.042
294.061
294.225
294.491
294.344
294.011
293.94
293.852
294.041
294.36
294.258
294.008
293.866
293.693
293.792
294.089
293.988
293.636
293.51
293.366
294.27
293.834
294.114
293.482
293.533
293.582
293.774
294.166
293.971
293.559
293.44
293.426
293.603
294.119
294.135
293.766
293.544
293.369
293.508
293.894
293.996
293.591
293.327
293.52
293.418
294.074
293.634
293.461
293.17
293.243
293.362
293.786
293.542
293.187
293.08
293.005
293.232
293.628
293.525
293.248
293.046
292.857
292.968
293.336
293.38
292.976
292.734
292.691
293.003
293.159
292.965
292.516
292.487
292.34
292.584
292.997
293.142
292.814
292.573
292.402
292.542
293.012
293.103
292.727
292.492
292.321
292.46
292.911
293.038
292.495
292.261
292.374
292.679
293.005
292.775
292.33
292.175
292.074
292.353
292.856
292.805
292.47
292.188
291.959
292.12
292.551
292.627
292.155
291.84
291.896
292.188
292.481
292.283
291.754
291.628
291.448
291.725
292.212
292.159
291.636
291.382
291.066
291.226
291.664
291.955
291.428
291.088
291.255
291.679
292.004
291.904
291.254
291.165
291.106
291.43
292.028
292.183
291.373
291.355
290.972
291.241
291.643
291.865
291.271
290.925
290.987
291.414
291.676
291.508
290.829
290.764
290.589
291.007
291.495
291.468
290.878
290.719
290.334
290.625
290.959
291.014
290.352
290.069
289.923
290.482
290.78
290.246
289.661
289.562
289.669
290.076
290.685
290.607
290.342
289.835
289.751
289.906
290.655
290.731
289.981
289.662
289.723
290.141
290.91
290.511
290.543
289.546
289.555
289.517
290.526
290.443
289.819
289.307
289.498
289.538
290.444
289.759
289.344
288.965
288.662
289.015
289.91
289.489
289.082
288.489
288.045
288.182
288.828
289.152
288.32