/*--------------------------------*- C++ -*----------------------------------*\
| =========                 |                                                 |
| \\      /  F ield         | OpenFOAM: The Open Source CFD Toolbox           |
|  \\    /   O peration     | Version:  v2006                                 |
|   \\  /    A nd           | Website:  www.openfoam.com                      |
|    \\/     M anipulation  |                                                 |
\*---------------------------------------------------------------------------*/
FoamFile
{
    version     2.0;
    format      ascii;
    class       volScalarField;
    location    "0.08";
    object      turbulenceProperties:L;
}
// * * * * * * * * * * * * * * * * * * * * * * * * * * * * * * * * * * * * * //

dimensions      [0 1 0 0 0 0 0];


internalField   nonuniform List<scalar> 
23013
(
1999.06
1999.02
1999.36
1999.47
1999.66
1999.58
1999.66
1999.6
1999.43
1999.06
1998.53
1997.94
1997.38
1996.89
1996.47
1996.1
1995.76
1995.44
1995.12
1994.82
1994.51
1994.22
1993.93
1993.64
1993.36
1993.09
1992.82
1992.56
1992.29
1992.03
1991.77
1991.51
1991.26
1991
1990.75
1990.5
1990.25
1990
1989.75
1989.51
1989.27
1989.03
1988.8
1988.57
1988.34
1988.12
1987.9
1987.68
1987.47
1987.27
1987.07
1986.87
1986.68
1986.5
1986.32
1986.15
1985.99
1985.83
1985.68
1985.54
1985.41
1985.28
1985.17
1985.06
1984.96
1984.87
1984.79
1984.72
1984.67
1984.62
1984.59
1984.56
1984.55
1984.56
1984.57
1984.6
1984.65
1984.7
1984.78
1984.86
1984.97
1985.08
1985.22
1985.37
1985.53
1985.71
1985.89
1986.07
1986.2
1986.19
1985.83
1984.58
1981.15
1972.28
1950.05
1902.71
1807.96
1634.81
1360.92
1012.42
668.823
401.299
225.377
122.45
65.7767
35.2461
19.1478
11.1662
8.47383
5.74358
4.44572
3.51087
2.10023
1.40872
0.81114
0.631535
0.709689
0.284905
0.0949482
0.0240448
0.0028718
0.000531262
3.97313e-05
3.75021e-05
0.000257993
0.00113624
0.000594074
0.000166924
3.51446e-05
3.34513e-05
0.000159116
0.000530233
0.000414836
0.000137772
3.25262e-05
3.15559e-05
0.000136734
0.000403007
0.000355567
0.000126178
3.08159e-05
3.03304e-05
0.000128572
0.000355422
0.000331466
0.00012189
2.99587e-05
2.97989e-05
0.000126741
0.000336032
0.00031913
0.000120945
2.95827e-05
2.94768e-05
0.00012481
0.000323642
0.000310225
0.00011952
2.92961e-05
2.92214e-05
0.000123213
0.000314951
0.00030274
0.000118198
2.90648e-05
2.9011e-05
0.000121678
0.000307424
0.000295892
0.000116741
2.88669e-05
2.88227e-05
0.00012008
0.000300463
0.000289509
0.00011531
2.86922e-05
2.86527e-05
0.000118528
0.000293976
0.000283645
0.000113955
2.8531e-05
2.84948e-05
0.00011708
0.000288116
0.000278219
0.000112584
2.8376e-05
2.83425e-05
0.000115679
0.000282696
0.000273306
0.000111388
2.82289e-05
2.81977e-05
0.00011441
0.00027777
0.000268723
0.000110184
2.80839e-05
2.80541e-05
0.000113199
0.000273228
0.000264632
0.000109157
2.7944e-05
2.79157e-05
0.000112106
0.000269128
0.000260778
0.000108106
2.78044e-05
2.7777e-05
0.000111053
0.00026529
0.000257302
0.000107205
2.76682e-05
2.76419e-05
0.000110087
0.000261778
0.000253973
0.000106259
2.75309e-05
2.75063e-05
0.000109144
0.000258442
0.000250886
0.000105444
2.7396e-05
2.73722e-05
0.000108309
0.000255354
0.000248031
0.000104678
2.72642e-05
2.72451e-05
0.000107503
0.000252471
0.000245358
0.000103947
2.71575e-05
2.71446e-05
0.000106695
0.00024971
0.000242638
0.00010309
2.70627e-05
2.70529e-05
0.000105788
0.000246879
0.000239917
0.000102272
2.69742e-05
2.69637e-05
0.000104944
0.000244112
0.000237316
0.000101499
2.68836e-05
2.68727e-05
0.000104135
0.00024146
0.000234784
0.00010074
2.67916e-05
2.67803e-05
0.000103343
0.000238861
0.000232295
0.000100002
2.66979e-05
2.66861e-05
0.000102576
0.000236312
0.000229869
9.92929e-05
2.66024e-05
2.65902e-05
0.000101845
0.000233844
0.000227533
9.86188e-05
2.65049e-05
2.64924e-05
0.000101151
0.000231475
0.000225284
9.79744e-05
2.64054e-05
2.63926e-05
0.000100486
0.000229185
0.000223106
9.73598e-05
2.63038e-05
2.62906e-05
9.98561e-05
0.000226977
0.000221029
9.67976e-05
2.62004e-05
2.61848e-05
9.92616e-05
0.000224843
0.000219019
9.62374e-05
2.60943e-05
2.60791e-05
9.86628e-05
0.000222786
0.000217015
9.5641e-05
2.59835e-05
2.59694e-05
9.80931e-05
0.000220772
0.000215109
9.51306e-05
2.58721e-05
2.58578e-05
9.75666e-05
0.000218862
0.00021336
9.46898e-05
2.57609e-05
2.57444e-05
9.71012e-05
0.000217086
0.000211666
9.42211e-05
2.56436e-05
2.56296e-05
9.66394e-05
0.000215392
0.000210055
9.37756e-05
2.5528e-05
2.5515e-05
9.61912e-05
0.000213791
0.000208646
9.34448e-05
2.5416e-05
2.54015e-05
9.58536e-05
0.00021241
0.000207359
9.31089e-05
2.52984e-05
2.52887e-05
9.55395e-05
0.000211155
0.000206194
9.2813e-05
2.51876e-05
2.51813e-05
9.52456e-05
0.000210035
0.000205249
9.26123e-05
2.50837e-05
2.50812e-05
9.50879e-05
0.000209224
0.000204642
9.25338e-05
2.49875e-05
2.49885e-05
9.50244e-05
0.000208723
0.000204328
9.25354e-05
2.49048e-05
2.49099e-05
9.5023e-05
0.000208488
0.000204268
9.26253e-05
2.48371e-05
2.48487e-05
9.51685e-05
0.000208651
0.000204642
9.28541e-05
2.47893e-05
2.48087e-05
9.54427e-05
0.000209355
0.000205465
9.32098e-05
2.4765e-05
2.47951e-05
9.58623e-05
0.000210518
0.000206686
9.36605e-05
2.47652e-05
2.48106e-05
9.63652e-05
0.000212035
0.00020835
9.42794e-05
2.47938e-05
2.48634e-05
9.70358e-05
0.000214096
0.000210601
9.50486e-05
2.48574e-05
2.49555e-05
9.79155e-05
0.000216876
0.000213457
9.59736e-05
2.49599e-05
2.50724e-05
9.88489e-05
0.000219925
0.000216559
9.69335e-05
2.5093e-05
2.52295e-05
9.98708e-05
0.000223351
0.00022001
9.78974e-05
2.5259e-05
2.54017e-05
0.000100827
0.000226913
0.000223586
9.87312e-05
2.54442e-05
2.55958e-05
0.000101661
0.000230475
0.000227042
9.94308e-05
2.56462e-05
2.58072e-05
0.000102421
0.000234017
0.000230363
0.000100045
2.58562e-05
2.60132e-05
0.000103014
0.000237044
0.000233164
0.000100495
2.60665e-05
2.62204e-05
0.000103451
0.000239635
0.000235546
0.000100818
2.62743e-05
2.64218e-05
0.000103766
0.000241944
0.00023759
0.000101047
2.64757e-05
2.66134e-05
0.000103973
0.000243919
0.000239184
0.000101158
2.66661e-05
2.67985e-05
0.000104077
0.000245389
0.000240231
0.000101134
2.6846e-05
2.69687e-05
0.000104002
0.000246211
0.000240708
0.000100972
2.70134e-05
2.71262e-05
0.000103785
0.000246489
0.000240707
0.000100706
2.71675e-05
2.7268e-05
0.00010346
0.000246282
0.000240221
0.00010034
2.73099e-05
2.74219e-05
0.000103058
0.000245675
0.000239302
9.98781e-05
2.74721e-05
2.75946e-05
0.000102557
0.000244672
0.000238077
9.93584e-05
2.76461e-05
2.77654e-05
0.000102005
0.000243367
0.000236538
9.87594e-05
2.78136e-05
2.79244e-05
0.000101376
0.000241741
0.000234709
9.80928e-05
2.79671e-05
2.8066e-05
0.000100686
0.000239786
0.000232649
9.7448e-05
2.81034e-05
2.81878e-05
9.99862e-05
0.000237567
0.000230383
9.68087e-05
2.82205e-05
2.82933e-05
9.93038e-05
0.000235153
0.000227933
9.61615e-05
2.83193e-05
2.83803e-05
9.86118e-05
0.00023253
0.000225321
9.5528e-05
2.84e-05
2.84496e-05
9.79255e-05
0.000229743
0.000222591
9.48993e-05
2.8463e-05
2.85016e-05
9.72422e-05
0.000226839
0.000219787
9.42844e-05
2.85092e-05
2.85382e-05
9.65726e-05
0.000223878
0.000217029
9.37383e-05
2.85405e-05
2.85593e-05
9.59754e-05
0.000220967
0.000214286
9.31993e-05
2.85565e-05
2.85691e-05
9.54188e-05
0.000218148
0.000211718
9.27297e-05
2.85614e-05
2.85667e-05
9.48999e-05
0.000215412
0.00020929
9.23261e-05
2.85573e-05
2.85593e-05
9.44557e-05
0.000212856
0.000207018
9.19446e-05
2.8543e-05
2.8544e-05
9.40533e-05
0.000210495
0.000204824
9.15827e-05
2.85219e-05
2.8524e-05
9.37016e-05
0.000208284
0.000202923
9.13053e-05
2.84999e-05
2.84999e-05
9.33818e-05
0.000206302
0.000201186
9.10664e-05
2.84742e-05
2.84739e-05
9.31335e-05
0.000204521
0.000199532
9.08321e-05
2.84451e-05
2.84467e-05
9.29266e-05
0.000202877
0.000198065
9.06505e-05
2.84174e-05
2.84182e-05
9.27109e-05
0.000201363
0.000196701
9.05007e-05
2.83909e-05
2.83912e-05
9.25428e-05
0.000200013
0.000195425
9.03199e-05
2.83612e-05
2.8364e-05
9.2387e-05
0.00019878
0.000194279
9.01755e-05
2.83343e-05
2.83357e-05
9.22037e-05
0.000197566
0.000193177
9.0046e-05
2.83082e-05
2.83101e-05
9.20616e-05
0.000196478
0.000192134
8.98874e-05
2.82805e-05
2.82847e-05
9.19281e-05
0.000195489
0.000191217
8.97656e-05
2.82558e-05
2.82584e-05
9.17633e-05
0.000194496
0.000190287
8.9635e-05
2.82308e-05
2.82333e-05
9.16186e-05
0.000193553
0.000189384
8.94951e-05
2.82062e-05
2.8209e-05
9.14711e-05
0.000192647
0.000188542
8.93576e-05
2.81815e-05
2.81849e-05
9.13205e-05
0.000191793
0.000187683
8.9188e-05
2.81561e-05
2.81616e-05
9.1166e-05
0.000190934
0.000186868
8.9047e-05
2.81342e-05
2.81376e-05
9.09802e-05
0.000190052
0.000186056
8.88905e-05
2.811e-05
2.81146e-05
9.08283e-05
0.000189262
0.000185278
8.87229e-05
2.80858e-05
2.80917e-05
9.06775e-05
0.000188484
0.00018454
8.85763e-05
2.80632e-05
2.80687e-05
9.05027e-05
0.00018769
0.000183781
8.84305e-05
2.8042e-05
2.80471e-05
9.03331e-05
0.000186915
0.000183032
8.824e-05
2.80176e-05
2.80235e-05
9.01579e-05
0.000186164
0.000182315
8.80787e-05
2.7995e-05
2.80015e-05
8.99834e-05
0.000185405
0.000181565
8.79041e-05
2.79728e-05
2.79775e-05
8.97891e-05
0.000184623
0.000180861
8.77584e-05
2.79514e-05
2.79561e-05
8.96307e-05
0.000183911
0.000180177
8.75951e-05
2.79289e-05
2.79353e-05
8.94859e-05
0.00018328
0.000179235
8.7305e-05
2.78996e-05
2.79186e-05
8.91086e-05
0.000182628
0.000178468
8.74787e-05
2.79663e-05
2.82557e-05
9.03779e-05
0.000184702
0.000180578
8.94341e-05
2.86242e-05
2.98489e-05
9.34239e-05
0.000192662
0.000208365
9.96553e-05
3.13446e-05
3.25912e-05
9.96672e-05
0.000207751
0.000217511
0.000104788
3.34082e-05
3.43596e-05
0.000105532
0.000220257
0.000554336
0.00104348
0.00156156
0.00189105
0.00263435
0.00306067
0.00340615
0.00352932
0.00348444
0.00331703
0.00296451
0.00259754
0.00193138
0.0016513
0.0012312
0.000900315
0.000817488
0.000503356
0.000250556
0.000104367
4.84089e-05
1.32803e-05
1.26039e-05
4.75199e-05
0.000101673
9.35258e-05
4.39694e-05
1.18127e-05
1.12751e-05
4.31531e-05
9.15417e-05
9.16669e-05
4.30286e-05
1.1143e-05
1.08519e-05
4.16543e-05
8.82339e-05
8.91695e-05
4.18052e-05
1.06673e-05
1.05161e-05
4.09374e-05
8.68343e-05
8.73507e-05
4.10953e-05
1.04552e-05
1.03234e-05
4.04179e-05
8.56703e-05
8.66836e-05
4.07456e-05
1.0323e-05
1.03371e-05
4.05756e-05
8.60689e-05
8.7132e-05
4.07301e-05
1.03384e-05
1.03378e-05
4.03825e-05
8.57996e-05
8.68637e-05
4.06739e-05
1.03424e-05
1.03451e-05
4.05714e-05
8.59643e-05
8.74682e-05
4.07901e-05
1.03507e-05
1.03498e-05
4.04301e-05
8.60476e-05
8.71076e-05
4.07222e-05
1.03546e-05
1.03574e-05
4.06215e-05
8.6203e-05
8.77156e-05
4.08405e-05
1.03631e-05
1.03621e-05
4.04808e-05
8.62871e-05
8.73546e-05
4.07735e-05
1.0367e-05
1.037e-05
4.06731e-05
8.64462e-05
8.79691e-05
4.08928e-05
1.03759e-05
1.03749e-05
4.05338e-05
8.65341e-05
8.76109e-05
4.08279e-05
1.038e-05
1.03831e-05
4.07286e-05
8.66999e-05
8.82335e-05
4.09496e-05
1.03891e-05
1.03881e-05
4.05912e-05
8.67917e-05
8.78791e-05
4.08877e-05
1.03935e-05
1.03968e-05
4.07901e-05
8.69663e-05
8.85113e-05
4.10118e-05
1.04025e-05
1.04015e-05
4.06537e-05
8.70644e-05
8.81639e-05
4.09535e-05
1.04072e-05
1.04109e-05
4.08561e-05
8.72456e-05
8.87974e-05
4.10771e-05
1.04158e-05
1.04148e-05
4.07173e-05
8.73432e-05
8.84579e-05
4.10213e-05
1.04212e-05
1.04253e-05
4.09253e-05
8.75357e-05
8.90854e-05
4.11465e-05
1.04294e-05
1.04285e-05
4.07842e-05
8.76225e-05
8.87536e-05
4.10926e-05
1.04353e-05
1.04393e-05
4.09915e-05
8.78284e-05
8.9391e-05
4.12192e-05
1.0443e-05
1.04429e-05
4.08579e-05
8.79241e-05
8.90687e-05
4.11747e-05
1.04499e-05
1.04535e-05
4.10666e-05
8.81305e-05
8.97055e-05
4.12983e-05
1.04566e-05
1.04579e-05
4.09402e-05
8.82421e-05
8.94017e-05
4.12598e-05
1.04649e-05
1.04668e-05
4.11458e-05
8.84503e-05
9.00371e-05
4.1377e-05
1.04705e-05
1.04733e-05
4.10221e-05
8.85682e-05
8.97275e-05
4.13359e-05
1.04795e-05
1.04805e-05
4.122e-05
8.87598e-05
9.03672e-05
4.14511e-05
1.04851e-05
1.04888e-05
4.11016e-05
8.88877e-05
9.00464e-05
4.14134e-05
1.04943e-05
1.04943e-05
4.12954e-05
8.90668e-05
9.06973e-05
4.15356e-05
1.05005e-05
1.05042e-05
4.11907e-05
8.92144e-05
9.0376e-05
4.15008e-05
1.05087e-05
1.05092e-05
4.13812e-05
8.93923e-05
9.10373e-05
4.16271e-05
1.0516e-05
1.05189e-05
4.12783e-05
8.95371e-05
9.07017e-05
4.15867e-05
1.05226e-05
1.05243e-05
4.14694e-05
8.97189e-05
9.13702e-05
4.17139e-05
1.05311e-05
1.05327e-05
4.13584e-05
8.98516e-05
9.10218e-05
4.16666e-05
1.05368e-05
1.05391e-05
4.15572e-05
9.00371e-05
9.16933e-05
4.17987e-05
1.05454e-05
1.05461e-05
4.14397e-05
9.01584e-05
9.13368e-05
4.17515e-05
1.05506e-05
1.05531e-05
4.16465e-05
9.03403e-05
9.19909e-05
4.18832e-05
1.05583e-05
1.05584e-05
4.15183e-05
9.04376e-05
9.16231e-05
4.18357e-05
1.05633e-05
1.05659e-05
4.17351e-05
9.06164e-05
9.22602e-05
4.1966e-05
1.05697e-05
1.05696e-05
4.15974e-05
9.06946e-05
9.18799e-05
4.19162e-05
1.05746e-05
1.05768e-05
4.18082e-05
9.08518e-05
9.24892e-05
4.20384e-05
1.05795e-05
1.05794e-05
4.16649e-05
9.09068e-05
9.20832e-05
4.19818e-05
1.05839e-05
1.05848e-05
4.18665e-05
9.10264e-05
9.26514e-05
4.20941e-05
1.05866e-05
1.05865e-05
4.17154e-05
9.10487e-05
9.22032e-05
4.20241e-05
1.059e-05
1.05891e-05
4.19052e-05
9.11155e-05
9.27172e-05
4.21247e-05
1.05905e-05
1.05897e-05
4.1735e-05
9.10893e-05
9.22125e-05
4.20325e-05
1.05922e-05
1.05893e-05
4.19068e-05
9.10891e-05
9.26603e-05
4.21149e-05
1.05898e-05
1.05873e-05
4.17086e-05
9.09987e-05
9.20804e-05
4.19885e-05
1.05884e-05
1.05825e-05
4.18541e-05
9.09161e-05
9.24388e-05
4.20404e-05
1.05819e-05
1.05764e-05
4.16044e-05
9.07254e-05
9.1747e-05
4.18549e-05
1.05755e-05
1.05659e-05
4.17046e-05
9.05262e-05
9.19807e-05
4.18544e-05
1.05637e-05
1.05536e-05
4.13687e-05
9.02013e-05
9.11466e-05
4.15765e-05
1.05505e-05
1.05357e-05
4.13997e-05
8.98535e-05
9.12164e-05
4.14937e-05
1.05304e-05
1.05138e-05
4.09396e-05
8.93208e-05
9.0197e-05
4.11006e-05
1.0507e-05
1.04846e-05
4.08464e-05
8.87775e-05
9.00681e-05
4.08786e-05
1.04748e-05
1.04494e-05
4.02295e-05
8.80334e-05
8.88469e-05
4.03355e-05
1.04379e-05
1.04057e-05
3.9952e-05
8.72754e-05
8.85005e-05
3.99241e-05
1.03903e-05
1.03547e-05
3.91488e-05
8.62987e-05
8.70571e-05
3.91813e-05
1.03382e-05
1.02975e-05
3.86507e-05
8.53189e-05
8.65012e-05
3.85509e-05
1.02776e-05
1.02385e-05
3.76505e-05
8.41504e-05
8.49026e-05
3.76019e-05
1.02223e-05
1.0191e-05
3.69514e-05
8.3062e-05
8.42872e-05
3.67864e-05
1.01791e-05
1.01667e-05
3.58323e-05
8.18649e-05
8.26795e-05
3.57507e-05
1.0166e-05
1.01644e-05
3.5056e-05
8.077e-05
8.22388e-05
3.49033e-05
1.01814e-05
1.01986e-05
3.4038e-05
7.98055e-05
8.07557e-05
3.40007e-05
1.02387e-05
1.02738e-05
3.33387e-05
7.88216e-05
8.05943e-05
3.33815e-05
1.03347e-05
1.03979e-05
3.26351e-05
7.82001e-05
7.94456e-05
3.27318e-05
1.04849e-05
1.05737e-05
3.21813e-05
7.76737e-05
7.96622e-05
3.24954e-05
1.06889e-05
1.08106e-05
3.19074e-05
7.74752e-05
7.86542e-05
3.24632e-05
1.08576e-05
1.0974e-05
3.17958e-05
7.75344e-05
7.912e-05
3.28606e-05
1.11101e-05
1.12391e-05
3.21264e-05
7.73912e-05
7.82318e-05
3.35977e-05
1.14369e-05
1.1625e-05
3.33754e-05
7.65974e-05
7.74752e-05
3.4915e-05
1.18598e-05
1.22566e-05
3.51803e-05
7.60299e-05
7.84448e-05
3.87901e-05
1.31783e-05
8.74052e-06
4.07902e-05
7.95225e-05
3.21637e-05
1.3358e-05
4.7572e-06
6.70775e-06
2.64276e-05
6.75415e-05
6.13923e-05
2.44716e-05
7.59259e-06
8.18656e-06
2.68075e-05
6.82543e-05
6.68899e-05
2.66353e-05
8.42376e-06
8.67878e-06
2.68655e-05
7.06989e-05
7.06418e-05
2.79205e-05
9.00967e-06
9.35192e-06
2.7855e-05
7.32692e-05
7.45364e-05
2.90738e-05
9.71999e-06
1.01634e-05
2.93728e-05
7.74633e-05
7.79131e-05
3.09365e-05
1.064e-05
1.10026e-05
3.11169e-05
7.9996e-05
8.17249e-05
3.30893e-05
1.1462e-05
1.18285e-05
3.32677e-05
8.24861e-05
8.3774e-05
3.46646e-05
1.21875e-05
1.27225e-05
3.59695e-05
8.44429e-05
8.51853e-05
3.78431e-05
1.34424e-05
1.42862e-05
4.08725e-05
8.70371e-05
8.62263e-05
4.17739e-05
9.30935e-06
5.31055e-06
1.27531e-05
3.19333e-05
7.13488e-05
2.66964e-05
7.54429e-06
8.34603e-06
2.41783e-05
6.48678e-05
6.77936e-05
2.51354e-05
8.61684e-06
8.93326e-06
2.44935e-05
6.53978e-05
6.90039e-05
2.66674e-05
9.35051e-06
9.81719e-06
2.6485e-05
6.82624e-05
7.22469e-05
2.93268e-05
1.04071e-05
1.09731e-05
2.93807e-05
7.16727e-05
7.56529e-05
3.34469e-05
1.18087e-05
1.31719e-05
3.57474e-05
7.6815e-05
8.04759e-05
3.88712e-05
8.9074e-06
5.39572e-06
1.19188e-05
2.96699e-05
7.02817e-05
2.67214e-05
7.68618e-06
9.10814e-06
2.42596e-05
6.63055e-05
7.76446e-05
2.97515e-05
1.01239e-05
1.08952e-05
2.93757e-05
7.7538e-05
8.4143e-05
3.39841e-05
1.16653e-05
1.2429e-05
3.41099e-05
8.44889e-05
8.87185e-05
3.80624e-05
1.34678e-05
1.45958e-05
4.10779e-05
9.06954e-05
9.02248e-05
4.26718e-05
9.70772e-06
5.92376e-06
1.27562e-05
3.19582e-05
7.42612e-05
2.81784e-05
8.42912e-06
9.5419e-06
2.6212e-05
7.02266e-05
7.58461e-05
2.92592e-05
1.00916e-05
1.0821e-05
2.95048e-05
7.34749e-05
7.82633e-05
3.38664e-05
1.17834e-05
1.30535e-05
3.60594e-05
7.98715e-05
8.42034e-05
3.96593e-05
8.85786e-06
5.55079e-06
1.19656e-05
3.00551e-05
7.27109e-05
2.69814e-05
8.1228e-06
9.92433e-06
2.64883e-05
7.12664e-05
8.52614e-05
3.48567e-05
1.1249e-05
1.25766e-05
3.52595e-05
8.6571e-05
9.30832e-05
4.24382e-05
1.39404e-05
9.34135e-06
4.19772e-05
9.08211e-05
3.11597e-05
1.23144e-05
5.71426e-06
8.04128e-06
2.87788e-05
7.55354e-05
7.08948e-05
2.60869e-05
9.41734e-06
1.047e-05
3.08593e-05
7.89329e-05
8.27549e-05
3.39108e-05
1.17675e-05
1.36163e-05
4.1048e-05
9.07708e-05
9.27756e-05
4.33504e-05
9.59134e-06
6.19796e-06
1.33819e-05
3.32773e-05
8.0766e-05
3.15791e-05
9.07906e-06
1.13699e-05
3.27613e-05
8.30709e-05
9.88438e-05
4.35724e-05
1.35132e-05
9.36424e-06
4.3374e-05
9.54156e-05
3.34682e-05
1.28389e-05
5.81901e-06
8.5724e-06
3.23534e-05
8.17799e-05
8.07629e-05
3.12592e-05
1.04602e-05
1.24642e-05
4.01197e-05
9.52687e-05
9.64311e-05
4.47538e-05
8.91358e-06
5.71462e-06
1.32843e-05
3.50211e-05
8.98346e-05
3.29208e-05
8.88763e-06
1.15175e-05
3.66631e-05
9.49885e-05
0.000116966
5.23323e-05
1.38435e-05
9.98164e-06
5.04926e-05
0.000110767
4.095e-05
1.54371e-05
6.43801e-06
9.878e-06
4.22451e-05
0.000102357
0.000106693
4.40017e-05
1.30775e-05
9.91008e-06
5.69125e-05
0.000117015
4.60249e-05
1.67038e-05
6.53801e-06
1.07983e-05
5.16459e-05
0.000119914
0.000117673
5.1229e-05
8.55669e-06
5.65138e-06
1.51625e-05
4.55633e-05
0.000129174
5.01683e-05
9.76175e-06
1.4063e-05
5.39261e-05
0.000143292
0.000163536
7.85662e-05
1.14703e-05
8.18269e-06
2.46783e-05
6.89387e-05
0.000153164
7.11942e-05
7.8489e-06
5.83646e-06
1.99496e-05
6.45704e-05
0.000205455
7.33708e-05
1.24874e-05
1.2031e-05
9.25971e-05
0.000230454
0.000123189
4.37049e-05
1.1667e-05
1.62199e-05
0.000148803
0.000494771
0.000287505
9.81699e-05
1.13978e-05
8.8238e-06
8.41236e-05
0.000247555
0.000239913
8.13932e-05
8.85175e-06
1.00803e-05
8.58696e-05
0.00024792
0.000275989
9.74671e-05
1.21642e-05
1.64937e-05
0.000170132
0.000433924
0.000112034
3.94081e-05
1.25076e-05
1.1094e-05
9.37832e-05
0.00021595
7.61698e-05
3.07185e-05
9.75182e-06
1.0259e-05
8.029e-05
0.000158475
6.7558e-05
2.63274e-05
1.00109e-05
1.15981e-05
6.55857e-05
0.000140257
0.000124651
5.15582e-05
1.26514e-05
6.666e-06
1.55812e-05
4.29797e-05
9.11945e-05
6.02752e-05
8.04149e-06
8.44057e-06
2.00681e-05
4.72678e-05
0.000105076
5.051e-05
1.072e-05
1.24309e-05
4.27246e-05
9.6456e-05
3.77339e-05
1.54113e-05
6.89287e-06
8.88132e-06
4.21146e-05
8.59187e-05
8.2349e-05
3.83837e-05
1.10206e-05
6.42786e-06
1.42213e-05
3.39576e-05
7.84644e-05
3.93247e-05
8.29243e-06
1.03241e-05
3.56156e-05
7.46651e-05
3.08737e-05
1.30939e-05
6.17795e-06
7.92232e-06
3.54811e-05
7.03556e-05
6.70573e-05
3.24617e-05
9.80676e-06
5.58795e-06
1.14284e-05
2.71546e-05
5.86226e-05
4.28776e-05
6.81207e-06
7.93289e-06
1.54459e-05
3.33451e-05
7.55011e-05
4.14196e-05
1.0139e-05
1.30043e-05
3.2961e-05
6.64179e-05
5.89187e-05
2.76166e-05
9.16574e-06
5.49871e-06
1.06986e-05
2.54443e-05
5.78191e-05
2.94029e-05
7.32683e-06
9.75393e-06
2.77826e-05
5.65423e-05
2.52789e-05
1.14905e-05
5.95036e-06
7.4845e-06
2.98177e-05
5.6161e-05
5.48396e-05
2.83256e-05
9.71775e-06
6.00916e-06
1.14139e-05
2.52442e-05
5.54911e-05
2.94041e-05
7.60199e-06
9.85808e-06
2.77964e-05
5.37239e-05
2.47509e-05
1.14269e-05
6.0203e-06
7.66515e-06
2.89887e-05
5.30453e-05
5.21115e-05
2.75756e-05
9.97279e-06
6.10169e-06
1.13419e-05
2.42836e-05
5.19967e-05
2.84561e-05
7.70198e-06
1.01365e-05
2.73814e-05
5.06243e-05
2.4021e-05
1.13121e-05
6.22812e-06
7.7384e-06
2.79006e-05
4.98852e-05
4.92e-05
2.69775e-05
1.01514e-05
6.2885e-06
1.14102e-05
2.37987e-05
4.94305e-05
2.79519e-05
7.89972e-06
1.03349e-05
2.69771e-05
4.83848e-05
2.37621e-05
1.15606e-05
6.42125e-06
8.00504e-06
2.73792e-05
4.80036e-05
4.75037e-05
2.69739e-05
1.05105e-05
6.59156e-06
1.17168e-05
2.38532e-05
4.79574e-05
2.77009e-05
8.13225e-06
1.05833e-05
2.68058e-05
4.70984e-05
2.35715e-05
1.16754e-05
6.55746e-06
8.09806e-06
2.68395e-05
4.62479e-05
4.59373e-05
2.60103e-05
1.06111e-05
6.64462e-06
1.17242e-05
2.32659e-05
4.59477e-05
2.68489e-05
8.19816e-06
1.06838e-05
2.57508e-05
4.54019e-05
2.29649e-05
1.18362e-05
6.66278e-06
8.27755e-06
2.63113e-05
4.41907e-05
4.40055e-05
2.51978e-05
1.08558e-05
6.79492e-06
1.18534e-05
2.25585e-05
4.36787e-05
2.62423e-05
8.35898e-06
1.08625e-05
2.45178e-05
4.32389e-05
2.22294e-05
1.18943e-05
6.68902e-06
8.19479e-06
2.52875e-05
4.20585e-05
4.18884e-05
2.39779e-05
1.06692e-05
6.67229e-06
1.17846e-05
2.17373e-05
4.16598e-05
2.50086e-05
8.29369e-06
1.08731e-05
2.35064e-05
4.07087e-05
2.13444e-05
1.18307e-05
6.79327e-06
8.2352e-06
2.43873e-05
4.05526e-05
3.96862e-05
2.30904e-05
1.08201e-05
6.70844e-06
1.1698e-05
2.09774e-05
4.0166e-05
2.43719e-05
8.22917e-06
1.07935e-05
2.26588e-05
3.88146e-05
2.06419e-05
1.17495e-05
6.71952e-06
8.16384e-06
2.36172e-05
3.89342e-05
3.76662e-05
2.20632e-05
1.05836e-05
6.62174e-06
1.15655e-05
2.02001e-05
3.84161e-05
2.33202e-05
8.11392e-06
1.05509e-05
2.15601e-05
3.67256e-05
1.9654e-05
1.14642e-05
6.5186e-06
7.89641e-06
2.23811e-05
3.67901e-05
3.54458e-05
2.09798e-05
1.03467e-05
6.47876e-06
1.127e-05
1.90351e-05
3.59998e-05
2.20263e-05
7.85558e-06
1.02688e-05
2.04177e-05
3.43396e-05
1.8355e-05
1.09982e-05
6.30144e-06
7.56436e-06
2.08633e-05
3.40831e-05
3.27664e-05
1.9636e-05
9.98366e-06
6.13115e-06
1.06995e-05
1.76239e-05
3.2921e-05
2.03062e-05
7.37389e-06
9.62789e-06
1.88326e-05
3.15609e-05
1.65398e-05
9.94951e-06
5.70466e-06
6.44492e-06
2.2511e-05
2.81847e-05
1.84903e-05
1.1677e-05
7.79128e-06
8.98518e-06
2.18577e-05
3.53737e-05
3.33689e-05
2.00009e-05
1.13494e-05
6.85861e-06
1.16843e-05
1.85168e-05
3.43518e-05
2.17668e-05
8.13576e-06
1.06339e-05
2.01954e-05
3.2893e-05
1.79751e-05
1.12453e-05
6.51858e-06
7.7926e-06
2.06652e-05
3.27944e-05
3.13058e-05
1.89372e-05
1.0119e-05
5.98713e-06
1.02345e-05
1.65739e-05
2.80176e-05
2.21444e-05
6.56551e-06
7.94402e-06
1.18331e-05
1.84967e-05
3.43566e-05
2.18003e-05
9.20888e-06
1.14773e-05
1.98006e-05
3.21465e-05
1.81987e-05
1.18569e-05
6.9116e-06
8.14471e-06
2.09853e-05
3.2348e-05
3.11078e-05
1.94847e-05
1.05116e-05
6.50262e-06
1.11859e-05
1.74251e-05
3.11714e-05
1.98393e-05
7.72555e-06
1.00004e-05
1.83809e-05
3.00685e-05
1.61095e-05
1.01685e-05
5.97165e-06
6.52213e-06
2.14374e-05
2.67107e-05
1.77267e-05
1.16353e-05
7.83197e-06
9.08311e-06
2.07718e-05
3.26544e-05
3.06428e-05
1.8978e-05
1.13857e-05
6.73634e-06
1.15338e-05
1.73904e-05
3.07946e-05
2.0157e-05
7.9321e-06
1.01733e-05
1.85315e-05
2.94521e-05
1.59827e-05
1.0193e-05
5.99262e-06
6.5053e-06
2.14139e-05
2.62361e-05
1.75377e-05
1.17565e-05
7.87107e-06
8.93673e-06
2.0129e-05
3.17042e-05
2.97342e-05
1.82935e-05
1.09267e-05
6.20461e-06
1.05907e-05
1.62868e-05
2.63917e-05
2.18139e-05
6.83614e-06
8.31057e-06
1.20868e-05
1.78677e-05
3.22871e-05
2.11858e-05
9.5856e-06
1.17916e-05
1.96798e-05
3.04636e-05
1.78453e-05
1.21223e-05
7.17254e-06
8.36782e-06
2.04674e-05
3.06128e-05
2.9296e-05
1.88544e-05
1.05682e-05
6.29991e-06
1.06183e-05
1.62112e-05
2.6359e-05
2.17063e-05
6.79134e-06
8.09307e-06
1.2047e-05
1.77643e-05
3.163e-05
2.04098e-05
9.19561e-06
1.14151e-05
1.87868e-05
2.96395e-05
1.66779e-05
1.10723e-05
6.6781e-06
7.16986e-06
2.17168e-05
2.66799e-05
1.82348e-05
1.25028e-05
8.52659e-06
9.56735e-06
2.12714e-05
3.2268e-05
3.02293e-05
1.95682e-05
1.1769e-05
6.95963e-06
1.17753e-05
1.74646e-05
2.98089e-05
1.98505e-05
8.16303e-06
1.04996e-05
1.82779e-05
2.8614e-05
1.59069e-05
1.04322e-05
6.19852e-06
6.73529e-06
2.10049e-05
2.54656e-05
1.73494e-05
1.19286e-05
8.02454e-06
8.86499e-06
1.94043e-05
3.00792e-05
2.82077e-05
1.77407e-05
1.08683e-05
6.24907e-06
1.04712e-05
1.58219e-05
2.50375e-05
2.01738e-05
6.71339e-06
8.01623e-06
1.17211e-05
1.72329e-05
2.96297e-05
1.99283e-05
9.08548e-06
1.11157e-05
1.82103e-05
2.79137e-05
1.60004e-05
1.06543e-05
6.30851e-06
6.72092e-06
2.14443e-05
2.50011e-05
1.71865e-05
1.1856e-05
7.92071e-06
8.85916e-06
1.89898e-05
2.93518e-05
2.76119e-05
1.75172e-05
1.08936e-05
6.21331e-06
1.04327e-05
1.55891e-05
2.40881e-05
2.09093e-05
6.58422e-06
7.63429e-06
1.19003e-05
1.6907e-05
2.65724e-05
2.02609e-05
7.93432e-06
9.23464e-06
1.28712e-05
1.83598e-05
3.08508e-05
2.00487e-05
1.00119e-05
1.20738e-05
1.86127e-05
2.88075e-05
1.68297e-05
1.15129e-05
7.00509e-06
7.39078e-06
2.23516e-05
2.61964e-05
1.8374e-05
1.29599e-05
8.73431e-06
9.75184e-06
2.06239e-05
3.11366e-05
2.90969e-05
1.89263e-05
1.18734e-05
6.87873e-06
1.13464e-05
1.67823e-05
2.613e-05
2.21326e-05
7.26273e-06
8.56854e-06
1.27112e-05
1.81829e-05
3.06792e-05
2.02838e-05
9.60212e-06
1.16975e-05
1.86908e-05
2.88546e-05
1.65963e-05
1.12194e-05
6.74332e-06
7.25054e-06
2.16789e-05
2.5703e-05
1.79744e-05
1.25572e-05
8.6208e-06
9.5365e-06
2.02379e-05
3.0035e-05
2.80742e-05
1.8431e-05
1.14407e-05
6.4583e-06
1.08074e-05
1.62546e-05
2.44589e-05
2.18857e-05
6.83456e-06
7.8842e-06
1.22469e-05
1.7367e-05
2.67142e-05
2.03459e-05
7.99771e-06
9.25897e-06
1.30445e-05
1.85738e-05
3.03622e-05
1.98143e-05
9.91997e-06
1.18961e-05
1.82864e-05
2.83121e-05
1.64816e-05
1.12234e-05
6.86564e-06
7.16949e-06
2.1807e-05
2.4761e-05
1.78069e-05
1.28209e-05
8.27021e-06
8.51085e-06
2.11659e-05
2.73778e-05
1.93499e-05
1.37938e-05
9.81767e-06
1.06239e-05
2.05622e-05
3.13413e-05
2.91066e-05
1.89571e-05
1.25247e-05
7.06089e-06
1.16114e-05
1.7095e-05
2.58901e-05
2.24155e-05
7.45913e-06
8.84374e-06
1.30333e-05
1.83508e-05
3.00791e-05
2.02128e-05
9.82241e-06
1.18819e-05
1.85748e-05
2.82296e-05
1.66106e-05
1.11265e-05
6.75741e-06
7.12138e-06
2.19269e-05
2.47703e-05
1.78073e-05
1.26503e-05
8.19955e-06
8.24947e-06
2.06108e-05
2.68925e-05
1.88665e-05
1.33729e-05
9.40517e-06
9.93988e-06
1.97689e-05
3.03857e-05
2.81743e-05
1.81457e-05
1.18826e-05
6.82612e-06
1.11016e-05
1.64637e-05
2.44166e-05
2.1129e-05
7.16434e-06
8.23839e-06
1.25354e-05
1.76723e-05
2.65318e-05
2.10659e-05
8.41247e-06
9.62232e-06
1.35039e-05
1.88778e-05
3.01276e-05
1.98981e-05
1.02784e-05
1.23726e-05
1.84667e-05
2.80518e-05
1.67428e-05
1.14039e-05
7.07314e-06
7.24301e-06
2.22828e-05
2.43786e-05
1.78359e-05
1.28297e-05
8.32673e-06
8.4453e-06
2.0613e-05
2.6712e-05
1.89841e-05
1.36386e-05
9.66672e-06
1.0208e-05
1.98751e-05
3.02555e-05
2.81012e-05
1.83265e-05
1.21691e-05
6.98418e-06
1.12865e-05
1.65809e-05
2.42735e-05
2.12159e-05
7.23166e-06
8.33235e-06
1.27734e-05
1.78378e-05
2.64105e-05
2.07992e-05
8.4697e-06
9.72606e-06
1.35566e-05
1.89632e-05
2.96352e-05
1.99081e-05
1.03995e-05
1.23115e-05
1.84703e-05
2.77188e-05
1.67968e-05
1.14051e-05
7.06915e-06
7.30031e-06
2.20761e-05
2.41929e-05
1.78549e-05
1.28277e-05
8.3944e-06
8.40508e-06
2.03052e-05
2.63135e-05
1.89642e-05
1.34221e-05
9.32619e-06
9.12772e-06
2.12971e-05
2.7608e-05
1.98275e-05
1.4404e-05
1.02123e-05
1.08038e-05
2.06559e-05
3.10821e-05
2.87855e-05
1.89852e-05
1.27486e-05
7.22834e-06
1.16754e-05
1.71041e-05
2.47906e-05
2.20703e-05
7.45142e-06
8.60943e-06
1.31421e-05
1.83443e-05
2.6763e-05
2.11505e-05
8.76113e-06
9.9227e-06
1.3927e-05
1.93875e-05
3.00124e-05
1.99746e-05
1.06032e-05
1.26315e-05
1.85827e-05
2.80531e-05
1.70395e-05
1.16301e-05
7.23452e-06
7.50321e-06
2.2073e-05
2.43827e-05
1.82342e-05
1.32257e-05
8.66178e-06
8.63037e-06
2.0587e-05
2.6331e-05
1.92267e-05
1.36573e-05
9.49959e-06
9.23066e-06
2.12665e-05
2.74961e-05
1.99858e-05
1.45077e-05
1.03197e-05
1.07234e-05
2.05349e-05
3.06064e-05
2.83902e-05
1.88482e-05
1.25687e-05
7.22947e-06
1.1599e-05
1.70353e-05
2.43302e-05
2.15594e-05
7.42881e-06
8.52998e-06
1.29865e-05
1.81205e-05
2.58264e-05
2.03266e-05
8.544e-06
9.52621e-06
1.35798e-05
1.90462e-05
2.70462e-05
2.09633e-05
9.41343e-06
1.05975e-05
1.47013e-05
1.99909e-05
3.03771e-05
2.06624e-05
1.11575e-05
1.31128e-05
1.92177e-05
2.84192e-05
1.75082e-05
1.20627e-05
7.59787e-06
7.7449e-06
2.26089e-05
2.46451e-05
1.85046e-05
1.34607e-05
8.84023e-06
8.86368e-06
2.06179e-05
2.64831e-05
1.95869e-05
1.40549e-05
9.92984e-06
9.65176e-06
2.16471e-05
2.77003e-05
2.03636e-05
1.49067e-05
1.06896e-05
1.11068e-05
2.08685e-05
3.07614e-05
2.85695e-05
1.92725e-05
1.29662e-05
7.41572e-06
1.19011e-05
1.73123e-05
2.4435e-05
2.19339e-05
7.62863e-06
8.81699e-06
1.33169e-05
1.84274e-05
2.59096e-05
2.05454e-05
8.80248e-06
9.72507e-06
1.38414e-05
1.93081e-05
2.69306e-05
2.11068e-05
9.59527e-06
1.0725e-05
1.48452e-05
2.00542e-05
2.99899e-05
2.06807e-05
1.13545e-05
1.33759e-05
1.92953e-05
2.81015e-05
1.75748e-05
1.22543e-05
7.74449e-06
7.89673e-06
2.24556e-05
2.45929e-05
1.8603e-05
1.35966e-05
9.01714e-06
8.90668e-06
2.08449e-05
2.62397e-05
1.95598e-05
1.40863e-05
9.9118e-06
9.6578e-06
2.13975e-05
2.72164e-05
2.02241e-05
1.48741e-05
1.06816e-05
1.11168e-05
2.06132e-05
3.00508e-05
2.78987e-05
1.9029e-05
1.29438e-05
7.42565e-06
1.1811e-05
1.7148e-05
2.40207e-05
2.14164e-05
7.66628e-06
8.86972e-06
1.33035e-05
1.82906e-05
2.53642e-05
2.04792e-05
8.83336e-06
9.7112e-06
1.3725e-05
1.90899e-05
2.62201e-05
2.07519e-05
9.43785e-06
1.05832e-05
1.4634e-05
1.9791e-05
2.90954e-05
2.01973e-05
1.1087e-05
1.29728e-05
1.88432e-05
2.72048e-05
1.72211e-05
1.19242e-05
7.50947e-06
7.79465e-06
2.1873e-05
2.38233e-05
1.82937e-05
1.34431e-05
8.92856e-06
8.84631e-06
2.03549e-05
2.53689e-05
1.90981e-05
1.37137e-05
9.65522e-06
9.26303e-06
2.04445e-05
2.60697e-05
1.97439e-05
1.4353e-05
1.02036e-05
9.89615e-06
2.15505e-05
2.69596e-05
2.0402e-05
1.51815e-05
1.09398e-05
1.15258e-05
2.08833e-05
2.97415e-05
2.76403e-05
1.93258e-05
1.33315e-05
7.68064e-06
1.22039e-05