/*--------------------------------*- C++ -*----------------------------------*\
| =========                 |                                                 |
| \\      /  F ield         | OpenFOAM: The Open Source CFD Toolbox           |
|  \\    /   O peration     | Version:  v2006                                 |
|   \\  /    A nd           | Website:  www.openfoam.com                      |
|    \\/     M anipulation  |                                                 |
\*---------------------------------------------------------------------------*/
FoamFile
{
    version     2.0;
    format      ascii;
    class       volScalarField;
    location    "0.165";
    object      isentropic(p);
}
// * * * * * * * * * * * * * * * * * * * * * * * * * * * * * * * * * * * * * //

dimensions      [1 -1 -2 0 0 0 0];


internalField   nonuniform List<scalar> 
16277
(
150008
150014
150016
150003
150012
150010
150011
150012
150013
150013
150013
150012
150012
150011
150011
150011
150010
150010
150010
150010
150010
150010
150010
150009
150009
150009
150009
150009
150009
150009
150009
150009
150008
150008
150008
150008
150008
150008
150008
150008
150007
150007
150007
150007
150007
150007
150007
150007
150006
150006
150006
150006
150006
150006
150006
150006
150005
150005
150005
150005
150005
150005
150005
150005
150005
150004
150004
150004
150004
150004
150004
150004
150004
150004
150004
150003
150003
150003
150003
150002
150002
150001
150001
150000
150001
150003
150004
150005
150004
150006
150005
150007
150008
150011
150017
150015
149976
149936
150011
150022
150021
150002
149897
149860
149993
150018
150013
149981
149826
149796
149971
150008
150002
149959
149768
149744
149949
149997
149991
149938
149721
149703
149929
149986
149979
149919
149684
149669
149911
149975
149968
149901
149653
149640
149893
149964
149958
149884
149627
149616
149877
149953
149947
149868
149605
149595
149862
149943
149937
149854
149585
149577
149849
149934
149928
149841
149568
149561
149836
149925
149919
149829
149553
149547
149824
149916
149911
149817
149540
149534
149813
149908
149903
149807
149528
149523
149803
149901
149896
149797
149517
149513
149794
149893
149889
149788
149508
149504
149785
149887
149882
149779
149499
149496
149776
149880
149876
149771
149492
149489
149769
149874
149870
149763
149485
149483
149761
149868
149864
149756
149479
149477
149755
149863
149859
149750
149474
149473
149748
149857
149853
149744
149470
149469
149743
149852
149849
149738
149466
149465
149737
149847
149844
149733
149463
149463
149732
149843
149839
149728
149461
149461
149727
149839
149835
149724
149459
149459
149723
149835
149831
149720
149458
149458
149719
149831
149827
149716
149457
149458
149715
149827
149824
149712
149457
149458
149712
149824
149821
149709
149458
149459
149709
149820
149817
149706
149459
149460
149706
149817
149814
149704
149460
149462
149704
149814
149811
149702
149462
149464
149702
149811
149809
149700
149465
149467
149700
149809
149806
149698
149468
149470
149699
149806
149804
149697
149471
149474
149698
149804
149802
149696
149475
149478
149697
149802
149800
149695
149480
149483
149696
149801
149799
149695
149485
149488
149696
149799
149797
149695
149490
149493
149697
149798
149796
149696
149496
149499
149697
149797
149795
149697
149502
149506
149698
149796
149795
149698
149508
149512
149700
149796
149795
149700
149515
149519
149702
149796
149795
149702
149522
149527
149704
149796
149796
149704
149530
149534
149707
149797
149797
149708
149537
149542
149711
149799
149799
149711
149545
149549
149715
149801
149801
149716
149552
149557
149719
149804
149804
149721
149560
149564
149724
149807
149807
149726
149567
149571
149730
149810
149811
149731
149573
149578
149735
149814
149815
149737
149580
149584
149741
149819
149820
149743
149585
149588
149746
149823
149824
149748
149589
149591
149752
149828
149828
149753
149591
149593
149756
149832
149832
149757
149593
149594
149760
149835
149836
149760
149592
149593
149763
149839
149839
149763
149591
149591
149766
149842
149842
149765
149589
149588
149767
149844
149844
149767
149585
149584
149768
149846
149846
149767
149581
149580
149769
149848
149847
149767
149575
149574
149768
149849
149848
149767
149570
149568
149767
149850
149849
149765
149564
149562
149766
149850
149849
149764
149558
149556
149764
149850
149849
149762
149552
149550
149762
149850
149848
149760
149546
149545
149760
149849
149847
149757
149541
149539
149757
149848
149846
149755
149535
149534
149755
149847
149845
149752
149530
149529
149752
149845
149843
149749
149525
149524
149749
149844
149842
149746
149521
149520
149746
149842
149840
149744
149517
149515
149743
149841
149838
149741
149512
149512
149741
149839
149836
149738
149509
149508
149738
149837
149834
149735
149505
149504
149735
149835
149833
149732
149502
149501
149732
149833
149831
149730
149499
149498
149729
149831
149829
149727
149495
149495
149727
149829
149826
149724
149492
149492
149724
149827
149825
149722
149490
149489
149722
149825
149823
149719
149486
149486
149719
149823
149820
149716
149483
149483
149716
149821
149819
149715
149482
149480
149714
149819
149817
149712
149478
149480
149713
149818
149816
149711
149477
149480
149714
149820
149820
149716
149483
149496
149727
149831
149868
149777
149553
149515
149697
149792
149864
149922
149955
149966
149972
149984
149989
149994
149997
149999
149999
149998
149997
149993
149989
149979
149974
149967
149960
149947
149913
149842
149702
149543
149280
149261
149526
149686
149666
149509
149246
149236
149498
149656
149653
149493
149227
149227
149492
149654
149653
149491
149225
149225
149490
149653
149654
149491
149226
149227
149492
149655
149656
149493
149228
149229
149495
149657
149657
149496
149230
149231
149497
149659
149660
149498
149231
149232
149499
149661
149662
149500
149234
149234
149501
149663
149664
149502
149235
149236
149504
149666
149666
149505
149237
149238
149506
149667
149669
149507
149239
149240
149508
149670
149671
149509
149241
149242
149511
149672
149673
149512
149243
149244
149513
149674
149675
149514
149245
149246
149515
149676
149677
149517
149247
149248
149518
149679
149680
149519
149249
149250
149520
149681
149683
149521
149251
149252
149523
149684
149685
149524
149253
149254
149525
149686
149687
149526
149255
149256
149528
149688
149689
149529
149257
149258
149530
149691
149692
149532
149259
149260
149533
149693
149694
149534
149261
149262
149535
149695
149697
149537
149263
149264
149538
149698
149699
149539
149265
149266
149540
149701
149702
149542
149267
149268
149543
149703
149704
149544
149269
149269
149546
149706
149707
149547
149270
149271
149548
149709
149710
149549
149272
149273
149551
149711
149713
149552
149273
149274
149553
149715
149716
149555
149275
149276
149556
149717
149719
149557
149276
149277
149559
149720
149722
149560
149277
149278
149562
149724
149726
149563
149278
149278
149564
149728
149729
149566
149279
149279
149568
149731
149733
149569
149279
149279
149571
149735
149737
149572
149280
149279
149574
149740
149742
149576
149279
149279
149578
149745
149747
149580
149279
149279
149582
149750
149753
149585
149279
149280
149587
149755
149758
149590
149280
149280
149593
149761
149765
149596
149281
149282
149600
149768
149772
149603
149283
149284
149607
149775
149780
149612
149286
149287
149616
149785
149790
149621
149289
149293
149627
149794
149797
149634
149299
149304
149640
149802
149807
149647
149308
149315
149655
149812
149820
149667
149327
149337
149678
149827
149835
149690
149351
149366
149699
149843
149850
149713
149382
149398
149723
149858
149863
149733
149416
149435
149743
149868
149875
149755
149458
149480
149768
149880
149886
149776
149495
149514
149784
149889
149893
149793
149536
149565
149812
149904
149915
149823
149568
149358
149583
149823
149882
149733
149386
149414
149752
149885
149895
149762
149428
149450
149770
149901
149907
149785
149480
149504
149797
149918
149930
149817
149538
149563
149827
149935
149938
149844
149599
149628
149856
149938
149956
149872
149657
149661
149886
149971
149905
149665
149542
149560
149837
149947
149937
149857
149615
149638
149874
149950
149966
149891
149666
149682
149900
149982
149984
149916
149713
149743
149935
149998
149993
149948
149770
149543
149909
149913
149974
149902
149686
149692
149919
150001
150009
149936
149729
149753
149944
150015
150024
149961
149786
149804
149980
150035
150002
149799
149762
149764
149956
150011
150032
149975
149806
149834
149988
150039
150055
150008
149865
149877
150020
150061
150038
149852
149854
149858
150015
150048
150072
150018
149871
149910
150038
150085
150085
150057
149939
149951
149902
150084
150089
150066
149951
149972
150070
150098
150116
150095
150016
150037
150103
150114
150110
150081
149999
150072
150131
150137
150134
150130
150100
149998
150224
150123
150182
150175
150153
150183
150195
150178
150210
150214
150198
150275
150251
150217
150180
150222
150233
150277
150227
150187
150215
150260
150311
150293
150272
150233
150188
150214
150181
150036
150104
150104
150007
149953
149843
149890
149967
149977
149923
149869
149744
149795
149903
149936
149925
149866
149696
149830
149614
149907
149884
149888
149627
149603
149777
149881
149908
149845
149674
149657
149814
149873
149822
149756
149589
149658
149829
149879
149862
149801
149633
149563
149731
149813
149866
149817
149639
149600
149786
149863
149802
149718
149527
149638
149816
149862
149822
149791
149630
149527
149709
149784
149862
149816
149642
149612
149783
149838
149785
149707
149519
149627
149808
149861
149872
149778
149580
149507
149701
149796
149867
149807
149620
149599
149781
149848
149789
149708
149518
149638
149814
149862
149860
149787
149598
149516
149749
149845
149824
149499
149591
149564
149811
149860
149882
149737
149525
149329
149815
149745
149852
149784
149596
149544
149768
149824
149806
149538
149583
149578
149802
149849
149852
149746
149547
149349
149792
149740
149854
149791
149592
149573
149757
149833
149732
149815
149346
149600
149786
149852
149822
149771
149549
149579
149545
149802
149863
149795
149567
149517
149760
149868
149815
149524
149588
149569
149804
149860
149863
149755
149495
149606
149481
149819
149870
149835
149521
149456
149702
149860
149893
149820
149607
149586
149781
149855
149789
149698
149502
149621
149820
149882
149847
149787
149600
149519
149714
149794
149876
149826
149633
149602
149795
149862
149798
149707
149507
149606
149819
149892
149893
149778
149553
149492
149704
149805
149889
149823
149618
149543
149792
149887
149845
149505
149647
149550
149855
149885
149858
149717
149482
149605
149831
149906
149869
149803
149606
149517
149722
149807
149894
149834
149626
149564
149802
149878
149841
149543
149630
149581
149850
149883
149842
149730
149510
149641
149850
149908
149888
149818
149620
149524
149729
149819
149909
149843
149633
149568
149809
149896
149850
149551
149639
149576
149858
149891
149852
149733
149506
149642
149857
149920
149895
149820
149615
149520
149732
149821
149899
149847
149634
149617
149796
149886
149749
149929
149293
149638
149779
149916
149831
149749
149505
149639
149857
149917
149891
149822
149597
149605
149606
149844
149900
149866
149582
149515
149744
149859
149918
149854
149625
149610
149810
149881
149786
149802
149424
149620
149824
149906
149843
149764
149537
149650
149865
149914
149895
149815
149616
149400
149836
149792
149911
149815
149635
149525
149762
149835
149909
149858
149639
149583
149817
149888
149841
149606
149583
149593
149885
149904
149864
149752
149518
149637
149868
149915
149891
149810
149623
149274
149941
149756
149940
149728
149675
149492
149761
149826
149903
149845
149609
149521
149759
149840
149922
149872
149647
149605
149829
149901
149828
149692
149521
149591
149854
149903
149849
149751
149514
149630
149862
149905
149888
149802
149608
149241
149944
149752
149941
149709
149659
149457
149746
149817
149905
149850
149599
149519
149767
149847
149921
149863
149623
149567
149821
149894
149846
149583
149586
149539
149870
149887
149841
149729
149476
149585
149852
149915
149851
149751
149492
149606
149859
149921
149897
149801
149572
149353
149832
149788
149926
149788
149618
149468
149753
149832
149908
149850
149587
149496
149756
149846
149918
149859
149610
149556
149812
149894
149830
149618
149525
149535
149861
149887
149831
149716
149456
149572
149848
149912
149851
149750
149484
149604
149858
149920
149892
149814
149534
149608
149509
149852
149855
149938
149464
149443
149705
149832
149903
149841
149543
149443
149729
149837
149908
149842
149574
149502
149796
149875
149836
149463
149582
149450
149934
149847
149827
149699
149434
149532
149836
149901
149829
149713
149436
149543
149832
149899
149832
149729
149451
149571
149842
149903
149875
149775
149548
149194
149885
149733
149924
149685
149593
149378
149708
149792
149880
149808
149504
149414
149707
149808
149888
149823
149529
149434
149718
149821
149896
149832
149558
149482
149782
149866
149815
149476
149537
149424
149880
149836
149799
149668
149378
149483
149806
149879
149804
149686
149381
149504
149811
149881
149808
149696
149400
149539
149822
149889
149858
149775
149467
149539
149450
149811
149811
149919
149374
149362
149651
149792
149867
149803
149464
149349
149663
149789
149864
149792
149472
149368
149677
149792
149869
149803
149507
149478
149724
149835
149675
149887
149060
149543
149601
149903
149751
149660
149296
149450
149774
149851
149764
149654
149326
149445
149776
149849
149768
149655
149334
149452
149779
149852
149778
149666
149353
149477
149784
149855
149822
149732
149390
149527
149329
149782
149742
149958
149245
149286
149583
149751
149828
149759
149388
149277
149614
149747
149835
149759
149415
149295
149628
149752
149835
149760
149422
149313
149641
149760
149842
149769
149453
149367
149705
149808
149733
149427
149371
149317
149799
149777
149727
149582
149253
149367
149737
149814
149729
149593
149250
149373
149733
149815
149729
149601
149260
149397
149742
149820
149742
149622
149285
149420
149748
149823
149787
149693
149332
149437
149289
149737
149715
149889
149203
149205
149549
149712
149793
149723
149315
149185
149554
149703
149794
149713
149331
149196
149568
149703
149793
149711
149339
149229
149585
149712
149800
149721
149376
149291
149659
149765
149690
149319
149315
149221
149773
149725
149681
149521
149157
149274
149692
149769
149678
149526
149147
149297
149689
149773
149678
149540
149159
149303
149687
149772
149687
149554
149182
149336
149694
149775
149736
149630
149224
149378
149171
149684
149635
149900
149058
149102
149466
149653
149737
149664
149213
149091
149483
149645
149742
149653
149227
149092
149496
149645
149741
149649
149233
149109
149504
149647
149744
149655
149253
149127
149516
149656
149749
149664
149290
149226
149583
149713
149563
149503
148964
149235
149557
149731
149606
149474
149029
149199
149616
149718
149614
149469
149044
149201
149622
149718
149620
149471
149067
149210
149623
149718
149628
149486
149087
149245
149636
149726
149687
149561
149154
149104
149270
149584
149644
149661
149073
148987
149402
149582
149687
149595
149137
148977
149419
149583
149685
149588
149137
148999
149430
149585
149687
149590
149150
149017
149443
149592
149687
149593
149175
149099
149502
149648
149488
149440
148812
149111
149470
149668
149531
149385
148895
149081
149541
149656
149541
149380
148914
149096
149554
149658
149549
149387
148936
149103
149556
149657
149561
149404
148962
149143
149570
149666
149627
149488
149042
148939
149199
149499
149583
149578
148968
148852
149301
149503
149610
149513
148993
148844
149311
149500
149612
149504
149008
148859
149330
149503
149618
149512
149030
148874
149346
149513
149624
149523
149069
148976
149442
149590
149432
149181
148793
148934
149493
149564
149463
149263
148778
148954
149483
149585
149474
149285
148797
148985
149488
149589
149466
149285
148793
148978
149466
149576
149531
149383
148851
148889
148932
149427
149469
149526
148770
148672
149195
149413
149532
149431
148847
148672
149199
149412
149540
149424
148873
148699
149228
149423
149548
149438
148927
148832
149323
149509
149280
149317
148379
148858
149248
149530
149359
149187
148574
148815
149356
149502
149339
149158
148561
148784
149356
149484
149362
149164
148599
148825
149368
149494
149444
149273
148669
148758
148742
149330
149364
149453
148588
148475
149063
149305
149444
149330
148701
148494
149081
149316
149455
149326
148709
148519
149108
149323
149460
149340
148771
148632
149244
149424
149252
148818
148533
148534
149278
149347
149226
148965
148351
148599
149246
149386
149247
149015
148378
148614
149258
149401
149265
149040
148408
148664
149274
149411
149364
149165
148523
148360
148779
149174
149302
149264
148471
148304
148934
149205
149348
149228
148525
148321
148965
149215
149363
149239
148596
148464
149141
149332
149110
148540
148322
148344
149142
149217
149102
148824
148148
148409
149123
149281
149130
148871
148169
148437
149144
149300
149150
148901
148207
148486
149161
149312
149267
149037
148364
148001
148770
149006
149246
149028
148376
148068
148826
149081
149260
149092
148380
148108
148861
149102
149255
149125
148483
148200
148929
149166
148907
148605
147875
148193
148964
149140
148985
148710
147932
148224
149008
149181
149022
148752
147973
148281
149036
149202
149155
148901
148130
147788
148555
148879
149109
148925
148126
147843
148658
148957
149151
148984
148198
148043
148855
149119
148813
148479
147662
147969
148823
149018
148780
148454
147578
147904
148792
149003
148832
148522
147645
147999
148848
149043
148992
148707
147826
147498
148270
148711
148949
148795
147813
147526
148436
148788
149005
148824
147915
147736
148658
148964
148623
148232
147319
147702
148730
148896
148751
148398
147455
147777
148707
148905
148778
148437
147455
146987
148067
148437
148766
148518
147506
147149
148200
148570
148830
148605
147622
147397
148449
148783
148439
147913
147022
147353
148547
148711
148534
148114
147076
147511
148585
148780
148743
148379
147310
146823
147903
148348
148612
148532
147319
146811
147879
148341
148590
148343
147218
147010
148099
148503
148141
147870
146423
147118
148198
148561
148302
147900
146650
147212
148329
148602
148553
148176
146955
146497
147573
148143
148458
148288
146956
146644
147817
148284
148521
148348
147248
147004
148141
148500
147914
147379
146118
146721
147960
148275
148208
147747
146492
145858
147451
147816
148271
147862
146645
146085
147539
147991
148339
148039
146785
146505
147884
148303
147824
147274
145902
146608
147922
148200
148271
147805
146490
145505
147238
147653
147954
147551
145995
145697
147261
147821
147343
146848
145013
145913
147491
147893
147609
147032
145410
146208
147679
148019
147998
147498
145952
145283
146827
147464
147874
147574
146122
146041
147479
147982
147266
146754
144914
145395
147099
147563
147412
146811
145030
144479
146263
146979
147522
147104
145427
145139
146923
147516
147012
146278
144456
145463
147126
147522
147582
147019
145181
144525
146298
147022
147246
146787
145035
144284
146350
147026
146762
146000
143780
143246
145218
146320
146939
146492
144367
144092
146244
147018
146400
145682
143163
144651
146534
146975
147250
146765
144581
143020
145526
146477
145571
144482
141857
143339
145715
146347
146352
145555
142968
142421
145360
146220
145760
144086
141998
143550
145951
146319
146582
145841
143283
141292
144430
145591
144720
143283
140294
142261
145043
145655
145781
144894
141916
141368
144915
145807
146034
144517
141851
137981
142928
143880
144988
143771
140322
139931
143723
144931
144914
143569
139424
139356
143834
145159
144776
142980
137697
136474
141774
143974
142692
141084
135003
139380
143239
144484
144426
142995
138563
137371
142363
144104
143723
141944
136584
136187
141728
143504
143356
141268
135326
134898
141021
143256
143240
140868
134622
134342
140682
143216
143151
140458
134060
133807
140225
143062
142964
139995
133588
133403
139770
142857
142745
139551
133242
133105
139341
142627
142508
139142
132991
132895
138953
142385
142263
138775
132818
132757
138609
142140
142017
138454
132710
132675
138309
141894
141772
138176
132651
132636
138053
141651
141532
137940
132630
132631
137835
141413
141298
137740
132640
132654
137652
141183
141072
137572
132673
132697
137499
140961
140854
137433
132724
132755
137373
140749
140647
137319
132789
132824
137270
140547
140452
137227
132862
132902
137188
140359
140271
137154
132942
132984
137123
140185
140104
137096
133027
133070
137072
140026
139952
137051
133113
133157
137033
139881
139814
137017
133200
133243
137003
139750
139690
136992
133286
133327
136981
139633
139580
136973
133368
133409
136966
139529
139482
136960
133448
133487
136955
139437
139397
136951
133525
133562
136948
139358
139322
136946
133598
133632
136944
139288
139258
136944
133666
133698
136943
139228
139202
136944
133730
133759
136945
139176
139154
136947
133789
133816
136949
139132
139113
136952
133843
133867
136954
139093
139077
136958
133892
133915
136961
139061
139048
136966
133938
133959
136969
139034
139022
136974
133979
133998
136978
139011
139001
136983
134017
134035
136988
138991
138983
136993
134052
134068
136998
138975
138968
137003
134084
134098
137008
138961
138955
137013
134113
134126
137018
138949
138944
137023
134140
134152
137027
138938
138934
137032
134164
134175
137036
138930
138926
137041
134186
134196
137045
138922
138919
137050
134207
134216
137053
138916
138913
137058
134225
134233
137061
138910
138908
137066
134242
134250
137069
138905
138903
137073
134257
134264
137076
138901
138899
137080
134272
134278
137084
138897
138897
137088
134285
134291
137091
138895
138894
137094
134297
134302
137097
138892
138893
137101
134308
134313
137104
138891
138891
137108
134319
134324
137111
138890
138890
137114
134329
134333
137117
138889
138890
137121
134338
134342
137124
138889
138890
137127
134347
134351
137130
138889
138891
137134
134356
134360
137136
138890
138891
137140
134365
134369
137143
138891
138893
137147
134373
134377
137150
138892
138894
137153
134381
134385
137156
138894
138896
137160
134389
134393
137163
138896
138898
137167
134398
134401
137170
138898
138901
137174
134406
134409
137177
138901
138904
137181
134414
134417
137184
138904
138907
137188
134421
134425
137191
138908
138911
137195
134429
134433
137198
138912
138915
137203
134437
134441
137206
138916
138919
137210
134445
134449
137214
138920
138924
137218
134453
134457
137221
138925
138929
137225
134461
134464
137229
138930
138934
137233
134468
134472
137237
138936
138940
137241
134476
134480
137245
138941
138946
137249
134484
134487
137253
138947
138952
137257
134491
134495
137261
138953
138958
137266
134499
134503
137269
138960
138965
137274
134506
134510
137278
138966
138971
137282
134514
134517
137286
138973
138978
137291
134521
134525
137295
138980
138985
137299
134528
134532
137303
138987
138992
137307
134536
134539
137311
138995
139000
137316
134543
134546
137320
139002
139007
137324
134550
134553
137328
139009
139015
137333
134556
134560
137337
139017
139022
137341
134563
134566
137345
139025
139030
137349
134570
134573
137353
139032
139038
137358
134576
134579
137362
139040
139045
137366
134583
134586
137370
139048
139053
137374
134589
134592
137378
139056
139061
137382
134595
134598
137386
139063
139069
137391
134601
134604
137394
139071
139077
137399
134607
134610
137403
139079
139085
137407
134613
134615
137411
139087
139093
137415
134618
134621
137418
139095
139100
137423
134624
134626
137426
139103
139108
137430
134629
134631
137434
139111
139116
137438
134634
134636
137442
139119
139124
137446
134639
134641
137449
139126
139132
137453
134644
134646
137457
139134
139140
137461
134648
134650
137464
139142
139147
137468
134652
134654
137471
139149
139155
137475
134656
134658
137478
139157
139162
137482
134660
134662
137485
139164
139169
137489
134664
134665
137492
139171
139177
137495
134667
134668
137498
139179
139185
137503
134673
134675
137506
139189
139192
137511
134678
134680
137509
139189
139177
137498
134678
134670
137482
139159
139203
137503
134685
134760
137599
139355
139448
137673
134818
142056
144691
146369
146740
146890
147546
147883
148029
148173
148587
148855
149138
149349
149505
149620
149703
149763
149805
149836
149859
149877
149890
149901
149909
149916
149922
149926
149929
149931
149934
149934
149936
149936
149932
149934
149941
149946
149954
149962
149972
149983
149994
150005
150015
150021
150023
150022
150020
150017
150015
150013
150012
150010
150008
150007
150005
150003
150000
149998
149996
149994
149992
149990
149989
149988
149987
149986
149986
149986
149986
149987
149989
149991
149993
149997
150000
150005
150010
150015
150021
150027
150034
150040
150046
150052
150058
150063
150068
150072
150075
150078
150080
150081
150081
150081
150080
150079
150077
150074
150071
150068
150064
150061
150057
150053
150048
150044
150040
150036
150032
150028
150024
150020
150016
150012
150009
150006
150002
149999
149997
149994
149991
149989
149986
149984
149982
149980
149978
149977
149975
149974
149972
149971
149970
149969
149968
149967
149966
149965
149965
149964
149964
149963
149963
149963
149962
149962
149962
149962
149962
149962
149962
149962
149962
149962
149962
149962
149963
149963
149963
149963
149964
149964
149965
149965
149966
149966
149966
149967
149968
149968
149969
149969
149970
149971
149971
149972
149973
149973
149974
149975
149976
149976
149977
149978
149979
149980
149980
149981
149982
149983
149984
149985
149986
149987
149988
149989
149990
149991
149993
149994
149996
150000
150007
150012
150015
150015
150017
150004
150012
150012
150020
150026
150029
150029
150027
150026
150024
150022
150021
150020
150019
150018
150017
150016
150016
150015
150015
150014
150014
150013
150013
150012
150012
150012
150011
150011
150011
150011
150010
150010
150010
150010
150009
150009
150009
150009
150008
150008
150008
150008
150008
150007
150007
150007
150007
150006
150006
150006
150006
150006
150005
150005
150005
150005
150005
150004
150004
150004
150004
150003
150003
150003
150003
150002
150002
150002
150001
150001
150000
150000
149999
149999
149998
149997
149995
149994
149994
149995
149997
149999
150000
150004
150009
150019
150024
150024
150021
150019
150016
150013
150010
150008
150005
150003
150000
149998
149995
149993
149990
149988
149985
149983
149980
149979
149976
149975
149971
149970
149967
149966
149963
149963
149959
149959
149956
149955
149952
149952
149949
149949
149945
149945
149942
149942
149939
149939
149936
149936
149933
149934
149930
149931
149928
149928
149925
149926
149923
149923
149920
149921
149918
149918
149915
149916
149913
149913
149911
149911
149908
149909
149906
149907
149904
149905
149902
149903
149900
149901
149899
149899
149897
149898
149895
149896
149894
149895
149893
149894
149892
149893
149891
149893
149891
149893
149891
149893
149891
149894
149892
149895
149893
149896
149895
149898
149897
149900
149899
149902
149901
149905
149903
149907
149906
149910
149909
149912
149911
149915
149914
149917
149916
149920
149918
149921
149920
149923
149922
149925
149923
149926
149924
149927
149925
149927
149925
149927
149926
149927
149926
149927
149925
149927
149925
149927
149924
149926
149924
149925
149923
149924
149922
149923
149921
149922
149920
149921
149919
149920
149918
149919
149917
149918
149916
149917
149914
149915
149913
149914
149911
149914
149911
149911
149911
149912
149909
149914
149922
149932
149956
149955
149953
149966
149949
149951
149965
149949
149953
149966
149950
149953
149967
149950
149954
149968
149951
149955
149969
149952
149956
149970
149954
149956
149971
149955
149957
149971
149955
149959
149972
149955
149960
149973
149956
149960
149974
149957
149961
149975
149958
149962
149975
149959
149962
149976
149959
149963
149977
149960
149963
149977
149960
149964
149977
149960
149964
149978
149961
149964
149978
149960
149964
149978
149960
149964
149978
149960
149964
149978
149959
149963
149977
149958
149962
149976
149957
149961
149976
149956
149960
149974
149954
149958
149973
149952
149956
149972
149950
149954
149970
149948
149953
149968
149947
149951
149967
149945
149949
149966
149943
149947
149965
149941
149945
149964
149940
149944
149964
149939
149943
149962
149938
149942
149962
149938
149942
149963
149938
149943
149964
149938
149943
149964
149939
149944
149965
149939
149945
149966
149940
149946
149967
149941
149947
149969
149942
149948
149970
149944
149950
149971
149945
149951
149972
149946
149952
149974
149948
149954
149975
149949
149955
149976
149951
149957
149977
149952
149958
149979
149954
149960
149980
149955
149961
149981
149957
149963
149982
149958
149964
149983
149960
149965
149985
149961
149967
149986
149963
149968
149987
149965
149970
149988
149966
149972
149989
149968
149973
149990
149970
149975
149992
149971
149976
149993
149973
149978
149994
149975
149980
149995
149977
149981
149996
149979
149983
149998
149981
149985
149999
149983
149987
150000
149985
149989
150002
149987
149991
150003
149989
149993
150004
149991
149995
150006
149994
149997
150007
149996
150000
150008
149999
150002
150010
150002
150004
150011
150004
150007
150013
150007
150010
150014
150010
150013
150016
150013
150015
150017
150017
150018
150019
150020
150022
150020
150023
150013
150015
150015
150015
150015
150014
150014
150013
150013
150013
150012
150012
150011
150011
150011
150011
150010
150010
150010
150009
150009
150009
150008
150008
150008
150007
150007
150006
150006
150005
150005
150004
150004
150003
150002
150002
150001
150000
149999
149997
149996
149995
149994
149993
149992
149991
149991
149991
149992
149995
149996
149997
150000
150002
150005
150007
150009
150011
150012
150012
150012
150011
150011
150010
150008
150007
150006
150005
150004
150003
150002
150000
149999
149998
149997
149996
149995
149994
149993
149992
149991
149990
149989
149988
149988
149986
149969
149966
149966
149970
149985
149989
149989
149996
149995
149997
149997
149997
149998
149999
150000
150001
150002
150003
150004
150005
150006
150007
150008
150009
150010
150011
150015
150014
150013
150012
150010
150009
150008
150007
150006
150005
150004
150003
150003
150001
150001
150000
149999
149999
150000
149999
149999
149997
149998
150000
150000
150001
149994
149993
149993
149993
149993
149990
149990
149975
149977
149972
149972
149972
149973
149974
149976
149996