/*--------------------------------*- C++ -*----------------------------------*\
| =========                 |                                                 |
| \\      /  F ield         | OpenFOAM: The Open Source CFD Toolbox           |
|  \\    /   O peration     | Version:  v2006                                 |
|   \\  /    A nd           | Website:  www.openfoam.com                      |
|    \\/     M anipulation  |                                                 |
\*---------------------------------------------------------------------------*/
FoamFile
{
    version     2.0;
    format      ascii;
    class       volScalarField;
    location    "0.15";
    object      alphat;
}
// * * * * * * * * * * * * * * * * * * * * * * * * * * * * * * * * * * * * * //

dimensions      [1 -1 -1 0 0 0 0];


internalField   nonuniform List<scalar> 
38932
(
0.104095
0.104097
0.104125
0.104122
0.104115
0.104104
0.104087
0.104064
0.104036
0.104003
0.103965
0.103922
0.103873
0.103821
0.103763
0.1037
0.103632
0.10356
0.103483
0.1034
0.103313
0.103222
0.103125
0.103024
0.102918
0.102808
0.102693
0.102574
0.10245
0.102322
0.102189
0.102053
0.101912
0.101766
0.101617
0.101463
0.101306
0.101145
0.10098
0.100811
0.100638
0.100462
0.100282
0.100099
0.0999121
0.0997222
0.099529
0.0993328
0.0991335
0.0989314
0.0987264
0.0985187
0.0983083
0.0980955
0.0978803
0.0976627
0.097443
0.0972212
0.0969974
0.0967718
0.0965445
0.0963157
0.0960853
0.0958536
0.0956207
0.0953867
0.0951518
0.0949161
0.0946797
0.0944428
0.0942055
0.093968
0.0937303
0.0934927
0.0932554
0.0930184
0.0927819
0.092546
0.092311
0.092077
0.091844
0.0916124
0.0913822
0.0911535
0.0909267
0.0907017
0.0904788
0.0902582
0.0900399
0.0898242
0.0896112
0.089401
0.0891938
0.0889898
0.0887891
0.0885918
0.0883982
0.0882083
0.0880223
0.0878403
0.0876625
0.087489
0.0873198
0.0871553
0.0869954
0.0868402
0.0866899
0.0865446
0.0864044
0.0862693
0.0861395
0.086015
0.0858958
0.0857821
0.0856739
0.0855714
0.0854745
0.0853834
0.0852982
0.085219
0.0851455
0.0850761
0.085004
0.084901
0.0847669
0.0844352
0.0833964
0.0790827
0.0640908
0.0229157
0.0083792
0.000314719
0.000326266
0.00353306
0.00945216
0.00655823
0.00238172
0.000321361
0.000312767
0.00187066
0.00512708
0.00440977
0.00157917
0.000303688
0.000292126
0.00140514
0.00391106
0.00360876
0.0013069
0.00028273
0.000273346
0.00122522
0.00341632
0.00328939
0.00118314
0.000265775
0.000259827
0.00115212
0.00319457
0.00312098
0.0011285
0.000254884
0.000250652
0.00110959
0.00305957
0.00300566
0.0010936
0.000247025
0.000243885
0.00107947
0.00295638
0.00290989
0.00106648
0.000241132
0.000238688
0.00105419
0.00286538
0.00282235
0.00104236
0.000236489
0.000234484
0.00103085
0.0027806
0.00274007
0.00101963
0.000232635
0.000230911
0.00100867
0.00270071
0.00266253
0.000997983
0.000229287
0.000227745
0.000987579
0.00262555
0.00258977
0.000977469
0.000226269
0.000224848
0.000967665
0.00255519
0.00252178
0.000958172
0.000223473
0.000222136
0.000948994
0.00248952
0.00245838
0.000940127
0.000220831
0.000219553
0.000931568
0.00242831
0.00239927
0.000923308
0.000218297
0.000217059
0.000915339
0.00237121
0.00234408
0.000907648
0.000215837
0.000214627
0.000900226
0.00231784
0.00229245
0.000893061
0.000213426
0.000212233
0.000886141
0.00226786
0.00224402
0.000879456
0.000211044
0.000209857
0.000872995
0.00222091
0.00219849
0.000866749
0.000208671
0.000207484
0.000860708
0.00217672
0.00215558
0.000854864
0.000206293
0.000205097
0.000849209
0.00213503
0.00211505
0.000843735
0.000203894
0.000202683
0.000838436
0.00209562
0.00207672
0.000833304
0.000201461
0.000200226
0.000828334
0.00205832
0.0020404
0.00082352
0.000198978
0.000197713
0.000818858
0.00202294
0.00200593
0.000814343
0.000196432
0.000195131
0.000809972
0.00198936
0.0019732
0.000805741
0.000193808
0.000192464
0.000801649
0.00195745
0.0019421
0.000797693
0.000191094
0.000189698
0.000793872
0.00192713
0.00191255
0.000790184
0.000188274
0.000186819
0.00078663
0.00189834
0.0018845
0.00078321
0.000185332
0.00018381
0.000779925
0.00187102
0.00185791
0.000776776
0.000182252
0.000180655
0.000773766
0.00184516
0.00183277
0.000770896
0.000179017
0.000177336
0.000768173
0.00182075
0.00180909
0.000765599
0.000175609
0.000173833
0.000763183
0.00179781
0.00178692
0.00076093
0.000172007
0.000170127
0.000758853
0.00177643
0.00176635
0.000756959
0.00016819
0.000166195
0.000755266
0.0017567
0.0017475
0.000753784
0.000164137
0.000162014
0.000752538
0.00173881
0.00173063
0.000751548
0.000159823
0.000157563
0.000750838
0.00172301
0.00171601
0.000750438
0.000155229
0.000152822
0.000750393
0.00170971
0.00170414
0.000750732
0.000150337
0.000147774
0.000751526
0.00169943
0.0016956
0.0007528
0.000145133
0.000142414
0.000754663
0.00169286
0.00169121
0.000757151
0.000139618
0.000136749
0.000760413
0.00169099
0.00169215
0.000764508
0.000133812
0.000130816
0.000769597
0.0016951
0.00170003
0.000775815
0.00012777
0.000124693
0.000783362
0.00170723
0.00171677
0.000792314
0.000121599
0.000118514
0.000802917
0.0017293
0.00174501
0.000815342
0.000115465
0.000112487
0.000829672
0.00176396
0.00178557
0.000845566
0.000109581
0.000106782
0.00086333
0.00181124
0.00184019
0.000882518
0.000104085
0.000101469
0.000902651
0.00187266
0.00190822
0.00092357
9.8938e-05
9.62224e-05
0.000941104
0.00194513
0.00198274
0.000953873
9.46237e-05
9.41549e-05
0.000957495
0.00202129
0.00206458
0.000957844
9.30492e-05
9.10293e-05
0.00095052
0.00209725
0.00210811
0.000930377
8.79143e-05
8.38411e-05
0.0008958
0.00209033
0.00204188
0.000847326
7.89165e-05
7.33522e-05
0.000784162
0.00195822
0.00183578
0.000707206
6.76473e-05
6.23658e-05
0.000621102
0.0016751
0.00146281
0.000522919
5.77828e-05
5.52034e-05
0.000416113
0.00121073
0.00102641
0.000353444
5.44219e-05
5.44386e-05
0.000324878
0.000926789
0.000882136
0.000310193
5.50594e-05
5.57547e-05
0.000303038
0.000863644
0.000859455
0.000302986
5.6576e-05
5.73408e-05
0.000307337
0.000868961
0.000887835
0.000314181
5.80016e-05
5.85512e-05
0.000321843
0.00090852
0.000930115
0.000330266
5.89502e-05
5.91565e-05
0.000338226
0.000951937
0.000971212
0.000345147
5.92208e-05
5.91965e-05
0.000350375
0.000988219
0.00100602
0.000356462
5.90153e-05
5.86405e-05
0.000360603
0.0010189
0.00102921
0.000364317
5.8151e-05
5.75122e-05
0.000367046
0.00103658
0.00104038
0.000368775
5.6735e-05
5.58552e-05
0.000369608
0.00104111
0.00103827
0.000369273
5.4819e-05
5.36907e-05
0.000368097
0.00103233
0.00102299
0.000365827
5.24477e-05
5.10786e-05
0.000362536
0.00101042
0.000994656
0.000358331
4.96086e-05
4.80395e-05
0.00035318
0.000975752
0.000953533
0.000347019
4.63362e-05
4.45456e-05
0.000340037
0.000928083
0.000898863
0.000331957
4.25815e-05
4.05815e-05
0.000322992
0.000865429
0.000826628
0.000312465
3.83287e-05
3.5771e-05
0.00030018
0.000780565
0.000722067
0.000284233
3.26933e-05
2.92666e-05
0.000263004
0.000644312
0.000537035
0.000232083
2.4754e-05
1.92751e-05
0.000185021
0.000389199
0.000196667
9.9797e-05
1.42227e-05
9.10032e-06
4.37403e-05
4.95136e-05
6.22897e-05
8.45261e-05
0.000104835
0.000126126
0.0001401
0.000153816
0.00016333
0.000172353
0.000179445
0.000185675
0.000190904
0.000195459
0.00019756
0.000199996
0.000200297
0.000221893
0.000213174
0.000204254
0.00018839
0.000119496
6.67443e-05
8.29255e-05
9.86678e-05
6.65418e-05
3.18206e-05
3.46658e-05
3.62849e-05
3.34231e-05
2.94697e-05
2.58069e-05
1.51101e-05
1.16934e-05
9.33301e-06
7.52673e-06
5.68542e-06
1.24592e-05
2.303e-05
3.70051e-05
6.35137e-05
0.000158264
0.000110964
6.7396e-05
2.83922e-05
7.17327e-06
9.07153e-06
5.33973e-05
0.000126686
0.00019733
0.000266837
0.000350476
0.000254675
0.000161693
6.72221e-05
1.05269e-05
1.12656e-05
7.64896e-05
0.000185412
0.000296333
0.00040749
0.000442019
0.000322813
0.000199521
8.1987e-05
1.17795e-05
1.18384e-05
8.35884e-05
0.00020408
0.000331139
0.000454219
0.000453823
0.000330035
0.000202964
8.29574e-05
1.16389e-05
1.13006e-05
8.16411e-05
0.000199395
0.000324376
0.000446947
0.000436153
0.000317286
0.000195295
8.03819e-05
1.08808e-05
1.0519e-05
7.96605e-05
0.000192516
0.000311941
0.000428378
0.000425906
0.000309315
0.000191256
7.97595e-05
1.02145e-05
9.95362e-06
7.99274e-05
0.000190373
0.000307789
0.000424437
0.000423572
0.000306149
0.000189236
7.97949e-05
9.63403e-06
9.24321e-06
7.84316e-05
0.000186187
0.000302735
0.000421202
0.000411698
0.000293309
0.000178984
7.47417e-05
8.64185e-06
8.0545e-06
6.74727e-05
0.000165408
0.000276803
0.000395505
0.00037211
0.00025307
0.000145931
5.73294e-05
7.20508e-06
5.80849e-06
4.32374e-05
0.000119255
0.000221187
0.000341388
0.000299183
0.000179032
8.10681e-05
2.28422e-05
3.6501e-06
2.47395e-06
1.07673e-05
5.07347e-05
0.000126061
0.000240035
0.000166039
7.00093e-05
2.98849e-05
8.04221e-06
2.8419e-06
3.47249e-06
4.92392e-06
1.63666e-05
4.64016e-05
9.42364e-05
6.39864e-05
2.16051e-05
7.79854e-06
6.11202e-06
7.63579e-06
6.81895e-06
6.10742e-06
8.58594e-06
2.41665e-05
6.80647e-05
7.2877e-05
2.80818e-05
1.02784e-05
6.53189e-06
5.46553e-06
4.78847e-06
7.16356e-06
1.35629e-05
3.49798e-05
8.0964e-05
8.6921e-05
3.75055e-05
1.35257e-05
6.75351e-06
5.0789e-06
5.07057e-06
7.14445e-06
1.4313e-05
3.74135e-05
8.59426e-05
9.0089e-05
4.01467e-05
1.58973e-05
6.21905e-06
6.14895e-06
7.0323e-06
6.57811e-06
1.64655e-05
4.29833e-05
9.89822e-05
0.00011097
5.3089e-05
1.93245e-05
7.25934e-06
5.33408e-06
5.54955e-06
8.13766e-06
1.86013e-05
4.83962e-05
0.000104513
0.000105274
4.90501e-05
1.96109e-05
7.33113e-06
6.64794e-06
7.47661e-06
8.14002e-06
1.93102e-05
4.58627e-05
0.000102284
0.000104751
5.09567e-05
2.1765e-05
9.25553e-06
5.97074e-06
6.83337e-06
8.63003e-06
2.30986e-05
5.27334e-05
0.000108065
0.000114312
5.57435e-05
2.28689e-05
8.89904e-06
6.89053e-06
6.51973e-06
1.05471e-05
2.53543e-05
5.88637e-05
0.000118701
0.000131519
6.70971e-05
2.75013e-05
8.66738e-06
6.87079e-06
8.00332e-06
9.9259e-06
2.71619e-05
6.27693e-05
0.000129376
0.000134269
6.94068e-05
2.92934e-05
1.05544e-05
6.53212e-06
7.83896e-06
1.02731e-05
3.0047e-05
6.69612e-05
0.000131748
0.000133642
6.6908e-05
2.92392e-05
1.04497e-05
7.92369e-06
7.4884e-06
1.35134e-05
3.15805e-05
6.57927e-05
0.000129265
0.00013561
7.32318e-05
3.39306e-05
1.17089e-05
7.19298e-06
8.35423e-06
1.09119e-05
3.58809e-05
7.40992e-05
0.000139357
0.000142319
7.40263e-05
3.44954e-05
1.18843e-05
8.65167e-06
8.1986e-06
1.4125e-05
3.69103e-05
7.45993e-05
0.000140667
0.000144019
7.73133e-05
3.73234e-05
1.4803e-05
8.07434e-06
8.82527e-06
1.36075e-05
4.18432e-05
8.2751e-05
0.000151203
0.000157079
8.38356e-05
3.9925e-05
1.24205e-05
8.9845e-06
9.34876e-06
1.47185e-05
4.26695e-05
8.39798e-05
0.000159306
0.000167837
9.23974e-05
4.36226e-05
1.49653e-05
8.26445e-06
9.31882e-06
1.3461e-05
4.82097e-05
9.5432e-05
0.000172392
0.000179633
9.6609e-05
4.59597e-05
1.36118e-05
9.37034e-06
9.33656e-06
1.69638e-05
4.83525e-05
9.55434e-05
0.000175462
0.000184518
0.000102858
4.82991e-05
1.46858e-05
8.90189e-06
1.08962e-05
1.62934e-05
5.13849e-05
9.59851e-05
0.000181062
0.000186953
0.000104132
5.05428e-05
1.73163e-05
9.23955e-06
9.93561e-06
1.76096e-05
5.53056e-05
0.000107278
0.000190519
0.000198814
0.00011034
5.34353e-05
1.51511e-05
9.80847e-06
1.02287e-05
2.04696e-05
5.75789e-05
0.000109456
0.000197247
0.000210473
0.000121544
5.89086e-05
1.72185e-05
9.28809e-06
1.11753e-05
1.63758e-05
6.17799e-05
0.000117366
0.00021303
0.000217884
0.000125032
6.09301e-05
1.9205e-05
9.81806e-06
1.08766e-05
1.71423e-05
6.57682e-05
0.000126968
0.000220848
0.000225948
0.000124671
6.23986e-05
1.78072e-05
1.10589e-05
1.12316e-05
2.27776e-05
6.7341e-05
0.000125515
0.000221358
0.000234455
0.000132352
6.41183e-05
1.84595e-05
1.06707e-05
1.28188e-05
2.18839e-05
7.1672e-05
0.000125502
0.000228069
0.000244301
0.000142478
6.99797e-05
2.26553e-05
1.03839e-05
1.23341e-05
2.06937e-05
7.33683e-05
0.000136883
0.000244341
0.000244642
0.000140119
7.05171e-05
2.05867e-05
1.16398e-05
1.17329e-05
2.73533e-05
7.93077e-05
0.000146675
0.000247957
0.000262625
0.000153493
7.60402e-05
2.04287e-05
1.14285e-05
1.31246e-05
2.13274e-05
8.12616e-05
0.000147865
0.000261985
0.000270762
0.000160439
8.02624e-05
2.46792e-05
1.14447e-05
1.33896e-05
2.02661e-05
8.50852e-05
0.000154657
0.000271882
0.000270687
0.000153194
8.10284e-05
2.36706e-05
1.32425e-05
1.27699e-05
2.92317e-05
8.85799e-05
0.000162519
0.000272634
0.000281841
0.000161763
8.11755e-05
2.3871e-05
1.27633e-05
1.4784e-05
2.73864e-05
9.10478e-05
0.000155092
0.000273525
0.000286519
0.000168252
8.73018e-05
2.72877e-05
1.35199e-05
1.37616e-05
2.90086e-05
9.51276e-05
0.00017725
0.000299001
0.000303331
0.000173813
8.87116e-05
2.26959e-05
1.37947e-05
1.50298e-05
2.60761e-05
9.4479e-05
0.000165472
0.000290147
0.000292338
0.00017298
9.12745e-05
2.97939e-05
1.39816e-05
1.46502e-05
2.45862e-05
9.7917e-05
0.000178954
0.000302001
0.000307021
0.000177953
9.00165e-05
2.81043e-05
1.44614e-05
1.52883e-05
2.74925e-05
9.16322e-05
0.000175824
0.000314967
0.000345227
0.000194839
9.27824e-05
3.08287e-05
1.45555e-05
1.64888e-05
2.86761e-05
8.82324e-05
0.000204349
0.000362132
0.000501662
0.000276081
0.000123442
4.28592e-05
2.19211e-05
2.81221e-05
7.38145e-05
0.000219769
0.00049669
0.000896808
0.00111356
0.000680876
0.00034184
0.000118347
3.53614e-05
4.30113e-05
0.000177076
0.000471747
0.00086591
0.00134461
0.00155855
0.00104639
0.000599146
0.000237797
5.01775e-05
5.63012e-05
0.000297598
0.000717154
0.00121083
0.00175574
0.00193917
0.00136413
0.000825169
0.000347069
6.1222e-05
6.6176e-05
0.000394823
0.000922979
0.00150183
0.00210298
0.00223296
0.00162275
0.00101366
0.000441748
7.09143e-05
7.51161e-05
0.000489971
0.00110593
0.00175118
0.00239317
0.00254422
0.00186599
0.00118408
0.000527813
7.88002e-05
8.31097e-05
0.000556531
0.00125709
0.00198081
0.00270272
0.00286626
0.00210026
0.00133371
0.000593762
8.84692e-05
9.73868e-05
0.000627539
0.00141046
0.00221008
0.00299581
0.00312609
0.0023329
0.00150599
0.000684534
0.00010643
0.000113811
0.00074646
0.00161527
0.00248493
0.00331884
0.00351392
0.00263962
0.00172508
0.000802393
0.000120582
0.000127458
0.000867211
0.00183495
0.00279191
0.00370169
0.003892
0.00293512
0.00193749
0.000931775
0.000131908
0.000132769
0.000964864
0.00199511
0.0030266
0.00406902
0.00392304
0.00296531
0.00195851
0.000944197
0.000130217
0.000127447
0.000916602
0.00189544
0.00284312
0.00369769
0.00388197
0.00291785
0.00192603
0.00092281
0.000129749
0.000131288
0.000964314
0.00201011
0.00305126
0.00405864
0.00423465
0.00318722
0.00210415
0.00101959
0.000134729
0.000135268
0.00104804
0.00218432
0.00331191
0.00440029
0.00455139
0.00342316
0.00225407
0.00107913
0.000139136
0.000135654
0.00108076
0.00227871
0.00348359
0.00466751
0.00464287
0.00343282
0.00224153
0.00106623
0.000133734
0.000124525
0.00100519
0.00211288
0.00320892
0.00422145
0.00377365
0.00291386
0.00193874
0.000922801
0.000114911
0.000105371
0.000851646
0.00180094
0.0027504
0.0037051
0.00348348
0.00260573
0.00169557
0.000792458
9.89653e-05
9.22618e-05
0.000743193
0.00159482
0.00243845
0.00321396
0.00326511
0.0024098
0.00155854
0.000723943
9.13296e-05
8.96448e-05
0.000717836
0.00156168
0.00243065
0.00330032
0.00329213
0.00243208
0.00156356
0.000719183
9.01542e-05
8.96188e-05
0.000720614
0.0015632
0.00243172
0.00329501
0.00330813
0.00243852
0.0015651
0.000723193
9.08526e-05
8.91499e-05
0.000723443
0.00157248
0.00245617
0.00334154
0.00337417
0.00245136
0.00156891
0.000723452
8.92637e-05
8.59623e-05
0.000702628
0.00151892
0.0023616
0.00319412
0.00299291
0.00224851
0.00145064
0.000669366
8.28592e-05
8.36339e-05
0.000671578
0.00146753
0.00229383
0.00312953
0.00326235
0.00239052
0.00152602
0.000699257
8.69845e-05
8.92936e-05
0.000735614
0.00159304
0.00249077
0.00339304
0.00352029
0.00257994
0.00165072
0.000761542
8.96543e-05
8.81177e-05
0.000760966
0.00166045
0.00261323
0.00361343
0.00343345
0.00253204
0.00161718
0.000737778
8.46327e-05
8.03737e-05
0.000708517
0.00156152
0.00242704
0.00323399
0.00339888
0.00248764
0.00158128
0.000708062
7.91711e-05
8.29757e-05
0.00073218
0.00164458
0.00259899
0.00356517
0.00371885
0.00271329
0.00171856
0.000764994
8.61841e-05
8.83585e-05
0.000792465
0.00177563
0.00281176
0.00386241
0.00398007
0.00285793
0.00179989
0.000805314
8.92713e-05
8.81168e-05
0.000797589
0.00176687
0.00278236
0.00379156
0.00359294
0.00269037
0.00172949
0.000784671
8.71938e-05
8.78201e-05
0.000794035
0.00176561
0.00277191
0.00378696
0.00398595
0.00290942
0.00184215
0.000823888
9.04409e-05
9.4966e-05
0.000857994
0.00192644
0.0030455
0.00417681
0.00435713
0.0031728
0.00200515
0.000903337
9.80259e-05
9.91183e-05
0.000914111
0.0020418
0.00323798
0.00451099
0.0043105
0.00316006
0.00200917
0.000907758
9.77502e-05
9.60183e-05
0.000902029
0.0019828
0.00307864
0.00410737
0.00434135
0.00318201
0.00202965
0.000915495
9.67203e-05
9.94377e-05
0.0009518
0.00212728
0.00335127
0.00458365
0.00482252
0.00351289
0.00222011
0.000993457
0.000104229
0.000107404
0.00102124
0.00227147
0.00360333
0.0050222
0.00482125
0.0035414
0.00226061
0.00102222
0.000107432
0.000105973
0.00101957
0.00223695
0.0034729
0.00462257
0.00490275
0.00359873
0.00229351
0.00103668
0.000107412
0.000112005
0.00107942
0.00239647
0.00378155
0.00519283
0.0054382
0.00389243
0.00245796
0.00111294
0.000115942
0.00011501
0.00111495
0.00244888
0.00384025
0.00523733
0.00504975
0.00378862
0.0024424
0.00111545
0.000115462
0.000118012
0.00114593
0.00252624
0.00395214
0.00537732
0.00571535
0.00416931
0.00264335
0.00119484
0.00012251
0.000126337
0.00123184
0.00272001
0.00431261
0.00602245
0.00582507
0.00427775
0.00273859
0.00125043
0.000128105
0.000129595
0.00127177
0.00275651
0.00425055
0.00564786
0.00604044
0.00445128
0.00286124
0.00130964
0.000131677
0.000133937
0.00135647
0.00300592
0.00472704
0.00646056
0.00685083
0.0049249
0.0031142
0.00141466
0.000143033
0.000150988
0.00147008
0.00316859
0.00492255
0.00667879
0.00653586
0.00493717
0.00322506
0.0015125
0.000158771
0.000167042
0.00157693
0.00334771
0.00517894
0.00701022
0.00748765
0.00540951
0.00347166
0.00163615
0.000174401
0.000177507
0.00167207
0.00352009
0.00542053
0.00732584
0.00719949
0.00544451
0.00356581
0.00169391
0.000174175
0.000169428
0.00169862
0.0036645
0.0057056
0.00773396
0.00828856
0.00594363
0.00374841
0.00167976
0.000156907
0.000159836
0.00168261
0.00379112
0.00597853
0.00814284
0.0080796
0.00605643
0.00389195
0.00176344
0.000175277
0.000191062
0.0018525
0.00403897
0.00632196
0.00873853
0.00870108
0.00644836
0.00416901
0.00193965
0.000205352
0.000222189
0.0020454
0.00432364
0.00661658
0.00872584
0.0094912
0.00694618
0.00451209
0.00214958
0.000237889
0.000253315
0.0022515
0.00467233
0.00711482
0.00950801
0.00957462
0.00732918
0.0048653
0.0023661
0.000270146
0.000286173
0.00248746
0.00509252
0.00772279
0.0104372
0.0105094
0.00793639
0.00528682
0.00259965
0.000302957
0.000321323
0.00272453
0.0055105
0.00820582
0.0106041
0.0115006
0.00858424
0.00569697
0.00281627
0.000331355
0.000317179
0.00280442
0.00570697
0.00862809
0.0114803
0.0114035
0.00854776
0.00558744
0.00269169
0.000310155
0.000331807
0.0026763
0.00551822
0.00849507
0.0114123
0.0117141
0.00869759
0.00564772
0.00277552
0.000373865
0.00038988
0.00290112
0.00588797
0.0089705
0.0119717
0.0127225
0.00949436
0.00617923
0.00297604
0.000374662
0.000340415
0.00290965
0.00624994
0.00971206
0.0132565
0.0129456
0.00963062
0.00624773
0.00296957
0.00035574
0.00043206
0.00318506
0.00634724
0.00955123
0.0126792
0.0124426
0.00945006
0.0064395
0.00339256
0.000498519
0.000524185
0.00344363
0.00630001
0.00920898
0.0121222
0.0116414
0.00871282
0.00580941
0.00298958
0.000521555
0.000499129
0.00239643
0.00503514
0.00787934
0.0108219
0.00912345
0.00663167
0.00416827
0.00188124
0.000441216
0.000378043
0.00151143
0.00351617
0.00577459
0.00809675
0.0071221
0.00504912
0.00310696
0.00138311
0.000339889
0.000316418
0.00120451
0.00279264
0.0046282
0.00663137
0.00596288
0.00419437
0.00253429
0.00108027
0.000289086
0.000267462
0.000964971
0.00234908
0.00396681
0.00573855
0.00520609
0.00360997
0.00212699
0.000847802
0.00023812
0.000200528
0.000766796
0.00203033
0.00352116
0.00516795
0.00475527
0.0032955
0.00191884
0.000713629
0.00017856
0.000180435
0.000784045
0.00195691
0.00333067
0.00486801
0.00455885
0.00321925
0.00195293
0.000822873
0.000179897
0.000177128
0.000866334
0.00201188
0.00331326
0.00475142
0.00460792
0.00322535
0.00199661
0.00087968
0.000173686
0.000165722
0.000855952
0.00190493
0.00300327
0.00405954
0.00419626
0.00303949
0.00192864
0.00086918
0.000157828
0.00015624
0.000919257
0.00194669
0.00300447
0.00408368
0.00434728
0.00315665
0.00203666
0.000977794
0.000160891
0.000166101
0.00100901
0.00205958
0.00314983
0.00434148
0.0039688
0.00302554
0.00203327
0.00102758
0.000170125
0.000170637
0.00102149
0.0020526
0.00309084
0.00414861
0.00414189
0.00305567
0.00203777
0.00101673
0.000169227
0.000165056
0.000979647
0.00197146
0.0029268
0.00381133
0.00397607
0.00297634
0.00196886
0.000946099
0.000158512
0.00015171
0.000934502
0.00194459
0.00293676
0.00397589
0.0036657
0.00281936
0.00188789
0.00090652
0.000145471
0.000139499
0.000909565
0.0019076
0.00287291
0.00381455
0.00380112
0.00289492
0.00194689
0.000954321
0.000138033
0.000142457
0.00100841
0.00203947
0.00305268
0.00405789
0.00412041
0.00307853
0.00207118
0.00103764
0.000146083
0.000147707
0.00103927
0.00205514
0.00300221
0.00386621
0.00405514
0.0030876
0.00208798
0.00105255
0.00014856
0.000149557
0.00106138
0.00209664
0.00309281
0.00410797
0.00385693
0.00300973
0.00206632
0.00105016
0.000149352
0.000149842
0.00106249
0.00209975
0.00308968
0.0040394
0.00409143
0.0030835
0.00209056
0.00105134
0.000149214
0.00014807
0.00104194
0.00205853
0.00300133
0.00384927
0.00402471
0.00307398
0.00207895
0.0010414
0.000146803
0.000145328
0.00102742
0.00207229
0.00307375
0.00408102
0.00384004
0.00298904
0.00203698
0.00101505
0.000142989
0.000141431
0.00101653
0.00206253
0.00306305
0.00401587
0.00407598
0.00306308
0.00205848
0.00101409
0.000139695
0.000137397
0.000994581
0.00202476
0.00298716
0.00384102
0.00402047
0.00306839
0.00206436
0.00101987
0.00013693
0.000136691
0.00101472
0.00206218
0.00307123
0.00408992
0.00386034
0.00299974
0.00203354
0.00100534
0.000135517
0.000134286
0.00100277
0.00206602
0.00308395
0.00404871
0.00412632
0.00308862
0.00205403
0.000992515
0.000132063
0.000127965
0.000943674
0.00197798
0.0029685
0.00391643
0.00365781
0.00283208
0.00189311
0.000898612
0.000123023
0.000119988
0.000898492
0.00190261
0.00287881
0.00380511
0.00386527
0.00287366
0.00189754
0.000901674
0.000118225
0.000117281
0.000902293
0.00187464
0.0028056
0.00364324
0.00381958
0.00288785
0.0019121
0.000914616
0.000117108
0.000116478
0.000909489
0.00191115
0.00289243
0.00388994
0.00366837
0.00282573
0.00188629
0.000903994
0.000115368
0.000115036
0.000904373
0.00191541
0.00290375
0.00384437
0.00391784
0.00291083
0.00191867
0.000913655
0.000114427
0.000113961
0.000893322
0.00188905
0.0028417
0.00369103
0.0038672
0.00291833
0.00192175
0.000906863
0.000113059
0.000113029
0.000902028
0.0019172
0.00291743
0.00393486
0.00370289
0.00284566
0.00188886
0.000893041
0.00011201
0.000111772
0.000902663
0.001918
0.00291919
0.00387558
0.00394148
0.00291962
0.0019134
0.000894725
0.000111329
0.000110005
0.000882129
0.00188091
0.00284114
0.00370414
0.00387363
0.00291127
0.00190624
0.000891322
0.000109771
0.000109188
0.000882541
0.0018987
0.0029097
0.00393889
0.0036964
0.00282809
0.00186061
0.000862765
0.000107415
0.000106216
0.000872386
0.00188656
0.00289375
0.00386215
0.00392135
0.00288624
0.00187842
0.000872104
0.000105591
0.000104489
0.000852444
0.0018419
0.00280792
0.00367879
0.00384226
0.00287311
0.00186687
0.00085923
0.000103296
0.000102929
0.000857845
0.00185835
0.0028674
0.00389805
0.00365776
0.00278967
0.00182896
0.000842333
0.000101728
0.000100209
0.0008428
0.00184811
0.00285384
0.00382192
0.00387878
0.00284702
0.00184124
0.000845636
9.93151e-05
9.87419e-05
0.00082687
0.00181324
0.00277747
0.00364689
0.00382194
0.0028523
0.00184379
0.000840241
9.83993e-05
9.89156e-05
0.000838772
0.00184791
0.00286221
0.00389874
0.00369706
0.00281416
0.00183964
0.000840683
9.87111e-05
0.00010103
0.000860863
0.00189118
0.00292311
0.00391041
0.00402473
0.00296724
0.00192262
0.00087949
0.000102901
0.000105148
0.000898649
0.00195833
0.00298018
0.00389357
0.00417933
0.00315989
0.00206446
0.000949733
0.000109208
0.000114233
0.000994709
0.00215704
0.00329611
0.00443508
0.00439128
0.00338701
0.0022531
0.00105572
0.000123155
0.000133896
0.00114855
0.00245069
0.00365192
0.00469124
0.00513651
0.00402664
0.00272071
0.00128062
0.000150621
0.000168998
0.00144286
0.00308576
0.00463823
0.00604441
0.00656771
0.00495258
0.00329177
0.00154231
0.000181364
0.000189508
0.00156327
0.00330732
0.00495841
0.00652473
0.00618261
0.00482419
0.00324871
0.00154375
0.000191517
0.000195516
0.0015631
0.00330372
0.004943
0.00644329
0.00652086
0.00502951
0.00338501
0.00161006
0.00020298
0.000210942
0.00168225
0.00353761
0.00531661
0.00695064
0.00711692
0.00537793
0.00358899
0.00171647
0.000218857
0.000224047
0.00171055
0.00354545
0.00524842
0.00672541
0.00703216
0.00538699
0.00360127
0.00172383
0.000214894
0.000212991
0.00172029
0.00358996
0.00538438
0.00714216
0.00671064
0.00522369
0.00351526
0.00168789
0.000210018
0.000209114
0.00170673
0.00356994
0.00535508
0.00700477
0.00710649
0.00535184
0.00356648
0.00171185
0.000209294
0.000208125
0.00168303
0.00349497
0.00518989
0.00667348
0.00696696
0.00531643
0.00354075
0.00169191
0.00020691
0.000206102
0.00169226
0.00353364
0.00531311
0.00706895
0.00663434
0.00514717
0.00345447
0.00164902
0.000204363
0.00020393
0.00166695
0.00350349
0.00527585
0.00693041
0.00703218
0.00527398
0.00349804
0.00166937
0.000203874
0.000201907
0.00163801
0.00342582
0.00511033
0.00659653
0.00688926
0.0052342
0.0034692
0.00164609
0.000200889
0.000199857
0.00163132
0.00344732
0.00522157
0.00698027
0.00653534
0.00504797
0.00336643
0.00159619
0.000197813
0.000196235
0.00159272
0.00339492
0.00515803
0.00681901
0.00688304
0.00513175
0.00337258
0.00158253
0.000193685
0.000192099
0.00155926
0.00329529
0.00495545
0.00643015
0.00667006
0.00505416
0.00333894
0.00157503
0.000193237
0.000196325
0.00160014
0.00338766
0.00509681
0.00668028
0.00708186
0.00534735
0.0035068
0.001644
0.000200643
0.000202667
0.00164876
0.00352099
0.00535324
0.00717461
0.00671121
0.00516976
0.00343355
0.00162237
0.000202106
0.000200915
0.00162311
0.00346385
0.00527543
0.00699235
0.00703027
0.00522684
0.00342198
0.00160251
0.000198312
0.000195619
0.0015598
0.0033281
0.00503126
0.00653981
0.00677513
0.00511353
0.00335726
0.00156829
0.000194892
0.000196956
0.00158589
0.00339411
0.00513968
0.00676192
0.0071636
0.00538276
0.00350694
0.00162607
0.000199805
0.000200932
0.00163132
0.00350877
0.00537165
0.00723331
0.00673472
0.00516623
0.0034098
0.0015934
0.000199639
0.000197812
0.00159127
0.00343223
0.00526724
0.00701747
0.0070405
0.0052065
0.00338455
0.00156479
0.000195737
0.000193922
0.0015298
0.00328463
0.0049929
0.0065192
0.00675307
0.00506947
0.00330702
0.00153168
0.000193632
0.000195261
0.00154884
0.00333916
0.00508518
0.00672463
0.00712805
0.00532569
0.00344335
0.00158403
0.000198234
0.000198826
0.00158522
0.00344304
0.00530972
0.00718595
0.0066582
0.00508979
0.00334152
0.00155035
0.000197146
0.000195563
0.00154434
0.00335375
0.00517979
0.00693536
0.00694658
0.00511511
0.0033032
0.00151506
0.000193523
0.00019046
0.0014623
0.00318722
0.00487953
0.00640364
0.00663105
0.00495123
0.00320045
0.00146688
0.000189598
0.000190705
0.00147952
0.00322582
0.00494763
0.00657962
0.00697736
0.00517305
0.00331515
0.00151057
0.000192667
0.000193419
0.00151079
0.00330664
0.0051371
0.00700265
0.00644949
0.00490727
0.00320301
0.00147627
0.000191454
0.000191754
0.00147688
0.00321835
0.00498053
0.00667906
0.00662216
0.00497978
0.00324727
0.0014943
0.000194023
0.000196287
0.00151992
0.0033267
0.00519118
0.00701373
0.00703374
0.00515517
0.00330894
0.00151067
0.000195762
0.000193082
0.00145537
0.00319197
0.00490376
0.00645328
0.00668023
0.00496777
0.00319454
0.00145309
0.000191877
0.000192724
0.00146034
0.00320605
0.00494857
0.00660388
0.00699415
0.00515665
0.00328644
0.00148636
0.000193969
0.000193667
0.00148221
0.00326905
0.00511297
0.00700203
0.00640853
0.00485849
0.00315426
0.00144447
0.000192158
0.000192026
0.00143792
0.00316005
0.00492267
0.00663627
0.00655489
0.00490304
0.00317415
0.00144689
0.000193046
0.00019476
0.0014722
0.00325454
0.00511551
0.00694873
0.00695597
0.00506739
0.00323062
0.00146652
0.000194901
0.000193075
0.00140786
0.00310731
0.00480414
0.00635062
0.00657677
0.00485983
0.00310119
0.00139749
0.00019165
0.000192359
0.00141309
0.00311599
0.00483825
0.00649017
0.00687623
0.00504386
0.00319389
0.00143634
0.00019384
0.000192598
0.00142719
0.00316606
0.00499089
0.00687454
0.00625443
0.00472018
0.00304002
0.00137321
0.000189769
0.000187817
0.0013627
0.0030337
0.00477159
0.00647874
0.00637158
0.00473567
0.00303496
0.00136509
0.000188011
0.000189274
0.00138784
0.00310341
0.00492798
0.00675374
0.00674277
0.00487144
0.00307213
0.00136177
0.000188255
0.000184305
0.00129529
0.00292694
0.00458524
0.00610451
0.00632167
0.00462489
0.00291503
0.00128769
0.000181848
0.000183838
0.00130762
0.00292693
0.00459634
0.00620894
0.0065548
0.00478256
0.00302189
0.00135143
0.000188366
0.000191611
0.00137612
0.0030629
0.00478966
0.00645964
0.00686582
0.00500643
0.00314579
0.00140587
0.000194518
0.00019467
0.00139724
0.00312744
0.00495411
0.0068498
0.00619223
0.00465033
0.00297058
0.00132217
0.000191487
0.000189337
0.00131206
0.00295397
0.00469199
0.00642089
0.0062887
0.00464384
0.00294982
0.00131494
0.000189039
0.000189117
0.00133105
0.00300794
0.00483001
0.0066676
0.00664039
0.00476349
0.00297454
0.00129832
0.000187185
0.00018331
0.00125048
0.00282859
0.00446297
0.00597859
0.0061986
0.00450449
0.00281492
0.00124084
0.000181921
0.000182311
0.00124601
0.0028179
0.00445896
0.0060622
0.00641335
0.00464069
0.0029028
0.00128417
0.000185296
0.000189226
0.00130687
0.00293758
0.00463554
0.0062906
0.00668858
0.00484016
0.00300784
0.00132316
0.000191133
0.000190404
0.00132049
0.00298809
0.00477957
0.00666029
0.00597606
0.00445955
0.00281341
0.00122454
0.000186532
0.000183271
0.00121607
0.00278758
0.00448123
0.0061898
0.00603741
0.00443022
0.00278599
0.00122056
0.000183936
0.000186344
0.00125757
0.0028648
0.00461058
0.00639286