/*--------------------------------*- C++ -*----------------------------------*\
| =========                 |                                                 |
| \\      /  F ield         | OpenFOAM: The Open Source CFD Toolbox           |
|  \\    /   O peration     | Version:  v2006                                 |
|   \\  /    A nd           | Website:  www.openfoam.com                      |
|    \\/     M anipulation  |                                                 |
\*---------------------------------------------------------------------------*/
FoamFile
{
    version     2.0;
    format      ascii;
    class       volScalarField;
    location    "0.15";
    object      epsilon;
}
// * * * * * * * * * * * * * * * * * * * * * * * * * * * * * * * * * * * * * //

dimensions      [0 2 -3 0 0 0 0];


internalField   nonuniform List<scalar> 
38932
(
22205.4
22204.2
22311.9
22310.9
22306
22298.8
22286.6
22272.1
22253.1
22231.4
22206
22177.5
22145.9
22111
22072.9
22031.7
21987.3
21939.7
21889.1
21835.4
21778.7
21719
21656.3
21590.8
21522.4
21451.2
21377.2
21300.5
21221.2
21139.3
21054.8
20967.8
20878.4
20786.6
20692.5
20596.2
20497.7
20397.1
20294.4
20189.8
20083.3
19974.9
19864.8
19753
19639.5
19524.6
19408.2
19290.4
19171.3
19051
18929.5
18807
18683.5
18559.1
18433.9
18307.9
18181.3
18054.1
17926.4
17798.3
17669.8
17541.1
17412.3
17283.3
17154.4
17025.5
16896.8
16768.3
16640.2
16512.4
16385.1
16258.4
16132.3
16006.9
15882.3
15758.6
15635.8
15514
15393.3
15273.7
15155.3
15038.2
14922.5
14808.2
14695.3
14584
14474.3
14366.2
14259.9
14155.3
14052.6
13951.7
13852.8
13755.9
13661
13568.1
13477.4
13388.9
13302.5
13218.4
13136.6
13057.1
12979.9
12905.1
12832.7
12762.7
12695.2
12630.2
12567.6
12507.5
12450
12394.9
12342.5
12292.5
12245.1
12200.3
12158.1
12118.6
12081.8
12048.2
12018.2
11993.4
11977
11978.8
12012.1
12129.1
12522.6
13761.8
19490.4
60643.6
232234
1.59183e+06
2.00338e+06
424175
148092
196647
484221
1.97441e+06
1.8341e+06
486557
215003
216019
464888
1.6245e+06
1.45167e+06
429272
212208
202896
391141
1.3083e+06
1.19843e+06
361139
191707
180449
332515
1.10955e+06
1.03736e+06
309827
170315
161396
291611
978709
930796
276902
153703
147106
264900
890917
857301
254997
141452
136593
246717
828530
803516
239694
132388
128719
233645
781435
761658
228353
125486
122607
223652
743705
727210
219415
120019
117668
215546
711893
697539
211972
115513
113522
208638
683981
671090
205501
111667
109929
202526
658762
646917
199689
108291
106739
196968
635488
624419
194347
105261
103849
191812
613666
603189
189351
102496
101194
186955
592954
582933
184615
99938.4
98724
182325
573099
563430
180077
97546.8
96403.1
177865
553905
544505
175686
95289.6
94203.4
173533
535213
526013
171403
93141.8
92102.4
169292
516892
507835
167196
91083.1
90081.6
165111
498831
489868
163035
89096.3
88125.2
160963
480934
472020
158895
87166.7
86219.4
156825
463117
454215
154753
85281.6
84352.1
152675
445306
436383
150589
83429.7
82512.9
148493
427439
418466
146384
81600.9
80692.3
144261
409459
400413
142122
79786.2
78881.6
139964
391321
382180
137786
77977.6
77073.1
135585
372985
363733
133360
76167.4
75259.4
131110
354420
345044
128832
74348.5
73433.7
126526
335602
326093
124188
72514.3
71589.4
121818
316516
306872
119415
70658.4
69720.2
116976
297160
287382
114501
68774.3
67819.5
111987
277541
267641
109435
66855.3
65880.4
106841
257686
247684
104206
64894.2
63895.6
101527
237643
227575
98805.9
62883.9
61857.4
96039.8
217489
207405
93230.6
60816.1
59757.7
90376.2
197335
187305
87479.8
58682.3
57587.3
84539.5
177331
167449
81559.8
56471.9
55333.8
78540.1
157680
148068
75485.8
54170.4
52980.5
72399.3
138645
129458
69286.5
51758.4
50499.6
66151.5
120549
111979
63005.1
49199.6
47851.8
59852.6
103787
96032.4
56704.6
46442.2
44958.6
53568.1
88759.7
82025.1
50461.3
43390.9
41703.6
47366
75795.1
70103.1
44286.4
39861.4
37822.7
41203.8
64898.7
60104.5
38093.1
35555.2
33066.2
34988.8
55702.1
51224.6
31690
30183.9
27315.7
28955.4
48684.3
47879.5
26466.3
24433
21341.8
23736.8
46062.7
42965.9
20768.4
18103
14830.3
17599.1
38575.8
33372.5
14378.5
11688.7
8834.39
11281.2
27778.3
22276.8
8528.07
6430.25
4588.44
6317.48
17455.3
13666.9
4705.36
3306.31
2521.57
3672.28
10869.9
9460.01
3212.99
2146.05
1996.13
3084.36
9071.54
9069.74
3073.7
1950.16
1945.84
3140.64
9373.29
9735.3
3212.94
1960.16
1984.14
3300.92
10167.6
10581.1
3373.42
2004.53
2017.14
3430.1
10953.7
11248.1
3462.23
2021.28
2019.51
3474.32
11481.9
11597.4
3465.46
2006.78
1985.29
3435.7
11637.3
11609.3
3400.29
1958.53
1921.83
3344.09
11489.4
11273.3
3264.02
1874.33
1820.7
3171.24
10987.3
10623.3
3059.15
1757.73
1688.66
2934.81
10199.5
9713.88
2796.49
1612.6
1531.45
2648.7
9190.26
8623.84
2491.73
1445.54
1355.94
2328.02
8028.85
7417.33
2159.77
1263.66
1169.56
1988.59
6791.69
6160.29
1815.59
1074.29
978.926
1643.07
5532.88
4907.37
1471.25
883.785
789.279
1301.15
4293.43
3672.55
1132.43
695.522
602.307
965.798
3078.11
2485.9
799.348
509.337
415.733
633.748
1915.84
1352.13
471.732
323.029
229.95
314.667
839.659
392.935
173.021
141.057
64.1989
72.7284
156.152
39.087
15.908
23.0134
47.9563
112.13
218.886
346.2
479.316
613.459
741.373
864.67
976.223
1078.19
1172.92
1252.63
1312.43
1351.66
1348.71
1341.25
1277.13
1207.71
1085.32
891.426
1111.8
1156.66
992.033
603.634
734.107
780.023
657.204
526.357
403.513
263.704
257.513
209.932
142.077
64.3035
113.476
69.9233
83.0975
107.52
133.763
110.637
93.5754
78.7455
75.4353
144.923
250.032
108.808
95.4295
101.559
114.063
123.916
117.146
119.525
150.173
357.319
463.742
191.949
145.419
136.569
139.113
157.711
157.768
172.407
232.204
558.309
649.488
274.109
201.719
181.843
178.806
202.374
208.19
232.965
317.158
737.683
827.996
362.162
266.321
236.837
228.396
256.737
267.775
301.99
409.339
921.23
1019.5
458.97
340.233
301.243
287.871
322.14
337.984
381.594
511.622
1116.02
1233.05
571.18
427.705
378.349
359.807
401.542
423.064
478.507
635.603
1352.06
1493
712.633
537.122
473.754
448.435
501.345
532.691
606.791
806.785
1663.77
1993.75
950.945
700.667
604.841
562.288
631.308
690.459
817.974
1140.85
2424.72
3117.28
1425.16
976.031
795.407
711.306
810.218
940.377
1245.73
2028.39
4522.75
6283.28
3045.6
1637.82
1169.09
951.424
1158.6
1571.3
2181.68
3934.32
9447.51
16687.1
6664.15
3349.32
2151.63
1687.36
2854.61
5322
15209.1
54333.1
164195
115939
39651.8
12593.7
5062.03
2998.54
3054.67
4676.8
9418.03
22928.6
61095.5
40682.4
16351.7
7884.39
4562.3
3178.83
3268.92
4649.81
8453.64
19118.9
49377.7
47904.7
18597.6
8816.88
5092.59
3665.88
3919.55
5383.78
10263.1
30812.5
88485.4
130694
46447.4
13730
6119.23
4175.25
3997.97
5400.05
9418.9
21272.9
57364.5
62816.1
24489.8
11512.4
6554.85
4725.65
5262.08
7336.54
13989.7
39959.6
111253
154551
56652.7
19430
9254.03
6247.72
6451.94
8892.8
14706
31245.9
80348
117892
44320.4
17583.5
9783.76
7135.68
7220.37
10044.7
18638.6
44577.3
120888
101124
40803.6
19731.8
11196.5
7892.25
7547.76
10062.6
18062.7
42110
119710
183043
67501.1
27428.6
13051.8
8880.72
8901.31
11978.7
19534.3
39085.8
103512
171380
62612.8
27595.4
14485.8
10376.6
10860.3
15303.2
28078.6
69527.8
187071
150069
59262
31085.3
18209.3
12682.6
12608.1
16604.4
25893.7
54196.2
139343
213119
86149.1
35427.9
19266.2
14132.1
14600.1
20754.9
39033.3
88034.7
235505
196348
80479.6
41939.9
24060.4
16734.3
17115.6
23770.4
38401.8
72595.5
193062
240958
91854.7
45673.9
25606.2
18389.7
18290.7
25241.5
44631.7
107182
271553
295407
117496
54245
29814
20363.8
19566.5
26498
41784.2
79254.5
210069
297890
126848
54173.7
29529.7
21467.4
21209.4
29625.6
54093.5
113418
301084
289867
115601
61373
35040
24307
23782.6
31714.1
51746.9
98518.5
258655
447477
177350
88164.3
42703.6
28038.1
27309.7
36925.9
57416.5
105107
293761
341793
132410
69973.2
41385.5
30164.6
29689.1
39978.1
65872.3
141535
355542
381283
142722
78653
48011.5
33782.5
31677.9
41269.2
62208.9
120541
301980
508727
224684
96901.2
50560.5
35676.6
35328.8
47026.6
72258.3
128009
351959
472791
211025
94648.1
52905.7
39072.1
39475.1
55620.2
98686.6
189683
493593
501734
196474
111005
65102.7
44786.4
42852.9
58102
95763.3
173093
445736
721911
294712
159047
79806.7
51164.2
46632.7
60736
88430.5
149747
414994
645483
254212
138609
75119.9
53255.9
54614
73185.2
115672
227830
589030
564398
210369
123361
81606.8
59777.5
56559.3
74125.4
116189
235016
562775
824291
369417
169346
91516.4
64095
62316
81158.3
118766
208938
562813
880943
437788
195449
99257.8
70580.2
72882.9
103495
177090
324204
842461
744240
289048
169570
108929
78708.8
78056.4
106102
170893
295663
756573
1.09272e+06
452872
265832
142303
92998.7
88109.2
117721
180446
331084
915397
900884
346521
197376
124053
91863.4
91463.3
124316
210246
444725
995619
1.23798e+06
560660
276102
153819
106141
105600
141025
212647
358239
1.00952e+06
1.14998e+06
557403
259253
147388
111334
109542
145093
229405
408174
1.09127e+06
1.2674e+06
481695
271780
156570
112749
97083.2
130768
201156
375833
1.23564e+06
1.14842e+06
344915
168952
111748
87296.7
81690.1
102336
147179
293596
932975
685298
241315
131627
91302.8
71389.9
69106.6
83009.4
111468
188777
501581
411048
164550
104435
81251.3
69162.1
69688.7
80208.2
100263
151783
368063
350822
145315
99125.8
80865.5
71162.6
73130.2
82332.9
99634.5
143944
344430
341813
144534
101424
84596
75635.3
78706.3
87395.7
103846
145992
342702
348069
148191
106817
90523.8
81770.6
85218
94256.6
110798
152199
354705
362783
159273
115835
98479.9
88909
92769.8
102893
121104
166151
378095
386805
173993
126680
107670
97138.8
101711
112445
131977
180192
393778
408244
186636
137410
117176
105948
110423
122147
143175
194437
425028
441224
201607
149065
127369
115273
120590
133132
155373
208559
461017
483673
218412
163385
140255
127215
136258
149577
174259
233052
513495
539962
248551
185981
159548
145044
148631
165927
195358
263975
570342
602156
275204
202743
171558
153485
158878
177522
209824
284214
627945
667375
297172
217790
184038
164806
171353
191068
226093
309568
703035
751530
325235
236366
199578
179138
190291
210860
249163
342430
799523
856629
365287
266217
226190
206680
222734
244251
286696
393774
924975
1.0036e+06
422649
306584
259080
232611
247118
274699
326201
451224
1.06389e+06
1.13615e+06
481556
347458
292574
263070
270248
305023
364944
507070
1.18916e+06
1.25224e+06
532176
380370
316544
280126
292389
330027
396835
555982
1.3113e+06
1.37251e+06
580477
414266
344324
304797
317267
358770
432085
604816
1.42226e+06
1.48976e+06
631988
450441
373386
329814
344071
390110
470588
661113
1.56987e+06
1.65281e+06
695330
496327
412293
365860
387928
436694
525809
734865
1.72065e+06
1.79024e+06
768445
545657
449578
393315
401700
459979
560309
791890
1.844e+06
1.90559e+06
811338
574729
471504
411788
423421
485238
591851
837938
1.99416e+06
2.10531e+06
877047
616782
504474
439653
467646
532297
649253
925083
2.24913e+06
2.3739e+06
974234
683651
561777
495306
500094
575933
706785
1.01682e+06
2.52958e+06
2.59989e+06
1.0415e+06
721862
586537
508320
519316
598814
736077
1.06047e+06
2.61987e+06
2.69365e+06
1.08835e+06
756149
614700
533086
552258
637321
783518
1.12653e+06
2.79674e+06
2.87796e+06
1.17109e+06
820713
671093
587510
621554
706212
859444
1.22068e+06
2.96504e+06
3.08368e+06
1.26746e+06
887214
723942
627848
639219
738904
910427
1.30749e+06
3.19049e+06
3.28106e+06
1.34933e+06
934664
757225
654421
673256
778870
960827
1.37912e+06
3.4085e+06
3.50416e+06
1.43562e+06
998704
810318
699701
747408
857298
1.05212e+06
1.50699e+06
3.68723e+06
3.82568e+06
1.57217e+06
1.10318e+06
902991
791723
801227
927440
1.1415e+06
1.63555e+06
3.99418e+06
4.17131e+06
1.69231e+06
1.17271e+06
948655
817595
839840
975725
1.20871e+06
1.74499e+06
4.28126e+06
4.43854e+06
1.81204e+06
1.25754e+06
1.0157e+06
873244
934524
1.07451e+06
1.32094e+06
1.89539e+06
4.62319e+06
4.80696e+06
1.98182e+06
1.38751e+06
1.13193e+06
990524
1.0036e+06
1.1646e+06
1.43865e+06
2.06578e+06
5.01122e+06
5.17827e+06
2.13976e+06
1.48475e+06
1.19726e+06
1.0274e+06
1.06794e+06
1.24786e+06
1.54822e+06
2.22892e+06
5.42825e+06
5.65235e+06
2.34061e+06
1.63213e+06
1.32292e+06
1.14612e+06
1.21588e+06
1.39515e+06
1.7162e+06
2.4567e+06
5.88328e+06
6.18489e+06
2.56624e+06
1.78068e+06
1.4367e+06
1.23312e+06
1.26525e+06
1.48061e+06
1.84538e+06
2.67274e+06
6.49829e+06
6.73584e+06
2.78815e+06
1.92888e+06
1.54641e+06
1.31795e+06
1.41986e+06
1.6443e+06
2.03379e+06
2.92342e+06
7.00781e+06
7.3501e+06
3.0687e+06
2.1421e+06
1.73803e+06
1.50988e+06
1.53435e+06
1.79546e+06
2.23249e+06
3.22266e+06
7.7995e+06
8.31067e+06
3.39693e+06
2.32533e+06
1.85538e+06
1.57736e+06
1.64917e+06
1.94458e+06
2.44038e+06
3.55682e+06
8.68968e+06
8.83748e+06
3.70103e+06
2.57417e+06
2.07319e+06
1.78385e+06
1.89845e+06
2.19168e+06
2.70675e+06
3.87349e+06
9.106e+06
9.47005e+06
4.05059e+06
2.82951e+06
2.27306e+06
1.93601e+06
2.01575e+06
2.38053e+06
2.97487e+06
4.26561e+06
9.93235e+06
1.06058e+07
4.53691e+06
3.16736e+06
2.54978e+06
2.1872e+06
2.33518e+06
2.71108e+06
3.3694e+06
4.84272e+06
1.1472e+07
1.28348e+07
5.23207e+06
3.57219e+06
2.83118e+06
2.39017e+06
2.50051e+06
2.99017e+06
3.81493e+06
5.71159e+06
1.46679e+07
1.62009e+07
6.17502e+06
4.09e+06
3.21786e+06
2.73069e+06
2.92057e+06
3.42119e+06
4.31756e+06
6.42672e+06
1.63142e+07
1.66706e+07
6.69826e+06
4.53931e+06
3.58929e+06
3.01235e+06
3.26799e+06
3.83348e+06
4.80881e+06
7.0443e+06
1.73568e+07
1.82277e+07
7.42443e+06
5.09667e+06
4.07455e+06
3.49297e+06
3.62258e+06
4.30694e+06
5.41562e+06
7.88187e+06
1.92972e+07
2.07613e+07
8.45548e+06
5.82438e+06
4.65465e+06
3.96648e+06
4.27984e+06
5.01112e+06
6.26969e+06
9.0992e+06
2.23211e+07
2.4589e+07
9.9014e+06
6.79273e+06
5.38024e+06
4.48716e+06
4.99056e+06
5.92666e+06
7.48314e+06
1.09518e+07
2.73833e+07
3.1083e+07
1.2239e+07
8.27612e+06
6.49962e+06
5.45467e+06
5.78917e+06
7.15266e+06
9.31013e+06
1.40246e+07
3.69059e+07
4.49144e+07
1.6633e+07
1.07769e+07
8.12968e+06
6.58102e+06
7.29051e+06
9.17081e+06
1.25421e+07
2.05295e+07
5.95816e+07
6.43326e+07
2.26969e+07
1.37968e+07
9.98285e+06
7.87416e+06
8.18015e+06
1.03986e+07
1.42381e+07
2.26753e+07
5.96646e+07
5.93212e+07
2.26914e+07
1.44883e+07
1.07216e+07
8.52061e+06
8.55748e+06
1.09069e+07
1.48352e+07
2.3298e+07
6.09775e+07
7.28876e+07
2.60929e+07
1.59369e+07
1.14539e+07
8.7957e+06
9.46152e+06
1.21607e+07
1.69502e+07
2.8137e+07
8.1114e+07
7.57675e+07
2.75976e+07
1.728e+07
1.26432e+07
9.94643e+06
1.03413e+07
1.30669e+07
1.75457e+07
2.71448e+07
7.36158e+07
7.55197e+07
2.78606e+07
1.82776e+07
1.3609e+07
1.0751e+07
1.11923e+07
1.43663e+07
1.97477e+07
3.14584e+07
7.35228e+07
7.25018e+07
3.50519e+07
2.16354e+07
1.54171e+07
1.17953e+07
1.34422e+07
1.72541e+07
2.3918e+07
3.84085e+07
7.49096e+07
7.78242e+07
4.08734e+07
2.57186e+07
1.85462e+07
1.43633e+07
1.55295e+07
1.97597e+07
2.66736e+07
4.05099e+07
7.73899e+07
7.4037e+07
4.00731e+07
2.68823e+07
2.00636e+07
1.57214e+07
1.63577e+07
2.02732e+07
2.65234e+07
3.86143e+07
7.09445e+07
6.65124e+07
3.7162e+07
2.58223e+07
1.98788e+07
1.59574e+07
1.62532e+07
1.97094e+07
2.50273e+07
3.52943e+07
6.31982e+07
6.35666e+07
3.33175e+07
2.36628e+07
1.88069e+07
1.54494e+07
1.54624e+07
1.82606e+07
2.24373e+07
3.07826e+07
5.96711e+07
5.07184e+07
2.6644e+07
2.06712e+07
1.70938e+07
1.44246e+07
1.41814e+07
1.62213e+07
1.90288e+07
2.37841e+07
4.39832e+07
3.9199e+07
2.13819e+07
1.73701e+07
1.49842e+07
1.30776e+07
1.24341e+07
1.40582e+07
1.60401e+07
1.96367e+07
3.5691e+07
3.33387e+07
1.81872e+07
1.49708e+07
1.33653e+07
1.21859e+07
1.14333e+07
1.25119e+07
1.38984e+07
1.68007e+07
3.14674e+07
2.96046e+07
1.52829e+07
1.28954e+07
1.17806e+07
1.09646e+07
1.01796e+07
1.09627e+07
1.197e+07
1.41548e+07
2.73598e+07
2.50526e+07
1.32909e+07
1.12341e+07
1.03107e+07
9.58837e+06
9.25549e+06
9.81546e+06
1.06361e+07
1.2583e+07
2.32978e+07
2.191e+07
1.20503e+07
1.00987e+07
9.30111e+06
8.76575e+06
8.32674e+06
8.8497e+06
9.62501e+06
1.15375e+07
2.08873e+07
2.0073e+07
1.11197e+07
9.22968e+06
8.4933e+06
8.0558e+06
7.67119e+06
8.10041e+06
8.82467e+06
1.07242e+07
1.94468e+07
1.89965e+07
1.02865e+07
8.45182e+06
7.74838e+06
7.32105e+06
7.10081e+06
7.46227e+06
8.12287e+06
9.89839e+06
1.8409e+07
1.80763e+07
9.44831e+06
7.76312e+06
7.14248e+06
6.7978e+06
6.54657e+06
6.82963e+06
7.37575e+06
8.87805e+06
1.74734e+07
1.66857e+07
8.43345e+06
7.0113e+06
6.49294e+06
6.21948e+06
5.92615e+06
6.21226e+06
6.72421e+06
8.12251e+06
1.59976e+07
1.54504e+07
7.88195e+06
6.49272e+06
5.9964e+06
5.74072e+06
5.51453e+06
5.76601e+06
6.26451e+06
7.6283e+06
1.49436e+07
1.46475e+07
7.41802e+06
6.06236e+06
5.5611e+06
5.29426e+06
5.15876e+06
5.40103e+06
5.88854e+06
7.22037e+06
1.41625e+07
1.38456e+07
7.01225e+06
5.69999e+06
5.21322e+06
4.97194e+06
4.79142e+06
5.05072e+06
5.54537e+06
6.86386e+06
1.35419e+07
1.32236e+07
6.68565e+06
5.3996e+06
4.92111e+06
4.68551e+06
4.52548e+06
4.76133e+06
5.24253e+06
6.51912e+06
1.298e+07
1.27524e+07
6.39455e+06
5.10745e+06
4.62168e+06
4.37132e+06
4.28651e+06
4.51455e+06
4.98292e+06
6.23413e+06
1.24878e+07
1.22311e+07
6.07648e+06
4.83933e+06
4.37265e+06
4.14445e+06
4.00987e+06
4.25064e+06
4.71703e+06
5.94462e+06
1.21301e+07
1.18164e+07
5.81514e+06
4.60773e+06
4.15678e+06
3.93901e+06
3.81118e+06
4.02721e+06
4.46857e+06
5.63058e+06
1.16405e+07
1.14647e+07
5.52969e+06
4.36233e+06
3.91896e+06
3.69115e+06
3.62987e+06
3.83583e+06
4.26524e+06
5.41033e+06
1.12752e+07
1.11581e+07
5.31391e+06
4.15241e+06
3.72044e+06
3.51348e+06
3.40219e+06
3.62308e+06
4.06506e+06
5.23035e+06
1.10969e+07
1.09991e+07
5.21479e+06
4.01925e+06
3.56772e+06
3.33721e+06
3.315e+06
3.52934e+06
3.97864e+06
5.1762e+06
1.09123e+07
1.07794e+07
5.05688e+06
3.8869e+06
3.44101e+06
3.22094e+06
3.13491e+06
3.36419e+06
3.8049e+06
4.94635e+06
1.06454e+07
1.04308e+07
4.82561e+06
3.72778e+06
3.30739e+06
3.10259e+06
3.00949e+06
3.21526e+06
3.63318e+06
4.72757e+06
1.03626e+07
1.03098e+07
4.66931e+06
3.56494e+06
3.14512e+06
2.92906e+06
2.90238e+06
3.09811e+06
3.50607e+06
4.59033e+06
1.02008e+07
1.00628e+07
4.52214e+06
3.43045e+06
3.01869e+06
2.8187e+06
2.74738e+06
2.95751e+06
3.36845e+06
4.44407e+06
1.00472e+07
9.85629e+06
4.40246e+06
3.32294e+06
2.92015e+06
2.72892e+06
2.65241e+06
2.84853e+06
3.25152e+06
4.31481e+06
9.82063e+06
9.69917e+06
4.26787e+06
3.20186e+06
2.7972e+06
2.58969e+06
2.57779e+06
2.76622e+06
3.16024e+06
4.20642e+06
9.5635e+06
9.47945e+06
4.13207e+06
3.0965e+06
2.70137e+06
2.50746e+06
2.45099e+06
2.65517e+06
3.05213e+06
4.09777e+06
9.41522e+06
9.298e+06
4.04638e+06
3.01736e+06
2.63088e+06
2.44483e+06
2.37974e+06
2.57171e+06
2.96052e+06
3.97722e+06
9.20355e+06
9.11474e+06
3.94744e+06
2.92228e+06
2.53075e+06
2.32853e+06
2.32746e+06
2.51152e+06
2.89549e+06
3.91595e+06
9.04896e+06
9.00607e+06
3.84485e+06
2.84084e+06
2.45703e+06
2.2666e+06
2.22025e+06
2.42048e+06
2.80422e+06
3.79971e+06
8.94681e+06
8.83095e+06
3.77352e+06
2.77963e+06
2.40332e+06
2.2217e+06
2.16485e+06
2.35256e+06
2.72955e+06
3.71383e+06
8.77659e+06
8.70028e+06
3.67291e+06
2.69678e+06
2.31944e+06
2.12329e+06
2.12661e+06
2.3049e+06
2.67144e+06
3.64498e+06
8.61137e+06
8.581e+06
3.59896e+06
2.6281e+06
2.2573e+06
2.07229e+06
2.03415e+06
2.22691e+06
2.59591e+06
3.5525e+06
8.54017e+06
8.37536e+06
3.53142e+06
2.57295e+06
2.21294e+06
2.03835e+06
1.98495e+06
2.16465e+06
2.52519e+06
3.46368e+06
8.30941e+06
8.25477e+06
3.42221e+06
2.48831e+06
2.13169e+06
1.94588e+06
1.94784e+06
2.11375e+06
2.4579e+06
3.37617e+06
8.23044e+06
8.08527e+06
3.31112e+06
2.4031e+06
2.06041e+06
1.89272e+06
1.85099e+06
2.02231e+06
2.35839e+06
3.24465e+06
7.95422e+06
7.78227e+06
3.18813e+06
2.31185e+06
1.99454e+06
1.84504e+06
1.78932e+06
1.93428e+06
2.24729e+06
3.08754e+06
7.6982e+06
7.39315e+06
3.03486e+06
2.19104e+06
1.88889e+06
1.73944e+06
1.72644e+06
1.8553e+06
2.14151e+06
2.92315e+06
7.20988e+06
6.71324e+06
2.81686e+06
2.06182e+06
1.79604e+06
1.6805e+06
1.62879e+06
1.72866e+06
1.96971e+06
2.66238e+06
6.40745e+06
6.02074e+06
2.5231e+06
1.86733e+06
1.6391e+06
1.55185e+06
1.49753e+06
1.58652e+06
1.80138e+06
2.42574e+06
5.81065e+06
5.61366e+06
2.37453e+06
1.77024e+06
1.5593e+06
1.46601e+06
1.4578e+06
1.5453e+06
1.74944e+06
2.33471e+06
5.47046e+06
5.3595e+06
2.28789e+06
1.71522e+06
1.51313e+06
1.42469e+06
1.40079e+06
1.48266e+06
1.67434e+06
2.22484e+06
5.21482e+06
5.09447e+06
2.16612e+06
1.62802e+06
1.4392e+06
1.36018e+06
1.32778e+06
1.41179e+06
1.59833e+06
2.12339e+06
4.93323e+06
4.84545e+06
2.09845e+06
1.5807e+06
1.3982e+06
1.31857e+06
1.28702e+06
1.36888e+06
1.55344e+06
2.06466e+06
4.77139e+06
4.65131e+06
2.03337e+06
1.53239e+06
1.34783e+06
1.2607e+06
1.25556e+06
1.33623e+06
1.5146e+06
2.00061e+06
4.51809e+06
4.44634e+06
1.9586e+06
1.48384e+06
1.30686e+06
1.22499e+06
1.20011e+06
1.28583e+06
1.46159e+06
1.93113e+06
4.40561e+06
4.32628e+06
1.90779e+06
1.44583e+06
1.2753e+06
1.19638e+06
1.16726e+06
1.24817e+06
1.41986e+06
1.8782e+06
4.28489e+06
4.26168e+06
1.85697e+06
1.40104e+06
1.22936e+06
1.14449e+06
1.14344e+06
1.222e+06
1.38998e+06
1.84553e+06
4.20501e+06
4.18506e+06
1.81903e+06
1.36737e+06
1.19738e+06
1.11638e+06
1.09644e+06
1.1815e+06
1.35211e+06
1.80225e+06
4.15118e+06
4.13498e+06
1.79164e+06
1.34316e+06
1.17645e+06
1.09762e+06
1.07248e+06
1.15409e+06
1.32367e+06
1.77282e+06
4.13353e+06
4.12125e+06
1.76481e+06
1.3128e+06
1.14122e+06
1.05549e+06
1.05884e+06
1.13923e+06
1.30807e+06
1.76034e+06
4.09194e+06
4.0725e+06
1.74888e+06
1.29335e+06
1.11993e+06
1.0355e+06
1.0219e+06
1.10988e+06
1.28416e+06
1.74086e+06
4.09857e+06
4.08614e+06
1.73078e+06
1.27988e+06
1.10939e+06
1.02702e+06
1.00635e+06
1.09165e+06
1.26355e+06
1.71387e+06
4.06702e+06
4.05109e+06
1.69217e+06
1.24535e+06
1.07813e+06
997688
970853
1.05184e+06
1.22071e+06
1.66776e+06
4.01394e+06
3.96557e+06
1.65686e+06
1.21049e+06
1.04227e+06
957626
963703
1.04394e+06
1.21071e+06
1.65315e+06
3.93255e+06
3.91452e+06
1.64448e+06
1.19943e+06
1.02827e+06
943273
934408
1.02332e+06
1.19664e+06
1.64481e+06
3.93314e+06
3.9407e+06
1.64586e+06
1.19767e+06
1.02703e+06
944485
925683
1.01277e+06
1.18503e+06
1.63214e+06
3.9434e+06
3.9166e+06
1.61367e+06
1.1707e+06
1.00272e+06
920497
895048
978730
1.14856e+06
1.59192e+06
3.89508e+06
3.87454e+06
1.58409e+06
1.14118e+06
971730
884820
894532
976325
1.14394e+06
1.58538e+06
3.85524e+06
3.86519e+06
1.57896e+06
1.13426e+06
961808
874572
867502
958449
1.1329e+06
1.58193e+06
3.87138e+06
3.86626e+06
1.58146e+06
1.13595e+06
964857
880694
862946
952153
1.12545e+06
1.57179e+06
3.85264e+06
3.83474e+06
1.55506e+06
1.11311e+06
943956
859397
834564
920898
1.09266e+06
1.53487e+06
3.80685e+06
3.78951e+06
1.52879e+06
1.08599e+06
914920
825894
838445
921367
1.08934e+06
1.52924e+06
3.79067e+06
3.79271e+06
1.52476e+06
1.08176e+06
908367
819292
813265
905975
1.08187e+06
1.53177e+06
3.79796e+06
3.80542e+06
1.54044e+06
1.08847e+06
915110
828901
812020
903333
1.07926e+06
1.52807e+06
3.8057e+06
3.78128e+06
1.51233e+06
1.0683e+06
897031
809950
785415
874791
1.04928e+06
1.49329e+06
3.76643e+06
3.74434e+06
1.4876e+06
1.04389e+06
870870
779135
795051
879682
1.04942e+06
1.49025e+06
3.74683e+06
3.73959e+06
1.48313e+06
1.04183e+06
868831
778981
777604
863445
1.03202e+06
1.46961e+06
3.72209e+06
3.69853e+06
1.45466e+06
1.01604e+06
843492
754562
749022
840197
1.01282e+06
1.45339e+06
3.69694e+06
3.70465e+06
1.46693e+06
1.0208e+06
851138
766616
751330
841523
1.01497e+06
1.4581e+06
3.70551e+06
3.67611e+06
1.44689e+06
1.00784e+06
837807
750976
728527
818245
991581
1.43149e+06
3.66892e+06
3.67353e+06
1.42877e+06
988245
815599
723645
742058
826732
995685
1.43324e+06
3.67841e+06
3.66804e+06
1.42896e+06
989276
817084
726889
726834
813571
982396
1.41886e+06
3.65811e+06
3.64841e+06
1.40315e+06
966026
793812
704532
700022
791874
964029
1.40093e+06
3.64279e+06
3.63086e+06
1.41804e+06
973760
804346
719559
705102
796259
970573
1.41458e+06
3.61927e+06
3.61316e+06
1.40187e+06
964138
793846
705980
684704
775186
948717
1.38716e+06
3.59403e+06
3.61009e+06
1.38745e+06
948044
774115
680925
701866
787214
958019
1.4029e+06
3.63538e+06
3.65131e+06
1.39958e+06
954243
779405
687290
689099
777838
949583
1.39285e+06
3.65286e+06
3.64612e+06
1.37578e+06
934213
759269
667657
664331
758707
934742
1.38821e+06
3.64273e+06
3.67442e+06
1.41204e+06
949454
773926
686940
672977
767626
947052
1.40661e+06
3.69271e+06
3.67289e+06
1.3875e+06
939998
765779
675523
656215
748240
922587
1.36555e+06
3.61755e+06
3.59467e+06
1.34973e+06
913003
744523
657695
636732
726251
898266
1.33501e+06
3.58124e+06
3.57662e+06
1.33658e+06
897163
725665
633931
656850
742047
914200
1.36742e+06
3.6014e+06
3.61457e+06
1.36445e+06
913046
736404
643190
646902
736748
910222
1.35694e+06
3.61137e+06
3.60594e+06
1.34382e+06
897535
719736
626825
624731
720552
899209
1.3613e+06
3.62253e+06
3.66631e+06
1.37533e+06
914808
737635
649475
635774
731732
912842
1.37237e+06
3.67178e+06
3.66994e+06
1.36247e+06
908077
731850
639985
620595
714264
891353
1.34168e+06
3.65552e+06
3.61261e+06
1.32711e+06
882959
711976
623724
603535
694735
869921
1.31755e+06
3.59517e+06
3.60911e+06
1.31635e+06
869341
695188
601640
627197
714201
892521
1.36751e+06
3.64889e+06
3.69347e+06
1.36302e+06
892933
710851
614509
619858
711950
889819
1.35101e+06
3.6591e+06
3.64011e+06
1.33014e+06
874666
695186
600966
605325
694294
867299
1.31543e+06
3.60385e+06
3.58606e+06
1.30161e+06
854536
677808
585537
584281
679334
857246
1.31475e+06
3.60531e+06
3.65662e+06
1.34894e+06
876980
698509
610845
597850
695205
878204
1.35133e+06
3.6926e+06
3.68493e+06
1.342e+06
876292
696887
603948
584921
680268
861838
1.32504e+06
3.67092e+06
3.64768e+06
1.31055e+06
854737
679851
590097
570376
663979
843010
1.2995e+06
3.62331e+06
3.6637e+06
1.31165e+06
844776
665334
569361
597337
686367
868382
1.35625e+06
3.71852e+06
3.7535e+06
1.35283e+06
869118
682881
584099
591028
684815
866806
1.33926e+06
3.74165e+06
3.71034e+06
1.3219e+06
852049
668285
571589
577170
667720
844416
1.30543e+06
3.68662e+06
3.65987e+06
1.29341e+06
832378
651866
557459
556736
654165
836299
1.31074e+06
3.69555e+06
3.75031e+06
1.34845e+06
860097
676405
586199
573238
674179
864515
1.359e+06
3.78483e+06
3.78462e+06
1.35154e+06
864753
677251
581585
562584
661790
850281
1.33337e+06
3.768e+06
3.74299e+06
1.32002e+06
844084
662492
569451
549958
646233
829678
1.30037e+06
3.71625e+06
3.68009e+06
1.28892e+06
822840
646621
556932
538081
632378
813487
1.27813e+06
3.67504e+06
3.71278e+06
1.29607e+06
818373
635588
538239
569199
660186
845910
1.35307e+06
3.78934e+06
3.83944e+06
1.36238e+06
852393
658736
556311
565456
661873
852460
1.34918e+06
3.84254e+06
3.82348e+06
1.33301e+06
839170
647546
546648
554669
649068
834161
1.31806e+06
3.80801e+06
3.765e+06
1.29999e+06
819672
632684
534830
542816
634019
813876
1.29147e+06
3.72625e+06
3.72304e+06
1.28003e+06
805121
619933
524045
524811
624005
812273
1.30637e+06
3.77128e+06
3.83995e+06
1.34966e+06
839784
650378
557417
544488
649345
847771
1.37645e+06
3.90142e+06
3.93011e+06
1.36193e+06
848268
653068
554516
534917
638561
836751
1.34612e+06
3.91087e+06
3.88028e+06
1.32451e+06
828573
639450
543961
523507
623636
814003
1.30668e+06
3.83435e+06
3.8102e+06
1.29533e+06
808851
625095
532255
512909
610930
799766
1.28702e+06
3.79934e+06
3.85462e+06
1.31485e+06
805750
614017
513634
547193
641814
835578
1.37241e+06
3.94575e+06
4.00654e+06
1.40067e+06
845305
640339
533252
544398
644490
846401
1.38214e+06
4.02895e+06
3.99517e+06
1.35389e+06
831007
629740
524252
533924
631414
825581
1.33674e+06
3.94465e+06
3.91576e+06
1.31311e+06
809006
614365
512915
522241
615906
803852
1.30426e+06
3.87795e+06
3.87963e+06
1.28375e+06
791625
601534
502602
503352
605059
800695
1.32493e+06
3.92951e+06
4.01387e+06
1.37396e+06
830295
633942
538238
524149
633256
840792
1.39427e+06
4.0748e+06
4.10168e+06
1.38687e+06
842183
637702
536331
515897
623865
830156
1.36976e+06
4.08004e+06
4.06052e+06
1.35404e+06
826179
626161
527142
506082
610634
810527
1.3329e+06
4.01505e+06
3.97355e+06
1.32007e+06
805067
612207
516588
496168
597763
793092
1.30712e+06
3.96119e+06
3.94087e+06
1.29613e+06
788337
600104
506759
487758
586987
780948
1.29175e+06
3.93817e+06
4.01269e+06
1.32547e+06
789244
591225
489083
524861
621361
821243
1.38345e+06
4.11089e+06
4.17926e+06
1.40396e+06
832922
620899
510388
523821
625936
834982
1.39774e+06
4.19529e+06
4.19373e+06
1.37761e+06
822702
612125
502770
514641
614515
817506
1.36153e+06
4.16125e+06
4.12176e+06
1.34122e+06
803015
598893
493013
504406
601115
797989
1.32917e+06
4.09001e+06
4.08225e+06
1.3199e+06
789778
587781
484514
486163
592391
796544
1.35769e+06
4.15487e+06
4.27355e+06
1.43454e+06
835241
624401
524161
508596
623311
845887
1.44785e+06
4.34936e+06
4.3747e+06
1.43895e+06
848094
629651
523250
501119
615482
835603
1.4163e+06
4.3716e+06
4.33116e+06
1.3962e+06
830263
618082
514836
491967
602542
815375
1.38021e+06
4.29497e+06
4.27551e+06
1.36523e+06
810432
605081
504957
482633
589457
796610
1.35001e+06
4.23983e+06
4.22474e+06
1.34119e+06
792591
592327
495634
475574
580467
786276
1.33064e+06
4.21839e+06
4.29388e+06
1.37623e+06
795155
585727
478041
518313
621068
839446
1.47416e+06
4.43758e+06
4.53996e+06
1.49719e+06
853442
621196
502386
519496
628786
859268
1.48916e+06
4.56761e+06
4.56058e+06
1.46472e+06
847369
616326
496888
513118
620938
845483
1.45007e+06
4.54699e+06
4.52384e+06
1.42741e+06
829899
605229
489360
504304
608685
825754
1.41542e+06
4.48524e+06
4.47122e+06
1.40023e+06
812048
594084
481377
495736
597263
808723
1.38847e+06
4.45421e+06
4.41802e+06
1.37261e+06
795852
582453
472996
486635
585796
792509
1.36805e+06
4.39386e+06
4.39956e+06
1.35601e+06
785232
572781
465927
468165
577657
792816
1.39803e+06
4.47089e+06
4.58906e+06
1.47354e+06
835191
612867
508859
491837
612486
846863
1.51295e+06
4.69445e+06
4.73747e+06
1.51075e+06
854835
619029
508926
485244
605740
842583
1.48465e+06
4.73511e+06
4.6999e+06
1.4636e+06
839169
609670
501296
476796
593175
821481
1.4433e+06
4.66204e+06
4.63305e+06
1.42452e+06
817899
596795
492037
468032
580965
803466
1.41237e+06
4.59309e+06
4.58225e+06
1.39806e+06
798663
584523
482716
461569
571748
792274
1.38748e+06
4.57626e+06
4.64747e+06
1.43478e+06
801623
577145
464060
506276
613733
843669
1.51295e+06
4.7776e+06
4.88866e+06
1.56138e+06
858171
613072
488529
507356
620766
865400
1.55474e+06
4.9448e+06
4.95895e+06
1.53129e+06
854298
607611
482889
500115
611994
851990
1.51424e+06
4.93952e+06
4.90645e+06
1.48592e+06
834331
595756
474993
491331
599250
830398
1.47183e+06
4.85202e+06