/*--------------------------------*- C++ -*----------------------------------*\
| =========                 |                                                 |
| \\      /  F ield         | OpenFOAM: The Open Source CFD Toolbox           |
|  \\    /   O peration     | Version:  v2006                                 |
|   \\  /    A nd           | Website:  www.openfoam.com                      |
|    \\/     M anipulation  |                                                 |
\*---------------------------------------------------------------------------*/
FoamFile
{
    version     2.0;
    format      ascii;
    class       volScalarField;
    location    "0.105";
    object      k;
}
// * * * * * * * * * * * * * * * * * * * * * * * * * * * * * * * * * * * * * //

dimensions      [0 2 -2 0 0 0 0];


internalField   nonuniform List<scalar> 
23013
(
49.2846
49.2845
49.2882
49.2893
49.2911
49.2893
49.2879
49.279
49.2516
49.1933
49.1002
48.9802
48.8452
48.7046
48.563
48.4212
48.2782
48.1325
47.9826
47.8276
47.667
47.5004
47.3281
47.15
46.9662
46.7767
46.5818
46.3813
46.1753
45.9638
45.7469
45.5248
45.2973
45.0648
44.8272
44.5847
44.3374
44.0855
43.8292
43.5684
43.3035
43.0346
42.7618
42.4854
42.2054
41.9221
41.6357
41.3464
41.0543
40.7596
40.4626
40.1635
39.8623
39.5595
39.2551
38.9493
38.6424
38.3347
38.0262
37.7172
37.4079
37.0985
36.7893
36.4804
36.1721
35.8646
35.5581
35.2528
34.949
34.6468
34.3465
34.0482
33.7522
33.4588
33.1681
32.8802
32.5955
32.3142
32.0364
31.7623
31.4922
31.2262
30.9646
30.7076
30.4553
30.2078
29.9655
29.7285
29.4968
29.2708
29.0506
28.8362
28.6279
28.4258
28.2299
28.0405
27.8575
27.6813
27.5118
27.3493
27.1939
27.0452
26.9026
26.7649
26.6305
26.4987
26.3714
26.2566
26.1689
26.1211
26.1076
26.1121
26.1218
26.1294
26.1301
26.122
26.1058
26.0559
25.9581
25.8097
25.5124
24.985
22.5405
20.0954
23.6887
25.0941
23.852
20.8424
17.6578
16.0168
19.6237
23.1195
21.3865
17.2456
14.3793
13.3697
16.491
20.7752
19.3115
14.8521
12.2879
11.6722
14.477
18.9051
17.8114
13.4685
10.96
10.5966
13.3254
17.5826
16.75
12.6845
10.1134
9.8925
12.6188
16.5969
15.9352
12.1464
9.5282
9.38602
12.122
15.8335
15.2714
11.736
9.09075
8.99277
11.7323
15.2011
14.7079
11.3986
8.7433
8.66626
11.4035
14.6572
14.2118
11.1011
8.44984
8.38517
11.1105
14.1738
13.7648
10.8304
8.1903
8.13415
10.8427
13.736
13.3562
10.58
7.95479
7.90472
10.5945
13.3348
12.9796
10.3467
7.73726
7.69177
10.3629
12.9645
12.6307
10.1279
7.53369
7.49222
10.1456
12.6204
12.3066
9.92222
7.34166
7.30352
9.94133
12.3005
12.0048
9.72819
7.15935
7.12397
9.74838
12.0025
11.7231
9.54441
6.98535
6.95232
9.56564
11.7241
11.46
9.37041
6.81865
6.7877
9.39264
11.4635
11.2127
9.20512
6.65834
6.62906
9.22799
11.2181
10.9786
9.0469
6.50648
6.48433
9.0708
10.9857
10.7573
8.89885
6.38537
6.37159
8.92496
10.766
10.5485
8.76326
6.28524
6.27284
8.79099
10.5587
10.3514
8.6375
6.18952
6.17713
8.66624
10.3628
10.1646
8.5193
6.09481
6.08222
8.54874
10.177
9.98704
8.40707
6.00043
5.98759
8.43696
10.0002
9.81783
8.29976
5.90617
5.89314
8.32999
9.83168
9.65638
8.19681
5.81209
5.79892
8.22733
9.67079
9.50218
8.09774
5.7181
5.70489
8.1284
9.51702
9.35444
8.00176
5.62421
5.6109
8.03243
9.36954
9.21221
7.90797
5.53023
5.51683
7.93843
9.22737
9.07463
7.81554
5.43614
5.42268
7.84574
9.08975
8.94142
7.72439
5.34199
5.3285
7.7545
8.95662
8.81264
7.63475
5.24784
5.23449
7.66464
8.82784
8.68757
7.54577
5.15408
5.14088
7.57533
8.70254
8.56534
7.45734
5.06075
5.04797
7.48656
8.5801
8.44636
7.36966
4.96848
4.95631
7.39874
8.46107
8.33069
7.2832
4.87776
4.86648
7.31203
8.34533
8.218
7.19751
4.78918
4.77911
7.226
8.23244
8.1078
7.11268
4.70361
4.69532
7.14082
8.12203
8.00029
7.02931
4.62241
4.6164
7.05727
8.01452
7.89602
6.94824
4.54685
4.54383
6.97602
7.91032
7.79524
6.87003
4.47873
4.47927
6.89769
7.80971
7.69842
6.79567
4.42072
4.4248
6.82324
7.71321
7.60597
6.72594
4.37397
4.3825
6.75344
7.62125
7.51856
6.66209
4.34149
4.35521
6.68975
7.53492
7.43762
6.6056
4.32587
4.34526
6.63367
7.45507
7.36364
6.5577
4.32615
4.35573
6.58636
7.38207
7.29747
6.52002
4.34442
4.39258
6.54947
7.31751
7.24112
6.49291
4.38833
4.45372
6.52324
7.26367
7.19677
6.47729
4.45812
4.53908
6.5105
7.22205
7.16479
6.47449
4.55298
4.64873
6.51195
7.19312
7.14668
6.48305
4.67185
4.78035
6.52514
7.17975
7.14218
6.50066
4.81209
4.93108
6.54867
7.1813
7.1509
6.52851
4.96956
5.09593
6.58462
7.19602
7.17076
6.5687
5.13981
5.27107
6.63345
7.22399
7.20247
6.62195
5.31894
5.45308
6.69601
7.26554
7.24769
6.6892
5.50339
5.63817
6.77326
7.3212
7.30681
6.77094
5.68962
5.82296
6.8638
7.38955
7.37795
6.86598
5.87458
6.00537
6.96611
7.46785
7.4584
6.97147
6.0563
6.18298
7.0761
7.55332
7.54552
7.08283
6.23234
6.35354
7.18941
7.64388
7.63718
7.19708
6.40056
6.51471
7.30482
7.73783
7.73186
7.31369
6.56216
6.69051
7.42461
7.83418
7.82906
7.43749
6.75201
6.89967
7.55623
7.93378
7.92991
7.57415
6.96468
7.11481
7.70118
8.03742
8.03497
7.72282
7.17839
7.32282
7.85342
8.14453
8.14324
7.87789
7.38205
7.51627
8.0091
8.25324
8.25275
8.03609
7.56926
7.69066
8.16699
8.36158
8.36152
8.19559
7.7363
7.84373
8.32464
8.46749
8.46735
8.35361
7.88123
7.97385
8.47887
8.56855
8.56799
8.50706
8.00257
8.07968
8.62689
8.66303
8.6617
8.65326
8.09946
8.16113
8.76629
8.74986
8.74727
8.78977
8.17198
8.21827
8.89464
8.82762
8.82341
8.91456
8.2207
8.25132
9.01027
8.89503
8.88899
9.02621
8.24759
8.26506
9.11291
8.95157
8.9433
9.12345
8.25638
8.26432
9.20035
8.9963
8.98596
9.20511
8.24748
8.25218
9.27256
9.03028
9.0183
9.27232
8.22602
8.22871
9.32976
9.05466
9.04127
9.32609
8.19577
8.19722
9.37561
9.07083
9.05465
9.36886
8.15957
8.16034
9.41134
9.08011
9.06139
9.40135
8.11957
8.1202
9.43817
9.08306
9.06194
9.42413
8.07749
8.07811
9.45734
9.08057
9.05677
9.43979
8.03489
8.03576
9.46972
9.07277
9.0471
9.44903
7.99226
7.99411
9.47611
9.05979
9.03332
9.45275
7.95008
7.95283
9.47729
9.04342
9.01512
9.45162
7.90958
7.91237
9.47385
9.02377
8.99372
9.44608
7.86989
7.87353
9.46639
9.00053
8.96964
9.43684
7.83104
7.83548
9.45526
8.97473
8.942
9.42418
7.79377
7.79831
9.44103
8.94626
8.91182
9.4086
7.75741
7.7622
9.42409
8.91522
8.87977
9.39058
7.72177
7.72708
9.40479
8.8819
8.84586
9.3702
7.68681
7.6928
9.38326
8.84641
8.80979
9.34798
7.65267
7.65871
9.36024
8.80959
8.77252
9.32459
7.61935
7.6253
9.33613
8.77183
8.73462
9.30009
7.58644
7.59271
9.31088
8.73277
8.69588
9.27429
7.55393
7.56087
9.28447
8.69217
8.65518
9.24746
7.522
7.52877
9.25727
8.65085
8.61375
9.22014
7.49064
7.4973
9.22968
8.60935
8.57276
9.19243
7.45972
7.4667
9.20175
8.56727
8.53152
9.16431
7.42889
7.43635
9.17336
8.52468
8.48955
9.13599
7.39864
7.40618
9.14485
8.48228
8.44775
9.10768
7.36905
7.37654
9.11635
8.4402
8.40615
9.07938
7.33997
7.34762
9.08794
8.39802
8.36302
9.04908
7.31098
7.31736
9.05182
8.35242
8.3032
9.02486
7.28233
7.30523
9.03287
8.29995
8.24852
9.02316
7.30011
7.38469
8.98126
8.22705
8.23507
9.00725
7.5012
7.56557
8.99189
8.19714
8.18522
9.00359
7.66101
7.76428
9.0273
8.14085
8.39395
8.9516
9.87118
10.6659
11.8258
12.4604
12.9213
13.157
13.2008
13.0645
12.7165
12.204
11.0884
10.3213
9.365
8.56638
8.30106
8.11094
8.88104
9.72898
10.6222
6.89249
6.84248
10.6642
9.78901
9.83867
10.6419
6.64748
6.53839
10.7092
9.94607
9.94706
10.7236
6.51344
6.45094
10.7287
9.98521
10.0067
10.7635
6.41388
6.36865
10.753
10.0053
10.0315
10.7764
6.38145
6.32956
10.7762
10.0369
10.0582
10.7953
6.33855
6.3407
10.7878
10.061
10.072
10.7982
6.35048
6.35403
10.7902
10.0709
10.0868
10.8133
6.36223
6.3638
10.8081
10.0869
10.1058
10.8249
6.37196
6.37402
10.817
10.1027
10.1189
10.8397
6.38244
6.38444
10.8349
10.1186
10.1379
10.8514
6.39251
6.3951
10.844
10.1347
10.1514
10.8664
6.40341
6.40585
10.8622
10.1514
10.1715
10.8786
6.41404
6.41708
10.872
10.1685
10.1858
10.8948
6.42548
6.42812
10.8908
10.1861
10.2067
10.9075
6.43643
6.4396
10.9011
10.2036
10.2215
10.924
6.44822
6.45106
10.9201
10.2218
10.2431
10.9369
6.45955
6.4629
10.9308
10.2398
10.2584
10.9539
6.47154
6.47441
10.9502
10.2589
10.2809
10.9672
6.48308
6.48655
10.9614
10.2777
10.2972
10.9848
6.49561
6.49873
10.9813
10.2984
10.3211
10.9989
6.50784
6.51155
10.9934
10.318
10.3384
11.0173
6.52083
6.52411
11.0142
10.3401
10.3634
11.0319
6.53323
6.53715
11.0268
10.3603
10.3815
11.0509
6.5463
6.54958
11.0479
10.3835
10.4076
11.066
6.55892
6.5627
11.061
10.4043
10.4266
11.0856
6.57205
6.57513
11.0826
10.4285
10.4538
11.1009
6.58459
6.58828
11.0961
10.4505
10.474
11.1209
6.59777
6.60111
11.1181
10.4755
10.5024
11.1368
6.61078
6.61472
11.1325
10.4986
10.5235
11.1578
6.62441
6.62777
11.1553
10.5254
10.5533
11.1744
6.63744
6.64128
11.1704
10.5496
10.5755
11.1962
6.65101
6.65434
11.194
10.5774
10.6062
11.2134
6.6639
6.66796
11.2099
10.6024
10.6291
11.2358
6.67717
6.68057
11.2342
10.6308
10.6605
11.2536
6.68965
6.69355
11.2504
10.6567
10.6842
11.2767
6.70261
6.70581
11.2754
10.6858
10.7163
11.2955
6.71475
6.71833
11.2922
10.7123
10.7405
11.319
6.72716
6.72999
11.3179
10.7414
10.7727
11.3383
6.7386
6.74173
11.3351
10.7681
10.7966
11.3621
6.75001
6.75226
11.3612
10.7964
10.8282
11.3818
6.76033
6.76281
11.3785
10.8226
10.851
11.406
6.77038
6.77164
11.4051
10.8496
10.8809
11.4258
6.77886
6.78031
11.4224
10.8738
10.9014
11.4499
6.78679
6.78701
11.4493
10.8982
10.9282
11.4697
6.79254
6.79266
11.4663
10.9188
10.9444
11.4934
6.79793
6.79659
11.4932
10.9384
10.9658
11.5127
6.80049
6.79842
11.5094
10.954
10.9764
11.5357
6.80193
6.79771
11.5356
10.9672
10.9905
11.5535
6.79941
6.79384
11.5495
10.975
10.9925
11.5738
6.79497
6.78594
11.5724
10.9786
10.9957
11.5864
6.78498
6.77351
11.5795
10.9733
10.9831
11.599
6.77181
6.75527
11.5934
10.9612
10.9689
11.5996
6.75116
6.73223
11.5859
10.9359
10.9331
11.5967
6.72741
6.7012
11.5833
10.8968
10.8876
11.5749
6.69132
6.66163
11.5498
10.8298
10.813
11.5511
6.65036
6.61034
11.5151
10.7459
10.7196
11.4862
6.59245
6.54826
11.4332
10.625
10.5885
11.4173
6.52847
6.47206
11.3378
10.4772
10.4275
11.2852
6.44503
6.38448
11.1777
10.2831
10.2215
11.1312
6.35601
6.28612
10.9812
10.0573
9.98148
10.8913
6.25308
6.18814
10.6986
9.78438
9.69893
10.6063
6.16037
6.10837
10.3605
9.4861
9.38949
10.2226
6.09106
6.07158
9.94529
9.14689
9.04335
9.81273
6.07009
6.06822
9.50767
8.79322
8.68344
9.34896
6.09765
6.12641
9.03756
8.4088
8.29592
8.89027
6.19236
6.25264
8.58211
8.02983
7.91975
8.42869
6.3556
6.46274
8.12841
7.65018
7.54767
7.98991
6.61527
6.77415
7.70935
7.30943
7.21842
7.57357
6.98645
7.21481
7.31244
7.00657
6.93683
7.19164
7.48391
7.73589
6.95085
6.80659
6.77498
6.85263
8.02074
8.28557
6.69225
6.72262
6.74642
6.66344
8.52216
8.66414
6.61346
6.7671
6.96258
6.73697
8.73356
8.73252
6.81873
7.03984
7.42601
7.21138
8.43362
8.13095
7.38446
7.62723
6.80979
6.89766
6.82207
7.21298
8.04403
7.49406
7.23219
7.745
7.10551
7.20566
7.68839
7.20829
7.0102
7.37331
7.34262
7.50482
7.23777
6.96799
6.81764
7.03225
7.6444
7.80015
6.80327
6.76954
6.6616
6.68937
7.97565
8.12827
6.46277
6.62426
6.56076
6.38034
8.30944
8.47377
6.181
6.55715
6.56951
6.1459
8.59768
8.71569
6.02434
6.62747
6.70858
6.03837
8.74939
8.70842
6.09151
6.85624
7.01844
6.22005
8.53787
8.24215
6.42965
7.36598
7.50965
6.57763
7.87343
7.40318
5.52797
5.43787
6.37592
6.38099
7.68386
7.65272
5.78263
6.16774
6.14166
5.74613
7.95576
8.23091
5.54975
6.00734
6.07403
5.52021
8.50713
8.69151
5.43868
6.06408
6.26788
5.49963
8.84655
8.88956
5.52712
6.32897
6.72336
5.78172
8.75453
8.37017
5.98937
6.98711
7.45955
6.18349
8.05857
8.27666
5.07598
5.01016
6.29139
5.8526
8.50037
8.4818
5.47233
6.24962
6.59528
5.63715
8.68395
8.77445
5.57603
6.66946
7.00741
5.69254
8.78889
8.75912
5.76606
7.17478
7.59218
6.03984
8.63603
8.4097
6.23594
8.01469
8.31561
6.45694
8.15065
8.45905
4.98243
4.93634
6.57543
5.6778
8.69605
8.71865
5.32349
6.54767
6.93451
5.49158
8.85672
8.92139
5.62569
6.93904
7.53935
5.95462
8.88421
8.68519
6.21619
7.94338
8.67628
6.58691
8.45055
8.827
5.02598
5.05535
7.04687
5.8348
8.95781
8.90262
5.77375
7.22504
8.10523
6.13248
8.87233
8.80665
6.36757
8.48181
9.39829
6.85006
8.72127
8.67252
7.13237
9.67535
5.17088
5.08672
8.9054
9.05246
5.90951
7.61995
7.65479
5.75696
9.07562
9.23713
6.34781
8.56348
9.1529
6.7406
9.22368
9.17863
7.49016
10.3191
11.1551
7.96821
9.22091
9.50791
5.73301
6.06051
9.34128
6.80792
9.4397
9.30874
7.24298
10.1151
12.0281
8.15155
9.30789
9.45743
8.59061
12.3993
6.4997
5.85705
9.48643
9.48624
7.18133
10.3479
10.9002
7.56694
9.4863
9.78578
8.90663
13.1992
14.0586
9.60639
9.92943
9.6258
6.45663
7.6805
12.6972
8.5514
9.77509
9.80044
9.35487
13.9938
17.124
11.1965
10.1568
10.5921
11.9359
17.6062
9.85985
7.73523
9.95582
10.2644
10.9844
16.7598
18.4323
12.1734
10.5198
11.6408
15.1513
21.1249
12.8876
9.14717
10.1405
10.8354
14.3507
22.2338
23.1973
15.8339
11.4769
10.1889
9.50063
14.5681
25.1147
15.8603
11.1766
11.9283
18.3177
27.7402
31.8081
24.2037
14.017
10.8662
15.2266
23.6291
33.9593
25.8804
14.1938
10.3928
13.6039
25.2618
39.8767
28.7825
13.8767
16.4902
33.8836
42.9271
40.0709
23.9801
12.5504
23.8709
48.3735
53.8404
52.2581
42.1988
15.9494
13.4321
41.898
52.8753
52.6259
41.7012
14.4513
15.6722
40.7232
51.3124
50.2669
40.8874
17.73
23.1379
45.6435
50.8882
37.6942
24.8997
16.046
19.082
34.0231
41.193
28.3404
19.6561
13.6234
16.6011
27.77
33.997
23.5313
16.1512
12.8585
14.0365
21.4548
28.68
25.9507
17.8127
12.8225
11.2439
10.1826
15.0432
21.3377
15.8604
12.5185
11.1959
10.7682
14.0425
19.5335
13.9203
11.6855
10.7908
11.9448
17.4357
10.0775
7.96194
10.3206
10.4279
10.5268
15.6244
13.983
9.56533
10.112
9.80948
7.07863
8.19254
13.0215
9.08571
9.77546
9.68353
8.24282
11.6045
6.97043
6.40388
9.77303
9.18055
7.84359
10.9003
9.70467
7.13736
9.1815
9.42149
5.77707
6.08485
9.14927
7.0431
8.89069
9.20057
5.86383
6.46519
9.91074
7.23945
8.55035
8.56224
6.45916
8.20796
7.09049
5.81808
8.81738
9.32037
4.9075
4.99503
7.32334
5.61757
7.92642
8.27973
5.24965
6.7113
4.5703
4.70959
8.91521
7.68968
5.13416
6.66082
6.1433
4.99102
8.10392
8.90379
4.47566
4.3476
6.20901
4.85569
7.45764
7.90286
4.76574
5.72177
4.12833
4.38298
8.69373
7.30593
4.55835
5.64304
5.28436
4.53012
7.80126
8.66543
4.20633
3.93601
5.30006
4.35129
7.15977
7.66703
4.3454
4.94631
3.768
4.15054
8.5807
7.0695
4.08828
4.85006
4.60065
4.16061
7.61656
8.53371
4.02163
3.62041
4.62253
3.91767
6.95854
7.53108
4.03428
4.37985
3.53459
3.9869
8.46709
6.88929
3.73348
4.29997
4.11703
3.87778
7.44559
8.42006
3.91523
3.40607
4.10516
3.63288
6.81282
7.40218
3.73851
3.92696
3.3065
3.94275
8.43551
6.78628
3.49966
3.82114
3.69622
3.57669
7.39836
8.42576
3.89353
3.17358
3.67131
3.42528
6.72319
7.36031
3.47204
3.54579
3.0884
3.90039
8.42779
6.73627
3.3138
3.42778
3.32896
3.28525
7.36524
8.43177
3.94345
2.96142
3.28349
3.23794
6.69645
7.35837
3.23426
3.19864
2.89139
3.91985
8.42448
6.72547
3.10296
3.09608
3.021
3.07823
7.4039
8.51622
3.89346
2.77528
3.01557
3.03812
6.73292
7.39085
2.97072
2.86485
2.71963
3.97559
8.50892
6.70774
2.98107
2.91755
2.75186
2.89017
7.36597
8.50312
3.96222
2.65162
2.85839
2.93005
6.68756
7.40954
2.8783
2.65345
2.60649
3.98539
8.57514
6.81687
2.8661
2.75968
2.54675
2.82476
7.51674
8.66477
3.97075
2.53584
2.69325
2.81547
6.72078
7.45746
2.76397
2.46276
2.4816
3.99029
8.61522
6.86416
2.72844
2.58038
2.35711
2.6577
7.5917
8.73653
4.0041
2.40495
2.50241
2.67605
6.85442
7.59704
2.64341
2.27917
2.34777
4.05913
8.74001
6.78999
2.59563
2.38483
2.17389
2.54174
7.552
8.73873
4.02555
2.25798
2.28873
2.51156
6.87474
7.69687
2.48213
2.09328
2.25708
4.19124
8.90009
7.00702
2.15867
2.0728
2.07091
3.37058
8.28144
6.55515
2.32938
2.21885
2.06035
2.40473
7.41804
8.69041
3.95085
2.1886
2.28207
2.50491
6.76985
7.62716
2.50717
2.09495
2.24007
4.1021
9.00604
7.08804
2.48337
2.22754
2.06024
2.5073
7.95587
9.31238
4.28628
2.29619
2.08291
2.22721
7.27072
8.63107
3.48314
2.09775
2.17041
2.30137
6.76979
7.65114
2.41934
2.00088
2.18684
4.14238
8.92455
7.07388
2.43423
2.14077
1.98604
2.45201
7.96094
9.32672
4.23814
2.19392
2.10158
2.41939
7.3152
8.22331
2.43599
1.95266
2.24829
4.37601
9.63548
7.45826
2.15805
1.97683
2.03263
3.55349
8.90079
6.88967
2.23139
2.06757
1.92082
2.38545
7.83077
9.1923
4.26038
2.15509
2.07967
2.39961
7.2545
8.24259
2.44847
1.94237
2.27109
4.4854
9.80994
7.65631
2.16809
1.98611
2.06558
3.67225
9.21823
7.2075
2.25894
2.07249
1.92339
2.43505
8.24005
9.7326
4.6294
2.26846
1.99283
2.18923
7.72596
9.21491
3.66495
2.0649
2.07653
2.27012
7.09071
8.05206
2.39061
1.92058
2.21081
4.43898
9.56311
7.64615
2.43676
2.07746
1.95316
2.50214
8.64801
10.2513
4.74398
2.34636
2.03546
2.25256
8.03437
9.64993
3.85296
2.14547
2.1044
2.31987
7.52596
8.5377
2.44845
1.94734
2.35388
4.83175
10.0162
7.95332
2.32229
2.0489
2.15296
3.85898
9.51464
7.37961
2.33611
2.1209
1.97029
2.49681
8.43994
10.1172
4.75148
2.31502
2.12347
2.51549
8.00759
9.09638
2.61987
2.00208
2.44553
4.98512
10.8256
8.40051
2.32657
2.08091
2.24755
4.11215
10.117
7.96759
2.38341
2.12909
1.97789
2.55577
9.07579
10.7964
5.01916
2.43573
2.06929
2.40149
8.49689
10.1364
4.01702
2.21451
2.08251
2.32861
7.74854
8.9237
2.54009
1.94614
2.41128
5.17668
10.6947
8.65492
2.3091
2.06038
2.24272
4.20078
10.4744
8.14047
2.37403
2.10744
1.97506
2.59591
9.34225
11.2232
5.21575
2.49204
2.0936
2.34234
8.78454
10.747
4.52621
2.40496
2.07436
2.10223
8.23853
10.0515
4.10398
2.25193
2.15366
2.39962
7.86546
9.01215
2.59229
2.01383
2.51107
5.21277
10.829
8.61616
2.42272
2.15599
2.34681
4.32877
10.6491
8.27187
2.48389
2.21287
2.08109
2.7097
9.47655
11.3561
5.52494
2.61937
2.23472
2.53506
9.09625
11.072
4.50392
2.44188
2.27182
2.55636
8.55472
9.77607
2.78725
2.13215
2.70745
5.57935
11.6855
9.22199
2.58401
2.27255
2.48623
4.56182
11.1177
8.58489
2.58259
2.28594
2.15286
2.84859
9.87926
11.8717
5.84331
2.75334
2.28611
2.5161
9.47902
11.652
4.98077
2.64896
2.24893
2.311
8.98701
11.0534
4.57681
2.49389
2.30742
2.58386
8.677
10.0056
2.83437
2.17003
2.81998
5.80083
12.1398
9.59379
2.61445
2.32534
2.69938
5.03493
11.8691
9.17183
2.3731
2.30552
2.55205
4.64072
11.1179
8.7103
2.64656
2.36076
2.23637
2.93784
9.97861
12.059
5.93994
2.881
2.39412
2.73173
9.53415
11.8722
4.92336
2.66864
2.41313
2.73709
9.14144
10.5185
3.0342
2.28035
2.97576
6.31043
12.7347
10.1473
2.7277
2.42506
2.86101
5.31581
12.4966
9.67704
2.47098
2.39901
2.70887
4.99628
11.8652
9.34817
2.77988
2.45834
2.32846
3.07212
10.7665
13.113
6.28488
3.07577
2.44489
2.83224
10.2568
12.6459
5.4574
2.91979
2.42524
2.51751
9.67844
11.8694
5.00406
2.73093
2.46741
2.78739
9.22813
10.6775
3.08967
2.33676
3.09772
6.50195
13.059
10.5025
2.80823
2.4938
2.97568
5.57273
13.0958
10.0767
2.57101
2.47832
2.83037
5.25705
12.3742
9.74291
2.89383
2.54782
2.42248
3.20894
11.2367
13.7607
6.5952
3.25812
2.5503
2.98736
10.8468
13.4295
5.69164
3.07713
2.52357
2.62693
10.3694
12.6117
5.2775
2.89067
2.55748
2.9215
9.81902
11.2943
3.22464
2.42695
3.24684
6.8621
13.727
10.9742
2.92344
2.57458
3.12389
5.82452
13.7139
10.6459
2.63043
2.55219
3.04266
5.5066
13.1473
10.2904
2.66478
2.55344
2.95879
5.53034
12.6994
9.91286
3.0415
2.64783
2.54639
3.43315
11.503
14.2577
6.97844
3.44195
2.70082
3.15227
11.2976
14.1752
6.05892
3.28483
2.66043
2.79473
10.9458
13.3795
5.72021
3.11015
2.7002
3.10589
10.4021
11.9592
3.45342
2.57745
3.47778
7.2543
14.4672
11.559
3.13388
2.71993
3.32801
6.10041
14.4244
11.2515
2.77166
2.66968
3.22528
5.82328
13.8877
10.9149
2.83025
2.67935
3.17291
5.86042
13.4631
10.6858
3.22695
2.75279
2.65287
3.61662
12.3697
15.3595
7.42604
3.66336
2.80048
3.35533
12.0741
15.1592
6.42779
3.49115
2.74388
2.86399
11.6848
14.4361
6.04433
3.3448
2.72875
2.90123
11.2488
13.7564
5.98842
3.23646
2.79567
3.28056
10.8653
12.4798
3.61824
2.69013
3.69134
7.60936
15.2119
12.0885
3.34805
2.86293
3.56316
6.57168
15.3073
11.7514
2.9816
2.81471
3.43398
6.18051
14.564
11.4184
2.99126
2.8171
3.38299
6.21719
14.1267
11.1911
3.43177
2.89204
2.7941
3.86062
12.9786
16.1931
7.8987
3.94611
2.97683
3.58315
12.7038
16.0586
6.8653
3.75132
2.89782
3.08682
12.4936
15.386
6.4451
3.5862
2.86419
3.07715
11.9963
14.6698
6.40382
3.46665
2.928
3.47477
11.4622
13.1855
3.90735
2.82467
3.98061
8.04562
16.2544
12.7686
3.61761
3.02406
3.82995
7.03402
16.2512
12.6261
3.18559
2.96962
3.68862
6.61088
15.6822
12.3383
3.17263
2.94921
3.60632
6.62325
15.2131
12.06
3.62684
3.00277
2.90984
4.10127
13.9484
17.4872
8.48589
4.20178
3.114
3.84028
13.5777
17.1456
7.32571
4.00284
3.02824
3.23533
13.2458
16.4035
6.95013
3.83674
2.98271
3.27788
12.8157
15.787
6.86608
3.69323
3.01066
3.67437
12.3935
14.3072
4.18507
2.91264
4.21121
8.94419
17.5627
14.0457
3.76727
3.15653
4.05069
7.46188
17.5216
13.637
3.30186
3.06295
3.90833
7.11855
16.9126
13.2706
3.32222
3.03268
3.84252
6.98471
16.494
13.0397
3.35289
3.03913
3.78808
7.03626
16.1134
12.6263
3.78163
3.09537
3.01641
4.34984
14.6535
18.4305
9.00086
4.47967
3.28774
4.07484
14.4434
18.3126
7.82778
4.27193
3.19688
3.46244
14.2756
17.735
7.44904
4.12499
3.1608
3.45237
13.8255
17.1865
7.36994
4.05838
3.15221
3.55108
13.5684
16.7233
7.36954
3.95615
3.20059
3.95369
13.0981
15.065
4.46402
3.10709
4.58581
9.23314
18.7632
14.7774
4.13705
3.3816
4.41052
8.09906
18.818
14.657
3.61532
3.31338
4.25326
7.62391
18.1391
14.1404
3.57382
3.28128
4.20421
7.59051
17.5199
13.8342
3.72112
3.29165
4.13242
7.61565
17.039
13.4528
4.14672
3.33345
3.25894
4.7767
15.6142
19.4128
9.95792
4.85409
3.57608
4.30855
15.4576
19.6358
8.59554
4.68596
3.47073
3.86584
15.2828
19.0072
8.10781
4.49771
3.41366
3.80832
14.8383
18.3959
7.98532
4.42233
3.39471
3.87495
14.4811
17.8425
7.98812
4.3101
3.41516
4.2767
13.9722
16.1167
4.82873
3.33627
4.98918
10.2022
19.9676
16.1017
4.45033
3.63474
4.76185
8.72926
20.3956
15.7743
3.88264
3.52651
4.60788
8.37027
19.4841
15.209
3.92269
3.49897
4.5549
8.25069
18.9095
14.869
3.99475
3.51025
4.4836
8.21463
18.3672
14.4319
4.4276
3.53276
3.47511
5.14896
16.7442
21.1136
10.4613
5.28463
3.78779
4.76594
16.6239
21.2799
9.24317
5.05262
3.68691
4.12223
16.3533
20.2987
8.80578
4.86815
3.63884
4.13612
15.987
19.9654
8.66813
4.77036
3.61501
4.1799
15.7596
19.3034
8.54296
4.64831
3.61806
4.57626
15.1284
17.4759
5.25486
3.55205
5.44185
11.2251
21.6536
17.237
4.82355
3.9007
5.21038
9.53138
21.836
16.9588
4.24768
3.79296
5.00622
9.06248
21.0509
16.4052
4.24667
3.74956
4.93247
8.9442
20.4358
16.0309
4.35257
3.75407
4.85403
8.94417
19.7564
15.5584
4.80268
3.75935
3.71576
5.57184
18.0541
22.9107
11.2915
5.78931
4.07899
5.18465
17.8635
23.0068
10.0404
5.50769
3.94483
4.48
17.8575
22.0838
9.4571
5.25396
3.8788
4.4129
17.4211
21.657
9.37386
5.17847
3.8647
4.46564
17.0476
21.1721
9.35853
5.14025
3.88094
4.58141
16.7092
20.6248
9.29686
5.046
3.87306
4.98256
16.2369
18.6598
5.67831
3.81968
5.91944
11.7606
23.4356
18.4296
5.35199
4.19544
5.63726
10.316
23.4791
18.1877
4.63509
4.08019
5.43426
9.78439
22.5366
17.6962
4.61401
4.04967
5.38058
9.69528
21.987
17.2523
4.76394
4.06654
5.30513
9.69814
21.2984
16.9531
5.27588
4.06346
4.03442
6.00435
19.5411
24.7367
12.3098
6.31575
4.4147
5.62174
19.4547
25.0016
10.9303
6.00136
4.25875
4.87502
19.1826
23.7798
10.2852
5.72812
4.187
4.83083
18.6155
23.1246
10.1665
5.60785
4.18266
4.91318
18.213
22.4267
10.1426
5.49666
4.17235
5.41656
17.4976
20.1759
6.25249
4.12071
6.49355
12.7417
25.4853
20.0323
5.78427
4.55158
6.17303
11.1705
25.6037
19.8712
4.97073
4.41208
5.91946
10.5541
24.503
19.1902
5.01328
4.36499
5.84034
10.5451
23.8175
18.7795
5.15788
4.37638
5.7632
10.5724
23.1999
18.2847
5.70241
4.36659
4.3481
6.61645
21.178
26.9985
13.3086
6.91384
4.779
6.12814
21.0571
27.0685
11.8305
6.54402
4.60773
5.26278
21.0332
25.9677
11.1286
6.23102
4.50153
5.15031
20.2147
25.1345
11.0893
6.12003
4.50189
5.38027
19.7774
24.4065
11.0544
5.97962
4.4683
5.84847
19.0286
21.876
6.72517
4.42666
7.04961
13.7721
27.6198
21.5786
6.2341
4.90082
6.7295
12.2598
27.6499
21.4177
5.52215
4.74527
6.42273
11.4885
26.4984
20.8003
5.43514
4.6768
6.31339
11.3836
25.7731
20.3192
5.55355
4.67554
6.24013
11.4277
24.9992
19.7657
6.18326
4.66966
4.65976
7.08266
22.7883
29.0463
14.3808
7.45847
5.13131
6.60357
22.6618
29.1592
12.8339
7.0742
4.95097
5.71007
22.4866
27.7853
12.0731
6.751
4.84483
5.69093
21.7168
26.8596
11.8606
6.59747
4.84174
5.76258
21.2206
26.0818
11.9007
6.47708
4.81519
6.36111
20.3138
23.42
7.36337
4.78863
7.66919
14.9184
29.6116
23.2723
6.79564
5.32632
7.30415
13.1789
29.5968
22.9541
5.95537
5.15925
7.01934
12.4594
28.3738
22.1754
5.93917
5.0982
6.92214
12.4
27.4408
21.5519
6.13541
5.10813
6.78846
12.2679
26.5113
20.894
6.71928
5.07265
5.07428
7.73152
24.2847
30.4774
16.1538
8.10266
5.64967
7.17558
24.3725
30.992
13.8648
7.7391
5.41806
6.31932
23.9786
29.5815
13.086
7.37199
5.28298
6.28379
23.0671
28.1625
12.7866
7.06217
5.18238
6.8568
21.9661
25.4802
7.87097
5.17
8.40229
16.362
32.3702
25.2359
7.44925
5.75226
8.03086
14.5254
32.2333
24.8081
6.58339
5.59668
7.6214
13.461
30.525
23.8999
6.43673
5.47908
7.45562
13.3097
29.449
23.1839
6.60634
5.46054
7.27788
13.1674
28.369
22.1883
7.10923
5.40238
5.41766
8.25026
25.9269
32.6417
17.0265
8.72518
6.07446
7.735
25.9701
32.9397
14.8738
8.36129
5.86156
6.89307
25.5511
31.5068
14.0814
7.99566
5.73243
6.83445
24.5629
29.9369
13.8023
7.7042
5.57978
7.45035
23.4419
27.2599
8.48585
5.5747
9.08041
17.6624
34.5929
26.748
7.94747
6.23329
8.66548
15.5588
34.3106
26.5533
7.17685
6.02879
8.26122
14.6299
32.6214
25.4219
7.10812
5.92426
7.97102
14.3232
30.9417
24.141
7.7112
5.81093
5.83419
8.98834
28.2039
35.7795
18.441
9.51807
6.52789
8.45675
27.9651
35.43
16.1247
9.05359
6.29612
7.46359
27.4334
33.7007
15.1175
8.61403
6.14327
7.39877
26.4065
32.2629
14.8284
8.31258
5.95918
7.96658
25.1819
29.4001
9.02009
5.97101
9.71707
19.0919
36.7104
29.0506
8.63847
6.66921
9.27557
16.4983
36.4206
28.2159
7.60873
6.43823
8.82727
15.5036
34.6063
27.1091
7.55312
6.31031
8.53193
15.236
33.4077
25.9993
8.32345
6.18388
6.22181
9.61409
30.5118
38.3983
20.0495
10.2804
7.01533
9.15671
30.0249
37.609
17.3544
9.7844
6.76203
8.19101
29.1559
35.8133
16.3289
9.18984
6.45062
8.58885
27.6473
32.2592
9.76609
6.46783
10.6311
20.9917
39.8424
31.4353
9.38829
7.2363
10.0836
17.8879
39.2519
30.2249
8.29797
6.95174
9.58364
16.887
37.2906
29.1482
8.29349
6.80435
9.30554
16.6894
36.0246
28.0768
9.00523
6.66585
6.70539
10.4237
32.9421
41.5515
21.4779
11.1491
7.52048
9.87292
32.3979
40.6547
18.6286
10.5226
7.21019
8.63375
31.118
38.67
17.5637
9.89602
6.89668
9.3119
29.8855
35.1728
10.7187
6.92478
11.5402
22.888
43.5692
34.1378
10.2047
7.80954
10.9279
19.3798
42.4851
32.6689
9.04507
7.49042
10.3308
18.4506
40.2574
31.1236
9.78452
7.20959
7.25972
11.3041
36.4368
45.9278
23.3378
12.1952
8.07892
10.719
35.2514
44.2861
20.2362
11.4096
7.75687
9.34193
34.1517
42.2829
18.9618
10.8048
7.55287
9.19366
32.5643
40.4337
18.6596
10.3723
7.33739
9.97171
31.4895
36.9652
11.3308
7.3739
12.2745
24.0178
45.7636
35.4099
10.9725
8.29195
11.6791
20.7472
44.8478
33.6789
9.60172
8.03869
11.0852
19.7714
42.575
33.1334
10.5156
7.77228
7.84467
12.1262
39.0227
48.1959
25.3048
13.037
8.75197
11.7134
37.1748
46.6241
21.9982
12.2505
8.24404
11.0216
35.6569
41.649
12.5313
8.26495
13.7617
26.2948
51.2905
39.3184
12.0454
9.14426
12.933
22.7428
49.4389
37.6782
10.6957
8.7522
12.1041
21.4674
46.7434
36.4256
11.3569
8.35835
8.44156
13.0797
42.8242
52.9196
27.506
14.28
9.38882
12.6467
40.5042
51.2909
23.6815
13.3865
9.01025
11.0302
39.0306
48.7615
22.4022
12.5275
8.55461
11.6786
37.5755
44.1621
13.0352
8.59558
14.595
28.8492
55.5234
42.1015
13.1007
9.65469
13.7236
24.8226
52.8516
40.3516
12.2721
9.12931
9.20487
14.2731
47.2727
58.5285
30.2377
15.6529
10.2559
13.7985
44.3273
55.6096
25.6944
14.644
9.8165
12.0573
42.5931
53.1083
24.4201
13.6832
9.28595
12.6092
40.8073
47.9637
14.5362
9.37445
15.8537
30.8937
59.3156
45.5336
14.1349
10.4785
14.9354
26.7734
57.0059
43.8804
13.4405
9.87768
9.95959
15.3002
51.5652
63.867
33.0188
16.9398
11.0489
14.8666
48.5681
60.8998
28.2322
15.75
10.1964
13.8418
45.6502
54.0875
15.8129
10.2507
17.7291
34.8688
67.8385
51.3151
15.5407
11.4691
16.5084
29.7741
64.0159
48.9031
14.7203
10.7112
10.809
16.6398
57.3846
69.8112
36.8109
18.5449
12.0292
16.1736
53.091
66.2038
30.6728
17.2835
11.3378
14.1109
50.2545
62.6372
28.8187
16.0295
10.702
14.7316
48.1252
56.4178
16.8757
10.8234
18.3924
36.5595
69.9802
53.543
17.137
11.829
11.8181
18.4955
62.6872
76.4589
40.7342
20.3723
13.0323
17.6912
58.4265
72.8911
33.5644
18.6298
11.7664
16.0353
54.0633
63.8794
18.2707
11.8352
20.8245
41.2158
80.4858
60.7409
18.1035
13.2875
19.3513
35.0292
75.6539
57.5133
17.0974
12.3314
12.4478
19.375
67.2012
82.1347
43.0358
21.6307
13.7802
18.9401
62.2019
77.3019
36.0138
19.8977
12.609
17.3477
58.6981
68.2504
19.4578
12.7075
21.9447
43.1884
84.1418
63.6154
19.3088
14.0801
20.4356
37.0679
79.346
60.4127
18.0722
13.0528
13.1537
20.3221
70.2431
86.9223
45.1893
22.5314
14.1393
20.9231
65.79
76.1618
21.0553
14.0336
24.6018
49.7429
94.9432
71.5393
21.3443
15.5429
22.6289
41.0657
88.9954
66.9061
19.5158
14.1079
14.2508
22.2043
77.3826
94.632
49.2473
24.639
15.3141
22.4344
71.3215
82.2759
24.248
15.3085
26.811
51.6812
101.611
75.5201
22.9081
16.7915
24.367
43.6631
93.4403
70.8231
21.1171
15.1586
15.2722
23.4994
82.0044
100.818
52.1552
26.1198
16.1476
23.7255
76.1278
87.9954
25.1496
16.1445
27.9409
55.694
108.533
81.0198
24.8993
17.1143
16.9872
26.7189
94.1782
117.951
59.9775
30.3809
18.6904
25.5429
87.2786
107.236
49.5222
27.2552
16.51
23.044
79.9859
91.7305
25.4023
16.5932
28.4937
57.6279
111.692
83.8191
26.0444
17.5338
17.4892
27.607
96.1132
117.76
60.6905
30.3156
18.321
27.088
87.5271
100.226
28.2836
18.2335
31.5511
63.1575
122.666
91.275
27.922
18.9662
18.89
29.2862
105.038
130.031
64.3695
32.5418
19.4462
28.8163
96.3873
110.867
30.4301
19.2748
34.3646
69.9939
136.312
100.5
30.3609
20.2383
20.1845
31.7937
114.479
139.159
70.296
35.3688
20.7613
30.9861
101.785
116.076
32.4372
20.6471
36.0253
72.032
140.008
103.826
31.5019
21.1819
21.0815
32.8938
118.359
144.544
72.8744
36.6749
21.5039
31.9667
105.766
121.347
33.1699
21.3405
36.9544
73.2557
148.769
110.967
32.88
21.7241
21.6467
34.7509
127.44
156.142
79.1701
38.4478
22.3349
34.0422
115.153
127.849
39.8011
22.9399
23.582
43.5323
147.168
171.977
90.936
43.8485
24.2657
37.4705
125.791
141.895
38.1151
23.8502
42.1055
84.0915
171.283
124.364
36.5709
24.0606
23.7331
37.1861
141.096
171.597
83.8958
41.2357
23.4001
35.446
125.248
140.705
41.51
23.75
24.6641
46.4585
162.263