/*--------------------------------*- C++ -*----------------------------------*\
| =========                 |                                                 |
| \\      /  F ield         | OpenFOAM: The Open Source CFD Toolbox           |
|  \\    /   O peration     | Version:  v2006                                 |
|   \\  /    A nd           | Website:  www.openfoam.com                      |
|    \\/     M anipulation  |                                                 |
\*---------------------------------------------------------------------------*/
FoamFile
{
    version     2.0;
    format      ascii;
    class       surfaceScalarField;
    location    "0.084";
    object      phi;
}
// * * * * * * * * * * * * * * * * * * * * * * * * * * * * * * * * * * * * * //

dimensions      [1 0 -1 0 0 0 0];
oriented        oriented;


internalField   nonuniform List<scalar> 
32242
(
-2.61642e-05
-0.00135438
0.0013351
4.55336e-05
-0.00127011
0.00124389
8.34974e-06
7.77067e-05
-3.49255e-06
0.00146283
3.80328e-05
0.00159992
-3.2902e-05
0.00165138
-3.664e-06
0.00169139
-1.63708e-05
0.00168406
-2.32725e-06
0.00168002
-2.42914e-06
0.00166947
-4.47091e-07
0.00166258
-1.01569e-06
0.00165676
-1.15359e-06
0.0016531
-1.27948e-06
0.00164974
-1.47981e-06
0.00164692
-1.51024e-06
0.00164385
-1.61867e-06
0.00164092
-1.72314e-06
0.00163778
-1.82362e-06
0.0016345
-1.92013e-06
0.00163109
-2.01287e-06
0.00162755
-2.10216e-06
0.00162388
-2.1884e-06
0.00162008
-2.27194e-06
0.00161616
-2.35308e-06
0.00161211
-2.432e-06
0.00160794
-2.50884e-06
0.00160365
-2.58361e-06
0.00159924
-2.65629e-06
0.00159472
-2.72683e-06
0.00159008
-2.79512e-06
0.00158533
-2.86106e-06
0.00158047
-2.92454e-06
0.00157551
-2.9854e-06
0.00157045
-3.04353e-06
0.0015653
-3.09879e-06
0.00156006
-3.15102e-06
0.00155473
-3.20009e-06
0.00154932
-3.24589e-06
0.00154383
-3.28828e-06
0.00153827
-3.32715e-06
0.00153265
-3.36237e-06
0.00152697
-3.39384e-06
0.00152124
-3.42146e-06
0.00151546
-3.44512e-06
0.00150964
-3.46473e-06
0.00150378
-3.48021e-06
0.00149789
-3.49146e-06
0.00149199
-3.4984e-06
0.00148606
-3.50097e-06
0.00148013
-3.49911e-06
0.00147419
-3.49278e-06
0.00146826
-3.48201e-06
0.00146234
-3.46666e-06
0.00145643
-3.44516e-06
0.00145055
-3.41996e-06
0.00144471
-3.39044e-06
0.0014389
-3.3561e-06
0.00143314
-3.317e-06
0.00142744
-3.27315e-06
0.0014218
-3.22456e-06
0.00141622
-3.17126e-06
0.00141073
-3.11326e-06
0.00140531
-3.05058e-06
0.00139999
-2.98325e-06
0.00139476
-2.91127e-06
0.00138964
-2.83457e-06
0.00138462
-2.75304e-06
0.00137973
-2.66646e-06
0.00137495
-2.57453e-06
0.00137031
-2.4769e-06
0.0013658
-2.37323e-06
0.00136144
-2.26332e-06
0.00135722
-2.14705e-06
0.00135316
-2.02415e-06
0.00134926
-1.89339e-06
0.00134552
-1.75131e-06
0.00134191
-9.22026e-07
0.00133772
-1.39997e-06
0.00133426
-1.16981e-06
0.00132816
-2.89541e-06
0.00131955
-4.61649e-06
0.00130742
-1.96294e-05
0.00128696
-3.00953e-05
0.00126105
-8.36234e-05
0.00122473
-0.000143177
0.00120262
-0.000328502
0.00121428
-0.000736196
0.00140183
-0.000202563
0.000361196
2.04325e-05
0.000599541
4.44662e-06
0.000786406
-3.85985e-05
0.000696037
-1.24937e-05
0.000609994
-7.50922e-06
0.000220539
-4.58122e-06
0.000183625
0.000148435
8.5264e-06
0.000139909
1.73474e-05
0.000174804
0.000210943
2.69429e-05
-1.36292e-05
0.000203716
2.08567e-05
-6.80519e-06
0.00016798
0.000133103
2.50446e-06
0.000130599
4.12784e-06
0.000166356
0.00020248
5.36317e-06
-4.65159e-06
0.000200395
6.73666e-06
-2.8715e-06
0.000164576
0.000127728
1.54676e-06
0.000126181
2.02868e-06
0.000164094
0.00020028
2.14364e-06
-4.45897e-06
0.000198717
6.02265e-06
-2.60025e-06
0.000162236
0.000123581
1.26909e-06
0.000122311
1.14652e-06
0.000162358
0.000198482
1.38155e-06
-3.62734e-06
0.000197499
4.6106e-06
-1.77608e-06
0.000160507
0.000120535
4.71941e-07
0.000120063
3.5459e-07
0.000160624
0.000197859
-6.26102e-09
-2.83714e-06
0.00019616
4.53632e-06
-1.60637e-06
0.000159394
0.000118457
3.42455e-07
0.000118115
2.39687e-07
0.000159496
0.000196461
-6.07206e-08
-2.71693e-06
0.000195374
3.80385e-06
-1.48145e-06
0.000158261
0.000116633
2.51176e-07
0.000116382
1.47991e-07
0.000158364
0.00019564
-1.18477e-07
-2.62298e-06
0.000194523
3.74037e-06
-1.38808e-06
0.000157129
0.000114994
1.8339e-07
0.000114811
8.27092e-08
0.00015723
0.000194759
-1.53466e-07
-2.54963e-06
0.000193618
3.69071e-06
-1.31737e-06
0.000155998
0.000113493
1.32272e-07
0.000113361
2.73557e-08
0.000156103
0.000193833
-1.87641e-07
-2.48675e-06
0.000192677
3.64343e-06
-1.26183e-06
0.000154878
0.000112099
9.2587e-08
0.000112007
-1.27266e-08
0.000154983
0.000192873
-2.09153e-07
-2.43705e-06
0.000191704
3.60576e-06
-1.22106e-06
0.000153767
0.000110786
6.11091e-08
0.000110725
-4.22108e-08
0.000153871
0.000191884
-2.22164e-07
-2.39752e-06
0.000190702
3.57961e-06
-1.18739e-06
0.00015266
0.000109537
3.88159e-08
0.000109498
-6.16319e-08
0.000152761
0.000190868
-2.27502e-07
-2.36732e-06
0.000189674
3.5613e-06
-1.1601e-06
0.000151554
0.000108338
2.28642e-08
0.000108316
-7.47119e-08
0.000151651
0.000189826
-2.26394e-07
-2.34309e-06
0.000188621
3.54832e-06
-1.13781e-06
0.000150446
0.000107178
1.16401e-08
0.000107166
-8.11728e-08
0.000150539
0.000188758
-2.18059e-07
-2.32498e-06
0.000187541
3.54189e-06
-1.11994e-06
0.000149334
0.000106046
4.39617e-09
0.000106042
-8.1747e-08
0.00014942
0.000187662
-2.02903e-07
-2.31216e-06
0.000186433
3.54139e-06
-1.10575e-06
0.000148214
0.000104936
4.76412e-10
0.000104936
-7.72165e-08
0.000148292
0.000186537
-1.81607e-07
-2.30384e-06
0.000185295
3.54618e-06
-1.09461e-06
0.000147082
0.000103841
-1.1423e-09
0.000103842
-6.88913e-08
0.00014715
0.000185382
-1.55897e-07
-2.29902e-06
0.000184126
3.55502e-06
-1.08598e-06
0.000145937
0.000102756
-4.21146e-10
0.000102757
-5.69948e-08
0.000145994
0.000184195
-1.25715e-07
-2.29729e-06
0.000182924
3.56776e-06
-1.0793e-06
0.000144776
0.000101678
2.10721e-09
0.000101675
-4.17528e-08
0.00014482
0.000182974
-9.10783e-08
-2.29852e-06
0.000181688
3.58442e-06
-1.0744e-06
0.000143595
0.000100601
6.36257e-09
0.000100595
-2.32724e-08
0.000143625
0.000181717
-5.19504e-08
-2.30263e-06
0.000180414
3.60514e-06
-1.07119e-06
0.000142394
9.95235e-05
1.19699e-08
9.95115e-05
-2.39246e-09
0.000142408
0.000180421
-9.67635e-09
-2.30853e-06
0.000179102
3.62803e-06
-1.06923e-06
0.000141169
9.84422e-05
1.98631e-08
9.84224e-05
2.25923e-08
0.000141166
0.000179085
3.92998e-08
-2.31632e-06
0.000177748
3.653e-06
-1.06833e-06
0.000139918
9.7354e-05
2.92194e-08
9.73248e-05
5.04139e-08
0.000139897
0.000177706
9.24756e-08
-2.32664e-06
0.000176351
3.68155e-06
-1.06877e-06
0.000138639
9.6256e-05
3.99953e-08
9.62159e-05
8.10609e-08
0.000138598
0.000176282
1.49785e-07
-2.3394e-06
0.000174908
3.71366e-06
-1.07049e-06
0.000137329
9.51454e-05
5.22263e-08
9.50931e-05
1.14605e-07
0.000137266
0.000174811
2.11437e-07
-2.35449e-06
0.000173417
3.74916e-06
-1.07344e-06
0.000135985
9.40196e-05
6.58783e-08
9.39537e-05
1.50994e-07
0.0001359
0.00017329
2.77419e-07
-2.3718e-06
0.000171874
3.7879e-06
-1.07753e-06
0.000134606
9.28761e-05
8.08865e-08
9.27951e-05
1.90124e-07
0.000134496
0.000171716
3.47627e-07
-2.39115e-06
0.000170278
3.82964e-06
-1.08267e-06
0.000133188
9.17124e-05
9.71615e-08
9.16151e-05
2.31837e-07
0.000133053
0.000170087
4.21856e-07
-2.41232e-06
0.000168626
3.87408e-06
-1.08873e-06
0.000131729
9.05263e-05
1.14588e-07
9.04117e-05
2.7592e-07
0.000131568
0.000168402
4.99806e-07
-2.43507e-06
0.000166916
3.92085e-06
-1.09559e-06
0.000130228
8.9316e-05
1.33038e-07
8.91829e-05
3.2213e-07
0.000130039
0.000166657
5.81028e-07
-2.4589e-06
0.000165146
3.96929e-06
-1.10302e-06
0.000128683
8.80799e-05
1.52266e-07
8.79276e-05
3.69985e-07
0.000128466
0.000164851
6.64845e-07
-2.48337e-06
0.000163316
4.01869e-06
-1.11079e-06
0.000127093
8.68168e-05
1.71988e-07
8.66448e-05
4.18888e-07
0.000126846
0.000162985
7.50333e-07
-2.50764e-06
0.000161424
4.06782e-06
-1.11847e-06
0.000125457
8.55263e-05
1.91716e-07
8.53346e-05
4.67865e-07
0.000125181
0.000161056
8.36039e-07
-2.53064e-06
0.000159472
4.11503e-06
-1.12553e-06
0.000123776
8.42091e-05
2.10806e-07
8.39983e-05
5.15643e-07
0.000123471
0.000159068
9.19978e-07
-2.55112e-06
0.00015746
4.15831e-06
-1.13143e-06
0.000122051
8.28669e-05
2.28774e-07
8.26382e-05
5.60943e-07
0.000121719
0.000157021
1e-06
-2.56776e-06
0.000155394
4.19548e-06
-1.13562e-06
0.000120287
8.15026e-05
2.44877e-07
8.12577e-05
6.02202e-07
0.00011993
0.000154922
1.07362e-06
-2.5789e-06
0.000153277
4.2239e-06
-1.1373e-06
0.000118488
8.01204e-05
2.58198e-07
7.98622e-05
6.37451e-07
0.000118109
0.000152777
1.13769e-06
-2.58244e-06
0.000151119
4.24019e-06
-1.13551e-06
0.000116662
7.87266e-05
2.67592e-07
7.8459e-05
6.64183e-07
0.000116265
0.000150595
1.1882e-06
-2.57575e-06
0.000148931
4.24014e-06
-1.12907e-06
0.000114818
7.73299e-05
2.71645e-07
7.70583e-05
6.79297e-07
0.000114411
0.00014839
1.22016e-06
-2.55567e-06
0.000146727
4.21866e-06
-1.11658e-06
0.000112972
7.59417e-05
2.6868e-07
7.5673e-05
6.79064e-07
0.000112561
0.000146178
1.2276e-06
-2.5185e-06
0.000144527
4.16978e-06
-1.09635e-06
0.000111139
7.45767e-05
2.56745e-07
7.432e-05
6.59229e-07
0.000110737
0.000143983
1.20361e-06
-2.46011e-06
0.000142356
4.08665e-06
-1.06652e-06
0.000109343
7.32536e-05
2.33627e-07
7.30201e-05
6.14936e-07
0.000108962
0.000141831
1.1402e-06
-2.37561e-06
0.000140246
3.96132e-06
-1.02494e-06
0.000107612
7.19954e-05
1.96753e-07
7.17988e-05
5.40422e-07
0.000107268
0.000139759
1.02799e-06
-2.25957e-06
0.000138234
3.78484e-06
-9.69256e-07
0.000105978
7.08297e-05
1.43269e-07
7.06866e-05
4.29367e-07
0.000105692
0.000137807
8.56524e-07
-2.10669e-06
0.000136365
3.54843e-06
-8.97204e-07
0.000104483
6.97896e-05
7.09797e-08
6.97187e-05
2.76721e-07
0.000104277
0.000136025
6.17448e-07
-1.91254e-06
0.000134691
3.24569e-06
-8.05138e-07
0.00010317
6.89136e-05
-2.44686e-08
6.8938e-05
7.56076e-08
0.00010307
0.000134468
2.99522e-07
-1.66775e-06
0.000133269
2.86582e-06
-6.86903e-07
0.000102089
6.82511e-05
-1.47845e-07
6.83989e-05
-1.81828e-07
0.000102123
0.000133191
-1.03602e-07
-1.37927e-06
0.000132167
2.40326e-06
-5.53294e-07
0.000101297
6.78456e-05
-2.84751e-07
6.81304e-05
-4.79273e-07
0.000101492
0.000132264
-5.7659e-07
-1.0563e-06
0.000131439
1.88188e-06
-4.06219e-07
0.000100841
6.77241e-05
-4.35326e-07
6.81598e-05
-8.1144e-07
0.000101217
0.000131739
-1.11101e-06
-7.1698e-07
0.000131125
1.33103e-06
-2.53927e-07
0.000100754
6.7906e-05
-5.9078e-07
6.84969e-05
-1.15866e-06
0.000101322
0.000131643
-1.67666e-06
-3.74194e-07
0.000131249
7.68172e-07
-1.01642e-07
0.000101049
6.83952e-05
-7.34603e-07
6.91298e-05
-1.48549e-06
0.0001018
0.00013198
-2.2165e-06
-4.13006e-08
0.000131798
2.22845e-07
5.02308e-08
0.000101709
6.918e-05
-8.96093e-07
7.0076e-05
-1.849e-06
0.000102662
0.000132765
-2.81607e-06
3.00498e-07
0.000132807
-3.42617e-07
2.00282e-07
0.000102762
7.02762e-05
-1.05473e-06
7.13308e-05
-2.20199e-06
0.000103909
0.000134009
-3.40405e-06
5.4068e-07
0.000134236
-7.67479e-07
2.89736e-07
0.00010416
7.16204e-05
-1.14257e-06
7.27629e-05
-2.4285e-06
0.000105445
0.000135613
-3.80586e-06
6.9349e-07
0.000135972
-1.05233e-06
3.41934e-07
0.000105797
7.31047e-05
-1.18862e-06
7.42931e-05
-2.56652e-06
0.000107174
0.000137471
-4.06589e-06
7.67654e-07
0.000137917
-1.2142e-06
3.5769e-07
0.000107584
7.46507e-05
-1.20788e-06
7.58584e-05
-2.64409e-06
0.00010902
0.000139502
-4.22905e-06
7.87096e-07
0.000140002
-1.28696e-06
3.49754e-07
0.000109457
7.6208e-05
-1.20418e-06
7.74121e-05
-2.66878e-06
0.000110922
0.000141638
-4.30524e-06
7.56307e-07
0.000142157
-1.276e-06
3.20515e-07
0.000111358
7.77326e-05
-1.17877e-06
7.89113e-05
-2.64357e-06
0.000112822
0.000143812
-4.29808e-06
6.80904e-07
0.000144321
-1.18964e-06
2.72258e-07
0.000113231
7.91836e-05
-1.13526e-06
8.03188e-05
-2.57526e-06
0.000114671
0.000145963
-4.21748e-06
5.68859e-07
0.000146434
-1.03969e-06
2.09306e-07
0.000115031
8.05281e-05
-1.07771e-06
8.16059e-05
-2.47211e-06
0.000116425
0.000148038
-4.07611e-06
4.28671e-07
0.000148448
-8.39141e-07
1.35599e-07
0.000116718
8.17416e-05
-1.00961e-06
8.27513e-05
-2.34182e-06
0.000118051
0.000149993
-3.88588e-06
2.68255e-07
0.000150325
-6.00687e-07
5.5219e-08
0.000118264
8.28067e-05
-9.36615e-07
8.37435e-05
-2.19239e-06
0.00011952
0.000151793
-3.65955e-06
9.60659e-08
0.000152034
-3.37029e-07
-2.70228e-08
0.000119643
8.37166e-05
-8.64119e-07
8.4581e-05
-2.03394e-06
0.000120813
0.000153411
-3.41074e-06
-7.99053e-08
0.000153551
-6.01152e-08
-1.08244e-07
0.000120842
8.44729e-05
-7.89336e-07
8.52624e-05
-1.87221e-06
0.000121925
0.000154832
-3.15304e-06
-2.50168e-07
0.000154873
2.10152e-07
-1.86463e-07
0.000121861
8.50761e-05
-7.17223e-07
8.57935e-05
-1.71357e-06
0.000122858
0.000156056
-2.89645e-06
-4.11684e-07
0.000155997
4.70788e-07
-2.59053e-07
0.000122705
8.55346e-05
-6.5109e-07
8.61858e-05
-1.56491e-06
0.000123619
0.000157084
-2.65243e-06
-5.59061e-07
0.000156931
7.12892e-07
-3.23457e-07
0.000123384
8.58624e-05
-5.92604e-07
8.64551e-05
-1.43039e-06
0.000124222
0.000157929
-2.42824e-06
-6.86968e-07
0.00015769
9.26431e-07
-3.77581e-07
0.000123913
8.60777e-05
-5.44069e-07
8.6622e-05
-1.31536e-06
0.000124684
0.000158608
-2.23358e-06
-7.94404e-07
0.000158293
1.10888e-06
-4.21395e-07
0.000124311
8.62009e-05
-5.05465e-07
8.67066e-05
-1.22043e-06
0.000125026
0.000159143
-2.07001e-06
-8.81456e-07
0.000158764
1.26042e-06
-4.55225e-07
0.0001246
8.62517e-05
-4.75939e-07
8.67275e-05
-1.14441e-06
0.000125269
0.000159556
-1.93597e-06
-9.49488e-07
0.000159123
1.38231e-06
-4.80075e-07
0.000124799
8.62473e-05
-4.54024e-07
8.6701e-05
-1.08508e-06
0.00012543
0.000159867
-1.8287e-06
-1.00181e-06
0.000159391
1.47843e-06
-4.98269e-07
0.000124926
8.62025e-05
-4.37651e-07
8.664e-05
-1.03924e-06
0.000125527
0.000160096
-1.74378e-06
-1.04147e-06
0.000159585
1.55297e-06
-5.11127e-07
0.000124996
8.61288e-05
-4.24914e-07
8.65533e-05
-1.00282e-06
0.000125573
0.000160256
-1.67441e-06
-1.06913e-06
0.00015972
1.60537e-06
-5.18186e-07
0.000125022
8.60348e-05
-4.17281e-07
8.64513e-05
-9.76618e-07
0.00012558
0.000160366
-1.62385e-06
-1.08906e-06
0.000159809
1.64614e-06
-5.22779e-07
0.000125014
8.59276e-05
-4.09476e-07
8.63379e-05
-9.56524e-07
0.000125561
0.000160438
-1.58506e-06
-1.10318e-06
0.000159863
1.67763e-06
-5.24244e-07
0.000124984
8.58131e-05
-4.03565e-07
8.62198e-05
-9.45098e-07
0.000125522
0.000160477
-1.55766e-06
-1.11607e-06
0.000159889
1.70167e-06
-5.25099e-07
0.000124934
8.56957e-05
-4.01693e-07
8.61007e-05
-9.3351e-07
0.000125463
0.000160491
-1.53582e-06
-1.12197e-06
0.000159892
1.72072e-06
-5.25568e-07
0.000124871
8.55766e-05
-4.01465e-07
8.59809e-05
-9.26375e-07
0.000125395
0.000160487
-1.52129e-06
-1.12102e-06
0.000159879
1.7288e-06
-5.23407e-07
0.000124797
8.54568e-05
-4.01817e-07
8.58607e-05
-9.2728e-07
0.000125319
0.000160467
-1.51352e-06
-1.12337e-06
0.000159854
1.73783e-06
-5.18188e-07
0.000124718
8.53383e-05
-4.06411e-07
8.57423e-05
-9.29291e-07
0.000125235
0.000160435
-1.50808e-06
-1.11916e-06
0.000159818
1.73772e-06
-5.16679e-07
0.000124632
8.52207e-05
-4.06987e-07
8.56252e-05
-9.29674e-07
0.000125149
0.000160399
-1.50749e-06
-1.11985e-06
0.000159777
1.7424e-06
-5.15003e-07
0.000124546
8.51061e-05
-4.07858e-07
8.55139e-05
-9.28632e-07
0.000125063
0.000160356
-1.5038e-06
-1.11529e-06
0.000159734
1.73694e-06
-5.12605e-07
0.000124459
8.49945e-05
-4.08728e-07
8.54028e-05
-9.28251e-07
0.000124978
0.000160315
-1.50773e-06
-1.10892e-06
0.000159695
1.73159e-06
-5.09767e-07
0.00012438
8.48931e-05
-4.23708e-07
8.53091e-05
-9.50813e-07
0.000124901
0.000160274
-1.53383e-06
-1.10625e-06
0.000159672
1.71128e-06
-5.11146e-07
0.000124307
8.4799e-05
-4.19639e-07
8.52243e-05
-9.57903e-07
0.000124852
0.000160825
-2.10494e-06
-5.1443e-07
0.000159719
1.6102e-06
-4.56674e-07
0.000124783
8.47568e-05
-9.36129e-07
8.57044e-05
-1.57684e-06
0.000125435
0.000161474
-3.3221e-06
1.71798e-07
0.000161535
-2.389e-07
7.95169e-08
0.000125519
8.57742e-05
-1.66341e-06
8.74365e-05
-4.54941e-06
0.000128405
0.000164079
-7.09381e-06
6.1218e-06
0.000168399
-1.04387e-05
2.9708e-06
0.00013156
9.04096e-05
-8.664e-06
9.90673e-05
-1.96789e-05
0.000142568
0.000181981
-3.32652e-05
4.32981e-05
0.000211513
-7.28276e-05
1.94553e-05
0.000166413
0.000118524
3.93501e-05
9.50027e-05
0.000165996
3.99768e-05
-0.00028821
-5.72887e-05
-0.000326091
-6.18121e-05
-0.00051047
-2.49798e-05
-0.000550485
-1.5941e-05
-0.000577076
-3.11897e-06
-0.00057975
-2.56341e-06
-0.000584685
-2.03783e-07
-0.000585155
-8.04207e-07
-0.000585844
9.64213e-07
-0.000585299
1.54849e-06
-0.000583072
5.0737e-06
-0.000577008
9.77963e-06
-0.000568946
2.14735e-05
-0.000554885
3.83955e-05
-0.000540861
8.52404e-05
-0.000536062
0.000189248
-0.000544788
8.52783e-05
-0.000335922
4.86798e-05
-0.000332976
2.72011e-05
-0.000323189
2.72309e-05
-0.000275572
7.96291e-06
-0.000237156
4.51392e-06
-8.35244e-05
1.84149e-06
-5.64577e-05
-3.04771e-05
-2.25162e-06
-2.82257e-05
-5.9345e-06
-5.2778e-05
-7.83787e-05
-1.10746e-05
4.03353e-06
-7.53504e-05
-7.09044e-06
1.39775e-06
-5.01236e-05
-2.68055e-05
-9.56372e-07
-2.58421e-05
-1.69783e-06
-4.93871e-05
-7.35533e-05
-3.52815e-06
6.95957e-07
-7.29229e-05
-1.33499e-06
1.61826e-07
-4.88597e-05
-2.56845e-05
-4.36613e-07
-2.52486e-05
-5.56067e-07
-4.87363e-05
-7.23111e-05
-1.16022e-06
5.29174e-07
-7.27549e-05
-8.83221e-08
6.79551e-08
-4.8277e-05
-2.5182e-05
-4.81944e-09
-2.51788e-05
-2.68322e-08
-4.82567e-05
-7.27624e-05
-2.01254e-08
-2.05923e-08
-7.27795e-05
3.64112e-08
-1.05492e-08
-4.82677e-05
-2.51902e-05
1.87216e-08
-2.5208e-05
3.96645e-08
-4.82877e-05
-7.27994e-05
5.9252e-08
-5.57183e-08
-7.28332e-05
8.76316e-08
-2.55553e-08
-4.83183e-05
-2.52338e-05
2.55795e-08
-2.52578e-05
5.51901e-08
-4.83466e-05
-7.28627e-05
8.26758e-08
-6.4051e-08
-7.28979e-05
9.95523e-08
-2.88084e-08
-4.83797e-05
-2.52848e-05
2.69127e-08
-2.53118e-05
5.91072e-08
-4.8412e-05
-7.29307e-05
9.33081e-08
-6.51538e-08
-7.29727e-05
1.09855e-07
-2.94515e-08
-4.84492e-05
-2.53434e-05
2.83653e-08
-2.53723e-05
6.31916e-08
-4.84846e-05
-7.3008e-05
9.9481e-08
-7.15248e-08
-7.30488e-05
1.11752e-07
-3.2363e-08
-4.85223e-05
-2.54034e-05
3.20202e-08
-2.54344e-05
7.01111e-08
-4.85595e-05
-7.30866e-05
1.06117e-07
-7.76761e-08
-7.3132e-05
1.21476e-07
-3.55649e-08
-4.8601e-05
-2.54692e-05
3.30038e-08
-2.55008e-05
7.2463e-08
-4.86397e-05
-7.31719e-05
1.10023e-07
-7.81255e-08
-7.32172e-05
1.20312e-07
-3.57183e-08
-4.86802e-05
-2.55342e-05
3.30463e-08
-2.55668e-05
7.27352e-08
-4.87192e-05
-7.32574e-05
1.12547e-07
-7.63678e-08
-7.33044e-05
1.24246e-07
-3.47052e-08
-4.87627e-05
-2.56035e-05
3.15961e-08
-2.56365e-05
7.07256e-08
-4.88028e-05
-7.33455e-05
1.14142e-07
-7.5343e-08
-7.33914e-05
1.23184e-07
-3.43895e-08
-4.88446e-05
-2.56722e-05
3.27513e-08
-2.57073e-05
7.22181e-08
-4.88857e-05
-7.34342e-05
1.17493e-07
-8.16033e-08
-7.34823e-05
1.3085e-07
-3.68886e-08
-4.89314e-05
-2.57453e-05
3.63777e-08
-2.57797e-05
7.94857e-08
-4.89724e-05
-7.35253e-05
1.22344e-07
-8.47668e-08
-7.35728e-05
1.29669e-07
-3.90282e-08
-4.90161e-05
-2.58164e-05
3.55104e-08
-2.58525e-05
7.77354e-08
-4.90588e-05
-7.36174e-05
1.22191e-07
-8.19949e-08
-7.36671e-05
1.33261e-07
-3.71661e-08
-4.91052e-05
-2.58915e-05
3.411e-08
-2.59269e-05
7.60899e-08
-4.91481e-05
-7.37119e-05
1.23046e-07
-8.05762e-08
-7.37606e-05
1.3103e-07
-3.67277e-08
-4.91929e-05
-2.5965e-05
3.55763e-08
-2.60016e-05
7.82977e-08
-4.92362e-05
-7.38056e-05
1.25527e-07
-8.45013e-08
-7.38575e-05
1.37966e-07
-3.86635e-08
-4.92826e-05
-2.60412e-05
3.59278e-08
-2.60778e-05
7.92063e-08
-4.93262e-05
-7.39038e-05
1.27023e-07
-8.18132e-08
-7.39541e-05
1.35067e-07
-3.73017e-08
-4.93716e-05
-2.61167e-05
3.66394e-08
-2.61544e-05
8.16073e-08
-4.94174e-05
-7.40002e-05
1.2984e-07
-9.12573e-08
-7.40546e-05
1.45134e-07
-4.20252e-08
-4.94654e-05
-2.61955e-05
4.05836e-08
-2.62336e-05
8.85269e-08
-4.9511e-05
-7.41027e-05
1.34633e-07
-9.10008e-08
-7.41558e-05
1.41968e-07
-4.17199e-08
-4.95588e-05
-2.62736e-05
4.0147e-08
-2.63131e-05
8.8166e-08
-4.96066e-05
-7.42066e-05
1.3726e-07
-9.46891e-08
-7.42633e-05
1.50223e-07
-4.31711e-08
-4.96575e-05
-2.63555e-05
4.13138e-08
-2.6395e-05
9.05209e-08
-4.97054e-05
-7.43159e-05
1.40486e-07
-9.46841e-08
-7.43715e-05
1.47503e-07
-4.22609e-08
-4.9756e-05
-2.64352e-05
3.94493e-08
-2.64752e-05
8.76839e-08
-4.9805e-05
-7.4426e-05
1.42127e-07
-9.09811e-08
-7.44857e-05
1.52381e-07
-4.04501e-08
-4.98571e-05
-2.65175e-05
3.73063e-08
-2.65564e-05
8.5604e-08
-4.99065e-05
-7.45408e-05
1.42951e-07
-8.9279e-08
-7.46004e-05
1.50359e-07
-3.89517e-08
-4.99577e-05
-2.65967e-05
3.77466e-08
-2.66359e-05
8.75977e-08
-5.00085e-05
-7.46577e-05
1.46985e-07
-9.2751e-08
-7.47217e-05
1.58472e-07
-3.99412e-08
-5.00624e-05
-2.66773e-05
3.70288e-08
-2.67158e-05
8.76089e-08
-5.01139e-05
-7.47812e-05
1.49381e-07
-9.07752e-08
-7.48457e-05
1.57675e-07
-3.82617e-08
-5.01672e-05
-2.67556e-05
3.70342e-08
-2.67943e-05
8.96985e-08
-5.02209e-05
-7.49087e-05
1.55816e-07
-9.43637e-08
-7.49779e-05
1.67927e-07
-3.88209e-08
-5.02779e-05
-2.68358e-05
3.72511e-08
-2.68741e-05
9.29013e-08
-5.03342e-05
-7.50449e-05
1.6147e-07
-9.96308e-08
-7.51176e-05
1.7198e-07
-3.99612e-08
-5.03921e-05
-2.69126e-05
4.01727e-08
-2.69506e-05
1.00937e-07
-5.04512e-05
-7.51895e-05
1.70016e-07
-1.05149e-07
-7.52694e-05
1.81276e-07
-4.1249e-08
-5.05136e-05
-2.69894e-05
3.6514e-08
-2.70251e-05
9.83745e-08
-5.05743e-05
-7.53464e-05
1.74773e-07
-9.73862e-08
-7.54296e-05
1.82414e-07
-3.42519e-08
-5.06394e-05
-2.70624e-05
3.32804e-08
-2.70973e-05
9.82052e-08
-5.07049e-05
-7.5514e-05
1.8445e-07
-1.07983e-07
-7.5606e-05
1.99291e-07
-3.76123e-08
-5.07729e-05
-2.71328e-05
3.5071e-08
-2.71658e-05
1.05243e-07
-5.08417e-05
-7.56964e-05
1.92571e-07
-1.08905e-07
-7.57942e-05
2.05178e-07
-3.49022e-08
-5.09144e-05
-2.71989e-05
3.37116e-08
-2.72304e-05
1.10161e-07
-5.09891e-05
-7.58942e-05
2.08164e-07
-1.17673e-07
-7.60032e-05
2.2283e-07
-3.55469e-08
-5.10692e-05
-2.72626e-05
3.07713e-08
-2.7292e-05
1.11818e-07
-5.11494e-05
-7.6114e-05
2.20684e-07
-1.13954e-07
-7.62329e-05
2.33152e-07
-2.88563e-08
-5.12361e-05
-2.73236e-05
2.66177e-08
-2.73529e-05
1.14604e-07
-5.13252e-05
-7.63552e-05
2.40465e-07
-1.23818e-07
-7.64879e-05
2.59367e-07
-2.92531e-08
-5.14211e-05
-2.73847e-05
2.72475e-08
-2.74144e-05
1.24731e-07
-5.15198e-05
-7.6623e-05
2.62526e-07
-1.34698e-07
-7.6769e-05
2.83535e-07
-2.96559e-08
-5.16257e-05
-2.74464e-05
3.06476e-08
-2.74785e-05
1.41458e-07
-5.17369e-05
-7.69212e-05
2.95886e-07
-1.53404e-07
-7.70866e-05
3.20403e-07
-3.42915e-08
-5.18574e-05
-2.75149e-05
3.30008e-08
-2.75517e-05
1.58025e-07
-5.1984e-05
-7.72557e-05
3.31914e-07
-1.75212e-07
-7.74387e-05
3.64293e-07
-3.8769e-08
-5.21217e-05
-2.7596e-05
4.84651e-08
-2.76443e-05
1.96991e-07
-5.22691e-05
-7.76308e-05
3.91207e-07
-2.27409e-07
-7.78395e-05
4.32943e-07
-6.3412e-08
-5.24294e-05
-2.77034e-05
7.23566e-08
-2.77703e-05
2.47932e-07
-5.26015e-05
-7.80565e-05
4.58083e-07
-2.81095e-07
-7.82882e-05
5.05072e-07
-8.77055e-08
-5.27892e-05
-2.78503e-05
9.39855e-08
-2.79442e-05
2.9869e-07
-5.2993e-05
-7.85327e-05
5.45736e-07
-3.31459e-07
-7.88005e-05
6.03192e-07
-1.13605e-07
-5.32153e-05
-2.80653e-05
1.37505e-07
-2.81967e-05
3.84004e-07
-5.34577e-05
-7.9072e-05
6.54733e-07
-4.31301e-07
-7.93762e-05
7.32019e-07
-1.67592e-07
-5.37157e-05
-2.83607e-05
1.85523e-07
-2.8554e-05
4.66006e-07
-5.4003e-05
-7.96916e-05
7.8742e-07
-5.19997e-07
-8.0026e-05
8.73187e-07
-2.14364e-07
-5.43152e-05
-2.87794e-05
2.51291e-07
-2.90432e-05
5.88114e-07
-5.46593e-05
-8.03751e-05
9.60486e-07
-6.89793e-07
-8.07639e-05
1.08215e-06
-3.12938e-07
-5.50367e-05
-2.93558e-05
3.76782e-07
-2.97174e-05
8.08297e-07
-5.54512e-05
-8.11816e-05
1.21602e-06
-9.19042e-07
-8.1635e-05
1.35421e-06
-4.4362e-07
-5.5919e-05
-3.0149e-05
5.08166e-07
-3.06546e-05
1.03122e-06
-5.6441e-05
-8.21243e-05
1.51702e-06
-1.18203e-06
-8.26929e-05
1.7485e-06
-5.87103e-07
-5.70376e-05
-3.12439e-05
8.35175e-07
-3.20775e-05
1.57682e-06
-5.77803e-05
-8.2799e-05
1.67983e-06
-1.53348e-06
-8.33125e-05
2.04412e-06
-9.4494e-07
-5.83701e-05
-3.3022e-05
7.40426e-07
-3.37626e-05
1.39773e-06
-5.90271e-05
-8.38518e-05
1.93672e-06
-1.23706e-06
-8.5341e-05
2.72776e-06
-2.919e-07
-5.99711e-05
-3.4054e-05
1.28735e-06
-3.53392e-05
1.67648e-06
-6.03584e-05
-8.61383e-05
2.47365e-06
-1.97885e-06
-8.69262e-05
2.7656e-06
-5.92016e-07
-6.17428e-05
-3.59272e-05
9.2303e-07
-3.68492e-05
1.69385e-06
-6.25134e-05
-8.81969e-05
2.96207e-06
-2.3402e-06
-8.88929e-05
3.03879e-06
-1.02346e-06
-6.38309e-05
-3.78747e-05
1.09209e-06
-3.89723e-05
1.92569e-06
-6.4665e-05
-9.0677e-05
3.72214e-06
-2.63955e-06
-9.18659e-05
3.84415e-06
-1.38307e-06
-6.59272e-05
-4.03678e-05
1.34662e-06
-4.17182e-05
2.58763e-06
-6.71694e-05
-9.29681e-05
3.69284e-06
-2.54566e-06
-9.47744e-05
4.35264e-06
-1.1184e-06
-6.85955e-05
-4.28362e-05
1.03477e-06
-4.38792e-05
2.82629e-06
-7.03876e-05
-9.65976e-05
4.66841e-06
-4.27084e-06
-9.95871e-05
7.30442e-06
-2.40763e-06
-7.22591e-05
-4.63081e-05
2.51123e-06
-4.87895e-05
6.36526e-06
-7.613e-05
-0.000103738
1.0522e-05
6.78488e-05
-5.04939e-05
-0.00012105
2.71889e-05
-3.54768e-05
-2.16216e-05
4.82002e-06
-2.60737e-05
1.44962e-05
-4.59412e-05
-6.59186e-05
3.04245e-05
-8.62758e-06
-7.30569e-05
1.56616e-05
-3.03246e-06
-5.1482e-05
-2.91085e-05
1.05143e-06
-3.01552e-05
2.36445e-06
-5.28001e-05
-7.43178e-05
3.60268e-06
-1.54598e-07
-7.44781e-05
3.03313e-07
-3.33379e-07
-5.26125e-05
-3.047e-05
1.4855e-06
-3.19527e-05
3.29409e-06
-5.4394e-05
-7.61667e-05
5.02127e-06
-2.45722e-06
-7.73934e-05
3.68931e-06
-1.17883e-06
-5.56345e-05
-3.31153e-05
2.22338e-06
-3.53195e-05
4.33629e-06
-5.77226e-05
-7.9796e-05
6.72252e-06
-2.79887e-06
-8.19006e-05
4.84177e-06
-1.56656e-06
-5.89211e-05
-3.6843e-05
2.40028e-06
-3.92077e-05
4.99247e-06
-6.15067e-05
-8.44705e-05
7.49314e-06
-4.38746e-06
-8.72144e-05
7.10821e-06
-2.01704e-06
-6.38825e-05
-4.12175e-05
2.69293e-06
-4.39544e-05
6.39133e-06
-6.75912e-05
-9.22421e-05
1.14658e-05
-9.57137e-06
-9.91979e-05
1.64802e-05
-4.28854e-06
-7.28608e-05
-4.8205e-05
-2.5753e-05
-2.24811e-05
-6.30246e-05
-3.55683e-05
-4.94814e-05
-0.000112673
-1.6783e-05
-6.55654e-05
3.35556e-05
-6.9968e-06
-4.64691e-05
-2.89444e-05
4.43814e-06
-3.34755e-05
1.21701e-05
-5.41786e-05
-7.42549e-05
2.0697e-05
-7.16543e-06
-8.07118e-05
1.35737e-05
-3.57642e-06
-5.79282e-05
-3.71516e-05
2.46325e-06
-3.96646e-05
6.33983e-06
-6.1816e-05
-8.45277e-05
1.02463e-05
-5.52754e-06
-8.80694e-05
9.04117e-06
-2.46984e-06
-6.48283e-05
-4.20697e-05
2.68828e-06
-4.47398e-05
5.76907e-06
-6.79105e-05
-9.17754e-05
9.4139e-06
-7.02624e-06
-9.69194e-05
1.21849e-05
-2.97331e-06
-7.19764e-05
-4.77385e-05
3.12455e-06
-5.08603e-05
6.925e-06
-7.57495e-05
-0.000101451
1.14875e-05
6.57054e-05
-5.03727e-05
-0.000116792
2.67973e-05
-3.68438e-05
-2.40569e-05
6.10912e-06
-3.07581e-05
1.82293e-05
-4.79508e-05
-6.63105e-05
3.35735e-05
-1.15961e-05
-7.56235e-05
2.11114e-05
-4.50123e-06
-5.50346e-05
-3.51498e-05
2.87326e-06
-3.79384e-05
6.25475e-06
-5.82883e-05
-7.89558e-05
9.54574e-06
-3.96791e-06
-8.09527e-05
5.85165e-06
-1.84748e-06
-6.0393e-05
-3.9745e-05
3.19099e-06
-4.29653e-05
6.58416e-06
-6.38084e-05
-8.66748e-05
1.23042e-05
-9.44165e-06
-9.27404e-05
1.54983e-05
-4.36399e-06
-6.88607e-05
-4.72946e-05
-2.42511e-05
-2.30966e-05
-5.86951e-05
-3.44086e-05
-4.6833e-05
-0.000104563
-1.80849e-05
-6.22692e-05
3.43567e-05
-7.38461e-06
-4.62004e-05
-2.98337e-05
6.10131e-06
-3.59954e-05
1.40443e-05
-5.39236e-05
-7.23999e-05
2.43175e-05
-9.9487e-06
-8.0732e-05
1.82707e-05
-4.21887e-06
-5.94757e-05
-4.01134e-05
4.57941e-06
-4.47348e-05
9.62956e-06
-6.45373e-05
-8.73384e-05
1.61948e-05
-7.64659e-06
-9.1694e-05
1.20303e-05
-3.39913e-06
-6.87777e-05
-4.81204e-05
-2.51259e-05
-2.30264e-05
-5.94617e-05
-3.44283e-05
-4.60637e-05
-0.000105065
-1.73139e-05
-6.05397e-05
3.2489e-05
-7.84751e-06
-4.50706e-05
-3.02503e-05
5.16422e-06
-3.54625e-05
1.21203e-05
-5.18559e-05
-6.9702e-05
2.13139e-05
-9.15086e-06
-7.5997e-05
1.541e-05
-4.07573e-06
-5.69226e-05
-3.95129e-05
4.67283e-06
-4.41438e-05
1.04863e-05
-6.27281e-05
-8.28492e-05
1.72962e-05
5.31411e-05
-4.24757e-05
-9.34896e-05
2.23122e-05
-3.18904e-05
-2.18182e-05
7.97226e-06
-2.91849e-05
1.77422e-05
-4.28639e-05
-5.65545e-05
3.25722e-05
-1.47096e-05
-6.82443e-05
2.63061e-05
-6.55638e-06
-5.09058e-05
-3.57823e-05
5.39584e-06
-4.12015e-05
1.24555e-05
-5.79801e-05
-7.68319e-05
2.10512e-05
-7.68993e-06
-8.14427e-05
1.23114e-05
-4.00224e-06
-6.16666e-05
-4.52027e-05
-2.26007e-05
-2.26005e-05
-5.2576e-05
-3.1694e-05
-4.18843e-05
-9.21376e-05
-1.88187e-05
-5.59932e-05
3.2945e-05
-7.58818e-06
-4.29332e-05
-3.01817e-05
6.78116e-06
-3.69765e-05
1.39931e-05
-5.01481e-05
-6.54373e-05
2.34101e-05
4.25091e-05
-3.41606e-05
-7.37253e-05
1.79809e-05
-2.57041e-05
-1.90027e-05
6.54355e-06
-2.60119e-05
1.76168e-05
-3.58232e-05
-4.73881e-05
3.01219e-05
-1.37382e-05
-5.55317e-05
2.19847e-05
-6.63598e-06
-4.30756e-05
-3.2589e-05
-1.63663e-05
-1.62269e-05
-3.78534e-05
-2.15685e-05
-2.78384e-05
-6.55366e-05
-1.08133e-05
-3.52764e-05
1.82468e-05
-5.07811e-06
-2.73054e-05
-2.13045e-05
-1.271e-05
-8.59437e-06
-2.85043e-05
-1.15108e-05
-1.52062e-05
-4.85749e-05
7.87451e-07
-1.6523e-05
5.29668e-07
5.64032e-07
-1.12872e-05
-8.03015e-06
-1.36056e-05
5.57558e-06
-3.24074e-05
7.51495e-06
9.60716e-06
-5.85369e-05
2.53883e-05
2.64207e-05
-4.22016e-05
1.17341e-05
2.11694e-05
1.73098e-05
-1.08395e-05
2.81496e-05
-2.39421e-05
3.42723e-05
4.28884e-05
-4.04094e-05
2.75713e-05
6.34888e-05
-4.81708e-05
1.1537e-05
5.0307e-05
3.96868e-05
-1.34837e-05
5.31702e-05
-3.28873e-05
6.97101e-05
8.9697e-05
-5.90961e-05
-4.88788e-05
5.56715e-05
8.29049e-05
-2.13131e-05
4.21452e-05
3.18579e-05
-1.91368e-05
5.0995e-05
-4.37061e-05
6.67139e-05
8.72945e-05
-7.53319e-05
-4.03984e-05
5.92711e-05
6.84187e-05
-1.84017e-05
4.47122e-05
3.25892e-05
-2.4074e-05
5.66754e-05
-5.5746e-05
7.63661e-05
9.96566e-05
-9.61616e-05
-3.75324e-05
7.49372e-05
6.20963e-05
-1.67165e-05
5.58073e-05
3.97643e-05
1.46184e-05
2.63432e-05
3.17112e-05
3.69078e-05
4.89814e-05
5.86816e-05
4.76147e-05
8.61592e-05
-8.50313e-05
2.03526e-05
6.47146e-05
4.63866e-05
1.40892e-05
3.23001e-05
3.31454e-05
4.56948e-05
6.01524e-05
5.90307e-05
5.98785e-05
0.000107335
-0.000107011
2.47766e-05
8.08059e-05
5.70506e-05
1.41166e-05
4.29569e-05