/*--------------------------------*- C++ -*----------------------------------*\
| =========                 |                                                 |
| \\      /  F ield         | OpenFOAM: The Open Source CFD Toolbox           |
|  \\    /   O peration     | Version:  v2006                                 |
|   \\  /    A nd           | Website:  www.openfoam.com                      |
|    \\/     M anipulation  |                                                 |
\*---------------------------------------------------------------------------*/
FoamFile
{
    version     2.0;
    format      ascii;
    class       volScalarField;
    location    "0.084";
    object      T;
}
// * * * * * * * * * * * * * * * * * * * * * * * * * * * * * * * * * * * * * //

dimensions      [0 0 0 1 0 0 0];


internalField   nonuniform List<scalar> 
16277
(
298.839
298.839
298.839
298.839
298.839
298.839
298.839
298.84
298.841
298.844
298.847
298.851
298.854
298.858
298.862
298.866
298.87
298.874
298.879
298.883
298.888
298.893
298.898
298.903
298.909
298.914
298.92
298.926
298.932
298.938
298.945
298.951
298.957
298.964
298.971
298.978
298.985
298.992
298.999
299.006
299.013
299.021
299.028
299.035
299.043
299.05
299.058
299.065
299.073
299.08
299.088
299.095
299.102
299.11
299.117
299.124
299.131
299.139
299.146
299.152
299.159
299.166
299.172
299.179
299.185
299.191
299.197
299.203
299.209
299.214
299.22
299.225
299.23
299.235
299.24
299.244
299.248
299.252
299.256
299.26
299.264
299.268
299.271
299.273
299.273
299.274
299.273
299.273
299.273
299.273
299.273
299.274
299.276
299.279
299.285
299.291
299.316
299.322
299.29
299.281
299.281
299.292
299.331
299.341
299.295
299.282
299.282
299.298
299.346
299.353
299.301
299.284
299.286
299.304
299.355
299.359
299.308
299.289
299.291
299.311
299.361
299.363
299.314
299.293
299.296
299.316
299.364
299.365
299.319
299.298
299.3
299.321
299.365
299.366
299.324
299.303
299.305
299.326
299.366
299.367
299.328
299.307
299.309
299.33
299.367
299.368
299.332
299.312
299.314
299.334
299.368
299.369
299.336
299.316
299.318
299.337
299.369
299.37
299.34
299.321
299.322
299.341
299.37
299.371
299.343
299.325
299.327
299.344
299.371
299.372
299.347
299.329
299.331
299.348
299.372
299.374
299.35
299.334
299.335
299.351
299.374
299.376
299.354
299.338
299.34
299.355
299.376
299.378
299.358
299.343
299.345
299.359
299.378
299.38
299.362
299.348
299.35
299.363
299.381
299.383
299.366
299.353
299.355
299.368
299.384
299.386
299.371
299.358
299.36
299.372
299.387
299.39
299.376
299.363
299.365
299.377
299.391
299.393
299.38
299.369
299.371
299.382
299.394
299.397
299.386
299.375
299.377
299.387
299.398
299.402
299.391
299.381
299.383
299.393
299.403
299.406
299.397
299.387
299.389
299.398
299.407
299.411
299.403
299.394
299.396
299.404
299.412
299.416
299.409
299.401
299.403
299.411
299.418
299.422
299.415
299.408
299.41
299.417
299.423
299.427
299.422
299.415
299.418
299.424
299.429
299.433
299.429
299.423
299.425
299.431
299.435
299.44
299.436
299.431
299.433
299.438
299.442
299.446
299.444
299.439
299.442
299.446
299.448
299.453
299.452
299.447
299.45
299.454
299.455
299.46
299.46
299.456
299.459
299.462
299.463
299.468
299.468
299.465
299.468
299.47
299.47
299.476
299.476
299.474
299.477
299.479
299.478
299.484
299.485
299.484
299.487
299.488
299.486
299.492
299.494
299.493
299.496
299.497
299.494
299.5
299.503
299.503
299.506
299.506
299.502
299.508
299.512
299.513
299.516
299.515
299.511
299.517
299.521
299.522
299.525
299.524
299.519
299.525
299.53
299.532
299.534
299.533
299.527
299.533
299.539
299.541
299.544
299.541
299.535
299.541
299.547
299.55
299.552
299.549
299.543
299.548
299.555
299.558
299.56
299.557
299.55
299.555
299.562
299.565
299.567
299.563
299.556
299.561
299.568
299.572
299.574
299.569
299.562
299.566
299.573
299.578
299.579
299.574
299.567
299.569
299.577
299.582
299.582
299.578
299.57
299.572
299.58
299.585
299.585
299.58
299.572
299.573
299.581
299.585
299.585
299.58
299.573
299.572
299.58
299.585
299.583
299.578
299.572
299.571
299.578
299.582
299.58
299.575
299.569
299.568
299.574
299.578
299.574
299.57
299.564
299.563
299.568
299.573
299.568
299.563
299.559
299.557
299.561
299.565
299.56
299.556
299.553
299.551
299.554
299.557
299.551
299.548
299.546
299.543
299.545
299.548
299.541
299.539
299.538
299.536
299.536
299.538
299.531
299.53
299.531
299.528
299.527
299.528
299.521
299.52
299.523
299.521
299.518
299.518
299.511
299.511
299.515
299.513
299.509
299.508
299.501
299.503
299.508
299.506
299.5
299.498
299.492
299.495
299.501
299.5
299.492
299.489
299.483
299.487
299.495
299.493
299.485
299.481
299.476
299.481
299.489
299.488
299.479
299.474
299.469
299.475
299.484
299.483
299.473
299.468
299.464
299.47
299.48
299.479
299.468
299.462
299.459
299.465
299.476
299.475
299.464
299.458
299.455
299.462
299.473
299.472
299.461
299.454
299.452
299.459
299.47
299.469
299.458
299.451
299.449
299.456
299.467
299.467
299.455
299.448
299.446
299.454
299.465
299.464
299.454
299.446
299.445
299.452
299.462
299.461
299.452
299.445
299.444
299.45
299.46
299.46
299.451
299.443
299.442
299.449
299.459
299.459
299.449
299.441
299.44
299.447
299.459
299.458
299.448
299.439
299.439
299.446
299.457
299.456
299.447
299.439
299.439
299.445
299.453
299.453
299.446
299.44
299.44
299.445
299.452
299.45
299.446
299.44
299.439
299.444
299.451
299.449
299.445
299.439
299.439
299.443
299.448
299.447
299.444
299.439
299.439
299.442
299.446
299.446
299.443
299.438
299.437
299.442
299.447
299.448
299.442
299.437
299.436
299.441
299.448
299.449
299.442
299.436
299.436
299.441
299.446
299.447
299.441
299.436
299.436
299.441
299.447
299.446
299.439
299.434
299.434
299.44
299.448
299.446
299.437
299.432
299.432
299.437
299.446
299.436
299.431
299.429
299.434
299.439
299.434
299.425
299.431
299.431
299.436
299.43
299.424
299.422
299.421
299.422
299.423
299.423
299.424
299.424
299.425
299.427
299.428
299.43
299.432
299.434
299.436
299.439
299.444
299.45
299.457
299.459
299.483
299.464
299.464
299.404
299.464
299.528
299.523
299.463
299.385
299.399
299.466
299.519
299.49
299.468
299.436
299.468
299.47
299.468
299.47
299.47
299.468
299.474
299.471
299.468
299.47
299.471
299.47
299.47
299.47
299.47
299.47
299.47
299.469
299.469
299.471
299.471
299.471
299.472
299.471
299.474
299.474
299.471
299.47
299.476
299.48
299.481
299.477
299.471
299.472
299.477
299.481
299.479
299.477
299.474
299.475
299.477
299.479
299.477
299.476
299.475
299.473
299.476
299.479
299.48
299.477
299.471
299.47
299.476
299.48
299.481
299.476
299.469
299.469
299.475
299.479
299.477
299.474
299.469
299.471
299.474
299.474
299.474
299.474
299.472
299.472
299.473
299.472
299.473
299.473
299.471
299.471
299.473
299.472
299.474
299.473
299.469
299.47
299.474
299.475
299.475
299.476
299.471
299.472
299.477
299.478
299.481
299.48
299.473
299.474
299.483
299.488
299.489
299.484
299.477
299.48
299.485
299.49
299.487
299.485
299.482
299.481
299.485
299.487
299.488
299.485
299.481
299.481
299.484
299.487
299.482
299.482
299.481
299.479
299.482
299.482
299.483
299.482
299.478
299.475
299.483
299.485
299.488
299.484
299.475
299.475
299.484
299.488
299.491
299.485
299.475
299.476
299.486
299.492
299.494
299.486
299.475
299.476
299.487
299.495
299.495
299.487
299.476
299.477
299.487
299.495
299.492
299.487
299.48
299.48
299.486
299.49
299.487
299.486
299.482
299.482
299.485
299.485
299.486
299.485
299.481
299.481
299.486
299.486
299.488
299.486
299.481
299.482
299.487
299.488
299.487
299.488
299.484
299.484
299.49
299.49
299.495
299.493
299.486
299.487
299.496
299.498
299.504
299.497
299.486
299.484
299.497
299.506
299.509
299.496
299.48
299.479
299.495
299.508
299.504
299.494
299.479
299.479
299.492
299.503
299.499
299.49
299.477
299.472
299.487
299.497
299.492
299.483
299.469
299.47
299.482
299.489
299.486
299.483
299.474
299.478
299.485
299.486
299.484
299.486
299.48
299.475
299.486
299.491
299.494
299.484
299.468
299.468
299.481
299.493
299.488
299.48
299.465
299.465
299.479
299.486
299.48
299.479
299.465
299.457
299.482
299.493
299.497
299.486
299.458
299.47
299.491
299.495
299.515
299.498
299.468
299.472
299.499
299.518
299.528
299.499
299.466
299.463
299.488
299.52
299.517
299.473
299.444
299.434
299.456
299.49
299.485
299.45
299.424
299.421
299.448
299.482
299.486
299.451
299.42
299.42
299.462
299.508
299.527
299.466
299.417
299.411
299.468
299.533
299.524
299.466
299.41
299.42
299.455
299.474
299.408
299.43
299.423
299.409
299.417
299.398
299.418
299.414
299.401
299.418
299.427
299.425
299.39
299.48
299.422
299.388
299.554
299.386
299.434
299.362
299.514
299.438
299.43
299.525
299.457
299.457
299.415
299.383
299.457
299.533
299.562
299.479
299.385
299.432
299.495
299.536
299.475
299.493
299.453
299.451
299.478
299.463
299.478
299.467
299.434
299.43
299.461
299.469
299.457
299.46
299.413
299.376
299.504
299.429
299.336
299.558
299.372
299.518
299.229
299.592
299.633
299.435
299.428
299.469
299.49
299.493
299.569
299.47
299.435
299.444
299.478
299.523
299.567
299.493
299.44
299.421
299.496
299.603
299.568
299.455
299.47
299.477
299.384
299.635
299.486
299.735
299.38
299.533
299.561
299.435
299.389
299.496
299.509
299.506
299.492
299.453
299.557
299.522
299.456
299.454
299.569
299.502
299.308
299.607
299.477
299.672
299.171
299.504
299.495
299.446
299.542
299.499
299.496
299.462
299.572
299.545
299.516
299.464
299.587
299.593
299.382
299.609
299.492
299.652
299.192
299.694
299.614
299.492
299.534
299.533
299.565
299.502
299.473
299.598
299.56
299.544
299.679
299.433
299.811
299.177
299.709
299.578
299.555
299.712
299.609
299.588
299.566
299.592
299.599
299.621
299.619
299.606
299.605
299.62
299.616
299.655
299.701
299.602
299.632
299.637
299.569
299.865
299.718
300.026
299.49
299.719
299.722
299.709
299.73
299.735
299.75
299.767
299.767
299.761
299.769
299.781
299.798
299.848
299.849
299.858
299.859
299.867
299.872
299.816
299.794
299.769
299.738
299.734
299.744
299.618
299.603
299.627
299.498
299.52
299.531
299.478
299.475
299.485
299.418
299.419
299.42
299.403
299.413
299.447
299.371
299.388
299.379
299.362
299.4
299.526
300.073
298.385
299.632
299.311
299.752
298.902
299.298
299.421
299.406
299.329
299.362
299.413
299.432
299.36
299.321
299.334
299.383
299.439
299.322
299.351
299.358
299.339
299.354
299.409
299.571
299.486
299.312
299.207
299.352
299.649
299.518
299.384
299.334
299.386
299.249
299.224
299.347
299.324
299.328
299.38
299.364
299.299
299.13
299.174
299.484
299.415
299.363
299.255
299.323
299.401
299.367
299.435
299.248
299.232
299.284
299.358
299.394
299.377
299.396
299.334
299.293
299.326
299.431
299.394
299.36
299.291
299.424
299.377
299.331
299.327
299.453
299.49
299.466
299.336
299.317
299.201
299.361
299.482
299.461
299.301
299.435
299.635
298.452
299.441
298.79
299.548
299.425
299.482
299.543
298.803
298.688
299.776
299.113
299.362
299.184
299.465
299.613
299.2
299.24
299.582
298.733
299.607
298.864
299.418
299.355
299.393
299.432
298.93
299.005
299.829
299.05
299.262
299.197
299.8
299.598
299.301
299.229
299.067
299.897
299.348
299.588
299.114
299.352
299.279
299.174
299.636
299.854
298.948
299.564
299.239
299.554
299.239
299.579
299.468
299.138
299.524
298.868
299.834
298.904
299.474
299.241
299.351
299.356
299.232
299.669
298.558
299.612
299.211
299.784
298.891
299.172
299.508
299.447
299.313
299.392
299.373
299.45
299.366
299.302
299.334
299.381
299.448
299.386
299.288
299.262
299.252
299.312
299.445
299.476
299.396
299.304
299.316
299.334
299.366
299.411
299.315
299.269
299.236
299.419
299.476
299.228
299.3
299.313
299.252
299.314
299.383
299.703
299.617
299.183
299.131
299.311
299.478
299.412
299.213
299.328
299.545
298.395
299.672
298.923
299.597
299.139
299.272
299.391
299.113
299.219
299.284
299.247
299.195
299.27
299.336
299.417
299.34
299.211
299.284
299.243
299.163
299.261
299.21
299.25
299.542
298.687
299.755
299.262
299.53
299.023
299.218
299.577
299.389
299.348
299.266
299.191
299.152
299.265
299.373
299.397
299.323
299.163
299.254
299.224
299.102
299.256
299.191
299.217
299.527
298.694
299.798
299.251
299.556
298.99
299.18
299.556
299.421
299.306
299.204
299.137
299.106
299.195
299.288
299.224
299.176
299.098
299.038
299.099
299.403
299.427
299.242
299.032
298.681
300.124
298.942
299.558
298.581
299.308
299.091
298.977
299.456
299.203
299.04
299.119
299.109
299.128
299.36
299.694
298.839
299.408
299.012
299.456
299.119
299.217
299.354
299.122
299.114
299.144
299.174
299.198
299.172
299.135
298.953
299.532
299.017
299.353
298.981
299.097
299.1
299.085
299.222
299.168
299.101
299.118
299.155
299.181
299.199
298.946
299.709
298.905
299.112
298.894
299.394
299.274
299.036
299.08
299.062
299.064
299.169
299.253
299.132
299.091
299.339
298.625
299.36
298.773
299.337
299.077
299.114
299.147
298.976
299.06
299.077
299.09
299.1
299.161
299.102
298.737
300.239
298.696
299.102
298.259
299.989
299.344
299.131
298.855
298.925
299
299.136
299.035
299.004
299.018
299.014
299.022
299.021
299.026
299.061
299.018
298.995
299.123
299.05
299.131
298.995
298.983
298.976
299.015
299.068
299.041
298.97
298.978
299.006
299.045
299.023
298.548
300.189
298.587
299.073
298.121
299.916
299.254
299.061
298.792
298.852
298.932
299.114
299.003
298.943
298.929
298.946
298.959
298.94
299.046
299.011
298.961
299.209
298.368
299.232
298.657
299.264
298.921
298.988
299.056
298.907
298.976
298.981
298.94
298.94
298.997
299.032
299.01
298.934
298.916
298.958
298.961
299.018
298.678
299.504
298.699
298.935
298.584
299.299
299.047
298.878
298.851
298.859
298.874
298.962
298.949
298.894
298.879
298.869
298.879
298.904
298.973
298.914
298.871
299.025
298.499
299.093
298.688
299.059
298.838
298.881
298.925
298.824
298.88
298.874
298.845
298.841
298.89
298.927
298.854
298.847
298.83
298.797
298.876
298.998
299.469
297.943
299.123
298.646
299.474
298.276
298.912
298.819
298.864
298.823
298.804
298.881
298.904
298.819
298.808
298.802
298.81
298.807
298.965
298.84
298.759
299.113
297.839
299.546
298.203
299.463
298.591
298.796
298.824
298.87
298.833
298.764
298.763
298.753
298.76
298.845
298.803
298.734
298.722
298.724
298.77
298.837
298.809
298.721
298.711
298.749
298.765
298.801
298.25
299.882
298.381
298.797
297.962
299.602
298.991
298.806
298.574
298.597
298.685
298.902
298.837
298.733
298.647
298.648
298.679
298.775
298.763
298.706
298.67
298.664
298.686
298.692
298.812
298.729
298.638
298.944
297.796
299.259
298.172
299.169
298.524
298.676
298.695
298.65
298.687
298.647
298.643
298.622
298.648
298.71
298.682
298.605
298.587
298.589
298.64
298.715
298.648
298.596
298.579
298.558
298.656
298.763
299.277
297.64
298.872
298.396
299.337
297.919
298.636
298.549
298.623
298.579
298.561
298.607
298.628
298.53
298.559
298.524
298.529
298.585
298.625
298.561
298.527
298.505
298.514
298.61
298.611
298.562
298.564
298.136
299.919
297.792
299.516
297.526
298.663
298.368
298.527
298.78
298.665
298.446
298.367
298.406
298.52
298.609
298.581
298.458
298.42
298.446
298.489
298.559
298.535
298.458
298.436
298.442
298.484
298.547
298.468
298.453
298.431
298.396
298.51
298.599
299.484
297.104
298.758
298.11
299.553
297.379
298.534
298.322
298.478
298.424
298.379
298.455
298.482
298.341
298.386
298.343
298.337
298.432
298.445
298.367
298.334
298.307
298.325
298.425
298.443
298.365
298.312
298.293
298.317
298.39
298.476
298.381
298.282
298.502
297.668
298.798
297.939
298.715
298.199
298.315
298.359
298.286
298.341
298.306
298.285
298.286
298.294
298.378
298.36
298.26
298.241
298.244
298.298
298.376
298.341
298.239
298.213
298.221
298.277
298.366
298.295
298.228
298.205
298.175
298.305
298.381
299.233
296.989
298.509
297.919
299.194
297.351
298.217
298.185
298.237
298.198
298.179
298.24
298.268
298.125
298.178
298.131
298.132
298.222
298.237
298.16
298.128
298.099
298.116
298.222
298.244
298.157
298.104
298.078
298.102
298.191
298.265
298.175
298.063
298.304
297.263
298.777
297.629
298.563
297.934
298.095
298.126
298.002
298.08
298.078
298.053
298.053
298.045
298.136
298.115
298.014
298.001
298
298.05
298.127
298.098
297.993
297.967
297.976
298.036
298.133
298.062
297.984
297.958
297.926
298.083
298.147
299.271
296.506
298.273
297.563
299.243
296.822
297.979
297.906
297.995
297.965
297.908
298.001
298.035
297.852
297.923
297.873
297.887
297.982
297.983
297.894
297.861
297.829
297.847
297.964
297.986
297.888
297.833
297.8
297.827
297.958
297.973
297.872
297.816
297.772
297.8
297.921
297.956
297.813
297.799
297.693
298.168
297.672
298.099
297.541
297.79
297.702
297.779
297.928
297.9
297.705
297.697
297.697
297.776
297.853
297.838
297.709
297.683
297.694
297.74
297.844
297.81
297.682
297.653
297.666
297.726
297.828
297.771
297.656
297.626
297.614
297.73
297.833
298.194
297.129
297.772
297.5
298.033
297.354
297.677
297.699
297.632
297.584
297.617
297.713
297.742
297.606
297.593
297.534
297.556
297.705
297.706
297.596
297.537
297.492
297.52
297.672
297.68
297.563
297.507
297.457
297.486
297.64
297.701
297.518
297.498
297.365
298.037
297.252
297.914
297.174
297.488
297.401
297.469
297.744
297.648
297.377
297.372
297.375
297.486
297.609
297.559
297.387
297.351
297.367
297.421
297.556
297.493
297.348
297.318
297.331
297.395
297.511
297.446
297.315
297.283
297.268
297.371
297.5
297.761
296.932
297.375
297.122
297.605
297.085
297.372
297.327
297.257
297.209
297.272
297.358
297.401
297.25
297.224
297.161
297.204
297.331
297.357
297.239
297.174
297.112
297.15
297.307
297.336
297.203
297.134
297.08
297.112
297.271
297.317
297.171
297.056
297.14
296.92
297.472
297.059
297.245
296.973
297.068
297.08
297.222
297.162
297.043
296.984
296.994
297.029
297.185
297.133
296.96
296.918
296.946
297.001
297.168
297.094
296.92
296.888
296.866
297.061
297.114
298.032
295.859
297.087
296.691
297.425
296.529
296.848
297.008
296.898
296.839
296.918
296.92
296.996
296.837
296.838
296.762
296.806
296.929
296.964
296.838
296.781
296.698
296.731
296.896
297.007
296.724
296.736
296.526
297.713
296.047
297.325
296.217
296.755
296.602
296.57
297.075
296.96
296.535
296.525
296.537
296.658
296.848
296.768
296.54
296.493
296.517
296.609
296.821
296.726
296.509
296.479
296.451
296.691
296.747
297.947
295.16
296.669
296.188
297.097
295.989
296.339
296.626
296.492
296.413
296.494
296.462
296.551
296.389
296.397
296.303
296.376
296.483
296.535
296.363
296.322
296.24
296.264
296.449
296.472
296.36
296.179
296.307
295.604
296.952
296.24
296.334
296.097
296.172
296.258
296.267
296.301
296.177
296.089
296.113
296.211
296.331
296.277
296.094
296.043
296.062
296.15
296.307
296.225
296.033
295.995
295.956
296.125
296.262
296.652
295.566
296.068
295.857
296.193
295.964
296.087
296.045
295.947
295.85
295.944
296.08
296.092
295.89
295.858
295.752
295.791
295.991
295.971
295.911
295.675
295.844
294.849
296.832
295.78
295.862
295.63
295.712
295.84
295.749
295.769
295.725
295.614
295.63
295.7
295.854
295.786
295.595
295.532
295.55
295.631
295.807
295.723
295.506
295.465
295.445
295.565
295.791
295.59
295.694
295.436
295.409
295.28
295.748
295.626
295.47
295.332
295.264
295.306
295.619
295.555
295.372
295.22
295.129
295.177
295.406
295.456
295.197
295.068
295.177
295.298
295.501
295.4
295.135
295.051
295.086
295.225
295.446
295.36
295.047
294.974
295.005
295.134
295.384
295.254
294.964
294.904
294.868
295.035
295.315
295.257
295.094
294.931
294.79
294.848
295.151
295.155
294.911
294.801
294.681
294.736
295.044
295.052
294.776
294.605
294.616
294.732
294.941
294.839
294.546
294.456
294.508
294.643
294.904
294.817
294.479
294.4
294.441
294.604
294.876
294.743
294.42
294.348
294.295
294.535
294.796
294.999
294.237
294.373
294.191
294.424
294.557
294.653
294.395
294.275
294.132
294.201
294.501
294.542
294.252
294.057
294.103
294.147
294.492
294.203
294.128
293.851
293.905
294.015
294.268
294.124
293.773
293.72
293.676
293.846
294.203
294.097
294.093
293.797
293.644
293.78
294.105
294.195
293.845
293.679
293.567
293.62
294.008
294.052
293.76
293.48
293.538
293.346
294.281
293.788
293.595
293.325
293.412
293.54
293.827
293.703
293.317
293.216
293.142
293.317
293.712
293.585
293.202
293.131
292.747
293.446
293.021
293.401
293.005
292.897
292.781
292.842
293.27
293.495
292.902
292.834
292.782
293.48
292.889
293.314
292.744
292.683
292.673
292.847
293.38
293.128
292.615
292.553
292.44
292.744
293.102
293.211
292.366
292.444
292.227
292.464
292.722
292.723
292.348
292.236
291.987
292.1
292.488
292.365
291.91
291.765
291.891
292.105
292.43
292.298
291.856
291.703
291.747
291.952
292.494
291.952
292.497
291.751
291.623
291.696
292.309
292.363
291.799
291.627
291.41
291.515
292.083
292.093
291.572
291.274
291.288
291.487
291.95
291.66
291.206
291.007
290.845
290.998
291.656
291.025
291.252
290.714
290.455
290.8
291.098
291.604
290.806
290.616
290.664
291.39
291.147
291.233
290.615
290.483
290.514
290.758
291.397
291.081
290.392
290.266
290.121
290.456
291.059
290.811
290.357
290.118
289.771
289.991
290.486
290.38
289.742
289.553
289.357
289.788
289.921
289.809
289.378
289.115
289.171
289.434
290.378
290.411
289.782
289.392
289.142
289.325
289.998
290.064
289.378
288.987
289.112
289.439
289.956
289.561
288.951
288.701
288.452
288.818
289.565
289.047
288.663
288.266
287.804
287.957
288.575
288.782
288.002
287.725
287.779
288.348
289.054
289.582
287.934
287.978
287.791
287.892
288.819
288.973
287.97
287.52
287.656
288.252
288.14
288.024
287.437
286.946
286.576
286.74
287.414
287.515
286.355
286.138
286.519
286.972
287.802
287.496
286.58
286.249
286.241
286.612
287.758
287.613
287.111
286.087
286.138
285.559
288.653
287.099
285.487
285.622
285.005
285.069
285.901
286.23
285.233
284.641
285.167
285.303
286.978
286.503
285.173
284.876
284.764
285.137
286.417
286.443
285.418
284.498
284.114
283.718
286.101
284.056
285.448
283.805
283.472
284.745
284.296
286.334
284.645
283.701
283.78
284.568
286.529
285.836
284.082
283.327
283.234
283.947
285.905
286.696
284.391
283.497
283.741
286.32
284.866
285.284
284.841
283.574
283.787
284.268
285.882
287.02
284.632
283.956
284.431
285.176
287.323
288.056
285.827
284.875
285.542
286.616
288.895
289.788
287.426
286.179
286.773
288.187
290.494
290.992
288.826
287.296
287.741
289.353
291.372
291.674
289.792
288.125
288.46
290.184
291.944
292.189
290.543
288.774
289.073
290.873
292.409
292.575
291.156
289.359
289.623
291.401
292.702
292.82
291.617
289.869
290.103
291.827
292.947
293.066
292.026
290.331
290.552
292.215
293.165
293.23
292.38
290.763
290.96
292.523
293.275
293.306
292.64
291.144
291.317
292.739
293.326
293.333
292.816
291.475
291.621
292.882
293.334
293.336
292.936
291.756
291.888
292.993
293.348
293.379
293.045
292.015
292.139
293.101
293.418
293.445
293.149
292.255
292.362
293.195
293.462
293.47
293.231
292.456
292.545
293.269
293.478
293.485
293.3
292.627
292.706
293.331
293.49
293.492
293.353
292.774
292.837
293.374
293.491
293.489
293.387
292.886
292.931
293.399
293.483
293.477
293.403
292.964
292.996
293.41
293.476
293.477
293.416
293.02
293.046
293.425
293.481
293.484
293.432
293.065
293.087
293.439
293.484
293.483
293.442
293.1
293.114
293.441
293.481
293.475
293.439
293.12
293.125
293.436
293.471
293.467
293.43
293.126
293.127
293.427
293.464
293.461
293.421
293.127
293.128
293.417
293.46
293.456
293.411
293.128
293.127
293.406
293.454
293.448
293.397
293.125
293.124
293.392
293.445
293.437
293.38
293.119
293.116
293.373
293.433
293.423
293.359
293.108
293.103
293.35
293.417
293.405
293.336
293.094
293.089
293.326
293.397
293.385
293.311
293.08
293.076
293.302
293.378
293.366
293.288
293.066
293.062
293.278
293.359
293.348
293.265
293.054
293.05
293.256
293.342
293.332
293.243
293.041
293.038
293.235
293.325
293.314
293.223
293.03
293.027
293.215
293.307
293.295
293.203
293.02
293.016
293.195
293.288
293.275
293.183
293.009
293.005
293.175
293.268
293.255
293.163
292.998
292.994
293.156
293.248
293.235
293.144
292.986
292.983
293.137
293.228
293.216
293.126
292.975
292.972
293.12
293.208
293.196
293.109
292.965
292.962
293.103
293.189
293.178
293.093
292.955
292.952
293.087
293.171
293.161
293.077
292.946
292.943
293.072
293.155
293.145
293.063
292.936
292.933
293.058
293.14
293.13
293.048
292.926
292.923
293.044
293.124
293.114
293.034
292.915
292.911
293.029
293.108
293.098
293.019
292.903
292.899
293.014
293.092
293.082
293.004
292.89
292.886
292.999
293.076
293.066
292.989
292.877
292.873
292.984
293.061
293.051
292.975
292.864
292.86
292.97
293.045
293.036
292.96
292.851
292.847
292.955
293.03
293.02
292.946
292.838
292.833
292.941
293.015
293.005
292.931
292.824
292.819
292.926
293
292.99
292.916
292.81
292.805
292.911
292.985
292.975
292.901
292.795
292.79
292.896
292.97
292.96
292.886
292.779
292.774
292.88
292.954
292.944
292.87
292.764
292.758
292.864
292.938
292.927
292.854
292.748
292.741
292.847
292.921
292.91
292.837
292.731
292.723
292.829
292.904
292.892
292.819
292.714
292.705
292.812
292.886
292.874
292.801
292.696
292.687
292.794
292.868
292.856
292.782
292.677
292.668
292.775
292.85
292.838
292.763
292.658
292.65
292.756
292.831
292.819
292.744
292.638
292.631
292.737
292.813
292.8
292.725
292.618
292.611
292.718
292.794
292.781
292.705
292.598
292.592
292.698
292.775
292.762
292.686
292.579
292.572
292.679
292.756
292.743
292.666
292.559
292.553
292.659
292.736
292.723
292.646
292.539
292.533
292.639
292.716
292.704
292.626
292.52
292.513
292.619
292.697
292.684
292.606
292.5
292.493
292.599
292.677
292.664
292.586
292.48
292.473
292.578
292.656
292.644
292.565
292.459
292.453
292.558
292.636
292.623
292.545
292.439
292.432
292.537
292.616
292.603
292.524
292.419
292.412
292.516
292.595
292.582
292.504
292.399
292.392
292.496
292.574
292.562
292.483
292.379
292.372
292.475
292.554
292.541
292.463
292.359
292.352
292.455
292.534
292.521
292.442
292.339
292.333
292.435
292.513
292.5
292.422
292.32
292.313
292.415
292.493
292.48
292.402
292.3
292.294
292.395
292.473
292.46
292.382
292.281
292.275
292.375
292.453
292.44
292.362
292.262
292.256
292.355
292.433
292.42
292.342
292.243
292.237
292.335
292.413
292.4
292.322
292.224
292.218
292.316
292.393
292.379
292.303
292.206
292.199
292.296
292.373
292.359
292.283
292.187
292.181
292.276
292.353
292.339
292.264
292.168
292.162
292.257
292.332
292.319
292.244
292.15
292.144
292.237
292.313
292.299
292.225
292.131
292.125
292.218
292.293
292.28
292.205
292.113
292.107
292.199
292.273
292.26
292.186
292.095
292.089
292.179
292.253
292.241
292.167
292.076
292.071
292.161
292.234
292.221
292.148
292.059
292.053
292.142
292.215
292.202
292.13
292.041
292.035
292.123
292.196
292.184
292.111
292.023
292.018
292.105
292.177
292.166
292.093
292.006
292.001
292.087
292.159
292.147
292.075
291.989
291.984
292.07
292.141
292.129
292.058
291.973
291.967
292.052
292.121
292.111
292.041
291.957
291.951
292.034
292.102
292.094
292.026
291.943
291.935
292.016
292.078
292.072
292.01
291.926
291.898
291.993
292.061
292.052
291.985
291.871
291.853
291.967
292.036
291.646
291.332
290.35
289.89
289.793
289.378
289.123
288.963
288.878
288.74
288.677
288.521
288.398
288.301
288.226
288.171
288.133
288.107
288.089
288.077
288.068
288.062
288.058
288.055
288.053
288.051
288.05
288.049
288.048
288.048
288.047
288.047
288.047
288.047
288.047
288.047
288.047
288.047
288.046
288.046
288.046
288.046
288.046
288.045
288.045
288.045
288.044
288.042
288.041
288.041
288.042
288.044
288.048
288.054
288.06
288.069
288.078
288.09
288.102
288.117
288.133
288.152
288.172
288.196
288.222
288.252
288.285
288.322
288.363
288.41
288.461
288.519
288.583
288.654
288.732
288.819
288.914
289.018
289.132
289.256
289.39
289.533
289.687
289.851
290.024
290.206
290.396
290.593
290.797
291.007
291.221
291.439
291.659
291.88
292.102
292.323
292.543
292.761
292.976
293.188
293.396
293.599
293.798
293.992
294.18
294.363
294.54
294.712
294.878
295.038
295.193
295.342
295.486
295.624
295.757
295.885
296.008
296.127
296.24
296.349
296.454
296.554
296.651
296.744
296.832
296.918
296.999
297.078
297.153
297.225
297.295
297.361
297.425
297.486
297.545
297.601
297.656
297.708
297.757
297.805
297.851
297.896
297.938
297.979
298.018
298.056
298.092
298.126
298.16
298.192
298.222
298.252
298.28
298.308
298.334
298.359
298.383
298.406
298.429
298.45
298.471
298.491
298.51
298.528
298.545
298.562
298.578
298.594
298.608
298.623
298.636
298.649
298.662
298.674
298.685
298.696
298.706
298.716
298.726
298.735
298.743
298.751
298.759
298.766
298.773
298.78
298.786
298.792
298.797
298.802
298.807
298.811
298.815
298.819
298.822
298.826
298.828
298.831
298.833
298.834
298.836
298.837
298.838
298.838
298.838
298.839
298.839
298.839
298.839
298.839
298.839
298.839
298.839
298.841
298.842
298.845
298.848
298.852
298.856
298.859
298.863
298.867
298.872
298.876
298.881
298.886
298.891
298.896
298.901
298.907
298.912
298.918
298.924
298.93
298.937
298.943
298.949
298.956
298.963
298.97
298.977
298.984
298.991
298.998
299.005
299.012
299.02
299.027
299.035
299.042
299.05
299.057
299.065
299.072
299.08
299.087
299.095
299.102
299.11
299.117
299.124
299.131
299.139
299.146
299.153
299.159
299.166
299.173
299.179
299.186
299.192
299.198
299.204
299.21
299.215
299.221
299.226
299.231
299.236
299.241
299.245
299.25
299.254
299.258
299.262
299.265
299.268
299.271
299.272
299.273
299.273
299.273
299.273
299.273
299.273
299.274
299.275
299.276
299.277
299.278
299.279
299.281
299.282
299.284
299.286
299.288
299.289
299.292
299.294
299.296
299.298
299.3
299.302
299.304
299.306
299.309
299.311
299.313
299.316
299.318
299.321
299.323
299.326
299.328
299.331
299.333
299.337
299.339
299.342
299.344
299.348
299.35
299.354
299.357
299.361
299.363
299.367
299.37
299.374
299.377
299.381
299.384
299.389
299.392
299.397
299.399
299.405
299.408
299.413
299.416
299.422
299.425
299.431
299.434
299.44
299.443
299.449
299.452
299.459
299.462
299.469
299.472
299.479
299.482
299.489
299.493
299.5
299.503
299.51
299.514
299.521
299.524
299.531
299.534
299.541
299.544
299.55
299.553
299.56
299.562
299.568
299.57
299.575
299.577
299.581
299.582
299.586
299.587
299.589
299.589
299.59
299.59
299.59
299.588
299.587
299.585
299.583
299.579
299.577
299.572
299.569
299.563
299.56
299.553
299.55
299.543
299.539
299.532
299.528
299.521
299.517