/*--------------------------------*- C++ -*----------------------------------*\
| =========                 |                                                 |
| \\      /  F ield         | OpenFOAM: The Open Source CFD Toolbox           |
|  \\    /   O peration     | Version:  v2006                                 |
|   \\  /    A nd           | Website:  www.openfoam.com                      |
|    \\/     M anipulation  |                                                 |
\*---------------------------------------------------------------------------*/
FoamFile
{
    version     2.0;
    format      ascii;
    class       surfaceScalarField;
    location    "0.108";
    object      phi;
}
// * * * * * * * * * * * * * * * * * * * * * * * * * * * * * * * * * * * * * //

dimensions      [1 0 -1 0 0 0 0];
oriented        oriented;


internalField   nonuniform List<scalar> 
32242
(
-2.61608e-05
-0.00135439
0.00133512
4.55319e-05
-0.00127012
0.0012439
8.34954e-06
7.7702e-05
-3.49392e-06
0.00146284
3.80305e-05
0.00159993
-3.29045e-05
0.00165139
-3.66621e-06
0.00169139
-1.63729e-05
0.00168406
-2.3288e-06
0.00168002
-2.43002e-06
0.00166947
-4.47335e-07
0.00166257
-1.01559e-06
0.00165676
-1.15348e-06
0.0016531
-1.27955e-06
0.00164974
-1.48005e-06
0.00164692
-1.51057e-06
0.00164385
-1.61901e-06
0.00164092
-1.72343e-06
0.00163778
-1.82385e-06
0.0016345
-1.9203e-06
0.00163109
-2.013e-06
0.00162755
-2.10225e-06
0.00162388
-2.18847e-06
0.00162008
-2.272e-06
0.00161616
-2.35313e-06
0.00161211
-2.43205e-06
0.00160795
-2.50888e-06
0.00160365
-2.58364e-06
0.00159925
-2.65631e-06
0.00159472
-2.72684e-06
0.00159008
-2.79512e-06
0.00158533
-2.86105e-06
0.00158047
-2.92452e-06
0.00157551
-2.98538e-06
0.00157045
-3.04351e-06
0.0015653
-3.09876e-06
0.00156006
-3.15099e-06
0.00155473
-3.20007e-06
0.00154932
-3.24587e-06
0.00154383
-3.28827e-06
0.00153828
-3.32715e-06
0.00153265
-3.36238e-06
0.00152698
-3.39388e-06
0.00152124
-3.42152e-06
0.00151546
-3.4452e-06
0.00150964
-3.46483e-06
0.00150378
-3.48033e-06
0.00149789
-3.4916e-06
0.00149199
-3.49856e-06
0.00148606
-3.50114e-06
0.00148013
-3.49928e-06
0.00147419
-3.49296e-06
0.00146825
-3.4822e-06
0.00146233
-3.46685e-06
0.00145643
-3.4454e-06
0.00145055
-3.42012e-06
0.00144471
-3.3906e-06
0.0014389
-3.35624e-06
0.00143314
-3.31714e-06
0.00142744
-3.27327e-06
0.00142179
-3.22467e-06
0.00141622
-3.17136e-06
0.00141072
-3.11334e-06
0.00140531
-3.05065e-06
0.00139998
-2.98331e-06
0.00139475
-2.91132e-06
0.00138963
-2.83461e-06
0.00138462
-2.75307e-06
0.00137972
-2.66649e-06
0.00137495
-2.57456e-06
0.00137031
-2.47692e-06
0.0013658
-2.37326e-06
0.00136143
-2.26334e-06
0.00135722
-2.14707e-06
0.00135316
-2.02418e-06
0.00134926
-1.89343e-06
0.00134552
-1.75135e-06
0.00134191
-9.22073e-07
0.00133772
-1.40002e-06
0.00133425
-1.16987e-06
0.00132816
-2.89546e-06
0.00131955
-4.61656e-06
0.00130742
-1.96295e-05
0.00128695
-3.00954e-05
0.00126105
-8.36234e-05
0.00122473
-0.000143177
0.00120262
-0.000328502
0.00121428
-0.000736195
0.00140183
-0.000202562
0.000361195
2.04324e-05
0.00059954
4.4466e-06
0.000786405
-3.85984e-05
0.000696036
-1.24937e-05
0.000609993
-7.5092e-06
0.000220538
-4.58122e-06
0.000183624
0.000148435
8.52638e-06
0.000139908
1.73474e-05
0.000174803
0.000210943
2.69428e-05
-1.36292e-05
0.000203715
2.08567e-05
-6.80517e-06
0.000167979
0.000133103
2.50444e-06
0.000130599
4.12781e-06
0.000166356
0.00020248
5.36313e-06
-4.65157e-06
0.000200395
6.73664e-06
-2.87149e-06
0.000164576
0.000127727
1.54675e-06
0.000126181
2.02866e-06
0.000164094
0.00020028
2.14361e-06
-4.45895e-06
0.000198716
6.02261e-06
-2.60025e-06
0.000162235
0.00012358
1.26908e-06
0.000122311
1.14649e-06
0.000162358
0.000198481
1.3815e-06
-3.62731e-06
0.000197498
4.61053e-06
-1.77607e-06
0.000160507
0.000120535
4.71924e-07
0.000120063
3.54558e-07
0.000160624
0.000197859
-6.30578e-09
-2.8371e-06
0.00019616
4.53627e-06
-1.60634e-06
0.000159393
0.000118457
3.42425e-07
0.000118115
2.39638e-07
0.000159496
0.000196461
-6.0782e-08
-2.71688e-06
0.000195374
3.80377e-06
-1.48142e-06
0.000158261
0.000116633
2.51134e-07
0.000116382
1.47913e-07
0.000158364
0.00019564
-1.18603e-07
-2.62298e-06
0.000194523
3.74039e-06
-1.38808e-06
0.000157129
0.000114994
1.83394e-07
0.000114811
8.27126e-08
0.00015723
0.000194759
-1.53477e-07
-2.54961e-06
0.000193618
3.69068e-06
-1.31737e-06
0.000155998
0.000113494
1.32281e-07
0.000113361
2.73492e-08
0.000156103
0.000193833
-1.87668e-07
-2.48674e-06
0.000192677
3.64345e-06
-1.2618e-06
0.000154878
0.0001121
9.26189e-08
0.000112007
-1.27275e-08
0.000154983
0.000192873
-2.09196e-07
-2.43708e-06
0.000191705
3.60574e-06
-1.22104e-06
0.000153767
0.000110786
6.11307e-08
0.000110725
-4.22659e-08
0.000153871
0.000191885
-2.22219e-07
-2.39749e-06
0.000190703
3.57956e-06
-1.18738e-06
0.000152661
0.000109538
3.88091e-08
0.000109499
-6.16518e-08
0.000152761
0.000190869
-2.27539e-07
-2.3673e-06
0.000189675
3.56125e-06
-1.1601e-06
0.000151554
0.000108339
2.28552e-08
0.000108316
-7.47353e-08
0.000151652
0.000189826
-2.26436e-07
-2.34307e-06
0.000188621
3.54828e-06
-1.1378e-06
0.000150446
0.000107178
1.16298e-08
0.000107166
-8.11961e-08
0.000150539
0.000188758
-2.18097e-07
-2.32496e-06
0.000187541
3.54186e-06
-1.11993e-06
0.000149334
0.000106046
4.39073e-09
0.000106042
-8.17608e-08
0.00014942
0.000187662
-2.02927e-07
-2.31215e-06
0.000186433
3.54137e-06
-1.10574e-06
0.000148214
0.000104936
4.78354e-10
0.000104936
-7.72148e-08
0.000148291
0.000186537
-1.81605e-07
-2.30384e-06
0.000185295
3.54618e-06
-1.09461e-06
0.000147082
0.000103841
-1.14324e-09
0.000103842
-6.88974e-08
0.00014715
0.000185382
-1.55911e-07
-2.29902e-06
0.000184126
3.55501e-06
-1.08599e-06
0.000145937
0.000102756
-4.19909e-10
0.000102756
-5.69962e-08
0.000145993
0.000184194
-1.25723e-07
-2.29729e-06
0.000182924
3.56776e-06
-1.0793e-06
0.000144775
0.000101677
2.11604e-09
0.000101675
-4.17388e-08
0.000144819
0.000182973
-9.10601e-08
-2.29853e-06
0.000181687
3.58443e-06
-1.07441e-06
0.000143595
0.000100601
6.3726e-09
0.000100594
-2.32548e-08
0.000143625
0.000181716
-5.19269e-08
-2.30264e-06
0.000180413
3.60516e-06
-1.0712e-06
0.000142393
9.95229e-05
1.198e-08
9.9511e-05
-2.3744e-09
0.000142407
0.000180421
-9.65166e-09
-2.30854e-06
0.000179101
3.62805e-06
-1.06924e-06
0.000141168
9.84418e-05
1.98735e-08
9.84219e-05
2.26123e-08
0.000141165
0.000179084
3.93299e-08
-2.31633e-06
0.000177748
3.65302e-06
-1.06834e-06
0.000139918
9.73536e-05
2.92282e-08
9.73244e-05
5.04327e-08
0.000139896
0.000177706
9.25059e-08
-2.32665e-06
0.000176351
3.68157e-06
-1.06877e-06
0.000138639
9.62557e-05
4.0001e-08
9.62157e-05
8.10744e-08
0.000138598
0.000176282
1.49808e-07
-2.3394e-06
0.000174908
3.71367e-06
-1.07049e-06
0.000137329
9.51453e-05
5.22271e-08
9.50931e-05
1.14608e-07
0.000137266
0.000174811
2.11443e-07
-2.35449e-06
0.000173417
3.74915e-06
-1.07343e-06
0.000135985
9.40197e-05
6.58719e-08
9.39538e-05
1.5098e-07
0.0001359
0.00017329
2.77398e-07
-2.37178e-06
0.000171874
3.78786e-06
-1.07752e-06
0.000134606
9.28763e-05
8.08723e-08
9.27953e-05
1.90092e-07
0.000134497
0.000171716
3.47574e-07
-2.39111e-06
0.000170278
3.82958e-06
-1.08265e-06
0.000133188
9.17126e-05
9.71414e-08
9.16153e-05
2.31791e-07
0.000133053
0.000170088
4.21778e-07
-2.41229e-06
0.000168626
3.874e-06
-1.08872e-06
0.00013173
9.05265e-05
1.14568e-07
9.04118e-05
2.75872e-07
0.000131568
0.000168402
4.99724e-07
-2.43504e-06
0.000166916
3.92078e-06
-1.09559e-06
0.000130228
8.9316e-05
1.33026e-07
8.91828e-05
3.22101e-07
0.000130039
0.000166657
5.80974e-07
-2.4589e-06
0.000165146
3.96927e-06
-1.10303e-06
0.000128683
8.80797e-05
1.52271e-07
8.79273e-05
3.69992e-07
0.000128465
0.000164851
6.64851e-07
-2.48341e-06
0.000163316
4.01874e-06
-1.11081e-06
0.000127093
8.68164e-05
1.72014e-07
8.66444e-05
4.18944e-07
0.000126846
0.000162984
7.50424e-07
-2.50774e-06
0.000161424
4.06796e-06
-1.11852e-06
0.000125456
8.55259e-05
1.91768e-07
8.53342e-05
4.67982e-07
0.00012518
0.000161056
8.36231e-07
-2.5308e-06
0.000159471
4.11527e-06
-1.1256e-06
0.000123775
8.42087e-05
2.10883e-07
8.3998e-05
5.1582e-07
0.000123471
0.000159067
9.20272e-07
-2.55132e-06
0.00015746
4.15863e-06
-1.13153e-06
0.000122051
8.28668e-05
2.28864e-07
8.26382e-05
5.61152e-07
0.000121719
0.000157021
1.00036e-06
-2.56798e-06
0.000155394
4.19581e-06
-1.13572e-06
0.000120287
8.15027e-05
2.44961e-07
8.1258e-05
6.02401e-07
0.00011993
0.000154923
1.07396e-06
-2.57909e-06
0.000153278
4.22418e-06
-1.13738e-06
0.000118489
8.01209e-05
2.58264e-07
7.98628e-05
6.37605e-07
0.000118109
0.000152778
1.13796e-06
-2.58258e-06
0.00015112
4.24038e-06
-1.13558e-06
0.000116663
7.87274e-05
2.67633e-07
7.84599e-05
6.64279e-07
0.000116266
0.000150596
1.18837e-06
-2.57583e-06
0.000148932
4.24022e-06
-1.12912e-06
0.00011482
7.73309e-05
2.71649e-07
7.70593e-05
6.79309e-07
0.000114412
0.000148391
1.22019e-06
-2.55565e-06
0.000146728
4.21857e-06
-1.11658e-06
0.000112973
7.59427e-05
2.68631e-07
7.5674e-05
6.78954e-07
0.000112562
0.00014618
1.22743e-06
-2.51834e-06
0.000144528
4.16947e-06
-1.09629e-06
0.00011114
7.45776e-05
2.56638e-07
7.43208e-05
6.58987e-07
0.000110738
0.000143984
1.20321e-06
-2.45984e-06
0.000142357
4.08616e-06
-1.06641e-06
0.000109344
7.32543e-05
2.33485e-07
7.30207e-05
6.14613e-07
0.000108963
0.000141832
1.13966e-06
-2.37531e-06
0.000140246
3.96078e-06
-1.02481e-06
0.000107612
7.19957e-05
1.96615e-07
7.1799e-05
5.40106e-07
0.000107269
0.000139759
1.02746e-06
-2.25934e-06
0.000138234
3.78441e-06
-9.69154e-07
0.000105978
7.08299e-05
1.43174e-07
7.06867e-05
4.29146e-07
0.000105692
0.000137807
8.56154e-07
-2.10658e-06
0.000136365
3.54821e-06
-8.9716e-07
0.000104483
6.97896e-05
7.09518e-08
6.97187e-05
2.76648e-07
0.000104277
0.000136025
6.17323e-07
-1.91257e-06
0.000134692
3.24572e-06
-8.05154e-07
0.00010317
6.89136e-05
-2.44452e-08
6.89381e-05
7.56655e-08
0.00010307
0.000134468
2.99615e-07
-1.66782e-06
0.00013327
2.86597e-06
-6.8693e-07
0.000102089
6.82512e-05
-1.47817e-07
6.8399e-05
-1.81757e-07
0.000102123
0.000133191
-1.03457e-07
-1.37943e-06
0.000132167
2.40338e-06
-5.53399e-07
0.000101297
6.78457e-05
-2.84612e-07
6.81305e-05
-4.79097e-07
0.000101492
0.000132265
-5.76495e-07
-1.05663e-06
0.000131439
1.88183e-06
-4.06302e-07
0.000100842
6.77243e-05
-4.35519e-07
6.81598e-05
-8.11771e-07
0.000101217
0.000131739
-1.11083e-06
-7.1716e-07
0.000131124
1.33108e-06
-2.53833e-07
0.000100754
6.79064e-05
-5.96952e-07
6.84967e-05
-1.16528e-06
0.000101322
0.000131643
-1.67315e-06
-3.73188e-07
0.000131249
7.6875e-07
-1.00713e-07
0.000101049
6.83953e-05
-7.35262e-07
6.91298e-05
-1.48625e-06
0.0001018
0.00013198
-2.21596e-06
-4.13603e-08
0.000131798
2.22965e-07
5.02265e-08
0.000101709
6.91801e-05
-8.95351e-07
7.00762e-05
-1.8482e-06
0.000102662
0.000132765
-2.81619e-06
3.00012e-07
0.000132807
-3.42529e-07
1.99911e-07
0.000102762
7.02763e-05
-1.05492e-06
7.13309e-05
-2.20215e-06
0.000103909
0.000134009
-3.40371e-06
5.40742e-07
0.000134236
-7.6707e-07
2.89913e-07
0.00010416
7.16207e-05
-1.14353e-06
7.27631e-05
-2.42955e-06
0.000105446
0.000135613
-3.80514e-06
6.93938e-07
0.000135972
-1.05185e-06
3.42463e-07
0.000105797
7.31049e-05
-1.18911e-06
7.42934e-05
-2.56702e-06
0.000107175
0.000137471
-4.06531e-06
7.67723e-07
0.000137917
-1.2139e-06
3.5783e-07
0.000107585
7.46509e-05
-1.20777e-06
7.58586e-05
-2.64392e-06
0.000109021
0.000139502
-4.22891e-06
7.86842e-07
0.000140002
-1.28679e-06
3.49568e-07
0.000109458
7.62082e-05
-1.20399e-06
7.74123e-05
-2.66849e-06
0.000110922
0.000141638
-4.30507e-06
7.56106e-07
0.000142158
-1.27575e-06
3.20405e-07
0.000111358
7.77328e-05
-1.17874e-06
7.89115e-05
-2.64345e-06
0.000112823
0.000143812
-4.29774e-06
6.80754e-07
0.000144321
-1.18932e-06
2.72211e-07
0.000113231
7.91838e-05
-1.13528e-06
8.03191e-05
-2.57521e-06
0.000114671
0.000145963
-4.21712e-06
5.68713e-07
0.000146434
-1.03938e-06
2.09255e-07
0.000115031
8.05285e-05
-1.0777e-06
8.16063e-05
-2.47204e-06
0.000116426
0.000148038
-4.07581e-06
4.28556e-07
0.000148449
-8.38935e-07
1.3555e-07
0.000116719
8.1742e-05
-1.00959e-06
8.27518e-05
-2.34176e-06
0.000118051
0.000149993
-3.88571e-06
2.68158e-07
0.000150326
-6.00531e-07
5.51723e-08
0.000118265
8.28072e-05
-9.36556e-07
8.37441e-05
-2.19229e-06
0.000119521
0.000151794
-3.65944e-06
9.60079e-08
0.000152035
-3.36989e-07
-2.70623e-08
0.000119644
8.37174e-05
-8.64206e-07
8.45819e-05
-2.03412e-06
0.000120814
0.000153412
-3.41083e-06
-7.97117e-08
0.000153553
-6.03406e-08
-1.08148e-07
0.000120843
8.4474e-05
-7.89593e-07
8.52638e-05
-1.87239e-06
0.000121927
0.000154834
-3.15336e-06
-2.49671e-07
0.000154875
2.10144e-07
-1.86128e-07
0.000121863
8.50774e-05
-7.14401e-07
8.57949e-05
-1.71013e-06
0.00012286
0.000156058
-2.89862e-06
-4.17e-07
0.000155998
4.6765e-07
-2.63921e-07
0.000122707
8.55365e-05
-6.5565e-07
8.61879e-05
-1.57214e-06
0.000123621
0.000157086
-2.64966e-06
-5.34695e-07
0.000156932
7.26393e-07
-2.98534e-07
0.000123385
8.58635e-05
-6.2013e-07
8.64546e-05
-1.46495e-06
0.000124223
0.000157932
-2.41146e-06
-6.80689e-07
0.000157693
9.29e-07
-3.71775e-07
0.000123914
8.60774e-05
-5.18853e-07
8.66221e-05
-1.29007e-06
0.000124685
0.000158609
-2.24918e-06
-8.43532e-07
0.000158294
1.08422e-06
-4.61425e-07
0.000124312
8.62025e-05
-4.53485e-07
8.67073e-05
-1.16662e-06
0.000125027
0.000159141
-2.09788e-06
-9.38783e-07
0.000158761
1.22961e-06
-5.03108e-07
0.000124601
8.62547e-05
-4.71975e-07
8.67301e-05
-1.14021e-06
0.00012527
0.000159553
-1.93628e-06
-9.05121e-07
0.000159126
1.40431e-06
-4.36241e-07
0.0001248
8.62477e-05
-4.9907e-07
8.67e-05
-1.14017e-06
0.000125431
0.000159869
-1.79764e-06
-9.51988e-07
0.000159395
1.50168e-06
-4.50016e-07
0.000124928
8.62025e-05
-4.76632e-07
8.66383e-05
-1.08754e-06
0.000125527
0.000160097
-1.7195e-06
-9.97359e-07
0.000159586
1.57174e-06
-4.6745e-07
0.000124996
8.61278e-05
-4.64134e-07
8.65537e-05
-1.05123e-06
0.000125574
0.000160256
-1.64709e-06
-1.01907e-06
0.000159723
1.6244e-06
-4.70503e-07
0.000125023
8.60354e-05
-4.55228e-07
8.6455e-05
-1.02371e-06
0.000125585
0.000160369
-1.59766e-06
-1.0317e-06
0.000159814
1.6621e-06
-4.70254e-07
0.000125019
8.59329e-05
-4.50697e-07
8.63529e-05
-1.00529e-06
0.000125574
0.000160439
-1.55518e-06
-1.07178e-06
0.000159868
1.69411e-06
-4.90395e-07
0.000124991
8.58265e-05
-4.44498e-07
8.62298e-05
-9.94883e-07
0.000125526
0.000160479
-1.5479e-06
-1.0516e-06
0.000159894
1.72967e-06
-4.68143e-07
0.000124938
8.57028e-05
-4.45386e-07
8.61175e-05
-9.79617e-07
0.000125483
0.000160508
-1.49991e-06
-1.0814e-06
0.000159898
1.72554e-06
-4.95403e-07
0.000124876
8.55866e-05
-4.11782e-07
8.59909e-05
-9.32623e-07
0.000125402
0.00016049
-1.52184e-06
-1.12871e-06
0.000159881
1.74179e-06
-5.30038e-07
0.000124806
8.54714e-05
-4.20912e-07
8.58669e-05
-9.40377e-07
0.000125323
0.000160473
-1.50449e-06
-1.09583e-06
0.000159852
1.73829e-06
-5.0557e-07
0.000124715
8.53399e-05
-4.07751e-07
8.57531e-05
-9.24444e-07
0.000125241
0.000160443
-1.50792e-06
-1.1194e-06
0.000159826
1.74911e-06
-5.17026e-07
0.000124637
8.52264e-05
-3.97988e-07
8.56308e-05
-9.15669e-07
0.000125149
0.000160394
-1.4929e-06
-1.13166e-06
0.00015977
1.72784e-06
-5.27837e-07
0.000124552
8.51194e-05
-4.18499e-07
8.55247e-05
-9.35736e-07
0.000125072
0.000160368
-1.48098e-06
-1.10525e-06
0.000159736
1.74987e-06
-4.97036e-07
0.000124462
8.49997e-05
-3.87371e-07
8.54102e-05
-9.13188e-07
0.000124984
0.000160316
-1.50838e-06
-1.11247e-06
0.000159698
1.72956e-06
-5.14607e-07
0.00012439
8.49032e-05
-4.2204e-07
8.53083e-05
-9.49049e-07
0.000124901
0.000160269
-1.5447e-06
-1.08898e-06
0.000159677
1.7331e-06
-4.88805e-07
0.000124322
8.48146e-05
-4.58273e-07
8.5233e-05
-1.00296e-06
0.000124864
0.00016082
-2.07692e-06
-4.79679e-07
0.00015972
1.64647e-06
-4.23524e-07
0.000124791
8.4768e-05
-9.4841e-07
8.56949e-05
-1.58356e-06
0.000125422
0.000161463
-3.29587e-06
1.6286e-07
0.000161535
-2.3917e-07
6.97095e-08
0.000125519
8.57759e-05
-1.64701e-06
8.74373e-05
-4.53372e-06
0.0001284
0.000164073
-7.11228e-06
6.12376e-06
0.000168395
-1.04282e-05
2.97287e-06
0.000131559
9.04104e-05
-8.6895e-06
9.90739e-05
-1.9702e-05
0.000142578
0.000182003
-3.3241e-05
4.32896e-05
0.000211512
-7.28322e-05
1.9445e-05
0.000166415
0.000118528
3.935e-05
9.49921e-05
0.000165964
3.99731e-05
-0.000288206
-5.72864e-05
-0.000326082
-6.18117e-05
-0.000510467
-2.49792e-05
-0.00055048
-1.5938e-05
-0.00057707
-3.11505e-06
-0.000579742
-2.5596e-06
-0.000584677
-2.00448e-07
-0.000585148
-8.00991e-07
-0.000585839
9.67585e-07
-0.000585296
1.55201e-06
-0.000583071
5.07724e-06
-0.000577007
9.78301e-06
-0.000568946
2.14766e-05
-0.000554883
3.83985e-05
-0.000540859
8.52434e-05
-0.00053606
0.000189248
-0.000544786
8.52808e-05
-0.00033592
4.86816e-05
-0.000332975
2.72058e-05
-0.000323183
2.72368e-05
-0.000275561
7.95197e-06
-0.000237155
4.49937e-06
-8.35486e-05
1.8393e-06
-5.64699e-05
-3.05116e-05
-2.27397e-06
-2.82572e-05
-5.95145e-06
-5.27877e-05
-7.83832e-05
-1.10554e-05
4.02557e-06
-7.5368e-05
-7.12056e-06
1.39243e-06
-5.01378e-05
-2.68226e-05
-9.83003e-07
-2.58546e-05
-1.73817e-06
-4.93946e-05
-7.35579e-05
-3.50324e-06
6.81937e-07
-7.29237e-05
-1.32603e-06
1.56129e-07
-4.88601e-05
-2.56875e-05
-4.64551e-07
-2.52546e-05
-5.8546e-07
-4.87394e-05
-7.23133e-05
-1.12941e-06
5.39393e-07
-7.27551e-05
-7.7929e-08
7.73728e-08
-4.82791e-05
-2.51847e-05
-1.4766e-09
-2.51798e-05
-2.43343e-08
-4.82579e-05
-7.27647e-05
-2.49183e-08
-1.86687e-08
-7.27794e-05
3.36285e-08
-9.34916e-09
-4.82679e-05
-2.519e-05
1.92817e-08
-2.5208e-05
3.88136e-08
-4.82883e-05
-7.28001e-05
5.39504e-08
-5.88007e-08
-7.28334e-05
8.34353e-08
-2.90228e-08
-4.83176e-05
-2.52331e-05
2.56533e-08
-2.52568e-05
5.46421e-08
-4.83462e-05
-7.28614e-05
7.92756e-08
-6.05334e-08
-7.28977e-05
1.01486e-07
-2.67816e-08
-4.83794e-05
-2.5285e-05
2.27045e-08
-2.53122e-05
5.48047e-08
-4.8412e-05
-7.29298e-05
9.73575e-08
-6.34489e-08
-7.29722e-05
1.14943e-07
-2.65083e-08
-4.84502e-05
-2.53439e-05
2.49343e-08
-2.53722e-05
5.97342e-08
-4.84845e-05
-7.30072e-05
1.0499e-07
-6.51466e-08
-7.30492e-05
1.15072e-07
-2.75903e-08
-4.8523e-05
-2.54041e-05
2.59464e-08
-2.54355e-05
6.20716e-08
-4.8561e-05
-7.30885e-05
1.09579e-07
-6.89702e-08
-7.31314e-05
1.2359e-07
-2.91444e-08
-4.86003e-05
-2.54684e-05
2.57488e-08
-2.55023e-05
6.20921e-08
-4.86418e-05
-7.31749e-05
1.10394e-07
-6.83744e-08
-7.32139e-05
1.21582e-07
-2.9021e-08
-4.86781e-05
-2.55329e-05
2.74659e-08
-2.55678e-05
6.51374e-08
-4.87199e-05
-7.32569e-05
1.14411e-07
-7.3525e-08
-7.33022e-05
1.31045e-07
-3.12397e-08
-4.87616e-05
-2.5603e-05
2.89106e-08
-2.56356e-05
6.85862e-08
-4.8801e-05
-7.3343e-05
1.20304e-07
-7.08048e-08
-7.33914e-05
1.2718e-07
-2.97361e-08
-4.88453e-05
-2.56725e-05
2.95576e-08
-2.57056e-05
6.98422e-08
-4.8884e-05
-7.34303e-05
1.23427e-07
-7.65297e-08
-7.34807e-05
1.33809e-07
-3.2856e-08
-4.89302e-05
-2.57446e-05
3.52098e-08
-2.57787e-05
7.74373e-08
-4.89712e-05
-7.35228e-05
1.20321e-07
-8.56345e-08
-7.35704e-05
1.24322e-07
-4.12941e-08
-4.90148e-05
-2.58151e-05
4.17662e-08
-2.58513e-05
8.52534e-08
-4.90579e-05
-7.36155e-05
1.15677e-07
-9.05386e-08
-7.36646e-05
1.29302e-07
-4.40785e-08
-4.91028e-05
-2.58895e-05
4.08134e-08
-2.59261e-05
8.40475e-08
-4.91465e-05
-7.37103e-05
1.1766e-07
-9.00161e-08
-7.37587e-05
1.28273e-07
-4.39293e-08
-4.91907e-05
-2.59636e-05
4.38836e-08
-2.59999e-05
8.96717e-08
-4.92337e-05
-7.38035e-05
1.23495e-07
-9.26019e-08
-7.38572e-05
1.34222e-07
-4.48309e-08
-4.92818e-05
-2.60402e-05
3.76228e-08
-2.60771e-05
8.19209e-08
-4.93249e-05
-7.39021e-05
1.29717e-07
-8.09675e-08
-7.39539e-05
1.4024e-07
-3.49338e-08
-4.93722e-05
-2.61172e-05
3.17072e-08
-2.61547e-05
7.62258e-08
-4.94169e-05
-7.39998e-05
1.37319e-07
-8.3241e-08
-7.40546e-05
1.49159e-07
-3.53661e-08
-4.94662e-05
-2.61963e-05
3.25365e-08
-2.62349e-05
7.74619e-08
-4.95128e-05
-7.41044e-05
1.37706e-07
-8.0906e-08
-7.41561e-05
1.45241e-07
-3.41917e-08
-4.95595e-05
-2.62739e-05
3.28186e-08
-2.63143e-05
7.78983e-08
-4.96081e-05
-7.42081e-05
1.38636e-07
-8.42293e-08
-7.42628e-05
1.52428e-07
-3.55286e-08
-4.96568e-05
-2.6355e-05
3.287e-08
-2.63942e-05
7.89278e-08
-4.97048e-05
-7.43149e-05
1.41946e-07
-8.29213e-08
-7.4371e-05
1.50714e-07
-3.45468e-08
-4.97545e-05
-2.64348e-05
3.38256e-08
-2.64745e-05
8.15766e-08
-4.98034e-05
-7.44245e-05
1.46879e-07
-8.71175e-08
-7.44848e-05
1.58916e-07
-3.62007e-08
-4.9856e-05
-2.65172e-05
3.32428e-08
-2.65562e-05
8.16413e-08
-4.99054e-05
-7.45398e-05
1.49171e-07
-8.3774e-08
-7.46003e-05
1.57011e-07
-3.36733e-08
-4.99578e-05
-2.65977e-05
3.42093e-08
-2.66375e-05
8.44471e-08
-5.00086e-05
-7.46567e-05
1.5278e-07
-9.49649e-08
-7.47221e-05
1.60356e-07
-4.07204e-08
-5.00633e-05
-2.66792e-05
4.27332e-08
-2.67181e-05
9.50601e-08
-5.01158e-05
-7.47827e-05
1.46424e-07
-1.03775e-07
-7.48477e-05
1.53264e-07
-4.77518e-08
-5.01698e-05
-2.67577e-05
4.59499e-08
-2.6797e-05
1.01642e-07
-5.02243e-05
-7.49115e-05
1.51547e-07
-1.06456e-07
-7.49821e-05
1.64519e-07
-4.74745e-08
-5.02821e-05
-2.68381e-05
4.47691e-08
-2.68755e-05
1.0246e-07
-5.03373e-05
-7.50486e-05
1.57526e-07
-1.05736e-07
-7.51219e-05
1.65723e-07
-4.56771e-08
-5.03962e-05
-2.69147e-05
4.49747e-08
-2.69521e-05
1.05725e-07
-5.04544e-05
-7.51935e-05
1.64992e-07
-1.10268e-07
-7.52724e-05
1.76617e-07
-4.62919e-08
-5.05163e-05
-2.6991e-05
4.30226e-08
-2.70276e-05
1.05835e-07
-5.0578e-05
-7.53502e-05
1.69643e-07
-1.08705e-07
-7.54334e-05
1.7858e-07
-4.32735e-08
-5.06421e-05
-2.70643e-05
4.16492e-08
-2.70996e-05
1.07951e-07
-5.07076e-05
-7.55178e-05
1.7789e-07
-1.13162e-07
-7.56092e-05
1.91102e-07
-4.27342e-08
-5.07766e-05
-2.71356e-05
4.00349e-08
-2.71678e-05
1.10629e-07
-5.08447e-05
-7.56994e-05
1.87436e-07
-1.16567e-07
-7.57971e-05
1.98879e-07
-4.17383e-08
-5.09171e-05
-2.72008e-05
3.86476e-08
-2.72319e-05
1.15075e-07
-5.09912e-05
-7.58976e-05
2.02244e-07
-1.11291e-07
-7.60055e-05
2.22293e-07
-3.2095e-08
-5.10697e-05
-2.72639e-05
2.33483e-08
-2.72932e-05
1.03021e-07
-5.11496e-05
-7.61123e-05
2.25017e-07
-1.06126e-07
-7.62305e-05
2.40601e-07
-2.25927e-08
-5.12348e-05
-2.73239e-05
2.98983e-08
-2.73518e-05
1.19413e-07
-5.13235e-05
-7.63522e-05
2.38433e-07
-1.36918e-07
-7.64869e-05
2.53437e-07
-3.96443e-08
-5.14193e-05
-2.73829e-05
4.05888e-08
-2.74116e-05
1.42506e-07
-5.15178e-05
-7.66223e-05
2.56682e-07
-1.48022e-07
-7.67699e-05
2.79736e-07
-3.99466e-08
-5.16244e-05
-2.74437e-05
3.03829e-08
-2.74764e-05
1.41832e-07
-5.17367e-05
-7.69224e-05
2.98499e-07
-1.46034e-07
-7.70854e-05
3.30923e-07
-2.62385e-08
-5.18589e-05
-2.75145e-05
2.78181e-08
-2.75536e-05
1.53256e-07
-5.19864e-05
-7.72557e-05
3.46784e-07
-1.87426e-07
-7.74394e-05
3.69899e-07
-4.69615e-08
-5.21229e-05
-2.75959e-05
6.24543e-08
-2.76448e-05
2.13053e-07
-5.22701e-05
-7.76335e-05
3.80436e-07
-2.37445e-07
-7.78422e-05
4.11065e-07
-7.47286e-08
-5.2431e-05
-2.77044e-05
8.11826e-08
-2.77717e-05
2.54562e-07
-5.26031e-05
-7.80593e-05
4.38632e-07
-2.92422e-07
-7.82923e-05
4.89522e-07
-1.00449e-07
-5.27898e-05
-2.7852e-05
1.194e-07
-2.7946e-05
3.30381e-07
-5.29938e-05
-7.85371e-05
5.29305e-07
-3.58039e-07
-7.88049e-05
5.93837e-07
-1.33712e-07
-5.32151e-05
-2.80634e-05
1.29429e-07
-2.81988e-05
3.7031e-07
-5.34538e-05
-7.90802e-05
6.67118e-07
-3.93223e-07
-7.93708e-05
7.53295e-07
-1.31978e-07
-5.37167e-05
-2.83616e-05
1.60815e-07
-2.85551e-05
4.4087e-07
-5.40047e-05
-7.96867e-05
8.18034e-07
-5.43039e-07
-8.00237e-05
8.72927e-07
-2.28339e-07
-5.43169e-05
-2.87776e-05
3.00775e-07
-2.90404e-05
6.47556e-07
-5.46595e-05
-8.03849e-05
9.27768e-07
-7.58924e-07
-8.07698e-05
1.031e-06
-3.68067e-07
-5.50364e-05
-2.93497e-05
4.10427e-07
-2.97154e-05
8.35643e-07
-5.54536e-05
-8.11869e-05
1.16527e-06
-8.95743e-07
-8.1639e-05
1.36187e-06
-4.28884e-07
-5.59208e-05
-3.015e-05
4.66062e-07
-3.06586e-05
9.89642e-07
-5.6441e-05
-8.21228e-05
1.58376e-06
-1.12924e-06
-8.26901e-05
1.80776e-06
-5.40454e-07
-5.70396e-05
-3.12528e-05
8.30409e-07
-3.2084e-05
1.57425e-06
-5.77844e-05
-8.27971e-05
1.67199e-06
-1.54509e-06
-8.33136e-05
2.02854e-06
-9.55403e-07
-5.83734e-05
-3.3027e-05
7.52954e-07
-3.3766e-05
1.41114e-06
-5.90302e-05
-8.38554e-05
1.92629e-06
-1.23415e-06
-8.53429e-05
2.72705e-06
-2.8924e-07
-5.99752e-05
-3.40587e-05
1.28409e-06
-3.53441e-05
1.67313e-06
-6.03634e-05
-8.61408e-05
2.4767e-06
-1.98014e-06
-8.69281e-05
2.76798e-06
-5.91619e-07
-6.17483e-05
-3.59314e-05
9.2426e-07
-3.68505e-05
1.6961e-06
-6.25183e-05
-8.81974e-05
2.96284e-06
-2.33882e-06
-8.88922e-05
3.03583e-06
-1.0219e-06
-6.38346e-05
-3.78709e-05
1.08828e-06
-3.89629e-05
1.91922e-06
-6.467e-05
-9.06823e-05
3.70913e-06
-2.6365e-06
-9.18778e-05
3.82938e-06
-1.38187e-06
-6.59311e-05
-4.03497e-05
1.3404e-06
-4.16934e-05
2.57476e-06
-6.71701e-05
-9.29774e-05
3.6781e-06
-2.54523e-06
-9.4779e-05
4.32513e-06
-1.12685e-06
-6.85945e-05
-4.2813e-05
1.06299e-06
-4.38583e-05
2.85213e-06
-7.03849e-05
-9.65994e-05
4.63224e-06
-4.32053e-06
-9.959e-05
7.29119e-06
-2.4257e-06
-7.22711e-05
-4.62826e-05
2.50182e-06
-4.87551e-05
6.37674e-06
-7.61362e-05
-0.000103731
1.05924e-05
6.79308e-05
-5.04795e-05
-0.00012112
2.72083e-05
-3.54334e-05
-2.16252e-05
5.45372e-06
-2.6065e-05
1.42997e-05
-4.59284e-05
-6.59229e-05
3.03248e-05
-8.56055e-06
-7.30639e-05
1.57662e-05
-2.94938e-06
-5.14768e-05
-2.91003e-05
9.71591e-07
-3.0167e-05
2.23965e-06
-5.28075e-05
-7.4346e-05
3.62149e-06
-7.62634e-08
-7.45306e-05
2.57849e-07
-2.86932e-07
-5.26177e-05
-3.04768e-05
1.31101e-06
-3.19516e-05
3.0479e-06
-5.44128e-05
-7.61838e-05
4.98093e-06
-2.37063e-06
-7.73945e-05
3.67981e-06
-1.13948e-06
-5.56331e-05
-3.31074e-05
2.30207e-06
-3.53128e-05
4.4234e-06
-5.77108e-05
-7.98057e-05
6.6968e-06
-2.63902e-06
-8.19009e-05
4.86957e-06
-1.44773e-06
-5.89307e-05
-3.68439e-05
2.31622e-06
-3.9215e-05
4.87828e-06
-6.15198e-05
-8.44972e-05
7.56211e-06
-4.42875e-06
-8.72025e-05
7.21629e-06
-2.00625e-06
-6.38786e-05
-4.11956e-05
2.67317e-06
-4.39324e-05
6.4264e-06
-6.75736e-05
-9.22406e-05
1.16594e-05
-9.48935e-06
-9.91659e-05
1.67395e-05
-4.19576e-06
-7.28565e-05
-4.81924e-05
-2.58941e-05
-2.25253e-05
-6.32271e-05
-3.55282e-05
-4.94784e-05
-0.000112749
-1.61261e-05
-6.56908e-05
3.33829e-05
-8.16323e-06
-4.65153e-05
-2.89464e-05
4.02773e-06
-3.347e-05
1.16372e-05
-5.42398e-05
-7.42945e-05
2.10287e-05
-7.02322e-06
-8.07275e-05
1.39395e-05
-3.452e-06
-5.79044e-05
-3.71318e-05
2.74292e-06
-3.96452e-05
6.68621e-06
-6.18019e-05
-8.45788e-05
1.01221e-05
-5.42919e-06
-8.80845e-05
9.07271e-06
-2.38654e-06
-6.48479e-05
-4.20984e-05
2.63909e-06
-4.47596e-05
5.72006e-06
-6.79127e-05
-9.17427e-05
9.49823e-06
-7.04903e-06
-9.69137e-05
1.21697e-05
-2.99901e-06
-7.19682e-05
-4.77304e-05
3.11041e-06
-5.08982e-05
6.8735e-06
-7.57437e-05
-0.000101489
1.1491e-05
6.57018e-05
-5.03983e-05
-0.000116752
2.68015e-05
-3.68476e-05
-2.40456e-05
5.25966e-06
-3.07506e-05
1.83742e-05
-4.78935e-05
-6.63078e-05
3.35656e-05
-1.15417e-05
-7.56554e-05
2.08061e-05
-4.44846e-06
-5.50748e-05
-3.51467e-05
2.80725e-06
-3.79416e-05
6.06127e-06
-5.83228e-05
-7.89888e-05
9.40346e-06
-3.89602e-06
-8.09507e-05
5.90591e-06
-1.79042e-06
-6.03981e-05
-3.97382e-05
3.16949e-06
-4.29637e-05
6.61645e-06
-6.38138e-05
-8.66642e-05
1.24289e-05
-9.30725e-06
-9.27277e-05
1.57496e-05
-4.25447e-06
-6.88478e-05
-4.72426e-05
-2.44595e-05
-2.30718e-05
-5.90433e-05
-3.43081e-05
-4.6796e-05
-0.000104726
-1.73844e-05
-6.23681e-05
3.39615e-05
-8.46165e-06
-4.62232e-05
-2.98121e-05
5.73373e-06
-3.59897e-05
1.34105e-05
-5.39456e-05
-7.23706e-05
2.41979e-05
-9.46954e-06
-8.06941e-05
1.81179e-05
-3.98657e-06
-5.95194e-05
-4.01425e-05
4.56968e-06
-4.47451e-05
9.60415e-06
-6.45312e-05
-8.73084e-05
1.62553e-05
-7.68522e-06
-9.17159e-05
1.20789e-05
-3.41289e-06
-6.87875e-05
-4.8083e-05
-2.52413e-05
-2.30322e-05
-5.96565e-05
-3.43661e-05
-4.6065e-05
-0.000105166
-1.67841e-05
-6.06282e-05
3.23194e-05
-8.92295e-06
-4.50728e-05
-3.01986e-05
4.95106e-06
-3.5477e-05
1.17547e-05
-5.18715e-05
-6.9724e-05
2.14554e-05
-9.20262e-06
-7.59994e-05
1.54108e-05
-4.10677e-06
-5.6935e-05
-3.9519e-05
4.71813e-06
-4.41047e-05
1.06071e-05
-6.27288e-05
-8.28448e-05
1.74061e-05
5.32719e-05
-4.24656e-05
-9.36863e-05
2.23775e-05
-3.18081e-05
-2.1861e-05
9.19011e-06
-2.91964e-05
1.71754e-05
-4.2886e-05
-5.65996e-05
3.23901e-05
-1.44647e-05
-6.82427e-05
2.65308e-05
-6.39848e-06
-5.09089e-05
-3.57879e-05
5.23187e-06
-4.12223e-05
1.22326e-05
-5.7987e-05
-7.68014e-05
2.11643e-05
-7.7415e-06
-8.14385e-05
1.22942e-05
-4.03205e-06
-6.16605e-05
-4.51959e-05
-2.25956e-05
-2.25991e-05
-5.25649e-05
-3.16963e-05
-4.18853e-05
-9.21334e-05
-1.88009e-05
-5.59979e-05
3.29543e-05
-7.57876e-06
-4.29368e-05
-3.01843e-05
6.78084e-06
-3.70118e-05
1.39993e-05
-5.01307e-05
-6.54291e-05
2.34791e-05
4.24509e-05
-3.41751e-05
-7.35891e-05
1.78828e-05
-2.57304e-05
-1.90214e-05
5.47562e-06
-2.602e-05
1.78001e-05
-3.58133e-05
-4.73802e-05
3.02236e-05
-1.38043e-05
-5.5541e-05
2.19219e-05
-6.69358e-06
-4.30757e-05
-3.25849e-05
-1.6355e-05
-1.62261e-05
-3.78362e-05
-2.15686e-05
-2.78394e-05
-6.55428e-05
-1.08142e-05
-3.52698e-05
1.82459e-05
-5.08044e-06
-2.73e-05
-2.12999e-05
-1.2707e-05
-8.59317e-06
-2.84977e-05
-1.15094e-05
-1.52047e-05
-4.85661e-05
7.87005e-07
-1.65237e-05
5.30619e-07
5.63758e-07
-1.12875e-05
-8.0303e-06
-1.3606e-05
5.57577e-06
-3.24081e-05
7.51508e-06
9.6073e-06
-5.8538e-05
2.53886e-05
2.64213e-05
-4.22021e-05
1.17342e-05
2.11699e-05
1.73104e-05
-1.08393e-05
2.81497e-05
-2.39419e-05
3.42725e-05
4.28887e-05
-4.04094e-05
2.75704e-05
6.34875e-05
-4.81695e-05
1.15367e-05
5.0306e-05
3.96861e-05
-1.34835e-05
5.3169e-05
-3.28866e-05
6.97086e-05
8.9695e-05
-5.90939e-05
-4.88772e-05
5.56708e-05
8.29011e-05
-2.13127e-05
4.21444e-05
3.18571e-05
-1.91357e-05
5.09964e-05
-4.37041e-05
6.67148e-05
8.72964e-05
-7.53335e-05
-4.04068e-05
5.92658e-05
6.84328e-05
-1.8406e-05
4.47129e-05
3.25926e-05
-2.41198e-05
5.66617e-05
-5.58075e-05
7.6333e-05
9.95916e-05
-9.6153e-05
-3.71147e-05
7.51786e-05
6.25527e-05
-1.63431e-05
5.58922e-05
3.97195e-05
1.66202e-05
2.63445e-05
3.06496e-05
3.67204e-05
4.90149e-05
5.83465e-05
4.76428e-05
8.61491e-05
-8.53789e-05
2.10413e-05
6.47404e-05
4.62757e-05
1.42118e-05
3.233e-05
3.31463e-05
4.57153e-05
6.01953e-05
5.92005e-05
5.97805e-05
0.000107301
-0.000106947
2.47237e-05
8.07954e-05
5.70698e-05
1.41443e-05
4.29635e-05
3.33462e-05