/*--------------------------------*- C++ -*----------------------------------*\
| =========                 |                                                 |
| \\      /  F ield         | OpenFOAM: The Open Source CFD Toolbox           |
|  \\    /   O peration     | Version:  v2006                                 |
|   \\  /    A nd           | Website:  www.openfoam.com                      |
|    \\/     M anipulation  |                                                 |
\*---------------------------------------------------------------------------*/
FoamFile
{
    version     2.0;
    format      ascii;
    class       volScalarField;
    location    "0.108";
    object      T;
}
// * * * * * * * * * * * * * * * * * * * * * * * * * * * * * * * * * * * * * //

dimensions      [0 0 0 1 0 0 0];


internalField   nonuniform List<scalar> 
16277
(
298.839
298.839
298.839
298.839
298.839
298.839
298.839
298.84
298.841
298.844
298.847
298.851
298.854
298.858
298.862
298.866
298.87
298.874
298.879
298.883
298.888
298.893
298.898
298.903
298.909
298.914
298.92
298.926
298.932
298.938
298.945
298.951
298.957
298.964
298.971
298.978
298.985
298.992
298.999
299.006
299.013
299.021
299.028
299.035
299.043
299.05
299.058
299.065
299.073
299.08
299.088
299.095
299.102
299.11
299.117
299.124
299.131
299.139
299.146
299.152
299.159
299.166
299.172
299.179
299.185
299.191
299.197
299.203
299.209
299.214
299.22
299.225
299.23
299.235
299.24
299.244
299.248
299.252
299.256
299.26
299.264
299.268
299.271
299.273
299.273
299.274
299.273
299.273
299.273
299.273
299.273
299.274
299.276
299.279
299.285
299.291
299.316
299.322
299.29
299.281
299.281
299.292
299.331
299.341
299.295
299.282
299.282
299.298
299.346
299.353
299.301
299.284
299.286
299.304
299.355
299.359
299.308
299.289
299.291
299.311
299.361
299.363
299.314
299.293
299.296
299.316
299.364
299.365
299.319
299.298
299.3
299.321
299.365
299.366
299.324
299.303
299.305
299.326
299.366
299.367
299.328
299.307
299.309
299.33
299.367
299.368
299.332
299.312
299.314
299.333
299.368
299.369
299.336
299.316
299.318
299.337
299.369
299.369
299.34
299.321
299.322
299.341
299.37
299.371
299.343
299.325
299.327
299.344
299.371
299.372
299.347
299.329
299.331
299.348
299.372
299.374
299.35
299.334
299.335
299.351
299.374
299.376
299.354
299.338
299.34
299.355
299.376
299.378
299.358
299.343
299.345
299.359
299.378
299.38
299.362
299.348
299.35
299.363
299.381
299.383
299.366
299.353
299.355
299.368
299.384
299.386
299.371
299.358
299.36
299.372
299.387
299.39
299.376
299.363
299.365
299.377
299.391
299.393
299.38
299.369
299.371
299.382
299.394
299.397
299.386
299.375
299.377
299.387
299.398
299.402
299.391
299.381
299.383
299.393
299.403
299.406
299.397
299.387
299.389
299.398
299.407
299.411
299.403
299.394
299.396
299.404
299.412
299.416
299.409
299.401
299.403
299.411
299.418
299.422
299.415
299.408
299.41
299.417
299.423
299.427
299.422
299.415
299.418
299.424
299.429
299.433
299.429
299.423
299.425
299.431
299.435
299.44
299.436
299.431
299.433
299.438
299.442
299.446
299.444
299.439
299.442
299.446
299.448
299.453
299.452
299.447
299.45
299.454
299.455
299.46
299.46
299.456
299.459
299.462
299.463
299.468
299.468
299.465
299.468
299.47
299.47
299.476
299.477
299.474
299.477
299.479
299.478
299.484
299.485
299.484
299.487
299.488
299.486
299.492
299.494
299.493
299.496
299.497
299.494
299.5
299.503
299.503
299.506
299.506
299.502
299.508
299.512
299.513
299.515
299.515
299.511
299.516
299.521
299.522
299.525
299.524
299.519
299.525
299.53
299.532
299.534
299.533
299.527
299.533
299.539
299.541
299.544
299.541
299.535
299.541
299.547
299.55
299.552
299.549
299.543
299.548
299.555
299.558
299.56
299.557
299.55
299.555
299.562
299.565
299.567
299.563
299.556
299.561
299.568
299.572
299.574
299.569
299.562
299.566
299.573
299.578
299.579
299.574
299.567
299.569
299.577
299.582
299.582
299.578
299.57
299.572
299.58
299.584
299.585
299.58
299.572
299.573
299.581
299.585
299.585
299.58
299.573
299.572
299.58
299.585
299.583
299.578
299.571
299.571
299.578
299.583
299.58
299.575
299.569
299.568
299.574
299.578
299.574
299.57
299.564
299.563
299.568
299.573
299.568
299.563
299.559
299.557
299.561
299.565
299.56
299.556
299.553
299.551
299.554
299.557
299.551
299.548
299.546
299.543
299.545
299.548
299.541
299.539
299.538
299.536
299.536
299.538
299.531
299.53
299.531
299.528
299.527
299.528
299.521
299.52
299.523
299.521
299.518
299.518
299.511
299.511
299.515
299.513
299.509
299.508
299.501
299.503
299.508
299.506
299.5
299.498
299.492
299.495
299.501
299.499
299.492
299.489
299.483
299.487
299.495
299.493
299.485
299.481
299.476
299.481
299.489
299.488
299.479
299.474
299.469
299.475
299.484
299.483
299.473
299.467
299.463
299.469
299.481
299.479
299.468
299.462
299.459
299.465
299.476
299.475
299.465
299.459
299.457
299.462
299.471
299.469
299.462
299.456
299.453
299.46
299.469
299.47
299.458
299.45
299.447
299.455
299.469
299.469
299.455
299.446
299.444
299.453
299.468
299.468
299.452
299.443
299.442
299.451
299.467
299.466
299.451
299.441
299.44
299.449
299.465
299.465
299.449
299.44
299.439
299.448
299.463
299.462
299.448
299.439
299.438
299.446
299.46
299.461
299.447
299.438
299.437
299.446
299.459
299.46
299.445
299.437
299.437
299.444
299.458
299.457
299.444
299.437
299.437
299.444
299.456
299.455
299.444
299.439
299.437
299.444
299.455
299.453
299.443
299.436
299.437
299.443
299.454
299.454
299.443
299.436
299.435
299.441
299.451
299.451
299.443
299.437
299.437
299.442
299.451
299.451
299.442
299.435
299.436
299.443
299.451
299.449
299.44
299.435
299.434
299.439
299.449
299.45
299.44
299.434
299.435
299.441
299.449
299.446
299.44
299.435
299.434
299.438
299.443
299.442
299.438
299.433
299.432
299.437
299.441
299.433
299.43
299.426
299.433
299.439
299.428
299.42
299.43
299.431
299.436
299.43
299.424
299.422
299.421
299.422
299.423
299.423
299.424
299.424
299.425
299.427
299.428
299.43
299.432
299.434
299.437
299.44
299.444
299.45
299.46
299.462
299.451
299.471
299.492
299.494
299.47
299.454
299.474
299.475
299.474
299.483
299.469
299.445
299.477
299.47
299.473
299.454
299.481
299.484
299.467
299.475
299.48
299.478
299.475
299.472
299.472
299.475
299.476
299.478
299.475
299.471
299.471
299.475
299.478
299.478
299.475
299.471
299.473
299.475
299.477
299.476
299.475
299.473
299.473
299.476
299.476
299.476
299.475
299.473
299.473
299.475
299.475
299.475
299.475
299.473
299.473
299.476
299.476
299.475
299.475
299.472
299.473
299.476
299.476
299.476
299.475
299.473
299.473
299.475
299.475
299.476
299.476
299.474
299.473
299.476
299.476
299.476
299.476
299.474
299.474
299.477
299.476
299.477
299.477
299.474
299.473
299.477
299.48
299.479
299.477
299.473
299.474
299.478
299.479
299.48
299.479
299.474
299.475
299.479
299.483
299.485
299.481
299.476
299.475
299.481
299.486
299.486
299.481
299.476
299.478
299.481
299.483
299.482
299.481
299.477
299.477
299.481
299.483
299.479
299.479
299.475
299.475
299.479
299.479
299.479
299.479
299.475
299.475
299.478
299.479
299.48
299.479
299.475
299.475
299.479
299.48
299.481
299.48
299.475
299.475
299.479
299.481
299.481
299.479
299.475
299.475
299.479
299.481
299.478
299.478
299.474
299.473
299.477
299.478
299.48
299.476
299.47
299.471
299.476
299.479
299.478
299.476
299.471
299.471
299.476
299.479
299.481
299.477
299.472
299.472
299.478
299.482
299.483
299.479
299.472
299.473
299.479
299.484
299.483
299.479
299.473
299.473
299.479
299.482
299.481
299.479
299.473
299.473
299.479
299.481
299.481
299.479
299.474
299.475
299.481
299.482
299.484
299.483
299.476
299.478
299.485
299.486
299.486
299.488
299.483
299.484
299.491
299.49
299.496
299.492
299.482
299.479
299.492
299.498
299.498
299.491
299.479
299.478
299.49
299.497
299.496
299.49
299.48
299.484
299.492
299.494
299.496
299.494
299.484
299.481
299.495
299.501
299.501
299.493
299.477
299.477
299.491
299.497
299.494
299.49
299.476
299.473
299.489
299.498
299.502
299.489
299.471
299.468
299.488
299.507
299.5
299.489
299.474
299.483
299.492
299.493
299.495
299.497
299.483
299.474
299.497
299.511
299.526
299.494
299.459
299.46
299.493
299.528
299.529
299.491
299.456
299.459
299.491
299.52
299.498
299.493
299.476
299.46
299.479
299.501
299.503
299.47
299.439
299.426
299.457
299.486
299.47
299.445
299.428
299.42
299.437
299.462
299.46
299.436
299.416
299.414
299.439
299.465
299.475
299.442
299.413
299.412
299.444
299.482
299.479
299.439
299.406
299.398
299.428
299.463
299.456
299.422
299.391
299.388
299.423
299.468
299.514
299.436
299.389
299.395
299.477
299.546
299.558
299.5
299.408
299.418
299.512
299.576
299.513
299.427
299.703
299.451
299.547
299.566
299.531
299.499
299.432
299.387
299.464
299.559
299.677
299.472
299.282
299.356
299.46
299.589
299.404
299.43
299.488
299.46
299.43
299.376
299.487
299.416
299.401
299.36
299.465
299.59
299.543
299.519
299.432
299.443
299.554
299.432
299.401
299.533
299.435
299.709
299.188
299.456
299.758
299.553
299.184
299.282
299.489
299.754
299.524
299.473
299.495
299.417
299.484
299.544
299.524
299.48
299.459
299.454
299.455
299.504
299.525
299.454
299.441
299.436
299.48
299.498
299.404
299.983
299.147
299.443
299.467
299.605
299.555
299.474
299.445
299.451
299.495
299.607
299.618
299.562
299.439
299.469
299.577
299.513
299.498
299.554
299.45
299.733
299.205
299.61
299.8
299.59
299.207
299.334
299.511
299.794
299.555
299.562
299.552
299.486
299.587
299.514
299.536
299.547
299.474
299.735
299.182
299.748
299.816
299.644
299.299
299.428
299.617
299.7
299.481
299.613
299.561
299.579
299.647
299.459
299.428
299.232
300.003
299.553
299.659
299.561
299.62
299.579
299.576
299.592
299.591
299.586
299.608
299.595
299.608
299.592
299.584
299.627
299.622
299.63
299.683
299.632
299.624
299.743
299.518
300.273
299.328
299.734
299.685
299.741
299.731
299.737
299.74
299.767
299.765
299.76
299.769
299.781
299.799
299.847
299.848
299.858
299.859
299.867
299.872
299.816
299.794
299.769
299.739
299.735
299.744
299.619
299.604
299.627
299.499
299.52
299.531
299.478
299.474
299.485
299.421
299.423
299.421
299.408
299.415
299.441
299.39
299.354
299.387
299.206
299.532
299.63
300.315
298.557
299.603
299.336
299.684
299.089
299.363
299.361
299.407
299.36
299.394
299.337
299.373
299.387
299.339
299.298
299.401
299.472
299.416
299.396
299.283
299.441
299.399
299.29
299.075
299.291
299.704
299.364
299.408
299.264
299.149
299.393
299.504
299.903
299.243
298.918
299.215
299.443
299.427
299.548
299.404
299.101
298.982
299.316
299.896
299.426
299.481
299.252
299.19
299.443
299.514
299.986
299.24
298.879
299.299
299.311
299.417
299.288
299.357
299.423
299.777
299.523
299.008
299.375
299.323
299.452
299.55
299.351
299.253
298.779
299.535
299.928
299.509
299.271
299.237
299.266
299.336
299.558
299.758
299.57
298.952
299.517
298.585
299.678
299.497
299.449
298.922
299.523
299.302
299.035
298.274
300.112
299.113
299.46
299.423
299.064
298.97
299.43
299.617
299.929
298.414
299.603
299.271
299.347
299.372
299.233
299.311
299.5
299.102
300.249
298.895
299.328
299.349
299.341
299.452
299.233
299.456
298.976
300.155
298.906
299.292
299.292
299.39
299.372
299.396
299.287
299.819
298.473
299.701
299.289
299.245
299.425
299.628
299.522
298.833
299.302
298.512
300.24
299.427
299.258
299.108
298.959
299.468
299.405
299.476
298.343
299.552
299.371
299.645
298.753
298.91
299.362
299.426
299.307
299.377
299.153
299.162
299.343
299.286
299.266
299.246
299.203
299.25
299.225
299.32
299.222
299.303
299.387
299.813
299.509
298.789
299.289
299.196
299.469
299.642
299.286
299.013
298.48
299.55
300.064
299.637
299.109
299.117
298.86
299.33
299.9
299.717
299.316
298.658
298.929
299.041
299.624
299.808
299.477
298.653
299.179
298.335
300.591
299.045
299.439
299.205
299.264
299.278
299.131
299.139
299.305
299.27
299.217
299.333
299.243
299.461
299.376
299.121
299.202
299.185
299.451
299.717
299.476
298.875
299.239
298.375
300.523
299.16
299.334
299.205
299.237
299.242
299.218
299.211
299.274
299.224
299.216
299.288
299.212
299.265
299.269
299.219
299.204
299.154
299.291
299.487
299.395
298.923
299.252
298.258
300.356
299.051
299.293
299.169
299.197
299.191
299.089
299.123
299.232
299.19
299.19
299.247
299.161
299.256
299.237
299.185
299.201
299.153
299.208
299.462
299.126
299.167
298.529
300.619
298.418
299.568
298.912
299.079
299.095
299.195
299.441
299.278
299.122
299.147
299.13
299.228
299.307
299.911
298.434
299.398
299.131
299.28
299.075
299.146
299.175
299.198
299.219
299.132
299.079
299.356
299.16
298.997
298.823
299.766
298.882
299.36
299.076
299.01
299.094
299.212
299.31
299.185
298.992
299.173
298.908
299.002
299.498
298.663
299.867
298.691
299.022
298.986
299.311
299.269
299.166
299.044
299.072
299.032
299.197
299.23
299.127
299.029
299.234
298.406
299.751
298.959
299.193
299.029
299.104
299.059
299.032
299.042
299.03
299.085
298.994
299.025
299.322
298.164
300.47
298.434
299.18
298.426
299.607
299.131
299.042
298.976
298.998
298.94
299.112
299.178
299.013
298.946
298.986
298.985
299.104
299.082
299.029
299.014
299.003
299.024
299.028
299.047
299.018
299.005
299.01
299.032
299.063
299.061
298.957
299.018
298.948
298.965
299.341
298.105
300.51
298.377
299.156
298.348
299.629
299.127
299.033
298.93
298.95
298.891
299.088
299.123
298.947
298.893
298.923
298.899
299.021
299.038
299.032
298.915
299.146
298.138
299.661
298.814
299.113
298.874
299.019
298.916
298.873
298.856
298.984
298.974
298.981
298.97
298.905
298.943
298.958
298.926
298.933
298.941
299.054
298.377
299.668
298.761
298.97
298.702
299.179
299.053
298.941
298.817
298.834
298.842
298.988
298.982
298.883
298.849
298.84
298.844
298.933
298.963
298.928
298.846
299.051
298.331
299.319
298.771
298.988
298.836
298.908
298.843
298.873
298.85
298.889
298.876
298.882
298.883
298.872
298.87
298.859
298.828
298.812
298.985
298.887
299.912
297.699
299.159
298.608
299.38
298.373
298.741
298.738
298.947
298.835
298.876
298.726
298.824
298.834
298.814
298.773
298.81
298.832
298.818
298.96
298.768
299.134
297.603
299.96
298.319
299.327
298.597
298.883
298.73
298.668
298.684
298.839
298.795
298.775
298.789
298.762
298.769
298.766
298.744
298.752
298.766
298.783
298.763
298.73
298.697
298.739
298.688
298.883
297.812
299.969
298.383
298.906
298.119
299.322
298.848
298.757
298.608
298.649
298.617
298.829
298.832
298.688
298.627
298.636
298.658
298.785
298.793
298.704
298.653
298.643
298.648
298.736
298.765
298.775
298.622
298.905
297.601
299.688
298.343
299.081
298.471
298.743
298.578
298.599
298.578
298.706
298.665
298.654
298.667
298.66
298.669
298.643
298.619
298.645
298.662
298.68
298.654
298.607
298.599
298.551
298.711
298.721
299.783
297.444
298.832
298.276
299.226
298.111
298.568
298.493
298.674
298.588
298.633
298.514
298.584
298.582
298.578
298.533
298.558
298.6
298.623
298.579
298.547
298.509
298.529
298.565
298.766
298.473
298.531
298.058
300.055
297.468
299.214
297.757
298.745
298.363
298.535
298.679
298.621
298.364
298.412
298.395
298.455
298.589
298.574
298.43
298.404
298.42
298.478
298.589
298.538
298.439
298.419
298.426
298.467
298.528
298.488
298.397
298.408
298.347
298.559
298.546
300.009
296.915
298.737
297.977
299.42
297.55
298.419
298.271
298.523
298.401
298.488
298.34
298.401
298.416
298.408
298.356
298.377
298.432
298.428
298.389
298.362
298.315
298.342
298.405
298.426
298.359
298.314
298.281
298.289
298.384
298.443
298.386
298.278
298.499
297.485
299.142
298.097
298.656
298.113
298.319
298.225
298.318
298.282
298.322
298.278
298.282
298.302
298.307
298.339
298.278
298.256
298.269
298.3
298.353
298.329
298.257
298.225
298.237
298.28
298.336
298.297
298.194
298.205
298.154
298.331
298.388
299.73
296.809
298.498
297.815
299.057
297.57
298.198
298.087
298.271
298.175
298.253
298.147
298.207
298.187
298.185
298.132
298.159
298.231
298.231
298.175
298.149
298.102
298.135
298.208
298.223
298.159
298.111
298.07
298.077
298.177
298.262
298.18
298.057
298.35
297.097
299.128
297.837
298.516
297.856
298.098
297.986
298.117
298.067
298.103
298.038
298.059
298.069
298.093
298.12
298.041
298.02
298.034
298.058
298.125
298.097
298.018
297.984
297.999
298.047
298.106
298.064
297.949
297.952
297.902
298.108
298.178
299.737
296.346
298.312
297.442
299.091
297.03
297.956
297.795
298.023
297.898
298.013
297.888
297.969
297.92
297.917
297.871
297.906
297.985
297.984
297.907
297.877
297.828
297.863
297.956
297.969
297.886
297.833
297.795
297.819
297.934
297.952
297.853
297.805
297.767
297.785
297.884
297.964
297.863
297.747
297.718
298.222
297.543
297.996
297.61
297.812
297.702
297.861
297.862
297.873
297.719
297.702
297.695
297.777
297.877
297.859
297.698
297.672
297.683
297.757
297.87
297.822
297.683
297.653
297.668
297.723
297.838
297.766
297.636
297.618
297.619
297.71
297.861
298.447
296.967
297.809
297.424
298.009
297.49
297.755
297.559
297.635
297.574
297.625
297.695
297.684
297.626
297.587
297.543
297.571
297.691
297.687
297.592
297.558
297.494
297.526
297.665
297.667
297.568
297.508
297.454
297.486
297.596
297.695
297.548
297.448
297.354
298.045
297.148
297.753
297.279
297.484
297.401
297.571
297.581
297.589
297.422
297.376
297.386
297.473
297.603
297.569
297.369
297.342
297.356
297.444
297.573
297.509
297.356
297.317
297.331
297.397
297.534
297.452
297.292
297.278
297.259
297.373
297.536
297.899
296.833
297.448
297.086
297.584
297.172
297.479
297.174
297.271
297.202
297.267
297.34
297.387
297.265
297.222
297.17
297.227
297.344
297.384
297.245
297.195
297.123
297.157
297.324
297.333
297.212
297.144
297.078
297.109
297.252
297.303
297.179
297.049
297.16
296.874
297.582
297.083
297.209
296.966
297.032
297.031
297.302
297.159
297.042
296.967
296.988
297.042
297.19
297.137
296.967
296.918
296.951
297.003
297.179
297.091
296.896
296.875
296.889
296.981
297.2
298.272
295.714
297.222
296.667
297.403
296.664
297.061
296.78
296.885
296.8
296.882
296.981
296.961
296.859
296.819
296.764
296.83
296.913
296.971
296.819
296.8
296.724
296.742
296.86
296.964
296.857
296.685
296.471
297.723
296.03
297.137
296.362
296.724
296.599
296.778
296.767
296.889
296.584
296.56
296.585
296.679
296.852
296.788
296.534
296.507
296.517
296.637
296.798
296.692
296.492
296.457
296.472
296.571
296.883
298.211
294.993
296.875
296.241
297.106
296.126
296.622
296.344
296.504
296.377
296.431
296.545
296.482
296.435
296.378
296.294
296.376
296.489
296.543
296.357
296.331
296.26
296.253
296.438
296.505
296.38
296.188
296.434
295.508
297.086
296.282
296.397
296.047
296.155
296.106
296.551
296.4
296.102
296.079
296.078
296.18
296.379
296.273
296.086
296.037
296.06
296.143
296.298
296.217
296.014
296.006
295.943
296.176
296.275
296.718
295.578
296.153
295.801
296.201
295.975
296.281
295.886
295.927
295.811
295.915
296.137
296.163
295.879
295.834
295.754
295.733
296.006
296.105
295.877
295.645
296.03
294.735
297.036
295.82
295.866
295.573
295.666
295.636
296.09
295.913
295.613
295.578
295.576
295.711
295.875
295.797
295.588
295.512
295.549
295.63
295.838
295.732
295.52
295.483
295.445
295.574
295.818
295.614
295.733
295.434
295.42
295.307
295.712
295.575
295.521
295.338
295.258
295.295
295.612
295.553
295.387
295.23
295.134
295.174
295.434
295.466
295.214
295.071
295.187
295.311
295.5
295.396
295.141
295.053
295.082
295.222
295.442
295.353
295.04
294.971
294.999
295.125
295.374
295.246
294.961
294.903
294.864
295.035
295.311
295.27
295.072
294.93
294.777
294.883
295.116
295.163
294.909
294.805
294.682
294.738
295.047
295.06
294.78
294.608
294.622
294.747
294.948
294.846
294.553
294.461
294.514
294.651
294.912
294.824
294.485
294.406
294.445
294.608
294.88
294.731
294.408
294.345
294.298
294.546
294.827
294.979
294.28
294.435
294.222
294.438
294.441
294.707
294.33
294.265
294.097
294.187
294.495
294.558
294.261
294.049
294.123
294.205
294.528
294.19
294.096
293.873
293.901
293.933
294.36
294.139
293.803
293.715
293.658
293.876
294.191
294.192
294.075
293.742
293.638
293.732
294.14
294.173
293.864
293.685
293.549
293.636
293.978
294.116
293.769
293.494
293.634
293.326
294.286
293.661
293.623
293.313
293.375
293.417
293.965
293.736
293.302
293.194
293.116
293.297
293.756
293.566
293.226
293.118
292.758
293.394
293.102
293.54
292.896
292.905
292.748
292.902
293.255
293.395
292.987
292.801
292.702
293.556
293.059
293.293
292.625
292.66
292.624
293.007
293.155
293.035
292.634
292.504
292.442
292.769
293.119
293.155
292.454
292.527
292.214
292.494
292.676
292.915
292.256
292.226
291.969
292.092
292.559
292.444
291.907
291.772
291.887
292.109
292.484
292.284
291.855
291.704
291.719
291.913
292.481
292.102
292.516
291.652
291.646
291.518
292.378
292.154
291.976
291.564
291.389
291.546
292.035
292.04
291.61
291.28
291.306
291.567
291.927
291.586
291.24
291.04
290.846
291.016
291.619
291.083
291.37
290.617
290.524
290.677
291.201
291.471
290.887
290.561
290.553
291.372
291.173
291.261
290.631
290.419
290.507
290.757
291.272
290.956
290.427
290.246
290.107
290.451
290.999
290.833
290.415
290.103
289.785
290.004
290.459
290.402
289.683
289.527
289.356
289.84
289.998
289.898
289.342
289.174
289.201
289.42
290.318
290.278
289.831
289.365
289.108
289.363
289.984
290.117
289.379
288.988
289.098
289.465
289.97
289.585
288.929
288.713
288.442
288.81
289.531
289.098
288.633
288.292
287.816
287.962
288.596
288.785
287.988
287.712
287.808
288.304
289.158
289.431
288.09
288.207
287.74
288.023
288.601
288.909
287.953
287.541
287.366
288.344
288.359
288.102
287.07
286.97
286.594
286.639
287.437
287.515
286.483
286.11
286.502
287.066
287.685
287.412
286.638
286.254
286.234
286.602
287.696
287.997
286.881
286.055
286.57
285.299
288.394
286.067
285.928
285.477
285.078
285.148
286.077
286.58
284.95
284.713
285.242
285.35
286.879
286.427
285.377
284.774
284.795
285.122
286.41
286.424
285.26
284.497
284.206
283.743
286.137
284.135
286.044
283.243
283.586
284.01
285.21
286.131
284.343
283.761
283.783
284.69
286.104
285.497
284.366
283.355
283.218
284.119
285.67
286.699
284.413
283.578
283.025
286.929
285.397
285.915
284.032
283.577
283.757
284.309
285.896
286.575
284.992
283.907
284.405
285.21
287.284
288.068
285.857
284.803
285.484
286.683
288.904
289.88
287.462
286.164
286.787
288.17
290.641
291.14
288.759
287.298
287.718
289.264
291.476
291.726
289.714
288.096
288.445
290.133
291.964
292.174
290.504
288.768
289.062
290.83
292.357
292.516
291.116
289.341
289.607
291.381
292.677
292.832
291.622
289.865
290.11
291.844
292.972
293.066
292.035
290.339
290.549
292.202
293.119
293.154
292.343
290.744
290.927
292.475
293.208
293.279
292.595
291.107
291.287
292.713
293.347
293.392
292.817
291.464
291.634
292.911
293.422
293.441
292.986
291.788
291.927
293.05
293.447
293.447
293.098
292.049
292.161
293.14
293.442
293.433
293.17
292.262
292.358
293.199
293.429
293.428
293.221
292.444
292.529
293.249
293.433
293.449
293.275
292.606
292.682
293.306
293.47
293.488
293.33
292.749
292.812
293.356
293.503
293.512
293.376
292.864
292.916
293.399
293.516
293.516
293.417
292.959
293.003
293.434
293.514
293.506
293.445
293.038
293.071
293.454
293.499
293.492
293.455
293.092
293.11
293.454
293.487
293.482
293.451
293.117
293.123
293.447
293.479
293.476
293.441
293.125
293.128
293.438
293.474
293.473
293.432
293.128
293.129
293.429
293.471
293.469
293.422
293.128
293.127
293.418
293.468
293.463
293.41
293.125
293.124
293.406
293.46
293.453
293.396
293.12
293.118
293.39
293.448
293.439
293.379
293.113
293.11
293.372
293.434
293.424
293.359
293.105
293.101
293.351
293.419
293.407
293.337
293.094
293.09
293.328
293.401
293.388
293.313
293.081
293.076
293.304
293.381
293.369
293.289
293.067
293.062
293.28
293.362
293.35
293.265
293.052
293.048
293.256
293.342
293.33
293.241
293.038
293.034
293.232
293.321
293.309
293.218
293.025
293.021
293.21
293.3
293.287
293.197
293.013
293.01
293.189
293.279
293.267
293.176
293.002
292.999
293.169
293.259
293.247
293.157
292.992
292.989
293.15
293.24
293.228
293.139
292.983
292.98
293.133
293.222
293.211
293.122
292.973
292.97
293.117
293.205
293.194
293.107
292.964
292.961
293.101
293.189
293.178
293.092
292.955
292.952
293.087
293.173
293.162
293.077
292.946
292.943
293.073
293.157
293.146
293.063
292.937
292.934
293.059
293.141
293.13
293.049
292.927
292.923
293.044
293.125
293.114
293.035
292.916
292.912
293.03
293.109
293.098
293.02
292.904
292.9
293.015
293.093
293.082
293.006
292.892
292.888
293.001
293.077
293.066
292.991
292.88
292.876
292.986
293.06
293.05
292.976
292.867
292.863
292.971
293.044
293.035
292.961
292.854
292.849
292.956
293.029
293.019
292.946
292.839
292.835
292.94
293.013
293.003
292.931
292.825
292.82
292.925
292.998
292.988
292.915
292.81
292.804
292.909
292.982
292.972
292.9
292.794
292.789
292.894
292.967
292.956
292.884
292.778
292.773
292.877
292.951
292.94
292.867
292.762
292.756
292.861
292.934
292.924
292.851
292.745
292.739
292.844
292.918
292.907
292.834
292.729
292.72
292.827
292.901
292.89
292.816
292.711
292.702
292.809
292.884
292.872
292.798
292.693
292.684
292.791
292.866
292.854
292.78
292.675
292.666
292.773
292.848
292.835
292.761
292.656
292.648
292.754
292.829
292.817
292.742
292.636
292.629
292.735
292.81
292.798
292.723
292.617
292.61
292.716
292.791
292.779
292.703
292.597
292.591
292.696
292.772
292.759
292.684
292.577
292.571
292.677
292.753
292.74
292.664
292.558
292.551
292.657
292.733
292.72
292.644
292.538
292.531
292.637
292.713
292.7
292.624
292.517
292.511
292.616
292.693
292.68
292.603
292.497
292.49
292.596
292.673
292.66
292.583
292.477
292.47
292.575
292.652
292.64
292.562
292.457
292.45
292.554
292.632
292.619
292.541
292.436
292.429
292.533
292.611
292.598
292.521
292.416
292.409
292.513
292.591
292.578
292.5
292.396
292.389
292.492
292.57
292.558
292.48
292.376
292.369
292.472
292.55
292.537
292.459
292.356
292.349
292.451
292.53
292.517
292.439
292.336
292.33
292.431
292.51
292.497
292.419
292.317
292.31
292.411
292.49
292.477
292.399
292.297
292.291
292.391
292.47
292.457
292.379
292.278
292.272
292.372
292.45
292.437
292.359
292.259
292.253
292.352
292.43
292.417
292.34
292.241
292.234
292.333
292.41
292.397
292.32
292.222
292.216
292.313
292.391
292.378
292.301
292.203
292.197
292.294
292.371
292.358
292.281
292.185
292.179
292.275
292.351
292.338
292.262
292.167
292.16
292.255
292.331
292.318
292.243
292.148
292.142
292.236
292.312
292.299
292.224
292.13
292.124
292.217
292.292
292.279
292.205
292.112
292.106
292.198
292.273
292.26
292.186
292.094
292.088
292.179
292.253
292.241
292.167
292.076
292.07
292.16
292.234
292.222
292.148
292.058
292.053
292.142
292.215
292.203
292.13
292.041
292.035
292.124
292.196
292.184
292.112
292.023
292.018
292.105
292.178
292.166
292.093
292.006
292.001
292.087
292.159
292.147
292.076
291.989
291.984
292.07
292.141
292.129
292.058
291.973
291.967
292.052
292.121
292.111
292.042
291.957
291.951
292.034
292.102
292.094
292.026
291.943
291.935
292.016
292.077
292.072
292.01
291.927
291.898
291.993
292.06
292.052
291.984
291.871
291.853
291.967
292.036
291.647
291.332
290.35
289.89
289.793
289.379
289.124
288.963
288.878
288.74
288.677
288.521
288.398
288.301
288.226
288.171
288.133
288.107
288.089
288.077
288.068
288.062
288.058
288.055
288.053
288.051
288.05
288.049
288.048
288.048
288.047
288.047
288.047
288.047
288.047
288.047
288.047
288.047
288.046
288.046
288.046
288.046
288.046
288.045
288.045
288.045
288.044
288.042
288.041
288.041
288.042
288.044
288.048
288.054
288.06
288.069
288.078
288.09
288.102
288.117
288.133
288.152
288.172
288.196
288.222
288.252
288.285
288.322
288.363
288.41
288.461
288.519
288.583
288.654
288.732
288.819
288.914
289.018
289.132
289.256
289.39
289.533
289.687
289.851
290.024
290.206
290.396
290.593
290.797
291.007
291.221
291.438
291.658
291.88
292.102
292.323
292.543
292.761
292.976
293.188
293.396
293.599
293.798
293.992
294.18
294.363
294.54
294.712
294.878
295.038
295.193
295.342
295.486
295.624
295.757
295.885
296.008
296.127
296.24
296.349
296.454
296.554
296.651
296.743
296.832
296.918
296.999
297.078
297.153
297.225
297.295
297.361
297.425
297.486
297.545
297.601
297.656
297.708
297.757
297.805
297.851
297.896
297.938
297.979
298.018
298.056
298.092
298.126
298.16
298.192
298.222
298.252
298.28
298.308
298.334
298.359
298.383
298.406
298.429
298.45
298.471
298.491
298.51
298.528
298.545
298.562
298.578
298.594
298.608
298.623
298.636
298.649
298.662
298.674
298.685
298.696
298.706
298.716
298.726
298.735
298.743
298.751
298.759
298.766
298.773
298.78
298.786
298.792
298.797
298.802
298.807
298.811
298.815
298.819
298.822
298.826
298.828
298.831
298.833
298.834
298.836
298.837
298.838
298.838
298.838
298.839
298.839
298.839
298.839
298.839
298.839
298.839
298.839
298.84
298.842
298.845
298.848
298.852
298.856
298.859
298.863
298.867
298.872
298.876
298.881
298.886
298.891
298.896
298.901
298.907
298.912
298.918
298.924
298.93
298.937
298.943
298.949
298.956
298.963
298.97
298.977
298.984
298.991
298.998
299.005
299.012
299.02
299.027
299.035
299.042
299.05
299.057
299.065
299.072
299.08
299.087
299.095
299.102
299.11
299.117
299.124
299.131
299.139
299.146
299.153
299.159
299.166
299.173
299.179
299.186
299.192
299.198
299.204
299.21
299.215
299.221
299.226
299.231
299.236
299.241
299.245
299.25
299.254
299.258
299.262
299.265
299.268
299.271
299.272
299.273
299.273
299.273
299.273
299.273
299.273
299.274
299.275
299.276
299.277
299.278
299.279
299.281
299.282
299.284
299.286
299.288
299.289
299.292
299.293
299.296
299.298
299.3
299.302
299.304
299.306
299.309
299.311
299.313
299.316
299.318
299.321
299.323
299.326
299.328
299.331
299.333
299.337
299.339
299.342
299.344
299.348
299.35
299.354
299.357
299.361
299.363
299.367
299.37
299.374
299.377
299.381
299.384
299.389
299.392
299.397
299.399
299.405
299.408
299.413
299.416
299.422
299.425
299.431
299.434
299.44
299.443
299.449
299.452
299.459
299.462
299.469
299.472
299.479
299.482
299.489
299.493
299.5
299.503
299.51
299.513
299.521
299.524
299.531
299.534
299.541
299.544
299.551
299.553
299.56
299.562
299.568
299.57
299.575
299.577
299.581
299.582
299.586
299.587
299.589
299.589
299.59
299.59
299.59
299.588
299.587
299.585
299.583
299.579
299.577
299.572
299.569
299.563
299.56
299.553
299.55
299.543
299.539
299.532
299.528