/*--------------------------------*- C++ -*----------------------------------*\
| =========                 |                                                 |
| \\      /  F ield         | OpenFOAM: The Open Source CFD Toolbox           |
|  \\    /   O peration     | Version:  v2006                                 |
|   \\  /    A nd           | Website:  www.openfoam.com                      |
|    \\/     M anipulation  |                                                 |
\*---------------------------------------------------------------------------*/
FoamFile
{
    version     2.0;
    format      ascii;
    class       volScalarField;
    location    "0.108";
    object      turbulenceProperties:L;
}
// * * * * * * * * * * * * * * * * * * * * * * * * * * * * * * * * * * * * * //

dimensions      [0 1 0 0 0 0 0];


internalField   nonuniform List<scalar> 
16277
(
1998.72
1998.7
1999.09
1999.22
1999.58
1999.49
1999.47
1999.27
1998.8
1998.12
1997.37
1996.68
1996.09
1995.58
1995.13
1994.72
1994.32
1993.93
1993.54
1993.17
1992.81
1992.45
1992.11
1991.77
1991.44
1991.12
1990.8
1990.49
1990.19
1989.89
1989.59
1989.31
1989.03
1988.75
1988.49
1988.23
1987.98
1987.74
1987.51
1987.29
1987.08
1986.88
1986.69
1986.52
1986.36
1986.21
1986.07
1985.95
1985.85
1985.76
1985.69
1985.63
1985.59
1985.57
1985.57
1985.58
1985.62
1985.67
1985.75
1985.84
1985.95
1986.06
1986.18
1986.25
1986.18
1985.75
1984.4
1980.76
1971.2
1947.5
1896.72
1794.47
1607.84
1316.49
954.865
612.036
356.552
195.45
103.521
54.248
28.4335
15.276
9.12508
7.01264
5.12999
4.27539
3.52247
1.93379
1.1175
0.885734
0.988164
0.374132
0.121348
0.0320746
0.0037253
0.000676234
4.70417e-05
4.51108e-05
0.000325012
0.00146001
0.000819231
0.000221171
4.31574e-05
4.18663e-05
0.000207441
0.000698856
0.000573417
0.000187013
4.15216e-05
4.10403e-05
0.000185002
0.000550564
0.000489887
0.000173553
4.07296e-05
4.03716e-05
0.000173034
0.000482192
0.000449741
0.000166466
4.01594e-05
4.00757e-05
0.000168994
0.00044878
0.000428601
0.000163765
3.99808e-05
3.99174e-05
0.000166281
0.000428799
0.00041356
0.000161754
3.98363e-05
3.97865e-05
0.000164001
0.000414579
0.000401806
0.000159924
3.97153e-05
3.96745e-05
0.000161965
0.000403229
0.000391935
0.000158198
3.96112e-05
3.95762e-05
0.000160129
0.000393602
0.000383336
0.000156562
3.95184e-05
3.94872e-05
0.000158432
0.000385151
0.000375645
0.00015499
3.94332e-05
3.94049e-05
0.000156802
0.000377548
0.000368641
0.000153468
3.93535e-05
3.93271e-05
0.000155238
0.000370606
0.000362204
0.000152004
3.92774e-05
3.92524e-05
0.000153744
0.000364216
0.000356242
0.000150607
3.92039e-05
3.91797e-05
0.000152326
0.000358304
0.000350689
0.000149279
3.91319e-05
3.91083e-05
0.000150979
0.000352808
0.000345518
0.000148014
3.90609e-05
3.90376e-05
0.000149698
0.000347689
0.000340693
0.000146811
3.89903e-05
3.89671e-05
0.000148481
0.000342911
0.000336184
0.000145666
3.89197e-05
3.88965e-05
0.000147327
0.000338444
0.000331963
0.000144581
3.88488e-05
3.88254e-05
0.000146233
0.000334257
0.000327999
0.000143554
3.87773e-05
3.87537e-05
0.000145197
0.000330319
0.00032426
0.000142578
3.8705e-05
3.8681e-05
0.000144214
0.000326599
0.00032072
0.000141651
3.86316e-05
3.86071e-05
0.000143278
0.000323071
0.000317355
0.000140767
3.85568e-05
3.85317e-05
0.000142386
0.000319715
0.000314147
0.000139922
3.84803e-05
3.84545e-05
0.000141533
0.00031651
0.000311076
0.000139112
3.84018e-05
3.83752e-05
0.000140714
0.000313439
0.000308127
0.000138332
3.8321e-05
3.82934e-05
0.000139925
0.000310487
0.000305287
0.000137579
3.82375e-05
3.82088e-05
0.000139163
0.000307641
0.000302544
0.00013685
3.8151e-05
3.8121e-05
0.000138426
0.00030489
0.000299889
0.000136143
3.8061e-05
3.80296e-05
0.000137711
0.000302227
0.000297314
0.000135456
3.79672e-05
3.79342e-05
0.000137016
0.000299644
0.000294816
0.000134787
3.78691e-05
3.78344e-05
0.000136341
0.000297138
0.000292391
0.000134138
3.77664e-05
3.77298e-05
0.000135686
0.000294707
0.00029004
0.000133507
3.76585e-05
3.76199e-05
0.000135056
0.000292352
0.000287763
0.000132899
3.75452e-05
3.75045e-05
0.000134462
0.000290076
0.000285567
0.000132318
3.7426e-05
3.73832e-05
0.000133892
0.000287886
0.000283456
0.00013176
3.73008e-05
3.72558e-05
0.000133352
0.000285784
0.000281436
0.000131233
3.71693e-05
3.71221e-05
0.000132848
0.000283782
0.000279519
0.000130744
3.70314e-05
3.69821e-05
0.000132389
0.000281893
0.000277725
0.000130302
3.68873e-05
3.68361e-05
0.000131986
0.000280139
0.000276076
0.000129917
3.67372e-05
3.66846e-05
0.000131652
0.000278585
0.000274616
0.000129607
3.65821e-05
3.65287e-05
0.000131406
0.000277266
0.000273379
0.000129389
3.64232e-05
3.63699e-05
0.000131266
0.000276186
0.000272397
0.000129285
3.62623e-05
3.62104e-05
0.000131256
0.000275406
0.000271732
0.000129318
3.61021e-05
3.60532e-05
0.000131405
0.000274996
0.000271459
0.000129519
3.59461e-05
3.59025e-05
0.000131743
0.000275032
0.000271659
0.000129925
3.57987e-05
3.57635e-05
0.00013228
0.000275597
0.000272418
0.000130559
3.56663e-05
3.56413e-05
0.000132968
0.000276745
0.000273773
0.000131339
3.55568e-05
3.55427e-05
0.000133827
0.000278613
0.000275848
0.000132314
3.54743e-05
3.54723e-05
0.000134873
0.000281201
0.000278626
0.000133478
3.54268e-05
3.54349e-05
0.000136073
0.000284444
0.000282051
0.000134804
3.54212e-05
3.54331e-05
0.000137376
0.000288222
0.000285977
0.000136178
3.54273e-05
3.54678e-05
0.000138698
0.000292478
0.000290363
0.000137506
3.54742e-05
3.55355e-05
0.000139925
0.000297093
0.00029504
0.000138745
3.55541e-05
3.56318e-05
0.000140947
0.000301677
0.00029959
0.00013977
3.56589e-05
3.57467e-05
0.000141752
0.000305923
0.000303737
0.000140493
3.57794e-05
3.58728e-05
0.000142399
0.000309675
0.000307375
0.000140976
3.59093e-05
3.60058e-05
0.000142804
0.000312843
0.000310433
0.000141282
3.60441e-05
3.6141e-05
0.000143007
0.000315385
0.000312855
0.000141326
3.61793e-05
3.62737e-05
0.000142984
0.000317298
0.000314591
0.000141162
3.63108e-05
3.64008e-05
0.000142758
0.000318569
0.000315614
0.00014082
3.64356e-05
3.65196e-05
0.000142352
0.000319405
0.00031605
0.000140336
3.65513e-05
3.66282e-05
0.000141813
0.000319582
0.000315835
0.000139667
3.66564e-05
3.67255e-05
0.000141166
0.000319114
0.000314767
0.000138811
3.675e-05
3.68108e-05
0.00014031
0.000317944
0.000313259
0.000137884
3.68312e-05
3.68834e-05
0.000139385
0.000316344
0.000311443
0.000136935
3.68997e-05
3.69436e-05
0.000138438
0.000314421
0.000309374
0.000135998
3.69559e-05
3.6992e-05
0.000137497
0.000312239
0.000307126
0.000135105
3.70008e-05
3.70297e-05
0.000136593
0.000309882
0.000304772
0.000134269
3.70353e-05
3.7058e-05
0.000135741
0.00030742
0.000302371
0.000133497
3.70607e-05
3.70779e-05
0.000134949
0.000304913
0.000299969
0.000132791
3.70783e-05
3.70906e-05
0.000134219
0.000302422
0.000297599
0.000132151
3.70894e-05
3.70979e-05
0.00013355
0.000300001
0.000295311
0.000131568
3.70956e-05
3.7101e-05
0.00013294
0.000297673
0.000293117
0.000131034
3.70975e-05
3.7101e-05
0.000132381
0.00029546
0.00029103
0.000130534
3.70961e-05
3.70985e-05
0.000131869
0.000293367
0.000289033
0.00013005
3.70913e-05
3.70929e-05
0.000131389
0.000291355
0.000287107
0.000129599
3.70841e-05
3.70856e-05
0.000130935
0.000289421
0.000285253
0.00012917
3.70756e-05
3.70767e-05
0.000130509
0.000287555
0.000283492
0.00012877
3.7066e-05
3.70668e-05
0.000130106
0.000285785
0.00028178
0.00012839
3.70549e-05
3.70555e-05
0.000129728
0.000284089
0.000280117
0.000128023
3.70433e-05
3.70439e-05
0.000129349
0.000282428
0.000278504
0.000127655
3.7031e-05
3.70316e-05
0.000128971
0.000280819
0.000276938
0.000127288
3.70183e-05
3.70183e-05
0.000128609
0.000279279
0.000275432
0.00012693
3.69964e-05
3.70123e-05
0.000128261
0.000277783
0.000273788
0.000126575
3.69752e-05
3.69989e-05
0.000127802
0.000276446
0.000272581
0.000125899
3.69316e-05
3.7117e-05
0.000128109
0.000276648
0.000274161
0.000128014
3.72234e-05
3.77423e-05
0.000128406
0.000277374
0.000290729
0.000134788
3.84468e-05
4.11145e-05
0.000127561
0.000283202
0.000420868
0.000235593
4.70795e-05
4.18582e-05
9.8934e-05
0.000220305
0.0004972
0.00104739
0.00181627
0.00244916
0.00284765
0.00358539
0.00402897
0.0044152
0.00461616
0.00469692
0.00464208
0.00443594
0.00416159
0.00372752
0.00331052
0.00266391
0.00237928
0.00181488
0.00142324
0.00102164
0.00061916
0.000299964
0.00011622
5.02459e-05
1.2869e-05
1.18228e-05
4.6302e-05
0.000105537
9.9786e-05
4.38328e-05
1.10149e-05
1.04052e-05
4.20207e-05
9.46743e-05
9.46745e-05
4.16809e-05
1.02027e-05
1.00857e-05
4.13802e-05
9.31961e-05
9.30942e-05
4.10051e-05
9.96456e-06
9.95352e-06
4.09243e-05
9.28509e-05
9.3035e-05
4.09513e-05
9.96325e-06
9.96202e-06
4.09568e-05
9.3122e-05
9.31999e-05
4.098e-05
9.97337e-06
9.97885e-06
4.10084e-05
9.33565e-05
9.34276e-05
4.10305e-05
9.98486e-06
9.99701e-06
4.1068e-05
9.35944e-05
9.36928e-05
4.10877e-05
9.99199e-06
1.00047e-05
4.1136e-05
9.38577e-05
9.39569e-05
4.11564e-05
1.00108e-05
1.00238e-05
4.12006e-05
9.41355e-05
9.42226e-05
4.12197e-05
1.00245e-05
1.00263e-05
4.12788e-05
9.44183e-05
9.45069e-05
4.12951e-05
1.00443e-05
1.00461e-05
4.13478e-05
9.47013e-05
9.47917e-05
4.13659e-05
1.00535e-05
1.00552e-05
4.14266e-05
9.50001e-05
9.50958e-05
4.14476e-05
1.00739e-05
1.00758e-05
4.15029e-05
9.53036e-05
9.54004e-05
4.15256e-05
1.00837e-05
1.00856e-05
4.15908e-05
9.56193e-05
9.57182e-05
4.16148e-05
1.01049e-05
1.01067e-05
4.16705e-05
9.59264e-05
9.60229e-05
4.16921e-05
1.01148e-05
1.01169e-05
4.17591e-05
9.62375e-05
9.63347e-05
4.17808e-05
1.01362e-05
1.01384e-05
4.18381e-05
9.65512e-05
9.66519e-05
4.18644e-05
1.01465e-05
1.01488e-05
4.19304e-05
9.68686e-05
9.6968e-05
4.19532e-05
1.01628e-05
1.01771e-05
4.20095e-05
9.71949e-05
9.72985e-05
4.20435e-05
1.01795e-05
1.01824e-05
4.21111e-05
9.75242e-05
9.76263e-05
4.21392e-05
1.01964e-05
1.0211e-05
4.21964e-05
9.78484e-05
9.79508e-05
4.22276e-05
1.02134e-05
1.02166e-05
4.22969e-05
9.8174e-05
9.82752e-05
4.2324e-05
1.02305e-05
1.02453e-05
4.23842e-05
9.84981e-05
9.86009e-05
4.24134e-05
1.02478e-05
1.02512e-05
4.2486e-05
9.88254e-05
9.89258e-05
4.25124e-05
1.02653e-05
1.02803e-05
4.25753e-05
9.91452e-05
9.92448e-05
4.26029e-05
1.02829e-05
1.02864e-05
4.26775e-05
9.94591e-05
9.95492e-05
4.26973e-05
1.03002e-05
1.03152e-05
4.27588e-05
9.97515e-05
9.98388e-05
4.27768e-05
1.03174e-05
1.03206e-05
4.2845e-05
0.000100042
0.000100123
4.28619e-05
1.03343e-05
1.03491e-05
4.29201e-05
0.000100314
0.000100382
4.29296e-05
1.03509e-05
1.03539e-05
4.29922e-05
0.000100563
0.00010062
4.29958e-05
1.03672e-05
1.03813e-05
4.30427e-05
0.000100779
0.00010082
4.30366e-05
1.03823e-05
1.03842e-05
4.30774e-05
0.000100967
0.000101001
4.30648e-05
1.04021e-05
1.04031e-05
4.3085e-05
0.00010113
0.000101138
4.30641e-05
1.04093e-05
1.04093e-05
4.30688e-05
0.000101231
0.000101239
4.30338e-05
1.04265e-05
1.04257e-05
4.30135e-05
0.000101294
0.000101272
4.29509e-05
1.04306e-05
1.04288e-05
4.29104e-05
0.000101294
0.000101264
4.28212e-05
1.0439e-05
1.04488e-05
4.27499e-05
0.000101268
0.000101207
4.26344e-05
1.04468e-05
1.04449e-05
4.25395e-05
0.000101215
0.000101109
4.2395e-05
1.04545e-05
1.04645e-05
4.22542e-05
0.000101083
0.000100914
4.20594e-05
1.04632e-05
1.04631e-05
4.18881e-05
0.000100894
0.000100685
4.16487e-05
1.04808e-05
1.04833e-05
4.14373e-05
0.000100695
0.000100524
4.11701e-05
1.04938e-05
1.0502e-05
4.09485e-05
0.000100576
0.000100387
4.06477e-05
1.05249e-05
1.05532e-05
4.04061e-05
0.000100523
0.000100362
4.00989e-05
1.0573e-05
1.06064e-05
3.98359e-05
0.000100569
0.00010052
3.95159e-05
1.06447e-05
1.0694e-05
3.92519e-05
0.000100902
0.000101156
3.89668e-05
1.07515e-05
1.08222e-05
3.87515e-05
0.000101763
0.000102579
3.86094e-05
1.0907e-05
1.09993e-05
3.86333e-05
0.000103806
0.000105459
3.92602e-05
1.11787e-05
1.13535e-05
3.98073e-05
0.000106824
0.000107711
3.99658e-05
1.13327e-05
1.14728e-05
3.94838e-05
0.000108978
0.000110781
4.17054e-05
1.17322e-05
1.18801e-05
4.09172e-05
0.000111684
0.000112902
4.20707e-05
1.21559e-05
1.24041e-05
4.26845e-05
0.000114565
0.000114807
4.35478e-05
1.27614e-05
1.32289e-05
4.54015e-05
0.000116635
0.000116542
4.63496e-05
1.36205e-05
1.3926e-05
4.74551e-05
0.000117468
0.00011711
4.82749e-05
1.45859e-05
1.57464e-05
5.40084e-05
0.000119077
0.000117447
5.57497e-05
1.08422e-05
6.20115e-06
1.61725e-05
4.17326e-05
0.000100019
3.5891e-05
8.35568e-06
9.22577e-06
3.21711e-05
9.26066e-05
9.70475e-05
3.38096e-05
9.44788e-06
9.63548e-06
3.23541e-05
9.33373e-05
9.84263e-05
3.45538e-05
1.00265e-05
1.04917e-05
3.40828e-05
9.69662e-05
0.000104034
3.81947e-05
1.10853e-05
1.17091e-05
3.78162e-05
0.000101824
0.000107892
4.25899e-05
1.24503e-05
1.33571e-05
4.3073e-05
0.000107399
0.000114675
4.95237e-05
1.48901e-05
1.05527e-05
5.33443e-05
0.000115534
4.12052e-05
1.55735e-05
6.48821e-06
9.02844e-06
3.79741e-05
0.000104871
0.000101455
3.51647e-05
1.06458e-05
1.18087e-05
4.41037e-05
0.000118713
0.000119588
4.42904e-05
1.26825e-05
1.3718e-05
4.96965e-05
0.000128163
0.000129535
5.19972e-05
1.48556e-05
1.64253e-05
5.86294e-05
0.000135855
0.000130743
6.10042e-05
1.16317e-05
7.0082e-06
1.7368e-05
4.69147e-05
0.000114064
4.22487e-05
9.64064e-06
1.10806e-05
3.93026e-05
0.000110572
0.000121193
4.60939e-05
1.19934e-05
1.30465e-05
4.54528e-05
0.000118509
0.000127048
5.37759e-05
1.48638e-05
1.07946e-05
5.97602e-05
0.000126125
4.58963e-05
1.71912e-05
6.68564e-06
9.61748e-06
4.15654e-05
0.000117235
0.000117588
4.22885e-05
1.17415e-05
1.38801e-05
5.43605e-05
0.000140727
0.000143621
6.12729e-05
1.59395e-05
1.15432e-05
6.63808e-05
0.000141542
5.20508e-05
1.85985e-05
6.87613e-06
9.91638e-06
4.92651e-05
0.00012882
0.000125727
4.64441e-05
1.21665e-05
1.45967e-05
6.10852e-05
0.000146939
0.000146247
6.7643e-05
1.088e-05
6.72533e-06
1.92397e-05
5.65032e-05
0.000146375
5.48645e-05
1.04346e-05
1.36862e-05
5.55795e-05
0.000152319
0.000193235
8.11514e-05
1.68853e-05
1.27972e-05
8.32865e-05
0.000182889
7.67672e-05
2.58973e-05
8.22497e-06
1.35009e-05
7.81428e-05
0.000189793
0.000185637
7.98332e-05
1.12119e-05
7.73353e-06
2.61751e-05
8.32262e-05
0.000236747
9.06847e-05
1.40456e-05
1.24407e-05
9.88849e-05
0.000249235
0.000119976
4.20306e-05
9.66764e-06
1.10668e-05
0.00010066
0.000272848
0.00018673
7.29879e-05
1.01017e-05
1.36143e-05
0.000107822
0.000319906
0.000266173
9.03161e-05
1.12645e-05
1.11417e-05
8.6951e-05
0.000256868
0.000280047
9.68432e-05
1.30471e-05
1.7071e-05
0.000171696
0.000472459
0.000104835
3.92164e-05
1.41118e-05
1.31158e-05
9.56322e-05
0.00020342
7.48868e-05
3.15514e-05
1.21623e-05
1.35138e-05
6.92012e-05
0.00014816
0.000133148
5.5951e-05
1.47611e-05
8.13287e-06
1.93396e-05
4.85685e-05
9.94961e-05
6.30354e-05
9.91128e-06
1.05251e-05
2.47303e-05
5.50388e-05
0.000116291
5.94145e-05
1.28551e-05
1.4769e-05
5.17515e-05
0.000109905
4.6018e-05
1.97149e-05
8.93678e-06
1.17366e-05
5.31179e-05
0.000100746
9.67515e-05
4.73343e-05
1.39966e-05
8.53634e-06
1.82818e-05
4.1478e-05
9.31159e-05
4.9469e-05
1.1253e-05
1.36258e-05
4.52263e-05
8.99049e-05
3.9411e-05
1.79217e-05
8.48328e-06
1.1087e-05
4.72284e-05
8.84729e-05
8.46661e-05
4.34312e-05
1.34692e-05
8.40706e-06
1.72403e-05
3.76498e-05
8.37857e-05
4.50147e-05
1.09622e-05
1.34786e-05
4.14367e-05
8.05293e-05
3.6003e-05
1.69322e-05
8.50115e-06
1.10976e-05
4.38997e-05
8.00084e-05
7.63696e-05
4.02431e-05
1.3548e-05
8.52539e-06
1.67089e-05
3.57249e-05
7.75415e-05
4.27925e-05
1.10465e-05
1.36841e-05
3.94112e-05
7.43043e-05
3.59556e-05
1.71143e-05
8.86412e-06
1.1646e-05
4.47215e-05
7.8273e-05
7.16113e-05
3.77511e-05
1.50521e-05
1.11187e-05
3.15679e-05
6.31297e-05
2.88705e-05
1.33961e-05
7.10574e-06
9.14509e-06
3.40253e-05
6.19566e-05
6.06537e-05
3.24474e-05
1.16328e-05
7.3569e-06
1.34803e-05
2.86607e-05
5.93231e-05
3.36247e-05
9.31571e-06
1.17585e-05
3.10763e-05
5.72537e-05
2.75025e-05
1.36824e-05
7.38131e-06
9.24997e-06
3.25946e-05
5.591e-05
5.49098e-05
3.12686e-05
1.16947e-05
7.41581e-06
1.32204e-05
2.72711e-05
5.48042e-05
3.21071e-05
9.34488e-06
1.17582e-05
3.02116e-05
5.3181e-05
2.66755e-05
1.29669e-05
7.29816e-06
9.17702e-06
3.0637e-05
5.23047e-05
5.15225e-05
2.97943e-05
1.17589e-05
7.42436e-06
1.29511e-05
2.56659e-05
5.11384e-05
3.058e-05
9.20567e-06
1.17474e-05
2.92005e-05
5.01594e-05
2.55048e-05
1.29956e-05
7.33526e-06
8.8786e-06
2.92519e-05
4.85588e-05
4.81419e-05
2.8081e-05
1.12522e-05
6.93584e-06
1.19154e-05
2.33719e-05
4.29969e-05
3.2869e-05
7.9521e-06
9.4089e-06
1.51631e-05
2.69789e-05
5.42494e-05
3.33657e-05
1.12139e-05
1.35984e-05
3.05173e-05
5.17096e-05
2.69345e-05
1.42248e-05
8.40473e-06
1.02356e-05
3.20706e-05
5.14509e-05
4.99405e-05
2.99464e-05
1.30121e-05
8.31291e-06
1.42991e-05
2.67008e-05
5.12404e-05
3.19409e-05
1.01973e-05
1.28249e-05
3.00209e-05
4.97714e-05
2.62774e-05
1.40717e-05
8.10822e-06
9.83701e-06
3.07464e-05
4.86009e-05
4.7008e-05
2.82324e-05
1.25216e-05
7.92444e-06
1.3703e-05
2.50577e-05
4.64106e-05
2.92545e-05
9.46092e-06
1.18366e-05
2.70865e-05
4.46679e-05
2.26021e-05
1.25665e-05
7.18521e-06
8.07354e-06
3.08027e-05
3.94551e-05
2.50192e-05
1.49871e-05
9.4864e-06
1.09807e-05
2.93898e-05
4.66066e-05
4.40566e-05
2.68109e-05
1.32898e-05
8.14877e-06
1.38166e-05
2.39256e-05
4.3327e-05
2.80454e-05
9.6562e-06
1.21667e-05
2.6246e-05
4.1142e-05
2.20244e-05
1.2935e-05
7.5495e-06
8.33972e-06
2.96149e-05
3.74339e-05
2.43864e-05
1.50244e-05
9.8133e-06
1.13392e-05
2.91569e-05
4.48407e-05
4.21136e-05
2.64122e-05
1.36079e-05
8.3213e-06
1.39245e-05
2.33955e-05
4.21413e-05
2.75999e-05
9.86654e-06
1.23092e-05
2.52378e-05
3.99228e-05
2.14052e-05
1.28312e-05
7.5146e-06
8.30915e-06
2.82399e-05
3.54912e-05
2.33394e-05
1.47227e-05
9.7624e-06
1.10886e-05
2.76288e-05
4.24058e-05
3.97833e-05
2.51551e-05
1.32975e-05
8.15439e-06
1.36968e-05
2.21763e-05
3.91769e-05
2.59066e-05
9.75429e-06
1.21105e-05
2.38074e-05
3.71924e-05
2.02571e-05
1.21312e-05
7.31538e-06
8.13734e-06
2.58468e-05
3.28795e-05
2.18542e-05
1.42879e-05
9.55741e-06
1.08617e-05
2.55446e-05
3.92041e-05
3.65828e-05
2.314e-05
1.29434e-05
7.6041e-06
1.27723e-05
2.0124e-05
3.25932e-05
2.67605e-05
8.24623e-06
9.6249e-06
1.4515e-05
2.19103e-05
3.89933e-05
2.53302e-05
1.08669e-05
1.32112e-05
2.31799e-05
3.63333e-05
2.01726e-05
1.27178e-05
7.90148e-06
8.51578e-06
2.53863e-05
3.22409e-05
2.19326e-05
1.47406e-05
9.87034e-06
1.09875e-05
2.54128e-05
3.8589e-05
3.58235e-05
2.3007e-05
1.32455e-05
7.81772e-06
1.26031e-05
1.9965e-05
3.18722e-05
2.58439e-05
8.3331e-06
9.79217e-06
1.46534e-05
2.16372e-05
3.79119e-05
2.47251e-05
1.10504e-05
1.32552e-05
2.25621e-05
3.54228e-05
1.98322e-05
1.30226e-05
7.92935e-06
8.51449e-06
2.61103e-05
3.13907e-05
2.15509e-05
1.48299e-05
9.86365e-06
1.08943e-05
2.46645e-05
3.73642e-05
3.46147e-05
2.23309e-05
1.2929e-05
7.66454e-06
1.23901e-05
1.93184e-05
3.01087e-05
2.49678e-05
8.14441e-06
9.23462e-06
1.43834e-05
2.07809e-05
3.2831e-05
2.49843e-05
9.54486e-06
1.09016e-05
1.51885e-05
2.23915e-05
3.78256e-05
2.46134e-05
1.1815e-05
1.37461e-05
2.24539e-05
3.50202e-05
1.98033e-05
1.29867e-05
8.04861e-06
8.56945e-06
2.54776e-05
3.08333e-05
2.13212e-05
1.49881e-05
1.00344e-05
1.10614e-05
2.4092e-05
3.63868e-05
3.38462e-05
2.18975e-05
1.30773e-05
7.68836e-06
1.24375e-05
1.91347e-05
2.94751e-05
2.44219e-05
8.19832e-06
9.33934e-06
1.44227e-05
2.05791e-05
3.20719e-05
2.46912e-05
9.61331e-06
1.07249e-05
1.52345e-05
2.21065e-05
3.69443e-05
2.3981e-05
1.16132e-05
1.37227e-05
2.2164e-05
3.4228e-05
1.94894e-05
1.31357e-05
8.12627e-06
8.48621e-06
2.56704e-05
2.99633e-05
2.11575e-05
1.50903e-05
9.75586e-06
9.91612e-06
2.53492e-05
3.26698e-05
2.25521e-05
1.58765e-05
1.10634e-05
1.18681e-05
2.41713e-05
3.73324e-05
3.43477e-05
2.19363e-05
1.38799e-05
8.16879e-06
1.30809e-05
1.96112e-05
2.98597e-05
2.52651e-05
8.50199e-06
9.68677e-06
1.49961e-05
2.11311e-05
3.23486e-05
2.53479e-05
9.94752e-06
1.1142e-05
1.57826e-05
2.2466e-05
3.70103e-05
2.41289e-05
1.20543e-05
1.40859e-05
2.21751e-05
3.41977e-05
1.97595e-05
1.34677e-05
8.38332e-06
8.80609e-06
2.56892e-05
3.00507e-05
2.14048e-05
1.53529e-05
1.0038e-05
1.01745e-05
2.5384e-05
3.25757e-05
2.26939e-05
1.60164e-05
1.11544e-05
1.18377e-05
2.4141e-05
3.69355e-05
3.40492e-05
2.19273e-05
1.37131e-05
8.10485e-06
1.31729e-05
1.93275e-05
2.9164e-05
2.5435e-05
8.44591e-06
9.59087e-06
1.48672e-05
2.06621e-05
3.136e-05
2.48363e-05
9.87701e-06
1.09207e-05
1.55958e-05
2.19061e-05
3.55143e-05
2.33971e-05
1.17772e-05
1.38029e-05
2.14386e-05
3.28435e-05
1.9019e-05
1.31592e-05
8.24489e-06
8.5845e-06
2.50022e-05
2.87404e-05
2.05134e-05
1.47254e-05
9.60559e-06
9.72567e-06
2.42831e-05
3.08439e-05
2.17996e-05
1.5469e-05
1.06792e-05
1.05043e-05
2.47218e-05
3.21634e-05
2.26881e-05
1.64328e-05
1.16006e-05
1.2388e-05
2.40861e-05
3.60843e-05
3.31229e-05
2.19038e-05
1.42321e-05
8.30605e-06
1.3121e-05
1.93557e-05
2.88435e-05
2.45092e-05
8.56569e-06
9.64029e-06
1.48099e-05
2.06541e-05
3.05563e-05
2.40628e-05
9.79153e-06
1.06602e-05
1.53575e-05
2.17616e-05
3.17985e-05
2.45635e-05
1.0571e-05
1.16341e-05
1.63507e-05
2.25783e-05
3.55977e-05
2.38331e-05
1.22798e-05
1.42263e-05
2.19223e-05
3.29043e-05
1.94079e-05
1.35508e-05
8.49778e-06
8.74277e-06
2.54375e-05
2.88251e-05
2.07572e-05
1.50495e-05
9.86588e-06
1.0038e-05
2.41312e-05
3.08003e-05
2.20007e-05
1.5742e-05
1.09565e-05
1.08626e-05
2.49645e-05
3.20073e-05
2.2834e-05
1.66231e-05
1.18889e-05
1.25394e-05
2.40702e-05
3.57886e-05
3.29028e-05
2.2057e-05
1.44004e-05
8.5309e-06
1.35854e-05
1.95199e-05
2.87348e-05
2.53946e-05
8.75103e-06
9.83876e-06
1.50488e-05
2.07844e-05
3.03633e-05
2.40667e-05
9.85103e-06
1.06741e-05
1.53924e-05
2.16727e-05
3.12231e-05
2.4262e-05
1.05718e-05
1.16672e-05
1.63033e-05
2.24295e-05
3.47538e-05
2.34479e-05
1.23894e-05
1.42389e-05
2.15816e-05
3.22224e-05
1.93141e-05
1.32768e-05
8.46047e-06
8.87281e-06
2.38967e-05
2.80607e-05
2.05808e-05
1.50366e-05
9.93964e-06
9.99512e-06
2.42125e-05
3.0004e-05
2.157e-05
1.5431e-05
1.07685e-05
1.03889e-05
2.3933e-05
3.0896e-05
2.23014e-05
1.60144e-05
1.1226e-05
1.10829e-05
2.49996e-05
3.16744e-05
2.27965e-05
1.68742e-05
1.20384e-05
1.25343e-05
2.3817e-05
3.50638e-05
3.24286e-05
2.18742e-05
1.43131e-05
8.46089e-06
1.34764e-05
1.94144e-05
2.80298e-05
2.49854e-05
8.72094e-06
9.83966e-06
1.48897e-05
2.05144e-05
2.95116e-05
2.3553e-05
1.0015e-05
1.08143e-05
1.53965e-05
2.14399e-05
3.02861e-05
2.36745e-05
1.05062e-05
1.13435e-05
1.59675e-05
2.20502e-05
3.1292e-05
2.46368e-05
1.11314e-05
1.20924e-05
1.68936e-05
2.27653e-05
3.49194e-05
2.39331e-05
1.27604e-05
1.47254e-05
2.21648e-05
3.2414e-05
1.97724e-05
1.39622e-05
8.86917e-06
9.19521e-06
2.54688e-05
2.83902e-05
2.08207e-05
1.53153e-05
1.02331e-05
1.01703e-05
2.39726e-05
3.00936e-05
2.18384e-05
1.5743e-05
1.1051e-05
1.08435e-05
2.43098e-05
3.08812e-05
2.24485e-05
1.62999e-05
1.16096e-05
1.13026e-05
2.50445e-05
3.16805e-05
2.31009e-05
1.72128e-05
1.23267e-05
1.296e-05
2.41396e-05
3.49825e-05
3.24402e-05
2.21608e-05
1.47091e-05
8.8281e-06
1.39436e-05
1.98521e-05
2.81411e-05
2.51286e-05
9.14613e-06
1.01415e-05
1.52912e-05
2.092e-05
2.96426e-05
2.37869e-05
1.01093e-05
1.09143e-05
1.56206e-05
2.1755e-05
3.02037e-05
2.37992e-05
1.07001e-05
1.15194e-05
1.61581e-05
2.22154e-05
3.11046e-05
2.46601e-05
1.14677e-05
1.24143e-05
1.71539e-05
2.28392e-05
3.43645e-05
2.40811e-05
1.30913e-05
1.49755e-05
2.22545e-05
3.21136e-05
1.99214e-05
1.41172e-05
8.99259e-06
9.29358e-06
2.52994e-05
2.82478e-05
2.09953e-05
1.54682e-05
1.03151e-05
1.03548e-05
2.39433e-05
2.97851e-05
2.19996e-05
1.5928e-05
1.12167e-05
1.09523e-05
2.41872e-05
3.05842e-05
2.25395e-05
1.64074e-05
1.17e-05
1.14991e-05
2.49349e-05
3.12847e-05
2.30145e-05
1.71956e-05
1.24e-05
1.29764e-05
2.39435e-05
3.43233e-05
3.19546e-05
2.20318e-05
1.47509e-05
8.82681e-06
1.3954e-05
1.97355e-05
2.7619e-05
2.50708e-05
9.18732e-06
1.0172e-05
1.52043e-05
2.0687e-05
2.88018e-05
2.32021e-05
1.02476e-05
1.11118e-05
1.56684e-05
2.15214e-05
2.9494e-05
2.35502e-05
1.08246e-05
1.15281e-05
1.61072e-05
2.19894e-05
3.01796e-05
2.41025e-05
1.12666e-05
1.19768e-05
1.67058e-05
2.26005e-05
3.11773e-05
2.51499e-05
1.17304e-05
1.27035e-05
1.75443e-05
2.31978e-05
3.45539e-05
2.43201e-05
1.35098e-05
1.54249e-05
2.25188e-05
3.23523e-05
2.0317e-05
1.44021e-05
9.32817e-06
9.69252e-06
2.50825e-05
2.83866e-05
2.1466e-05
1.59745e-05
1.07989e-05
1.08786e-05
2.45567e-05
3.00021e-05
2.23857e-05
1.64035e-05
1.16937e-05
1.14856e-05
2.466e-05
3.08469e-05
2.30331e-05
1.69335e-05
1.22114e-05
1.19701e-05
2.54315e-05
3.17976e-05
2.36945e-05
1.78579e-05
1.2985e-05
1.36896e-05
2.46593e-05
3.48848e-05
3.2467e-05
2.27502e-05
1.551e-05
9.37831e-06
1.45963e-05
2.04211e-05
2.83549e-05
2.54832e-05
9.74267e-06
1.08037e-05
1.59824e-05
2.15553e-05
2.9582e-05
2.42739e-05
1.07618e-05
1.15401e-05
1.62587e-05
2.22805e-05
3.00981e-05
2.42643e-05
1.1421e-05
1.21159e-05
1.67595e-05
2.27161e-05
3.08279e-05
2.48699e-05
1.19012e-05
1.287e-05
1.76171e-05
2.32207e-05
3.39384e-05
2.41882e-05
1.37112e-05
1.56647e-05
2.25259e-05
3.18297e-05
2.03385e-05
1.45169e-05
9.49806e-06
9.8462e-06
2.48006e-05
2.80285e-05
2.15122e-05
1.61214e-05
1.10066e-05
1.1113e-05
2.45542e-05
2.95831e-05
2.24339e-05
1.6563e-05
1.19042e-05
1.1647e-05
2.45285e-05
3.03608e-05
2.30127e-05
1.7122e-05
1.24041e-05
1.22833e-05
2.52276e-05
3.13101e-05
2.36958e-05
1.80398e-05
1.32507e-05
1.39693e-05
2.46287e-05
3.43507e-05
3.20477e-05
2.28045e-05
1.57914e-05
9.61315e-06
1.47993e-05
2.05823e-05
2.82446e-05
2.5517e-05
9.91302e-06
1.09179e-05
1.61127e-05
2.1629e-05
2.93599e-05
2.4269e-05
1.10438e-05
1.18495e-05
1.6462e-05
2.23756e-05
2.99054e-05
2.43074e-05
1.16709e-05
1.24496e-05
1.70549e-05
2.28602e-05
3.06788e-05
2.49075e-05
1.22694e-05
1.33074e-05
1.80076e-05
2.34343e-05
3.37581e-05
2.44544e-05
1.42136e-05
1.6103e-05
2.28872e-05
3.17525e-05
2.08302e-05
1.51708e-05
9.9432e-06
1.03555e-05
2.54858e-05
2.84067e-05
2.19608e-05
1.6627e-05
1.1338e-05
1.14778e-05
2.51763e-05
2.99491e-05
2.29047e-05
1.71265e-05
1.22975e-05
1.20937e-05
2.52159e-05
3.08525e-05
2.34028e-05
1.7794e-05
1.31006e-05
1.39139e-05
2.40509e-05
3.35848e-05
3.13995e-05
2.24589e-05
1.57385e-05
9.64667e-06
1.48181e-05
2.03732e-05
2.75342e-05
2.50865e-05
1.00556e-05
1.10584e-05
1.62515e-05
2.14577e-05
2.88615e-05
2.42859e-05
1.12329e-05
1.20448e-05
1.66807e-05
2.23251e-05
2.97585e-05
2.4359e-05
1.20733e-05
1.31191e-05
1.76282e-05
2.2901e-05
3.25331e-05
2.37247e-05
1.39393e-05
1.58366e-05
2.22663e-05
3.0697e-05
2.03197e-05
1.47213e-05
9.78705e-06
1.01511e-05
2.43882e-05
2.73451e-05
2.14972e-05
1.63535e-05
1.12184e-05
1.14132e-05
2.45324e-05
2.89669e-05
2.23877e-05
1.68998e-05
1.22914e-05
1.21942e-05
2.442e-05
2.9854e-05
2.2973e-05
1.76219e-05
1.30932e-05
1.38813e-05
2.36677e-05
3.2459e-05
3.05236e-05
2.22102e-05
1.57835e-05
9.68682e-06
1.48135e-05
2.02886e-05
2.70135e-05
2.48862e-05
1.01076e-05
1.11649e-05
1.62978e-05
2.12739e-05
2.83501e-05
2.40247e-05
1.14309e-05
1.22527e-05
1.68014e-05
2.22279e-05
2.93948e-05
2.41537e-05
1.22598e-05
1.32942e-05
1.77975e-05
2.28908e-05
3.21956e-05
2.37434e-05
1.41714e-05
1.6025e-05
2.24323e-05
3.04779e-05
2.05151e-05
1.52207e-05
9.97555e-06
1.04849e-05
2.51124e-05
2.74251e-05
2.16199e-05
1.67034e-05
1.15442e-05
1.17664e-05
2.45916e-05
2.90247e-05
2.27154e-05
1.73273e-05
1.26372e-05
1.27135e-05
2.4735e-05
3.01091e-05
2.34078e-05
1.82254e-05
1.36569e-05
1.44623e-05
2.41777e-05
3.2796e-05
3.09657e-05
2.27777e-05
1.63074e-05
1.01805e-05
1.53691e-05
2.0906e-05
2.77034e-05
2.52021e-05
1.06798e-05
1.17079e-05
1.6981e-05
2.19886e-05
2.93082e-05
2.4787e-05
1.21141e-05
1.3277e-05
1.79323e-05
2.30622e-05
3.21373e-05
2.38572e-05
1.43645e-05
1.62322e-05
2.26869e-05
3.05236e-05
2.06202e-05
1.52904e-05
1.01909e-05
1.0765e-05
2.50588e-05
2.74724e-05
2.1864e-05
1.70244e-05
1.18494e-05
1.21373e-05
2.48414e-05
2.91363e-05
2.30209e-05
1.77012e-05
1.30234e-05
1.32042e-05
2.49987e-05
3.04697e-05
2.39592e-05
1.87906e-05
1.41836e-05
1.52078e-05
2.49335e-05
3.33833e-05
3.15004e-05
2.35212e-05
1.71346e-05
1.08027e-05
1.60164e-05
2.16153e-05
2.84709e-05
2.56916e-05
1.12376e-05
1.23562e-05
1.76906e-05
2.28459e-05
3.0281e-05
2.55585e-05
1.28192e-05
1.39123e-05
1.87296e-05
2.39203e-05
3.32756e-05
2.48328e-05
1.49491e-05
1.702e-05
2.35901e-05
3.1674e-05
2.18439e-05
1.62862e-05
1.10588e-05
1.16394e-05
2.57756e-05
2.87393e-05
2.30504e-05
1.80505e-05
1.26779e-05
1.32032e-05
2.58566e-05
3.07184e-05
2.43599e-05
1.92154e-05
1.43433e-05
1.55841e-05
2.53467e-05
3.38138e-05
3.20711e-05
2.4025e-05
1.75661e-05
1.12361e-05
1.65158e-05
2.22197e-05
2.93477e-05
2.60668e-05
1.18792e-05
1.32396e-05
1.85777e-05
2.35416e-05
3.2792e-05
2.49996e-05
1.47057e-05
1.67536e-05
2.37479e-05
3.14301e-05
2.17525e-05
1.60472e-05
1.06962e-05
1.13346e-05
2.60704e-05
2.86018e-05
2.28377e-05
1.76758e-05
1.24685e-05
1.3029e-05
2.52273e-05
3.02026e-05
2.39844e-05
1.88467e-05
1.4198e-05
1.54112e-05
2.47776e-05
3.30569e-05
3.15705e-05
2.36204e-05
1.73534e-05
1.11977e-05
1.64782e-05
2.20964e-05
2.89622e-05
2.57071e-05
1.19923e-05
1.3321e-05
1.86926e-05
2.34347e-05
3.23939e-05
2.50356e-05
1.4935e-05
1.70174e-05
2.38879e-05
3.11645e-05
2.20077e-05
1.64079e-05
1.11138e-05
1.18691e-05
2.57723e-05
2.8759e-05
2.3145e-05
1.84383e-05
1.3076e-05
1.44381e-05
2.4434e-05
3.20103e-05
3.08118e-05
2.32604e-05
1.65367e-05
1.08058e-05
1.58871e-05
2.14824e-05
2.82085e-05
2.49517e-05
1.1773e-05
1.31067e-05
1.81995e-05
2.28738e-05
3.15713e-05
2.44097e-05
1.47001e-05
1.68309e-05
2.33782e-05
3.04481e-05
2.16205e-05
1.62034e-05
1.10197e-05
1.18633e-05
2.52711e-05
2.8252e-05
2.28878e-05
1.83634e-05
1.31266e-05
1.45887e-05
2.4361e-05
3.15086e-05
3.03818e-05
2.32293e-05
1.66357e-05
1.08492e-05
1.5966e-05
2.14938e-05
2.81394e-05
2.58506e-05
1.16506e-05
1.30018e-05
1.80844e-05
2.2704e-05
3.13671e-05
2.39454e-05
1.47811e-05
1.69781e-05
2.30477e-05
3.02959e-05
2.16468e-05
1.63169e-05
1.12899e-05
1.22483e-05
2.48622e-05
2.82046e-05
2.31493e-05
1.87174e-05
1.35896e-05
1.52495e-05
2.48694e-05
3.1945e-05
3.08453e-05
2.38595e-05
1.73405e-05
1.14783e-05
1.67007e-05
2.21685e-05
2.89279e-05
2.5658e-05
1.24715e-05
1.38537e-05
1.91735e-05
2.36769e-05
3.28411e-05
2.56131e-05
1.57478e-05
1.79868e-05
2.47769e-05
3.1869e-05
2.30011e-05
1.76781e-05
1.24176e-05
1.44426e-05
2.56141e-05
3.15075e-05
3.07066e-05
2.46132e-05
1.68568e-05
1.15104e-05
1.6824e-05
2.23167e-05
2.94102e-05
2.57107e-05
1.26652e-05
1.4065e-05
1.93454e-05
2.41135e-05
3.32402e-05
2.58718e-05