/*--------------------------------*- C++ -*----------------------------------*\
| =========                 |                                                 |
| \\      /  F ield         | OpenFOAM: The Open Source CFD Toolbox           |
|  \\    /   O peration     | Version:  v2006                                 |
|   \\  /    A nd           | Website:  www.openfoam.com                      |
|    \\/     M anipulation  |                                                 |
\*---------------------------------------------------------------------------*/
FoamFile
{
    version     2.0;
    format      ascii;
    class       volScalarField;
    location    "0.119";
    object      Ma;
}
// * * * * * * * * * * * * * * * * * * * * * * * * * * * * * * * * * * * * * //

dimensions      [0 0 0 0 0 0 0];


internalField   nonuniform List<scalar> 
16277
(
0.13939
0.139391
0.13939
0.139389
0.139389
0.139384
0.139371
0.139326
0.139223
0.139061
0.138856
0.13863
0.138397
0.138162
0.137926
0.137685
0.137437
0.13718
0.136911
0.136632
0.136341
0.136038
0.135725
0.135401
0.135066
0.134721
0.134365
0.133999
0.133622
0.133236
0.13284
0.132435
0.132021
0.131598
0.131167
0.130728
0.130282
0.129828
0.129367
0.1289
0.128427
0.127949
0.127466
0.126978
0.126487
0.125992
0.125494
0.124994
0.124492
0.123989
0.123485
0.122981
0.122477
0.121975
0.121474
0.120975
0.12048
0.119987
0.119499
0.119016
0.118538
0.118066
0.1176
0.117141
0.116691
0.116248
0.115815
0.115391
0.114977
0.114573
0.11418
0.113799
0.11343
0.113074
0.112732
0.112402
0.112086
0.111782
0.111486
0.111196
0.110909
0.110632
0.11039
0.110219
0.110144
0.110142
0.110172
0.110207
0.110235
0.110232
0.110211
0.11014
0.109962
0.109664
0.109179
0.108622
0.106571
0.105256
0.108647
0.109316
0.109386
0.108499
0.103772
0.102304
0.108323
0.10945
0.109443
0.108053
0.100954
0.0997104
0.107766
0.109402
0.109288
0.107397
0.0985492
0.0974998
0.10706
0.10917
0.108998
0.106678
0.0965072
0.0956373
0.106346
0.108845
0.108639
0.105946
0.0947948
0.0940426
0.105608
0.108453
0.108216
0.105198
0.0933004
0.0926299
0.104858
0.108009
0.107754
0.104448
0.0919645
0.0913629
0.104117
0.107538
0.107264
0.103703
0.0907492
0.0901905
0.103371
0.107034
0.106742
0.102953
0.0896134
0.0890907
0.102624
0.106503
0.106204
0.10221
0.0885512
0.0880587
0.101886
0.10596
0.105652
0.101472
0.0875444
0.0870735
0.10115
0.105401
0.105085
0.100735
0.0865787
0.0861248
0.100414
0.104828
0.104503
0.099998
0.0856451
0.0852041
0.099677
0.104239
0.103906
0.0992581
0.0847359
0.0843047
0.0989355
0.103636
0.103293
0.098513
0.0838449
0.0834206
0.0981877
0.103016
0.102664
0.0977607
0.0829668
0.0825473
0.0974314
0.102379
0.102018
0.0969993
0.0820976
0.0816809
0.0966653
0.101724
0.101353
0.0962274
0.0812336
0.0808183
0.0958877
0.101051
0.100669
0.0954432
0.0803719
0.0799567
0.0950967
0.100357
0.0999648
0.0946448
0.07951
0.0790935
0.0942908
0.0996427
0.0992389
0.093831
0.0786453
0.0782264
0.0934689
0.0989061
0.0984902
0.0930002
0.0777754
0.0773529
0.0926292
0.098146
0.0977174
0.0921508
0.0768981
0.0764709
0.09177
0.0973612
0.0969193
0.0912811
0.0760111
0.0755783
0.0908896
0.0965504
0.0960944
0.0903894
0.0751125
0.0746729
0.0899864
0.0957121
0.0952415
0.0894741
0.0742
0.0737527
0.0890587
0.094845
0.0943591
0.0885336
0.0732718
0.0728159
0.088105
0.0939477
0.093446
0.0875664
0.0723261
0.0718607
0.0871239
0.0930191
0.0925009
0.0865711
0.0713614
0.0708858
0.0861141
0.092058
0.091523
0.0855467
0.0703762
0.06989
0.0850747
0.0910636
0.0905114
0.0844923
0.0693696
0.0688724
0.084005
0.0900352
0.0894657
0.0834075
0.0683412
0.067833
0.0829048
0.0889728
0.0883862
0.0822925
0.0672911
0.0667725
0.0817747
0.0878767
0.0872735
0.0811482
0.0662206
0.0656925
0.0806163
0.0867482
0.0861296
0.0799769
0.0651317
0.0645956
0.0794323
0.0855898
0.0849573
0.0787815
0.0640277
0.0634856
0.0782263
0.0844049
0.0837608
0.0775668
0.0629131
0.0623681
0.0770037
0.0831985
0.0825458
0.076339
0.0617943
0.0612504
0.075772
0.0819772
0.0813202
0.0751065
0.0606799
0.0601423
0.074541
0.08075
0.0800942
0.0738805
0.059581
0.0590564
0.073323
0.0795286
0.0788808
0.0726751
0.0585117
0.0580084
0.0721339
0.0783274
0.0776964
0.0715075
0.0574893
0.0570174
0.0709928
0.0771648
0.076561
0.0703994
0.0565351
0.0561068
0.0699236
0.0760629
0.0754991
0.0693764
0.0556743
0.0553036
0.0689537
0.0750481
0.0745384
0.0684679
0.0549356
0.0546414
0.0681125
0.0741496
0.0737103
0.0677056
0.0543527
0.054165
0.0674347
0.0733978
0.0730468
0.0671246
0.0539673
0.0538992
0.0669591
0.0728343
0.0725838
0.0667601
0.0538025
0.0538654
0.0667139
0.0724856
0.0723471
0.0666368
0.0538774
0.0540752
0.0667172
0.0723712
0.0723524
0.066768
0.0541989
0.0545176
0.0669666
0.0724922
0.0725854
0.0671331
0.054749
0.0552018
0.0674666
0.0728586
0.0730791
0.0677655
0.0555631
0.0561435
0.068237
0.0734906
0.0738322
0.0686555
0.0566077
0.0572526
0.0692144
0.0743342
0.0747592
0.0697107
0.0577707
0.0584533
0.0703325
0.0753308
0.0758156
0.0708805
0.0589975
0.0596934
0.0715396
0.0764335
0.0769584
0.0721174
0.0602426
0.0609338
0.0727941
0.0776042
0.0781505
0.0733822
0.0614708
0.0621406
0.0740577
0.0788057
0.0793555
0.0746382
0.0626482
0.0632821
0.0752957
0.0800032
0.0805404
0.0758528
0.063747
0.0643339
0.0764783
0.081166
0.0816771
0.0769988
0.064746
0.0652772
0.0775815
0.0822685
0.0827423
0.0780551
0.0656295
0.0661
0.0785862
0.08329
0.0837179
0.0790035
0.0663908
0.0667978
0.0794779
0.084215
0.0845892
0.0798327
0.0670314
0.0673716
0.0802484
0.0850318
0.0853519
0.0805428
0.0675483
0.0678241
0.0808996
0.0857388
0.0860051
0.0811349
0.0679471
0.0681633
0.0814352
0.0863368
0.0865509
0.0816145
0.0682379
0.0684013
0.0818624
0.0868306
0.0869964
0.0819911
0.0684342
0.0685533
0.0821927
0.0872295
0.0873527
0.0822775
0.0685519
0.0686357
0.0824397
0.0875454
0.0876319
0.0824876
0.0686077
0.0686642
0.0826171
0.0877906
0.0878464
0.0826348
0.0686161
0.0686524
0.0827379
0.0879772
0.0880076
0.0827314
0.0685899
0.0686115
0.0828135
0.0881156
0.0881255
0.0827878
0.0685387
0.0685492
0.0828532
0.088215
0.0882086
0.0828127
0.0684693
0.0684728
0.0828659
0.0882842
0.0882649
0.0828143
0.0683881
0.0683868
0.0828579
0.0883292
0.0882999
0.0827981
0.0682995
0.0682951
0.0828342
0.088355
0.0883172
0.0827675
0.0682056
0.0682006
0.0827987
0.088366
0.0883222
0.0827274
0.0681105
0.0681049
0.0827547
0.0883656
0.0883171
0.0826804
0.068015
0.0680102
0.0827056
0.0883571
0.0883039
0.0826276
0.0679186
0.0679145
0.0826511
0.0883416
0.0882875
0.0825734
0.0678256
0.0678235
0.0825966
0.0883233
0.088266
0.082517
0.0677342
0.0677313
0.0825381
0.0882999
0.0882418
0.0824587
0.0676442
0.0676456
0.0824826
0.0882772
0.0882198
0.0824049
0.0675612
0.0675646
0.0824301
0.0882558
0.0881992
0.0823542
0.0674828
0.0674951
0.0823884
0.088255
0.0882153
0.0823274
0.0674146
0.0675114
0.0823992
0.0882987
0.0882844
0.082407
0.0674908
0.0677123
0.0826157
0.0884747
0.088638
0.0828538
0.0681353
0.0689737
0.083425
0.0891692
0.0907105
0.0857203
0.0722819
0.0715758
0.0829907
0.0881989
0.0916166
0.0941286
0.0955841
0.0960833
0.0963887
0.096993
0.0972351
0.0975009
0.0976205
0.0977228
0.0977453
0.0977135
0.0976397
0.0974452
0.0972435
0.0967373
0.0964492
0.096127
0.0957318
0.0950533
0.0933214
0.0895845
0.0817478
0.0717752
0.0512284
0.0496293
0.0707466
0.0809356
0.0800895
0.0697855
0.0483521
0.047539
0.0691486
0.0795605
0.0793024
0.0688905
0.0469429
0.046861
0.0687679
0.0791846
0.0790764
0.0686577
0.0465319
0.0465182
0.068587
0.0790869
0.0790991
0.0685997
0.0465359
0.0465636
0.0686236
0.0791218
0.0791484
0.0686579
0.046603
0.0466475
0.0687002
0.0791835
0.0792163
0.0687428
0.0466945
0.0467466
0.0687913
0.0792561
0.0792949
0.0688407
0.0468018
0.0468584
0.0688935
0.0793379
0.0793788
0.0689455
0.0469142
0.0469724
0.0689996
0.0794237
0.0794674
0.0690547
0.0470322
0.0470933
0.0691115
0.0795149
0.0795576
0.0691647
0.0471514
0.0472136
0.0692215
0.0796041
0.0796509
0.0692802
0.047278
0.04734
0.0693387
0.0796994
0.0797441
0.069395
0.0474025
0.0474686
0.0694555
0.0797936
0.0798415
0.0695153
0.0475341
0.0475987
0.0695761
0.0798925
0.0799395
0.0696353
0.0476644
0.0477317
0.0696975
0.0799909
0.0800408
0.0697601
0.0478012
0.0478699
0.0698238
0.0800935
0.0801438
0.0698869
0.0479398
0.0480106
0.069952
0.0801974
0.0802478
0.0700147
0.0480802
0.0481516
0.0700814
0.0803034
0.0803562
0.0701459
0.0482227
0.048294
0.070211
0.0804106
0.0804639
0.0702773
0.0483675
0.0484421
0.070346
0.0805219
0.0805759
0.0704122
0.0485151
0.0485894
0.0704809
0.0806339
0.0806904
0.0705495
0.0486643
0.0487382
0.0706185
0.0807501
0.080806
0.0706854
0.0488095
0.0488828
0.0707557
0.0808671
0.0809268
0.0708266
0.048957
0.0490324
0.0708992
0.0809905
0.0810497
0.0709696
0.0491059
0.049181
0.071044
0.0811155
0.0811804
0.0711189
0.0492563
0.0493322
0.0711948
0.0812483
0.0813154
0.0712706
0.0494063
0.0494806
0.0713491
0.0813876
0.0814586
0.0714272
0.0495527
0.0496253
0.0715075
0.081535
0.0816091
0.0715874
0.0496958
0.0497658
0.0716709
0.0816895
0.0817692
0.0717559
0.0498354
0.0499059
0.0718441
0.0818554
0.0819412
0.0719329
0.0499739
0.050042
0.072026
0.0820338
0.0821284
0.0721211
0.0501071
0.0501718
0.0722198
0.0822289
0.0823298
0.0723198
0.0502317
0.0502923
0.0724258
0.0824393
0.0825521
0.0725356
0.0503516
0.0504078
0.072649
0.0826717
0.0827942
0.0727656
0.0504627
0.0505191
0.0728901
0.0829264
0.0830626
0.0730205
0.0505762
0.0506339
0.0731593
0.0832088
0.0833595
0.0733049
0.0506931
0.0507532
0.0734604
0.083523
0.0836955
0.0736247
0.0508142
0.0508782
0.073799
0.0838788
0.0840699
0.0739847
0.0509505
0.051036
0.0741861
0.0842745
0.0844897
0.0744043
0.0511366
0.0512544
0.0746421
0.0847214
0.0849636
0.0748993
0.0513955
0.051561
0.075182
0.0852285
0.0855058
0.0754846
0.0517564
0.0519834
0.0758106
0.0858017
0.0861125
0.0761598
0.0522454
0.0525629
0.0765463
0.0864493
0.0867993
0.0769681
0.0529451
0.053399
0.0774366
0.0871774
0.0875793
0.0779495
0.053931
0.0545565
0.0785157
0.0880119
0.0884742
0.0791381
0.0552805
0.0561325
0.0798446
0.0890022
0.0896015
0.080671
0.0571954
0.0585362
0.0816253
0.090269
0.0909358
0.0826084
0.0598772
0.0611443
0.0835545
0.0915384
0.0920248
0.0843381
0.0623693
0.0634397
0.0847821
0.0923487
0.0926072
0.085424
0.0644902
0.06546
0.0857952
0.0928142
0.0929597
0.0862067
0.0665423
0.0676977
0.086619
0.0931181
0.093144
0.08691
0.0687455
0.0696526
0.0871727
0.0931297
0.09312
0.0874572
0.0706366
0.0717
0.0877361
0.0931224
0.0930805
0.0879656
0.0727857
0.0733762
0.0881507
0.0928833
0.0922843
0.0877744
0.0732794
0.0583885
0.08095
0.0891909
0.0916322
0.0839722
0.0621111
0.0620777
0.0843439
0.091794
0.0916778
0.0845137
0.0630112
0.0642899
0.0845866
0.0914476
0.0915128
0.0850691
0.0658118
0.0674733
0.08542
0.0914894
0.0915657
0.0859424
0.0690604
0.07056
0.0861998
0.0914471
0.0914353
0.0866466
0.0720611
0.0734381
0.0869703
0.0913759
0.0912469
0.0872572
0.0746721
0.0750689
0.0871286
0.0906889
0.0882572
0.0820012
0.0646331
0.0686854
0.0847533
0.0903369
0.0904832
0.0851498
0.0695235
0.0711658
0.0857504
0.0904116
0.090389
0.0860889
0.0724076
0.0735423
0.0862969
0.0903056
0.0901863
0.0865887
0.074758
0.0753812
0.0865974
0.0898857
0.0892399
0.0862106
0.0756724
0.0667788
0.081743
0.0871668
0.0886641
0.0842451
0.0700755
0.0709531
0.0844007
0.0884997
0.0881002
0.0844841
0.0721876
0.0733215
0.0844333
0.0877357
0.0873745
0.0845225
0.0745076
0.0748354
0.0841435
0.0865212
0.0845601
0.0803351
0.0671568
0.0710647
0.0822093
0.0858636
0.0856457
0.0824679
0.0720875
0.0731701
0.0824045
0.0851256
0.0845839
0.082308
0.0737971
0.0737453
0.0815899
0.0835297
0.0818382
0.0784579
0.0672594
0.0703241
0.0797045
0.0825226
0.0816757
0.07928
0.0707087
0.0716041
0.0788621
0.0806905
0.0793329
0.077926
0.0713915
0.0661332
0.0751803
0.0776645
0.0777805
0.0756839
0.0688084
0.0688357
0.0747769
0.0764493
0.0747611
0.0736582
0.0688334
0.0677074
0.0717522
0.0724593
0.0701399
0.0686759
0.0630821
0.0635644
0.0675732
0.0684314
0.0650138
0.064699
0.0616365
0.0568761
0.0607679
0.0618458
0.0586777
0.0582007
0.0558829
0.05176
0.0526273
0.0525373
0.0452042
0.0449154
0.0437108
0.0348563
0.0347515
0.035179
0.0239802
0.0220378
0.0206157
0.00593362
0.00913348
0.015006
0.02956
0.0279379
0.0283304
0.0536074
0.0519385
0.0512224
0.0693123
0.0707697
0.072199
0.0833221
0.0831535
0.0822559
0.086697
0.086628
0.0854386
0.089033
0.0917223
0.0917622
0.0932136
0.0924442
0.0890046
0.0908396
0.0952379
0.0959335
0.0968769
0.0952503
0.0904601
0.0873016
0.0945582
0.0966068
0.098462
0.0969112
0.0895562
0.086752
0.0949103
0.0974722
0.0994142
0.0976635
0.0904534
0.0894251
0.0970125
0.0994322
0.0981951
0.0950281
0.0864281
0.0896329
0.0976744
0.0999416
0.0995779
0.0967216
0.0881337
0.0851931
0.0945496
0.0979814
0.0997977
0.0975957
0.0888882
0.087242
0.0964255
0.0995159
0.0977679
0.0938987
0.083805
0.0877634
0.0968949
0.0995237
0.0993151
0.0961734
0.0866961
0.0832041
0.0934679
0.0974115
0.0992357
0.096457
0.0874129
0.0866017
0.0959685
0.0991743
0.0971776
0.0932738
0.0830638
0.0867732
0.0961677
0.0989493
0.0989309
0.0955732
0.0858757
0.0826986
0.0930103
0.0970522
0.0988288
0.0960937
0.0866995
0.0855449
0.0952999
0.0987014
0.09688
0.092658
0.082122
0.0865089
0.0958358
0.0986476
0.0987186
0.095333
0.0854019
0.0837518
0.0940065
0.0980854
0.0955891
0.0912069
0.079159
0.0838884
0.0947549
0.0977032
0.0977789
0.0941465
0.082871
0.0791151
0.0908942
0.0956748
0.0978582
0.0945627
0.0837784
0.0824932
0.0936097
0.0976258
0.0953429
0.0909399
0.0785461
0.0835806
0.0946203
0.097601
0.0977495
0.0939749
0.0825849
0.0789507
0.0908016
0.0955957
0.0977098
0.09439
0.0834215
0.0822093
0.0937231
0.0976119
0.0955659
0.0906585
0.0788606
0.083698
0.0945793
0.0979717
0.0978808
0.0938978
0.0826433
0.0788705
0.0909712
0.095554
0.0979448
0.0946436
0.0835614
0.0825387
0.0937555
0.0979133
0.0958072
0.0912105
0.0789893
0.0838898
0.0950719
0.0983818
0.0983782
0.0941387
0.0828774
0.0785864
0.0912743
0.0958676
0.0983478
0.095102
0.0833647
0.0810923
0.0929977
0.0971587
0.0996073
0.0966938
0.0863737
0.085813
0.0961237
0.0997027
0.0977457
0.0934107
0.0826464
0.0867984
0.0968411
0.0998889
0.0997454
0.0960063
0.0855182
0.0823523
0.0934232
0.0979474
0.100433
0.0974485
0.0873402
0.0866488
0.0970341
0.100651
0.0986913
0.0944192
0.0835985
0.0878
0.0980273
0.100843
0.100706
0.0969161
0.0862535
0.0826438
0.09398
0.0987645
0.101147
0.0980037
0.0876264
0.0871044
0.0975453
0.101531
0.0994691
0.0951781
0.0833805
0.0875737
0.0988243
0.101801
0.100379
0.0964626
0.0850635
0.088907
0.0995405
0.102483
0.102413
0.0987348
0.087876
0.0851064
0.0962129
0.10066
0.103146
0.100205
0.089825
0.0890231
0.0996023
0.103343
0.101294
0.0970656
0.085468
0.0896966
0.10076
0.103638
0.1022
0.0982822
0.0870133
0.091121
0.101394
0.104374
0.104622
0.101088
0.0908231
0.0881803
0.0987677
0.10293
0.105176
0.102404
0.0924226
0.0914662
0.101616
0.105366
0.103443
0.0992061
0.0877563
0.0917587
0.102811
0.105704
0.104178
0.100222
0.0889255
0.0930551
0.103312
0.106206
0.106577
0.103082
0.0928108
0.0900216
0.100824
0.104974
0.107243
0.10437
0.0941935
0.0932343
0.103939
0.107349
0.10526
0.100732
0.090007
0.0935805
0.10457
0.107619
0.106153
0.102214
0.0907471
0.0950524
0.105561
0.108384
0.108666
0.104914
0.0945442
0.0913653
0.102667
0.10686
0.109332
0.106497
0.0955752
0.0934871
0.104534
0.108297
0.110642
0.107937
0.0977912
0.0966085
0.107041
0.110481
0.108262
0.103866
0.0932925
0.0965457
0.10736
0.11041
0.109354
0.105372
0.0942793
0.0992647
0.109158
0.111917
0.112083
0.108646
0.0984885
0.0954206
0.105699
0.110204
0.112609
0.109685
0.0991659
0.096844
0.107721
0.11148
0.113641
0.110996
0.100958
0.0998153
0.109868
0.113461
0.111253
0.10704
0.0958288
0.0997794
0.110651
0.113449
0.112736
0.109045
0.0980841
0.102453
0.112577
0.115265
0.115394
0.112227
0.101737
0.0986302
0.108975
0.11333
0.115618
0.112849
0.101889
0.0994247
0.110635
0.11446
0.116765
0.114001
0.103275
0.100643
0.111502
0.115281
0.117184
0.114447
0.104343
0.103993
0.114054
0.117507
0.115874
0.111726
0.101244
0.104972
0.115512
0.118297
0.11732
0.113588
0.102765
0.106788
0.116915
0.119598
0.119495
0.11623
0.105711
0.102574
0.112965
0.11739
0.119623
0.116819
0.105613
0.102631
0.114273
0.118189
0.120389
0.117564
0.106366
0.104686
0.115814
0.119515
0.121972
0.119412
0.109319
0.108584
0.118683
0.12217
0.120386
0.116366
0.105388
0.108969
0.119988
0.122718
0.121429
0.117641
0.106441
0.110334
0.121148
0.123773
0.122599
0.119032
0.108289
0.111719
0.121864
0.124517
0.124279
0.120814
0.110404
0.107328
0.117899
0.122394
0.124899
0.122145
0.11127
0.109186
0.120271
0.124004
0.126414
0.123861
0.113167
0.111217
0.121889
0.125417
0.127574
0.125071
0.115175
0.114369
0.124246
0.127618
0.125778
0.121791
0.111079
0.114351
0.12521
0.127957
0.126551
0.122725
0.11168
0.115015
0.125985
0.128742
0.127752
0.124038
0.113186
0.117384
0.127433
0.130002
0.130201
0.12665
0.116741
0.1132
0.124536
0.12842
0.130753
0.128056
0.116738
0.114387
0.12589
0.129585
0.131848
0.129389
0.118216
0.116095
0.127188
0.130719
0.132794
0.13026
0.120029
0.11905
0.12913
0.132691
0.130584
0.126539
0.115027
0.118517
0.129899
0.132813
0.131825
0.127851
0.116541
0.120888
0.13186
0.134498
0.133488
0.129807
0.118981
0.122706
0.133303
0.135819
0.134759
0.131295
0.12073
0.124467
0.134335
0.136811
0.136802
0.133609
0.123539
0.120662
0.130544
0.134918
0.137108
0.134418
0.123374
0.120681
0.132121
0.135889
0.138104
0.13534
0.123945
0.121642
0.132994
0.136872
0.139224
0.136614
0.125868
0.124093
0.134713
0.138314
0.140568
0.138117
0.128191
0.127484
0.137322
0.140742
0.139006
0.135097
0.124002
0.127464
0.138628
0.141326
0.140153
0.136345
0.12506
0.128734
0.139902
0.142515
0.141288
0.137599
0.126537
0.130193
0.140914
0.143453
0.142231
0.138639
0.12805
0.13152
0.141607
0.144214
0.144331
0.140801
0.130856
0.127513
0.138694
0.142653
0.145089
0.142274
0.131067
0.128728
0.140101
0.143982
0.146434
0.143887
0.13264
0.130538
0.141652
0.145324
0.147486
0.144948
0.134117
0.132003
0.142796
0.1464
0.148475
0.145927
0.135931
0.135002
0.145271
0.1485
0.146535
0.14209
0.132005
0.134624
0.146027
0.148714
0.147593
0.143747
0.13191
0.136103
0.147511
0.150173
0.149141
0.145344
0.134197
0.137991
0.149018
0.151604
0.1505
0.146845
0.135917
0.139431
0.15017
0.152732
0.151684
0.148125
0.137524
0.141247
0.151358
0.153844
0.153937
0.150356
0.140453
0.136619
0.148256
0.152168
0.154555
0.151571
0.140171
0.137589
0.149146
0.153164
0.155442
0.15275
0.141128
0.138781
0.150269
0.154189
0.156629
0.153941
0.142792
0.140947
0.151871
0.155616
0.15795
0.155367
0.144592
0.142787
0.153461
0.157041
0.159344
0.156861
0.146899
0.146075
0.156019
0.159459
0.157674
0.153687
0.142547
0.146151
0.157315
0.160078
0.158932
0.155008
0.143824
0.147704
0.158873
0.161492
0.16033
0.156575
0.14549
0.14898
0.159998
0.162622
0.161364
0.157618
0.146765
0.150354
0.161003
0.163611
0.162684
0.159144
0.148591
0.152351
0.162439
0.164915
0.165091
0.161549
0.151669
0.147971
0.159515
0.163407
0.165787
0.162877
0.151315
0.148978
0.160585
0.164612
0.167124
0.164521
0.152827
0.150505
0.16218
0.165966
0.168341
0.165761
0.154363
0.152341
0.163535
0.167214
0.169429
0.166841
0.155849
0.153965
0.164786
0.168414
0.170714
0.168214
0.158049
0.157248
0.167344
0.170885
0.169152
0.165125
0.153731
0.157306
0.168802
0.17163
0.170587
0.166634
0.155092
0.159069
0.170635
0.173243
0.172099
0.168281
0.156737
0.160632
0.171926
0.174534
0.173455
0.169777
0.158708
0.162238
0.173192
0.175786
0.174806
0.171175
0.160363
0.164321
0.174575
0.177075
0.177238
0.173564
0.163515
0.159511
0.171629
0.175561
0.17812
0.175058
0.163305
0.160933
0.172666
0.176853
0.179421
0.176715
0.164883
0.162568
0.174369
0.178281
0.180844
0.17818
0.166464
0.16442
0.175913
0.179741
0.182154
0.179504
0.168104
0.166098
0.177279
0.181072
0.183556
0.180969
0.170042
0.168231
0.179042
0.182667
0.184993
0.182463
0.1724
0.171557
0.181865
0.185301
0.183619
0.179274
0.168654
0.172062
0.183364
0.186115
0.185161
0.181283
0.169797
0.173874
0.185279
0.187879
0.186823
0.183047
0.171801
0.175578
0.186703
0.189317
0.188263
0.184514
0.173642
0.177334
0.188085
0.190672
0.189734
0.186146
0.175458
0.179401
0.189574
0.192068
0.192275
0.188725
0.17846
0.175189
0.186569
0.190645
0.193188
0.190376
0.17885
0.176337
0.187987
0.192029
0.194652
0.191991
0.180299
0.178244
0.18982
0.193646
0.196143
0.193537
0.182048
0.180193
0.191436
0.195209
0.197829
0.195305
0.184255
0.182543
0.193495
0.197068
0.199448
0.197014
0.186779
0.185504
0.196182
0.199641
0.197937
0.193445
0.182653
0.186241
0.197728
0.200576
0.199505
0.195481
0.18373
0.187855
0.199535
0.202269
0.201196
0.197246
0.185733
0.189849
0.20119
0.20387
0.20293
0.199149
0.188021
0.191879
0.202881
0.205494
0.204696
0.201011
0.19005
0.194405
0.204725
0.207249
0.207742
0.204148
0.193663
0.190622
0.202052
0.206281
0.209041
0.206229
0.19468
0.192431
0.204074
0.208043
0.210707
0.208001
0.19626
0.193864
0.205547
0.209527
0.212019
0.209288
0.197722
0.195635
0.207067
0.210971
0.21366
0.211029
0.199842
0.197898
0.209112
0.212835
0.215337
0.212781
0.202203
0.201471
0.212271
0.215888
0.214356
0.210036
0.198552
0.202387
0.214143
0.217064
0.216154
0.212073
0.200206
0.204763
0.216467
0.219182
0.218458
0.214548
0.202907
0.20791
0.219015
0.221485
0.220741
0.217186
0.206119
0.209622
0.220482
0.223034
0.223085
0.219279
0.208257
0.204565
0.217099
0.221358
0.224136
0.221142
0.208692
0.206268
0.218752
0.223013
0.225902
0.223123
0.21077
0.208463
0.22081
0.224901
0.227789
0.225016
0.213137
0.211013
0.22294
0.226938
0.229697
0.226988
0.215878
0.215064
0.226717
0.23042
0.228882
0.223989
0.212655
0.216734
0.228973
0.231934
0.231344
0.227201
0.214637
0.220245
0.232309
0.234849
0.233847
0.22996
0.217913
0.221543
0.23355
0.236334
0.235192
0.23118
0.219099
0.223587
0.235072
0.23789
0.238152
0.233976
0.222356
0.218658
0.232013
0.236546
0.239705
0.236547
0.223661
0.221116
0.234088
0.238568
0.241652
0.238747
0.226045
0.223932
0.236589
0.240838
0.24422
0.241382
0.229056
0.226976
0.23945
0.243594
0.246652
0.243919
0.232203
0.231837
0.243785
0.247787
0.246707
0.242265
0.229407
0.234259
0.247131
0.249998
0.248521
0.244159
0.230963
0.235328
0.248262
0.251246
0.250033
0.245739
0.232811
0.237463
0.250125
0.253076
0.252126
0.247859
0.235142
0.240091
0.252128
0.255038
0.255671
0.251476
0.239135
0.235942
0.249194
0.254071
0.257276
0.254059
0.240991
0.238616
0.251972
0.256486
0.260094
0.2572
0.244348
0.242247
0.255401
0.259644
0.263136
0.260417
0.248213
0.248551
0.260807
0.264763
0.26336
0.258832
0.245555
0.249606
0.263001
0.266161
0.264558
0.259923
0.246267
0.251069
0.264489
0.267671
0.266549
0.261987
0.248526
0.253773
0.266865
0.269922
0.269181
0.264774
0.251622
0.257064
0.269442
0.272447
0.273352
0.269101
0.256227
0.253571
0.266548
0.271826
0.275233
0.271965
0.258779
0.256503
0.270034
0.274639
0.278718
0.275859
0.262717
0.261071
0.274438
0.278734
0.282607
0.280288
0.26884
0.268608
0.280402
0.283849
0.281758
0.276986
0.264163
0.267582
0.281115
0.284467
0.28317
0.27842
0.26442
0.269922
0.283572
0.286756
0.286001
0.28142
0.267496
0.273361
0.286386
0.289455
0.290458
0.286011
0.272418
0.269531
0.283444
0.288935
0.292521
0.289039
0.275344
0.272821
0.287069
0.291947
0.29617
0.293082
0.27975
0.279652
0.293756
0.298306
0.297629
0.292245
0.277913
0.285279
0.299052
0.301992
0.300739
0.296174
0.281962
0.285963
0.300387
0.3038
0.302267
0.297276
0.282427
0.288132
0.302138
0.305548
0.306273
0.301353
0.286852
0.283486
0.298777
0.304608
0.308567
0.30479
0.289804
0.287114
0.302719
0.307919
0.312322
0.309027
0.294562
0.294078
0.309306
0.314192
0.312908
0.30698
0.291209
0.29849
0.313717
0.317416
0.317746
0.312663
0.297115
0.306646
0.320392
0.323037
0.323941
0.31968
0.305097
0.29958
0.315315
0.321193
0.324448
0.32042
0.304526
0.300815
0.317417
0.323044
0.327231
0.323539
0.308173
0.307158
0.323239
0.328635
0.327102
0.320724
0.303713
0.311126
0.327627
0.331753
0.331229
0.325455
0.308334
0.317213
0.332891
0.33642
0.339061
0.333762
0.317138
0.314913
0.332104
0.33843
0.344309
0.341122
0.326405
0.324112
0.339313
0.344059
0.347782
0.344294
0.328839
0.325609
0.342404
0.34756
0.344994
0.33819
0.321049
0.327917
0.345043
0.349406
0.348374
0.34238
0.32457
0.332968
0.349419
0.353283
0.355363
0.349668
0.332422
0.329406
0.34734
0.354161
0.359468
0.355318
0.338308
0.336561
0.354276
0.360134
0.366688
0.363869
0.349077
0.352251
0.367317
0.371101
0.369757
0.364527
0.348838
0.35239
0.368817
0.372958
0.372455
0.366751
0.348617
0.343995
0.362543
0.369937
0.375136
0.370616
0.352289
0.349171
0.368264
0.374526
0.380248
0.376287
0.358921
0.359119
0.377452
0.383247
0.382704
0.375675
0.356759
0.367328
0.384531
0.388575
0.393212
0.387945
0.36935
0.369425
0.387533
0.393846
0.399737
0.395819
0.378004
0.372887
0.393195
0.399309
0.395837
0.387686
0.366678
0.375246
0.395532
0.400868
0.399591
0.392451
0.371445
0.382455
0.401281
0.405805
0.40908
0.402676
0.382899
0.38105
0.401262
0.408898
0.415676
0.411502
0.393731
0.397263
0.416302
0.421452
0.422764
0.416744
0.398315
0.407086
0.425203
0.428955
0.428236
0.422094
0.401364
0.394504
0.416566
0.424865
0.429938
0.42456
0.40427
0.402644
0.424517
0.431597
0.430751
0.422134
0.399619
0.413622
0.43372
0.438622
0.444315
0.43767
0.415911
0.41835
0.439858
0.447029
0.456317
0.453587
0.436035
0.432592
0.452993
0.457964
0.456765
0.448938
0.425343
0.416011
0.442876
0.452762
0.458719
0.452588
0.428538
0.427132
0.453422
0.461426
0.461659
0.451804
0.425373
0.446161
0.467566
0.472228
0.482348
0.478072
0.455588
0.459128
0.481964
0.487776
0.483685
0.474401
0.447591
0.455412
0.480876
0.487683
0.486784
0.478548
0.449415
0.446664
0.477136
0.487947
0.487923
0.476181
0.442936
0.471567
0.495697
0.500057
0.511289
0.506746
0.481984
0.481399
0.508224
0.515267
0.509236
0.498389
0.465488
0.476611
0.505602
0.513208
0.513682
0.505236
0.472469
0.472512
0.50779
0.518063
0.528557
0.519627
0.482463
0.483101
0.516912
0.528776
0.53614
0.526829
0.493865
0.48171
0.520926
0.532536
0.532195
0.519256
0.475783
0.478634
0.52498
0.536984
0.542219
0.528662
0.48011
0.468781
0.523725
0.54059
0.529361
0.507375
0.451639
0.483176
0.523313
0.536097
0.533458
0.521834
0.48065
0.470072
0.516617
0.53073
0.524366
0.507882
0.451928
0.434139
0.495812
0.514301
0.502242
0.481368
0.414132
0.391147
0.465949
0.490084
0.478894
0.45184
0.371186
0.355153
0.440118
0.469591
0.461809
0.430041
0.341513
0.329423
0.420891
0.454895
0.448522
0.412353
0.318504
0.308645
0.404334
0.442554
0.436929
0.3968
0.299663
0.291485
0.389709
0.431603
0.426543
0.383023
0.284033
0.277207
0.376693
0.421704
0.417061
0.370704
0.270971
0.265308
0.365051
0.412601
0.408316
0.359721
0.260175
0.255534
0.354712
0.404197
0.40024
0.350006
0.251323
0.247508
0.345591
0.396429
0.392755
0.341441
0.244054
0.24094
0.337543
0.389205
0.385772
0.333876
0.238139
0.235633
0.330435
0.382446
0.379227
0.327207
0.233395
0.231408
0.324189
0.376116
0.37311
0.321364
0.229646
0.22809
0.318726
0.370209
0.367409
0.316257
0.226717
0.225511
0.31395
0.364708
0.362102
0.311793
0.224455
0.223535
0.309775
0.35959
0.357167
0.307879
0.222735
0.222044
0.306102
0.354836
0.352592
0.304431
0.221447
0.220937
0.302865
0.350438
0.348368
0.301392
0.220504
0.220142
0.300013
0.346388
0.34449
0.298717
0.219841
0.219595
0.297504
0.342681
0.340951
0.296364
0.219396
0.21924
0.295296
0.339305
0.337734
0.294291
0.219117
0.219025
0.293348
0.336244
0.334822
0.292457
0.218966
0.218927
0.291619
0.333474
0.332191
0.290825
0.218915
0.218914
0.290083
0.330978
0.329825
0.289379
0.218931
0.218949
0.28872
0.328733
0.327696
0.288094
0.218979
0.219009
0.28751
0.326717
0.325786
0.286956
0.219046
0.219077
0.286438
0.324906
0.324069
0.285947
0.219113
0.219145
0.28549
0.323283
0.322535
0.285057
0.219181
0.219206
0.284654
0.32183
0.32116
0.284272
0.219236
0.219261
0.28392
0.320535
0.31994
0.283588
0.219289
0.219306
0.283278
0.319381
0.318846
0.282982
0.219324
0.219336
0.282709
0.318346
0.317869
0.28245
0.219351
0.219356
0.282209
0.317419
0.316989
0.281978
0.219364
0.219368
0.281767
0.316586
0.316201
0.281565
0.219374
0.219373
0.281375
0.315836
0.315486
0.281192
0.219375
0.219374
0.281022
0.315158
0.314844
0.280859
0.219375
0.219368
0.280705
0.314545
0.314257
0.280557
0.219364
0.219357
0.28042
0.313988
0.313728
0.280289
0.219353
0.219342
0.280164
0.313482
0.313244
0.280044
0.219332
0.219321
0.279934
0.313022
0.312807
0.279828
0.219312
0.219298
0.279726
0.312604
0.312405
0.279628
0.219285
0.219271
0.279538
0.31222
0.312043
0.279452
0.219259
0.219244
0.27937
0.311873
0.311712
0.279292
0.219229
0.219214
0.279219
0.311557
0.311416
0.279151
0.219203
0.21919
0.279088
0.311276
0.311149
0.279029
0.219179
0.219165
0.278972
0.31102
0.310907
0.27892
0.219156
0.219146
0.278873
0.310791
0.310691
0.278829
0.21914
0.219132
0.278788
0.310583
0.310496
0.278751
0.219129
0.219124
0.278718
0.310399
0.310322
0.278688
0.219125
0.219123
0.27866
0.310233
0.310166
0.278637
0.219127
0.21913
0.278615
0.310086
0.310028
0.278598
0.219138
0.219146
0.278582
0.309955
0.309907
0.278572
0.219159
0.219172
0.278562
0.309842
0.309802
0.278558
0.21919
0.219208
0.278554
0.309744
0.309713
0.278556
0.219231
0.219255
0.278558
0.309663
0.30964
0.278566
0.219283
0.219311
0.278573
0.309595
0.30958
0.278588
0.219344
0.219377
0.278601
0.309543
0.309535
0.27862
0.219414
0.219451
0.278637
0.309503
0.309504
0.278662
0.219493
0.219535
0.278685
0.309477
0.309485
0.278714
0.219581
0.219626
0.278741
0.309463
0.309478
0.278774
0.219676
0.219726
0.278806
0.309462
0.309482
0.278843
0.219778
0.219831
0.278879
0.30947
0.309497
0.27892
0.219887
0.219943
0.27896
0.309491
0.309522
0.279005
0.220002
0.220061
0.279048
0.30952
0.309557
0.279097
0.220122
0.220184
0.279144
0.30956
0.3096
0.279195
0.220247
0.220311
0.279245
0.309607
0.309652
0.279299
0.220377
0.220442
0.279352
0.309663
0.309713
0.279409
0.22051
0.220577
0.279464
0.309727
0.309781
0.279524
0.220647
0.220718
0.279583
0.309799
0.309857
0.279646
0.220789
0.220861
0.279707
0.309879
0.309941
0.279773
0.220935
0.221009
0.279837
0.309966
0.310031
0.279905
0.221084
0.221159
0.279971
0.310059
0.310128
0.280042
0.221235
0.221312
0.28011
0.310159
0.310231
0.280183
0.22139
0.221468
0.280253
0.310265
0.31034
0.280327
0.221546
0.221625
0.2804
0.310376
0.310454
0.280476
0.221704
0.221784
0.28055
0.310492
0.310573
0.280627
0.221863
0.221943
0.280703
0.310613
0.310695
0.280781
0.222023
0.222103
0.280858
0.310737
0.310821
0.280937
0.222183
0.222263
0.281015
0.310865
0.310951
0.281095