/*--------------------------------*- C++ -*----------------------------------*\
| =========                 |                                                 |
| \\      /  F ield         | OpenFOAM: The Open Source CFD Toolbox           |
|  \\    /   O peration     | Version:  v2006                                 |
|   \\  /    A nd           | Website:  www.openfoam.com                      |
|    \\/     M anipulation  |                                                 |
\*---------------------------------------------------------------------------*/
FoamFile
{
    version     2.0;
    format      ascii;
    class       volScalarField;
    location    "0.119";
    object      nut;
}
// * * * * * * * * * * * * * * * * * * * * * * * * * * * * * * * * * * * * * //

dimensions      [0 2 -1 0 0 0 0];


internalField   nonuniform List<scalar> 
16277
(
26.1108
20.6869
52.187
14.501
20.8032
10.1381
3.81888
1.52521
0.818707
0.552967
0.434887
0.374745
0.338911
0.313011
0.291196
0.271533
0.253623
0.237507
0.223208
0.210629
0.199578
0.189823
0.181145
0.173355
0.166305
0.159879
0.153992
0.148576
0.143577
0.138951
0.134662
0.130677
0.126971
0.123521
0.120305
0.117307
0.114512
0.111907
0.109479
0.107218
0.105116
0.103163
0.101353
0.099679
0.0981361
0.0967195
0.0954248
0.0942488
0.093189
0.0922432
0.0914102
0.0906893
0.0900803
0.0895836
0.0891993
0.0889304
0.0887796
0.0887518
0.0888506
0.0890778
0.0894414
0.0899489
0.0906092
0.0914331
0.0924333
0.0936245
0.0950245
0.0966548
0.0985426
0.100723
0.103243
0.106163
0.109563
0.113534
0.118167
0.123525
0.129612
0.136381
0.143893
0.152806
0.165429
0.188311
0.238282
0.359164
0.668942
1.40619
2.48219
2.65417
1.57299
1.03902
0.511698
0.233342
0.126884
0.0598641
0.0141836
0.00255184
8.4554e-05
7.33872e-05
0.00119941
0.00552389
0.00304383
0.000777228
6.42807e-05
5.75592e-05
0.000708648
0.00255968
0.00204248
0.000609129
5.31903e-05
4.9764e-05
0.000590341
0.00193699
0.00167604
0.000531765
4.68456e-05
4.48784e-05
0.000522632
0.00163262
0.001486
0.000487046
4.29388e-05
4.18904e-05
0.000489991
0.0014709
0.00137594
0.000463938
4.06091e-05
3.99203e-05
0.000468109
0.00136753
0.00129544
0.000447128
3.89748e-05
3.84986e-05
0.000451265
0.00129168
0.00123209
0.000433467
3.77598e-05
3.74143e-05
0.000437485
0.00123093
0.0011793
0.000421822
3.68143e-05
3.65545e-05
0.000425823
0.0011798
0.00113385
0.000411597
3.60471e-05
3.58422e-05
0.000415614
0.00113545
0.00109377
0.000402366
3.53964e-05
3.52294e-05
0.000406335
0.00109609
0.00105776
0.000393854
3.48287e-05
3.46883e-05
0.000397773
0.00106061
0.00102507
0.000385931
3.43204e-05
3.41987e-05
0.000389809
0.00102829
0.000995102
0.000378524
3.38556e-05
3.37476e-05
0.000382367
0.000998661
0.000967438
0.00037157
3.3424e-05
3.33265e-05
0.000375375
0.000971297
0.000941811
0.00036501
3.30185e-05
3.29291e-05
0.000368776
0.000945928
0.000917994
0.000358798
3.26339e-05
3.25509e-05
0.000362527
0.000922337
0.000895816
0.000352903
3.22662e-05
3.21883e-05
0.000356602
0.000900358
0.000875123
0.000347311
3.19127e-05
3.18392e-05
0.000350982
0.000879829
0.000855754
0.000341998
3.15714e-05
3.15017e-05
0.000345639
0.000860583
0.000837546
0.000336933
3.12405e-05
3.11741e-05
0.000340541
0.000842464
0.000820359
0.000332089
3.09185e-05
3.08549e-05
0.000335662
0.000825336
0.000804069
0.000327439
3.06037e-05
3.05424e-05
0.000330973
0.000809083
0.000788569
0.000322955
3.02948e-05
3.02353e-05
0.000326448
0.000793597
0.000773764
0.000318612
2.99903e-05
2.99322e-05
0.000322059
0.000778787
0.00075957
0.000314386
2.96888e-05
2.96317e-05
0.000317786
0.000764574
0.000745918
0.000310258
2.93892e-05
2.93327e-05
0.000313608
0.000750889
0.000732744
0.00030621
2.90903e-05
2.90339e-05
0.000309509
0.00073767
0.000719993
0.000302228
2.87908e-05
2.87343e-05
0.000305474
0.000724868
0.000707619
0.000298299
2.84898e-05
2.84329e-05
0.000301492
0.00071244
0.000695593
0.000294413
2.81863e-05
2.81287e-05
0.000297554
0.000700356
0.000683886
0.000290565
2.78795e-05
2.7821e-05
0.000293655
0.000688593
0.00067248
0.00028675
2.75685e-05
2.75091e-05
0.000289802
0.000677136
0.000661363
0.000282972
2.72528e-05
2.71925e-05
0.000286017
0.000665977
0.000650536
0.000279243
2.6932e-05
2.68709e-05
0.000282271
0.000655115
0.000639995
0.000275548
2.66059e-05
2.65439e-05
0.000278573
0.000644547
0.000629744
0.000271902
2.6274e-05
2.62112e-05
0.000274936
0.000634285
0.0006198
0.00026832
2.59365e-05
2.58732e-05
0.000271379
0.000624352
0.000610198
0.000264824
2.55935e-05
2.55301e-05
0.000267926
0.00061479
0.000600985
0.00026144
2.52458e-05
2.51829e-05
0.000264612
0.000605737
0.000592257
0.000258211
2.48946e-05
2.48329e-05
0.000261483
0.000597274
0.000584095
0.000255185
2.45416e-05
2.44824e-05
0.000258589
0.00058941
0.000576568
0.000252416
2.41894e-05
2.4134e-05
0.00025599
0.000582282
0.000569823
0.00024997
2.3841e-05
2.37913e-05
0.000253761
0.000576049
0.000564036
0.000247929
2.35002e-05
2.34592e-05
0.000251988
0.000570896
0.000559398
0.000246396
2.31721e-05
2.31442e-05
0.000250711
0.000567019
0.000556135
0.000245443
2.28666e-05
2.28481e-05
0.000249831
0.000564563
0.000554314
0.000244845
2.25961e-05
2.25803e-05
0.00024937
0.00056381
0.000554213
0.000244736
2.23596e-05
2.23462e-05
0.000249398
0.000564772
0.000555808
0.000245155
2.21768e-05
2.21542e-05
0.000249899
0.000567344
0.000559035
0.000246088
2.20457e-05
2.20163e-05
0.000250804
0.000571304
0.000563588
0.000247298
2.192e-05
2.19333e-05
0.000251938
0.000576546
0.0005694
0.00024858
2.18386e-05
2.18882e-05
0.000253059
0.000582867
0.000576191
0.000249886
2.18044e-05
2.1898e-05
0.000254002
0.000589533
0.00058311
0.000251018
2.18287e-05
2.19529e-05
0.000254781
0.000595926
0.00058963
0.00025184
2.1898e-05
2.2046e-05
0.000255527
0.000601755
0.000595579
0.000252498
2.20058e-05
2.21748e-05
0.000256122
0.000606889
0.000600856
0.000253103
2.21488e-05
2.23345e-05
0.000256662
0.000611277
0.000605356
0.000253438
2.23204e-05
2.25162e-05
0.000257064
0.000614994
0.000608947
0.000253657
2.2513e-05
2.27137e-05
0.000257336
0.000617887
0.000611466
0.000253771
2.27199e-05
2.29201e-05
0.000257476
0.000620327
0.000613217
0.000253815
2.29341e-05
2.31289e-05
0.000257534
0.000621813
0.000614007
0.000253661
2.31489e-05
2.33344e-05
0.000257512
0.000622293
0.000613346
0.000253243
2.33587e-05
2.35311e-05
0.000257112
0.000621519
0.000611911
0.000252692
2.35567e-05
2.37121e-05
0.000256569
0.000619917
0.000609863
0.000252076
2.37371e-05
2.38735e-05
0.000255945
0.000617611
0.00060723
0.000251439
2.38966e-05
2.40131e-05
0.00025526
0.000614642
0.000604075
0.000250803
2.40332e-05
2.413e-05
0.000254553
0.000611112
0.000600498
0.000250186
2.41463e-05
2.42243e-05
0.000253842
0.000607143
0.000596567
0.000249587
2.42363e-05
2.42971e-05
0.000253126
0.000602797
0.000592358
0.000248995
2.4305e-05
2.43478e-05
0.000252402
0.000598197
0.000587899
0.000248399
2.4354e-05
2.43831e-05
0.000251666
0.000593481
0.000583347
0.000247785
2.43876e-05
2.44049e-05
0.000250913
0.000588707
0.000578762
0.000247149
2.44075e-05
2.44177e-05
0.000250149
0.000583982
0.000574143
0.000246453
2.4415e-05
2.44213e-05
0.000249363
0.000579261
0.000569488
0.000245675
2.4408e-05
2.44132e-05
0.000248552
0.000574517
0.00056484
0.000244887
2.43936e-05
2.43976e-05
0.000247732
0.000569787
0.000560202
0.000244077
2.43727e-05
2.43759e-05
0.000246878
0.000565064
0.000555572
0.000243233
2.43468e-05
2.43488e-05
0.000245998
0.000560355
0.000550915
0.000242371
2.43166e-05
2.43174e-05
0.000245091
0.000555638
0.000546221
0.000241464
2.42819e-05
2.42817e-05
0.000244137
0.000550917
0.000541559
0.000240519
2.42431e-05
2.42421e-05
0.00024316
0.000546215
0.000536894
0.00023952
2.42005e-05
2.41986e-05
0.000242129
0.000541502
0.000532243
0.000238481
2.41451e-05
2.41638e-05
0.000241118
0.000536896
0.000527328
0.000237457
2.40884e-05
2.41152e-05
0.000239873
0.000532564
0.000523224
0.000235764
2.39964e-05
2.41445e-05
0.00024001
0.00053117
0.000524706
0.000239694
2.40834e-05
2.44777e-05
0.000240105
0.000530507
0.000555607
0.000252473
2.46597e-05
2.62703e-05
0.000236758
0.000540124
0.000824801
0.000344091
2.96301e-05
3.19789e-05
0.000178467
0.000409678
0.00101065
0.00231581
0.00432905
0.00617184
0.00743283
0.00976997
0.0112621
0.0126011
0.0133549
0.0137155
0.0136141
0.0130085
0.0121462
0.0107631
0.00940705
0.00735116
0.00642309
0.00467377
0.00349685
0.00237516
0.00135015
0.000619845
0.000225992
9.39482e-05
1.81237e-05
1.1827e-05
8.71386e-05
0.000204915
0.000193276
8.27364e-05
1.13756e-05
1.09245e-05
7.97206e-05
0.000183537
0.000183977
7.85454e-05
1.08038e-05
1.07343e-05
7.81703e-05
0.000181172
0.000181258
7.73699e-05
1.06305e-05
1.06224e-05
7.73306e-05
0.000181011
0.000181562
7.73816e-05
1.06379e-05
1.06387e-05
7.74884e-05
0.000181934
0.000182206
7.76154e-05
1.06559e-05
1.0664e-05
7.77293e-05
0.000182733
0.000182978
7.78424e-05
1.06728e-05
1.06898e-05
7.7985e-05
0.000183553
0.000183864
7.81262e-05
1.06849e-05
1.07025e-05
7.83018e-05
0.000184483
0.000184825
7.84181e-05
1.07123e-05
1.07321e-05
7.8599e-05
0.000185462
0.000185754
7.86865e-05
1.07327e-05
1.07373e-05
7.89347e-05
0.000186409
0.000186726
7.89939e-05
1.07617e-05
1.07651e-05
7.92232e-05
0.000187354
0.000187669
7.93162e-05
1.0775e-05
1.07787e-05
7.95468e-05
0.000188378
0.000188703
7.96396e-05
1.08045e-05
1.08082e-05
7.98685e-05
0.000189385
0.000189731
7.99797e-05
1.08194e-05
1.08229e-05
8.02125e-05
0.000190447
0.000190776
8.03113e-05
1.08492e-05
1.08531e-05
8.05453e-05
0.000191503
0.000191849
8.06741e-05
1.08647e-05
1.08697e-05
8.09287e-05
0.000192637
0.000193006
8.10379e-05
1.08958e-05
1.09016e-05
8.13062e-05
0.000193785
0.000194145
8.14387e-05
1.09143e-05
1.0918e-05
8.16874e-05
0.000194943
0.000195319
8.18547e-05
1.09395e-05
1.09586e-05
8.20465e-05
0.000196101
0.000196477
8.21982e-05
1.09625e-05
1.09691e-05
8.24998e-05
0.000197309
0.000197697
8.26512e-05
1.09885e-05
1.10105e-05
8.28876e-05
0.000198533
0.000198919
8.30393e-05
1.10145e-05
1.10219e-05
8.3355e-05
0.000199734
0.000200107
8.34918e-05
1.1041e-05
1.10627e-05
8.37205e-05
0.00020092
0.000201303
8.3853e-05
1.10652e-05
1.10735e-05
8.41863e-05
0.000202146
0.000202534
8.43321e-05
1.1092e-05
1.1115e-05
8.4582e-05
0.000203402
0.000203808
8.47318e-05
1.11188e-05
1.11271e-05
8.50835e-05
0.000204673
0.000205064
8.5237e-05
1.11469e-05
1.11691e-05
8.54829e-05
0.000205895
0.000206268
8.56164e-05
1.11726e-05
1.11794e-05
8.59327e-05
0.000207075
0.000207393
8.60521e-05
1.1197e-05
1.12179e-05
8.62595e-05
0.000208161
0.000208496
8.63517e-05
1.12179e-05
1.12243e-05
8.66646e-05
0.000209276
0.000209574
8.67561e-05
1.12405e-05
1.1261e-05
8.69544e-05
0.000210274
0.000210527
8.70092e-05
1.12609e-05
1.12636e-05
8.72461e-05
0.000211167
0.000211407
8.72144e-05
1.12844e-05
1.12846e-05
8.73713e-05
0.000211972
0.000212156
8.7326e-05
1.12883e-05
1.1284e-05
8.74039e-05
0.000212614
0.000212664
8.72905e-05
1.13015e-05
1.12937e-05
8.72676e-05
0.000212918
0.000212972
8.7104e-05
1.12925e-05
1.12831e-05
8.70308e-05
0.000213135
0.000213134
8.67994e-05
1.12881e-05
1.12911e-05
8.65326e-05
0.000213182
0.000212928
8.61829e-05
1.12768e-05
1.12565e-05
8.5803e-05
0.000212796
0.000212265
8.52931e-05
1.12534e-05
1.12454e-05
8.47332e-05
0.000212028
0.000211305
8.40912e-05
1.12219e-05
1.12056e-05
8.35964e-05
0.000211161
0.000210384
8.28199e-05
1.12056e-05
1.11923e-05
8.21977e-05
0.00021034
0.000209455
8.13586e-05
1.11832e-05
1.11741e-05
8.06518e-05
0.000209226
0.000208051
7.96529e-05
1.11737e-05
1.11907e-05
7.88128e-05
0.00020767
0.0002063
7.77973e-05
1.11873e-05
1.12091e-05
7.69924e-05
0.000206161
0.000205629
7.6142e-05
1.12417e-05
1.13017e-05
7.56428e-05
0.000206466
0.000206038
7.49292e-05
1.13642e-05
1.14683e-05
7.45171e-05
0.000207264
0.000208092
7.35958e-05
1.15651e-05
1.16728e-05
7.31734e-05
0.00021053
0.000213725
7.40865e-05
1.17962e-05
1.19129e-05
7.44046e-05
0.000216442
0.000218101
7.39803e-05
1.19454e-05
1.20292e-05
7.2597e-05
0.000221218
0.000224835
7.6472e-05
1.21997e-05
1.23172e-05
7.42145e-05
0.000227885
0.000231005
7.60681e-05
1.2521e-05
1.26708e-05
7.712e-05
0.000236855
0.000238764
7.89598e-05
1.28866e-05
1.31885e-05
8.31893e-05
0.000246627
0.000247866
8.53601e-05
1.34832e-05
1.3736e-05
8.878e-05
0.000253875
0.000255141
9.16816e-05
1.42362e-05
1.5291e-05
0.0001063
0.000266563
0.000264982
0.000112692
1.14912e-05
8.95062e-06
2.79048e-05
7.41638e-05
0.00020789
6.46237e-05
1.03976e-05
1.09178e-05
5.77155e-05
0.000190906
0.00020048
5.97536e-05
1.11654e-05
1.13381e-05
5.64161e-05
0.000191592
0.000206522
6.08466e-05
1.16738e-05
1.20173e-05
6.01206e-05
0.000203838
0.000224597
6.87073e-05
1.24472e-05
1.28477e-05
6.81566e-05
0.00022039
0.000241286
7.95599e-05
1.33795e-05
1.4113e-05
8.17931e-05
0.000242801
0.000271473
9.89089e-05
1.56013e-05
1.1959e-05
0.000110534
0.000278183
7.46472e-05
2.66696e-05
9.77164e-06
1.13729e-05
7.05431e-05
0.000233419
0.000227995
6.49976e-05
1.23465e-05
1.30402e-05
8.46088e-05
0.000280377
0.000285958
8.58102e-05
1.36263e-05
1.44088e-05
0.00010009
0.000318909
0.00032818
0.000107159
1.54057e-05
1.72766e-05
0.00012821
0.000359266
0.000350823
0.000138278
1.3401e-05
1.00504e-05
3.12795e-05
9.32438e-05
0.000285768
8.4506e-05
1.20985e-05
1.30778e-05
7.84437e-05
0.000280043
0.000320249
9.63396e-05
1.39325e-05
1.49183e-05
9.64221e-05
0.000315294
0.000357983
0.000122936
1.71965e-05
1.38396e-05
0.000144484
0.00036122
9.79957e-05
3.22984e-05
1.04428e-05
1.26833e-05
8.87217e-05
0.000322988
0.000332639
9.30008e-05
1.42841e-05
1.65859e-05
0.000131567
0.000427919
0.00044778
0.000154601
1.9378e-05
1.59506e-05
0.000181192
0.000452649
0.000125986
3.80346e-05
1.09992e-05
1.38626e-05
0.000118689
0.000401122
0.000398064
0.00011466
1.61418e-05
2.02899e-05
0.000171143
0.000504053
0.000513449
0.000202044
1.69208e-05
1.16043e-05
4.33609e-05
0.000156592
0.000517899
0.000152873
1.60984e-05
2.02848e-05
0.000160914
0.000556141
0.000772556
0.00027176
2.77364e-05
2.31218e-05
0.000289858
0.000742623
0.00026255
6.89246e-05
1.5098e-05
2.68984e-05
0.000281155
0.000809551
0.000809634
0.00030007
2.509e-05
1.68558e-05
7.64288e-05
0.000317192
0.00111924
0.000371601
3.72749e-05
3.67924e-05
0.00042908
0.00121599
0.00055335
0.000152839
2.33829e-05
3.72124e-05
0.000497387
0.00144978
0.000957683
0.00031752
2.47798e-05
4.59956e-05
0.00055982
0.0011292
0.000968665
0.000468336
3.78189e-05
3.83138e-05
0.000446466
0.00106256
0.00136316
0.00049283
4.39663e-05
6.0771e-05
0.000920465
0.00227248
0.000506497
0.000157498
3.45614e-05
3.53809e-05
0.000441698
0.0010121
0.000313112
0.000111873
2.46837e-05
2.67928e-05
0.000272855
0.000655716
0.00056096
0.00020223
2.68314e-05
1.53842e-05
5.28577e-05
0.000160284
0.000378383
0.000218605
1.78255e-05
1.6775e-05
6.84552e-05
0.00017279
0.000418529
0.000182821
1.91428e-05
2.03988e-05
0.000148458
0.00037847
0.000122722
4.60148e-05
1.35159e-05
1.6122e-05
0.000145062
0.000326842
0.000300179
0.00012192
1.81417e-05
1.26095e-05
3.9678e-05
0.00010039
0.000278511
0.000124124
1.46241e-05
1.67869e-05
0.000107529
0.000256441
8.89437e-05
3.69564e-05
1.22275e-05
1.37789e-05
0.000110144
0.000245941
0.000222607
9.72344e-05
1.61945e-05
1.20214e-05
3.42232e-05
7.91125e-05
0.000216262
9.89027e-05
1.30402e-05
1.56368e-05
8.73592e-05
0.000196908
7.1343e-05
3.222e-05
1.18616e-05
1.26792e-05
9.19296e-05
0.000194767
0.000175906
8.08539e-05
1.51532e-05
1.16302e-05
3.03681e-05
6.61492e-05
0.000178191
8.51594e-05
1.21297e-05
1.48074e-05
7.54505e-05
0.000162629
6.40133e-05
3.0061e-05
1.16658e-05
1.22151e-05
8.67017e-05
0.000173869
0.000147732
6.99566e-05
1.53863e-05
1.28595e-05
5.58679e-05
0.000120995
4.78269e-05
2.24676e-05
1.09133e-05
1.03782e-05
5.9183e-05
0.000120305
0.00011341
5.4949e-05
1.30862e-05
1.03284e-05
2.16766e-05
4.57809e-05
0.00010876
5.54878e-05
9.91291e-06
1.27912e-05
5.09681e-05
0.000101374
4.26684e-05
2.16283e-05
1.05627e-05
9.83135e-06
5.23981e-05
9.86929e-05
9.37456e-05
4.95141e-05
1.25623e-05
1.01663e-05
2.0454e-05
4.07024e-05
9.14048e-05
4.96228e-05
9.59319e-06
1.24137e-05
4.67713e-05
8.62767e-05
3.88007e-05
1.98439e-05
9.9923e-06
9.3356e-06
4.60002e-05
8.42806e-05
8.12958e-05
4.52456e-05
1.22673e-05
1.037e-05
1.94421e-05
3.65558e-05
8.015e-05
4.47666e-05
9.34832e-06
1.21424e-05
4.29183e-05
7.58496e-05
3.51345e-05
1.90313e-05
1.01692e-05
9.07461e-06
4.11713e-05
7.18979e-05
7.0036e-05
4.05865e-05
1.19804e-05
1.01963e-05
1.73137e-05
3.18786e-05
6.22886e-05
4.86736e-05
8.85352e-06
1.12822e-05
2.20964e-05
3.6161e-05
8.29634e-05
4.69031e-05
1.00114e-05
1.25709e-05
4.36375e-05
7.71318e-05
3.72316e-05
2.13824e-05
1.02722e-05
9.41129e-06
4.60169e-05
7.68718e-05
7.3047e-05
4.26587e-05
1.24084e-05
1.03305e-05
2.13159e-05
3.61131e-05
7.55788e-05
4.55062e-05
9.40859e-06
1.22899e-05
4.23189e-05
7.14038e-05
3.51934e-05
2.12532e-05
1.0225e-05
9.26829e-06
4.29756e-05
6.86775e-05
6.52586e-05
3.87906e-05
1.22831e-05
1.02212e-05
2.09026e-05
3.30531e-05
6.41517e-05
4.03633e-05
9.08584e-06
1.20054e-05
3.73201e-05
5.96957e-05
2.96616e-05
1.91316e-05
1.01482e-05
8.5828e-06
4.13684e-05
5.28041e-05
3.20269e-05
2.20515e-05
1.1077e-05
9.75427e-06
3.84846e-05
6.27202e-05
5.75518e-05
3.51197e-05
1.23952e-05
1.01123e-05
2.11234e-05
3.07427e-05
5.74784e-05
3.75515e-05
9.02569e-06
1.19688e-05
3.47643e-05
5.22641e-05
2.82262e-05
2.0166e-05
1.01766e-05
8.53229e-06
3.79633e-05
4.80256e-05
3.02506e-05
2.20812e-05
1.1157e-05
9.68262e-06
3.72446e-05
5.78939e-05
5.23205e-05
3.38617e-05
1.22704e-05
1.00755e-05
2.13866e-05
2.92576e-05
5.44037e-05
3.62689e-05
8.97958e-06
1.19384e-05
3.30557e-05
4.94169e-05
2.71355e-05
2.01924e-05
1.01431e-05
8.50125e-06
3.53871e-05
4.38664e-05
2.84008e-05
2.17446e-05
1.11732e-05
9.56996e-06
3.47571e-05
5.34315e-05
4.80707e-05
3.18816e-05
1.21974e-05
1.00351e-05
2.13291e-05
2.72588e-05
4.86026e-05
3.32198e-05
8.97682e-06
1.18927e-05
3.042e-05
4.44671e-05
2.48974e-05
1.96457e-05
9.59969e-06
8.31555e-06
3.12741e-05
3.91792e-05
2.60005e-05
2.06925e-05
1.10589e-05
9.35974e-06
3.21934e-05
4.76964e-05
4.26808e-05
2.93281e-05
1.20293e-05
9.9221e-06
2.02222e-05
2.46287e-05
3.82343e-05
3.21057e-05
8.22441e-06
1.09546e-05
2.15299e-05
2.5862e-05
4.68984e-05
3.09838e-05
9.26176e-06
1.21253e-05
2.86475e-05
4.20593e-05
2.45166e-05
2.06372e-05
9.84452e-06
8.33895e-06
3.08866e-05
3.77959e-05
2.59414e-05
2.1775e-05
1.1025e-05
9.19389e-06
3.15161e-05
4.64089e-05
4.16218e-05
2.88982e-05
1.20062e-05
9.70801e-06
2.07419e-05
2.43824e-05
3.7436e-05
3.12072e-05
8.17301e-06
1.1063e-05
2.1791e-05
2.56994e-05
4.55857e-05
3.07709e-05
9.33576e-06
1.21734e-05
2.85862e-05
4.09609e-05
2.4475e-05
2.13e-05
1.01367e-05
8.4098e-06
3.16224e-05
3.67545e-05
2.56183e-05
2.25521e-05
1.10903e-05
9.32583e-06
3.02309e-05
4.47299e-05
3.99815e-05
2.7924e-05
1.2061e-05
9.68354e-06
2.10808e-05
2.37748e-05
3.55701e-05
3.04266e-05
8.2471e-06
1.09204e-05
2.2581e-05
2.54588e-05
3.87045e-05
2.95619e-05
8.76773e-06
1.13735e-05
2.30663e-05
2.68226e-05
4.56801e-05
3.05147e-05
9.53296e-06
1.21162e-05
2.84026e-05
4.07451e-05
2.46829e-05
2.18247e-05
9.88435e-06
8.23708e-06
3.13837e-05
3.64681e-05
2.57464e-05
2.33019e-05
1.1156e-05
9.36452e-06
3.00916e-05
4.39351e-05
3.94624e-05
2.80442e-05
1.21628e-05
9.71003e-06
2.16447e-05
2.39272e-05
3.51129e-05
3.02224e-05
8.38797e-06
1.1091e-05
2.30752e-05
2.55775e-05
3.80596e-05
2.93764e-05
8.97296e-06
1.13487e-05
2.36843e-05
2.67881e-05
4.4893e-05
3.02765e-05
9.39306e-06
1.21701e-05
2.83368e-05
4.00694e-05
2.47408e-05
2.25127e-05
1.01865e-05
8.33952e-06
3.18742e-05
3.56888e-05
2.6524e-05
2.46447e-05
1.11514e-05
8.95003e-06
3.05018e-05
3.90536e-05
2.76691e-05
2.50132e-05
1.14603e-05
9.56284e-06
3.0597e-05
4.57375e-05
4.0869e-05
2.88325e-05
1.23664e-05
9.9336e-06
2.31611e-05
2.5306e-05
3.63796e-05
3.21962e-05
8.31136e-06
1.1158e-05
2.47836e-05
2.69669e-05
3.92373e-05
3.08577e-05
8.97215e-06
1.14873e-05
2.5275e-05
2.79916e-05
4.5942e-05
3.10773e-05
9.57235e-06
1.23335e-05
2.93247e-05
4.10774e-05
2.58584e-05
2.3975e-05
1.02636e-05
8.5136e-06
3.28939e-05
3.6875e-05
2.76559e-05
2.58061e-05
1.13386e-05
9.17658e-06
3.16672e-05
3.99367e-05
2.86665e-05
2.61121e-05
1.15238e-05
9.5364e-06
3.12979e-05
4.64291e-05
4.13399e-05
2.95487e-05
1.22637e-05
1.03842e-05
2.37801e-05
2.58845e-05
3.60169e-05
3.3054e-05
8.5371e-06
1.13209e-05
2.5596e-05
2.71628e-05
3.88272e-05
3.09875e-05
9.12363e-06
1.15989e-05
2.59465e-05
2.80698e-05
4.48938e-05
3.0687e-05
9.61617e-06
1.24331e-05
2.91949e-05
4.01376e-05
2.57397e-05
2.41588e-05
1.05586e-05
8.60514e-06
3.28959e-05
3.5906e-05
2.72671e-05
2.57369e-05
1.12496e-05
8.91086e-06
3.05424e-05
3.85146e-05
2.86715e-05
2.61837e-05
1.13892e-05
9.07205e-06
3.137e-05
4.01205e-05
2.95233e-05
2.77764e-05
1.15721e-05
9.6474e-06
3.19597e-05
4.60782e-05
4.11919e-05
3.03136e-05
1.23461e-05
9.91309e-06
2.49337e-05
2.63889e-05
3.70157e-05
3.33179e-05
8.4947e-06
1.13745e-05
2.62602e-05
2.80722e-05
3.89001e-05
3.11668e-05
9.17603e-06
1.15523e-05
2.66221e-05
2.9211e-05
4.02697e-05
3.16011e-05
9.14727e-06
1.16076e-05
2.816e-05
2.98599e-05
4.60867e-05
3.21838e-05
9.63633e-06
1.23946e-05
3.06677e-05
4.12825e-05
2.71474e-05
2.58314e-05
1.05149e-05
8.5849e-06
3.45027e-05
3.70812e-05
2.8589e-05
2.72375e-05
1.1448e-05
9.17836e-06
3.15119e-05
3.9702e-05
2.99699e-05
2.7641e-05
1.16385e-05
9.29866e-06
3.2626e-05
4.11332e-05
3.07872e-05
2.93248e-05
1.17717e-05
9.8029e-06
3.32241e-05
4.70317e-05
4.21748e-05
3.16133e-05
1.25334e-05
1.05447e-05
2.64915e-05
2.80155e-05
3.77919e-05
3.52581e-05
8.63968e-06
1.15015e-05
2.77582e-05
2.92881e-05
3.98283e-05
3.19411e-05
9.13906e-06
1.16413e-05
2.77629e-05
3.01835e-05
4.08616e-05
3.24381e-05
9.25599e-06
1.18331e-05
2.94112e-05
3.08761e-05
4.61282e-05
3.28206e-05
9.78812e-06
1.25646e-05
3.14889e-05
4.1839e-05
2.79274e-05
2.66787e-05
1.01191e-05
8.73353e-06
3.41775e-05
3.75878e-05
2.95512e-05
2.81919e-05
1.16535e-05
9.24746e-06
3.26852e-05
4.00263e-05
3.06498e-05
2.84033e-05
1.16499e-05
9.16843e-06
3.24553e-05
4.10343e-05
3.14914e-05
2.91499e-05
1.16531e-05
9.34199e-06
3.40047e-05
4.21199e-05
3.19968e-05
3.09122e-05
1.17875e-05
9.79378e-06
3.43286e-05
4.75244e-05
4.2951e-05
3.27912e-05
1.25622e-05
1.07362e-05
2.74524e-05
2.92051e-05
3.80365e-05
3.60366e-05
8.70735e-06
1.1664e-05
2.87998e-05
3.02401e-05
3.99094e-05
3.24694e-05
9.31849e-06
1.18134e-05
2.8926e-05
3.10741e-05
4.09392e-05
3.2703e-05
9.28723e-06
1.17478e-05
2.99626e-05
3.1835e-05
4.24008e-05
3.45373e-05
9.40063e-06
1.18836e-05
3.16215e-05
3.25347e-05
4.82513e-05
3.49794e-05
9.8717e-06
1.27235e-05
3.36769e-05
4.37512e-05
3.02766e-05
2.90657e-05
1.07057e-05
8.76241e-06
3.74178e-05
3.93428e-05
3.14118e-05
3.01863e-05
1.16478e-05
9.2039e-06
3.41557e-05
4.19008e-05
3.25859e-05
3.02472e-05
1.17942e-05
9.38732e-06
3.44882e-05
4.29198e-05
3.33766e-05
3.13226e-05
1.18096e-05
9.40891e-06
3.62031e-05
4.41635e-05
3.3989e-05
3.29124e-05
1.19392e-05
9.99569e-06
3.62272e-05
4.95889e-05
4.50726e-05
3.47939e-05
1.27545e-05
1.08798e-05
2.98035e-05
3.14108e-05
4.0019e-05
3.78432e-05
8.9612e-06
1.1814e-05
3.08251e-05
3.23937e-05
4.19732e-05
3.45546e-05
9.42164e-06
1.19981e-05
3.0736e-05
3.32882e-05
4.27168e-05
3.42874e-05
9.4953e-06
1.19899e-05
3.18057e-05
3.38026e-05
4.40256e-05
3.6171e-05
9.61326e-06
1.20859e-05
3.37119e-05
3.43343e-05
4.95367e-05
3.68364e-05
1.00154e-05
1.29254e-05
3.56039e-05
4.54202e-05
3.21386e-05
3.09012e-05
1.08905e-05
8.9657e-06
3.90402e-05
4.09915e-05
3.33188e-05
3.18747e-05
1.187e-05
9.43613e-06
3.5583e-05
4.31703e-05
3.44262e-05
3.1946e-05
1.2033e-05
9.54527e-06
3.5703e-05
4.425e-05
3.52002e-05
3.29313e-05
1.19887e-05
9.60791e-06
3.75255e-05
4.53523e-05
3.55507e-05
3.45987e-05
1.20812e-05
1.00359e-05
3.7568e-05
5.04969e-05
4.6274e-05
3.63237e-05
1.29905e-05
1.11223e-05
3.14322e-05
3.29608e-05
4.0869e-05
3.94432e-05
9.05407e-06
1.19653e-05
3.23491e-05
3.37914e-05
4.24082e-05
3.5367e-05
9.48187e-06
1.2128e-05
3.23174e-05
3.45308e-05
4.3302e-05
3.53977e-05
9.61191e-06
1.20691e-05
3.32278e-05
3.51575e-05
4.45028e-05
3.6992e-05
9.60968e-06
1.202e-05
3.43785e-05
3.60661e-05
4.6167e-05
3.8703e-05
9.60114e-06
1.21525e-05
3.60657e-05
3.66772e-05
5.20105e-05
3.91076e-05
1.01246e-05
1.31421e-05
3.79134e-05
4.78942e-05
3.43569e-05
3.32617e-05
1.08174e-05
9.03799e-06
4.1179e-05
4.32752e-05
3.588e-05
3.46337e-05
1.20843e-05
9.64774e-06
3.83639e-05
4.55312e-05
3.69766e-05
3.4749e-05
1.21955e-05
9.66375e-06
3.86546e-05
4.68586e-05
3.79117e-05
3.57276e-05
1.21053e-05
9.67832e-06
4.04358e-05
4.85182e-05
3.87144e-05
3.75663e-05
1.22542e-05
1.02517e-05
4.06638e-05
5.38021e-05
4.93313e-05
3.93391e-05
1.32849e-05
1.11211e-05
3.45228e-05
3.57575e-05
4.43186e-05
4.26444e-05
9.18055e-06
1.22003e-05
3.56116e-05
3.71756e-05
4.58521e-05
3.90993e-05
9.74332e-06
1.23006e-05
3.53671e-05
3.78078e-05
4.64701e-05
3.87247e-05
9.82441e-06
1.22471e-05
3.62908e-05
3.83463e-05
4.76863e-05
4.02741e-05
9.7845e-06
1.24e-05
3.81416e-05
3.87523e-05
5.30406e-05
4.06383e-05
1.03225e-05
1.35186e-05
3.96605e-05
4.90119e-05
3.62466e-05
3.54228e-05
1.10624e-05
9.18342e-06
4.30151e-05
4.45722e-05
3.78493e-05
3.68723e-05
1.23246e-05
9.85571e-06
4.0367e-05
4.67197e-05
3.89204e-05
3.69122e-05
1.23979e-05
9.80879e-06
4.02811e-05
4.78327e-05
3.96194e-05
3.78079e-05
1.23263e-05
9.89942e-06
4.16748e-05
4.94786e-05
4.04961e-05
3.98664e-05
1.26e-05
1.04837e-05
4.23943e-05
5.48795e-05
5.0528e-05
4.13727e-05
1.36381e-05
1.13413e-05
3.70032e-05
3.7824e-05
4.60474e-05
4.50318e-05
9.33122e-06
1.23726e-05
3.78825e-05
3.92451e-05
4.75115e-05
4.10945e-05
9.87828e-06
1.25567e-05
3.78452e-05
3.99822e-05
4.82266e-05
4.10165e-05
9.93843e-06
1.2588e-05
3.89654e-05
4.0638e-05
4.95466e-05
4.24048e-05
1.00216e-05
1.28687e-05
4.11342e-05
4.11741e-05
5.50247e-05
4.31021e-05
1.07752e-05
1.40597e-05
4.23943e-05
5.10787e-05
3.91792e-05
3.8926e-05
1.16274e-05
9.65525e-06
4.62676e-05
4.73822e-05
4.07761e-05
4.00618e-05
1.26269e-05
1.00561e-05
4.37947e-05
4.96588e-05
4.19431e-05
4.0245e-05
1.27952e-05
1.00563e-05
4.37368e-05
5.10893e-05
4.24809e-05
4.18566e-05
1.30059e-05
1.09208e-05
4.37335e-05
5.59806e-05
5.17437e-05
4.3068e-05
1.43562e-05
1.19912e-05
3.94374e-05
3.99274e-05
4.71379e-05
4.65746e-05
9.81254e-06
1.2862e-05
4.03665e-05
4.11718e-05
4.87884e-05
4.34266e-05
1.02462e-05
1.30597e-05
4.04992e-05
4.19823e-05
4.9977e-05
4.31164e-05
1.02968e-05
1.33351e-05
4.25459e-05
4.24594e-05
5.49173e-05
4.38112e-05
1.10441e-05
1.45304e-05
4.33836e-05
5.11295e-05
4.01941e-05
4.02625e-05
1.17205e-05
9.73342e-06
4.69452e-05
4.73325e-05
4.18781e-05
4.15906e-05
1.29913e-05
1.02613e-05
4.41804e-05
4.98458e-05
4.31431e-05
4.21023e-05
1.3276e-05
1.05366e-05
4.45731e-05
5.134e-05
4.38366e-05
4.39332e-05
1.35282e-05
1.11944e-05
4.49899e-05
5.59709e-05
5.22242e-05
4.47461e-05
1.48916e-05
1.24126e-05
4.16397e-05
4.19439e-05
4.81602e-05
4.8442e-05
1.00307e-05
1.33113e-05
4.27471e-05
4.29515e-05
4.98671e-05
4.50552e-05
1.05406e-05
1.34853e-05
4.29572e-05
4.37849e-05
5.13132e-05
4.47914e-05
1.06326e-05
1.38671e-05
4.52218e-05
4.44439e-05
5.65274e-05
4.58594e-05
1.15465e-05
1.52219e-05
4.57626e-05
5.28953e-05
4.29546e-05
4.36408e-05
1.25102e-05
1.01962e-05
5.00124e-05
4.979e-05
4.45613e-05
4.50207e-05
1.36625e-05
1.08363e-05
4.72069e-05
5.23705e-05
4.60391e-05
4.55089e-05
1.39883e-05
1.11301e-05
4.72864e-05
5.42491e-05
4.71299e-05
4.7968e-05
1.44382e-05
1.19923e-05
4.85513e-05
5.93988e-05
5.56631e-05
4.85234e-05
1.58545e-05
1.29944e-05
4.59054e-05
4.5643e-05
5.20019e-05
5.24877e-05
1.05736e-05
1.40221e-05
4.71972e-05
4.68872e-05
5.44052e-05
4.92038e-05
1.11638e-05
1.47365e-05
4.88129e-05
4.79408e-05
5.93515e-05
4.88291e-05
1.22556e-05
1.61424e-05
4.85577e-05
5.58821e-05
4.61703e-05
4.71314e-05
1.34752e-05
1.08509e-05
5.31164e-05
5.27117e-05
4.78799e-05
4.87021e-05
1.44863e-05
1.15112e-05
5.04528e-05
5.5332e-05
4.93757e-05
4.94619e-05
1.49054e-05
1.18524e-05
5.05717e-05
5.76731e-05
5.08713e-05
5.23903e-05
1.54476e-05
1.28476e-05
5.26163e-05
6.34272e-05
5.9537e-05
5.27769e-05
1.69963e-05
1.38509e-05
5.09192e-05
4.98905e-05
5.63224e-05
5.72576e-05
1.12359e-05
1.50444e-05
5.23212e-05
5.1632e-05
5.94767e-05
5.38963e-05
1.20483e-05
1.58381e-05
5.42504e-05
5.28497e-05
6.50816e-05
5.39909e-05
1.29551e-05
1.7335e-05
5.4222e-05
6.1536e-05
5.20266e-05
5.34112e-05
1.46118e-05
1.19957e-05
5.87946e-05
5.84487e-05
5.3768e-05
5.52832e-05
1.59551e-05
1.27848e-05
5.63913e-05
6.20574e-05
5.55229e-05
5.75474e-05
1.67999e-05
1.40075e-05
5.68412e-05
6.79925e-05
6.42557e-05
5.71863e-05
1.85276e-05
1.51515e-05
5.60488e-05
5.46857e-05
6.14161e-05
6.17986e-05
1.22727e-05
1.67211e-05
5.88701e-05
5.63527e-05
6.77783e-05
5.77306e-05
1.39414e-05
1.86302e-05
5.77322e-05
6.45449e-05
5.49666e-05
5.57638e-05
1.51688e-05
1.21129e-05
6.2432e-05
6.12236e-05
5.66145e-05
5.76432e-05
1.65184e-05
1.32355e-05
5.82302e-05
6.39647e-05
5.78762e-05
5.99488e-05
1.75806e-05
1.46386e-05
5.85771e-05
6.94224e-05
6.60899e-05
5.9434e-05
1.94756e-05
1.60147e-05
5.89863e-05
5.74345e-05
6.3409e-05
6.38072e-05
1.31218e-05
1.77824e-05
6.23001e-05
5.89602e-05
6.94731e-05
6.0294e-05
1.48966e-05
1.98981e-05
6.05113e-05
6.64595e-05
5.83655e-05
6.01546e-05
1.64095e-05
1.3252e-05
6.48947e-05
6.40005e-05
5.95335e-05
6.29954e-05
1.78901e-05
1.4613e-05
6.05725e-05
6.99961e-05
6.70893e-05
6.11617e-05
1.9965e-05
1.66661e-05
6.05739e-05
5.89411e-05
6.43555e-05
6.47355e-05
1.36511e-05
1.86145e-05
6.42779e-05
6.05822e-05
7.02055e-05
6.1536e-05
1.54441e-05
2.08328e-05
6.21506e-05
6.73991e-05
6.02586e-05
6.25945e-05
1.72326e-05
1.39205e-05
6.64927e-05
6.54575e-05
6.16883e-05
6.58136e-05
1.88538e-05
1.55554e-05
6.27114e-05
7.1402e-05
6.85986e-05
6.31443e-05
2.09557e-05
1.72133e-05
6.32882e-05
6.12054e-05
6.63849e-05
6.84958e-05
1.34294e-05
1.88583e-05
6.67932e-05
6.27368e-05
7.22325e-05
6.31669e-05
1.58985e-05
2.17155e-05
6.38645e-05
6.94828e-05
6.28515e-05
6.61861e-05
1.80588e-05
1.47734e-05
6.85899e-05
6.76985e-05
6.48896e-05
7.0307e-05
2.00805e-05
1.67359e-05
6.65784e-05
7.50183e-05
7.2252e-05
6.74858e-05
2.2438e-05
1.85849e-05
6.91563e-05
6.58455e-05
7.10457e-05
7.21365e-05
1.50306e-05
2.05184e-05
7.35207e-05
6.77856e-05
7.85786e-05
7.00044e-05
1.68928e-05
2.25018e-05
6.98823e-05
7.57544e-05
6.8817e-05
7.4815e-05
1.96427e-05
1.69395e-05
7.43479e-05
7.77079e-05
7.52763e-05
7.41067e-05
2.35425e-05
1.98645e-05
7.39531e-05
7.00335e-05
7.55633e-05
7.61693e-05
1.63292e-05
2.21398e-05
7.81547e-05
7.26737e-05