/*--------------------------------*- C++ -*----------------------------------*\
| =========                 |                                                 |
| \\      /  F ield         | OpenFOAM: The Open Source CFD Toolbox           |
|  \\    /   O peration     | Version:  v2006                                 |
|   \\  /    A nd           | Website:  www.openfoam.com                      |
|    \\/     M anipulation  |                                                 |
\*---------------------------------------------------------------------------*/
FoamFile
{
    version     2.0;
    format      ascii;
    class       volScalarField;
    location    "0.029";
    object      alphat;
}
// * * * * * * * * * * * * * * * * * * * * * * * * * * * * * * * * * * * * * //

dimensions      [1 -1 -1 0 0 0 0];


internalField   nonuniform List<scalar> 
16277
(
43.6786
35.3618
92.5216
24.9403
36.9213
19.8312
7.5445
2.90101
1.49923
0.985917
0.764293
0.65436
0.589971
0.543953
0.505494
0.470959
0.439557
0.411346
0.386362
0.364424
0.345186
0.328235
0.313179
0.299681
0.287478
0.276366
0.266192
0.256837
0.248206
0.240224
0.232826
0.225958
0.219571
0.213624
0.208083
0.202918
0.198103
0.193615
0.189434
0.185541
0.181919
0.178556
0.175438
0.172556
0.169901
0.167461
0.165225
0.163194
0.161368
0.159736
0.158298
0.157059
0.156017
0.155167
0.154511
0.154053
0.153799
0.153753
0.153923
0.154319
0.15495
0.155831
0.156976
0.158403
0.160136
0.162198
0.164622
0.167444
0.170711
0.174485
0.178845
0.183896
0.189776
0.196643
0.204654
0.213914
0.224424
0.236107
0.249074
0.264491
0.286373
0.326032
0.412441
0.62088
1.1533
2.41753
4.26967
4.58002
2.7188
1.79578
0.886041
0.403955
0.219524
0.103594
0.0245579
0.00441886
0.000146411
0.000127058
0.00207688
0.00956492
0.00527048
0.00134575
0.000111279
9.9632e-05
0.00122693
0.00443202
0.0035364
0.00105457
9.20609e-05
8.61239e-05
0.00102198
0.00335363
0.00290169
0.000920519
8.10676e-05
7.76591e-05
0.000904661
0.00282642
0.00257247
0.000843001
7.42991e-05
7.24823e-05
0.000848083
0.00254623
0.00238172
0.000802925
7.02627e-05
6.90691e-05
0.000810121
0.00236706
0.00224213
0.000773748
6.74316e-05
6.66064e-05
0.000780879
0.00223553
0.0021322
0.000750011
6.53266e-05
6.47269e-05
0.000756926
0.00213008
0.00204055
0.000729762
6.36867e-05
6.32363e-05
0.000736658
0.00204133
0.00196168
0.000711998
6.23581e-05
6.20031e-05
0.000718927
0.00196436
0.0018921
0.000695969
6.12313e-05
6.09419e-05
0.000702815
0.00189605
0.00182964
0.000681189
6.02486e-05
6.00053e-05
0.000687954
0.0018345
0.00177292
0.000667445
5.93691e-05
5.91584e-05
0.000674141
0.00177846
0.00172096
0.000654603
5.85655e-05
5.83787e-05
0.00066124
0.00172709
0.00167302
0.000642554
5.78197e-05
5.76512e-05
0.000649129
0.00167968
0.00162864
0.000631196
5.71194e-05
5.6965e-05
0.000637708
0.00163576
0.00158742
0.000620451
5.64554e-05
5.63123e-05
0.000626901
0.00159493
0.00154905
0.000610264
5.58213e-05
5.56871e-05
0.000616665
0.00155692
0.00151328
0.000600605
5.52119e-05
5.50853e-05
0.000606958
0.00152143
0.0014798
0.00059143
5.46237e-05
5.45039e-05
0.000597731
0.00148816
0.00144833
0.000582688
5.40538e-05
5.39398e-05
0.000588935
0.00145685
0.00141864
0.000574332
5.34993e-05
5.33902e-05
0.00058052
0.00142727
0.00139051
0.000566314
5.29577e-05
5.28527e-05
0.000572438
0.0013992
0.00136376
0.000558588
5.24264e-05
5.23246e-05
0.000564643
0.00137248
0.00133822
0.000551111
5.19029e-05
5.18037e-05
0.00055709
0.00134694
0.00131376
0.000543842
5.1385e-05
5.12876e-05
0.00054974
0.00132245
0.00129024
0.000536746
5.08705e-05
5.07742e-05
0.00054256
0.00129889
0.00126757
0.000529792
5.03573e-05
5.02614e-05
0.000535519
0.00127615
0.00124564
0.000522955
4.98433e-05
4.97473e-05
0.000528592
0.00125413
0.00122437
0.00051621
4.93268e-05
4.923e-05
0.000521757
0.00123277
0.0012037
0.000509541
4.88059e-05
4.87079e-05
0.000514999
0.00121201
0.00118359
0.000502937
4.8279e-05
4.81796e-05
0.000508308
0.00119179
0.00116399
0.000496389
4.77449e-05
4.76438e-05
0.000501695
0.00117211
0.00114489
0.000489903
4.72024e-05
4.70997e-05
0.000495198
0.00115293
0.00112628
0.0004835
4.66511e-05
4.65468e-05
0.000488768
0.00113427
0.00110817
0.000477156
4.60902e-05
4.59844e-05
0.000482418
0.00111611
0.00109055
0.000470893
4.55193e-05
4.54122e-05
0.000476172
0.00109848
0.00107347
0.00046474
4.49385e-05
4.48304e-05
0.000470062
0.00108141
0.00105697
0.000458734
4.43482e-05
4.42399e-05
0.000464132
0.00106498
0.00104114
0.000452922
4.37496e-05
4.36422e-05
0.000458441
0.00104943
0.00102615
0.000447376
4.31449e-05
4.30396e-05
0.000453069
0.0010349
0.00101214
0.000442182
4.2537e-05
4.2436e-05
0.000448103
0.00102141
0.000999228
0.000437431
4.19304e-05
4.18359e-05
0.000443647
0.00100919
0.000987674
0.000433239
4.13301e-05
4.12456e-05
0.000439832
0.000998525
0.000977778
0.000429747
4.0743e-05
4.06732e-05
0.000436806
0.00098973
0.000969875
0.000427134
4.01774e-05
4.01301e-05
0.000434647
0.000983146
0.00096435
0.000425535
3.96504e-05
3.96198e-05
0.00043317
0.000979015
0.000961318
0.00042454
3.91834e-05
3.91574e-05
0.000432411
0.000977833
0.00096126
0.00042439
3.87751e-05
3.87529e-05
0.000432498
0.000979621
0.000964138
0.000425151
3.84587e-05
3.84206e-05
0.000433401
0.000984192
0.000969852
0.000426805
3.82321e-05
3.81813e-05
0.000435004
0.000991168
0.000977841
0.000428943
3.80145e-05
3.80375e-05
0.000437004
0.00100034
0.000987994
0.00043119
3.7873e-05
3.79582e-05
0.000438966
0.00101137
0.000999821
0.000433465
3.78119e-05
3.79728e-05
0.000440606
0.00102297
0.00101185
0.000435429
3.78514e-05
3.80649e-05
0.000441951
0.00103408
0.00102316
0.000436847
3.7968e-05
3.82226e-05
0.000443234
0.00104419
0.00103347
0.000437969
3.81512e-05
3.8442e-05
0.000444247
0.00105308
0.0010426
0.000438998
3.83948e-05
3.87146e-05
0.000445163
0.00106067
0.00105037
0.000439558
3.86879e-05
3.90248e-05
0.000445833
0.00106708
0.00105655
0.000439907
3.90172e-05
3.93624e-05
0.000446272
0.00107203
0.00106085
0.00044007
3.9371e-05
3.97155e-05
0.000446477
0.00107619
0.00106381
0.000440107
3.97373e-05
4.00724e-05
0.000446536
0.00107868
0.00106509
0.000439801
4.01048e-05
4.04238e-05
0.000446453
0.0010794
0.00106383
0.000439027
4.04637e-05
4.07599e-05
0.000445707
0.00107793
0.00106122
0.000438021
4.08021e-05
4.10688e-05
0.000444711
0.00107501
0.00105752
0.000436898
4.11102e-05
4.1344e-05
0.00044357
0.00107086
0.0010528
0.000435737
4.13821e-05
4.15815e-05
0.000442319
0.00106554
0.00104716
0.000434575
4.16144e-05
4.17795e-05
0.000441034
0.00105924
0.00104078
0.000433445
4.1806e-05
4.19387e-05
0.00043974
0.00105217
0.00103378
0.000432348
4.19583e-05
4.20615e-05
0.000438436
0.00104444
0.00102629
0.000431262
4.2074e-05
4.21454e-05
0.000437119
0.00103627
0.00101833
0.000430162
4.21553e-05
4.22027e-05
0.000435775
0.0010279
0.00101023
0.000429033
4.22099e-05
4.2237e-05
0.0004344
0.00101941
0.00100206
0.000427868
4.2241e-05
4.22575e-05
0.000433016
0.00101103
0.000993832
0.000426591
4.22487e-05
4.22593e-05
0.000431593
0.00100263
0.000985575
0.000425187
4.22334e-05
4.2242e-05
0.000430128
0.000994222
0.000977339
0.000423766
4.22051e-05
4.22117e-05
0.000428652
0.000985841
0.000969136
0.000422324
4.21659e-05
4.21707e-05
0.000427146
0.000977497
0.000960964
0.000420835
4.21176e-05
4.21207e-05
0.000425583
0.000969183
0.000952741
0.000419283
4.20615e-05
4.20629e-05
0.000423953
0.000960864
0.000944475
0.000417661
4.19985e-05
4.19982e-05
0.000422254
0.000952547
0.000936254
0.000415975
4.19294e-05
4.19277e-05
0.000420524
0.00094428
0.000928103
0.000414229
4.18552e-05
4.18523e-05
0.000418742
0.000936074
0.000920021
0.000412436
4.17583e-05
4.17897e-05
0.000416973
0.000928017
0.000911391
0.00041061
4.16577e-05
4.17046e-05
0.00041475
0.000920371
0.000904132
0.000407629
4.14979e-05
4.17528e-05
0.00041495
0.000917788
0.000906568
0.000414379
4.16434e-05
4.23253e-05
0.000415085
0.000916579
0.000959999
0.000436504
4.26415e-05
4.54346e-05
0.00040935
0.000933277
0.001425
0.000594525
5.12546e-05
5.5331e-05
0.000308538
0.000707958
0.00174574
0.00399985
0.0074779
0.010662
0.0128412
0.0168847
0.0194653
0.021782
0.0230868
0.0237117
0.0235377
0.0224916
0.0210019
0.0186108
0.016266
0.01271
0.0111056
0.00808051
0.00604563
0.00410632
0.00233414
0.00107187
0.000390697
0.000162574
3.14365e-05
2.04324e-05
0.00015069
0.000354175
0.000333983
0.000142992
1.96648e-05
1.89363e-05
0.000138059
0.000319037
0.000316818
0.000135869
1.86947e-05
1.85871e-05
0.00013517
0.000314042
0.000313066
0.000133797
1.83915e-05
1.8379e-05
0.000133757
0.000313238
0.000314021
0.000133834
1.84046e-05
1.84066e-05
0.000134023
0.000314703
0.000315167
0.000134251
1.84358e-05
1.84522e-05
0.000134464
0.000316131
0.000316573
0.000134672
1.84665e-05
1.84991e-05
0.000134928
0.000317579
0.000318111
0.000135147
1.84866e-05
1.85205e-05
0.000135444
0.000319139
0.000319689
0.000135629
1.85339e-05
1.85681e-05
0.000135937
0.00032077
0.000321282
0.000136087
1.85693e-05
1.85783e-05
0.000136525
0.000322437
0.000322965
0.000136628
1.86189e-05
1.8628e-05
0.000137043
0.000324147
0.000324696
0.000137207
1.86447e-05
1.86512e-05
0.00013762
0.000325912
0.000326488
0.000137773
1.86973e-05
1.87021e-05
0.000138169
0.000327678
0.000328315
0.000138381
1.87246e-05
1.87282e-05
0.000138784
0.000329526
0.00033018
0.000138973
1.87771e-05
1.87819e-05
0.000139378
0.000331386
0.000332074
0.000139605
1.88051e-05
1.88098e-05
0.000140031
0.000333329
0.000334013
0.00014023
1.88594e-05
1.88652e-05
0.000140659
0.000335271
0.000335984
0.000140895
1.88889e-05
1.88946e-05
0.000141345
0.000337295
0.000338007
0.000141625
1.89326e-05
1.89651e-05
0.000141977
0.000339323
0.000340045
0.000142234
1.89751e-05
1.89832e-05
0.000142747
0.000341408
0.000342141
0.000143018
1.90206e-05
1.90549e-05
0.000143405
0.000343501
0.000344234
0.000143662
1.90647e-05
1.90738e-05
0.000144204
0.000345642
0.000346378
0.000144479
1.91116e-05
1.91466e-05
0.000144886
0.000347777
0.000348503
0.000145148
1.91565e-05
1.9166e-05
0.000145707
0.000349943
0.000350666
0.000145985
1.92039e-05
1.92392e-05
0.000146402
0.000352085
0.000352786
0.00014666
1.92489e-05
1.92583e-05
0.000147227
0.000354231
0.000354928
0.000147495
1.92959e-05
1.93309e-05
0.000147908
0.000356337
0.000357015
0.000148148
1.93398e-05
1.93483e-05
0.000148706
0.000358425
0.000359079
0.00014894
1.93845e-05
1.9418e-05
0.000149323
0.000360418
0.000361039
0.00014952
1.94247e-05
1.94308e-05
0.000150033
0.000362325
0.000362894
0.000150191
1.94636e-05
1.94935e-05
0.000150501
0.000364051
0.000364567
0.000150604
1.94958e-05
1.94964e-05
0.000151003
0.000365627
0.00036607
0.000150972
1.95371e-05
1.95333e-05
0.000151237
0.000366946
0.000367319
0.000151186
1.95439e-05
1.95359e-05
0.000151329
0.000368054
0.000368243
0.00015113
1.95672e-05
1.95554e-05
0.000151118
0.000368754
0.00036881
0.00015082
1.95539e-05
1.95355e-05
0.000150653
0.000369055
0.000368973
0.000150208
1.95418e-05
1.95451e-05
0.00014973
0.000369017
0.000368632
0.00014912
1.95177e-05
1.94884e-05
0.000148574
0.000368516
0.000367715
0.000147741
1.94837e-05
1.94764e-05
0.000146848
0.00036748
0.00036631
0.000145748
1.94395e-05
1.94055e-05
0.000144823
0.00036602
0.000364471
0.000143424
1.94075e-05
1.93768e-05
0.000142287
0.000364109
0.000362308
0.000140747
1.93579e-05
1.93367e-05
0.000139491
0.00036198
0.000360051
0.000137888
1.93446e-05
1.93691e-05
0.000136487
0.000359864
0.000357997
0.000134881
1.93752e-05
1.94212e-05
0.000133598
0.000358164
0.000356733
0.000132073
1.94742e-05
1.95663e-05
0.000131028
0.000357485
0.000357347
0.000129812
1.9687e-05
1.98424e-05
0.000129058
0.000359017
0.000360811
0.000127652
2.00248e-05
2.02097e-05
0.000126774
0.000364662
0.000370141
0.000128239
2.0416e-05
2.06201e-05
0.000128824
0.0003749
0.000377558
0.000127999
2.06711e-05
2.08185e-05
0.000125627
0.000383105
0.000389413
0.000132342
2.11152e-05
2.13224e-05
0.000128529
0.000394967
0.000400435
0.00013178
2.16772e-05
2.19391e-05
0.000133602
0.000410489
0.000413395
0.000136634
2.23126e-05
2.28319e-05
0.000143743
0.000426387
0.000428426
0.000147422
2.33383e-05
2.37692e-05
0.000153396
0.000439201
0.000442428
0.000158834
2.46366e-05
2.64633e-05
0.000184302
0.000461962
0.000458986
0.000194187
1.98203e-05
1.52038e-05
4.72836e-05
0.000129277
0.00035886
0.000111029
1.79558e-05
1.88622e-05
9.94462e-05
0.000329571
0.000347278
0.00010333
1.93136e-05
1.96319e-05
9.77047e-05
0.000331922
0.000358044
0.000105635
2.02483e-05
2.08709e-05
0.000104258
0.000353458
0.000389244
0.000118715
2.15259e-05
2.22372e-05
0.000118114
0.00038215
0.000418718
0.000138298
2.32432e-05
2.43821e-05
0.000141678
0.000421087
0.000467906
0.000170814
2.69098e-05
2.05249e-05
0.000188707
0.000478327
0.000129421
4.44636e-05
1.6312e-05
1.95803e-05
0.000120445
0.000402305
0.000393328
0.000112414
2.13496e-05
2.27026e-05
0.000147505
0.000487729
0.00049774
0.000148877
2.35351e-05
2.50638e-05
0.00017468
0.000553004
0.000570505
0.000185899
2.66437e-05
2.98616e-05
0.000222526
0.00062441
0.000605225
0.00024127
2.32591e-05
1.76957e-05
5.4882e-05
0.000159995
0.000494351
0.000146293
2.09725e-05
2.26557e-05
0.000135463
0.000484193
0.000554207
0.000166883
2.41158e-05
2.59539e-05
0.000167667
0.000547007
0.000620468
0.000213094
2.97954e-05
2.38874e-05
0.000247764
0.00062672
0.000170906
5.44381e-05
1.75894e-05
2.1993e-05
0.000154001
0.000560228
0.00057725
0.000161578
2.48535e-05
2.87122e-05
0.000227636
0.000742792
0.000777715
0.00026955
3.36689e-05
2.75943e-05
0.000311045
0.000787764
0.000220205
6.39469e-05
1.85473e-05
2.40843e-05
0.000206395
0.000696608
0.000691328
0.00019955
2.80759e-05
3.51814e-05
0.000296896
0.000875131
0.000892125
0.000346578
2.93013e-05
1.93986e-05
7.1656e-05
0.000273078
0.000901026
0.000265044
2.79414e-05
3.53387e-05
0.000280554
0.000969743
0.00134562
0.000473193
4.82893e-05
4.02606e-05
0.000504875
0.00129367
0.000457394
0.000119981
2.62632e-05
4.68382e-05
0.000489822
0.00140815
0.00140749
0.000524305
4.37072e-05
2.98336e-05
0.000135406
0.000553799
0.00195012
0.000648181
6.5096e-05
6.41151e-05
0.000748207
0.00212052
0.000966774
0.00026709
4.07172e-05
6.49022e-05
0.00086688
0.00252595
0.00167441
0.000555403
4.32734e-05
8.0227e-05
0.00097664
0.00197024
0.00169111
0.000817231
6.60406e-05
6.68268e-05
0.000778389
0.00185372
0.00237551
0.000857931
7.64317e-05
0.000105499
0.00159986
0.00395423
0.000879143
0.000273337
5.99382e-05
6.13694e-05
0.000766137
0.00175534
0.000542786
0.000193989
4.27743e-05
4.64534e-05
0.000473438
0.00113725
0.000971424
0.000347318
4.66088e-05
2.50995e-05
8.84531e-05
0.000279485
0.000655757
0.000351659
3.07887e-05
2.90724e-05
0.000115698
0.000299402
0.000725105
0.000320896
3.31887e-05
3.53844e-05
0.000259125
0.000656247
0.000212288
7.96112e-05
2.3381e-05
2.78373e-05
0.000250941
0.000565292
0.000519476
0.000210441
3.12653e-05
2.17961e-05
6.85005e-05
0.000173848
0.000481781
0.000214451
2.5304e-05
2.91766e-05
0.000186601
0.000442823
0.000153399
6.41196e-05
2.11792e-05
2.38508e-05
0.000190515
0.000424708
0.000384511
0.00016772
2.79611e-05
2.07642e-05
5.91378e-05
0.000136866
0.000374674
0.00017129
2.25679e-05
2.69961e-05
0.000151079
0.000341169
0.000123713
5.57499e-05
2.04744e-05
2.19314e-05
0.000159453
0.000337844
0.00030503
0.000140083
2.61981e-05
2.00775e-05
5.25275e-05
0.000114366
0.000308263
0.00014735
2.10029e-05
2.56658e-05
0.000130821
0.000281512
0.000110614
5.21491e-05
2.015e-05
2.10847e-05
0.000149605
0.000300577
0.000257224
0.000121669
2.65854e-05
2.20146e-05
9.53681e-05
0.000207707
8.22185e-05
3.70796e-05
1.76559e-05
1.75435e-05
0.000100499
0.000204093
0.000192906
9.30098e-05
2.25788e-05
1.83386e-05
3.80004e-05
7.78661e-05
0.000188991
9.6032e-05
1.73645e-05
2.20326e-05
8.78937e-05
0.000174871
7.42581e-05
3.66679e-05
1.76493e-05
1.67519e-05
9.02088e-05
0.000169169
0.000160975
8.55003e-05
2.16892e-05
1.79117e-05
3.55529e-05
6.95348e-05
0.000159911
8.5909e-05
1.67421e-05
2.14665e-05
8.09661e-05
0.000150133
6.67082e-05
3.46628e-05
1.76552e-05
1.63995e-05
8.06125e-05
0.000147485
0.0001408
7.77418e-05
2.12404e-05
1.74106e-05
3.34672e-05
6.34867e-05
0.000137937
7.72959e-05
1.59428e-05
2.09976e-05
7.37505e-05
0.000131491
6.10253e-05
3.30586e-05
1.71365e-05
1.54314e-05
7.0476e-05
0.000124741
0.000121776
6.91199e-05
2.05766e-05
1.69216e-05
3.04282e-05
5.47851e-05
0.000108089
7.76484e-05
1.48929e-05
1.93497e-05
3.86888e-05
6.29859e-05
0.000143285
8.29616e-05
1.73912e-05
2.18198e-05
7.56214e-05
0.000132769
6.42324e-05
3.67461e-05
1.77362e-05
1.62464e-05
7.94863e-05
0.000133308
0.000126167
7.38601e-05
2.14536e-05
1.78973e-05
3.6951e-05
6.25611e-05
0.00013098
7.878e-05
1.63063e-05
2.12768e-05
7.32773e-05
0.000123732
6.09118e-05
3.6858e-05
1.77008e-05
1.60865e-05
7.41166e-05
0.000118455
0.000112004
6.70184e-05
2.13533e-05
1.77504e-05
3.61535e-05
5.70014e-05
0.000109213
6.91685e-05
1.56743e-05
2.05645e-05
6.2943e-05
0.000103428
5.04335e-05
3.29567e-05
1.66475e-05
1.44443e-05
6.73905e-05
9.1276e-05
5.55275e-05
3.79425e-05
1.9085e-05
1.69042e-05
6.88093e-05
0.000109035
9.95226e-05
6.13922e-05
2.14942e-05
1.75008e-05
3.63877e-05
5.31917e-05
9.93011e-05
6.48248e-05
1.56034e-05
2.06461e-05
5.98107e-05
9.03436e-05
4.84005e-05
3.43637e-05
1.70021e-05
1.45551e-05
6.41077e-05
8.29324e-05
5.2418e-05
3.77537e-05
1.92517e-05
1.67715e-05
6.58934e-05
0.00010039
9.06204e-05
5.8985e-05
2.1252e-05
1.7433e-05
3.69287e-05
5.06347e-05
9.39229e-05
6.25898e-05
1.55542e-05
2.06631e-05
5.6949e-05
8.53468e-05
4.65692e-05
3.45493e-05
1.69527e-05
1.4575e-05
5.97306e-05
7.59174e-05
4.91198e-05
3.71284e-05
1.92846e-05
1.65643e-05
6.13754e-05
9.25257e-05
8.31339e-05
5.55009e-05
2.11149e-05
1.73645e-05
3.67704e-05
4.71159e-05
8.44697e-05
5.75916e-05
1.55142e-05
2.06451e-05
5.28974e-05
7.67213e-05
4.33854e-05
3.44867e-05
1.73929e-05
1.46258e-05
5.54906e-05
6.75087e-05
4.48824e-05
3.63921e-05
1.91745e-05
1.61822e-05
5.41494e-05
8.22429e-05
7.37879e-05
5.02004e-05
2.08155e-05
1.68179e-05
3.49527e-05
4.25152e-05
6.63853e-05
5.51589e-05
1.41673e-05
1.89878e-05
3.69325e-05
4.48235e-05
8.12942e-05
5.42631e-05
1.60439e-05
2.09974e-05
4.98205e-05
7.28266e-05
4.2493e-05
3.5748e-05
1.72602e-05
1.45113e-05
5.36735e-05
6.53585e-05
4.4854e-05
3.78505e-05
1.90561e-05
1.59079e-05
5.41173e-05
8.03e-05
7.19001e-05
4.99075e-05
2.0794e-05
1.71252e-05
3.59516e-05
4.22066e-05
6.46889e-05
5.47505e-05
1.42023e-05
1.91119e-05
3.8076e-05
4.44197e-05
7.88742e-05
5.26824e-05
1.61392e-05
2.10581e-05
4.91911e-05
7.09049e-05
4.22813e-05
3.67308e-05
1.72175e-05
1.44552e-05
5.44081e-05
6.37787e-05
4.43855e-05
3.86952e-05
1.92159e-05
1.61331e-05
5.29634e-05
7.76209e-05
6.92315e-05
4.86478e-05
2.08778e-05
1.74288e-05
3.64126e-05
4.13037e-05
6.11199e-05
5.42183e-05
1.43584e-05
1.88461e-05
3.97315e-05
4.3997e-05
6.71721e-05
5.13296e-05
1.51707e-05
1.95369e-05
3.96038e-05
4.62679e-05
7.95486e-05
5.28569e-05
1.63953e-05
2.08203e-05
4.93616e-05
7.08283e-05
4.29697e-05
3.77177e-05
1.69705e-05
1.41861e-05
5.42413e-05
6.33311e-05
4.46255e-05
3.99529e-05
1.92863e-05
1.61871e-05
5.23726e-05
7.6284e-05
6.82058e-05
4.8762e-05
2.10586e-05
1.75208e-05
3.75793e-05
4.15681e-05
6.02336e-05
5.35964e-05
1.45674e-05
1.91644e-05
4.06126e-05
4.41171e-05
6.57854e-05
5.08573e-05
1.55256e-05
1.95679e-05
4.05445e-05
4.61535e-05
7.76263e-05
5.20634e-05
1.61956e-05
2.09523e-05
4.9005e-05
6.92942e-05
4.28074e-05
3.899e-05
1.71754e-05
1.42964e-05
5.42561e-05
6.19735e-05
4.58821e-05
4.21861e-05
1.93094e-05
1.54631e-05
5.26895e-05
6.73475e-05
4.79669e-05
4.32762e-05
1.98924e-05
1.66018e-05
5.27564e-05
7.87875e-05
7.02904e-05
4.96729e-05
2.14861e-05
1.75538e-05
4.00664e-05
4.35413e-05
6.23753e-05
5.61528e-05
1.44987e-05
1.92379e-05
4.31029e-05
4.6436e-05
6.77276e-05
5.34577e-05
1.54841e-05
1.98469e-05
4.36632e-05
4.82914e-05
7.94151e-05
5.35918e-05
1.6541e-05
2.12827e-05
5.06478e-05
7.10397e-05
4.46358e-05
4.13368e-05
1.74627e-05
1.46347e-05
5.64762e-05
6.38256e-05
4.78049e-05
4.44813e-05
1.96179e-05
1.58672e-05
5.46093e-05
6.90474e-05
4.9584e-05
4.50975e-05
1.98919e-05
1.64644e-05
5.41873e-05
8.01323e-05
7.1446e-05
5.09419e-05
2.11266e-05
1.72777e-05
4.08516e-05
4.44491e-05
6.26936e-05
5.56677e-05
1.46355e-05
1.95744e-05
4.37078e-05
4.68618e-05
6.69537e-05
5.34604e-05
1.57523e-05
1.99989e-05
4.48344e-05
4.85102e-05
7.74762e-05
5.30774e-05
1.65866e-05
2.14029e-05
5.02393e-05
6.92607e-05
4.41038e-05
4.14219e-05
1.75228e-05
1.46706e-05
5.55635e-05
6.2196e-05
4.70224e-05
4.40817e-05
1.94926e-05
1.53973e-05
5.30067e-05
6.63697e-05
4.94349e-05
4.50471e-05
1.96305e-05
1.56385e-05
5.38167e-05
6.92009e-05
5.09354e-05
4.79289e-05
1.99645e-05
1.66528e-05
5.52661e-05
7.95148e-05
7.09351e-05
5.23851e-05
2.13336e-05
1.76483e-05
4.33036e-05
4.56826e-05
6.33766e-05
5.8207e-05
1.47382e-05
1.95351e-05
4.54799e-05
4.82884e-05
6.70839e-05
5.3446e-05
1.57844e-05
1.99346e-05
4.59783e-05
5.03828e-05
6.94313e-05
5.46843e-05
1.57957e-05
2.0003e-05
4.86046e-05
5.14757e-05
7.93327e-05
5.54291e-05
1.65982e-05
2.131e-05
5.26868e-05
7.11878e-05
4.65099e-05
4.40962e-05
1.75599e-05
1.46655e-05
5.85118e-05
6.44148e-05
4.93766e-05
4.6763e-05
1.97983e-05
1.58549e-05
5.47442e-05
6.8384e-05
5.15966e-05
4.75452e-05
2.00323e-05
1.59952e-05
5.59631e-05
7.08558e-05
5.30356e-05
5.0422e-05
2.02705e-05
1.68991e-05
5.72705e-05
8.0977e-05
7.26047e-05
5.43813e-05
2.1559e-05
1.75472e-05
4.51521e-05
4.78925e-05
6.50261e-05
5.96032e-05
1.47678e-05
1.98816e-05
4.75801e-05
5.04416e-05
6.8566e-05
5.54341e-05
1.57797e-05
2.00159e-05
4.77256e-05
5.1941e-05
7.03253e-05
5.56145e-05
1.59089e-05
2.03591e-05
5.05412e-05
5.31012e-05
7.95667e-05
5.6576e-05
1.68561e-05
2.16864e-05
5.43666e-05
7.19923e-05
4.83909e-05
4.6519e-05
1.8133e-05
1.52109e-05
5.97667e-05
6.45835e-05
5.07667e-05
4.86243e-05
1.99241e-05
1.58276e-05
5.56383e-05
6.87015e-05
5.27369e-05
4.89443e-05
2.00598e-05
1.58124e-05
5.61601e-05
7.0628e-05
5.42121e-05
5.0269e-05
2.00554e-05
1.60678e-05
5.8584e-05
7.2415e-05
5.49843e-05
5.30691e-05
2.02592e-05
1.68371e-05
5.8861e-05
8.15407e-05
7.38994e-05
5.61902e-05
2.15399e-05
1.75965e-05
4.65678e-05
4.97417e-05
6.54492e-05
6.04721e-05
1.48786e-05
2.01363e-05
4.91951e-05
5.20775e-05
6.88341e-05
5.65156e-05
1.60831e-05
2.02837e-05
4.9665e-05
5.34408e-05
7.03334e-05
5.5882e-05
1.59294e-05
2.01722e-05
5.13281e-05
5.46435e-05
7.28325e-05
5.92553e-05
1.61556e-05
2.04277e-05
5.43641e-05
5.5918e-05
8.27898e-05
6.01682e-05
1.6969e-05
2.18247e-05
5.77703e-05
7.50961e-05
5.16716e-05
4.94402e-05
1.79842e-05
1.49156e-05
6.36276e-05
6.79481e-05
5.40499e-05
5.179e-05
2.00725e-05
1.58642e-05
5.90133e-05
7.20014e-05
5.59153e-05
5.19039e-05
2.02462e-05
1.60991e-05
5.90146e-05
7.36164e-05
5.72285e-05
5.36472e-05
2.02585e-05
1.61507e-05
6.20357e-05
7.57935e-05
5.83848e-05
5.64959e-05
2.04978e-05
1.7166e-05
6.22411e-05
8.49474e-05
7.73117e-05
5.95734e-05
2.18294e-05
1.79041e-05
5.03323e-05
5.3342e-05
6.86706e-05
6.39847e-05
1.51876e-05
2.03802e-05
5.28122e-05
5.57061e-05
7.21765e-05
6.00238e-05
1.62506e-05
2.05574e-05
5.26684e-05
5.7101e-05
7.31315e-05
5.84168e-05
1.6247e-05
2.05323e-05
5.43083e-05
5.78219e-05
7.54345e-05
6.18418e-05
1.64758e-05
2.07308e-05
5.78087e-05
5.88999e-05
8.48624e-05
6.32905e-05
1.71877e-05
2.21201e-05
6.09917e-05
7.78276e-05
5.46845e-05
5.23537e-05
1.81651e-05
1.5185e-05
6.63386e-05
7.02671e-05
5.71893e-05
5.46686e-05
2.04119e-05
1.62429e-05
6.14896e-05
7.39361e-05
5.89394e-05
5.47075e-05
2.06138e-05
1.63307e-05
6.08707e-05
7.56862e-05
6.01791e-05
5.62152e-05
2.05082e-05
1.64451e-05
6.40981e-05
7.7581e-05
6.09143e-05
5.92145e-05
2.06906e-05
1.71974e-05
6.44023e-05
8.63227e-05
7.90433e-05
6.20511e-05
2.21675e-05
1.81189e-05
5.27887e-05
5.57499e-05
6.99356e-05
6.64157e-05
1.52933e-05
2.06164e-05
5.52717e-05
5.80453e-05
7.26153e-05
6.12892e-05
1.63497e-05
2.07348e-05
5.52686e-05
5.90524e-05
7.39921e-05
6.01981e-05
1.63997e-05
2.05994e-05
5.65468e-05
5.99918e-05
7.6007e-05
6.29644e-05
1.64116e-05
2.0561e-05
5.87521e-05
6.16919e-05
7.89511e-05
6.62843e-05
1.64341e-05
2.07767e-05
6.17461e-05
6.27426e-05
8.87989e-05
6.6829e-05
1.73033e-05
2.24579e-05
6.47222e-05
8.17429e-05
5.87309e-05
5.69433e-05
1.8624e-05
1.54893e-05
7.03739e-05
7.38305e-05
6.12053e-05
5.91053e-05
2.06194e-05
1.64498e-05
6.52995e-05
7.76427e-05
6.31008e-05
5.93242e-05
2.08204e-05
1.65068e-05
6.60268e-05
7.99193e-05
6.46998e-05
6.10206e-05
2.06705e-05
1.65275e-05
6.90321e-05
8.27684e-05
6.60504e-05
6.40957e-05
2.09072e-05
1.74928e-05
6.93441e-05
9.16954e-05
8.40606e-05
6.69993e-05
2.26361e-05
1.86498e-05
5.84791e-05
6.07348e-05
7.5528e-05
7.2463e-05
1.5546e-05
2.08461e-05
6.07844e-05
6.34616e-05
7.81781e-05
6.70103e-05
1.66685e-05
2.0976e-05
6.02966e-05
6.44498e-05
7.91554e-05
6.58594e-05
1.67397e-05
2.08554e-05
6.17361e-05
6.52894e-05
8.11728e-05
6.85084e-05
1.66638e-05
2.11243e-05
6.49359e-05
6.59947e-05
9.02714e-05
6.9214e-05
1.75905e-05
2.30454e-05
6.7593e-05
8.33893e-05
6.1832e-05
6.0549e-05
1.90283e-05
1.57093e-05
7.33484e-05
7.5845e-05
6.43483e-05
6.26712e-05
2.09496e-05
1.67356e-05
6.83843e-05
7.94093e-05
6.61904e-05
6.27676e-05
2.10845e-05
1.66957e-05
6.8601e-05
8.13136e-05
6.74007e-05
6.43793e-05
2.09768e-05
1.68494e-05
7.09094e-05
8.40746e-05
6.88216e-05
6.77913e-05
2.142e-05
1.7819e-05
7.20251e-05
9.31786e-05
8.57801e-05
7.02127e-05
2.31532e-05
1.90555e-05
6.25785e-05
6.40795e-05
7.81808e-05
7.6355e-05
1.57865e-05
2.10371e-05
6.43951e-05
6.67161e-05
8.06911e-05
7.00372e-05
1.68224e-05
2.13312e-05
6.42933e-05
6.79041e-05
8.18524e-05
6.95673e-05
1.68758e-05
2.13534e-05
6.60654e-05
6.89454e-05
8.40491e-05
7.19018e-05
1.70028e-05
2.18318e-05
6.97676e-05
6.98613e-05
9.33156e-05
7.3148e-05
1.8289e-05
2.38504e-05
7.19176e-05
8.65906e-05
6.63466e-05
6.5882e-05
1.96089e-05
1.63321e-05
7.84106e-05
8.02956e-05
6.91362e-05
6.79094e-05
2.14014e-05
1.70655e-05
7.43097e-05
8.41434e-05
7.10693e-05
6.82103e-05
2.16891e-05
1.70442e-05
7.40774e-05
8.65021e-05
7.19116e-05
7.08368e-05
2.20069e-05
1.8487e-05
7.40211e-05
9.46923e-05
8.75032e-05
7.27596e-05
2.42494e-05
1.97319e-05
6.59697e-05
6.71907e-05
7.93823e-05
7.82399e-05
1.63637e-05
2.1812e-05
6.83314e-05
6.9746e-05
8.26446e-05
7.37761e-05
1.74493e-05
2.21453e-05
6.86807e-05
7.11418e-05
8.45226e-05
7.29923e-05
1.743e-05
2.25124e-05
7.18833e-05
7.17307e-05
9.27655e-05
7.39234e-05
1.86427e-05
2.45583e-05
7.32634e-05
8.63463e-05
6.81459e-05
6.84949e-05
2.01596e-05
1.66141e-05
7.97278e-05
8.032e-05
7.06033e-05
7.0242e-05
2.19071e-05
1.72465e-05
7.4143e-05
8.3997e-05
7.27001e-05
7.08835e-05
2.23378e-05
1.77577e-05
7.52758e-05
8.6541e-05
7.39866e-05
7.42049e-05
2.28273e-05
1.89059e-05
7.59799e-05
9.43211e-05
8.79457e-05
7.53371e-05
2.50649e-05
2.01924e-05
6.91308e-05
7.01849e-05
8.03026e-05
8.05777e-05
1.65617e-05
2.24539e-05
7.1797e-05
7.23053e-05
8.41624e-05
7.59464e-05
1.78909e-05
2.28197e-05
7.26447e-05
7.40009e-05
8.64788e-05
7.57034e-05
1.79508e-05
2.33111e-05
7.61783e-05
7.48196e-05
9.50713e-05
7.71465e-05
1.94046e-05
2.55272e-05
7.68004e-05
8.88794e-05
7.19503e-05
7.27682e-05
2.06557e-05
1.69581e-05
8.35348e-05
8.32852e-05
7.48208e-05
7.55279e-05
2.29129e-05
1.82468e-05
7.95735e-05
8.80239e-05
7.74469e-05
7.66454e-05
2.35435e-05
1.87163e-05
7.94803e-05
9.11121e-05
7.9096e-05
8.04666e-05
2.42202e-05
2.01144e-05
8.14128e-05
9.96174e-05
9.33053e-05
8.12651e-05
2.6551e-05
2.15229e-05
7.65301e-05
7.63475e-05
8.68533e-05
8.76243e-05
1.76094e-05
2.34868e-05
7.89972e-05
7.85497e-05
9.11585e-05
8.23953e-05
1.87513e-05
2.47057e-05
8.18581e-05
8.03711e-05
9.92306e-05
8.1858e-05
2.05315e-05
2.69564e-05
8.11413e-05
9.34437e-05
7.68853e-05
7.79004e-05
2.19711e-05
1.7819e-05
8.79536e-05
8.73163e-05
7.98416e-05
8.10137e-05
2.4084e-05
1.92648e-05
8.41851e-05
9.25808e-05
8.27625e-05
8.2947e-05
2.50145e-05
1.9871e-05
8.48242e-05
9.64369e-05
8.50156e-05
8.76258e-05
2.57996e-05
2.14452e-05
8.78441e-05
0.000105861
9.92885e-05
8.80198e-05
2.83332e-05
2.31326e-05
8.49636e-05
8.31732e-05
9.40412e-05
9.55635e-05
1.87586e-05
2.50953e-05
8.7297e-05
8.60804e-05
9.9028e-05
8.98483e-05
2.00668e-05
2.63666e-05
9.03318e-05
8.79594e-05
0.00010824
8.9793e-05
2.15605e-05
2.87926e-05
9.00623e-05
0.000102254
8.64293e-05
8.86881e-05
2.42522e-05
1.99354e-05
9.77156e-05
9.71176e-05
8.93609e-05
9.18595e-05
2.65023e-05
2.124e-05
9.37047e-05
0.000103078
9.22098e-05
9.55681e-05
2.78833e-05
2.3253e-05
9.43792e-05
0.000112822
0.00010657
9.48655e-05
3.0727e-05
2.50959e-05
9.28736e-05
9.06401e-05
0.000101776
0.000102438
2.03408e-05
2.76839e-05
9.75241e-05
9.33799e-05
0.000112211
9.56327e-05
2.30884e-05
3.08239e-05
9.55475e-05
0.000106793
9.08808e-05
9.2177e-05
2.50638e-05
2.0005e-05
0.000103167
0.00010116
9.34964e-05
9.51412e-05
2.72399e-05
2.18448e-05
9.61617e-05
0.000105607
9.55612e-05
9.89576e-05
2.90007e-05
2.4162e-05
9.67351e-05
0.000114565
0.000109021
9.80419e-05
3.21098e-05
2.62647e-05
9.70309e-05
9.46348e-05
0.000104239
0.000105011
2.15594e-05
2.92344e-05
0.000102486
9.71301e-05
0.000114422
9.93572e-05
2.45324e-05
3.27511e-05
9.96398e-05
0.000109394
9.59765e-05
9.88695e-05
2.69583e-05
2.17839e-05
0.000106734
0.000105189
9.77902e-05
0.00010342
2.93385e-05
2.39458e-05
9.93451e-05
0.000114798
0.000109923
0.000100171
3.26638e-05
2.73025e-05
9.92291e-05
9.65405e-05
0.000105571
0.000106192
2.2389e-05
3.04677e-05
0.000105298
9.92521e-05
0.000114919
0.000100781
2.52824e-05
3.40355e-05
0.000101597
0.000110232
9.83392e-05
0.000101917
2.7934e-05
2.26329e-05
0.000108315
0.00010653
0.00010067
0.000107201
3.06913e-05
2.53673e-05
0.00010238
0.000116549
0.000111904
0.000103037
3.41517e-05
2.80181e-05
0.000103052
9.97217e-05
0.000108053
0.000111577
2.18735e-05
3.05065e-05
0.000108344
0.000101906
0.000117274
0.000102486
2.57835e-05
3.51739e-05
0.000103634
0.000112772
0.000102086
0.000107679
2.94198e-05
2.40487e-05
0.000111704
0.00011039
0.000105356
0.000114259
3.261e-05
2.71227e-05
0.000107934
0.000121548
0.000116902
0.000109067
3.62776e-05
2.98862e-05
0.000111453
0.000106263
0.000114501
0.000116338
2.42157e-05
3.29979e-05
0.00011843
0.000109359
0.000126662
0.000112833
2.71954e-05
3.61528e-05
0.00011252
0.000121975
0.000110599
0.000120025
3.14515e-05
2.71965e-05
0.00011953
0.000124898
0.000120977
0.000119096
3.77734e-05
3.20362e-05
0.000119041
0.000112579
0.000121875
0.000122692
2.62901e-05
3.55468e-05
0.000125575
0.000116663
0.000132635
0.000118089
2.96453e-05
3.94748e-05
0.000119643
0.000127791
0.000117422
0.000127575
3.3233e-05
2.8238e-05