/*--------------------------------*- C++ -*----------------------------------*\
| =========                 |                                                 |
| \\      /  F ield         | OpenFOAM: The Open Source CFD Toolbox           |
|  \\    /   O peration     | Version:  v2006                                 |
|   \\  /    A nd           | Website:  www.openfoam.com                      |
|    \\/     M anipulation  |                                                 |
\*---------------------------------------------------------------------------*/
FoamFile
{
    version     2.0;
    format      ascii;
    class       volScalarField;
    location    "0.029";
    object      isentropic(p);
}
// * * * * * * * * * * * * * * * * * * * * * * * * * * * * * * * * * * * * * //

dimensions      [1 -1 -2 0 0 0 0];


internalField   nonuniform List<scalar> 
16277
(
150009
150013
150016
150004
150012
150010
150011
150012
150013
150013
150013
150012
150012
150011
150011
150011
150010
150010
150010
150010
150010
150010
150010
150009
150009
150009
150009
150009
150009
150009
150009
150008
150008
150008
150008
150008
150008
150008
150008
150007
150007
150007
150007
150007
150007
150007
150007
150006
150006
150006
150006
150006
150006
150006
150006
150005
150005
150005
150005
150005
150005
150005
150005
150005
150005
150004
150004
150004
150004
150004
150004
150004
150004
150004
150004
150003
150003
150003
150003
150002
150002
150001
150001
150001
150001
150003
150004
150005
150004
150006
150005
150007
150008
150011
150017
150015
149976
149936
150011
150022
150021
150002
149897
149860
149993
150018
150013
149981
149826
149795
149971
150008
150002
149958
149768
149743
149948
149997
149990
149937
149721
149702
149929
149985
149979
149918
149683
149668
149910
149974
149968
149900
149653
149639
149892
149963
149957
149883
149626
149615
149876
149952
149947
149868
149604
149594
149861
149942
149937
149853
149584
149576
149848
149933
149927
149840
149567
149560
149835
149924
149918
149828
149552
149546
149823
149915
149910
149816
149539
149533
149812
149907
149902
149805
149527
149522
149802
149900
149895
149796
149516
149512
149792
149892
149888
149786
149506
149503
149784
149885
149881
149778
149498
149495
149775
149879
149875
149770
149490
149488
149767
149873
149868
149762
149484
149481
149760
149867
149863
149755
149478
149476
149753
149861
149857
149749
149473
149471
149747
149856
149852
149743
149469
149467
149741
149851
149847
149737
149465
149464
149736
149846
149843
149732
149462
149461
149731
149842
149838
149727
149459
149459
149726
149837
149834
149722
149458
149458
149722
149833
149830
149718
149457
149457
149718
149829
149826
149714
149456
149456
149714
149826
149822
149711
149456
149457
149711
149822
149819
149708
149456
149457
149708
149819
149816
149705
149457
149459
149705
149816
149813
149702
149459
149460
149703
149813
149810
149700
149461
149463
149700
149810
149807
149698
149463
149465
149699
149807
149805
149696
149466
149469
149697
149805
149802
149695
149470
149472
149696
149803
149800
149694
149474
149476
149695
149801
149798
149694
149478
149481
149695
149799
149797
149693
149483
149486
149694
149797
149795
149693
149488
149492
149695
149796
149794
149694
149494
149498
149695
149795
149793
149695
149500
149504
149696
149794
149793
149696
149507
149511
149698
149794
149793
149698
149513
149517
149700
149794
149793
149700
149521
149525
149702
149794
149794
149702
149528
149532
149705
149795
149795
149706
149535
149540
149709
149797
149796
149709
149543
149547
149713
149799
149799
149714
149550
149555
149717
149801
149802
149718
149558
149562
149722
149805
149805
149724
149565
149569
149727
149808
149809
149729
149571
149576
149733
149812
149813
149735
149578
149582
149739
149817
149817
149740
149583
149586
149744
149821
149822
149746
149587
149590
149749
149825
149826
149750
149589
149592
149754
149829
149830
149755
149591
149592
149758
149833
149833
149758
149591
149592
149761
149836
149837
149761
149589
149590
149763
149839
149839
149763
149587
149587
149765
149842
149842
149764
149583
149583
149766
149844
149843
149765
149579
149578
149766
149846
149845
149765
149574
149573
149766
149847
149846
149764
149568
149567
149765
149848
149846
149763
149563
149561
149764
149848
149846
149762
149557
149555
149762
149848
149846
149760
149551
149549
149760
149847
149846
149757
149545
149543
149758
149847
149845
149755
149539
149537
149755
149846
149844
149752
149534
149532
149752
149844
149842
149750
149528
149527
149750
149843
149841
149747
149524
149522
149747
149841
149839
149744
149519
149518
149744
149840
149838
149741
149515
149514
149741
149838
149836
149738
149511
149510
149738
149836
149834
149735
149507
149506
149735
149834
149832
149733
149503
149502
149732
149832
149830
149730
149500
149499
149730
149830
149828
149727
149496
149496
149727
149828
149826
149724
149493
149493
149724
149826
149824
149722
149490
149490
149722
149824
149822
149719
149487
149487
149719
149822
149820
149716
149484
149484
149716
149820
149817
149714
149482
149481
149714
149818
149815
149711
149479
149478
149711
149816
149814
149709
149476
149477
149710
149815
149813
149708
149475
149477
149711
149816
149817
149713
149481
149493
149724
149828
149864
149773
149549
149513
149694
149789
149860
149918
149952
149963
149968
149981
149985
149991
149993
149995
149996
149995
149994
149990
149986
149976
149971
149964
149956
149943
149910
149839
149698
149540
149278
149253
149522
149690
149657
149506
149249
149226
149494
149664
149648
149491
149228
149225
149490
149653
149649
149489
149224
149224
149488
149650
149651
149489
149225
149226
149490
149652
149653
149491
149227
149227
149492
149654
149655
149494
149229
149229
149495
149656
149657
149496
149230
149231
149497
149659
149659
149498
149232
149233
149499
149661
149662
149500
149234
149235
149501
149663
149664
149503
149236
149237
149504
149665
149666
149505
149238
149239
149506
149667
149669
149507
149240
149241
149509
149669
149671
149510
149242
149243
149511
149672
149673
149512
149244
149245
149513
149674
149675
149515
149245
149247
149516
149676
149678
149517
149247
149249
149518
149679
149680
149519
149249
149251
149521
149681
149683
149522
149251
149253
149523
149683
149685
149524
149253
149255
149526
149686
149687
149527
149255
149257
149528
149688
149690
149529
149257
149259
149531
149691
149692
149532
149259
149261
149533
149693
149695
149535
149261
149263
149536
149696
149697
149537
149263
149265
149538
149698
149700
149540
149265
149267
149541
149701
149703
149542
149267
149268
149544
149703
149705
149545
149269
149270
149546
149706
149708
149548
149271
149272
149549
149709
149711
149550
149272
149273
149552
149712
149714
149553
149274
149275
149554
149715
149717
149556
149275
149276
149557
149718
149720
149558
149276
149277
149560
149722
149724
149561
149277
149278
149563
149725
149727
149564
149278
149278
149566
149729
149731
149567
149278
149278
149569
149733
149735
149571
149278
149279
149573
149738
149740
149575
149279
149279
149577
149743
149745
149579
149279
149279
149581
149748
149751
149583
149279
149279
149586
149754
149757
149588
149279
149279
149591
149760
149763
149594
149279
149280
149598
149767
149770
149601
149281
149282
149605
149774
149778
149610
149284
149286
149614
149782
149786
149620
149289
149293
149626
149791
149796
149632
149297
149303
149639
149800
149805
149646
149308
149314
149653
149811
149818
149665
149326
149336
149676
149825
149833
149689
149350
149366
149697
149840
149847
149711
149381
149398
149721
149854
149860
149731
149416
149435
149742
149866
149873
149753
149456
149476
149764
149878
149882
149774
149494
149514
149783
149887
149894
149792
149534
149554
149810
149906
149893
149830
149593
149342
149616
149797
149867
149732
149400
149412
149751
149887
149893
149761
149430
149461
149771
149889
149902
149785
149482
149501
149794
149917
149922
149815
149540
149573
149825
149915
149938
149841
149595
149623
149853
149939
149952
149869
149645
149706
149897
149934
149871
149709
149522
149594
149841
149921
149935
149855
149613
149619
149871
149974
149958
149889
149669
149681
149899
149980
149984
149914
149710
149731
149930
150000
149971
149944
149781
149566
149854
149929
150000
149895
149655
149697
149919
150000
149994
149938
149742
149753
149943
150011
150015
149962
149791
149822
149981
150023
149971
149846
149726
149755
149947
150023
150043
149970
149793
149836
149986
150031
150053
150007
149863
149892
150021
150050
150016
149903
149812
149852
150008
150063
150069
150016
149873
149918
150039
150072
150077
150057
149953
149902
149949
150048
150084
150063
149964
149969
150068
150098
150114
150093
150015
150035
150099
150108
150107
150079
149995
150066
150127
150141
150135
150130
150088
150047
150161
150138
150175
150173
150144
150178
150190
150176
150207
150212
150195
150272
150248
150214
150176
150217
150229
150273
150224
150183
150211
150257
150307
150288
150267
150228
150183
150208
150175
150029
150099
150098
150001
149947
149837
149883
149960
149971
149917
149862
149736
149791
149898
149926
149907
149860
149723
149731
149705
149859
149874
149856
149656
149627
149781
149843
149887
149843
149687
149649
149809
149871
149819
149749
149581
149651
149821
149871
149859
149794
149625
149552
149729
149806
149863
149811
149632
149603
149782
149849
149793
149714
149525
149628
149809
149860
149847
149779
149595
149511
149701
149786
149858
149808
149631
149594
149775
149844
149782
149698
149508
149621
149803
149855
149844
149776
149595
149507
149696
149781
149854
149802
149619
149591
149774
149843
149784
149700
149508
149623
149807
149863
149854
149779
149589
149600
149760
149783
149761
149587
149531
149595
149800
149840
149803
149751
149568
149416
149719
149745
149836
149787
149598
149569
149755
149793
149765
149614
149513
149603
149805
149835
149791
149759
149586
149423
149714
149740
149849
149774
149567
149517
149741
149856
149757
149717
149402
149593
149787
149842
149802
149760
149568
149506
149613
149765
149842
149801
149596
149583
149767
149805
149766
149606
149521
149562
149786
149856
149863
149746
149510
149517
149572
149765
149845
149804
149555
149500
149709
149796
149866
149815
149618
149583
149778
149852
149784
149694
149498
149614
149810
149867
149852
149778
149581
149508
149705
149793
149873
149818
149620
149590
149787
149860
149790
149698
149498
149613
149814
149872
149854
149778
149574
149495
149698
149790
149870
149823
149629
149609
149794
149834
149785
149603
149556
149581
149825
149865
149808
149726
149517
149616
149827
149883
149869
149797
149593
149504
149711
149802
149879
149826
149623
149591
149796
149853
149800
149627
149546
149593
149831
149875
149817
149732
149517
149639
149844
149896
149884
149811
149612
149515
149719
149811
149892
149833
149628
149586
149799
149876
149812
149635
149552
149593
149839
149884
149824
149736
149516
149644
149851
149902
149888
149814
149609
149511
149723
149815
149897
149833
149614
149564
149787
149895
149787
149780
149404
149607
149806
149891
149822
149735
149496
149630
149846
149902
149886
149811
149594
149535
149658
149820
149893
149849
149598
149523
149748
149838
149902
149845
149622
149585
149801
149882
149797
149740
149462
149605
149827
149897
149841
149754
149526
149634
149853
149910
149889
149806
149594
149456
149758
149801
149901
149826
149612
149514
149750
149838
149906
149848
149623
149578
149805
149885
149819
149658
149518
149607
149863
149901
149847
149756
149523
149623
149854
149909
149888
149802
149579
149393
149787
149789
149907
149789
149623
149484
149743
149828
149883
149851
149628
149545
149757
149804
149887
149866
149669
149594
149819
149894
149828
149675
149505
149587
149852
149903
149844
149748
149508
149604
149849
149908
149886
149793
149561
149370
149783
149784
149904
149775
149601
149448
149728
149819
149894
149848
149599
149520
149761
149834
149905
149855
149622
149566
149810
149888
149823
149635
149508
149549
149851
149894
149834
149732
149473
149558
149839
149923
149873
149744
149468
149579
149848
149927
149889
149792
149548
149420
149759
149797
149902
149813
149585
149462
149734
149829
149901
149840
149575
149485
149745
149840
149911
149850
149599
149553
149803
149887
149812
149653
149470
149543
149837
149889
149821
149715
149448
149566
149841
149903
149842
149744
149478
149591
149848
149911
149886
149799
149538
149491
149597
149811
149875
149873
149502
149430
149705
149818
149889
149829
149537
149440
149722
149822
149897
149833
149563
149510
149782
149871
149795
149568
149463
149492
149866
149870
149813
149698
149423
149528
149820
149887
149815
149710
149431
149537
149824
149891
149825
149723
149444
149559
149830
149894
149868
149770
149515
149311
149740
149754
149884
149750
149537
149376
149692
149793
149874
149801
149490
149403
149697
149805
149883
149817
149521
149427
149710
149814
149887
149822
149545
149485
149768
149860
149782
149560
149427
149454
149831
149853
149787
149667
149368
149478
149795
149866
149791
149681
149378
149497
149803
149872
149799
149688
149392
149525
149811
149879
149853
149759
149470
149414
149540
149773
149840
149841
149423
149347
149651
149779
149854
149785
149458
149342
149658
149774
149854
149783
149465
149362
149671
149783
149860
149791
149495
149434
149719
149829
149704
149705
149201
149468
149690
149850
149751
149639
149291
149429
149768
149843
149761
149640
149316
149434
149767
149843
149762
149645
149323
149444
149771
149845
149771
149658
149345
149464
149774
149848
149818
149717
149403
149361
149455
149732
149794
149832
149323
149265
149589
149734
149816
149739
149379
149266
149607
149733
149825
149749
149404
149284
149618
149742
149826
149750
149411
149303
149631
149751
149832
149758
149441
149367
149692
149799
149707
149492
149280
149342
149749
149792
149715
149580
149241
149362
149724
149804
149717
149588
149242
149365
149724
149805
149720
149593
149252
149388
149734
149812
149734
149613
149276
149405
149737
149815
149785
149676
149340
149276
149407
149690
149761
149781
149267
149192
149549
149697
149780
149699
149308
149173
149551
149688
149783
149703
149322
149188
149559
149693
149784
149702
149330
149220
149576
149703
149790
149709
149361
149293
149644
149758
149656
149404
149194
149254
149710
149748
149667
149522
149142
149270
149673
149759
149665
149524
149137
149288
149680
149763
149669
149531
149150
149295
149680
149765
149679
149545
149173
149320
149683
149768
149732
149611
149239
149190
149311
149632
149702
149752
149146
149083
149471
149634
149727
149636
149211
149073
149480
149630
149732
149641
149217
149082
149488
149635
149731
149639
149222
149098
149493
149637
149735
149645
149243
149116
149506
149646
149738
149650
149276
149204
149575
149707
149567
149441
149003
149202
149587
149709
149603
149458
149030
149184
149610
149707
149604
149455
149038
149191
149614
149709
149611
149462
149059
149201
149614
149709
149619
149477
149078
149231
149624
149715
149680
149548
149150
149013
149322
149557
149662
149605
149102
148969
149402
149569
149677
149582
149128
148968
149411
149571
149674
149578
149127
148989
149420
149574
149676
149580
149140
149006
149432
149582
149676
149580
149164
149080
149493
149638
149488
149355
148867
149077
149506
149643
149527
149363
148895
149063
149534
149642
149532
149366
148907
149084
149545
149648
149539
149376
148927
149093
149547
149648
149552
149394
148952
149128
149557
149655
149619
149473
149036
148861
149240
149473
149596
149528
148993
148832
149306
149491
149600
149492
148986
148829
149307
149486
149601
149491
148998
148848
149321
149492
149608
149502
149021
148862
149336
149503
149612
149511
149054
148964
149427
149580
149422
149197
148762
148936
149467
149563
149453
149261
148765
148949
149466
149575
149459
149277
148781
148979
149476
149579
149456
149277
148779
148963
149454
149567
149525
149366
148860
148728
149042
149386
149506
149446
148809
148654
149197
149398
149524
149407
148843
148658
149200
149398
149528
149409
148866
148686
149220
149410
149535
149423
148913
148803
149316
149497
149293
149160
148501
148812
149314
149492
149357
149163
148579
148788
149358
149486
149332
149132
148554
148775
149347
149475
149352
149153
148590
148809
149357
149485
149436
149253
148679
148569
148875
149285
149408
149354
148632
148454
149067
149292
149434
149306
148692
148485
149082
149299
149445
149314
148710
148504
149100
149312
149451
149330
148755
148627
149222
149416
149222
148897
148419
148550
149242
149366
149218
148973
148332
148589
149238
149377
149235
149009
148369
148604
149245
149388
149250
149027
148395
148649
149261
149398
149353
149146
148512
148282
148821
149149
149322
149208
148496
148282
148941
149191
149343
149206
148526
148301
148965
149201
149354
149224
148582
148461
149115
149321
149077
148661
148164
148348
149099
149244
149093
148829
148126
148394
149110
149270
149115
148861
148156
148427
149130
149285
149136
148891
148194
148474
149148
149300
149256
149026
148344
148018
148737
149004
149228
149036
148351
148064
148809
149068
149246
149087
148362
148099
148842
149090
149244
149117
148469
148193
148917
149156
148896
148596
147864
148183
148953
149129
148974
148698
147922
148213
148997
149169
149011
148741
147962
148270
149025
149191
149144
148890
148119
147777
148544
148868
149098
148912
148117
147831
148648
148945
149140
148972
148188
148031
148844
149108
148802
148468
147651
147958
148812
149007
148770
148443
147568
147894
148782
148993
148821
148511
147634
147988
148839
149032
148982
148690
147815
147462
148298
148696
148946
148757
147821
147504
148432
148773
148994
148810
147912
147718
148646
148949
148613
148228
147303
147715
148699
148892
148738
148393
147437
147766
148694
148894
148768
148427
147440
146995
148036
148434
148753
148514
147493
147140
148187
148559
148819
148597
147611
147390
148432
148771
148420
147948
146977
147375
148491
148718
148520
148119
147047
147510
148563
148775
148733
148374
147292
146801
147888
148334
148620
148464
147352
146786
147892
148322
148582
148322
147216
146985
148107
148499
148155
147768
146504
147077
148219
148529
148293
147876
146654
147195
148324
148586
148538
148149
146948
146458
147598
148122
148467
148232
146988
146621
147833
148276
148515
148328
147248
146986
148134
148486
147902
147369
146103
146711
147947
148263
148193
147748
146465
145925
147364
147827
148244
147898
146598
146091
147506
147981
148324
148034
146761
146506
147867
148292
147815
147263
145898
146609
147911
148191
148251
147808
146449
145575
147148
147665
147941
147533
146000
145675
147251
147810
147353
146774
145074
145904
147484
147871
147596
147018
145407
146196
147670
148009
147988
147485
145944
145273
146818
147452
147865
147553
146123
145996
147490
147965
147278
146680
144974
145392
147082
147551
147401
146798
145024
144474
146252
146968
147514
147093
145421
145130
146914
147508
147004
146269
144445
145450
147120
147511
147572
147003
145172
144504
146297
147008
147237
146778
145024
144271
146340
147016
146755
145981
143783
143137
145305
146275
146944
146464
144375
144053
146260
147002
146432
145597
143218
144622
146557
146967
147241
146737
144611
142989
145517
146456
145558
144471
141847
143339
145702
146336
146348
145555
142955
142448
145290
146218
145654
144281
141829
143565
145863
146350
146576
145861
143266
141284
144456
145600
144700
143354
140238
142257
144998
145670
145768
144912
141883
141419
144833
145821
145971
144704
141633
138243
142639
144013
144959
143798
140272
139963
143705
144929
144906
143544
139462
139387
143800
145147
144750
142932
137712
136475
141825
143970
142815
140872
135147
139358
143259
144415
144395
142974
138565
137401
142323
144090
143715
141911
136614
136188
141709
143493
143340
141254
135316
134892
141008
143239
143221
140849
134619
134337
140659
143194
143131
140436
134051
133795
140206
143045
142949
139978
133575
133388
139754
142844
142734
139537
133227
133091
139328
142618
142501
139130
132977
132883
138944
142380
142260
138769
132807
132748
138605
142138
142016
138451
132702
132667
138306
141892
141770
138172
132643
132628
138048
141647
141527
137934
132622
132623
137828
141408
141291
137731
132631
132645
137643
141175
141062
137562
132664
132688
137489
140952
140845
137424
132716
132746
137364
140740
140639
137310
132780
132816
137261
140539
140444
137219
132855
132895
137181
140351
140264
137147
132936
132979
137117
140179
140098
137090
133022
133065
137067
140020
139946
137046
133109
133152
137027
139875
139808
137012
133196
133238
136998
139744
139685
136986
133281
133322
136976
139628
139575
136968
133364
133404
136961
139525
139478
136955
133444
133483
136950
139433
139393
136946
133521
133557
136943
139353
139318
136941
133594
133628
136939
139283
139253
136939
133662
133694
136938
139223
139197
136939
133725
133755
136940
139171
139148
136942
133784
133811
136944
139126
139107
136947
133838
133863
136949
139088
139071
136952
133887
133910
136956
139055
139041
136960
133933
133954
136963
139027
139015
136968
133974
133993
136972
139003
138994
136977
134012
134030
136981
138984
138975
136987
134047
134063
136991
138967
138960
136997
134079
134094
137001
138953
138948
137007
134108
134122
137011
138942
138937
137017
134135
134147
137021
138931
138927
137026
134159
134171
137030
138923
138919
137035
134182
134192
137039
138915
138912
137044
134202
134211
137048
138909
138906
137052
134221
134229
137055
138903
138901
137060
134238
134245
137063
138898
138896
137067
134253
134260
137071
138894
138893
137075
134267
134274
137078
138891
138890
137082
134281
134286
137085
138888
138888
137089
134293
134298
137092
138886
138886
137095
134304
134309
137098
138884
138884
137102
134315
134319
137105
138883
138884
137108
134325
134329
137111
138882
138883
137115
134334
134338
137118
138882
138883
137121
134343
134347
137124
138882
138884
137128
134352
134356
137131
138883
138885
137134
134361
134365
137137
138884
138886
137141
134369
134373
137144
138885
138887
137147
134377
134381
137150
138887
138889
137154
134385
134389
137157
138889
138892
137161
134394
134397
137164
138892
138894
137168
134402
134405
137171
138894
138897
137175
134410
134413
137178
138897
138901
137182
134418
134421
137185
138901
138904
137189
134426
134429
137193
138905
138908
137197
134433
134437
137200
138909
138913
137204
134441
134445
137208
138913
138917
137212
134449
134453
137215
138918
138922
137220
134457
134460
137223
138923
138927
137227
134464
134468
137231
138929
138933
137235
134472
134476
137239
138934
138939
137243
134480
134483
137247
138940
138944
137251
134487
134491
137255
138946
138951
137259
134495
134498
137263
138952
138957
137267
134502
134506
137271
138959
138964
137276
134510
134513
137280
138965
138970
137284
134517
134520
137288
138972
138977
137292
134524
134528
137296
138979
138985
137301
134531
134535
137305
138987
138992
137309
134538
134542
137313
138994
138999
137317
134545
134549
137321
139001
139007
137326
134552
134555
137330
139009
139014
137334
134559
134562
137338
139016
139022
137343
134565
134569
137347
139024
139029
137351
134572
134575
137355
139032
139037
137359
134578
134581
137363
139040
139045
137367
134585
134588
137371
139047
139053
137376
134591
134594
137379
139055
139061
137384
134597
134599
137388
139063
139068
137392
134602
134605
137396
139071
139076
137400
134608
134611
137404
139079
139084
137408
134614
134616
137411
139086
139092
137416
134619
134622
137419
139094
139100
137423
134625
134627
137427
139102
139108
137431
134630
134632
137435
139110
139116
137439
134635
134637
137442
139118
139124
137446
134639
134641
137450
139126
139131
137454
134644
134646
137457
139133
139139
137461
134648
134650
137464
139141
139146
137468
134652
134654
137471
139148
139154
137475
134656
134657
137478
139156
139161
137482
134659
134661
137485
139163
139169
137488
134663
134664
137491
139170
139177
137496
134669
134671
137499
139180
139183
137504
134674
134675
137502
139180
139168
137491
134673
134666
137475
139151
139195
137496
134680
134755
137592
139346
139439
137665
134813
142045
144681
146360
146732
146882
147538
147876
148021
148166
148580
148849
149131
149343
149498
149613
149696
149754
149797
149828
149850
149868
149881
149892
149900
149907
149912
149916
149920
149922
149924
149925
149927
149927
149922
149923
149930
149935
149943
149951
149961
149972
149983
149994
150004
150010
150012
150011
150009
150006
150004
150002
150001
149999
149998
149996
149994
149992
149990
149988
149985
149983
149981
149980
149978
149977
149976
149975
149975
149975
149975
149976
149977
149979
149982
149985
149989
149993
149998
150004
150010
150016
150022
150028
150034
150041
150046
150052
150056
150060
150064
150066
150068
150069
150070
150070
150069
150067
150065
150062
150059
150056
150053
150049
150045
150041
150037
150032
150028
150024
150020
150016
150012
150008
150004
150001
149997
149994
149991
149988
149985
149982
149980
149977
149975
149973
149971
149969
149967
149966
149964
149963
149961
149960
149959
149958
149957
149956
149956
149955
149954
149954
149953
149953
149953
149952
149952
149952
149952
149952
149952
149952
149952
149952
149952
149952
149952
149953
149953
149953
149953
149954
149954
149955
149955
149956
149956
149957
149957
149958
149958
149959
149960
149960
149961
149962
149963
149963
149964
149965
149966
149967
149968
149969
149970
149971
149972
149973
149974
149975
149976
149977
149979
149980
149981
149982
149984
149985
149986
149988
149989
149991
149993
149997
150004
150011
150014
150014
150017
150005
150012
150012
150019
150026
150028
150028
150027
150025
150024
150022
150021
150020
150018
150018
150017
150016
150015
150015
150014
150014
150013
150013
150012
150012
150011
150011
150011
150011
150010
150010
150010
150009
150009
150009
150009
150009
150008
150008
150008
150008
150007
150007
150007
150007
150007
150006
150006
150006
150006
150005
150005
150005
150005
150005
150004
150004
150004
150004
150003
150003
150003
150003
150003
150002
150002
150002
150001
150001
150001
150000
150000
149999
149999
149998
149997
149996
149995
149994
149993
149994
149997
149999
150000
150004
150009
150019
150024
150023
150021
150018
150015
150013
150010
150008
150004
150002
149999
149997
149994
149992
149989
149987
149984
149982
149979
149978
149975
149974
149970
149969
149966
149965
149962
149961
149958
149958
149954
149954
149951
149951
149947
149947
149944
149944
149941
149941
149938
149938
149935
149935
149932
149932
149929
149929
149926
149927
149924
149924
149921
149921
149918
149919
149916
149917
149914
149914
149911
149912
149909
149910
149907
149907
149905
149905
149902
149903
149900
149901
149898
149899
149897
149897
149895
149896
149893
149894
149892
149893
149891
149892
149890
149891
149889
149891
149889
149891
149889
149891
149889
149891
149890
149892
149891
149893
149892
149895
149894
149897
149896
149900
149899
149902
149901
149905
149904
149907
149906
149910
149909
149912
149911
149915
149913
149917
149916
149919
149918
149921
149919
149922
149921
149923
149922
149924
149922
149925
149923
149925
149923
149925
149923
149925
149923
149924
149922
149924
149922
149923
149921
149922
149920
149921
149919
149920
149918
149919
149917
149918
149916
149917
149915
149916
149914
149915
149913
149914
149911
149912
149910
149911
149909
149910
149908
149909
149907
149908
149906
149911
149919
149928
149953
149952
149949
149962
149946
149948
149962
149946
149949
149963
149946
149950
149964
149947
149951
149965
149948
149952
149966
149949
149953
149967
149950
149954
149968
149951
149955
149968
149952
149956
149969
149953
149957
149970
149954
149957
149971
149954
149958
149972
149955
149959
149973
149956
149960
149973
149957
149960
149974
149957
149961
149974
149957
149961
149975
149958
149962
149975
149958
149962
149975
149958
149962
149975
149958
149962
149975
149957
149961
149975
149957
149961
149975
149956
149960
149974
149955
149959
149973
149953
149957
149972
149952
149956
149971
149950
149954
149969
149948
149952
149967
149946
149950
149966
149944
149948
149964
149942
149946
149963
149940
149944
149962
149939
149943
149962
149937
149941
149961
149936
149940
149960
149936
149940
149960
149935
149940
149961
149935
149940
149961
149936
149941
149962
149936
149942
149963
149937
149943
149964
149938
149944
149965
149939
149945
149966
149940
149946
149968
149942
149948
149969
149943
149949
149970
149944
149950
149972
149946
149952
149973
149947
149953
149974
149949
149955
149975
149950
149956
149977
149952
149958
149978
149953
149959
149979
149955
149961
149980
149957
149962
149982
149958
149964
149983
149960
149965
149984
149961
149967
149985
149963
149968
149986
149965
149970
149988
149966
149972
149989
149968
149973
149990
149970
149975
149991
149972
149977
149993
149974
149978
149994
149975
149980
149995
149977
149982
149996
149979
149984
149998
149981
149986
149999
149983
149988
150000
149986
149990
150002
149988
149992
150003
149990
149994
150004
149993
149996
150006
149995
149999
150007
149998
150001
150009
150001
150003
150010
150003
150006
150012
150006
150009
150014
150010
150012
150015
150013
150015
150017
150016
150018
150018
150019
150021
150019
150023
150013
150014
150015
150014
150014
150013
150013
150012
150012
150011
150011
150011
150010
150010
150010
150009
150009
150009
150008
150008
150008
150007
150007
150006
150006
150006
150005
150005
150004
150004
150003
150002
150002
150001
150000
149999
149998
149997
149996
149995
149994
149993
149991
149990
149989
149989
149988
149988
149989
149992
149993
149995
149997
150000
150002
150005
150007
150008
150009
150009
150009
150009
150008
150007
150006
150005
150003
150002
150001
150000
149999
149998
149996
149995
149994
149993
149992
149991
149990
149989
149988
149987
149986
149985
149985
149982
149966
149962
149963
149967
149982
149985
149986
149992
149991
149993
149994
149994
149995
149996
149997
149998
149999
150000
150001
150002
150003
150004
150005
150006
150007
150008
150012
150011
150010
150009
150008
150007
150005
150004
150003
150002
150001
150000
149999
149998
149997
149996
149996
149996
149997
149996
149995
149994
149995
149996
149997
149998
149991
149990
149989
149990
149990
149987
149987
149972
149974
149969
149969
149969
149970
149971
149973
149993