/*--------------------------------*- C++ -*----------------------------------*\
| =========                 |                                                 |
| \\      /  F ield         | OpenFOAM: The Open Source CFD Toolbox           |
|  \\    /   O peration     | Version:  v2006                                 |
|   \\  /    A nd           | Website:  www.openfoam.com                      |
|    \\/     M anipulation  |                                                 |
\*---------------------------------------------------------------------------*/
FoamFile
{
    version     2.0;
    format      ascii;
    class       volScalarField;
    location    "0.002";
    object      Co;
}
// * * * * * * * * * * * * * * * * * * * * * * * * * * * * * * * * * * * * * //

dimensions      [0 0 0 0 0 0 0];


internalField   nonuniform List<scalar> 
24416
(
0.0097763
0.00936613
0.0101658
0.0105524
0.0107261
0.010469
0.010514
0.0104264
0.010309
0.0102513
0.0101383
0.0100745
0.00999593
0.00992133
0.00983229
0.00973312
0.00962211
0.00949957
0.00936549
0.00922001
0.00906337
0.00889591
0.00871811
0.00853071
0.00833474
0.0081315
0.00792243
0.00770895
0.00749232
0.00727354
0.00705343
0.00683273
0.00661209
0.00639221
0.00617382
0.00595755
0.00574386
0.0055332
0.00532635
0.0051241
0.00492676
0.00473431
0.00454656
0.00436337
0.00418467
0.00401042
0.00384058
0.00367511
0.00351396
0.00335701
0.00320415
0.0030552
0.00291004
0.00276854
0.00263059
0.00249611
0.00236493
0.00223689
0.00211182
0.00198954
0.00187
0.00175321
0.00163923
0.00152814
0.00142016
0.00131542
0.001214
0.0011159
0.00102108
0.000929763
0.000842171
0.000757656
0.000676029
0.000597538
0.000522861
0.000452612
0.000386614
0.000325157
0.000269158
0.000219191
0.000175678
0.000138864
0.000108788
8.53579e-05
6.84338e-05
5.94288e-05
5.36479e-05
5.53664e-05
6.25528e-05
7.44928e-05
9.02645e-05
0.000108751
0.000128763
0.000149301
0.000169574
0.000190541
0.000212023
0.00023848
0.000269272
0.000317562
0.000409691
0.0005986
0.000781982
0.000742616
0.000615616
0.000646758
0.000632106
0.000652107
0.000569128
0.00018023
0.000412013
0.000572246
0.00070052
0.000668421
0.000484782
0.000631347
0.000733679
0.000373524
0.000616232
0.00055692
0.000266407
0.000902559
0.00100128
0.000246177
0.000527423
0.000474127
0.000260169
0.00113637
0.00124752
0.000321666
0.000456891
0.000405142
0.000338872
0.00134299
0.00142547
0.000376969
0.00039046
0.000346494
0.000377952
0.00146511
0.00148436
0.000389808
0.000331996
0.000303237
0.000383511
0.0014802
0.0014709
0.000388525
0.000305078
0.000296822
0.000377676
0.00145131
0.00143602
0.000376319
0.00031537
0.000325737
0.000361616
0.00141796
0.00140843
0.000357275
0.000357893
0.000383466
0.000344611
0.00140186
0.00140751
0.000343475
0.000425046
0.000462552
0.000339828
0.00142155
0.0014541
0.000351645
0.00051205
0.000560192
0.000367136
0.00150394
0.00158041
0.000400843
0.000615834
0.00067287
0.000443709
0.00168304
0.00181793
0.000504336
0.000730233
0.000791307
0.000578106
0.00198593
0.00218767
0.000665135
0.000845094
0.000901016
0.000759297
0.00241867
0.00266747
0.000849525
0.000938112
0.000975447
0.000930707
0.00292242
0.00315738
0.000979751
0.000981576
0.000995988
0.00100588
0.00336319
0.00352121
0.000991285
0.000988931
0.00101208
0.000956955
0.00363357
0.00369398
0.000895108
0.00103007
0.00108911
0.000828529
0.00371151
0.0036805
0.000743622
0.00113874
0.00123531
0.000661013
0.00361313
0.00354546
0.000625195
0.00137725
0.00148918
0.000572501
0.00344115
0.00331964
0.000507688
0.0016241
0.00171296
0.000415595
0.00318228
0.00304292
0.000321494
0.00182784
0.00189479
0.000211585
0.00289791
0.00275792
0.000134406
0.00198859
0.00203292
0.000143315
0.00261763
0.00248952
0.00022947
0.00210563
0.00212974
0.000297895
0.0023684
0.00226588
0.000365095
0.0021867
0.00221359
0.000411971
0.0021736
0.00210038
0.000460308
0.00224639
0.00232584
0.000521539
0.00204667
0.0020056
0.000568062
0.00235399
0.00242185
0.000614399
0.00198022
0.00196225
0.000641075
0.00243705
0.00249485
0.000669213
0.00196202
0.00197067
0.000676004
0.0024974
0.00254265
0.000682755
0.00199655
0.00203101
0.000667608
0.00253091
0.00256068
0.000652754
0.00208186
0.00214092
0.000618853
0.00253724
0.00255713
0.000586187
0.00221811
0.00230223
0.000530834
0.00251996
0.00252386
0.000477542
0.00240139
0.00250116
0.000404593
0.00247142
0.00246022
0.000338735
0.00260643
0.00270141
0.000262337
0.00240013
0.0023915
0.000203274
0.00279356
0.00286987
0.000150951
0.0023444
0.00235643
0.000161465
0.00294152
0.00299815
0.00020055
0.00232962
0.00235213
0.000267915
0.00304909
0.00308254
0.00033943
0.00231838
0.00231318
0.000430106
0.00310818
0.00311994
0.000509615
0.00223997
0.00219247
0.000583564
0.00313186
0.00313421
0.000627131
0.00209093
0.00203415
0.000667066
0.0031415
0.00314614
0.000691385
0.00194448
0.00190562
0.000724372
0.00315817
0.00317239
0.000753026
0.00183724
0.00180944
0.000789972
0.00319172
0.00321581
0.000830128
0.00175069
0.00171937
0.000874333
0.003242
0.0032747
0.000926705
0.00165884
0.00161526
0.000977546
0.00330666
0.0033457
0.00103912
0.00154603
0.00149349
0.00109746
0.00338229
0.00342552
0.00116792
0.001422
0.00135997
0.00122781
0.00346191
0.003506
0.00130251
0.00128413
0.00121345
0.00136479
0.00354218
0.00358689
0.00144376
0.00113516
0.00105665
0.00150613
0.00362124
0.00366499
0.00158795
0.000976787
0.00089209
0.00165
0.00369668
0.00373843
0.0017339
0.000812504
0.000722097
0.00179501
0.00376655
0.0038054
0.00187949
0.000642183
0.000546758
0.00193864
0.00382916
0.00386378
0.00202249
0.000467502
0.00036694
0.0020775
0.00388205
0.00391054
0.00216048
0.00029178
0.000186261
0.00220988
0.003922
0.003943
0.00229027
0.000193965
0.000248532
0.00233463
0.00394647
0.00395863
0.00241081
0.00035679
0.00041654
0.00244929
0.003953
0.00395524
0.00251967
0.000524247
0.000576804
0.0025511
0.00393883
0.00392854
0.0026135
0.000683185
0.000729964
0.00263836
0.00390013
0.00387675
0.00269248
0.000833935
0.000871895
0.00271122
0.00383826
0.00379581
0.00275229
0.000972459
0.000996712
0.00276714
0.00375142
0.0036891
0.00279719
0.00110112
0.00109506
0.00279745
0.00363518
0.00355248
0.00282723
0.00123045
0.0011887
0.00282068
0.00349337
0.0033864
0.00283451
0.00133968
0.0012892
0.00283728
0.00331804
0.0031934
0.00281087
0.00140916
0.00138443
0.00282366
0.00310868
0.00297205
0.00275914
0.00145573
0.001468
0.00277101
0.00286156
0.00271927
0.00271312
0.00151644
0.00153541
0.00269454
0.00259065
0.00243908
0.00262168
0.00154556
0.00157939
0.00257363
0.00229702
0.00213991
0.00249338
0.00156083
0.00158613
0.00242051
0.00198669
0.00182875
0.00234598
0.00158401
0.00157628
0.00224614
0.00166078
0.00150001
0.00217178
0.00158654
0.001562
0.00205377
0.00132306
0.00115379
0.00196208
0.00156557
0.00151713
0.00181834
0.0009653
0.000787359
0.00170922
0.00151076
0.00144276
0.00154608
0.000589662
0.00040341
0.00141838
0.001421
0.0013408
0.00124374
0.000201327
0.000182679
0.0010967
0.00130094
0.0012008
0.000907213
0.000355605
0.000571075
0.000744241
0.00114489
0.00102987
0.000543321
0.000782536
0.00100698
0.000367847
0.00095907
0.000821968
0.000327375
0.0012236
0.00145694
0.000544939
0.000731887
0.000574921
0.000762293
0.00168086
0.00192151
0.00102266
0.000467227
0.000442001
0.00125254
0.00215417
0.00240048
0.00152122
0.000649693
0.000808278
0.00176182
0.00263876
0.00288608
0.0020337
0.00102665
0.00118955
0.00228028
0.00312737
0.00337407
0.00254779
0.00140225
0.00156473
0.00279775
0.00361726
0.00385963
0.00305493
0.00176425
0.00191542
0.00329839
0.00409165
0.00432987
0.003552
0.00209969
0.00224139
0.00378984
0.00455669
0.00478525
0.00402512
0.00239869
0.00253038
0.00425535
0.00501023
0.0052266
0.00446426
0.00265622
0.00278018
0.00468999
0.00544807
0.00565439
0.00487551
0.00287666
0.00299292
0.00509485
0.00587323
0.00607563
0.00526566
0.00306737
0.00316624
0.00546852
0.00628877
0.0064819
0.00561818
0.00322534
0.00330492
0.00579577
0.00668305
0.00686284
0.00591837
0.00334364
0.00339464
0.00606399
0.0070479
0.0072096
0.00615302
0.00339889
0.00340861
0.00625723
0.00737178
0.00750471
0.00629709
0.0033671
0.00332151
0.00633953
0.00762763
0.00771507
0.00631777
0.00329021
0.00328359
0.00632289
0.00779
0.00783726
0.00633112
0.00329063
0.00324679
0.00630391
0.00787861
0.00790921
0.00629098
0.00321347
0.00312759
0.00621696
0.0079044
0.00789056
0.00615469
0.00305157
0.00292021
0.00603393
0.0078445
0.0077908
0.00592772
0.00280562
0.00263452
0.0057644
0.00770566
0.00761498
0.00561926
0.00248785
0.00227946
0.00541779
0.00749443
0.00737223
0.00523855
0.00210346
0.00186311
0.00500583
0.00722415
0.00707954
0.00480064
0.00166563
0.00140223
0.00454739
0.00691459
0.00675983
0.00433097
0.00119544
0.000920924
0.00407132
0.0065897
0.00643643
0.00386017
0.000793591
0.00081153
0.00360372
0.0062704
0.00613012
0.0034097
0.00105926
0.00120694
0.00316587
0.00597245
0.00585633
0.00299125
0.00142591
0.00154048
0.00277688
0.00572907
0.00563344
0.00262415
0.00172531
0.00180809
0.0024434
0.00553684
0.0054714
0.00232094
0.00195889
0.00201068
0.00217546
0.00540692
0.00537214
0.00208747
0.0021318
0.00215594
0.0019769
0.00533727
0.00533019
0.00192082
0.00225079
0.00224939
0.00184134
0.00532216
0.00534082
0.00181436
0.00232121
0.00229785
0.00176251
0.00535794
0.00540128
0.0017619
0.00235059
0.00231267
0.0017359
0.00544251
0.00550832
0.00175836
0.00235286
0.00230691
0.00175367
0.00557098
0.00565679
0.00179261
0.00233841
0.00228104
0.00180345
0.00573972
0.00584533
0.00186084
0.00231168
0.0022514
0.00189521
0.00595402
0.00607202
0.00196132
0.00227985
0.00221705
0.00201787
0.00620991
0.00634179
0.00209172
0.00224092
0.00219152
0.00217803
0.00649311
0.00663801
0.00224697
0.00219638
0.00215584
0.0023541
0.00680015
0.00695582
0.0024321
0.00214494
0.00214354
0.00254603
0.00712643
0.00728887
0.00263041
0.00208345
0.00210439
0.00274995
0.00746411
0.00762924
0.00283643
0.00203412
0.0020455
0.00295542
0.00780594
0.00797165
0.00303283
0.00196442
0.0019755
0.00316433
0.00817146
0.00833315
0.00325711
0.00194316
0.0019251
0.00339821
0.0086418
0.00882118
0.00352256
0.00191401
0.00202634
0.00391021
0.00972687
0.00997086
0.00413553
0.00201475
0.00217116
0.00487081
0.0118911
0.0122132
0.00506673
0.00228507
0.0025664
0.0052999
0.0135374
0.00977743
0.01189
0.0151955
0.0176296
0.0181934
0.0193721
0.0198659
0.0209164
0.0214724
0.0230048
0.0237193
0.0257159
0.0265603
0.0289425
0.029913
0.032671
0.0337961
0.0369552
0.0382456
0.0418269
0.0432971
0.0473055
0.0489682
0.0534626
0.0553439
0.0603747
0.0624962
0.0680808
0.0704534
0.0766042
0.0792355
0.0859518
0.0888412
0.096113
0.0992436
0.107001
0.110307
0.118568
0.121953
0.127453
0.125959
0.110658
0.107788
0.11034
0.140273
0.200786
0.210293
0.189282
0.167308
0.138352
0.117744
0.0860214
0.0772423
0.109209
0.132204
0.119739
0.102252
0.0736671
0.0602801
0.0858511
0.101908
0.09103
0.0794104
0.0568446
0.0508143
0.0737389
0.0869235
0.0824518
0.0707812
0.0485336
0.0467799
0.0704172
0.0833536
0.0806237
0.0680565
0.0449188
0.0442865
0.0689165
0.0827815
0.0804975
0.0670128
0.0427792
0.0423354
0.0676445
0.0822782
0.0808657
0.0658219
0.0410318
0.0409616
0.0668541
0.0824596
0.0809739
0.0652538
0.0399346
0.0399612
0.0660268
0.0821178
0.082113
0.0654428
0.0395253
0.0395281
0.0655326
0.0822791
0.0827983
0.0657544
0.039572
0.0395802
0.0655365
0.0825166
0.0838979
0.0662989
0.0400869
0.0401007
0.065665
0.0829957
0.0848314
0.067147
0.0409847
0.0410062
0.0662993
0.0835609
0.0862122
0.0682414
0.0422641
0.0423599
0.0670968
0.0843932
0.0874358
0.0696388
0.0438674
0.0441857
0.0689328
0.0858124
0.0890821
0.0712497
0.0457459
0.0460637
0.0702672
0.0868124
0.0906373
0.0731322
0.0478135
0.0483041
0.0726352
0.0891912
0.0927875
0.0752789
0.0500889
0.050572
0.0744926
0.0905771
0.094876
0.0777253
0.0525717
0.0532459
0.0774554
0.0936406
0.0976675
0.0804859
0.0552995
0.0559974
0.0799371
0.0956686
0.100483
0.0836483
0.0583425
0.0592971
0.0836838
0.099536
0.104172
0.0872572
0.0617672
0.0629526
0.0874149
0.102913
0.107719
0.0911744
0.0656271
0.0672656
0.0921444
0.107744
0.113396
0.0967072
0.0705582
0.0729356
0.0979277
0.113085
0.11984
0.103306
0.0768403
0.0800031
0.105493
0.120511
0.128187
0.111816
0.0847257
0.0874869
0.113177
0.127983
0.136059
0.119939
0.0924668
0.0951307
0.122066
0.137665
0.148052
0.131285
0.101638
0.104428
0.134083
0.15052
0.158976
0.144207
0.113456
0.118636
0.141109
0.144979
0.404345
0.285309
0.168283
0.146164
0.224259
0.304926
0.199236
0.176939
0.138229
0.133809
0.165392
0.18156
0.233542
0.172517
0.140171
0.148022
0.234342
0.250906
0.242212
0.253
0.227668
0.190414
0.222405
0.235446
0.223428
0.216446
0.19365
0.19372
0.195848
0.184487
0.334373
0.233425
0.203927
0.235115
0.286223
0.376719
0.291214
0.278357
0.241315
0.251671
0.269398
0.268718
0.263277
0.269426
0.257466
0.273761
0.277598
0.264044
0.255225
0.273721
0.277857
0.302295
0.294058
0.342553
0.436202
0.361655
0.325512
0.332753
0.336758
0.323985
0.252126
0.296224
0.315006
0.324606
0.298069
0.32514
0.392712
0.338393
0.324431
0.296752
0.266387
0.218425
0.282495
0.24028
0.268611
0.24694
0.228164
0.230541
0.306854
0.340976
0.205439
0.189787
0.456921
0.409291
0.390043
0.416055
0.163195
0.122934
0.310771
0.293916
0.209251
0.244966
0.0852118
0.0438684
0.216226
0.193828
0.103213
0.0903694
0.0164916
0.0217789
0.0495326
0.0448103
0.0745417
0.0556078
0.028925
0.0346511
0.0645003
0.0953113
0.0485985
0.0537008
0.0404206
0.0478154
0.0649224
0.0939596
0.111542
0.0750175
0.0549995
0.0595265
0.065676
0.0619672
0.121444
0.0876921
0.0695838
0.0703939
0.0840618
0.122975
0.0907486
0.0904321
0.0787504
0.116477
0.139433
0.166395
0.146867
0.112703
0.0938858
0.0751124
0.0926141
0.11373
0.183525
0.137902
0.0884905
0.105323
0.171505
0.231108
0.106823
0.103843
0.0857356
0.0996976
0.152353
0.201118
0.247838
0.186668
0.116112
0.0943161
0.112124
0.114678
0.216485
0.165464
0.109967
0.126953
0.201981
0.267177
0.126339
0.123194
0.103903
0.12003
0.179696
0.23503
0.284507
0.214941
0.136842
0.112811
0.132254
0.135238
0.25776
0.196011
0.131364
0.145972
0.224008
0.295545
0.211589
0.177829
0.131817
0.150119
0.222166
0.277609
0.152856
0.148131
0.125975
0.142614
0.207255
0.268105
0.317334
0.245559
0.160084
0.131687
0.153801
0.158082
0.281466
0.21683
0.148079
0.167017
0.256404
0.332605
0.16523
0.161322
0.13925
0.158542
0.233993
0.306633
0.337641
0.259867
0.172522
0.158644
0.213154
0.254133
0.317145
0.254436
0.174748
0.150103
0.1755
0.181181
0.325147
0.249858
0.171045
0.184163
0.276671
0.357001
0.267234
0.225077
0.168438
0.184225
0.267707
0.331973
0.191547
0.184929
0.158592
0.178351
0.257586
0.332152
0.373382
0.290645
0.19363
0.162377
0.189082
0.195256
0.355141
0.271583
0.18426
0.197257
0.29478
0.379325
0.301296
0.250652
0.185308
0.196706
0.279138
0.348813
0.292967
0.246144
0.183777
0.199633
0.283656
0.34781
0.212539
0.204113
0.174402
0.195441
0.284272
0.3692
0.385207
0.30153
0.203246
0.188959
0.253472
0.303284
0.358214
0.292077
0.205942
0.178685
0.20767
0.215321
0.379495
0.292429
0.201434
0.208812
0.30677
0.393134
0.321462
0.267116
0.197464
0.209016
0.293181
0.362083
0.310442
0.261399
0.196805
0.21054
0.295359
0.360614
0.223539
0.214189
0.182536
0.205271
0.296812
0.384525
0.394774
0.309078
0.212615
0.199932
0.271315
0.326915
0.359543
0.291561
0.208237
0.196982
0.264235
0.314969
0.353727
0.289368
0.206064
0.181878
0.213653
0.223499
0.38447
0.296559
0.20384
0.20966
0.307146
0.38461
0.322869
0.269106
0.198969
0.206118
0.287759
0.351295
0.307542
0.258712
0.1935
0.204911
0.287157
0.347097
0.219462
0.210156
0.179789
0.200042
0.290266
0.377704
0.375717
0.296997
0.205202
0.19353
0.262777
0.316511
0.339472
0.277758
0.199491
0.190799
0.259308
0.312451
0.330191
0.270763
0.197186
0.185956
0.249759
0.298655
0.326833
0.270876
0.194958
0.170274
0.202179
0.211943
0.357645
0.275507
0.189371
0.189969
0.276218
0.352318
0.298521
0.247133
0.179561
0.182739
0.255736
0.313417
0.293957
0.24367
0.178394
0.181086
0.248034
0.30323
0.286236
0.236885
0.172988
0.177784
0.244843
0.295259
0.27002
0.225515
0.1671
0.174968
0.243627
0.293085
0.189742
0.180635
0.152122
0.169342
0.246789
0.31871
0.31095
0.244627
0.167791
0.158257
0.218214
0.264141
0.270576
0.223475
0.160376
0.155482
0.21358
0.257095
0.259293
0.214861
0.155875
0.149523
0.205941
0.249505
0.252627
0.208475
0.151804
0.143915
0.195165
0.233466
0.245639
0.204733
0.147733
0.128407
0.154675
0.1636
0.269129
0.207693
0.14049
0.138037
0.202736
0.255448
0.22153
0.182795
0.131272
0.130216
0.181595
0.222282
0.212153
0.175821
0.126798
0.125951
0.174529
0.208713
0.202707
0.16736
0.120105
0.120196
0.167131
0.201099
0.187959
0.157031
0.114561
0.116086
0.162776
0.195198
0.128989
0.122467
0.101056
0.10912
0.162959
0.211044
0.198686
0.156066
0.10561
0.100419
0.141617
0.172017
0.168667
0.138461
0.0984439
0.0951977
0.13429
0.162891
0.156181
0.129883
0.093084
0.0894373
0.126229
0.153373
0.147546
0.122201
0.0873506
0.0832525
0.11588
0.139069
0.137368
0.115853
0.0822091
0.0720524
0.0890903
0.094247
0.149445
0.115096
0.0754339
0.0714468
0.106618
0.134292
0.11946
0.097979
0.0683494
0.065579
0.093155
0.112084
0.109834
0.0903001
0.0629158
0.0597346
0.0835372
0.100363
0.100215
0.0825669
0.0576539
0.0545417
0.0763222
0.0906963
0.0871291
0.0725306
0.0513604
0.0488252
0.0685631
0.0813332
0.0568591
0.0534782
0.042384
0.0438715
0.0679548
0.0871428
0.0730487
0.0593325
0.039423
0.0373189
0.054857
0.0666056
0.0576588
0.0489198
0.0343442
0.0329839
0.048106
0.0580033
0.0481249
0.0420318
0.0301329
0.0289341
0.0415972
0.0496832
0.0394054
0.0351158
0.0260574
0.0244657
0.0339131
0.0398228
0.0291657
0.0271872
0.0214679
0.0188232
0.022281
0.0229608
0.0294675
0.0252491
0.0178251
0.012434
0.0147208
0.0145585
0.0183504
0.016027
0.0118619
0.00520454
0.00409471
0.00400764
0.00808019
0.00641273
0.0050061
0.00298546
0.00760626
0.0127044
0.00743452
0.00605418
0.00261194
0.00900585
0.0186464
0.0262983
0.0125498
0.0117741
0.00789747
0.0097582
0.0190123
0.0280129
0.0457542
0.032465
0.0170004
0.0160907
0.0257573
0.032301
0.0573224
0.0432931
0.0252911
0.0244146
0.0367775
0.0453346
0.0686812
0.0537358
0.0332832
0.0314653
0.0454096
0.0551526
0.0808949
0.0639906
0.0409624
0.0358436
0.0450557
0.0475604
0.0866863
0.0645626
0.0409793
0.0489367
0.0802404
0.104529
0.0820716
0.0673311
0.0464101
0.0561911
0.0866073
0.110433
0.0900441
0.0754121
0.0536665
0.0643205
0.098178
0.122244
0.0718616
0.0686852
0.0563768
0.064382
0.0981559
0.13011
0.15271
0.116221
0.0735746
0.0697899
0.0988621
0.12014
0.152679
0.121366
0.081224
0.0770732
0.106306
0.126459
0.16447
0.131992
0.0890066
0.0782106
0.0941066
0.0986072
0.173975
0.131829
0.0879222
0.0981842
0.151207
0.195477
0.155927
0.129102
0.0926919
0.10491
0.15326
0.19192
0.160064
0.13509
0.0996031
0.113464
0.165185
0.203831
0.120715
0.115939
0.0978985
0.111529
0.163458
0.213567
0.239752
0.185624
0.122254
0.113404
0.153667
0.183629
0.233652
0.189086
0.129612
0.113425
0.131766
0.135836
0.243962
0.18725
0.128555
0.139979
0.210348
0.276209
0.20486
0.172893
0.128613
0.146421
0.213705
0.263403
0.151474
0.14675
0.126282
0.144208
0.209175
0.272562
0.306825
0.236957
0.157669
0.145938
0.195086
0.230658
0.291941
0.235047
0.162176
0.140396
0.161734
0.166556
0.296611
0.22813
0.158258
0.175072
0.261598
0.335108
0.249399
0.211774
0.160494
0.181379
0.260442
0.323875
0.178398
0.173633
0.151919
0.171516
0.24075
0.308186
0.367909
0.283748
0.190143
0.158498
0.179313
0.183242
0.325454
0.253145
0.179868
0.20128
0.301221
0.390664
0.187078
0.183906
0.163832
0.184697
0.261256
0.336276
0.407744
0.316644
0.210093
0.173451
0.193983
0.196913
0.357475
0.279672
0.198933
0.220233
0.332203
0.431483
0.202132
0.199279
0.178176
0.203495
0.285584
0.366776
0.453303
0.353972
0.236614
0.194238
0.213759
0.213475
0.379689
0.297731
0.21394
0.242804
0.36409
0.467878
0.216677
0.215992
0.1969
0.222405
0.304628
0.386183
0.492117
0.377844
0.251076
0.188097
0.19649
0.190194
0.260129
0.24022
0.203845
0.21765
0.301473
0.38794
0.503588
0.381497
0.249246
0.177322
0.183176
0.176778
0.211361
0.208026
0.189682
0.176951
0.201188
0.208397
0.198273
0.194486
0.176551
0.172277
0.197986
0.202572
0.232509
0.214474
0.176507
0.186712
0.271923
0.355142
0.491119
0.359203
0.221067
0.150621
0.163151
0.1596
0.172787
0.167492
0.144411
0.12997
0.155915
0.164759
0.158824
0.149253
0.122279
0.112686
0.140313
0.15118
0.14674
0.135477
0.106636
0.100189
0.129047
0.141764
0.138291
0.125486
0.0957996
0.0911417
0.121024
0.134593
0.131868
0.117715
0.0875431
0.0842198
0.114574
0.129267
0.126791
0.111604
0.081135
0.0782299
0.108765
0.124398
0.122092
0.106047
0.0754748
0.0728523
0.103421
0.119834
0.117873
0.100897
0.0703569
0.0679775
0.0984569
0.115267
0.113374
0.0961126
0.0657139
0.0635549
0.0938445
0.111301
0.109282
0.0916661
0.0615056
0.0595578
0.0895577
0.107288
0.105357
0.0875378
0.0577201
0.0559838
0.0855855
0.103453
0.101809
0.0837157
0.0543548
0.0528276
0.0819144
0.0996042
0.0980441
0.0802064
0.051411
0.0500934
0.0785677
0.096333
0.0948846
0.0770208
0.0488837
0.0477742
0.0755478
0.0929222
0.0915715
0.0741677
0.0467732
0.0458763
0.0728689
0.0900961
0.0888788
0.0716692
0.0450909
0.0444109
0.0705574
0.0871985
0.0861279
0.0695564
0.0438413
0.0433657
0.068636
0.0849448
0.08404
0.0678273
0.0429912
0.0426972
0.0670948
0.0826934
0.0819476
0.0664679
0.042487
0.0423362
0.065904
0.0810883
0.0804966
0.0654333
0.0422509
0.0422108
0.0650112
0.0794689
0.0790177
0.0646861
0.0422531
0.0423564
0.0644138
0.0784453
0.0781254
0.0641924
0.042477
0.0426206
0.0640066
0.0773662
0.0771614
0.0638691
0.042765
0.0429221
0.063761
0.0768182
0.0767149
0.0637083
0.0430753
0.0432395
0.0637148
0.0761873
0.0761653
0.0637302
0.0434012
0.0435723
0.0637862
0.0760131
0.0760557
0.0638439
0.0437396
0.0439166
0.063939
0.0756832
0.0758129
0.0640337
0.04409
0.0442757
0.0641671
0.0758616
0.0758942
0.0642933
0.0444575
0.0446528
0.0644569
0.0759937
0.0760795
0.0646168
0.0448484
0.0450561
0.0648061
0.0762159
0.0763362
0.0649905
0.0452637
0.0454833
0.0652027
0.076503
0.0766483
0.0654068
0.0457019
0.0459284
0.0656312
0.0768289
0.0769875
0.0658461
0.0461518
0.0463828
0.0660809
0.0771818
0.0773517
0.0663042
0.0466103
0.0468427
0.0665426
0.0775507
0.0777258
0.0667689
0.0470706
0.0473044
0.0670117
0.0779328
0.0781147
0.0672415
0.0475338
0.0477671
0.0674847
0.0783238
0.0786638
0.0677144
0.0479948
0.0482273
0.0679592
0.078566
0.0789141
0.0681915
0.0484551
0.048687
0.0684375
0.0791324
0.0794827
0.0686696
0.0489135
0.0491451
0.068917
0.0793904
0.0797486
0.0691519
0.0493722
0.0496038
0.0694006
0.0799756
0.0801773
0.0696359
0.0498303
0.0500629
0.0698881
0.0804112
0.0806191
0.070127
0.0502913
0.0505246
0.0703805
0.0808552
0.0812263
0.0706205
0.0507532
0.050988
0.070877
0.0811454
0.0815242
0.071121
0.0512189
0.0514554
0.0713799
0.0817694
0.0819883
0.0716256
0.0516874
0.0519262
0.071889
0.0822402
0.0824646
0.072139
0.0521612
0.0524019
0.0724037
0.0827178
0.0829438
0.0726545
0.0526382
0.0528817
0.0729224
0.0832032
0.0834345
0.0731761
0.0531212
0.0533663
0.0734446
0.0836954
0.0839289
0.0736992
0.053607
0.0538548
0.073972
0.0841967
0.0844359
0.0742308
0.0540987
0.0543482
0.0745049
0.0847048
0.0849456
0.0747649
0.0545929
0.0548445
0.0750432
0.0852207
0.0854661
0.0753068
0.0550915
0.0553435
0.0755855
0.085741
0.0859863
0.075849
0.0555893
0.0558411
0.0761306
0.086266
0.0865141
0.0763958
0.0560865
0.0563362
0.0766761
0.0867922
0.087039
0.0769395
0.0565781
0.0568256
0.0772209
0.0873204
0.087569
0.0774846
0.0570655
0.0573098
0.0777637
0.0878481
0.0882701
0.0780246
0.0575457
0.0577877
0.078303
0.0882
0.0886244
0.078563
0.0580216
0.0582611
0.0788397
0.0889042
0.0893281
0.0790976
0.0584926
0.0587313
0.0793738
0.0892542
0.0896805
0.0796314
0.0589622
0.0591998
0.079906
0.0899609
0.0902073
0.080162
0.0594294
0.059667
0.0804375
0.0904903
0.0907382
0.0806942
0.0598972
0.0601339
0.0809679
0.0910188
0.0912648
0.0812226
0.0603625
0.0605989
0.0814972
0.0915478
0.091795
0.0817524
0.0608274
0.0610624
0.0820251
0.0920753
0.092504
0.0822781
0.0612887
0.0615223
0.0825503
0.0924169
0.092847
0.0828026
0.0617472
0.0619785
0.0830729
0.093126
0.0935545
0.0833227
0.0622005
0.0624296
0.0835917
0.093461
0.0938903
0.08384
0.0626494
0.0628755
0.0841062
0.0941666
0.0944056
0.0843514
0.0630916
0.0633151
0.0846165
0.0946824
0.094921
0.0848603
0.063529
0.0637489
0.0851214
0.0951934
0.095428
0.0853609
0.0639583
0.0641749
0.0856206
0.0957006
0.0959344
0.0858582
0.0643815
0.0645937
0.0861135
0.0962022
0.0966238
0.0863465
0.0647952
0.0650033
0.0865988
0.0965054
0.0969263
0.0868288
0.0652008
0.0654039
0.0870768
0.0971884
0.0976059
0.0873019
0.0655958
0.0657943
0.0875462
0.0974771
0.0978933
0.0877679
0.0659818
0.0661751
0.0880075
0.0981486
0.0985609
0.0882243
0.0663571
0.0665459
0.0884604
0.0986172
0.0988302
0.088673
0.0667237
0.066907
0.0889028
0.0990773
0.0992847
0.0891094
0.0670787
0.0672573
0.0893358
0.0995299
0.0997345
0.0895384
0.0674248
0.0675979
0.0897584
0.099774
0.100373
0.0899552
0.0677595
0.067928
0.0901715
0.100208
0.100604
0.0903642
0.0680853
0.0682484
0.0905743
0.100833
0.101022
0.0907605
0.0683998
0.0685582
0.0909666
0.101248
0.101433
0.0911486
0.0687053
0.0688583
0.0913478
0.101651
0.102033
0.0915228
0.0689992
0.0691473
0.0917171
0.101841
0.102219
0.0918873
0.0692835
0.0694258
0.0920745
0.102425
0.102592
0.0922401
0.0695589
0.0696923
0.0924196
0.102795
0.102957
0.0925825
0.0698229
0.0699495
0.0927535
0.103151
0.103306
0.092911
0.0700762
0.0701959
0.0930759
0.103496
0.103646
0.0932281
0.0703168
0.0704316
0.0933862
0.103827
0.104385
0.0937181
0.0705464
0.0706538
0.0936816
0.104143
0.104282
0.0938205
0.0707621
0.0708643
0.0937772
0.104032
0.104788
0.0940973
0.0709661
0.0710602
0.0942319
0.104527
0.104865
0.0943607
0.0711546
0.0712417
0.0944841
0.10501
0.105343
0.0946093
0.071328
0.0714055
0.094718
0.105056
0.105383
0.0948358
0.0714834
0.0715554
0.0949398
0.105508
0.10583
0.0950513
0.0716278
0.0716942
0.0951488
0.105526
0.105845
0.0952526
0.0717607
0.0718226
0.0953449
0.105954
0.106278
0.0954452
0.0718852
0.0719416
0.0955304
0.105947
0.106274
0.0956244
0.0719995
0.072051
0.095704
0.106361
0.106683
0.0957926
0.0721038
0.072149
0.095864
0.106336
0.106651
0.0959452
0.0721962
0.0722356
0.0960102
0.106723
0.107031
0.0960841
0.0722761
0.0723083
0.0961388
0.106665
0.106965
0.0962052
0.072343
0.0723697
0.0962547
0.107021
0.107314
0.0963135
0.0723972
0.0724161
0.096352
0.10693
0.107215
0.096403
0.0724381
0.0724524
0.0964374
0.107255
0.107534
0.0964818
0.0724678
0.0724746
0.0965056
0.107348
0.107404
0.0965427
0.0724854
0.0724892
0.0965633
0.107216
0.107698
0.0965953
0.0724948
0.0724922
0.0966069
0.107284
0.107543
0.0966321
0.0724936
0.0724885
0.0966419
0.107558
0.107813
0.0966627
0.0724854
0.0724747
0.0966639
0.107603
0.107637
0.0966787
0.0724684
0.0724563
0.0966784
0.107427
0.107887
0.0966897
0.0724465
0.0724293
0.0966819
0.107668
0.107692
0.0966875
0.0724163
0.0723976
0.0966781
0.107687
0.107708
0.0966804
0.0723817
0.0723587
0.0966643
0.107695
0.10771
0.0966617
0.0723402
0.0723162
0.0966445
0.107483
0.107925
0.0966389
0.072295
0.0722673
0.0966158
0.107475
0.107697
0.0966058
0.072244
0.0722154
0.0965822
0.107677
0.107898
0.0965695
0.0721896
0.0721578
0.0965397
0.107441
0.107656
0.0965238
0.0721308
0.0720991
0.0964944
0.107631
0.10763
0.0964765
0.0720705
0.0720363
0.0964425
0.107598
0.107594
0.0964223
0.0720072
0.0719737
0.0963891
0.107564
0.107775
0.0963679
0.0719438
0.0719088
0.0963307
0.10731
0.107733
0.0963082
0.0718795
0.0718462
0.0962734
0.107486
0.10748
0.0962507
0.0718172
0.0717834
0.0962127
0.107443
0.107436
0.0961899
0.0717558
0.0717248
0.0961552
0.107404
0.107397
0.0961333
0.0716984
0.0716676
0.0960963
0.107361
0.107354
0.0960745
0.0716433
0.0716164
0.0960418
0.107109
0.107532
0.0960225
0.0715945
0.0715683
0.0959888
0.107284
0.107279
0.0959701
0.0715493
0.0715282
0.0959415
0.107037
0.107464
0.0959266
0.0715126
0.0714935
0.0958984
0.107008
0.10722
0.0958849
0.0714817
0.0714681
0.0958627
0.107198
0.107415
0.0958531
0.0714598
0.0714484
0.0958313
0.106965
0.107181
0.0958231
0.0714437
0.0714364
0.0958058
0.107163
0.107382
0.0957995
0.0714332
0.0714253
0.095781
0.106935
0.107148
0.0957715
0.0714215
0.0714155
0.0957552
0.107131
0.107345
0.0957461
0.0714123
0.0714066
0.0957281
0.106899
0.107111
0.0957199
0.0714059
0.071404
0.0957038
0.107092
0.107312
0.095702
0.0714094
0.0714138
0.0956904
0.10687
0.107095
0.0956954
0.0714275
0.0714402
0.0956913
0.107085
0.107321
0.0957057
0.0714627
0.0714833
0.0957085
0.10689
0.107131
0.0957302
0.0715138
0.0715422
0.0957411
0.107135
0.107385
0.0957703
0.0715799
0.0716161
0.0957884
0.106968
0.107224
0.0958257
0.0716625
0.0717071
0.0958533
0.107245
0.10751
0.0958984
0.0717605
0.0718112
0.0959314
0.107108
0.107377
0.095982
0.0718711
0.0719276
0.0960213
0.107408
0.107469
0.0960774
0.0719924
0.0720525
0.0961202
0.107503
0.107566
0.0961795
0.0721208
0.0721846
0.0962266
0.107605
0.107887
0.0962893
0.0722556
0.0723213
0.0963385
0.107498
0.107995
0.0964029
0.072394
0.0724615
0.0964547
0.107609
0.108109
0.0965212
0.0725353
0.0726031
0.0965739
0.107938
0.10801
0.0966413
0.0726775
0.0727457
0.0966948
0.10784
0.108342
0.0967621
0.0728197
0.0728876
0.0968151
0.107956
0.108242
0.0968825
0.0729619
0.07303
0.0969357
0.108286
0.108357
0.0970036
0.0731045
0.0731727
0.0970571
0.108401
0.108472
0.0971249
0.0732473
0.0733159
0.097179
0.108516
0.108587
0.0972473
0.0733905
0.0734585
0.0973011
0.108631
0.108701
0.097369
0.0735325
0.0736
0.0974228
0.108745
0.108815
0.0974903
0.0736732
0.0737395
0.0975432
0.108858
0.108926
0.0976099
0.0738115
0.0738768
0.0976625
0.108969
0.109037
0.0977285
0.0739472
0.0740102
0.0977795
0.109078
0.109144
0.0978434
0.0740782
0.0741385
0.0978925
0.109184
0.109246
0.0979535
0.0742033
0.07426
0.0979989
0.109283
0.109341
0.0980564
0.0743213
0.0743748
0.0980985
0.109374
0.109429
0.0981528
0.0744326
0.0744822
0.0981909
0.109458
0.109508
0.0982408
0.074536
0.074582
0.0982753
0.109532
0.109579
0.0983218
0.074632
0.0746734
0.0983518
0.109599
0.10964
0.0983933
0.0747187
0.0747558
0.0984192
0.109655
0.109693
0.0984567
0.0747964
0.0748284
0.0984779
0.109703
0.109736
0.0985106
0.0748638
0.0748906
0.098527
0.109741
0.10977
0.0985549
0.0749207
0.074942
0.098566
0.10977
0.109794
0.0985885
0.0749665
0.0749822
0.098594
0.109789
0.109807
0.0986111
0.0750012
0.0750113
0.0986106
0.109796
0.109808
0.0986221
0.075025
0.0750301
0.0986166