/*--------------------------------*- C++ -*----------------------------------*\
| =========                 |                                                 |
| \\      /  F ield         | OpenFOAM: The Open Source CFD Toolbox           |
|  \\    /   O peration     | Version:  v2006                                 |
|   \\  /    A nd           | Website:  www.openfoam.com                      |
|    \\/     M anipulation  |                                                 |
\*---------------------------------------------------------------------------*/
FoamFile
{
    version     2.0;
    format      ascii;
    class       volScalarField;
    location    "0.002";
    object      isentropic(p);
}
// * * * * * * * * * * * * * * * * * * * * * * * * * * * * * * * * * * * * * //

dimensions      [1 -1 -2 0 0 0 0];


internalField   nonuniform List<scalar> 
31566
(
150321
150325
150074
150075
150082
150094
150103
150106
150112
150118
150125
150131
150138
150145
150152
150159
150166
150173
150180
150187
150193
150199
150204
150208
150212
150214
150215
150215
150213
150210
150206
150200
150193
150185
150175
150165
150155
150144
150133
150122
150112
150101
150090
150080
150070
150060
150051
150042
150033
150024
150016
150008
150001
149995
149988
149982
149977
149972
149968
149964
149960
149957
149955
149952
149950
149949
149948
149948
149948
149949
149951
149954
149958
149962
149967
149972
149979
149986
149993
150000
150007
150014
150021
150028
150034
150040
150045
150049
150052
150054
150056
150056
150056
150058
150065
150072
150076
150079
150080
150077
150078
150067
150021
150031
150034
150034
150034
150035
150035
150034
150109
150108
150108
150186
150186
150186
150270
150270
150271
150362
150361
150360
150454
150455
150456
150553
150552
150551
150648
150648
150650
150746
150745
150745
150841
150840
150842
150937
150935
150935
151029
151028
151030
151122
151120
151121
151211
151210
151212
151300
151299
151299
151385
151385
151386
151470
151469
151469
151549
151549
151551
151629
151627
151627
151701
151701
151703
151774
151772
151772
151837
151838
151840
151901
151899
151899
151955
151955
151958
152009
152006
152007
152053
152052
152055
152095
152092
152093
152128
152126
152129
152157
152153
152157
152179
152175
152178
152193
152190
152196
152206
152198
152202
152205
152200
152211
152209
152197
152202
152193
152188
152202
152189
152173
152179
152160
152154
152170
152145
152129
152136
152107
152099
152115
152079
152065
152074
152036
152026
152038
151993
151982
151993
151946
151934
151944
151891
151883
151896
151841
151827
151834
151774
151769
151784
151723
151708
151712
151647
151645
151661
151595
151579
151579
151511
151511
151528
151459
151442
151440
151369
151372
151389
151319
151301
151298
151227
151232
151250
151181
151162
151157
151090
151095
151114
151049
151030
151024
150961
150968
150988
150929
150909
150903
150848
150855
150875
150826
150805
150798
150755
150762
150782
150746
150725
150718
150689
150696
150717
150696
150675
150669
150658
150664
150685
150684
150662
150658
150669
150672
150694
150717
150695
150693
150731
150733
150755
150807
150785
150784
150852
150852
150875
150957
150935
150936
151034
151032
151054
151165
151143
151146
151272
151268
151291
151430
151408
151413
151569
151563
151584
151753
151733
151739
151925
151917
151936
152133
152116
152124
152335
152325
152342
152560
152545
152556
152784
152772
152785
153015
153003
153016
153252
153238
153249
153484
153474
153489
153725
153709
153717
153949
153942
153960
154190
154172
154177
154400
154397
154416
154635
154614
154616
154823
154823
154844
155041
155018
155017
155199
155201
155225
155396
155372
155368
155525
155530
155554
155700
155675
155669
155801
155808
155833
155952
155926
155918
156023
156032
156059
156151
156125
156115
156195
156205
156231
156297
156271
156259
156313
156325
156351
156392
156366
156352
156381
156395
156420
156434
156409
156395
156397
156412
156436
156426
156403
156388
156367
156383
156405
156371
156349
156333
156289
156305
156325
156266
156247
156230
156162
156178
156196
156114
156098
156081
155994
156010
156025
155926
155912
155896
155793
155808
155820
155705
155694
155679
155563
155577
155587
155458
155450
155436
155303
155316
155322
155185
155180
155168
155020
155033
155037
154879
154877
154866
154706
154716
154718
154557
154557
154549
154362
154373
154374
154200
154202
154196
154000
154009
154008
153822
153825
153820
153619
153626
153624
153431
153434
153431
153221
153227
153224
153025
153028
153027
152808
152812
152810
152604
152607
152607
152383
152385
152383
152176
152178
152179
151955
151956
151954
151750
151751
151753
151534
151535
151535
151335
151334
151336
151121
151121
151124
150931
150929
150930
150718
150720
150725
150535
150532
150533
150328
150330
150336
150155
150149
150148
149958
149962
149969
149794
149786
149784
149611
149616
149624
149469
149460
149455
149302
149308
149319
149179
149168
149161
149022
149031
149042
148907
148895
148885
148748
148759
148772
148640
148627
148614
148484
148498
148512
148390
148376
148360
148240
148258
148272
148158
148142
148123
148008
148030
148046
147936
147919
147896
147786
147811
147829
147724
147706
147678
147574
147603
147623
147525
147504
147473
147376
147408
147430
147338
147315
147280
147188
147224
147248
147164
147138
147100
147018
147057
147084
147009
146980
146940
146867
146908
146938
146873
146841
146799
146741
146782
146817
146769
146733
146691
146651
146691
146729
146696
146657
146617
146591
146629
146670
146651
146609
146573
146561
146596
146639
146631
146588
146555
146557
146587
146631
146639
146595
146568
146587
146612
146656
146679
146635
146613
146648
146666
146710
146746
146703
146688
146735
146747
146789
146837
146796
146787
146846
146851
146891
146950
146911
146909
146977
146976
147014
147082
147046
147049
147126
147119
147154
147230
147197
147206
147290
147278
147310
147393
147362
147375
147464
147448
147478
147566
147536
147554
147646
147627
147655
147746
147718
147738
147832
147810
147839
147931
147903
147925
148019
147996
148025
148117
148088
148112
148203
148179
148209
148298
148267
148292
148379
148354
148386
148472
148439
148463
148545
148521
148555
148635
148599
148623
148697
148673
148711
148783
148743
148767
148832
148809
148850
148914
148869
148892
148948
148926
148972
149026
148977
148998
149044
149022
149074
149115
149061
149082
149114
149093
149151
149181
149120
149140
149161
149142
149206
149225
149158
149176
149189
149171
149242
149256
149181
149197
149204
149188
149266
149274
149192
149206
149204
149191
149277
149275
149184
149196
149184
149173
149268
149257
149158
149167
149149
149141
149244
149230
149122
149129
149107
149102
149213
149196
149080
149082
149060
149059
149178
149159
149038
149040
149024
149018
149144
149112
149147
149219
149264
149269
149302
149310
149340
149351
149397
149414
149479
149502
149588
149616
149722
149756
149882
149923
150076
150125
150311
150371
150596
150667
150938
151021
151343
151435
151824
151918
152376
152455
153520
153906
155375
155701
155957
156027
156046
156056
156068
156087
156115
156158
156211
156364
156492
156558
156604
156618
156431
153448
152521
151013
149826
149038
148993
149778
150953
150935
149757
148978
148986
149778
150974
151004
149797
148990
148977
149795
151005
150985
149777
148948
148909
149747
150953
150914
149716
148867
148826
149682
150873
150831
149647
148785
148746
149614
150786
150741
149581
148708
148672
149548
150696
150651
149517
148636
148602
149485
150606
150560
149454
148568
148534
149423
150513
150467
149392
148499
148464
149361
150420
150375
149330
148427
148390
149299
150330
150287
149268
148352
148313
149238
150245
150206
149208
148274
148235
149179
150168
150132
149151
148195
148154
149123
150099
150068
149097
148113
148072
149072
150041
150015
149048
148031
147991
149026
149993
149974
149005
147951
147911
148986
149957
149945
148969
147871
147832
148954
149935
149929
148942
147794
147756
148931
149926
149927
148923
147718
147682
148918
149932
149941
148916
147646
147612
148917
149955
149975
148922
147578
147547
148932
150001
150034
148947
147518
147495
148971
150075
150127
149005
147480
147455
149034
150176
150221
149061
147421
147354
149068
150255
150291
149079
147301
147241
149092
150335
150390
149116
147199
147185
149166
150474
150596
149241
147198
147447
149585
150963
149742
148599
147061
147456
149318
150361
150674
149629
147607
147623
149780
150848
150915
149827
147561
147479
149855
150970
151071
149934
147479
147516
150042
151204
151356
150160
147556
147820
150554
151750
150478
149314
147312
147812
150056
151039
151440
150496
148077
148117
150699
151662
151799
150840
148132
148230
151038
151983
152404
151505
148495
147803
150039
151153
151592
150748
148370
148887
151357
152086
152481
151978
149387
148327
150426
151445
151407
150805
148651
149142
151130
151372
150605
149688
147698
146112
148367
149481
147022
145666
142719
137303
139163
141189
141721
142129
142391
140695
141012
141146
141229
141154
140943
140725
141053
141199
141144
140954
140618
140703
141164
141325
141311
141114
140629
140569
141005
141232
141469
141282
140693
140632
141229
141450
141366
141115
140588
140731
141421
141621
141596
141361
140677
140639
141234
141503
141775
141567
140797
140725
141488
141736
141637
141351
140686
140867
141708
141920
141867
141610
140790
140751
141461
141758
142051
141830
140929
140849
141724
141988
141878
141569
140818
141006
141959
142182
142109
141842
140928
140853
141659
141984
142302
142079
141075
140987
141946
142216
142080
141745
140901
141140
142183
142410
142323
142047
141050
140969
141813
142158
142458
142205
141221
141126
141984
142313
142613
142386
141324
141114
142182
142479
142365
142016
141095
141355
142471
142696
142562
142259
141145
141141
142092
142447
142786
142565
141406
141252
142370
142654
142482
142113
141155
141494
142560
142812
142646
142297
141372
141592
142732
142956
142808
142497
141348
141342
142303
142672
142980
142747
141672
141445
142429
142782
143099
142865
141662
141523
142689
142989
142867
142498
141483
141751
142980
143201
143042
142734
141521
141523
142521
142898
143226
143000
141909
141759
142703
143042
143307
143088
142028
141815
142789
143131
143447
143266
142127
141929
143076
143339
143183
142836
141839
142106
143229
143460
143292
142955
141984
142302
143453
143630
143519
143264
142140
142036
143016
143366
143647
143424
142343
142233
143145
143479
143773
143586
142596
142422
143347
143654
143936
143791
142723
142468
143565
143804
143659
143324
142371
142800
143798
143981
143845
143530
142648
143013
143950
144107
143968
143680
142789
143060
144113
144255
144144
143922
142862
142824
143738
144042
144356
144205
143253
143122
143957
144237
144458
144318
143423
143217
144059
144322
144641
144533
143559
143380
144358
144547
144465
144186
143334
143753
144624
144744
144616
144367
143592
143931
144738
144856
144749
144510
143768
144146
144903
144995
144913
144695
143967
144292
145119
145191
145093
144929
144077
144056
144796
145032
145283
145187
144433
144317
144976
145190
145420
145342
144670
144559
145180
145371
145569
145511
144891
144725
145319
145498
145703
145646
145045
144924
145497
145662
145896
145856
145208
145064
145736
145853
145848
145671
145103
145427
145996
146050
146002
145846
145331
145646
146155
146194
146185
146047
145578
145879
146333
146357
146347
146219
145782
146059
146492
146513
146523
146409
145975
146236
146705
146714
146709
146631
146143
146198
146613
146736
146902
146882
146480
146443
146808
146912
147067
147061
146718
146688
147010
147100
147235
147234
146934
146901
147191
147269
147398
147401
147124
147105
147385
147451
147596
147610
147312
147287
147600
147635
147684
147610
147348
147577
147815
147811
147860
147803
147585
147797
147987
147974
148036
147990
147807
148002
148156
148137
148207
148172
148020
148188
148319
148298
148379
148354
148216
148369
148505
148480
148548
148543
148388
148461
148587
148617
148703
148722
148624
148670
148761
148778
148855
148879
148814
148861
148927
148937
149008
149033
148993
149046
149091
149093
149158
149184
149163
149221
149248
149245
149314
149338
149322
149376
149409
149399
149469
149470
149450
149550
149550
149531
149609
149615
149608
149696
149687
149668
149750
149756
149757
149835
149825
149811
149887
149890
149895
149961
149954
149946
150023
150028
150030
150089
150096
150096
150156
150153
150138
150224
150237
150235
150279
150272
150249
150351
150376
150375
150413
150399
150362
150473
150512
150514
150547
150527
150474
150586
150644
150650
150716
150688
150614
150591
150685
150727
150841
150828
150728
150686
150805
150848
150969
150953
150831
150789
150925
150974
151097
151076
150933
150881
151040
151096
151222
151197
151038
151040
151214
151275
151230
151143
150943
151127
151346
151382
151353
151266
151026
151223
151462
151497
151466
151375
151117
151304
151561
151608
151651
151559
151287
151126
151427
151554
151738
151678
151352
151213
151558
151682
151846
151789
151440
151296
151659
151786
151945
151877
151521
151471
151843
151970
151825
151657
151253
151520
151964
152043
151960
151797
151330
151609
152071
152146
152058
151896
151420
151664
152134
152223
152233
152074
151594
151324
151835
152042
152288
152186
151641
151429
152002
152199
152387
152296
151766
151662
152221
152398
152123
151871
151267
151621
152256
152387
152272
152039
151381
151757
152376
152496
152499
152285
151640
151283
151945
152224
152472
152329
151621
151268
152012
152283
152535
152383
151674
151582
152302
152543
152223
151913
151159
151608
152377
152526
152385
152101
151306
151569
152371
152543
152495
152215
151392
151020
151864
152199
152517
152348
151538
151432
152301
152573
152180
151817
150906
151203
152178
152406
152379
152041
151020
150525
151577
152003
152373
152167
151199
151106
152143
152460
151864
151378
150256
150800
151918
152193
152184
151791
150606
150083
151282
151769
152136
151953
150986
150458
151663
152071
151474
150944
149676
150492
151630
151903
151987
151608
150392
149744
151012
151516
151680
151306
149966
149743
151210
151671
151570
151093
149644
148797
150378
151016
151319
150871
149324
149202
150890
151361
151295
150776
148940
147993
150225
150927
150798
150151
147868
146943
149576
150435
150187
149283
146609
145451
148126
149241
150196
149364
147036
146582
148990
149894
149787
148817
146353
146177
148695
149724
149660
148572
146003
145802
148402
149557
149432
148221
145606
145421
148029
149297
149159
147844
145254
145100
147656
149012
148862
147471
144959
144831
147289
148708
148552
147112
144715
144603
146938
148392
148233
146769
144496
144392
146603
148071
147910
146442
144292
144196
146285
147748
147590
146134
144105
144018
145989
147432
147278
145850
143935
143858
145718
147127
146981
145593
143786
143718
145473
146838
146702
145361
143656
143598
145254
146570
146444
145155
143544
143494
145061
146324
146211
144974
143449
143408
144893
146103
146000
144817
143368
143331
144746
145904
145812
144680
143297
143266
144618
145726
145645
144561
143236
143208
144508
145568
145496
144459
143182
143157
144412
145428
145364
144369
143133
143110
144329
145304
145246
144290
143089
143069
144253
145192
145140
144217
143050
143031
144183
145091
145043
144150
143012
142992
144119
144997
144953
144089
142972
142950
144060
144909
144868
144031
142928
142905
144003
144828
144790
143975
142881
142856
143947
144753
144717
143920
142831
142804
143892
144683
144650
143865
142777
142750
143838
144617
144586
143810
142722
142694
143783
144555
144524
143756
142665
142637
143730
144495
144465
143703
142607
142578
143676
144437
144408
143649
142548
142518
143622
144379
144351
143594
142487
142456
143566
144323
144294
143538
142425
142393
143510
144265
144236
143481
142360
142327
143451
144207
144177
143421
142293
142259
143391
144147
144118
143361
142224
142189
143330
144087
144057
143298
142153
142118
143267
144027
143996
143236
142082
142046
143204
143966
143936
143173
142010
141974
143141
143906
143876
143110
141938
141902
143079
143846
143817
143048
141867
141831
143018
143787
143758
142987
141796
141761
142957
143729
143701
142926
141726
141690
142896
143672
143643
142866
141655
141620
142836
143615
143586
142806
141585
141551
142776
143558
143530
142746
141516
141481
142716
143501
143473
142686
141446
141411
142657
143445
143416
142627
141377
141342
142597
143388
143360
142568
141308
141273
142538
143332
143304
142509
141239
141205
142480
143276
143248
142451
141171
141137
142422
143220
143192
142393
141103
141069
142364
143165
143137
142336
141036
141002
142307
143110
143083
142279
140969
140936
142251
143056
143029
142223
140903
140870
142195
143002
142975
142167
140837
140805
142140
142948
142922
142112
140772
140740
142085
142895
142869
142058
140708
140676
142031
142843
142818
142004
140644
140613
141977
142792
142767
141951
140582
140551
141925
142742
142717
141899
140521
140491
141874
142693
142669
141849
140461
140432
141824
142645
142622
141800
140403
140375
141776
142599
142577
141752
140347
140320
141729
142555
142534
141707
140293
140267
141685
142513
142493
141664
140242
140218
141644
142474
142455
141624
140194
140171
141605
142437
142420
141587
140148
140126
141569
142404
142388
141552
140105
140084
141536
142372
142358
141520
140065
140045
141505
142344
142330
141491
140027
140009
141477
142318
142306
141464
139991
139974
141451
142294
142283
141439
139958
139942
141428
142273
142263
141417
139927
139912
141406
142254
142245
141396
139898
139885
141387
142237
142230
141378
139872
139859
141370
142223
142217
141363
139847
139836
141356
142211
142206
141349
139825
139815
141344
142201
142198
141339
139806
139797
141334
142195
142193
141331
139790
139783
141329
142192
142192
141327
139777
139772
141326
142193
142195
141327
139768
139764
141328
142197
142201
141329
139761
139760
141332
142205
142209
141335
139758
139757
141339
142214
142220
141342
139757
139756
141346
142226
142231
141350
139756
139756
141354
142237
142242
141358
139755
139754
141361
142247
142252
141364
139753
139751
141367
142256
142260
141369
139749
139747
141371
142263
142267
141372
139745
139743
141374
142270
142274
141376
139741
139739
141378
142277
142282
141381
139739
139738
141385
142287
142294
141389
139740
139742
141396
142302
142312
141404
139746
139751
141412
142322
142332
141420
139755
139763
141431
142345
142363
141447
139775
139788
141464
142382
142403
141483
139803
139820
141504
142425
142449
141526
139838
139858
141550
142475
142502
141575
139879
139901
141601
142530
142559
141628
139924
139948
141655
142588
142618
141683
139972
139995
141710
142647
142676
141737
140019
140042
141764
142704
142732
141790
140064
140085
141814
142759
142784
141838
140106
140125
141860
142808
142831
141881
140142
140159
141901
142852
142871
141919
140174
140188
141935
142889
142905
141949
140199
140209
141961
142919
142930
141971
140216
140223
141980
142941
142951
141989
140229
140236
141998
142962
142973
142007
140243
140250
142017
142984
142996
142026
140258
140266
142037
143008
143021
142048
140274
140284
142060
143034
143050
142074
140296
140309
142089
143067
143086
142106
140324
140340
142124
143105
143124
142142
140355
140370
142159
143143
143160
142175
140384
140396
142188
143175
143188
142200
140406
140413
142209
143199
143207
142216
140418
140421
142220
143212
143216
142222
140423
140423
142224
143219
143222
142226
140425
140427
142229
143227
143232
142234
140431
140438
142241
143241
143251
142252
140447
140459
142265
143265
143282
142281
140474
140491
142299
143300
143320
142317
140508
140526
142336
143339
143358
142353
140542
140557
142369
143374
143389
142382
140569
140578
142392
143400
143408
142399
140585
140589
142404
143414
143416
142405
140590
140584
142400
143411
143402
142390
140575
140561
142377
143390
143375
142360
140545
140527
142342
143358
143340
142324
140510
140494
142308
143325
143314
142296
140482
140475
142289
143307
143305
142287
140474
140476
142289
143306
143311
142294
140482
140486
142299
143314
143316
142300
140488
140484
142296
143311
143298
142283
140472
140452
142262
143278
143249
142233
140422
140385
142194
143211
143165
142147
140339
140288
142094
143113
143056
142037
140232
140175
141978
142998
142938
141919
140118
140061
141861
142879
142822
141804
140006
139953
141748
142766
142713
141696
139902
139854
141646
142663
142617
141600
139809
139769
141558
142575
142538
141522
139733
139703
141491
142507
142482
141467
139679
139661
141449
142464
142453
141438
139650
139643
141431
142445
142438
141424
139636
139629
141417
142431
142422
141409
139620
139608
141397
142409
142391
141379
139590
139568
141356
142368
142339
141327
139539
139504
141292
142303
142261
141249
139461
139413
141200
142211
142156
141144
139358
139299
141084
142097
142035
141022
139237
139176
140960
141973
141914
140901
139118
139065
140847
141860
141812
140799
139018
138979
140760
141773
141740
140728
138947
138922
140703
141714
141692
140683
138900
138880
140663
141671
141647
140641
138857
138828
140612
141618
141580
140575
138790
138740
140525
141530
141468
140463
138677
138602
140387
141393
141307
140300
138515
138419
140203
141211
141110
140101
138317
138214
139996
141006
140903
139893
138112
138015
139795
140804
140712
139703
137925
137842
139620
140628
140552
139544
137768
137702
139478
140484
140423
139418
137642
137588
139363
140367
140316
139312
137536
137487
139263
140266
140218
139214
137438
137388
139166
140169
140120
139117
137338
137288
139067
140071
140021
139017
137237
137187
138968
139972
139925
138921
137138
137092
138876
139881
139840
138835
137049
137010
138797
139803
139769
138762
136973
136939
138731
139737
139709
138701
136908
136878
138674
139682
139656
138647
136849
136821
138621
139630
139605
138595
136793
136765
138570
139581
139558
138546
136738
136715
138524
139538
139521
138507
136695
136681
138496
139511
139506
138491
136673
136673
138494
139509
139517
138502
136679
136688
138515
139530
139543
138529
136700
136709
138540
139554
139558
138545
136711
136701
138536
139550
139526
138512
136675
136630
138469
139484
139422
138405
136566
136483
138322
139340
139241
138222
136383
136269
138108
139129
139007
137984
136147
136021
137857
138880
138754
137731
135897
135778
137610
138632
138517
137496
135666
135563
137391
138411
138314
137296
135470
135387
137211
138228
138150
137135
135312
135245
137067
138080
138017
137004
135183
135126
136946
137958
137901
136890
135070
135016
136835
137846
137790
136780
134961
134903
136722
137731
137669
136659
134840
134771
136591
137600
137524
136515
134694
134609
136430
137440
137348
136337
134515
134411
136235
137246
137136
136124
134298
134177
136006
137018
136894
135881
134050
133919
135752
136767
136638
135622
133786
133654
135492
136509
136384
135366
133525
133403
135245
136262
136146
135126
133284
133171
135010
136029
135909
134893
133063
132955
134771
135787
135688
134674
132855
132795
134625
135654
135595
134563
132725
137011
138102
139000
139721
140096
140281
140358
140401
140427
140441
140448
140454
140451
140431
140439
140457
140473
140518
140588
140577
140545
140481
140388
140280
140236
140296
140366
140379
140427
140447
140319
140068
139888
139850
139767
139655
139567
139533
139543
139559
139543
139497
139444
139404
139375
139357
139350
139373
139460
139593
139715
139625
139293
139141
139315
139675
139662
139521
139415
139313
139310
139339
139367
139399
139545
139839
140325
140892
141387
141950
141954
141920
142035
142272
142568
142878
143203
143523
143807
144110
144189
144204
144252
144312
144380
144462
144551
144635
144709
144785
144854
144917
144972
145025
145077
145127
145177
145232
145292
145365
145455
145567
145707
145876
146076
146308
146570
146859
147171
147498
147836
148178
148519
148855
149185
149506
149821
150130
150433
150733
151031
151327
151622
151916
152210
152504
152798
153092
153385
153678
153971
154262
154552
154839
155122
155402
155675
155943
156203
156455
156699
156935
157164
157386
157599
157806
158005
158198
158383
158563
158736
158905
159070
159231
159389
159546
159701
159854
160006
160156
160305
160452
160598
160742
160883
161021
161155
161286
161412
161534
161650
161761
161866
161964
162056
162140
162216
162283
162341
162389
162426
162454
162471
162477
162475
162463
162443
162415
162379
162335
162285
162227
162162
162091
162013
161929
161839
161743
161639
161530
161415
161293
161166
161034
160896
160754
160607
160456
160302
160145
159986
159827
159666
159505
159347
159190
159035
158885
158738
158597
158462
158333
158214
158105
158009
157928
157859
157804
157766
157745
157739
157749
157771
157807
157857
157919
157993
158077
158169
158265
158361
158456
158555
158662
158777
158899
159027
159159
159294
159431
159570
159709
159848
159984
160115
160242
160363
160477
160582
160677
160761
160831
160884
160917
160928
160925
160912
160868
160797
160699
160573
160419
160235
160022
159780
159512
159219
158906
158574
158229
157875
157513
157148
156781
156413
156046
155679
155315
154953
154595
154243
153898
153560
153229
152907
152592
152285
151982
151684
151390
151103
150825
150567
150564
150568
150580
150598
150619
150644
150672
150702
150734
150768
150804
150840
150877
150914
150951
150986
151020
151052
151080
151105
151125
151140
151149
151151
151146
151134
151114
151087
151053
151012
150966
150916
150863
150808
150752
150695
150639
150583
150528
150473
150420
150368
150317
150267
150219
150172
150128
150085
150045
150007
149971
149937
149906
149878
149852
149829
149808
149790
149774
149760
149749
149740
149734
149730
149730
149734
149742
149755
149772
149793
149818
149847
149880
149914
149951
149989
150027
150063
150099
150133
150165
150194
150221
150244
150262
150276
150287
150297
150308
150321
150338
150354
150370
150385
150396
150401
150402
150402
150404
150457
150456
150457
150554
150651
150748
150843
150938
151032
151124
151214
151303
151389
151473
151554
151632
151706
151776
151842
151904
151961
152012
152058
152099
152133
152162
152184
152200
152209
152213
152211
152203
152190
152172
152149
152121
152089
152051
152010
151965
151915
151862
151806
151746
151684
151619
151553
151485
151416
151346
151278
151210
151143
151078
151017
150959
150906
150857
150815
150779
150750
150731
150720
150721
150731
150755
150793
150845
150913
150995
151092
151203
151329
151469
151624
151792
151976
152172
152380
152598
152823
153052
153284
153518
153749
153980
154207
154429
154643
154847
155039
155220
155387
155543
155685
155815
155931
156035
156125
156203
156267
156319
156358
156385
156398
156399
156389
156367
156333
156288
156229
156159
156079
155990
155893
155788
155676
155557
155432
155299
155164
155012
154864
154698
154549
154353
154198
153991
153820
153612
153428
153215
153025
152804
152606
152382
152182
151958
151756
151537
151338
151125
150932
150722
150534
150333
150152
149961
149787
149614
149457
149303
149162
149021
148884
148746
148611
148481
148356
148236
148118
148004
147892
147783
147676
147574
147474
147379
147285
147196
147111
147032
146957
146887
146823
146769
146724
146688
146659
146640
146626
146621
146621
146629
146645
146671
146703
146743
146789
146842
146899
146962
147029
147102
147178
147258
147341
147427
147515
147605
147696
147789
147882
147977
148070
148164
148255
148346
148433
148519
148602
148682
148758
148830
148896
148960
149016
149070
149117
149160
149195
149224
149247
149266
149278
149288
149294
149298
149299
149295
149284
149271
149253
149234
149212
149190
149167
149146
149127
149162
149180
149249
149233
149278
149291
149322
149260
149201
149228
149299
149313
149250
149275
149346
149360
149392
149356
149294
149315
149382
149386
149327
149340
149403
149412
149412
149399
149343
149346
149404
149395
149342
149340
149395
149404
149386
149380
149330
149320
149372
149349
149301
149282
149330
149348
149286
149297
149252
149220
149265
149220
149178
149134
149176
149200
149097
149122
149081
149028
149068
149004
148965
148902
148940
148974
148835
148870
148830
148759
148798
148719
148679
148601
148640
148681
148516
148556
148515
148432
148472
148384
148342
148254
148296
148342
148164
148206
148161
148072
148117
148025
147978
147889
147937
147986
147810
147847
147796
147709
147761
147673
147619
147535
147590
147639
147476
147506
147449
147370
147429
147350
147289
147216
147280
147325
147189
147207
147144
147078
147146
147081
147014
146959
147030
147070
146971
146974
146905
146860
146935
146889
146818
146785
146863
146896
146847
146830
146757
146739
146819
146802
146728
146726
146807
146832
146834
146799
146726
146736
146816
146819
146750
146774
146852
146861
146923
146872
146806
146846
146923
146958
146895
146952
147028
147022
147149
147076
147017
147087
147158
147215
147161
147240
147307
147292
147457
147374
147326
147414
147476
147550
147506
147601
147658
147634
147825
147740
147702
147803
147855
147945
147913
148019
148066
148031
148256
148165
148136
148246
148291
148396
148372
148486
148528
148485
148734
148645
148625
148747
148784
148912
148897
149018
149053
149002
149280
149189
149177
149297
149333
149484
149475
149604
149641
149581
149913
149812
149807
149946
149984
150171
150172
150315
150351
150271
150651
150548
150555
150700
150732
150943
150954
151099
151133
151045
151448
151353
151364
151514
151549
151778
151787
151934
151967
151863
152281
152201
152211
152354
152383
152618
152631
152770
152791
152695
153099
153026
153052
153181
153194
153435
153464
153577
153584
153495
153887
153843
153858
153948
153957
154219
154248
154324
154338
154253
154592
154533
154556
154693
154690
154851
154863
155002
155001
154907
155196
155154
155166
155291
155287
155420
155431
155549
155543
155457
155692
155663
155674
155781
155774
155879
155889
155984
155976
155899
156075
156066
156075
156154
156145
156214
156224
156284
156272
156215
156307
156317
156328
156364
156352
156372
156383
156397
156382
156348
156347
156381
156392
156384
156368
156342
156352
156320
156303
156296
156193
156251
156262
156205
156187
156109
156120
156038
156019
156038
155831
155916
155926
155819
155799
155671
155680
155548
155527
155572
155261
155374
155384
155226
155205
155027
155035
154854
154830
154898
154491
154632
154641
154436
154415
154201
154205
153988
153971
154052
153596
153751
153748
153525
153508
153285
153282
153058
153043