/*--------------------------------*- C++ -*----------------------------------*\
| =========                 |                                                 |
| \\      /  F ield         | OpenFOAM: The Open Source CFD Toolbox           |
|  \\    /   O peration     | Version:  v2006                                 |
|   \\  /    A nd           | Website:  www.openfoam.com                      |
|    \\/     M anipulation  |                                                 |
\*---------------------------------------------------------------------------*/
FoamFile
{
    version     2.0;
    format      ascii;
    class       volScalarField;
    location    "0.002";
    object      k;
}
// * * * * * * * * * * * * * * * * * * * * * * * * * * * * * * * * * * * * * //

dimensions      [0 2 -2 0 0 0 0];


internalField   nonuniform List<scalar> 
24416
(
25.8746
25.4661
20.3297
21.0803
21.6946
22.2534
22.9064
23.3376
23.6485
23.7343
23.7227
23.6082
23.4415
23.2211
22.9583
22.6554
22.3169
21.9464
21.5467
21.1193
20.6652
20.1873
19.6878
19.1692
18.6351
18.0891
17.5354
16.9775
16.418
15.8592
15.3039
14.7556
14.2183
13.6957
13.1923
12.7119
12.2588
11.8414
11.4706
11.1546
10.8967
10.698
10.5584
10.4776
10.4546
10.4881
10.5763
10.7168
10.9069
11.1427
11.4203
11.7351
12.0825
12.4571
12.8532
13.2653
13.6879
14.1164
14.5474
14.9795
15.4135
15.8522
16.3004
16.7662
17.2592
17.7915
18.3807
19.0492
19.8304
20.7541
21.713
22.4947
23.165
23.681
24.073
24.3241
24.4223
24.406
24.2998
24.1092
23.8389
23.4933
23.0818
22.6224
22.1334
21.6394
21.1928
20.8321
20.5694
20.4019
20.3202
20.3103
20.3543
20.4218
20.4685
20.396
20.1592
19.5414
18.6031
17.235
16.4358
15.3163
8.76058
7.56761
6.70209
4.86975
3.15438
1.93881
1.35947
0.704193
1.29723
3.54703
4.87696
7.86043
5.44394
1.6159
1.83927
7.09468
10.5872
12.9743
8.46909
2.03731
2.21308
9.62382
14.957
16.5498
10.5262
2.35598
2.46823
11.2955
17.8796
18.9726
11.8729
2.52162
2.62749
12.531
20.0567
21.0834
13.1851
2.76742
2.98198
14.0401
22.3303
23.5449
14.8462
3.18887
3.43917
15.782
24.9235
26.1625
16.5872
3.64974
3.87669
17.4322
27.446
28.478
18.0793
4.0445
4.21045
18.705
29.4649
30.1445
19.1045
4.31179
4.39604
19.4424
30.7303
31.0032
19.5616
4.42312
4.42943
19.5953
31.1578
31.0656
19.4735
4.39308
4.32522
19.2409
30.8506
30.2479
18.7264
4.17968
4.04925
18.2163
29.6085
28.5995
17.434
3.8476
3.68345
16.7207
27.6211
26.3074
15.7831
3.47197
3.3325
15.0359
25.1433
23.7016
14.1322
3.16961
3.09346
13.5238
22.515
21.0713
12.7838
2.98928
2.93645
12.3018
19.8961
18.3832
11.5759
2.81553
2.70815
10.9811
17.0652
15.3632
10.1079
2.54125
2.40433
9.3959
13.8782
12.1833
8.59052
2.25597
2.145
7.99214
10.8312
9.51868
7.43835
2.03684
1.95166
7.08129
8.61897
7.88367
6.77917
1.86701
1.79673
6.59698
7.46497
7.15061
6.43749
1.72658
1.66749
6.34655
7.01412
6.92453
6.27141
1.61133
1.56826
6.25903
6.93687
6.99365
6.24499
1.5244
1.49483
6.29649
7.19568
7.32129
6.2828
1.45811
1.43555
6.3256
7.55588
7.65295
6.30282
1.40749
1.39212
6.33439
7.8495
7.91658
6.30246
1.3728
1.36306
6.32115
8.07592
8.11641
6.27747
1.35017
1.34577
6.28398
8.23589
8.25183
6.23093
1.33888
1.34103
6.22315
8.32582
8.32545
6.17017
1.34152
1.35161
6.15936
8.36489
8.35399
6.10606
1.36072
1.38043
6.09961
8.37497
8.34971
6.05167
1.39861
1.42585
6.06096
8.35545
8.29782
6.02378
1.44692
1.46557
6.03718
8.2721
8.14128
5.9659
1.46859
1.4636
5.91243
8.03521
7.75568
5.71754
1.43529
1.39652
5.4954
7.48882
7.01015
5.1408
1.34269
1.28924
4.7841
6.47709
5.75808
4.3989
1.2363
1.19147
4.07947
5.03222
4.33287
3.81671
1.15136
1.11772
3.62558
3.79282
3.41116
3.48219
1.08651
1.05904
3.36487
3.15807
2.99713
3.27785
1.03463
1.01245
3.18866
2.88781
2.81765
3.13112
0.994602
0.976713
3.04511
2.75949
2.71516
2.99914
0.964326
0.9503
2.90942
2.67135
2.62838
2.86468
0.942295
0.932003
2.76966
2.58477
2.53591
2.72477
0.927781
0.921128
2.62412
2.48983
2.4347
2.57967
0.920258
0.916917
2.47467
2.38643
2.32602
2.42885
0.918959
0.918678
2.32117
2.2758
2.21161
2.2752
0.923786
0.926139
2.16449
2.15959
2.09256
2.11948
0.934133
0.939011
2.00759
2.03917
1.97051
1.9621
0.94942
0.956646
1.85071
1.91596
1.84639
1.80438
0.968931
0.978123
1.69528
1.79039
1.72034
1.64757
0.991632
1.00228
1.54085
1.66259
1.59263
1.49177
1.01638
1.02792
1.38824
1.53311
1.46397
1.33654
1.04205
1.05424
1.23786
1.40201
1.33366
1.18342
1.0678
1.07969
1.0883
1.26804
1.20094
1.03019
1.09181
1.10261
0.941983
1.13446
1.07049
0.884734
1.11253
1.12132
0.805022
1.00518
0.94388
0.749757
1.12794
1.13357
0.677634
0.879858
0.821476
0.624753
1.13599
1.13657
0.560142
0.758902
0.704108
0.511511
1.1328
1.12907
0.454753
0.644381
0.593213
0.412401
1.11715
1.10831
0.362879
0.536834
0.494799
0.328057
1.08892
1.07251
0.285334
0.442084
0.410361
0.261432
1.04459
1.02006
0.227464
0.362099
0.340532
0.210936
0.984034
0.953179
0.183823
0.300302
0.285337
0.171414
0.910213
0.873639
0.15054
0.252701
0.24195
0.140914
0.826815
0.786301
0.124498
0.211665
0.201076
0.116925
0.739854
0.692727
0.105754
0.174598
0.164215
0.0998599
0.64824
0.603357
0.0937899
0.144839
0.135883
0.0913918
0.572979
0.540416
0.0901911
0.124745
0.117222
0.0898112
0.513454
0.482805
0.0907914
0.110886
0.106467
0.0928104
0.456733
0.427214
0.0961818
0.10453
0.104817
0.100443
0.400651
0.372015
0.105843
0.107058
0.111219
0.112813
0.347962
0.32499
0.120457
0.120031
0.129639
0.130794
0.306005
0.288581
0.141668
0.146775
0.162768
0.155682
0.274667
0.262373
0.170573
0.190063
0.21509
0.188981
0.254414
0.247817
0.209903
0.259353
0.301511
0.23368
0.247128
0.247797
0.265145
0.374761
0.427992
0.293856
0.256537
0.267318
0.338748
0.523493
0.594677
0.374728
0.289992
0.316969
0.436056
0.718368
0.81294
0.482629
0.364601
0.433902
0.559692
0.959486
1.07646
0.616413
0.535808
0.636356
0.707513
1.24533
1.39239
0.778043
0.756622
0.877923
0.877477
1.57069
1.75248
0.968562
1.01371
1.15473
1.08081
1.94988
2.17249
1.20579
1.30591
1.46478
1.34322
2.39781
2.6778
1.51682
1.63221
1.8077
1.68115
2.94805
3.29751
1.89818
1.99181
2.18074
2.09119
3.64701
4.07908
2.3555
2.37723
2.57475
2.5902
4.52635
5.06419
2.92845
2.78304
2.98937
3.23491
5.62996
6.2898
3.65295
3.20641
3.41415
4.02673
6.96017
7.71573
4.53089
3.63161
3.82857
4.9547
8.42012
9.16723
5.49761
4.03055
4.19691
5.88302
9.81716
10.4959
6.37934
4.36443
4.49181
6.70606
11.0518
11.6305
7.16989
4.62262
4.7101
7.45187
12.0625
12.5318
7.89079
4.80277
4.85234
8.12895
12.8378
13.169
8.51615
4.90498
4.91616
8.69957
13.3407
13.5414
9.02414
4.9221
4.90365
9.16612
13.6303
13.7528
9.45657
4.87974
4.82865
9.58774
13.7983
13.8766
9.87198
4.79084
4.72562
10.0056
13.8919
13.9396
10.2889
4.68261
4.61679
10.4213
13.9271
13.9172
10.6816
4.57114
4.50693
10.8027
13.8807
13.8326
11.0494
4.46385
4.40944
11.175
13.781
13.6998
11.4103
4.37599
4.33569
11.5404
13.648
13.5413
11.7594
4.31558
4.2913
11.8916
13.4923
13.3758
12.1015
4.28612
4.27646
12.2215
13.3196
13.1656
12.4049
4.2811
4.2826
12.5069
13.0882
12.8835
12.6609
4.29294
4.30083
12.7396
12.7799
12.5198
12.8688
4.31722
4.32883
12.9208
12.3784
12.0457
13.0232
4.34931
4.36179
13.0399
11.848
11.4463
13.0971
4.38092
4.39177
13.085
11.2027
10.7399
13.1114
4.40959
4.41665
13.0515
10.4428
9.9211
13.0056
4.43333
4.43249
12.8858
9.59082
9.02269
12.7756
4.44447
4.43665
12.5895
8.68211
8.10429
12.3986
4.43973
4.42447
12.1639
7.79351
7.23561
11.912
4.42387
4.40719
11.6263
6.95365
6.43028
11.2995
4.40281
4.38527
10.9556
6.17498
5.68444
10.5651
4.37759
4.36381
10.1701
5.43074
4.93995
9.66369
4.34652
4.3266
9.15033
4.69353
4.23816
8.48191
4.2967
4.29203
7.99285
4.04247
3.61672
7.21612
4.26308
4.25788
6.72296
3.42853
3.01425
5.91329
4.23172
4.24003
5.50452
2.85169
2.4119
4.74686
4.23325
4.20216
4.34575
2.16609
1.553
3.53035
4.05718
1.01846
1.01967
1.00984
1.00481
1.00156
1.00293
1.00194
1.00282
1.00328
1.00379
1.00468
1.0045
1.00539
1.00491
1.00583
1.00548
1.00619
1.00543
1.00641
1.00574
1.00653
1.00569
1.00661
1.00642
1.0067
1.00567
1.00545
1.00536
1.00516
1.00469
1.00445
1.00319
1.00292
1.00378
1.00366
1.00282
1.00259
1.00215
1.00153
1.00084
1.00288
1.00308
1.00176
1.00354
1.00104
1.00082
1.00158
1.00103
1.00118
1.00171
1.02033
2.01161
6.25927
1.35108
1.02297
1.1068
1.96118
12.3448
19.0314
3.84406
1.40121
1.56692
4.65554
23.8552
26.4079
6.84489
2.05024
2.25655
7.72608
27.113
26.9778
9.94733
2.94071
3.20905
10.773
26.3642
25.6043
12.8946
4.14328
4.54061
13.8901
24.7896
24.0791
15.6886
5.7359
6.1498
16.8425
23.4111
22.8908
18.5498
7.53308
8.06653
19.8442
22.4837
22.1432
21.5428
9.7239
10.204
22.672
21.9858
21.9013
24.6245
11.9728
12.5484
25.6997
21.9882
22.0759
27.8747
14.4513
14.9133
28.9183
22.4863
22.7045
31.1906
16.8774
17.4424
32.2508
23.3953
23.6996
34.5466
19.5284
19.9175
35.5551
24.6653
25.071
37.7996
21.9995
22.5037
38.7707
26.2134
26.7231
40.8079
24.6769
24.9526
41.6792
28.0797
28.6211
43.5021
27.0554
27.4318
44.2909
30.0202
30.629
45.8631
29.4707
29.5583
46.5565
32.1741
32.8192
47.9898
31.4349
31.6153
48.6397
34.4041
35.1334
49.9069
33.2786
33.1726
50.4817
36.8737
37.671
51.6803
34.6867
34.6392
52.2178
39.5009
40.4225
53.3026
35.7543
35.4347
53.7281
42.438
43.5432
54.7752
36.3662
36.0906
55.1476
45.6667
47.0788
56.0908
36.5299
35.8622
56.3101
49.4115
51.2536
57.2018
36.1353
35.1844
57.2151
53.8844
56.4711
57.826
35.0614
33.6972
57.6126
59.5196
62.4765
57.9233
33.3696
32.1481
57.716
65.2544
67.4706
57.8507
31.7443
30.1827
57.4326
69.3965
70.5885
57.2547
28.9512
27.5781
56.2478
72.1912
70.132
42.8938
15.1805
36.5116
60.4177
78.5952
90.1407
50.8879
31.8355
26.439
44.8771
93.5501
95.8054
40.8227
25.7026
19.8666
42.6991
95.7154
103.24
31.4958
12.4149
8.56197
19.6747
67.8814
62.6173
15.3685
6.04364
4.8644
12.0363
59.6928
57.5068
9.24717
3.25433
4.3548
9.77107
62.2787
60.9285
9.00296
4.13728
3.42311
7.04097
56.8816
52.3077
5.72881
2.95742
2.38213
4.55028
48.0367
43.5865
3.72423
2.19557
1.80945
3.01745
39.6605
37.0923
2.77872
1.8913
1.79028
2.31276
34.4873
31.3865
2.03635
1.69576
1.61907
1.98099
28.8441
27.3348
1.93603
1.68968
1.67959
1.83754
26.0343
25.0551
1.80757
1.65812
1.78401
1.94711
24.9566
24.9285
1.82734
1.70093
3.5307
11.6856
25.8237
26.6665
22.902
19.6691
26.1369
26.6243
27.0555
27.5694
27.8087
28.3426
28.9581
28.2652
27.9499
29.7428
27.519
27.5381
6.35911
14.5932
22.8773
13.9811
8.18978
3.78059
4.19631
7.23387
14.2141
14.7153
6.05118
4.11236
3.86336
4.84217
15.2333
15.7145
5.00676
4.09952
4.2046
5.00865
16.1524
16.4609
4.73987
4.22128
4.61786
5.40523
17.2118
18.2408
5.94657
4.74917
5.00103
6.5151
18.6565
21.0113
8.86837
5.50394
6.18847
14.1065
35.6608
31.8539
9.85681
6.46878
8.57795
13.9527
36.4977
40.2946
18.4549
10.5117
7.41057
8.25916
36.462
42.7043
16.6473
9.81327
11.9407
20.7984
45.6419
40.9357
8.98427
8.40309
10.7569
18.2335
47.6835
50.4994
22.9788
13.148
9.17683
9.4934
44.9133
52.9337
19.97
11.9949
14.7471
25.2936
56.0967
49.4344
10.7111
10.4172
13.4235
22.2943
58.2664
59.0365
29.6574
16.9205
11.8633
14.6783
48.8455
58.8703
26.8019
15.5476
10.8861
11.5281
51.5589
61.5676
23.6
14.1278
16.8196
29.4789
63.7695
56.3538
11.9378
11.7193
15.0607
25.2826
67.2836
68.902
31.3847
17.9985
12.6221
12.857
60.4486
72.1388
27.4416
16.5207
20.5673
36.1385
72.635
59.2874
17.2495
14.4423
19.0628
32.2323
72.0683
62.7986
14.138
13.6042
17.5614
28.9135
75.6952
75.5981
37.9157
21.8774
15.3953
18.3754
61.6165
74.7706
33.8124
19.7613
14.0921
14.2591
65.2726
78.5303
29.1371
17.8114
21.1823
36.7347
81.5308
71.4433
14.9484
15.1738
19.7233
31.9547
86.4719
86.8449
42.6346
24.575
17.5238
20.9201
67.3921
80.4092
39.3198
23.3022
16.9881
19.9271
66.2838
80.491
36.0032
21.5817
15.9543
15.7866
69.7522
85.2657
32.1304
20.083
24.4233
42.2264
85.4061
69.7929
20.7177
17.7306
22.5973
37.7171
84.676
73.0309
16.1157
16.7181
21.0748
33.0733
89.3817
89.4134
44.5008
25.8372
18.9098
22.3946
69.8341
83.2885
40.931
24.3178
18.2132
20.6293
67.3719
82.2447
36.9083
22.6717
17.3988
16.2974
71.2011
87.293
32.4148
21.106
25.4676
44.1573
88.7913
68.6106
21.5391
18.8904
23.7164
39.8337
82.2961
66.9813
20.0579
18.1659
22.1529
36.0899
82.2111
71.2897
16.0955
17.4286
20.6811
31.545
87.7088
87.9886
43.3164
25.0161
18.7058
21.2975
67.0349
80.6076
39.2567
23.4764
18.1208
19.8646
64.8075
79.2887
35.1694
21.6275
17.2468
15.1007
67.9628
84.0573
29.8367
20.1841
23.9913
41.1544
84.4412
64.1296
20.3293
18.5075
22.6399
37.9342
77.4777
60.3025
19.8686
17.9436
20.9416
35.7276
72.8691
58.2398
18.1289
17.0353
19.4096
31.6079
71.2984
61.1798
13.6725
16.4099
18.4276
26.5736
76.3894
77.918
36.9911
21.4093
16.9278
17.8475
59.5646
71.77
33.6524
20.0145
16.5479
17.6346
55.6385
67.559
32.3797
18.9616
15.9838
17.196
52.2432
62.6334
30.4511
18.0152
15.3301
15.5589
49.7212
60.2789
26.1198
17.1108
15.2304
11.6027
51.2478
63.0198
21.4648
15.6461
17.4783
30.4258
64.5271
48.812
14.9987
14.5463
16.5248
27.5578
58.2301
44.7692
14.5815
14.2945
15.8486
25.7176
54.09
41.4985
14.1218
14.026
15.1624
23.6263
49.3969
38.723
12.7566
13.7785
14.1631
20.1447
46.8777
39.4787
9.50384
13.5149
12.8288
16.348
48.5429
49.4402
22.845
14.1398
12.6196
11.8081
37.4106
45.0158
20.6811
13.6589
12.881
11.884
34.4047
41.2199
19.5992
13.5385
13.1614
11.8242
31.7066
37.2082
18.0061
13.3758
13.5763
11.4314
29.0853
33.9664
15.7202
13.2898
14.8719
9.87601
28.5763
33.7843
12.7966
12.5875
12.6256
16.2957
35.0657
27.2048
11.1151
13.5994
12.7366
15.5477
31.3447
24.7489
11.6097
14.3554
12.797
14.3936
28.0693
22.2841
11.8313
15.0202
12.7788
12.9342
24.6631
19.7245
12.1751
15.7345
12.4794
11.2303
20.9275
17.6814
10.4522
17.1354
11.6679
8.75676
19.3595
19.8899
10.4538
10.6396
14.1736
11.0117
16.6331
17.3482
9.98442
11.1049
15.7843
11.6411
14.9695
15.0703
9.58818
11.3559
16.7028
12.2033
13.5492
12.639
9.34016
11.611
17.5262
12.6403
11.6283
9.97991
8.79148
12.182
18.6652
11.497
9.26335
7.4492
6.43027
11.1553
8.30461
5.72568
7.16567
7.24933
9.96295
14.4847
8.68025
5.54794
5.68792
6.26401
10.6472
15.7654
9.41687
5.28825
4.52709
5.59548
11.9003
17.7558
11.1536
5.43352
3.62297
5.09077
13.8558
20.9615
14.3536
6.33603
2.81215
5.22636
18.4052
26.7856
20.489
9.90659
2.36204
1.18834
5.368
15.8944
23.8797
14.7082
2.52586
1.35877
12.7781
22.2864
20.2862
8.95101
0.878908
2.43555
16.5898
24.3752
16.8811
7.43116
0.762033
3.67115
16.3523
24.3571
22.508
13.201
2.85948
1.33622
4.44266
11.9292
21.0175
14.3833
4.37385
2.80614
6.39578
12.8491
22.8315
16.1847
6.72431
5.34875
8.08206
14.3665
22.3451
16.2371
8.70854
7.89523
9.35577
14.2729
21.0162
14.7437
10.14
10.4084
12.2772
18.6336
10.099
7.37135
10.1825
11.7733
11.8637
16.6174
10.8842
8.74118
12.6625
13.5868
12.3751
17.0422
11.551
9.86067
15.4526
15.2778
12.4443
17.6204
15.0484
11.5775
16.9468
19.8166
10.2494
10.5065
14.178
11.9224
18.142
22.1251
11.2757
11.2027
14.6117
12.1389
19.8546
24.4775
12.0408
11.7123
15.5069
12.4999
21.4711
24.7491
12.1271
13.3645
11.8143
15.2382
30.4225
25.2708
11.2232
12.871
11.7591
15.6231
32.2029
26.4797
11.1123
12.9211
11.8318
15.2956
33.7152
27.6617
12.7534
13.2583
11.9809
12.7969
32.1908
40.698
20.4278
12.7583
11.9871
11.9456
32.5501
41.801
18.8362
12.1616
12.5749
13.0653
33.2831
38.9097
13.4871
11.6184
13.5973
25.1854
50.3555
39.2751
12.919
12.2855
13.0761
22.1151
50.2268
38.7503
13.724
12.8232
12.0489
14.6674
45.1665
57.8639
29.2395
14.9865
13.1666
13.9978
44.8241
58.3002
25.8405
14.6014
13.8489
15.1483
44.8394
51.9754
16.4684
13.1525
17.085
33.4552
65.9764
50.5291
15.729
14.3746
16.2785
28.8656
65.067
50.1232
16.5736
14.9293
14.1098
17.5402
57.1178
71.0507
35.7339
18.2028
15.2053
18.3184
55.2037
62.9641
18.811
14.6368
19.6705
39.4008
80.2629
61.7703
19.2747
15.6458
15.0167
20.1118
69.8797
86.696
42.5858
21.0149
16.0074
20.4436
66.1899
74.315
20.2683
15.4238
22.5595
46.4678
94.716
71.7287
21.3192
16.4908
15.8592
22.1368
80.5908
99.1342
48.6079
23.6762
16.745
21.9277
74.3514
83.7551
22.7784
16.1339
24.8843
51.9209
105.637
78.5434
23.2241
17.1033
16.4687
23.0971
86.9758
108.189
52.6032
25.2482
17.0251
23.0691
79.5785
88.946
27.3778
16.7629
16.5225
27.5054
99.4499
124.444
60.464
28.1324
17.7241
24.9519
88.587
100.882
26.5537
16.8784
16.4049
29.0147
111.001
125.447
35.9871
16.8345
15.9281
32.1795
132.725
143.74
39.655
16.7143
15.3551
31.4626
141.422
156.622
74.8462
31.4955
16.7218
26.5692
99.6795
106.546
27.7724
16.049
15.643
30.7506
112.365
112.209
32.2128
15.25
14.8906
33.6477
110.619
106.919
34.7229
14.6496
14.4937
36.0153
101.235
94.6655
36.9147
14.5036
14.5736
38.0996
87.9146
80.8698
39.0148
14.7369
15.0657
40.196
74.529
67.968
41.0991
15.4503
15.9673
42.2874
62.4581
58.2559
43.2387
16.5786
17.2674
44.2521
54.8609
51.9607
44.9447
18.1333
19.2268
45.4654
49.3961
47.0647
45.7723
20.4003
21.7198
45.9669
44.9138
42.9133
46.1511
23.0017
24.3243
46.3427
41.0506
39.3112
46.5219
25.6164
26.9374
46.7116
37.6932
36.1891
46.8954
28.1212
29.337
47.0801
34.7972
33.5131
47.2524
30.4123
31.5078
47.4108
32.3352
31.2608
47.5553
32.459
33.4351
47.6952
30.2893
29.4179
47.808
34.2524
35.0811
47.934
28.6491
27.9746
48.0317
35.7698
36.4526
48.137
27.3999
26.9159
48.2304
37.0063
37.5565
48.3048
26.5183
26.2011
48.3582
37.9774
38.3931
48.4047
25.9585
25.7771
48.3982
38.6938
38.9768
48.3672
25.6494
25.5651
48.3037
39.1699
39.3326
48.1782
25.5168
25.5084
48.0418
39.4221
39.4896
47.8532
25.5236
25.5774
47.6045
39.4873
39.4755
47.3162
25.6535
25.7409
46.9838
39.4112
39.3428
46.6365
25.8152
25.897
46.2681
39.2072
39.0916
45.9088
25.9679
26.0477
45.5398
38.9181
38.7647
45.1876
26.1196
26.2022
44.84
38.5632
38.3833
44.51
26.2773
26.3639
44.1855
38.1559
37.9506
43.8761
26.444
26.5394
43.5934
37.7099
37.4989
43.3355
26.6324
26.7425
43.1118
37.2696
37.0685
42.9149
26.8544
26.982
42.7502
36.8635
36.686
42.6077
27.1109
27.2536
42.4939
36.5142
36.3704
42.3995
27.3974
27.552
42.3309
36.2403
36.1385
42.2804
27.7066
27.8696
42.2526
36.053
35.992
42.2408
28.0329
28.2016
42.2408
35.9485
35.9285
42.2497
28.3719
28.5469
42.2766
35.924
35.9384
42.3465
28.7256
28.9055
42.4044
35.9672
36.0538
42.5077
29.0876
29.2706
42.5857
36.1065
36.2307
42.7102
29.456
29.6423
42.8105
36.3048
36.4675
42.9557
29.8301
30.0192
43.0752
36.565
36.7479
43.2347
30.2095
30.4013
43.3706
36.8664
37.0678
43.5439
30.5937
30.7877
43.6913
37.2017
37.4161
43.876
30.9829
31.1798
44.0332
37.562
37.7864
44.2249
31.3764
31.5759
44.3906
37.9426
38.1699
44.5834
31.7746
31.9768
44.7574
38.3349
38.5653
44.9531
32.1774
32.382
45.1317
38.7375
38.9673
45.3299
32.585
32.7917
45.5106
39.1476
39.3758
45.7101
32.9965
33.205
45.8899
39.5438
39.7583
46.0864
33.4119
33.6222
46.2621
39.9161
40.1216
46.4537
33.8305
34.0422
46.6261
40.2728
40.4713
46.8125
34.2522
34.4663
46.9838
40.6202
40.8149
47.1657
34.6772
34.8928
47.3358
40.9618
41.1541
47.515
35.1051
35.3222
47.6865
41.3022
41.4945
47.8648
35.5344
35.7513
48.0382
41.6443
41.8381
48.2173
35.9631
36.1795
48.3939
41.9917
42.1895
48.5766
36.3896
36.6043
48.7576
42.3479
42.5519
48.9458
36.813
37.0268
49.1339
42.7183
42.9316
49.328
37.2332
37.4458
49.5237
43.1086
43.3228
49.7192
37.6507
37.8627
49.9218
43.5106
43.7328
50.1204
38.0662
38.2782
50.3272
43.9269
44.1464
50.5241
38.4816
38.6939
50.7353
44.3467
44.5654
50.9311
38.8971
39.1096
51.1425
44.7675
44.9843
51.3369
39.3134
39.5265
51.5478
45.1864
45.3983
51.7396
39.7299
39.9429
51.9487
45.5971
45.8011
52.1364
40.1459
40.3589
52.3428
45.9945
46.1919
52.5262
40.5606
40.7729
52.7302
46.3776
46.5587
52.9055
40.9732
41.1843
53.1067
46.7386
46.9123
53.2771
41.3826
41.5921
53.474
47.0819
47.237
53.6355
41.7886
41.9961
53.8291
47.4001
47.5439
53.9851
42.1905
42.3957
54.174
47.6971
47.8289
54.3254
42.5884
42.7917
54.5106
47.974
48.0944
54.6581
42.982
43.1829
54.8417
48.2335
48.3441
54.9859
43.371
43.5697
55.168
48.4783
48.5844
55.3102
43.7547
43.9506
55.4917
48.7147
48.8088
55.6278
44.1323
44.3248
55.8078
48.935
49.0255
55.9401
44.5025
44.6915
56.1164
49.1434
49.2233
56.2416
44.8656
45.0505
56.4142
49.334
49.4064
56.5348
45.2207
45.4019
56.7034
49.5106
49.5701
56.8184
45.569
45.7463
56.9835
49.6671
49.72
57.0963
45.9097
46.083
57.2573
49.8111
49.8608
57.3684
46.243
46.4126
57.5258
49.9448
49.9947
57.6352
46.5686
46.7343
57.7919
50.0774
50.1177
57.8951
46.8866
47.0482
58.05
50.1981
50.2345
58.1514
47.1971
47.3545
58.3012
50.3074
50.3406
58.4017
47.5
47.6535
58.5484
50.4041
50.4401
58.6494
47.7956
47.945
58.7943
50.4991
50.5294
58.8926
48.0835
48.2285
59.0373
50.5919
50.6214
59.1362
48.3636
48.5038
59.2771
50.6814
50.7103
59.3773
48.6354
48.7712
59.5151
50.7694
50.7976
59.6184
48.8995
49.03
59.749
50.8546
50.8824
59.8575
49.1545
49.2806
59.98
50.9391
50.9645
60.0989
49.4007
49.5233
60.2253
51.0183
51.0452
60.3295
49.6378
49.7563
60.4484
51.101
51.1333
60.5424
49.864
49.9784
60.6798
51.1824
51.2097
60.7702
50.0815
50.1913
60.9071
51.2597
51.2922
60.9978
50.2896
50.3943
61.1327
51.34
51.3676
61.2213
50.4872
50.5866
61.3562
51.4172
51.4501
61.4455
50.6743
50.7684
61.578
51.4984
51.5261
61.6652
50.8507
50.9395
61.7978
51.5768
51.6109
61.8863
51.017
51.1006
62.0167
51.6609
51.6902
62.1024
51.1728
51.2512
62.2328
51.7428
51.7785
62.3198
51.3188
51.3923
62.4485
51.8311
51.8627
62.5322
51.4548
51.5232
62.6607
51.9179
51.9555
62.7456
51.5809
51.6447
62.8737
52.011
52.0449
62.9554
51.6974
51.7557
63.0831
52.1036
52.1433
63.1655
51.8032
51.8567
63.2935
52.2026
52.2375
63.3732
51.8994
51.9478
63.501
52.3027
52.3428
63.581
51.9852
52.0285
63.7092
52.4088
52.4508
63.7893
52.0612
52.0999
63.916
52.516
52.5622
63.9936
52.1271
52.1606
64.1221
52.633
52.6748
64.1976
52.1831
52.2121
64.3272
52.7526
52.7997
64.4012
52.2295
52.2534
64.5299
52.879
52.9255
64.6034
52.2662
52.2864
64.7313
53.0056
53.0547
64.802
52.2948
52.3099
64.9301
53.1418
53.1879
65.0001
52.3145
52.3252
65.1269
53.2763
53.329
65.1975
52.3271
52.332
65.3192
53.4142
53.4725
65.3913
52.3314
52.3315
65.5108
53.5552
53.6205
65.5826
52.3287
52.3251
65.7014
53.7073
53.7695
65.7705
52.3171
52.3118
65.8895
53.8606
53.9302
65.9591
52.3
52.2922
66.0768
54.0234
54.0882
66.142
52.2761
52.2662
66.2589
54.1857
54.2552
66.3242
52.2472
52.2345
66.4371
54.3506
54.4232
66.5015
52.2124
52.1973
66.6107
54.516
54.5943
66.674
52.1728
52.1555
66.7808
54.6865
54.7602
66.8396
52.1284
52.1088
66.9454
54.8597
54.9298
67.0008
52.0806
52.0586
67.1003
55.0277
55.0997
67.1553
52.0288
52.0049
67.2477
55.1941
55.268
67.3005
51.9744
51.9487
67.3847
55.3551
55.4307
67.4365
51.917
51.8905
67.5125
55.5091
55.5846
67.5601
51.8584
51.8306
67.632
55.663
55.7339
67.6763
51.7979
51.7698
67.7402
55.8057
55.8785
67.7802
51.7371
51.7087
67.8391
55.9501
56.0139
67.8737
51.6762
51.6482
67.9269
56.0835
56.1486
67.9588
51.617
51.5897
68.0045
56.2102
56.2651
68.0312
51.5595
51.5333
68.072
56.3246
56.3823
68.0972
51.5049
51.4798
68.1331
56.4367
56.4875
68.1538
51.4521
51.4274
68.1854
56.5422
56.5981
68.2054
51.4008
51.3768
68.2323
56.6495
56.6984
68.2469
51.3506
51.327
68.2698
56.7494
56.8024
68.2842
51.3026
51.2806
68.3026
56.8477
56.8915
68.3106
51.2582
51.238
68.3248
56.9349
56.9804
68.3315
51.2187
51.2018
68.3411
57.0177
57.0549
68.3433
51.186
51.1722
68.3486
57.0903
57.1329
68.3504
51.1603
51.1507
68.3516
57.1628
57.2013
68.3503
51.1434
51.1379
68.3487
57.2291
57.2743
68.3454
51.1351
51.1348
68.3417
57.2971
57.3332
68.3333
51.1375
51.1425
68.3288
57.3565
57.3916
68.3177
51.1502
51.1602
68.3111
57.4076
57.4409
68.2969
51.1725
51.1869
68.2872
57.4516
57.487
68.2734
51.2036
51.222
68.2612
57.4911
57.5247
68.2427
51.241
51.2617
68.2299
57.5285
57.5599
68.2068
51.2825
51.3048
68.1938
57.5698
57.5932
68.1675
51.3269
51.3506
68.1508
57.596
57.6238
68.1214
51.3731
51.398
68.1047
57.6267
57.6431
68.0703
51.4218
51.4479
68.0532
57.6477
57.6588
68.0172
51.4733
51.5013
67.9993
57.6618
57.6698
67.9615
51.5282
51.5581
67.9431
57.6716
57.6776
67.9042
51.5867
51.6183
67.885
57.6786
57.6824
67.8442
51.6482
51.6814
67.8239
57.6816
57.6817
67.7807
51.7123
51.7466
67.7589
57.6792
57.6771
67.7125
51.7781
51.813
67.6891
57.6706
57.6663
67.64
51.8449
51.8799
67.6151
57.6557
57.6495
67.5632
51.9116
51.9464
67.537
57.6351
57.6265
67.4832
51.9778
52.0125
67.4554
57.6073
57.596
67.3998
52.0436
52.0782
67.3711
57.5698
57.5574
67.3141
52.109
52.1437
67.2857
57.5303
57.5154
67.2283
52.1741
52.2086
67.2006
57.4838
57.4662
67.1436
52.2385
52.2725
67.1163
57.4361
57.4132
67.0604
52.3017
52.3348
67.0343
57.3828
57.3623
66.9811
52.363
52.3948
66.9561
57.3346
57.3184
66.9055
52.4217
52.4517
66.8808
57.2932
57.2807
66.8326
52.477
52.505
66.8067
57.2556
57.2431
66.7606
52.5286
52.5544
66.7332
57.2171
57.2032
66.6893
52.5763
52.5999
66.6603
57.1742
57.1585
66.6189
52.6201
52.6417
66.5883
57.1242
57.1116
66.5508
52.6598
52.6796
66.522
57.0708
57.054
66.4854
52.6955
52.7127
66.4606
57.0202
57.0113
66.4296
52.7259
52.7411
66.4093
56.9835
56.9733
66.379
52.7518
52.7643
66.3621
56.9522
56.9514
66.3363
52.7722
52.7828
66.323
56.9331
56.9269
66.2965
52.7881
52.7961
66.2855
56.9134
56.9137
66.2634
52.7991
52.8052
66.2534
56.8999
56.8925
66.232
52.8065
52.8101
66.224
56.8832
56.876
66.2062
52.8101
52.8118
66.2001
56.8677
56.8614
66.1865
52.811
52.8111
66.1826
56.8562
56.8563
66.1749
52.8098
52.8088
66.1735
56.8558
56.8567
66.1693
52.807
52.8046
66.1711
56.861
56.8572
66.1763
52.8029
52.8001
66.1689
56.8715
56.8828
66.1704
52.7968
52.7948
66.1739
56.8818
56.899
66.1802
52.7925
52.7914
66.1882
56.9017
56.9163
66.1946
52.7906
52.7913
66.2049
56.9221
56.9426
66.217
52.7926
52.7966
66.2306
56.9501
56.9665
66.2429
52.7997
52.8072
66.2598
56.9801
57.0025
66.2769
52.8129
52.8246
66.2973
57.0196
57.0374
66.3135
52.8333
52.8493
66.3372
57.0617
57.0851
66.3574
52.8617
52.8827
66.3837
57.1117
57.1294
66.4027
52.8991
52.9261
66.4322
57.16
57.1763
66.453
52.9474
52.9816
66.4841
57.2097
57.226
66.5081
53.0091
53.0518
66.5403
57.2592
57.2754
66.5679
53.0871
53.1399
66.602
57.3099
57.3238
66.6324
53.1841
53.2502
66.6648
57.3646
57.3756
66.7013
53.3009
53.3959
66.7243
57.4109
57.4307
66.7673
53.4585
53.5742
66.8194
57.4721
57.5105
66.8153
53.6217
53.7403
66.8107
57.48
57.4179
66.7059
53.993
54.3829
66.56
57.0437
56.6525
66.7016
54.3897
45.0092
18.3932
6.56899
3.48228
2.07884
1.03734
1.02598
1.01952
0.986503
0.973869
0.972745
0.989043
1.00303
1.01445
1.02595
1.0368
1.0473
1.05764
1.06687
1.07398
1.07804
1.07993
1.08045
1.08072
1.08172
1.08347
1.08518
1.08607
1.0857
1.08413
1.08172
1.07892
1.076
1.07301
1.06986
1.06645
1.06262
1.05847
1.05394
1.04924
1.0445
1.03982
1.03566
1.03211
1.02943
1.02774
1.02703
1.02712
1.02807
1.0298
1.03256
1.03669
1.04222
1.04824
1.05267
1.05518
1.05654
1.05985
1.06089
1.06393
1.06576
1.06876
1.07088
1.07319
1.0749
1.07657
1.07791
1.07867
1.07925
1.07964
1.08015
1.08083
1.08184
1.0831
1.08431
1.08531
1.08655
1.08818
1.08959
1.09113
1.09303
1.09458
1.09613
1.09742
1.09844
1.09905
1.09958
1.09999
1.10062
1.10131
1.10228
1.10348
1.10485
1.10634
1.10793
1.10975
1.11214
1.11524
1.11891
1.12307
1.12779
1.13318
1.13929
1.1461
1.15366
1.16178
1.17028
1.17913
1.18822
1.19755
1.20689
1.21604
1.22511
1.23389
1.24246
1.25071
1.25846
1.26573
1.27254
1.27895
1.28497
1.2905
1.29549
1.3001
1.30458
1.3091
1.31349
1.31754
1.32131
1.32487
1.3283
1.33176
1.33555
1.33982
1.34452
1.34958
1.35494
1.36064
1.36687
1.3738
1.3813
1.38921
1.39733
1.4055
1.41371
1.42211
1.43078
1.43978
1.44903
1.45825
1.46723
1.47592
1.48427
1.49211
1.49933
1.50588
1.51181
1.51724
1.5222
1.52671
1.53083
1.53459
1.53795
1.54064
1.54222
1.54297
1.54348
1.54394
1.54444
1.54506
1.54589
1.54689
1.54745
1.54773
1.54796
1.54822
1.54862
1.54933
1.54996
1.55022
1.55031
1.5504
1.55061
1.55069
1.5505
1.54968
1.54848
1.54744
1.54643
1.5448
1.54282
1.54108
1.53894
1.53629
1.53389
1.5305
1.52562
1.52044
1.51487
1.50893
1.50307
1.49662
1.48995
1.48263
1.47452
1.46561
1.45643
1.44664
1.43585
1.42366
1.41057
1.39714
1.38872
1.38661
1.3866
1.38928
1.39894
1.4232
1.47325
1.56575
1.72603
1.99149
2.41315
3.04784
3.93406
5.05545
6.3646
7.8614
9.55032
11.4502
13.5886
15.8971
18.1942
20.3057
22.2181
23.9609
25.5525
27.0091
28.3347
29.5135
30.5236
31.3582
32.025
32.4272
32.5781
32.6139
32.5884
32.4271
32.107
31.6278
30.9866
30.1873
29.2393
28.1563
26.9521
25.6757
24.4309
23.6017
23.3647
23.4749
24.3167
26.2483
29.3984
33.6496
38.6634
44.0563
49.5404
54.9393
60.1549
65.1347
69.851
74.2866
78.4265
82.2521
85.7368
88.8443
91.5279
93.7312
95.3893
96.3475
96.6116
96.1961
94.9825
92.9521
90.1096
86.4895
82.1573
77.2104
71.7682
65.9749
59.9711
53.9454
47.9967
42.314
36.8412
31.3615
31.5062
31.9523
32.7644
33.6423
34.4141
35.008
35.4381
35.7404
35.949
36.0818
36.1427
36.1315
36.0503
35.9073
35.7148
35.4866
35.2361
34.9759
34.7186
34.4775
34.2656
34.0951
33.9731
33.8965
33.8464
33.791
33.6984
33.5511
33.3519
33.1216
32.893
32.7029
32.5861
32.5678
32.6627
32.8756
33.1812
33.5402
33.9124
34.2679
34.5904
34.874
35.1187
35.3273
35.5029
35.6486
35.7671
35.8606
35.931
35.9796
36.0069
36.0137
36.0021
35.9738
35.9305
35.874
35.8076
35.7361
35.6656
35.602
35.5506
35.5169
35.505
35.517
35.5564
35.6295
35.756
35.9776
36.3256
36.744
37.1421
37.4756
37.7128
37.8314
37.8193
37.6707
37.388
36.9793
36.4632
35.8661
35.2209
34.5638
33.9313
33.3578
32.8691
32.4785
32.1892
31.9964
31.8874
31.8402
31.8223
31.7885
31.6748
31.3963
30.8314
29.8382
28.3032
26.2908
23.884
23.179
21.7553
19.6969
22.2418
24.3845
26.2884
28.0724
29.8364
31.6967
33.5976
35.5845
37.4802
39.3328
40.9372
42.3927
43.5061
44.4259
44.9695
45.3142
45.3084
45.1421
44.5252
43.7667
42.5812
41.3221
39.6581
38.0239
36.0382
34.1803
31.9858
29.9744
27.5942
25.4028
22.8145
20.4622
17.8149
15.5613
13.2402
11.4871
9.9118
8.92126
8.13792
7.75602
7.48393
7.43542
7.43651
7.62935
7.88119
8.35143
8.6032
9.02084
9.21673
9.56762
9.70572
9.985
10.0675
10.2621
10.2995
10.4096
10.4116
10.4527
10.4214
10.4146
10.3075
10.2421
10.0339
9.90417
9.56309
9.29014
8.71413
8.17027
7.28967
6.3548
5.27553
4.2845
3.35327
2.61651
2.06031
1.69152
1.4599
1.32592
1.25238
1.21262
1.19089
1.17526
1.16656
1.15588
1.14879
1.13863
1.12944
1.11862
1.10712
1.09585
1.08205
1.0702
1.05407
1.04186
1.02412
1.01169
0.992281
0.979545
0.958441
0.945545
0.923351
0.910288
0.886907
0.873317
0.84844
0.834597
0.809234
0.795194
0.769717
0.755021
0.729797
0.713173
0.687653
0.665973
0.635043
0.606045
0.583862
0.557995
0.541096
0.513096
0.498866
0.469641
0.45761
0.428773
0.42031
0.396853
0.389417
0.365693
0.35141
0.326798
0.311482
0.294529
0.282182
0.272748
0.269455
0.268317
0.268661
0.275056
0.281951
0.302134
0.318915
0.355946