/*--------------------------------*- C++ -*----------------------------------*\
| =========                 |                                                 |
| \\      /  F ield         | OpenFOAM: The Open Source CFD Toolbox           |
|  \\    /   O peration     | Version:  v2006                                 |
|   \\  /    A nd           | Website:  www.openfoam.com                      |
|    \\/     M anipulation  |                                                 |
\*---------------------------------------------------------------------------*/
FoamFile
{
    version     2.0;
    format      ascii;
    class       surfaceScalarField;
    location    "0.002";
    object      phi;
}
// * * * * * * * * * * * * * * * * * * * * * * * * * * * * * * * * * * * * * //

dimensions      [1 0 -1 0 0 0 0];
oriented        oriented;


internalField   nonuniform List<scalar> 
48460
(
-5.05803e-06
-0.000369422
0.000364667
8.8929e-06
-0.000346616
0.00034064
7.2811e-07
1.99666e-05
-6.8271e-06
0.000392727
6.09898e-06
0.000427207
-1.60782e-05
0.000429299
-3.50681e-06
0.000435362
-8.22789e-06
0.000425832
-1.96224e-06
0.000421807
-2.88636e-06
0.000415005
-1.83946e-06
0.000410691
-2.43867e-06
0.000406329
-2.61894e-06
0.000402551
-2.92394e-06
0.000398489
-3.19322e-06
0.000394137
-3.46607e-06
0.00038936
-3.74145e-06
0.000384111
-4.01807e-06
0.000378392
-4.29446e-06
0.000372209
-4.56868e-06
0.000365571
-4.83798e-06
0.000358496
-5.09849e-06
0.000351007
-5.34577e-06
0.000343135
-5.5759e-06
0.000334927
-5.78656e-06
0.00032644
-5.97741e-06
0.000317734
-6.14953e-06
0.000308866
-6.3044e-06
0.000299887
-6.4432e-06
0.000290835
-6.56667e-06
0.000281744
-6.67563e-06
0.00027264
-6.77126e-06
0.00026355
-6.85554e-06
0.000254501
-6.93191e-06
0.00024552
-7.00442e-06
0.000236631
-7.07576e-06
0.000227848
-7.14745e-06
0.000219187
-7.22262e-06
0.000210678
-7.30547e-06
0.00020235
-7.39778e-06
0.000194214
-7.49809e-06
0.000186265
-7.60338e-06
0.000178497
-7.71066e-06
0.00017091
-7.81787e-06
0.000163501
-7.92374e-06
0.000156273
-8.02762e-06
0.000149225
-8.12933e-06
0.000142357
-8.22872e-06
0.000135666
-8.32566e-06
0.000129148
-8.4198e-06
0.000122798
-8.51047e-06
0.000116612
-8.59689e-06
0.000110583
-8.67865e-06
0.000104707
-8.75522e-06
9.89823e-05
-8.82676e-06
9.34037e-05
-8.8933e-06
8.79658e-05
-8.95446e-06
8.26613e-05
-9.00966e-06
7.74834e-05
-9.05835e-06
7.24263e-05
-9.10022e-06
6.74878e-05
-9.13559e-06
6.26692e-05
-9.16481e-06
5.79728e-05
-9.1883e-06
5.34012e-05
-9.20669e-06
4.89632e-05
-9.21994e-06
4.46634e-05
-9.22503e-06
4.05049e-05
-9.21407e-06
3.64912e-05
-9.17073e-06
3.26277e-05
-9.06632e-06
2.89395e-05
-8.87253e-06
2.54644e-05
-8.58524e-06
2.22064e-05
-8.21793e-06
1.91617e-05
-7.78904e-06
1.63272e-05
-7.3116e-06
1.37111e-05
-6.78589e-06
1.1326e-05
-6.22961e-06
9.16078e-06
-5.67174e-06
7.21019e-06
-5.12503e-06
5.48638e-06
-4.59764e-06
3.9972e-06
-4.09963e-06
2.75031e-06
-3.63938e-06
1.74652e-06
-3.22264e-06
9.80071e-07
-2.85227e-06
4.42005e-07
-2.5282e-06
1.23541e-07
-2.24739e-06
1.91556e-08
-2.00551e-06
1.25867e-07
-1.79771e-06
4.35509e-07
-1.62045e-06
9.3098e-07
-1.47041e-06
1.58707e-06
-1.34381e-06
2.37008e-06
-1.23774e-06
3.23818e-06
-1.14968e-06
4.14053e-06
-1.08616e-06
5.02432e-06
-1.03805e-06
5.84758e-06
-1.0849e-06
6.56964e-06
-1.14026e-06
7.19773e-06
-1.5036e-06
7.66912e-06
-1.91493e-06
8.14328e-06
-3.17121e-06
8.70206e-06
-6.85887e-06
1.10537e-05
-1.33231e-06
2.20491e-06
3.56768e-07
4.48982e-06
-3.91559e-07
6.47874e-06
-4.79366e-07
5.53353e-06
-7.30329e-07
4.72862e-06
-4.83425e-07
4.35444e-06
-4.48985e-07
1.41592e-06
-3.39362e-07
9.34632e-07
-3.67617e-07
5.53594e-07
-9.03034e-07
7.22936e-07
7.87056e-07
1.41328e-06
7.5104e-07
-7.20841e-07
1.35969e-06
8.14212e-07
-4.75749e-07
5.74754e-07
-1.3518e-06
5.25122e-07
-1.83377e-06
8.25939e-07
3.25584e-07
1.25778e-06
9.89657e-07
-7.69867e-07
1.15129e-06
9.60144e-07
-4.57799e-07
8.23272e-08
-2.23561e-06
5.28284e-07
-2.68855e-06
8.49528e-07
-1.48182e-07
1.03758e-06
1.07219e-06
-7.47624e-07
9.59866e-07
9.54631e-07
-4.34284e-07
-3.54586e-07
-3.03353e-06
4.44822e-07
-3.3754e-06
7.59273e-07
-5.45853e-07
8.71551e-07
9.95946e-07
-6.32409e-07
8.27865e-07
8.4216e-07
-3.35542e-07
-7.04307e-07
-3.59609e-06
3.24905e-07
-3.79578e-06
6.09915e-07
-8.37269e-07
7.69156e-07
8.50185e-07
-4.84762e-07
7.50112e-07
6.98105e-07
-2.3309e-07
-9.25658e-07
-3.89437e-06
1.92125e-07
-3.94293e-06
4.40986e-07
-1.00032e-06
7.23414e-07
6.74882e-07
-3.50481e-07
7.35459e-07
5.5628e-07
-1.36863e-07
-1.03068e-06
-3.92884e-06
1.30624e-07
-3.90169e-06
3.4113e-07
-1.04969e-06
7.49961e-07
5.54261e-07
-2.90535e-07
8.02998e-07
4.7366e-07
-1.0909e-07
-1.0324e-06
-3.84703e-06
1.26008e-07
-3.80446e-06
3.0673e-07
-1.00846e-06
8.62133e-07
4.90896e-07
-2.8534e-07
9.50034e-07
4.4699e-07
-1.22982e-07
-9.60897e-07
-3.75456e-06
1.49783e-07
-3.72813e-06
3.21002e-07
-9.18127e-07
1.0451e-06
4.80359e-07
-3.24164e-07
1.15463e-06
4.73216e-07
-1.60781e-07
-8.6404e-07
-3.70986e-06
1.96267e-07
-3.72504e-06
3.76028e-07
-8.23842e-07
1.27067e-06
5.21585e-07
-4.05628e-07
1.38588e-06
5.54755e-07
-2.20861e-07
-7.8633e-07
-3.7629e-06
2.72794e-07
-3.8511e-06
4.8321e-07
-7.72546e-07
1.50795e-06
6.27739e-07
-5.48916e-07
1.6158e-06
7.09392e-07
-3.20987e-07
-7.74806e-07
-3.98625e-06
3.94292e-07
-4.19376e-06
6.58378e-07
-8.12083e-07
1.73388e-06
8.09984e-07
-7.63047e-07
1.82693e-06
9.4108e-07
-4.66237e-07
-8.80815e-07
-4.4721e-06
5.54616e-07
-4.83827e-06
8.94409e-07
-9.91957e-07
1.93405e-06
1.05902e-06
-1.02645e-06
2.0109e-06
1.22146e-06
-6.44843e-07
-1.14474e-06
-5.29441e-06
7.36559e-07
-5.84224e-06
1.1604e-06
-1.33986e-06
2.11403e-06
1.32894e-06
-1.27587e-06
2.19177e-06
1.47062e-06
-8.16235e-07
-1.57012e-06
-6.46914e-06
8.65024e-07
-7.14437e-06
1.34314e-06
-1.81837e-06
2.31864e-06
1.48932e-06
-1.36237e-06
2.43185e-06
1.52228e-06
-8.81878e-07
-2.06889e-06
-7.83627e-06
8.27578e-07
-8.47405e-06
1.27328e-06
-2.28484e-06
2.61857e-06
1.35937e-06
-1.14314e-06
2.80527e-06
1.22871e-06
-7.48025e-07
-2.4506e-06
-9.03263e-06
6.17851e-07
-9.46141e-06
9.28985e-07
-2.53282e-06
3.09203e-06
9.13929e-07
-7.33139e-07
3.37946e-06
7.16375e-07
-4.93198e-07
-2.54469e-06
-9.76631e-06
3.51061e-07
-9.93035e-06
5.16712e-07
-2.4837e-06
3.77036e-06
3.94921e-07
-3.5744e-07
4.13467e-06
2.60519e-07
-2.33157e-07
-2.38297e-06
-9.97798e-06
9.99102e-08
-9.89359e-06
1.77625e-07
-2.23715e-06
4.58812e-06
-1.03264e-08
-4.83507e-08
4.9648e-06
-6.42464e-08
2.14759e-09
-2.06552e-06
-9.70819e-06
-1.03214e-07
-9.42319e-06
-1.05765e-07
-1.84235e-06
5.41295e-06
-2.91564e-07
1.92449e-07
5.76225e-06
-2.81726e-07
1.51652e-07
-1.58294e-06
-9.09147e-06
-1.96369e-07
-8.71688e-06
-2.91467e-07
-1.27142e-06
6.1889e-06
-4.60611e-07
3.17347e-07
6.5083e-06
-3.81713e-07
2.03484e-07
-9.43274e-07
-8.33692e-06
-2.20661e-07
-7.94152e-06
-3.59778e-07
-5.92094e-07
6.91257e-06
-5.11914e-07
3.37906e-07
7.19325e-06
-3.69792e-07
2.08787e-07
-2.53451e-07
-7.55992e-06
-2.10965e-07
-7.17777e-06
-3.3811e-07
8.1718e-08
7.55743e-06
-4.55419e-07
2.86618e-07
7.77987e-06
-2.63776e-07
1.79336e-07
3.95004e-07
-6.82826e-06
-1.62288e-07
-6.49748e-06
-2.57427e-07
6.94367e-07
8.09033e-06
-3.25206e-07
1.83947e-07
8.25502e-06
-1.08589e-07
1.13827e-07
9.6651e-07
-6.21713e-06
-8.80628e-08
-5.96445e-06
-1.33498e-07
1.21189e-06
8.5251e-06
-1.65807e-07
4.28259e-08
8.64588e-06
7.19178e-08
3.82901e-08
1.41444e-06
-5.76336e-06
-1.46987e-08
-5.58779e-06
6.65537e-09
1.58859e-06
8.87669e-06
9.13285e-09
-8.52699e-08
8.9477e-06
2.44903e-07
-2.73114e-08
1.72457e-06
-5.45582e-06
4.48694e-08
-5.34374e-06
1.23509e-07
1.83735e-06
9.13217e-06
1.67038e-07
-2.03163e-07
9.15333e-06
4.06895e-07
-8.48584e-08
1.90793e-06
-5.27385e-06
1.02586e-07
-5.22414e-06
2.40695e-07
1.95589e-06
9.28999e-06
3.25834e-07
-3.28767e-07
9.25889e-06
5.78024e-07
-1.47764e-07
1.95779e-06
-5.22231e-06
1.69038e-07
-5.24454e-06
3.69289e-07
1.93711e-06
9.34577e-06
4.96763e-07
-4.58008e-07
9.26252e-06
7.51647e-07
-2.1269e-07
1.86799e-06
-5.3132e-06
2.33123e-07
-5.40512e-06
4.94941e-07
1.77888e-06
9.30001e-06
6.63779e-07
-5.72711e-07
9.17164e-06
9.03166e-07
-2.74537e-07
1.64987e-06
-5.54128e-06
2.93881e-07
-5.7e-06
6.09664e-07
1.49917e-06
9.16496e-06
8.13624e-07
-6.93967e-07
8.99676e-06
1.05367e-06
-3.39346e-07
1.30492e-06
-5.90787e-06
3.54504e-07
-6.13492e-06
7.18305e-07
1.09638e-06
8.95736e-06
9.43092e-07
-7.74047e-07
8.77542e-06
1.13462e-06
-3.91053e-07
8.63082e-07
-6.40289e-06
3.88569e-07
-6.67326e-06
7.54094e-07
6.41066e-07
8.74067e-06
9.60021e-07
-7.48118e-07
8.58821e-06
1.06325e-06
-3.98538e-07
4.27968e-07
-6.95917e-06
3.65574e-07
-7.21824e-06
6.70816e-07
2.51541e-07
8.59847e-06
8.14056e-07
-6.31006e-07
8.49963e-06
8.74506e-07
-3.52489e-07
9.45415e-08
-7.46997e-06
3.04928e-07
-7.67942e-06
5.5103e-07
-3.69186e-08
8.55647e-06
6.30709e-07
-5.45354e-07
8.48316e-06
7.4729e-07
-2.8779e-07
-1.86239e-07
-7.87668e-06
2.42307e-07
-8.03472e-06
5.20245e-07
-3.63433e-07
8.53801e-06
5.84398e-07
-5.59296e-07
8.43008e-06
7.75847e-07
-2.2092e-07
-6.09723e-07
-8.17824e-06
1.67317e-07
-8.2753e-06
5.43014e-07
-9.01972e-07
8.41728e-06
6.53469e-07
-5.43311e-07
8.21468e-06
8.31751e-07
-1.391e-07
-1.23219e-06
-8.35221e-06
9.3769e-08
-8.39224e-06
4.69226e-07
-1.54344e-06
8.11072e-06
6.47136e-07
-3.96552e-07
7.84003e-06
7.30432e-07
-8.64071e-08
-1.79854e-06
-8.43284e-06
5.28052e-08
-8.44792e-06
2.8063e-07
-1.98074e-06
7.68488e-06
4.88221e-07
-2.24922e-07
7.40247e-06
5.47108e-07
-5.74493e-08
-2.11407e-06
-8.47744e-06
4.13779e-08
-8.49936e-06
1.67765e-07
-2.21636e-06
7.25858e-06
3.4029e-07
-1.70387e-07
7.01134e-06
4.35166e-07
-5.32367e-08
-2.31925e-06
-8.54136e-06
5.23192e-08
-8.58817e-06
1.59758e-07
-2.41944e-06
6.89215e-06
2.88168e-07
-1.79338e-07
6.65805e-06
4.14681e-07
-6.07144e-08
-2.53765e-06
-8.64897e-06
6.84901e-08
-8.72243e-06
1.92073e-07
-2.66678e-06
6.52716e-06
3.17415e-07
-2.08094e-07
6.27448e-06
4.49487e-07
-7.0095e-08
-2.81491e-06
-8.80114e-06
8.40601e-08
-8.89779e-06
2.31911e-07
-2.97806e-06
6.10864e-06
3.79548e-07
-2.35073e-07
5.82214e-06
4.96064e-07
-7.73588e-08
-3.15788e-06
-8.99345e-06
9.11236e-08
-9.10832e-06
2.57439e-07
-3.35259e-06
5.61909e-06
4.2875e-07
-2.58097e-07
5.30382e-06
5.41844e-07
-8.23478e-08
-3.55576e-06
-9.21337e-06
1.03622e-07
-9.33432e-06
2.93086e-07
-3.76649e-06
5.07107e-06
5.00607e-07
-2.83965e-07
4.73922e-06
5.93528e-07
-8.86449e-08
-3.98071e-06
-9.43843e-06
1.10915e-07
-9.56389e-06
3.1988e-07
-4.20739e-06
4.47806e-06
5.60291e-07
-3.03735e-07
4.1308e-06
6.34312e-07
-9.13854e-08
-4.43371e-06
-9.66665e-06
1.17593e-07
-9.79266e-06
3.43293e-07
-4.6698e-06
3.84724e-06
6.143e-07
-3.18036e-07
3.48949e-06
6.6716e-07
-9.19195e-08
-4.9032e-06
-9.89054e-06
1.20333e-07
-1.00134e-05
3.60599e-07
-5.14651e-06
3.1868e-06
6.59825e-07
-3.28295e-07
2.82369e-06
6.93881e-07
-9.11372e-08
-5.38156e-06
-1.01027e-05
1.22345e-07
-1.02196e-05
3.76452e-07
-5.62906e-06
2.50551e-06
7.02474e-07
-3.36589e-07
2.14e-06
7.15439e-07
-8.85762e-08
-5.86594e-06
-1.02991e-05
1.21437e-07
-1.04075e-05
3.85016e-07
-6.11368e-06
1.80799e-06
7.35989e-07
-3.38446e-07
1.44346e-06
7.2747e-07
-8.37657e-08
-6.34786e-06
-1.04744e-05
1.17214e-07
-1.05705e-05
3.87641e-07
-6.59265e-06
1.1002e-06
7.61473e-07
-3.30692e-07
7.4133e-07
7.27088e-07
-7.6681e-08
-6.81519e-06
-1.06212e-05
1.09371e-07
-1.06994e-05
3.89107e-07
-7.05704e-06
3.93009e-07
7.82601e-07
-3.16583e-07
4.49685e-08
7.17862e-07
-6.78134e-08
-7.26116e-06
-1.07305e-05
9.94906e-08
-1.0787e-05
3.85074e-07
-7.49451e-06
-3.0561e-07
7.97957e-07
-3.05156e-07
-6.40913e-07
7.13666e-07
-5.8078e-08
-7.68002e-06
-1.07943e-05
8.90392e-08
-1.08253e-05
3.78443e-07
-7.89901e-06
-9.90537e-07
8.11831e-07
-2.92813e-07
-1.30707e-06
7.04087e-07
-4.73456e-08
-8.06479e-06
-1.0807e-05
7.6125e-08
-1.08099e-05
3.6621e-07
-8.26594e-06
-1.65412e-06
8.19105e-07
-2.74357e-07
-1.9484e-06
6.85323e-07
-3.22246e-08
-8.40996e-06
-1.07613e-05
5.60401e-08
-1.07291e-05
3.42215e-07
-8.58911e-06
-2.29584e-06
8.16943e-07
-2.49759e-07
-2.56773e-06
6.59624e-07
-1.34358e-08
-8.70944e-06
-1.06469e-05
3.42451e-08
-1.05782e-05
3.13146e-07
-8.86336e-06
-2.90979e-06
8.03822e-07
-2.13597e-07
-3.15338e-06
6.1693e-07
1.14872e-08
-8.95407e-06
-1.04559e-05
8.52226e-09
-1.0345e-05
2.74844e-07
-9.07532e-06
-3.48257e-06
7.76634e-07
-1.63974e-07
-3.68246e-06
5.48492e-07
4.22625e-08
-9.12622e-06
-1.01748e-05
-1.47307e-08
-1.00262e-05
2.41847e-07
-9.22046e-06
-4.0119e-06
7.64295e-07
-7.24848e-08
-4.1534e-06
4.12485e-07
9.05121e-08
-9.21654e-06
-9.79821e-06
-2.24682e-08
-9.63548e-06
2.42263e-07
-9.31105e-06
-4.51489e-06
8.06155e-07
3.93761e-08
-4.5876e-06
2.42097e-07
1.4809e-07
-9.2442e-06
-9.34277e-06
-3.69827e-08
-9.15434e-06
2.24585e-07
-9.32202e-06
-4.95231e-06
8.07434e-07
1.22008e-07
-4.97317e-06
1.22005e-07
1.91691e-07
-9.20317e-06
-8.80702e-06
-8.44292e-08
-8.57265e-06
1.31555e-07
-9.23661e-06
-5.31515e-06
6.91144e-07
1.75218e-07
-5.34424e-06
7.6618e-08
2.22119e-07
-9.09863e-06
-8.19885e-06
-1.45551e-07
-7.89483e-06
-3.33911e-09
-9.0484e-06
-5.61889e-06
5.01182e-07
2.0136e-07
-5.66366e-06
7.46079e-08
2.32383e-07
-8.88353e-06
-7.50058e-06
-1.98571e-07
-7.14375e-06
-1.40665e-07
-8.75012e-06
-5.8541e-06
2.75389e-07
2.96905e-07
-5.83815e-06
-8.73871e-08
2.6403e-07
-8.52907e-06
-6.72502e-06
-2.37197e-07
-6.33549e-06
-2.54079e-07
-8.32733e-06
-5.96519e-06
9.22778e-08
3.51431e-07
-5.89347e-06
-1.98248e-07
2.76968e-07
-8.06329e-06
-5.90239e-06
-2.68813e-07
-5.47935e-06
-3.44584e-07
-7.80035e-06
-5.95172e-06
-6.50888e-08
3.79704e-07
-5.86797e-06
-2.45747e-07
2.83064e-07
-7.52085e-06
-5.04607e-06
-3.1069e-07
-4.58494e-06
-4.50636e-07
-7.19782e-06
-5.85783e-06
-2.42993e-07
4.24002e-07
-5.75841e-06
-3.089e-07
2.97165e-07
-6.89068e-06
-4.13957e-06
-3.46854e-07
-3.65562e-06
-5.51089e-07
-6.51943e-06
-5.7012e-06
-4.08726e-07
5.06633e-07
-5.58297e-06
-4.26546e-07
3.23071e-07
-6.17081e-06
-3.19733e-06
-3.6814e-07
-2.68759e-06
-6.3632e-07
-5.73086e-06
-5.46108e-06
-5.55018e-07
5.67621e-07
-5.28991e-06
-5.28844e-07
3.34147e-07
-5.31877e-06
-2.20573e-06
-3.85482e-07
-1.66933e-06
-7.12609e-07
-4.80862e-06
-5.09018e-06
-6.95932e-07
6.42982e-07
-4.85828e-06
-6.5785e-07
3.55829e-07
-4.33881e-06
-1.16314e-06
-4.00719e-07
-6.15681e-07
-7.82693e-07
-3.77876e-06
-4.59241e-06
-8.37733e-07
7.31029e-07
-4.29911e-06
-8.15584e-07
3.83686e-07
-3.25592e-06
-8.7507e-08
-4.21053e-07
4.76867e-07
-8.63689e-07
-2.63967e-06
-3.95062e-06
-1.00656e-06
8.16674e-07
-3.59607e-06
-9.70207e-07
4.12193e-07
-2.06646e-06
1.02766e-06
-4.45062e-07
1.60297e-06
-9.43501e-07
-1.41002e-06
-3.17989e-06
-1.17271e-06
9.06413e-07
-2.76551e-06
-1.14081e-06
4.40213e-07
-7.9221e-07
2.16807e-06
-4.80109e-07
2.76676e-06
-1.03877e-06
-8.97835e-08
-2.2686e-06
-1.36465e-06
9.98337e-07
-1.78473e-06
-1.31774e-06
4.63732e-07
5.83203e-07
3.34414e-06
-5.13169e-07
3.96512e-06
-1.12691e-06
1.328e-06
-1.20873e-06
-1.5468e-06
1.09068e-06
-6.63336e-07
-1.48567e-06
4.91633e-07
2.05366e-06
4.56105e-06
-5.40168e-07
5.19997e-06
-1.21374e-06
2.847e-06
-2.15587e-08
-1.7139e-06
1.16759e-06
5.87147e-07
-1.63867e-06
5.22557e-07
3.60722e-06
5.81728e-06
-5.62784e-07
6.46992e-06
-1.28041e-06
4.43395e-06
1.29249e-06
-1.85603e-06
1.2351e-06
1.94323e-06
-1.7651e-06
5.46027e-07
5.22432e-06
7.09931e-06
-5.75348e-07
7.75275e-06
-1.32601e-06
6.06987e-06
2.68806e-06
-1.95789e-06
1.27815e-06
3.35721e-06
-1.84126e-06
5.63333e-07
6.87369e-06
8.38934e-06
-5.81299e-07
9.04037e-06
-1.33825e-06
7.71525e-06
4.11007e-06
-1.99062e-06
1.30253e-06
4.76473e-06
-1.86181e-06
5.74572e-07
8.5235e-06
9.68114e-06
-5.74987e-07
1.03194e-05
-1.32229e-06
9.34759e-06
5.5062e-06
-1.97271e-06
1.2795e-06
6.1248e-06
-1.80853e-06
5.48311e-07
1.01546e-05
1.09305e-05
-5.65789e-07
1.15567e-05
-1.28696e-06
1.09486e-05
6.81841e-06
-1.89505e-06
1.25516e-06
7.38788e-06
-1.74093e-06
5.3696e-07
1.17374e-05
1.21519e-05
-5.43491e-07
1.27513e-05
-1.22001e-06
1.24818e-05
8.0197e-06
-1.77078e-06
1.21194e-06
8.5257e-06
-1.63962e-06
5.35525e-07
1.32238e-05
1.33409e-05
-5.14115e-07
1.39073e-05
-1.1368e-06
1.39102e-05
9.07621e-06
-1.61156e-06
1.17048e-06
9.51118e-06
-1.531e-06
5.28349e-07
1.46152e-05
1.44874e-05
-4.8808e-07
1.50274e-05
-1.05507e-06
1.52452e-05
9.99059e-06
-1.46014e-06
1.12287e-06
1.03631e-05
-1.42025e-06
5.20431e-07
1.59117e-05
1.56006e-05
-4.75187e-07
1.61306e-05
-9.97082e-07
1.65e-05
1.07705e-05
-1.32677e-06
1.05259e-06
1.10906e-05
-1.29225e-06
5.01339e-07
1.71202e-05
1.6689e-05
-4.45716e-07
1.71946e-05
-9.04699e-07
1.76514e-05
1.14627e-05
-1.19254e-06
9.35419e-07
1.17352e-05
-1.11841e-06
4.63776e-07
1.81994e-05
1.77218e-05
-4.03292e-07
1.81928e-05
-7.71999e-07
1.86496e-05
1.20459e-05
-9.86827e-07
7.80277e-07
1.2233e-05
-8.64007e-07
4.1271e-07
1.91049e-05
1.86782e-05
-3.45399e-07
1.91023e-05
-6.01328e-07
1.9456e-05
1.24301e-05
-6.85917e-07
5.76182e-07
1.24957e-05
-5.19032e-07
3.40874e-07
1.97944e-05
1.95284e-05
-2.56903e-07
1.98776e-05
-3.56705e-07
2.00064e-05
1.25604e-05
-2.87351e-07
2.72995e-07
1.2475e-05
-4.14772e-08
2.23623e-07
2.01781e-05
2.02017e-05
-1.22348e-07
2.0432e-05
-2.3858e-08
2.02114e-05
1.23756e-05
2.33566e-07
-6.65551e-08
1.21478e-05
4.66485e-07
8.23641e-08
2.02059e-05
2.06313e-05
2.44896e-08
2.07336e-05
3.13003e-07
2.00732e-05
1.19003e-05
7.47607e-07
-3.85445e-07
1.15197e-05
9.68995e-07
-6.35542e-08
1.99207e-05
2.08078e-05
1.67597e-07
2.079e-05
6.30171e-07
1.96424e-05
1.11105e-05
1.25945e-06
-7.03558e-07
1.05787e-05
1.47284e-06
-2.02963e-07
1.93409e-05
2.07491e-05
2.99039e-07
2.0625e-05
9.36994e-07
1.89173e-05
1.00069e-05
1.76359e-06
-1.00009e-06
9.33752e-06
1.9409e-06
-3.30981e-07
1.84771e-05
2.04811e-05
4.2577e-07
2.02557e-05
1.22402e-06
1.79232e-05
8.63085e-06
2.2199e-06
-1.27051e-06
7.85224e-06
2.35487e-06
-4.52019e-07
1.73635e-05
2.00166e-05
5.42699e-07
1.96984e-05
1.48247e-06
1.66959e-05
7.02417e-06
2.63168e-06
-1.50735e-06
6.15495e-06
2.71513e-06
-5.598e-07
1.6035e-05
1.93756e-05
6.40951e-07
1.8984e-05
1.69687e-06
1.52805e-05
5.23799e-06
2.96979e-06
-1.68859e-06
4.32376e-06
2.9758e-06
-6.4401e-07
1.45513e-05
1.8601e-05
7.09701e-07
1.81638e-05
1.84122e-06
1.37491e-05
3.3647e-06
3.19004e-06
-1.78721e-06
2.45197e-06
3.10574e-06
-6.93991e-07
1.29985e-05
1.77531e-05
7.45022e-07
1.73015e-05
1.9032e-06
1.21955e-05
1.49752e-06
3.27873e-06
-1.80266e-06
6.2038e-07
3.11497e-06
-7.09823e-07
1.14692e-05
1.68947e-05
7.53703e-07
1.64522e-05
1.90149e-06
1.06991e-05
-2.85645e-07
3.25617e-06
-1.75e-06
-1.11905e-06
3.04716e-06
-6.94727e-07
1.00345e-05
1.60795e-05
7.32599e-07
1.56769e-05
1.83796e-06
9.32946e-06
-1.97269e-06
3.16692e-06
-1.66456e-06
-2.71058e-06
2.88873e-06
-6.61064e-07
8.73543e-06
1.53532e-05
6.81147e-07
1.50163e-05
1.71201e-06
8.12222e-06
-3.49192e-06
2.98938e-06
-1.5279e-06
-4.11108e-06
2.65187e-06
-6.02915e-07
7.62228e-06
1.47637e-05
6.10196e-07
1.4509e-05
1.54554e-06
7.11834e-06
-4.7982e-06
2.74504e-06
-1.36315e-06
-5.28918e-06
2.37236e-06
-5.31595e-07
6.72353e-06
1.43374e-05
5.31881e-07
1.41689e-05
1.36435e-06
6.33205e-06
-5.87841e-06
2.47792e-06
-1.183e-06
-6.24363e-06
2.07512e-06
-4.55189e-07
6.04825e-06
1.40797e-05
4.56426e-07
1.39908e-05
1.1837e-06
5.7669e-06
-6.72315e-06
2.19352e-06
-1.01007e-06
-6.97525e-06
1.79234e-06
-3.82876e-07
5.58637e-06
1.39761e-05
3.8452e-07
1.39594e-05
1.01206e-06
5.40521e-06
-7.3557e-06
1.92347e-06
-8.41915e-07
-7.50721e-06
1.52154e-06
-3.11894e-07
5.32004e-06
1.40141e-05
3.13129e-07
1.40652e-05
8.45657e-07
5.22964e-06
-7.80005e-06
1.66451e-06
-6.76853e-07
-7.86702e-06
1.26427e-06
-2.39813e-07
5.23095e-06
1.41866e-05
2.40704e-07
1.43029e-05
6.82357e-07
5.22274e-06
-8.08679e-06
1.41781e-06
-5.21244e-07
-8.09141e-06
1.03315e-06
-1.69744e-07
5.2985e-06
1.44852e-05
1.71783e-07
1.46595e-05
5.32714e-07
5.35769e-06
-8.25861e-06
1.19977e-06
-3.83214e-07
-8.22165e-06
8.35578e-07
-1.03123e-07
5.48974e-06
1.4896e-05
1.03128e-07
1.51251e-05
3.95885e-07
5.60012e-06
-8.35537e-06
1.00933e-06
-2.42863e-07
-8.28759e-06
6.42722e-07
-3.42772e-08
5.78495e-06
1.54149e-05
4.19217e-08
1.56886e-05
2.64611e-07
5.94537e-06
-8.39231e-06
8.24754e-07
-1.2513e-07
-8.30926e-06
4.83949e-07
2.46793e-08
6.16731e-06
1.60194e-05
-1.7714e-08
1.63328e-05
1.50006e-07
6.3587e-06
-8.4037e-06
6.71335e-07
-1.63236e-08
-8.30616e-06
3.29502e-07
8.13859e-08
6.60666e-06
1.66989e-05
-7.7082e-08
1.70489e-05
5.2233e-08
6.80876e-06
-8.37276e-06
5.12711e-07
8.66148e-08
-8.24604e-06
1.62209e-07
1.40854e-07
7.07076e-06
1.74502e-05
-1.36714e-07
1.78343e-05
-5.75292e-08
7.29212e-06
-8.27606e-06
3.29499e-07
1.92854e-07
-8.10421e-06
-2.71287e-08
1.95522e-07
7.57389e-06
1.82642e-05
-1.91985e-07
1.86767e-05
-1.73917e-07
7.82355e-06
-8.10105e-06
1.40726e-07
3.03509e-07
-7.8872e-06
-2.19912e-07
2.45507e-07
8.13228e-06
1.91288e-05
-2.37414e-07
1.95599e-05
-2.77927e-07
8.40762e-06
-7.83684e-06
-4.98083e-08
3.99835e-07
-7.60047e-06
-3.77953e-07
2.84527e-07
8.74108e-06
2.00245e-05
-2.71377e-07
2.04624e-05
-3.56745e-07
9.02781e-06
-7.52552e-06
-1.93381e-07
4.65814e-07
-7.27562e-06
-4.98272e-07
3.15831e-07
9.36181e-06
2.09307e-05
-3.01164e-07
2.13693e-05
-3.93451e-07
9.61989e-06
-7.19966e-06
-2.73668e-07
5.11583e-07
-6.99515e-06
-5.4316e-07
3.8543e-07
9.89169e-06
2.18768e-05
-3.42902e-07
2.23258e-05
-5.70686e-07
1.02463e-05
-6.86162e-06
-5.53922e-07
5.40756e-07
-6.72012e-06
-5.57134e-07
3.83432e-07
1.05092e-05
2.27981e-05
-3.70585e-07
2.3242e-05
-5.94834e-07
1.08196e-05
-6.62676e-06
-5.85579e-07
7.08801e-07
-6.21142e-06
-1.0481e-06
4.22618e-07
1.11689e-05
2.37183e-05
-3.62072e-07
2.41208e-05
-7.29272e-07
1.15822e-05
-5.94113e-06
-9.4534e-07
7.16461e-07
-5.95403e-06
-6.71133e-07
4.67932e-07
1.1858e-05
2.46134e-05
-8.31854e-07
2.54594e-05
-7.0891e-07
1.17509e-05
-6.60297e-06
-4.17949e-08
4.47507e-07
-1.08769e-07
5.77106e-07
4.1156e-06
6.8587e-05
-4.21465e-07
8.71653e-05
2.20882e-06
0.000122495
-3.23939e-06
0.000135906
-1.7568e-07
0.000142649
-1.44567e-06
0.00014952
3.43419e-07
0.000152643
3.23512e-07
0.000159523
9.13629e-07
0.000162984
9.81125e-07
0.000173879
1.2722e-06
0.000178982
1.39476e-06
0.000193955
1.67509e-06
0.000200067
1.83222e-06
0.000218005
2.13713e-06
0.000225069
2.29068e-06
0.000245865
2.624e-06
0.000254075
2.77399e-06
0.00027792
3.13621e-06
0.000287356
3.28228e-06
0.000314412
3.67516e-06
0.000325183
3.81626e-06
0.000355487
4.2403e-06
0.00036769
4.37593e-06
0.000401691
4.83229e-06
0.000415521
4.96156e-06
0.000453602
5.45008e-06
0.000469222
5.57219e-06
0.000511518
6.09091e-06
0.000529014
6.2037e-06
0.00057562
6.74757e-06
0.000595055
6.84717e-06
0.000645972
7.40675e-06
0.000667347
7.48502e-06
0.000722508
8.04465e-06
0.000745561
8.09221e-06
0.000804273
8.46769e-06
0.000828223
7.21263e-06
0.000889638
6.50025e-06
0.000911659
2.22817e-07
0.00094665
-4.61515e-06
0.000921963
-2.22142e-05
0.000782432
-4.07208e-05
0.000730976
-0.000108115
0.000692288
-0.000245959
0.000693075
-0.000123137
0.000427723
-5.28774e-05
0.000420048
-4.88024e-05
0.000363818
-1.37993e-05
0.000316418
-7.85932e-06
9.46573e-05
-3.20949e-06
6.9518e-05
4.41981e-05
4.40674e-06
3.97948e-05
1.06351e-05
6.32932e-05
8.64554e-05
1.88412e-05
-9.11465e-06
7.95136e-05
1.60643e-05
-3.8127e-06
5.79976e-05
3.59873e-05
3.12543e-06
3.28706e-05
6.82783e-06
5.43051e-05
7.49303e-05
1.14228e-05
-3.12197e-06
7.356e-05
4.50869e-06
-1.56768e-06
5.27645e-05
3.13148e-05
1.6202e-06
2.97105e-05
3.15434e-06
5.12491e-05
7.18584e-05
4.87792e-06
-1.15123e-06
7.19758e-05
1.06065e-06
-8.45503e-07
5.09654e-05
2.8883e-05
1.12554e-06
2.77794e-05
2.04183e-06
5.00755e-05
7.12409e-05
2.80766e-06
-4.05879e-07
7.18959e-05
-2.13586e-07
-4.55073e-07
5.01541e-05
2.73488e-05
9.95811e-07
2.63803e-05
1.86354e-06
4.93194e-05
7.1159e-05
2.63979e-06
-4.04911e-07
7.1692e-05
-8.47946e-08
-3.13415e-07
4.92636e-05
2.60965e-05
8.18242e-07
2.53098e-05
1.46422e-06
4.86556e-05
7.10592e-05
2.14308e-06
1.53743e-08
7.19645e-05
-8.71293e-07
-8.70715e-08
4.87988e-05
2.52568e-05
7.04713e-07
2.45878e-05
1.35702e-06
4.81894e-05
7.12202e-05
2.15333e-06
3.81691e-08
7.1887e-05
-6.50008e-07
-3.06529e-08
4.83036e-05
2.4595e-05
5.07722e-07
2.41264e-05
9.71659e-07
4.78866e-05
7.14518e-05
1.46356e-06
5.18174e-07
7.24768e-05
-1.48357e-06
2.16481e-07
4.82376e-05
2.4384e-05
4.08836e-07
2.40177e-05
8.69321e-07
4.78283e-05
7.18307e-05
1.5774e-06
5.32815e-07
7.26173e-05
-1.2551e-06
2.60317e-07
4.8154e-05
2.43224e-05
2.22022e-07
2.41462e-05
4.83507e-07
4.79477e-05
7.22988e-05
8.68669e-07
1.01557e-06
7.3459e-05
-2.10598e-06
5.03818e-07
4.85172e-05
2.46981e-05
1.52176e-07
2.45957e-05
4.08463e-07
4.83209e-05
7.29278e-05
1.01212e-06
9.87286e-07
7.3847e-05
-1.83132e-06
5.08885e-07
4.88615e-05
2.51563e-05
-1.44741e-09
2.52113e-05
5.72476e-08
4.88673e-05
7.3654e-05
3.28226e-07
1.44952e-06
7.49611e-05
-2.67521e-06
7.34955e-07
4.96492e-05
2.60023e-05
-4.39223e-08
2.61041e-05
2.18334e-08
4.96533e-05
7.45552e-05
5.12005e-07
1.39974e-06
7.56074e-05
-2.36504e-06
7.20979e-07
5.04041e-05
2.68852e-05
-1.77496e-07
2.71248e-05
-3.1267e-07
5.06139e-05
7.55385e-05
-1.53651e-07
1.83105e-06
7.699e-05
-3.18911e-06
9.10836e-07
5.16114e-05
2.81001e-05
-1.74284e-07
2.83408e-05
-2.9299e-07
5.18099e-05
7.67137e-05
7.93328e-08
1.70808e-06
7.79764e-05
-2.87247e-06
8.45405e-07
5.27541e-05
2.92545e-05
-2.77196e-07
2.96017e-05
-5.89168e-07
5.31499e-05
7.81053e-05
-6.17109e-07
2.15704e-06
7.97886e-05
-3.73641e-06
1.03889e-06
5.43542e-05
3.07125e-05
-2.70573e-07
3.10566e-05
-5.66281e-07
5.47379e-05
7.97085e-05
-3.80101e-07
2.02891e-06
8.12158e-05
-3.42883e-06
9.71585e-07
5.58845e-05
3.21031e-05
-3.84803e-07
3.25644e-05
-8.83383e-07
5.64743e-05
8.15673e-05
-1.12547e-06
2.53382e-06
8.35372e-05
-4.39171e-06
1.1934e-06
5.79079e-05
3.3836e-05
-3.97499e-07
3.43132e-05
-8.98447e-07
5.85041e-05
8.37016e-05
-9.48425e-07
2.44972e-06
8.55108e-05
-4.1434e-06
1.15096e-06
5.98991e-05
3.5545e-05
-5.50599e-07
3.61778e-05
-1.28915e-06
6.07356e-05
8.61422e-05
-1.80311e-06
3.07809e-06
8.84925e-05
-5.30881e-06
1.43534e-06
6.24781e-05
3.76969e-05
-6.12199e-07
3.83941e-05
-1.40701e-06
6.3374e-05
8.89961e-05
-1.78951e-06
3.14542e-06
9.12596e-05
-5.28611e-06
1.46759e-06
6.51546e-05
3.9948e-05
-8.78216e-07
4.09136e-05
-2.02231e-06
6.64027e-05
9.23341e-05
-2.97223e-06
4.09738e-06
9.51857e-05
-6.82263e-06
1.91646e-06
6.86893e-05
4.29187e-05
-1.13724e-06
4.41452e-05
-2.43195e-06
7.00905e-05
9.64876e-05
-3.60602e-06
4.71239e-06
9.93362e-05
-7.43224e-06
2.20802e-06
7.27026e-05
4.64437e-05
-1.51624e-06
4.8051e-05
-3.15439e-06
7.44491e-05
0.000101276
-4.96454e-06
5.65182e-06
0.00010467
-8.915e-06
2.44942e-06
7.77606e-05
5.05924e-05
-1.47978e-06
5.21654e-05
-3.21338e-06
7.96048e-05
0.000106974
-5.3854e-06
5.41261e-06
0.000110755
-9.06074e-06
2.35376e-06
8.27741e-05
5.46119e-05
-1.6768e-06
5.6383e-05
-4.17463e-06
8.53843e-05
0.00011397
-7.25546e-06
6.80789e-06
0.000119243
-1.19465e-05
2.73695e-06
8.95667e-05
5.92131e-05
-2.99302e-06
6.23022e-05
-6.80278e-06
9.34914e-05
0.000124079
-1.15001e-05
1.16222e-05
0.000132483
-1.98811e-05
4.73728e-06
0.000100494
6.71353e-05
-9.96329e-06
7.72045e-05
-2.03091e-05
0.000110978
0.000144056
-3.16997e-05
-9.46718e-05
7.1819e-05
0.000167005
-3.86819e-05
5.50739e-05
3.85977e-05
-1.48245e-05
5.34821e-05
-3.49379e-05
7.52527e-05
9.59946e-05
-5.90436e-05
2.09485e-05
0.000111538
-3.63836e-05
8.42956e-06
8.78604e-05
6.19853e-05
-6.01114e-06
6.80804e-05
-1.43928e-05
9.63435e-05
0.00012204
-2.47719e-05
1.41904e-05
0.00025679
-0.00014875
5.56432e-06
0.000105075
7.37316e-05
-9.49301e-06
8.33178e-05
-0.000133845
0.000229594
0.000231335
-0.000108151
8.52076e-05
0.000248071
-0.000101719
0.000106836
0.000208169
0.00019029
-4.74716e-05
0.000237965
-8.10483e-05
0.000241957
0.000264673
-9.74113e-05
7.56416e-05
0.000284167
-9.4875e-05
4.81735e-05
0.000269661
0.00028638
-3.12249e-05
0.000317867
-4.60179e-05
0.000284713
0.000339913
-0.000101427
-3.40994e-05
0.000211577
0.000162612
7.03672e-06
0.000243767
0.000325157
-3.77737e-05
0.00036317
-4.33146e-05
0.000249463
0.000258853
-9.04668e-05
8.16003e-05
0.00027779
-0.000100348
6.24112e-05
0.000268831
0.000425851
-7.60462e-05
0.00050219
-9.16617e-05
0.000284645
0.000291078
-0.000104735
0.000100251
0.000305273
-0.00011422
8.54444e-05
0.000299656
0.000587964
-9.80025e-05
0.000686307
-0.000111986
0.000313843
0.000299451
-0.000105942
0.000122738
0.000400951
-0.000223961
9.91234e-05
0.00033767
0.000785803
-8.09164e-05
0.000867068
-3.28924e-05
0.000289804
0.000239804
0.000128409
0.000101485
0.0002807
-0.000142269
0.00010491
0.000286511
0.000972325
-0.000128946
0.00110163
-0.000148307
0.000306024
0.000305554
-0.000172986
0.000127024
0.000371862
-0.000193094
0.000118926
0.000314283
0.00122096
-8.63928e-05
0.00130774
-3.46869e-05
0.000262708
0.000220579
0.000116729
9.08256e-05
0.000260953
-0.000131092
9.52814e-05
0.000258374
0.0014034
-8.05444e-05
0.00148442
-8.35967e-05
0.000261581
0.000304838
-0.000127264
-2.99268e-05
0.000179185
0.000155727
2.69048e-05
0.000204883
0.00151189
2.25601e-05
0.00148996
2.59635e-05
0.000201597
0.000257662
-5.2374e-05
-0.000236597
0.000140511
0.00035395
-0.000171477
0.000136615
0.00131925
0.000288542
0.00103144
0.000330636
9.46546e-05
0.000103153
0.000368165
-0.000364629
7.39585e-05
0.000394012
-0.00032089
5.10713e-05
0.000711222
0.000317273
0.000394542
0.000416656
-4.80992e-05
-6.241e-05
0.000553313
-0.000281723
-9.82061e-05
0.000317766
-0.000242205
-8.74148e-05
0.000152787
0.000161782
-8.54129e-06
0.000127279
-5.27856e-05
-3.83409e-05
6.74922e-05
-4.18411e-05
-6.50187e-05
6.86409e-05
-4.53681e-05
-4.91606e-05
-5.37394e-05
1.11618e-05
-6.45048e-05
1.15414e-05
-4.93809e-05
-6.25336e-05
9.2684e-06
-6.00595e-06
-4.84714e-05
-7.94506e-06
-6.22059e-06
-4.90375e-05
-7.0404e-05
7.39648e-06
-7.75005e-05
1.90731e-05
-6.05736e-05
-7.87625e-05
4.95034e-05
-4.62831e-06
-7.41148e-05
2.01717e-07
-2.46562e-06
-6.25719e-05
-7.96969e-05
1.87498e-07
-7.96538e-05
-8.95008e-07
-6.13572e-05
-5.83682e-05
-1.65312e-05
-1.56127e-05
-9.4639e-05
5.20227e-05
-2.73901e-06
-7.40879e-05
-8.21829e-05
-3.68449e-06
-7.83029e-05
-5.10269e-06
-7.25028e-05
-8.37309e-05
-1.5784e-05
1.00907e-05
-6.59277e-05
-2.77841e-05
6.2472e-06
-6.85317e-05
-7.18956e-05
-1.6742e-06
-7.00743e-05
9.74155e-06
-7.9811e-05
-0.000108707
5.26597e-05
2.59751e-05
-8.49256e-05
-4.95417e-05
1.2193e-05
-6.58812e-05
-5.77518e-05
-3.9109e-05
-1.85701e-05
-2.65046e-05
-7.8375e-05
-7.0441e-05
-4.08912e-05
1.20677e-05