/*--------------------------------*- C++ -*----------------------------------*\
| =========                 |                                                 |
| \\      /  F ield         | OpenFOAM: The Open Source CFD Toolbox           |
|  \\    /   O peration     | Version:  v2006                                 |
|   \\  /    A nd           | Website:  www.openfoam.com                      |
|    \\/     M anipulation  |                                                 |
\*---------------------------------------------------------------------------*/
FoamFile
{
    version     2.0;
    format      ascii;
    class       volScalarField;
    location    "0.038";
    object      p;
}
// * * * * * * * * * * * * * * * * * * * * * * * * * * * * * * * * * * * * * //

dimensions      [1 -1 -2 0 0 0 0];


internalField   nonuniform List<scalar> 
9148
(
146699
146705
146702
146703
146703
146707
146714
146726
146740
146755
146771
146787
146805
146823
146842
146862
146883
146905
146929
146953
146978
147004
147031
147058
147087
147116
147145
147175
147205
147236
147267
147298
147329
147361
147392
147424
147455
147486
147517
147547
147577
147607
147635
147664
147691
147718
147744
147770
147794
147817
147840
147861
147881
147900
147918
147935
147950
147965
147977
147987
147995
148000
148004
148006
148003
148004
148007
148014
148030
148056
148072
148082
148062
148061
148056
148050
148051
148052
148042
148041
148041
148034
148034
148033
148028
148028
148028
148025
148024
148024
148022
148022
148022
148021
148021
148021
148021
148021
148021
148022
148021
148021
148022
148023
148023
148025
148025
148024
148027
148027
148028
148031
148030
148030
148034
148034
148034
148039
148038
148038
148043
148043
148044
148049
148049
148048
148055
148055
148055
148062
148062
148061
148069
148069
148070
148078
148078
148077
148086
148087
148087
148097
148096
148096
148106
148106
148107
148117
148117
148117
148128
148128
148129
148140
148139
148139
148151
148151
148152
148164
148163
148163
148175
148175
148176
148188
148188
148188
148200
148201
148201
148215
148214
148214
148228
148228
148228
148243
148242
148242
148257
148257
148258
148274
148273
148273
148290
148290
148291
148308
148308
148307
148326
148327
148327
148347
148346
148346
148366
148367
148367
148388
148388
148387
148409
148410
148410
148433
148432
148432
148455
148455
148456
148479
148479
148478
148502
148502
148503
148527
148526
148526
148550
148551
148551
148576
148575
148575
148600
148600
148601
148627
148626
148626
148652
148653
148653
148680
148680
148679
148708
148708
148709
148738
148738
148737
148768
148769
148769
148802
148801
148801
148834
148835
148836
148871
148870
148870
148907
148907
148908
148946
148946
148945
148985
148985
148986
149027
149026
149026
149068
149069
149069
149112
149112
149111
149155
149156
149156
149201
149201
149200
149246
149247
149247
149294
149294
149293
149340
149341
149341
149386
149387
149386
149433
149432
149428
149444
149447
149448
149445
149446
149446
149445
149445
149444
149441
149440
149443
149446
149447
149447
149471
149471
149465
149501
149503
149504
149527
149527
149527
149519
149519
149519
149527
149527
149529
149518
149518
149518
149522
149522
149523
149513
149513
149513
149515
149515
149515
149510
149510
149510
149514
149514
149514
149517
149518
149518
149523
149523
149523
149526
149526
149526
149527
149528
149528
149527
149527
149527
149526
149526
149526
149524
149524
149524
149522
149522
149522
149519
149519
149519
149516
149516
149516
149513
149514
149514
149511
149511
149511
149510
149510
149510
149510
149510
149510
149511
149511
149511
149513
149512
149512
149515
149515
149515
149519
149519
149519
149523
149524
149524
149530
149530
149529
149536
149536
149536
149544
149544
149543
149551
149552
149552
149562
149561
149561
149571
149572
149572
149583
149582
149581
149593
149594
149594
149606
149606
149605
149617
149618
149618
149630
149629
149628
149639
149640
149641
149650
149649
149648
149656
149658
149658
149664
149663
149662
149666
149667
149667
149667
149667
149666
149662
149653
149638
149619
149598
149576
149556
149539
149527
149521
149521
149526
149537
149553
149573
149594
149614
149633
149646
149652
149654
149656
149658
149655
149658
149659
149659
149657
149659
149658
149664
149646
149660
149650
149656
149653
149650
149651
149651
149650
149650
149650
149645
149647
149646
149647
149647
149647
149643
149644
149643
149646
149640
149645
149634
149635
149634
149630
149630
149630
149625
149622
149625
149622
149622
149622
149617
149621
149618
149615
149616
149615
149609
149605
149609
149598
149606
149599
149597
149588
149596
149584
149592
149585
149583
149575
149583
149571
149579
149573
149571
149564
149571
149561
149567
149562
149557
149563
149557
149557
149552
149556
149550
149556
149550
149551
149546
149550
149545
149551
149545
149547
149543
149546
149546
149540
149546
149541
149545
149542
149544
149538
149542
149542
149543
149544
149551
149549
149548
149560
149561
149561
149574
149573
149573
149588
149589
149589
149606
149606
149606
149625
149625
149624
149644
149645
149645
149667
149668
149666
149689
149690
149688
149714
149711
149708
149719
149761
149717
149768
149753
149751
149775
149781
149785
149808
149804
149796
149812
149821
149826
149841
149835
149822
149842
149851
149855
149854
149841
149821
149803
149830
149857
149778
149763
149742
149653
149689
149705
149485
149430
149370
149035
149005
149051
148414
148278
148362
147065
146959
146795
144710
145673
145933
144052
143946
142386
141552
142912
143624
143472
143162
142756
143582
143815
144030
144326
144096
143837
144131
144294
144432
144918
144869
144790
144984
145015
145066
145408
145383
145345
145430
145446
145473
145761
145747
145723
145821
145829
145851
145889
145891
145862
146110
146108
146123
146132
146136
146132
146308
146313
146314
146346
146341
146343
146363
146358
146364
146509
146503
146523
146531
146477
146516
146613
146622
146623
146616
146599
146604
146707
146717
146714
146716
146710
146709
146703
146702
146711
146795
146817
146799
146774
146800
146790
146846
146860
146844
146813
146826
146820
146902
146901
146889
146855
146857
146861
146939
146937
146924
146894
146899
146910
146956
146958
146949
146930
146939
146950
146919
146905
146901
146961
146982
146959
146920
146950
146919
146963
146996
146971
146910
146939
146913
146961
146979
146968
146935
146928
146918
146948
146958
146959
146900
146898
146897
146943
146959
146966
146904
146895
146890
146906
146913
146911
146869
146862
146859
146896
146912
146919
146849
146841
146838
146850
146858
146858
146807
146801
146798
146827
146843
146849
146778
146770
146767
146774
146783
146782
146728
146722
146719
146744
146760
146766
146689
146681
146678
146677
146686
146685
146623
146618
146617
146638
146669
146654
146579
146583
146571
146564
146601
146569
146486
146506
146492
146504
146549
146498
146518
146501
146492
146400
146410
146406
146415
146414
146404
146341
146345
146350
146380
146373
146356
146282
146288
146300
146279
146277
146266
146188
146187
146189
146203
146203
146192
146126
146134
146149
146142
146132
146119
146031
146029
146036
146029
146014
146013
145935
145923
145936
145972
145940
145943
145900
145918
145912
145801
145788
145793
145784
145797
145799
145710
145704
145701
145696
145713
145717
145624
145613
145607
145581
145595
145599
145482
145480
145481
145467
145481
145481
145385
145379
145377
145357
145380
145358
145323
145314
145309
145187
145190
145187
145185
145185
145173
145084
145088
145093
145088
145084
145068
144971
144978
144989
144942
144943
144931
144822
144823
144829
144818
144814
144798
144684
144683
144681
144656
144665
144657
144599
144611
144615
144456
144457
144457
144432
144448
144454
144317
144315
144313
144275
144290
144293
144162
144155
144152
144111
144130
144126
143971
143978
143979
143947
143970
143945
143890
143884
143879
143724
143729
143728
143699
143697
143683
143554
143553
143552
143531
143529
143512
143378
143376
143376
143354
143350
143332
143192
143193
143199
143151
143145
143128
142966
142955
142945
142948
142913
142930
142847
142873
142848
142686
142662
142671
142603
142625
142622
142445
142437
142443
142363
142377
142370
142188
142189
142201
142158
142178
142179
142016
142007
142005
141920
141940
141936
141734
141728
141737
141662
141663
141658
141529
141547
141543
141325
141310
141300
141287
141289
141270
141099
141105
141114
141021
141018
140996
140781
140780
140788
140600
140621
140622
140424
140405
140390
140419
140414
140388
140192
140192
140191
140061
140069
140066
139896
139909
139900
139513
139550
139584
139464
139475
139458
139243
139247
139250
139153
139179
139178
138941
138924
138915
138719
138740
138739
138368
138388
138419
138230
138223
138188
137971
137984
138001
137918
137945
137944
137682
137674
137668
137456
137485
137489
137066
137084
137111
136841
136825
136781
136515
136542
136571
136477
136505
136504
136206
136200
136192
135914
135946
135954
135403
135442
135489
135156
135129
135069
134784
134820
134855
134743
134774
134716
134527
134504
134507
134006
134003
133955
133445
133508
133536
133101
133002
132883
132945
132965
132944
132610
132648
132665
132070
132041
132011
131599
131652
131631
130599
130771
130946
130686
130685
130611
130286
130294
130320
129946
130011
129978
129278
129262
129338
128417
128265
128087
127630
127758
127881
127676
127698
127675
127165
127177
127186
126306
126295
126256
124586
125004
125336
124857
124800
124679
124366
124374
124388
123380
123471
123370
121610
121786
122002
121111
120818
120524
120483
120548
120587
119827
119700
119617
117379
117830
118204
117010
116636
116163
115287
115500
115711
114292
114084
113833
111314
112211
112840
111270
110880
110416
108842
109324
109754
108253
107413
106166
105343
105992
106509
104086
103084
101736
102204
102940
103664
103283
102032
99863.1
99994
102039
103011
103517
102875
101084
104340
105320
105477
109908
110206
109966
113683
113779
113619
115752
115834
115760
117101
117146
117107
118255
118276
118242
119218
119238
119227
120101
120103
120086
120792
120802
120800
121446
121442
121431
121971
121977
121977
122503
122497
122489
122931
122935
122937
123378
123371
123364
123731
123734
123737
124109
124101
124095
124400
124402
124405
124722
124714
124709
124965
124967
124969
125243
125235
125230
125448
125449
125451
125691
125683
125679
125868
125869
125870
126082
126075
126071
126235
126236
126236
126427
126419
126416
126561
126561
126561
126734
126727
126724
126852
126852
126851
127007
127002
126999
127114
127113
127112
127256
127251
127249
127351
127350
127349
127480
127475
127473
127565
127565
127563
127684
127680
127678
127761
127760
127758
127868
127864
127863
127938
127937
127935
128038
128035
128033
128101
128100
128098
128192
128189
128188
128249
128248
128246
128335
128332
128331
128387
128385
128383
128464
128461
128460
128511
128510
128508
128585
128582
128582
128628
128626
128624
128694
128692
128691
128733
128731
128729
128797
128794
128794
128832
128830
128828
128888
128887
128886
128921
128919
128917
128976
128974
128973
129005
129003
129001
129054
129052
129052
129080
129079
129077
129128
129127
129126
129152
129150
129149
129194
129193
129193
129216
129215
129213
129258
129257
129256
129277
129276
129274
129314
129313
129313
129332
129331
129329
129368
129367
129367
129384
129383
129381
129416
129416
129415
129431
129430
129428
129463
129462
129461
129475
129474
129473
129504
129503
129503
129515
129514
129513
129543
129542
129542
129553
129552
129551
129578
129578
129578
129588
129587
129585
129612
129611
129611
129620
129619
129618
129642
129642
129642
129650
129649
129647
129671
129670
129670
129677
129676
129675
129697
129696
129696
129702
129701
129700
129722
129721
129720
129726
129725
129724
129744
129743
129743
129748
129747
129745
129765
129764
129764
129768
129767
129766
129784
129783
129783
129786
129785
129784
129802
129801
129800
129804
129803
129802
129818
129817
129817
129819
129818
129817
129833
129832
129832
129834
129834
129832
129847
129846
129846
129848
129847
129846
129861
129860
129859
129861
129860
129859
129872
129872
129871
129872
129871
129870
129884
129883
129883
129883
129883
129881
129894
129893
129893
129893
129893
129891
129904
129903
129903
129903
129902
129901
129913
129912
129912
129911
129911
129909
129922
129921
129920
129920
129919
129918
129929
129928
129928
129927
129926
129925
129936
129936
129935
129934
129933
129932
129943
129942
129942
129940
129939
129938
129949
129948
129948
129946
129945
129944
129954
129953
129953
129951
129950
129949
129959
129959
129958
129956
129955
129954
129964
129963
129962
129960
129959
129958
129968
129967
129967
129964
129963
129962
129971
129971
129970
129967
129967
129966
129975
129974
129974
129971
129970
129969
129978
129977
129977
129973
129973
129972
129981
129980
129979
129976
129975
129974
129983
129982
129982
129978
129977
129976
129985
129984
129984
129980
129979
129978
129986
129986
129985
129981
129981
129980
129988
129987
129987
129983
129982
129981
129989
129988
129988
129984
129983
129982
129990
129989
129989
129985
129984
129983
129991
129990
129989
129985
129984
129984
129991
129990
129990
129986
129985
129984
129991
129991
129990
129986
129985
129984
129991
129991
129990
129986
129985
129984
129991
129990
129990
129985
129985
129984
129991
129990
129990
129985
129984
129983
129990
129989
129989
129984
129983
129982
129989
129989
129988
129983
129982
129982
129988
129987
129987
129982
129981
129980
129987
129986
129986
129980
129980
129979
129985
129984
129984
129978
129977
129977
129983
129982
129982
129976
129975
129975
129980
129980
129979
129973
129973
129972
129978
129977
129976
129970
129970
129969
129974
129974
129973
129967
129966
129965
129971
129970
129970
129963
129963
129962
129967
129967
129966
129960
129959
129958
129964
129963
129963
129956
129956
129955
129960
129960
129959
129953
129952
129952
129958
129957
129956
129951
129950
129949
129955
129955
129954
129949
129948
129947
129956
129955
129955
129952
129951
129951
129962
129961
129960
129959
129959
129958
129971
129969
129968
129970
129970
129970
130001
130000
129997
130055
130059
130061
130065
130065
130064
130065
130069
130029
129982
130040
130123
130054
129991
130048
130113
130088
130051
130032
130021
130015
130011
130009
130008
130008
130008
130007
130007
130006
130005
130004
130002
130000
129998
129996
129995
129994
129994
130002
130005
130009
130014
130020
130028
130038
130051
130065
130083
130101
130120
130138
130150
130156
130160
130165
130174
130185
130199
130214
130232
130253
130276
130302
130331
130365
130404
130448
130499
130556
130621
130695
130778
130871
130977
131095
131226
131373
131535
131714
131911
132127
132362
132617
132891
133185
133498
133828
134175
134537
134912
135298
135693
136094
136498
136904
137310
137713
138111
138502
138886
139261
139625
139979
140321
140650
140968
141273
141565
141845
142113
142369
142613
142845
143066
143277
143477
143667
143848
144019
144182
144337
144484
144623
144755
144880
144998
145110
145217
145317
145412
145502
145587
145668
145744
145815
145883
145948
146009
146066
146120
146171
146219
146264
146307
146346
146384
146418
146450
146480
146508
146533
146557
146578
146598
146615
146631
146644
146656
146666
146677
146691
146700
146702
146701
146708
146727
146742
146753
146763
146775
146789
146803
146818
146834
146852
146871
146891
146912
146934
146958
146982
147008
147034
147062
147090
147118
147147
147177
147207
147237
147268
147299
147330
147361
147393
147424
147455
147486
147517
147548
147578
147607
147636
147664
147692
147718
147744
147769
147793
147816
147838
147859
147879
147897
147914
147931
147946
147960
147973
147984
147994
148000
148005
148013
148023
148026
148028
148025
148023
148022
148022
148022
148024
148026
148029
148032
148035
148040
148045
148050
148056
148063
148071
148079
148088
148098
148108
148119
148130
148141
148153
148165
148177
148190
148203
148216
148230
148244
148259
148275
148292
148310
148328
148348
148368
148390
148412
148434
148457
148481
148504
148529
148553
148578
148603
148628
148655
148682
148711
148740
148771
148803
148837
148873
148910
148948
148987
149028
149070
149113
149157
149202
149247
149292
149338
149380
149417
149435
149441
149442
149442
149454
149486
149520
149538
149520
149529
149515
149525
149511
149516
149507
149512
149515
149523
149526
149529
149528
149527
149525
149522
149519
149516
149513
149511
149509
149509
149510
149511
149514
149518
149522
149528
149534
149541
149549
149558
149568
149579
149590
149601
149613
149624
149635
149644
149652
149658
149662
149653
149638
149635
149649
149644
149629
149623
149636
149629
149615
149592
149612
149616
149619
149597
149594
149589
149569
149573
149575
149555
149553
149548
149550
149536
149576
149605
149617
149607
149594
149583
149595
149584
149572
149555
149537
149563
149573
149563
149552
149545
149553
149544
149535
149522
149509
149529
149537
149529
149522
149517
149524
149518
149512
149500
149496
149509
149514
149511
149505
149505
149509
149507
149503
149495
149498
149505
149507
149508
149505
149509
149510
149512
149510
149505
149514
149516
149516
149519
149518
149524
149523
149525
149526
149523
149528
149533
149528
149529
149531
149538
149531
149528
149524
149546
149556
149531
149527
149516
149496
149515
149512
149501
149478
149516
149494
149536
149514
149504
149490
149553
149528
149528
149497
149498
149494
149544
149547
149513
149505
149536
149522
149500
149491
149474
149442
149493
149484
149461
149453
149453
149453
149441
149428
149409
149374
149427
149435
149421
149400
149388
149401
149366
149345
149327
149266
149321
149329
149284
149271
149241
149242
149197
149190
149196
149121
149157
149155
149111
149108
149074
149070
149027
149027
149044
148969
148994
148988
148948
148949
148918
148910
148873
148875
148897
148829
148847
148839
148804
148807
148781
148773
148741
148745
148766
148709
148721
148712
148684
148687
148665
148656
148630
148634
148655
148604
148613
148604
148579
148583
148563
148555
148530
148534
148555
148506
148514
148506
148482
148486
148467
148459
148436
148440
148460
148414
148421
148414
148391
148395
148377
148371
148350
148353
148372
148333
148337
148331
148312
148315
148300
148294
148277
148281
148297
148265
148268
148262
148246
148250
148238
148232
148218
148221
148236
148209
148210
148205
148192
148195
148185
148179
148167
148170
148184
148159
148160
148155
148143
148146
148137
148132
148120
148123
148136
148114
148115
148110
148100
148102
148094
148090
148081
148084
148095
148078
148077
148073
148065
148068
148062
148058
148052
148054
148063
148051
148050
148046
148041
148044
148040
148037
148033
148035
148042
148034
148033
148030
148027
148029
148027
148025
148023
148025
148028
148023
148024
148023
148022
148023
148023
148023
148024
148022
148019
148013
148023
148031
148039
148048
148058
148070
148084
148101
148121
148142
148165
148189
148214
148241
148269
148300
148335
148372
148413
148457
148502
148549
148597
148646
148698
148753
148813
148877
148944
149015
149085
149154
149219
149277
149328
149372
149413
149451
149482
149505
149520
149526
149529
149538
149550
149531
149512
149497
149484
149477
149474
149475
149481
149491
149504
149519
149486
149502
149517
149532
149536
149538
149526
149524
149519
149513
149517
149520
149519
149516
149511
149502
149486
149488
149505
149514
149520
149524
149534
149530
149523
149536
149544
149549
149567
149562
149551
149529
149509
149489
149470
149470
149457
149473
149463
149456
149442
149447
149447
149457
149473
149462
149457
149442
149442
149441
149453
149455
149445
149453
149462
149474
149469
149470
149456
149447
149462
149457
149488
149486
149492
149504
149521
149544
149565
149572
149583
149588
149608
149602
149591
149612
149623
149626
149639
149635
149625
149602
149581
149606
149618
149628
149637
149645
149646
149655
149652
149657
149653
149656
149653
149652
149647
149650
149649
149650
149646
149642
149649
149644
149646
149647
149643
149641
149644
149635
149625
149615
149605
149595
149582
149558
149540
149527
149521
149536
149541
149543
149552
149559
149571
149580
149592
149600
149606
149614
149617
149623
149625
149633
149634
149636
149645
149631
149624
149622
149618
149615
149607
149601
149593
149592
149587
149580
149580
149587
149574
149574
149568
149560
149564
149568
149568
149563
149559
149559
149555
149551
149547
149544
149546
149540
149542
149524
149539
149496
149510
149473
149486
149494
149486
149486
149490
149511
149501
149513
149523
149532
149515
149487
149496
149495
149491
149474
149446
149388
149442
149489
149518
149521
149577
149563
149612
149591
149568
149556
149566
149552
149547
149546
149544
149545
149545
149547
149549
149552
149552
149555
149549
149547
149545
149545
149544
149544
149546
149553
149555
149561
149574
149575
149562
149588
149584
149586
149612
149614
149601
149605
149622
149641
149633
149649
149643
149672
149632
149652
149639
149695
149696
149722
149703
149689
149670
149685
149662
149704
149723
149740
149722
149760
149742
149757
149733
149745
149732
149768
149770
149792
149777
149790
149821
149796
149781
149763
149739
149689
149635
149569
149486
149392
149303
149171
149311
149479
149517
149635
149674
149670
149742
149762
149776
149682
149712
149582
149528
149388
149497
149507
149297
149113
149268
149182
149003
149160
149441
149689
148887
148604
148590
148870
148773
148703
148509
148211
148131
147839
148141
146737
147418
147662
148195
148266
148674
148888
149083
149193
149002
148940
148537
148037
147895
147581
147212
146627
145882
145252
144344
144547
145326
145683
145118
144825
144850
145291
145321
145599
145653
145847
145922
146018
146138
146219
146303
146370
146434
146494
146546
146588
146637
146661
146707
146742
146758
146795
146803
146836
146843
146871
146870
146901
146889
146911
146922
146914
146930
146912
146923
146905
146916
146892
146901
146875
146881
146852
146858
146825
146827
146792
146794
146756
146754
146714
146713
146669
146662
146618
146611
146566
146554
146506
146489
146464
146464
146474
146523
146536
146576
146583
146629
146638
146675
146678
146720
146726
146757
146755
146793
146795
146821
146816
146849
146847
146867
146857
146885
146878
146892
146879
146901
146890
146897
146874
146860
146813
146839
146816
146875
146858
146828
146788
146831
146793
146748
146820
146784
146738
146681
146718
146666
146606
146689
146636
146577
146504
146536
146473
146401
146490
146425
146422
146404
146386
146336
146328
146273
146257
146194
146175
146123
146104
146037
146009
145951
145923
145883
145898
145925
145985
146001
146064
146090
146148
146160
146217
146241
146293
146299
146352
146372
146269
146225
146135
146077
145976
145914
145814
145833
145806
145772
145704
145679
145603
145575
145496
145460
145389
145355
145298
145208
145166
145091
145058
144977
144934
144845
144796
144714
144661
144594
144638
144690
144774
144819
144900
144948
145027
145067
145139
145181
145257
145324
145360
145429
145469
145532
145566
145637
145671
145736
145748
145689
145684
145590
145493
145597
145497
145395
145281
145396
145286
145179
145070
144956
144822
144698
144570
144551
144489
144428
144326
144275
144171
144115
144013
143953
143875
143928
143835
143754
143689
143584
143518
143408
143339
143226
143147
143024
142940
142850
142701
142619
142480
142393
142258
142168
142040
141948
141800
141694
141570
141677
141545
141402
141287
141142
141031
140848
140707
140544
140402
140248
140117
139935
139691
139526
139336
139188
138972
138808
138558
138349
138148
137960
137751
137555
137270
137012
136780
136535
136307
136057
135721
135381
135123
134828
134593
134917
134678
134226
133845
133505
133083
132837
132417
131878
131477
130914
130681
130188
129731
129058
128632
127903
127649
126931
126383
125388
125198
124285
123069
122613
121236
120956
119580
119226
117404
115739
115659
113554
111616
112055
109604
107689
105577
107550
105687
105477
105960
107328
110689
113874
115972
117255
118394
119295
120169
120825
121480
121985
122526
122938
123398
123736
124126
124403
124738
124965
125256
125446
125703
125864
126094
126230
126438
126554
126745
126845
127020
127107
127270
127343
127492
127558
127697
127754
127879
127931
128050
128094
128202
128242
128345
128380
128472
128504
128594
128621
128701
128725
128804
128824
128895
128913
128983
128998
129059
129073
129134
129145
129199
129209
129263
129270
129319
129325
129373
129377
129420
129424
129467
129469
129507
129508
129547
129547
129582
129581
129616
129614
129646
129643
129675
129671
129700
129696
129725
129720
129747
129741
129768
129762
129786
129780
129805
129798
129821
129813
129836
129828
129850
129842
129864
129855
129875
129866
129887
129878
129897
129888
129907
129898
129916
129906
129924
129914
129932
129921
129939
129929
129945
129935
129952
129941
129957
129946
129962
129951
129966
129955
129971
129959
129974
129962
129978
129966
129980
129969
129983
129972
129985
129973
129987
129976
129989
129977
129990
129979
129991
129979
129993
129981
129993
129981
129994
129981
129993
129981
129994
129982
129993
129981
129993
129981
129992
129980
129992
129979
129990
129977
129989
129976
129987
129974
129985
129972
129982
129969
129980
129966
129976
129963
129973
129960
129969
129956
129966
129953
129962
129949
129960
129947
129957
129944
129958
129948
129965
129958
129981
129979
130022
130075
130095
130043
130020
129977
129983
129968
129948
129964
129944
129941
129959
129947
129939
129958
129944
129944
129963
129954
129946
129965
129952
129951
129970
129960
129953
129972
129959
129958
129977
129967
129960
129979
129966
129965
129983
129974
129967
129985
129971
129970
129989
129979
129972
129990
129976
129974
129993
129982
129975
129993
129979
129977
129995
129985
129977
129995
129980
129979
129997
129986
129979
129996
129981
129980
129998
129987
129979
129996
129981
129980
129998
129986
129978
129996
129980
129979
129997
129985
129977
129994
129978
129977
129995
129983
129974
129992
129976
129974
129992
129979
129971
129988
129972
129969
129987
129975
129966
129983
129966
129964
129982
129969
129960
129977
129960
129957
129975
129962
129953
129969
129951
129949
129967
129954
129943
129960
129941
129939
129956
129943
129932
129949
129929
129927
129944
129931
129919
129935
129915
129912
129930
129916
129904
129919
129899
129895
129913
129899
129885
129901
129880
129876
129893
129878
129864
129879
129857
129853
129870
129854
129840
129854
129831
129826
129843
129827
129811
129825
129801
129796
129812
129795
129778
129791
129766
129760
129775
129758
129739
129752
129725
129718
129733
129715
129694
129705
129677
129669
129683
129665
129641
129651
129622
129612
129624
129606
129580
129588
129557
129545
129556
129536
129508
129514
129481
129467
129476
129455
129423
129427
129393
129376
129382
129360
129325
129326
129290
129270
129274
129250
129209
129206
129169
129145
129146
129119
129074
129066
129027
128999
128996
128966
128915
128903
128861
128826
128818
128786
128728
128711
128666
128624
128609
128574
128508
128484
128435
128384
128363
128325
128248
128216
128163
128101
128070
128028
127939
127897
127839
127763
127720
127673
127570
127515
127449
127356
127297
127244
127124
127050
126976
126862
126777
126720
126577
126474
126391
126251
126132
126063
125890
125746
125648
125470
125297
125214
124993
124784
124673
124426
124167
124075
123757
123441
123305
122941
122554
122447
121969
121503
121451
120799
120215
120272
119287
118437
118452
117175
115766
115512
113707
111556
113222
109153
108665
112744
108498
108703
113237
109966
111131
109418
111193
112881
115068
117375
114304
113075
115116
114334
116053
118488
116479
118061
117597
119276
120928
120876
122230
122405
123833
124051
125137
125717
126113
126206
127169
127362
128236
128431
129192
129412
130139
130408
131041
131256
131846
132094
132611
133119
133319
133763
133997
134453
134888
135050
135288
135489
135851
136076
136404
136596
136891
137075
137363
137547
137808
137988
138232
138385
138621
138792
139014
139173
139371
139530
139726
139881
140092
140263
140410
140571
140717
140876
141008
141146
141283
141414
141496
141664
141798
141916
142033
142150
142260
142366
142473
142585
142682
142795
142930
143012
143123
143204
143318
143393
143493
143563
143668
143733
143736
143578
143406
143230
143039
142855
142768
142848
142613
142423
142568
142362
142178
141995
142136
141916
141725
142199
142314
142606
142692
143023
143215
143367
143570
143710
143879
144049
144196
144297
144386
144427
144346
144353
144207
144419
144650
144652
144897
144905
145129
145114
145344
145339
145539
145515
145736
145864
145896
146017
146061
146170
146190
146298
146329
146420
146427
146518
146539
146614
146610
146680
146690
146743
146723
146769
146766
146792
146755
146775
146792
146828
146818
146769
146759
146730
146723
146679
146693
146717
146782
146669
146675
146647
146618
146573
146542
146492
146435
146367
146327
146233
146155
146043
145988
146197
146281
146421
146429
146512
146573
146546
146600
146640
146532
146635
146400
146504
146327
146007
145831
145607
145680
145343
145581
145988
146553
146185
146120
146172
146793
146671
147145
146600
147513
147360
147005
146975
147123
146794
146679
146297
145914
146147
145828
146181
146534
146622
146854
146825
146910
146763
146705
146645
146634
146708
146744
146758
146722
146723
146726
146670
146652
146554
146507
146377
146301
146147
146040
145861
145720
145938
146021
146197
146256
146405
146445
146563
146593
146670
146703
146724
146787
146909
146885
146771
146725
146646
146560
146494
146383
146316
146179
146100
145938
145841
145737
145625
145402
145257
145012
144831
144557
144338
144285
144176
143998
143745
144038
143419
143093
143408
143720
144019
144277
144002
143729
143426
143086
142710
142356
141898
141413
141243
140985
141206
140664
140392
140036
139937
140119
139733
139331
139209
138943
138645
138831
138463
138194
137853
137630
137340
136986
137160
136709
136405
135993
135647
135323
136176
136647
137209
137551
138066
138344
138770
139052
139440
139673
140355
140682
140842
139855
139068
138522
137620
136996
136331
135650
135277
135192
135867
134212
134536
133665
132808
132330
132361
131636
131324
130798
129913
129639
129128
128961
128059
127850
127388
127001
128302
128936
130151
130470
131658