/*--------------------------------*- C++ -*----------------------------------*\
| =========                 |                                                 |
| \\      /  F ield         | OpenFOAM: The Open Source CFD Toolbox           |
|  \\    /   O peration     | Version:  v2006                                 |
|   \\  /    A nd           | Website:  www.openfoam.com                      |
|    \\/     M anipulation  |                                                 |
\*---------------------------------------------------------------------------*/
FoamFile
{
    version     2.0;
    format      ascii;
    class       surfaceScalarField;
    location    "0.038";
    object      phi;
}
// * * * * * * * * * * * * * * * * * * * * * * * * * * * * * * * * * * * * * //

dimensions      [1 0 -1 0 0 0 0];
oriented        oriented;


internalField   nonuniform List<scalar> 
18081
(
-2.64772e-05
-0.00185072
0.00183186
4.52579e-05
-0.00174066
0.00171423
3.33732e-06
9.52483e-05
-2.93842e-05
0.00197719
3.27368e-05
0.00214342
-6.90198e-05
0.00217642
-1.47027e-05
0.00220528
-3.19934e-05
0.00217031
-5.30219e-06
0.00215096
-6.23848e-06
0.00212569
-1.77775e-06
0.00211052
-3.16858e-06
0.0020986
-3.28211e-06
0.00209045
-3.79729e-06
0.00208323
-4.09008e-06
0.0020763
-4.36922e-06
0.00206931
-4.63506e-06
0.00206196
-4.88827e-06
0.00205426
-5.12965e-06
0.00204622
-5.35981e-06
0.00203785
-5.579e-06
0.00202915
-5.78705e-06
0.00202015
-5.98351e-06
0.00201085
-6.16774e-06
0.00200127
-6.33907e-06
0.00199143
-6.49687e-06
0.00198134
-6.64057e-06
0.00197104
-6.7696e-06
0.00196053
-6.88353e-06
0.00194983
-6.982e-06
0.00193898
-7.06474e-06
0.00192799
-7.1315e-06
0.00191688
-7.18204e-06
0.00190568
-7.21607e-06
0.00189441
-7.23324e-06
0.00188308
-7.23314e-06
0.00187174
-7.21566e-06
0.00186039
-7.1802e-06
0.00184907
-7.12391e-06
0.00183781
-7.04869e-06
0.00182662
-6.95488e-06
0.00181554
-6.84166e-06
0.0018046
-6.709e-06
0.00179382
-6.55751e-06
0.00178324
-6.38668e-06
0.00177287
-6.19643e-06
0.00176275
-5.98707e-06
0.00175291
-5.84549e-06
0.00174344
-5.59665e-06
0.00173412
-5.15532e-06
0.00172506
-4.86636e-06
0.00171672
-3.78855e-06
0.00170782
-4.30735e-06
0.00170001
-3.94417e-06
0.00168929
-6.06184e-06
0.00167557
-8.08847e-06
0.00165714
-2.67237e-05
0.00162653
-3.85109e-05
0.00158742
-0.000109317
0.00153467
-0.000180162
0.00149724
-0.000414678
0.00149734
-0.000874245
0.00169752
-0.000256572
0.000448779
6.21695e-05
0.000747914
-1.80682e-06
0.000948807
3.08645e-06
0.000901999
-4.84507e-05
0.000764337
-3.33598e-06
0.000689363
-2.88932e-06
0.000251632
-2.53264e-06
0.000208643
0.00016871
6.52057e-06
0.000162189
1.34795e-05
0.000201684
0.000244502
2.06094e-05
-7.16102e-06
0.000241189
1.04723e-05
-4.36676e-06
0.000198889
0.000157821
2.97397e-06
0.000154846
3.42909e-06
0.000198432
0.000241194
3.42234e-06
-3.33792e-06
0.000240125
4.40471e-06
-1.8871e-06
0.000196979
0.000152957
2.63495e-06
0.000150321
3.34892e-06
0.000196263
0.000238166
5.30546e-06
-4.0247e-06
0.000237743
4.44437e-06
-1.64788e-06
0.000193884
0.000148671
2.33214e-06
0.000146336
2.3168e-06
0.000193897
0.000237278
2.77902e-06
-2.2324e-06
0.000235932
3.57598e-06
-1.4516e-06
0.000193114
0.000144883
1.37474e-06
0.000143508
2.18343e-06
0.000192304
0.00023536
2.75391e-06
-2.92844e-06
0.000235558
2.72933e-06
-1.30115e-06
0.000190676
0.000142206
1.23521e-06
0.000140971
1.27486e-06
0.000190637
0.000234104
2.72947e-06
-2.83366e-06
0.000234229
2.71089e-06
-1.19083e-06
0.000188996
0.000139782
1.14393e-06
0.00013864
1.21383e-06
0.000188929
0.000232712
2.73406e-06
-2.77214e-06
0.000232771
2.71677e-06
-1.11536e-06
0.000187275
0.000137527
1.07787e-06
0.000136453
1.17386e-06
0.000187183
0.000231204
2.74604e-06
-2.72875e-06
0.000231204
2.73308e-06
-1.05986e-06
0.000185518
0.000135396
1.03107e-06
0.000134367
1.15359e-06
0.000185399
0.00022959
2.77201e-06
-2.70409e-06
0.000229532
2.76513e-06
-1.0216e-06
0.000183719
0.000133348
9.99455e-07
0.000132349
1.15103e-06
0.000183568
0.000227871
2.81353e-06
-2.6955e-06
0.000227753
2.81298e-06
-9.9685e-07
0.000181869
0.000131352
9.79978e-07
0.000130371
1.16399e-06
0.000181684
0.000226045
2.87038e-06
-2.70087e-06
0.000225866
2.87598e-06
-9.82969e-07
0.000179963
0.000129386
9.70216e-07
0.000128412
1.19027e-06
0.000179739
0.00022411
2.94132e-06
-2.7178e-06
0.000223869
2.95235e-06
-9.77717e-07
0.000177994
0.00012743
9.68114e-07
0.000126458
1.22769e-06
0.000177729
0.000222066
3.02458e-06
-2.74452e-06
0.000221764
3.04066e-06
-9.79356e-07
0.000175959
0.000125475
9.72327e-07
0.0001245
1.27487e-06
0.000175653
0.000219916
3.11918e-06
-2.78016e-06
0.000219552
3.14053e-06
-9.86928e-07
0.000173858
0.000123511
9.82333e-07
0.000122529
1.33171e-06
0.000173508
0.000217658
3.22584e-06
-2.82494e-06
0.000217232
3.25299e-06
-1.00019e-06
0.000171685
0.00012153
9.97894e-07
0.000120535
1.39845e-06
0.000171288
0.000215289
3.34556e-06
-2.87917e-06
0.000214796
3.37911e-06
-1.01896e-06
0.000169433
0.00011952
1.01917e-06
0.000118507
1.47575e-06
0.000168984
0.000212801
3.47973e-06
-2.94351e-06
0.000212233
3.52051e-06
-1.04341e-06
0.000167092
0.00011747
1.0465e-06
0.000116429
1.56495e-06
0.000166581
0.000210178
3.63057e-06
-3.01946e-06
0.000209526
3.67979e-06
-1.07408e-06
0.000164643
0.000115361
1.08021e-06
0.000114286
1.66724e-06
0.000164062
0.0002074
3.80054e-06
-3.10827e-06
0.000206654
3.85955e-06
-1.11137e-06
0.000162069
0.000113178
1.12087e-06
0.000112059
1.78437e-06
0.000161408
0.000204448
3.99256e-06
-3.21149e-06
0.000203596
4.06278e-06
-1.15586e-06
0.000159351
0.000110902
1.16906e-06
0.000109731
1.91803e-06
0.000158599
0.0002013
4.20967e-06
-3.33074e-06
0.000200331
4.29254e-06
-1.20815e-06
0.000156471
0.000108519
1.22545e-06
0.000107288
2.07011e-06
0.000155619
0.000197938
4.45504e-06
-3.46774e-06
0.000196843
4.55199e-06
-1.26892e-06
0.000153412
0.000106013
1.29071e-06
0.000104716
2.24236e-06
0.000152453
0.000194344
4.73171e-06
-3.62382e-06
0.000193116
4.84362e-06
-1.33873e-06
0.000150161
0.000103372
1.36516e-06
0.000102002
2.43571e-06
0.000149085
0.000190504
5.04123e-06
-3.79899e-06
0.000189132
5.1676e-06
-1.41755e-06
0.000146701
0.000100582
1.44866e-06
9.91327e-05
2.65009e-06
0.000145499
0.000186399
5.38331e-06
-3.99455e-06
0.000184871
5.52607e-06
-1.50591e-06
0.000143013
9.76284e-05
1.54277e-06
9.60896e-05
2.88905e-06
0.000141672
0.000182003
5.76352e-06
-4.21538e-06
0.000180302
5.92694e-06
-1.60609e-06
0.000139071
9.44896e-05
1.65049e-06
9.28469e-05
3.15925e-06
0.000137572
0.000177282
6.19225e-06
-4.46904e-06
0.000175382
6.38256e-06
-1.72162e-06
0.000134836
9.11342e-05
1.77623e-06
8.93675e-05
3.47045e-06
0.000133154
0.000172182
6.68514e-06
-4.76269e-06
0.000170053
6.9045e-06
-1.8559e-06
0.000130258
8.75209e-05
1.92051e-06
8.56088e-05
3.82463e-06
0.000128364
0.000166645
7.24419e-06
-5.10939e-06
0.000164249
7.51428e-06
-2.0148e-06
0.000125276
8.36007e-05
2.09575e-06
8.15094e-05
4.24863e-06
0.000123128
0.00016059
7.91215e-06
-5.53087e-06
0.000157875
8.24647e-06
-2.20852e-06
0.000119806
7.93025e-05
2.3112e-06
7.69897e-05
4.7634e-06
0.000117351
0.000153913
8.72145e-06
-6.05461e-06
0.000150814
9.14491e-06
-2.44976e-06
0.00011374
7.4535e-05
2.58387e-06
7.19431e-05
5.40643e-06
0.000110908
0.000146478
9.73001e-06
-6.72845e-06
0.000142906
1.02851e-05
-2.76079e-06
0.000106927
6.91716e-05
2.9426e-06
6.62162e-05
6.2419e-06
0.000103613
0.000138094
1.10366e-05
-7.63673e-06
0.000133914
1.17976e-05
-3.18165e-06
9.91419e-05
6.30207e-05
3.44134e-06
5.95656e-05
7.38471e-06
9.51826e-05
0.000128466
1.28146e-05
-8.93147e-06
0.000123465
1.39155e-05
-3.78315e-06
9.00194e-05
5.57695e-05
4.17676e-06
5.15816e-05
9.04491e-06
8.51384e-05
0.000117114
1.53804e-05
-1.09021e-05
0.000110929
1.70756e-05
-4.70215e-06
7.89285e-05
4.68707e-05
5.3457e-06
4.15193e-05
1.16482e-05
7.26194e-05
0.000103209
1.93615e-05
-1.42029e-05
9.51881e-05
2.22208e-05
-6.26147e-06
6.46754e-05
3.52558e-05
7.51733e-06
2.77411e-05
1.62569e-05
5.59381e-05
8.52297e-05
2.62175e-05
-2.029e-05
7.39354e-05
3.15929e-05
-8.88674e-06
4.45428e-05
1.88615e-05
1.57099e-05
3.16224e-06
2.88674e-05
3.13981e-05
6.15916e-05
4.12259e-05
-3.26145e-05
4.73922e-05
4.68337e-05
-1.56628e-05
1.44627e-05
-1.24878e-05
6.87054e-06
-1.93433e-05
2.62325e-05
-4.88108e-06
2.83446e-05
4.53026e-05
-1.82384e-05
6.74255e-06
3.98644e-05
-3.89799e-06
-1.92014e-05
-2.32246e-05
3.13545e-06
-2.63425e-05
9.49789e-06
-2.55428e-05
-1.02564e-05
2.65221e-05
-3.96343e-06
-1.87794e-05
1.25112e-05
-1.07243e-06
-2.8413e-05
-2.73976e-05
-2.63843e-06
-2.47431e-05
-3.75224e-06
-2.72797e-05
-2.11574e-05
-1.35107e-06
9.90116e-06
-2.26958e-05
-8.34193e-06
6.26219e-06
-2.36233e-05
-1.84666e-05
-7.31374e-06
-1.11406e-05
-1.13236e-05
-1.95983e-05
-2.45392e-05
-9.46192e-06
3.78074e-06
-2.76843e-05
-6.2106e-07
3.15073e-06
-1.89562e-05
-7.98012e-06
-2.10915e-06
-5.86425e-06
-2.92834e-06
-1.81287e-05
-2.73841e-05
-3.21854e-06
-3.32727e-06
-3.04431e-05
6.39048e-06
-1.22583e-06
-2.02266e-05
-7.08719e-06
2.35299e-06
-9.44124e-06
4.42431e-06
-2.22993e-05
-3.22509e-05
6.23013e-06
-7.0273e-06
-3.64536e-05
1.12217e-05
-3.30853e-06
-2.60248e-05
-1.27551e-05
2.09561e-06
-1.48601e-05
4.34048e-06
-2.82813e-05
-3.82259e-05
6.09877e-06
-4.08772e-06
-4.07675e-05
6.61002e-06
-1.97135e-06
-3.04139e-05
-1.68446e-05
3.27232e-07
-1.71886e-05
6.97358e-07
-3.0804e-05
-4.07267e-05
6.32972e-07
1.08772e-06
-4.04202e-05
-1.42159e-06
4.55546e-07
-3.01951e-05
-1.67526e-05
-1.53664e-06
-1.52384e-05
-2.84458e-06
-2.89138e-05
-3.89409e-05
-4.35525e-06
2.59421e-06
-3.84368e-05
-3.13366e-06
1.48301e-06
-2.78328e-05
-1.37809e-05
-1.21878e-06
-1.25898e-05
-1.75011e-06
-2.73344e-05
-3.79641e-05
-2.26155e-06
3.43004e-07
-3.85111e-05
1.58326e-07
3.19054e-07
-2.73493e-05
-1.23033e-05
4.81798e-07
-1.28215e-05
1.18603e-06
-2.80968e-05
-3.91456e-05
1.7699e-06
-2.03945e-06
-4.05109e-05
3.34941e-06
-1.04573e-06
-2.91376e-05
-1.39074e-05
1.36313e-06
-1.53138e-05
2.9463e-06
-3.0772e-05
-4.18666e-05
4.24143e-06
-3.12331e-06
-4.37209e-05
4.91201e-06
-1.57368e-06
-3.2377e-05
-1.69339e-05
1.65573e-06
-1.86404e-05
3.54468e-06
-3.43263e-05
-4.53107e-05
5.06291e-06
-3.30062e-06
-4.72332e-05
5.14402e-06
-1.68861e-06
-3.60051e-05
-2.03851e-05
1.63575e-06
-2.20829e-05
3.45607e-06
-3.78993e-05
-4.87231e-05
4.85806e-06
-2.95122e-06
-5.04535e-05
4.58095e-06
-1.56272e-06
-3.93721e-05
-2.37159e-05
1.42662e-06
-2.5223e-05
2.95681e-06
-4.09991e-05
-5.16433e-05
4.03126e-06
-2.28745e-06
-5.30112e-05
3.52981e-06
-1.28753e-06
-4.21038e-05
-2.65974e-05
1.10304e-06
-2.77952e-05
2.21519e-06
-4.33305e-05
-5.37609e-05
2.82806e-06
-1.44195e-06
-5.46512e-05
2.18253e-06
-9.23794e-07
-4.39741e-05
-2.88231e-05
7.15314e-07
-2.96488e-05
1.33363e-06
-4.47254e-05
-5.48748e-05
1.39837e-06
-4.92114e-07
-5.52025e-05
6.49429e-07
-5.1058e-07
-4.48498e-05
-3.02782e-05
2.79649e-07
-3.06833e-05
3.40748e-07
-4.50617e-05
-5.48216e-05
-2.19813e-07
5.66034e-07
-5.45008e-05
-1.07563e-06
-5.1677e-08
-4.46024e-05
-3.08668e-05
-2.00861e-07
-3.0803e-05
-7.75774e-07
-4.41923e-05
-5.34528e-05
-2.02003e-06
1.74588e-06
-5.24194e-05
-2.98091e-06
4.75652e-07
-4.30914e-05
-3.04682e-05
-7.67161e-07
-2.98437e-05
-2.00943e-06
-4.20205e-05
-5.0654e-05
-3.97919e-06
3.02172e-06
-4.88349e-05
-5.04491e-06
1.07748e-06
-4.02476e-05
-2.89089e-05
-1.37198e-06
-2.76787e-05
-3.32136e-06
-3.84686e-05
-4.62851e-05
-6.0744e-06
4.39394e-06
-4.35995e-05
-7.28199e-06
1.71993e-06
-3.59647e-05
-2.61005e-05
-2.00575e-06
-2.42353e-05
-4.72678e-06
-3.34126e-05
-4.01944e-05
-8.33326e-06
5.83722e-06
-3.64031e-05
-9.83197e-06
2.45157e-06
-3.01995e-05
-2.19277e-05
-2.54899e-06
-1.95191e-05
-6.22388e-06
-2.66936e-05
-3.23933e-05
-1.04357e-05
7.29463e-06
-2.7757e-05
-1.21385e-05
3.17053e-06
-2.27453e-05
-1.64964e-05
-2.88738e-06
-1.37418e-05
-7.08216e-06
-1.87124e-05
-2.27695e-05
-1.22669e-05
8.93798e-06
-1.70965e-05
-1.48094e-05
3.8962e-06
-1.38384e-05
-9.98706e-06
-3.74772e-06
-6.35583e-06
-8.8563e-06
-8.87299e-06
-1.08484e-05
-1.52802e-05
8.74172e-06
-5.33911e-06
-1.44219e-05
3.83605e-06
-4.11286e-06
-2.64296e-06
-2.75463e-06
-7.00137e-06
-1.25003e-05
-2.74462e-05
1.45264e-05
-4.33906e-05
1.55713e-05
-6.03638e-05
1.66387e-05
-7.62962e-05
1.57202e-05
-9.03853e-05
1.40219e-05
-0.000102242
1.19521e-05
-0.000111651
9.66435e-06
-0.00011865
7.39259e-06
-0.000123185
5.04528e-06
-0.000125351
2.74998e-06
-0.000124997
2.55866e-07
-0.000122122
-2.28305e-06
-0.000116535
-5.05482e-06
-0.000107966
-8.14044e-06
-9.65295e-05
-1.11491e-05
-8.18018e-05
-1.45913e-05
-6.44131e-05
-1.74027e-05
-4.38776e-05
-2.06836e-05
-2.15256e-05
-2.26138e-05
1.05746e-05
-3.24684e-05
5.97296e-06
4.41723e-06
6.45536e-06
-5.93916e-07
1.00879e-05
-3.7661e-06
7.35228e-06
2.55897e-06
4.07025e-06
3.2211e-06
1.52259e-06
2.5026e-06
1.48973e-06
5.63757e-07
8.98649e-07
1.3784e-06
1.66235e-06
1.96659e-06
2.60048e-06
1.81228e-06
3.12856e-06
-2.96711e-06
5.0546e-07
2.81544e-06
1.49487e-06
-3.09296e-07
1.74228e-06
-1.11896e-06
3.63408e-06
4.23295e-06
-2.26473e-06
2.45507e-07
4.71251e-06
-7.67871e-07
-4.50504e-08
3.89287e-06
1.66928e-06
4.56512e-08
1.59426e-06
-8.61819e-08
3.98842e-06
4.99966e-06
-4.16428e-07
-5.38061e-07
4.61234e-06
8.8338e-07
-2.22716e-07
3.63864e-06
1.34177e-06
-9.45969e-08
1.40706e-06
-1.20585e-07
3.62899e-06
4.54052e-06
-9.04613e-08
2.4214e-07
3.66323e-06
5.89992e-07
3.26974e-07
3.51253e-06
1.70348e-06
-7.83848e-07
2.46394e-06
-1.49521e-06
4.17928e-06
3.39752e-06
-1.26483e-06
6.7925e-07
3.06435e-06
-3.9041e-07
2.98672e-07
4.52739e-06
2.73188e-06
1.6511e-08
2.68672e-06
-3.71102e-08
4.54534e-06
2.60006e-06
3.85465e-07
-1.03407e-06
5.87968e-07
3.00613e-06
-4.18509e-07
3.89046e-06
2.24308e-06
3.67117e-07
1.84716e-06
1.36498e-06
2.85906e-06
-2.57162e-06
4.48316e-06
-2.72749e-06
-6.08669e-06
6.20151e-06
-3.3161e-07
4.33535e-07
1.48164e-06
1.68188e-07
1.28421e-06
3.03583e-06
-2.46782e-06
-9.01824e-06
5.92507e-06
-2.82502e-06
-1.18868e-05
5.65568e-06
-4.58628e-07
-4.87818e-06
8.05714e-07
8.46934e-07
-8.47174e-08
2.77708e-06
-6.82219e-06
-1.39871e-05
4.82891e-06
-3.04087e-06
-1.61471e-05
5.16828e-06
-1.03095e-06
-8.88594e-06
-1.12994e-06
9.55397e-07
-2.12674e-06
2.47379e-06
-1.04168e-05
-1.76871e-05
3.96521e-06
-2.68699e-06
-1.94108e-05
4.37842e-06
-1.02808e-06
-1.21276e-05
-3.17135e-06
8.86724e-07
-4.09673e-06
2.05472e-06
-1.33104e-05
-2.05546e-05
3.15193e-06
-2.35784e-06
-2.19623e-05
3.73376e-06
-9.76829e-07
-1.47422e-05
-5.09115e-06
7.82009e-07
-5.90404e-06
1.65517e-06
-1.56372e-05
-2.27964e-05
2.44733e-06
-2.13748e-06
-2.3967e-05
3.26548e-06
-9.31832e-07
-1.68586e-05
-6.87015e-06
6.99198e-07
-7.58716e-06
1.3872e-06
-1.75885e-05
-2.46129e-05
2.00261e-06
-1.98225e-06
-2.56217e-05
2.94958e-06
-9.25195e-07
-1.86599e-05
-8.54412e-06
6.53966e-07
-9.21576e-06
1.19564e-06
-1.92402e-05
-2.60977e-05
1.64196e-06
-1.91931e-06
-2.69914e-05
2.77354e-06
-9.4918e-07
-2.02255e-05
-1.01958e-05
6.80592e-07
-1.08965e-05
1.13852e-06
-2.07181e-05
-2.73583e-05
1.47618e-06
-1.93493e-06
-2.81664e-05
2.71525e-06
-1.04211e-06
-2.16488e-05
-1.19549e-05
7.6658e-07
-1.27493e-05
1.20601e-06
-2.21059e-05
-2.82192e-05
1.22287e-06
-1.9367e-06
-2.90148e-05
2.70631e-06
-1.23503e-06
-2.28445e-05
-1.40002e-05
7.8449e-07
-1.48049e-05
1.11459e-06
-2.32011e-05
-2.88945e-05
9.64303e-07
-1.62551e-06
-2.97371e-05
2.43828e-06
-8.84687e-07
-2.39666e-05
-1.57102e-05
5.44212e-07
-1.62747e-05
6.90253e-07
-2.4137e-05
-2.9753e-05
6.76684e-07
-1.4042e-06
-3.02948e-05
1.91671e-06
-6.75991e-07
-2.48896e-05
-1.69708e-05
5.64383e-07
-1.75549e-05
3.83618e-07
-2.47328e-05
-3.01514e-05
2.11376e-07
-9.84025e-07
-3.06647e-05
1.46853e-06
-7.14895e-07
-2.50257e-05
-1.82898e-05
4.05299e-07
-1.87156e-05
2.64751e-07
-2.49088e-05
-3.02868e-05
-1.4186e-07
-8.22545e-07
-3.0483e-05
9.89255e-07
-5.38919e-07
-2.5217e-05
-1.9276e-05
1.0867e-07
-1.94055e-05
2.6794e-07
-2.54021e-05
-3.00726e-05
-1.73949e-07
-5.52745e-07
-2.91129e-05
-4.46367e-07
-7.4194e-07
-2.52445e-05
-2.01688e-05
-1.10422e-05
-9.13638e-06
-2.4241e-05
-1.20671e-05
-1.45406e-05
-3.88379e-05
-5.14075e-06
-1.80153e-05
8.52037e-06
-1.81836e-06
-1.50468e-05
-1.12493e-05
8.65303e-07
-1.21072e-05
1.44433e-06
-1.56798e-05
-1.89096e-05
2.32324e-06
1.54887e-06
-1.76458e-05
-2.83878e-06
4.10746e-07
-1.45651e-05
-1.17132e-05
-1.55449e-06
-1.01768e-05
-3.78846e-06
-1.23539e-05
-1.43436e-05
-7.11957e-06
8.37117e-06
-6.60196e-06
-1.6146e-05
3.11945e-06
-7.12746e-06
-7.07681e-06
-5.07583e-06
-2.01411e-06
-1.03837e-05
-1.83429e-06
-1.6838e-06
-1.5319e-05
5.11376e-06
4.03373e-07
-7.21235e-06
2.53657e-06
7.29517e-07
5.13703e-07
-6.42243e-06
6.92331e-06
-1.43133e-05
8.60501e-06
9.54179e-06
-2.34713e-05
2.37029e-05
2.76898e-05
-4.18773e-05
1.035e-05
2.19384e-05
1.72586e-05
4.05019e-06
1.31991e-05
9.4217e-06
1.65544e-05
2.027e-05
1.68279e-05
3.31492e-05
3.7351e-05
-5.02467e-05
1.58599e-05
3.38511e-05
2.90412e-05
-3.14111e-05
6.04416e-05
-6.9904e-05
7.23307e-05
8.34004e-05
-0.000115974
-2.11625e-05
7.41676e-05
3.04078e-05
-1.04733e-05
6.16494e-05
4.99377e-05
9.87842e-06
4.05269e-05
2.49261e-05
4.59449e-05
5.36123e-05
4.56446e-05
0.000119026
0.000115152
-0.000180632
6.10417e-05
0.000104116
0.0001014
-1.8482e-05
0.000119899
-4.99455e-05
0.000135534
0.000158348
-9.31578e-05
1.40821e-06
0.000159324
-2.41225e-06
-7.14084e-06
0.000144072
0.000112761
6.17466e-05
5.10186e-05
0.000135708
7.01069e-05
8.51489e-05
0.000209873
5.99153e-05
0.000130403
-0.000105173
2.56102e-05
0.000104399
7.66301e-05
-3.44095e-05
0.000111035
-8.08839e-05
0.000150869
0.000187803
-0.000138295
-0.000103
0.000113759
0.000177039
-4.48016e-05
9.2666e-05
6.62269e-05
2.75412e-05
3.86806e-05
6.47589e-05
5.54434e-05
7.01997e-05
0.000108313
6.31741e-05
0.000118441
-0.00011142
2.7227e-05
9.13855e-05
6.5901e-05
2.56683e-05
4.02282e-05
5.94832e-05
5.75665e-05
7.39347e-05
0.000103985
6.56532e-05
0.000122913
-0.000114635
2.79006e-05
9.53159e-05
6.8126e-05
2.42751e-05
4.38453e-05
5.80744e-05
6.15264e-05
8.05396e-05
0.000100438
7.57277e-05
0.000136237
-0.00013143
3.13792e-05
0.000105871
7.52272e-05
2.24656e-05
5.27625e-05
5.54292e-05
7.28813e-05
9.35558e-05
9.80949e-05
-4.55707e-05
6.06295e-05
7.84701e-05
-1.95567e-05
4.69789e-05
3.3132e-05
-2.58481e-05
5.90102e-05
-6.1253e-05
8.23273e-05
0.000105276
-0.000105865
-4.70231e-05
7.12491e-05
8.102e-05
-1.9513e-05
5.48431e-05
3.9487e-05
-3.05575e-05
7.00536e-05
-7.27289e-05
9.69989e-05
0.000123688
-0.000125167
-4.85227e-05
8.73678e-05
8.48422e-05
-1.97212e-05
6.81973e-05
5.03313e-05
1.84807e-05
3.18526e-05
4.26963e-05
4.39776e-05
5.65974e-05
7.3465e-05
5.70901e-05
9.77645e-05
-9.82342e-05
2.39036e-05
7.71006e-05
5.58066e-05
1.94152e-05
3.64246e-05
4.63537e-05
5.00659e-05
6.36913e-05
8.04695e-05
6.04677e-05
0.000107145
-0.000103923
2.57506e-05
8.47995e-05
6.2158e-05
2.0898e-05
4.12616e-05
4.94936e-05
5.61915e-05
7.18278e-05
8.48245e-05
7.09025e-05
0.000122114
-0.00012119
3.03807e-05
9.67097e-05
7.164e-05
2.08111e-05
5.08323e-05
5.02185e-05
6.72993e-05
8.56735e-05
8.66535e-05
-4.21379e-05
5.50744e-05
7.27388e-05
-1.86921e-05
4.38574e-05
3.21382e-05
-2.38244e-05
5.59329e-05
-5.54863e-05
7.55656e-05
9.54196e-05
-9.58469e-05
-4.64498e-05
6.20498e-05
7.97889e-05
-1.98996e-05
4.90646e-05
3.60088e-05
-2.48387e-05
6.08427e-05
-5.7604e-05
8.18361e-05
0.000102094
-9.76564e-05
-5.13171e-05
6.56147e-05
8.77808e-05
-2.17197e-05
5.22549e-05
3.91156e-05
-2.5395e-05
6.45115e-05
-5.84499e-05
8.53053e-05
0.000106709
-9.95467e-05
-5.34787e-05
6.91897e-05
9.09956e-05
-2.32229e-05
5.50508e-05
4.12884e-05
-2.69082e-05
6.81974e-05
-6.18695e-05
9.00135e-05
0.000112012
-0.000104689
-5.27185e-05
7.50674e-05
8.96655e-05
-2.30022e-05
6.02983e-05
4.51958e-05
-3.18565e-05
7.70541e-05
-7.30738e-05
0.000101517
0.000127161
-0.000125165
-5.17349e-05
8.9962e-05
8.89349e-05
-2.22141e-05
7.19989e-05
5.4843e-05
1.96502e-05
3.5196e-05
4.53785e-05
4.62682e-05
5.81205e-05
7.72225e-05
5.82045e-05
9.94717e-05
-9.95862e-05
2.48265e-05
7.97115e-05
5.99805e-05
2.11194e-05
3.88289e-05
4.90712e-05
5.18389e-05
6.4641e-05
8.38677e-05
6.01863e-05
0.000106084
-0.000101644
2.62692e-05
8.57776e-05
6.50902e-05
2.37815e-05
4.12937e-05
5.48979e-05
5.47067e-05
6.83777e-05
9.25742e-05
6.0266e-05
0.000110502
-0.000102399
2.64256e-05
8.85504e-05
6.77218e-05
2.47141e-05
4.30089e-05
5.67135e-05
5.65536e-05
7.03942e-05
9.68144e-05
6.17287e-05
0.000112519
-0.000103852
2.67343e-05
9.15462e-05
6.97445e-05
2.54986e-05
4.42456e-05
5.89905e-05
5.8057e-05
7.23037e-05
9.92067e-05
6.28822e-05
0.000114902
-0.000105478
2.73001e-05
9.36396e-05
7.15469e-05
2.64114e-05
4.5138e-05
6.07229e-05
5.93308e-05
7.35454e-05
0.000102082
6.39023e-05
0.000117639
-0.000107995
2.81528e-05
9.50813e-05
7.32927e-05
2.65756e-05
4.67196e-05
6.14449e-05
6.02129e-05
7.52356e-05
0.00010385
6.49861e-05
0.000119292
-0.000109042
2.86245e-05
9.65747e-05
7.53458e-05
2.80024e-05
4.73454e-05
6.27778e-05
6.18005e-05
7.57465e-05
0.000106324
6.51973e-05
0.000121476
-0.000110927
2.85374e-05
9.84606e-05
7.58841e-05
2.74873e-05
4.83975e-05
6.33057e-05
6.26427e-05
7.72891e-05
0.000107493
6.64703e-05
0.000122358
-0.000111539
2.93267e-05
9.97862e-05
7.77244e-05
2.88434e-05
4.88808e-05
6.50189e-05
6.36108e-05
7.77036e-05
0.000109673
6.66051e-05
0.000123814
-0.000112715
2.92055e-05
0.000101011
7.80866e-05
2.87984e-05
4.92887e-05
6.612e-05
6.36903e-05
7.92907e-05
0.000110645
6.80367e-05
0.000125177
-0.000113922
3.00138e-05
0.000101714
7.93033e-05
2.96386e-05
4.96659e-05
6.68091e-05
6.45446e-05
7.88938e-05
0.000113094
6.83333e-05
0.000125259
-0.000114698
3.0004e-05
0.000102874
7.96708e-05
2.98636e-05
4.98103e-05
6.83875e-05
6.43449e-05
7.94617e-05
0.000114187
6.80596e-05
0.000124943
-0.00011357
3.00259e-05
0.000102423
7.98111e-05
3.05352e-05
4.92741e-05
7.00312e-05
6.2938e-05
7.72395e-05
0.000117727
6.237e-05
0.000120785
-0.000105958
2.7309e-05
9.80819e-05
7.65396e-05
3.12477e-05
4.52695e-05
7.0126e-05
5.9259e-05
7.23404e-05
0.000118539
6.05079e-05
0.00011287
-0.000101093
2.67485e-05
9.31578e-05
7.19294e-05
-3.05015e-05
0.000102468
-6.89587e-05
0.000131592
0.000160055
-0.000116156
-9.24408e-05
9.75479e-05
0.000154926
-4.057e-05
7.97628e-05
6.18798e-05
-3.25916e-05
9.44786e-05
-7.29118e-05
0.000120083
0.000147253
-0.000122628
-7.92425e-05
9.31284e-05
0.000133361
-3.48042e-05
7.56481e-05
5.9671e-05
-3.39837e-05
9.36532e-05
-7.6554e-05
0.000118218
0.000145133
-0.000128556
-7.76897e-05
9.19294e-05
0.000130897
-3.48028e-05
7.53297e-05
5.88489e-05
-3.37243e-05
9.25732e-05
-7.69421e-05
0.000118547
0.000144724
-0.000129735
-7.76919e-05
9.16837e-05
0.000130734
-3.41159e-05
7.49727e-05
5.84583e-05
-3.43217e-05
9.27805e-05
-7.7037e-05
0.000117688
0.000143413
-0.000128766
-7.79728e-05
9.04072e-05
0.000130978
-3.48163e-05
7.45314e-05
5.7964e-05
-3.30051e-05
9.09763e-05
-7.50512e-05
0.000116567
0.000142133
-0.000126772
-8.01554e-05
8.76228e-05
0.000134666
-3.54649e-05
7.18816e-05
5.55103e-05
-3.11906e-05
8.67331e-05
-7.04298e-05
0.000111075
0.000135366
-0.000118157
-7.96353e-05
8.11225e-05
0.000133901
-3.53185e-05
6.67345e-05
5.14249e-05
-2.99178e-05
8.13902e-05
-6.67425e-05
0.000103481
0.000126717
-0.000112307
7.68131e-05
0.00017867
-0.000128774
3.38555e-05
0.000146468
0.000115226
4.50894e-05
7.01458e-05
0.00010252
8.90026e-05
0.000109342
0.000171859
8.33204e-05
0.000165288
-0.000139264
3.70072e-05
0.00013532
0.000107144
4.0154e-05
6.69898e-05
9.01583e-05
8.53108e-05
0.00010454
0.000150912
8.65996e-05
0.00016243
-0.00014449
3.85751e-05
0.000133333
0.000105569
3.99309e-05
6.56417e-05
8.96183e-05
8.36496e-05
0.000102721
0.000149326
8.52713e-05
0.000159438
-0.000141991
3.82353e-05
0.000130686
0.000103877
4.04396e-05
6.34372e-05
8.98902e-05
8.12342e-05
9.84331e-05
0.000150893
7.87057e-05
0.000151754
-0.000132029
3.55366e-05
0.000124408
9.89707e-05
4.04804e-05
5.84917e-05
9.08647e-05
7.40216e-05
9.12829e-05
0.000151338
7.45482e-05
0.000140788
-0.000124091
3.31723e-05
0.000115492
9.16115e-05
-3.71005e-05
0.000128734
-8.37543e-05
0.000162091
0.000197636
-0.000140596
-0.000115429
0.000120076
0.000192975
-5.14938e-05
9.81936e-05
7.72174e-05
-3.98804e-05
0.000117109
-8.87569e-05
0.000147063
0.000179148
-0.00014783
-9.83699e-05
0.000112226
0.000165287
-4.39095e-05
9.26154e-05
7.32042e-05
-4.05061e-05
0.000113712
-9.11837e-05
0.000143292
0.000174198
-0.000153157
-9.60773e-05
0.000109035
0.000161236
-4.23846e-05
8.95979e-05
7.13234e-05
-3.99223e-05
0.000111239
-9.0254e-05
0.000139929
0.000169816
-0.000151036
-9.6684e-05
0.000105042
0.000161456
-4.26016e-05
8.58413e-05
6.86339e-05
-3.60249e-05
0.000104658
-8.36501e-05
0.000133465
0.00016158
-0.000140188
-9.69615e-05
9.64063e-05
0.000162134
-4.23602e-05
7.88701e-05
6.22971e-05
-3.55187e-05
9.78007e-05
-7.98066e-05
0.000123184
0.00014933
-0.000132738
9.02664e-05
0.000211163
-0.000152096
3.94792e-05
0.000173962
0.000137288
5.35125e-05
8.37731e-05
0.000122075
0.000105407
0.000128118
0.000205121
9.75393e-05
0.000194155
-0.000163569
4.33857e-05
0.000159558
0.000127162
4.73829e-05
7.97761e-05
0.000107184
9.97614e-05
0.000120932
0.00018041
9.95292e-05
0.000188058
-0.000166653
4.37895e-05
0.0001555
0.000123568
4.75087e-05
7.60613e-05
0.000107436
9.55751e-05
0.000116437
0.000179058
9.27527e-05
0.000177777
-0.000154101
4.11283e-05
0.00014722
0.000117175
4.70919e-05
7.00815e-05
0.000106315
8.8001e-05
0.000106982
0.000177104
8.69965e-05
0.000166028
-0.000146083
3.84502e-05
0.000136652
0.00010848
-4.39852e-05
0.000152493
-9.818e-05
0.00019079
0.000231965
-0.000164107
-0.000136177
0.000140396
0.000227732
-6.04401e-05
0.000115083
9.20252e-05
-4.58675e-05
0.000137904
-0.000104141
0.000173346
0.000209081
-0.000172822
-0.000117418
0.000132369
0.000194129
-5.16184e-05
0.000107563
8.62922e-05
-4.79098e-05
0.000134207
-0.000108363
0.00016802
0.000203568
-0.000179561
-0.000112367
0.000127339
0.000188595
-5.03699e-05
0.000106025
8.38379e-05
-4.73152e-05
0.000131151
-0.000106245
0.000164956
0.000198405
-0.00017731
-0.000114225
0.000123096
0.000189535
-5.00426e-05
0.000100771
8.11044e-05
-4.39262e-05
0.000125031
-0.000100045
0.000156886
0.000189447
-0.000166394
-0.000114268
0.000114292
0.000189419
-5.02441e-05
9.28712e-05
7.47853e-05
-4.12905e-05
0.000116171
-9.47098e-05
0.000146177
0.00017543
-0.000155799
0.000108449
0.00024924
-0.000182274
4.86415e-05
0.000206031
0.000164765
6.55776e-05
9.92089e-05
0.000146397
0.000125148
0.000152603
0.000243048
0.000113989
0.000227779
-0.000189171
5.14541e-05
0.000187707
0.000150642
5.61308e-05
9.4524e-05
0.000126479
0.000117335
0.000143088
0.000211181
0.000118199
0.000223016
-0.000198132
5.22217e-05
0.000183323
0.000146741
5.49767e-05
9.17724e-05
0.000122614
0.000115671
0.000140122
0.000205512
0.000116186
0.000217653
-0.000193722
5.17198e-05
0.000180144
0.000143489
5.47866e-05
8.87066e-05
0.000124888
0.000110033
0.000135365
0.000207176
0.000108729
0.000205873
-0.000179244
4.81951e-05
0.000170583
0.00013689
5.53356e-05
8.15693e-05
0.0001236
0.000102296
0.000123067
0.000206413
0.000101405
0.000191647
-0.00016998
4.48786e-05
0.000158811
0.000126452
-5.05887e-05
0.000177038
-0.00011543
0.000223653
0.000269095
-0.000192876
-0.000158402
0.000162939
0.000264558
-7.05292e-05
0.00013578
0.000106507
-5.56378e-05
0.000162146
-0.00012203
0.000202171
0.000245518
-0.00020461
-0.000135619
0.00015394
0.000227195
-6.07389e-05
0.000127291
0.000101408
-5.66599e-05
0.000158068
-0.0001273
0.000197931
0.000239673
-0.000213034
-0.000131699
0.000150036
0.000221334
-5.88118e-05
0.000125043
9.9256e-05
-5.6011e-05
0.000155266
-0.000126076
0.000195109
0.000235799
-0.000211839
-0.000133262
0.000146704
0.000222357
-5.84279e-05
0.000120274
9.6838e-05
-5.26641e-05
0.000149502
-0.000119652
0.000187262
0.000226059
-0.000199005
-0.000134003
0.000135511
0.000224552
-5.93746e-05
0.000112634
9.01282e-05
-5.06398e-05
0.000140769
-0.000112996
0.000174991
0.000212351
-0.000189835
0.000132884
0.000300954
-0.000221486
5.94438e-05
0.000248432
0.000200213
7.86247e-05
0.000121589
0.000174433
0.000152624
0.000184128
0.000291259
0.000138282
0.000277681
-0.000231835
6.2562e-05
0.000228345
0.000184152
6.77409e-05
0.000116411
0.000150856
0.00014523
0.000175053
0.000253484
0.00014602
0.000273144
-0.000244112
6.59913e-05
0.00022526
0.000182402
6.76459e-05
0.000114756
0.000148075
0.00014483
0.000174522
0.000246697
0.000147621
0.000273068
-0.000246167
6.76522e-05
0.000224799
0.000182408
6.76901e-05
0.000114718
0.000148704
0.000143784
0.000173399
0.000248374
0.000148315
0.000273335
-0.000248252
6.64293e-05
0.00022567
0.000181147
6.58251e-05
0.000115321
0.00014809
0.000143405
0.000175049
0.000246375
0.000150821
0.000273696
-0.00024947
6.67224e-05
0.000227502
0.000182043
6.6673e-05
0.000115369
0.000149229
0.000144945
0.000174086
0.000248838
0.000151258
0.000274812
-0.000251987
6.84087e-05
0.000227793
0.000183776
6.80299e-05
0.000115745
0.000151748
0.000144073
0.000174618
0.000251939
0.00015239
0.000275686
-0.000253459
6.7117e-05
0.000229345
0.00018286
6.6473e-05
0.000116387
0.000151643
0.000144175
0.000176772
0.000250555
0.000154707
0.000277888
-0.000255822
6.76469e-05
0.000231236
0.000184034
6.73817e-05
0.000116654
0.000153942
0.000144677
0.000176266
0.000255568
0.000153093
0.00027731
-0.000254134
6.7702e-05
0.000230068
0.000184359
6.96205e-05
0.000114739
0.000158834
0.000140858
0.000172332
0.000263814
0.000144339
0.000269153
-0.00024116
6.32347e-05
0.000221968
0.000177972
7.05185e-05
0.00010745
0.000157886
0.000134604
0.000162486
0.000264562
0.000138984
0.000255811
-0.000232399
6.28059e-05
0.000211028
0.000170144
-7.30569e-05
0.000243329
-0.000164752
0.000302521
0.000364808
-0.000273706
-0.00020815
0.000226715
0.000346209
-9.22502e-05
0.000186756
0.000150954
-8.04766e-05
0.000231409
-0.000180642
0.000286898
0.000344309
-0.000298242
-0.000174672
0.000231358
0.000287625
-7.8171e-05
0.000190393
0.000153243
-9.98142e-05
0.000253071
-0.000223986
0.000314563
0.000378196
-0.000370821
-0.000163154
0.000272008
0.000269353
-7.34629e-05
0.000224871
0.000179639
6.30291e-05
0.000116598
0.000142324
0.000145638
0.000174905
0.000239412
0.000179916
0.000292946
-0.000298042
8.21812e-05
0.000243583
0.000198654
7.10311e-05
0.000127704
0.000153955
0.000160565
0.00019296
0.000253944
0.00018484
0.000316478
-0.000308378
8.31943e-05
0.000262282
0.000210844
7.39887e-05
0.000136895
0.000166622
0.000169607
0.000204874
0.000278235
0.000187629
0.00033059
-0.000313407