/*--------------------------------*- C++ -*----------------------------------*\
| =========                 |                                                 |
| \\      /  F ield         | OpenFOAM: The Open Source CFD Toolbox           |
|  \\    /   O peration     | Version:  v2006                                 |
|   \\  /    A nd           | Website:  www.openfoam.com                      |
|    \\/     M anipulation  |                                                 |
\*---------------------------------------------------------------------------*/
FoamFile
{
    version     2.0;
    format      ascii;
    class       volScalarField;
    location    "0.038";
    object      rho;
}
// * * * * * * * * * * * * * * * * * * * * * * * * * * * * * * * * * * * * * //

dimensions      [1 -3 0 0 0 0 0];


internalField   nonuniform List<scalar> 
9148
(
1.71415
1.71423
1.7142
1.7142
1.7142
1.71424
1.71431
1.71442
1.71454
1.71466
1.71479
1.71492
1.71506
1.71521
1.71537
1.71553
1.71571
1.71589
1.71608
1.71628
1.71649
1.7167
1.71693
1.71715
1.71739
1.71763
1.71787
1.71812
1.71837
1.71862
1.71888
1.71914
1.7194
1.71966
1.71992
1.72018
1.72044
1.72069
1.72095
1.7212
1.72145
1.72169
1.72193
1.72217
1.7224
1.72262
1.72283
1.72304
1.72324
1.72344
1.72362
1.7238
1.72396
1.72412
1.72427
1.7244
1.72453
1.72464
1.72474
1.72483
1.72489
1.72495
1.72499
1.72501
1.72498
1.725
1.72503
1.72509
1.72526
1.72552
1.72565
1.72552
1.72524
1.72552
1.72555
1.72546
1.72538
1.72504
1.72486
1.72525
1.72536
1.72525
1.72512
1.72471
1.72459
1.72502
1.72516
1.7251
1.72494
1.72451
1.72445
1.72487
1.72504
1.725
1.72483
1.72441
1.72439
1.72479
1.72497
1.72495
1.72477
1.72437
1.72437
1.72475
1.72494
1.72493
1.72475
1.72438
1.72439
1.72475
1.72493
1.72494
1.72476
1.72442
1.72445
1.72477
1.72496
1.72498
1.7248
1.72448
1.72452
1.72482
1.725
1.72503
1.72486
1.72456
1.72461
1.72489
1.72507
1.72511
1.72494
1.72467
1.72473
1.72498
1.72516
1.72521
1.72505
1.7248
1.72487
1.72511
1.72527
1.72535
1.72519
1.72496
1.72505
1.72526
1.72542
1.72551
1.72536
1.72516
1.72526
1.72545
1.72559
1.7257
1.72556
1.72538
1.72549
1.72566
1.72579
1.7259
1.72577
1.72562
1.72573
1.72588
1.72601
1.72613
1.726
1.72586
1.72598
1.72611
1.72623
1.72636
1.72624
1.72611
1.72622
1.72635
1.72647
1.72659
1.72648
1.72635
1.72647
1.72659
1.7267
1.72683
1.72673
1.72661
1.72675
1.72685
1.72695
1.7271
1.727
1.7269
1.72705
1.72714
1.72723
1.7274
1.72731
1.72723
1.72741
1.72747
1.72756
1.72774
1.72767
1.72762
1.72782
1.72786
1.72793
1.72814
1.72808
1.72805
1.72828
1.72829
1.72834
1.72857
1.72853
1.72851
1.72874
1.72875
1.72879
1.72902
1.72898
1.72898
1.7292
1.7292
1.72924
1.72948
1.72944
1.72943
1.72965
1.72965
1.72969
1.72991
1.72988
1.72987
1.73008
1.73009
1.73012
1.73035
1.73031
1.73031
1.73054
1.73053
1.73056
1.73079
1.73077
1.73079
1.73106
1.73102
1.73103
1.7313
1.7313
1.73135
1.73167
1.73159
1.73158
1.73189
1.73191
1.732
1.73236
1.73226
1.73222
1.73258
1.73262
1.73273
1.73312
1.733
1.73295
1.73334
1.73339
1.7335
1.73391
1.7338
1.73374
1.73415
1.7342
1.7343
1.73472
1.73462
1.73456
1.73496
1.73501
1.7351
1.7355
1.73543
1.73538
1.73576
1.7358
1.73587
1.73631
1.73623
1.73618
1.73653
1.73662
1.73674
1.73742
1.7373
1.73707
1.73715
1.73646
1.73415
1.73309
1.73388
1.73638
1.7344
1.73341
1.7332
1.73318
1.73347
1.73393
1.73409
1.73362
1.73323
1.73328
1.73372
1.73423
1.73405
1.73369
1.7335
1.73371
1.73378
1.73384
1.73367
1.73362
1.73352
1.73368
1.73374
1.73381
1.73364
1.73358
1.73355
1.73365
1.73367
1.73375
1.73364
1.73356
1.73351
1.73356
1.73369
1.73379
1.73377
1.73368
1.73352
1.73365
1.73385
1.73393
1.73399
1.73392
1.73372
1.73384
1.73403
1.73409
1.73413
1.73408
1.73389
1.73397
1.73416
1.73421
1.73426
1.73423
1.73405
1.7342
1.73432
1.73432
1.73432
1.73436
1.7343
1.73438
1.73435
1.73429
1.73424
1.73431
1.73437
1.73434
1.73426
1.73419
1.73412
1.7342
1.73429
1.73424
1.73412
1.73405
1.73398
1.73403
1.73415
1.73407
1.73397
1.73393
1.73391
1.73393
1.73399
1.73395
1.73393
1.73393
1.73398
1.73397
1.73396
1.73402
1.73406
1.73408
1.73419
1.73417
1.73412
1.73421
1.73427
1.7343
1.73443
1.73439
1.73433
1.73446
1.73453
1.73457
1.7347
1.73465
1.73458
1.73469
1.73477
1.73483
1.73495
1.73489
1.73482
1.73494
1.73501
1.73507
1.73519
1.73512
1.73505
1.73516
1.73522
1.7353
1.7354
1.73532
1.73526
1.73535
1.73539
1.73548
1.73557
1.73547
1.73543
1.73548
1.73552
1.73562
1.73569
1.73557
1.73554
1.73558
1.73559
1.73571
1.73571
1.73561
1.7356
1.73558
1.73557
1.73566
1.73592
1.73598
1.73579
1.73555
1.73534
1.73517
1.73503
1.73493
1.73488
1.73488
1.73492
1.73501
1.73515
1.73532
1.73552
1.73571
1.7359
1.73607
1.73618
1.73622
1.73625
1.73623
1.73622
1.73612
1.73604
1.73589
1.73609
1.73506
1.73662
1.73625
1.73616
1.73486
1.73791
1.73626
1.73585
1.73581
1.73575
1.73582
1.73584
1.73588
1.7359
1.73576
1.73595
1.73559
1.73625
1.73603
1.73581
1.73604
1.73586
1.73565
1.73601
1.73525
1.73635
1.73567
1.73572
1.73602
1.73536
1.73552
1.73562
1.73574
1.73554
1.73595
1.73499
1.73527
1.73596
1.73588
1.73576
1.73487
1.73542
1.73552
1.73584
1.73596
1.73607
1.73619
1.73455
1.73594
1.73564
1.73592
1.73599
1.73615
1.73385
1.73621
1.73575
1.73589
1.73588
1.73589
1.73458
1.73606
1.73562
1.73585
1.73589
1.73575
1.73543
1.73659
1.73569
1.73595
1.73593
1.73588
1.7358
1.73562
1.73589
1.73589
1.73591
1.73583
1.73592
1.73548
1.73595
1.73591
1.7359
1.73588
1.7356
1.73539
1.73601
1.7359
1.73593
1.73598
1.73577
1.73578
1.73598
1.73595
1.73598
1.73606
1.73572
1.73603
1.73603
1.73604
1.73617
1.73617
1.73611
1.73627
1.73632
1.73631
1.73647
1.73648
1.73641
1.73657
1.73665
1.73665
1.73685
1.73685
1.73674
1.73694
1.73704
1.73704
1.73724
1.73725
1.73719
1.73746
1.73749
1.73747
1.73774
1.73778
1.73768
1.73759
1.73824
1.73801
1.7386
1.73905
1.73638
1.73869
1.7384
1.7384
1.73866
1.73875
1.73882
1.73907
1.73899
1.73888
1.73907
1.7392
1.73926
1.73946
1.73939
1.73923
1.7395
1.73958
1.73979
1.73972
1.73959
1.73937
1.73948
1.73985
1.74025
1.73919
1.73913
1.73898
1.73851
1.739
1.73944
1.73733
1.73671
1.73587
1.73402
1.73373
1.73352
1.72642
1.72895
1.72814
1.71551
1.71443
1.71323
1.69402
1.70412
1.7059
1.68708
1.68723
1.66859
1.65408
1.67266
1.68044
1.67805
1.67361
1.66729
1.67558
1.68074
1.68423
1.68581
1.68195
1.67738
1.68001
1.68279
1.68533
1.69104
1.6893
1.68659
1.68852
1.68977
1.69141
1.69577
1.69448
1.69263
1.69341
1.69419
1.69556
1.69939
1.69851
1.69711
1.6981
1.6986
1.69935
1.69996
1.69865
1.69794
1.70082
1.7024
1.70273
1.7025
1.70189
1.70121
1.7037
1.7042
1.70457
1.70463
1.70421
1.70395
1.70416
1.70424
1.70462
1.70643
1.70628
1.70609
1.70551
1.70594
1.70606
1.70767
1.70747
1.70696
1.70655
1.70693
1.70734
1.70885
1.70862
1.70798
1.708
1.70824
1.70859
1.70843
1.70806
1.70791
1.70915
1.7095
1.70976
1.70942
1.70921
1.70914
1.70989
1.71012
1.71028
1.70978
1.70954
1.70948
1.71043
1.7107
1.71079
1.71024
1.70999
1.70989
1.71095
1.71121
1.7113
1.71087
1.71064
1.71059
1.71125
1.71166
1.71178
1.71146
1.71134
1.71125
1.71087
1.71099
1.7112
1.71213
1.71184
1.71162
1.71149
1.71153
1.71172
1.71235
1.7123
1.71214
1.7117
1.71167
1.71182
1.71244
1.71234
1.7123
1.71198
1.71183
1.7119
1.71247
1.71243
1.71222
1.7115
1.71163
1.71181
1.71266
1.71268
1.71241
1.71177
1.71188
1.71208
1.71249
1.71239
1.71207
1.71156
1.7117
1.71188
1.7126
1.71262
1.71234
1.71161
1.71174
1.71193
1.71226
1.71221
1.71187
1.71125
1.71144
1.7116
1.71224
1.71227
1.71194
1.71113
1.71133
1.7115
1.71188
1.71182
1.71137
1.7107
1.71098
1.71115
1.71182
1.71184
1.71142
1.71058
1.71084
1.71104
1.71136
1.71129
1.71073
1.70997
1.71034
1.71055
1.7112
1.71114
1.7108
1.70974
1.7101
1.71036
1.71065
1.71043
1.7101
1.70902
1.7093
1.70968
1.71024
1.70984
1.70981
1.70981
1.71012
1.71006
1.70912
1.7092
1.70877
1.70914
1.70936
1.70927
1.70853
1.7086
1.70846
1.70897
1.70921
1.7091
1.70825
1.70819
1.708
1.70798
1.70848
1.70854
1.70757
1.70735
1.70702
1.70742
1.70791
1.70796
1.70712
1.70699
1.70668
1.70696
1.70752
1.70751
1.70639
1.70617
1.70571
1.70583
1.70657
1.70659
1.70551
1.7053
1.70473
1.70544
1.70594
1.70591
1.70602
1.70592
1.70518
1.7037
1.70432
1.70461
1.7051
1.70496
1.70414
1.70307
1.7036
1.70397
1.70443
1.70432
1.70364
1.70253
1.703
1.70326
1.7034
1.70336
1.70273
1.70132
1.70189
1.70215
1.70249
1.70241
1.70171
1.70051
1.70103
1.7013
1.70146
1.7012
1.70085
1.70023
1.70121
1.70134
1.69986
1.69943
1.69873
1.69931
1.70002
1.70013
1.69897
1.69876
1.69824
1.69866
1.69926
1.69927
1.69804
1.69789
1.69741
1.69716
1.69797
1.69805
1.69667
1.6964
1.69574
1.69615
1.69697
1.69706
1.69564
1.69519
1.69447
1.69455
1.69527
1.69563
1.69557
1.69546
1.69437
1.69252
1.69338
1.69382
1.69417
1.6941
1.69323
1.69153
1.69229
1.69267
1.69287
1.69276
1.69183
1.69025
1.69097
1.69138
1.69144
1.69134
1.69053
1.68859
1.68936
1.68982
1.68989
1.68953
1.68914
1.68828
1.68951
1.68962
1.68775
1.68728
1.68649
1.68684
1.68775
1.68789
1.68635
1.68588
1.68515
1.68564
1.68638
1.6864
1.68478
1.68449
1.68377
1.68401
1.68489
1.6849
1.68325
1.68286
1.68205
1.68215
1.6831
1.68315
1.68117
1.68064
1.67961
1.68004
1.68117
1.68115
1.68104
1.68088
1.67947
1.67728
1.6784
1.67884
1.67878
1.67863
1.67754
1.67532
1.6763
1.67694
1.67661
1.67638
1.6752
1.67296
1.67405
1.67464
1.67493
1.67483
1.6737
1.6716
1.67261
1.67306
1.6728
1.67266
1.67143
1.66892
1.67005
1.67062
1.67038
1.66992
1.66879
1.66768
1.66955
1.66979
1.66718
1.66646
1.66494
1.66583
1.66726
1.66739
1.66538
1.66478
1.66366
1.6636
1.66486
1.66491
1.66258
1.66193
1.66086
1.65944
1.66114
1.6616
1.65919
1.65832
1.65685
1.6584
1.65972
1.65972
1.65735
1.65674
1.65546
1.65467
1.65606
1.65658
1.6558
1.65573
1.65382
1.6493
1.65119
1.65232
1.65174
1.65143
1.64972
1.64707
1.64847
1.64927
1.64914
1.64908
1.64751
1.64463
1.64588
1.64645
1.64535
1.6452
1.6437
1.63941
1.64109
1.6421
1.64101
1.64039
1.63841
1.63571
1.63733
1.63826
1.63842
1.63841
1.63662
1.63345
1.63496
1.63562
1.63439
1.63435
1.63262
1.62771
1.62962
1.63072
1.62886
1.62811
1.62565
1.62245
1.62448
1.62562
1.62577
1.62578
1.62375
1.62007
1.62183
1.62272
1.62081
1.62084
1.61878
1.61268
1.61496
1.61637
1.61387
1.61295
1.60994
1.60643
1.60879
1.61043
1.61005
1.60908
1.60752
1.60585
1.6091
1.60887
1.60375
1.6023
1.59991
1.59625
1.59919
1.59995
1.59499
1.59298
1.58976
1.59224
1.59424
1.59459
1.59187
1.591
1.58902
1.5835
1.58422
1.58546
1.58279
1.58278
1.58113
1.56871
1.57325
1.57547
1.57444
1.57375
1.57049
1.56631
1.56926
1.57036
1.56855
1.56862
1.56623
1.5572
1.56095
1.56251
1.55448
1.55226
1.54724
1.54159
1.5458
1.5479
1.54795
1.54761
1.54436
1.53834
1.54173
1.54285
1.53621
1.53597
1.53186
1.51384
1.52134
1.5263
1.5218
1.52076
1.51648
1.51336
1.51666
1.51968
1.50851
1.50567
1.50392
1.48671
1.49372
1.49614
1.4862
1.48181
1.4746
1.47833
1.48183
1.48274
1.47682
1.47399
1.46856
1.44963
1.45754
1.46105
1.45028
1.44455
1.43507
1.4283
1.433
1.43688
1.42416
1.42255
1.41517
1.3883
1.40336
1.41001
1.39564
1.3893
1.379
1.36897
1.3769
1.37974
1.36627
1.35663
1.33673
1.33698
1.34594
1.35037
1.32252
1.30985
1.28749
1.30037
1.31068
1.31828
1.31361
1.29936
1.26783
1.26257
1.29556
1.30774
1.30634
1.29466
1.25954
1.28636
1.31455
1.31888
1.35962
1.35738
1.33623
1.37163
1.38962
1.3946
1.41347
1.40632
1.38982
1.40276
1.41682
1.42511
1.43414
1.42488
1.4124
1.42213
1.4327
1.44217
1.44872
1.43877
1.42957
1.43687
1.44456
1.45418
1.45855
1.44894
1.44261
1.44838
1.45367
1.46253
1.466
1.45743
1.45321
1.45798
1.46162
1.46933
1.47228
1.46495
1.46206
1.46605
1.46853
1.4751
1.4776
1.47152
1.46958
1.47298
1.4746
1.47998
1.48219
1.47733
1.4761
1.47899
1.48003
1.48433
1.48643
1.48251
1.48167
1.48414
1.48485
1.48834
1.49036
1.48711
1.48653
1.4887
1.48917
1.49209
1.49403
1.49122
1.49086
1.49278
1.49305
1.49558
1.49744
1.49494
1.49475
1.49646
1.49662
1.49886
1.50063
1.49842
1.49827
1.4998
1.49995
1.50201
1.50371
1.50163
1.50146
1.50285
1.50307
1.50503
1.50663
1.50466
1.50441
1.50566
1.50599
1.50786
1.50934
1.50747
1.50712
1.50829
1.50871
1.51049
1.51189
1.51011
1.50966
1.51078
1.51127
1.51296
1.51425
1.51257
1.51203
1.5131
1.51364
1.51522
1.51648
1.51489
1.51429
1.5153
1.51592
1.51734
1.51852
1.51705
1.51639
1.51735
1.51801
1.5193
1.52045
1.51909
1.51839
1.5193
1.51998
1.52117
1.52223
1.52097
1.52026
1.52111
1.52181
1.5229
1.52391
1.52275
1.52204
1.52284
1.52353
1.52452
1.52544
1.52439
1.52369
1.52445
1.52512
1.526
1.52688
1.52594
1.52527
1.52599
1.52662
1.52741
1.52819
1.52736
1.52674
1.52741
1.528
1.52869
1.52944
1.52871
1.52813
1.52875
1.5293
1.52992
1.53059
1.52995
1.5294
1.52998
1.53049
1.53103
1.53169
1.53111
1.5306
1.53114
1.53162
1.5321
1.53269
1.53217
1.5317
1.53219
1.53264
1.53307
1.53364
1.53318
1.53273
1.53319
1.53361
1.534
1.53451
1.5341
1.53368
1.5341
1.53449
1.53484
1.53534
1.53496
1.53457
1.53496
1.53533
1.53564
1.5361
1.53576
1.53539
1.53576
1.5361
1.53638
1.53683
1.53651
1.53617
1.53651
1.53683
1.53709
1.53749
1.5372
1.53688
1.53719
1.5375
1.53774
1.53813
1.53786
1.53755
1.53785
1.53813
1.53836
1.53872
1.53846
1.53818
1.53844
1.53872
1.53893
1.53928
1.53904
1.53876
1.53901
1.53927
1.53947
1.53979
1.53956
1.5393
1.53953
1.53978
1.53997
1.54028
1.54006
1.5398
1.54002
1.54026
1.54044
1.54073
1.54052
1.54027
1.54047
1.5407
1.54088
1.54116
1.54095
1.54071
1.54089
1.54113
1.5413
1.54156
1.54136
1.54112
1.54128
1.54152
1.54168
1.54194
1.54174
1.5415
1.54166
1.54189
1.54206
1.54229
1.54209
1.54186
1.542
1.54223
1.5424
1.54263
1.54243
1.5422
1.54233
1.54256
1.54272
1.54294
1.54274
1.54251
1.54263
1.54286
1.54303
1.54324
1.54304
1.54281
1.54293
1.54315
1.54332
1.54352
1.54332
1.54309
1.5432
1.54342
1.54359
1.54378
1.54359
1.54336
1.54346
1.54368
1.54385
1.54403
1.54384
1.54361
1.5437
1.54392
1.54408
1.54427
1.54408
1.54385
1.54393
1.54415
1.54432
1.54449
1.5443
1.54407
1.54415
1.54437
1.54453
1.5447
1.54451
1.54429
1.54436
1.54458
1.54474
1.54489
1.54471
1.54448
1.54455
1.54477
1.54493
1.54509
1.54489
1.54468
1.54474
1.54495
1.54511
1.54526
1.54507
1.54485
1.54491
1.54512
1.54528
1.54543
1.54524
1.54503
1.54507
1.54529
1.54545
1.54559
1.5454
1.54519
1.54523
1.54544
1.5456
1.54574
1.54555
1.54534
1.54538
1.54559
1.54575
1.54588
1.54569
1.54549
1.54552
1.54573
1.54589
1.54602
1.54583
1.54562
1.54566
1.54587
1.54603
1.54615
1.54596
1.54575
1.54578
1.54599
1.54615
1.54628
1.54608
1.54588
1.54591
1.54611
1.54628
1.54639
1.5462
1.546
1.54602
1.54623
1.54639
1.54651
1.54631
1.54611
1.54613
1.54634
1.5465
1.54661
1.54642
1.54622
1.54624
1.54644
1.54661
1.54671
1.54652
1.54632
1.54634
1.54654
1.54671
1.54681
1.54661
1.54642
1.54643
1.54663
1.5468
1.5469
1.54671
1.54651
1.54652
1.54673
1.54689
1.54699
1.54679
1.5466
1.54661
1.54681
1.54698
1.54707
1.54688
1.54668
1.54669
1.54689
1.54707
1.54716
1.54696
1.54676
1.54677
1.54697
1.54714
1.54723
1.54703
1.54684
1.54685
1.54705
1.54722
1.54731
1.54711
1.54691
1.54692
1.54712
1.54729
1.54737
1.54718
1.54698
1.54699
1.54718
1.54736
1.54744
1.54724
1.54705
1.54705
1.54725
1.54742
1.5475
1.5473
1.54711
1.54711
1.54731
1.54749
1.54757
1.54736
1.54717
1.54717
1.54737
1.54754
1.54762
1.54742
1.54723
1.54723
1.54742
1.5476
1.54768
1.54747
1.54728
1.54728
1.54747
1.54765
1.54772
1.54752
1.54733
1.54733
1.54752
1.54771
1.54777
1.54757
1.54738
1.54737
1.54757
1.54775
1.54781
1.54761
1.54742
1.54741
1.54761
1.54779
1.54786
1.54765
1.54746
1.54745
1.54765
1.54783
1.54789
1.54769
1.5475
1.54749
1.54768
1.54787
1.54793
1.54772
1.54753
1.54751
1.54771
1.5479
1.54795
1.54775
1.54756
1.54754
1.54774
1.54793
1.54798
1.54777
1.54758
1.54756
1.54776
1.54795
1.548
1.54779
1.5476
1.54758
1.54778
1.54797
1.54802
1.54781
1.54761
1.54759
1.54779
1.54798
1.54803
1.54782
1.54763
1.54761
1.54781
1.548
1.54805
1.54784
1.54765
1.54762
1.54782
1.54802
1.54808
1.54786
1.54767
1.54765
1.54785
1.54805
1.54811
1.54788
1.54769
1.54766
1.54788
1.54807
1.54817
1.54794
1.54774
1.54773
1.54795
1.54816
1.54828
1.54805
1.54784
1.54785
1.54808
1.54829
1.54846
1.5482
1.54797
1.54803
1.54825
1.54852
1.54917
1.54872
1.54846
1.54935
1.54959
1.55005
1.55009
1.54975
1.54961
1.5506
1.55364
1.55465
1.55455
1.55759
1.56062
1.56126
1.56114
1.56338
1.56515
1.56664
1.56768
1.56866
1.56953
1.57026
1.57081
1.57119
1.57145
1.57162
1.57174
1.57181
1.57186
1.57189
1.57191
1.57192
1.57191
1.5719
1.57188
1.57186
1.57186
1.57184
1.57184
1.57194
1.57199
1.57203
1.5721
1.57218
1.57228
1.5724
1.57256
1.57274
1.57295
1.57318
1.57341
1.57363
1.57378
1.57385
1.57391
1.57398
1.57409
1.57422
1.57436
1.57452
1.57468
1.57486
1.57506
1.57527
1.57552
1.5758
1.57612
1.57649
1.57691
1.57739
1.57794
1.57856
1.57927
1.58006
1.58096
1.58197
1.5831
1.58436
1.58576
1.5873
1.589
1.59086
1.59289
1.59509
1.59745
1.59999
1.60268
1.60552
1.6085
1.6116
1.61481
1.61811
1.62148
1.6249
1.62834
1.63179
1.63523
1.63864
1.64201
1.64531
1.64855
1.65171
1.65477
1.65774
1.66061
1.66338
1.66604
1.66859
1.67104
1.67338
1.67562
1.67775
1.67979
1.68173
1.68357
1.68533
1.687
1.68859
1.6901
1.69153
1.69289
1.69418
1.69541
1.69657
1.69767
1.69871
1.6997
1.70064
1.70152
1.70236
1.70316
1.70391
1.70462
1.70529
1.70593
1.70653
1.7071
1.70765
1.70816
1.70864
1.7091
1.70953
1.70994
1.71032
1.71068
1.71102
1.71134
1.71163
1.71191
1.71216
1.7124
1.71262
1.71283
1.71302
1.71319
1.71334
1.71348
1.7136
1.7137
1.7138
1.71391
1.71407
1.71417
1.7142
1.71418
1.71426
1.71448
1.71464
1.71475
1.71484
1.71493
1.71503
1.71514
1.71526
1.71538
1.71552
1.71567
1.71583
1.716
1.71618
1.71637
1.71657
1.71678
1.71699
1.71721
1.71744
1.71768
1.71792
1.71816
1.71841
1.71866
1.71891
1.71916
1.71942
1.71968
1.71993
1.72019
1.72045
1.7207
1.72096
1.72121
1.72145
1.7217
1.72193
1.72216
1.72239
1.72261
1.72282
1.72302
1.72322
1.72341
1.72359
1.72375
1.72391
1.72406
1.7242
1.72433
1.72445
1.72456
1.72467
1.72478
1.72487
1.72495
1.725
1.72509
1.72521
1.72524
1.72524
1.72519
1.72515
1.72513
1.72511
1.72509
1.72509
1.72509
1.7251
1.72511
1.72513
1.72515
1.72518
1.72521
1.72525
1.72529
1.72534
1.7254
1.72546
1.72553
1.72561
1.72569
1.72578
1.72587
1.72597
1.72607
1.72618
1.72629
1.7264
1.72651
1.72663
1.72675
1.72686
1.72699
1.72711
1.72725
1.72739
1.72754
1.7277
1.72787
1.72806
1.72825
1.72846
1.72867
1.72889
1.72912
1.72934
1.72957
1.72978
1.73
1.73022
1.73043
1.73065
1.73088
1.73111
1.73136
1.73163
1.73193
1.73224
1.73259
1.73295
1.73333
1.73373
1.73413
1.73454
1.73494
1.73535
1.73573
1.73613
1.73647
1.73682
1.73702
1.73702
1.73675
1.7362
1.73587
1.7359
1.73559
1.7343
1.73372
1.73385
1.73366
1.73386
1.73368
1.73386
1.73378
1.73394
1.73397
1.73409
1.73413
1.7342
1.73423
1.73427
1.73425
1.73422
1.73417
1.73412
1.73406
1.734
1.73394
1.73392
1.73391
1.73394
1.734
1.73409
1.73421
1.73432
1.73447
1.73461
1.73475
1.73489
1.73503
1.73516
1.73529
1.73541
1.73553
1.73563
1.73574
1.73581
1.7359
1.73593
1.73596
1.736
1.73581
1.73578
1.73597
1.73593
1.73574
1.73572
1.73586
1.7358
1.73562
1.73525
1.73549
1.73552
1.73555
1.73533
1.73527
1.73519
1.73497
1.73505
1.73514
1.73498
1.73488
1.73478
1.73472
1.73451
1.7351
1.73554
1.73568
1.73557
1.73541
1.73531
1.73544
1.73531
1.73517
1.7349
1.7347
1.73508
1.73518
1.73505
1.73493
1.73483
1.73491
1.73477
1.73468
1.73451
1.7343
1.73457
1.73462
1.73448
1.73442
1.73431
1.73434
1.73421
1.73418
1.73412
1.73395
1.73409
1.7341
1.73401
1.734
1.73395
1.73395
1.73391
1.73391
1.73387
1.73386
1.73391
1.73391
1.73393
1.73391
1.73396
1.73397
1.73402
1.73399
1.73392
1.73401
1.73407
1.73408
1.73412
1.73409
1.73416
1.73417
1.73419
1.73416
1.73409
1.73405
1.73423
1.7342
1.73416
1.73413
1.73422
1.73417
1.7341
1.73401
1.73425
1.73447
1.73414
1.7341
1.73395
1.7336
1.73391
1.7339
1.73369
1.7333
1.73451
1.73566
1.73409
1.73382
1.73356
1.73344
1.73454
1.73382
1.73381
1.73464
1.73683
1.73739
1.73679
1.73456
1.73492
1.73666
1.73767
1.73649
1.73684
1.73718
1.73737
1.7371
1.7374
1.73695
1.73688
1.73702
1.73711
1.73701
1.737
1.73691
1.73684
1.73659
1.73692
1.73698
1.73686
1.7367
1.73664
1.73668
1.73639
1.73628
1.73624
1.73574
1.73609
1.73608
1.73571
1.73566
1.7354
1.73535
1.73495
1.73494
1.73512
1.73444
1.73465
1.73456
1.73415
1.73419
1.73388
1.73376
1.73337
1.73344
1.73374
1.73306
1.73315
1.733
1.73265
1.73274
1.73248
1.73232
1.73201
1.73212
1.73244
1.73189
1.7319
1.73173
1.73146
1.73158
1.73139
1.73121
1.73098
1.7311
1.7314
1.73095
1.73093
1.73075
1.73054
1.73065
1.73049
1.73032
1.7301
1.73022
1.73052
1.73008
1.73005
1.72989
1.72967
1.72978
1.72961
1.72945
1.72922
1.72933
1.72964
1.72921
1.72916
1.729
1.72879
1.7289
1.72874
1.72858
1.72837
1.72849
1.7288
1.72841
1.72834
1.72818
1.728
1.72812
1.72799
1.72783
1.72766
1.72778
1.72806
1.72775
1.72767
1.72752
1.72737
1.72749
1.72739
1.72725
1.72711
1.72722
1.72747
1.72722
1.72713
1.72699
1.72687
1.72698
1.72689
1.72676
1.72664
1.72674
1.72697
1.72674
1.72666
1.72653
1.72641
1.72651
1.72643
1.72631
1.7262
1.7263
1.72651
1.7263
1.72622
1.7261
1.72599
1.72609
1.72602
1.7259
1.72581
1.7259
1.7261
1.72592
1.72584
1.72573
1.72565
1.72574
1.72568
1.72558
1.72551
1.72559
1.72576
1.72562
1.72555
1.72546
1.7254
1.72547
1.72544
1.72536
1.72531
1.72538
1.72551
1.72542
1.72535
1.72528
1.72524
1.7253
1.72528
1.72522
1.72519
1.72524
1.72534
1.72528
1.72523
1.72518
1.72516
1.7252
1.72519
1.72515
1.72515
1.72518
1.72523
1.72519
1.72518
1.72515
1.72516
1.72518
1.72519
1.72518
1.7252
1.72519
1.72515
1.72509
1.72519
1.72527
1.72534
1.72542
1.72551
1.72561
1.72573
1.72587
1.72603
1.72621
1.72641
1.72662
1.72684
1.72708
1.72732
1.72757
1.72785
1.72815
1.72849
1.72886
1.72926
1.72967
1.7301
1.73052
1.73094
1.73138
1.73185
1.73237
1.73295
1.73357
1.73422
1.73485
1.73542
1.7359
1.7363
1.73664
1.73699
1.73733
1.73761
1.7377
1.73749
1.73692
1.73586
1.73481
1.73444
1.73414
1.73393
1.73379
1.73369
1.73365
1.73367
1.73378
1.73389
1.73402
1.73416
1.73431
1.7339
1.73414
1.73441
1.73464
1.73476
1.73487
1.7348
1.73469
1.73457
1.73454
1.73467
1.73479
1.73483
1.73472
1.73459
1.73432
1.73403
1.73416
1.73449
1.73466
1.73481
1.73492
1.73505
1.73496
1.73482
1.735
1.73514
1.73523
1.73543
1.73536
1.73522
1.73485
1.7345
1.73412
1.73382
1.73374
1.7335
1.7337
1.73356
1.73344
1.73317
1.7333
1.73327
1.73352
1.73378
1.7335
1.73333
1.73311
1.73305
1.7331
1.73337
1.73333
1.7331
1.73319
1.73338
1.73348
1.73338
1.73351
1.73324
1.7331
1.73335
1.73328
1.73393
1.73393
1.73405
1.73429
1.73462
1.73501
1.73537
1.73549
1.73561
1.73564
1.73585
1.73584
1.73573
1.73601
1.73609
1.73604
1.73614
1.7362
1.73613
1.73587
1.73555
1.73593
1.73611
1.73621
1.73629
1.73627
1.73615
1.73616
1.73621
1.7362
1.73612
1.73576
1.73579
1.73599
1.7359
1.73581
1.73581
1.73591
1.73615
1.7363
1.73605
1.73588
1.73582
1.73587
1.73585
1.73611
1.73632
1.7363
1.73622
1.73611
1.73599
1.7358
1.73563
1.73524
1.73502
1.73487
1.73484
1.73534
1.73541
1.73533
1.73544
1.73543
1.73556
1.73578
1.73585
1.73595
1.73601
1.73609
1.73613
1.7362
1.73619
1.73628
1.73623
1.73605
1.73604
1.73611
1.73604
1.73615
1.73611
1.73606
1.73602
1.73597
1.73591
1.73591
1.73588
1.73587
1.73588
1.73592
1.7359
1.73582
1.73569
1.73567
1.73578
1.73583
1.73588
1.73587
1.73585
1.73578
1.73574
1.73562
1.73565
1.73566
1.73576
1.73549
1.73548
1.73488
1.73506
1.73406
1.73437
1.73356
1.73396
1.73465
1.73398
1.73368
1.73364
1.73394
1.73414
1.73499
1.73432
1.7351
1.73618
1.73681
1.73588
1.73479
1.73557
1.73649
1.73694
1.7367
1.73676
1.73635
1.73558
1.73489
1.73593
1.73538
1.73636
1.73615
1.73583
1.73573
1.73607
1.73586
1.73594
1.73592
1.73584
1.73584
1.73576
1.73578
1.73574
1.73577
1.73583
1.73581
1.73581
1.73583
1.73583
1.73589
1.7359
1.73597
1.73602
1.73614
1.73609
1.73615
1.73635
1.73643
1.73626
1.73659
1.73644
1.73631
1.73663
1.7368
1.73667
1.73679
1.73697
1.73718
1.73701
1.73717
1.73695
1.73728
1.73665
1.73701
1.73705
1.7377
1.73759
1.73795
1.73773
1.73759
1.7374
1.73763
1.73739
1.73783
1.738
1.73825
1.73815
1.73844
1.73821
1.73837
1.73806
1.73824
1.73813
1.73855
1.73854
1.73882
1.73863
1.73882
1.73923
1.73903
1.73884
1.73863
1.73838
1.73798
1.73732
1.73668
1.73667
1.73659
1.73614
1.73516
1.73645
1.73743
1.73587
1.73783
1.73874
1.73769
1.7387
1.73894
1.73911
1.73858
1.73906
1.73781
1.73735
1.73719
1.73825
1.73834
1.73555
1.73425
1.73539
1.73481
1.73371
1.73484
1.73674
1.73883
1.73355
1.73052
1.73003
1.73204
1.73126
1.73158
1.72903
1.72732
1.7267
1.72516
1.72865
1.71404
1.72086
1.72168
1.72771
1.72733
1.7313
1.73257
1.73425
1.73528
1.73379
1.73349
1.7304
1.72638
1.72461
1.72265
1.71814
1.71307
1.70791
1.70051
1.68955
1.69125
1.70041
1.704
1.69721
1.69257
1.69089
1.69668
1.6952
1.69931
1.69831
1.70124
1.70155
1.70161
1.70375
1.70363
1.70528
1.70557
1.70564
1.70683
1.70691
1.708
1.70798
1.70877
1.70902
1.70903
1.70964
1.70968
1.71027
1.71016
1.71079
1.71065
1.71122
1.7112
1.71168
1.71168
1.71167
1.71188
1.71186
1.71194
1.71193
1.71197
1.71207
1.71206
1.71209
1.71207
1.71218
1.71206
1.71205
1.71192
1.71195
1.71181
1.71174
1.71162
1.71157
1.71148
1.71135
1.71122
1.7111
1.71098
1.71075
1.71057
1.71033
1.71017
1.70981
1.7098
1.71007
1.71048
1.71059
1.71101
1.71096
1.71119
1.71129
1.7116
1.71151
1.71172
1.71174
1.71206
1.71191
1.71214
1.71208
1.71241
1.71223
1.71241
1.7123
1.7126
1.71235
1.71252
1.71234
1.71263
1.71231
1.71249
1.71225
1.71246
1.71211
1.71203
1.71242
1.71264
1.7127
1.71296
1.71272
1.71275
1.71285
1.71291
1.71271
1.71274
1.71276
1.71272
1.71255
1.71247
1.71233
1.71221
1.71202
1.71188
1.71204
1.71176
1.71145
1.71116
1.71115
1.71073
1.71043
1.71081
1.71042
1.71016
1.70965
1.70918
1.709
1.70869
1.70862
1.70834
1.70809
1.70769
1.70761
1.70722
1.70692
1.70653
1.70623
1.70582
1.70574
1.70608
1.70664
1.70684
1.70724
1.70742
1.70789
1.70813
1.70846
1.70855
1.70901
1.70919
1.70948
1.70954
1.70996
1.70941
1.70891
1.70838
1.70781
1.70715
1.70659
1.70588
1.70594
1.70532
1.70482
1.70455
1.70411
1.7037
1.70328
1.70286
1.70232
1.70199
1.7014
1.70127
1.70066
1.7
1.69963
1.69911
1.69866
1.69809
1.69762
1.69701
1.69644
1.69579
1.69548
1.69608
1.69675
1.69716
1.69781
1.69827
1.69888
1.69936
1.6999
1.70032
1.70084
1.70125
1.70168
1.70214
1.70256
1.70305
1.7034
1.70383
1.70425
1.70468
1.70507
1.70532
1.70495
1.70492
1.70409
1.70339
1.70422
1.70343
1.70252
1.70172
1.70258
1.70169
1.70081
1.7
1.69893
1.69799
1.69682
1.69591
1.69562
1.69478
1.69403
1.69341
1.69286
1.69209
1.69142
1.69078
1.69003
1.68956
1.6902
1.68952
1.68872
1.68798
1.68719
1.68641
1.68572
1.68496
1.68417
1.68333
1.68248
1.68156
1.68098
1.67976
1.67894
1.67789
1.67695
1.67605
1.67503
1.67407
1.67314
1.67206
1.67088
1.67006
1.6712
1.67034
1.66879
1.66759
1.66641
1.66534
1.66394
1.66257
1.66138
1.65975
1.6588
1.65728
1.65628
1.6541
1.65247
1.65102
1.64951
1.64786
1.6464
1.64429
1.64237
1.64066
1.63889
1.63717
1.63554
1.63303
1.6307
1.62871
1.62652
1.62456
1.62233
1.61966
1.61642
1.61433
1.61109
1.6097
1.61282
1.61065
1.60652
1.60312
1.60016
1.59634
1.59443
1.59042
1.58528
1.5819
1.57719
1.57472
1.57075
1.56621
1.56143
1.55631
1.55066
1.5476
1.54263
1.53594
1.5282
1.5259
1.51784
1.5078
1.50201
1.4907
1.48671
1.47631
1.47253
1.45481
1.4386
1.43942
1.41773
1.39974
1.40583
1.38201
1.3623
1.33983
1.36019
1.33951
1.33385
1.33492
1.34272
1.37321
1.40377
1.42281
1.43459
1.44422
1.4523
1.45966
1.46539
1.47076
1.47493
1.47937
1.48266
1.48648
1.48907
1.49234
1.49432
1.49713
1.49862
1.50108
1.50224
1.50448
1.50542
1.50747
1.50822
1.5101
1.51067
1.51242
1.51286
1.5145
1.51484
1.51644
1.51668
1.51818
1.51836
1.51982
1.51994
1.52131
1.5214
1.52274
1.52282
1.52404
1.5241
1.52529
1.52536
1.52642
1.52652
1.52755
1.52767
1.52857
1.52873
1.5296
1.52978
1.53052
1.53074
1.5315
1.53171
1.53237
1.5326
1.53327
1.53348
1.53406
1.53429
1.53488
1.53509
1.5356
1.53581
1.53632
1.53653
1.53698
1.53718
1.53763
1.53782
1.53821
1.5384
1.5388
1.53898
1.53933
1.5395
1.53986
1.54002
1.54033
1.54048
1.54079
1.54094
1.54121
1.54135
1.54163
1.54176
1.542
1.54212
1.54237
1.54249
1.5427
1.54281
1.54303
1.54314
1.54332
1.54342
1.54362
1.54371
1.54388
1.54397
1.54415
1.54424
1.54439
1.54447
1.54463
1.54471
1.54485
1.54491
1.54506
1.54513
1.54526
1.54531
1.54545
1.54551
1.54563
1.54568
1.54581
1.54585
1.54596
1.54601
1.54613
1.54617
1.54627
1.5463
1.54642
1.54645
1.54655
1.54657
1.54668
1.54671
1.5468
1.54682
1.54692
1.54694
1.54703
1.54704
1.54714
1.54716
1.54724
1.54725
1.54734
1.54735
1.54743
1.54744
1.54753
1.54753
1.54761
1.54761
1.54769
1.5477
1.54777
1.54776
1.54785
1.54784
1.54791
1.5479
1.54798
1.54798
1.54804
1.54803
1.54811
1.5481
1.54816
1.54815
1.54822
1.54821
1.54827
1.54825
1.54832
1.5483
1.54836
1.54834
1.54841
1.54838
1.54844
1.54841
1.54847
1.54845
1.5485
1.54847
1.54853
1.5485
1.54854
1.54851
1.54857
1.54854
1.54859
1.54855
1.54862
1.54859
1.54865
1.54862
1.54872
1.54873
1.54886
1.54887
1.54919
1.54914
1.54979
1.55059
1.55375
1.55302
1.55444
1.55155
1.55187
1.55307
1.55087
1.55124
1.55236
1.55056
1.55099
1.55209
1.55039
1.55084
1.55189
1.55036
1.55083
1.55191
1.5503
1.55076
1.55178
1.55029
1.55076
1.55186
1.55025
1.55071
1.55171
1.55025
1.55072
1.55184
1.5502
1.55067
1.55166
1.5502
1.55067
1.5518
1.55015
1.55061
1.55161
1.55014
1.55061
1.55175
1.55008
1.55055
1.55155
1.55007
1.55054
1.55169
1.54999
1.55046
1.55148
1.54998
1.55045
1.55162
1.5499
1.55037
1.5514
1.54988
1.55035
1.55153
1.54979
1.55026
1.55131
1.54976
1.55024
1.55144
1.54967
1.55015
1.55121
1.54964
1.55012
1.55134
1.54954
1.55002
1.5511
1.5495
1.54998
1.55123
1.5494
1.54988
1.55099
1.54935
1.54984
1.55111
1.54924
1.54973
1.55086
1.54919
1.54969
1.55098
1.54907
1.54957
1.55073
1.54902
1.54952
1.55084
1.54889
1.5494
1.55058
1.54883
1.54934
1.55069
1.5487
1.54921
1.55043
1.54862
1.54914
1.55053
1.54849
1.54901
1.55026
1.5484
1.54893
1.55036
1.54826
1.54879
1.55009
1.54816
1.54871
1.55017
1.54801
1.54855
1.54989
1.54791
1.54846
1.54997
1.54774
1.54829
1.54969
1.54763
1.5482
1.54975
1.54746
1.54802
1.54946
1.54732
1.54791
1.54952
1.54714
1.54772
1.54922
1.547
1.5476
1.54926
1.5468
1.5474
1.54895
1.54664
1.54726
1.54898
1.54644
1.54705
1.54865
1.54626
1.54691
1.54868
1.54604
1.54667
1.54833
1.54586
1.54652
1.54835
1.54563
1.54627
1.54798
1.54542
1.54611
1.54798
1.54517
1.54584
1.54758
1.54495
1.54566
1.54758
1.54468
1.54537
1.54714
1.54442
1.54517
1.54712
1.54413
1.54485
1.54664
1.54385
1.54463
1.54661
1.54353
1.54427
1.54607
1.54322
1.54403
1.54602
1.54287
1.54364
1.54543
1.54253
1.54336
1.54534
1.54214
1.54294
1.5447
1.54176
1.54262
1.54456
1.54133
1.54215
1.54383
1.54091
1.5418
1.54366
1.54041
1.54125
1.54283
1.53995
1.54085
1.54261
1.53937
1.54021
1.54169
1.53884
1.53975
1.54138
1.53818
1.53901
1.54036
1.53754