/*--------------------------------*- C++ -*----------------------------------*\
| =========                 |                                                 |
| \\      /  F ield         | OpenFOAM: The Open Source CFD Toolbox           |
|  \\    /   O peration     | Version:  v2006                                 |
|   \\  /    A nd           | Website:  www.openfoam.com                      |
|    \\/     M anipulation  |                                                 |
\*---------------------------------------------------------------------------*/
FoamFile
{
    version     2.0;
    format      ascii;
    class       volScalarField;
    location    "0.04";
    object      Co;
}
// * * * * * * * * * * * * * * * * * * * * * * * * * * * * * * * * * * * * * //

dimensions      [0 0 0 0 0 0 0];


internalField   nonuniform List<scalar> 
31566
(
0.0183429
0.0175561
0.0189979
0.0197286
0.0200523
0.0196002
0.0197083
0.0195535
0.0193861
0.0193489
0.0192256
0.019228
0.0192073
0.0192016
0.0192008
0.0191994
0.0191965
0.0191894
0.019178
0.0191633
0.0191466
0.0191288
0.0191105
0.0190922
0.0190738
0.0190554
0.0190369
0.0190182
0.0189991
0.0189796
0.0189597
0.0189394
0.0189187
0.0188976
0.018876
0.0188542
0.0188319
0.0188094
0.0187866
0.0187635
0.0187401
0.0187164
0.0186925
0.0186683
0.0186439
0.0186194
0.0185946
0.0185697
0.0185446
0.0185194
0.0184941
0.0184686
0.0184431
0.0184175
0.0183919
0.0183663
0.0183406
0.018315
0.0182894
0.0182639
0.0182384
0.0182131
0.0181878
0.0181627
0.0181378
0.018113
0.0180884
0.018064
0.0180398
0.0180159
0.0179922
0.0179688
0.0179457
0.0179229
0.0179004
0.0178783
0.0178567
0.0178355
0.0178146
0.0177941
0.0177739
0.0177538
0.0177334
0.0177127
0.0176912
0.017669
0.0176467
0.0176258
0.0176087
0.0175981
0.0175941
0.017596
0.0176023
0.0176268
0.0176664
0.0178062
0.0180265
0.0185932
0.0195689
0.0218746
0.0270655
0.0385815
0.0592378
0.0477384
0.0421064
0.0419731
0.040838
0.0390841
0.0385084
0.0370818
0.0335997
0.0363236
0.0379006
0.0344329
0.0344442
0.0327626
0.027394
0.0292077
0.0297165
0.0286256
0.0288123
0.0272366
0.0247783
0.0270068
0.0276001
0.0275349
0.0271393
0.024859
0.0242608
0.0267651
0.0273401
0.0273573
0.0268622
0.0242645
0.0239304
0.0266885
0.0273417
0.02742
0.0266334
0.0237571
0.0235693
0.0265494
0.027198
0.0273417
0.0264686
0.0233985
0.0232361
0.0263845
0.0271122
0.0272509
0.0263045
0.0230856
0.0229437
0.0262238
0.0270204
0.0271577
0.0261479
0.0228113
0.0226852
0.0260709
0.026927
0.0270638
0.0259987
0.0225668
0.022453
0.0259252
0.0268404
0.0269699
0.025856
0.0223453
0.0222412
0.0257855
0.0267543
0.0268763
0.0257189
0.0221422
0.0220459
0.025651
0.0266678
0.0267835
0.025587
0.021954
0.0218641
0.0255214
0.0265811
0.0266912
0.0254594
0.021778
0.0216936
0.0253963
0.0264948
0.0265997
0.0253356
0.0216123
0.0215329
0.025275
0.0264087
0.0265103
0.0252164
0.0214555
0.0213794
0.0251564
0.0263226
0.0264211
0.0250996
0.0213058
0.0212325
0.0250406
0.0262366
0.0263321
0.0249851
0.021162
0.0210916
0.0249272
0.0261507
0.0262437
0.0248729
0.0210236
0.0209556
0.024816
0.026065
0.0261558
0.0247627
0.0208899
0.0208239
0.0247066
0.0259793
0.0260681
0.0246542
0.0207602
0.020696
0.0245987
0.0258935
0.0259806
0.0245471
0.0206341
0.0205715
0.0244923
0.0258076
0.0258933
0.0244413
0.0205111
0.0204499
0.0243869
0.0257215
0.0258059
0.0243365
0.0203908
0.0203309
0.0242824
0.0256351
0.0257184
0.0242324
0.0202729
0.0202141
0.0241787
0.0255483
0.0256307
0.024129
0.0201571
0.0200992
0.0240755
0.0254611
0.0255426
0.0240261
0.0200432
0.0199861
0.0239727
0.0253733
0.0254542
0.0239235
0.0199309
0.0198745
0.0238702
0.0252849
0.0253652
0.0238212
0.01982
0.0197642
0.0237679
0.0251957
0.0252756
0.0237189
0.0197103
0.0196551
0.0236656
0.0251058
0.0251854
0.0236167
0.0196017
0.0195469
0.0235632
0.025015
0.0250944
0.0235142
0.0194939
0.0194394
0.0234606
0.0249232
0.0250025
0.0234115
0.0193868
0.0193326
0.0233576
0.0248304
0.0249097
0.0233083
0.0192802
0.0192262
0.0232542
0.0247364
0.0248158
0.0232046
0.0191739
0.01912
0.0231502
0.0246412
0.0247208
0.0231003
0.0190679
0.019014
0.0230454
0.0245447
0.0246246
0.0229952
0.0189619
0.018908
0.0229399
0.0244468
0.0245271
0.0228893
0.0188558
0.0188018
0.0228335
0.0243473
0.0244282
0.0227823
0.0187494
0.0186952
0.022726
0.0242462
0.0243277
0.0226743
0.0186427
0.0185882
0.0226173
0.0241434
0.0242256
0.0225649
0.0185354
0.0184805
0.0225072
0.0240387
0.0241217
0.0224542
0.0184274
0.0183721
0.0223958
0.023932
0.024016
0.022342
0.0183185
0.0182628
0.0222827
0.0238232
0.0239082
0.0222282
0.0182087
0.0181524
0.022168
0.0237121
0.0237984
0.0221125
0.0180977
0.0180407
0.0220513
0.0235987
0.0236862
0.0219949
0.0179853
0.0179277
0.0219327
0.0234828
0.0235717
0.0218752
0.0178715
0.0178131
0.0218119
0.0233643
0.0234547
0.0217533
0.0177561
0.0176968
0.0216888
0.023243
0.0233349
0.021629
0.017639
0.0175787
0.0215633
0.0231188
0.0232124
0.0215022
0.0175199
0.0174587
0.0214352
0.0229916
0.0230871
0.0213728
0.0173988
0.0173365
0.0213043
0.0228646
0.0229587
0.0212405
0.0172756
0.0172121
0.0211707
0.0227356
0.0228272
0.0211054
0.01715
0.0170853
0.021034
0.0226033
0.0226925
0.0209672
0.0170219
0.0169559
0.0208942
0.0224677
0.0225541
0.0208257
0.0168912
0.0168238
0.020751
0.0223285
0.0224121
0.0206808
0.0167577
0.0166889
0.0206042
0.0221856
0.0222663
0.0205322
0.0166212
0.0165508
0.0204538
0.0220387
0.0221163
0.0203799
0.0164816
0.0164096
0.0202995
0.0218877
0.0219622
0.0202235
0.0163387
0.016265
0.0201411
0.0217325
0.0218037
0.020063
0.0161923
0.0161168
0.0199784
0.0215728
0.0216406
0.0198982
0.0160423
0.0159649
0.0198113
0.0214085
0.0214728
0.0197288
0.0158885
0.0158091
0.0196396
0.0212393
0.0213
0.0195547
0.0157307
0.0156492
0.019463
0.0210651
0.021122
0.0193756
0.0155686
0.015485
0.0192814
0.0208857
0.0209387
0.0191914
0.0154022
0.0153163
0.0190945
0.0207009
0.0207497
0.0190018
0.0152313
0.0151431
0.0189021
0.0205104
0.020555
0.0188067
0.0150557
0.0149651
0.0187042
0.0203141
0.0203544
0.0186059
0.0148752
0.0147822
0.0185005
0.0201118
0.0201476
0.0183992
0.0146898
0.0145942
0.0182908
0.0199033
0.0199344
0.0181864
0.0144993
0.0144011
0.0180749
0.0196884
0.0197147
0.0179674
0.0143034
0.0142025
0.0178527
0.0194669
0.0194882
0.0177419
0.0141021
0.0139985
0.0176239
0.0192386
0.0192549
0.0175098
0.0138953
0.0137887
0.0173885
0.0190033
0.0190144
0.0172709
0.0136827
0.0135732
0.0171461
0.0187608
0.0187666
0.0170251
0.0134642
0.0133518
0.0168967
0.018511
0.0185113
0.0167721
0.0132398
0.0131244
0.0166402
0.0182537
0.0182485
0.016512
0.0130094
0.012891
0.0163765
0.0179889
0.017978
0.0162448
0.0127731
0.0126518
0.0161057
0.0177165
0.0177
0.0159703
0.012531
0.0124067
0.0158277
0.0174365
0.0174142
0.0156888
0.0122831
0.012156
0.0155427
0.0171491
0.017121
0.0154004
0.0120296
0.0118998
0.0152508
0.016854
0.0168203
0.0151051
0.0117707
0.0116383
0.0149521
0.0165517
0.0165123
0.0148032
0.0115066
0.0113716
0.014647
0.0162422
0.0161972
0.0144949
0.0112375
0.0111001
0.0143356
0.015926
0.0158761
0.0141811
0.0109636
0.0108229
0.0140201
0.015605
0.0155506
0.0138633
0.0106814
0.0105349
0.0136989
0.0152789
0.015219
0.0135384
0.0103881
0.0102369
0.0133705
0.0149465
0.0148814
0.0132067
0.0100859
0.00993102
0.0130355
0.014608
0.0145379
0.0128688
0.00977697
0.00961957
0.0126951
0.0142643
0.0141894
0.0125261
0.00946347
0.0093046
0.0123503
0.013916
0.013837
0.0121799
0.00914767
0.00898844
0.0120029
0.0135642
0.0134818
0.0118318
0.00883184
0.00867342
0.0116546
0.0132105
0.0131253
0.0114838
0.00851825
0.00836183
0.0113073
0.0128563
0.0127692
0.0111379
0.00820935
0.0080562
0.0109632
0.0125034
0.0124156
0.0107965
0.00790767
0.00775904
0.0106248
0.012154
0.0120664
0.0104618
0.00761573
0.00747284
0.0102945
0.01181
0.011724
0.0101366
0.00733594
0.00719997
0.00997468
0.0114739
0.0113905
0.00982301
0.00707061
0.00694263
0.00966782
0.0111479
0.0110684
0.00952357
0.00682182
0.00670277
0.0093762
0.0108342
0.0107598
0.00924042
0.0065914
0.00648212
0.00910204
0.0105352
0.0104567
0.00896675
0.00637443
0.00628171
0.00884689
0.0102526
0.0101919
0.00873075
0.00619089
0.00610237
0.00861241
0.00998849
0.00994581
0.00850693
0.00602215
0.00594418
0.0083993
0.00973463
0.00970984
0.0083048
0.00587452
0.00580695
0.00820822
0.00951104
0.00949499
0.00812469
0.00574748
0.00568991
0.00803904
0.00930849
0.00930157
0.00796639
0.0056402
0.00559201
0.0078914
0.00912719
0.00912945
0.00782921
0.0055513
0.00551166
0.00776427
0.00896668
0.00897794
0.00771193
0.00547913
0.0054472
0.00765649
0.00882633
0.00884611
0.00761317
0.00542188
0.00539674
0.00756644
0.00870494
0.00872399
0.00753133
0.00537772
0.00535847
0.00749258
0.00860982
0.00862761
0.00746462
0.0053447
0.00533039
0.00743297
0.0085223
0.00854668
0.00741127
0.00532084
0.00531021
0.00738531
0.00846051
0.00848003
0.00736925
0.00530408
0.00529628
0.00734812
0.00840959
0.00842496
0.0073365
0.00529259
0.00528671
0.0073192
0.00836641
0.00837928
0.00731085
0.00528445
0.00527947
0.0072963
0.0083288
0.00834094
0.00729008
0.00527754
0.00527234
0.00727718
0.00829441
0.00830765
0.00727173
0.00526952
0.00526298
0.00725846
0.00825937
0.00831544
0.00729833
0.0052643
0.00524821
0.00725047
0.00823634
0.00833053
0.00735779
0.00532089
0.0053114
0.00733766
0.00835173
0.00884237
0.0078424
0.00572153
0.00573957
0.00797349
0.00909406
0.0104906
0.00929101
0.00674194
0.00692494
0.00985288
0.01162
0.0123291
0.0107143
0.00766737
0.014364
0.0158695
0.0168296
0.0182952
0.0189852
0.0197507
0.0202133
0.0206384
0.0209469
0.0212704
0.0215278
0.0217884
0.0220001
0.0222092
0.0223866
0.0225594
0.0227126
0.0228591
0.0229941
0.0231214
0.0232423
0.0233557
0.023466
0.0235692
0.0236717
0.0237678
0.0238647
0.023956
0.024049
0.0241379
0.0242283
0.024319
0.0244263
0.0245981
0.0247993
0.0250762
0.0255739
0.0262646
0.0280655
0.03544
0.0513292
0.0555437
0.0512797
0.0486212
0.0471728
0.0463218
0.0459307
0.0458448
0.0457203
0.0459707
0.0462995
0.0455956
0.0458458
0.0443519
0.0408498
0.0374104
0.0280305
0.0253236
0.0346177
0.0387313
0.0344069
0.0321818
0.0245173
0.0209827
0.0281155
0.0307669
0.0293237
0.0273666
0.020884
0.019281
0.0255474
0.027751
0.027258
0.0253126
0.0192439
0.018976
0.0249469
0.0268964
0.0269995
0.0250589
0.0190379
0.0190259
0.024931
0.0267933
0.0268735
0.0249241
0.0190548
0.019086
0.0248681
0.0266869
0.0267679
0.0249118
0.0191189
0.0191529
0.0249559
0.0268503
0.0266651
0.0249007
0.0191881
0.0192244
0.0248954
0.0267473
0.0266159
0.0248899
0.0192616
0.0192994
0.0248839
0.0266976
0.0265126
0.0248279
0.0193379
0.0193766
0.0249199
0.0266992
0.0264597
0.0248125
0.0194155
0.0194545
0.0249029
0.0266441
0.0264031
0.0247935
0.0194935
0.0195323
0.0248815
0.0265848
0.0263417
0.0247697
0.0195708
0.019609
0.0248549
0.0265201
0.0262746
0.0247405
0.0196468
0.0196843
0.0247731
0.0263434
0.0264111
0.0248037
0.0197208
0.0197569
0.0246847
0.0261613
0.0262242
0.0247125
0.0197926
0.0198275
0.0247383
0.0262858
0.0260313
0.0246148
0.019862
0.0198963
0.0246873
0.0261925
0.0259866
0.0246108
0.0199304
0.0199651
0.024583
0.0260393
0.0258826
0.0245549
0.0200007
0.020038
0.0245271
0.0259315
0.0258239
0.0245003
0.0200779
0.0201222
0.0244759
0.0257672
0.0257099
0.0244555
0.0201727
0.020232
0.0244408
0.0256528
0.0255969
0.0244352
0.0203041
0.0203951
0.0244437
0.0255564
0.0255302
0.0244531
0.0205118
0.0207426
0.0245772
0.025545
0.0256748
0.0246644
0.0209159
0.0212238
0.0248231
0.0256652
0.0257894
0.0249702
0.0215209
0.0216653
0.0249649
0.0257306
0.0258673
0.0251506
0.0220171
0.0220804
0.0250754
0.0257646
0.0260448
0.025457
0.0225976
0.0224569
0.025254
0.0258222
0.0256129
0.0255982
0.0232793
0.0222965
0.0228885
0.0213805
0.0702634
0.0520285
0.032092
0.0226346
0.0345785
0.0465639
0.0293537
0.0273204
0.0223995
0.020442
0.0240495
0.0251843
0.0239451
0.0233167
0.0204947
0.0196124
0.022171
0.0228961
0.0223839
0.0219695
0.0197995
0.0192253
0.0212162
0.0215952
0.0206072
0.0207685
0.0193854
0.0181
0.0177859
0.0163286
0.0542799
0.0407757
0.0256786
0.018475
0.0269578
0.03566
0.021489
0.0201779
0.0173083
0.0159621
0.0173864
0.0175793
0.0160122
0.0157631
0.0146919
0.0139212
0.0147481
0.0149274
0.0126992
0.0126099
0.0122253
0.0161038
0.0249142
0.0324322
0.0131155
0.0106554
0.00870271
0.00685424
0.0085975
0.00975846
0.0102238
0.00740475
0.00444011
0.00359402
0.00615894
0.00844187
0.023016
0.0192259
0.013481
0.0206528
0.0282603
0.032912
0.0293302
0.02731
0.0247599
0.0697141
0.101007
0.118523
0.071871
0.0743499
0.0771881
0.100793
0.0935992
0.0939967
0.1169
0.110455
0.105523
0.0933453
0.103703
0.10376
0.131111
0.121461
0.0938532
0.0837882
0.132629
0.177288
0.167851
0.123461
0.0763068
0.0608882
0.0815976
0.0918051
0.137566
0.1027
0.0665414
0.0645255
0.107992
0.149684
0.0766942
0.0682333
0.0519383
0.0502238
0.0862971
0.122748
0.140494
0.100683
0.0579842
0.0473514
0.0622065
0.0698429
0.110915
0.0830538
0.0552413
0.0581921
0.0971111
0.134305
0.0658574
0.0596265
0.0470714
0.0471828
0.0779905
0.109748
0.130083
0.0941732
0.0565174
0.04651
0.0582368
0.0638732
0.107386
0.0768953
0.047052
0.0566656
0.0938779
0.127562
0.0628661
0.0577457
0.0467091
0.0477202
0.076794
0.106284
0.126981
0.0941255
0.0572181
0.0470675
0.0577663
0.0624899
0.106405
0.0770825
0.0483357
0.0578432
0.0931904
0.12539
0.0628281
0.0583524
0.0478531
0.0493051
0.0781458
0.107573
0.126125
0.0948263
0.0596391
0.0493358
0.0597846
0.063987
0.113062
0.0812959
0.0499991
0.0554273
0.0928559
0.125772
0.0909546
0.0754533
0.0556902
0.0596406
0.090614
0.116922
0.066875
0.0619112
0.0500757
0.0577467
0.0833854
0.107646
0.128706
0.0962311
0.0612921
0.0506044
0.0619211
0.0662574
0.109181
0.084943
0.05959
0.062456
0.0978822
0.130209
0.0673003
0.0629684
0.0514041
0.0626497
0.0897365
0.115101
0.127997
0.0986745
0.0663487
0.0551357
0.0796832
0.0985641
0.121403
0.096052
0.064235
0.0546264
0.0670982
0.0717633
0.11947
0.0929862
0.0653412
0.0685314
0.101278
0.13227
0.101621
0.0826372
0.0580713
0.0668962
0.0990993
0.12552
0.0737254
0.0689395
0.0566089
0.0669761
0.0947949
0.12076
0.139516
0.105298
0.0679013
0.0572654
0.069505
0.0739035
0.126565
0.0988675
0.069762
0.0738598
0.106734
0.137462
0.113026
0.0903172
0.0610706
0.0694167
0.102082
0.12799
0.10866
0.089581
0.0644946
0.0720273
0.104844
0.129893
0.0806619
0.0757589
0.0633026
0.0655702
0.101078
0.136978
0.145215
0.110269
0.0701205
0.0689449
0.0930785
0.111772
0.136874
0.109373
0.0749826
0.0660032
0.0783572
0.082753
0.143656
0.105455
0.0681672
0.0729476
0.113914
0.149055
0.120831
0.100715
0.0748627
0.0769336
0.111171
0.138305
0.119136
0.0995126
0.0735361
0.0792176
0.113181
0.141031
0.0885002
0.0829037
0.0685746
0.0811028
0.11462
0.146048
0.154604
0.120477
0.0843556
0.0724965
0.104171
0.129436
0.145228
0.117666
0.0819492
0.0759115
0.103774
0.125501
0.147313
0.119495
0.0836859
0.0730993
0.0869819
0.0925303
0.159193
0.11834
0.0779961
0.0889031
0.127857
0.161471
0.137455
0.11073
0.0763946
0.0854858
0.123059
0.151252
0.132148
0.109576
0.0797912
0.0876587
0.125834
0.153251
0.0972205
0.092246
0.0781667
0.0809173
0.123913
0.167664
0.172305
0.133333
0.0844695
0.0890776
0.119124
0.141487
0.15831
0.127708
0.0892195
0.0872625
0.11928
0.14361
0.15815
0.128668
0.0922297
0.0866334
0.117609
0.14114
0.163131
0.133126
0.0939905
0.0827028
0.0979487
0.103594
0.177733
0.13223
0.0882351
0.100759
0.142189
0.178791
0.153896
0.1234
0.0851908
0.0944986
0.135082
0.165666
0.155158
0.126816
0.0910573
0.0969068
0.135373
0.167131
0.156087
0.127865
0.092297
0.0986872
0.138783
0.170285
0.151714
0.126248
0.093155
0.101324
0.143211
0.173765
0.111989
0.105424
0.0886239
0.104886
0.147902
0.18697
0.191205
0.149781
0.104255
0.0944964
0.132898
0.163411
0.17715
0.144459
0.101325
0.0984637
0.136065
0.165378
0.178858
0.14616
0.103656
0.0997525
0.137261
0.166699
0.180643
0.14889
0.106111
0.100931
0.135789
0.162482
0.184044
0.150767
0.108471
0.0954754
0.112731
0.119378
0.203143
0.153136
0.104704
0.115056
0.161348
0.203773
0.176033
0.14284
0.100627
0.110159
0.155661
0.189454
0.17738
0.145845
0.105455
0.110993
0.15563
0.189787
0.178229
0.14668
0.107305
0.11434
0.158419
0.193381
0.173774
0.145382
0.108732
0.116875
0.16196
0.197307
0.12739
0.120259
0.102002
0.118373
0.167431
0.213573
0.217607
0.17077
0.118442
0.111042
0.152844
0.18617
0.203706
0.16496
0.116847
0.11379
0.154741
0.187904
0.201318
0.164829
0.119235
0.115324
0.15647
0.189508
0.203843
0.168264
0.12206
0.116328
0.154973
0.184839
0.208051
0.172202
0.124968
0.108993
0.127943
0.135161
0.227508
0.178732
0.127296
0.126895
0.180623
0.232079
0.196908
0.164063
0.121634
0.125896
0.174936
0.21422
0.199451
0.165673
0.122396
0.129407
0.17654
0.214164
0.202189
0.168309
0.124527
0.130924
0.179085
0.217733
0.195911
0.16421
0.122991
0.132501
0.183703
0.221922
0.143521
0.136202
0.116451
0.129515
0.186952
0.245749
0.249857
0.194859
0.134722
0.127635
0.174094
0.211142
0.230301
0.18704
0.13283
0.129322
0.17561
0.212629
0.229984
0.187447
0.134964
0.131514
0.177684
0.214381
0.232914
0.191208
0.139321
0.130906
0.174316
0.208165
0.23801
0.197689
0.142163
0.125164
0.145838
0.153068
0.257902
0.200782
0.142072
0.143154
0.20608
0.262451
0.221875
0.186084
0.140419
0.144272
0.19795
0.241971
0.223701
0.18712
0.139741
0.147396
0.202022
0.245305
0.219009
0.184889
0.139735
0.150433
0.206563
0.250966
0.160097
0.152889
0.131648
0.147582
0.210111
0.271908
0.2792
0.220385
0.152862
0.145784
0.194938
0.233211
0.257279
0.210883
0.152915
0.146972
0.197374
0.235778
0.257043
0.211345
0.155113
0.146657
0.193615
0.229639
0.265462
0.218772
0.158403
0.139051
0.160307
0.16747
0.286873
0.219124
0.152853
0.160007
0.230899
0.292522
0.245169
0.203783
0.152375
0.161952
0.226091
0.275166
0.239566
0.203248
0.155508
0.164446
0.227328
0.276217
0.173443
0.16614
0.144097
0.16504
0.231766
0.296466
0.309059
0.242436
0.170038
0.160411
0.214173
0.255198
0.287709
0.236801
0.169856
0.162267
0.21197
0.249089
0.289945
0.238371
0.173175
0.151454
0.17374
0.18068
0.309961
0.239289
0.168572
0.174858
0.251851
0.322366
0.265776
0.222012
0.166402
0.176114
0.245928
0.300291
0.259083
0.219652
0.168955
0.180718
0.248806
0.30414
0.18777
0.180381
0.157976
0.175906
0.248733
0.320333
0.338397
0.266271
0.184045
0.170947
0.223025
0.263868
0.320891
0.261947
0.18712
0.162882
0.184819
0.191009
0.334056
0.260076
0.184424
0.191877
0.277321
0.352105
0.272937
0.231037
0.177432
0.192765
0.269892
0.331502
0.196733
0.190699
0.167587
0.191195
0.26776
0.344481
0.371515
0.290737
0.202363
0.186965
0.241567
0.282987
0.346138
0.282813
0.202117
0.175055
0.19684
0.202122
0.353978
0.27305
0.193777
0.207628
0.302258
0.383415
0.292074
0.248388
0.193149
0.212643
0.295137
0.360151
0.205766
0.199982
0.178388
0.198665
0.273602
0.347208
0.402373
0.316081
0.215765
0.178586
0.198764
0.203397
0.357782
0.282586
0.20519
0.220444
0.321676
0.418316
0.204513
0.200776
0.181351
0.206041
0.283514
0.36078
0.428391
0.333264
0.228555
0.189321
0.207183
0.208432
0.380306
0.296142
0.215173
0.234103
0.34178
0.443932
0.212286
0.20903
0.189101
0.21541
0.29622
0.379516
0.460202
0.357753
0.244804
0.203923
0.220597
0.220356
0.389029
0.307023
0.223719
0.248835
0.365211
0.474058
0.219766
0.218419
0.200256
0.230117
0.310042
0.387701
0.483835
0.376415
0.25671
0.188295
0.193416
0.186718
0.256621
0.238478
0.207457
0.220823
0.300394
0.382418
0.499648
0.381278
0.251775
0.174907
0.173617
0.164675
0.206157
0.20495
0.190914
0.179967
0.200984
0.206632
0.205781
0.197824
0.179349
0.176977
0.202421
0.209416
0.230281
0.211873
0.176581
0.187128
0.268955
0.346629
0.473394
0.347364
0.214779
0.143951
0.153682
0.149436
0.161097
0.15724
0.137457
0.12269
0.145743
0.153304
0.146705
0.13839
0.114375
0.105031
0.12967
0.139206
0.134884
0.124944
0.0990575
0.0931057
0.118976
0.130087
0.126781
0.115401
0.0888071
0.0845792
0.11143
0.123394
0.120876
0.108421
0.0813006
0.0783331
0.105622
0.118525
0.116769
0.103213
0.0756359
0.0731765
0.100373
0.113787
0.112674
0.0984576
0.0709239
0.068855
0.0959191
0.109913
0.108945
0.0942519
0.0669532
0.0652005
0.0919742
0.106364
0.105514
0.0905223
0.0635851
0.0620954
0.088471
0.10309
0.102143
0.0870339
0.0607243
0.059461
0.0855191
0.100257
0.0994
0.0842604
0.0583004
0.0572356
0.0825893
0.097248
0.0966763
0.081642
0.0562589
0.0553637
0.0801267
0.0946445
0.0939692
0.0791502
0.0545463
0.0537997
0.0780809
0.0924193
0.0918198
0.0772256
0.0531208
0.052505
0.0759704
0.0900099
0.0893109
0.0752181
0.0519473
0.0514413
0.0745149
0.0886508
0.0869868
0.0734192
0.0509862
0.050577
0.0728046
0.08657
0.0853381
0.0720879
0.0502086
0.0498788
0.071555
0.0849854
0.0835006
0.070636
0.0495847
0.0493222
0.0703137
0.0833784
0.081976
0.0694689
0.0490881
0.0488799
0.0692083
0.081911
0.0805858
0.06843
0.0486951
0.0485315
0.0680891
0.0804157
0.0794807
0.0676401
0.048386
0.0482576
0.0673519
0.0793643
0.0781794
0.0666876
0.0481444
0.0480441
0.0665781
0.0782695
0.0774541
0.0660929
0.0479549
0.0478764
0.0657608
0.0769744
0.0765193
0.0654483
0.047807
0.0477456
0.0650252
0.0757856
0.0759807
0.0650084
0.0476909
0.0476425
0.0644915
0.0749924
0.0752243
0.0645062
0.0475998
0.0475619
0.0640221
0.0742816
0.0742489
0.0639366
0.0475284
0.0474983
0.0637365
0.0739382
0.0736447
0.0635497
0.0474716
0.0474493
0.063375
0.0735131
0.0729582
0.063213
0.0474321
0.0474179
0.0630614
0.0730003
0.0724756
0.0629202
0.0474064
0.0473974
0.0629145
0.0726887
0.0719024
0.0625418
0.0473906
0.0473854
0.0626785
0.0722804
0.0718053
0.0624484
0.0473828
0.0473814
0.0622267
0.0713438
0.0716047
0.0622615
0.047382
0.0473846
0.0621791
0.0711621
0.0711561
0.0621038
0.0473888
0.0473951
0.0620348
0.071158
0.0707427
0.0619723
0.0474034
0.0474133
0.0620395
0.0710442
0.0703617
0.0617409
0.0474251
0.0474381
0.0618208
0.0705337
0.0704338
0.0617863
0.0474527
0.0474691
0.0617565
0.0703396
0.0702508
0.061731
0.0474872
0.0475072
0.0618326
0.0704491
0.0698093
0.0615668
0.0475289
0.0475521
0.0616731
0.0701539
0.0698039
0.0616588
0.0475767
0.0476022
0.0616464
0.0700174
0.069676
0.0616364
0.0476289
0.0476558
0.061751
0.0700374
0.0694249
0.061498
0.0476832
0.0477109
0.0617398
0.069936
0.0696145
0.061614
0.0477394
0.0477678
0.0614904
0.0692986
0.0698198
0.061738
0.0477965
0.0478255
0.0614951
0.069232
0.0697591
0.0617466
0.0478549
0.0478845
0.0616299
0.0694543
0.0694314
0.0616389
0.0479146
0.0479449
0.0616488
0.0694109
0.0691172
0.0615384
0.0479756
0.0480066
0.0617983
0.0696569
0.0690898
0.0615673
0.048038
0.0480701
0.0617074
0.0694946
0.0692101
0.0617258
0.0481027
0.0481358
0.0617457
0.0693432
0.06934
0.0617671
0.0481694
0.0482037
0.0619135
0.0696171
0.06934
0.0618135
0.0482384
0.0482738
0.0617159
0.0690675
0.0693487
0.061866
0.0483096
0.0483463
0.0618943
0.0693561
0.0693653
0.0619237
0.0483835
0.0484214
0.0619545
0.0693766
0.069668
0.0621104
0.04846
0.0484993
0.0618958
0.0691281
0.0695593
0.0620537
0.048539
0.0485797
0.0620893
0.0693009
0.0697385
0.0622501
0.0486209
0.048663
0.0621636
0.069482
0.0692291
0.0620786
0.0487055
0.0487488
0.0622431
0.0696704
0.0694204
0.0622845
0.0487928
0.0488377
0.0624518
0.0698678
0.0696194
0.0623707
0.0488832
0.0489295
0.0622916
0.0693751
0.0699656
0.0625869
0.0489765
0.0490244
0.0623847
0.0694448
0.0697593
0.0625578
0.0490728
0.0491221
0.0626074
0.0697984
0.0698385
0.062658
0.0491721
0.0492229
0.0627098
0.0700199
0.0697837
0.0627625
0.0492745
0.0493268
0.0628161
0.0701073
0.0698731
0.0628706
0.0493797
0.0494333
0.0629261
0.0701996
0.0699672
0.0629825
0.0494876
0.0495425
0.0630396
0.0702959
0.0700655
0.0630976
0.0495979
0.049654
0.0631564
0.0703966
0.0701678
0.0632157
0.0497107
0.0497678
0.0632759
0.0703606
0.0704139
0.0633368
0.0498254
0.0498835
0.0633983
0.0704681
0.0705231
0.0634605
0.049942
0.050001
0.06365
0.0708615
0.070354
0.0634595
0.0500605
0.0501202
0.0637772
0.0709751
0.070468
0.0635871
0.0501802
0.0502405
0.0639062
0.0710913
0.0708658
0.0638434
0.0503011
0.0503619
0.0637817
0.0706431
0.0712692
0.0641026
0.0504229
0.0504839
0.0639131
0.0707623
0.0711056
0.0641073
0.0505451
0.0506065
0.0641739
0.0711665
0.0712276
0.0642408
0.050668
0.0507297
0.064308
0.071289
0.0713507
0.0643752
0.0507914
0.0508531
0.0644425
0.0714129
0.0714754
0.06451
0.0509147
0.0509764
0.0645777
0.0715381
0.0716008
0.0646455
0.0510381
0.0510997
0.0647133
0.0716635
0.0717266
0.0647811
0.0511612
0.0512226
0.064849
0.0717899
0.0718534
0.0649169
0.0512839
0.051345
0.0651145
0.0722049
0.0716939
0.0649228
0.0514061
0.0514669
0.0652503
0.0723323
0.0718203
0.0650578
0.0515276
0.0515879
0.0653857
0.0724598
0.0719466
0.0651925
0.051648
0.0517079
0.0653902
0.0724416
0.0722166
0.0654573
0.0517675
0.0518269
0.0656552
0.0727147
0.0721993
0.0654603
0.0518861
0.0519449
0.0657889
0.0728414
0.0726135
0.0657237
0.0520033
0.0520615
0.0657899
0.0726764
0.0727392
0.0658558
0.0521193
0.0521768
0.0659214
0.0728019
0.072575
0.0658557
0.0522341
0.0522909
0.0661846
0.0732194
0.0726991
0.0659858
0.0523475
0.0524037
0.0663146
0.0733442
0.0728225
0.0661147
0.0524594
0.0525148
0.0664434
0.0734681
0.0732359
0.0663742
0.0525698
0.0526243
0.0663055
0.0730053
0.0735041
0.0665012
0.0526786
0.0527325
0.0665642
0.0732718
0.0736254
0.0666268
0.0527862
0.0528396
0.0666891
0.073392
0.0737452
0.066751
0.0528926
0.0529453
0.0668125
0.0735104
0.0738632
0.0668736
0.0529975
0.0530495
0.0669342
0.0736272
0.0741279
0.0671281
0.0531009
0.0531519
0.06692
0.073595
0.0739457
0.067113
0.0532023
0.0532523
0.0671717
0.0740019
0.0743542
0.0673641
0.0533018
0.0533508
0.067153
0.0738173
0.0743146
0.0673442
0.0533992
0.0534472
0.0674004
0.0740723
0.0742738
0.0674562
0.0534944
0.0535412
0.0675115
0.0744749
0.0742304
0.067566
0.0535875
0.0536331
0.067755
0.0747288
0.0741848
0.0675381
0.0536781
0.0537225
0.0677259
0.0746804
0.0744326
0.0677778
0.0537662
0.0538093
0.0678293
0.0746309
0.0748286
0.0678802
0.0538518
0.0538937
0.0679303
0.0745786
0.0750752
0.0681157
0.0539349
0.0539755
0.0680283
0.0748218
0.0745702
0.0679409
0.0540155
0.0540549
0.0682605
0.0752139
0.0746598
0.0680351
0.0540936
0.0541317
0.0683538
0.0753029
0.0750451
0.0682622
0.0541691
0.0542058
0.0681708
0.0747891
0.07513
0.0683512
0.0542419
0.0542772
0.0683946
0.0751713
0.0753621
0.0684373
0.054312
0.0543462
0.068479
0.0751018
0.0752916
0.0685202
0.0543796
0.0544124
0.0685608
0.0754811
0.0752187
0.0686005
0.0544446
0.054476
0.068777
0.0757094
0.0751439
0.0685411
0.0545068
0.0545369
0.0688534
0.0757837
0.0752164
0.0686158
0.0545664
0.0545951
0.0687896
0.0755529
0.0755883
0.0688257
0.0546232
0.0546508
0.0688612
0.0756229
0.0756573
0.0688961
0.0546777
0.054704
0.0690683
0.0759947
0.0754229
0.0688263
0.0547297
0.0547549
0.0689972
0.0757574
0.0757899
0.06903
0.0547795
0.0548036
0.0692003
0.076126
0.0758531
0.0690934
0.0548272
0.0548502
0.0689867
0.0755822
0.0762196
0.0692935
0.0548727
0.0548948
0.069047
0.0756428
0.0759751
0.0692147
0.0549163
0.0549373
0.0692438
0.0760047
0.0760339
0.0692724
0.0549579
0.054978
0.0693007
0.0760627
0.0760911
0.0693285
0.0549977
0.0550171
0.0693559
0.0761189
0.0761465
0.0693828
0.055036
0.0550546
0.0694093
0.0761736
0.0762004
0.0694354
0.0550728
0.0550906
0.069461
0.0762268
0.0762528
0.0694863
0.0551081
0.0551253
0.0695111
0.0762783
0.0763038
0.0695355
0.055142
0.0551584
0.0695594
0.0763289
0.0763539
0.0695834
0.0551743
0.0551903
0.069746
0.0766846
0.0760978
0.0694908
0.0552057
0.055221
0.0697917
0.0767325
0.0761447
0.0695355
0.0552357
0.0552504
0.069836
0.0767792
0.0761901
0.0695788
0.0552645
0.0552787
0.0697395
0.0766703
0.0765392
0.0697602
0.0552922
0.055306
0.0699207
0.0767149
0.0765831
0.0698008
0.055319
0.0553322
0.0698211
0.0766045
0.0766253
0.0698402
0.0553446
0.0553572
0.0697207
0.0763412
0.0769745
0.0700189
0.0553691
0.0553813
0.0697586
0.0763815
0.0768602
0.0699165
0.0553928
0.0554047
0.069935
0.0765733
0.0768994
0.0699527
0.0554158
0.0554272
0.0699707
0.076612
0.0770921
0.070128
0.0554379
0.055449
0.0698655
0.0764968
0.076821
0.0700218
0.0554592
0.0554699
0.0700391
0.0768393
0.0771654
0.0701954
0.0554798
0.0554902
0.0699319
0.0765685
0.0772006
0.0702276
0.0554998
0.0555098
0.0699636
0.0766028
0.0772348
0.070259
0.055519
0.0555286
0.070134
0.0769426
0.076959
0.0701484
0.0555375
0.0555466
0.0700236
0.076669
0.0773007
0.0703184
0.0555551
0.055564
0.0700525
0.0767007
0.0771772
0.0702064
0.0555722
0.0555808
0.0702207
0.0768849
0.0773631
0.0703747
0.0555887
0.0555971
0.0701079
0.0767618
0.0773929
0.0704016
0.0556048
0.0556128
0.0701342
0.0767911
0.0774222
0.0704278
0.0556202
0.0556279
0.0703
0.0771267
0.0771406
0.070312
0.055635
0.0556424
0.0701845
0.0768474
0.0774781
0.0704774
0.0556492
0.0556564
0.0702086
0.0768744
0.077505
0.0705013
0.055663
0.0556698
0.070232
0.0769007
0.0775312
0.0705244
0.0556762
0.0556828
0.0702547
0.0769263
0.0775567
0.0705469
0.055689
0.0556954
0.0702767
0.0769512
0.0775814
0.0705687
0.0557014
0.0557074
0.070298
0.0769754
0.0776056
0.0705898
0.0557132
0.055719
0.0703187
0.0769989
0.0774733
0.0704693
0.0557246
0.0557301
0.0704794
0.0771755
0.0774961
0.0704891
0.0557356
0.0557409
0.0704989
0.0771979
0.0775182
0.0705083
0.0557462
0.0557513
0.0705178
0.0772196
0.0775397
0.0705269
0.0557565
0.0557613
0.0705361
0.0772408
0.0777166
0.0706862
0.0557662
0.0557709
0.0704129
0.0771073
0.077426
0.0705625
0.0557755
0.05578
0.0705709
0.0775908
0.0772912
0.0705796
0.0557846
0.0557889
0.0705876
0.0776104
0.0773105
0.070596
0.0557933
0.0557974
0.0707455
0.0777856
0.0774836
0.0706118
0.0558017
0.0558057
0.0704787
0.0771839
0.0778131
0.0707689
0.0558097
0.0558135
0.0706345
0.0775103
0.0772104
0.0705013
0.0558174
0.055821
0.0706493
0.0776829
0.0773817
0.0706568
0.0558247
0.0558282
0.0706635
0.0777
0.0773985
0.0706708
0.0558318
0.0558351
0.0708189
0.0778728
0.0772603
0.0705434
0.0558385
0.0558418
0.0706909
0.0777325
0.0774302
0.0706974
0.0558451
0.0558482
0.0707037
0.0775927
0.0776005
0.0707103
0.0558512
0.0558543
0.0707165
0.0777631
0.0774605
0.0707229
0.0558573
0.0558603
0.0707286
0.0777781
0.077475
0.0707348
0.0558631
0.0558659
0.0708822
0.0779489
0.0773346
0.0706053
0.0558686
0.0558716
0.0707523
0.0778064
0.0775026
0.0707574
0.0558741
0.0558767
0.0707633
0.0776647
0.0779831
0.0709104
0.0558791
0.0558818
0.070633
0.0773684
0.0779961
0.0709211
0.0558842
0.0558867
0.0706436
0.0773811
0.0780088
0.0709317
0.0558891
0.0558915
0.070795
0.077703
0.077709
0.0707996
0.0558937
0.0558959
0.0706634
0.0774058
0.0780335
0.0709512
0.055898
0.0559001
0.0706731
0.0774177
0.0780453
0.0709608
0.0559022
0.0559042
0.0706826
0.0774293
0.0780568
0.0709702
0.0559063
0.0559083
0.0706917