/*--------------------------------*- C++ -*----------------------------------*\
| =========                 |                                                 |
| \\      /  F ield         | OpenFOAM: The Open Source CFD Toolbox           |
|  \\    /   O peration     | Version:  v2006                                 |
|   \\  /    A nd           | Website:  www.openfoam.com                      |
|    \\/     M anipulation  |                                                 |
\*---------------------------------------------------------------------------*/
FoamFile
{
    version     2.0;
    format      ascii;
    class       volScalarField;
    location    "0.04";
    object      Ma;
}
// * * * * * * * * * * * * * * * * * * * * * * * * * * * * * * * * * * * * * //

dimensions      [0 0 0 0 0 0 0];


internalField   nonuniform List<scalar> 
24416
(
0.238208
0.238207
0.238207
0.238208
0.238208
0.238208
0.238209
0.23821
0.238211
0.238212
0.238213
0.238215
0.238217
0.238219
0.238221
0.23822
0.238205
0.238146
0.238027
0.237855
0.237647
0.237419
0.237182
0.236942
0.236703
0.236466
0.236228
0.235988
0.235746
0.235499
0.235248
0.234993
0.234732
0.234466
0.234196
0.233921
0.233643
0.23336
0.233074
0.232784
0.232491
0.232195
0.231896
0.231594
0.231289
0.230982
0.230673
0.230362
0.230049
0.229735
0.229419
0.229102
0.228784
0.228466
0.228147
0.227828
0.227509
0.227191
0.226873
0.226556
0.22624
0.225925
0.225612
0.225301
0.224992
0.224685
0.224381
0.224079
0.22378
0.223484
0.223191
0.222902
0.222617
0.222336
0.222059
0.221788
0.221521
0.22126
0.221004
0.220753
0.220505
0.220258
0.220009
0.219755
0.219494
0.219228
0.218963
0.218719
0.218523
0.218404
0.218371
0.218403
0.218461
0.218525
0.21859
0.218654
0.218716
0.218773
0.218822
0.218855
0.218858
0.218791
0.218677
0.218473
0.218102
0.217622
0.217001
0.216041
0.214959
0.210812
0.208081
0.214921
0.216248
0.216341
0.214606
0.205102
0.202161
0.214148
0.216394
0.216372
0.21361
0.199472
0.197021
0.213042
0.216268
0.216102
0.212361
0.194823
0.192843
0.211691
0.215904
0.215669
0.210954
0.190949
0.189205
0.210355
0.215427
0.215164
0.209751
0.18762
0.186186
0.209159
0.214898
0.21461
0.208564
0.184846
0.183618
0.207981
0.214314
0.214003
0.2074
0.182455
0.18138
0.206834
0.213688
0.21336
0.206271
0.18035
0.179392
0.205723
0.213033
0.212696
0.205177
0.178467
0.177599
0.204647
0.212362
0.212019
0.204118
0.176755
0.175959
0.203605
0.211681
0.211335
0.203091
0.175181
0.174442
0.202593
0.210996
0.210648
0.202095
0.173718
0.173027
0.201611
0.21031
0.209962
0.201127
0.172348
0.171698
0.200657
0.209625
0.20928
0.200188
0.171059
0.170444
0.199731
0.208946
0.208597
0.199268
0.169831
0.169242
0.198818
0.208262
0.207914
0.198365
0.168656
0.168091
0.197925
0.207581
0.207233
0.19748
0.16753
0.166986
0.197048
0.206901
0.206554
0.196611
0.166444
0.165919
0.196185
0.206223
0.205875
0.195754
0.165394
0.164884
0.195335
0.205545
0.205197
0.194909
0.164375
0.163879
0.194494
0.204866
0.204518
0.194074
0.163383
0.162899
0.193663
0.204188
0.203839
0.193246
0.162415
0.161942
0.192839
0.203508
0.203157
0.192425
0.161468
0.161004
0.192021
0.202825
0.202473
0.19161
0.160539
0.160084
0.191208
0.20214
0.201787
0.190798
0.159626
0.159178
0.190398
0.201452
0.201096
0.18999
0.158728
0.158287
0.18959
0.20076
0.200402
0.189183
0.157842
0.157407
0.188784
0.200063
0.199702
0.188377
0.156968
0.156537
0.187979
0.19936
0.198997
0.187572
0.156102
0.155676
0.187173
0.198652
0.198285
0.186765
0.155245
0.154822
0.186366
0.197937
0.197567
0.185957
0.154395
0.153974
0.185556
0.197215
0.196841
0.185146
0.15355
0.153131
0.184743
0.196485
0.196107
0.18433
0.152708
0.152291
0.183925
0.195747
0.195364
0.183511
0.151869
0.151453
0.183103
0.194999
0.194611
0.182686
0.151032
0.150616
0.182275
0.194241
0.193848
0.181854
0.150195
0.149779
0.18144
0.193473
0.193074
0.181015
0.149357
0.14894
0.180596
0.192693
0.192288
0.180168
0.148517
0.148098
0.179744
0.1919
0.191489
0.179311
0.147674
0.147253
0.178883
0.191094
0.190677
0.178444
0.146827
0.146403
0.17801
0.190274
0.18985
0.177566
0.145974
0.145547
0.177126
0.189439
0.189007
0.176675
0.145114
0.144684
0.176228
0.188588
0.188148
0.175771
0.144246
0.143812
0.175317
0.187719
0.187271
0.174852
0.14337
0.14293
0.17439
0.186833
0.186376
0.173917
0.142482
0.142037
0.173447
0.185927
0.185461
0.172966
0.141584
0.141132
0.172487
0.185002
0.184526
0.171996
0.140673
0.140214
0.171508
0.184055
0.183569
0.171008
0.139747
0.139282
0.170509
0.183087
0.18259
0.169999
0.138808
0.138334
0.16949
0.182095
0.181587
0.168969
0.137852
0.13737
0.168449
0.181079
0.180559
0.167917
0.136879
0.136388
0.167385
0.180039
0.179507
0.166842
0.135888
0.135387
0.166298
0.178973
0.178427
0.165742
0.134877
0.134367
0.165185
0.17788
0.177319
0.164616
0.133846
0.133325
0.164045
0.176757
0.176181
0.163462
0.132793
0.132261
0.162878
0.175604
0.175012
0.16228
0.131717
0.131173
0.16168
0.174418
0.173811
0.161067
0.130616
0.130059
0.160452
0.1732
0.172576
0.159823
0.12949
0.12892
0.159192
0.171948
0.171305
0.158547
0.128337
0.127753
0.157898
0.170659
0.169999
0.157235
0.127156
0.126557
0.156569
0.169333
0.168654
0.155888
0.125945
0.125331
0.155204
0.167969
0.167269
0.154504
0.124703
0.124073
0.1538
0.166564
0.165844
0.15308
0.123429
0.122782
0.152356
0.165117
0.164375
0.151616
0.12212
0.121456
0.150871
0.163627
0.162863
0.15011
0.120777
0.120095
0.149344
0.162092
0.161305
0.148561
0.119397
0.118697
0.147772
0.160511
0.1597
0.146967
0.117981
0.117261
0.146155
0.158881
0.158046
0.145327
0.116525
0.115786
0.144492
0.157203
0.156343
0.143639
0.11503
0.114271
0.14278
0.155473
0.154587
0.141903
0.113494
0.112714
0.141019
0.153692
0.152779
0.140116
0.111916
0.111115
0.139207
0.151857
0.150917
0.138278
0.110296
0.109473
0.137342
0.149967
0.148999
0.136387
0.108631
0.107785
0.135425
0.14802
0.147024
0.134442
0.106921
0.106052
0.133452
0.146016
0.144991
0.132442
0.105165
0.104273
0.131425
0.143954
0.1429
0.130387
0.103363
0.102448
0.129342
0.141834
0.140751
0.128277
0.101515
0.100578
0.127204
0.139655
0.138543
0.126111
0.0996212
0.098662
0.125012
0.137418
0.136277
0.123892
0.0976833
0.0967025
0.122765
0.135123
0.133953
0.121618
0.0957019
0.0947
0.120465
0.132771
0.131573
0.119292
0.0936784
0.0926561
0.118114
0.130362
0.129137
0.116915
0.0916141
0.0905724
0.115712
0.1279
0.126648
0.114489
0.0895109
0.0884507
0.113262
0.125384
0.124106
0.112014
0.0873699
0.0862904
0.110764
0.122818
0.121516
0.109492
0.0851721
0.0840454
0.108217
0.120206
0.118884
0.106921
0.0828849
0.0817197
0.105622
0.117553
0.11621
0.104301
0.0805244
0.0793286
0.10298
0.11486
0.113499
0.101639
0.0781071
0.0768892
0.100299
0.112133
0.110757
0.0989418
0.0756492
0.0744176
0.0975884
0.109378
0.107992
0.0962203
0.073168
0.0719312
0.0948595
0.106605
0.105213
0.093487
0.0706805
0.0694472
0.0921255
0.103824
0.102433
0.0907556
0.068204
0.0669832
0.0894013
0.101048
0.0996637
0.0880424
0.065757
0.0645584
0.0867038
0.0982905
0.0969214
0.0853645
0.0633588
0.0621919
0.0840506
0.0955677
0.0942215
0.0827401
0.0610284
0.0599027
0.0814602
0.0928955
0.0915804
0.0801876
0.0587847
0.0577094
0.0789508
0.0902905
0.089015
0.0777253
0.0566458
0.0556294
0.0765407
0.0877697
0.0865419
0.0753711
0.0546283
0.0536786
0.0742473
0.0853494
0.0841777
0.073142
0.0527476
0.0518715
0.0720869
0.0830457
0.0819358
0.0710519
0.0510154
0.0502176
0.0700718
0.0808711
0.0798309
0.0691145
0.0494418
0.0487249
0.0682138
0.0788387
0.0778729
0.0673375
0.0480308
0.047396
0.0665191
0.0769575
0.0760695
0.0657266
0.046784
0.0462308
0.0649928
0.0752337
0.0744249
0.0642842
0.0456993
0.0452254
0.0636345
0.0736696
0.0729403
0.0630088
0.0447713
0.0443722
0.0624407
0.0722649
0.0716133
0.0618944
0.0439899
0.0436597
0.061404
0.0710156
0.0704397
0.0609332
0.0433436
0.0430759
0.0605156
0.0699163
0.0694119
0.0601148
0.042819
0.0426066
0.0597641
0.0689583
0.0685206
0.0594269
0.0424017
0.0422369
0.0591362
0.0681299
0.0677529
0.0588555
0.0420764
0.0419518
0.0586173
0.0674196
0.067096
0.0583853
0.0418276
0.0417342
0.0581911
0.0668129
0.0665346
0.0579989
0.0416368
0.0415665
0.0578419
0.0662994
0.0660573
0.057682
0.041489
0.0414342
0.0575535
0.06586
0.0656452
0.057417
0.0413685
0.0413208
0.0573072
0.0654745
0.0652785
0.0571843
0.0412578
0.0412075
0.0570823
0.0651227
0.0649363
0.0569619
0.0411353
0.041079
0.0568611
0.064785
0.0645677
0.0567126
0.0409828
0.0408984
0.0566087
0.0644088
0.0641835
0.0564375
0.0407733
0.0406416
0.0562612
0.0639962
0.0637277
0.0560381
0.0404635
0.0402091
0.0557859
0.0634785
0.0634111
0.0556687
0.0400144
0.0402031
0.0557839
0.0636116
0.0636119
0.0557886
0.0403543
0.0722244
0.0783434
0.0827681
0.085455
0.0870086
0.0901277
0.0918302
0.0938734
0.0952026
0.0966555
0.0977042
0.0988204
0.0996797
0.10058
0.101306
0.102059
0.102689
0.103341
0.103903
0.104486
0.105001
0.105538
0.106021
0.106529
0.106993
0.107485
0.107941
0.108427
0.108882
0.109371
0.109831
0.110332
0.110803
0.111323
0.111812
0.112359
0.11287
0.113448
0.11398
0.114584
0.115116
0.115715
0.116197
0.116702
0.116975
0.117072
0.117026
0.116591
0.115095
0.110513
0.103262
0.0811504
0.0785395
0.101797
0.109513
0.108597
0.100434
0.075958
0.0735827
0.0991995
0.107754
0.107061
0.0982475
0.0717857
0.0710363
0.0977779
0.10672
0.106287
0.097288
0.0703079
0.0703254
0.0971879
0.106156
0.105884
0.0969396
0.0701785
0.0703632
0.0969659
0.105829
0.105584
0.0967486
0.0702406
0.0705177
0.096829
0.105561
0.105366
0.0966863
0.0705398
0.0708201
0.0967967
0.105356
0.105149
0.0966431
0.0707789
0.0710998
0.0967566
0.105147
0.104981
0.0966435
0.0711752
0.071485
0.0967668
0.104976
0.104777
0.0966293
0.0714827
0.0718241
0.0967459
0.104772
0.104606
0.0966389
0.0719241
0.0722463
0.0967554
0.104589
0.104384
0.0966178
0.0722625
0.0726122
0.0967239
0.104364
0.104186
0.0966111
0.0727226
0.0730477
0.0967095
0.104147
0.103927
0.096563
0.0730718
0.0734232
0.0966501
0.103883
0.103687
0.0965253
0.0735369
0.0738598
0.0965987
0.103618
0.103377
0.0964387
0.0738879
0.074239
0.096503
0.103304
0.103088
0.0963651
0.0743556
0.0746773
0.0964126
0.102987
0.102725
0.0962415
0.0747137
0.0750705
0.0962878
0.102624
0.102391
0.0961447
0.075201
0.0755323
0.0961761
0.10226
0.101988
0.096009
0.0755981
0.0759843
0.0960578
0.10187
0.101638
0.095937
0.0761714
0.0765606
0.095989
0.101498
0.101246
0.0958746
0.0767406
0.0772636
0.0959927
0.101148
0.100969
0.0959814
0.0776879
0.0783877
0.0962015
0.100909
0.100841
0.0963957
0.0791975
0.0803933
0.0968412
0.10093
0.100787
0.096997
0.081295
0.0818605
0.0968294
0.100335
0.0994697
0.0961158
0.0817895
0.0815948
0.0952266
0.0984125
0.0970722
0.093975
0.0809895
0.080601
0.0927378
0.095654
0.094139
0.0914622
0.0803672
0.0801166
0.0901651
0.0925626
0.0904274
0.0883871
0.0794851
0.0689685
0.0841244
0.0880533
0.0876245
0.0847884
0.0731192
0.0730347
0.0834791
0.0857742
0.0837649
0.0820043
0.0737854
0.0743868
0.0806124
0.0818306
0.0792375
0.0787283
0.0759948
0.0737733
0.0758955
0.0760419
0.0718546
0.0718154
0.0700495
0.066574
0.0674277
0.0670399
0.0620491
0.0625648
0.0626552
0.0574736
0.0577354
0.0583321
0.0539797
0.0522846
0.0515752
0.0445256
0.0460067
0.0487728
0.0434495
0.0395989
0.0367744
0.0290897
0.0340745
0.0395141
0.0393987
0.0328284
0.0251699
0.0300571
0.0390986
0.0448321
0.0517074
0.0480307
0.0412028
0.0574815
0.0606557
0.0622225
0.0794143
0.0777669
0.0767414
0.0966137
0.0942765
0.0937984
0.10584
0.108309
0.115767
0.135635
0.124538
0.120943
0.135937
0.139602
0.154487
0.171546
0.150847
0.146851
0.160572
0.164075
0.189612
0.207423
0.177067
0.17382
0.186
0.189982
0.226355
0.246937
0.210965
0.202661
0.226091
0.234569
0.264726
0.277082
0.252488
0.24471
0.260451
0.266212
0.285265
0.287174
0.271495
0.271097
0.273869
0.270767
0.282924
0.273116
0.267005
0.276653
0.274231
0.258966
0.258407
0.240136
0.246647
0.264779
0.261541
0.235307
0.219374
0.200071
0.22246
0.249508
0.234458
0.208272
0.182668
0.16692
0.196451
0.230942
0.215001
0.184945
0.156981
0.145954
0.162035
0.194797
0.188885
0.151914
0.131007
0.120842
0.142845
0.177184
0.157108
0.129265
0.105389
0.114508
0.146905
0.166671
0.159222
0.14048
0.109875
0.0987162
0.128276
0.146406
0.160758
0.144261
0.112724
0.109658
0.139434
0.155843
0.144869
0.128514
0.0997345
0.11385
0.143316
0.15806
0.153883
0.139256
0.111385
0.102369
0.129392
0.144229
0.156152
0.143305
0.115409
0.113805
0.14031
0.153472
0.144825
0.131282
0.10548
0.117999
0.144183
0.155986
0.149585
0.137367
0.112014
0.124712
0.149176
0.160066
0.157697
0.146201
0.122787
0.115953
0.138626
0.150538
0.160944
0.15059
0.127836
0.125843
0.148154
0.159151
0.152851
0.141505
0.118997
0.130626
0.153046
0.162421
0.161308
0.151263
0.129411
0.122177
0.144221
0.154988
0.163433
0.154658
0.132279
0.128196
0.149981
0.159499
0.167677
0.159419
0.138061
0.136288
0.157066
0.166248
0.160776
0.150874
0.130231
0.13987
0.160912
0.16862
0.1648
0.156066
0.135234
0.144188
0.164415
0.171969
0.171317
0.162742
0.143063
0.137965
0.157536
0.16663
0.174267
0.166899
0.146769
0.144959
0.16476
0.173526
0.168657
0.159339
0.138071
0.148073
0.169279
0.176399
0.17307
0.164712
0.143882
0.152176
0.173148
0.180198
0.176618
0.168419
0.147781
0.157023
0.176394
0.183033
0.182775
0.175214
0.156462
0.151137
0.170009
0.178403
0.184966
0.178342
0.15788
0.153706
0.17405
0.182069
0.188991
0.182555
0.163522
0.163008
0.181592
0.189068
0.184787
0.17635
0.1574
0.164133
0.18458
0.191113
0.188216
0.180253
0.159919
0.169404
0.188929
0.195044
0.192638
0.185297
0.166326
0.174672
0.193071
0.199209
0.198684
0.191206
0.17327
0.167389
0.186241
0.194527
0.201237
0.194894
0.175831
0.172634
0.191483
0.198962
0.205874
0.200032
0.180789
0.177413
0.196209
0.203385
0.20908
0.203105
0.184343
0.183255
0.201821
0.209012
0.205458
0.197342
0.178555
0.186471
0.206155
0.211779
0.209479
0.202141
0.182629
0.190395
0.209844
0.215392
0.212899
0.205724
0.186588
0.194851
0.213078
0.2188
0.21922
0.212314
0.19443
0.18965
0.207873
0.215829
0.221785
0.216283
0.196882
0.192742
0.212168
0.219405
0.225565
0.219802
0.200396
0.197053
0.215973
0.223202
0.229279
0.223871
0.205372
0.202699
0.220642
0.227377
0.232891
0.227515
0.210018
0.208521
0.22584
0.232651
0.229132
0.221225
0.203174
0.210466
0.229259
0.23508
0.233049
0.225842
0.206594
0.213914
0.233956
0.239057
0.236998
0.229991
0.210751
0.218107
0.237583
0.242613
0.240227
0.233416
0.214429
0.221446
0.240339
0.245608
0.243928
0.237235
0.21891
0.227061
0.24449
0.249479
0.250043
0.243619
0.226295
0.221816
0.239323
0.246969
0.252555
0.247516
0.228157
0.223836
0.243646
0.250344
0.256263
0.251009
0.231609
0.22884
0.247636
0.254456
0.260347
0.255424
0.236532
0.233359
0.251713
0.258346
0.26348
0.258518
0.240107
0.237482
0.255255
0.261757
0.267015
0.262196
0.245248
0.244118
0.261126
0.267407
0.264488
0.257115
0.239579
0.24635
0.26481
0.270069
0.26812
0.261078
0.242274
0.249411
0.268894
0.273663
0.271848
0.2651
0.246376
0.25322
0.272263
0.276977
0.275007
0.268442
0.249859
0.256612
0.275316
0.280138
0.278703
0.272212
0.254135
0.262328
0.279501
0.283999
0.284866
0.278654
0.261743
0.256242
0.274915
0.281711
0.287243
0.282
0.262758
0.25926
0.278459
0.28533
0.291262
0.286636
0.266772
0.263744
0.283008
0.289619
0.295079
0.290563
0.271051
0.268295
0.287064
0.293423
0.298641
0.294027
0.275151
0.272722
0.29101
0.29732
0.302734
0.298407
0.281107
0.280399
0.297381
0.303557
0.300586
0.293339
0.274909
0.281171
0.30102
0.305683
0.304129
0.297465
0.277671
0.285715
0.305247
0.310069
0.308302
0.301588
0.282317
0.29003
0.309172
0.313899
0.312345
0.30588
0.287358
0.294558
0.313157
0.317785
0.316201
0.309703
0.291423
0.299103
0.316644
0.321248
0.322259
0.315964
0.298194
0.294006
0.312124
0.319833
0.32578
0.321073
0.301754
0.298138
0.317256
0.324186
0.330005
0.325377
0.305615
0.302338
0.321572
0.328246
0.33362
0.328868
0.30941
0.30643
0.325203
0.331953
0.337706
0.333259
0.31486
0.312612
0.330419
0.336682
0.34199
0.337603
0.320638
0.320372
0.337271
0.343349
0.34055
0.333333
0.315467
0.32086
0.340586
0.345652
0.344175
0.337181
0.317485
0.325698
0.345739
0.350341
0.349209
0.342331
0.322922
0.332237
0.350987
0.355193
0.354511
0.348374
0.330196
0.338188
0.355919
0.359961
0.361461
0.355524
0.337499
0.332222
0.351117
0.358569
0.36389
0.358878
0.338701
0.335318
0.355479
0.362494
0.369058
0.364501
0.344205
0.342604
0.361949
0.368602
0.37531
0.371412
0.352596
0.350121
0.368437
0.374409
0.3791
0.374655
0.356781
0.355534
0.373512
0.380112
0.377677
0.370274
0.350931
0.359676
0.379365
0.384236
0.383676
0.37692
0.357096
0.368136
0.386914
0.390851
0.390696
0.384928
0.366378
0.373772
0.391907
0.395968
0.39719
0.390807
0.371922
0.367333
0.386723
0.394622
0.400985
0.396171
0.375225
0.372684
0.393438
0.400504
0.408157
0.40419
0.384508
0.383315
0.402368
0.408438
0.414415
0.410494
0.392075
0.390544
0.409705
0.415874
0.412829
0.405007
0.38474
0.392172
0.413324
0.418548
0.417837
0.410522
0.389417
0.40227
0.421966
0.426084
0.427475
0.421627
0.402264
0.412298
0.430648
0.434185
0.435549
0.429422
0.409808
0.40452
0.424834
0.432802
0.439147
0.433954
0.412976
0.410157
0.431545
0.438861
0.447077
0.442962
0.423826
0.427147
0.446738
0.452595
0.450887
0.44353
0.423658
0.429738
0.451338
0.456575
0.454848
0.447276
0.424841
0.436463
0.457176
0.462004
0.466261
0.458983
0.437154
0.436655
0.458135
0.466512
0.476106
0.47201
0.451088
0.447265
0.468825
0.475402
0.48138
0.476654
0.455123
0.453142
0.475566
0.483379
0.482
0.473258
0.44976
0.465451
0.486973
0.491639
0.495018
0.488914
0.46736
0.482108
0.501872
0.504813
0.507119
0.500906
0.478803
0.473081
0.496237
0.504933
0.512505
0.50731
0.485134
0.487349
0.510957
0.518472
0.520893
0.512997
0.489324
0.505643
0.528
0.531856
0.534172
0.526698
0.501317
0.494732
0.521731
0.531593
0.540366
0.53478
0.511012
0.516092
0.541817
0.548794
0.550335
0.541461
0.517453
0.530867
0.555449
0.560421
0.56376
0.555359
0.527361
0.523845
0.552667
0.563461
0.576125
0.572929
0.551476
0.559445
0.5816
0.586853
0.586365
0.578125
0.553027
0.563602
0.588641
0.594199
0.600279
0.59263
0.565096
0.571057
0.596566
0.605006
0.61985
0.617628
0.59302
0.586995
0.617617
0.624197
0.629595
0.620984
0.587923
0.589907
0.621518
0.631876
0.644798
0.641293
0.611744
0.607238
0.642908
0.649098
0.656978
0.649549
0.611636
0.609184
0.653163
0.663362
0.667845
0.657003
0.603456
0.59462
0.654189
0.668192
0.664532
0.64829
0.582061
0.556512
0.622088
0.644576
0.642777
0.6246
0.56599
0.524481
0.591083
0.612309
0.586459
0.560688
0.486196
0.452524
0.534031
0.563504
0.5454
0.512914
0.426002
0.403784
0.495271
0.530601
0.517798
0.479664
0.384393
0.36659
0.465187
0.506014
0.494999
0.451598
0.350419
0.33557
0.438759
0.484597
0.474773
0.426701
0.322036
0.309702
0.415328
0.46543
0.456526
0.404618
0.298406
0.288055
0.394526
0.448028
0.439903
0.385031
0.278568
0.269863
0.376098
0.432123
0.424684
0.367717
0.261872
0.254547
0.35986
0.417551
0.410728
0.352504
0.247847
0.241715
0.345607
0.404188
0.397915
0.339143
0.236109
0.230989
0.333079
0.391899
0.386126
0.327395
0.226324
0.222077
0.322062
0.380587
0.375284
0.317069
0.218223
0.214732
0.312373
0.37019
0.365312
0.30796
0.211577
0.208724
0.303805
0.360635
0.356162
0.299899
0.206156
0.203851
0.296221
0.351863
0.347749
0.292762
0.201786
0.199938
0.289504
0.343803
0.340036
0.286442
0.198292
0.196831
0.283558
0.336423
0.332978
0.280846
0.195536
0.194388
0.278291
0.329684
0.32655
0.27589
0.193376
0.192486
0.273627
0.323553
0.320707
0.271499
0.191704
0.191014
0.269495
0.317994
0.315425
0.267613
0.190409
0.18988
0.265841
0.312976
0.310661
0.264178
0.189419
0.189013
0.262614
0.30846
0.306385
0.261148
0.188658
0.18835
0.259771
0.304412
0.302555
0.258481
0.188081
0.187845
0.257272
0.300793
0.299137
0.256139
0.187637
0.187457
0.25508
0.297568
0.296094
0.254089
0.1873
0.187162
0.253165
0.294699
0.29339
0.252301
0.18704
0.186942
0.251494
0.292154
0.290995
0.250745
0.186854
0.186789
0.250048
0.289902
0.288878
0.249401
0.186731
0.186694
0.248801
0.287914
0.287013
0.248251
0.186663
0.186651
0.247742
0.286165
0.285371
0.247276
0.18664
0.186649
0.246847
0.284625
0.283932
0.246461
0.186663
0.186694
0.246108
0.283281
0.282673
0.24579
0.186724
0.186772
0.245501
0.282102
0.281575
0.245249
0.186826
0.186897
0.245026
0.28108
0.280619
0.244828
0.186967
0.187054
0.244663
0.280183
0.279786
0.244524
0.187147
0.187259
0.244414
0.279412
0.27907
0.244324
0.187371
0.187501
0.244255
0.278748
0.278458
0.244207
0.187633
0.187783
0.244184
0.278201
0.277955
0.244172
0.187927
0.18809
0.244181
0.277756
0.277571
0.244202
0.188256
0.188439
0.244244
0.27742
0.277274
0.244288
0.188616
0.188808
0.24435
0.27716
0.277057
0.24442
0.189
0.189205
0.244508
0.276981
0.276906
0.2446
0.189405
0.189617
0.244703
0.276862
0.276824
0.244817
0.189828
0.19005
0.244946
0.276811
0.276798
0.245076
0.190266
0.190491
0.245219
0.27681
0.276827
0.245368
0.190717
0.190952
0.245532
0.276868
0.276907
0.245696
0.191181
0.191418
0.245871
0.276968
0.277035
0.246053
0.191657
0.191904
0.246247
0.277122
0.277208
0.246442
0.192146
0.192395
0.246646
0.277312
0.277422
0.246857
0.192645
0.192904
0.247078
0.27755
0.277675
0.247299
0.193159
0.193419
0.247529
0.277817
0.277964
0.247764
0.193682
0.193952
0.248009
0.278126
0.278284
0.248252
0.194218
0.194488
0.248503
0.278458
0.278634
0.248758
0.194761
0.19504
0.249021
0.278825
0.279011
0.249283
0.195315
0.195594
0.24955
0.27921
0.279411
0.249821
0.195875
0.19616
0.250099
0.279625
0.279831
0.250377
0.196443
0.196728
0.250656
0.280054
0.280275
0.25094
0.197015
0.197305
0.25123
0.280507
0.280733
0.251519
0.197593
0.197883
0.251809
0.280973
0.28121
0.252103
0.198172
0.198465
0.2524
0.281456
0.281698
0.252696
0.198753
0.199044
0.252995
0.281949
0.282198
0.253295
0.199334
0.199627
0.253598
0.282456
0.282709
0.253899
0.199915
0.200205
0.254202
0.282969
0.283228
0.254505
0.200493
0.200783
0.254811
0.283494
0.283752
0.255116
0.201069
0.201356
0.255419
0.284023
0.284288
0.255725
0.201641
0.201926
0.256031
0.284559
0.284823
0.256337
0.202207
0.202489
0.256639
0.285097
0.285366
0.256944
0.202769
0.203049
0.25725
0.285641
0.28591
0.257552
0.203324
0.203598
0.257855
0.286183
0.286455
0.258157
0.203871
0.204144
0.258459
0.286731
0.287001
0.258759
0.204412
0.204679
0.259057
0.287274
0.287546
0.259355
0.204943
0.205207
0.259653
0.28782
0.288087
0.259948
0.205465
0.205723
0.260239
0.288362
0.288631
0.260531
0.205978
0.206233
0.260823
0.288903
0.289167
0.261112
0.206482
0.20673
0.261397
0.289439
0.289705
0.261682
0.206975
0.207219
0.261967
0.289973
0.290233
0.262249
0.207457
0.207694
0.262527
0.290498
0.29076
0.262804
0.207929
0.208163
0.263081
0.291023
0.291282
0.263353
0.208391
0.208618
0.263624
0.291541
0.291798
0.263893
0.208842
0.209065
0.26416
0.292058
0.292308
0.264426
0.209282
0.209498
0.264687
0.292563
0.292813
0.264947
0.209711
0.209923
0.265206
0.293064
0.29331
0.265461
0.21013
0.210335
0.265714
0.293556
0.293799
0.265966
0.210537
0.210738
0.266215
0.294043
0.29428
0.266462
0.210934
0.211129
0.266704
0.294522
0.294758
0.266946
0.211321
0.211513
0.267187
0.294995
0.295227
0.267424
0.211699
0.211884
0.267658
0.295459
0.295688
0.26789
0.212066
0.212247
0.268121
0.295917
0.296142
0.268349
0.212423
0.212597
0.268573
0.296366
0.296587
0.268796
0.212769
0.21294
0.269017
0.296808
0.297024
0.269235
0.213107
0.213271
0.26945
0.297239
0.297452
0.269662
0.213433
0.213594
0.269873
0.297666
0.297873
0.270082
0.213751
0.213907
0.270287
0.298083
0.298288
0.270491
0.214059
0.214212
0.270694
0.298493
0.298693
0.270894
0.21436
0.214508
0.27109
0.298896
0.299094
0.271285
0.214653
0.214797
0.271479
0.299291
0.299484
0.271672
0.214938
0.215078
0.271859
0.299679
0.299869
0.272046
0.215215
0.215351
0.272231
0.300059
0.300245
0.272415
0.215484
0.215617
0.272594
0.300432
0.300615
0.272773
0.215746
0.215875
0.27295
0.300797
0.300975
0.273126
0.216001
0.216126
0.273297
0.301155
0.301331
0.273467
0.216248
0.21637
0.273636
0.301506
0.301677
0.273804
0.216488
0.216607
0.273967
0.30185
0.302019
0.27413
0.216722
0.216837
0.274291
0.302186
0.30235
0.274452
0.216949
0.217061
0.274607
0.302516
0.302678
0.274762
0.21717
0.217278
0.274916
0.302838
0.302996
0.275069
0.217385
0.21749
0.275218
0.303152
0.303308
0.275366
0.217593
0.217697
0.275511
0.303464
0.303614
0.275658
0.217797
0.217897
0.275799
0.303765
0.303913
0.27594
0.217994
0.218091
0.276079
0.304059
0.304203
0.276218
0.218186
0.21828
0.276353
0.304345
0.304486
0.276487
0.218372
0.218464
0.276618
0.304628
0.304764
0.27675
0.218553
0.218641
0.276878
0.3049
0.305034
0.277005
0.218728
0.218814
0.27713
0.305167
0.305299
0.277254
0.218899
0.218982
0.277376
0.305428
0.305556
0.277496
0.219064
0.219145
0.277614
0.305684
0.305808
0.277733
0.219224
0.219302
0.277847
0.305932
0.306053
0.277961
0.219379
0.219455
0.278074
0.306173
0.306291
0.278187
0.219529
0.219602
0.278295
0.306409
0.306525
0.278403
0.219674
0.219745
0.27851
0.306639
0.306753
0.278615
0.219815
0.219884
0.278719
0.306863
0.306973
0.278821
0.219951
0.220017
0.278921
0.307082
0.307188
0.279022
0.220083
0.220147
0.279118
0.307295
0.307397
0.279216
0.22021
0.220273
0.279311
0.307501
0.307604
0.279405
0.220334
0.220395
0.279497
0.307703
0.307802
0.279588
0.220454
0.220513
0.279678
0.3079
0.307998
0.279767
0.22057
0.220627
0.279854
0.308092
0.308186
0.27994
0.220682
0.220737
0.280024
0.30828
0.308371
0.28011
0.220791
0.220844
0.280192
0.30846
0.308549
0.280273
0.220895
0.220947
0.280352
0.308638
0.308724
0.280433
0.220998
0.221047
0.280509
0.30881
0.308894
0.280586
0.221095
0.221143
0.280662
0.308977
0.309059
0.280739
0.22119
0.221237
0.28081
0.30914
0.30922
0.280882
0.221282
0.221327
0.280954
0.309299
0.309375
0.281026
0.221371
0.221414
0.281093
0.309453
0.309529
0.281161
0.221457
0.221499
0.281229
0.309603
0.309676
0.281297
0.22154
0.22158
0.28136
0.309749
0.309821
0.281424
0.22162
0.221659
0.281488
0.309892
0.309961
0.281552
0.221697
0.221735
0.281611
0.31003
0.310098
0.281672
0.221772
0.221809
0.281732
0.310165
0.31023
0.281793
0.221844
0.22188
0.281849
0.310297
0.310361
0.281906
0.221914
0.221949
0.281963
0.310425
0.310486
0.28202
0.221982
0.222015
0.282072
0.310549
0.31061
0.282126
0.222047
0.222079
0.28218
0.310671
0.310729
0.282234
0.22211
0.222142
0.282283
0.310789
0.310847
0.282334
0.222171
0.222201
0.282385
0.310904
0.310961
0.282435
0.222231
0.222259
0.282483
0.311016
0.311071
0.282531
0.222287
0.222316
0.282579
0.311125
0.311178
0.282627
0.222343
0.22237
0.282671
0.311232
0.311283
0.282718
0.222396
0.222423
0.282761
0.311336
0.311386
0.282807
0.222449
0.222474
0.28285
0.311436
0.311486
0.282892
0.222499
0.222524
0.282933
0.311536
0.311583
0.282977
0.222548
0.222572
0.283016
0.311632
0.311679
0.283057
0.222595
0.222618
0.283097
0.311726
0.311772
0.283137
0.222641
0.222663
0.283176
0.311817
0.311862
0.283214
0.222685
0.222707
0.283253
0.311906
0.31195
0.28329
0.222728
0.22275
0.283327
0.311993
0.312036
0.283363
0.22277
0.222791
0.283399
0.312078
0.31212
0.283435
0.222811
0.222831
0.283469
0.31216
0.312201
0.283504
0.22285
0.222869
0.283538
0.312241
0.312281
0.283571
0.222888
0.222907
0.283604
0.312319
0.312358
0.283636
0.222925
0.222943
0.283668
0.312396
0.312433
0.2837
0.22296
0.222978
0.283731
0.31247
0.312506
0.283761
0.222995
0.223012
0.283792
0.312542
0.312579
0.283822
0.223029
0.223045
0.283851
0.312613
0.312648
0.28388
0.223061
0.223077
0.283909
0.312682
0.312717
0.283937
0.223093
0.223108
0.283965
0.31275
0.312784
0.283993
0.223124
0.223139
0.28402
0.312816
0.312849
0.284048
0.223154
0.223169
0.284074
0.312881
0.312913
0.2841
0.223184
0.223198
0.284127
0.312944
0.312976
0.284153
0.223213
0.223227
0.284178
0.313006
0.313037
0.284203
0.223241
0.223255
0.284228
0.313067
0.313097
0.284253
0.223269
0.223283
0.284277
0.313126
0.313155
0.284302
0.223296
0.22331
0.284326
0.313184
0.313212
0.284351
0.223323
0.223337
0.284373
0.313242
0.31327
0.284396
0.22335
0.223363
0.28442
0.313298
0.313325
0.284444
0.223376
0.223389
0.284465
0.313354
0.313381
0.284488
0.223402
0.223415
0.284511
0.313408
0.313434
0.284535
0.223428
0.223441
0.284555
0.313462
0.313489
0.284577
0.223454
0.223467
0.2846
0.313516
0.313541
0.284623
0.22348
0.223493
0.284644
0.313569
0.313596
0.284666
0.223506
0.22352
0.284688
0.313622
0.313649
0.284711
0.223533
0.223547
0.284733
0.313675
0.313702
0.284755
0.22356
0.223575
0.284778
0.313729
0.313755
0.284803
0.223589
0.223604
0.284825
0.313782
0.313809
0.284848
0.223619
0.223635
0.284872
0.313837
0.313867
0.284896
0.223652
0.223668
0.28492
0.313893
0.313923
0.284945
0.223685
0.223703
0.28497
0.313953
0.313982
0.284997
0.22372
0.223739
0.285022
0.314012
0.314042
0.285048
0.223757
0.223776
0.285076
0.314073
0.314103
0.285105
0.223795
0.223816
0.285131
0.314135
0.314166
0.285158
0.223835
0.223855
0.285187
0.314198
0.314229
0.285217
0.223875
0.223895
0.285243
0.314261
0.314292
0.285271
0.223914
0.223934
0.285299
0.314324
0.314354
0.285328
0.223952
0.223971
0.285353
0.314385
0.314415
0.285379
0.223988
0.224006
0.285406
0.314444
0.314473
0.28543
0.224021
0.224037
0.285455
0.314501
0.314529
0.285479
0.224051
0.224068
0.285504
0.314558
0.314586
0.285528
0.224083
0.2241
0.285553
0.314616
0.314646
0.285579
0.224118
0.224141
0.285611
0.314679
0.314715
0.285641
0.224167
0.224215
0.285686
0.314759
0.314787
0.285731
0.224276
0.224357
0.285758
0.314838
0.314857
0.285731
0.224344
0.224522
0.285927
0.315234
0.316701
0.286765
0.225417
0.227417
0.288716
0.319321
0.321599
0.290909
0.229638
0.354466
0.376216
0.388106
0.393761
0.399879
0.405166
0.408882
0.411949
0.418105
0.421923
0.427257
0.431777
0.435397
0.438449
0.440978
0.44309
0.444853
0.446328
0.447567
0.448614
0.449501
0.450256
0.450902
0.451456
0.451934
0.452348
0.452707
0.45302
0.453295
0.453536
0.453749
0.453937
0.454105
0.454254
0.454388
0.454507
0.454615
0.454712
0.4548
0.454879
0.45495
0.455015
0.455073
0.455126
0.455174
0.455216
0.455255
0.455289
0.455319
0.455345
0.455369
0.455388
0.455405
0.455416
0.455425
0.455429
0.455431
0.455446
0.45545
0.455454
0.455459
0.455465
0.45547
0.455476
0.455482
0.455489
0.455495
0.4555
0.455506
0.455511
0.455516
0.45552
0.455523
0.455525
0.455525
0.455524
0.455521
0.455516
0.455508
0.455498
0.455485
0.455468
0.455449
0.455425
0.455399
0.455369
0.455335
0.455299
0.455259
0.455218
0.455176
0.455134
0.455094
0.455058
0.455021
0.454971
0.454904
0.454823
0.454729
0.454623
0.454507
0.454382
0.454249
0.454106
0.453954
0.453794
0.453623
0.453444
0.453255
0.453055
0.452845