/*--------------------------------*- C++ -*----------------------------------*\
| =========                 |                                                 |
| \\      /  F ield         | OpenFOAM: The Open Source CFD Toolbox           |
|  \\    /   O peration     | Version:  v2006                                 |
|   \\  /    A nd           | Website:  www.openfoam.com                      |
|    \\/     M anipulation  |                                                 |
\*---------------------------------------------------------------------------*/
FoamFile
{
    version     2.0;
    format      ascii;
    class       volScalarField;
    location    "0.04";
    object      nut;
}
// * * * * * * * * * * * * * * * * * * * * * * * * * * * * * * * * * * * * * //

dimensions      [0 2 -1 0 0 0 0];


internalField   nonuniform List<scalar> 
24416
(
416.756
401.314
1917.74
1751.66
1867.1
1878.27
1916.06
1823.69
1559.79
1313.48
1233.56
1853.25
7228.8
1342.53
169.282
20.5208
4.73702
1.86466
1.06972
0.769855
0.627188
0.549246
0.502708
0.472077
0.449441
0.430819
0.414327
0.39918
0.385138
0.372181
0.360341
0.349623
0.339987
0.33135
0.32361
0.316652
0.310371
0.30467
0.299468
0.294703
0.290323
0.286288
0.28257
0.279143
0.275989
0.273092
0.27044
0.268023
0.265833
0.263863
0.262107
0.260561
0.259221
0.258085
0.257151
0.256417
0.255884
0.255555
0.255421
0.255482
0.255752
0.256234
0.256931
0.257847
0.258989
0.260365
0.261986
0.263867
0.266028
0.268498
0.271314
0.274523
0.278188
0.282379
0.287166
0.292605
0.298709
0.305423
0.312572
0.319853
0.326896
0.333379
0.339273
0.34532
0.353792
0.369731
0.403416
0.476377
0.641362
1.06281
2.39798
8.13754
44.2181
333.274
1847.74
416.985
88.9389
24.6839
8.50717
3.46557
1.26853
0.579491
0.372748
0.198814
0.127061
0.0872763
0.0487753
0.0127933
0.00234852
7.67297e-05
6.71619e-05
0.00107412
0.00490038
0.003124
0.000803387
6.04656e-05
5.50554e-05
0.000701571
0.0025136
0.00214177
0.000626332
5.15366e-05
4.8597e-05
0.000598639
0.00193014
0.00174254
0.00055377
4.63773e-05
4.45309e-05
0.000532406
0.00164259
0.00152425
0.000495888
4.264e-05
4.11867e-05
0.000482606
0.00146685
0.00138427
0.000467062
3.99689e-05
3.91227e-05
0.000459994
0.00135283
0.00129473
0.000447886
3.82353e-05
3.76427e-05
0.000443014
0.00127364
0.00122814
0.00043308
3.69704e-05
3.6536e-05
0.000429555
0.00121307
0.00117511
0.000421138
3.60096e-05
3.56742e-05
0.000418317
0.00116358
0.0011308
0.000411101
3.52491e-05
3.49786e-05
0.00040859
0.0011213
0.00109261
0.000402303
3.46235e-05
3.43977e-05
0.000400009
0.00108455
0.00105894
0.000394436
3.40922e-05
3.38981e-05
0.000392294
0.00105199
0.00102882
0.00038727
3.36288e-05
3.34579e-05
0.000385263
0.00102274
0.00100156
0.000380677
3.32157e-05
3.30621e-05
0.00037879
0.000996186
0.000976653
0.000374564
3.28406e-05
3.27009e-05
0.000372802
0.000971875
0.000953742
0.00036886
3.24971e-05
3.23683e-05
0.000367202
0.000949458
0.000932513
0.000363501
3.21779e-05
3.20578e-05
0.000361938
0.000928658
0.000912767
0.000358453
3.18787e-05
3.17659e-05
0.000356984
0.000909284
0.000894329
0.000353689
3.15966e-05
3.149e-05
0.000352304
0.000891175
0.000877058
0.000349179
3.13292e-05
3.1228e-05
0.000347872
0.000874198
0.000860833
0.0003449
3.10746e-05
3.09782e-05
0.000343665
0.000858233
0.000845555
0.000340834
3.08314e-05
3.07392e-05
0.000339665
0.000843191
0.000831137
0.000336962
3.05983e-05
3.05099e-05
0.000335855
0.000828989
0.000817504
0.000333269
3.03745e-05
3.02894e-05
0.00033222
0.000815555
0.000804608
0.000329744
3.01589e-05
3.00768e-05
0.000328751
0.000802844
0.000792399
0.000326378
2.99508e-05
2.98716e-05
0.000325438
0.000790807
0.000780802
0.000323162
2.97497e-05
2.96731e-05
0.000322272
0.00077938
0.00076978
0.000320086
2.9555e-05
2.94808e-05
0.000319241
0.000768512
0.000759282
0.000317136
2.93663e-05
2.92942e-05
0.000316333
0.000758156
0.000749275
0.000314302
2.91828e-05
2.91127e-05
0.000313539
0.000748273
0.000739709
0.000311576
2.90042e-05
2.8936e-05
0.000310849
0.000738822
0.000730548
0.000308947
2.883e-05
2.87634e-05
0.000308254
0.000729765
0.000721766
0.000306407
2.86597e-05
2.85945e-05
0.000305745
0.000721079
0.000713337
0.00030395
2.84929e-05
2.8429e-05
0.000303317
0.00071274
0.000705241
0.00030157
2.83293e-05
2.82665e-05
0.000300965
0.000704724
0.000697442
0.00029926
2.81684e-05
2.81067e-05
0.00029868
0.000696999
0.000689926
0.000297015
2.80099e-05
2.79492e-05
0.000296458
0.000689547
0.000682661
0.000294826
2.78536e-05
2.77937e-05
0.000294291
0.000682342
0.000675634
0.000292689
2.76992e-05
2.76399e-05
0.000292173
0.00067537
0.00066883
0.000290599
2.75461e-05
2.74874e-05
0.000290102
0.000668613
0.000662224
0.000288551
2.73943e-05
2.7336e-05
0.000288071
0.000662048
0.000655797
0.00028654
2.72434e-05
2.71855e-05
0.000286075
0.000655657
0.000649533
0.00028456
2.70931e-05
2.70354e-05
0.000284109
0.000649425
0.000643421
0.000282607
2.69432e-05
2.68856e-05
0.000282168
0.000643342
0.000637449
0.000280677
2.67933e-05
2.67357e-05
0.000280249
0.000637394
0.000631606
0.000278766
2.66432e-05
2.65854e-05
0.000278349
0.000631573
0.000625882
0.000276873
2.64926e-05
2.64347e-05
0.000276466
0.000625869
0.000620266
0.000274994
2.63414e-05
2.62832e-05
0.000274595
0.000620271
0.000614758
0.000273126
2.61892e-05
2.61307e-05
0.000272738
0.000614788
0.000609349
0.00027127
2.6036e-05
2.5977e-05
0.00027089
0.000609396
0.00060402
0.000269422
2.58814e-05
2.5822e-05
0.000269048
0.000604087
0.000598775
0.000267577
2.57254e-05
2.56653e-05
0.000267212
0.000598874
0.000593616
0.000265737
2.55677e-05
2.55069e-05
0.00026538
0.000593738
0.000588524
0.0002639
2.5408e-05
2.53466e-05
0.000263548
0.000588663
0.000583485
0.00026206
2.52464e-05
2.51842e-05
0.000261713
0.000583638
0.000578491
0.000260214
2.50824e-05
2.50193e-05
0.00025987
0.000578655
0.000573535
0.000258357
2.49158e-05
2.48517e-05
0.000258017
0.000573709
0.00056861
0.000256489
2.47462e-05
2.46811e-05
0.000256151
0.000568793
0.000563713
0.000254606
2.45736e-05
2.45072e-05
0.000254271
0.000563904
0.000558837
0.000252706
2.43976e-05
2.43299e-05
0.000252373
0.000559036
0.000553979
0.000250788
2.42179e-05
2.41489e-05
0.000250457
0.000554184
0.000549133
0.00024885
2.40344e-05
2.39639e-05
0.00024852
0.000549343
0.000544293
0.000246888
2.38468e-05
2.37748e-05
0.000246558
0.000544507
0.000539458
0.000244901
2.36549e-05
2.35811e-05
0.000244569
0.000539678
0.000534629
0.000242893
2.34583e-05
2.33828e-05
0.000242555
0.000534853
0.000529801
0.000240858
2.3257e-05
2.31796e-05
0.000240514
0.000530028
0.000524967
0.000238795
2.30506e-05
2.29712e-05
0.000238445
0.000525195
0.000520119
0.000236702
2.28388e-05
2.27575e-05
0.000236344
0.000520348
0.000515254
0.000234576
2.26215e-05
2.2538e-05
0.00023421
0.000515482
0.000510365
0.000232414
2.23984e-05
2.23126e-05
0.000232039
0.000510593
0.000505449
0.000230214
2.2169e-05
2.2081e-05
0.00022983
0.000505676
0.000500504
0.000227975
2.19332e-05
2.18427e-05
0.000227581
0.000500729
0.000495519
0.000225692
2.16906e-05
2.15977e-05
0.000225288
0.000495742
0.000490488
0.000223363
2.1441e-05
2.13454e-05
0.000222947
0.000490709
0.000485414
0.000220985
2.1184e-05
2.10856e-05
0.000220559
0.000485636
0.000480302
0.00021856
2.09192e-05
2.0818e-05
0.000218123
0.000480527
0.000475152
0.000216089
2.06465e-05
2.05424e-05
0.000215643
0.000475383
0.000469966
0.000213573
2.03657e-05
2.02587e-05
0.000213119
0.000470205
0.000464743
0.000211014
2.00766e-05
1.99667e-05
0.000210552
0.000464993
0.000459488
0.000208412
1.97792e-05
1.96664e-05
0.000207944
0.000459751
0.000454192
0.000205765
1.94735e-05
1.93576e-05
0.000205291
0.000454472
0.000448864
0.000203075
1.91594e-05
1.90401e-05
0.000202594
0.000449143
0.0004435
0.000200338
1.88373e-05
1.87133e-05
0.000199857
0.000443795
0.000438119
0.000197558
1.85082e-05
1.83755e-05
0.00019708
0.000438433
0.00043272
0.000194736
1.81753e-05
1.8022e-05
0.000194246
0.000433041
0.00042726
0.000191819
1.78703e-05
1.78165e-05
0.000191239
0.000427521
0.000421652
0.000188753
1.77128e-05
1.7682e-05
0.000188118
0.000421801
0.000415874
0.000185623
1.75887e-05
1.75624e-05
0.000184969
0.000415923
0.000409985
0.000182497
1.74702e-05
1.74442e-05
0.000181848
0.000409968
0.00040405
0.000179413
1.73509e-05
1.73244e-05
0.00017879
0.000404013
0.000398144
0.000176402
1.72296e-05
1.72025e-05
0.000175818
0.000398129
0.000392345
0.000173488
1.7106e-05
1.70786e-05
0.00017295
0.000392392
0.000386719
0.000170684
1.69805e-05
1.69529e-05
0.000170203
0.000386866
0.000381327
0.000168009
1.68534e-05
1.68258e-05
0.000167593
0.000381612
0.000376226
0.000165478
1.6725e-05
1.66978e-05
0.000165135
0.000376684
0.000371469
0.000163104
1.6596e-05
1.65695e-05
0.000162838
0.000372126
0.000367093
0.000160896
1.6467e-05
1.64413e-05
0.000160712
0.000367973
0.000363129
0.00015886
1.63384e-05
1.63139e-05
0.000158761
0.000364251
0.000359603
0.000157001
1.62109e-05
1.61878e-05
0.000156985
0.000360981
0.000356534
0.000155319
1.6085e-05
1.60633e-05
0.000155384
0.000358174
0.000353914
0.000153803
1.59608e-05
1.59406e-05
0.000153948
0.000355819
0.000351726
0.000152441
1.58386e-05
1.58198e-05
0.000152657
0.000353919
0.000349901
0.000151219
1.57184e-05
1.57005e-05
0.000151489
0.000352394
0.000348515
0.000150108
1.55994e-05
1.5582e-05
0.000150421
0.000351207
0.000347458
0.000149091
1.54813e-05
1.54641e-05
0.000149436
0.000350319
0.000346667
0.00014814
1.53637e-05
1.53464e-05
0.000148499
0.000349655
0.000346065
0.000147218
1.52461e-05
1.52281e-05
0.000147578
0.000349136
0.000345595
0.000146307
1.51279e-05
1.51087e-05
0.000146652
0.000348706
0.000345196
0.000145385
1.50089e-05
1.49885e-05
0.0001457
0.000348269
0.000344864
0.000144432
1.48892e-05
1.48674e-05
0.000144711
0.0003478
0.000344391
0.000143439
1.47693e-05
1.47462e-05
0.000143668
0.000347231
0.000343774
0.000142374
1.46494e-05
1.46237e-05
0.000142545
0.000346495
0.000342986
0.000141215
1.45291e-05
1.45007e-05
0.000141339
0.000345589
0.000342002
0.000139984
1.4409e-05
1.43786e-05
0.000140049
0.000344437
0.00034075
0.000138662
1.42893e-05
1.42574e-05
0.000138655
0.000342966
0.00033916
0.000137222
1.41695e-05
1.41365e-05
0.000137124
0.00034111
0.000337108
0.00013556
1.40447e-05
1.40165e-05
0.000135674
0.000339194
0.000333489
0.000133197
1.39055e-05
1.3885e-05
0.000133498
0.000335603
0.000330537
0.000131448
1.38113e-05
1.37534e-05
0.000130817
0.000331274
0.000325857
0.000128657
1.37524e-05
1.35821e-05
0.000126885
0.000323525
0.000324039
0.000126886
1.36464e-05
1.38604e-05
0.000132556
0.00033611
0.000348822
0.000136492
1.92796e-05
0.00095004
0.00178882
0.00278808
0.00399415
0.00506422
0.00660854
0.00802767
0.00960584
0.0111274
0.0127645
0.0143876
0.0160983
0.0178088
0.0195835
0.0213596
0.0231785
0.0249924
0.0268262
0.0286402
0.0304456
0.0322064
0.0339219
0.0355559
0.037098
0.0385103
0.0397724
0.040847
0.0417037
0.0423111
0.0426333
0.042635
0.0422909
0.0415727
0.0404621
0.0389539
0.0370413
0.034754
0.0320938
0.0291496
0.0259192
0.0225823
0.0191141
0.0157664
0.0124252
0.010059
0.00704869
0.00481467
0.00287674
0.00133139
0.000424273
0.000140884
1.64238e-05
1.28539e-05
0.000119495
0.000362669
0.000327057
0.00010588
1.18751e-05
1.09364e-05
9.19575e-05
0.000285066
0.000271969
8.75872e-05
1.05504e-05
1.03256e-05
8.62009e-05
0.000270844
0.000259662
8.31845e-05
1.0235e-05
1.0225e-05
8.46412e-05
0.000268197
0.000263936
8.32298e-05
1.02461e-05
1.03269e-05
8.61863e-05
0.000273952
0.000268178
8.39252e-05
1.03066e-05
1.04141e-05
8.72401e-05
0.000278195
0.000274619
8.57124e-05
1.04248e-05
1.05395e-05
8.94174e-05
0.000285309
0.000279665
8.71321e-05
1.0518e-05
1.06423e-05
9.0732e-05
0.000290649
0.000287308
8.91749e-05
1.0655e-05
1.08028e-05
9.32124e-05
0.000298796
0.000293003
9.0846e-05
1.07472e-05
1.09074e-05
9.48116e-05
0.00030498
0.000301674
9.32106e-05
1.09225e-05
1.10863e-05
9.76018e-05
0.000314034
0.000308019
9.51404e-05
1.10302e-05
1.12086e-05
9.94757e-05
0.000321043
0.000317707
9.78172e-05
1.12273e-05
1.14088e-05
0.000102592
0.000331029
0.000324756
0.000100016
1.13522e-05
1.15507e-05
0.000104747
0.000338875
0.000335463
0.000103015
1.15734e-05
1.17756e-05
0.000108204
0.000349783
0.000343159
0.000105494
1.17186e-05
1.19419e-05
0.000110673
0.000358499
0.000355001
0.000108857
1.19695e-05
1.21972e-05
0.000114516
0.000370488
0.000363407
0.000111652
1.214e-05
1.23939e-05
0.000117349
0.000380248
0.000376598
0.000115431
1.24272e-05
1.26848e-05
0.000121595
0.000393504
0.000385716
0.000118519
1.26258e-05
1.2915e-05
0.000124731
0.000404374
0.000400183
0.000122604
1.29526e-05
1.32241e-05
0.000129174
0.000418706
0.000409817
0.000125668
1.32096e-05
1.35394e-05
0.000132362
0.000430728
0.000426357
0.000129899
1.3597e-05
1.39918e-05
0.000137449
0.000448255
0.000442306
0.000133815
1.40253e-05
1.44227e-05
0.000143576
0.000470949
0.00046801
0.000141571
1.44457e-05
1.48702e-05
0.000154196
0.000501096
0.00049164
0.000150007
1.49544e-05
1.5493e-05
0.000160991
0.000520291
0.000513328
0.000157347
1.5759e-05
1.67061e-05
0.000164225
0.00053442
0.000522473
0.000161236
1.79641e-05
2.20558e-05
0.000178764
0.000544447
0.000526709
0.000211686
1.89269e-05
7.03022e-06
3.66242e-05
0.000159375
0.000438142
0.000128208
1.1943e-05
1.41582e-05
0.000118687
0.000427864
0.000537699
0.000140694
1.79629e-05
2.38919e-05
0.000170051
0.000687089
0.0012855
0.000264272
5.69848e-05
0.00011467
0.000768496
0.00194332
0.00228005
0.000845643
0.000144729
0.000177253
0.00123687
0.0029899
0.003
0.00129564
0.000183688
0.000193622
0.00119981
0.00258893
0.00319462
0.00146693
0.000236214
0.000297199
0.00179009
0.00375897
0.00439445
0.00216333
0.000361022
0.000451621
0.00263906
0.00400493
0.00378644
0.00325046
0.000537259
0.000636461
0.00337686
0.00349691
0.00346819
0.00320599
0.000710453
0.000875869
0.00285457
0.003239
0.0030689
0.00253312
0.00103896
0.00122064
0.0024282
0.00271072
0.00245853
0.0021468
0.00137082
0.00140892
0.0020024
0.00254638
0.00245244
0.00206066
0.00159815
0.00148929
0.00199321
0.00244606
0.00279044
0.00195269
0.00163491
0.00146313
0.00195867
0.0030286
0.00295784
0.00175726
0.00157956
0.0013216
0.00140965
0.0022832
0.00203385
0.00126678
0.00150871
0.000912717
0.0010877
0.0015563
0.00165842
0.00106186
0.000881367
0.000623879
0.00106746
0.00166687
0.00108022
0.000854017
0.000526176
0.000402298
0.000696827
0.000998779
0.000862187
0.000590695
0.000357273
0.00026087
0.000451312
0.000601865
0.000589409
0.000399162
0.000228772
0.000186511
0.00034805
0.000535136
0.00038257
0.000274525
0.000143899
0.000115081
0.000244958
0.000405134
0.000359204
0.000224261
9.16028e-05
4.31633e-05
0.000105795
0.000204278
0.000228491
0.000103774
2.24376e-05
2.33453e-05
8.52378e-05
0.000190883
7.82594e-05
3.09501e-05
1.318e-05
1.40772e-05
8.31168e-05
0.000134294
0.000123924
7.17372e-05
1.5999e-05
1.0345e-05
2.58997e-05
5.80523e-05
0.000101584
6.38712e-05
1.12893e-05
1.35876e-05
5.71566e-05
9.54546e-05
4.51366e-05
2.1637e-05
9.7115e-06
1.01097e-05
5.32743e-05
8.60835e-05
8.02432e-05
4.74285e-05
1.23913e-05
9.40174e-06
1.85909e-05
3.82221e-05
6.92055e-05
4.34897e-05
9.06142e-06
1.14014e-05
3.97425e-05
6.66925e-05
3.08772e-05
1.50297e-05
8.81579e-06
8.2302e-06
4.73121e-05
6.08528e-05
3.53331e-05
1.99997e-05
1.03413e-05
9.47159e-06
4.59041e-05
7.67555e-05
7.10449e-05
4.05824e-05
1.19067e-05
9.60142e-06
1.78309e-05
3.33192e-05
7.63805e-05
4.45155e-05
8.91053e-06
1.16509e-05
4.00107e-05
7.14696e-05
3.26856e-05
1.73262e-05
9.50289e-06
8.81546e-06
4.28208e-05
7.3302e-05
6.89591e-05
3.94134e-05
1.14342e-05
9.33349e-06
1.54513e-05
3.01712e-05
5.69942e-05
4.65319e-05
8.28755e-06
1.04672e-05
2.03167e-05
3.31979e-05
7.11005e-05
4.23324e-05
9.35218e-06
1.17969e-05
3.7604e-05
6.54012e-05
2.9418e-05
1.62131e-05
9.40003e-06
8.23144e-06
4.36086e-05
5.42568e-05
3.28483e-05
2.1043e-05
1.06717e-05
9.52258e-06
4.14121e-05
6.50902e-05
6.00889e-05
3.60414e-05
1.19839e-05
9.71521e-06
1.867e-05
3.03203e-05
5.72529e-05
3.83725e-05
8.7843e-06
1.15136e-05
3.33963e-05
5.42526e-05
2.62237e-05
1.64311e-05
9.34476e-06
7.92313e-06
3.9598e-05
4.65502e-05
2.83084e-05
1.99462e-05
1.02112e-05
8.57929e-06
3.79102e-05
5.37751e-05
3.24569e-05
2.12859e-05
1.09241e-05
9.4931e-06
3.8772e-05
6.22922e-05
5.56302e-05
3.34365e-05
1.19308e-05
9.57372e-06
1.86722e-05
2.79483e-05
4.91953e-05
3.71773e-05
8.3433e-06
1.07791e-05
2.16448e-05
3.08882e-05
5.8961e-05
3.91824e-05
9.28431e-06
1.18228e-05
3.37507e-05
5.22609e-05
2.70954e-05
1.8837e-05
9.54505e-06
8.19172e-06
3.50907e-05
4.39004e-05
2.86728e-05
2.17504e-05
1.06619e-05
8.62464e-06
3.80868e-05
4.92998e-05
3.12896e-05
2.28278e-05
1.09622e-05
9.41086e-06
3.70221e-05
5.86248e-05
5.14654e-05
3.24701e-05
1.20684e-05
9.76243e-06
2.00555e-05
2.74613e-05
4.29586e-05
3.6832e-05
8.08792e-06
1.06892e-05
2.35761e-05
2.88599e-05
4.98125e-05
3.70174e-05
8.7653e-06
1.11612e-05
2.33265e-05
3.19433e-05
5.85934e-05
3.73558e-05
9.66672e-06
1.21801e-05
3.30519e-05
5.13774e-05
2.77062e-05
2.10095e-05
9.72499e-06
8.17059e-06
3.6074e-05
4.21288e-05
2.86441e-05
2.35026e-05
1.08827e-05
8.7953e-06
3.61045e-05
4.66242e-05
3.09154e-05
2.41312e-05
1.1273e-05
9.56222e-06
3.62731e-05
5.54956e-05
4.90142e-05
3.2548e-05
1.21904e-05
9.81316e-06
2.17659e-05
2.72859e-05
4.12111e-05
3.5609e-05
8.22905e-06
1.10279e-05
2.41908e-05
2.85043e-05
4.56101e-05
3.52995e-05
8.81915e-06
1.11665e-05
2.56767e-05
3.10145e-05
4.91747e-05
3.71298e-05
8.96407e-06
1.13375e-05
2.63e-05
3.30724e-05
5.76044e-05
3.76645e-05
9.63526e-06
1.23228e-05
3.36737e-05
5.03571e-05
2.83388e-05
2.31055e-05
9.88208e-06
8.27973e-06
3.65326e-05
4.23435e-05
2.96377e-05
2.58977e-05
1.11519e-05
9.05537e-06
3.60479e-05
4.59457e-05
3.16597e-05
2.63504e-05
1.13472e-05
9.03847e-06
3.59391e-05
4.79764e-05
3.28768e-05
2.70343e-05
1.13768e-05
9.21464e-06
3.78865e-05
4.99458e-05
3.43186e-05
2.83836e-05
1.15636e-05
9.82069e-06
3.89327e-05
5.8169e-05
5.13222e-05
3.54915e-05
1.25191e-05
1.01337e-05
2.544e-05
2.99507e-05
4.37471e-05
3.85362e-05
8.47424e-06
1.14401e-05
2.77843e-05
3.13377e-05
4.76377e-05
3.73389e-05
9.22629e-06
1.15289e-05
2.84762e-05
3.35401e-05
4.97397e-05
3.82482e-05
9.24313e-06
1.15731e-05
2.96942e-05
3.50501e-05
5.20409e-05
4.06171e-05
9.43646e-06
1.17354e-05
3.12175e-05
3.63204e-05
5.99187e-05
4.06077e-05
9.87388e-06
1.2614e-05
3.7054e-05
5.27114e-05
3.14571e-05
2.74159e-05
1.0225e-05
8.63296e-06
4.0247e-05
4.52903e-05
3.29812e-05
2.95379e-05
1.15638e-05
9.3066e-06
3.86245e-05
4.78897e-05
3.4275e-05
2.96753e-05
1.17182e-05
9.35583e-06
3.79678e-05
4.88581e-05
3.52875e-05
3.0646e-05
1.17943e-05
9.59426e-06
3.98171e-05
5.06494e-05
3.62241e-05
3.25701e-05
1.19201e-05
1.00197e-05
4.08067e-05
5.88881e-05
5.23266e-05
3.78218e-05
1.28141e-05
1.04931e-05
2.89122e-05
3.22185e-05
4.55179e-05
4.11823e-05
8.82234e-06
1.17235e-05
3.10249e-05
3.37568e-05
4.87239e-05
3.93802e-05
9.48058e-06
1.19453e-05
3.1408e-05
3.54977e-05
5.01988e-05
3.95368e-05
9.6018e-06
1.19334e-05
3.24529e-05
3.65751e-05
5.22256e-05
4.15436e-05
9.70455e-06
1.20499e-05
3.44572e-05
3.77148e-05
5.99429e-05
4.21006e-05
1.00958e-05
1.29247e-05
3.91201e-05
5.33713e-05
3.33684e-05
3.0313e-05
1.0517e-05
8.92216e-06
4.26039e-05
4.63232e-05
3.48299e-05
3.22749e-05
1.1878e-05
9.4552e-06
3.98956e-05
4.89238e-05
3.64108e-05
3.26003e-05
1.20545e-05
9.6093e-06
4.05272e-05
5.00609e-05
3.72401e-05
3.36067e-05
1.20092e-05
9.66783e-06
4.19491e-05
5.16958e-05
3.80792e-05
3.57477e-05
1.22315e-05
1.02879e-05
4.24346e-05
5.96663e-05
5.33916e-05
3.98786e-05
1.31622e-05
1.07418e-05
3.19142e-05
3.43049e-05
4.74073e-05
4.39724e-05
8.85642e-06
1.19984e-05
3.3801e-05
3.59329e-05
5.05565e-05
4.14239e-05
9.59683e-06
1.22115e-05
3.42945e-05
3.76501e-05
5.20971e-05
4.19179e-05
9.73924e-06
1.22015e-05
3.57301e-05
3.89974e-05
5.42276e-05
4.44769e-05
9.71369e-06
1.22751e-05
3.78611e-05
4.03525e-05
6.20964e-05
4.45644e-05
1.02994e-05
1.3256e-05
4.20033e-05
5.5738e-05
3.60852e-05
3.40253e-05
1.08577e-05
9.2398e-06
4.58943e-05
4.99778e-05
3.81824e-05
3.57567e-05
1.22221e-05
9.84561e-06
4.39891e-05
5.27204e-05
3.98455e-05
3.66275e-05
1.24345e-05
9.82613e-06
4.45161e-05
5.4392e-05
4.07035e-05
3.86095e-05
1.25134e-05
1.059e-05
4.48185e-05
6.19348e-05
5.57347e-05
4.25599e-05
1.36159e-05
1.12928e-05
3.56411e-05
3.73153e-05
5.11944e-05
4.69801e-05
9.50348e-06
1.25277e-05
3.77167e-05
3.96815e-05
5.48043e-05
4.57806e-05
1.01636e-05
1.26187e-05
3.87663e-05
4.17412e-05
5.69445e-05
4.68664e-05
1.00688e-05
1.27074e-05
4.08173e-05
4.29152e-05
6.47421e-05
4.71024e-05
1.076e-05
1.39581e-05
4.49531e-05
5.87189e-05
3.94624e-05
3.76314e-05
1.13516e-05
9.52303e-06
4.94919e-05
5.32364e-05
4.17155e-05
3.99141e-05
1.26031e-05
1.01097e-05
4.8657e-05
5.73268e-05
4.3236e-05
4.14601e-05
1.29135e-05
1.09256e-05
4.73494e-05
6.5016e-05
5.91628e-05
4.54902e-05
1.4325e-05
1.16369e-05
3.8587e-05
4.03866e-05
5.41296e-05
5.02062e-05
9.73393e-06
1.2822e-05
4.09968e-05
4.26261e-05
5.87099e-05
4.95534e-05
1.02507e-05
1.31879e-05
4.31378e-05
4.47348e-05
6.6744e-05
4.88774e-05
1.11015e-05
1.45377e-05
4.6961e-05
6.07441e-05
4.18408e-05
4.01141e-05
1.18911e-05
9.97421e-06
5.15342e-05
5.54584e-05
4.4248e-05
4.25123e-05
1.30543e-05
1.04264e-05
5.08978e-05
5.99662e-05
4.58931e-05
4.45732e-05
1.33755e-05
1.12517e-05
5.03646e-05
6.85662e-05
6.25969e-05
4.85928e-05
1.50154e-05
1.23139e-05
4.26588e-05
4.39892e-05
5.82514e-05
5.34041e-05
1.02565e-05
1.374e-05
4.58405e-05
4.60188e-05
6.83806e-05
5.20561e-05
1.15087e-05
1.51071e-05
5.03502e-05
6.28309e-05
4.46223e-05
4.29864e-05
1.24097e-05
1.03939e-05
5.35043e-05
5.80987e-05
4.63632e-05
4.64145e-05
1.41191e-05
1.18764e-05
5.24047e-05
6.79662e-05
6.28583e-05
5.11754e-05
1.5832e-05
1.27068e-05
4.50682e-05
4.57332e-05
5.94639e-05
5.59426e-05
1.03851e-05
1.42758e-05
4.88742e-05
4.8041e-05
6.97549e-05
5.30955e-05
1.21452e-05
1.63207e-05
5.2107e-05
6.48568e-05
4.7225e-05
4.6603e-05
1.31255e-05
1.07511e-05
5.68856e-05
6.1113e-05
4.96778e-05
5.12378e-05
1.45847e-05
1.23416e-05
5.6071e-05
7.30094e-05
6.79798e-05
5.51129e-05
1.68942e-05
1.44792e-05
5.22817e-05
5.0554e-05
7.08716e-05
5.99752e-05
1.2463e-05
1.706e-05
5.845e-05
6.762e-05
5.10054e-05
5.25096e-05
1.44548e-05
1.24673e-05
5.96382e-05
7.08987e-05
6.78855e-05
5.85054e-05
1.77112e-05
1.52876e-05
5.41093e-05
5.19683e-05
7.09052e-05
6.04572e-05
1.31247e-05
1.77759e-05
5.85373e-05
6.77976e-05
5.18165e-05
5.40417e-05
1.52871e-05
1.32442e-05
6.01546e-05
7.07381e-05
6.78171e-05
5.90649e-05
1.87089e-05
1.61732e-05
5.6513e-05
5.33798e-05
7.19744e-05
6.1898e-05
1.33845e-05
1.85001e-05
6.07864e-05
6.91275e-05
5.45551e-05
5.86193e-05
1.65695e-05
1.44101e-05
6.39115e-05
7.41519e-05
7.16574e-05
6.24698e-05
1.99456e-05
1.73773e-05
6.22982e-05
5.7248e-05
7.83087e-05
6.73812e-05
1.51351e-05
2.27161e-05
7.30964e-05
7.50148e-05
7.05364e-05
6.90517e-05
2.07231e-05
1.87581e-05
6.46276e-05
5.96772e-05
7.99238e-05
6.88326e-05
1.63465e-05
2.53194e-05
7.09415e-05
7.67276e-05
7.41627e-05
7.16057e-05
2.456e-05
2.63582e-05
7.27928e-05
7.0456e-05
7.06618e-05
6.78242e-05
2.70278e-05
2.95549e-05
6.93704e-05
6.75659e-05
6.77227e-05
6.15459e-05
2.82552e-05
2.61609e-05
6.78472e-05
6.0242e-05
7.61996e-05
6.8419e-05
2.23781e-05
3.52195e-05
7.07955e-05
7.46399e-05
7.3288e-05
7.67219e-05
3.83434e-05
3.99591e-05
8.07713e-05
7.33541e-05
7.35243e-05
8.46907e-05
4.14477e-05
4.17463e-05
8.90135e-05
7.42647e-05
7.51363e-05
9.31812e-05
4.10119e-05
4.01011e-05
9.77489e-05
7.65884e-05
7.84325e-05
0.000101984
3.87103e-05
3.7221e-05
0.000106745
8.0512e-05
8.32299e-05
0.000111058
3.56761e-05
3.41595e-05
0.000116043
8.5981e-05
8.98174e-05
0.00011854
3.27103e-05
3.13578e-05
0.00012064
9.32714e-05
9.79377e-05
0.000122266
3.01036e-05
2.89524e-05
0.000123592
0.000103097
0.000109526
0.000124371
2.78948e-05
2.69266e-05
0.000125261
0.000115812
0.000122339
0.00012628
2.60476e-05
2.52533e-05
0.000127446
0.000128681
0.000135272
0.000128775
2.45415e-05
2.3906e-05
0.000130223
0.000141657
0.000148323
0.000131825
2.33441e-05
2.28493e-05
0.000133528
0.000154732
0.000161441
0.000135354
2.24181e-05
2.20445e-05
0.000137334
0.000166679
0.000171923
0.000139393
2.17256e-05
2.14553e-05
0.000141538
0.000176975
0.000182217
0.000143764
2.12304e-05
2.10457e-05
0.000146092
0.000187276
0.000192375
0.000148435
2.08974e-05
2.07805e-05
0.000150818
0.000197253
0.000202312
0.000153224
2.06905e-05
2.06251e-05
0.000155682
0.000207114
0.000211957
0.000158062
2.0578e-05
2.05487e-05
0.000160474
0.000216499
0.000221209
0.000162822
2.05323e-05
2.05278e-05
0.000165182
0.000225557
0.000229971
0.000167408
2.05301e-05
2.05396e-05
0.000169596
0.000234019
0.000238226
0.00017167
2.0551e-05
2.05667e-05
0.000173739
0.000242008
0.000245883
0.000175624
2.05809e-05
2.05968e-05
0.000177456
0.00024937
0.000253009
0.000179137
2.06087e-05
2.06212e-05
0.000180808
0.000256217
0.000259526
0.000182269
2.06281e-05
2.06346e-05
0.000183677
0.000262463
0.000265512
0.000184923
2.06346e-05
2.06344e-05
0.00018616
0.000268187
0.000270918
0.000187193
2.06267e-05
2.06198e-05
0.000188168
0.000273435
0.000275948
0.000189019
2.0603e-05
2.05925e-05
0.000189847
0.000278257
0.000280581
0.00019052
2.05683e-05
2.05532e-05
0.000191139
0.000282778
0.000285044
0.000191694
2.05251e-05
2.05061e-05
0.000192166
0.000287059
0.000289279
0.000192592
2.04739e-05
2.04518e-05
0.000192947
0.000291179
0.000293376
0.000193262
2.0416e-05
2.03921e-05
0.00019353
0.00029522
0.00029735
0.000193754
2.03543e-05
2.03297e-05
0.000193958
0.000299178
0.000301294
0.000194112
2.02906e-05
2.02664e-05
0.000194273
0.000303134
0.000305218
0.000194376
2.02276e-05
2.02044e-05
0.000194516
0.000307085
0.00030919
0.000194589
2.01664e-05
2.01447e-05
0.000194729
0.00031115
0.000313232
0.000194775
2.01086e-05
2.00896e-05
0.000194921
0.000315252
0.000317368
0.000194937
2.00554e-05
2.00391e-05
0.000195156
0.000319439
0.000321478
0.000195149
2.00091e-05
1.99936e-05
0.00019532
0.000323604
0.000325653
0.000195316
1.99678e-05
1.99544e-05
0.000195535
0.000327778
0.000328907
0.00019551
1.99337e-05
1.99215e-05
0.000195703
0.000330427
0.000331425
0.000195706
1.99063e-05
1.98962e-05
0.00019589
0.000332884
0.000333799
0.000195883
1.98843e-05
1.98753e-05
0.000196053
0.000335218
0.000336072
0.000196032
1.98645e-05
1.9859e-05
0.000196237
0.000337448
0.00033828
0.00019619
1.98492e-05
1.98462e-05
0.000196352
0.000339616
0.000340434
0.000196336
1.98375e-05
1.9837e-05
0.000196488
0.000341727
0.000342551
0.000196472
1.98292e-05
1.98313e-05
0.000196617
0.000343817
0.000344653
0.000196616
1.98244e-05
1.98289e-05
0.000196757
0.000345887
0.000346743
0.000196763
1.98231e-05
1.983e-05
0.000196905
0.000347953
0.000348822
0.000196933
1.98258e-05
1.98345e-05
0.000197078
0.000350002
0.000350886
0.000197119
1.98327e-05
1.98429e-05
0.00019727
0.000352041
0.000352931
0.000197337
1.98435e-05
1.98551e-05
0.000197495
0.000354054
0.000354953
0.000197574
1.98581e-05
1.98711e-05
0.000197737
0.00035605
0.000356943
0.000197842
1.98764e-05
1.98906e-05
0.000198007
0.000358005
0.000358895
0.000198123
1.98981e-05
1.99134e-05
0.000198288
0.000359929
0.000360802
0.000198426
1.99227e-05
1.9939e-05
0.00019859
0.000361801
0.00036266
0.000198736
1.99501e-05
1.99674e-05
0.000198895
0.000363635
0.000364449
0.000199044
1.99795e-05
1.99981e-05
0.000199239
0.000365391
0.000366197
0.000199374
2.00112e-05
2.00305e-05
0.000199534
0.000367094
0.000367852
0.000199671
2.0044e-05
2.00643e-05
0.000199873
0.000368725
0.000369476
0.000199995
2.00786e-05
2.00991e-05
0.000200158
0.000370299
0.000371012
0.000200296
2.01137e-05
2.01347e-05
0.000200456
0.000371795
0.000372477
0.000200582
2.01496e-05
2.01707e-05
0.000200737
0.000373227
0.000373865
0.000200856
2.01859e-05
2.0207e-05
0.000201003
0.000374575
0.000375177
0.000201112
2.02223e-05
2.02434e-05
0.000201245
0.000375858
0.000376406
0.000201337
2.02585e-05
2.02797e-05
0.000201499
0.000377055
0.000377574
0.000201565
2.02949e-05
2.03156e-05
0.000201678
0.00037818
0.000378652
0.000201748
2.03304e-05
2.03513e-05
0.00020189
0.000379221
0.000379667
0.00020193
2.03659e-05
2.03861e-05
0.000202028
0.000380182
0.000380591
0.00020208
2.04005e-05
2.04203e-05
0.000202166
0.000381071
0.000381438
0.000202205
2.04345e-05
2.04538e-05
0.000202278
0.000381889
0.000382208
0.000202306
2.04676e-05
2.04864e-05
0.000202367
0.000382629
0.000382901
0.000202384
2.05e-05
2.05182e-05
0.000202427
0.00038331
0.000383522
0.000202424
2.05312e-05
2.05492e-05
0.000202494
0.000383906
0.000384087
0.000202466
2.05618e-05
2.0579e-05
0.000202486
0.00038444
0.000384577
0.00020246
2.0591e-05
2.0608e-05
0.000202509
0.000384904
0.000385014
0.00020246
2.06197e-05
2.06358e-05
0.000202459
0.000385311
0.000385387
0.000202409
2.0647e-05
2.06626e-05
0.000202424
0.000385647
0.000385697
0.000202378
2.06736e-05
2.06886e-05
0.000202357
0.000385943
0.000385949
0.000202304
2.06991e-05
2.07136e-05
0.000202275
0.000386186
0.000386136
0.000202213
2.07236e-05
2.07376e-05
0.000202187
0.0003864
0.00038632
0.000202083
2.0747e-05
2.07606e-05
0.000202077
0.000386502
0.000386442
0.00020198
2.07698e-05
2.07827e-05
0.000201927
0.000386586
0.000386508
0.000201846
2.07915e-05
2.08039e-05
0.000201787
0.000386635
0.000386527
0.000201699
2.08123e-05
2.08243e-05
0.000201631
0.000386651
0.000386511
0.000201523
2.08323e-05
2.08439e-05
0.000201489
0.000386616
0.000386472
0.00020137
2.08517e-05
2.08627e-05
0.000201292
0.000386542
0.000386389
0.000201191
2.08701e-05
2.08807e-05
0.000201109
0.000386442
0.000386272
0.000201003
2.08879e-05
2.0898e-05
0.000200916
0.000386314
0.000386126
0.000200808
2.09049e-05
2.09146e-05
0.000200718
0.000386152
0.000385951
0.000200604
2.09214e-05
2.09304e-05
0.000200509
0.000385961
0.000385743
0.000200273
2.09363e-05
2.09462e-05
0.000200313
0.000385751
0.000385503
0.000200199
2.09525e-05
2.09618e-05
0.000200212
0.000385532
0.000385259
0.000199934
2.09661e-05
2.09746e-05
0.000199871
0.000385279
0.000384993
0.000199731
2.09797e-05
2.09878e-05
0.000199627
0.000385006
0.000384707
0.000199491
2.09926e-05
2.10007e-05
0.000199425
0.000384715
0.000384412
0.000199282
2.10055e-05
2.10131e-05
0.000199174
0.000384411
0.000384091
0.000199036
2.10176e-05
2.10251e-05
0.000198967
0.000384088
0.000383776
0.000198824
2.10295e-05
2.10365e-05
0.000198713
0.000383761
0.00038342
0.000198575
2.10406e-05
2.10475e-05
0.000198504
0.000383408
0.000383089
0.00019836
2.10516e-05
2.10581e-05
0.000198249
0.000383051
0.000382705
0.00019811
2.10619e-05
2.10683e-05