/*--------------------------------*- C++ -*----------------------------------*\
| =========                 |                                                 |
| \\      /  F ield         | OpenFOAM: The Open Source CFD Toolbox           |
|  \\    /   O peration     | Version:  v2006                                 |
|   \\  /    A nd           | Website:  www.openfoam.com                      |
|    \\/     M anipulation  |                                                 |
\*---------------------------------------------------------------------------*/
FoamFile
{
    version     2.0;
    format      ascii;
    class       volScalarField;
    location    "0.04";
    object      p;
}
// * * * * * * * * * * * * * * * * * * * * * * * * * * * * * * * * * * * * * //

dimensions      [1 -1 -2 0 0 0 0];


internalField   nonuniform List<scalar> 
24416
(
144269
144269
144269
144269
144269
144269
144269
144269
144269
144269
144269
144269
144268
144268
144268
144268
144270
144273
144280
144288
144297
144307
144318
144329
144339
144350
144361
144372
144383
144394
144406
144417
144429
144441
144454
144466
144479
144492
144505
144518
144531
144544
144558
144571
144585
144599
144613
144627
144641
144655
144669
144683
144698
144712
144726
144740
144755
144769
144783
144797
144811
144825
144839
144852
144866
144879
144893
144906
144919
144932
144945
144958
144970
144982
144994
145006
145018
145029
145040
145051
145062
145072
145083
145094
145105
145116
145126
145136
145145
145150
145153
145152
145150
145147
145145
145142
145140
145138
145137
145135
145134
145138
145142
145157
145174
145193
145231
145298
145342
145370
145327
145324
145311
145307
145311
145312
145297
145297
145297
145284
145282
145282
145270
145271
145272
145260
145259
145258
145248
145249
145250
145240
145239
145238
145230
145230
145231
145223
145222
145222
145214
145215
145215
145208
145207
145207
145200
145201
145202
145196
145195
145195
145190
145190
145191
145186
145185
145185
145181
145181
145182
145178
145178
145177
145174
145175
145176
145173
145172
145172
145170
145170
145171
145169
145168
145168
145166
145167
145167
145166
145166
145165
145165
145165
145166
145165
145164
145164
145164
145164
145165
145165
145164
145164
145164
145165
145165
145166
145165
145165
145166
145167
145167
145168
145168
145167
145169
145169
145170
145171
145171
145171
145173
145173
145174
145176
145175
145175
145177
145178
145178
145181
145180
145180
145183
145183
145184
145186
145186
145186
145189
145189
145190
145193
145193
145193
145196
145197
145197
145201
145200
145200
145204
145204
145205
145209
145209
145208
145213
145213
145214
145218
145218
145217
145222
145223
145223
145228
145227
145227
145232
145233
145233
145238
145238
145238
145243
145244
145244
145249
145249
145249
145255
145255
145256
145261
145261
145261
145267
145268
145268
145274
145274
145274
145280
145281
145281
145288
145287
145287
145294
145294
145295
145302
145301
145301
145309
145309
145309
145317
145316
145316
145324
145324
145325
145332
145332
145332
145340
145340
145341
145349
145348
145348
145357
145357
145357
145366
145365
145365
145374
145374
145375
145383
145383
145383
145392
145393
145393
145402
145402
145402
145411
145412
145412
145421
145421
145421
145431
145431
145432
145442
145441
145441
145452
145452
145452
145463
145462
145462
145473
145473
145474
145484
145484
145484
145495
145495
145496
145507
145507
145506
145518
145518
145519
145530
145530
145530
145542
145542
145543
145555
145554
145554
145567
145567
145567
145580
145580
145579
145592
145593
145593
145606
145606
145605
145619
145619
145620
145633
145633
145632
145647
145647
145647
145661
145661
145660
145675
145675
145676
145690
145690
145689
145704
145705
145705
145720
145720
145719
145735
145735
145736
145751
145751
145750
145766
145767
145767
145783
145783
145782
145799
145799
145800
145816
145816
145815
145833
145833
145833
145850
145850
145850
145867
145868
145868
145885
145885
145885
145903
145903
145904
145922
145922
145921
145940
145940
145941
145959
145959
145959
145978
145979
145979
145998
145998
145998
146018
146018
146018
146038
146038
146038
146058
146059
146059
146079
146079
146079
146100
146100
146101
146122
146122
146121
146143
146143
146144
146166
146165
146165
146188
146188
146188
146211
146210
146210
146233
146234
146234
146257
146257
146256
146280
146281
146281
146305
146304
146304
146329
146329
146330
146354
146353
146353
146378
146379
146379
146404
146404
146404
146429
146430
146430
146456
146456
146455
146482
146482
146483
146509
146509
146508
146535
146536
146537
146564
146563
146563
146591
146591
146592
146619
146619
146619
146647
146647
146648
146676
146676
146676
146705
146705
146706
146735
146734
146734
146764
146764
146765
146795
146794
146794
146824
146825
146825
146856
146855
146855
146886
146886
146887
146918
146917
146917
146949
146949
146950
146981
146981
146980
147013
147013
147014
147046
147045
147045
147078
147078
147079
147111
147111
147110
147144
147144
147145
147178
147177
147177
147210
147211
147212
147245
147245
147244
147278
147279
147279
147313
147313
147312
147346
147347
147348
147382
147381
147381
147415
147416
147417
147451
147450
147450
147485
147485
147486
147521
147520
147520
147554
147555
147556
147590
147589
147589
147624
147624
147625
147659
147659
147658
147693
147693
147694
147728
147728
147727
147762
147762
147763
147797
147796
147796
147830
147830
147831
147865
147864
147863
147897
147898
147898
147931
147931
147930
147963
147964
147965
147997
147996
147996
148028
148029
148029
148061
148060
148060
148091
148092
148093
148124
148123
148122
148153
148154
148154
148184
148184
148183
148213
148213
148214
148243
148242
148242
148270
148271
148272
148299
148299
148298
148326
148326
148327
148353
148353
148352
148379
148379
148380
148405
148404
148404
148429
148429
148430
148454
148453
148453
148477
148477
148478
148500
148500
148500
148522
148522
148523
148544
148544
148543
148564
148565
148565
148585
148585
148585
148604
148604
148605
148624
148623
148623
148641
148642
148642
148660
148659
148659
148676
148676
148677
148693
148693
148692
148708
148709
148709
148724
148724
148724
148738
148739
148739
148753
148753
148752
148766
148766
148767
148779
148779
148779
148792
148792
148792
148804
148804
148804
148816
148816
148816
148827
148827
148827
148838
148838
148838
148848
148848
148848
148858
148858
148858
148868
148868
148868
148877
148877
148877
148886
148886
148886
148895
148895
148895
148904
148904
148904
148912
148912
148912
148920
148920
148920
148928
148928
148928
148936
148936
148936
148944
148944
148944
148951
148951
148951
148959
148959
148959
148966
148966
148966
148974
148974
148974
148982
148982
148981
148989
148990
148990
148997
148997
148997
148997
148997
148994
148996
148993
148994
148991
148992
148991
148992
148991
148992
148991
148992
148992
148993
148993
148994
148995
148996
148997
148999
149000
149002
149003
149005
149006
149008
149009
149011
149012
149013
149014
149015
149015
149016
149016
149017
149016
149016
149015
149014
149013
149012
149009
149007
149008
149009
149010
149013
149014
149015
149019
149020
149019
149023
149023
149022
149026
149027
149028
149034
149033
149033
149043
149044
149044
149052
149051
149051
149062
149062
149062
149069
149070
149070
149079
149080
149079
149086
149086
149086
149095
149095
149095
149102
149102
149102
149111
149111
149111
149117
149117
149118
149127
149127
149126
149133
149133
149133
149143
149143
149143
149149
149149
149149
149158
149158
149158
149165
149165
149166
149175
149175
149175
149182
149182
149182
149192
149192
149192
149200
149200
149200
149211
149211
149211
149218
149218
149219
149229
149229
149229
149237
149238
149238
149249
149249
149249
149258
149258
149258
149269
149269
149269
149279
149279
149279
149292
149292
149292
149301
149302
149302
149314
149314
149314
149325
149325
149325
149339
149339
149338
149349
149350
149350
149363
149363
149363
149375
149375
149375
149390
149390
149390
149402
149402
149402
149416
149416
149416
149428
149429
149429
149441
149442
149442
149452
149450
149448
149460
149464
149466
149487
149483
149478
149513
149518
149521
149557
149555
149550
149597
149600
149601
149645
149645
149642
149685
149688
149689
149731
149728
149724
149774
149780
149782
149826
149830
149821
149799
149889
149817
149895
149924
149907
149965
149952
149957
150006
150010
150010
150062
150061
150049
150105
150109
150110
150217
150204
150181
150255
150286
150292
150377
150366
150321
150378
150437
150451
150545
150518
150453
150490
150580
150627
150715
150624
150513
150505
150632
150774
150802
150607
150491
150370
150511
150763
150700
150424
150321
150196
150284
150585
150358
150099
150059
149769
149816
150060
149658
149557
149596
149261
149198
149200
148612
148835
148941
148629
148505
148029
147344
147986
148096
147804
147728
146701
145905
147277
147329
146821
146753
145083
143924
146266
146401
145848
145527
142616
140953
144422
145024
144259
143392
139805
138595
142330
143349
142327
141381
137933
137395
140736
141633
141015
140202
137448
137466
139752
140345
140142
139732
138052
138532
139690
140067
139956
139755
139065
139559
140054
140215
140392
140229
139941
140010
140318
140427
140858
140835
140829
141122
141085
141107
141137
141359
141088
141814
141747
141817
141887
141892
141874
141966
141732
141955
142281
142402
142273
142392
142353
142371
142262
142469
142235
142750
142675
142725
142729
142745
142721
142775
142538
142759
142941
143134
142929
142974
143021
142993
143000
142750
142995
143082
143394
143132
143100
143263
143094
143358
143361
143350
143324
143347
143334
143398
143157
143338
143500
143530
143523
143471
143501
143480
143490
143286
143548
143642
143638
143612
143568
143596
143558
143617
143332
143564
143607
143905
143582
143529
143707
143571
143729
143735
143737
143683
143711
143678
143693
143436
143756
143672
143929
143702
143654
143781
143629
143823
143839
143811
143768
143770
143819
143607
143812
143633
143793
143926
143770
143814
143753
143769
143628
143905
143588
143965
143630
143890
143748
143520
143779
143857
143740
143809
143730
143649
143764
143850
143837
143811
143736
143762
143733
143798
143465
143700
143690
143932
143671
143642
143785
143659
143761
143764
143783
143657
143697
143663
143627
143335
143693
143578
143869
143595
143535
143756
143509
143657
143641
143644
143497
143550
143489
143589
143610
143581
143510
143503
143552
143279
143615
143364
143621
143371
143688
143498
143253
143419
143411
143468
143437
143326
143274
143324
143387
143407
143418
143326
143347
143307
143249
142959
143368
143164
143434
143176
143083
143275
143019
143124
143248
143153
143028
143127
143018
143164
143162
143125
143023
143055
143029
143071
142667
142922
142842
143178
142828
142673
142974
142784
142895
142858
142898
142714
142825
142715
142790
142760
142827
142602
142636
142622
142670
142689
142687
142572
142607
142573
142520
142256
142667
142745
142348
142613
142444
142163
142523
142397
142439
142371
142293
142161
142318
142253
142303
142255
142138
142083
142134
142224
142201
142181
142043
142038
142056
142074
142074
142052
141935
141960
141939
141968
141588
141809
141751
141960
141758
141593
141804
141670
141745
141719
141758
141536
141625
141543
141570
141539
141587
141365
141405
141386
141425
141459
141453
141287
141287
141283
141295
141318
141319
141165
141189
141168
141047
140878
141178
141225
140890
141122
140943
140698
141032
140920
140938
140882
140765
140635
140773
140725
140771
140723
140592
140544
140594
140634
140619
140604
140449
140443
140465
140430
140452
140424
140288
140285
140317
140016
140160
140079
140261
140027
140326
140120
139868
140024
139956
140025
139994
139839
139707
139822
139771
139849
139787
139603
139562
139613
139603
139628
139626
139456
139430
139440
139402
139435
139397
139274
139230
139247
138996
139159
138931
139012
139314
139062
138882
139087
138793
138869
138904
138904
138660
138788
138643
138721
138666
138695
138452
138492
138417
138451
138433
138450
138257
138278
138254
138293
138287
138262
138104
138133
138100
138017
137755
137878
137818
137946
137836
137659
137575
137669
137611
137682
137594
137416
137378
137422
137405
137448
137399
137247
137211
137221
137174
137214
137179
136940
136932
136955
136918
136943
136931
136730
136748
136736
136460
136347
136491
136635
136507
136550
136353
136229
136390
136241
136291
136246
136041
135975
136065
135915
135991
135933
135689
135628
135651
135605
135654
135624
135431
135415
135415
135125
135097
135131
135220
135253
135289
134991
134947
135006
134921
135006
134924
134651
134618
134646
134488
134510
134451
134102
134131
134192
134202
134230
134200
134110
134047
134064
133704
133875
133675
133810
133715
133752
133427
133465
133367
133337
133243
133305
132915
132904
132772
132819
132846
132875
132673
132722
132670
132469
132273
132384
132346
132456
132386
132106
132037
132108
131894
131947
131863
131435
131444
131520
131396
131378
131315
131116
131139
131163
130817
130793
130782
130978
130955
130911
130648
130649
130625
130485
130394
130444
129959
129921
129838
129521
129647
129699
129463
129426
129380
129117
129115
129118
129153
129190
129180
128860
128875
128887
128639
128662
128666
128101
128138
128172
127448
127320
127203
127479
127519
127521
127309
127304
127287
127272
127252
127225
126866
126906
126877
126243
126142
126192
125840
125768
125713
125136
125229
125379
125373
125364
125284
125205
125132
125168
124618
124739
124606
124448
124365
124425
123818
123793
123649
122793
123043
123204
122850
122733
122594
122366
122386
122418
122388
122440
122399
122049
121957
121999
121075
121098
120887
119939
120220
120410
120080
119950
119853
119464
119583
119576
119539
119510
119630
118818
119048
118988
117843
117424
117425
117088
117202
117394
117033
116938
116813
116377
116269
116355
115880
115940
115781
114145
114564
114915
113690
113365
113014
113604
113670
113735
113387
113356
113263
111912
112042
112376
111103
110573
110017
110060
110314
110624
109972
109887
109734
108213
108513
108961
108134
107561
107008
107077
107395
107807
107085
106722
106290
104434
105284
105834
105361
105084
104609
103436
104270
104748
104727
104290
103677
103269
103946
104452
106370
106100
105730
107976
108164
108390
110636
110550
110485
112633
112640
112644
114198
114201
114197
115341
115351
115357
116282
116273
116262
117068
117077
117084
117800
117794
117785
118431
118439
118444
119027
119022
119015
119546
119552
119558
120042
120037
120031
120477
120482
120487
120896
120891
120886
121264
121269
121274
121624
121618
121614
121939
121943
121948
122250
122244
122241
122522
122526
122531
122794
122789
122786
123033
123036
123041
123273
123269
123266
123486
123489
123493
123701
123697
123694
123891
123894
123898
124085
124081
124079
124257
124259
124263
124433
124429
124427
124590
124592
124595
124750
124747
124745
124894
124896
124899
125042
125039
125037
125174
125176
125179
125310
125307
125305
125432
125434
125436
125557
125555
125554
125671
125673
125675
125787
125785
125784
125893
125894
125896
126000
125999
125998
126099
126101
126102
126199
126198
126197
126292
126293
126294
126385
126384
126383
126472
126473
126474
126559
126558
126557
126640
126641
126642
126722
126721
126720
126798
126799
126800
126875
126874
126874
126947
126948
126948
127018
127018
127018
127087
127087
127088
127154
127154
127153
127219
127219
127219
127282
127282
127281
127343
127344
127344
127403
127403
127402
127461
127461
127461
127517
127517
127517
127572
127572
127572
127625
127625
127625
127677
127677
127677
127727
127727
127727
127777
127777
127777
127824
127825
127824
127871
127872
127871
127916
127917
127917
127961
127962
127962
128004
128005
128004
128047
128047
128047
128088
128088
128088
128128
128129
128128
128167
128168
128168
128206
128206
128206
128243
128243
128243
128281
128281
128281
128316
128316
128316
128351
128351
128352
128385
128385
128385
128419
128419
128419
128451
128452
128452
128484
128484
128484
128514
128515
128515
128546
128546
128546
128575
128575
128575
128605
128605
128605
128633
128633
128633
128661
128661
128662
128688
128689
128689
128716
128716
128716
128741
128741
128742
128768
128768
128768
128792
128792
128793
128817
128817
128817
128841
128841
128841
128865
128865
128865
128888
128888
128888
128911
128911
128911
128932
128932
128933
128955
128954
128955
128975
128975
128976
128997
128996
128996
129016
129016
129017
129037
129037
129037
129056
129056
129056
129076
129076
129076
129094
129094
129094
129113
129113
129113
129130
129131
129131
129149
129149
129149
129165
129166
129166
129183
129183
129183
129199
129199
129200
129216
129216
129216
129231
129232
129232
129248
129248
129248
129263
129263
129263
129278
129278
129278
129293
129293
129293
129308
129308
129308
129321
129322
129322
129336
129336
129336
129349
129349
129350
129363
129363
129363
129376
129376
129376
129389
129389
129389
129401
129401
129402
129414
129414
129414
129426
129426
129426
129438
129438
129438
129449
129450
129450
129462
129461
129461
129472
129472
129473
129484
129484
129483
129494
129494
129494
129505
129505
129505
129515
129515
129515
129526
129525
129525
129535
129535
129535
129545
129545
129545
129554
129555
129555
129564
129564
129564
129573
129573
129573
129583
129582
129582
129591
129591
129591
129600
129600
129600
129608
129608
129608
129617
129617
129617
129624
129625
129625
129633
129633
129633
129640
129641
129641
129649
129648
129648
129656
129656
129656
129664
129663
129663
129670
129670
129671
129678
129678
129678
129684
129685
129685
129692
129692
129692
129698
129698
129698
129705
129705
129705
129711
129711
129712
129718
129718
129718
129723
129724
129724
129730
129730
129730
129736
129736
129736
129742
129742
129742
129747
129748
129748
129754
129753
129753
129759
129759
129759
129765
129764
129764
129769
129770
129770
129775
129775
129775
129780
129780
129780
129785
129785
129785
129790
129790
129790
129795
129795
129795
129799
129800
129800
129805
129804
129804
129809
129809
129809
129814
129814
129813
129818
129818
129818
129823
129822
129822
129826
129826
129827
129831
129831
129831
129835
129835
129835
129839
129839
129839
129842
129843
129843
129847
129847
129847
129850
129851
129851
129855
129854
129854
129858
129858
129858
129862
129862
129862
129865
129865
129865
129869
129869
129869
129872
129872
129872
129875
129875
129875
129878
129878
129879
129882
129882
129882
129885
129885
129885
129888
129888
129888
129891
129891
129891
129894
129894
129894
129897
129897
129897
129900
129900
129900
129902
129902
129903
129905
129905
129905
129908
129908
129908
129911
129911
129911
129913
129913
129913
129916
129916
129916
129918
129918
129918
129921
129921
129921
129923
129923
129923
129926
129925
129925
129927
129928
129928
129930
129930
129930
129932
129932
129932
129934
129934
129934
129936
129936
129936
129939
129938
129938
129940
129940
129941
129943
129943
129942
129944
129944
129944
129946
129946
129946
129948
129948
129948
129950
129950
129950
129952
129952
129952
129954
129954
129954
129955
129955
129955
129957
129957
129957
129958
129959
129959
129960
129960
129960
129962
129962
129962
129963
129963
129963
129965
129965
129965
129966
129966
129966
129968
129968
129968
129969
129969
129969
129970
129971
129971
129972
129972
129972
129973
129973
129973
129975
129975
129975
129976
129976
129976
129977
129977
129977
129978
129978
129978
129980
129980
129980
129980
129981
129981
129982
129982
129982
129983
129983
129983
129984
129984
129984
129985
129985
129985
129986
129986
129986
129987
129987
129987
129988
129988
129988
129989
129989
129989
129990
129990
129990
129991
129991
129991
129992
129992
129992
129992
129993
129993
129993
129993
129993
129994
129994
129994
129995
129995
129995
129996
129996
129996
129997
129997
129997
129997
129997
129997
129998
129998
129998
129999
129999
129999
129999
129999
129999
130000
130000
130000
130001
130001
130001
130001
130001
130001
130002
130002
130002
130002
130002
130003
130003
130003
130003
130003
130004
130004
130004
130004
130004
130004
130005
130005
130005
130005
130005
130005
130006
130006
130006
130006
130006
130006
130006
130007
130007
130007
130007
130007
130007
130007
130008
130008
130008
130008
130008
130008
130009
130009
130009
130009
130009
130009
130009
130009
130009
130009
130009
130010
130010
130010
130010
130010
130010
130010
130010
130010
130010
130011
130011
130011
130011
130011
130011
130011
130011
130011
130011
130011
130011
130012
130012
130012
130012
130012
130012
130012
130012
130012
130012
130012
130012
130012
130012
130012
130013
130013
130013
130013
130013
130013
130013
130013
130013
130013
130013
130013
130013
130013
130013
130013
130013
130013
130013
130013
130013
130013
130013
130013
130014
130014
130013
130013
130014
130014
130014
130014
130014
130014
130014
130014
130014
130014
130014
130014
130014
130014
130014
130014
130014
130014
130014
130014
130014
130014
130014
130014
130014
130014
130014
130014
130014
130014
130014
130014
130014
130014
130014
130014
130014
130014
130014
130014
130014
130013
130014
130014
130014
130013
130013
130013
130013
130013
130013
130013
130013
130013
130013
130013
130013
130013
130013
130013
130013
130013
130013
130013
130013
130013
130013
130013
130013
130013
130013
130012
130013
130013
130012
130012
130012
130012
130012
130012
130012
130012
130012
130012
130012
130012
130012
130012
130012
130011
130012
130012
130011
130011
130011
130011
130011
130011
130011
130011
130011
130011
130011
130011
130010
130010
130010
130010
130010
130010
130010
130010
130010
130010
130010
130010
130009
130009
130009
130009
130009
130009
130009
130009
130009
130008
130008
130009
130008
130008
130008
130008
130008
130008
130008
130008
130008
130007
130007
130007
130007
130007
130007
130006
130006
130006
130006
130006
130006
130006
130006
130006
130005
130005
130005
130005
130005
130005
130004
130004
130004
130004
130004
130004
130003
130003
130003
130003
130003
130003
130002
130002
130002
130001
130002
130002
130001
130001
130001
130000
130000
130000
130000
130000
130000
129999
129999
129999
129998
129998
129998
129997
129997
129997
129997
129997
129997
129996
129996
129996
129995
129995
129995
129994
129994
129994
129993
129993
129993
129992
129992
129992
129991
129991
129991
129990
129990
129990
129989
129989
129989
129988
129988
129988
129987
129987
129987
129985
129986
129986
129985
129985
129985
129983
129983
129983
129982
129982
129982
129981
129981
129981
129980
129980
129980
129979
129979
129979
129978
129978
129978
129977
129977
129977
129976
129976
129976
129975
129975
129975
129973
129973
129973
129972
129972
129972
129971
129971
129971
129968
129968
129968
129965
129965
129965
129960
129960
129960
129961
129962
129962
129978
129978
129977
130017
130020
130021
130042
130041
130039
130043
130050
130038
130034
130050
130076
130030
129997
130047
130088
130070
130039
130024
130015
130010
130007
130005
130004
130003
130003
130003
130003
130003
130004
130004
130004
130004
130004
130004
130004
130004
130003
130003
130003
130002
130002
130001
130000
129999
129997
129996
129995
129994
129992
129991
129989
129988
129987
129985
129984
129983
129981
129982
129979
129981
129977
129978
129996
129999
130001
130002
130004
130006
130008
130010
130012
130015
130018
130021
130024
130028
130032
130036
130041
130047
130054
130061
130068
130077
130086
130097
130108
130119
130132
130145
130158
130172
130186
130199
130212
130223
130232
130238
130240
130240
130239
130239
130240
130242
130246
130251
130257
130263
130270
130278
130287
130297
130307
130318
130329
130342
130355
130369
130384
130400
130417
130436
130455
130476
130499
130523
130549
130577
130607
130639
130673
130709
130748
130789
130833
130880
130929
130982
131037
131096
131158
131223
131292
131365
131441
131522
131606
131694
131786
131883
131983
132088
132198
132311
132429
132551
132678
132808
132943
133082
133224
133371
133520
133674
133830
133990
134153
134318
134485
134655
134827
135000
135175
135351
135528
135705
135883
136061
136239
136416
136593
136769
136944
137118
137291
137462
137631
137799
137964
138128
138289
138448
138604
138758
138909
139058
139204
139347
139487
139625
139759
139891
140020
140147
140270
140390
140508
140623
140735
140845
140951
141056
141157
141256
141352
141446
141537
141626
141712
141796
141878
141958
142035
142110
142184
142255
142324
142391
142456
142519
142581
142640
142698
142755
142809
142862
142914
142964
143012
143059
143105
143149
143192
143233
143273
143312
143350
143387
143422
143457
143490
143522
143554
143584
143613
143641
143669
143695
143721
143746
143769
143792
143815
143836
143857
143877
143896
143915
143932
143950
143966
143982
143997
144011
144025
144039
144051
144063
144074
144085
144095
144105
144113
144122
144130
144138
144146
144154
144163
144172
144181
144190
144199
144208
144215
144223
144234
144248
144260
144266
144269
144269
144269
144269
144269
144269
144269
144269
144269
144269
144268
144268
144268
144271
144283
144296
144305
144312
144320
144328
144336
144345
144354
144363
144373
144382
144392
144403
144413
144424
144436
144447
144459
144471
144483
144496
144508
144521
144534
144547
144560
144574
144587
144601
144615
144629
144642
144656
144670
144684
144699
144713
144727
144741
144755
144769
144783
144797
144810
144824
144838
144851
144865
144878
144891
144904
144917
144930
144943
144955
144967
144979
144990
145002
145013
145024
145034
145045
145054
145064
145073
145083
145092
145101
145109
145117
145124
145131
145140
145147
145149
145147
145144
145142
145140
145139
145143
145152
145171
145209
145247
145262
145270
145259
145249
145240
145231
145223
145216
145208
145202
145196
145191
145187
145183
145179
145176
145173
145172
145169
145168
145167
145166
145166
145166
145166
145166
145167
145168
145169
145171
145172
145174
145176
145179
145181
145185
145187
145191
145194
145198
145201
145206
145210
145214
145219
145224
145228
145234
145239
145245
145250
145257
145262
145269
145275
145282
145288
145296
145302
145310
145317
145326
145333
145342
145349
145358
145366
145376
145384
145394
145403
145413
145422
145433
145442
145453
145463
145475
145485
145497
145508
145520
145531
145544
145555
145569
145581
145594
145607
145621
145634
145648
145662
145677
145691
145706
145721
145737
145752
145768
145784
145801
145817
145835
145851
145869
145886
145905
145923
145942
145960
145980
145999
146020
146039
146060
146081
146102
146123
146145
146167
146190
146212
146236
146258
146283
146306
146331
146355
146381
146406
146432
146457
146484
146510
146538
146565
146593
146621
146650
146678
146708
146736
146767
146796
146827
146857
146889
146919
146952
146983
147016
147047
147081
147113
147147
147180
147214
147247
147281
147315
147350
147384
147419
147453
147488
147522
147558
147592
147627
147661
147696
147730
147765
147799
147833
147867
147901
147933
147967
147999
148032
148063
148095
148126
148157
148186
148216
148245
148274
148301
148329
148355
148382
148407
148432
148456
148480
148502
148525
148546
148567
148587
148607
148625
148644
148661
148678
148694
148710
148725
148740
148754
148768
148780
148793
148805
148817
148828
148839
148849
148859
148868
148878
148887
148896
148904
148913
148920
148929
148936
148944
148952
148959
148967
148975
148983
148990
148992
148985
148988
148992
148993
148987
148971
148979
148976
148966
148966
148963
148960
148951
148951
148958
148944
148948
148945
148936
148937
148933
148930
148920
148921
148929
148914
148918
148914
148904
148905
148902
148897
148887
148888
148898
148881
148884
148879
148869
148870
148866
148860
148849
148851
148862
148843
148846
148840
148828
148830
148825
148818
148805
148808
148821
148798
148802
148795
148781
148784
148777
148769
148755
148758
148773
148746
148750
148742
148726
148729
148721
148712
148695
148699
148716
148685
148689
148680
148662
148666
148655
148646
148626
148630
148650
148613
148618
148609
148588
148592
148579
148569
148547
148551
148573
148531
148537
148527
148503
148508
148493
148482
148457
148462
148485
148437
148445
148434
148408
148413
148395
148384
148357
148361
148387
148333
148343
148331
148303
148307
148288
148276
148246
148251
148277
148219
148230
148218
148187
148192
148171
148159
148127
148132
148159
148097
148109
148097
148064
148069
148046
148034
148000
148005
148033
147968
147981
147969
147934
147939
147915
147903
147868
147873
147901
147833
147847
147835
147800
147805
147779
147767
147731
147736
147765
147696
147710
147698
147662
147667
147641
147629
147593
147598
147626
147557
147572
147560
147524
147528
147502
147490
147454
147459
147487
147418
147433
147421
147385
147389
147364
147352
147316
147321
147349
147281
147295
147284
147248
147253
147227
147216
147181
147185
147213
147146
147160
147149
147114
147118
147094
147083
147049
147053
147080
147015
147029
147018
146984
146988
146965
146954
146921
146925
146951
146888
146901
146891
146858
146862
146840
146830
146797
146801
146827
146766
146779
146769
146738
146741
146720
146710
146679
146683
146707
146650
146662
146652
146622
146626
146605
146596
146566
146570
146593
146538
146550
146541
146512
146515
146496
146487
146458
146462
146484
146432
146443
146434
146407
146410
146392
146383
146356
146359
146381
146332
146342
146333
146307
146310
146293
146285
146259
146262
146283
146236
146246
146238
146213
146216
146200
146192
146168
146171
146191
146146
146156
146148
146124
146127
146112
146105
146082
146084
146103
146062
146070
146063
146040
146043
146030
146022
146000
146003
146021
145982
145990
145983
145961
145964
145952
145944
145924
145926
145944
145907
145914
145907
145887
145890
145878
145871
145852
145854
145871
145836
145843
145837
145818
145820
145810
145803
145785
145787
145803
145770
145777
145770
145753
145755
145745
145739
145722
145724
145739
145708
145715
145708
145692
145694
145685
145679
145663
145665
145679
145651
145656
145650
145635
145637
145629
145623
145608
145610
145623
145597
145602
145596
145581
145583
145576
145571
145556
145558
145571
145547
145551
145546
145532
145534
145527
145522
145508
145510
145523
145500
145504
145499
145486
145488
145482
145477
145464
145466
145478
145456
145460
145455