/*--------------------------------*- C++ -*----------------------------------*\
| =========                 |                                                 |
| \\      /  F ield         | OpenFOAM: The Open Source CFD Toolbox           |
|  \\    /   O peration     | Version:  v2006                                 |
|   \\  /    A nd           | Website:  www.openfoam.com                      |
|    \\/     M anipulation  |                                                 |
\*---------------------------------------------------------------------------*/
FoamFile
{
    version     2.0;
    format      ascii;
    class       volScalarField;
    location    "0.04";
    object      rho;
}
// * * * * * * * * * * * * * * * * * * * * * * * * * * * * * * * * * * * * * //

dimensions      [1 -3 0 0 0 0 0];


internalField   nonuniform List<scalar> 
24416
(
1.69402
1.69402
1.69401
1.69401
1.69401
1.69401
1.69401
1.69401
1.69401
1.69401
1.69401
1.69401
1.69401
1.69401
1.69401
1.69401
1.69402
1.69406
1.69411
1.69418
1.69426
1.69434
1.69443
1.69452
1.69461
1.69469
1.69478
1.69487
1.69496
1.69506
1.69515
1.69525
1.69535
1.69545
1.69555
1.69565
1.69576
1.69586
1.69597
1.69608
1.69619
1.6963
1.69641
1.69652
1.69664
1.69675
1.69687
1.69698
1.6971
1.69722
1.69733
1.69745
1.69757
1.69769
1.69781
1.69792
1.69804
1.69816
1.69827
1.69839
1.69851
1.69862
1.69874
1.69885
1.69896
1.69907
1.69919
1.6993
1.6994
1.69951
1.69962
1.69972
1.69982
1.69993
1.70003
1.70012
1.70022
1.70031
1.7004
1.70049
1.70058
1.70067
1.70076
1.70085
1.70094
1.70103
1.70112
1.7012
1.70127
1.70132
1.70135
1.70134
1.70132
1.7013
1.70128
1.70126
1.70124
1.70122
1.70121
1.70119
1.70118
1.70123
1.70125
1.70141
1.70156
1.70171
1.70208
1.70273
1.70311
1.70288
1.70224
1.70291
1.70296
1.70292
1.7027
1.70184
1.70145
1.70247
1.70279
1.70262
1.70225
1.70113
1.70087
1.70204
1.70244
1.70228
1.70183
1.70068
1.70051
1.70165
1.70212
1.70196
1.70148
1.70036
1.70024
1.70135
1.70184
1.7017
1.70121
1.70012
1.70004
1.70109
1.70159
1.70147
1.70097
1.69996
1.69989
1.70087
1.70136
1.70126
1.70078
1.69984
1.69979
1.7007
1.70118
1.70109
1.70062
1.69975
1.69973
1.70056
1.70102
1.70095
1.7005
1.6997
1.69968
1.70044
1.70089
1.70083
1.7004
1.69967
1.69966
1.70036
1.70079
1.70074
1.70032
1.69965
1.69965
1.70029
1.7007
1.70067
1.70027
1.69965
1.69966
1.70025
1.70064
1.70061
1.70023
1.69966
1.69967
1.70022
1.70059
1.70057
1.70021
1.69968
1.69969
1.7002
1.70056
1.70055
1.7002
1.6997
1.69972
1.7002
1.70054
1.70054
1.7002
1.69974
1.69976
1.70021
1.70053
1.70054
1.70022
1.69979
1.69981
1.70023
1.70054
1.70055
1.70024
1.69984
1.69986
1.70025
1.70055
1.70057
1.70027
1.69989
1.69992
1.70029
1.70058
1.7006
1.70031
1.69996
1.69999
1.70034
1.70061
1.70064
1.70036
1.70002
1.70006
1.70039
1.70066
1.70068
1.70042
1.7001
1.70014
1.70045
1.70071
1.70074
1.70048
1.70018
1.70022
1.70052
1.70077
1.7008
1.70056
1.70027
1.70031
1.70059
1.70083
1.70087
1.70064
1.70036
1.70041
1.70067
1.70091
1.70095
1.70072
1.70046
1.70051
1.70076
1.70099
1.70104
1.70082
1.70057
1.70062
1.70086
1.70108
1.70113
1.70092
1.70068
1.70074
1.70096
1.70117
1.70123
1.70102
1.7008
1.70086
1.70108
1.70128
1.70134
1.70114
1.70093
1.70099
1.70119
1.70139
1.70145
1.70126
1.70106
1.70112
1.70132
1.7015
1.70157
1.70139
1.7012
1.70127
1.70145
1.70163
1.7017
1.70152
1.70134
1.70142
1.70159
1.70176
1.70183
1.70166
1.7015
1.70157
1.70173
1.7019
1.70198
1.70181
1.70166
1.70173
1.70188
1.70204
1.70213
1.70197
1.70182
1.7019
1.70204
1.7022
1.70228
1.70213
1.70199
1.70208
1.70221
1.70236
1.70245
1.7023
1.70217
1.70226
1.70238
1.70252
1.70262
1.70248
1.70236
1.70245
1.70256
1.7027
1.7028
1.70267
1.70255
1.70265
1.70275
1.70288
1.70298
1.70286
1.70275
1.70285
1.70295
1.70307
1.70318
1.70306
1.70296
1.70306
1.70315
1.70327
1.70338
1.70327
1.70318
1.70328
1.70336
1.70347
1.70359
1.70348
1.7034
1.70351
1.70358
1.70369
1.70381
1.70371
1.70363
1.70374
1.70381
1.70391
1.70403
1.70394
1.70387
1.70399
1.70405
1.70414
1.70427
1.70418
1.70412
1.70424
1.70429
1.70438
1.70451
1.70443
1.70438
1.7045
1.70455
1.70463
1.70476
1.70469
1.70465
1.70477
1.70481
1.70488
1.70503
1.70495
1.70492
1.70505
1.70508
1.70515
1.7053
1.70523
1.7052
1.70534
1.70536
1.70542
1.70558
1.70552
1.7055
1.70564
1.70565
1.70571
1.70587
1.70581
1.7058
1.70594
1.70595
1.706
1.70617
1.70612
1.70611
1.70626
1.70626
1.7063
1.70647
1.70643
1.70643
1.70659
1.70658
1.70662
1.70679
1.70676
1.70677
1.70692
1.70691
1.70694
1.70712
1.70709
1.70711
1.70727
1.70725
1.70728
1.70746
1.70744
1.70746
1.70763
1.7076
1.70762
1.70781
1.70779
1.70783
1.708
1.70796
1.70798
1.70818
1.70816
1.7082
1.70838
1.70833
1.70834
1.70855
1.70854
1.70859
1.70877
1.70872
1.70872
1.70893
1.70893
1.70899
1.70917
1.70911
1.70911
1.70933
1.70933
1.7094
1.70959
1.70952
1.70951
1.70974
1.70975
1.70982
1.71001
1.70994
1.70992
1.71015
1.71017
1.71025
1.71045
1.71037
1.71035
1.71059
1.71061
1.71069
1.7109
1.71081
1.71078
1.71103
1.71106
1.71115
1.71136
1.71127
1.71123
1.71148
1.71152
1.71162
1.71184
1.71173
1.71169
1.71195
1.71199
1.7121
1.71232
1.71221
1.71217
1.71243
1.71248
1.71259
1.71282
1.7127
1.71265
1.71292
1.71298
1.7131
1.71333
1.71321
1.71315
1.71342
1.71349
1.71361
1.71385
1.71372
1.71365
1.71394
1.71401
1.71414
1.71439
1.71425
1.71417
1.71446
1.71454
1.71468
1.71493
1.71478
1.7147
1.715
1.71508
1.71523
1.71549
1.71533
1.71524
1.71555
1.71564
1.71579
1.71605
1.71589
1.7158
1.71611
1.7162
1.71636
1.71663
1.71646
1.71636
1.71667
1.71678
1.71694
1.71721
1.71704
1.71693
1.71725
1.71736
1.71753
1.71781
1.71763
1.71752
1.71784
1.71795
1.71813
1.71841
1.71822
1.7181
1.71843
1.71855
1.71874
1.71902
1.71883
1.7187
1.71903
1.71916
1.71935
1.71963
1.71944
1.71931
1.71964
1.71977
1.71997
1.72025
1.72005
1.71991
1.72025
1.72039
1.72059
1.72088
1.72067
1.72053
1.72086
1.72101
1.72121
1.7215
1.72129
1.72114
1.72148
1.72163
1.72183
1.72212
1.72191
1.72176
1.72209
1.72224
1.72245
1.72273
1.72252
1.72237
1.7227
1.72285
1.72306
1.72334
1.72313
1.72298
1.72331
1.72346
1.72366
1.72394
1.72374
1.72358
1.7239
1.72406
1.72426
1.72454
1.72433
1.72417
1.72449
1.72465
1.72485
1.72512
1.72492
1.72476
1.72507
1.72523
1.72543
1.7257
1.72549
1.72533
1.72564
1.7258
1.726
1.72625
1.72605
1.72589
1.72619
1.72635
1.72655
1.7268
1.7266
1.72643
1.72672
1.72689
1.72708
1.72732
1.72713
1.72696
1.72724
1.7274
1.7276
1.72783
1.72764
1.72747
1.72774
1.7279
1.72809
1.72831
1.72812
1.72796
1.72822
1.72838
1.72856
1.72877
1.72859
1.72843
1.72867
1.72883
1.72901
1.72921
1.72903
1.72887
1.7291
1.72926
1.72944
1.72963
1.72945
1.72929
1.72951
1.72967
1.72984
1.73002
1.72985
1.72969
1.7299
1.73005
1.73021
1.73038
1.73021
1.73006
1.73026
1.73041
1.73057
1.73072
1.73056
1.73041
1.73059
1.73074
1.73089
1.73103
1.73088
1.73073
1.7309
1.73104
1.73119
1.73132
1.73118
1.73103
1.73119
1.73133
1.73147
1.73159
1.73145
1.73131
1.73146
1.73159
1.73173
1.73184
1.7317
1.73157
1.7317
1.73183
1.73196
1.73207
1.73194
1.73181
1.73193
1.73205
1.73218
1.73227
1.73215
1.73202
1.73214
1.73226
1.73238
1.73246
1.73234
1.73222
1.73233
1.73244
1.73256
1.73264
1.73252
1.73241
1.7325
1.73261
1.73272
1.7328
1.73269
1.73258
1.73267
1.73277
1.73287
1.73294
1.73284
1.73273
1.73281
1.73292
1.73301
1.73308
1.73298
1.73288
1.73295
1.73305
1.73314
1.73321
1.73311
1.73301
1.73309
1.73318
1.73327
1.73333
1.73324
1.73314
1.73321
1.7333
1.73338
1.73345
1.73336
1.73327
1.73333
1.73342
1.7335
1.73356
1.73348
1.73339
1.73344
1.73353
1.7336
1.73367
1.73359
1.73351
1.73357
1.73365
1.73371
1.73379
1.73372
1.73365
1.73368
1.73375
1.73382
1.73355
1.73341
1.7333
1.73329
1.73323
1.7332
1.73317
1.73319
1.73319
1.73321
1.73322
1.73326
1.73328
1.73332
1.73335
1.73339
1.73342
1.73347
1.73351
1.73356
1.73361
1.73366
1.73371
1.73377
1.73382
1.73388
1.73393
1.73399
1.73404
1.7341
1.73415
1.7342
1.73425
1.7343
1.73435
1.7344
1.73444
1.73449
1.73453
1.73458
1.73462
1.73467
1.73471
1.73475
1.73477
1.73479
1.73483
1.73486
1.73487
1.73485
1.73485
1.73489
1.73495
1.73492
1.73493
1.73497
1.73495
1.73493
1.73496
1.73499
1.73502
1.73508
1.73505
1.73499
1.73508
1.73515
1.73519
1.73527
1.73523
1.73516
1.73526
1.73533
1.73537
1.73546
1.73542
1.73534
1.73544
1.73552
1.73556
1.73564
1.73559
1.73552
1.73561
1.73569
1.73573
1.73581
1.73576
1.73569
1.73579
1.73586
1.73591
1.73598
1.73594
1.73586
1.73595
1.73603
1.73607
1.73615
1.73611
1.73603
1.73613
1.73621
1.73625
1.73633
1.73628
1.73621
1.7363
1.73638
1.73643
1.73651
1.73647
1.73639
1.73649
1.73657
1.73662
1.7367
1.73665
1.73657
1.73667
1.73676
1.7368
1.73689
1.73685
1.73677
1.73687
1.73696
1.73701
1.7371
1.73705
1.73697
1.73707
1.73716
1.73721
1.7373
1.73726
1.73717
1.73728
1.73737
1.73742
1.73752
1.73747
1.73738
1.73749
1.73758
1.73764
1.73774
1.73769
1.7376
1.73772
1.73782
1.73788
1.73799
1.73793
1.73783
1.73795
1.73806
1.73812
1.73824
1.73818
1.73808
1.73821
1.73832
1.73838
1.7385
1.73845
1.73834
1.73847
1.73858
1.73864
1.73878
1.73872
1.7386
1.73874
1.73887
1.73893
1.73906
1.739
1.73887
1.739
1.73915
1.73922
1.73936
1.73928
1.73914
1.73926
1.73943
1.73951
1.73963
1.73954
1.73934
1.73948
1.73971
1.73981
1.74006
1.73995
1.73968
1.74004
1.74033
1.74044
1.74085
1.74073
1.74039
1.74081
1.7412
1.7413
1.74178
1.74167
1.74117
1.7415
1.74214
1.74226
1.74274
1.74259
1.74173
1.74205
1.74326
1.74333
1.74385
1.74396
1.74238
1.73903
1.74648
1.74372
1.74407
1.74454
1.74437
1.74468
1.74473
1.74493
1.74532
1.74537
1.74522
1.74579
1.74588
1.74572
1.74621
1.74633
1.74639
1.74738
1.74722
1.74694
1.74764
1.74804
1.7481
1.74893
1.74878
1.74821
1.74869
1.74944
1.74973
1.7506
1.75021
1.74942
1.7497
1.75075
1.75139
1.75216
1.75109
1.74982
1.74953
1.75099
1.75268
1.75284
1.75055
1.7492
1.74772
1.74941
1.75233
1.75167
1.74846
1.74725
1.74596
1.74709
1.75062
1.74846
1.7453
1.74467
1.74189
1.74265
1.74581
1.74229
1.74054
1.74082
1.73753
1.73721
1.73833
1.7331
1.73415
1.73477
1.73268
1.73171
1.72798
1.72196
1.72662
1.72722
1.72536
1.72503
1.7162
1.70989
1.72151
1.72149
1.71683
1.71662
1.70189
1.69205
1.7147
1.71453
1.71207
1.71064
1.67796
1.65987
1.70364
1.70873
1.70263
1.69459
1.64677
1.63133
1.68257
1.69392
1.68282
1.67026
1.62122
1.61117
1.66042
1.67464
1.66654
1.65051
1.60843
1.60343
1.63821
1.65423
1.65016
1.63498
1.60732
1.61008
1.63075
1.6469
1.63748
1.62685
1.61445
1.61858
1.62972
1.64125
1.63996
1.62927
1.62252
1.62206
1.62728
1.63379
1.63961
1.63223
1.63102
1.63476
1.63507
1.63927
1.63474
1.64085
1.62919
1.64239
1.6438
1.64733
1.64755
1.64564
1.6436
1.64318
1.64307
1.64642
1.65286
1.65479
1.64801
1.65092
1.65199
1.65381
1.65033
1.65583
1.64419
1.65534
1.65731
1.65993
1.65959
1.65785
1.65541
1.65402
1.65512
1.65864
1.66235
1.66789
1.6567
1.6601
1.66165
1.66247
1.66421
1.66077
1.65738
1.66169
1.67115
1.66576
1.66544
1.66803
1.66161
1.66727
1.66941
1.67007
1.66895
1.66786
1.66643
1.66747
1.66566
1.66943
1.67194
1.67245
1.67007
1.66915
1.67019
1.67088
1.67228
1.66816
1.66959
1.67175
1.67438
1.67399
1.67272
1.67242
1.67119
1.66931
1.67061
1.67448
1.67403
1.68054
1.67174
1.67097
1.67604
1.674
1.67688
1.67656
1.67545
1.67485
1.67497
1.67509
1.67786
1.67273
1.67445
1.67379
1.68173
1.67636
1.67615
1.67826
1.67382
1.67735
1.67881
1.67886
1.6784
1.67766
1.67732
1.67349
1.67953
1.67571
1.67915
1.68193
1.67716
1.67989
1.67788
1.67879
1.67689
1.68401
1.6689
1.6832
1.67577
1.68189
1.68035
1.6776
1.67708
1.6791
1.68009
1.68078
1.68006
1.67822
1.67806
1.68006
1.68157
1.68127
1.67987
1.67955
1.67883
1.67975
1.67624
1.68145
1.67958
1.68577
1.6772
1.67804
1.68161
1.67956
1.68182
1.68169
1.68126
1.68008
1.68002
1.68057
1.68198
1.67637
1.67894
1.67737
1.6865
1.67948
1.67974
1.68426
1.67652
1.68079
1.68163
1.68225
1.68008
1.68108
1.67796
1.68057
1.68211
1.6818
1.68008
1.67895
1.68
1.67421
1.6852
1.67848
1.6835
1.67761
1.68493
1.67968
1.67876
1.68117
1.68117
1.68244
1.67954
1.67879
1.67906
1.68051
1.68139
1.68141
1.68011
1.67954
1.67981
1.68029
1.68177
1.67518
1.67972
1.67595
1.68539
1.67839
1.67832
1.68249
1.67481
1.67718
1.68169
1.67961
1.67796
1.67988
1.67587
1.67921
1.68047
1.68015
1.67794
1.67752
1.67783
1.67888
1.67318
1.67951
1.6758
1.68499
1.67431
1.67225
1.68119
1.67669
1.679
1.67805
1.67773
1.67444
1.67907
1.6764
1.67829
1.67734
1.67731
1.67397
1.6763
1.67603
1.67726
1.6774
1.67596
1.67426
1.67454
1.67513
1.67787
1.67074
1.67679
1.68083
1.67107
1.67749
1.67657
1.6717
1.67424
1.67301
1.67728
1.67459
1.67494
1.67182
1.67288
1.67179
1.67545
1.67411
1.67311
1.67192
1.67061
1.67261
1.67399
1.67392
1.6724
1.6716
1.67049
1.67141
1.67301
1.67299
1.67128
1.6705
1.67022
1.67147
1.66544
1.67163
1.66878
1.67547
1.66651
1.66439
1.67347
1.66868
1.67121
1.66945
1.6699
1.66664
1.66965
1.66819
1.66959
1.66834
1.66827
1.66534
1.66654
1.66728
1.66822
1.66812
1.66661
1.66445
1.66569
1.66652
1.66722
1.66713
1.66583
1.66238
1.66436
1.66507
1.66554
1.65975
1.66664
1.66825
1.65963
1.66609
1.66499
1.65952
1.66344
1.66187
1.66494
1.66347
1.66313
1.65943
1.66124
1.66017
1.6631
1.66239
1.66125
1.65957
1.6589
1.65997
1.66146
1.6616
1.65995
1.65891
1.65794
1.658
1.66031
1.65997
1.65872
1.65719
1.65716
1.64876
1.66174
1.65489
1.65984
1.65432
1.6583
1.65616
1.65286
1.65609
1.6557
1.65734
1.65369
1.65304
1.65199
1.65488
1.65437
1.65607
1.65158
1.65021
1.65135
1.65298
1.65315
1.65315
1.65112
1.64907
1.6504
1.65127
1.6513
1.65178
1.64887
1.64767
1.64813
1.64941
1.64547
1.64973
1.64197
1.64388
1.65296
1.64757
1.64568
1.64976
1.64167
1.64451
1.64652
1.64762
1.6436
1.64628
1.64114
1.64353
1.64445
1.64636
1.64262
1.64307
1.63936
1.64116
1.643
1.64367
1.64113
1.64072
1.63814
1.63989
1.64183
1.6419
1.63979
1.63888
1.63712
1.63783
1.63351
1.63818
1.63731
1.64015
1.63482
1.63333
1.63367
1.63608
1.63583
1.63725
1.63207
1.63037
1.63244
1.63387
1.63414
1.63439
1.63066
1.62922
1.63084
1.63197
1.63232
1.6326
1.62919
1.62667
1.62836
1.62972
1.62998
1.63002
1.62751
1.62504
1.62649
1.62801
1.62487
1.62134
1.62328
1.62464
1.62473
1.62683
1.6248
1.62133
1.62226
1.62
1.62449
1.624
1.62186
1.61954
1.6188
1.61751
1.62211
1.62113
1.61862
1.61621
1.61481
1.61539
1.61882
1.61835
1.61672
1.61497
1.61275
1.60951
1.61036
1.61242
1.61492
1.61438
1.61257
1.60871
1.60957
1.61228
1.61221
1.61355
1.60835
1.60614
1.60765
1.60924
1.60855
1.60857
1.60429
1.60035
1.60291
1.60499
1.606
1.60589
1.60235
1.60178
1.60285
1.60514
1.59856
1.60279
1.59493
1.6
1.60041
1.60264
1.59816
1.59804
1.59361
1.59581
1.59634
1.59768
1.59336
1.5929
1.58783
1.59042
1.59319
1.59389
1.59212
1.59096
1.58808
1.58677
1.58474
1.58858
1.58914
1.59106
1.58512
1.583
1.58455
1.58704
1.58508
1.58597
1.5806
1.57658
1.57879
1.58133
1.58107
1.58005
1.5761
1.57303
1.57677
1.57897
1.57355
1.5714
1.56899
1.57317
1.57606
1.5767
1.57331
1.57188
1.56886
1.56944
1.57066
1.57228
1.56705
1.56612
1.5614
1.55943
1.56421
1.56562
1.56333
1.56085
1.55675
1.55386
1.55618
1.55805
1.5607
1.56002
1.55633
1.55246
1.55565
1.55735
1.55604
1.55531
1.55227
1.54588
1.5502
1.55213
1.54262
1.53913
1.53532
1.54002
1.54405
1.54519
1.54224
1.54043
1.53729
1.539
1.54229
1.54299
1.54002
1.53802
1.5336
1.52912
1.52872
1.53186
1.53029
1.52797
1.52388
1.51636
1.52052
1.5246
1.52567
1.52505
1.51924
1.519
1.52048
1.52467
1.51628
1.51816
1.51126
1.51233
1.5147
1.51699
1.51041
1.51037
1.5036
1.49655
1.50343
1.50617
1.50278
1.49904
1.49269
1.49054
1.49355
1.4967
1.49842
1.49784
1.49272
1.49003
1.4926
1.49647
1.48438
1.48455
1.47574
1.46809
1.47638
1.48
1.47686
1.4725
1.46565
1.46013
1.46666
1.46941
1.47121
1.46935
1.46841
1.45809
1.46777
1.46842
1.45494
1.44392
1.44455
1.4407
1.44727
1.45111
1.44779
1.44347
1.43563
1.43239
1.43431
1.43944
1.43709
1.4383
1.43112
1.41274
1.42241
1.42879
1.41335
1.40606
1.39771
1.40769
1.4135
1.41581
1.41528
1.4116
1.40389
1.39141
1.39448
1.40363
1.391
1.38402
1.37111
1.37034
1.38017
1.38641
1.38088
1.3777
1.36776
1.35109
1.35832
1.36952
1.36156
1.35351
1.33863
1.33971
1.35195
1.3592
1.35276
1.34569
1.33101
1.30588
1.3282
1.33881
1.33428
1.3272
1.30972
1.29041
1.31444
1.32632
1.32507
1.31395
1.29241
1.27993
1.29788
1.31367
1.339
1.32915
1.31641
1.32952
1.34466
1.35474
1.37474
1.36519
1.35124
1.36992
1.38322
1.39262
1.40637
1.39646
1.38355
1.39325
1.4057
1.41621
1.42379
1.41285
1.40112
1.40797
1.41896
1.43016
1.43572
1.42436
1.41418
1.41985
1.42917
1.4406
1.44492
1.43354
1.42511
1.43001
1.43753
1.44874
1.45218
1.44125
1.43462
1.43887
1.44471
1.45527
1.45808
1.44795
1.44283
1.44649
1.45097
1.46061
1.46294
1.45383
1.44994
1.45316
1.45653
1.46509
1.46709
1.45913
1.45622
1.45907
1.46158
1.46895
1.47073
1.46395
1.46176
1.46426
1.46619
1.47242
1.47404
1.46835
1.46667
1.46897
1.4704
1.4756
1.47713
1.47239
1.4712
1.47329
1.47429
1.47859
1.48003
1.47612
1.47528
1.47713
1.47785
1.48142
1.4828
1.47953
1.47894
1.48067
1.48112
1.48413
1.48545
1.48269
1.48236
1.48398
1.48419
1.48674
1.48803
1.48566
1.48555
1.48703
1.48707
1.48927
1.49051
1.48845
1.48848
1.48984
1.48977
1.49171
1.4929
1.49107
1.49119
1.49248
1.49231
1.49405
1.4952
1.49354
1.49374
1.49494
1.49473
1.49631
1.49742
1.4959
1.49612
1.49725
1.49703
1.49848
1.49954
1.49814
1.49835
1.49941
1.4992
1.50056
1.50157
1.50026
1.50045
1.50145
1.50127
1.50254
1.5035
1.50227
1.50242
1.50336
1.50324
1.50442
1.50534
1.50419
1.50429
1.50518
1.50511
1.50622
1.50708
1.50601
1.50605
1.5069
1.50688
1.50792
1.50874
1.50773
1.50772
1.50853
1.50856
1.50953
1.51031
1.50937
1.50931
1.51008
1.51015
1.51106
1.5118
1.51092
1.51083
1.51156
1.51167
1.51252
1.51321
1.5124
1.51227
1.51296
1.51311
1.5139
1.51456
1.51381
1.51364
1.5143
1.51448
1.51521
1.51584
1.51514
1.51495
1.51558
1.51578
1.51646
1.51705
1.51641
1.5162
1.5168
1.51701
1.51764
1.51821
1.51761
1.51739
1.51796
1.51819
1.51877
1.51931
1.51876
1.51854
1.51909
1.51931
1.51985
1.52037
1.51986
1.51964
1.52016
1.52039
1.52088
1.52138
1.52091
1.52069
1.5212
1.52142
1.52187
1.52236
1.52193
1.52171
1.52219
1.52241
1.52284
1.5233
1.5229
1.52268
1.52315
1.52336
1.52376
1.52422
1.52383
1.52362
1.52406
1.52428
1.52466
1.5251
1.52473
1.52451
1.52494
1.52516
1.52553
1.52595
1.52559
1.52538
1.52579
1.526
1.52636
1.52677
1.52642
1.52621
1.5266
1.52681
1.52717
1.52757
1.52722
1.527
1.52738
1.5276
1.52795
1.52834
1.52799
1.52777
1.52814
1.52836
1.52871
1.52909
1.52874
1.52852
1.52887
1.5291
1.52945
1.52982
1.52947
1.52923
1.52957
1.52981
1.53017
1.53053
1.53017
1.52993
1.53025
1.5305
1.53087
1.53122
1.53086
1.5306
1.53092
1.53118
1.53155
1.53189
1.53152
1.53126
1.53156
1.53183
1.53221
1.53254
1.53217
1.53189
1.53219
1.53247
1.53285
1.53318
1.5328
1.53251
1.5328
1.5331
1.53348
1.5338
1.53341
1.53311
1.5334
1.5337
1.5341
1.53441
1.53401
1.5337
1.53398
1.53429
1.53469
1.53499
1.53459
1.53427
1.53454
1.53487
1.53528
1.53557
1.53516
1.53483
1.53509
1.53543
1.53584
1.53612
1.53572
1.53538
1.53563
1.53598
1.53639
1.53667
1.53626
1.53591
1.53616
1.53651
1.53693
1.5372
1.53678
1.53643
1.53667
1.53703
1.53745
1.53771
1.53729
1.53693
1.53717
1.53753
1.53795
1.53821
1.53779
1.53742
1.53765
1.53802
1.53845
1.5387
1.53828
1.53791
1.53813
1.5385
1.53893
1.53917
1.53875
1.53837
1.53859
1.53897
1.53939
1.53963
1.53921
1.53883
1.53904
1.53942
1.53984
1.54007
1.53966
1.53927
1.53947
1.53986
1.54028
1.54051
1.54009
1.5397
1.5399
1.54029
1.54071
1.54093
1.54051
1.54012
1.54031
1.54071
1.54112
1.54133
1.54092
1.54053
1.54072
1.54111
1.54152
1.54173
1.54132
1.54093
1.54111
1.5415
1.54191
1.54211
1.54171
1.54132
1.54149
1.54189
1.54229
1.54249
1.54209
1.54169
1.54186
1.54226
1.54266
1.54285
1.54245
1.54206
1.54222
1.54262
1.54301
1.5432
1.54281
1.54241
1.54258
1.54297
1.54336
1.54354
1.54315
1.54276
1.54292
1.54331
1.5437
1.54387
1.54349
1.5431
1.54325
1.54364
1.54402
1.54419
1.54381
1.54343
1.54357
1.54396
1.54434
1.5445
1.54413
1.54374
1.54389
1.54427
1.54465
1.54481
1.54444
1.54405
1.54419
1.54458
1.54495
1.5451
1.54474
1.54436
1.54449
1.54487
1.54524
1.54539
1.54503
1.54465
1.54478
1.54516
1.54552
1.54566
1.54531
1.54493
1.54506
1.54543
1.54579
1.54593
1.54558
1.54521
1.54533
1.5457
1.54606
1.54619
1.54585
1.54548
1.5456
1.54597
1.54631
1.54645
1.54611
1.54574
1.54585
1.54622
1.54656
1.5467
1.54636
1.54599
1.5461
1.54647
1.54681
1.54694
1.5466
1.54624
1.54635
1.54671
1.54704
1.54717
1.54684
1.54648
1.54658
1.54694
1.54727
1.5474
1.54707
1.54671
1.54681
1.54717
1.5475
1.54761
1.54729
1.54694
1.54704
1.54739
1.54771
1.54783
1.54751
1.54716
1.54725
1.5476
1.54792
1.54804
1.54772
1.54737
1.54747
1.54781
1.54813
1.54824
1.54793
1.54758
1.54767
1.54802
1.54833
1.54844
1.54812
1.54778
1.54787
1.54821
1.54853
1.54863
1.54832
1.54798
1.54807
1.54841
1.54871
1.54881
1.54851
1.54817
1.54826
1.54859
1.5489
1.549
1.54869
1.54836
1.54844
1.54877
1.54908
1.54917
1.54887
1.54854
1.54862
1.54895
1.54925
1.54934
1.54905
1.54872
1.5488
1.54912
1.54942
1.54951
1.54921
1.54889
1.54897
1.54929
1.54958
1.54967
1.54938
1.54906
1.54913
1.54945
1.54974
1.54983
1.54954
1.54922
1.54929
1.54961
1.5499
1.54998
1.5497
1.54938
1.54945
1.54976
1.55005
1.55013
1.54985
1.54954
1.5496
1.54991
1.5502
1.55028
1.55
1.54969
1.54975
1.55006
1.55034
1.55042
1.55014
1.54983
1.5499
1.5502
1.55048
1.55056
1.55028
1.54998
1.55004
1.55034
1.55062
1.55069
1.55042
1.55012
1.55018
1.55048
1.55075
1.55082
1.55055
1.55025
1.55031
1.55061
1.55088
1.55095
1.55068
1.55038
1.55044
1.55073
1.55101
1.55107
1.5508
1.55051
1.55057
1.55086
1.55113
1.55119
1.55093
1.55064
1.55069
1.55098
1.55125
1.55131
1.55105
1.55076
1.55081
1.5511
1.55136
1.55143
1.55116
1.55088
1.55093
1.55121
1.55148
1.55154
1.55128
1.551
1.55105
1.55133
1.55159
1.55165
1.55139
1.55111
1.55116
1.55143
1.55169
1.55175
1.55149
1.55122
1.55127
1.55154
1.5518
1.55186
1.5516
1.55133
1.55137
1.55164
1.5519
1.55196
1.5517
1.55143
1.55147
1.55175
1.552
1.55205
1.5518
1.55153
1.55157
1.55184
1.5521
1.55215
1.5519
1.55163
1.55167
1.55194
1.55219
1.55224
1.55199
1.55173
1.55177
1.55203
1.55228
1.55233
1.55208
1.55182
1.55186
1.55212
1.55237
1.55242
1.55217
1.55191
1.55195
1.55221
1.55246
1.55251
1.55226
1.552
1.55204
1.5523
1.55255
1.55259
1.55234
1.55209
1.55212
1.55238
1.55263
1.55267
1.55243
1.55217
1.55221
1.55246
1.55271
1.55275
1.55251
1.55226
1.55229
1.55254
1.55279
1.55283
1.55259
1.55234
1.55237
1.55262
1.55287
1.55291
1.55266
1.55241
1.55245
1.5527
1.55294
1.55298
1.55274
1.55249
1.55252
1.55277
1.55301
1.55305
1.55281
1.55257
1.5526
1.55284
1.55308
1.55312
1.55288
1.55264
1.55267
1.55291
1.55315
1.55319
1.55295
1.55271
1.55274
1.55298
1.55322
1.55326
1.55302
1.55278
1.55281
1.55305
1.55329
1.55333
1.55309
1.55285
1.55288
1.55311
1.55335
1.55339
1.55315
1.55291
1.55294
1.55318
1.55342
1.55345
1.55321
1.55298
1.553
1.55324
1.55348
1.55351
1.55328
1.55304
1.55307
1.5533
1.55354
1.55357
1.55334
1.5531
1.55313
1.55336
1.5536
1.55363
1.55339
1.55316
1.55319
1.55342
1.55366
1.55369
1.55345
1.55322
1.55325
1.55348
1.55371
1.55374
1.55351
1.55328
1.5533
1.55353
1.55377
1.5538
1.55356
1.55333
1.55336
1.55359
1.55382
1.55385
1.55362
1.55339
1.55341
1.55364
1.55387
1.5539
1.55367
1.55344
1.55347
1.55369
1.55392
1.55395
1.55372
1.55349
1.55352
1.55374
1.55398
1.554
1.55377
1.55355
1.55357
1.55379
1.55402
1.55405
1.55382
1.5536
1.55362
1.55384
1.55407
1.5541
1.55387
1.55365
1.55367
1.55389
1.55412
1.55415
1.55392
1.55369
1.55372
1.55394
1.55416
1.55419
1.55396
1.55374
1.55376
1.55398
1.55421
1.55424
1.55401
1.55379
1.55381
1.55403
1.55426
1.55428
1.55405
1.55383
1.55385
1.55407
1.5543
1.55432
1.55409
1.55388
1.5539
1.55411
1.55434
1.55437
1.55414
1.55392
1.55394
1.55416
1.55439
1.55441
1.55418
1.55396
1.55398
1.5542
1.55443
1.55445
1.55422
1.55401
1.55402
1.55424
1.55447
1.55449
1.55426
1.55405
1.55407
1.55428
1.55451
1.55453
1.5543
1.55409
1.55411
1.55432
1.55454
1.55456
1.55434
1.55413
1.55414
1.55436
1.55458
1.5546
1.55438
1.55417
1.55418
1.55439
1.55462
1.55464
1.55441
1.5542
1.55422
1.55443
1.55466
1.55468
1.55445
1.55424
1.55426
1.55447
1.55469
1.55471
1.55449
1.55428
1.55429
1.5545
1.55473
1.55475
1.55452
1.55431
1.55433
1.55454
1.55476
1.55478
1.55456
1.55435
1.55436
1.55457
1.55479
1.55481
1.55459
1.55439
1.5544
1.5546
1.55483
1.55485
1.55462
1.55442
1.55443
1.55464
1.55486
1.55488
1.55466
1.55445
1.55446
1.55467
1.55489
1.55491
1.55469
1.55449
1.5545
1.5547
1.55492
1.55494
1.55472
1.55452
1.55453
1.55473
1.55495
1.55497
1.55475
1.55455
1.55456
1.55476
1.55498
1.555
1.55478
1.55458
1.55459
1.55479
1.55501
1.55503
1.55481
1.55461
1.55462
1.55482
1.55504
1.55506
1.55484
1.55464
1.55465
1.55485
1.55507
1.55508
1.55487
1.55467
1.55468
1.55487
1.55509
1.55511
1.55489
1.5547
1.5547
1.5549
1.55512
1.55514
1.55492
1.55472
1.55473
1.55493
1.55515
1.55516
1.55495
1.55475
1.55476
1.55495
1.55517
1.55519
1.55497
1.55478
1.55478
1.55498
1.55519
1.55521
1.55499
1.5548
1.55481
1.555
1.55522
1.55523
1.55502
1.55482
1.55483
1.55503
1.55524
1.55526
1.55504
1.55485
1.55486
1.55505
1.55526
1.55528
1.55506
1.55487
1.55488
1.55507
1.55528
1.5553
1.55508
1.55489
1.5549
1.55509
1.5553
1.55531
1.5551
1.55491
1.55492
1.55511
1.55532
1.55533
1.55512
1.55493
1.55494
1.55513
1.55534
1.55535
1.55514
1.55495
1.55496
1.55514
1.55535
1.55537
1.55515
1.55496
1.55497
1.55516
1.55537
1.55538
1.55517
1.55498
1.55499
1.55517
1.55538
1.55539
1.55518
1.55499
1.555
1.55518
1.55539
1.5554
1.55519
1.555
1.55501
1.5552
1.55541
1.55541
1.5552
1.55501
1.55502
1.55521
1.55541
1.55542
1.55521
1.55502
1.55503
1.55521
1.55542
1.55543
1.55522
1.55503
1.55504
1.55522
1.55543
1.55543
1.55523
1.55504
1.55505
1.55523
1.55544
1.55544
1.55523
1.55505
1.55505
1.55524
1.55545
1.55545
1.55524
1.55505
1.55506
1.55525
1.55545
1.55545
1.55525
1.55506
1.55507
1.55525
1.55546
1.55546
1.55526
1.55507
1.55508
1.55526
1.55547
1.55546
1.55526
1.55507
1.55508
1.55526
1.55547
1.55546
1.55525
1.55507
1.55507
1.55523
1.55544
1.55542
1.55521
1.55502
1.55506
1.55525
1.55551
1.55584
1.5555
1.55531
1.55594
1.55615
1.5566
1.55683
1.55643
1.55627
1.55703
1.55739
1.55861
1.55971
1.56075
1.56142
1.56196
1.56233
1.56338
1.56416
1.56488
1.56539
1.56598
1.56656
1.56712
1.56763
1.56809
1.5685
1.56886
1.56918
1.56946
1.5697
1.56991
1.57008
1.57024
1.57037
1.57048
1.57057
1.57065
1.57072
1.57078
1.57083
1.57087
1.5709
1.57093
1.57095
1.57097
1.57098
1.57098
1.57099
1.57099
1.57098
1.57098
1.57097
1.57096
1.57095
1.57094
1.57093
1.57092
1.57091
1.5709
1.57088
1.5709
1.57087
1.57089
1.57084
1.57086
1.57107
1.57111
1.57113
1.57115
1.57118
1.5712
1.57123
1.57126
1.57129
1.57132
1.57136
1.5714
1.57144
1.57149
1.57154
1.5716
1.57167
1.57174
1.57182
1.57191
1.57201
1.57212
1.57224
1.57236
1.5725
1.57264
1.5728
1.57296
1.57313
1.57329
1.57346
1.57363
1.57378
1.57391
1.57403
1.57409
1.57412
1.57413
1.57412
1.57413
1.57414
1.57418
1.57423
1.57429
1.57436
1.57443
1.57451
1.57459
1.57468
1.57477
1.57486
1.57496
1.57506
1.57516
1.57527
1.57538
1.5755
1.57563
1.57576
1.57591
1.57606
1.57622
1.5764
1.57659
1.5768
1.57702
1.57725
1.57751
1.57778
1.57808
1.57839
1.57873
1.57909
1.57947
1.57987
1.58031
1.58077
1.58125
1.58177
1.58231
1.58289
1.58349
1.58413
1.58481
1.58552
1.58626
1.58704
1.58785
1.5887
1.58959
1.59052
1.59148
1.59248
1.59351
1.59459
1.5957
1.59684
1.59802
1.59923
1.60047
1.60175
1.60305
1.60438
1.60574
1.60713
1.60853
1.60995
1.6114
1.61286
1.61433
1.61582
1.61731
1.61881
1.62032
1.62183
1.62334
1.62485
1.62636
1.62786
1.62935
1.63084
1.63231
1.63377
1.63522
1.63666
1.63808
1.63948
1.64086
1.64223
1.64357
1.6449
1.6462
1.64748
1.64874
1.64997
1.65118
1.65237
1.65354
1.65468
1.65579
1.65689
1.65796
1.659
1.66002
1.66102
1.66199
1.66294
1.66387
1.66478
1.66566
1.66652
1.66736
1.66818
1.66898
1.66975
1.67051
1.67124
1.67196
1.67266
1.67334
1.674
1.67464
1.67526
1.67587
1.67646
1.67704
1.67759
1.67814
1.67866
1.67918
1.67968
1.68016
1.68063
1.68109
1.68153
1.68196
1.68238
1.68279
1.68319
1.68357
1.68394
1.6843
1.68466
1.685
1.68533
1.68565
1.68596
1.68626
1.68656
1.68684
1.68712
1.68739
1.68765
1.6879
1.68815
1.68838
1.68861
1.68883
1.68905
1.68926
1.68946
1.68966
1.68985
1.69003
1.69021
1.69038
1.69054
1.6907
1.69085
1.691
1.69115
1.69128
1.69141
1.69154
1.69166
1.69178
1.69189
1.69199
1.69209
1.69218
1.69227
1.69236
1.69244
1.69252
1.6926
1.69269
1.69279
1.69289
1.69299
1.6931
1.69321
1.6933
1.69339
1.69348
1.6936
1.69376
1.69391
1.69399
1.69401
1.69401
1.69401
1.69401
1.69401
1.69401
1.69401
1.69401
1.69401
1.69401
1.69401
1.69401
1.69401
1.69404
1.69417
1.69432
1.69441
1.69447
1.69453
1.69459
1.69466
1.69472
1.69479
1.69486
1.69493
1.69501
1.69509
1.69517
1.69526
1.69534
1.69543
1.69553
1.69562
1.69572
1.69582
1.69592
1.69602
1.69613
1.69623
1.69634
1.69645
1.69656
1.69667
1.69678
1.69689
1.69701
1.69712
1.69723
1.69735
1.69746
1.69758
1.69769
1.69781
1.69793
1.69804
1.69816
1.69827
1.69838
1.6985
1.69861
1.69872
1.69883
1.69894
1.69905
1.69916
1.69927
1.69937
1.69948
1.69958
1.69968
1.69978
1.69987
1.69997
1.70006
1.70015
1.70024
1.70032
1.7004
1.70048
1.70056
1.70063
1.70071
1.70078
1.70084
1.70091
1.70098
1.70104
1.70111
1.70121
1.7013
1.70132
1.7013
1.70127
1.70124
1.70122
1.70122
1.70127
1.70137
1.7016
1.70204
1.70247
1.70262
1.70265
1.70253
1.70241
1.70229
1.70217
1.70206
1.70195
1.70185
1.70176
1.70166
1.70158
1.7015
1.70144
1.70137
1.70131
1.70125
1.70121
1.70116
1.70112
1.70108
1.70105
1.70102
1.701
1.70097
1.70095
1.70094
1.70093
1.70092
1.70092
1.70091
1.70091
1.70091
1.70092
1.70093
1.70094
1.70095
1.70096
1.70098
1.701
1.70102
1.70104
1.70107
1.70109
1.70112
1.70115
1.70119
1.70122
1.70126
1.7013
1.70134
1.70138
1.70142
1.70147
1.70152
1.70156
1.70162
1.70167
1.70172
1.70178
1.70184
1.70189
1.70196
1.70202
1.70209
1.70215
1.70222
1.70229
1.70237
1.70244
1.70252
1.70259
1.70267
1.70275
1.70284
1.70292
1.70301
1.70309
1.70319
1.70328
1.70338
1.70347
1.70357
1.70367
1.70378
1.70387
1.70399
1.70409
1.70421
1.70431
1.70444
1.70455
1.70467
1.70479
1.70492
1.70504
1.70517
1.70529
1.70544
1.70556
1.70571
1.70584
1.70599
1.70613
1.70628
1.70642
1.70659
1.70673
1.7069
1.70704
1.70722
1.70737
1.70755
1.70771
1.7079
1.70806
1.70825
1.70842
1.70861
1.70879
1.70899
1.70917
1.70938
1.70956
1.70978
1.70996
1.71019
1.71038
1.71061
1.71081
1.71105
1.71125
1.71149
1.7117
1.71195
1.71217
1.71242
1.71264
1.7129
1.71313
1.7134
1.71363
1.7139
1.71414
1.71442
1.71466
1.71495
1.71519
1.71549
1.71573
1.71604
1.71629
1.71659
1.71685
1.71716
1.71742
1.71774
1.718
1.71832
1.71859
1.71892
1.71919
1.71951
1.71979
1.72011
1.72039
1.72072
1.721
1.72133
1.7216
1.72193
1.72221
1.72253
1.72281
1.72313