/*--------------------------------*- C++ -*----------------------------------*\
| =========                 |                                                 |
| \\      /  F ield         | OpenFOAM: The Open Source CFD Toolbox           |
|  \\    /   O peration     | Version:  v2006                                 |
|   \\  /    A nd           | Website:  www.openfoam.com                      |
|    \\/     M anipulation  |                                                 |
\*---------------------------------------------------------------------------*/
FoamFile
{
    version     2.0;
    format      ascii;
    class       volScalarField;
    location    "0.135";
    object      turbulenceProperties:I;
}
// * * * * * * * * * * * * * * * * * * * * * * * * * * * * * * * * * * * * * //

dimensions      [0 0 0 0 0 0 0];


internalField   nonuniform List<scalar> 
16277
(
0.149975
0.149975
0.149983
0.149986
0.149991
0.14999
0.149991
0.149995
0.150002
0.15001
0.150016
0.150018
0.150019
0.150017
0.150015
0.150013
0.150011
0.150009
0.150008
0.150007
0.150006
0.150005
0.150005
0.150004
0.150004
0.150003
0.150003
0.150003
0.150002
0.150002
0.150002
0.150002
0.150002
0.150002
0.150002
0.150002
0.150002
0.150002
0.150002
0.150001
0.150001
0.150001
0.150001
0.150001
0.150001
0.150001
0.150001
0.150001
0.150001
0.150001
0.150001
0.150001
0.150001
0.150001
0.150001
0.150001
0.150001
0.150001
0.150001
0.150001
0.150001
0.150001
0.150001
0.150001
0.150001
0.150001
0.150001
0.150001
0.15
0.15
0.15
0.15
0.15
0.15
0.149999
0.149999
0.149998
0.149997
0.149995
0.149995
0.149997
0.150005
0.150018
0.150031
0.150035
0.150024
0.150006
0.149987
0.149966
0.149968
0.149981
0.149977
0.149989
0.150008
0.149873
0.149304
0.14506
0.13908
0.145978
0.148746
0.14598
0.139197
0.133277
0.129404
0.135533
0.143821
0.139875
0.129547
0.125376
0.123121
0.127253
0.138208
0.134539
0.122607
0.120471
0.119191
0.121242
0.133289
0.130277
0.117865
0.11744
0.116712
0.117167
0.12941
0.126995
0.114912
0.115549
0.115164
0.114556
0.126377
0.124398
0.112921
0.11435
0.114173
0.112769
0.123969
0.122297
0.111519
0.113571
0.113516
0.111488
0.121994
0.120553
0.110494
0.113058
0.113089
0.110551
0.120351
0.119086
0.109736
0.112727
0.112809
0.10985
0.118957
0.11782
0.109151
0.112502
0.112616
0.109299
0.117745
0.116713
0.108685
0.112352
0.112489
0.10886
0.116682
0.115736
0.10831
0.112254
0.112407
0.108505
0.115741
0.114868
0.108006
0.112194
0.112358
0.108219
0.114905
0.114094
0.107762
0.112163
0.112336
0.107991
0.114157
0.113401
0.107571
0.112155
0.112337
0.107814
0.11349
0.112785
0.107427
0.112168
0.112356
0.107684
0.112899
0.112242
0.107327
0.112198
0.112394
0.1076
0.112381
0.111771
0.107272
0.112246
0.112448
0.10756
0.111934
0.111369
0.10726
0.11231
0.11252
0.107565
0.111556
0.111032
0.107292
0.11239
0.112608
0.107613
0.111242
0.110757
0.107364
0.112486
0.112712
0.107702
0.11099
0.110542
0.107476
0.112599
0.112833
0.10783
0.110797
0.110383
0.107626
0.112727
0.11297
0.107998
0.11066
0.110279
0.107814
0.112871
0.113123
0.108203
0.110579
0.110229
0.108038
0.11303
0.113293
0.108445
0.110551
0.110232
0.108298
0.113205
0.113478
0.108725
0.110577
0.110288
0.108595
0.113396
0.113679
0.109041
0.110656
0.110395
0.108928
0.113602
0.113897
0.109396
0.110787
0.110553
0.109298
0.113825
0.114131
0.109788
0.110972
0.110765
0.109706
0.114063
0.114382
0.11022
0.111209
0.11103
0.110153
0.114318
0.11465
0.110691
0.111501
0.111348
0.110639
0.114589
0.114934
0.111204
0.111848
0.111721
0.111166
0.114875
0.115233
0.111758
0.112249
0.112147
0.111735
0.115175
0.115547
0.112355
0.112704
0.112626
0.112344
0.115487
0.115872
0.11299
0.113212
0.113156
0.112989
0.115809
0.116204
0.113661
0.113768
0.113733
0.113669
0.116136
0.116541
0.114365
0.11437
0.114351
0.114377
0.116462
0.116874
0.115094
0.11501
0.115003
0.115107
0.116782
0.117196
0.115839
0.115678
0.115677
0.115846
0.117084
0.117495
0.116587
0.116363
0.11636
0.116582
0.117357
0.117757
0.11732
0.117046
0.11703
0.117293
0.117585
0.117965
0.118015
0.117703
0.117662
0.117953
0.117749
0.118098
0.11864
0.118304
0.118222
0.118528
0.117824
0.118132
0.11916
0.118814
0.118672
0.118984
0.117787
0.118037
0.119531
0.119191
0.118972
0.119276
0.117618
0.117757
0.119687
0.119392
0.119067
0.119301
0.117291
0.117288
0.119541
0.119349
0.118902
0.119015
0.116783
0.116625
0.119063
0.119022
0.118441
0.118397
0.116128
0.115785
0.118244
0.118387
0.117674
0.117448
0.1153
0.114826
0.117109
0.117455
0.116628
0.116199
0.114281
0.113752
0.115654
0.11622
0.115268
0.114594
0.113076
0.112521
0.113851
0.114676
0.113623
0.112689
0.111785
0.111302
0.111845
0.112929
0.111839
0.11067
0.110575
0.110161
0.109779
0.111081
0.109992
0.108639
0.109473
0.109134
0.107752
0.109212
0.108158
0.106689
0.108506
0.108247
0.105842
0.107385
0.106395
0.104875
0.10769
0.107512
0.104109
0.105656
0.104749
0.103216
0.107033
0.106928
0.102576
0.104078
0.103249
0.101771
0.106531
0.106491
0.101258
0.10266
0.101904
0.100546
0.106177
0.106193
0.10016
0.10142
0.100743
0.0995467
0.105958
0.106019
0.0992789
0.100362
0.0997669
0.0987647
0.105856
0.105953
0.0986077
0.0994841
0.0989691
0.098181
0.105849
0.105974
0.0981056
0.0987695
0.0983278
0.0977579
0.10592
0.106062
0.0977557
0.0981982
0.0978231
0.0974802
0.106051
0.106201
0.0975404
0.0977506
0.0974346
0.0973283
0.106224
0.106372
0.0974351
0.0974048
0.0971391
0.0972775
0.10642
0.10656
0.0974166
0.0971377
0.0969132
0.0973033
0.106624
0.10675
0.0974611
0.0969276
0.0967344
0.0973821
0.106825
0.106935
0.0975464
0.0967526
0.0965844
0.0974934
0.107015
0.107101
0.0976544
0.0966004
0.0964444
0.0976189
0.107186
0.107252
0.0977693
0.0964619
0.096311
0.0977454
0.10734
0.107388
0.0978819
0.0963279
0.0961798
0.0978673
0.107478
0.107517
0.0979897
0.0961978
0.0960403
0.0979712
0.107591
0.107616
0.098071
0.0960554
0.0958848
0.0980468
0.107676
0.107711
0.098147
0.0959048
0.0957235
0.0981143
0.107753
0.107769
0.0981896
0.0957294
0.0955336
0.0981425
0.107793
0.107824
0.0982238
0.0955468
0.0953436
0.0981697
0.10784
0.107847
0.0982232
0.0953412
0.095119
0.098157
0.107859
0.107881
0.0982124
0.0951223
0.0948964
0.0981473
0.107891
0.107895
0.0981843
0.0948858
0.0946486
0.0981033
0.107882
0.107891
0.0981367
0.0946368
0.094389
0.0980438
0.107878
0.10788
0.0980689
0.0943698
0.0941121
0.0979641
0.107863
0.107863
0.0979862
0.0940872
0.0938234
0.0978781
0.107836
0.107825
0.0978775
0.0937831
0.0934782
0.0977195
0.10778
0.107691
0.0976905
0.0934243
0.093149
0.0976445
0.107669
0.107441
0.0972696
0.0928982
0.0926469
0.0971426
0.106989
0.106286
0.0955958
0.0919052
0.0928213
0.0958684
0.104165
0.105112
0.093391
0.090577
0.0953285
0.100925
0.107145
0.112686
0.116348
0.12071
0.123517
0.125769
0.127334
0.12839
0.128917
0.128948
0.128435
0.127317
0.125553
0.122567
0.120262
0.115106
0.11027
0.105085
0.100392
0.0991031
0.102186
0.116129
0.131418
0.133659
0.117561
0.102987
0.10395
0.119174
0.135375
0.136291
0.120333
0.104736
0.10528
0.120954
0.137088
0.137404
0.121292
0.105479
0.105786
0.121509
0.137722
0.137771
0.121717
0.105918
0.105992
0.121782
0.137804
0.137803
0.121784
0.106084
0.106124
0.121809
0.137794
0.13777
0.121807
0.106214
0.106237
0.121803
0.13774
0.137707
0.12182
0.106331
0.106345
0.121797
0.137671
0.137644
0.12182
0.106435
0.106453
0.121791
0.137608
0.137583
0.121814
0.106546
0.106559
0.121773
0.137531
0.137496
0.121789
0.106663
0.106679
0.121784
0.137455
0.137418
0.121777
0.106775
0.106792
0.121776
0.137381
0.137344
0.121771
0.10689
0.106905
0.12176
0.137299
0.137257
0.121745
0.107008
0.107021
0.121745
0.137213
0.137155
0.121726
0.107129
0.107153
0.121741
0.137123
0.137085
0.121736
0.107261
0.107278
0.121735
0.13704
0.136996
0.121735
0.107391
0.107408
0.121739
0.136957
0.136911
0.121722
0.10752
0.107541
0.121728
0.136869
0.136821
0.121718
0.107658
0.10768
0.121721
0.136779
0.136735
0.121741
0.107803
0.107821
0.121725
0.136687
0.136647
0.121743
0.107946
0.10797
0.121742
0.136604
0.136567
0.121772
0.108089
0.108107
0.121747
0.136517
0.136483
0.121775
0.108234
0.108254
0.121767
0.136436
0.136396
0.121797
0.108383
0.108404
0.121779
0.136341
0.136309
0.121818
0.108533
0.108554
0.121819
0.136269
0.136242
0.121865
0.108682
0.108697
0.121842
0.136194
0.136161
0.121882
0.108824
0.108836
0.121882
0.136118
0.136093
0.121922
0.108947
0.108954
0.121896
0.136046
0.136014
0.121937
0.109069
0.109068
0.121929
0.13597
0.135944
0.121975
0.109169
0.10916
0.121956
0.135901
0.135876
0.121995
0.109252
0.109233
0.121984
0.135836
0.135824
0.122024
0.109294
0.109253
0.121975
0.135775
0.135747
0.121983
0.109292
0.109233
0.121937
0.135707
0.135672
0.121905
0.109239
0.109157
0.121856
0.135631
0.135595
0.121794
0.109124
0.109013
0.121718
0.135554
0.135509
0.121599
0.108921
0.10877
0.121468
0.135455
0.135388
0.121289
0.108615
0.108421
0.121085
0.135321
0.135238
0.120845
0.108217
0.107937
0.120546
0.135133
0.135023
0.120192
0.107667
0.107296
0.119775
0.134897
0.134732
0.1193
0.106983
0.106555
0.118766
0.134553
0.134368
0.118204
0.106191
0.105655
0.117534
0.134146
0.133897
0.116764
0.105194
0.10453
0.115856
0.133587
0.133262
0.114886
0.104002
0.103271
0.113777
0.132863
0.132442
0.112652
0.102703
0.101932
0.111365
0.13195
0.131452
0.110087
0.101312
0.100467
0.108592
0.130906
0.130318
0.107076
0.0997908
0.0989146
0.105338
0.129659
0.128997
0.103604
0.0981882
0.0973615
0.101601
0.128063
0.126789
0.0997506
0.0965819
0.0957948
0.0981211
0.125356
0.124049
0.096167
0.0951476
0.0945834
0.0943332
0.122878
0.121673
0.0932282
0.0945462
0.0942526
0.0922945
0.120576
0.11958
0.0909018
0.0945311
0.0945838
0.0901868
0.118474
0.117233
0.0896365
0.0953129
0.0957091
0.0894827
0.116036
0.115163
0.089942
0.0970321
0.0976178
0.0900131
0.114359
0.113529
0.091214
0.0993633
0.100459
0.0926208
0.112488
0.112579
0.0959687
0.103386
0.105051
0.0984548
0.11383
0.134405
0.0900222
0.0854918
0.0974295
0.0950305
0.126326
0.125783
0.0916761
0.0965966
0.0974119
0.0906646
0.12536
0.12422
0.0893215
0.0968908
0.098232
0.0890611
0.122809
0.12096
0.0883512
0.098192
0.100745
0.0893137
0.119046
0.117356
0.0895157
0.101205
0.104713
0.0922435
0.11591
0.114808
0.093439
0.105984
0.111291
0.098322
0.114565
0.115555
0.101212
0.113978
0.088051
0.0875795
0.130743
0.121179
0.0945082
0.106492
0.107329
0.0936041
0.11898
0.117232
0.096416
0.112741
0.114222
0.0970894
0.115887
0.114915
0.100616
0.118815
0.120993
0.102458
0.114472
0.116135
0.108355
0.126488
0.128448
0.112812
0.118289
0.126505
0.0948224
0.0974449
0.120529
0.101311
0.121445
0.119765
0.101121
0.122042
0.128269
0.105973
0.119543
0.118987
0.107618
0.129896
0.138195
0.116025
0.120388
0.124055
0.122308
0.141954
0.107701
0.0982107
0.130917
0.122939
0.111931
0.13756
0.141374
0.114593
0.121736
0.122854
0.125251
0.152843
0.157863
0.131627
0.12547
0.132254
0.142415
0.164222
0.126236
0.109521
0.132739
0.128016
0.129919
0.161911
0.166232
0.133586
0.128902
0.134653
0.152413
0.182398
0.189788
0.163013
0.141481
0.137954
0.124513
0.151874
0.195752
0.158067
0.137612
0.141187
0.16674
0.206012
0.229845
0.195456
0.153613
0.161768
0.208384
0.240865
0.209594
0.166349
0.151476
0.170537
0.228479
0.267274
0.287726
0.249925
0.184625
0.171469
0.208021
0.26582
0.346073
0.30235
0.212606
0.245397
0.354124
0.398873
0.438208
0.34772
0.237654
0.414328
0.610675
0.648661
0.918334
0.847618
0.510928
1
1
1
0.825107
0.797079
0.508937
0.275484
0.424569
0.471725
0.342305
0.308875
0.21321
0.211379
0.276966
0.289217
0.239437
0.199195
0.171725
0.177705
0.216376
0.232985
0.192663
0.164809
0.149171
0.149906
0.177895
0.19827
0.187084
0.162847
0.140808
0.136305
0.122325
0.146559
0.165749
0.148533
0.136807
0.129398
0.124049
0.138548
0.155703
0.136743
0.127574
0.122735
0.127835
0.148937
0.116774
0.10549
0.122231
0.120936
0.120314
0.139596
0.133959
0.114187
0.117608
0.120019
0.0977565
0.105089
0.128208
0.110041
0.116566
0.1148
0.105848
0.122653
0.0976221
0.0938415
0.11915
0.113785
0.103123
0.119526
0.11362
0.0996255
0.112727
0.118373
0.0905435
0.0917458
0.111656
0.0975161
0.110807
0.110918
0.0941964
0.105814
0.0863927
0.0871772
0.117583
0.108835
0.0931429
0.105141
0.0999588
0.0899967
0.108665
0.115847
0.0841056
0.0827559
0.0999641
0.0890186
0.10629
0.107469
0.0863172
0.095197
0.0797647
0.0819119
0.114989
0.104608
0.0869691
0.0966557
0.0895755
0.0831937
0.105191
0.108507
0.0804585
0.0839028
0.0736975
0.0765618
0.12204
0.10562
0.0778017
0.0849418
0.0815193
0.0768792
0.108294
0.116805
0.0773407
0.0718586
0.0807441
0.0755867
0.102033
0.106216
0.0751132
0.0779475
0.0693056
0.0733062
0.118938
0.102036
0.0720988
0.0769417
0.0741796
0.0721297
0.105555
0.115324
0.0739535
0.0669918
0.073641
0.070646
0.0999654
0.104662
0.0709357
0.0717458
0.0660349
0.0734091
0.114601
0.0984974
0.0682408
0.0706457
0.0689582
0.0688378
0.10309
0.116789
0.0697453
0.0635406
0.0688103
0.0666552
0.0991412
0.103252
0.0677105
0.0667547
0.0622977
0.0687639
0.116312
0.098593
0.0645466
0.0656454
0.0644599
0.0661882
0.103341
0.118668
0.067348
0.0608696
0.0635828
0.0648389
0.100872
0.109772
0.0672018
0.0595505
0.0657905
0.0633589
0.0934064
0.0974029
0.0637729
0.0636309
0.060319
0.068771
0.108539
0.0938769
0.0632698
0.0639142
0.0624443
0.063443
0.0988128
0.109608
0.0687526
0.0595472
0.0631731
0.0626875
0.0934441
0.0977582
0.0621702
0.0612973
0.0590889
0.0692614
0.108919
0.0940012
0.0614622
0.0604066
0.0591995
0.0610366
0.0992581
0.110739
0.0699273
0.0579354
0.0587012
0.0603853
0.0938723
0.0989308
0.0603886
0.0566763
0.0565523
0.0677505
0.113931
0.096644
0.0570442
0.0565605
0.0549488
0.0653892
0.1065
0.0919528
0.0577831
0.0566994
0.0548667
0.0575318
0.0969026
0.107509
0.0681451
0.0549691
0.0553087
0.0573196
0.0920096
0.0970797
0.0569663
0.052768
0.0541595
0.068038
0.110941
0.0940367
0.0536256
0.0529004
0.0521248
0.0638928
0.104566
0.0894001
0.0549872
0.053196
0.0511306
0.0548876
0.0938999
0.104742
0.0667825
0.0522765
0.0526527
0.0550451
0.0900456
0.095497
0.0551649
0.0503901
0.0524237
0.0672513
0.109634
0.0929971
0.0514904
0.0502123
0.050189
0.0629123
0.103924
0.0886925
0.0530383
0.0509805
0.0487166
0.053142
0.0934584
0.10449
0.0662422
0.0503581
0.0499125
0.0528467
0.0895993
0.0953041
0.0530204
0.0479427
0.0507754
0.0699429
0.105363
0.0913339
0.0506498
0.0476888
0.0480649
0.061362
0.103228
0.0875452
0.0503477
0.0480604
0.0461905
0.051349
0.0928783
0.106014
0.0659333
0.0491739
0.0462313
0.0482049
0.0899568
0.101076
0.0607847
0.04695
0.046918
0.0492313
0.0858232
0.0918823
0.0499334
0.0450569
0.0484348
0.0674358
0.103217
0.0893616
0.0488684
0.0456491
0.0464137
0.0603397
0.100387
0.0845013
0.0484299
0.046112
0.0443927
0.0494883
0.0904138
0.101427
0.0672573
0.0477976
0.0449306
0.0478902
0.0877276
0.0994726
0.0597295
0.045788
0.0455157
0.0478071
0.0845356
0.0906584
0.0493016
0.0437996
0.0476095
0.0653798
0.104231
0.0886648
0.0468421
0.0444334
0.0454271
0.0597512
0.098881
0.0842534
0.0472732
0.0448535
0.0430589
0.0482446
0.0903323
0.100543
0.0675191
0.0469442
0.0439686
0.0466525
0.0882034
0.100051
0.0617302
0.0460333
0.043352
0.0446199
0.0851656
0.0955399
0.0582421
0.044605
0.0443125
0.0465324
0.082191
0.0876249
0.0479108
0.0426231
0.0463271
0.0645479
0.0994628
0.0853745
0.0458057
0.0430325
0.0443019
0.0587794
0.096687
0.0826376
0.04602
0.0436002
0.0420366
0.0475367
0.0889704
0.0989677
0.0667121
0.0461299
0.0429699
0.0459013
0.0875381
0.0993565
0.0610187
0.0453058
0.042345
0.0438317
0.0851835
0.0945159
0.0572603
0.0435107
0.0427991
0.0451225
0.0804631
0.0861633
0.0464476
0.0412035
0.0454078
0.0632061
0.0992931
0.0851322
0.0442992
0.0418605
0.0443379
0.0592331
0.0965641
0.0828187
0.0427502
0.0416069
0.0431293
0.0571617
0.0925035
0.0799985
0.0447973
0.0424683
0.0411985
0.0467333
0.0862069
0.0965859
0.0647082
0.0452836
0.0418727
0.0448302
0.0840256
0.0958078
0.0593433
0.0442312
0.0411889
0.0424252
0.0819509
0.0913984
0.0563718
0.0426448
0.0418114
0.0441011
0.078442
0.0840543
0.0458011
0.0404339
0.0447276
0.0626831
0.096443
0.0832633
0.0438642
0.0412181
0.0438503
0.0586623
0.0945518
0.0818558
0.0424399
0.0409832
0.0426264
0.0567156
0.0910556
0.0782219
0.0439516
0.0415264
0.0401387
0.0457458
0.083959
0.0977426
0.0618055
0.0446501
0.0407229
0.0431816
0.0840588
0.0952082
0.058165
0.0434965
0.0403854
0.04142
0.0815846
0.0911587
0.0565355
0.0422762
0.0408967
0.0434354
0.078112
0.0838031
0.0452266
0.0395713
0.0443116
0.0618055
0.0975265
0.0835287
0.0431382
0.040394
0.0432112
0.0582874
0.0941975
0.0801882
0.0411107
0.0399123
0.0424469
0.0563196
0.0901721
0.0780871
0.0409294
0.0394843
0.0414907
0.0553032
0.0873867
0.0754294
0.0424596
0.0401039
0.0390622
0.0445254
0.0812645
0.0911398
0.0628504
0.0435243
0.0402883
0.0434182
0.0814207
0.0932327
0.0581099
0.043096
0.0395837
0.0412983
0.0806435
0.0902555
0.0559786
0.0420858
0.0391097
0.0403879
0.077445
0.0865028
0.0550115
0.0411648
0.0396105
0.0421902
0.0746972
0.080212
0.0438961
0.0384009
0.0431836
0.0603025
0.0932328
0.0803838
0.041886
0.0392894
0.0421708
0.0565942
0.0914127
0.07857
0.0400814
0.0389491
0.0416126
0.055128
0.0881812
0.0763624
0.0401162
0.0386115
0.0408091
0.0547221
0.0852959
0.0741352
0.0418645
0.0391665
0.0381293
0.0437349
0.0794323
0.0922612
0.0599476
0.0430935
0.0389191
0.0417971
0.0796599
0.0906342
0.0561668
0.04193
0.0385344
0.0395885
0.0779911
0.0878854
0.0550136
0.041341
0.0382201
0.0398924
0.076125
0.0851239
0.0543482
0.0404532
0.0385277
0.0412423
0.0734001
0.0790617
0.0432089
0.0376059
0.0425511
0.0611594
0.0882618
0.0789281
0.0419718
0.0388218
0.0420076
0.0565076
0.0901853
0.0773651
0.0396772
0.0381976
0.040942
0.054444
0.0866541
0.0751555
0.0390188
0.0376736
0.0403939
0.0533959
0.0847116
0.073788
0.0391254
0.0374686
0.0398227
0.0531853
0.0824613
0.0719307
0.0409076
0.0378848
0.0370337
0.0429227
0.077379
0.0909959
0.0586826
0.0424103
0.0377357
0.0408241
0.0780681
0.0889561
0.0551679
0.041254
0.0375345
0.0386987
0.0765624
0.0860835
0.0540871
0.0406427
0.0372337
0.0389232
0.0744962
0.0835744
0.0531425
0.0399651
0.0369362
0.0387228
0.0728967
0.0813497
0.0525075
0.0391842
0.0372641
0.0401281
0.0705067
0.0757148
0.0418863
0.0363983
0.0417003
0.0579672
0.0875684
0.0754941
0.0401683
0.0373638
0.0408014
0.0544641
0.0859608
0.0740378
0.0384017
0.0370922
0.0401026
0.0528961
0.0835377
0.0726928
0.0383541
0.0368162
0.0396798
0.0524894
0.0816685
0.0713464
0.038559
0.036685
0.0389606
0.0517168
0.0795918
0.0695148
0.0398024
0.0369327
0.0361775
0.0418251
0.0746414
0.0872625
0.0571483
0.0415407
0.0367537
0.0398244
0.0755401
0.0857359
0.0536461
0.0402878
0.0364842
0.0377272
0.0742096
0.0835719
0.0523912
0.0398115
0.0362344
0.0377552
0.0725786
0.0813288
0.0518358
0.039211
0.0360019
0.0377562
0.0708564
0.0787738
0.0513364
0.0384808
0.0363122
0.0391974
0.0683471
0.0735415
0.041163
0.035591
0.040969
0.0566962
0.0852578
0.0739218
0.0393366
0.0363132
0.0398926
0.0530197
0.0839454
0.0724107
0.0372373
0.035973
0.0391941
0.051385
0.0814395
0.0708678
0.0371972
0.0357157
0.0387802
0.0509434
0.0794292
0.0695074
0.0373617
0.0355261
0.0380916
0.0505926
0.0774672
0.0675489
0.0387574
0.0357567
0.0351463
0.0409448
0.0729157
0.0858263
0.0559519
0.0408064
0.0355987
0.0387997
0.0736312
0.0835665
0.0526255
0.039512
0.0352931
0.0366916
0.0719268
0.0808847
0.0510579
0.0388693
0.0350289
0.0367561
0.070521
0.0791221
0.0505626
0.0383361
0.0348845
0.0366387
0.069096
0.0773255
0.0499767
0.0380085
0.0347694
0.036724
0.0675785
0.0753211
0.049541
0.0372721
0.0350093
0.0379043
0.0654031
0.0707093
0.0397757
0.0343922
0.0396528
0.0555327
0.0802939
0.0704525
0.038496
0.0352901
0.0389219
0.0515771
0.0801184
0.0693107
0.0363895
0.0347816
0.0380608
0.049874
0.0775756
0.0675241
0.0361159
0.0345436
0.0376573
0.0492515
0.0754918
0.0661572
0.0364313
0.034474
0.0370973
0.0487041
0.0736868
0.0644221
0.0374782
0.0345945
0.0340567
0.0394984
0.0697533
0.0804046
0.0544406
0.0395891
0.0348205
0.0380158
0.0698724
0.0793057
0.0510106
0.0386297
0.0343003
0.0360001
0.0688657
0.0771589
0.0493444
0.0377848
0.0339553
0.0356428
0.0673024
0.0751177
0.0487928
0.0372915
0.0337172
0.0357342
0.0656874
0.073243
0.0482026
0.0365177
0.0337881
0.0367694
0.0636111
0.0690566
0.0386815
0.033249
0.0387955
0.0544699
0.078101
0.0684579
0.0377165
0.0342057
0.0380579
0.0504388
0.0777684
0.0673913
0.0355897
0.0336658
0.0371569
0.0487298
0.0752233
0.0655226
0.0351345
0.0332959
0.0365667
0.0477815
0.0732832
0.0641432
0.0351093
0.0331458
0.0359818
0.0474119
0.0717621
0.0625387
0.0362412
0.0332245
0.0327233
0.0383097
0.0678013
0.0776569
0.0532483
0.0384171
0.0336073
0.0370367
0.0675797
0.0766584
0.0496658
0.0375743
0.033106
0.0350465
0.0664188
0.074505
0.0482035
0.0367885
0.0328287
0.0348257
0.0649232
0.0728518
0.0476126
0.0363604
0.032619
0.0348053
0.0635811
0.0712973
0.0470973
0.0356183
0.0326692
0.0357408
0.0620938
0.0672799
0.0376656
0.0321507
0.0378464
0.0526306
0.0764177
0.066666
0.0366211
0.0331223
0.0370206
0.0489732
0.0751309
0.064882
0.0345909
0.0326205
0.0361595
0.0472068
0.0727371
0.0630076
0.0341849
0.0322617
0.0354847
0.0467447
0.0708892
0.0621698
0.0355787
0.0322451
0.0318691
0.0377642
0.0676768
0.0780325
0.0525821
0.038223
0.0328493
0.0364405
0.0673585
0.0757752
0.0489265
0.0369689
0.0322341
0.0342512
0.065379
0.073386
0.0472656
0.0360798
0.031861
0.0339659
0.0633778
0.0712664
0.046889
0.0353237
0.031734
0.0352275
0.0618305
0.0671921
0.037078
0.0312474
0.0373222
0.0529258
0.07493
0.065728
0.0361488
0.0323066
0.0364026
0.048328
0.0744867
0.0638346
0.0336222
0.0316631
0.0355695
0.046839
0.0720909
0.0628518
0.033721
0.0313868
0.0349913
0.0464507
0.0706702
0.0614855
0.0348431
0.0312882
0.0309883
0.0372135
0.067028
0.0773195
0.0518905
0.0377325
0.0319449
0.0357478
0.0661371
0.0747168
0.0482645
0.0362914
0.0313415
0.0334736
0.064091
0.0719695
0.046412
0.0353029
0.0309224
0.033167
0.0622128
0.0702576
0.0460561
0.03453
0.0307576
0.0343971
0.0610605
0.0662962
0.0362349
0.030303
0.0367354
0.0509812
0.0750875
0.0645696
0.0349514
0.0313458
0.0357707
0.047704
0.0734532
0.0632789
0.0333173
0.031002
0.0349979
0.0460412
0.071253
0.0618538
0.0329684
0.0307777
0.0345247
0.0458847
0.069868
0.060939
0.0344683
0.0306937
0.0303995
0.0366289
0.0663671
0.0752154
0.0516662
0.0371665
0.0315031
0.0355353
0.0646984
0.0731188
0.047685
0.0358862
0.030803
0.0333141
0.0626745
0.070552
0.0459272
0.0345655
0.0303098
0.0339121
0.060961
0.0658662
0.0355206
0.0298762
0.0368164
0.0512517
0.0753801
0.0645099
0.0350319
0.0311235
0.0356977
0.047628
0.0731222
0.0629965
0.0331391
0.0306263
0.0347357
0.0458997
0.0709226
0.0613605
0.0326208
0.0303424
0.0341534
0.0455267
0.0692722
0.0602065
0.0339792
0.0301578
0.029921
0.0360952
0.0654941
0.0736247
0.0515912
0.0367411
0.0311123
0.0353759
0.0636675
0.0720267
0.0474108
0.0356291
0.0305148
0.0330909
0.0619954
0.0697504
0.0457324
0.0343269
0.0299573
0.0335919
0.0597144
0.0648615
0.0354808
0.0296283
0.0365784
0.0512203
0.0738284
0.0641382
0.035109
0.0309404
0.0356469
0.0475951
0.0726341
0.0625494
0.0332829
0.0304896
0.034489
0.0460466
0.0703607
0.0608963
0.033887
0.0300661
0.029856
0.0360122
0.0660849
0.0742526
0.0518102
0.0368678
0.030965
0.035507
0.0637661
0.0720636
0.0477781
0.0354944
0.0302154
0.0341137
0.0617459
0.066825
0.0358296
0.0298106
0.0367707
0.0514933
0.0748935
0.063545
0.0346868
0.0307048
0.0357081
0.04769
0.0724015
0.062632
0.0332907
0.0302066
0.034591
0.0463497
0.0707636
0.0613339
0.0339117
0.0297907
0.0296286
0.0361947
0.0666373
0.0751638
0.0518262
0.0369977
0.0307387
0.0353262
0.0644909
0.0727874
0.0477112
0.0354034
0.0297607
0.0337799
0.0622196
0.0672961
0.035466
0.0294251
0.0367419
0.0517342
0.0755458
0.0643597
0.0348302
0.0303961
0.0351104
0.0473727
0.0724692
0.0613598
0.0335586
0.0293657
0.02916
0.0356627
0.0669279
0.0760848
0.0524754
0.0370423
0.0305117
0.0351314
0.0651617
0.0736092
0.0482614
0.0355838
0.0294991
0.0338131
0.062733
0.0679084
0.0357139
0.0292397
0.0370065
0.0521061
0.0766288
0.0650636
0.0349003
0.0302966
0.0353121
0.0477831
0.0733686
0.0624096
0.0335774
0.0292303
0.0289027
0.0353098
0.0675237
0.0757745
0.0517862
0.0365233
0.0297515
0.0338444
0.0627807
0.0717146
0.0472036
0.0349052
0.0287769
0.03329
0.0617103
0.0673262
0.0351223
0.0286716
0.0365124
0.0521945
0.0756197
0.0647901
0.0346559
0.0298557
0.0349891
0.0476333
0.0729812
0.0622791
0.0332893
0.0289271
0.0286861
0.0352187
0.0672712
0.0757158
0.051794
0.0365187
0.0297087
0.0344975
0.0640806
0.0720504
0.047064
0.0345879
0.0283814
0.0326781
0.0603724
0.0643427
0.033392
0.0278712
0.0352075
0.0504911
0.0730071
0.0629071
0.034263
0.0287846
0.0286504
0.0357044
0.0684285
0.0767234
0.0528591
0.0368744
0.029834
0.0347022
0.065365
0.0732548
0.0477133
0.0350331
0.028545
0.0329058
0.0621341
0.0667294
0.0346725
0.0282748
0.0357581
0.0513172
0.0745901
0.063169
0.0346604
0.0288714
0.0282575
0.0346064
0.0673461
0.0750684
0.0515929
0.0357705
0.0285559
0.0344141
0.0637038
0.0693249
0.0354014
0.0283224
0.0369074
0.0531403
0.0780008
0.065856
0.0345322
0.0295344
0.0349711
0.0478663
0.0737244
0.0620652
0.0327325
0.0282093
0.027939
0.0343279
0.0664413
0.0739017
0.0509263
0.035347
0.0283529
0.0341352
0.0621127
0.0658541
0.0337882
0.0277054
0.0350057
0.0503179
0.073423
0.0622686
0.0335793
0.027935
0.0277636
0.0347392
0.0676316
0.0763596
0.0519104
0.0358192
0.0284695
0.0344839
0.0641946
0.0687034
0.0351334
0.0281404
0.0359355
0.0518589
0.0763846
0.0637657
0.0341653
0.028319
0.0277809
0.0345726
0.0677342
0.0747705
0.0505094
0.0351769
0.0275349
0.0330097
0.0617741
0.0661062
0.0359598
0.0276643
0.0278502
0.0378839
0.072364
0.0816754
0.0544139
0.0372952
0.028518
0.0351625
0.0674293
0.0717909
0.0352325
0.0280229
0.0358953
0.0526909
0.078766
0.0643368
0.0334734
0.0275036
0.026873
0.0343827
0.0663583
0.0707399
0.03593
0.0266655
0.0361465
0.0537722
0.0802476
0.0668573
0.0340952
0.0274165
0.0276075
0.0366369
0.0711138
0.076184
0.0383585
0.0276635
0.0372058
0.0542196
0.0845785
0.0660413
0.0338503
0.0273941
0.0267148
0.034774
0.0686319
0.0734146
0.0363105
0.0264409
0.0359534
0.053715
0.0835803
0.0682949
0.0338426
0.0267612
0.0262347
0.0332771
0.0719332
0.075791
0.0395363
0.0268812
0.0260463
0.0345827
0.0783043
0.0832221
0.0574934
0.036228
0.0264714
0.0341473
0.0691969
0.0749246
0.0350088
0.0262591
0.0263735
0.0384805
0.0788818
0.0812514
0.0360981
0.0254729
0.0259952
0.0405864
0.0847087
0.089141
0.0399342
0.0252983
0.0364445
0.0604603
0.0963102
0.072283
0.0342076
0.0257775
0.0253135
0.0340008
0.0749633
0.0797422
0.0378311
0.0253379
0.0252732
0.0383075
0.0854972
0.0912209
0.0397346
0.0255252
0.0260354
0.0424535
0.0960728
0.101043
0.0447875
0.0266044
0.0271851
0.0470413
0.104959
0.106906
0.0494065
0.027759
0.0282775
0.0514168
0.108025
0.108694
0.0536525
0.0288858
0.0294721
0.0558655
0.109071
0.109225
0.058404
0.0302696
0.0309675
0.0608885
0.109286
0.109297
0.0633409
0.0319696
0.0328255
0.0657489
0.109282
0.109266
0.0681135
0.0339983
0.0349967
0.0704196
0.109238
0.109217
0.0726625
0.0362965
0.0375339
0.074712
0.109198
0.109202
0.0766879
0.0390478
0.0404417
0.0784922
0.109222
0.109264
0.0802558
0.0420573
0.0434458
0.0819381
0.109317
0.109388
0.0835741
0.0450524
0.0464369
0.0851233
0.109469
0.109569
0.0866199
0.0480405
0.0494316
0.0880215
0.109676
0.109799
0.089367
0.051036
0.0524283
0.0906169
0.109924
0.11006
0.0918132
0.0540229
0.0554133
0.0929094
0.110192
0.110328
0.0939492
0.0570069
0.0583945
0.0948863
0.110456
0.110585
0.0957663
0.0599797
0.0613185
0.096559
0.1107
0.110815
0.0973033
0.0628207
0.0640751
0.0979654
0.110915
0.111011
0.0985845
0.06548
0.0666432
0.0991263
0.11109
0.111165
0.0996319
0.0679503
0.0690174
0.100067
0.111224
0.111277
0.100463
0.0702188
0.0711798
0.100816
0.111316
0.111354
0.101139
0.0722701
0.073121
0.101396
0.111374
0.111392
0.101656
0.074096
0.0748407
0.10184
0.111398
0.111398
0.102037
0.0757059
0.0763508
0.102163
0.111392
0.111378
0.102301
0.0771112
0.0776612
0.102377
0.11136
0.111335
0.102465
0.0783212
0.0787844
0.102501
0.111308
0.111272
0.102546
0.0793497
0.079734
0.102548
0.111238
0.111195
0.102559
0.0802151
0.0805327
0.102537
0.111156
0.111105
0.102519
0.0809345
0.0811948
0.102477
0.111063
0.111008
0.102435
0.0815252
0.0817386
0.102378
0.110963
0.110904
0.102316
0.0820019
0.0821762
0.102246
0.110856
0.110796
0.10217
0.0823826
0.0825247
0.102093
0.110748
0.110689
0.102008
0.0826769
0.0827939
0.101923
0.11064
0.110582
0.101835
0.0829125
0.0830005
0.101745
0.110535
0.110478
0.101655
0.0830975
0.0831586
0.101562
0.11043
0.110376
0.101474
0.0832339
0.0832641
0.10138
0.11033
0.110276
0.101293
0.0833217
0.0833289
0.101199
0.110232
0.110181
0.101111
0.083374
0.0833657
0.101019
0.110139
0.110089
0.100931
0.0834004
0.0833811
0.100842
0.110048
0.11
0.100754
0.0834088
0.0833841
0.100669
0.109963
0.109916
0.100582
0.0834037
0.0833766
0.100501
0.10988
0.109836
0.100415
0.083391
0.0833673
0.100341
0.109804
0.109761
0.100258
0.0833763
0.083354
0.100189
0.10973
0.10969
0.100109
0.0833627
0.0833431
0.100046
0.109662
0.109624
0.0999712
0.0833511
0.0833338
0.0999138
0.109598
0.109562
0.0998435
0.0833426
0.0833302
0.0997922
0.109538
0.109506
0.0997283
0.0833411
0.0833327
0.099683
0.109485
0.109453
0.0996244
0.0833455
0.0833423
0.0995848
0.109435
0.109406
0.0995319
0.0833578
0.0833591
0.0994978
0.10939
0.109363
0.0994502
0.083377
0.0833836
0.0994214
0.109349
0.109324
0.0993789
0.083404
0.0834149
0.0993549
0.109312
0.109289
0.0993169
0.0834376
0.0834529
0.0992972
0.109278
0.109258
0.0992636
0.0834784
0.0834964
0.0992472
0.109247
0.109229
0.099217
0.083523
0.0835454
0.0992035
0.109218
0.109204
0.0991771
0.0835729
0.0835982
0.0991654
0.109192
0.10918
0.0991428
0.0836262
0.0836545
0.0991323
0.109169
0.109158
0.0991137
0.083683
0.0837133
0.0991041
0.109147
0.109136
0.0990888
0.0837421
0.0837745
0.09908
0.109128
0.109117
0.0990678
0.0838035
0.083837
0.0990595
0.10911
0.109099
0.0990504
0.0838656
0.0839004
0.099043
0.109093
0.109083
0.0990356
0.0839286
0.0839638
0.0990287
0.109078
0.109068
0.0990214
0.0839912
0.0840269
0.0990166
0.109064
0.109054
0.0990096
0.0840537
0.0840891
0.0990063
0.109051
0.109041
0.0989992
0.084115
0.0841505
0.0989976
0.109039
0.109029
0.0989907
0.0841757
0.0842107
0.0989901
0.109027
0.109018
0.0989831
0.0842348
0.0842695
0.0989838
0.109016
0.109008
0.0989768
0.0842928
0.0843266
0.0989782
0.109006
0.108998
0.098971
0.0843488
0.0843816
0.0989732
0.108996
0.108988
0.0989658
0.0844027
0.0844342
0.0989682
0.108987
0.108978
0.0989603
0.084454
0.0844841
0.098963