/*--------------------------------*- C++ -*----------------------------------*\
| =========                 |                                                 |
| \\      /  F ield         | OpenFOAM: The Open Source CFD Toolbox           |
|  \\    /   O peration     | Version:  v2006                                 |
|   \\  /    A nd           | Website:  www.openfoam.com                      |
|    \\/     M anipulation  |                                                 |
\*---------------------------------------------------------------------------*/
FoamFile
{
    version     2.0;
    format      ascii;
    class       volVectorField;
    location    "0.135";
    object      U;
}
// * * * * * * * * * * * * * * * * * * * * * * * * * * * * * * * * * * * * * //

dimensions      [0 1 -1 0 0 0 0];


internalField   nonuniform List<vector> 
16277
(
(48.3133 0.00149831 -3.22154e-19)
(48.3136 -0.00407145 0)
(48.3132 0.00441525 0)
(48.3129 -0.00384594 0)
(48.3127 0.000444585 -5.14749e-21)
(48.311 -0.00145699 -7.80967e-19)
(48.3061 -0.00142786 9.10237e-19)
(48.2905 -0.00372993 0)
(48.2552 -0.00807538 0)
(48.1992 -0.0140856 0)
(48.1283 -0.020792 -3.42937e-21)
(48.0501 -0.0271741 -6.98983e-21)
(47.9697 -0.0328946 1.76986e-21)
(47.8887 -0.0379479 0)
(47.8072 -0.0425099 0)
(47.7241 -0.0467409 0)
(47.6385 -0.0507518 0)
(47.5495 -0.0546023 0)
(47.4569 -0.0583104 0)
(47.3603 -0.0618789 0)
(47.2597 -0.0653066 0)
(47.1553 -0.0685977 0)
(47.0471 -0.0717618 0)
(46.9352 -0.0748125 0)
(46.8195 -0.0777635 0)
(46.7002 -0.0806263 0)
(46.5773 -0.0834095 0)
(46.4508 -0.086118 0)
(46.3209 -0.0887544 0)
(46.1875 -0.0913185 0)
(46.0508 -0.0938087 0)
(45.9108 -0.0962223 0)
(45.7678 -0.0985557 0)
(45.6217 -0.100805 0)
(45.4728 -0.102966 0)
(45.3211 -0.105033 0)
(45.1667 -0.107003 0)
(45.0099 -0.108869 0)
(44.8507 -0.110628 0)
(44.6894 -0.112274 0)
(44.526 -0.113805 0)
(44.3607 -0.115214 0)
(44.1937 -0.116498 0)
(44.0252 -0.117654 0)
(43.8553 -0.118677 0)
(43.6843 -0.119563 0)
(43.5122 -0.120311 0)
(43.3393 -0.120915 0)
(43.1658 -0.121374 0)
(42.9918 -0.121685 0)
(42.8176 -0.121844 0)
(42.6434 -0.121849 0)
(42.4693 -0.1217 0)
(42.2956 -0.121396 0)
(42.1225 -0.120936 0)
(41.9501 -0.120287 0)
(41.7787 -0.119465 0)
(41.6085 -0.118506 0)
(41.4397 -0.117389 0)
(41.2726 -0.116106 0)
(41.1073 -0.114656 0)
(40.944 -0.113042 0)
(40.783 -0.111263 0)
(40.6244 -0.109321 0)
(40.4685 -0.107216 0)
(40.3155 -0.10495 0)
(40.1656 -0.102523 0)
(40.0189 -0.0999335 0)
(39.8757 -0.0971791 0)
(39.7361 -0.094254 0)
(39.6003 -0.0911492 0)
(39.4685 -0.087853 0)
(39.3409 -0.084353 0)
(39.2177 -0.0806395 0)
(39.0992 -0.0767085 0)
(38.9853 -0.0725578 0)
(38.876 -0.0681704 0)
(38.7707 -0.0634753 0)
(38.6684 -0.0582805 -3.00493e-20)
(38.5678 -0.0522699 2.99843e-20)
(38.4686 -0.0449834 0)
(38.373 -0.0362083 8.95504e-20)
(38.289 -0.0265775 -5.9164e-20)
(38.23 -0.0181975 0)
(38.2039 -0.0128874 -1.7185e-18)
(38.2033 -0.0105386 1.11679e-18)
(38.2136 -0.00964086 0)
(38.2257 -0.00943544 0)
(38.2355 -0.00935623 0)
(38.2345 -0.00738496 1.73918e-17)
(38.2271 -0.00459585 -1.02947e-17)
(38.2027 -0.0102845 -1.2606e-17)
(38.141 -0.0202381 -3.78895e-18)
(38.0379 -0.0398375 2.12393e-18)
(37.8701 -0.0576754 0)
(37.6771 -0.0669737 0)
(36.9672 -0.102505 -2.76458e-19)
(36.5114 -0.0930309 2.32493e-18)
(37.6856 -0.113577 1.73391e-18)
(37.9172 -0.0967236 -5.8253e-18)
(37.9413 -0.11928 0)
(37.6342 -0.133697 1.7967e-18)
(35.9972 -0.0920251 1.93168e-18)
(35.4885 -0.0845117 7.19731e-19)
(37.5734 -0.133342 4.01149e-19)
(37.9635 -0.124079 1.3377e-18)
(37.9611 -0.12124 1.33866e-18)
(37.48 -0.122897 0)
(35.0208 -0.073964 -1.25574e-18)
(34.5896 -0.0643156 1.16907e-19)
(37.3809 -0.112506 0)
(37.9471 -0.118002 0)
(37.9079 -0.113522 1.65971e-19)
(37.2529 -0.10354 0)
(34.1869 -0.0571958 2.47908e-24)
(33.8231 -0.0518367 1.35716e-19)
(37.1364 -0.0967132 0)
(37.867 -0.111141 -1.66816e-19)
(37.8075 -0.10765 1.05544e-20)
(37.004 -0.0912535 3.94178e-19)
(33.4789 -0.0475943 -5.0698e-19)
(33.1772 -0.0430711 4.92627e-19)
(36.8892 -0.0858026 3.96111e-19)
(37.7547 -0.107178 -6.88747e-19)
(37.6832 -0.103006 -6.8159e-19)
(36.7504 -0.0811011 -7.95272e-19)
(32.885 -0.0400383 0)
(32.6241 -0.0364101 4.95049e-19)
(36.6334 -0.0770798 -4.10789e-19)
(37.6187 -0.102231 -1.06781e-20)
(37.5367 -0.0979733 6.94597e-19)
(36.4914 -0.0731216 -4.11028e-19)
(32.3667 -0.0343515 -4.95331e-19)
(32.1341 -0.0316033 0)
(36.3736 -0.0702991 0)
(37.4651 -0.0973832 0)
(37.3768 -0.0938549 6.84286e-19)
(36.2315 -0.0671183 0)
(31.9033 -0.0301977 0)
(31.6946 -0.0279264 0)
(36.1168 -0.0651648 0)
(37.3022 -0.0939978 0)
(37.2071 -0.0907335 0)
(35.9733 -0.0625665 0)
(31.4817 -0.0270658 0)
(31.2879 -0.0251978 0)
(35.8584 -0.0610059 0)
(37.1275 -0.0907332 0)
(37.0263 -0.0878899 0)
(35.7132 -0.0589333 0)
(31.0877 -0.0247447 0)
(30.9064 -0.0229775 0)
(35.5992 -0.0577701 0)
(36.9436 -0.0884074 0)
(36.8401 -0.0857675 0)
(35.4556 -0.0562188 0)
(30.7193 -0.0230544 0)
(30.5484 -0.0211453 0)
(35.3434 -0.0551494 0)
(36.7555 -0.0866285 0)
(36.6488 -0.0843061 0)
(35.1999 -0.0540734 0)
(30.37 -0.021646 0)
(30.2067 -0.0197301 0)
(35.0884 -0.0532109 0)
(36.562 -0.085352 0)
(36.4523 -0.0833475 0)
(34.9445 -0.0524834 0)
(30.0351 -0.0205123 0)
(29.8777 -0.0186426 0)
(34.8334 -0.0516977 0)
(36.3632 -0.0844372 0)
(36.2506 -0.082726 0)
(34.689 -0.0512535 0)
(29.7112 -0.0196272 0)
(29.5584 -0.0177688 0)
(34.5778 -0.0505477 0)
(36.1594 -0.0839339 0)
(36.0438 -0.0824972 0)
(34.4325 -0.0503638 0)
(29.3959 -0.0189302 0)
(29.2464 -0.0170647 0)
(34.3208 -0.0497115 0)
(35.9503 -0.0838074 0)
(35.8316 -0.0826178 0)
(34.1743 -0.0497622 0)
(29.087 -0.0183844 0)
(28.9398 -0.0164958 0)
(34.0616 -0.0491394 0)
(35.7355 -0.0840126 0)
(35.6137 -0.0830455 0)
(33.9135 -0.0494026 0)
(28.7824 -0.0179613 0)
(28.637 -0.016119 0)
(33.7995 -0.0487869 0)
(35.5149 -0.0844548 0)
(35.3897 -0.0837127 0)
(33.6496 -0.0492316 0)
(28.481 -0.0176811 0)
(28.3366 -0.0158146 0)
(33.534 -0.0485887 0)
(35.288 -0.0851527 0)
(35.1594 -0.0846176 0)
(33.3821 -0.0492178 0)
(28.1814 -0.0174752 0)
(28.0374 -0.0156407 0)
(33.2644 -0.0485547 0)
(35.0547 -0.0860873 0)
(34.9224 -0.0857497 6.86104e-19)
(33.1103 -0.0493485 0)
(27.8826 -0.0173685 0)
(27.7387 -0.0155639 0)
(32.9903 -0.048656 0)
(34.8144 -0.0872673 0)
(34.6784 -0.0871142 0)
(32.8336 -0.0496134 0)
(27.5837 -0.0173454 0)
(27.4394 -0.0155483 0)
(32.7109 -0.0488329 0)
(34.5669 -0.0886754 0)
(34.4269 -0.0886249 0)
(32.5515 -0.0499586 0)
(27.2839 -0.0173835 0)
(27.1387 -0.0156016 0)
(32.4261 -0.0492164 0)
(34.3116 -0.0901198 0)
(34.1675 -0.0902414 0)
(32.2636 -0.0504471 0)
(26.9823 -0.0174592 0)
(26.8359 -0.0156822 0)
(32.1351 -0.0497392 0)
(34.0483 -0.0917547 0)
(33.8997 -0.0920605 6.86539e-19)
(31.9692 -0.0510692 0)
(26.6781 -0.0175704 0)
(26.5301 -0.0158033 0)
(31.8373 -0.0503788 0)
(33.7764 -0.0936068 0)
(33.6232 -0.0940861 0)
(31.6678 -0.0518099 0)
(26.3707 -0.0177262 0)
(26.2207 -0.015968 0)
(31.5322 -0.0511366 0)
(33.4955 -0.0956693 0)
(33.3375 -0.0963103 0)
(31.3588 -0.0526658 0)
(26.0591 -0.0179263 0)
(25.9068 -0.0161742 0)
(31.2192 -0.0520103 0)
(33.2051 -0.097935 0)
(33.042 -0.0987253 0)
(31.0416 -0.053632 0)
(25.7428 -0.0181674 0)
(25.5878 -0.0164179 0)
(30.8977 -0.0529951 0)
(32.9047 -0.100394 0)
(32.7362 -0.10132 6.86966e-19)
(30.7156 -0.0547018 0)
(25.4211 -0.0184454 0)
(25.2631 -0.0166937 0)
(30.5672 -0.0540846 0)
(32.5938 -0.103035 0)
(32.4199 -0.104078 0)
(30.3805 -0.0558665 0)
(25.0932 -0.0187549 0)
(24.932 -0.0169968 0)
(30.2272 -0.0552689 0)
(32.272 -0.10584 0)
(32.0924 -0.106982 0)
(30.0355 -0.0571152 0)
(24.7588 -0.0190914 0)
(24.594 -0.0173288 0)
(29.8772 -0.056527 0)
(31.939 -0.108777 0)
(31.7535 -0.110001 0)
(29.6805 -0.0584257 0)
(24.4172 -0.0194518 0)
(24.2487 -0.0176826 0)
(29.517 -0.0578357 0)
(31.5944 -0.111818 0)
(31.403 -0.1131 6.87408e-19)
(29.315 -0.0597765 0)
(24.0682 -0.0198293 0)
(23.8959 -0.0180487 0)
(29.1461 -0.0591693 0)
(31.238 -0.114913 0)
(31.0405 -0.116218 0)
(28.9389 -0.061133 0)
(23.7116 -0.0202094 0)
(23.5355 -0.0184093 0)
(28.7647 -0.0604858 0)
(30.8698 -0.117993 0)
(30.6663 -0.119274 0)
(28.5524 -0.0624476 0)
(23.3475 -0.0205711 0)
(23.1678 -0.0187412 0)
(28.373 -0.0617305 0)
(30.4899 -0.120961 0)
(30.2807 -0.122173 0)
(28.1557 -0.0636662 0)
(22.9763 -0.0209001 0)
(22.7933 -0.0190351 0)
(27.9714 -0.0628517 0)
(30.0987 -0.123717 0)
(29.8842 -0.124806 0)
(27.7496 -0.0647346 0)
(22.5988 -0.0211791 0)
(22.413 -0.0192659 0)
(27.561 -0.0637859 0)
(29.6972 -0.126142 0)
(29.4779 -0.127043 0)
(27.3353 -0.0655813 0)
(22.216 -0.0213807 0)
(22.0282 -0.0194042 0)
(27.1429 -0.0644516 0)
(29.2866 -0.128086 0)
(29.0632 -0.128716 0)
(26.9143 -0.0661154 0)
(21.8296 -0.0214726 0)
(21.6407 -0.019415 0)
(26.7192 -0.0647465 0)
(28.8685 -0.129359 0)
(28.6422 -0.129616 0)
(26.4887 -0.0662248 0)
(21.4417 -0.0214159 0)
(21.2532 -0.0192552 0)
(26.2922 -0.0645444 0)
(28.4452 -0.129726 0)
(28.2174 -0.129491 0)
(26.0614 -0.0657717 0)
(21.0554 -0.0211644 0)
(20.8691 -0.0188754 0)
(25.8655 -0.0636945 0)
(28.0198 -0.128907 0)
(27.7924 -0.128044 0)
(25.6364 -0.0645981 0)
(20.6744 -0.0206624 0)
(20.4925 -0.0182156 0)
(25.4432 -0.0620268 0)
(27.5964 -0.12658 0)
(27.3718 -0.124935 0)
(25.2185 -0.062528 0)
(20.3036 -0.0198452 0)
(20.1292 -0.0172084 0)
(25.031 -0.0593508 0)
(27.1801 -0.122375 0)
(26.9612 -0.119776 0)
(24.8137 -0.0593515 0)
(19.9491 -0.0186374 0)
(19.7856 -0.0157798 0)
(24.6354 -0.0554343 0)
(26.7771 -0.115867 0)
(26.5677 -0.112121 0)
(24.4296 -0.0548258 0)
(19.6183 -0.0169482 0)
(19.4699 -0.0138436 0)
(24.2647 -0.0500209 0)
(26.3952 -0.106576 0)
(26.1997 -0.10153 0)
(24.0749 -0.0487076 0)
(19.3199 -0.0146728 0)
(19.1914 -0.0113306 0)
(23.9285 -0.0429014 0)
(26.0434 -0.0941033 0)
(25.8666 -0.0876371 0)
(23.76 -0.0407962 0)
(19.0638 -0.0117842 0)
(18.9618 -0.00823363 0)
(23.6369 -0.0336731 0)
(25.7319 -0.0779767 0)
(25.5796 -0.0698476 0)
(23.4957 -0.0305388 0)
(18.8617 -0.0080964 0)
(18.7966 -0.00430274 0)
(23.4018 -0.0225126 0)
(25.4713 -0.0578757 0)
(25.3495 -0.048029 0)
(23.2942 -0.0186866 0)
(18.728 -0.00396135 0)
(18.7044 0.000149237 0)
(23.2369 -0.0102891 0)
(25.2759 -0.0338032 0)
(25.189 -0.0231125 0)
(23.1678 -0.00561989 0)
(18.6709 0.0006254 0)
(18.6928 0.00493516 0)
(23.1519 0.00353445 0)
(25.155 -0.00733893 0)
(25.107 0.00333581 0)
(23.1251 0.00823926 0)
(18.697 0.00516054 0)
(18.7656 0.00978923 0)
(23.153 0.0180001 0)
(25.1154 0.0200173 0)
(25.1088 0.030415 0)
(23.1706 0.0223072 0)
(18.8085 0.00944144 0)
(18.9192 0.0139276 6.2194e-20)
(23.2395 0.0313523 0)
(25.1573 0.0453486 0)
(25.1896 0.0568708 0)
(23.2973 0.0364463 0)
(18.9994 0.0138698 -6.2194e-20)
(19.1565 0.0187173 6.21893e-20)
(23.4129 0.0461358 0)
(25.2843 0.0733683 0)
(25.3607 0.0840221 0)
(23.5166 0.0504794 0)
(19.2818 0.0189954 -6.21892e-20)
(19.4832 0.023689 6.2183e-20)
(23.6801 0.0600955 0)
(25.5034 0.100609 0)
(25.6217 0.104458 0)
(23.8252 0.0597967 0)
(19.6442 0.0216247 -6.21831e-20)
(19.8679 0.0257808 6.21758e-20)
(24.0191 0.0681422 0)
(25.7958 0.118411 0)
(25.9431 0.11845 0)
(24.1912 0.0657605 0)
(20.0476 0.0230172 -6.2176e-20)
(20.2844 0.0264518 6.2168e-20)
(24.4069 0.0724146 0)
(26.1413 0.129455 0)
(26.3093 0.126616 0)
(24.5968 0.0685098 0)
(20.4732 0.0231987 -6.21686e-20)
(20.7146 0.0262727 6.216e-20)
(24.8254 0.0741455 0)
(26.5236 0.135659 0)
(26.7055 0.130508 0)
(25.0257 0.0690876 0)
(20.905 0.02265 -6.21608e-20)
(21.1448 0.0253935 6.21519e-20)
(25.2604 0.0737086 0)
(26.9294 0.137629 0)
(27.1187 0.13042 0)
(25.4642 0.0676304 0)
(21.3309 0.0214838 -6.21531e-20)
(21.5633 0.0238682 6.2144e-20)
(25.6985 0.0712478 0)
(27.3459 0.135626 0)
(27.5364 0.12676 0)
(25.8997 0.0643673 0)
(21.7392 0.0197392 -6.21456e-20)
(21.9591 0.0218308 6.21366e-20)
(26.1277 0.0670771 0)
(27.761 0.130195 0)
(27.9472 0.120101 0)
(26.3208 0.05964 0)
(22.1203 0.0175739 -6.21384e-20)
(22.3238 0.0194256 6.21296e-20)
(26.5377 0.0615741 0)
(28.1641 0.12197 0)
(28.3411 0.111037 0)
(26.718 0.0538008 0)
(22.4666 0.015097 -6.21318e-20)
(22.6508 0.0167549 6.21234e-20)
(26.9201 0.0550884 0)
(28.5462 0.111541 0)
(28.7103 0.100174 0)
(27.0841 0.0471761 0)
(22.7728 0.0124187 -6.21258e-20)
(22.936 0.0140272 6.21179e-20)
(27.2683 0.0480192 0)
(28.9002 0.099531 0)
(29.0484 0.0880889 0)
(27.4128 0.0402072 0)
(23.0367 0.00989251 -6.21205e-20)
(23.1778 0.011469 5.59031e-19)
(27.5773 0.0407987 4.12935e-19)
(29.2207 0.0866368 -1.37618e-18)
(29.3503 0.075422 0)
(27.7001 0.0332992 0)
(23.2587 0.00776888 -6.21156e-20)
(23.3766 0.00897642 6.21093e-20)
(27.8442 0.033495 0)
(29.5037 0.0734786 -6.88032e-19)
(29.6145 0.0627802 0)
(27.9461 0.0266648 0)
(23.4378 0.00553104 -6.21115e-20)
(23.5334 0.0065326 6.21061e-20)
(28.0698 0.0265314 0)
(29.7486 0.0605267 0)
(29.8407 0.0505811 0)
(28.1512 0.0203365 0)
(23.5759 0.00345673 -6.21082e-20)
(23.6509 0.00440681 6.21037e-20)
(28.2554 0.0201363 0)
(29.9557 0.0483277 0)
(30.0298 0.0393265 0)
(28.3174 0.014592 0)
(23.6766 0.0016475 -6.21055e-20)
(23.7333 0.00261465 6.21019e-20)
(28.4034 0.0144533 0)
(30.1268 0.0372373 0)
(30.1842 0.0295152 0)
(28.4479 0.00968116 0)
(23.7446 0.000176847 -6.21035e-20)
(23.786 0.0012199 6.21006e-20)
(28.5179 0.00971079 0)
(30.2651 0.0277203 0)
(30.3079 0.0211569 0)
(28.5474 0.00559856 0)
(23.7856 -0.000956916 -6.2102e-20)
(23.8149 0.000204624 6.20996e-20)
(28.6038 0.00589987 0)
(30.3749 0.0197822 0)
(30.405 0.0143235 0)
(28.6206 0.00239592 0)
(23.8053 -0.00175634 -6.21009e-20)
(23.825 -0.000495721 6.2099e-20)
(28.6656 0.00295711 0)
(30.4602 0.0133713 0)
(30.4795 0.00881781 0)
(28.6717 -7.35452e-05 0)
(23.8083 -0.00230228 -6.21001e-20)
(23.8209 -0.000988665 6.20988e-20)
(28.7075 0.000628536 0)
(30.5248 0.00815077 0)
(30.5353 0.00449125 0)
(28.7051 -0.00190989 0)
(23.799 -0.00264913 -6.20998e-20)
(23.806 -0.00123061 6.20988e-20)
(28.7333 -0.000921701 0)
(30.5725 0.00419649 0)
(30.576 0.00141883 0)
(28.7243 -0.00310561 0)
(23.7805 -0.00280532 -6.20995e-20)
(23.7838 -0.00146157 6.20988e-20)
(28.7466 -0.00229976 0)
(30.6066 0.000752946 0)
(30.6041 -0.00124128 0)
(28.7323 -0.00407356 0)
(23.7555 -0.00287901 -6.20995e-20)
(23.756 -0.00172218 6.2099e-20)
(28.75 -0.00326874 0)
(30.6296 -0.00181367 0)
(30.6229 -0.00277737 0)
(28.732 -0.00475592 0)
(23.7266 -0.00298087 -6.20995e-20)
(23.7271 -0.00153564 6.20989e-20)
(28.7476 -0.00349847 0)
(30.6453 -0.00276675 0)
(30.6352 -0.00318132 0)
(28.7267 -0.00422308 0)
(23.6962 -0.00252955 -6.20998e-20)
(23.6929 -0.00184842 6.20989e-20)
(28.7377 -0.00426023 0)
(30.6531 -0.00419153 0)
(30.6395 -0.00588779 0)
(28.714 -0.00594588 0)
(23.6615 -0.00304394 -6.21004e-20)
(23.6621 -0.00171317 6.21004e-20)
(28.7269 -0.00508912 0)
(30.6582 -0.00603887 0)
(30.6437 -0.00664664 0)
(28.7031 -0.00591622 0)
(23.6313 -0.00290252 -6.2101e-20)
(23.6275 -0.00150578 6.21015e-20)
(28.7108 -0.00403494 0)
(30.6575 -0.00516889 0)
(30.6404 -0.00736037 0)
(28.6848 -0.00636556 0)
(23.5962 -0.00287523 -6.21009e-20)
(23.5977 -0.00139363 6.21002e-20)
(28.6961 -0.0042338 0)
(30.6565 -0.00550307 0)
(30.6391 -0.00678358 0)
(28.67 -0.00552024 0)
(23.5669 -0.00254523 -6.21013e-20)
(23.5639 -0.00159829 6.20998e-20)
(28.6765 -0.00476592 0)
(30.6504 -0.00561059 -6.87974e-19)
(30.6311 -0.00703962 0)
(28.6489 -0.00551854 0)
(23.5323 -0.0025199 -6.21024e-20)
(23.5328 -0.00168599 6.21025e-20)
(28.6583 -0.00555369 0)
(30.6449 -0.00822645 0)
(30.6248 -0.00698864 0)
(28.6306 -0.00522576 0)
(23.5019 -0.00232977 -6.21016e-20)
(23.5008 -0.00124361 6.21022e-20)
(28.6379 -0.00428513 0)
(30.6365 -0.00642531 0)
(30.6162 -0.00680839 0)
(28.6101 -0.00517507 0)
(23.47 -0.00233697 -6.21019e-20)
(23.4705 -0.00144636 6.21019e-20)
(28.6183 -0.00467057 0)
(30.6285 -0.00603348 0)
(30.6094 -0.00627618 0)
(28.5923 -0.00505695 0)
(23.4421 -0.00219734 -6.20728e-20)
(23.4432 -0.00108345 6.20105e-20)
(28.601 -0.00395391 0)
(30.6218 -0.00594696 -6.86674e-19)
(30.6011 -0.00502477 -6.83658e-19)
(28.5733 -0.00415338 3.07365e-19)
(23.4133 -0.00205881 -5.5397e-19)
(23.4171 -0.00126138 0)
(28.5847 -0.00347452 9.09762e-25)
(30.6199 -0.00387649 0)
(30.6074 0.00140243 -6.67754e-19)
(28.5649 0.000711041 9.95111e-20)
(23.3903 0.000237808 0)
(23.4221 0.00154108 -9.67646e-19)
(28.5877 0.00213553 2.28109e-24)
(30.6342 0.00505984 -6.65867e-19)
(30.6268 0.0139679 0)
(28.5878 0.00831298 0)
(23.413 0.00288431 9.04712e-19)
(23.4911 0.0122493 -2.44979e-19)
(28.6618 0.0226932 -4.01875e-18)
(30.6949 0.0315246 1.21381e-23)
(30.7521 0.0649217 5.11445e-18)
(28.7459 0.0498174 0)
(23.6398 0.0271154 -1.55965e-18)
(23.9313 0.0682185 -2.01046e-18)
(28.9446 0.0995562 1.5955e-17)
(30.9373 0.104361 1.2594e-22)
(31.4745 0.0667721 -3.71547e-17)
(29.743 0.132679 1.04352e-18)
(25.0796 0.126074 0)
(24.8328 0.0649259 0)
(28.7943 0.128879 -8.81827e-19)
(30.6019 0.190221 7.3908e-19)
(31.7832 0.283248 -7.49098e-18)
(32.6558 0.135364 -3.44698e-22)
(33.1615 0.0311571 1.31335e-17)
(33.3358 0.00867559 -1.9132e-19)
(33.4415 0.0180333 -2.83204e-18)
(33.6509 0.0238083 2.83628e-18)
(33.7353 0.0190644 0)
(33.8276 0.0211084 0)
(33.8691 0.0197799 6.1051e-19)
(33.9045 0.0216655 7.87724e-19)
(33.9123 0.0203691 -1.75593e-19)
(33.9012 0.0218115 8.90269e-19)
(33.8756 0.0199209 -1.4475e-18)
(33.8081 0.0201202 7.45351e-19)
(33.7381 0.013144 0)
(33.5625 0.0120769 -1.27927e-17)
(33.4627 0.00625403 -1.48595e-17)
(33.3511 0.00703485 0)
(33.2142 0.0198075 -5.28955e-19)
(32.9794 0.0122845 0)
(32.3795 -0.0263919 0)
(31.0797 -0.0669395 2.67796e-18)
(28.3682 -0.0674682 -6.93616e-18)
(24.8955 -0.0703699 0)
(17.7422 -0.0688551 -3.65386e-19)
(17.2061 -0.0567823 3.44928e-19)
(24.5439 -0.110795 -8.53494e-18)
(28.0774 -0.0924224 2.00778e-17)
(27.783 -0.0819357 8.11619e-19)
(24.2094 -0.0489138 2.68909e-18)
(16.7702 -0.0361876 -2.84045e-18)
(16.4821 -0.0326843 0)
(23.9859 -0.0550738 -1.43973e-18)
(27.6016 -0.0671463 -3.70395e-18)
(27.5088 -0.0393686 0)
(23.8993 -0.0290032 9.46226e-19)
(16.2842 -0.0169254 0)
(16.2544 -0.0075813 0)
(23.8571 -0.0107988 2.22516e-19)
(27.473 -0.0169448 -1.205e-18)
(27.4361 -0.0101407 9.87053e-25)
(23.8204 -0.00928529 -2.22579e-19)
(16.1433 -0.00507294 0)
(16.1394 0.000635137 0)
(23.7962 -0.0024598 0)
(27.4393 -0.00288253 -1.68555e-19)
(27.4434 0.00392888 0)
(23.8004 0.00203468 0)
(16.1453 0.000769037 0)
(16.1551 0.00122518 0)
(23.8089 0.00370449 0)
(27.4514 0.00613889 0)
(27.4604 0.00855767 0)
(23.8208 0.00410364 0)
(16.1686 0.00119711 0)
(16.1846 0.00161432 0)
(23.8361 0.00504093 0)
(27.473 0.00820477 0)
(27.4853 0.00980806 0)
(23.8517 0.00540362 0)
(16.202 0.00170753 0)
(16.2201 0.00163485 0)
(23.8686 0.00520187 0)
(27.4992 0.00950165 -1.68211e-19)
(27.5132 0.0110205 1.68541e-19)
(23.8862 0.00614403 0)
(16.2397 0.00202083 0)
(16.2591 0.00190328 0)
(23.9045 0.00585413 0)
(27.5284 0.0102188 0)
(27.5413 0.0109952 0)
(23.9212 0.00566756 0)
(16.2772 0.00182019 0)
(16.2972 0.00203053 0)
(23.94 0.00608351 0)
(27.5568 0.0106412 0)
(27.5724 0.0118677 0)
(23.9596 0.00643909 0)
(16.3182 0.00212259 0)
(16.3391 0.00199087 0)
(23.979 0.00587061 0)
(27.5885 0.0108418 0)
(27.604 0.0114834 0)
(23.9985 0.00620008 0)
(16.3605 0.00211986 0)
(16.3822 0.0020954 0)
(24.0185 0.00612817 0)
(27.6205 0.0109841 0)
(27.6356 0.0121065 0)
(24.0376 0.00638625 0)
(16.4034 0.00217591 0)
(16.4253 0.00213899 0)
(24.0581 0.00620026 0)
(27.6527 0.0110428 0)
(27.6686 0.0117911 0)
(24.0781 0.00611131 0)
(16.4472 0.00203109 0)
(16.4692 0.00205057 0)
(24.0985 0.00620089 0)
(27.6854 0.011473 0)
(27.7028 0.0127132 0)
(24.12 0.00735945 0)
(16.4928 0.00253442 0)
(16.5161 0.00204315 0)
(24.1415 0.0061505 0)
(27.7207 0.0117387 0)
(27.7361 0.0127066 0)
(24.1612 0.0069107 0)
(16.5382 0.00234091 0)
(16.5619 0.00248305 0)
(24.1831 0.00713121 0)
(27.754 0.0123047 0)
(27.7716 0.0135945 0)
(24.205 0.00769954 0)
(16.5863 0.00267208 0)
(16.6099 0.00226941 0)
(24.2267 0.00669042 0)
(27.7896 0.0124054 0)
(27.8068 0.0129912 0)
(24.2484 0.00682023 0)
(16.6339 0.00234902 0)
(16.6581 0.00246791 0)
(24.2708 0.00722316 0)
(27.8254 0.0125944 0)
(27.843 0.0134534 0)
(24.2924 0.0070738 0)
(16.6822 0.00240218 0)
(16.7069 0.00221541 0)
(24.3154 0.00658244 0)
(27.8619 0.012346 0)
(27.8798 0.0132924 0)
(24.3373 0.00771248 0)
(16.7313 0.00263354 -1.44072e-19)
(16.7562 0.00208491 1.43927e-19)
(24.3599 0.00649107 0)
(27.8987 0.0125247 0)
(27.9174 0.0138126 0)
(24.3834 0.00764402 0)
(16.7821 0.00262178 0)
(16.8075 0.00264347 0)
(24.4071 0.00756706 0)
(27.9376 0.0129967 0)
(27.956 0.0134209 0)
(24.4297 0.00699007 0)
(16.8323 0.00234241 0)
(16.8586 0.00246474 0)
(24.454 0.00711072 0)
(27.9764 0.0130519 0)
(27.996 0.0144086 0)
(24.4778 0.00792671 0)
(16.8843 0.00269101 0)
(16.9095 0.00228025 0)
(24.5014 0.00692312 0)
(28.0163 0.0133661 0)
(28.0358 0.0143053 0)
(24.5249 0.00761638 0)
(16.9348 0.00254191 0)
(16.9604 0.00262813 0)
(24.5493 0.00782004 0)
(28.0572 0.0140664 0)
(28.078 0.014902 0)
(24.5741 0.00765481 0)
(16.9866 0.00251521 0)
(17.0131 0.00255029 0)
(24.5997 0.00754558 0)
(28.1004 0.0141227 0)
(28.1211 0.0147523 0)
(24.6239 0.00773027 0)
(17.038 0.00255767 0)
(17.0635 0.00234721 0)
(24.6491 0.00738019 0)
(28.1435 0.0141741 0)
(28.1658 0.0152774 0)
(24.6748 0.0080673 0)
(17.0894 0.00257422 0)
(17.1149 0.00231173 0)
(24.7007 0.00720437 0)
(28.1895 0.0143037 0)
(28.2123 0.0148915 0)
(24.7265 0.00695035 0)
(17.14 0.00207622 0)
(17.1655 0.00238963 0)
(24.7536 0.00790971 0)
(28.2372 0.0148531 0)
(28.2618 0.0157135 0)
(24.7805 0.00804048 0)
(17.1901 0.00235159 0)
(17.2155 0.00188239 0)
(24.8084 0.00686327 0)
(28.2881 0.0147133 0)
(28.3141 0.0158442 0)
(24.8367 0.00772699 0)
(17.2405 0.00217588 0)
(17.2657 0.00208688 0)
(24.8662 0.00769481 0)
(28.3422 0.0157581 0)
(28.3703 0.0169029 0)
(24.8962 0.00821275 0)
(17.2908 0.00221287 0)
(17.3157 0.00194328 0)
(24.927 0.00763927 0)
(28.4004 0.0163791 0)
(28.4299 0.0170662 0)
(24.9579 0.00708487 0)
(17.3393 0.0015516 0)
(17.3632 0.00184955 0)
(24.9906 0.0081535 0)
(28.4624 0.0172261 0)
(28.4955 0.0180629 0)
(25.0238 0.00772492 0)
(17.3861 0.00150055 0)
(17.4082 0.00106225 0)
(25.0577 0.00685086 0)
(28.5301 0.0174981 0)
(28.5651 0.0184928 0)
(25.0923 0.00754199 0)
(17.4288 0.00111839 0)
(17.4497 0.000779488 0)
(25.1288 0.0072274 0)
(28.6031 0.018433 0)
(28.6419 0.019847 0)
(25.1663 0.00779144 0)
(17.4697 0.000813264 0)
(17.4892 0.000455252 0)
(25.2056 0.00728396 0)
(28.6834 0.0194222 0)
(28.7258 0.0207244 0)
(25.2462 0.00768024 0)
(17.5083 0.000318323 0)
(17.5273 3.66713e-05 0)
(25.2894 0.00777966 0)
(28.7717 0.0210898 0)
(28.8195 0.0228432 0)
(25.3349 0.00822518 0)
(17.5467 2.74678e-06 0)
(17.5658 -0.000330292 0)
(25.3831 0.00786524 0)
(28.8706 0.0230891 0)
(28.9231 0.0251773 0)
(25.4333 0.00886802 0)
(17.585 -0.000228114 0)
(17.6055 -0.000153901 0)
(25.4872 0.0099779 0)
(28.9803 0.0264756 0)
(29.0398 0.0288425 0)
(25.5443 0.0098788 0)
(17.6276 -0.000660455 0)
(17.6517 -0.000594447 0)
(25.6059 0.0104866 0)
(29.1034 0.0301459 0)
(29.1702 0.0335638 0)
(25.6713 0.0134101 0)
(17.6774 0.000359162 0)
(17.7069 -9.95261e-05 0)
(25.7419 0.0136833 0)
(29.242 0.0353706 0)
(29.317 0.0391978 0)
(25.8183 0.0158216 0)
(17.7427 0.0004316 0)
(17.7846 0.00125438 0)
(25.901 0.0180307 0)
(29.3973 0.041992 0)
(29.4817 0.0463473 0)
(25.9894 0.0205919 0)
(17.8333 0.00197771 0)
(17.8908 0.00261235 0)
(26.086 0.0231296 0)
(29.5729 0.0501299 0)
(29.6687 0.0554289 0)
(26.19 0.0247686 0)
(17.9576 0.00324053 0)
(18.0369 0.00522776 0)
(26.3043 0.0297073 0)
(29.7714 0.0609148 0)
(29.8801 0.0681846 0)
(26.4281 0.0334553 0)
(18.1317 0.00666175 0)
(18.2442 0.00983976 0)
(26.5631 0.0413285 0)
(29.9961 0.0763837 1.67898e-19)
(30.1179 0.0851576 -1.68221e-19)
(26.7094 0.0453973 0)
(18.3764 0.0112893 0)
(18.5345 0.0149021 0)
(26.8716 0.053157 0)
(30.2486 0.0950095 0)
(30.3887 0.107384 0)
(27.0496 0.0622946 0)
(18.7185 0.0193033 0)
(18.9345 0.0232786 0)
(27.2464 0.0692946 0)
(30.5404 0.120214 0)
(30.702 0.136842 0)
(27.4632 0.0777733 0)
(19.1855 0.029036 0)
(19.4819 0.0386208 0)
(27.7076 0.0931072 0)
(30.8822 0.156872 0)
(31.0881 0.18013 1.68096e-19)
(27.9931 0.0993915 0)
(19.8515 0.0472661 0)
(20.3171 0.0776521 0)
(28.3242 0.135956 0)
(31.3188 0.233801 -1.68622e-19)
(31.5502 0.347772 -2.70891e-18)
(28.6645 0.256107 1.37368e-23)
(20.7808 0.177293 2.29252e-18)
(21.2201 0.24557 -9.1183e-18)
(28.9915 0.349165 -5.15104e-23)
(31.7579 0.464041 2.53665e-18)
(31.9232 0.627524 -2.52217e-18)
(29.2605 0.514514 -7.02443e-18)
(21.6432 0.381661 9.03234e-18)
(22.0105 0.545464 1.4253e-19)
(29.4104 0.699494 -6.99943e-18)
(32.0313 0.799203 5.33329e-18)
(32.1167 0.966315 -5.46391e-18)
(29.6291 0.851136 0)
(22.3709 0.658479 0)
(22.702 0.800775 1.7998e-17)
(29.7531 1.01213 -1.37447e-17)
(32.1841 1.12455 -5.09266e-18)
(32.2297 1.27185 0)
(29.8914 1.15064 -1.35999e-17)
(23.0732 0.921072 1.78649e-17)
(23.4687 1.0471 1.77346e-17)
(30.0288 1.29444 -4.21852e-19)
(32.2785 1.4237 0)
(32.2797 1.58631 0)
(30.1213 1.47448 4.22473e-19)
(23.825 1.20669 -5.53596e-19)
(24.1347 1.31983 -1.63576e-17)
(30.2057 1.60779 0)
(32.2676 1.71989 0)
(32.2579 1.82415 -1.02936e-17)
(30.2999 1.70269 1.35175e-17)
(24.4736 1.40534 -1.8287e-17)
(24.838 1.52173 0)
(30.389 1.82316 1.65819e-18)
(32.251 1.93048 0)
(32.2286 2.05387 -9.74457e-18)
(30.4604 1.94665 -1.64237e-18)
(25.2098 1.62936 -4.4408e-18)
(25.4138 1.71161 2.04777e-17)
(30.5137 2.10681 -3.46756e-17)
(32.1464 2.21513 2.41336e-17)
(31.9387 2.13403 2.98747e-17)
(30.3863 2.05203 -5.5468e-17)
(25.3811 1.59566 -2.03509e-17)
(20.2402 1.05782 -3.16887e-17)
(28.0404 1.58351 -3.1229e-18)
(30.9096 1.73003 -1.59452e-17)
(31.7209 2.25789 -3.52749e-18)
(29.0459 2.15179 4.69739e-18)
(21.4968 1.6096 -3.10481e-18)
(21.4798 1.72125 1.39559e-18)
(29.1729 2.33569 -2.11678e-18)
(31.7419 2.51329 -1.61053e-18)
(31.685 2.63576 5.26117e-17)
(29.2321 2.43408 -3.57731e-23)
(21.809 1.81638 -4.46206e-17)
(22.2279 1.99188 3.34017e-19)
(29.2473 2.60905 6.48966e-17)
(31.6072 2.77098 -5.74999e-22)
(31.6239 2.87077 2.4634e-17)
(29.4006 2.69638 -3.18196e-17)
(22.7347 2.0977 4.18003e-17)
(23.3056 2.2245 -3.1854e-19)
(29.5173 2.79528 1.20818e-19)
(31.6162 2.97221 2.33337e-17)
(31.6249 3.10002 -2.38818e-17)
(29.684 2.9299 3.02579e-17)
(23.8536 2.38491 -3.09614e-19)
(24.3586 2.4992 6.17378e-19)
(29.7581 3.00652 2.82888e-17)
(31.567 3.18631 -2.36253e-17)
(31.5532 3.28872 -1.80496e-17)
(29.8979 3.12952 -2.72357e-17)
(24.8699 2.64778 4.04663e-17)
(25.3527 2.74962 -2.3704e-18)
(30.006 3.21588 0)
(31.5205 3.37636 -2.62629e-18)
(31.4645 3.51445 0)
(30.0905 3.34521 2.41208e-17)
(25.7659 2.86194 -6.88662e-17)
(25.8915 2.85203 5.09007e-17)
(30.041 3.40706 0)
(31.2729 3.49554 -1.26517e-16)
(30.4905 3.2244 1.06585e-17)
(28.2717 2.85595 -3.13635e-18)
(22.3227 2.10195 -3.7844e-18)
(23.6646 2.84011 0)
(29.1676 3.40609 -2.30903e-18)
(31.1355 3.60401 -6.95153e-18)
(31.1166 3.81336 0)
(29.3285 3.55451 -3.20563e-17)
(23.9798 2.98784 4.2339e-17)
(24.5091 3.14783 6.33145e-19)
(29.5273 3.7327 -9.62183e-19)
(31.1106 3.94926 0)
(31.0939 4.09691 -2.80691e-22)
(29.6033 3.94608 2.80027e-17)
(24.8856 3.36267 -3.89159e-17)
(25.2769 3.46623 3.45893e-17)
(29.6726 3.99738 3.49187e-18)
(31.0516 4.17373 0)
(30.9972 4.29917 1.98546e-17)
(29.7624 4.13388 -1.66698e-18)
(25.6874 3.60595 -2.24989e-18)
(25.8753 3.75001 4.11002e-18)
(29.7354 4.32986 0)
(30.8771 4.46239 -3.21807e-17)
(30.6535 4.42041 -3.70441e-18)
(29.6092 4.244 2.28238e-18)
(25.9848 3.69296 4.60418e-17)
(22.8721 3.54672 0)
(28.0693 4.01431 -3.08304e-18)
(29.958 4.05984 7.91799e-18)
(30.3909 4.62334 3.78674e-17)
(28.9042 4.41329 -7.45166e-17)
(24.0327 3.75913 9.70348e-17)
(24.3202 3.96198 -4.37007e-17)
(28.9245 4.63455 -3.19145e-17)
(30.3079 4.82673 1.54672e-18)
(30.1684 4.97644 -2.38932e-17)
(28.9179 4.8068 -3.15703e-17)
(24.6947 4.18958 8.41398e-17)
(25.0691 4.35343 0)
(28.8813 4.8997 3.72984e-18)
(30.0124 5.09515 0)
(29.8504 5.26491 0)
(28.8876 5.05808 9.54592e-18)
(25.4628 4.53703 0)
(25.5403 4.6803 0)
(28.7194 5.28042 -1.97902e-17)
(29.5316 5.36553 0)
(28.8869 5.30455 -2.50445e-17)
(27.4393 4.86428 2.59031e-17)
(22.9923 3.92835 0)
(24.2306 4.75753 1.01032e-16)
(28.0017 5.41828 2.94667e-19)
(29.2638 5.55194 -1.78561e-18)
(29.13 5.82538 -2.44394e-17)
(28.0399 5.72591 3.24065e-17)
(24.5007 5.08666 -8.72664e-17)
(24.8433 5.22372 8.10091e-17)
(28.0055 5.74842 -5.99937e-17)
(28.9442 5.9283 -2.18113e-17)
(28.694 6.1455 -3.46693e-17)
(27.9257 6.00293 8.8556e-17)
(25.0386 5.45905 -1.52769e-16)
(24.9818 5.55326 2.11473e-16)
(27.6369 6.14121 9.79995e-17)
(28.3024 6.21046 -1.29517e-21)
(27.7327 6.25075 -7.07072e-19)
(26.5967 5.73877 -8.25844e-19)
(22.8564 4.80538 -1.00524e-18)
(23.7143 5.86558 1.02202e-16)
(26.8688 6.50339 6.00451e-19)
(27.8703 6.5865 0)
(27.5101 6.76864 9.76963e-17)
(26.7136 6.59783 -6.65208e-17)
(23.797 6.07181 -2.45577e-18)
(24.0188 6.40036 2.48629e-18)
(26.4917 6.86437 0)
(27.1075 7.01695 -5.61149e-17)
(26.5758 7.15997 -3.3771e-17)
(26.0874 7.14835 0)
(23.8696 6.61988 3.31537e-18)
(22.2109 5.8454 -1.40273e-16)
(25.1742 6.77444 1.1025e-16)
(25.9712 7.33745 0)
(25.8884 7.64472 -5.7849e-17)
(25.1094 7.64633 7.72858e-17)
(22.8109 7.13859 2.02109e-19)
(22.7465 7.33967 8.84906e-17)
(24.7985 7.65081 0)
(25.3521 7.76193 0)
(24.675 8.02162 0)
(24.2565 8.05814 -5.40293e-17)
(22.5662 7.82469 1.55649e-16)
(22.0932 8.00143 0)
(23.516 8.19189 0)
(23.8129 8.07594 -8.03595e-18)
(22.8313 8.43841 1.09655e-17)
(22.3464 8.29126 0)
(20.3924 7.97295 -1.32078e-16)
(20.3066 8.61839 -1.20727e-17)
(21.7533 8.7692 -1.32765e-16)
(22.1215 8.64831 2.54546e-22)
(20.8656 8.60602 -4.65605e-18)
(20.6219 8.86542 5.91606e-18)
(19.4924 8.82043 1.87868e-17)
(17.545 9.03112 -4.50971e-18)
(19.0511 9.06436 -1.47115e-17)
(19.5093 8.92336 1.79672e-17)
(18.3265 8.86817 -8.52747e-17)
(17.9843 9.22563 1.22608e-16)
(16.9556 9.41294 -1.24238e-17)
(15.3073 9.41059 2.4675e-16)
(15.9917 8.8306 -1.52629e-16)
(16.3257 8.12475 0)
(13.384 8.1891 -7.22794e-17)
(12.9506 8.68035 -1.20293e-17)
(12.1184 9.12965 0)
(9.30907 7.72744 0)
(9.92378 6.85694 1.78625e-17)
(10.703 5.8791 -9.02964e-18)
(7.33271 3.94237 -1.32496e-16)
(5.87097 4.906 3.63373e-16)
(4.96381 5.15637 -2.44737e-16)
(1.89487 0.809165 1.99178e-16)
(3.1635 -0.21882 -2.70644e-16)
(5.08215 -1.14568 1.83592e-16)
(3.76981 -9.54411 0)
(1.55798 -9.57213 -4.394e-17)
(-0.182539 -9.8322 1.27275e-16)
(3.37772 -18.2987 -9.60411e-19)
(5.0682 -17.3014 4.64719e-17)
(6.51341 -16.5442 -3.20307e-17)