/*--------------------------------*- C++ -*----------------------------------*\
| =========                 |                                                 |
| \\      /  F ield         | OpenFOAM: The Open Source CFD Toolbox           |
|  \\    /   O peration     | Version:  v2006                                 |
|   \\  /    A nd           | Website:  www.openfoam.com                      |
|    \\/     M anipulation  |                                                 |
\*---------------------------------------------------------------------------*/
FoamFile
{
    version     2.0;
    format      ascii;
    class       volScalarField;
    location    "0.043";
    object      Co;
}
// * * * * * * * * * * * * * * * * * * * * * * * * * * * * * * * * * * * * * //

dimensions      [0 0 0 0 0 0 0];


internalField   nonuniform List<scalar> 
16277
(
0.00667656
0.0063642
0.00690738
0.00717168
0.00720987
0.0070587
0.00705498
0.00693606
0.00688435
0.00687039
0.00683242
0.00681803
0.00680408
0.00679416
0.00678319
0.00677209
0.00676042
0.00674809
0.00673539
0.00672211
0.00670825
0.00669384
0.00667886
0.00666335
0.00664729
0.00663071
0.00661361
0.006596
0.00657788
0.00655927
0.00654017
0.00652062
0.0065006
0.00648016
0.00645929
0.00643802
0.00641636
0.00639434
0.00637198
0.00634929
0.0063263
0.00630303
0.0062795
0.00625574
0.00623176
0.00620761
0.00618329
0.00615884
0.00613429
0.00610966
0.00608497
0.00606026
0.00603555
0.00601088
0.00598627
0.00596175
0.00593734
0.00591309
0.00588902
0.00586517
0.00584155
0.0058182
0.00579515
0.00577244
0.00575008
0.00572811
0.00570656
0.00568546
0.00566482
0.00564468
0.00562505
0.00560597
0.00558746
0.00556955
0.00555226
0.00553562
0.00551959
0.0055041
0.00548761
0.00547271
0.00545945
0.00545001
0.00544786
0.00548087
0.00554477
0.00571849
0.0060325
0.00675052
0.00842265
0.0120099
0.0180093
0.0141685
0.0127289
0.0121935
0.0119252
0.0116606
0.0111361
0.0100986
0.0110803
0.0117199
0.0109187
0.0108022
0.0101625
0.00839038
0.00903331
0.00923981
0.00918919
0.00918677
0.00861839
0.0078407
0.0085484
0.00872139
0.00899058
0.00883311
0.00804682
0.0078275
0.00863237
0.00881815
0.00902199
0.00880015
0.00789279
0.00779348
0.00867218
0.00886544
0.0090349
0.00877213
0.00779642
0.00769567
0.00864305
0.00886618
0.00899297
0.00871427
0.00767732
0.00758142
0.00858172
0.00883465
0.00895318
0.00864893
0.00756511
0.00747488
0.0085169
0.00879498
0.00891016
0.00858377
0.00746294
0.00737728
0.0084529
0.00875322
0.00886552
0.00851973
0.00736864
0.00728656
0.00839078
0.00871042
0.00881988
0.00845686
0.00728049
0.00720105
0.00833047
0.00866705
0.00877337
0.0083947
0.00719701
0.00711974
0.00827028
0.00862194
0.008726
0.00833302
0.00711713
0.00704163
0.00821005
0.00857533
0.00867769
0.00827157
0.00704005
0.00696598
0.00814964
0.00852721
0.00862844
0.00821017
0.00696512
0.00689221
0.00808886
0.00847756
0.00857816
0.0081486
0.00689181
0.00681981
0.00802751
0.00842633
0.00852674
0.00808663
0.00681966
0.00674846
0.00796551
0.00837353
0.00847407
0.00802409
0.00674832
0.00667763
0.00790258
0.00831909
0.00842007
0.00796081
0.00667748
0.00660718
0.00783868
0.00826295
0.00836466
0.00789665
0.00660689
0.00653691
0.00777367
0.008205
0.00830771
0.00783146
0.00653633
0.00646655
0.00770743
0.00814521
0.00824911
0.0077651
0.0064656
0.00639595
0.00764103
0.00808615
0.00818873
0.00769742
0.00639447
0.00632487
0.00757344
0.00802588
0.00812651
0.00762833
0.00632278
0.00625315
0.00750437
0.00796376
0.00806236
0.00755767
0.00625035
0.00618061
0.00743369
0.00789968
0.00799615
0.00748532
0.006177
0.00610707
0.00736125
0.00783351
0.00792777
0.00741113
0.00610257
0.00603237
0.00728694
0.00776515
0.00785709
0.00733496
0.00602689
0.00595636
0.0072106
0.00769447
0.007784
0.00725668
0.00594981
0.00587888
0.00713212
0.00762137
0.00770839
0.00717617
0.00587119
0.00579982
0.00705138
0.00754573
0.00763015
0.00709332
0.00579092
0.00571907
0.00696828
0.00746747
0.00754919
0.00700804
0.00570892
0.00563656
0.00688275
0.00738649
0.00746543
0.00692027
0.00562513
0.00555227
0.00679473
0.00730273
0.00737883
0.00682997
0.00553955
0.00546624
0.00670424
0.00721617
0.00728939
0.0067372
0.00545228
0.00537859
0.00661134
0.00712683
0.00719718
0.00664207
0.00536346
0.00528951
0.00651619
0.00703482
0.00710234
0.00654478
0.00527334
0.00519928
0.00641903
0.0069403
0.00700508
0.00644561
0.00518225
0.00510832
0.00632019
0.00684353
0.00690573
0.00634498
0.00509068
0.00501718
0.00622015
0.00674487
0.00680472
0.00624344
0.00499928
0.00492659
0.00611955
0.00664484
0.00670267
0.00614177
0.00490889
0.00483754
0.00601926
0.00654412
0.00660041
0.00604094
0.00482062
0.00475122
0.00592037
0.00644363
0.00649898
0.00594221
0.00473581
0.00466912
0.00582423
0.00634453
0.00639972
0.00584711
0.00465613
0.00459307
0.00573254
0.00624825
0.0063043
0.00575754
0.00458357
0.00452521
0.00564736
0.00615664
0.00621474
0.00567566
0.00452042
0.00446963
0.00557216
0.0060717
0.00613311
0.00560365
0.00446947
0.00443437
0.00552321
0.00600846
0.00606223
0.00554494
0.00443423
0.0044167
0.00549618
0.00597977
0.00600563
0.00550261
0.0044166
0.00441841
0.00548926
0.00597077
0.00596644
0.00547935
0.00441834
0.00444012
0.00550312
0.00598191
0.00594357
0.00547392
0.00444008
0.00448109
0.00553662
0.00601173
0.00594668
0.00549696
0.00448432
0.00454245
0.00559186
0.00606349
0.00599567
0.00555973
0.00455543
0.00462388
0.00566789
0.00613554
0.00607101
0.00564021
0.00464272
0.0047169
0.00575582
0.0062182
0.00615634
0.00573168
0.00473915
0.00481636
0.00585197
0.00630842
0.00624766
0.00582939
0.00483966
0.00491816
0.00595306
0.0064038
0.00634285
0.00593052
0.00494097
0.00501927
0.00605599
0.00650158
0.00643905
0.00603201
0.00504021
0.00511689
0.00615773
0.00659889
0.00653361
0.00613107
0.00513472
0.0052086
0.00625574
0.00669324
0.0066243
0.00622539
0.00522236
0.00529253
0.00634791
0.00678263
0.0067093
0.00631309
0.00530152
0.00536727
0.00643257
0.00686539
0.00678718
0.00639276
0.00537105
0.00543208
0.00650851
0.0069403
0.00685693
0.0064648
0.00543227
0.00548683
0.00657497
0.0070066
0.00692146
0.00653434
0.00548701
0.00553144
0.00663145
0.00706384
0.00699091
0.00659907
0.0055316
0.00556626
0.00667838
0.00711225
0.00705372
0.00665379
0.00556639
0.00559202
0.00671632
0.00715229
0.00710708
0.00669876
0.00559213
0.00560977
0.00674603
0.00718461
0.0071512
0.00673452
0.00560985
0.00562081
0.00676865
0.00721029
0.00718687
0.00676208
0.00562086
0.00562648
0.00678528
0.00723035
0.00721511
0.00678259
0.00562651
0.005628
0.00679697
0.00724571
0.00723699
0.00679723
0.00562801
0.0056264
0.00680464
0.00725723
0.00725359
0.00680712
0.00562643
0.00562253
0.00680909
0.00726559
0.00726588
0.00681323
0.00562259
0.00561699
0.00681094
0.00727128
0.00727451
0.00681625
0.0056171
0.00561046
0.00681102
0.00727518
0.00728048
0.00681707
0.00561061
0.00560324
0.00680966
0.0072776
0.00728434
0.00681614
0.00560338
0.00559558
0.00680736
0.00727894
0.00728658
0.006814
0.00559571
0.00558798
0.0068044
0.00727931
0.0072875
0.00681103
0.00558813
0.00558051
0.0068009
0.00727883
0.00728759
0.00680755
0.00558067
0.00557289
0.00679696
0.00727808
0.00728711
0.00680354
0.00557296
0.00556507
0.00679232
0.0072765
0.00728591
0.00679898
0.00556515
0.00555772
0.0067881
0.00727482
0.00728336
0.00679373
0.00555758
0.00555075
0.0067837
0.00727293
0.0072819
0.00678965
0.00555065
0.00554351
0.00677931
0.00727188
0.00728043
0.00678502
0.00554076
0.00552915
0.00676229
0.00725596
0.00722986
0.00672948
0.00548756
0.00547373
0.00669855
0.00720068
0.00705933
0.00652945
0.00531355
0.00541599
0.00662479
0.00711356
0.00681054
0.00626161
0.00506648
0.00559681
0.00684398
0.00730973
0.00731226
0.00661216
0.00526156
0.00651245
0.00811291
0.00881419
0.00956853
0.00848175
0.00655706
0.00821863
0.0119347
0.0149558
0.0140269
0.018222
0.0155683
0.0146108
0.0139346
0.0137475
0.0136322
0.0136599
0.0136672
0.0136906
0.0137028
0.0137585
0.0138623
0.0140287
0.0143953
0.0152817
0.0195548
0.0279057
0.0299325
0.0272913
0.025832
0.0235851
0.0211059
0.0180931
0.0124876
0.0111107
0.01662
0.0198976
0.0177586
0.0154094
0.0105475
0.00877585
0.0129477
0.0151121
0.0141237
0.0123637
0.00849086
0.00784917
0.0115657
0.0133637
0.0131274
0.0114507
0.00774972
0.00761981
0.0112382
0.0129545
0.0129677
0.0112348
0.00761291
0.00761093
0.0112305
0.012949
0.0129568
0.0112378
0.00762535
0.00763248
0.0112438
0.0129609
0.012969
0.0112522
0.00764074
0.00764159
0.0112376
0.0129616
0.0129962
0.0112921
0.00766648
0.00766771
0.0112772
0.0129887
0.0129968
0.0112863
0.00767698
0.00767884
0.0112727
0.0129777
0.0130388
0.0113167
0.00769674
0.00771426
0.0113252
0.013019
0.0130281
0.0113131
0.00770932
0.00772599
0.0113207
0.0130085
0.01307
0.0113543
0.00773712
0.00775567
0.0113642
0.0130509
0.0130594
0.0113517
0.00775058
0.00776807
0.0113598
0.0130403
0.0131023
0.0113932
0.0077791
0.00779709
0.0114019
0.013082
0.0130908
0.0113904
0.00779329
0.00781181
0.0113996
0.0130723
0.0131345
0.0114336
0.00782344
0.00784171
0.0114423
0.0131147
0.0131238
0.01143
0.00783728
0.00785629
0.01144
0.0131051
0.0131677
0.0114742
0.00786825
0.00788737
0.0114838
0.0131485
0.0131582
0.0114834
0.00789111
0.00789471
0.0114708
0.01314
0.0132034
0.0115172
0.00791502
0.00793472
0.0115275
0.0131848
0.0131952
0.0115277
0.00793892
0.00794294
0.0115157
0.0131777
0.0132419
0.0115629
0.00796369
0.00798375
0.0115738
0.013224
0.0132349
0.0115743
0.00798801
0.00799198
0.0115623
0.0132177
0.0132827
0.0116102
0.00801289
0.00803288
0.0116214
0.013265
0.0132759
0.0116207
0.00803623
0.00803989
0.0116087
0.0132592
0.0133246
0.0116568
0.00806069
0.0080815
0.0116697
0.0133079
0.0133201
0.0116705
0.00808532
0.0080881
0.011658
0.013304
0.013371
0.0117081
0.00810927
0.008129
0.0117206
0.0133558
0.0133696
0.0117235
0.00813305
0.00813551
0.0117122
0.0133554
0.0134239
0.0117623
0.00815557
0.00817446
0.0117756
0.01341
0.0134255
0.0117792
0.00817761
0.00818008
0.0117704
0.0134135
0.0134842
0.0118217
0.00819908
0.00821749
0.0118372
0.0134728
0.0134912
0.0118312
0.00821142
0.00822951
0.0118488
0.0134823
0.0135561
0.0118896
0.00823837
0.00825534
0.0119073
0.0135477
0.0135696
0.0119032
0.00824776
0.0082652
0.0119237
0.0135648
0.0136447
0.0119715
0.00827536
0.00829257
0.0119947
0.0136419
0.0136708
0.0120089
0.00829433
0.00829484
0.0120097
0.0136718
0.0137581
0.0120749
0.00831413
0.00833368
0.0121044
0.0137618
0.013797
0.0121256
0.0083386
0.00834475
0.0121356
0.0138054
0.0139021
0.0122126
0.00837212
0.00840258
0.0122573
0.0139179
0.0139668
0.0122823
0.00841158
0.00844936
0.0123345
0.0139902
0.0141011
0.0124141
0.00848288
0.00853215
0.0124754
0.01413
0.014192
0.0125308
0.00857282
0.00863892
0.0126038
0.0142429
0.0143416
0.0126835
0.00869771
0.00877676
0.0127702
0.0144012
0.0144835
0.012868
0.00887066
0.00898125
0.0129774
0.014573
0.0146742
0.013102
0.00911231
0.00926501
0.0132387
0.0147844
0.0149275
0.0134233
0.0094638
0.00970031
0.013631
0.015066
0.015217
0.0138249
0.00995307
0.0101203
0.0139296
0.015275
0.0154263
0.013986
0.0102741
0.0106024
0.0142594
0.0155092
0.0156002
0.0143104
0.0106739
0.0109087
0.0144065
0.0156477
0.0157777
0.0145772
0.0111323
0.0113751
0.0146749
0.0158807
0.0161342
0.0150481
0.0117719
0.0119817
0.0151579
0.0162351
0.0165995
0.0155852
0.0125091
0.0126817
0.0156737
0.0166728
0.0167779
0.0162485
0.0135617
0.0131746
0.0150423
0.0146552
0.0436226
0.0321829
0.018806
0.0126607
0.0208121
0.0288502
0.0191318
0.0168889
0.0118516
0.0110747
0.0150605
0.0163649
0.0157586
0.014728
0.0111124
0.0112599
0.015055
0.0162896
0.0160332
0.0148671
0.0113814
0.011838
0.0153067
0.0165211
0.0162313
0.0150724
0.0119812
0.0127511
0.0159325
0.0169726
0.0168576
0.0158257
0.012923
0.0137327
0.0164455
0.0171817
0.0150072
0.015389
0.0136606
0.0191111
0.0315315
0.0422886
0.0296947
0.0218114
0.0141499
0.0133433
0.0177137
0.0199583
0.0179099
0.0165359
0.0131255
0.0132695
0.0164637
0.0174785
0.0172696
0.0163095
0.0134563
0.0135934
0.016309
0.0171837
0.0171212
0.0165412
0.0141571
0.0137767
0.0150206
0.0144133
0.0421098
0.0314063
0.0193889
0.0151479
0.0226412
0.0297819
0.020037
0.0182917
0.0141571
0.0136742
0.0166053
0.0174564
0.0168088
0.0162083
0.0137781
0.0142243
0.0165613
0.017102
0.0147207
0.0154034
0.014151
0.0193584
0.0309757
0.0410169
0.0302845
0.022746
0.0153199
0.0151242
0.0190478
0.020586
0.0183534
0.0172077
0.0144234
0.0149353
0.0171628
0.0175473
0.0142521
0.0151046
0.0142406
0.0198595
0.0310421
0.0408391
0.029846
0.0229296
0.0159127
0.0150267
0.018461
0.019703
0.0172464
0.0167574
0.0145903
0.0144564
0.0152993
0.0144577
0.0390651
0.0298497
0.0193588
0.0161115
0.0228961
0.0297951
0.0200506
0.0185931
0.0153326
0.0149836
0.0169733
0.0174668
0.0135478
0.0146832
0.0144781
0.0193832
0.0289029
0.0366241
0.0275217
0.0221469
0.0164246
0.0147154
0.0156969
0.0149971
0.0341754
0.0271387
0.0184192
0.0155768
0.021087
0.025892
0.0131689
0.0139696
0.0133176
0.0156189
0.0218107
0.0260618
0.0138646
0.0128668
0.0109756
0.0110485
0.016099
0.0195627
0.00483132
0.00459337
0.00427997
0.00562305
0.00910818
0.0111698
0.0138952
0.0120662
0.00869657
0.0142798
0.0170921
0.0186029
0.0224172
0.021316
0.0188492
0.020692
0.0219285
0.0215795
0.0370828
0.0322013
0.0244809
0.0252143
0.0331012
0.0383174
0.0373961
0.0329522
0.0256023
0.0269286
0.0364574
0.0428423
0.0266615
0.0268772
0.0235786
0.0250853
0.035615
0.0457582
0.0488484
0.03877
0.026458
0.0240341
0.0315412
0.0366895
0.0453403
0.037233
0.0263513
0.0221433
0.0254418
0.0257891
0.0429866
0.0338456
0.0241188
0.0260618
0.038548
0.0489336
0.0250773
0.0246344
0.0213036
0.0232218
0.0329361
0.0420088
0.0487624
0.0381733
0.0254554
0.0208998
0.024215
0.0245629
0.0415606
0.0325187
0.0228087
0.0250777
0.0377752
0.0485516
0.0245345
0.0241441
0.0206716
0.0227482
0.0322564
0.0412033
0.0483862
0.0377204
0.0251489
0.0205424
0.0238145
0.0242538
0.0408966
0.0319339
0.0223621
0.0247633
0.037489
0.0480617
0.0243492
0.0238203
0.0204158
0.0222157
0.0316013
0.0406313
0.0480593
0.0373717
0.0246874
0.0200223
0.0232994
0.0238647
0.0395243
0.030718
0.0216573
0.0242679
0.0368186
0.0474793
0.0211434
0.0212875
0.0190616
0.0202598
0.0257335
0.0280505
0.0407552
0.0308183
0.0208928
0.0234491
0.0366238
0.0477999
0.0228066
0.0223771
0.0191759
0.0212193
0.0310013
0.040175
0.0473319
0.0365442
0.0237651
0.019489
0.0231231
0.0236602
0.0406974
0.0310497
0.0210301
0.0237675
0.0369675
0.047635
0.0235686
0.0229896
0.0194971
0.0214216
0.0313082
0.0406901
0.047807
0.0366977
0.023786
0.0195631
0.023298
0.0239847
0.040705
0.0315449
0.0215932
0.0239193
0.0367356
0.0477867
0.0236819
0.0232029
0.0194601
0.0215846
0.031542
0.0407848
0.0478648
0.0370532
0.0240611
0.0197731
0.0236468
0.0242351
0.0414708
0.031634
0.0216135
0.0244034
0.0374085
0.0482201
0.0243838
0.0236882
0.0199212
0.0217373
0.0323531
0.0429365
0.04771
0.0370604
0.0240176
0.021617
0.0294883
0.0350363
0.044442
0.0360246
0.0244956
0.0207992
0.0246528
0.0253767
0.0417958
0.0326238
0.0226867
0.0248752
0.0376405
0.0482683
0.0250399
0.0242252
0.0203877
0.0224293
0.0323723
0.0414754
0.0485548
0.037851
0.0248769
0.0206598
0.0243363
0.0248835
0.0423034
0.0329286
0.0228051
0.0250504
0.0380667
0.0488453
0.0252341
0.0243413
0.0205495
0.0227173
0.0327569
0.0424459
0.0492649
0.0383876
0.0254444
0.0211309
0.0249356
0.0256319
0.0448186
0.0340367
0.0231397
0.0251077
0.0382681
0.0491949
0.0371101
0.0313582
0.0229363
0.0251209
0.03678
0.0452248
0.02638
0.0254874
0.0213592
0.0236742
0.0342461
0.0438309
0.0500052
0.0393375
0.0260068
0.0215564
0.0255042
0.0262825
0.0458655
0.0350455
0.0238448
0.0256278
0.0388127
0.0499926
0.0376806
0.0318094
0.0234794
0.025838
0.0374899
0.046214
0.0273675
0.0264974
0.0223026
0.024449
0.0349709
0.0449029
0.0510442
0.0400215
0.0267388
0.0223741
0.0263994
0.0270573
0.0468912
0.0357534
0.0244853
0.026223
0.0394807
0.0506544
0.0386586
0.032668
0.0240397
0.0263327
0.0381172
0.0468756
0.0277249
0.0269495
0.0228843
0.0250006
0.0359854
0.0462315
0.0520005
0.0410977
0.0273603
0.0230559
0.0270523
0.0277325
0.04813
0.0374391
0.0256752
0.0269283
0.0403704
0.0518433
0.0396688
0.0335678
0.0246529
0.0271781
0.0392441
0.0478442
0.0288755
0.0279298
0.0235554
0.0258365
0.0374902
0.0491433
0.0525246
0.0412145
0.0275412
0.0254976
0.0344171
0.0407132
0.0487835
0.0400259
0.0279252
0.023971
0.0283838
0.0293045
0.049625
0.0386449
0.0266936
0.0278754
0.0413537
0.0528275
0.0412247
0.0348862
0.0258756
0.0284482
0.040518
0.0494038
0.0301078
0.0291748
0.0246069
0.0274115
0.0394642
0.0507367
0.0540154
0.0424159
0.0287491
0.0265152
0.0356843
0.0421239
0.0501703
0.0412212
0.0288855
0.0249879
0.0295028
0.0303438
0.0513321
0.0396715
0.0271733
0.028901
0.043103
0.0546498
0.0430082
0.0362762
0.0268494
0.0291736
0.0416461
0.050896
0.0311852
0.0302714
0.0255964
0.0283724
0.0413852
0.0528542
0.0552676
0.0434951
0.0294938
0.0278547
0.0381088
0.0451716
0.0507995
0.0415997
0.0293648
0.0274752
0.0371523
0.0435584
0.0508905
0.0421085
0.0296801
0.0262032
0.0311088
0.0321812
0.0537288
0.0416999
0.0291072
0.0304514
0.0447682
0.0565784
0.0450538
0.0381139
0.02829
0.0304674
0.0434556
0.0524946
0.0323006
0.0314307
0.0267486
0.0295565
0.042914
0.0549573
0.0571935
0.0449306
0.0305609
0.0287137
0.0393231
0.0469468
0.0526416
0.0429132
0.0301955
0.0287014
0.0385662
0.0454735
0.0530306
0.0440064
0.0313728
0.0272346
0.032339
0.0334704
0.056528
0.0437901
0.0303805
0.0316045
0.0464867
0.0587271
0.0485484
0.0405425
0.0296474
0.0313175
0.0443173
0.0538513
0.047108
0.0399491
0.0297543
0.0317743
0.0447589
0.0537646
0.0342433
0.033005
0.0279277
0.0309259
0.0446012
0.0574742
0.0593801
0.0470175
0.0321432
0.0305539
0.0416748
0.0495761
0.0551136
0.0454379
0.0321771
0.0305974
0.0408927
0.0479222
0.0552539
0.0461699
0.0329275
0.0289154
0.0341839
0.0352149
0.0588244
0.0456493
0.0317772
0.0331722
0.0483785
0.0608351
0.0505858
0.0422276
0.0308745
0.032761
0.0461301
0.0558965
0.0491805
0.0415593
0.0309805
0.0337881
0.0470035
0.0563049
0.0358681
0.0347165
0.0294971
0.0325267
0.0469613
0.0607173
0.0622005
0.0492828
0.0335116
0.0318465
0.0436788
0.0520479
0.0575403
0.0475756
0.0335549
0.0320807
0.0429711
0.0503777
0.0577363
0.0481402
0.0345601
0.0301363
0.0355479
0.0366354
0.0619307
0.0476352
0.0331651
0.0343639
0.0503111
0.0633731
0.0533689
0.0447016
0.0329158
0.0347613
0.0486473
0.0585742
0.0537858
0.0453396
0.0332495
0.0350204
0.048631
0.0586016
0.0523614
0.0444885
0.0330897
0.0357959
0.0497707
0.0591569
0.0385805
0.0372876
0.0315441
0.0351349
0.0502518
0.0639085
0.0650715
0.0515075
0.0357431
0.0339981
0.0462351
0.0549323
0.0594824
0.0493189
0.0353735
0.0340653
0.0461241
0.0550073
0.0599103
0.0498323
0.0361041
0.0341307
0.045725
0.0535502
0.0608483
0.0510165
0.036856
0.0322731
0.0380757
0.0392676
0.0659797
0.0514221
0.0359021
0.0368918
0.0535984
0.0668409
0.0566854
0.0476268
0.03512
0.0368041
0.0512083
0.0617652
0.0568417
0.0480987
0.0352979
0.0370703
0.0513664
0.0614885
0.0552428
0.0470455
0.0352214
0.0378209
0.0521067
0.062413
0.0406284
0.0393158
0.0332272
0.037046
0.0528996
0.0678669
0.068774
0.0547846
0.0377809
0.0361172
0.0489105
0.058425
0.0631569
0.0524484
0.0378359
0.0366167
0.0495692
0.0588363
0.0634092
0.052905
0.0383543
0.0362475
0.0481528
0.0567963
0.0642542
0.0538515
0.039201
0.0344518
0.040249
0.0413729
0.0696824
0.0549184
0.0382438
0.0390839
0.0563452
0.0708117
0.0601027
0.0504199
0.0371452
0.038954
0.0542555
0.065176
0.0608466
0.051309
0.0379337
0.0394928
0.0541756
0.0646952
0.061283
0.0513287
0.0378394
0.04002
0.0547593
0.0655259
0.059804
0.0507678
0.0379621
0.0405178
0.0556429
0.0663851
0.0431605
0.0419027
0.0357646
0.0397434
0.0561831
0.0728156
0.0731128
0.0584133
0.0405532
0.0386136
0.0523263
0.0622255
0.0671626
0.0561916
0.0403687
0.0391255
0.0526914
0.0624247
0.0667399
0.0560253
0.0409264
0.0392729
0.0529858
0.0627785
0.0677482
0.0565658
0.0414059
0.0392871
0.0519558
0.0613396
0.0689796
0.0578271
0.0424126
0.0369922
0.0432562
0.0447604
0.0751898
0.0587199
0.0413342
0.0425761
0.0609803
0.0758783
0.0648282
0.0549912
0.0408298
0.0423772
0.0584195
0.0699056
0.0649677
0.0551196
0.040931
0.0426279
0.0580939
0.0692688
0.0656469
0.0554303
0.0411433
0.0431304
0.0587943
0.0700362
0.0640874
0.054173
0.0407552
0.0437892
0.0596623
0.0710095
0.0464135
0.045265
0.0386225
0.0427309
0.060582
0.0776804
0.0785408
0.0627194
0.0435769
0.0418532
0.0563674
0.0669663
0.0723517
0.0598918
0.0435204
0.042167
0.0567677
0.0672792
0.0714847
0.0602706
0.0441272
0.0423676
0.0570198
0.0679956
0.0728597
0.0611404
0.0446437
0.0423839
0.0561859
0.0657443
0.0738915
0.0624764
0.0455866
0.0400384
0.0465964
0.0478652
0.0810097
0.0629091
0.0445871
0.045535
0.0649411
0.0817596
0.0695975
0.0588583
0.0437537
0.0455182
0.0627374
0.0750946
0.0699582
0.0588231
0.0438904
0.0458905
0.0622004
0.0743357
0.0706494
0.0594895
0.0441994
0.0464176
0.0630244
0.0750312
0.068826
0.0585185
0.0441945
0.0473196
0.0644655
0.0763781
0.0496796
0.0484515
0.0416543
0.0461084
0.0651223
0.0840461
0.0846915
0.067625
0.0471509
0.0454061
0.0609125
0.0721407
0.0776208
0.0650798
0.0472845
0.0456044
0.0613213
0.0725095
0.077235
0.0648919
0.0475608
0.0459077
0.0617924
0.0733048
0.0778107
0.0655237
0.0482565
0.0463019
0.0620274
0.0734151
0.0787197
0.0662517
0.0488944
0.0461427
0.0606206
0.0712032
0.0800258
0.0674359
0.0498447
0.0437117
0.0505432
0.0520398
0.0873537
0.0685687
0.0487334
0.050063
0.0710161
0.0883178
0.0753349
0.063735
0.0477072
0.0496735
0.0680887
0.0814701
0.0758255
0.064305
0.0481173
0.0502865
0.0682084
0.0808225
0.0763834
0.0646212
0.04854
0.0508222
0.0685527
0.0819498
0.0741604
0.0632517
0.0481006
0.0514337
0.0697634
0.082789
0.054438
0.0528658
0.0455132
0.0507162
0.0713288
0.0910335
0.0917394
0.0738343
0.0518128
0.0495238
0.0660938
0.0781503
0.0839916
0.0700331
0.0514061
0.0497285
0.0664946
0.0785841
0.0836881
0.0705533
0.0519781
0.0502343
0.0669849
0.079006
0.0846865
0.0713329
0.0526446
0.0500222
0.0656185
0.0767849
0.0862168
0.0730306
0.0537163
0.0471066
0.0543486
0.0558704
0.0942773
0.0742286
0.0530235
0.0542986
0.076657
0.0951935
0.0810815
0.0685684
0.0514911
0.0536475
0.0732518
0.0877058
0.0815731
0.0691352
0.0519273
0.0543507
0.0733496
0.0873171
0.0821707
0.0695
0.0521891
0.0548771
0.0740809
0.0882735
0.0798815
0.0682116
0.0520717
0.0558687
0.0755225
0.0892349
0.0586954
0.0570777
0.0493183
0.0550748
0.0770575
0.0983622
0.0992238
0.0794341
0.0564139
0.0541089
0.0717055
0.0846032
0.0907513
0.0762211
0.056107
0.0541885
0.0718978
0.0847997
0.0907216
0.0762836
0.0566471
0.054382
0.0722611
0.0851625
0.0917077
0.0773164
0.0572305
0.0539246
0.0705821
0.0825576
0.093249
0.0790021
0.0582018
0.0511534
0.0588685
0.060405
0.101582
0.0797411
0.056991
0.0584857
0.0825889
0.103044
0.0874757
0.0741229
0.0560097
0.0584868
0.0794094
0.0951158
0.0881317
0.0748637
0.0565781
0.0592614
0.0796358
0.0948153
0.0862803
0.0738315
0.0564058
0.0598875
0.0812821
0.0963886
0.062225
0.060889
0.0529248
0.0590014
0.0825461
0.105383
0.106412
0.0856785
0.0603338
0.0576636
0.0764164
0.0902698
0.0981317
0.0817109
0.0599631
0.0579872
0.0766573
0.0902111
0.0981273
0.0824448
0.060975
0.057732
0.0754014
0.0880205
0.0996261
0.0842807
0.0622219
0.0545659
0.0624652
0.0639297
0.108843
0.0856817
0.0611811
0.0629216
0.0889056
0.11051
0.0936107
0.0793631
0.0599106
0.062839
0.0854274
0.101872
0.0940645
0.080179
0.0605344
0.0629069
0.0850532
0.101453
0.091893
0.0785557
0.0601198
0.0643915
0.0870505
0.10326
0.0659936
0.0647283
0.0563
0.0631262
0.088078
0.112723
0.114313
0.0916077
0.0648026
0.0615363
0.0816134
0.0963398
0.104956
0.0881403
0.0645214
0.0622302
0.0821338
0.0964956
0.105143
0.0882341
0.0652577
0.0618562
0.0806513
0.0940846
0.107036
0.0905365
0.0667691
0.058612
0.0670683
0.068483
0.117328
0.0920675
0.0658573
0.0676979
0.0959891
0.119555
0.100112
0.0850027
0.0643301
0.0672352
0.0913891
0.109649
0.100328
0.0853211
0.0644826
0.0675226
0.0914573
0.10891
0.0978896
0.0838109
0.0642037
0.0688762
0.093142
0.110479
0.0706037
0.0690764
0.0603466
0.0674684
0.0940958
0.119803
0.123028
0.0982724
0.0695202
0.0663492
0.0870992
0.102496
0.113586
0.0946905
0.0695884
0.0660523
0.0855902
0.0993551
0.114642
0.0967578
0.0710954
0.0628205
0.0715341
0.0726402
0.124832
0.0982177
0.0705226
0.0725082
0.102737
0.127955
0.106265
0.0901857
0.0684842
0.0716987
0.097241
0.11676
0.106238
0.0904682
0.0686153
0.0724184
0.0980246
0.11666
0.103443
0.0887613
0.068396
0.0739049
0.0998232
0.118607
0.0760394
0.0741453
0.0645436
0.0727219
0.100759
0.127517
0.130816
0.105131
0.0749462
0.0710181
0.0931298
0.109264
0.121631
0.10154
0.0745518
0.0710673
0.0915125
0.105977
0.122771
0.103573
0.0771428
0.0674778
0.0765036
0.0775051
0.131125
0.103463
0.0744235
0.0773324
0.109054
0.135617
0.111905
0.09517
0.0726097
0.077185
0.104686
0.125544
0.108274
0.0931252
0.072026
0.0781002
0.105914
0.125786
0.0797238
0.0778693
0.0679388
0.0765763
0.105694
0.133694
0.140173
0.112202
0.0797994
0.0738488
0.0950976
0.110492
0.130426
0.109288
0.0801381
0.069798
0.0789859
0.079957
0.138977
0.109507
0.0790063
0.0824812
0.115987
0.143921
0.119012
0.101845
0.0779371
0.0811781
0.110656
0.132719
0.114869
0.0989698
0.0765874
0.0818297
0.111296
0.132574
0.0826974
0.0813756
0.0716802
0.0796767
0.110367
0.140143
0.147572
0.117834
0.0832941
0.0769996
0.0993703
0.115515
0.137458
0.115098
0.0837732
0.0725018
0.082025
0.0831178
0.144105
0.113583
0.0818293
0.0857476
0.121772
0.152182
0.120623
0.103731
0.0804178
0.0870842
0.118805
0.142211
0.0851628
0.0847889
0.0756244
0.0833738
0.116034
0.147565
0.156791
0.125235
0.0880494
0.0811107
0.104494
0.121123
0.144846
0.121033
0.0880542
0.0760048
0.0857088
0.0865407
0.150778
0.118453
0.085236
0.0895509
0.127388
0.160278
0.12516
0.107607
0.0833189
0.0901143
0.124296
0.148619
0.0885455
0.088008
0.0781803
0.0882307
0.122226
0.155337
0.166971
0.134106
0.0945204
0.0876612
0.112025
0.128681
0.153945
0.12836
0.093282
0.0802781
0.0899902
0.0907816
0.157855
0.124402
0.089716
0.0943333
0.133897
0.16832
0.130411
0.11228
0.087088
0.094429
0.129967
0.156665
0.0925882
0.0920425
0.0818524
0.0917586
0.126642
0.160516
0.17313
0.138664
0.097579
0.089615
0.114374
0.1323
0.163248
0.136213
0.0994046
0.0857554
0.0950524
0.0951388
0.161097
0.128955
0.0947511
0.100836
0.144205
0.180052
0.0949404
0.0942777
0.084598
0.094731
0.131147
0.166147
0.180118
0.143365
0.100393
0.0917357
0.117621
0.13602
0.167103
0.138984
0.100809
0.0865437
0.0970951
0.0978001
0.164162
0.130804
0.0961661
0.104868
0.150258
0.187634
0.0964751
0.0969876
0.0881816
0.09998
0.135637
0.169795
0.194266
0.154284
0.108024
0.0888605
0.0983113
0.0983166
0.175884
0.138927
0.100295
0.107427
0.153911
0.194193
0.143691
0.124438
0.0973938
0.107707
0.149173
0.179343
0.103188
0.102541
0.0916824
0.102009
0.137565
0.17184
0.200379
0.16022
0.112265
0.0936392
0.102574
0.102265
0.177504
0.142456
0.105769
0.114402
0.163581
0.205529
0.103207
0.103097
0.0933503
0.103636
0.140305
0.175646
0.207663
0.164747
0.114572
0.0938023
0.103463
0.103503
0.177435
0.141655
0.104744
0.116103
0.167386
0.210422
0.105955
0.106056
0.0960801
0.10778
0.144762
0.181062
0.218084
0.1739
0.121244
0.0939542
0.0975225
0.0927015
0.123353
0.115229
0.0980054
0.105212
0.144704
0.185176
0.225051
0.175203
0.119004
0.0958801
0.104639
0.103611
0.182527
0.145444
0.107573
0.123662
0.179865
0.227944
0.0927721
0.097885
0.095871
0.105722
0.12289
0.130198
0.191662
0.150442
0.109587
0.123551
0.183356
0.236837
0.0934012
0.0977488
0.0939835
0.1007
0.118922
0.127814
0.191578
0.148691
0.10873
0.129228
0.191218
0.243591
0.0921951
0.0987612
0.0975226
0.106307
0.123717
0.130027
0.190282
0.148089
0.107695
0.127676
0.190792
0.246687
0.0911676
0.096656
0.0943014
0.0987149
0.110629
0.114076
0.130534
0.120046
0.103069
0.115881
0.158033
0.197161
0.248893
0.190622
0.125625
0.0906517
0.0938152
0.0891023
0.103921
0.10229
0.0926334
0.0916787
0.100282
0.102571
0.107735
0.105675
0.0937407
0.0928264
0.111486
0.119896
0.176728
0.135881
0.0968097
0.124069
0.190047
0.249949
0.0842095
0.0895792
0.0875421
0.0868013
0.0961258
0.0967409
0.0918535
0.0881059
0.0776666
0.0764585
0.0875174
0.0900317
0.0868026
0.0833429
0.0707439
0.0662328
0.0795942
0.0836949
0.0806633
0.0760521
0.0619076
0.0590314
0.0737511
0.0788163
0.0768779
0.0715862
0.0563835
0.0542035
0.0698117
0.0755596
0.0741861
0.0681665
0.0522581
0.0506058
0.0667753
0.0731555
0.0721143
0.0654769
0.0491096
0.0477438
0.0642575
0.07122
0.0703523
0.0632277
0.0465857
0.0453503
0.0620134
0.0695427
0.0686142
0.0609746
0.0443036
0.0433523
0.0599965
0.0678729
0.0670771
0.0590708
0.0424866
0.0417021
0.0582029
0.066397
0.0656588
0.0573829
0.0409888
0.0403439
0.0566163
0.065033
0.0643469
0.0558914
0.0397586
0.0392328
0.0552151
0.0637692
0.0631294
0.054576
0.0387582
0.0383341
0.0539813
0.0625944
0.0619952
0.0534181
0.037952
0.0376136
0.0528957
0.0614989
0.0609383
0.0524011
0.0373104
0.0370439
0.0519436
0.0604784
0.0599524
0.0515097
0.0368057
0.0365983
0.0511099
0.0595258
0.059034
0.0507305
0.0364141
0.0362555
0.0503823
0.0586412
0.0581828
0.0500498
0.0361148
0.0359959
0.0497457
0.0578226
0.0573967
0.0494538
0.0358906
0.0358034
0.0491882
0.0570683
0.0566739
0.048932
0.0357262
0.0356643
0.0487
0.0563758
0.0560112
0.0484746
0.0356095
0.0355673
0.0482718
0.0557422
0.0554063
0.0480731
0.0355298
0.0355028
0.0478952
0.0551648
0.0548554
0.0477193
0.0354784
0.0354629
0.0475631
0.0546403
0.0543571
0.047411
0.0354542
0.0354477
0.0472729
0.0541668
0.0539067
0.0471388
0.0354484
0.0354474
0.0470161
0.0537395
0.0535021
0.0468969
0.035452
0.0354533
0.046788
0.0533561
0.053138
0.0466817
0.03546
0.035463
0.0465852
0.0530109
0.0528123
0.046491
0.0354702
0.0354728
0.0464057
0.0527028
0.0525197
0.0463216
0.0354801
0.0354827
0.0462463
0.0524257
0.0522591
0.0461721
0.0354893
0.0354905
0.0461056
0.0521794
0.0520245
0.0460393
0.0354969
0.0354984
0.0459811
0.051957
0.0518166
0.0459233
0.0355039
0.0355037
0.0458724
0.0517611
0.0516303
0.0458206
0.0355081
0.0355077
0.0457758
0.0515835
0.0514642
0.0457304
0.0355111
0.0355093
0.0456911
0.0514266
0.0513144
0.0456504
0.0355119
0.0355102
0.0456159
0.0512838
0.0511811
0.0455803
0.0355121
0.0355092
0.0455496
0.0511578
0.0510602
0.0455169
0.0355107
0.035508
0.0454894
0.051042
0.0509519
0.0454604
0.0355088
0.0355048
0.0454357
0.0509393
0.0508527
0.0454088
0.0355052
0.0355016
0.0453866
0.0508437
0.0507636
0.0453627
0.0355015
0.0354973
0.0453431
0.0507591
0.0506814
0.0453205
0.0354964
0.0354924
0.0453027
0.0506796