/*--------------------------------*- C++ -*----------------------------------*\
| =========                 |                                                 |
| \\      /  F ield         | OpenFOAM: The Open Source CFD Toolbox           |
|  \\    /   O peration     | Version:  v2006                                 |
|   \\  /    A nd           | Website:  www.openfoam.com                      |
|    \\/     M anipulation  |                                                 |
\*---------------------------------------------------------------------------*/
FoamFile
{
    version     2.0;
    format      ascii;
    class       volScalarField;
    location    "0.049";
    object      omega;
}
// * * * * * * * * * * * * * * * * * * * * * * * * * * * * * * * * * * * * * //

dimensions      [0 0 -1 0 0 0 0];


internalField   nonuniform List<scalar> 
16277
(
0.00810761
0.0081071
0.00810612
0.00810574
0.00810447
0.00810417
0.00810318
0.00810146
0.00809773
0.0080915
0.00808292
0.00807272
0.00806158
0.00804993
0.00803791
0.0080255
0.0080126
0.00799912
0.00798499
0.00797019
0.00795468
0.00793849
0.00792161
0.00790407
0.00788587
0.00786703
0.00784755
0.00782745
0.00780674
0.00778542
0.00776352
0.00774104
0.007718
0.00769443
0.00767033
0.00764573
0.00762064
0.0075951
0.00756912
0.00754273
0.00751594
0.00748879
0.00746131
0.00743351
0.00740543
0.00737709
0.00734853
0.00731978
0.00729086
0.0072618
0.00723264
0.00720341
0.00717415
0.00714488
0.00711565
0.00708647
0.00705739
0.00702845
0.00699968
0.00697112
0.00694282
0.00691483
0.00688724
0.00686021
0.00683411
0.00680974
0.00678902
0.00677667
0.00678516
0.00684369
0.00700294
0.00737738
0.00820728
0.00999261
0.0137362
0.0213694
0.0365807
0.0665561
0.125332
0.238557
0.453989
0.843012
1.40869
1.82857
2.49746
2.99581
3.63571
6.62365
11.4662
14.4696
12.9704
34.2391
105.41
397.792
3406.81
18601.3
254900
251712
37848.9
8638.03
15117.8
52963.2
248576
245280
54893.5
17469.9
20706.1
58055.9
236458
232036
57495.4
21300.7
23279.5
58848.5
226112
223290
58185.3
23405.9
24489.1
58586.9
218921
216055
57190.6
24344.1
24967.5
57663.3
212521
210465
56434.4
24791.8
25247.7
56964
207751
206197
55927
25050.8
25438.6
56495.1
204002
202777
55590.9
25235.4
25590.5
56183.3
200923
199917
55356.9
25384.9
25720.6
55973.4
198293
197435
55193.2
25514.6
25837.7
55834
195974
195222
55088.7
25632.1
25945.7
55742.2
193878
193201
55020.4
25740.2
26045.2
55677.6
191944
191320
54971.2
25839.3
26137.2
55626.6
190129
189545
54930.6
25929.6
26221.6
55581.1
188405
187850
54892.8
26010.9
26296.8
55536.6
186751
186218
54854.2
26082.9
26362.9
55490.2
185151
184635
54812.3
26146.1
26420.8
55439.6
183595
183091
54764.9
26201.3
26471.1
55382.9
182072
181578
54710.8
26249.3
26514.6
55319.2
180576
180090
54649.5
26290.9
26552.3
55248.3
179102
178621
54580.7
26327.1
26584.8
55169.6
177645
177166
54503.7
26358.2
26612.4
55082.3
176197
175720
54417.9
26384.5
26635.2
54986.1
174756
174278
54322.8
26406.2
26653.7
54880.4
173316
172835
54218.2
26423.8
26668
54764.8
171871
171387
54103.5
26437.2
26678.3
54638.9
170419
169929
53978.2
26446.6
26684.4
54502
168955
168457
53841.6
26451.9
26686.3
54353.4
167475
166968
53693.1
26453
26683.9
54192.4
165976
165458
53531.9
26449.6
26676.8
54018.2
164454
163926
53357
26441.4
26664.6
53829.7
162907
162367
53167.6
26428
26646.8
53625.9
161334
160783
52960.9
26408.6
26622.7
53405.1
159734
159171
52732
26382.5
26591.1
53165.1
158106
157533
52485.5
26348.7
26551.4
52906.5
156453
155872
52218.5
26306.3
26502.5
52626.5
154777
154189
51928.2
26254.1
26442.9
52322.5
153082
152490
51612.1
26190.4
26370.7
51992
151375
150783
51267.3
26113.2
26283.7
51631.9
149664
149078
50890.1
26016.6
26178.1
51238.7
147961
147388
50477
25897.8
26051.5
50808.7
146282
145732
50024.5
25757
25901.7
50338.9
144646
144130
49529.3
25589.9
25724.1
49825.7
143077
142609
48987.2
25391.6
25514
49265.5
141603
141200
48395.5
25157.7
25267.1
48655.2
140257
139941
47759.8
24884.5
24979.8
47997.8
139085
138866
47101.8
24571.7
24652.3
47313.2
138140
138017
46412.5
24210.9
24278.2
46598.2
137441
137423
45701
23808
23865
45867.2
137044
137109
44988.2
23374
23424.2
45140.6
136901
137093
44299.1
22924.2
22971.1
44451.8
137044
137380
43654.7
22466.1
22512
43823
137433
137948
43083.3
22012.3
22064
43270.2
138105
138772
42619.3
21592.5
21655.9
42831
139007
139778
42265.8
21224.9
21304.1
42529.9
140070
140913
42005
20916.3
21012.6
42349.3
141247
142145
41864.3
20669.7
20783.2
42266.8
142507
143436
41833.8
20485
20616
42296.9
143810
144743
41912.8
20361.8
20510.1
42431.4
145116
146035
42089.6
20294.6
20461.6
42657
146395
147278
42353.7
20268.3
20463.6
42959.2
147616
148447
42685.9
20294.4
20517.9
43345.6
148755
149521
43074.1
20369.7
20635.2
43809.8
149795
150484
43533.7
20494.3
20785.6
44304.2
150718
151321
44019.9
20648.8
20958.4
44811.2
151511
152027
44515.8
20824.4
21147.9
45314.9
152173
152602
45006.4
21015.1
21347.3
45801.5
152707
153056
45478.9
21214
21550.1
46260.7
153123
153398
45923.2
21414.8
21750.5
46684.4
153431
153645
46332.5
21612.2
21944.1
47069.6
153650
153803
46703.8
21802
22127.6
47414.4
153789
153895
47036
21981.2
22298.4
47719.2
153866
153934
47329.3
22147.4
22454.9
47985.5
153892
153938
47585.8
22299.5
22597.4
48221.2
153878
153909
47809.9
22437.6
22727.2
48432
153819
153844
48006.4
22563.4
22842.9
48610.5
153737
153758
48170.7
22675.2
22946.7
48762.6
153638
153652
48314.1
22775.9
23040.9
48896.9
153514
153524
48438.9
22866.8
23125.5
49010.4
153385
153396
48546.8
22948.4
23203.9
49112.5
153245
153253
48642.9
23021.8
23273.1
49201.6
153095
153092
48724.3
23086
23333.2
49274.3
152935
152945
48797.4
23143.6
23387.3
49341.8
152800
152748
48855.5
23192.2
23449.1
49405.2
152688
152600
48946.2
23226
23468.8
49572.7
152637
151966
48750.9
23134.1
23270.5
48763.5
151419
149524
48552.3
22990.6
21915.8
46328.4
147101
138329
48504.9
22451.9
15522.8
27062.4
124067
139429
60773.3
28132.9
13625.7
7035.77
4374.13
3429.61
3055.14
2533.29
2312.61
2154.67
2089.08
2072.34
2105.93
2203.61
2337.78
2582.13
2861.18
3453.03
3782.14
4729.96
5754.52
7585.7
11740
22961.5
55856.4
128754
405308
435017
139366
61260.8
64741.1
147136
460800
483013
153673
68273.1
68432
155155
489321
495192
156267
69484.9
69771.7
157885
498933
499544
158252
69969.4
69915
158266
499328
499698
158309
69928.2
69920
158333
499531
499646
158323
69891.2
69880.2
158330
499773
499625
158316
69852.1
69823.9
158322
500325
500186
158285
69798.5
69770.8
158278
500311
500175
158262
69739.1
69723.9
158268
500590
501034
158195
69685.8
69666.3
158240
500608
501053
158158
69627.1
69610.7
158211
501200
501633
158103
69572.7
69556.1
158165
501216
501663
158077
69510.4
69489.1
158127
501839
502289
158006
69446.1
69431.6
158061
501880
502324
157980
69402
69389
158047
502494
502949
157939
69347
69328.4
157990
502550
503004
157894
69291.5
69277.3
157951
503173
503624
157842
69245.2
69231.3
157897
503517
503418
157855
69190.8
69172.2
157850
503888
504361
157771
69140.1
69127.1
157804
504253
504158
157783
69102.6
69094
157798
504625
505108
157734
69070.3
69064
157783
505003
504921
157761
69042
69033.8
157783
505377
505866
157717
69008.6
69000.9
157769
505761
505681
157753
68984.3
68981.9
157795
506148
506644
157761
68972.9
68975.3
157847
506542
506465
157843
68968.8
68976.3
157927
506926
507407
157913
68976.6
68986.6
158028
507291
507206
158063
68985.8
68992.6
158172
507672
508160
158184
68993.3
69010.8
158336
508042
507945
158412
69018.8
69046.8
158581
508390
508856
158667
69058.9
69087.2
158877
508432
508878
159005
69099.7
69127.4
159254
509013
509424
159386
69139.1
69164.7
159672
508977
509378
159853
69172.7
69193.5
160182
509502
509894
160387
69199.1
69225.9
160764
509711
509540
161069
69236.8
69264.1
161494
509917
510282
161811
69268.7
69275.4
162280
510081
509882
162642
69245.3
69225.5
163090
510262
510693
163414
69149.5
69110.1
163892
510287
510788
164213
69012.5
68965.9
164704
511062
511703
165018
68861.9
68789.9
165495
511802
512034
165733
68597.8
68421.1
165992
512938
513699
166110
68139.2
67923.1
166187
514550
515734
166207
67563.6
67167.2
166055
517197
519063
165600
66599.2
65987.5
164797
521199
523595
163634
65195.6
64110.8
160210
520947
518286
156587
63258.7
62721.3
154509
524647
521983
155435
62227.9
61194.9
146844
514219
511206
148064
61042.7
60451.5
143525
503161
496310
141154
60067
60147.6
138305
484694
469917
133575
59966.8
60405.9
131346
459386
452591
130259
60998.1
61732.9
130292
434829
406960
120499
62043.4
63383.2
120221
596306
971807
357440
140632
69324.1
172403
728522
656524
186975
74483.7
71835.3
176943
649178
643291
182096
73923.4
70723.6
169801
624837
602404
171153
71643.2
68634.4
155539
574991
548442
158002
70362.3
68878.4
144968
520109
488955
145516
69925.2
68315.5
133173
446019
637327
128239
68613.7
145449
372238
997844
718699
164926
71374.2
74251.3
176617
604958
547816
145641
66684.4
67001.7
146668
513439
478405
135702
65013.6
65536.3
132842
446942
411984
125191
65401.6
68894.4
124042
597351
940036
336333
141842
72661.4
156692
683625
594180
167873
75638.8
72223.1
149723
556574
517937
154119
74456.3
73274.1
140249
468714
666312
135122
75116.5
153427
371089
1.00546e+06
704829
172423
78342.4
79835.9
173119
578391
502061
145910
71451.7
71779.5
136559
451096
654935
136585
74800.7
153058
372658
991433
704740
163107
80643.4
83709.1
176175
580891
512143
151626
77306.6
79445.2
146605
719491
1.03446e+06
391224
161031
80865.2
169658
705380
552174
174432
80252.9
68955.3
137625
486223
664990
139415
74033
148951
343636
902343
623331
153583
75091
78678.2
156838
788257
989472
363529
154647
66557.8
150640
656300
792594
146222
65246.8
128143
288410
833967
1.01279e+06
163612
64905.1
91547.5
198667
809435
827187
160512
58691.9
71132.8
191387
993489
1.0288e+06
196846
73015.6
65748.6
175163
915627
800498
104079
39071.1
153622
341378
806631
935790
160994
81530.6
186071
374681
846904
782206
189899
99498.1
105811
215420
673634
1.09898e+06
482000
226427
127461
186027
959303
827907
373128
190937
103382
174008
697079
575721
185139
104444
193105
393398
916463
716524
171959
107729
107197
180995
574501
927574
390309
190839
106362
168005
713991
572172
175166
105139
185141
379667
913292
699231
164000
104012
103436
171495
565058
909846
379728
182269
102507
162257
686062
552055
169609
101573
179141
369919
886408
658160
157746
100917
100370
165046
534973
875156
364793
175788
98241.6
154658
647327
520784
161579
97607.4
168453
345423
829449
602099
144927
94671.5
95714.2
162730
462744
636221
187850
102103
191832
435777
1.03256e+06
747322
172859
104678
102403
174591
598476
994227
383614
184831
104008
163147
716575
577793
175047
103737
185552
397743
962588
708826
163019
102978
101449
167585
576951
966196
375989
181315
102213
159503
696967
566736
170494
102527
183598
378771
969348
701573
162129
103152
102074
168550
564123
947910
400548
183500
101197
161389
693620
563903
170081
101226
183665
401487
963868
720818
164393
102866
102629
174034
592080
1.02826e+06
437561
194706
112254
151833
814590
731512
316104
165118
93369.7
140758
559190
477462
154235
94684.8
169651
349382
824917
613841
148154
96212.9
96674
157463
501673
844365
349750
170279
95966.7
148396
622627
513188
156187
96107.3
174267
363881
874920
651309
152858
98110.9
98976.8
163830
531167
902599
375232
178760
100403
158608
678552
566345
170177
101247
195797
436292
1.00469e+06
808668
151080
113443
171155
325860
740740
579104
149285
96986.6
99090.9
162946
497331
868697
367878
180026
102553
159103
661339
550015
167673
102790
193498
420775
958424
783207
148922
112833
168737
322811
720216
558981
145908
95871.4
98344.2
161356
486621
857933
366740
178388
102110
158418
650962
549694
172566
103021
196804
428251
977135
795759
153287
115499
173255
331239
735263
578868
151847
99051.3
101385
167755
506420
892531
377598
185129
106197
165139
668540
568271
178842
107072
203536
419443
1.03191e+06
822396
148359
121030
182300
342080
760208
592628
163887
103540
106649
182693
525989
976519
430464
202843
120031
154837
808760
762388
338314
179471
103244
161258
599421
520307
178110
106383
202337
415583
951774
786227
156829
121977
180419
335230
742299
590679
162315
103961
107530
181361
520114
973580
422036
204296
123006
152082
812281
762464
341497
183315
105990
167599
598197
528991
187487
109225
208144
433800
963820
803481
159772
124676
183898
339959
764193
615444
166088
107170
111355
186447
550483
1.02702e+06
435593
213726
131315
151466
855029
835169
364942
197015
119844
159914
714854
684167
332138
178438
106266
168198
562717
514138
189116
110626
209493
432212
968090
810704
160643
127710
188705
344583
768071
618431
173392
111075
115014
195011
556620
1.05039e+06
444430
219494
134939
157614
873643
846962
371141
201702
123675
163200
731197
715815
338797
183249
109708
174970
587494
529180
194107
114074
217380
446725
983636
846264
168550
132797
197153
361856
817556
714748
157049
122010
181435
330597
701855
583627
174895
109828
115596
199169
531061
995676
442103
219174
136107
160750
852835
835694
364687
201142
124900
161288
722022
707484
338839
184890
111646
177281
581159
529454
199315
116874
220497
447053
980352
837023
171435
136101
201126
366945
816202
717919
163251
125437
185683
339113
716254
601245
179267
113339
119129
204989
554478
1.03502e+06
469880
230013
142512
179882
901054
880025
388525
212301
131409
167551
757132
750566
355100
195003
118514
186449
616546
560453
211216
123990
235902
479959
1.03035e+06
892841
185519
145868
216107
398383
886302
773110
171830
134634
200514
363349
778031
705963
169687
129016
191044
342329
704691
587716
184239
117812
125070
210325
546415
1.04825e+06
470130
235598
147978
172906
907475
902900
393179
218395
138886
179481
789699
798832
376946
206154
132947
175480
715858
715286
352286
195579
121104
189152
604011
557224
213106
127218
239276
479140
1.03315e+06
907714
187753
149795
221762
405040
898860
782051
180273
139442
206198
371603
788771
708047
174005
133868
196823
352792
711533
602622
191191
122433
129740
217111
559778
1.0451e+06
488178
243672
153651
192765
925765
919767
413492
226719
143794
183859
815238
832128
390619
213716
139376
182935
746736
745505
367724
204137
127324
199227
624002
580418
225022
134054
250396
489666
1.09629e+06
928654
184360
158613
231058
408293
924419
813174
186436
147888
220387
398099
837151
775148
190097
143854
211963
381539
795294
719370
182514
139971
205051
361108
729567
627662
200744
128701
136239
229072
588629
1.10535e+06
519283
257276
163379
206442
976458
964273
439487
241393
153435
196522
838159
855205
407651
225219
148490
193467
782262
803262
389620
217700
144269
189079
733106
744142
370047
209368
131714
203837
628692
581897
228473
138685
256944
503453
1.07234e+06
927759
200351
163425
242554
433369
936947
835006
198049
154280
227449
407385
852078
772484
194281
149641
220192
391494
798720
734513
191524
146540
212444
370461
743030
632878
207496
134815
142577
236682
596327
1.10247e+06
521982
264094
169507
213617
968743
976790
447049
248435
159665
203788
872063
892553
420930
234249
155462
201355
809033
831432
403700
227324
151501
197171
744903
756556
382237
219642
139677
212325
639107
598210
240034
146596
268431
523966
1.107e+06
966537
212827
171766
253021
449625
978178
863931
206649
162222
236917
420887
881709
803721
203491
157155
230077
406008
833003
758407
200074
154162
223861
389856
775538
662176
218819
142711
150858
250355
625966
1.16233e+06
550796
280025
180399
225851
1.01571e+06
1.02478e+06
475381
265898
170754
219187
899960
916545
440777
248352
165387
212939
837823
871424
423949
241160
162400
210015
796597
829859
410660
235418
158377
204880
758370
771989
391592
227163
144954
220006
645761
608274
248231
152402
277506
531125
1.12993e+06
967589
214447
178642
258865
450120
974585
856104
211691
168260
245730
429795
881486
798676
211634
164039
238309
415818
830899
758610
208739
159974
229826
392813
770436
653107
222711
147300
155957
253523
621195
1.14694e+06
545697
285093
184213
226146
991513
1.00212e+06
469122
267855
174946
221467
894798
923136
447113
254051
170874
219615
829910
863415
429684
247217
167083
216243
785861
803356
409119
239469
153463
231727
670251
632515
260542
161241
292538
556887
1.17172e+06
1.002e+06
228123
188936
271789
469551
1.00388e+06
879570
222731
177657
257471
447347
906923
825754
222680
172926
249631
430536
859569
775338
218841
168300
240434
408720
796085
672983
232785
154976
163982
265152
643265
1.1813e+06
566380
296925
192749
235364
1.02648e+06
1.04474e+06
489452
280437
183977
233185
914280
943283
466782
266482
179738
231849
850592
884348
446036
258935
175392
227378
799914
819435
422442
249854
160974
240323
682710
650856
270057
168856
300589
565539
1.17414e+06
1.00675e+06
239977
195806
282188
484702
1.0249e+06
895424
230560
184719
266729
458098
928007
837400
229644
178933
258452
440654
861589
723595
251721
165353
174827
284998
692371
1.25127e+06
606963
319688
207268
259349
1.07734e+06
1.09232e+06
516713
299318
195774
244893
951010
984693
487253
281718
188199
243335
866338
884473
456751
269484
172545
258864
738447
703826
290486
180734
325211
613546
1.27716e+06
1.08601e+06
253648
210747
301233
513357
1.10123e+06
949443
245324
197472
285706
489106
984438
879637
247398
191735
276919
470481
913723
765647
268088
177295
186919
303628
730442
1.31202e+06
642541
338716
219703
276925
1.12631e+06
1.14235e+06
544494
317102
207429
259017
981145
1.02037e+06
509064
296919
198304
257374
901219
925571
477586
282816
181267
270902
771061
739673
302795
189474
339461
631838
1.31486e+06
1.10965e+06
271610
220167
318098
542122
1.13251e+06
977399
260358
207508
298186
506666
1.01605e+06
894145
258448
199714
286625
481608
928878
780237
276285
183954
193319
311204
750798
1.33193e+06
649434
347136
225731
280175
1.12407e+06
1.14797e+06
548389
323559
211242
268318
976093
995023
506692
300911
191513
285939
814022
779154
314816
199742
360993
675978
1.37513e+06
1.1466e+06
292604
231982
333823
565726
1.16744e+06
1.00325e+06
274516
217473
311525
526702
1.0475e+06
913627
269508
207477
295795
495430
949784
785364
282266
189495
199810
317601
755244
1.33533e+06
660380
355810
231151
287365
1.12936e+06
1.15341e+06
556283
329702
216146
274350
979025
1.00864e+06
515282
307730
195770
291607
826646
788197
324421
204321
363190
670712
1.35842e+06
1.13573e+06
294788
235799
337230
565401
1.16719e+06
985172
281097
219177
311833
519441
1.01105e+06
822863
294837
198165
208177
330155
789558
1.37196e+06
684766
369098
237596
303058
1.1385e+06
1.14364e+06
568452
338836
210039
307873
904607
859079
341238
217742
387209
721878
1.49844e+06
1.2313e+06
306164
249416
361792
614943
1.26058e+06
1.05822e+06
304969
233730
335368
562577
1.08369e+06
882491
318120
211776
221040
355170
848185
1.45901e+06
724707
391728
251911
323694
1.19898e+06
1.20576e+06
595318
357824
220689
320979
943729
894739
353780
228194
402043
745456
1.52256e+06
1.24681e+06
326392
258163
370720
617894
1.26589e+06
1.00201e+06
338724
227790
235620
377110
949813
1.62552e+06
799885
425970
269687
345832
1.29691e+06
1.29969e+06
646462
386112
234865
344355
1.01127e+06
953449
379271
242343
428945
795260
1.61292e+06
1.31031e+06
350376
273168
392295
651611
1.32144e+06
1.04151e+06
352752
239618
247791
390398
988516
1.69003e+06
828255
442179
280226
342768
1.35603e+06
1.371e+06
680449
406605
244918
368684
1.05428e+06
991498
401553
252494
447670
828123
1.66523e+06
1.33404e+06
364984
283713
403876
665681
1.3412e+06
1.04486e+06
358402
245387
253256
394978
990791
1.65978e+06
826087
445625
282412
366471
1.332e+06
1.33915e+06
666104
402602
242580
355903
1.0246e+06
964918
379803
248532
434209
798546
1.57272e+06
1.17715e+06
378370
261238
266429
408313
1.08512e+06
1.77132e+06
870383
469346
291480
379540
1.3955e+06
1.39773e+06
693569
416610
249920
365908
1.06767e+06
1.00635e+06
400871
257848
444860
813806
1.61939e+06
1.21822e+06
390242
266372
268775
406233
1.11602e+06
1.79431e+06
883100
470063
277295
411020
1.3153e+06
1.1914e+06
436310
279758
501043
941927
1.90875e+06
1.47366e+06
406025
308254
442882
733122
1.46515e+06
1.10119e+06
382307
259931
267721
415340
1.03051e+06
1.63578e+06
830475
458506
270017
397322
1.21555e+06
1.11105e+06
408484
272364
471815
871517
1.76196e+06
1.27447e+06
407770
276042
279185
432001
1.15008e+06
1.77327e+06
885056
482832
278427
413030
1.2805e+06
1.15555e+06
434922
280883
482036
882491
1.76888e+06
1.28783e+06
413168
279987
283677
437003
1.17435e+06
1.82331e+06
898869
488331
281051
416069
1.30643e+06
1.11994e+06
453163
286404
299570
512504
1.47105e+06
2.19264e+06
1.06591e+06
545422
305159
474516
1.50373e+06
1.3307e+06
487323
303222
523177
974717
1.99201e+06
1.38675e+06
445343
295111
295374
457124
1.18615e+06
1.54244e+06
525643
308331
569958
1.12006e+06
2.26654e+06
1.50894e+06
485260
308833
311664
506759
1.26686e+06
1.63718e+06
568532
326302
596353
1.16077e+06
2.37668e+06
1.58555e+06
501351
317805
319467
516439
1.33862e+06
1.67964e+06
580623
325819
593168
1.16619e+06
2.38897e+06
1.54158e+06
500012
312990
304956
491670
1.26675e+06
1.5537e+06
610990
334103
329296
552646
1.91952e+06
2.73554e+06
1.3539e+06
641980
329982
542906
1.71575e+06
1.38896e+06
545258
325399
333077
618232
1.60709e+06
1.80831e+06
590701
316812
342491
726814
1.962e+06
2.1587e+06
730540
327005
631804
1.33848e+06
2.79216e+06
1.63988e+06
515605
311169
301710
511263
1.29756e+06
1.40203e+06
562198
302659
296483
559353
1.47114e+06
1.52262e+06
571541
292123
289860
598282
1.53235e+06
1.5157e+06
606884
288239
285372
612190
1.49319e+06
1.45827e+06
610972
283682
280947
606261
1.42243e+06
1.38503e+06
597849
278769
276356
591374
1.34783e+06
1.31178e+06
586745
275037
273901
583698
1.27792e+06
1.24648e+06
582039
273907
274062
581246
1.21757e+06
1.19111e+06
581037
274932
275927
580961
1.16696e+06
1.14513e+06
580789
277576
279003
580386
1.12537e+06
1.10763e+06
579641
280798
282210
578398
1.09165e+06
1.07736e+06
576782
283743
284838
574607
1.06458e+06
1.05327e+06
572087
285902
286504
569017
1.04325e+06
1.03452e+06
565702
286974
286903
561859
1.02684e+06
1.02022e+06
557870
286718
286088
553405
1.01443e+06
1.00949e+06
548921
285352
283962
544006
1.00519e+06
1.00158e+06
539134
282820
281084
533870
998452
995845
528579
280014
278349
523026
993600
991762
517567
277323
275699
511917
990184
988915
506450
274688
273089
500842
987826
986963
495482
272082
270483
490018
986212
985616
484849
269453
267835
479611
985087
984709
474702
266774
265133
469752
984334
984063
465133
264040
262382
460515
983834
983645
456225
261272
259603
451943
983503
983349
447986
258485
256816
444035
983228
983056
440414
255701
254054
436795
982916
982703
433502
252949
251321
430204
982536
982265
427231
250243
248653
424238
982064
981746
421558
247599
246059
418851
981516
981149
416448
245038
243558
414003
980888
980493
411841
242565
241148
409632
980212
979792
407700
240184
238818
405710
979481
979045
403976
237866
236537
402176
978712
978261
400627
235616
234329
398998
977901
977444
397606
233437
232195
396126
977073
976612
394887
231341
230146
393550
976238
975783
392433
229328
228182
391216
975416
974961
390215
227408
226311
389105
974597
974149
388198
225575
224527
387180
973796
973351
386368
223837
222836
385434
973003
972567
384696
222184
221227
383831
972231
971809
383176
220615
219712
382380
971482
971072
381778
219129
218268
381038
970763
970372
380503
217726
216908
379821
970081
969706
379329
216398
215620
378700
969440
969090
378252
215142
214405
377675
968850
968521
377264
213958
213259
376735
968309
968005
376352
212837
212177
375868
967824
967545
375513
211782
211157
375068
967395
967145
374737
210786
210197
374326
967023
966804
374022
209848
209290
373636
966708
966524
373357
208962
208436
372996
966449
966303
372738
208129
207628
372396
966249
966142
372155
207342
206867
371832
966108
966038
371607
206601
206148
371300
966024
965994
371088
205899
205468
370799
965997
965994
370600
205236
204823
370325
966021
966036
370137
204607
204213
369878
966094
966127
369700
204012
203635
369455
966214
966262
369286
203447
203087
369057
966375
966441
368897
202911
202566
368679
966575
966657
368528
202402
202071
368325
966808
966904
368182
201920
201600
367990
967072
967182
367854
201460
201152
367676
967364
967486
367548
201023
200725
367380
967682
967815
367259
200605
200318
367103
968023
968166
366988
200206
199930
366843
968384
968537
366735
199825
199561
366601
968763
968924
366498
199461
199207
366374
969159
969329
366275
199112
198868
366163
969571
969749
366069
198779
198544
365966
969998
970184
365876
198459
198233
365784
970438
970629
365699
198153
197934
365615
970888
971085
365535
197858
197648
365460
971347
971548
365385
197576
197373
365318
971813
972019
365247
197305
197109
365188
972286
972494
365124
197045
196855
365070
972764
972973
365013
196794
196611
364965
973243
973453
364913
196554
196376
364869
973725
973935
364823
196322
196150
364785
974206
974416
364744
196100
195934
364713
974687
974897
364675
195886
195725
364651
975167
975377
364616
195680
195524
364596
975646
975855
364565
195482
195330
364549
976124
976333
364522
195290
195142
364508
976603
976810
364486
195105
194960
364474
977082
977288
364457
194925
194784
364446
977562
977768
364433
194750
194613
364425
978043
978250
364416
194581
194446
364409
978527
978736
364405
194417
194285
364401
979015
979224
364400
194258
194129
364400
979506
979715
364403
194103
193977
364406
979999
980208
364414
193954
193831
364421
980492
980699
364436
193810
193692
364446
980980
981182
364467
193673
193558
364481
981462
981656
364506
193542
193453
364530
981933
982117
364556
193390
193317
364576
982024
982583
364613
193304
193196
364634
983226
983014
364675
193205
193065
364702
983308
983438
364870
193092
192923
364498
983329
983262
364742
192883
192539
363957
982875
985042
365414
193119
193334
366404
988900
998168
371125
195205
196115
372101
993403
981201
361235
191013
188850
356489
963700
105135
57958.3
31320
19290.7
18000.1
12114.4
8885.76
7355.32
6959.67
5245.78
3817.36
2988.61
2263.46
1648.86
1167.97
815.069
573.63
411.561
303.349
229.994
179.254
143.362
117.439
98.3566
84.105
73.3279
65.1984
59.0597
54.6148
51.4843
49.4726
48.3084
47.7832
47.2663
46.3382
45.0641
43.529
41.8436
40.0496
38.2123
36.3241
34.3948
32.4056
30.3409
28.172
25.4109
21.3966
16.3551
11.4254
7.47604
4.67369
2.82281
1.6662
0.986328
0.622063
0.44653
0.367801
0.334605
0.320937
0.314985
0.312024
0.309701
0.307547
0.305496
0.303506
0.301539
0.299564
0.297551
0.295471
0.293296
0.291
0.288558
0.285942
0.283129
0.280094
0.276814
0.273271
0.269443
0.265319
0.260887
0.256139
0.251078
0.245706
0.240036
0.234087
0.227878
0.22144
0.214804
0.208005
0.201081
0.194072
0.187015
0.17995
0.172913
0.165938
0.159056
0.152295
0.14568
0.139232
0.132968
0.126901
0.121043
0.115401
0.10998
0.104782
0.0998084
0.0950565
0.0905261
0.0862094
0.082104
0.0782026
0.0744988
0.0709853
0.0676549
0.0644997
0.0615122
0.0586845
0.056009
0.0534782
0.0510845
0.0488208
0.046681
0.0446572
0.0427441
0.0409347
0.039224
0.0376059
0.0360756
0.0346279
0.0332578
0.0319613
0.0307338
0.0295718
0.028471
0.0274283
0.0264403
0.0255036
0.0246155
0.0237734
0.0229745
0.0222163
0.0214967
0.0208132
0.0201641
0.0195475
0.0189615
0.0184044
0.0178746
0.0173707
0.0168913
0.0164351
0.0160009
0.0155875
0.0151937
0.0148187
0.0144614
0.0141209
0.0137963
0.0134869
0.013192
0.0129108
0.0126427
0.0123869
0.0121429
0.0119102
0.0116883
0.0114765
0.0112746
0.0110819
0.0108982
0.010723
0.0105559
0.0103966
0.0102448
0.0101001
0.00996223
0.00983097
0.00970602
0.00958714
0.0094741
0.00936667
0.00926465
0.00916785
0.00907609
0.00898919
0.00890699
0.00882936
0.00875615
0.00868722
0.00862248
0.00856179
0.00850507
0.00845222
0.00840316
0.00835783
0.00831618
0.00827819
0.00824384
0.00821319
0.00818633
0.00816341
0.00814465
0.00813015
0.00812035
0.00811474
0.00811248
0.00811101
0.00810951
0.00810954
0.00810921
0.00810911
0.0081096
0.00811097
0.0081133
0.00811585
0.00811724
0.0081165
0.00811364
0.00810914
0.00810349
0.00809699
0.00808978
0.00808186
0.00807322
0.0080638
0.00805357
0.00804251
0.00803062
0.0080179
0.00800436
0.00799002
0.00797489
0.00795899
0.00794232
0.0079249
0.00790673
0.00788785
0.00786825
0.00784795
0.00782698
0.00780534
0.00778307
0.00776016
0.00773665
0.00771256
0.0076879
0.0076627
0.00763697
0.00761075
0.00758405
0.0075569
0.00752933
0.00750136
0.00747301
0.00744432
0.00741531
0.00738602
0.00735647
0.0073267
0.00729673
0.00726662
0.00723639
0.0072061
0.00717582
0.00714571
0.00711611
0.00708776
0.00706233
0.00704368
0.00704043
0.00707211
0.00718177
0.00746283
0.00811342
0.009543
0.0126145
0.0190741
0.0323382
0.0588997
0.110774
0.209764
0.394519
0.733243
1.3476
2.45609
4.43432
7.81169
12.9511
19.3024
25.4052
30.6221
37.1953
54.6413
111.223
353.209
1710.32
5117.11
6290.99
6386.72
7291.35
7251.02
7981.94
7894.5
8501.69
8379.9
8920.45
8775.04
9266.59
9104.32
9558.29
9383.65
9807.95
9623.91
10024.4
9832.84
10214
10016.4
10381.3
10178.8
10529.7
10322.9
10661.4
10451
10779
10565.8
10884.6
10669
10980.2
10762.7
11067.3
10848.5
11147.5
10927.7
11221.8
11001.4
11291.3
11070.5
11356.7
11135.6
11418.5
11197.2
11477.2
11255.9
11533.3
11312.1
11587.1
11366.1
11638.9
11417.9
11688.8
11467.6
11737.1
11515
11783
11560.3
11826.6
11603.4
11868.1
11644.4
11907.3
11683.1
11944.1
11719.3
11978.1
11752.4
12008.6
11781.7
12034.6
11806.1
12055
11824.1
12067.9
11833.9
12071.1
11833.1
12062.4
11819
12038.8
11788.7
11996.8
11738.5
11932.9
11664.9
11843.4
11563.3
11725.2
11426
11577.1
11264.9
11404.9
11081.2
11210.9
10879.1
10999.3
10661.3
10775.1
10436.9
10548.1
10217.5
10328.1
10009.4
10120.7
9816.32
9929.56
9641.14
9757.33
9485.99
9605.92
9352.13
9476.4
9239.93
9368.9
9148.88
9282.71
9073.3
9215.46
9015.72
9168.42
8978.37
9142.81
8961.58
9137.42
8963.43
9149.5
8980.96
9175.8
9010.98
9213.14
9050.56
9259.1
9097.02
9311.49
9148.06
9366.01
9200.99
9421.02
9254.17
9475.12
9306.36
9527.63
9356.8
9578.22
9405.44
9626.01
9450.98
9671.3
9493.47
9713.57
9534.14
9753.93
9571.06
9789.53
9604.22
9822.07
9635.12
9852.49
9662.57
9878.3
9684.77
9911.9
9701.73
9944.68
9706.68
9956.06
9552.4
9875.3
8916.44
8755.88
7015.4
4674.66
5045.31
5504.35
3490.19
5966.14
5553.21
3508.21
6015.76
5557.05
3541.25
6029.02
5568.44
3536.54
6023.41
5562.18
3532.02
6009.22
5551.17
3522.94
5995.77
5538.37
3512.41
5981.12
5524.41
3501.57
5964.89