/*--------------------------------*- C++ -*----------------------------------*\
| =========                 |                                                 |
| \\      /  F ield         | OpenFOAM: The Open Source CFD Toolbox           |
|  \\    /   O peration     | Version:  v2006                                 |
|   \\  /    A nd           | Website:  www.openfoam.com                      |
|    \\/     M anipulation  |                                                 |
\*---------------------------------------------------------------------------*/
FoamFile
{
    version     2.0;
    format      ascii;
    class       volScalarField;
    location    "0.05";
    object      Ma;
}
// * * * * * * * * * * * * * * * * * * * * * * * * * * * * * * * * * * * * * //

dimensions      [0 0 0 0 0 0 0];


internalField   nonuniform List<scalar> 
16277
(
0.13939
0.139391
0.13939
0.139389
0.139389
0.139384
0.139371
0.139326
0.139223
0.139061
0.138856
0.13863
0.138397
0.138162
0.137926
0.137685
0.137437
0.13718
0.136911
0.136632
0.136341
0.136038
0.135725
0.135401
0.135066
0.13472
0.134365
0.133999
0.133622
0.133236
0.13284
0.132435
0.132021
0.131599
0.131167
0.130728
0.130282
0.129828
0.129367
0.1289
0.128427
0.127949
0.127466
0.126978
0.126487
0.125992
0.125494
0.124994
0.124492
0.123989
0.123485
0.122981
0.122477
0.121975
0.121474
0.120975
0.12048
0.119987
0.119499
0.119016
0.118538
0.118065
0.1176
0.117141
0.116691
0.116248
0.115815
0.115391
0.114977
0.114573
0.11418
0.113799
0.11343
0.113074
0.112732
0.112402
0.112086
0.111782
0.111486
0.111196
0.110909
0.110632
0.11039
0.110219
0.110144
0.110142
0.110172
0.110207
0.110235
0.110232
0.110211
0.11014
0.109962
0.109664
0.109179
0.108622
0.106571
0.105256
0.108647
0.109316
0.109386
0.108499
0.103772
0.102304
0.108323
0.10945
0.109443
0.108053
0.100955
0.0997104
0.107766
0.109402
0.109288
0.107397
0.0985492
0.0974998
0.10706
0.10917
0.108998
0.106678
0.0965071
0.0956371
0.106346
0.108845
0.108639
0.105946
0.0947946
0.0940424
0.105608
0.108452
0.108215
0.105198
0.0933002
0.0926297
0.104858
0.108009
0.107753
0.104448
0.0919642
0.0913626
0.104117
0.107538
0.107263
0.103703
0.0907488
0.09019
0.103371
0.107033
0.106741
0.102952
0.0896129
0.0890903
0.102623
0.106503
0.106204
0.102209
0.0885507
0.0880582
0.101885
0.10596
0.105652
0.101471
0.0875439
0.087073
0.101149
0.105401
0.105084
0.100735
0.0865782
0.0861243
0.100414
0.104827
0.104502
0.0999975
0.0856446
0.0852036
0.0996765
0.104239
0.103905
0.0992576
0.0847355
0.0843043
0.098935
0.103635
0.103293
0.0985126
0.0838446
0.0834203
0.0981873
0.103015
0.102664
0.0977603
0.0829665
0.0825471
0.0974311
0.102378
0.102017
0.096999
0.0820973
0.0816807
0.096665
0.101724
0.101353
0.0962272
0.0812334
0.0808182
0.0958875
0.10105
0.100669
0.095443
0.0803718
0.0799566
0.0950966
0.100357
0.0999646
0.0946447
0.0795099
0.0790935
0.0942907
0.0996426
0.0992388
0.093831
0.0786453
0.0782264
0.0934688
0.098906
0.0984901
0.0930002
0.0777754
0.077353
0.0926292
0.098146
0.0977174
0.0921508
0.0768981
0.076471
0.09177
0.0973612
0.0969193
0.0912812
0.0760112
0.0755784
0.0908897
0.0965504
0.0960945
0.0903895
0.0751126
0.074673
0.0899865
0.0957121
0.0952416
0.0894742
0.0742001
0.0737528
0.0890587
0.094845
0.0943591
0.0885336
0.0732719
0.0728159
0.088105
0.0939477
0.0934459
0.0875663
0.0723261
0.0718607
0.0871238
0.093019
0.0925008
0.086571
0.0713613
0.0708857
0.086114
0.0920578
0.0915228
0.0855466
0.0703761
0.0698898
0.0850745
0.0910634
0.0905112
0.0844921
0.0693695
0.0688722
0.0840047
0.090035
0.0894655
0.0834073
0.068341
0.0678328
0.0829045
0.0889726
0.0883859
0.0822922
0.0672909
0.0667723
0.0817745
0.0878764
0.0872733
0.081148
0.0662204
0.0656923
0.0806161
0.086748
0.0861294
0.0799767
0.0651316
0.0645955
0.0794321
0.0855897
0.0849572
0.0787815
0.0640276
0.0634856
0.0782262
0.0844049
0.0837608
0.0775669
0.0629131
0.0623682
0.0770038
0.0831986
0.082546
0.0763391
0.0617945
0.0612506
0.0757722
0.0819774
0.0813205
0.0751067
0.0606801
0.0601426
0.0745412
0.0807503
0.0800945
0.0738808
0.0595813
0.0590566
0.0733232
0.0795288
0.078881
0.0726753
0.0585119
0.0580085
0.072134
0.0783276
0.0776965
0.0715076
0.0574894
0.0570175
0.0709929
0.0771648
0.076561
0.0703994
0.0565351
0.0561067
0.0699235
0.0760629
0.075499
0.0693762
0.0556742
0.0553035
0.0689536
0.075048
0.0745382
0.0684677
0.0549354
0.0546412
0.0681124
0.0741494
0.0737101
0.0677054
0.0543525
0.0541648
0.0674345
0.0733976
0.0730466
0.0671244
0.0539671
0.0538989
0.0669588
0.0728341
0.0725836
0.0667599
0.0538022
0.0538652
0.0667137
0.0724854
0.0723469
0.0666366
0.0538772
0.0540751
0.0667171
0.0723711
0.0723523
0.0667678
0.0541987
0.0545175
0.0669665
0.0724922
0.0725854
0.067133
0.0547489
0.0552018
0.0674666
0.0728586
0.0730792
0.0677656
0.0555632
0.0561437
0.0682372
0.0734909
0.0738325
0.0686558
0.0566079
0.0572529
0.0692147
0.0743345
0.0747596
0.069711
0.057771
0.0584535
0.0703328
0.0753311
0.0758159
0.0708807
0.0589977
0.0596936
0.0715398
0.0764338
0.0769585
0.0721175
0.0602428
0.0609339
0.0727942
0.0776044
0.0781506
0.0733824
0.0614709
0.0621407
0.0740578
0.0788059
0.0793557
0.0746384
0.0626483
0.0632823
0.0752959
0.0800033
0.0805406
0.0758529
0.0637472
0.064334
0.0764784
0.0811661
0.0816771
0.0769988
0.064746
0.0652771
0.0775814
0.0822683
0.082742
0.0780547
0.0656292
0.0660995
0.0785858
0.0832896
0.0837174
0.079003
0.0663903
0.0667972
0.0794773
0.0842144
0.0845886
0.0798321
0.0670308
0.067371
0.0802478
0.0850312
0.0853514
0.0805423
0.0675478
0.0678237
0.0808992
0.0857383
0.0860046
0.0811344
0.0679468
0.068163
0.0814348
0.0863364
0.0865506
0.0816142
0.0682377
0.0684011
0.0818622
0.0868303
0.0869963
0.081991
0.0684339
0.0685533
0.0821927
0.0872294
0.0873528
0.0822777
0.0685522
0.0686362
0.0824401
0.0875458
0.0876325
0.0824883
0.0686086
0.0686655
0.0826181
0.0877915
0.0878475
0.0826362
0.0686178
0.0686541
0.0827394
0.0879784
0.088009
0.082733
0.0685915
0.0686129
0.0828151
0.0881172
0.0881273
0.0827895
0.0685398
0.0685503
0.0828548
0.0882168
0.0882104
0.0828147
0.0684702
0.068473
0.082867
0.0882853
0.0882657
0.0828151
0.0683876
0.0683857
0.0828577
0.0883291
0.0882997
0.082798
0.0682981
0.0682935
0.0828334
0.0883543
0.0883179
0.0827677
0.0682042
0.0681993
0.0827984
0.0883656
0.0883188
0.0827238
0.0681044
0.0680998
0.082752
0.0883645
0.0883178
0.0826802
0.0680127
0.0680103
0.082707
0.0883589
0.0883072
0.0826311
0.0679203
0.0679131
0.0826515
0.088343
0.0882898
0.082575
0.067825
0.0678213
0.0825964
0.0883241
0.0882642
0.082514
0.0677297
0.0677351
0.0825421
0.0883036
0.0882464
0.0824634
0.0676488
0.0676491
0.0824861
0.0882807
0.0882228
0.0824097
0.0675652
0.0675647
0.0824301
0.0882554
0.0882014
0.0823564
0.0674848
0.0674952
0.0823888
0.0882547
0.0882117
0.0823245
0.0674114
0.0675168
0.0824037
0.0883019
0.0882867
0.0824101
0.0674945
0.0677133
0.0826169
0.0884751
0.0886383
0.0828539
0.0681337
0.0689703
0.0834235
0.0891681
0.0907125
0.0857228
0.0722825
0.0715715
0.0829887
0.088197
0.0916126
0.0941259
0.0955808
0.0960813
0.0963876
0.0969918
0.0972344
0.0975009
0.0976208
0.097723
0.0977455
0.0977135
0.0976395
0.0974448
0.097243
0.0967368
0.0964487
0.0961267
0.0957312
0.0950536
0.0933245
0.0895849
0.0817659
0.0717815
0.0512238
0.0496304
0.0707509
0.0809363
0.0800948
0.0697883
0.0483516
0.0475394
0.0691513
0.0795613
0.0792954
0.0688961
0.0469569
0.0468617
0.0687695
0.0791892
0.0790798
0.0686591
0.0465325
0.0465234
0.0685895
0.0790866
0.0791004
0.0686003
0.0465361
0.046563
0.0686231
0.0791215
0.0791491
0.0686598
0.0466057
0.0466493
0.0687022
0.0791853
0.079218
0.0687451
0.0466965
0.0467499
0.068795
0.0792587
0.0792974
0.0688443
0.0468055
0.0468615
0.0688969
0.0793406
0.079381
0.0689468
0.0469146
0.0469732
0.069
0.0794242
0.0794686
0.0690554
0.0470331
0.0470916
0.0691103
0.079515
0.0795562
0.0691638
0.0471505
0.0472139
0.0692229
0.0796052
0.0796529
0.0692815
0.0472776
0.0473403
0.0693404
0.0797013
0.0797444
0.0693972
0.0474047
0.0474696
0.0694566
0.0797938
0.079842
0.0695162
0.0475355
0.0476
0.0695767
0.0798927
0.0799388
0.069635
0.0476651
0.0477331
0.0696981
0.0799909
0.0800416
0.0697599
0.0478012
0.0478706
0.069823
0.0800916
0.0801415
0.0698846
0.0479387
0.0480075
0.0699485
0.0801956
0.080245
0.0700125
0.0480798
0.0481501
0.0700781
0.0803001
0.0803516
0.0701413
0.0482196
0.0482924
0.0702082
0.0804069
0.0804609
0.0702749
0.048366
0.0484396
0.0703429
0.0805183
0.0805718
0.0704089
0.0485129
0.0485869
0.0704771
0.0806292
0.0806869
0.0705446
0.0486589
0.0487343
0.0706148
0.0807467
0.0808021
0.0706831
0.0488085
0.0488823
0.0707536
0.0808641
0.0809242
0.0708248
0.0489575
0.0490332
0.0708973
0.0809877
0.081048
0.0709682
0.0491065
0.049181
0.0710419
0.0811134
0.0811785
0.0711157
0.0492541
0.0493285
0.0711914
0.0812471
0.0813123
0.0712657
0.0494013
0.0494748
0.0713436
0.0813843
0.0814562
0.0714231
0.0495482
0.0496215
0.0715043
0.0815322
0.0816068
0.0715848
0.0496918
0.0497645
0.0716696
0.0816879
0.0817682
0.0717558
0.0498365
0.049907
0.0718438
0.0818541
0.0819398
0.0719321
0.0499736
0.0500389
0.072024
0.0820339
0.0821271
0.0721183
0.0501036
0.0501695
0.0722173
0.0822261
0.0823293
0.0723177
0.0502291
0.0502901
0.0724238
0.0824399
0.0825512
0.072534
0.0503518
0.0504107
0.0726488
0.0826704
0.0827937
0.0727664
0.0504661
0.050522
0.0728918
0.0829267
0.0830624
0.073023
0.0505794
0.0506344
0.0731616
0.0832096
0.0833645
0.0733063
0.0506875
0.0507466
0.0734614
0.0835266
0.0836964
0.0736267
0.0508105
0.0508772
0.0738032
0.0838826
0.0840744
0.0739903
0.0509524
0.0510387
0.074193
0.0842795
0.0844967
0.0744096
0.0511352
0.0512476
0.0746439
0.0847288
0.0849717
0.0748976
0.0513819
0.0515447
0.0751773
0.0852358
0.0855147
0.0754818
0.0517422
0.0519848
0.0758149
0.0858053
0.0861182
0.0761707
0.052259
0.0525876
0.0765611
0.0864534
0.0867993
0.07699
0.0529833
0.0534283
0.0774568
0.0871845
0.0875952
0.0779671
0.0539477
0.0545752
0.0785339
0.0880296
0.088484
0.0791579
0.0553117
0.056166
0.079859
0.089007
0.08961
0.0806836
0.0572236
0.0585564
0.081635
0.0902737
0.0909399
0.0826136
0.0598806
0.0611322
0.0835523
0.0915399
0.0920272
0.08433
0.0623459
0.0634134
0.0847725
0.0923503
0.0926056
0.0854137
0.064464
0.0654358
0.085786
0.0928088
0.0929572
0.0861978
0.0665142
0.0676584
0.0866085
0.0931177
0.0931546
0.0868943
0.06868
0.0695826
0.0871544
0.0931421
0.0931189
0.0874415
0.0705886
0.0716818
0.0877223
0.0931117
0.0930738
0.0879529
0.0727817
0.0733728
0.0881441
0.0928912
0.092293
0.0877753
0.0733127
0.0585003
0.0806489
0.0892327
0.0916287
0.0840422
0.0621255
0.0621421
0.0843531
0.0917577
0.0916345
0.0845478
0.0630901
0.0643164
0.0846255
0.0914792
0.0915831
0.0850804
0.0657659
0.0674333
0.0854241
0.0915357
0.0915302
0.0859444
0.0690557
0.0704375
0.0861624
0.0914705
0.0914459
0.0866034
0.0719965
0.0734767
0.0869525
0.0913538
0.0913116
0.0872383
0.0746178
0.0750919
0.0871667
0.0907369
0.0882878
0.0815488
0.0647462
0.0685656
0.0847643
0.0903015
0.0902982
0.0851243
0.0696068
0.0711742
0.0857518
0.0903826
0.0904187
0.0860556
0.072357
0.0735674
0.0862973
0.0902535
0.0901855
0.0865689
0.0746921
0.0753697
0.0865821
0.0898359
0.0892298
0.086128
0.0756179
0.0665709
0.0819052
0.0871889
0.0886337
0.0841309
0.0700235
0.0709131
0.0843654
0.088431
0.0881021
0.0844446
0.0721188
0.0732363
0.0843815
0.0877489
0.0873443
0.0844939
0.0744865
0.0748318
0.0840998
0.0865413
0.0846589
0.0799258
0.0671694
0.0708959
0.0822247
0.0858782
0.0854188
0.0824231
0.0721907
0.0732303
0.0824076
0.0850353
0.0846503
0.0822828
0.0737324
0.073802
0.0815913
0.0835293
0.081854
0.0781538
0.0673983
0.070337
0.079813
0.0824493
0.0816437
0.0792827
0.0707378
0.0715824
0.078843
0.0807212
0.079377
0.0778599
0.071392
0.0662039
0.0748433
0.077751
0.0776929
0.075788
0.0688449
0.0689144
0.074791
0.0763612
0.0747752
0.0736476
0.0688068
0.0677072
0.0717648
0.0724623
0.070137
0.0686636
0.0630617
0.0635667
0.0675673
0.068416
0.0650054
0.0647444
0.061638
0.0568045
0.0609127
0.0618637
0.0586906
0.0581396
0.0559199
0.0517405
0.052626
0.0525399
0.0452009
0.0449135
0.0437109
0.0348568
0.0347524
0.035181
0.0239792
0.0220367
0.0206146
0.0059319
0.00913249
0.0150046
0.029561
0.0279392
0.0283319
0.0536089
0.05194
0.0512237
0.0693145
0.0707721
0.0722015
0.0833252
0.0831567
0.0822588
0.0866989
0.0866292
0.0854389
0.0890301
0.0917213
0.0917644
0.0932327
0.0924469
0.0889904
0.0909102
0.0952141
0.0958729
0.0967938
0.0954885
0.0904541
0.0876853
0.0939765
0.0965424
0.0984206
0.0968037
0.0895474
0.0867413
0.0949293
0.0974794
0.0994194
0.0976722
0.0904461
0.0894086
0.0970003
0.0994294
0.0981306
0.0950491
0.0865065
0.0897483
0.0977899
0.0998455
0.0995818
0.0966386
0.0880658
0.0851294
0.0945214
0.098071
0.0997784
0.0976345
0.0889523
0.0871876
0.0963896
0.0995258
0.0978077
0.0938631
0.0836803
0.0876807
0.096792
0.0994784
0.0992583
0.0961531
0.0866791
0.0831688
0.0934111
0.0973702
0.0992395
0.096443
0.0873712
0.0866727
0.0959917
0.0991362
0.0971887
0.0933074
0.0831618
0.0868073
0.0961614
0.0989611
0.0988477
0.0955763
0.0859991
0.0828313
0.0930426
0.0970046
0.0988771
0.0960697
0.086683
0.0856279
0.0953403
0.0987166
0.0967499
0.0927739
0.082371
0.0865616
0.0959161
0.0986063
0.0987563
0.0952994
0.0853536
0.0837231
0.0941992
0.097985
0.0954367
0.0905442
0.0794922
0.0840899
0.0947839
0.0975078
0.0978737
0.0938542
0.0826992
0.0785683
0.091121
0.0958891
0.0979339
0.0945672
0.0836027
0.0824043
0.0937672
0.097608
0.0953091
0.0905444
0.0787433
0.0836629
0.0945607
0.0975504
0.0977576
0.0938466
0.0826047
0.078753
0.0911049
0.0956022
0.0976681
0.0945625
0.0834757
0.0822572
0.0935652
0.0976414
0.0956256
0.0909965
0.0785888
0.0836405
0.0946664
0.0979894
0.097896
0.0940175
0.0825406
0.0789913
0.0905874
0.0955982
0.0978926
0.094575
0.0836646
0.0824814
0.0939002
0.0978732
0.0957369
0.0907861
0.0793376
0.0845573
0.0953533
0.0980183
0.0982078
0.0942327
0.0829016
0.0786071
0.0903461
0.0960859
0.0983922
0.0949052
0.0833352
0.0810841
0.0929425
0.0971502
0.0996133
0.0966766
0.0863682
0.0858057
0.0961097
0.0996927
0.0977019
0.0934416
0.0826937
0.0868058
0.0968167
0.099844
0.0997069
0.0959826
0.0855144
0.0823306
0.0934245
0.0979362
0.100435
0.0973794
0.0872969
0.0866712
0.09704
0.100604
0.0987327
0.094358
0.083472
0.0874488
0.0977389
0.101107
0.100723
0.0970943
0.0863539
0.0829048
0.0941063
0.0985446
0.101249
0.0978988
0.0875409
0.0870937
0.0978737
0.101432
0.0992763
0.0946291
0.0839234
0.0877367
0.0987053
0.101718
0.10038
0.0964707
0.0851427
0.0889408
0.0995547
0.102503
0.102439
0.0987623
0.0879205
0.0851804
0.0963038
0.100687
0.103186
0.100128
0.089791
0.088965
0.0998064
0.103282
0.101169
0.0965941
0.0857985
0.0897355
0.100629
0.103582
0.102202
0.0982733
0.0869957
0.0911215
0.101387
0.104354
0.10461
0.101069
0.0908013
0.0881724
0.0987597
0.102912
0.105135
0.10241
0.0924755
0.0914038
0.101786
0.105295
0.103395
0.0986681
0.0880258
0.0917874
0.102685
0.105663
0.104156
0.10018
0.0888798
0.0930287
0.103305
0.106206
0.106588
0.103081
0.0927909
0.0900704
0.100853
0.104955
0.10718
0.104492
0.0943147
0.0932855
0.103667
0.107424
0.105405
0.10132
0.0895195
0.0935002
0.104687
0.107643
0.106117
0.102213
0.0907491
0.0950378
0.105534
0.108391
0.108667
0.105002
0.0944505
0.0915451
0.102269
0.106828
0.109267
0.106433
0.0956079
0.0934074
0.104463
0.108258
0.11066
0.107918
0.0977127
0.0965904
0.106963
0.110516
0.108292
0.104102
0.0931052
0.0965029
0.107411
0.110469
0.109383
0.105393
0.0942738
0.0992433
0.109184
0.111944
0.112084
0.108541
0.098524
0.0952333
0.106053
0.110185
0.112619
0.109742
0.0991618
0.096867
0.107719
0.111455
0.113646
0.110988
0.100952
0.0997357
0.109969
0.113467
0.111238
0.106704
0.096045
0.099856
0.110621
0.113407
0.112697
0.109036
0.0981289
0.102451
0.112644
0.115224
0.115433
0.111916
0.101709
0.0981306
0.10965
0.113466
0.11576
0.112859
0.101809
0.0994492
0.110627
0.114482
0.116765
0.113992
0.103296
0.100659
0.11151
0.115274
0.117201
0.11441
0.104311
0.103975
0.114042
0.117497
0.115839
0.111734
0.10123
0.104962
0.115496
0.118281
0.117269
0.113572
0.102782
0.106806
0.116981
0.119558
0.119551
0.115941
0.10574
0.10205
0.113695
0.117518
0.119773
0.116815
0.105517
0.10263
0.114246
0.118196
0.120395
0.117555
0.106365
0.104698
0.115819
0.119518
0.12196
0.119384
0.109313
0.108498
0.11879
0.122137
0.120351
0.115925
0.105654
0.109027
0.119946
0.122666
0.121421
0.117632
0.10644
0.110325
0.121143
0.12376
0.122588
0.119022
0.108283
0.111714
0.121883
0.124524
0.124297
0.120713
0.110455
0.107098
0.118289
0.122404
0.124944
0.122135
0.111223
0.10917
0.120265
0.123991
0.1264
0.123854
0.113158
0.111204
0.121875
0.125406
0.127559
0.12506
0.115183
0.114329
0.124321
0.127604
0.125783
0.121498
0.111264
0.114374
0.125186
0.127921
0.126539
0.122717
0.111676
0.115012
0.125978
0.128734
0.127748
0.124037
0.113185
0.117441
0.127434
0.129965
0.130171
0.126854
0.116674
0.113668
0.123863
0.128408
0.130629
0.128141
0.116876
0.114427
0.125915
0.129574
0.13184
0.129377
0.118192
0.116053
0.127163
0.130704
0.13275
0.130245
0.120059
0.118963
0.129346
0.132648
0.13056
0.125799
0.115516
0.118625
0.129943
0.132685
0.131818
0.127893
0.116568
0.1209
0.131868
0.134486
0.133464
0.129783
0.118972
0.122685
0.133292
0.135801
0.134755
0.131283
0.120717
0.12447
0.134369
0.136816
0.136823
0.133403
0.123616
0.120157
0.131204
0.134954
0.137245
0.134336
0.123295
0.120667
0.132091
0.135892
0.138118
0.135343
0.123938
0.12163
0.13299
0.136887
0.139221
0.136597
0.125845
0.124085
0.134709
0.138305
0.140537
0.138103
0.128224
0.127394
0.137492
0.1407
0.138976
0.134442
0.124441
0.127541
0.138663
0.141221
0.140156
0.136375
0.125088
0.128739
0.1399
0.142507
0.141263
0.137578
0.126522
0.130173
0.140897
0.143433
0.142232
0.138634
0.128041
0.131553
0.141596
0.144191
0.144294
0.141002
0.130774
0.128041
0.137958
0.142614
0.144933
0.142421
0.131175
0.128783
0.140163
0.143984
0.146419
0.143881
0.13263
0.130513
0.14162
0.145293
0.147453
0.144917
0.134088
0.131986
0.142774
0.146375
0.148477
0.145956
0.135922
0.135102
0.145006
0.14853
0.146605
0.142968
0.131343
0.134545
0.145908
0.148901
0.147591
0.143669
0.1319
0.136094
0.147513
0.150196
0.149173
0.145351
0.134188
0.137975
0.149012
0.151609
0.150484
0.146832
0.135897
0.139401
0.15014
0.15271
0.151664
0.148111
0.137508
0.141292
0.151334
0.153786
0.153881
0.150638
0.14034
0.137437
0.14721
0.152108
0.154307
0.151866
0.140311
0.137674
0.149283
0.153176
0.155416
0.152748
0.141125
0.138751
0.150232
0.154152
0.156603
0.153915
0.142765
0.140929
0.151858
0.155606
0.157952
0.155365
0.144585
0.142787
0.153464
0.157039
0.15931
0.156852
0.146928
0.146002
0.156159
0.159438
0.157685
0.153133
0.142946
0.146194
0.157381
0.159984
0.158925
0.155041
0.143863
0.147721
0.158883
0.161491
0.160326
0.156574
0.145504
0.148976
0.159989
0.16261
0.161354
0.157607
0.146758
0.150343
0.160996
0.16361
0.162686
0.159147
0.148588
0.152393
0.16242
0.164873
0.165052
0.161822
0.151569
0.148765
0.158542
0.163366
0.165562
0.163122
0.151428
0.149044
0.160705
0.164627
0.167115
0.164529
0.152821
0.150503
0.162156
0.165942
0.168313
0.165737
0.154347
0.152323
0.163518
0.167196
0.169427
0.166837
0.155841
0.153964
0.164789
0.168415
0.170679
0.168197
0.158072
0.157174
0.167526
0.170863
0.169163
0.164457
0.154273
0.157351
0.168885
0.171508
0.170586
0.166675
0.155136
0.159075
0.170646
0.173245
0.172092
0.168275
0.156752
0.160628
0.171908
0.17451
0.173436
0.169761
0.158697
0.162227
0.173183
0.175783
0.174806
0.171179
0.160365
0.164379
0.174561
0.177024
0.177191
0.1739
0.163386
0.160548
0.170401
0.175489
0.177784
0.175452
0.163415
0.16102
0.172866
0.176853
0.179398
0.176733
0.164876
0.162553
0.174322
0.178244
0.180808
0.178144
0.166432
0.164396
0.175891
0.179719
0.182158
0.179509
0.168104
0.166094
0.17728
0.181074
0.183554
0.180968
0.170037
0.168233
0.179046
0.182671
0.185006
0.182479
0.172397
0.171591
0.181804
0.185302
0.183623
0.179552
0.168448
0.172054
0.183309
0.186206
0.185166
0.181279
0.169752
0.173872
0.185265
0.187879
0.18683
0.18305
0.171795
0.175586
0.186711
0.189324
0.188262
0.184514
0.173642
0.177322
0.188076
0.190667
0.189724
0.186139
0.175449
0.179413
0.189552
0.192043
0.192255
0.188848
0.178395
0.175642
0.186034
0.190647
0.193071
0.190504
0.178883
0.176376
0.188024
0.192002
0.194635
0.191979
0.180285
0.178237
0.189806
0.193633
0.19613
0.193523
0.182036
0.180179
0.191423
0.195195
0.197821
0.195294
0.184243
0.18254
0.19349
0.197066
0.199454
0.197027
0.186774
0.185559
0.196098
0.199645
0.197932
0.193825
0.182355
0.186245
0.19768
0.20067
0.199522
0.195493
0.183717
0.187855
0.199524
0.20227
0.201196
0.19724
0.185717
0.189849
0.201193
0.203875
0.202931
0.199148
0.188017
0.191877
0.202881
0.205495
0.204703
0.201019
0.190055
0.194419
0.204722
0.207248
0.207741
0.204248
0.193639
0.19097
0.201668
0.206275
0.208915
0.206337
0.19465
0.192483
0.204078
0.207993
0.210677
0.208007
0.196254
0.193871
0.205523
0.209519
0.212006
0.209268
0.197709
0.195615
0.20705
0.210955
0.213656
0.211022
0.199828
0.197895
0.209108
0.212832
0.215331
0.21278
0.202212
0.201463
0.212332
0.215886
0.214359
0.209836
0.198754
0.202388
0.21421
0.21703
0.216157
0.212057
0.200244
0.204755
0.216473
0.219182
0.218454
0.214527
0.202906
0.207889
0.219006
0.221469
0.220735
0.21718
0.20611
0.209637
0.220445
0.222997
0.223066
0.21953
0.20814
0.205432
0.216143
0.221365
0.223952
0.221256
0.208717
0.206302
0.218823
0.222983
0.225877
0.223132
0.210749
0.208459
0.220768
0.224883
0.227749
0.224977
0.213103
0.210996
0.222919
0.226905
0.229694
0.226994
0.215862
0.215163
0.226529
0.230412
0.22887
0.224709
0.212021
0.21675
0.228911
0.232095
0.231403
0.227235
0.214658
0.22028
0.2323
0.234882
0.233854
0.22999
0.21791
0.221524
0.23354
0.236326
0.235178
0.231158
0.219083
0.223597
0.235017
0.237814
0.238097
0.234283
0.222164
0.219786
0.230728
0.236517
0.239466
0.236701
0.223703
0.221157
0.234204
0.238544
0.24164
0.238758
0.226015
0.223909
0.236551
0.240841
0.24419
0.241351
0.229023
0.226974
0.239437
0.243559
0.246606
0.2439
0.232247
0.231787
0.24394
0.24776
0.246666
0.241632
0.229996
0.234303
0.247098
0.249917
0.248504
0.244119
0.230993
0.235309
0.248246
0.251259
0.250061
0.245753
0.232808
0.237473
0.250138
0.253086
0.252133
0.247888
0.235167
0.240128
0.252131
0.255031
0.255643
0.251586
0.239093
0.236387
0.248688
0.254012
0.257126
0.254096
0.24094
0.23865
0.251929
0.256423
0.26009
0.257244
0.244346
0.242315
0.255427
0.259681
0.263144
0.260407
0.248212
0.248453
0.261056
0.264758
0.263284
0.257929
0.246535
0.249697
0.262848
0.266008
0.26451
0.259856
0.246261
0.251025
0.264466
0.267672
0.266565
0.261969
0.24849
0.253758
0.266862
0.269914
0.269182
0.264784
0.251622
0.25707
0.26945
0.272454
0.27336
0.269069
0.256268
0.253445
0.26673
0.271817
0.275291
0.271842
0.258744
0.256348
0.269955
0.274626
0.278757
0.275833
0.262701
0.261056
0.274483
0.278754
0.282611
0.280279
0.268823
0.268594
0.280389
0.283846
0.281762
0.276985
0.264165
0.267591
0.281119
0.28447
0.283176
0.278427
0.26443
0.269931
0.28358
0.286759
0.286005
0.281428
0.267506
0.273367
0.286389
0.289457
0.290458
0.286014
0.272421
0.269547
0.283432
0.288937
0.292508
0.28905
0.275342
0.272829
0.287078
0.291943
0.296166
0.293081
0.27975
0.279653
0.293753
0.298304
0.297627
0.292246
0.277918
0.28528
0.299053
0.301991
0.30074
0.296176
0.281963
0.285962
0.300388
0.303801
0.302269
0.297279
0.282428
0.288129
0.302127
0.305548
0.306256
0.301431
0.286809
0.283734
0.298514
0.304585
0.308521
0.304868
0.289809
0.287172
0.302722
0.307931
0.312316
0.30901
0.294569
0.294079
0.309307
0.314181
0.312905
0.306901
0.291275
0.298434
0.313843
0.317374
0.31774
0.31269
0.297146
0.306656
0.320361
0.323021
0.323938
0.319634
0.305126
0.299465
0.315469
0.321207
0.324439
0.320472
0.304507
0.300826
0.317423
0.323043
0.327225
0.323509
0.30817
0.307098
0.323355
0.32863
0.327066
0.320342
0.304098
0.311111
0.327685
0.331668
0.33119
0.325407
0.308412
0.317169
0.332876
0.336377
0.339055
0.333752
0.317158
0.314994
0.331995
0.338451
0.344145
0.341526
0.32617
0.324316
0.339496
0.343999
0.34771
0.344264
0.328864
0.325709
0.342203
0.347577
0.345015
0.338783
0.320562
0.327838
0.345037
0.349471
0.348394
0.342383
0.324471
0.332936
0.349393
0.353308
0.355382
0.349774
0.332375
0.329671
0.347136
0.354147
0.359392
0.355436
0.338262
0.336666
0.354256
0.360101
0.366647
0.363817
0.349051
0.352259
0.3673
0.371083
0.369757
0.364519
0.348844
0.352377
0.368855
0.372967
0.372499
0.366607
0.348718
0.343502
0.363085
0.370003
0.375205
0.370546
0.352179
0.348985
0.368218
0.374492
0.38024
0.376235
0.358884
0.359132
0.377488
0.383265
0.382719
0.375692
0.356816
0.367298
0.384563
0.388537
0.393253
0.387734
0.369497
0.368986
0.38804
0.393837
0.399696
0.395996
0.377822
0.373009
0.393069
0.399317
0.395886
0.388169
0.366354
0.375187
0.395687
0.400856
0.399584
0.392507
0.371482
0.382485
0.401257
0.405793
0.409068
0.402661
0.382905
0.381064
0.401245
0.408893
0.415642
0.411512
0.393701
0.397386
0.416132
0.421493
0.422741
0.417089
0.398007
0.406956
0.425294
0.428909
0.428199
0.422126
0.401371
0.394553
0.416536
0.424881
0.42995
0.424535
0.404272
0.402658
0.424513
0.43159
0.430746
0.422164
0.399628
0.413622
0.433716
0.438616
0.444325
0.437671
0.415912
0.418343
0.439866
0.447024
0.456322
0.453592
0.436048
0.432609
0.452994
0.457975
0.456735
0.449109
0.425232
0.416552
0.442336
0.452773
0.45871
0.452478
0.428634
0.427274
0.453134
0.461452
0.461771
0.452386
0.424865
0.44597
0.467703
0.472192
0.482296
0.478124
0.455626
0.459164
0.481942
0.487785
0.483722
0.47439
0.447637
0.455371
0.480864
0.487677
0.486735
0.478421
0.449497
0.446115
0.477722
0.48777
0.487674
0.47413
0.444616
0.471946
0.495059
0.500043
0.511329
0.506852
0.482482
0.48147
0.508385
0.515274
0.509355
0.49766
0.465988
0.476599
0.505313
0.51314
0.513604
0.504931
0.472582
0.471697
0.508283
0.51797
0.528946
0.517995
0.483969
0.48111
0.51929
0.52885
0.535998
0.527505
0.493061
0.481735
0.521209
0.532514
0.532145
0.519294
0.475956
0.478836
0.525013
0.536986
0.542259
0.528815
0.480299
0.469659
0.523197
0.5411
0.529421
0.510721
0.449684
0.482861
0.523712
0.535612
0.533222
0.521837
0.48089
0.470355
0.516596
0.530659
0.524449
0.508023
0.451919
0.434217
0.495801
0.514396
0.50226
0.48117
0.414164
0.391058
0.46575
0.490055
0.478856
0.451746
0.371065
0.355089
0.440124
0.469571
0.46179
0.430079
0.341502
0.329425
0.420903
0.454847
0.448442
0.412326
0.318503
0.308644
0.404281
0.442463
0.436847
0.396728
0.299654
0.291449
0.389612
0.431526
0.426457
0.382897
0.283963
0.277109
0.376545
0.421608
0.41697
0.370555
0.270867
0.265214
0.364927
0.412535
0.408285
0.359639
0.260103
0.255484
0.354676
0.404202
0.400274
0.350012
0.251295
0.247498
0.34563
0.396487
0.392831
0.341501
0.244059
0.240959
0.337618
0.389291
0.385861
0.33396
0.238172
0.235676
0.330525
0.382535
0.379315
0.327299
0.233447
0.231463
0.324278
0.376199
0.373188
0.321446
0.229701
0.228139
0.318797
0.370277
0.367465
0.316313
0.226755
0.22553
0.31399
0.364749
0.362126
0.311814
0.224455
0.223521
0.30978
0.359599
0.357164
0.307871
0.222713
0.222021
0.306086
0.354824
0.352576
0.304412
0.221428
0.220926
0.302846
0.350422
0.348352
0.301376
0.2205
0.220145
0.300001
0.346372
0.344475
0.298709
0.219848
0.219604
0.2975
0.342668
0.34094
0.296364
0.219407
0.21925
0.295298
0.339297
0.337731
0.294296
0.219126
0.219035
0.293356
0.336246
0.33483
0.292467
0.218976
0.218938
0.291632
0.333487
0.332208
0.29084
0.218926
0.218926
0.290098
0.330997
0.329844
0.289395
0.218944
0.218963
0.288737
0.328753
0.327715
0.288112
0.218994
0.219023
0.287529
0.326736
0.325805
0.286976
0.21906
0.219089
0.286458
0.324925
0.324089
0.285967
0.219124
0.219153
0.285509
0.323303
0.322555
0.285075
0.219186
0.219208
0.28467
0.321849
0.321179
0.284285
0.219236
0.21926
0.283931
0.320552
0.319955
0.283596
0.219288
0.219304
0.283284
0.319393
0.318856
0.282987
0.219322
0.219334
0.282712
0.318354
0.317875
0.282452
0.219349
0.219354
0.28221
0.317424
0.316992
0.281979
0.219362
0.219365
0.281766
0.316588
0.316202
0.281564
0.219371
0.219369
0.281372
0.315836
0.315485
0.281189
0.219371
0.219369
0.281018
0.315156
0.31484
0.280855
0.21937
0.219363
0.2807
0.31454
0.314251
0.280551
0.219358
0.21935
0.280413
0.313981
0.31372
0.280281
0.219345
0.219333
0.280155
0.313473
0.313233
0.280033
0.219323
0.219311
0.279922
0.31301
0.312794
0.279815
0.219302
0.219287
0.279713
0.31259
0.31239
0.279614
0.219273
0.219258
0.279523
0.312205
0.312027
0.279437
0.219246
0.219231
0.279354
0.311857
0.311695
0.279275
0.219215
0.2192
0.279202
0.31154
0.311399
0.279134
0.219188
0.219176
0.279071
0.311259
0.311131
0.279011
0.219164
0.219151
0.278954
0.311002
0.310889
0.278902
0.219142
0.219133
0.278855
0.310772
0.310672
0.278811
0.219127
0.219119
0.27877
0.310565
0.310478
0.278734
0.219116
0.219112
0.278701
0.310381
0.310304
0.278671
0.219113
0.219112
0.278644
0.310215
0.310148
0.278621
0.219116
0.21912
0.278599
0.310068
0.31001
0.278583
0.219128
0.219136
0.278566
0.309938
0.309889
0.278557
0.21915
0.219164
0.278547
0.309825
0.309785
0.278544
0.219182
0.2192
0.27854
0.309727
0.309697
0.278543
0.219224
0.219248
0.278545
0.309647
0.309624
0.278554
0.219277
0.219305
0.278562
0.309579
0.309565
0.278576
0.219338
0.219372
0.27859
0.309528
0.309521
0.278609
0.21941
0.219448
0.278627
0.309489
0.309491
0.278653
0.21949
0.219533
0.278676
0.309465
0.309474
0.278706
0.219578
0.219625
0.278733
0.309452
0.309468
0.278767
0.219674
0.219725
0.2788
0.309452
0.309473
0.278838
0.219777
0.219831
0.278874
0.309462
0.30949
0.278916
0.219887
0.219943
0.278956
0.309484
0.309516
0.279002
0.220002
0.220061
0.279045
0.309514
0.309552
0.279094
0.220122
0.220184
0.279141
0.309555
0.309596
0.279193
0.220248
0.220312
0.279243
0.309604
0.30965
0.279298
0.220378
0.220444
0.279351
0.309661
0.309711
0.279409
0.220511
0.220579
0.279465
0.309726
0.30978
0.279525
0.220649
0.22072
0.279585
0.309799
0.309858
0.279648
0.220792
0.220864
0.279709
0.30988
0.309942
0.279775
0.220938
0.221012
0.27984
0.309968
0.310034
0.279908
0.221087
0.221162
0.279975
0.310062
0.310132
0.280045
0.221238
0.221316
0.280114
0.310163
0.310235
0.280187
0.221393
0.221471
0.280257
0.310269
0.310344
0.280332
0.221549
0.221628
0.280404
0.310381
0.310459
0.28048
0.221707
0.221787
0.280554
0.310497
0.310577
0.280632
0.221866
0.221946
0.280707
0.310618
0.3107
0.280786
0.222026
0.222106
0.280862
0.310742
0.310826
0.280942
0.222186
0.222266
0.281019
0.31087
0.310955
0.281099
0.222346