/*--------------------------------*- C++ -*----------------------------------*\
| =========                 |                                                 |
| \\      /  F ield         | OpenFOAM: The Open Source CFD Toolbox           |
|  \\    /   O peration     | Version:  v2006                                 |
|   \\  /    A nd           | Website:  www.openfoam.com                      |
|    \\/     M anipulation  |                                                 |
\*---------------------------------------------------------------------------*/
FoamFile
{
    version     2.0;
    format      ascii;
    class       volScalarField;
    location    "0.05";
    object      T;
}
// * * * * * * * * * * * * * * * * * * * * * * * * * * * * * * * * * * * * * //

dimensions      [0 0 0 1 0 0 0];


internalField   nonuniform List<scalar> 
16277
(
298.839
298.839
298.839
298.839
298.839
298.839
298.839
298.84
298.841
298.844
298.847
298.851
298.854
298.858
298.862
298.866
298.87
298.874
298.879
298.883
298.888
298.893
298.898
298.903
298.909
298.914
298.92
298.926
298.932
298.938
298.945
298.951
298.957
298.964
298.971
298.978
298.985
298.992
298.999
299.006
299.013
299.021
299.028
299.035
299.043
299.05
299.058
299.065
299.073
299.08
299.088
299.095
299.102
299.11
299.117
299.124
299.131
299.139
299.146
299.152
299.159
299.166
299.172
299.179
299.185
299.191
299.197
299.203
299.209
299.214
299.22
299.225
299.23
299.235
299.24
299.244
299.248
299.252
299.256
299.26
299.264
299.268
299.271
299.273
299.273
299.274
299.273
299.273
299.273
299.273
299.273
299.274
299.276
299.279
299.285
299.291
299.316
299.322
299.29
299.281
299.281
299.292
299.331
299.341
299.295
299.282
299.282
299.298
299.346
299.353
299.301
299.284
299.286
299.304
299.355
299.359
299.308
299.289
299.291
299.311
299.361
299.363
299.314
299.293
299.296
299.316
299.364
299.365
299.319
299.298
299.3
299.321
299.365
299.366
299.324
299.303
299.305
299.326
299.366
299.367
299.328
299.307
299.309
299.33
299.367
299.368
299.332
299.312
299.314
299.334
299.368
299.369
299.336
299.316
299.318
299.337
299.369
299.37
299.34
299.321
299.322
299.341
299.37
299.371
299.343
299.325
299.327
299.344
299.371
299.372
299.347
299.329
299.331
299.348
299.372
299.374
299.35
299.334
299.335
299.351
299.374
299.376
299.354
299.338
299.34
299.355
299.376
299.378
299.358
299.343
299.345
299.359
299.378
299.38
299.362
299.348
299.35
299.363
299.381
299.383
299.366
299.353
299.355
299.368
299.384
299.386
299.371
299.358
299.36
299.372
299.387
299.39
299.376
299.363
299.365
299.377
299.391
299.393
299.38
299.369
299.371
299.382
299.394
299.397
299.386
299.375
299.377
299.387
299.398
299.402
299.391
299.381
299.383
299.393
299.403
299.406
299.397
299.387
299.389
299.398
299.407
299.411
299.403
299.394
299.396
299.404
299.412
299.416
299.409
299.401
299.403
299.41
299.418
299.422
299.415
299.408
299.41
299.417
299.423
299.427
299.422
299.415
299.418
299.424
299.429
299.433
299.429
299.423
299.425
299.431
299.435
299.44
299.436
299.431
299.433
299.438
299.442
299.446
299.444
299.439
299.442
299.446
299.448
299.453
299.452
299.447
299.45
299.454
299.455
299.46
299.46
299.456
299.459
299.462
299.463
299.468
299.468
299.465
299.468
299.47
299.47
299.476
299.476
299.474
299.477
299.479
299.478
299.484
299.485
299.484
299.487
299.488
299.486
299.492
299.494
299.493
299.496
299.497
299.494
299.5
299.503
299.503
299.506
299.506
299.502
299.508
299.512
299.513
299.516
299.515
299.511
299.517
299.521
299.522
299.525
299.524
299.519
299.525
299.53
299.532
299.534
299.533
299.527
299.533
299.539
299.541
299.544
299.541
299.535
299.541
299.547
299.55
299.552
299.549
299.543
299.548
299.555
299.558
299.56
299.557
299.55
299.555
299.562
299.565
299.567
299.564
299.556
299.561
299.568
299.572
299.574
299.569
299.562
299.566
299.573
299.578
299.579
299.574
299.567
299.569
299.577
299.582
299.582
299.578
299.57
299.572
299.58
299.585
299.585
299.58
299.572
299.573
299.581
299.585
299.585
299.58
299.573
299.572
299.58
299.585
299.583
299.578
299.572
299.571
299.578
299.582
299.58
299.575
299.569
299.568
299.574
299.578
299.574
299.57
299.564
299.563
299.568
299.573
299.568
299.563
299.559
299.557
299.561
299.565
299.56
299.556
299.553
299.551
299.554
299.557
299.551
299.548
299.546
299.543
299.545
299.548
299.541
299.539
299.538
299.536
299.536
299.538
299.531
299.53
299.53
299.528
299.527
299.528
299.521
299.52
299.523
299.521
299.518
299.517
299.511
299.511
299.515
299.513
299.509
299.508
299.501
299.503
299.508
299.506
299.5
299.498
299.492
299.495
299.501
299.499
299.492
299.489
299.483
299.487
299.495
299.493
299.485
299.481
299.476
299.481
299.489
299.488
299.479
299.474
299.469
299.475
299.484
299.483
299.473
299.468
299.464
299.47
299.48
299.479
299.468
299.462
299.459
299.465
299.476
299.475
299.464
299.458
299.455
299.462
299.473
299.472
299.461
299.454
299.452
299.459
299.469
299.468
299.458
299.451
299.449
299.456
299.466
299.466
299.456
299.449
299.448
299.454
299.464
299.463
299.454
299.448
299.447
299.452
299.461
299.46
299.452
299.447
299.446
299.451
299.458
299.458
299.451
299.446
299.446
299.45
299.457
299.457
299.45
299.446
299.445
299.449
299.456
299.453
299.448
299.444
299.444
299.448
299.454
299.454
299.448
299.443
299.442
299.447
299.454
299.455
299.447
299.441
299.439
299.446
299.456
299.458
299.447
299.439
299.436
299.444
299.456
299.456
299.444
299.435
299.437
299.446
299.46
299.455
299.442
299.433
299.436
299.445
299.457
299.455
299.444
299.435
299.432
299.439
299.448
299.455
299.445
299.437
299.434
299.441
299.45
299.443
299.438
299.433
299.437
299.443
299.447
299.439
299.437
299.433
299.436
299.439
299.441
299.441
299.439
299.437
299.434
299.437
299.44
299.443
299.44
299.437
299.435
299.438
299.439
299.431
299.43
299.43
299.436
299.44
299.434
299.429
299.431
299.433
299.438
299.431
299.425
299.422
299.422
299.423
299.423
299.423
299.424
299.425
299.425
299.427
299.428
299.43
299.432
299.434
299.436
299.44
299.444
299.449
299.459
299.463
299.45
299.467
299.507
299.483
299.469
299.463
299.465
299.473
299.482
299.486
299.472
299.464
299.465
299.469
299.473
299.469
299.472
299.47
299.472
299.473
299.473
299.476
299.473
299.47
299.471
299.474
299.476
299.477
299.475
299.471
299.469
299.472
299.473
299.478
299.475
299.47
299.47
299.473
299.476
299.475
299.473
299.47
299.473
299.476
299.48
299.476
299.474
299.471
299.472
299.475
299.475
299.478
299.477
299.473
299.47
299.475
299.476
299.483
299.477
299.472
299.471
299.477
299.483
299.481
299.475
299.469
299.471
299.476
299.482
299.48
299.476
299.472
299.473
299.476
299.479
299.481
299.479
299.475
299.475
299.478
299.478
299.478
299.479
299.475
299.474
299.478
299.479
299.478
299.477
299.472
299.474
299.479
299.481
299.482
299.48
299.477
299.478
299.481
299.482
299.482
299.482
299.481
299.481
299.481
299.477
299.477
299.481
299.48
299.48
299.481
299.478
299.478
299.481
299.479
299.479
299.481
299.478
299.479
299.48
299.478
299.477
299.48
299.479
299.484
299.482
299.477
299.476
299.483
299.488
299.49
299.484
299.477
299.477
299.485
299.491
299.49
299.484
299.477
299.477
299.483
299.485
299.482
299.481
299.476
299.476
299.48
299.481
299.482
299.48
299.474
299.473
299.48
299.485
299.489
299.481
299.473
299.474
299.482
299.49
299.49
299.482
299.475
299.476
299.483
299.488
299.488
299.483
299.477
299.477
299.483
299.486
299.481
299.481
299.477
299.477
299.481
299.48
299.479
299.481
299.477
299.477
299.481
299.479
299.485
299.484
299.476
299.477
299.488
299.496
299.5
299.489
299.478
299.479
299.49
299.5
299.498
299.489
299.48
299.48
299.488
299.495
299.493
299.487
299.48
299.479
299.485
299.485
299.479
299.483
299.479
299.476
299.482
299.479
299.482
299.482
299.473
299.473
299.483
299.489
299.499
299.486
299.473
299.471
299.488
299.508
299.508
299.486
299.468
299.467
299.485
299.507
299.505
299.486
299.467
299.467
299.487
299.506
299.51
299.49
299.467
299.467
299.49
299.514
299.515
299.49
299.467
299.47
299.489
299.513
299.512
299.49
299.473
299.481
299.492
299.51
299.492
299.492
299.489
299.485
299.487
299.47
299.466
299.478
299.469
299.455
299.47
299.465
299.475
299.468
299.448
299.444
299.466
299.49
299.485
299.46
299.437
299.433
299.451
299.471
299.458
299.445
299.43
299.421
299.445
299.466
299.476
299.443
299.417
299.407
299.434
299.474
299.474
299.431
299.405
299.409
299.434
299.48
299.472
299.437
299.427
299.43
299.448
299.474
299.496
299.459
299.415
299.387
299.477
299.597
299.644
299.486
299.392
299.434
299.489
299.621
299.528
299.485
299.47
299.474
299.472
299.498
299.508
299.44
299.462
299.435
299.417
299.591
299.302
299.955
299.254
299.439
299.487
299.537
299.424
299.436
299.449
299.412
299.424
299.429
299.391
299.418
299.418
299.374
299.42
299.465
299.629
299.461
299.322
299.282
299.496
299.796
299.868
299.527
299.291
299.362
299.523
299.768
299.558
299.49
299.423
299.444
299.386
299.51
299.617
299.32
299.423
299.154
300.116
299.162
299.766
299.501
299.313
299.448
299.454
299.548
299.44
299.484
299.489
299.473
299.471
299.454
299.52
299.487
299.451
299.426
299.477
299.516
299.486
299.509
299.408
299.424
299.566
299.378
299.824
299.151
299.525
299.408
299.501
299.671
299.571
299.493
299.467
299.486
299.486
299.505
299.522
299.484
299.497
299.512
299.44
299.558
299.678
299.354
299.466
299.174
300.174
299.197
299.772
299.525
299.395
299.553
299.476
299.538
299.546
299.509
299.53
299.528
299.467
299.593
299.69
299.407
299.511
299.221
300.201
299.263
299.713
299.547
299.481
299.518
299.521
299.607
299.634
299.505
299.518
299.517
299.446
299.743
299.296
300.312
299.165
299.585
299.581
299.615
299.595
299.581
299.573
299.597
299.593
299.598
299.602
299.599
299.611
299.623
299.603
299.59
299.643
299.645
299.644
299.645
299.729
299.641
299.976
299.241
299.89
299.711
299.732
299.733
299.741
299.743
299.752
299.762
299.762
299.759
299.767
299.78
299.798
299.847
299.848
299.857
299.859
299.867
299.872
299.816
299.795
299.769
299.739
299.735
299.744
299.619
299.604
299.628
299.499
299.521
299.532
299.477
299.473
299.485
299.421
299.42
299.418
299.407
299.416
299.45
299.373
299.38
299.381
299.403
299.38
299.507
298.589
300.738
298.801
299.394
298.954
299.825
299.443
299.326
299.334
299.331
299.326
299.418
299.402
299.333
299.328
299.358
299.388
299.417
299.462
299.364
299.328
299.33
299.351
299.428
299.34
299.348
299.322
299.379
299.378
299.396
299.409
299.364
299.365
299.337
299.378
299.42
299.372
299.382
299.396
299.325
299.423
299.596
299.631
299.513
299.276
299.236
299.283
299.414
299.398
299.348
299.299
299.309
299.327
299.341
299.305
299.308
299.296
299.362
299.313
299.226
299.228
299.287
299.363
299.331
299.352
299.333
299.297
299.359
299.359
299.43
299.408
299.361
299.448
299.389
299.395
299.279
299.374
299.513
299.543
299.452
299.335
298.787
300.884
299.274
299.919
299.232
299.359
299.225
299.353
299.864
300.37
298.772
299.501
299.196
299.451
299.471
299.514
299.413
299.325
299.002
300.218
299.013
299.523
299.235
299.379
299.315
299.312
299.493
299.868
298.735
299.483
299.229
299.391
299.274
299.346
299.382
299.267
299.624
298.637
299.848
299.263
299.458
299.26
299.328
299.385
299.37
298.905
300.101
299.029
299.372
299.212
299.435
299.422
299.272
299.344
298.9
300.252
298.819
299.496
299.139
299.416
299.31
299.23
299.512
298.615
300.671
298.679
299.307
298.917
299.806
299.451
299.291
299.28
299.273
299.267
299.321
299.336
299.292
299.253
299.266
299.249
299.276
299.251
299.292
299.321
299.317
299.347
299.356
299.442
299.411
299.262
299.24
299.266
299.322
299.349
299.295
299.235
299.191
299.303
299.344
299.21
299.195
299.15
299.16
299.256
299.268
299.214
299.206
299.236
299.133
299.194
299.224
299.158
299.206
299.252
298.662
300.424
298.337
299.525
298.887
299.294
299.216
299.143
299.219
299.22
299.199
299.251
299.254
299.236
299.222
299.277
299.278
299.272
299.23
299.267
299.284
299.389
299.301
299.258
298.838
300.289
298.76
299.54
298.999
299.248
299.193
299.176
299.371
299.238
299.184
299.196
299.194
299.21
299.231
299.225
299.203
299.196
299.208
299.197
299.202
299.249
299.215
299.258
298.844
300.21
298.562
299.509
298.961
299.257
299.222
299.211
299.382
299.295
299.178
299.19
299.162
299.207
299.298
299.273
299.226
299.168
299.155
299.169
299.24
299.297
299.219
299.133
299.533
297.987
300.162
298.857
299.513
299.038
299.187
299.239
299.22
299.225
299.199
299.133
299.153
299.189
299.247
298.625
299.82
298.914
299.221
298.939
299.343
299.297
299.203
299.214
299.088
299.119
299.302
299.335
299.188
299.063
299.27
298.733
299.609
299.086
299.278
299.065
299.129
299.188
299.217
299.185
299.113
299.09
299.097
299.16
299.223
299.611
298.542
299.342
299.003
299.324
298.972
299.139
299.123
299.078
299.072
299.107
299.087
299.114
299.098
299.09
298.839
299.702
298.583
299.236
298.835
299.126
299.063
299.076
299.107
299.121
299.041
299.026
299.013
299.097
299.205
300.003
297.766
299.427
298.877
299.767
298.405
299.177
298.965
299.073
298.992
299.025
299.056
299.133
299.055
299.054
299.01
299.05
299.066
299.091
299.057
298.983
299
298.984
299.136
299.071
299.031
298.986
299.01
299.031
299.086
299.072
298.992
298.975
298.968
299.051
299.128
300.028
297.643
299.395
298.802
299.773
298.302
299.167
298.929
299.049
298.945
298.975
299.07
299.104
299
298.973
298.953
298.971
299.023
299.059
298.982
298.965
298.669
299.749
298.392
299.235
298.653
298.998
298.937
298.977
299.039
299.036
298.921
298.919
298.909
298.966
299.057
299.006
298.913
298.896
298.914
298.958
299.024
299.444
298.291
299.151
298.811
299.258
298.676
299.003
298.887
298.913
298.884
298.898
298.962
298.967
298.921
298.888
298.873
298.884
298.932
298.974
298.9
298.889
298.689
299.41
298.534
299.083
298.66
298.9
298.844
298.897
298.947
298.929
298.851
298.837
298.825
298.874
298.934
298.876
298.833
298.821
298.86
298.85
298.939
298.01
300.028
298.419
298.991
298.099
299.463
298.782
298.921
298.796
298.809
298.824
298.868
298.919
298.85
298.778
298.77
298.789
298.861
298.922
298.805
298.816
298.346
300.078
297.921
299.422
298.031
298.957
298.741
298.837
298.763
298.812
298.762
298.749
298.732
298.803
298.83
298.815
298.728
298.7
298.691
298.745
298.831
298.792
298.699
298.687
298.71
298.772
298.828
299.656
297.54
299.079
298.512
299.468
298.116
298.851
298.624
298.756
298.677
298.69
298.783
298.8
298.708
298.662
298.65
298.665
298.762
298.768
298.698
298.661
298.646
298.661
298.711
298.78
298.679
298.679
298.284
299.787
297.887
299.214
298.044
298.776
298.6
298.691
298.682
298.708
298.637
298.617
298.62
298.661
298.723
298.703
298.609
298.586
298.59
298.652
298.716
298.666
298.601
298.58
298.629
298.615
298.732
297.752
299.86
298.219
298.798
297.743
299.322
298.543
298.673
298.527
298.55
298.571
298.628
298.624
298.602
298.557
298.524
298.554
298.62
298.637
298.573
298.52
298.495
298.51
298.597
298.654
298.594
298.512
298.935
297.019
299.745
297.697
299.496
298.28
298.561
298.44
298.59
298.564
298.464
298.483
298.439
298.485
298.584
298.567
298.448
298.434
298.445
298.48
298.571
298.534
298.445
298.425
298.432
298.482
298.546
298.492
298.438
298.416
298.459
298.432
298.578
297.182
300.115
297.927
298.757
297.079
299.502
298.266
298.524
298.324
298.366
298.405
298.409
298.418
298.421
298.372
298.338
298.365
298.448
298.441
298.378
298.319
298.3
298.323
298.408
298.422
298.353
298.306
298.301
298.314
298.38
298.467
298.342
298.331
298.041
299.238
297.674
298.824
297.777
298.429
298.255
298.33
298.321
298.347
298.277
298.262
298.268
298.315
298.355
298.367
298.263
298.24
298.24
298.299
298.374
298.33
298.235
298.205
298.211
298.265
298.345
298.291
298.212
298.197
298.242
298.212
298.376
297.085
299.79
297.767
298.492
297.074
299.156
298.174
298.252
298.103
298.117
298.14
298.272
298.23
298.217
298.143
298.127
298.152
298.254
298.25
298.178
298.123
298.089
298.115
298.211
298.226
298.145
298.093
298.078
298.091
298.182
298.263
298.11
298.114
297.781
299.199
297.311
298.699
297.456
298.235
298.007
298.097
298.116
298.145
298.014
298.008
298.017
298.091
298.128
298.144
298.023
297.999
298.002
298.059
298.144
298.098
297.997
297.964
297.972
298.029
298.11
298.046
297.97
297.956
298.007
297.968
298.16
296.546
299.835
297.476
298.365
296.443
299.167
297.861
297.983
297.858
297.862
297.891
297.979
297.958
297.967
297.873
297.864
297.893
298.01
297.982
297.922
297.861
297.819
297.849
297.96
297.97
297.874
297.81
297.791
297.814
297.932
297.946
297.853
297.803
297.77
297.793
297.896
297.942
297.855
297.769
297.896
297.415
298.238
297.641
298.046
297.647
297.75
297.75
297.928
297.845
297.753
297.71
297.72
297.752
297.887
297.853
297.714
297.68
297.696
297.759
297.869
297.825
297.688
297.656
297.671
297.73
297.838
297.775
297.656
297.629
297.649
297.681
297.856
297.099
298.487
297.443
297.752
297.119
298.176
297.718
297.664
297.581
297.561
297.595
297.736
297.72
297.64
297.571
297.534
297.559
297.719
297.715
297.602
297.545
297.492
297.528
297.673
297.676
297.566
297.501
297.456
297.485
297.612
297.662
297.553
297.463
297.625
296.968
298.073
297.317
297.786
297.325
297.447
297.461
297.633
297.546
297.444
297.396
297.409
297.451
297.594
297.552
297.385
297.349
297.368
297.435
297.565
297.499
297.351
297.313
297.329
297.391
297.514
297.445
297.302
297.277
297.281
297.342
297.518
296.985
297.864
297.175
297.355
296.841
297.78
297.329
297.313
297.22
297.209
297.211
297.375
297.356
297.308
297.202
297.162
297.206
297.361
297.384
297.251
297.185
297.114
297.154
297.33
297.341
297.214
297.134
297.075
297.112
297.26
297.316
297.14
297.07
297.023
297.432
297.037
297.327
296.898
297.079
297.005
297.163
297.196
297.211
297.003
296.968
296.97
297.074
297.179
297.172
296.942
296.922
296.945
297.014
297.162
297.088
296.923
296.882
296.922
296.92
297.213
295.958
298.331
296.575
297.035
296.221
297.651
297.096
296.839
296.845
296.823
296.805
297.001
296.954
296.918
296.781
296.758
296.781
296.974
296.986
296.84
296.783
296.704
296.742
296.9
296.947
296.847
296.699
296.923
295.754
297.708
296.393
297.174
296.503
296.64
296.671
296.791
296.787
296.67
296.569
296.607
296.585
296.868
296.752
296.576
296.538
296.546
296.64
296.765
296.689
296.523
296.478
296.534
296.504
296.874
295.243
298.27
296.112
296.656
295.646
297.362
296.727
296.385
296.443
296.396
296.377
296.571
296.517
296.471
296.324
296.288
296.316
296.556
296.55
296.384
296.3
296.246
296.267
296.447
296.526
296.283
296.224
296.041
297.046
295.67
296.594
295.99
296.181
296.145
296.244
296.424
296.375
296.133
296.09
296.085
296.206
296.385
296.295
296.074
296.033
296.049
296.135
296.327
296.223
296.023
295.993
295.995
296.053
296.332
295.664
296.674
295.889
296.029
295.681
296.44
296.14
296.004
295.905
295.847
295.848
296.189
296.087
295.958
295.823
295.733
295.756
296.024
296.101
295.774
295.723
295.496
297.042
294.821
296.112
295.533
295.728
295.685
295.714
296.071
295.903
295.628
295.599
295.588
295.745
295.912
295.839
295.574
295.518
295.531
295.637
295.862
295.756
295.503
295.468
295.434
295.595
295.779
295.912
295.363
295.5
295.31
295.596
295.477
295.658
295.43
295.37
295.236
295.342
295.57
295.603
295.303
295.239
295.131
295.2
295.412
295.474
295.217
295.082
295.184
295.318
295.483
295.389
295.142
295.057
295.083
295.217
295.43
295.349
295.039
294.975
295.003
295.124
295.37
295.246
294.961
294.904
294.864
295.034
295.311
295.254
295.088
294.927
294.788
294.843
295.151
295.146
294.915
294.798
294.681
294.735
295.045
295.054
294.777
294.605
294.619
294.739
294.945
294.842
294.549
294.459
294.511
294.646
294.907
294.819
294.48
294.401
294.438
294.603
294.876
294.733
294.421
294.341
294.321
294.462
294.858
294.503
294.781
294.321
294.285
294.174
294.725
294.63
294.411
294.225
294.104
294.174
294.517
294.558
294.249
294.04
294.076
294.309
294.439
294.459
293.804
293.937
293.883
294.009
294.238
294.103
293.823
293.706
293.659
293.879
294.203
294.378
293.784
293.802
293.66
293.731
294.113
294.14
293.889
293.684
293.553
293.661
293.987
294.144
293.682
293.52
293.49
294.07
293.624
294.035
293.294
293.433
293.353
293.574
293.833
293.811
293.252
293.213
293.111
293.356
293.758
293.551
293.314
293.097
293.045
292.543
293.851
293.257
293.061
292.876
292.758
292.88
293.223
293.307
293.083
292.766
292.936
292.388
293.975
293.103
292.871
292.611
292.695
292.893
293.243
293.042
292.644
292.519
292.472
292.662
293.198
292.763
292.876
292.469
292.327
292.191
292.964
292.66
292.444
292.217
291.987
292.101
292.544
292.415
291.938
291.766
291.882
292.109
292.461
292.29
291.842
291.713
291.683
292.018
292.402
292.914
291.504
291.833
291.555
291.865
292.102
292.264
291.81
291.65
291.401
291.565
292.02
292.107
291.552
291.286
291.302
291.574
291.901
291.656
291.149
291.088
290.776
291.187
291.404
291.884
290.447
290.834
290.582
290.587
291.299
291.361
290.976
290.555
290.731
290.567
291.779
291.277
290.582
290.478
290.529
290.796
291.222
290.957
290.433
290.252
290.101
290.44
291.012
290.832
290.408
290.107
289.814
289.972
290.519
290.233
289.838
289.473
289.497
289.307
290.461
289.989
289.321
289.216
289.209
289.456
290.267
290.244
289.858
289.339
289.106
289.356
289.979
290.095
289.391
288.992
289.112
289.442
289.96
289.57
288.947
288.717
288.441
288.796
289.538
289.107
288.597
288.299
287.828
287.955
288.591
288.801
287.984
287.711
287.829
288.22
289.135
288.692
288.874
287.931
287.726
287.97
288.754
288.813
288.098
287.463
287.562
287.427
289.095
288.112
287.129
287.008
286.592
286.739
287.464
287.436
286.481
286.14
286.496
287.063
287.715
287.441
286.611
286.254
286.229
286.637
287.717
288.171
286.442
286.165
286.034
287.878
285.844
286.708
285.908
285.513
284.994
285.143
286.189
286.659
284.939
284.671
284.962
286.101
286.344
286.502
285.313
284.895
284.801
285.277
286.389
286.998
284.733
284.572
283.746
285.127
284.531
287.733
282.738
284.041
283.674
283.92
285.687
285.951
284.519
283.696
283.709
284.751
286.003
285.547
284.307
283.255
283.193
284.118
285.743
286.408
284.823
283.289
284.153
282.961
288.095
285.636
284.166
283.673
283.755
284.569
285.613
286.506
285.064
283.897
284.474
285.29
287.29
287.928
285.907
284.872
285.536
286.777
288.664
289.667
287.617
286.233
286.857
288.287
290.485
291.013
288.79
287.35
287.75
289.244
291.39
291.695
289.692
288.113
288.45
290.127
291.974
292.222
290.511
288.762
289.049
290.845
292.441
292.617
291.135
289.321
289.584
291.402
292.766
292.897
291.643
289.841
290.086
291.863
293.013
293.09
292.054
290.317
290.538
292.224
293.132
293.152
292.367
290.746
290.941
292.492
293.183
293.229
292.597
291.122
291.292
292.699
293.286
293.333
292.791
291.455
291.615
292.882
293.368
293.386
292.957
291.768
291.915
293.024
293.39
293.388
293.074
292.047
292.169
293.116
293.385
293.385
293.148
292.276
292.376
293.183
293.394
293.421
293.216
292.466
292.553
293.254
293.452
293.477
293.287
292.631
292.708
293.321
293.493
293.5
293.347
292.773
292.836
293.373
293.501
293.499
293.39
292.886
292.934
293.406
293.493
293.486
293.415
292.972
293.009
293.425
293.481
293.475
293.43
293.036
293.063
293.433
293.471
293.466
293.433
293.079
293.094
293.432
293.463
293.46
293.43
293.101
293.109
293.428
293.458
293.457
293.425
293.112
293.117
293.423
293.456
293.455
293.42
293.119
293.122
293.417
293.453
293.45
293.411
293.123
293.123
293.407
293.448
293.442
293.399
293.121
293.119
293.393
293.439
293.432
293.382
293.114
293.111
293.376
293.429
293.423
293.364
293.104
293.101
293.358
293.419
293.412
293.346
293.094
293.091
293.339
293.408
293.4
293.327
293.084
293.081
293.32
293.396
293.387
293.307
293.074
293.071
293.3
293.382
293.372
293.287
293.063
293.06
293.279
293.367
293.357
293.266
293.052
293.048
293.259
293.351
293.341
293.246
293.041
293.037
293.239
293.335
293.323
293.227
293.03
293.027
293.22
293.316
293.304
293.207
293.02
293.017
293.2
293.296
293.282
293.188
293.01
293.007
293.181
293.274
293.26
293.169
293.001
292.998
293.162
293.252
293.239
293.15
292.992
292.989
293.143
293.23
293.217
293.131
292.982
292.978
293.124
293.21
293.197
293.112
292.971
292.967
293.106
293.19
293.179
293.095
292.96
292.956
293.089
293.172
293.161
293.078
292.948
292.945
293.073
293.156
293.145
293.063
292.937
292.933
293.058
293.139
293.129
293.048
292.925
292.922
293.043
293.123
293.112
293.033
292.914
292.91
293.028
293.107
293.096
293.018
292.902
292.898
293.013
293.09
293.079
293.003
292.89
292.886
292.998
293.073
293.063
292.988
292.877
292.872
292.982
293.057
293.047
292.972
292.863
292.858
292.967
293.041
293.031
292.957
292.849
292.844
292.952
293.025
293.015
292.942
292.835
292.83
292.937
293.01
293
292.927
292.821
292.816
292.922
292.995
292.985
292.912
292.806
292.801
292.906
292.98
292.97
292.897
292.791
292.786
292.891
292.964
292.954
292.881
292.776
292.77
292.875
292.949
292.938
292.865
292.76
292.754
292.859
292.932
292.922
292.849
292.744
292.737
292.842
292.916
292.905
292.832
292.727
292.719
292.825
292.899
292.888
292.815
292.71
292.701
292.808
292.882
292.871
292.797
292.692
292.683
292.79
292.865
292.853
292.779
292.674
292.665
292.772
292.847
292.835
292.76
292.655
292.647
292.754
292.829
292.817
292.742
292.635
292.628
292.735
292.811
292.799
292.723
292.616
292.609
292.716
292.792
292.78
292.704
292.597
292.59
292.697
292.773
292.761
292.684
292.577
292.571
292.678
292.754
292.742
292.665
292.558
292.551
292.658
292.735
292.723
292.645
292.538
292.532
292.638
292.716
292.703
292.625
292.519
292.512
292.618
292.696
292.683
292.605
292.499
292.492
292.598
292.676
292.663
292.585
292.479
292.472
292.578
292.656
292.643
292.565
292.459
292.452
292.557
292.636
292.623
292.545
292.439
292.432
292.537
292.616
292.603
292.524
292.419
292.412
292.517
292.595
292.583
292.504
292.399
292.392
292.496
292.575
292.563
292.484
292.379
292.373
292.476
292.555
292.542
292.464
292.36
292.353
292.456
292.535
292.522
292.443
292.34
292.334
292.436
292.515
292.502
292.423
292.321
292.314
292.416
292.494
292.481
292.403
292.302
292.295
292.396
292.474
292.461
292.383
292.282
292.276
292.376
292.454
292.44
292.363
292.263
292.257
292.356
292.433
292.42
292.343
292.244
292.238
292.336
292.413
292.4
292.323
292.225
292.219
292.316
292.393
292.38
292.303
292.206
292.2
292.296
292.373
292.359
292.284
292.188
292.181
292.277
292.353
292.339
292.264
292.169
292.163
292.257
292.333
292.319
292.244
292.15
292.144
292.238
292.313
292.3
292.225
292.132
292.126
292.218
292.293
292.28
292.206
292.113
292.107
292.199
292.273
292.26
292.186
292.095
292.089
292.18
292.254
292.241
292.167
292.077
292.071
292.161
292.234
292.221
292.148
292.059
292.053
292.142
292.215
292.202
292.13
292.041
292.035
292.124
292.196
292.183
292.111
292.024
292.018
292.105
292.177
292.165
292.093
292.006
292.001
292.087
292.158
292.146
292.075
291.989
291.984
292.069
292.14
292.128
292.058
291.973
291.967
292.052
292.12
292.11
292.041
291.957
291.951
292.033
292.101
292.093
292.026
291.943
291.935
292.015
292.076
292.071
292.009
291.926
291.897
291.992
292.059
292.051
291.984
291.871
291.852
291.966
292.035
291.646
291.332
290.35
289.89
289.793
289.379
289.124
288.963
288.878
288.74
288.677
288.521
288.398
288.301
288.226
288.171
288.133
288.107
288.089
288.077
288.068
288.063
288.058
288.055
288.053
288.051
288.05
288.049
288.048
288.048
288.047
288.047
288.047
288.047
288.047
288.047
288.047
288.047
288.046
288.046
288.046
288.046
288.046
288.045
288.045
288.045
288.044
288.042
288.041
288.041
288.042
288.045
288.048
288.054
288.06
288.069
288.078
288.09
288.102
288.117
288.133
288.152
288.172
288.196
288.222
288.252
288.285
288.322
288.363
288.41
288.461
288.519
288.583
288.654
288.732
288.819
288.914
289.018
289.132
289.256
289.39
289.533
289.687
289.851
290.024
290.206
290.396
290.593
290.797
291.007
291.221
291.439
291.659
291.88
292.102
292.323
292.543
292.761
292.976
293.188
293.396
293.599
293.798
293.992
294.18
294.363
294.54
294.712
294.878
295.038
295.193
295.342
295.486
295.624
295.757
295.885
296.008
296.127
296.24
296.349
296.454
296.554
296.651
296.744
296.832
296.918
296.999
297.078
297.153
297.225
297.295
297.361
297.425
297.486
297.545
297.601
297.656
297.708
297.758
297.805
297.851
297.896
297.938
297.979
298.018
298.056
298.092
298.126
298.16
298.192
298.223
298.252
298.28
298.308
298.334
298.359
298.383
298.407
298.429
298.45
298.471
298.491
298.51
298.528
298.545
298.562
298.578
298.594
298.608
298.623
298.636
298.649
298.662
298.674
298.685
298.696
298.706
298.716
298.726
298.735
298.743
298.751
298.759
298.766
298.773
298.78
298.786
298.792
298.797
298.802
298.807
298.811
298.815
298.819
298.822
298.826
298.828
298.831
298.833
298.834
298.836
298.837
298.838
298.838
298.838
298.839
298.839
298.839
298.839
298.839
298.839
298.839
298.839
298.841
298.842
298.845
298.848
298.852
298.856
298.859
298.863
298.867
298.872
298.876
298.881
298.886
298.891
298.896
298.901
298.907
298.912
298.918
298.924
298.93
298.937
298.943
298.949
298.956
298.963
298.97
298.977
298.984
298.991
298.998
299.005
299.012
299.02
299.027
299.035
299.042
299.05
299.057
299.065
299.072
299.08
299.087
299.095
299.102
299.11
299.117
299.124
299.131
299.139
299.146
299.153
299.159
299.166
299.173
299.179
299.186
299.192
299.198
299.204
299.21
299.215
299.221
299.226
299.231
299.236
299.241
299.245
299.25
299.254
299.258
299.262
299.265
299.268
299.271
299.272
299.273
299.273
299.273
299.273
299.273
299.273
299.274
299.275
299.276
299.277
299.278
299.279
299.281
299.282
299.284
299.286
299.288
299.289
299.292
299.294
299.296
299.298
299.3
299.302
299.304
299.306
299.309
299.311
299.313
299.316
299.318
299.321
299.323
299.326
299.328
299.331
299.333
299.337
299.339
299.342
299.344
299.348
299.35
299.354
299.357
299.361
299.363
299.367
299.37
299.374
299.377
299.381
299.384
299.389
299.392
299.397
299.399
299.405
299.408
299.413
299.416
299.422
299.425
299.431
299.434
299.44
299.443
299.449
299.452
299.459
299.462
299.469
299.472
299.479
299.482
299.489
299.493
299.5
299.503
299.51
299.514
299.521
299.524
299.531
299.534
299.541
299.544
299.551
299.553
299.56
299.562
299.568
299.57
299.575
299.577
299.581
299.582
299.586
299.587
299.589
299.589
299.59
299.59
299.59
299.588
299.587
299.585
299.583
299.579
299.577
299.572
299.569
299.563
299.56
299.553
299.55
299.543
299.539
299.532
299.528
299.52
299.517