/*--------------------------------*- C++ -*----------------------------------*\
| =========                 |                                                 |
| \\      /  F ield         | OpenFOAM: The Open Source CFD Toolbox           |
|  \\    /   O peration     | Version:  v2006                                 |
|   \\  /    A nd           | Website:  www.openfoam.com                      |
|    \\/     M anipulation  |                                                 |
\*---------------------------------------------------------------------------*/
FoamFile
{
    version     2.0;
    format      ascii;
    class       volScalarField;
    location    "0.004";
    object      isentropic(p);
}
// * * * * * * * * * * * * * * * * * * * * * * * * * * * * * * * * * * * * * //

dimensions      [1 -1 -2 0 0 0 0];


internalField   nonuniform List<scalar> 
11076
(
200367
200369
200333
200332
200331
200331
200331
200331
200331
200331
200331
200332
200332
200333
200334
200335
200337
200338
200339
200339
200339
200339
200339
200339
200339
200339
200339
200339
200338
200338
200337
200337
200337
200338
200339
200339
200339
200338
200335
200332
200333
200340
200335
200334
200337
200338
200338
200338
200339
200340
200341
200341
200342
200343
200344
200346
200347
200347
200345
200342
200337
200334
200327
200325
200325
200340
200334
200328
200344
200415
200411
200050
199680
200364
200472
200462
200283
199351
199030
200191
200427
200376
200089
198739
198477
199986
200317
200252
199871
198235
198015
199767
200188
200122
199664
197814
197631
199564
200055
199986
199464
197459
197302
199368
199920
199851
199274
197152
197014
199183
199786
199717
199094
196880
196757
199008
199653
199586
198924
196637
196526
198843
199525
199460
198763
196417
196315
198687
199401
199338
198612
196215
196121
198540
199282
199221
198468
196028
195940
198401
199167
199109
198332
195854
195772
198268
199057
199002
198203
195690
195613
198142
198952
198899
198080
195536
195463
198022
198851
198800
197962
195389
195319
197906
198754
198704
197848
195248
195180
197795
198660
198612
197739
195111
195046
197688
198570
198523
197633
194980
194916
197584
198482
198437
197531
194851
194790
197484
198397
198353
197432
194727
194667
197386
198315
198273
197336
194605
194547
197292
198236
198194
197243
194487
194430
197200
198159
198119
197153
194372
194317
197112
198085
198046
197067
194260
194207
197028
198013
197976
196984
194153
194102
196946
197945
197910
196903
194049
194000
196868
197879
197846
196826
193949
193902
196793
197817
197785
196753
193852
193806
196721
197757
197727
196683
193758
193712
196653
197700
197672
196616
193665
193620
196588
197647
197620
196551
193573
193528
196525
197596
197571
196490
193481
193436
196465
197548
197524
196431
193388
193343
196408
197503
197480
196375
193295
193248
196353
197460
197439
196322
193199
193151
196300
197420
197400
196270
193101
193051
196250
197384
197365
196221
192998
192946
196202
197350
197333
196174
192891
192836
196156
197319
197304
196129
192778
192720
196113
197293
197279
196088
192659
192598
196074
197271
197260
196050
192532
192466
196037
197253
197244
196014
192395
192323
196003
197240
197233
195981
192246
192168
195971
197232
197227
195950
192082
191997
195943
197229
197227
195922
191902
191806
195915
197231
197230
195894
191698
191589
195887
197236
197235
195864
191467
191342
195854
197242
197242
195829
191202
191057
195815
197247
197244
195783
190894
190724
195762
197246
197238
195720
190532
190331
195687
197234
197218
195631
190105
189868
195583
197205
197179
195509
189603
189325
195441
197154
197116
195346
189018
188697
195255
197076
197023
195136
188347
187983
195021
196967
196900
194877
187592
187189
194740
196831
196750
194575
186764
186324
194418
196667
196575
194235
185869
185405
194065
196483
196383
193868
184932
184455
193686
196283
196174
193479
183979
183507
193284
196069
195952
193066
183044
182589
192859
195844
195720
192636
182145
181713
192424
195611
195481
192196
181289
180879
191978
195370
195237
191750
180479
180094
191531
195124
194987
191303
179719
179360
191085
194874
194732
190860
179011
178678
190646
194619
194474
190424
178355
178047
190215
194362
194214
189999
177749
177467
189796
194101
193953
189586
177193
176934
189390
193839
193692
189187
176682
176445
188998
193579
193431
188802
176214
175998
188620
193319
193172
188432
175786
175590
188260
193062
192918
188083
175398
175224
187919
192798
192662
187757
175064
174890
187601
192552
192584
187618
174943
175243
187808
192756
192877
187953
175376
196443
197465
197774
197843
197810
197675
197562
197288
197110
196696
196431
195844
195453
194620
194044
192795
191992
189552
188682
187701
185694
183414
181650
178891
175192
171307
164372
163538
170400
174312
173418
169530
162824
162222
168860
172597
171950
168360
161841
161774
168259
171835
171521
168027
161668
161677
168007
171554
171315
167805
161582
161603
167825
171349
171147
167659
161505
161520
167672
171176
170968
167501
161418
161428
167508
170992
170781
167334
161321
161326
167336
170802
170585
167156
161214
161213
167152
170599
170376
166966
161094
161089
166956
170386
170156
166764
160964
160952
166744
170158
169921
166545
160819
160803
166518
169918
169672
166311
160661
160637
166273
169659
169404
166058
160485
160454
166012
169386
169121
165786
160292
160252
165728
169092
168816
165491
160077
160029
165424
168780
168491
165173
159837
159777
165092
168444
168142
164828
159571
159501
164738
168088
167769
164456
159275
159191
164350
167702
167366
164051
158949
158854
163935
167293
166937
163613
158588
158476
163480
166849
166471
163140
158192
158068
162997
166377
165978
162633
157759
157614
162472
165869
165442
162084
157280
157122
161914
165331
164884
161506
156765
156582
161315
164758
164274
160878
156194
156002
160685
164151
163658
160237
155601
155382
160023
163517
162987
159549
154954
154732
159342
162857
162324
158862
154299
154057
158640
162188
161607
158157
153647
153442
157973
161501
160993
157573
153131
152972
157391
160883
160424
156992
152692
152481
156741
160221
159643
156297
152126
151899
156052
159460
158977
155570
151443
151193
155341
158821
158437
154943
150740
150364
154687
158343
158128
154287
149794
149336
154046
158166
158112
153624
148686
148041
153291
158284
158124
152733
147275
146662
152454
158270
161086
152470
146338
146517
155281
163371
164226
154913
145854
144225
151738
160461
161822
152221
144112
143898
152915
163443
164804
153295
143593
143324
153661
165886
167170
154130
143081
142921
154741
168527
170200
155248
142776
142529
155063
170196
165337
152215
141968
141978
153381
167370
169142
154654
141996
141968
155287
170283
169137
153976
141712
141083
149584
162615
163227
148847
140998
140830
147879
158819
162498
149629
140644
140599
152123
166348
172345
155444
140704
140544
158461
176348
175975
161353
141211
143971
167597
183588
191565
175353
150513
157146
181426
196189
198287
186623
166185
174634
194913
203471
203782
200288
183680
189278
201319
202783
202320
203550
195757
198015
201822
199682
199006
199409
198620
198652
199398
198999
198943
199279
199241
199340
199504
199288
198848
198868
199527
199668
199567
199731
199180
199094
199855
199867
199600
199794
199355
199263
199862
199780
199084
199132
199292
199233
199870
199892
199225
199122
199254
199344
199962
200003
199468
199350
199353
199537
200039
200095
199693
199517
199551
199781
200130
200136
199863
199581
199745
199962
200125
200102
199966
199668
199701
199986
200071
200042
199991
199636
199673
200043
199992
199918
200100
199733
199761
200088
199842
199806
199995
199739
199773
199989
199745
199681
199935
199786
199747
199873
199661
199607
199840
199764
199746
199770
199539
199479
199715
199719
199704
199712
199454
199417
199680
199714
199619
199494
199283
199340
199528
199650
199640
199499
199206
199097
199443
199577
199460
199295
198913
199157
199496
199570
199557
199435
199042
198849
199263
199423
199536
199462
199109
198972
199396
199519
199460
199311
198876
198654
199121
199317
199468
199369
198945
198829
199301
199455
199297
199104
198625
198914
199349
199449
199424
199266
198786
198543
199042
199247
199423
199325
198881
198767
199256
199413
199217
199004
198492
198805
199281
199395
199396
199238
198717
198560
199103
199307
199112
198856
198286
198631
199184
199328
199327
199130
198549
198264
198855
199108
199310
199165
198608
198457
199056
199272
199067
198809
198207
198590
199155
199297
199276
199063
198452
198140
198759
199029
199262
199100
198482
198398
199029
199249
199016
198739
198100
198456
199082
199248
199211
198971
198311
197965
198633
198932
199220
199065
198448
198180
198828
199078
199269
199118
198503
198327
198975
199205
198956
198669
198008
198451
199078
199230
199220
198993
198330
197971
198648
198944
199189
199014
198343
198190
198899
199152
198884
198576
197862
198303
198995
199164
199136
198880
198150
197767
198497
198820
199099
198904
198172
197849
198607
198902
199149
198979
198256
198127
198866
199120
198816
198494
197749
198138
198889
199083
199037
198755
197964
197569
198360
198708
199030
198830
198048
197748
198552
198855
199090
198912
198145
197958
198755
199029
198702
198358
197552
197970
198793
199004
198960
198659
197813
197468
198294
198652
198960
198746
197907
197549
198414
198743
198990
198793
197962
197767
198623
198921
198558
198187
197332
197844
198694
198903
198722
198401
197537
197934
198775
198970
198886
198590
197727
197292
198166
198539
198852
198629
197744
197556
198478
198806
198455
198067
197154
197618
198564
198796
198571
198214
197250
197675
198615
198835
198748
198413
197450
196989
197945
198354
198703
198449
197443
197132
198132
198496
198779
198563
197602
197375
198364
198702
198287
197870
196895
197372
198381
198640
198398
198012
196994
197436
198449
198690
198631
198278
197250
196750
197771
198205
198569
198316
197269
196851
197928
198324
198619
198385
197358
197129
198181
198541
198083
197632
196582
197096
198199
198477
198243
197838
196735
197249
198312
198552
198454
198074
196968
196449
197541
198000
198379
198105
196968
196538
197702
198123
198441
198185
197056
196823
197978
198368
197900
197422
196299
196822
198005
198297
198023
197581
196375
196927
198089
198351
198265
197856
196654
196084
197264
197764
198168
197862
196625
196202
197447
197902
198244
197972
196764
196501
197731
198153
197635
197121
195902
196446
197743
198067
197782
197304
196003
196595
197853
198139
198031
197583
196281
195673
196956
197499
197940
197617
196271
195803
197169
197659
198018
197730
196404
196104
197457
197909
197349
196792
195453
196084
197482
197817
197511
196993
195569
196221
197587
197891
197794
197319
195916
195182
196589
197182
197661
197311
195856
195329
196812
197350
197755
197444
196021
195685
197159
197652
197032
196423
194981
195646
197161
197540
197218
196651
195132
195788
197281
197617
197473
196943
195408
194677
196208
196847
197358
196967
195352
194828
196455
197035
197473
197140
195587
195248
196847
197378
196685
196028
194456
195175
196825
197219
196835
196225
194538
195270
196917
197284
197177
196612
194923
194107
195771
196472
197032
196615
194882
194294
196057
196688
197152
196799
195125
194808
196519
197078
196243
195503
193783
194549
196364
196821
196438
195774
193947
194773
196553
196951
196853
196232
194391
193506
195322
196078
196682
196238
194355
193742
195657
196338
196791
196441
194690
194120
195988
196614
195840
195060
193174
194114
196009
196468
196421
195742
193756
192822
194822
195662
196332
195846
193783
193013
195117
195876
196403
196006
194047
193546
195615
196290
195308
194430
192375
193304
195448
195989
195561
194779
192622
193649
195726
196189
196087
195367
193209
192192
194330
195213
195899
195407
193292
192924
195186
195927
194832
193841
191561
192563
194957
195547
194946
194072
191648
192753
195087
195626
195571
194756
192351
191291
193691
194690
195444
194894
192531
192106
194638
195469
194262
193203
190704
191775
194414
195036
194324
193339
190675
191914
194486
195095
195021
194133
191508
190410
193013
194110
194936
194329
191751
191287
194035
194962
193779
192677
190016
190709
193686
194416
193626
192553
189612
190953
193793
194469
194390
193403
190486
189398
192269
193463
194363
193728
190947
190334
193361
194360
193206
192031
189107
189811
192981
193803
193600
192437
189086
187764
191074
192435
193522
192724
189477
188948
192372
193547
192440
191002
187621
189629
192747
193422
193465
192320
188823
186313
189934
191509
192650
191697
188142
187421
191205
192516
191362
189825
186078
188152
191758
192605
192811
191471
187488
186016
189804
191326
191901
190815
186638
185648
190031
191558
190041
188316
184052
186258
190427
191478
191566
190043
185606
184261
188575
190370
191421
190827
187344
184905
189408
190973
188820
186984
182557
184934
189176
190278
190333
188799
184213
182952
187496
189321
190438
189919
186352
184527
189167
190495
189026
187169
181997
179845
185057
187140
188800
187614
182693
182039
187656
189250
189362
187526
181697
177194
183458
186306
187560
185851
179790
178713
185394
187545
187016
184509
177600
176256
182848
185483
186519
184645
177619
175382
183491
186055
185291
182432
174013
172296
180361
183519
185459
184542
178598
174156
182962
185489
183974
181415
172028
171164
181297
183898
184032
180722
169864
162284
173540
178253
180872
178246
169040
168732
179029
181883
180430
176293
163620
162121
176041
179790
177803
172955
157073
153772
171878
176805
175404
169735
150134
145960
167258
173262
171932
165488
143892
142719
165181
172452
172756
164635
141968
140960
163788
172613
172045
162568
140077
139437
161774
171850
171439
160886
139038
138721
160291
171263
170696
159439
138417
138174
158837
170361
169685
158002
137930
137791
157445
169286
168561
156681
137646
137623
156222
168156
167463
155578
137588
137674
155260
167126
166472
154740
137725
137878
154530
166166
165557
154103
137978
138179
153979
165306
164733
153637
138312
138579
153575
164513
163996
153306
138732
139042
153321
163829
163349
153112
139205
139539
153170
163242
162815
153008
139704
140048
153113
162764
162372
152985
140207
140548
153111
162374
162031
153012
140702
141035
153170
162088
161783
153096
141180
141497
153259
161862
161600
153202
141631
141933
153385
161711
161477
153343
142056
142341
153526
161613
161413
153497
142453
142719
153691
161568
161388
153672
142821
143070
153861
161560
161403
153851
143162
143395
154048
161589
161444
154045
143478
143695
154234
161639
161514
154236
143770
143973
154431
161714
161598
154438
144041
144231
154623
161801
161698
154632
144293
144471
154820
161902
161804
154831
144527
144695
155011
162008
161920
155022
144745
144903
155203
162122
162035
155215
144948
145097
155386
162235
162155
155395
145136
145277
155568
162352
162270
155575
145312
145446
155738
162465
162389
155742
145476
145603
155907
162581
162501
155908
145629
145749
156063
162690
162614
156059
145771
145885
156216
162799
162720
156209
145902
146011
156355
162901
162825
156344
146024
146128
156491
163002
162920
156476
146137
146236
156613
163093
163015
156593
146240
146334
156732
163183
163099
156708
146335
146424
156836
163264
163183
156809
146420
146505
156939
163344
163258
156908
146499
146579
157028
163415
163332
156994
146570
146647
157117
163486
163398
157080
146635
146709
157194
163549
163464
157155
146693
146765
157271
163611
163522
157229
146747
146815
157337
163666
163579
157293
146795
146861
157404
163721
163629
157356
146840
146903
157459
163768
163679
157410
146879
146941
157516
163816
163722
157465
146916
146976
157563
163856
163765
157510
146949
147007
157612
163897
163802
157558
146979
147036
157652
163932
163839
157596
147007
147063
157695
163967
163870
157637
147033
147087
157728
163997
163902
157669
147056
147109
157765
164027
163928
157704
147078
147129
157793
164052
163956
157731
147097
147147
157824
164077
163977
157760
147114
147163
157846
164097
163999
157781
147129
147177
157871
164117
164016
157805
147142
147190
157888
164132
164034
157821
147154
147202
157909
164148
164045
157841
147166
147212
157921
164159
164059
157852
147176
147222
157938
164172
164067
157868
147186
147231
157947
164179
164078
157877
147195
147240
157961
164189
164083
157890
147204
147249
157967
164193
164091
157896
147212
147258
157978
164200
164093
157907
147221
147266
157983
164202
164099
157911
147230
147275
157992
164206
164099
157920
147238
147283
157995
164206
164102
157922
147246
147291
158003
164209
164101
157929
147255
147300
158004
164207
164103
157930
147263
147308
158010
164208
164100
157936
147271
147316
158010
164205
164100
157935
147279
147325
158015
164204
164095
157940
147288
147333
158013
164199
164093
157938
147296
147342
158017
164197
164087
157942
147305
147350
158015
164191
164085
157939
147314
147359
158018
164188
164078
157942
147323
147368
158015
164181
164074
157939
147331
147377
158017
164177
164066
157941
147341
147386
158013
164169
164061
157937
147350
147396
158015
164164
164053
157939
147359
147405
158011
164155
164048
157935
147368
147414
158013
164150
164039
157936
147378
147423
158008
164141
164033
157932
147387
147433
158009
164135
164024
157933
147396
147442
158004
164125
164017
157928
147405
147450
158005
164118
164007
157929
147414
147459
158000
164108
164001
157924
147422
147467
158000
164101
163990
157924
147431
147475
157994
164090
163983
157918
147438
147482
157994
164083
163971
157917
147446
147489
157987
164071
163964
157911
147453
147496
157986
164063
163952
157910
147459
147503
157985
164053
163946
157909
147466
147520
157980
164046
163940
157905
147483
147527
157982
164043
163941
157909
147489
147558
158009
164083
164007
157966
147519
147670
158163
164318
164556
158328
147786
148244
158923
165454
166616
159807
148924
149872
160979
167945
169065
162093
150830
176062
180278
182050
184683
186667
187293
187808
189534
190597
191566
192126
192492
192753
192933
193054
193138
193193
193231
193259
193273
193277
193269
193253
193228
193252
193268
193338
193317
193377
193274
193221
193737
193848
193859
193844
193840
193834
193820
193812
193798
193790
193784
193788
193815
193843
193870
193907
193950
193994
194037
194085
194129
194177
194222
194267
194309
194351
194386
194411
194427
194446
194470
194501
194539
194585
194640
194706
194782
194869
194967
195075
195191
195314
195442
195574
195706
195838
195966
196090
196207
196317
196419
196514
196599
196677
196747
196810
196866
196916
196961
197000
197036
197068
197097
197123
197147
197169
197189
197209
197228
197245
197263
197280
197298
197315
197333
197350
197369
197388
197407
197427
197448
197469
197491
197513
197536
197560
197584
197609
197634
197659
197685
197710
197737
197763
197790
197818
197846
197874
197903
197934
197965
197997
198031
198067
198104
198143
198184
198228
198274
198323
198374
198428
198484
198543
198603
198665
198729
198794
198860
198927
198995
199063
199131
199200
199267
199335
199401
199466
199530
199593
199655
199717
199778
199838
199898
199957
200015
200074
200131
200183
200233
200296
200382
200431
200448
200445
200391
200387
200383
200380
200380
200380
200381
200381
200382
200383
200385
200386
200388
200389
200388
200388
200387
200385
200384
200382
200381
200380
200379
200378
200378
200377
200377
200377
200377
200378
200378
200378
200379
200382
200389
200392
200392
200382
200386
200388
200366
200352
200344
200343
200346
200348
200351
200353
200356
200358
200359
200358
200356
200352
200350
200349
200350
200353
200357
200359
200374
200429
200498
200518
200480
200444
200407
200367
200327
200283
200239
200193
200148
200100
200055
200007
199962
199915
199871
199825
199782
199737
199695
199651
199610
199568
199529
199488
199450
199410
199373
199335
199299
199262
199228
199192
199159
199123
199092
199057
199027
198993
198964
198931
198903
198871
198844
198813
198786
198757
198731
198702
198678
198650
198627
198600
198578
198551
198531
198505
198486
198461
198443
198420
198403
198381
198365
198344
198329
198309
198296
198277
198265
198247
198237
198220
198212
198195
198190
198175
198172
198159
198158
198146
198148
198138
198143
198135
198144
198138
198150
198144
198160
198154
198173
198168
198187
198182
198202
198194
198214
198202
198220
198205
198217
198197
198201
198176
198172
198141
198131
198091
198069
198023
197995
197945
197911
197858
197819
197764
197725
197672
197630
197577
197534
197480
197434
197378
197331
197274
197226
197168
197118
197060
197009
196949
196897
196837
196784
196722
196668
196605
196551
196483
196429
196358
196309
196303
196338
197434
197434
197782
197771
197845
197856
197889
197793
197442
197459
197798
197845
197510
197531
197851
197928
197973
197898
197581
197601
197902
197947
197648
197668
197950
198013
198050
197994
197714
197735
197998
198039
197779
197801
198046
198084
198117
198086
197845
197867
198094
198135
197911
197932
198142
198150
198187
198183
197977
197999
198191
198234
198044
198066
198241
198225
198267
198287
198112
198133
198293
198340
198179
198200
198344
198308
198347
198393
198246
198267
198395
198446
198314
198336
198448
198388
198445
198504
198381
198402
198504
198572
198449
198465
198560
198528
198620
198643
198509
198517
198625
198712
198558
198559
198673
198717
198811
198760
198604
198597
198703
198787
198632
198605
198710
198885
198932
198787
198635
198593
198694
198759
198618
198567
198659
198943
198924
198712
198588
198530
198614
198653
198551
198494
198563
198883
198821
198593
198513
198461
198517
198540
198482
198437
198482
198750
198690
198498
198461
198423
198456
198469
198444
198417
198442
198637
198595
198455
198435
198416
198444
198458
198435
198420
198457
198566
198550
198468
198439
198429
198475
198485
198449
198444
198498
198546
198556
198509
198464
198462
198527
198538
198482
198482
198555
198578
198600
198567
198502
198504
198583
198597
198526
198530
198614
198624
198655
198630
198552
198559
198647
198665
198581
198589
198682
198691
198730
198701
198612
198621
198717
198738
198645
198655
198753
198770
198810
198775
198679
198691
198791
198814
198715
198728
198829
198851
198892
198854
198753
198767
198869
198894
198793
198808
198910
198934
198976
198936
198834
198850
198952
198979
198877
198893
198995
199019
199063
199022
198921
198939
199039
199067
198967
198985
199084
199108
199154
199113
199014
199034
199130
199160
199063
199083
199178
199201
199248
199207
199113
199135
199226
199257
199165
199187
199276
199297
199346
199307
199219
199242
199327
199358
199274
199298
199380
199397
199449
199411
199330
199355
199434
199466
199388
199415
199489
199502
199556
199521
199448
199476
199546
199579
199510
199539
199605
199612
199669
199638
199574
199604
199666
199699
199640
199672
199728
199727
199788
199762
199708
199741
199793
199826
199779
199813
199859
199849
199913
199893
199851
199886
199928
199962
199925
199962
199998
199978
200044
200032
200002
200040
200070
200106
200080
200119
200144
200111
200180
200179
200160
200199
200218
200253
200239
200278
200292
200251
200326
200328
200318
200356
200367
200404
200394
200428
200438
200409
200435
200468
200463
200493
200501
200368
200341
200266
200194
200128
200064
200000
199936
199874
199812
199752
199694
199637
199581
199526
199472
199419
199367
199316
199266
199216
199167
199119
199071
199023
198976
198929
198881
198835
198788
198743
198702
198664
198627
198594
198569
198554
198549
198553
198566
198591
198629
198681
198747
198829
198925
199022
199120
199213
199269
199273
199221
199123
198999
198872
198756
198665
198591
198505
198411
198317
198231
198156
198091
198034
197976
197919
197865
197811
197754
197700
197687
197832
197816
197677
197582
197611
197304
197294
197130
197153
197268
196628
196709
196699
196447
196475
195850
195847
195472
195509
195715
194396
194600
194609
194063
194117
192666
192728
191950
192006
192337
188435
188967
189252
188443
188376
187007
187059
184098
182099
181934
181898
182371
181019
180732
177550
178103
176973
180464
179822
176437
176493
180018
181451
186815
186366
180840
179701
179421
176171
176248
175980
179274
179578
180814
186568
188241
192320
194448
195780
196697
197332
197393
196762
195842
194503
194560
195904
196828
197454
197515
196896
196967
197576
197639
197040
196098
196031
195967
194612
194667
194727
194779
196165
197117
197712
197793
197203
197311
197887
198001
197450
196480
196340
196241
194817
194886
195011
195144
196660
197624
198133
198273
197828
198040
198398
198484
198214
197476
197174
196892
195314
195599
195950
193330
193060
192843
192636
192492
192514
192530
192521
192495
192461
192425
192380
192343
188202
186507
186184
180548
180569
180345
186144
186490
188223
188269
188311
188365
186492
186106
186487
186114
186487
186125
180147
180373
179085
178752
179169
178853
179321
178998
179409
179103
175816
176068
175907
175648
175735
175465
175555
175295
175381
175098
178603
178931
178499
174913
175185
174996
178845
180183
179947
178684
178343
174697
174783
174495
178236
178598
179992
179748
179805
179548
186099
186501
188422
188480
188539
188604
186476
185995
186496
186046
186502
186078
179352
179621
178089
177687
178174
177799
178346
177966
178432
178075
174259
174576
174343
174036
174116
173777
173860
173531
173608
173245
177515
177914
177404
172973
173327
173050
177833
179445
179163
177657
177228
172657
172742
172355
177124
177587
179276
179004
179134
178883
185928
186440
188698
188857
189134
189520
186485
185771
186328
185707
186367
185807
178808
179037
177158
176606
177191
176676
177362
176858
177414
176947
172005
172436
172096
171673
171759
171278
171378
170910
171002
170460
176416
176995
176356
170044
170572
170150
176983
179002
178821
176837
176163
169532
169665
169054
176112
176862
179081
179081
179507
179663
186024
186735
189940
193763
196362
197743
198327
198565
198691
198480
198689
198846
199017
198939
198621
198250
197963
196779
197217
197764
198469
199042
199190
199171
199274
199380
199454
199299
199246
199399
199592
199620
199416
199208
199743
199824
199590
199413
199264
199143
199020
199104
198950
198902
198797
198820
198840
198995
199199
199332
199049
198862
198724
198719
198716
198710
198642
198636
198578
198591
198556
198539
198528
198569
198631
198627
198563
198522
198519
198558
198622
198724
198872
199092
199481
199654
199919
199439
198187
196837
195758
194906
194269
190425
191058
192113
188289
187270
187364
186557
186969
186264
180347
180090
177276
176366
177111
176214
176980
176096
176795
175976
168509
169195
168710
168139
168312
167692
167820
167126
167236
166554
176426
177391
176517
165942
166645
166024
177543
180893
181280
177588
176528
165369
165440
164730
176256
177406
181943
182678
184212
185710
188768
189824
193497
195219
197608
199820
199707
195660
193549
192021
191374
190297
187983
186935
183408
181779
181505
178911
176733
175561
177090
175763
164057
164663
167255
168333
170577
173246
176390
177643
171724
169921
167927
173376
179220
179935
183377
184635
184916
181868
181203
175992
174534
177200
178825
182894
185941
189355
190909
188677
187047
184187
186101
187184
189781
191379
192606
194483
194595
190995
186629
185886
185151
183638
180471
175548
178230
180528
181644
181951
188208
191900
193630
195959
196078
196810
196138
196509
196642
195334
195005
192180
187502
184649
181933
176775
174805
169658
173384
176966
181606
187460
183280
189399
192744
195967
197381
198132
197821
199022
198793
199214
194716
200239
202094
199203
200383
199203
198680
196902
197103
197877
196042
199308
197598
198315
199398
199529
199086
198854
198808
199019
199403
199486
196865
198093
198318
196670
197507
198556
196027
198148
199044
200249
198832
197846
197029
199192
198840
198633
198758
201776
201664
199166
199023
199037
199031
198971
199128
199062
198818
198731
199038
198913
199101
199366
199383
199622
199562
199547
199381
199274
199271
199450
199379
199445
199610
199556
199489
199341
199456
199351
199168
199190
199298
199204
199327
199476
199384
199370
199090
199103
198949
199107
199369
198916
199330
199073
199362
199376
199292
199246
198960
199192
199352
199120
199052
199120
199526
199583
199530
199538
199747
199496
199643
199494
199610
199615
199680
199545
199701
199733
199605
199702
199696
199694
199632
199693
199661
199625
199650
199642
199597
199599
199621
199570
199575
199593
199565
199504
199534
199550
199488
199517
199527
199459
199500
199513
199439
199483
199506
199472
199377
199452
199463
199374
199454
199443
199349
199435
199434
199326
199426
199424
199322
199415
199397
199270
199386
199345
199412
199392
199282
199374
199382
199271
199372
199354
199230
199336
199328
199184
199309
199223
199315
199309
199173
199288
199262
199103
199243
199180
199276
199249
199091
199217
199200
199060
199189
199090
199190
199157
198982
199134
199074
199148
199118
198947
199094
199072
198902
199046
198947
199056
199011
198807
198977
198888
199009
198973
198758
198919
198807
198926
198898
198688
198860
198745
198883
198836
198599
198781
198677
198793
198747
198508
198696
198571
198719
198682
198438
198619
198489
198623
198579
198313
198523
198391
198555
198502
198224
198434
198292
198438
198379
198092
198322
198181
198352
198285
197981
198214
198059
198222
198163
197828
198095
197931
198134
198069
197728
197986
197816
197992
197900
197546
197839
197665
197878
197812
197429
197714
197494
197707
197633
197239
197562
197376
197617
197539
197072
197412
197178
197411
197345
196915
197261
197067
197308
197162
196713
197084
197029
196599
196956
196694
196983
196856
196284
196748
196468
196755
196677
196197
196621
196542
195904
196376
195938
196355
196300
195790
196250
196164
195462
196016
195463
195948
195851
195317
195820
195749
195010
195586
194900
195468
195363
194791
195365
195266
194542
195169
194775
193997
194786
194742
194045
194698
194470
193339
194218
193926
193159
193997
194045
193071
193975
193224
192145
193149
193149
192351
193394
192639
191153
192338
192177
191377
192672
192216
191152
189712
191093
191112
191113
189418
191186
190334
189818
188792
190409
189184
188454
187292
190104
189065
187824
187200
187043
183789
186797
185572
184388
183657
182079
181360
180196
178877
177469
177874
178363
178553
178415
178812
178778
179093
178917
179084
178798
178897
178560
178668
178326
178487
178147
178314
177954
178131
177757
177925
177540
177704
177310
177474
177074