/*--------------------------------*- C++ -*----------------------------------*\
| =========                 |                                                 |
| \\      /  F ield         | OpenFOAM: The Open Source CFD Toolbox           |
|  \\    /   O peration     | Version:  v2006                                 |
|   \\  /    A nd           | Website:  www.openfoam.com                      |
|    \\/     M anipulation  |                                                 |
\*---------------------------------------------------------------------------*/
FoamFile
{
    version     2.0;
    format      ascii;
    class       volScalarField;
    location    "0.004";
    object      omega;
}
// * * * * * * * * * * * * * * * * * * * * * * * * * * * * * * * * * * * * * //

dimensions      [0 0 -1 0 0 0 0];


internalField   nonuniform List<scalar> 
11076
(
0.0181644
0.0181761
0.0181395
0.0181373
0.0181352
0.0181347
0.0181356
0.0181361
0.0181379
0.0181391
0.01814
0.0181415
0.0181451
0.018151
0.0181584
0.0181674
0.0181777
0.0181896
0.0182035
0.0182196
0.0182384
0.0182602
0.0182851
0.0183129
0.0183433
0.0183753
0.0184072
0.0184369
0.0184609
0.0184751
0.018474
0.018452
0.0184054
0.018338
0.0182677
0.0182234
0.0182182
0.0182274
0.0182194
0.0182959
0.0187205
0.021285
0.0320127
0.0567796
0.0945362
0.139864
0.189406
0.243855
0.304351
0.368708
0.429481
0.474725
0.492368
0.479014
0.453273
0.463689
0.560204
0.804699
1.36996
2.72492
5.77829
10.9802
21.4807
25.6687
20.1543
54.2471
150.345
370.57
1230.91
10278.7
55874.2
780555
746620
112174
26528.5
40501
141139
716121
687229
149391
48725.6
54783.1
153731
654671
631776
152820
58449.5
61847.9
154910
611267
598263
154220
63635.4
65488
153006
584285
574822
151314
66052.5
67259.4
150570
564800
558404
148968
67234.2
67896.5
148352
550854
546301
146998
67781.6
68224
146601
540381
536973
145453
68066.4
68394
145250
532208
529523
144262
68216.5
68488.5
144163
525587
523414
143341
68294.5
68539.9
143320
520082
518278
142629
68331.3
68558.1
142654
515398
513868
142056
68340.8
68555.8
142112
511332
510010
141582
68333.6
68540.5
141663
507740
506577
141187
68315.6
68516.7
141288
504517
503476
140855
68290
68486.5
140972
501583
500637
140574
68258.4
68450.5
140704
498882
498013
140334
68220.5
68408.5
140474
496375
495571
140126
68176.5
68360.6
140276
494040
493295
139945
68126.6
68306.7
140103
491866
491179
139787
68070.4
68246.5
139952
489855
489228
139648
68007.7
68180.1
139819
488013
487451
139524
67938.8
68106.7
139700
486354
485863
139414
67861.5
68023.6
139595
484895
484481
139314
67774
67931
139500
483655
483324
139228
67678.3
67831.9
139422
482656
482414
139172
67578
67730.7
139394
481918
481767
139167
67477.6
67630.8
139412
481442
481381
139198
67379.5
67533.6
139459
481246
481279
139255
67283.8
67438.1
139531
481308
481454
139333
67189.2
67342.8
139626
481592
481930
139428
67093.6
67244.7
139734
482179
482706
139537
66993.6
67141.1
139858
483097
483797
139661
66886.5
67031.6
139990
484371
485233
139794
66772.5
66911.3
140132
485998
487046
139938
66645.4
66773.9
140283
488013
489281
140090
66499.1
66616.1
140442
490464
491985
140250
66324.6
66436.6
140611
493414
495214
140421
66122.8
66232.9
140794
496916
499034
140607
65895.2
66000.4
140992
501046
503524
140806
65639
65736.5
141205
505889
508781
141021
65351.1
65442
141440
511550
514908
141265
65037.5
65125.3
141721
518131
522001
141560
64709.6
64796.9
142069
525719
530144
141927
64375.5
64464.4
142501
534378
539376
142383
64044.2
64136.2
143041
544180
549799
142960
63737.1
63832.1
143739
555221
561486
143709
63485.8
63594.2
144632
567554
574471
144678
63304.8
63460.9
145772
581197
588757
145925
63216.7
63456.3
147253
596142
604309
147512
63276.5
63612
149149
612323
621036
149543
63522
64053.1
151550
629599
638748
152134
64017.1
64710.2
154530
647745
657187
155356
64744.4
65608.6
158162
666460
676009
159250
65732.8
66797.7
162519
685381
694815
163844
67014.7
68298.9
167640
704023
713123
169158
68592.6
70089.9
173418
721864
730385
175084
70452.9
72138.4
179688
738428
746096
181492
72575.5
74422.6
186414
753181
759799
188328
74924.9
76962.6
193489
765757
771160
195630
77511.1
79739
201249
775890
780075
203516
80326.1
82717.2
209329
783675
786751
211588
83316.1
85826.9
217376
789333
791447
219547
86401.6
88955.9
225173
793169
794450
227165
89515.9
92075.8
232571
795450
796033
234346
92615.9
95162.8
239453
796449
796447
241028
95665.1
98176.8
245768
796333
796050
247135
98635
101091
251479
795530
794903
252667
101489
103876
256578
794110
793296
257602
104217
106507
261122
792314
791407
261950
106801
108982
265117
790300
789379
265759
109220
111331
268541
788330
787331
269147
111420
113293
271263
785848
785476
272160
113897
115518
273845
782942
784157
274645
115948
116056
274332
775475
759089
263936
110598
105698
254153
739410
36072.8
17842.9
11588.7
8593.3
7534.29
6230.27
5656.49
5251.22
5080.75
5034.37
5129.63
5383.48
5758.65
6463.59
7328.78
9006.3
10768.6
15655.2
17940.7
23033
37441.3
48971.6
64446.5
107493
216353
432263
1.31233e+06
1.41125e+06
491567
248024
267649
528812
1.52894e+06
1.64156e+06
584133
302724
315151
602297
1.69333e+06
1.71621e+06
602030
314352
327852
619309
1.72432e+06
1.73692e+06
611390
320654
329194
625874
1.73401e+06
1.73487e+06
609388
322179
329049
623057
1.73114e+06
1.73266e+06
608302
322945
329829
621950
1.72891e+06
1.73051e+06
607284
323814
330709
620892
1.72666e+06
1.72833e+06
606289
324800
331740
619881
1.72438e+06
1.7261e+06
605408
325956
332921
618969
1.7221e+06
1.72394e+06
604606
327279
334377
618166
1.71985e+06
1.72181e+06
603998
328829
335952
617549
1.71765e+06
1.71975e+06
603536
330664
337921
617103
1.71545e+06
1.7177e+06
603338
332766
340076
616905
1.71328e+06
1.7157e+06
603310
335195
342582
617121
1.71113e+06
1.71374e+06
603598
337862
345435
617318
1.70894e+06
1.71175e+06
604266
340864
348621
618145
1.70674e+06
1.70976e+06
605222
344231
352226
619041
1.7044e+06
1.70763e+06
606632
348001
356298
620421
1.70204e+06
1.70551e+06
608459
352226
360748
622342
1.69961e+06
1.7033e+06
610614
356896
365677
624566
1.69711e+06
1.70105e+06
613313
362045
371135
627360
1.69441e+06
1.69856e+06
616381
367677
377072
630537
1.69128e+06
1.69562e+06
620051
373757
383367
634324
1.68771e+06
1.6922e+06
624186
380254
390079
638673
1.68344e+06
1.68808e+06
629117
387049
396878
643784
1.67898e+06
1.68387e+06
634446
393922
403506
649289
1.67481e+06
1.68008e+06
640291
400508
409500
654739
1.67278e+06
1.67919e+06
644384
406212
413202
657052
1.67382e+06
1.68307e+06
644011
408654
413931
653774
1.67975e+06
1.69042e+06
636908
408362
413541
644423
1.68515e+06
1.69308e+06
629612
408895
414100
638229
1.66969e+06
1.65158e+06
624672
413013
417671
631047
1.61971e+06
1.60657e+06
620175
414811
421448
630380
1.5733e+06
1.56306e+06
626183
420704
426116
635444
1.52008e+06
1.48845e+06
636943
426552
433048
648450
1.43788e+06
1.40099e+06
654794
434468
442232
665149
1.33052e+06
1.28034e+06
666598
444596
449401
651049
1.22901e+06
1.19262e+06
607603
418827
386844
567106
795434
619414
491434
359734
356569
501036
617356
546355
523702
439268
386635
497581
507273
455547
484742
376862
361069
477905
430513
411306
473005
355423
343979
469642
400090
391415
470371
337531
325013
474530
398397
423247
479492
333718
411191
501884
450861
461687
501172
362833
358880
519109
463539
484499
538609
357947
393473
571457
541132
617364
620778
520397
486317
632499
693545
734410
648580
532866
482496
629329
725929
690869
590652
469382
437117
567722
654298
650703
553822
429601
453103
544490
617466
567452
495191
400422
377464
451795
491647
458406
430849
348256
354980
387332
402396
363262
348301
277472
216257
301465
312051
287082
245521
167370
47314.6
136169
240614
217799
39377.5
15366.7
16364.7
25124.7
203017
198211
23210.6
14437.1
13736.1
22131.4
204998
214534
24032.2
14362
17679.7
27859.1
246234
272433
36897.2
23956.4
28897
43691
310739
337108
54621.2
37080.9
40578
62768.7
378812
414051
73087
48544.7
51931
86657.9
447848
470724
96633.3
52626
64341.1
116087
506750
517843
132231
68481.8
71707.9
146379
538951
551954
156931
83458.4
79287.4
157885
562293
559549
162993
81876.5
92476.6
165243
564419
542743
153674
80230.6
77162.8
147570
516085
491295
133416
66140
65855.2
133514
478264
484832
145650
73033.6
87025.2
160912
490393
485064
145365
74631.6
71842.9
141558
479359
477076
155530
86137.1
73111.7
139080
478687
472719
138298
72442.8
82150.8
167308
505385
545198
199272
108643
87676.5
171390
546781
570654
161664
88690.4
153641
405324
794356
1.0384e+06
317158
122123
142038
317438
798870
929908
333689
163225
300040
568170
1.18682e+06
1.08121e+06
264276
169061
163903
276437
878694
1.11678e+06
535814
276193
155052
240089
1.0167e+06
798029
279204
157218
168661
309513
940567
1.21372e+06
588394
302963
167440
262666
1.06636e+06
872564
277520
164024
287824
557262
1.14236e+06
1.02761e+06
252171
162576
162364
272533
853436
1.12186e+06
555582
287396
162221
250239
994806
829565
267120
161393
282091
543702
1.08422e+06
950953
238525
158147
160482
276241
764355
929611
316085
174244
321843
623108
1.24742e+06
1.05462e+06
274177
178687
174976
283703
876119
1.19087e+06
588212
306830
173761
261055
1.02766e+06
864736
286319
174244
308653
591296
1.19198e+06
1.02501e+06
265419
176454
175467
282513
866021
1.19103e+06
598061
312464
178078
266426
1.02065e+06
868612
286678
178766
318296
607485
1.21589e+06
1.04015e+06
271889
182666
182829
293571
891121
1.27103e+06
651793
337173
199686
247169
1.13657e+06
1.03089e+06
507119
292772
167700
252703
907841
794678
279882
171338
307604
579876
1.11834e+06
957317
261237
177572
179559
284221
828598
1.16769e+06
597555
317118
181827
266907
984737
846639
290193
183128
325241
609614
1.19473e+06
1.01161e+06
273738
187942
190294
299277
883375
1.28823e+06
657540
347088
209106
257973
1.13899e+06
1.05228e+06
525327
307447
179038
265196
913621
817900
297798
185065
332838
622729
1.19651e+06
1.00807e+06
282705
195168
197534
306813
884865
1.30108e+06
669085
356561
216251
269985
1.12727e+06
1.05448e+06
525077
313370
183092
267256
902651
811311
296063
188102
334169
620367
1.19161e+06
988074
282333
197428
201410
311496
876170
1.3196e+06
672223
362437
221425
271292
1.13435e+06
1.07413e+06
537112
321700
189719
277693
916691
833223
310359
196174
357690
661402
1.26917e+06
1.09418e+06
275289
221223
320135
527670
1.04681e+06
889250
274664
189679
196589
308063
808300
1.21753e+06
642100
349089
207190
293881
996593
887721
322843
210982
374667
685255
1.34719e+06
1.1474e+06
284603
232329
336320
553430
1.10899e+06
941432
293221
201757
209024
328280
866025
1.34431e+06
696590
379014
236492
296130
1.14464e+06
1.10404e+06
556431
339548
203737
290960
923058
848788
324235
210756
375105
682914
1.31938e+06
1.12735e+06
292040
236849
341274
558271
1.09659e+06
929560
298782
206689
214686
333482
861213
1.33896e+06
695047
382912
241354
297285
1.14095e+06
1.11384e+06
564208
346398
209082
298998
922491
855071
333637
216874
385690
695623
1.33268e+06
1.1379e+06
302969
244337
351092
568323
1.11751e+06
937917
305321
213492
221953
341521
872677
1.36245e+06
709630
394532
249754
308903
1.15876e+06
1.13483e+06
577026
356357
216167
307588
933274
869700
343132
224389
395584
710846
1.35826e+06
1.15751e+06
311466
252229
361177
581422
1.14139e+06
950761
314498
220575
229443
351553
891499
1.40141e+06
734217
407716
258966
320950
1.17858e+06
1.16097e+06
596224
369925
224903
318620
949189
888395
356256
233468
410769
731661
1.40315e+06
1.18203e+06
323449
262512
375939
602675
1.17702e+06
973718
327354
230069
239304
365739
913391
1.43867e+06
755483
422213
269217
333002
1.20932e+06
1.20287e+06
615328
383898
234278
329962
977823
917766
366748
243236
426503
756885
1.44963e+06
1.21933e+06
334783
273151
390360
625037
1.22127e+06
999219
339428
239441
248987
379232
942632
1.49429e+06
782756
438910
280255
346015
1.24053e+06
1.24144e+06
639050
399614
243892
343455
1.00673e+06
947851
381026
253277
444002
790207
1.50224e+06
1.25096e+06
350643
284552
406866
650897
1.25879e+06
1.03242e+06
354730
249758
259820
395984
976668
1.55772e+06
815047
458016
292108
362240
1.28032e+06
1.28164e+06
659737
415710
253721
354988
1.02859e+06
970827
393461
263349
459089
808763
1.54221e+06
1.28515e+06
360816
294554
420847
667437
1.30034e+06
1.05616e+06
365503
258366
268670
405820
1.00063e+06
1.5906e+06
840525
472212
301773
374034
1.31012e+06
1.31673e+06
679806
429552
262327
367136
1.05206e+06
998188
405593
272139
476375
840651
1.5965e+06
1.31764e+06
377711
305542
435777
687791
1.33098e+06
1.07712e+06
376117
267100
277931
417912
1.02311e+06
1.62067e+06
852695
483914
309869
383711
1.32934e+06
1.34569e+06
696391
440207
267738
375966
1.06384e+06
1.00007e+06
412902
276527
475699
834859
1.55188e+06
1.2137e+06
400307
290204
297727
434460
1.12906e+06
1.77803e+06
919103
518366
326775
403896
1.43194e+06
1.44509e+06
743311
467088
283960
398931
1.14799e+06
1.08773e+06
437857
294131
517914
915974
1.7306e+06
1.40898e+06
411226
329414
469614
741085
1.41984e+06
1.12205e+06
399181
284830
295913
441328
1.05834e+06
1.64351e+06
886353
508124
307817
426736
1.28791e+06
1.19723e+06
452737
314307
548858
977759
1.88179e+06
1.51494e+06
429551
347025
498959
790182
1.5311e+06
1.20316e+06
424884
301267
311114
466741
1.13324e+06
1.75623e+06
942733
536261
324546
448603
1.35375e+06
1.25447e+06
474347
330158
572063
1.0119e+06
1.96372e+06
1.56289e+06
444606
360184
516526
821973
1.58046e+06
1.23329e+06
437724
310508
322079
481119
1.16062e+06
1.79544e+06
969690
553903
333486
459817
1.37726e+06
1.28285e+06
493350
340273
588440
1.03041e+06
2.02276e+06
1.60544e+06
457260
371004
533487
843642
1.62598e+06
1.27099e+06
454453
319877
330138
494716
1.19283e+06
1.82935e+06
987843
565921
340441
468648
1.3927e+06
1.28652e+06
499856
346664
587582
1.03022e+06
1.97553e+06
1.48027e+06
487829
350679
354431
513968
1.34705e+06
2.03493e+06
1.06528e+06
604021
357426
494716
1.5143e+06
1.38977e+06
527091
363460
625058
1.11228e+06
2.11798e+06
1.58882e+06
518912
369462
372253
533341
1.44718e+06
2.19316e+06
1.15291e+06
647506
378370
527801
1.62085e+06
1.48115e+06
558358
383980
662321
1.16847e+06
2.24131e+06
1.66347e+06
541183
387690
390983
567940
1.52157e+06
2.31371e+06
1.18844e+06
672499
391034
546809
1.69669e+06
1.54269e+06
576153
395505
684765
1.2093e+06
2.32911e+06
1.71339e+06
557812
397348
401031
582207
1.55627e+06
2.33313e+06
1.21115e+06
688283
398306
555107
1.7076e+06
1.55676e+06
586051
402344
696642
1.2284e+06
2.33043e+06
1.69119e+06
565772
399926
402125
583964
1.52561e+06
2.24045e+06
1.16321e+06
670466
382988
539346
1.59617e+06
1.37624e+06
567243
384069
409936
654907
1.78263e+06
2.6326e+06
1.36655e+06
737886
413334
603901
1.83638e+06
1.5805e+06
653501
421537
432248
670890
2.0103e+06
2.89793e+06
1.51042e+06
793831
432047
645976
1.94085e+06
1.63757e+06
665336
433646
455687
751850
2.10134e+06
3.07313e+06
1.56609e+06
835411
452634
677926
2.08725e+06
1.75527e+06
710344
458499
463345
756207
2.16804e+06
3.04064e+06
1.53036e+06
817121
427535
642250
1.95901e+06
1.62696e+06
664987
423817
423482
683980
1.84149e+06
2.19305e+06
837119
461561
454891
845463
2.60535e+06
3.56706e+06
1.85157e+06
916303
458574
740842
2.24063e+06
1.87911e+06
706181
445360
470816
865244
2.12649e+06
2.34937e+06
837391
459646
477556
972800
2.517e+06
2.65714e+06
962875
469923
474099
1.04385e+06
2.7345e+06
2.78591e+06
1.04343e+06
462497
468592
1.09708e+06
2.77598e+06
2.74759e+06
1.10277e+06
462642
475817
1.13501e+06
2.69456e+06
2.61185e+06
1.12436e+06
472543
489464
1.12901e+06
2.5254e+06
2.43543e+06
1.09893e+06
485217
497916
1.10307e+06
2.34838e+06
2.26534e+06
1.07923e+06
493122
505464
1.08559e+06
2.19187e+06
2.12564e+06
1.0707e+06
501511
514499
1.07851e+06
2.06778e+06
2.01676e+06
1.06775e+06
511067
525438
1.0762e+06
1.97044e+06
1.92963e+06
1.06697e+06
522380
535480
1.07435e+06
1.89119e+06
1.85772e+06
1.0631e+06
531408
542064
1.06772e+06
1.82576e+06
1.79984e+06
1.05224e+06
537154
544720
1.05508e+06
1.77403e+06
1.75614e+06
1.03583e+06
538003
543625
1.03723e+06
1.73518e+06
1.72575e+06
1.01534e+06
534848
538661
1.01539e+06
1.70933e+06
1.70546e+06
990971
527412
531342
989695
1.69348e+06
1.69248e+06
963815
520480
524173
962080
1.68497e+06
1.68562e+06
935543
513520
517229
933919
1.68101e+06
1.68265e+06
908428
506830
510172
907257
1.68048e+06
1.68216e+06
882708
499789
503075
882101
1.67972e+06
1.68362e+06
859501
493200
496177
859646
1.68202e+06
1.68592e+06
838541
486398
489325
839193
1.6845e+06
1.68866e+06
820164
479861
482579
821449
1.6874e+06
1.69161e+06
803722
473291
476015
805487
1.69044e+06
1.69463e+06
789659
467061
469636
792008
1.69354e+06
1.69763e+06
777162
460850
463467
779880
1.6966e+06
1.70058e+06
766586
455000
457511
769809
1.69961e+06
1.70348e+06
757144
449194
451778
760643
1.70255e+06
1.70633e+06
749206
443777
446293
753142
1.70545e+06
1.70913e+06
742017
438439
441055
746127
1.70827e+06
1.71184e+06
735997
433518
436089
740476
1.71102e+06
1.71448e+06
730444
428702
431394
735036
1.71368e+06
1.71703e+06
725845
424320
426981
730759
1.71625e+06
1.71948e+06
721522
420053
422843
726517
1.71872e+06
1.72184e+06
717836
416193
418952
723234
1.72109e+06
1.72411e+06
714399
412428
415323
719895
1.72337e+06
1.72629e+06
711540
409060
411927
717426
1.72556e+06
1.72836e+06
708872
405778
408785
714803
1.72763e+06
1.73031e+06
706690
402873
405851
712961
1.72959e+06
1.73215e+06
704612
400041
403161
710879
1.73141e+06
1.73383e+06
702940
397574
400663
709509
1.73309e+06
1.73535e+06
701318
395156
398388
707865
1.73459e+06
1.73671e+06
700071
393092
396282
706891
1.73594e+06
1.73792e+06
698817
391028
394362
705583
1.73713e+06
1.73899e+06
697889
389307
392584
704899
1.73819e+06
1.73994e+06
696903
387443
390926
703837
1.73913e+06
1.74078e+06
696213
386019
389440
703378
1.73997e+06
1.74154e+06
695444
384426
388050
702521
1.74071e+06
1.7422e+06
694956
383262
386813
702250
1.74137e+06
1.74279e+06
694366
381905
385649
701558
1.74196e+06
1.74332e+06
694035
380956
384615
701430
1.74248e+06
1.74378e+06
693578
379794
383638
700856
1.74293e+06
1.74418e+06
693357
379018
382765
700824
1.74333e+06
1.74452e+06
692987
378008
381931
700328
1.74367e+06
1.74483e+06
692840
377368
381188
700362
1.74397e+06
1.74508e+06
692534
376481
380473
699925
1.74422e+06
1.74529e+06
692448
375958
379842
700019
1.74443e+06
1.74545e+06
692202
375182
379237
699642
1.74457e+06
1.74557e+06
692179
374768
378715
699798
1.74467e+06
1.74562e+06
691995
374097
378216
699480
1.74469e+06
1.74561e+06
692031
373792
377801
699691
1.74466e+06
1.74553e+06
691898
373228
377405
699416
1.74455e+06
1.7454e+06
691973
373020
377081
699654
1.7444e+06
1.74521e+06
691860
372539
376762
699389
1.74418e+06
1.74497e+06
691939
372407
376506
699624
1.74391e+06
1.74469e+06
691819
371991
376246
699346
1.74361e+06
1.74437e+06
691882
371911
376038
699564
1.74327e+06
1.74402e+06
691746
371540
375819
699268
1.74289e+06
1.74363e+06
691792
371498
375647
699465
1.74247e+06
1.7432e+06
691631
371161
375457
699136
1.74201e+06
1.74272e+06
691647
371149
375313
699304
1.7415e+06
1.7422e+06
691464
370839
375150
698957
1.74095e+06
1.74163e+06
691463
370852
375027
699106
1.74036e+06
1.74103e+06
691260
370562
374882
698738
1.73973e+06
1.7404e+06
691239
370593
374778
698867
1.73908e+06
1.73973e+06
691015
370321
374649
698475
1.7384e+06
1.73905e+06
690967
370367
374557
698576
1.7377e+06
1.73834e+06
690715
370105
374437
698155
1.73697e+06
1.7376e+06
690640
370162
374356
698230
1.73622e+06
1.73685e+06
690363
369911
374244
697785
1.73545e+06
1.73607e+06
690265
369976
374171
697837
1.73466e+06
1.73527e+06
689965
369734
374065
697365
1.73384e+06
1.73446e+06
689839
369800
373991
697388
1.73302e+06
1.73363e+06
689509
369554
373881
696888
1.73217e+06
1.73278e+06
689355
369620
373806
696883
1.73133e+06
1.73193e+06
688998
369373
373694
696356
1.73046e+06
1.73106e+06
688819
369434
373612
696326
1.7296e+06
1.7302e+06
688439
369178
373490
695776
1.72873e+06
1.72933e+06
688236
369231
373400
695723
1.72787e+06
1.72847e+06
687834
368968
373271
695151
1.727e+06
1.72761e+06
687610
369012
373172
695079
1.72615e+06
1.72676e+06
687191
368740
373032
694493
1.72531e+06
1.72592e+06
686954
368774
372924
694410
1.72448e+06
1.72509e+06
686528
368497
372780
693820
1.72365e+06
1.72427e+06
686288
368525
372666
693736
1.72284e+06
1.72346e+06
685861
368240
372513
693145
1.72203e+06
1.72265e+06
685619
368261
372396
693056
1.72123e+06
1.72185e+06
685186
367973
372277
692590
1.72044e+06
1.72106e+06
684888
367924
371978
692143
1.71967e+06
1.71954e+06
683987
367740
371780
691380
1.71729e+06
1.71795e+06
683758
367488
371562
691288
1.71663e+06
1.71631e+06
682480
366636
370865
687895
1.70942e+06
1.70135e+06
676420
362798
356422
668059
1.67292e+06
1.6281e+06
655164
348634
312532
605961
1.53357e+06
1.4387e+06
570889
291076
260279
520714
1.35566e+06
113798
56229.9
40099.7
28027.1
17007.4
13946.9
12914.8
8873.85
5931.14
4240.56
3100.73
2257.26
1659.41
1235.58
939.936
732.027
583.022
474.294
392.271
327.822
276.488
235.088
201.146
172.891
149.874
131.525
117.776
107.574
100.68
96.4028
94.2959
95.3401
96.0066
95.9042
94.8314
93.1348
91.3552
89.9634
89.143
88.7649
88.6172
88.56
88.4759
88.2331
87.6984
86.7427
85.1665
82.9435
80.1855
77.0269
73.5519
69.8187
65.8566
61.6796
57.2981
52.724
47.7442
40.4046
28.2252
15.8854
9.49624
6.88147
5.83474
5.36995
5.10569
4.90595
4.7414
4.59906
4.47088
4.35144
4.23676
4.12401
4.01102
3.89641
3.77926
3.65917
3.5361
3.41028
3.28224
3.15264
3.02236
2.89233
2.76359
2.63711
2.5139
2.39486
2.28074
2.17227
2.06992
1.97417
1.88521
1.80323
1.72816
1.65989
1.59808
1.54238
1.49226
1.44711
1.40632
1.36919
1.33501
1.30314
1.27294
1.24383
1.21525
1.18664
1.15747
1.12721
1.09538
1.06158
1.02551
0.986998
0.946005
0.902626
0.857067
0.809671
0.760892
0.711254
0.661359
0.611826
0.563266
0.516234
0.471247
0.428722
0.38898
0.352249
0.318656
0.288247
0.260987
0.236778
0.215481
0.196921
0.180911
0.167254
0.155758
0.146237
0.138516
0.132429
0.127814
0.124511
0.122497
0.121706
0.121645
0.122253
0.123446
0.125049
0.126896
0.128831
0.130702
0.132363
0.133686
0.134494
0.13475
0.134424
0.133376
0.131557
0.128935
0.125497
0.121259
0.116256
0.110559
0.104257
0.0974633
0.0903055
0.082917
0.0754284
0.0679603
0.0606262
0.0535697
0.0469763
0.0409503
0.0353291
0.0297701
0.0245434
0.0208836
0.0192358
0.0185677
0.0182949
0.0182546
0.018199
0.0181603
0.0181471
0.0181447
0.0181443
0.0181446
0.0181471
0.0181624
0.0182
0.0182609
0.0183429
0.0184441
0.0185654
0.0187095
0.0188811
0.0190853
0.0193274
0.0196118
0.0199407
0.0203131
0.0207234
0.02116
0.0216028
0.022023
0.0223784
0.0226138
0.0226578
0.0224348
0.0218874
0.0210325
0.0200224
0.0191545
0.0186949
0.0185989
0.0187648
0.0200299
0.0273392
0.0630111
0.166906
0.351384
0.588203
0.853219
1.15019
1.49643
1.90311
2.36285
2.84486
3.30501
3.71668
4.1246
4.70913
5.78547
7.69071
10.9004
16.5192
27.1528
48.3919
93.1982
207.993
589.251
2308.76
5144.42
14493.1
16540.6
17791.6
19453.4
20232
21504.5
22007.1
23012.2
23354.5
24153.4
24402
25037
25217.7
25732.1
25863.1
26288.4
26382
26738.9
26803.7
27106.8
27149.1
27410.1
27434.7
27662.2
27672.7
27872.8
27872
28045.6
28037.5
28190.3
28175.8
28309.8
28289.5
28406.1
28380.2
28480.5
28449.5
28534.4
28498.6
28569.3
28529.6
28588.8
28545.6
28594.5
28547.8
28591
28536
28573.8
28509.5
28544.7
28474.6
28507.6
28432.2
28463.2
28382.8
28412
28326.6
28353.8
28263
28287.7
28190.6
28212.6
28108.5
28127.4
28015
28030.3
27908.2
27919.4
27786.4
27793.4
27649.1
27651.7
27497
27494.5
27330
27321.1
27145.4
27130.8
26946.3
26927.6
26737.8
26716.5
26524.1
26501.7
26309.9
26289.6
26106.8
26094.2
25930.4
25928.9
25804.4
25812.1
25742.7
25766.3
25735.8
25785.5
25774.6
25864.5
25861.9
25975.7
25977.7
26114.2
26120
26276.2
26286.8
26457.4
26473.6
26675.7
26724.5
26983.5
27051.9
27363.7
27454.6
27815.3
27932.3
28339.1
28476.2
28924.9
29079.9
29569
29747.1
30284.5
30480.6
31056.6
31266
31872.1
32090.2
32717.8
32940.4
33581.7
33805
34453.1
34674.4
35323.9
35540.7
36183.8
36400.9
37042.3
37231.5
37884.4
38192.8
38840.1
39211.8
38375.2
38273
18402.4
18749.4
11942.1
11706.1
8525.51
8503.59
8170.15
12427.3
19015.5
19319.9
12954.3
12049.3
18820.7
18930.3
12727
8113.56
8031.82
11842.3
18423.8
18588.1
12545.5
11678.2
18104.8
18263.7
12367.5
7938.8
7840.34
11516.9
17782.8
17935
12190.3
11357.4
17465.4
17610.6
12017.6
7744.16
7650.18
11203.1
17153.7
17293.8
11850.7
11055.2
16850.5
16987.3
11691.4
7559.62
7472.77
10915.4
16560.2
16694.9
11541.2
10784.9
16286.5
16420.3
11401.9
7390.94
7314.78
10665.3
16033.1
16167.3
11274.5
10560.1
15803.2
15938.8
11166.8
7245.49
7183.3
10469.5
15597.6
15736.1
11076.3
10394
15418.5
15560.8
11001.9
7128.88
7077.32
10332.4
15269.5
15416.4
10941.6
10278.5
15152.3
15305.4
10882.8
7015.18
6947.07
10215.4
15073.4
15237.7
10811.5
10138.8
15021.1
15184.2
10738.3
6876.62
6816.57
10063.4
14950.7
15107.4
10669.2
9998.69
14869.6
15032.1
10619.3
6763.98
6712.61
9956.77
14808.8
14976.5
10589.7
9930.54
14766.1
14937.9
10574.5
6659.17
6603.35
9915.07
14738.2
14913.7
10569.5
9906.91
14721.7
14900.1
10570.2
6547.16
6493.05
9902.09
14708.7
14888
10570.5
9895.34
14694
14870.9
10564.4
6443.14
6397.56
9883.34
14667.9
14839.2
10550
9870.41
14646.3
14824.7
10536.1
6355.48
6312.78
9857.48
14644
14840.1
10521
9840.46
14677.1
14895.6
10499.3
6263.06
6205.28
9814.84
14741.9
14972.7
10476.2
9787.89
14817.7
15056.9
10458.7
6146.34
6087.37
9768.44
14900.7
15147.6
10453.7
9763.26
14989.9
15240.8
10467.4
6026.77
5962.69
9773.44
15080.7
15328.4
10489.4
9783.1
15163.4
15410.1
10511
5898.82
5837.59
9793.22
15239.8
15485.1
10533
9804.43
15309.3
15552.3
10554.6
5783.45
5742.21
9815.89
15370.7
15610.8
10572.7
9824.69
15423.5
15660.6
10585.5
5708.01
5673.62
9828.86
15468
15702.3
10592.5
9827.94
15504.8
15736.5
10593.8
5638.06
5599.8
9822.54
15534.1
15763
10588.7
9811.63
15555.7
15781.3
10576
5556.53
5508.14
9793.38
15568.3
15789.9
10554.6
9766.65
15570.4
15787.2
10523
5453.88
5393.22
9729.99
15560.7
15772.1
10479.2
9681.25
15538.6
15746.1
10421.1
5326.33
5253.16
9618.26
15504.3
15709.1
10350.7
9543.63
15456.2
15658.1
10267.4
5171.86
5082.31
9456.61
15393.6
15592.2
10170.7
9356.88
15315.3
15510.3
10060.3
4984.54
4878.79
9244.39
15220.6
15411.7
9936.27
9119.06
15108.4
15295.1
9798.16
4765.34
4644.54
8980.64
14977.8
15159.6
9645.41
8828.59
14827.6
15003.9
9476.46
4516.73
4379.99
8661.33
14656.5
14826.7
9289.3
8476.14
14462.7
14626.1
9083.37
4229.87
4068.72
8272.83
14243.9
14399.2
8856.58
8049.23
13996.3
14141.9
8606.13
3895.17
3707.59
7802.61
13715.7
13849.8
8328.98
7530.1
13396.5
13516.7
8022.34
3504.55
3286.26
7229.39
13031.8
13135
7683.53
6898.44
12611.9
12693.4
7304.83
3056.28
2808.33
6528.7
12125
12179.8
6877.97
6112.41
11559.5
11582.5
6405.41
2540.9
2253.2
5642.78
10896.5
10875.7
5872.41
5114.04
10110.3
10024.6
5269.19
1945.15
1617.72
4518.26
9171.61
9006.97
4584.48
3854.16
8057.98
7752.64
3808.85
1272.18
918.655
3115.91
6733.91
6208.62
2921.68
345.216
506.118
673.135
837.766
997.271
1150.29
1296.26
1434.97
1566.54
1691.9
1811.14
1924.43
2032.09
2134.61
2232.51
2325.88
2415.04
2500.37
2581.99
2659.88
2733.82
2803.72
2869.51
2931.02
2988.86
3043.57
3094.57
3144.25
3194.02
3240.51
3294.67
3355.51
3419.5
3481.4
3533.33
3581.05
3621.8
3666.57
3699.54
3724.96
3746.6
3769.7
3798.64
3839.3
3895.73
3970.77
4062.48
4172.69
4293.57
4420.61
4537.67
4641.09
4726.79
4798.49
4860.31
4921.41
4987.37
5053.46
5116.6
5177.75
5237.47
5298.5
5358.35
5421.89
5481.73
5548.97
5606.5
5680.07
5729.99
5809.23
5769.64
6121.71
7658.55
7581.36
6171.04
5641.87
5639.96
5198.74
5224.09
5064.47
5053.14
5053.99
4980.1
4995.83
5013.44
5107.46
5086.58
5360.77
5367.12
5720.6
5681.54
5419.75
6687.42
6459.37
6456.46
7271.2
7207.65
9172.2
9088.25
10723.3
10605
9800.47
18677.6
16772.6
16394.1
18552
18826.6
30844.8
27867.8
49438.5
54866.6
53709.5
54235.4
54089.6
71895.4
75313.1
129454
124213
145080
85812.2
90104.1
150000
147676
84230.6
59847.9
33262.8
36652.7
60463.1
84623.7
92152.5
156002
151009
157340
93364.3
85597.7
61001.8
34099.1
19471.3
9934.98
6712.6
5417.94
4951.93
5051.53
4970.56
4872.43
5306.33
6570.75
6492.86
5253.15
4830.31
4931.43
4869.08
4764.46
4715.82
4823.12
4767.94
4657.88
5017.53
5098.55
5164.99
6363.7
6261.3
6135.61
6018.42
4945.23
4608.29
4720.46
4669.74
4556.19
4509.21
4622.91
4575.28
4463.26
4718.68
4793.44
4867.02
5886.86
5755.58
5613.87
5471.9
4647.16
4421.36
4529.23
4481.67
4381.37
4343.53
4431.38
4379.88
4304.75
4435.94
4506.26
4575.82
5319.94
5159.09
4985.66
7130.38
7497.09
7813.64
8095.7
8350.77
8593.65
8807.77
9013.23
9194.5
9377.12
9533.51
9697.56
9827.19
19298.4
34301.1
37123.4
63460.2
62470.6
65056.7
37615.3
34698.6
19252.3
19149.4
19012.1
18841.3
35705.9
39007.3
35407.6
38572.5
35066.8
38111.5
66683
63998.2
89963.5
97878.5
89032.7
96999.6
87647.1
95460
86734.9
94582.4
158421
152306
153788
160112
155323
161858
157111
163474
158906
165661
99639.5
91508.7
100665
167642
161038
163199
92579.1
65590.2
68443.7
94296
102632
170236
165750
172659
103829
95527.6
67302.1
70332
69133
72347.4
39388.7
35943.4
18640.5
18405.7
18134.5
17826.5
36024.2
39970.6
36129.7
39902.2
36092
39697.3
74481.9
71079.7
102553
111530
100943
109899
98835.7
107434
97428.9
106034
175713
168332
171312
178611
174304
182192
177835
185680
181399
189922
114282
104892
116153
194091
185569
189793
106686
73132.8
76708.1
109241
119199
199082
194672
203985
121298
111211
75262.7
78976.1
77433.5
81227.3
39867.5
35747.1
17472.8
17058.9
16551.6
15736.3
33527.7
38321.7
34554.6
39094.8
35293.3
39568.8
83368.8
79574.3
121475
133125
119174
130575
116177
126946
114017
124629
209727
199605
205233
215364
210859
221842
217194
228104
223386
235118
136993
124633
139671
241738
230206
236623
127000
81561.8
85140.8
130133
143608
248712
243384
254789
146264
132359
83127.1
86078.9
84041.4
86165.3
37304.4
32202.6
14702.7
6703.39
4797.17
4358.39
4268.05
4335.3
4280.92
4224.08
4158.54
4212.46
4115.79
4055.59
4101.15
4213.51
4285.39
4569.77
4369.68
4187.56
3963.23
3930.25
3901.96
3986.23
3820.68
3687.1
3420.61
3630.12
3421.31
3133.58
2993.27
3345.66
3673.94
3641.69
3182.56
2635.73
2318.67
2648.98
2848.68
3217.4
3035.98
2593.44
2382.21
2885.36
2765.73
2200.84
1845.48
2090.51
2297.72
1949.89
1770.01
1537.73
1428.86
1725.17
2078.63
2680.08
2612.09
1967.55
1907.49
2570.04
2535.04
1850.06
1419.06
1496.75
1570.06
1288.54
1220.57
1131.46
912.242
984.24
1041.79
1160.42