/*--------------------------------*- C++ -*----------------------------------*\
| =========                 |                                                 |
| \\      /  F ield         | OpenFOAM: The Open Source CFD Toolbox           |
|  \\    /   O peration     | Version:  v2006                                 |
|   \\  /    A nd           | Website:  www.openfoam.com                      |
|    \\/     M anipulation  |                                                 |
\*---------------------------------------------------------------------------*/
FoamFile
{
    version     2.0;
    format      ascii;
    class       surfaceScalarField;
    location    "0.004";
    object      phi;
}
// * * * * * * * * * * * * * * * * * * * * * * * * * * * * * * * * * * * * * //

dimensions      [1 0 -1 0 0 0 0];
oriented        oriented;


internalField   nonuniform List<scalar> 
21908
(
-6.539e-05
-0.00417482
0.00412447
0.000116214
-0.0039131
0.00384816
1.41744e-05
0.000233372
-6.13525e-05
0.00444783
8.21283e-05
0.00485305
-0.000163894
0.00489575
-2.52564e-05
0.00498576
-7.50787e-05
0.00490059
-4.18028e-06
0.00488033
-1.11276e-05
0.00483083
3.00705e-06
0.0048132
-8.2473e-07
0.00479866
3.75785e-07
0.00479467
-9.98861e-08
0.00479306
1.4419e-07
0.00479264
1.49366e-07
0.00479317
-8.45403e-08
0.00479369
-7.82865e-08
0.00479373
-7.15653e-08
0.00479397
-6.43797e-08
0.0047942
-5.67247e-08
0.0047944
-4.86001e-08
0.00479459
-4.00237e-08
0.00479474
-3.10366e-08
0.00479487
-2.17054e-08
0.00479498
-1.21261e-08
0.00479505
-2.42659e-09
0.0047951
7.22738e-09
0.00479511
1.6621e-08
0.0047951
2.54714e-08
0.00479505
3.34039e-08
0.00479498
3.99521e-08
0.00479488
4.46587e-08
0.00479475
4.73404e-08
0.0047946
2.88105e-07
0.00479419
2.88347e-07
0.00479424
4.86337e-08
0.00479431
4.83884e-08
0.00479393
4.7606e-08
0.00479383
4.38734e-08
0.00479371
3.13809e-08
0.00479359
8.17114e-09
0.00479378
-1.24877e-08
0.00479457
-1.90945e-08
0.00479619
-2.73326e-08
0.0047984
-4.5321e-08
0.00480091
-7.2911e-08
0.00480357
-1.05353e-07
0.00480629
-1.34477e-07
0.00480892
-1.50466e-07
0.00481131
9.47194e-08
0.00481304
2.28814e-06
0.0048126
-7.32919e-08
0.00481336
-1.11523e-08
0.00480429
-9.56975e-06
0.00478763
-1.67137e-05
0.0047514
-6.96059e-05
0.00467875
-0.000108046
0.00458659
-0.000305335
0.00443404
-0.000500128
0.00432947
-0.00116856
0.00432787
-0.00262669
0.00504865
-0.000785327
0.00124173
0.000115087
0.00218963
-8.18923e-05
0.00274873
-5.34608e-05
0.00259328
-0.000170678
0.00216746
-2.58723e-05
0.00197696
-1.72409e-05
0.000718165
-1.14779e-05
0.000597335
0.000484933
2.04985e-05
0.000464467
4.32945e-05
0.000574577
0.000697392
6.41115e-05
-2.22967e-05
0.00068527
3.44653e-05
-1.17585e-05
0.000564077
0.00045274
5.1142e-06
0.000447663
3.91161e-06
0.000565323
0.000682769
6.46376e-06
-3.34258e-06
0.00068724
-1.07572e-06
-4.37152e-06
0.000566395
0.000443328
1.77613e-06
0.000441592
5.43149e-06
0.000562786
0.000686963
5.76402e-06
-4.74192e-06
0.000686597
5.16304e-06
-5.74259e-06
0.000563833
0.000435888
3.11646e-06
0.00043281
4.26994e-06
0.000562725
0.000686287
4.63544e-06
-3.86148e-06
0.000683576
6.62574e-06
-2.75658e-06
0.000561665
0.000430091
2.44753e-06
0.000427681
3.48148e-06
0.000560675
0.00068325
3.86061e-06
-5.5558e-06
0.000685264
3.59328e-06
-2.22376e-06
0.000557385
0.000425492
2.01097e-06
0.000423516
6.30747e-07
0.000558806
0.000682551
3.39278e-06
-5.1149e-06
0.00068451
3.20405e-06
-1.86749e-06
0.000555598
0.000421681
1.70934e-06
0.000420003
2.71184e-07
0.000557074
0.00068176
3.06712e-06
-4.78552e-06
0.000683684
2.90502e-06
-1.60675e-06
0.000553931
0.000418427
1.47861e-06
0.000416977
-1.4349e-08
0.000555459
0.000680923
2.78763e-06
-4.5086e-06
0.00068284
2.6314e-06
-1.40147e-06
0.000552384
0.000415602
1.28952e-06
0.000414338
-2.66737e-07
0.00055397
0.000680085
2.52471e-06
-4.27353e-06
0.000682014
2.37956e-06
-1.23493e-06
0.00055096
0.000413126
1.13505e-06
0.000412013
-4.82336e-07
0.000552603
0.00067928
2.28305e-06
-4.06635e-06
0.000681229
2.14658e-06
-1.09624e-06
0.000549657
0.000410936
1.00528e-06
0.000409949
-6.72904e-07
0.000551356
0.000678526
2.05567e-06
-3.87951e-06
0.000680504
1.92502e-06
-9.77759e-07
0.000548474
0.000408987
8.93692e-07
0.000408106
-8.44888e-07
0.000550228
0.00067784
1.83928e-06
-3.71058e-06
0.000679852
1.71538e-06
-8.75516e-07
0.000547407
0.000407242
7.97216e-07
0.000406453
-1.00008e-06
0.000549215
0.000677231
1.63532e-06
-3.55814e-06
0.000679281
1.51866e-06
-7.87123e-07
0.000546453
0.000405673
7.13598e-07
0.000404963
-1.14022e-06
0.000548312
0.000676704
1.44398e-06
-3.42056e-06
0.000678794
1.33438e-06
-7.10486e-07
0.000545604
0.000404254
6.40706e-07
0.000403612
-1.26742e-06
0.000547512
0.000676262
1.26423e-06
-3.2954e-06
0.000678394
1.16089e-06
-6.4341e-07
0.000544856
0.000402965
5.76409e-07
0.000402383
-1.38408e-06
0.000546811
0.000675909
1.0938e-06
-3.17976e-06
0.000678084
9.95758e-07
-5.83554e-07
0.000544206
0.000401791
5.17983e-07
0.000401263
-1.49379e-06
0.000546206
0.000675648
9.29808e-07
-3.07031e-06
0.000677867
8.35084e-07
-5.28466e-07
0.00054365
0.000400722
4.62985e-07
0.000400245
-1.6e-06
0.000545696
0.00067548
7.68151e-07
-2.96324e-06
0.000677747
6.74871e-07
-4.75529e-07
0.00054319
0.000399753
4.08892e-07
0.000399327
-1.70654e-06
0.000545284
0.000675411
6.04199e-07
-2.85467e-06
0.000677728
5.10312e-07
-4.22355e-07
0.000542828
0.000398885
3.53261e-07
0.000398511
-1.81744e-06
0.000544974
0.000675448
4.33023e-07
-2.74103e-06
0.000677821
3.36566e-07
-3.66713e-07
0.000542573
0.000398122
2.94e-07
0.000397804
-1.93652e-06
0.000544775
0.000675601
2.49429e-07
-2.61834e-06
0.000678035
1.48584e-07
-3.06478e-07
0.000542433
0.000397474
2.28333e-07
0.00039722
-2.06924e-06
0.000544699
0.000675883
4.47742e-08
-2.4823e-06
0.000678389
-6.24179e-08
-2.39274e-07
0.000542424
0.000396954
1.57848e-07
0.000396769
-2.21294e-06
0.000544761
0.000676312
-1.76849e-07
-2.32968e-06
0.000678901
-3.00198e-07
-1.63816e-07
0.000542561
0.000396578
7.82144e-08
0.000396471
-2.3766e-06
0.00054498
0.000676909
-4.27558e-07
-2.15801e-06
0.000679591
-5.66904e-07
-7.79294e-08
0.000542865
0.000396364
-1.41503e-08
0.000396349
-2.56252e-06
0.000545377
0.000677694
-7.10272e-07
-1.96441e-06
0.000680481
-8.66758e-07
2.38921e-08
0.000543352
0.000396344
-1.23568e-07
0.000396437
-2.77277e-06
0.000545964
0.000678691
-1.02843e-06
-1.74994e-06
0.000681598
-1.20217e-06
1.34288e-07
0.000544043
0.000396542
-2.38942e-07
0.000396751
-3.00628e-06
0.000546773
0.00067993
-1.38448e-06
-1.51417e-06
0.000682975
-1.57617e-06
2.51553e-07
0.00054497
0.000396972
-3.61872e-07
0.000397303
-3.26395e-06
0.000547834
0.000681447
-1.78156e-06
-1.25462e-06
0.000684649
-1.99343e-06
3.78362e-07
0.000546164
0.000397651
-4.95242e-07
0.000398115
-3.54949e-06
0.00054918
0.00068328
-2.22564e-06
-9.6783e-07
0.000686661
-2.45963e-06
5.16653e-07
0.000547658
0.0003986
-6.41526e-07
0.000399209
-3.86712e-06
0.000550845
0.000685471
-2.72298e-06
-6.50505e-07
0.000689055
-2.98056e-06
6.68374e-07
0.000549488
0.000399845
-8.02529e-07
0.000400615
-4.22074e-06
0.000552868
0.000688068
-3.27993e-06
-2.98797e-07
0.000691883
-3.56245e-06
8.35418e-07
0.000551694
0.000401417
-9.81241e-07
0.000402364
-4.6182e-06
0.000555292
0.000691124
-3.90681e-06
1.00811e-07
0.000695204
-4.22699e-06
1.02388e-06
0.000554329
0.000403354
-1.18147e-06
0.000404501
-5.06983e-06
0.000558178
0.000694702
-4.61544e-06
5.49698e-07
0.000699079
-4.97334e-06
1.234e-06
0.000557454
0.000405701
-1.40555e-06
0.000407073
-5.57538e-06
0.000561585
0.000698872
-5.41466e-06
1.05348e-06
0.000703589
-5.81702e-06
1.46993e-06
0.000561129
0.000408509
-1.6592e-06
0.000410135
-6.14865e-06
0.00056558
0.000703718
-6.3237e-06
1.62685e-06
0.000708827
-6.78047e-06
1.73866e-06
0.00056543
0.00041184
-1.9482e-06
0.000413756
-6.80309e-06
0.000570247
0.000709342
-7.36321e-06
2.27621e-06
0.000714897
-7.87454e-06
2.04262e-06
0.000570443
0.000415767
-2.27179e-06
0.000418007
-7.53788e-06
0.000575673
0.000715848
-8.53133e-06
2.99747e-06
0.000721902
-9.09278e-06
2.37927e-06
0.000576256
0.000420356
-2.62885e-06
0.000422955
-8.3522e-06
0.000581945
0.000723335
-9.82573e-06
3.7989e-06
0.000729946
-1.04487e-05
2.75375e-06
0.000582957
0.000425681
-3.0301e-06
0.000428683
-9.26797e-06
0.000589163
0.000731921
-1.12808e-05
4.70874e-06
0.000739164
-1.19881e-05
3.18029e-06
0.00059066
0.000431837
-3.49091e-06
0.000435303
-1.03173e-05
0.000597457
0.00074176
-1.29477e-05
5.75222e-06
0.00074973
-1.37552e-05
3.66985e-06
0.000599512
0.000438948
-4.01297e-06
0.000442938
-1.15073e-05
0.000606979
0.000753032
-1.48401e-05
6.89842e-06
0.000761807
-1.57027e-05
4.20621e-06
0.000609646
0.000447123
-4.56728e-06
0.000451669
-1.27813e-05
0.000617837
0.000765863
-1.68657e-05
8.10285e-06
0.000775494
-1.77596e-05
4.76796e-06
0.000621149
0.000456418
-5.15041e-06
0.00046155
-1.41311e-05
0.000630109
0.000780351
-1.90127e-05
9.37891e-06
0.000790899
-1.99495e-05
5.36236e-06
0.000634106
0.000466896
-5.7721e-06
0.000472652
-1.55767e-05
0.000643893
0.000796615
-2.13138e-05
1.07433e-05
0.000808155
-2.23026e-05
5.99782e-06
0.000648622
0.000478636
-6.42534e-06
0.000485048
-1.71045e-05
0.000659285
0.000814781
-2.37476e-05
1.21324e-05
0.000827349
-2.47176e-05
6.64292e-06
0.000664761
0.000491678
-7.05863e-06
0.000498725
-1.86098e-05
0.000676299
0.00083487
-2.61452e-05
1.34303e-05
0.000848432
-2.70067e-05
7.2418e-06
0.000682476
0.000505957
-7.63899e-06
0.000513586
-2.00211e-05
0.000694847
0.000856794
-2.83957e-05
1.46084e-05
0.000871299
-2.91255e-05
7.78226e-06
0.000701663
0.000521359
-8.14155e-06
0.000529491
-2.12829e-05
0.000714794
0.000880412
-3.04065e-05
1.56046e-05
0.000895771
-3.09742e-05
8.23464e-06
0.000722155
0.000537718
-8.51678e-06
0.000546226
-2.22906e-05
0.00073592
0.000905477
-3.20068e-05
1.62523e-05
0.000921498
-3.2283e-05
8.51936e-06
0.000743645
0.000554738
-8.69604e-06
0.000563426
-2.28975e-05
0.000757838
0.000931562
-3.29716e-05
1.64047e-05
0.000947969
-3.28212e-05
8.57326e-06
0.000765661
0.000571991
-8.6085e-06
0.000580592
-2.29756e-05
0.000780019
0.000958093
-3.31091e-05
1.59677e-05
0.000974539
-3.24246e-05
8.33764e-06
0.00078764
0.000588921
-8.22161e-06
0.000597134
-2.24068e-05
0.000801816
0.000984335
-3.22136e-05
1.49187e-05
0.00100046
-3.10539e-05
7.80751e-06
0.000808916
0.000604932
-7.52769e-06
0.00061245
-2.11876e-05
0.000822566
0.00100954
-3.02807e-05
1.32463e-05
0.00102495
-2.86722e-05
6.97518e-06
0.000828825
0.000619414
-6.54754e-06
0.000625951
-1.93283e-05
0.000841593
0.00103292
-2.73141e-05
1.09966e-05
0.00104726
-2.53479e-05
5.87695e-06
0.000846699
0.000631815
-5.34194e-06
0.000637145
-1.6988e-05
0.000858331
0.00105384
-2.35849e-05
8.36878e-06
0.00106684
-2.13895e-05
4.59618e-06
0.000862088
0.000641726
-4.01393e-06
0.000645727
-1.4392e-05
0.00087245
0.00107188
-1.94514e-05
5.59466e-06
0.00108341
-1.71447e-05
3.23544e-06
0.000874791
0.000648947
-2.62454e-06
0.000651557
-1.1678e-05
0.000883826
0.00108685
-1.51415e-05
2.86239e-06
0.00109692
-1.29523e-05
1.89414e-06
0.000884775
0.000653435
-1.35153e-06
0.000654771
-9.14216e-06
0.000892545
0.00109884
-1.10931e-05
4.06967e-07
0.00110757
-9.15634e-06
7.09812e-07
0.000892221
0.000655464
-2.71699e-07
0.00065572
-6.92184e-06
0.00089885
0.0011081
-7.48075e-06
-1.68727e-06
0.0011156
-5.83763e-06
-2.3437e-07
0.000897375
0.000655468
5.35135e-07
0.000654916
-5.07041e-06
0.000902959
0.00111494
-4.43435e-06
-3.3828e-06
0.00112138
-3.08611e-06
-9.34764e-07
0.000900489
0.000653964
1.13887e-06
0.000652809
-3.60682e-06
0.000905212
0.00111973
-1.98666e-06
-4.66366e-06
0.00112533
-9.58836e-07
-1.43794e-06
0.000901965
0.000651354
1.57923e-06
0.000649759
-2.49316e-06
0.000906015
0.0011229
-9.27996e-08
-5.67958e-06
0.00112781
7.46986e-07
-1.8291e-06
0.000902144
0.000647914
1.9045e-06
0.000645994
-1.60135e-06
0.000905629
0.00112472
1.45697e-06
-6.42921e-06
0.00112907
2.05962e-06
-2.09346e-06
0.000901274
0.000643886
2.12551e-06
0.000641747
-9.40507e-07
0.000904321
0.00112546
2.64966e-06
-6.9876e-06
0.00112932
3.09797e-06
-2.27455e-06
0.00089959
0.00063946
2.26298e-06
0.000637186
-4.51625e-07
0.000902289
0.00112528
3.56901e-06
-7.37218e-06
0.00112877
3.8703e-06
-2.37531e-06
0.000897278
0.0006348
2.32122e-06
0.00063247
-1.27271e-07
0.000899714
0.00112439
4.23073e-06
-7.5992e-06
0.00112758
4.39942e-06
-2.40149e-06
0.000894505
0.000630062
2.31918e-06
0.000627737
4.71346e-08
0.000896768
0.00112296
4.65053e-06
-7.67736e-06
0.00112591
4.72087e-06
-2.36357e-06
0.000891448
0.00062537
2.25887e-06
0.000623108
9.71516e-08
0.000893605
0.00112111
4.88643e-06
-7.67009e-06
0.00112391
4.86706e-06
-2.28712e-06
0.000888219
0.000620821
2.16242e-06
0.000618659
6.16896e-08
0.000890318
0.001119
4.97223e-06
-7.57846e-06
0.00112168
4.89826e-06
-2.17786e-06
0.000884918
0.000616483
2.03973e-06
0.000614447
-3.68338e-08
0.000886997
0.00111669
4.94521e-06
-7.4289e-06
0.0011193
4.82747e-06
-2.04759e-06
0.000881619
0.000612404
1.8975e-06
0.000610512
-1.89596e-07
0.000883711
0.00111428
4.8346e-06
-7.22419e-06
0.00111684
4.66191e-06
-1.89769e-06
0.000878391
0.000608621
1.72926e-06
0.000606899
-4.22486e-07
0.000880549
0.00111183
4.60116e-06
-6.89886e-06
0.00111048
8.25456e-06
-1.67625e-06
0.000875333
0.00060523
1.47288e-06
0.000603764
2.8778e-06
0.000873935
0.00110931
4.04607e-06
-6.16364e-06
0.00110821
7.27432e-06
-1.27052e-06
0.000869049
0.0006025
5.49669e-07
0.000601957
-2.26427e-06
0.000871869
0.00111155
-5.6003e-06
2.53033e-05
0.00112764
-4.13857e-05
1.02173e-05
0.00088696
0.00061218
-2.38682e-05
0.000636053
-5.14341e-05
0.00091453
0.00116431
-8.81036e-05
2.89823e-05
-4.89662e-05
9.9692e-06
-0.000238734
-0.00328228
-4.48449e-05
-0.00356468
-0.000109871
-0.00398707
6.07887e-05
-0.00402669
-3.95452e-06
-0.00416775
4.07231e-05
-0.00410934
4.83083e-06
-0.00410848
8.90831e-06
-0.00406098
5.76748e-06
-0.00404878
5.68503e-06
-0.00401634
6.76628e-06
-0.00400437
6.58486e-06
-0.00397738
1.57328e-05
-0.00395205
2.30941e-05
-0.00389908
4.39042e-05
-0.00383476
7.695e-05
-0.00373682
0.000157745
-0.00360429
0.000261392
-0.00343113
0.000591109
-0.00334529
0.00108467
-0.00332484
0.000635571
-0.00189536
0.000300128
-0.00182028
0.000242148
-0.00158331
7.97265e-05
-0.00134907
4.59267e-05
-0.000450847
2.00032e-05
-0.000347749
-0.000238562
-2.47436e-05
-0.000213821
-6.25952e-05
-0.000309901
-0.000406824
-0.000106621
4.77764e-05
-0.000365917
-8.86869e-05
2.16239e-05
-0.000283751
-0.0001922
-1.37272e-05
-0.000178476
-3.56619e-05
-0.00026182
-0.000341045
-6.05365e-05
7.43129e-06
-0.000336168
-1.23117e-05
3.32982e-06
-0.000257721
-0.000175149
-3.07498e-06
-0.000172077
-1.23728e-05
-0.000248427
-0.000328352
-2.01915e-05
-4.47041e-06
-0.000327786
3.90104e-06
1.60728e-07
-0.000253061
-0.000171919
-2.81544e-06
-0.000169107
-9.20155e-06
-0.000246678
-0.000323547
-1.34434e-05
-4.41666e-06
-0.000326082
6.94857e-06
-2.11508e-06
-0.000248983
-0.000171225
-2.80347e-06
-0.000168424
-6.33974e-06
-0.000245449
-0.000322047
-1.03784e-05
-4.42208e-06
-0.000324648
7.02057e-06
-2.06193e-06
-0.000247812
-0.000170489
-2.80609e-06
-0.000167686
-6.3427e-06
-0.000244278
-0.000320616
-1.03774e-05
-4.36392e-06
-0.000323176
6.92119e-06
-2.03687e-06
-0.000246608
-0.000169726
-2.80386e-06
-0.000166925
-6.33705e-06
-0.000243078
-0.000319142
-1.03727e-05
-4.33236e-06
-0.0003217
6.88718e-06
-2.02169e-06
-0.000245391
-0.000168949
-2.82116e-06
-0.000166131
-6.36806e-06
-0.000241846
-0.000317656
-1.04141e-05
-4.22841e-06
-0.000320148
6.71814e-06
-1.97352e-06
-0.000244103
-0.000168107
-2.83249e-06
-0.000165277
-6.39126e-06
-0.000240547
-0.000316082
-1.04591e-05
-4.1807e-06
-0.000318563
6.65922e-06
-1.95267e-06
-0.000242777
-0.000167232
-2.85566e-06
-0.000164379
-6.43995e-06
-0.000239195
-0.000314468
-1.05365e-05
-4.05285e-06
-0.000316871
6.45409e-06
-1.89558e-06
-0.000241354
-0.000166276
-2.87243e-06
-0.000163406
-6.48233e-06
-0.000237747
-0.000312745
-1.06106e-05
-3.98826e-06
-0.000315127
6.36735e-06
-1.86673e-06
-0.00023987
-0.000165275
-2.90331e-06
-0.000162374
-6.54546e-06
-0.00023623
-0.000310966
-1.07085e-05
-3.83255e-06
-0.000313258
6.12255e-06
-1.79526e-06
-0.00023827
-0.000164171
-2.93074e-06
-0.000161242
-6.6085e-06
-0.000234594
-0.000309054
-1.08151e-05
-3.75805e-06
-0.000311317
6.01906e-06
-1.76185e-06
-0.000236592
-0.000163006
-2.94261e-06
-0.000160065
-6.67069e-06
-0.000232866
-0.000307068
-1.09221e-05
-3.57122e-06
-0.000309233
5.73266e-06
-1.66476e-06
-0.000234775
-0.000161732
-2.98968e-06
-0.000158745
-6.74428e-06
-0.000231023
-0.000304929
-1.10504e-05
-3.49992e-06
-0.000307083
5.65055e-06
-1.63136e-06
-0.000232894
-0.000160378
-3.01175e-06
-0.000157368
-6.78e-06
-0.000229128
-0.000302774
-1.10918e-05
-3.26081e-06
-0.000304813
5.29637e-06
-1.51531e-06
-0.000230876
-0.000158886
-3.07506e-06
-0.000155813
-6.9058e-06
-0.000227047
-0.000300443
-1.12784e-05
-3.18249e-06
-0.000302466
5.2015e-06
-1.47623e-06
-0.000228756
-0.000157291
-3.1015e-06
-0.000154192
-6.94308e-06
-0.000224917
-0.000298104
-1.13081e-05
-2.90548e-06
-0.000299984
4.78257e-06
-1.34278e-06
-0.000226483
-0.000155537
-3.1682e-06
-0.00015237
-7.08831e-06
-0.000222565
-0.000295531
-1.15452e-05
-2.84848e-06
-0.000297413
4.72618e-06
-1.31358e-06
-0.000224103
-0.000153686
-3.19494e-06
-0.000150493
-7.12314e-06
-0.000220178
-0.000292977
-1.15621e-05
-2.56102e-06
-0.00029471
4.28931e-06
-1.17602e-06
-0.000221566
-0.000151672
-3.25827e-06
-0.000148416
-7.26853e-06
-0.000217558
-0.000290158
-1.18237e-05
-2.51732e-06
-0.000291918
4.273e-06
-1.14691e-06
-0.000218931
-0.000149565
-3.33031e-06
-0.000146236
-7.3117e-06
-0.000214953
-0.000287411
-1.18224e-05
-2.20914e-06
-0.000288996
3.78976e-06
-1.02752e-06
-0.000216137
-0.000147266
-3.39263e-06
-0.000143875
-7.45456e-06
-0.000212078
-0.000284363
-1.20919e-05
-2.21144e-06
-0.000286024
3.86918e-06
-1.01108e-06
-0.000213281
-0.000144889
-3.45222e-06
-0.000141438
-7.51669e-06
-0.00020922
-0.000281549
-1.19966e-05
-2.01229e-06
-0.000283001
3.46018e-06
-9.12841e-07
-0.000210322
-0.000142353
-3.50353e-06
-0.000138851
-7.60617e-06
-0.000206222
-0.000278457
-1.21535e-05
-2.23371e-06
-0.000280056
3.82858e-06
-1.01386e-06
-0.000207444
-0.000139867
-3.42335e-06
-0.000136445
-7.41073e-06
-0.000203459
-0.000275641
-1.18301e-05
-2.2197e-06
-0.000277272
3.84631e-06
-9.95008e-07
-0.000204687
-0.000137442
-3.34298e-06
-0.000134101
-7.24644e-06
-0.000200786
-0.000272871
-1.16513e-05
-2.92245e-06
-0.000274889
4.93634e-06
-1.34668e-06
-0.000202364
-0.000135449
-3.00604e-06
-0.000132444
-6.57053e-06
-0.000198802
-0.000270834
-1.06294e-05
-3.56721e-06
-0.00027322
5.94922e-06
-1.67959e-06
-0.000200692
-0.000134125
-2.36019e-06
-0.000131766
-5.47803e-06
-0.000197576
-0.00026708
-1.16221e-05
-4.68635e-06
-0.0002721
9.70226e-06
-2.30262e-06
-0.000199962
-0.00013407
-1.82046e-06
-0.000132251
-4.55686e-06
-0.000197228
-0.000266098
-1.05627e-05
-5.38445e-06
-0.000268169
7.45222e-06
-1.65263e-06
-0.000200962
-0.000133906
-2.59105e-06
-0.000131316
-6.48258e-06
-0.000197073
-0.000265879
-8.77727e-06
-1.72875e-06
-0.000271028
6.87392e-06
-1.66237e-06
-0.000197142
-0.000132981
-2.57624e-06
-0.000130407
-5.64742e-06
-0.000194073
-0.000264871
-1.1809e-05
-5.20595e-06
-0.00026714
7.47145e-06
-1.41209e-06
-0.00019787
-0.000131821
-3.66385e-06
-0.00012816
-7.25687e-06
-0.00019428
-0.000267557
-6.84482e-06
-3.15413e-06
-0.000270658
6.24997e-06
-1.25437e-06
-0.000196183
-0.000129417
-3.45871e-06
-0.000125961
-4.37473e-06
-0.000195271
-0.000270018
-5.01969e-06
-3.97896e-06
-0.000275031
8.98696e-06
-8.07521e-07
-0.000198446
-0.000126771
-3.16996e-06
-0.000123604
-4.10709e-06
-0.000197513
-0.000277351
-1.79332e-06
-2.40118e-06
-0.00028493
9.97329e-06
1.28834e-06
-0.000201206
-0.000122318
-3.10228e-06
-0.000119218
-4.14636e-06
-0.000200166
-0.000289303
2.19823e-07
-3.20462e-06
-0.000299688
1.35813e-05
2.57064e-06
-0.000205946
-0.000116651
-2.67308e-06
-0.000113981
-2.31521e-06
-0.000206308
-0.000308396
6.38497e-06
-1.1191e-05
-0.000607178
0.00030996
-2.36324e-06
-0.000215141
-0.000116348
2.23174e-06
-0.000118583
0.000195956
-0.000408873
-0.000495584
8.43441e-05
-0.000101814
-0.000528626
0.000134836
-0.000123973
-0.000386725
-0.000242563
-2.4789e-07
-0.000242325
6.91894e-05
-0.000456177
-0.000723258
0.000263789
0.000133694
-0.000435936
-0.000421037
3.74355e-05
-0.000359931
-0.0002049
1.36471e-05
-0.000218558
3.68197e-05
-0.000383113
-0.000556732
0.000157603
-8.47522e-05
-0.000615162
0.000143155
-3.12346e-05
-0.000436644
-0.000249805
2.2807e-05
-0.000272628
6.72543e-05
-0.000481109
-0.000672285
0.000124346
-5.85031e-05
-0.000721427
0.000107608
-1.97509e-05
-0.000519882
-0.000292397
2.12871e-05
-0.000313704
5.98557e-05
-0.000558477
-0.000771879
0.000110268
-6.38446e-05
-0.000815966
0.000107887
-2.42229e-05
-0.000598128
-0.000337949
2.20904e-05
-0.000360065
7.20272e-05
-0.0006481
-0.000872266
0.000128278
-1.61605e-05
-0.00100881
0.000152637
3.23114e-07
-0.000664622
-0.000359768
-1.66851e-05
-0.00034311
-0.000137754
-0.000543584
-0.00060473
-0.000541864
-4.27607e-05
-0.000750245
0.000188249
-2.77648e-05
-0.000558605
-0.0003709
4.23487e-05
-0.000413275
8.56127e-05
-0.000601899
-0.000817846
0.000153176
-4.92755e-05
-0.000824236
5.56209e-05
-2.68006e-05
-0.000624407
-0.000440103
-4.22239e-06
-0.000435909
-4.97592e-05
-0.000578903
-0.000819548
-5.45e-05
0.000170916
-0.000456086
-0.000534403
2.31309e-05
-0.00043114
-0.000412805
5.25456e-07
-0.000413353
-4.42529e-05
-0.000386377
-0.000565877
6.55213e-05
4.44501e-05
-0.000340957
-0.000269382
-2.30543e-05
-0.000318884
-0.000436427
5.32034e-05
-0.000489648
6.14273e-05
-0.000327117
-0.000417502
0.000137964
-0.00010578
-0.000460349
0.000148613
-8.05424e-05
-0.000352367
-0.000570208
9.17522e-05
-0.00066198
0.000130166
-0.000390794
-0.000499464
0.000169266
-0.000122034
-0.000643502
0.000266052
-9.04366e-05
-0.000422406
-0.000752436
9.18448e-05
-0.0008443
4.14274e-05
-0.000372
-0.000384049
-0.000218035
-0.000158136
-0.000462149
0.000236228
-0.0001368
-0.000393347
-0.000981119
0.00019113
-0.00117227
0.000253835
-0.000456064
-0.000531517
0.000323192
-0.00026507
-0.000706333
0.000439871
-0.000213658
-0.000507489
-0.00138596
0.000214682
-0.00160067
0.0001525
-0.000445318
-0.000413103
-0.000140738
-0.000277125
-0.000479334
0.000343349
-0.000266715
-0.000455741
-0.00186742
0.000299608
-0.00216707
0.000344962
-0.000501109
-0.000645515
0.000511133
-0.000203068
-0.000364768
-7.7685e-05
-0.000286133
-0.000418054
-0.00245324
0.000296223
-0.00274951
0.000294048
-0.000415887
-0.000402056
0.000331332
-0.000320046
-0.000527599
0.000445583
-0.000259175
-0.000476765
-0.00300873
8.80895e-05
-0.00309686
-9.4506e-06
-0.000379229
-0.00037576
-0.000161296
0.000160962
-0.000315428
-0.000221299
7.40464e-05
-0.000292317
-0.00302285
-0.000199869
-0.00282302
-0.00023755
-0.000254638
-0.000277196
-0.000275785
0.000329688
-0.000261122
-0.000345765
0.000313589
-0.000238541
-0.00250946
-0.000396159
-0.00211333
-0.000465933
-0.00016877
-0.000135923
-0.000591135
0.000397087
-0.000106138
-0.000426874
0.000372609
-0.000144295
-0.00174074
-0.000330675
-0.00141008
-0.000331277
-0.000143694
-0.000149781
-0.000287635
0.000309268
-9.90981e-05
-0.000359954
0.000300583
-0.000135011
-0.00110951
-0.000263307
-0.000846208
-0.000274675
-0.000123644
-0.000152451
-0.000221323
0.000284857
-3.6631e-05
-0.000400679
0.000238434
-7.72221e-05
-0.000607775
-0.000167228
-0.000440545
-0.000172142
-7.23083e-05
-5.19264e-05
-0.000156847
0.00014215
-9.01474e-05
-0.000103928
0.000135676
-6.58331e-05
-0.000304864
-0.000113307
-0.00019155
-0.000144264
-3.48744e-05
-1.30825e-05
-0.000221328
8.95622e-05
-1.80002e-05
-8.46431e-05
8.13872e-05
-2.66973e-05
-0.000110153
-6.5324e-05
-4.4819e-05
-7.96051e-05
-1.2413e-05
-2.88051e-05
-6.87976e-05
7.65769e-05
2.30909e-05
-0.000128468
5.29163e-05
1.12518e-05
8.10826e-06
-4.07895e-05
4.89084e-05
-5.32546e-05
2.37212e-05
1.94138e-05
-4.95745e-05
5.47587e-05
3.97526e-05
-7.50933e-05
3.45096e-05
4.39756e-05
8.34298e-05
-2.62168e-05
0.000109659
-4.2666e-05
6.04312e-05
6.31294e-05
-6.60359e-05
3.80612e-05
5.47458e-05
-2.9673e-05
2.53741e-05
7.31248e-05
0.000135046
-2.85806e-05
0.000163641
-5.65788e-05
0.000101131
9.88284e-05
-0.000100655
5.21918e-05
9.88785e-05
-5.22312e-05
2.81412e-05
0.000125192
0.000191799
-2.71539e-05
0.000218972
-7.03526e-05
0.000168405
0.000182034
-0.000153494
3.04034e-05
0.00020094
-4.92833e-05
1.0059e-05
0.000188768
0.000229051
4.5839e-06
0.000224487
4.75685e-06
0.000188613
0.000193706
1.20097e-05
1.26716e-07
0.000157364
3.62288e-05
-1.9521e-06
0.000190708
0.000222555
-1.34106e-05
0.000235986
-4.86932e-05
0.000226009
0.000259389
-0.000150701
4.75935e-06
0.00023965
1.50101e-05
3.02292e-07
0.000230489
0.000236312
1.1348e-06
0.000235199
7.25502e-06
0.000224388
0.00019042
5.65015e-05
5.47437e-05
0.000303723
-0.000168025
1.53716e-05
0.000263783
0.000250594
6.80085e-06
0.000243818
1.22228e-05
0.000258389
0.000268371
4.76124e-05
-5.12775e-05
0.000249086
7.05879e-05
-2.48573e-05
0.000231993
0.000218982
1.30495e-05
0.000205952
2.79511e-05
0.000217109
0.000197717
7.93345e-05
4.39758e-05
0.000327046
-0.000173285
9.0244e-06
0.000252081
0.000214996
2.55059e-05
0.00018951
6.69204e-05
0.000210689
0.000265123
0.000128877
-7.0725e-05
0.000220376
0.000115488
-0.000117172
0.000257153
7.23505e-05
-6.37826e-05
0.000136143
2.30894e-05
0.000170299
0.00042189
-0.000178401
-3.9421e-05
0.000183853
0.000277491
-1.84946e-05
0.000149388
0.000117661
2.44451e-05
9.32255e-05
5.49075e-05
0.000118938
0.000147042
9.17337e-05
-5.81479e-05
0.000106114
9.90848e-05
-2.53476e-05
8.61459e-05
6.78854e-05
-6.21089e-05
0.000130003
-0.000140895
0.000164942
0.00019991
-0.00023468
-5.43759e-05
0.000165623
8.86823e-05
-2.45721e-05
0.000135153
0.000105442
2.85679e-05
7.68825e-05
6.52955e-05
9.84343e-05
0.000120056
0.000110872
0.00015836
0.000225842
-0.000264133
7.02149e-05
0.00018659
0.000147107
2.02573e-05
0.000126862
4.43019e-05
0.000162562
0.000199202
7.09643e-05
-6.03479e-05
0.000158133
0.000101432
-2.63244e-05
0.000128551
0.000100548
2.78406e-05
7.27149e-05
6.39116e-05
9.24877e-05
0.000113584
0.000108469
0.00015041
0.000215245
-0.00025206
6.59628e-05
0.000176945
0.000138687
2.77039e-05
0.000110994
6.20097e-05
0.000142654
0.000175091
0.000102184
-7.35592e-05
0.000124284
0.000124375
-3.20291e-05
0.000101132
7.89726e-05
-6.90771e-05
0.000148059
-0.000156572
0.000188638
0.000229802
-0.000262078
-7.03901e-05
0.000182777
0.000117435
-3.11589e-05
0.000149421
0.000116911
3.3559e-05
8.33603e-05
7.70341e-05
0.000105955
0.000130849
0.000128972
0.000164476
0.000240786
-0.0002744
7.28433e-05
0.000197598
0.000156213
3.19807e-05
0.000124244
7.18647e-05
0.000157729
0.000193155
0.000119516
-7.97812e-05
0.000139493
0.000133453
-3.5395e-05
0.000113351
8.88569e-05
-7.79588e-05
0.000166826
-0.000176313
0.000211717
0.000258879
-0.000295686
-5.58669e-05
0.000221934
9.28334e-05
-2.46727e-05
0.000180539
0.000142165
3.20097e-05
0.000110166
7.15604e-05
0.000141
0.000172552
0.000120957
-7.35477e-05
0.000122636
0.000123472
-3.23468e-05
9.98068e-05
7.78261e-05
-6.95292e-05
0.000147364
-0.000158735
0.000189022
0.00023018
-0.000266268
-6.806e-05
0.000184235
0.000114024
-2.97502e-05
0.000150726
0.000117624
3.52199e-05
8.24119e-05
7.99956e-05
0.000105959
0.00013027
0.00013397
0.000162704
0.000240494
-0.000272917
7.21625e-05
0.00019651
0.000154583
3.48719e-05
0.000119722
7.72483e-05
0.000154147
0.000189231
0.00012853
-8.14045e-05
0.000132251
0.000138394
-3.53367e-05
0.000108088
8.43927e-05
-7.28892e-05
0.000157291
-0.000164164
0.000199373
0.000242838
-0.000274741
-7.6552e-05
0.000191996
0.000127413
-3.38672e-05
0.000156701
0.000123434
3.74305e-05
8.60112e-05
8.46476e-05
0.000109493
0.000135508
0.000141145
0.000166937
0.000247871
-0.00027929
7.28907e-05
0.000203549
0.000158911
3.49051e-05
0.000124016
8.04379e-05
0.00015803
0.000193635
0.000134693
-8.57555e-05
0.000135253
0.000144146
-3.75985e-05
0.000109881
8.64253e-05
-7.26233e-05
0.000159057
-0.000165116
0.000202384
0.000246301
-0.000276154
-8.27514e-05
0.000192063
0.000137008
-3.68666e-05
0.000156513
0.000122201
3.96356e-05
8.25731e-05
9.03052e-05
0.000105851
0.000131011
0.000151366
0.000149801
0.000230564
-0.000249344
6.68114e-05
0.00018885
0.000149393
4.4106e-05
0.000105296
9.83678e-05
0.000134599
0.000163792
0.000165152
0.000186191
0.000289533
-0.000311918
8.27959e-05
0.000238005
0.000188102
4.44775e-05
0.000143637
9.93982e-05
0.0001831
0.000223356
0.000165596
-9.92648e-05
0.000156388
0.000166243
-4.39017e-05
0.000127746
9.97437e-05
-8.36485e-05
0.000183402
-0.000187532
0.000231641
0.0002832
-0.000314331
-9.35376e-05
0.000220638
0.00015612
-4.17517e-05
0.00017987
0.000141662
4.30615e-05
9.86092e-05
9.6955e-05
0.000125986
0.000154065
0.000163538
0.000187787
0.000281373
-0.000315082
8.37223e-05
0.000230062
0.000182341
4.14439e-05
0.000140909
9.18879e-05
0.000179633
0.000219793
0.000153488
-9.87239e-05
0.000152927
0.0001656
-4.28875e-05
0.000123805
9.80303e-05
-8.13843e-05
0.000179424
-0.00018409
0.000226522
0.000276698
-0.000307849
-9.67198e-05
0.000212095
0.000161342
-4.27856e-05
0.000172602
0.00013665
4.49708e-05
9.16874e-05
0.0001012
0.000116381
0.000142381
0.000170923
0.000160075
0.000251198
-0.000268881
7.11329e-05
0.000205333
0.000162829
4.88657e-05
0.000113973
0.000110289
0.000143921
0.000177466
0.000184034
0.000196817
0.000308877
-0.000328214
8.67395e-05
0.00025401
0.000200724
4.98025e-05
0.000150934
0.000112963
0.000190865
0.000233662
0.0001882
-0.00010604
0.000161004
0.000178708
-4.69787e-05
0.000131813
0.000103964
-8.37979e-05
0.000187772
-0.00018975
0.000237776
0.000288963
-0.000317696
-0.000100772
0.00022162
0.000168135
-4.45554e-05
0.000181575
0.000143228
4.74577e-05
9.57787e-05
0.000106401
0.000122641
0.000149825
0.000178206
0.000167253
0.000263166
-0.000280582
7.44028e-05
0.000215501
0.000170191
5.02519e-05
0.000119949
0.000114259
0.000151505
0.000185871
0.000191567
0.00020691
0.000325299
-0.000346322
9.10761e-05
0.000267351
0.000211036
5.1249e-05
0.0001598
0.000115921
0.000202696
0.000247394
0.000193848
-0.000112549
0.000170303
0.000189651
-4.94728e-05
0.00013963
0.000110337
-8.8088e-05
0.000198435
-0.000199933
0.000251486
0.000305703
-0.000335319
-0.000109342
0.000232577
0.000182488
-4.84457e-05
0.000190605
0.000150002
4.99301e-05
0.00010008
0.000113114
0.000127431
0.000156423