/*--------------------------------*- C++ -*----------------------------------*\
| =========                 |                                                 |
| \\      /  F ield         | OpenFOAM: The Open Source CFD Toolbox           |
|  \\    /   O peration     | Version:  v2006                                 |
|   \\  /    A nd           | Website:  www.openfoam.com                      |
|    \\/     M anipulation  |                                                 |
\*---------------------------------------------------------------------------*/
FoamFile
{
    version     2.0;
    format      ascii;
    class       volScalarField;
    location    "0.151";
    object      turbulenceProperties:L;
}
// * * * * * * * * * * * * * * * * * * * * * * * * * * * * * * * * * * * * * //

dimensions      [0 1 0 0 0 0 0];


internalField   nonuniform List<scalar> 
16277
(
1998.72
1998.71
1999.09
1999.22
1999.58
1999.49
1999.47
1999.27
1998.8
1998.12
1997.36
1996.68
1996.08
1995.58
1995.13
1994.72
1994.32
1993.93
1993.54
1993.17
1992.81
1992.45
1992.11
1991.77
1991.44
1991.12
1990.8
1990.49
1990.19
1989.89
1989.59
1989.31
1989.03
1988.75
1988.49
1988.23
1987.98
1987.74
1987.51
1987.29
1987.08
1986.88
1986.69
1986.52
1986.36
1986.21
1986.07
1985.95
1985.85
1985.76
1985.69
1985.63
1985.59
1985.57
1985.57
1985.58
1985.62
1985.67
1985.75
1985.84
1985.95
1986.06
1986.18
1986.25
1986.18
1985.75
1984.4
1980.76
1971.2
1947.5
1896.71
1794.46
1607.81
1316.44
954.788
611.958
356.491
195.407
103.496
54.2344
28.427
15.2737
9.1255
7.01432
5.13199
4.2779
3.52544
1.93547
1.11818
0.886071
0.988394
0.374177
0.121354
0.0320749
0.0037253
0.000676234
4.70418e-05
4.51109e-05
0.000325013
0.00146002
0.000819233
0.000221171
4.31574e-05
4.18663e-05
0.000207442
0.000698858
0.000573419
0.000187014
4.15217e-05
4.10403e-05
0.000185002
0.000550565
0.000489887
0.000173553
4.07296e-05
4.03716e-05
0.000173034
0.000482193
0.000449742
0.000166466
4.01594e-05
4.00757e-05
0.000168994
0.000448781
0.0004286
0.000163765
3.99808e-05
3.99174e-05
0.00016628
0.000428799
0.000413559
0.000161754
3.98363e-05
3.97865e-05
0.000164
0.000414578
0.000401805
0.000159924
3.97153e-05
3.96745e-05
0.000161964
0.000403228
0.000391935
0.000158198
3.96113e-05
3.95762e-05
0.000160129
0.000393602
0.000383336
0.000156562
3.95184e-05
3.94872e-05
0.000158432
0.00038515
0.000375644
0.00015499
3.94332e-05
3.94049e-05
0.000156802
0.000377548
0.00036864
0.000153467
3.93535e-05
3.93271e-05
0.000155237
0.000370606
0.000362204
0.000152004
3.92774e-05
3.92524e-05
0.000153744
0.000364216
0.000356242
0.000150607
3.92039e-05
3.91797e-05
0.000152326
0.000358304
0.000350689
0.000149279
3.91319e-05
3.91083e-05
0.000150979
0.000352808
0.000345518
0.000148014
3.90609e-05
3.90376e-05
0.000149698
0.000347689
0.000340693
0.000146811
3.89903e-05
3.89671e-05
0.000148481
0.000342911
0.000336184
0.000145666
3.89197e-05
3.88965e-05
0.000147327
0.000338444
0.000331963
0.000144581
3.88488e-05
3.88254e-05
0.000146234
0.000334257
0.000327999
0.000143554
3.87773e-05
3.87537e-05
0.000145197
0.000330319
0.00032426
0.000142578
3.8705e-05
3.8681e-05
0.000144214
0.000326599
0.00032072
0.000141651
3.86316e-05
3.86071e-05
0.000143278
0.000323071
0.000317355
0.000140767
3.85568e-05
3.85317e-05
0.000142386
0.000319715
0.000314147
0.000139922
3.84803e-05
3.84545e-05
0.000141533
0.00031651
0.000311076
0.000139112
3.84018e-05
3.83752e-05
0.000140714
0.000313439
0.000308127
0.000138332
3.8321e-05
3.82934e-05
0.000139925
0.000310487
0.000305286
0.000137579
3.82375e-05
3.82088e-05
0.000139163
0.000307641
0.000302544
0.00013685
3.8151e-05
3.8121e-05
0.000138426
0.00030489
0.000299889
0.000136143
3.8061e-05
3.80296e-05
0.000137711
0.000302227
0.000297314
0.000135456
3.79672e-05
3.79342e-05
0.000137016
0.000299644
0.000294816
0.000134787
3.78691e-05
3.78344e-05
0.000136341
0.000297138
0.000292391
0.000134138
3.77663e-05
3.77298e-05
0.000135686
0.000294707
0.00029004
0.000133507
3.76585e-05
3.76199e-05
0.000135056
0.000292351
0.000287763
0.000132899
3.75452e-05
3.75045e-05
0.000134462
0.000290076
0.000285567
0.000132318
3.7426e-05
3.73832e-05
0.000133892
0.000287886
0.000283456
0.00013176
3.73008e-05
3.72558e-05
0.000133352
0.000285784
0.000281436
0.000131233
3.71693e-05
3.71221e-05
0.000132848
0.000283782
0.000279519
0.000130744
3.70314e-05
3.69821e-05
0.000132389
0.000281893
0.000277725
0.000130302
3.68873e-05
3.68361e-05
0.000131986
0.000280139
0.000276076
0.000129917
3.67372e-05
3.66846e-05
0.000131652
0.000278585
0.000274616
0.000129607
3.65821e-05
3.65287e-05
0.000131406
0.000277266
0.000273379
0.000129389
3.64232e-05
3.63699e-05
0.000131266
0.000276186
0.000272396
0.000129284
3.62623e-05
3.62104e-05
0.000131256
0.000275406
0.000271732
0.000129317
3.61021e-05
3.60532e-05
0.000131405
0.000274995
0.000271459
0.000129519
3.59461e-05
3.59025e-05
0.000131743
0.000275032
0.000271658
0.000129925
3.57986e-05
3.57634e-05
0.00013228
0.000275597
0.000272418
0.000130558
3.56662e-05
3.56413e-05
0.000132967
0.000276744
0.000273772
0.000131339
3.55568e-05
3.55426e-05
0.000133827
0.000278613
0.000275848
0.000132314
3.54742e-05
3.54723e-05
0.000134873
0.0002812
0.000278626
0.000133478
3.54268e-05
3.54349e-05
0.000136073
0.000284444
0.000282051
0.000134804
3.54212e-05
3.54331e-05
0.000137376
0.000288221
0.000285977
0.000136178
3.54273e-05
3.54678e-05
0.000138698
0.000292478
0.000290363
0.000137505
3.54742e-05
3.55355e-05
0.000139925
0.000297092
0.00029504
0.000138745
3.5554e-05
3.56318e-05
0.000140947
0.000301677
0.000299589
0.00013977
3.56588e-05
3.57466e-05
0.000141752
0.000305923
0.000303737
0.000140493
3.57794e-05
3.58728e-05
0.000142399
0.000309675
0.000307376
0.000140976
3.59093e-05
3.60057e-05
0.000142804
0.000312843
0.000310434
0.000141282
3.60441e-05
3.61409e-05
0.000143007
0.000315385
0.000312855
0.000141326
3.61793e-05
3.62737e-05
0.000142984
0.000317298
0.000314591
0.000141163
3.63108e-05
3.64008e-05
0.000142759
0.00031857
0.000315615
0.00014082
3.64356e-05
3.65196e-05
0.000142352
0.000319405
0.00031605
0.000140336
3.65513e-05
3.66282e-05
0.000141813
0.000319582
0.000315835
0.000139667
3.66564e-05
3.67255e-05
0.000141166
0.000319113
0.000314766
0.00013881
3.675e-05
3.68107e-05
0.000140309
0.000317943
0.000313258
0.000137883
3.68312e-05
3.68834e-05
0.000139385
0.000316343
0.000311441
0.000136934
3.68997e-05
3.69435e-05
0.000138438
0.00031442
0.000309373
0.000135999
3.69559e-05
3.69919e-05
0.000137497
0.000312238
0.000307124
0.000135103
3.70007e-05
3.70296e-05
0.000136592
0.000309877
0.00030477
0.000134266
3.70351e-05
3.70578e-05
0.00013574
0.000307419
0.00030237
0.000133495
3.70606e-05
3.7078e-05
0.000134948
0.000304916
0.000299972
0.000132792
3.70784e-05
3.70908e-05
0.000134221
0.000302429
0.000297603
0.000132152
3.70897e-05
3.70983e-05
0.000133552
0.000300005
0.000295316
0.000131573
3.70958e-05
3.71016e-05
0.000132949
0.000297685
0.000293128
0.000131046
3.70974e-05
3.71015e-05
0.00013239
0.000295475
0.000291013
0.000130529
3.70957e-05
3.70985e-05
0.000131856
0.000293345
0.000289012
0.000130042
3.70924e-05
3.70926e-05
0.000131369
0.000291318
0.000287094
0.000129606
3.70859e-05
3.70849e-05
0.00013093
0.000289388
0.000285251
0.000129181
3.70762e-05
3.70771e-05
0.000130513
0.000287552
0.000283487
0.000128773
3.70665e-05
3.7067e-05
0.000130109
0.000285779
0.000281787
0.000128402
3.70572e-05
3.70541e-05
0.000129716
0.000284057
0.0002801
0.000128023
3.70453e-05
3.70442e-05
0.000129338
0.000282405
0.000278466
0.000127626
3.70308e-05
3.70332e-05
0.000128966
0.000280807
0.000276898
0.000127259
3.70173e-05
3.70189e-05
0.000128598
0.000279243
0.000275429
0.000126944
3.69988e-05
3.70104e-05
0.000128275
0.000277803
0.000273823
0.000126595
3.69777e-05
3.69988e-05
0.000127801
0.000276446
0.000272573
0.000125892
3.69313e-05
3.71171e-05
0.000128095
0.000276616
0.000274128
0.000127987
3.72221e-05
3.77423e-05
0.00012838
0.000277339
0.000290681
0.000134775
3.84463e-05
4.11148e-05
0.000127559
0.000283209
0.000420862
0.000235596
4.70794e-05
4.18586e-05
9.89362e-05
0.00022031
0.000497192
0.00104738
0.00181625
0.00244917
0.00284768
0.00358542
0.00402899
0.00441521
0.00461618
0.00469694
0.0046421
0.00443596
0.00416162
0.00372756
0.00331056
0.00266396
0.00237933
0.00181495
0.00142332
0.0010217
0.00061919
0.000299939
0.000116149
5.02095e-05
1.28611e-05
1.18208e-05
4.6281e-05
0.000105507
9.98206e-05
4.38365e-05
1.10136e-05
1.04053e-05
4.19967e-05
9.46276e-05
9.47805e-05
4.1698e-05
1.02064e-05
1.00876e-05
4.14006e-05
9.31792e-05
9.30901e-05
4.10004e-05
9.96422e-06
9.95366e-06
4.09246e-05
9.28499e-05
9.30364e-05
4.09531e-05
9.96366e-06
9.96217e-06
4.09573e-05
9.31243e-05
9.32109e-05
4.09824e-05
9.97357e-06
9.97907e-06
4.10114e-05
9.33633e-05
9.34324e-05
4.10314e-05
9.98509e-06
9.99687e-06
4.10667e-05
9.35941e-05
9.36919e-05
4.10848e-05
9.99151e-06
1.00043e-05
4.11355e-05
9.38592e-05
9.396e-05
4.11593e-05
1.00107e-05
1.0024e-05
4.12051e-05
9.41453e-05
9.42421e-05
4.12258e-05
1.00248e-05
1.00264e-05
4.12826e-05
9.443e-05
9.45141e-05
4.13004e-05
1.00443e-05
1.0046e-05
4.13465e-05
9.4696e-05
9.47817e-05
4.13627e-05
1.00531e-05
1.00547e-05
4.14231e-05
9.49867e-05
9.50834e-05
4.14435e-05
1.00737e-05
1.00756e-05
4.15031e-05
9.52919e-05
9.53855e-05
4.15236e-05
1.00834e-05
1.00854e-05
4.15834e-05
9.55942e-05
9.56923e-05
4.16066e-05
1.01044e-05
1.01064e-05
4.16613e-05
9.59091e-05
9.60116e-05
4.16913e-05
1.01148e-05
1.01171e-05
4.17536e-05
9.62301e-05
9.63304e-05
4.17801e-05
1.01365e-05
1.01386e-05
4.18379e-05
9.65502e-05
9.66543e-05
4.18656e-05
1.01468e-05
1.01492e-05
4.19343e-05
9.68833e-05
9.69866e-05
4.19629e-05
1.01632e-05
1.0177e-05
4.20127e-05
9.71999e-05
9.72976e-05
4.20451e-05
1.01794e-05
1.01823e-05
4.21056e-05
9.75133e-05
9.7614e-05
4.21326e-05
1.0196e-05
1.02106e-05
4.21912e-05
9.7842e-05
9.79488e-05
4.22259e-05
1.02133e-05
1.02169e-05
4.22996e-05
9.81893e-05
9.82998e-05
4.23325e-05
1.0231e-05
1.0246e-05
4.23947e-05
9.85277e-05
9.86304e-05
4.24262e-05
1.02484e-05
1.02515e-05
4.24956e-05
9.88454e-05
9.8942e-05
4.25199e-05
1.02653e-05
1.02801e-05
4.25808e-05
9.915e-05
9.92442e-05
4.2604e-05
1.02821e-05
1.02854e-05
4.26714e-05
9.94541e-05
9.9544e-05
4.26929e-05
1.02993e-05
1.03141e-05
4.27558e-05
9.97472e-05
9.98233e-05
4.27703e-05
1.03164e-05
1.03199e-05
4.28373e-05
0.00010002
0.000100102
4.28546e-05
1.03336e-05
1.03486e-05
4.29156e-05
0.000100292
0.000100371
4.29272e-05
1.03507e-05
1.03537e-05
4.29916e-05
0.000100557
0.000100613
4.29964e-05
1.03668e-05
1.03808e-05
4.30356e-05
0.00010077
0.0001008
4.30268e-05
1.03817e-05
1.03834e-05
4.30673e-05
0.000100949
0.00010099
4.306e-05
1.04019e-05
1.04034e-05
4.30827e-05
0.000101112
0.000101146
4.30672e-05
1.04098e-05
1.04101e-05
4.3075e-05
0.000101246
0.000101248
4.30405e-05
1.04275e-05
1.04263e-05
4.30114e-05
0.000101305
0.000101276
4.29518e-05
1.04309e-05
1.0429e-05
4.29081e-05
0.000101297
0.000101257
4.28187e-05
1.0439e-05
1.04487e-05
4.27441e-05
0.000101257
0.000101194
4.26359e-05
1.04468e-05
1.04449e-05
4.2537e-05
0.000101183
0.000101061
4.23867e-05
1.04544e-05
1.04639e-05
4.22396e-05
0.000101054
0.000100912
4.20474e-05
1.04623e-05
1.04628e-05
4.18854e-05
0.000100905
0.000100714
4.16468e-05
1.0481e-05
1.0484e-05
4.14379e-05
0.000100695
0.000100502
4.1169e-05
1.04944e-05
1.05025e-05
4.09483e-05
0.000100573
0.000100433
4.06701e-05
1.05259e-05
1.05542e-05
4.04265e-05
0.000100578
0.000100456
4.01181e-05
1.05743e-05
1.06066e-05
3.98488e-05
0.000100645
0.000100575
3.9525e-05
1.06444e-05
1.06926e-05
3.92488e-05
0.000100861
0.000101069
3.89461e-05
1.07496e-05
1.08219e-05
3.87641e-05
0.000101781
0.000102581
3.86027e-05
1.09067e-05
1.09991e-05
3.86105e-05
0.000103747
0.000105425
3.92537e-05
1.11781e-05
1.13542e-05
3.98027e-05
0.000106794
0.00010768
3.99592e-05
1.13339e-05
1.14732e-05
3.94785e-05
0.000108922
0.000110747
4.16919e-05
1.17322e-05
1.18807e-05
4.0915e-05
0.00011165
0.000112934
4.20913e-05
1.21568e-05
1.24048e-05
4.27248e-05
0.000114604
0.000114874
4.36342e-05
1.27622e-05
1.32274e-05
4.54034e-05
0.000116541
0.000116344
4.62522e-05
1.36129e-05
1.39152e-05
4.72688e-05
0.000117066
0.000116575
4.80068e-05
1.45727e-05
1.57286e-05
5.33916e-05
0.00011846
0.000116895
5.51476e-05
1.08287e-05
6.1673e-06
1.57596e-05
4.17266e-05
9.97306e-05
3.58089e-05
8.35546e-06
9.21417e-06
3.20424e-05
9.2299e-05
9.66259e-05
3.36302e-05
9.44211e-06
9.62644e-06
3.21777e-05
9.29618e-05
9.8393e-05
3.45582e-05
1.00298e-05
1.05054e-05
3.41496e-05
9.69876e-05
0.00010397
3.82088e-05
1.1095e-05
1.17151e-05
3.78367e-05
0.000101884
0.000108744
4.28927e-05
1.24607e-05
1.33786e-05
4.35089e-05
0.000108592
0.000115389
5.02008e-05
1.49106e-05
1.05685e-05
5.4101e-05
0.000115632
4.12805e-05
1.5987e-05
6.51983e-06
9.01338e-06
3.76591e-05
0.00010443
0.000101071
3.50078e-05
1.06349e-05
1.18245e-05
4.42032e-05
0.000118707
0.000119508
4.4254e-05
1.2679e-05
1.3725e-05
4.98176e-05
0.000128303
0.000129729
5.22099e-05
1.48618e-05
1.64359e-05
5.90432e-05
0.000136078
0.000130975
6.16604e-05
1.16506e-05
7.03943e-06
1.78919e-05
4.67574e-05
0.000114174
4.22706e-05
9.63616e-06
1.10805e-05
3.9347e-05
0.000110556
0.000120567
4.59636e-05
1.19891e-05
1.30347e-05
4.52189e-05
0.000117654
0.000125823
5.30157e-05
1.48331e-05
1.07572e-05
5.82916e-05
0.000125016
4.56903e-05
1.64402e-05
6.61362e-06
9.60486e-06
4.11636e-05
0.000116308
0.000117068
4.21071e-05
1.17344e-05
1.38792e-05
5.42747e-05
0.000139887
0.000142636
6.04995e-05
1.59167e-05
1.1514e-05
6.51615e-05
0.000140638
5.18947e-05
1.77787e-05
6.81636e-06
9.9095e-06
4.89075e-05
0.000127772
0.000124793
4.62218e-05
1.21578e-05
1.45783e-05
6.04156e-05
0.000145511
0.000145005
6.63053e-05
1.08488e-05
6.66291e-06
1.83939e-05
5.64192e-05
0.000145846
5.4725e-05
1.0427e-05
1.36784e-05
5.55169e-05
0.000152158
0.000193497
8.11784e-05
1.68829e-05
1.27982e-05
8.33658e-05
0.000183258
7.69058e-05
2.59069e-05
8.22917e-06
1.35097e-05
7.87429e-05
0.000190812
0.000186598
8.05723e-05
1.12194e-05
7.7632e-06
2.7105e-05
8.34803e-05
0.000236833
9.07636e-05
1.40468e-05
1.24401e-05
9.88698e-05
0.000249172
0.000119985
4.20324e-05
9.66768e-06
1.10668e-05
0.000100659
0.000272843
0.000186733
7.29886e-05
1.01017e-05
1.36143e-05
0.000107822
0.000319908
0.000266173
9.0316e-05
1.12644e-05
1.11416e-05
8.69513e-05
0.00025687
0.000280049
9.68434e-05
1.30471e-05
1.7071e-05
0.000171697
0.000472457
0.000104834
3.9216e-05
1.41117e-05
1.31158e-05
9.56279e-05
0.000203425
7.48831e-05
3.15544e-05
1.21625e-05
1.35115e-05
6.92826e-05
0.000148333
0.000132897
5.58278e-05
1.47618e-05
8.04437e-06
1.85098e-05
4.88216e-05
9.90116e-05
6.04557e-05
9.91044e-06
1.04954e-05
2.42615e-05
5.43391e-05
0.000115398
5.84475e-05
1.28327e-05
1.47554e-05
5.12785e-05
0.000109174
4.5866e-05
1.97304e-05
8.92792e-06
1.17215e-05
5.29429e-05
0.000100318
9.64075e-05
4.72297e-05
1.39885e-05
8.55253e-06
1.83741e-05
4.18092e-05
9.33393e-05
4.95713e-05
1.12582e-05
1.36128e-05
4.52995e-05
9.00285e-05
3.99212e-05
1.80311e-05
8.50101e-06
1.10925e-05
4.7298e-05
8.87208e-05
8.46448e-05
4.34193e-05
1.3455e-05
8.4236e-06
1.7315e-05
3.80016e-05
8.39135e-05
4.50781e-05
1.09701e-05
1.34694e-05
4.14301e-05
8.04802e-05
3.64686e-05
1.7027e-05
8.52463e-06
1.1113e-05
4.4135e-05
8.03648e-05
7.66093e-05
4.03967e-05
1.35523e-05
8.5078e-06
1.66413e-05
3.54252e-05
7.75893e-05
4.28101e-05
1.10542e-05
1.37017e-05
3.95355e-05
7.45529e-05
3.56961e-05
1.70697e-05
8.84794e-06
1.16433e-05
4.46443e-05
7.83036e-05
7.2024e-05
3.79193e-05
1.50582e-05
1.10964e-05
3.12998e-05
6.26267e-05
2.85511e-05
1.25902e-05
6.97157e-06
9.06629e-06
3.30518e-05
6.05176e-05
5.938e-05
3.12538e-05
1.15468e-05
7.34524e-06
1.38495e-05
2.81683e-05
5.9113e-05
3.37238e-05
9.32579e-06
1.1778e-05
3.14753e-05
5.71198e-05
2.78255e-05
1.32546e-05
7.36178e-06
9.22858e-06
3.23927e-05
5.58113e-05
5.50211e-05
3.10197e-05
1.1678e-05
7.43873e-06
1.36136e-05
2.71794e-05
5.52788e-05
3.24814e-05
9.37681e-06
1.17927e-05
3.05985e-05
5.35513e-05
2.67129e-05
1.34345e-05
7.35035e-06
9.20906e-06
3.133e-05
5.30218e-05
5.20028e-05
3.0233e-05
1.17881e-05
7.4129e-06
1.27258e-05
2.59494e-05
5.10288e-05
3.03818e-05
9.19712e-06
1.17251e-05
2.84699e-05
4.9714e-05
2.50047e-05
1.25352e-05
7.25404e-06
8.82743e-06
2.87848e-05
4.789e-05
4.68332e-05
2.67633e-05
1.11816e-05
6.79539e-06
1.14658e-05
2.27315e-05
4.21922e-05
3.09588e-05
7.86551e-06
9.36443e-06
1.50729e-05
2.66232e-05
5.39076e-05
3.33935e-05
1.1188e-05
1.35886e-05
3.08615e-05
5.15884e-05
2.7077e-05
1.43295e-05
8.4168e-06
1.02566e-05
3.22377e-05
5.16449e-05
5.02043e-05
3.01093e-05
1.3037e-05
8.30539e-06
1.42436e-05
2.65862e-05
5.13475e-05
3.19443e-05
1.01924e-05
1.28438e-05
3.00155e-05
4.97781e-05
2.59129e-05
1.3958e-05
8.09192e-06
9.81608e-06
3.0541e-05
4.81492e-05
4.67615e-05
2.81424e-05
1.25306e-05
7.91079e-06
1.36154e-05
2.48059e-05
4.60233e-05
2.90702e-05
9.4331e-06
1.18169e-05
2.6727e-05
4.42832e-05
2.22062e-05
1.19346e-05
7.09438e-06
8.0021e-06
2.92546e-05
3.89567e-05
2.47383e-05
1.48738e-05
9.42596e-06
1.09352e-05
2.93375e-05
4.62486e-05
4.38602e-05
2.69458e-05
1.32737e-05
8.15341e-06
1.38805e-05
2.39122e-05
4.31655e-05
2.80299e-05
9.65978e-06
1.2177e-05
2.62201e-05
4.10654e-05
2.18531e-05
1.24515e-05
7.49518e-06
8.30489e-06
2.86019e-05
3.72504e-05
2.42533e-05
1.49512e-05
9.78585e-06
1.13161e-05
2.91669e-05
4.47595e-05
4.20603e-05
2.65343e-05
1.36013e-05
8.32977e-06
1.39882e-05
2.34474e-05
4.2151e-05
2.76201e-05
9.87563e-06
1.23144e-05
2.52244e-05
3.99364e-05
2.12286e-05
1.2348e-05
7.44924e-06
8.27778e-06
2.72745e-05
3.53602e-05
2.32113e-05
1.46261e-05
9.73254e-06
1.10669e-05
2.76223e-05
4.23056e-05
3.97058e-05
2.52476e-05
1.32903e-05
8.15986e-06
1.37578e-05
2.22132e-05
3.91631e-05
2.59201e-05
9.76068e-06
1.21157e-05
2.38364e-05
3.72244e-05
2.0354e-05
1.27436e-05
7.39274e-06
8.15488e-06
2.70415e-05
3.30548e-05
2.20185e-05
1.44061e-05
9.5754e-06
1.08816e-05
2.56071e-05
3.94032e-05
3.6683e-05
2.31215e-05
1.29468e-05
7.56235e-06
1.24132e-05
2.00347e-05
3.25095e-05
2.60789e-05
8.22759e-06
9.63162e-06
1.44818e-05
2.18703e-05
3.89025e-05
2.53097e-05
1.08799e-05
1.32369e-05
2.31749e-05
3.63043e-05
2.01464e-05
1.29036e-05
7.92503e-06
8.52354e-06
2.56906e-05
3.22345e-05
2.19576e-05
1.47652e-05
9.87506e-06
1.10016e-05
2.54742e-05
3.86517e-05
3.59584e-05
2.30538e-05
1.3268e-05
7.84492e-06
1.28358e-05
1.9965e-05
3.19072e-05
2.62838e-05
8.33222e-06
9.80179e-06
1.46932e-05
2.16966e-05
3.79733e-05
2.48124e-05
1.10603e-05
1.32607e-05
2.25855e-05
3.54306e-05
1.97485e-05
1.27387e-05
7.90221e-06
8.49213e-06
2.55979e-05
3.12705e-05
2.14728e-05
1.47801e-05
9.8574e-06
1.08882e-05
2.45963e-05
3.72336e-05
3.45547e-05
2.23417e-05
1.29387e-05
7.7445e-06
1.28428e-05
1.9346e-05
2.9857e-05
2.61719e-05
8.16009e-06
9.24619e-06
1.45354e-05
2.07898e-05
3.29172e-05
2.51756e-05
9.553e-06
1.09029e-05
1.5295e-05
2.24523e-05
3.78772e-05
2.4619e-05
1.18137e-05
1.37442e-05
2.23586e-05
3.5028e-05
1.97809e-05
1.29576e-05
8.04679e-06
8.56839e-06
2.54366e-05
3.08227e-05
2.13201e-05
1.4996e-05
1.00345e-05
1.10655e-05
2.40816e-05
3.63452e-05
3.38547e-05
2.19202e-05
1.30958e-05
7.77335e-06
1.2919e-05
1.91467e-05
2.93913e-05
2.55349e-05
8.21185e-06
9.35509e-06
1.45801e-05
2.06637e-05
3.22028e-05
2.48748e-05
9.62421e-06
1.07278e-05
1.53421e-05
2.21756e-05
3.70685e-05
2.40449e-05
1.1612e-05
1.37165e-05
2.20513e-05
3.42615e-05
1.94384e-05
1.29294e-05
8.08803e-06
8.46154e-06
2.50132e-05
2.99411e-05
2.11577e-05
1.50321e-05
9.75521e-06
9.91435e-06
2.53206e-05
3.26365e-05
2.2517e-05
1.58174e-05
1.10645e-05
1.18676e-05
2.41099e-05
3.72194e-05
3.43032e-05
2.19388e-05
1.38843e-05
8.20345e-06
1.32234e-05
1.96107e-05
2.98141e-05
2.58003e-05
8.51869e-06
9.69135e-06
1.50802e-05
2.11564e-05
3.24007e-05
2.54821e-05
9.95093e-06
1.11419e-05
1.5841e-05
2.25123e-05
3.70665e-05
2.41879e-05
1.20526e-05
1.40817e-05
2.21402e-05
3.42309e-05
1.97452e-05
1.33434e-05
8.36515e-06
8.79455e-06
2.53119e-05
3.00395e-05
2.14038e-05
1.53203e-05
1.00397e-05
1.0174e-05
2.53807e-05
3.25576e-05
2.26743e-05
1.5988e-05
1.1156e-05
1.18365e-05
2.4061e-05
3.68907e-05
3.39557e-05
2.18935e-05
1.37024e-05
8.0434e-06
1.28776e-05
1.93034e-05
2.91611e-05
2.46789e-05
8.41717e-06
9.58737e-06
1.47623e-05
2.0671e-05
3.13465e-05
2.47459e-05
9.87461e-06
1.09207e-05
1.55132e-05
2.18575e-05
3.54362e-05
2.33078e-05
1.17762e-05
1.37912e-05
2.14185e-05
3.2781e-05
1.90196e-05
1.28265e-05
8.17735e-06
8.54322e-06
2.42558e-05
2.86884e-05
2.04944e-05
1.46404e-05
9.60756e-06
9.72494e-06
2.41869e-05
3.08016e-05
2.17653e-05
1.5422e-05
1.06785e-05
1.05036e-05
2.47317e-05
3.21442e-05
2.26763e-05
1.6425e-05
1.15966e-05
1.23818e-05
2.40522e-05
3.60978e-05
3.31342e-05
2.19173e-05
1.42406e-05
8.37356e-06
1.34581e-05
1.93584e-05
2.88375e-05
2.54227e-05
8.58471e-06
9.64886e-06
1.49467e-05
2.07155e-05
3.06447e-05
2.41893e-05
9.79613e-06
1.0656e-05
1.5406e-05
2.18193e-05
3.18401e-05
2.46238e-05
1.05648e-05
1.16353e-05
1.63544e-05
2.25872e-05
3.56408e-05
2.38112e-05
1.22836e-05
1.4222e-05
2.18893e-05
3.28901e-05
1.93795e-05
1.3278e-05
8.44632e-06
8.70842e-06
2.47249e-05
2.88185e-05
2.07752e-05
1.49688e-05
9.86563e-06
1.00355e-05
2.41126e-05
3.08111e-05
2.19794e-05
1.57047e-05
1.09589e-05
1.08669e-05
2.4915e-05
3.19776e-05
2.28259e-05
1.6623e-05
1.18881e-05
1.25365e-05
2.4054e-05
3.57524e-05
3.28998e-05
2.20139e-05
1.43925e-05
8.47594e-06
1.32919e-05
1.95136e-05
2.85721e-05
2.46121e-05
8.71835e-06
9.8366e-06
1.49435e-05
2.07206e-05
3.03023e-05
2.39897e-05
9.84689e-06
1.06762e-05
1.53453e-05
2.16221e-05
3.11856e-05
2.42101e-05
1.05768e-05
1.16663e-05
1.62983e-05
2.24135e-05
3.47084e-05
2.34126e-05
1.23833e-05
1.42514e-05
2.15872e-05
3.22358e-05
1.93167e-05
1.37163e-05
8.54435e-06
8.89727e-06
2.49777e-05
2.82489e-05
2.0732e-05
1.51888e-05
9.94658e-06
1.00023e-05
2.43176e-05
3.01765e-05
2.16558e-05
1.54893e-05
1.07659e-05
1.03804e-05
2.4001e-05
3.09435e-05
2.23054e-05
1.60016e-05
1.12257e-05
1.10845e-05
2.49636e-05
3.17082e-05
2.28292e-05
1.68899e-05
1.20414e-05
1.25374e-05
2.38679e-05
3.50871e-05
3.24287e-05
2.18452e-05
1.43039e-05
8.37658e-06
1.30573e-05
1.93803e-05
2.77993e-05
2.4002e-05
8.68711e-06
9.83308e-06
1.47401e-05
2.04033e-05
2.93686e-05
2.33874e-05
1.00063e-05
1.08163e-05
1.53254e-05
2.13582e-05
3.02209e-05
2.36111e-05
1.05141e-05
1.13428e-05
1.597e-05
2.20263e-05
3.12536e-05
2.4616e-05
1.11275e-05
1.20894e-05
1.68716e-05
2.2737e-05
3.49027e-05
2.39056e-05
1.27596e-05
1.4721e-05
2.21462e-05
3.24031e-05
1.97582e-05
1.37558e-05
8.83843e-06
9.17297e-06
2.49627e-05
2.83903e-05
2.08291e-05
1.52541e-05
1.02335e-05
1.0166e-05
2.40148e-05
3.01001e-05
2.18348e-05
1.57162e-05
1.10508e-05
1.08478e-05
2.42612e-05
3.0884e-05
2.2453e-05
1.63051e-05
1.1611e-05
1.13021e-05
2.50673e-05
3.16751e-05
2.3093e-05
1.72047e-05
1.23253e-05
1.29595e-05
2.41241e-05
3.49861e-05
3.24456e-05
2.21238e-05
1.47012e-05
8.75727e-06
1.35608e-05
1.98341e-05
2.79858e-05
2.42615e-05
9.10207e-06
1.01418e-05
1.51668e-05
2.0849e-05
2.9527e-05
2.37726e-05
1.01039e-05
1.09142e-05
1.55666e-05
2.16868e-05
3.01808e-05
2.37136e-05
1.07076e-05
1.15204e-05
1.61642e-05
2.22141e-05
3.10827e-05
2.46626e-05
1.1466e-05
1.24108e-05
1.71395e-05
2.28129e-05
3.43401e-05
2.40473e-05
1.30884e-05
1.49688e-05
2.22204e-05
3.21107e-05
1.99195e-05
1.38616e-05
8.95368e-06
9.2669e-06
2.47121e-05
2.81708e-05
2.0966e-05
1.53946e-05
1.03162e-05
1.035e-05
2.4007e-05
2.97387e-05
2.19678e-05
1.58964e-05
1.12153e-05
1.0957e-05
2.41152e-05
3.05813e-05
2.25445e-05
1.64131e-05
1.17022e-05
1.14997e-05
2.49472e-05
3.12821e-05
2.29971e-05
1.71907e-05
1.2398e-05
1.29746e-05
2.39302e-05
3.43269e-05
3.1945e-05
2.19837e-05
1.47408e-05
8.7419e-06
1.35017e-05
1.9724e-05
2.74042e-05
2.4095e-05
9.14284e-06
1.01733e-05
1.50609e-05
2.06005e-05
2.86765e-05
2.32049e-05
1.02425e-05
1.11115e-05
1.5606e-05
2.1442e-05
2.94243e-05
2.34206e-05
1.0834e-05
1.15319e-05
1.61148e-05
2.19726e-05
3.01547e-05
2.41475e-05
1.12678e-05
1.1973e-05
1.66895e-05
2.25676e-05
3.11347e-05
2.50782e-05
1.17248e-05
1.27025e-05
1.752e-05
2.31762e-05
3.45514e-05
2.43198e-05
1.35106e-05
1.54324e-05
2.25485e-05
3.23493e-05
2.03241e-05
1.45023e-05
9.34413e-06
9.70476e-06
2.5281e-05
2.84307e-05
2.14883e-05
1.60157e-05
1.07991e-05
1.08799e-05
2.45567e-05
3.00364e-05
2.24053e-05
1.64199e-05
1.1695e-05
1.14841e-05
2.46952e-05
3.08689e-05
2.30381e-05
1.69329e-05
1.22097e-05
1.19689e-05
2.54309e-05
3.18051e-05
2.37011e-05
1.78591e-05
1.29856e-05
1.36911e-05
2.46767e-05
3.49063e-05
3.24774e-05
2.2745e-05
1.55068e-05
9.35457e-06
1.44255e-05
2.04233e-05
2.82897e-05
2.51107e-05
9.72377e-06
1.08044e-05
1.5922e-05
2.15235e-05
2.95435e-05
2.42994e-05
1.07576e-05
1.15377e-05
1.62368e-05
2.22526e-05
3.00775e-05
2.42081e-05
1.14229e-05
1.21184e-05
1.67629e-05
2.27139e-05
3.08237e-05
2.4882e-05
1.19036e-05
1.28694e-05
1.76193e-05
2.32171e-05
3.39258e-05
2.4173e-05
1.37085e-05
1.56675e-05
2.25276e-05
3.18222e-05
2.03345e-05
1.46486e-05
9.51891e-06
9.86072e-06
2.50644e-05
2.80613e-05
2.15345e-05
1.61754e-05
1.10055e-05
1.11145e-05
2.45326e-05
2.96141e-05
2.24583e-05
1.65849e-05
1.19068e-05
1.16468e-05
2.45816e-05
3.03835e-05
2.30178e-05
1.71225e-05
1.24024e-05
1.22816e-05
2.52237e-05
3.13184e-05
2.3701e-05
1.80399e-05
1.32515e-05
1.39712e-05
2.46433e-05
3.43694e-05
3.20573e-05
2.2804e-05
1.57899e-05
9.59707e-06
1.46828e-05
2.05924e-05
2.81961e-05
2.52759e-05
9.9013e-06
1.09176e-05
1.60591e-05
2.16079e-05
2.93313e-05
2.42792e-05
1.10407e-05
1.18464e-05
1.6436e-05
2.23539e-05
2.98877e-05
2.426e-05
1.16714e-05
1.24518e-05
1.70515e-05
2.28548e-05
3.06719e-05
2.49068e-05
1.22719e-05
1.33071e-05
1.80072e-05
2.34302e-05
3.37488e-05
2.44493e-05
1.42122e-05
1.61005e-05
2.28755e-05
3.17456e-05
2.08313e-05
1.51091e-05
9.936e-06
1.03481e-05
2.53633e-05
2.83825e-05
2.19479e-05
1.65928e-05
1.13372e-05
1.14758e-05
2.5186e-05
2.99303e-05
2.28925e-05
1.71115e-05
1.22963e-05
1.20932e-05
2.51931e-05
3.08401e-05
2.33969e-05
1.77868e-05
1.31012e-05
1.39158e-05
2.40582e-05
3.35907e-05
3.13955e-05
2.24298e-05
1.57319e-05
9.60095e-06
1.45059e-05
2.03542e-05
2.74324e-05
2.44437e-05
1.00188e-05
1.10628e-05
1.61372e-05
2.14199e-05
2.87996e-05
2.43846e-05
1.12304e-05
1.20363e-05
1.6656e-05
2.2276e-05
2.97111e-05
2.42636e-05
1.20698e-05
1.31232e-05
1.75981e-05
2.28843e-05
3.25213e-05
2.37066e-05
1.39447e-05
1.58453e-05
2.22956e-05
3.06813e-05
2.03191e-05
1.49857e-05
9.826e-06
1.01777e-05
2.48957e-05
2.7458e-05
2.15112e-05
1.64567e-05
1.12128e-05
1.14126e-05
2.44195e-05
2.90059e-05
2.24301e-05
1.69356e-05
1.22984e-05
1.21989e-05
2.45309e-05
2.98895e-05
2.29893e-05
1.76516e-05
1.30908e-05
1.38786e-05
2.36883e-05
3.24795e-05
3.05354e-05
2.21787e-05
1.57732e-05
9.63237e-06
1.44278e-05
2.0277e-05
2.68507e-05
2.40839e-05
1.00628e-05
1.11752e-05
1.61558e-05
2.12639e-05
2.83017e-05
2.41156e-05
1.14339e-05
1.2243e-05
1.67962e-05
2.21738e-05
2.93352e-05
2.40684e-05
1.22529e-05
1.32966e-05
1.77541e-05
2.28582e-05
3.21889e-05
2.372e-05
1.41789e-05
1.60256e-05
2.24158e-05
3.04589e-05
2.05103e-05
1.50344e-05
9.94798e-06
1.04614e-05
2.47332e-05
2.73647e-05
2.16035e-05
1.66171e-05
1.15411e-05
1.17583e-05
2.46352e-05
2.89842e-05
2.26718e-05
1.73042e-05
1.26288e-05
1.27052e-05
2.46611e-05
3.00654e-05
2.33878e-05
1.82033e-05
1.36569e-05
1.44653e-05
2.41752e-05
3.27803e-05
3.09541e-05
2.2777e-05
1.63085e-05
1.0165e-05
1.52507e-05
2.09168e-05
2.76367e-05
2.49772e-05
1.06692e-05
1.1707e-05
1.69148e-05
2.19809e-05
2.92886e-05
2.47268e-05
1.21131e-05
1.32692e-05
1.79159e-05
2.30359e-05
3.21315e-05
2.38577e-05
1.43588e-05
1.62254e-05
2.26444e-05
3.05138e-05
2.06133e-05
1.5019e-05
1.01503e-05
1.07323e-05
2.44835e-05
2.73157e-05
2.18535e-05
1.68938e-05
1.18497e-05
1.21349e-05
2.47415e-05
2.9109e-05
2.29835e-05
1.77065e-05
1.30123e-05
1.31894e-05
2.50093e-05
3.04219e-05
2.39287e-05
1.87713e-05
1.41781e-05
1.52058e-05
2.49016e-05
3.337e-05
3.14857e-05
2.35195e-05
1.7138e-05
1.08096e-05
1.60619e-05
2.16127e-05
2.85324e-05
2.57807e-05
1.12424e-05
1.23554e-05
1.77249e-05
2.2849e-05
3.02857e-05
2.55929e-05
1.28173e-05
1.39133e-05
1.8739e-05
2.39239e-05
3.32753e-05
2.48305e-05
1.49501e-05
1.70199e-05
2.35936e-05
3.16739e-05
2.1845e-05
1.62848e-05
1.10576e-05
1.16381e-05
2.57735e-05
2.87355e-05
2.30484e-05
1.80477e-05
1.2677e-05
1.32024e-05
2.58534e-05
3.07167e-05
2.43595e-05
1.92148e-05
1.43431e-05
1.55845e-05
2.53499e-05
3.3817e-05
3.20745e-05
2.40284e-05
1.75668e-05
1.12369e-05
1.65172e-05
2.22227e-05
2.93523e-05
2.60723e-05
1.18797e-05
1.32399e-05
1.85782e-05
2.35454e-05
3.27966e-05
2.50014e-05
1.4706e-05
1.67537e-05
2.37486e-05
3.14338e-05
2.17532e-05
1.60473e-05
1.06962e-05
1.13347e-05
2.60718e-05
2.86042e-05
2.28381e-05
1.76764e-05
1.24686e-05
1.30292e-05
2.52278e-05
3.0203e-05
2.39841e-05
1.88467e-05
1.41981e-05
1.54109e-05
2.47779e-05
3.30591e-05
3.15698e-05
2.36176e-05
1.73528e-05
1.11906e-05
1.64225e-05
2.21045e-05
2.89038e-05
2.56104e-05
1.19853e-05
1.3319e-05
1.86476e-05
2.34351e-05
3.23964e-05
2.50282e-05
1.4935e-05
1.70159e-05
2.38782e-05
3.11626e-05
2.19992e-05
1.63949e-05
1.11119e-05
1.18667e-05
2.57644e-05
2.87395e-05
2.31364e-05
1.84194e-05
1.30742e-05
1.44369e-05
2.44124e-05
3.20006e-05
3.08043e-05
2.32518e-05
1.65363e-05
1.08113e-05
1.59185e-05
2.14759e-05
2.82314e-05
2.50061e-05
1.17766e-05
1.31068e-05
1.82177e-05
2.28719e-05
3.15646e-05
2.44108e-05
1.46991e-05
1.68303e-05
2.33699e-05
3.04427e-05
2.16318e-05
1.61228e-05
1.10111e-05
1.18562e-05
2.51228e-05
2.81716e-05
2.28886e-05
1.83027e-05
1.31251e-05
1.45897e-05
2.43524e-05
3.15169e-05
3.03823e-05
2.32212e-05
1.66345e-05
1.08488e-05
1.59669e-05
2.14816e-05
2.80889e-05
2.58782e-05
1.16498e-05
1.29963e-05
1.8051e-05
2.26827e-05
3.13442e-05
2.38938e-05
1.47766e-05
1.69788e-05
2.30235e-05
3.02812e-05
2.16236e-05
1.64511e-05
1.13081e-05
1.22645e-05
2.5085e-05
2.83133e-05
2.31511e-05
1.88081e-05
1.35901e-05
1.52489e-05
2.48899e-05
3.19239e-05
3.08339e-05
2.38656e-05
1.73423e-05
1.14734e-05
1.6648e-05
2.21871e-05
2.88945e-05
2.55946e-05
1.24723e-05
1.38519e-05
1.91306e-05
2.3677e-05
3.28564e-05
2.55994e-05
1.57486e-05
1.79862e-05
2.47677e-05
3.18757e-05
2.29849e-05
1.76673e-05
1.24153e-05
1.44384e-05
2.55972e-05
3.14889e-05
3.06893e-05
2.45961e-05
1.68568e-05
1.15226e-05
1.69465e-05
2.22915e-05
2.94914e-05
2.59084e-05
1.2679e-05
1.40641e-05
1.94336e-05
2.41248e-05
3.32308e-05