/*--------------------------------*- C++ -*----------------------------------*\
| =========                 |                                                 |
| \\      /  F ield         | OpenFOAM: The Open Source CFD Toolbox           |
|  \\    /   O peration     | Version:  v2006                                 |
|   \\  /    A nd           | Website:  www.openfoam.com                      |
|    \\/     M anipulation  |                                                 |
\*---------------------------------------------------------------------------*/
FoamFile
{
    version     2.0;
    format      ascii;
    class       surfaceScalarField;
    location    "0.003";
    object      phi;
}
// * * * * * * * * * * * * * * * * * * * * * * * * * * * * * * * * * * * * * //

dimensions      [1 0 -1 0 0 0 0];
oriented        oriented;


internalField   nonuniform List<scalar> 
62768
(
-7.30023e-06
-0.000468807
0.000464443
1.29048e-05
-0.000439813
0.000433806
1.16676e-06
2.58113e-05
-7.85084e-06
0.000499064
9.04004e-06
0.000544566
-1.88874e-05
0.000549856
-2.29553e-06
0.000560992
-8.00148e-06
0.000552732
5.85044e-07
0.000552158
-2.39357e-07
0.000548539
1.53581e-06
0.00054873
1.10158e-06
0.000549432
1.23188e-06
0.000551537
1.19624e-06
0.000553926
1.21527e-06
0.000556621
1.22822e-06
0.000559456
1.2282e-06
0.000562369
1.2129e-06
0.000565349
1.18437e-06
0.00056837
1.14408e-06
0.00057141
1.09268e-06
0.000574455
1.03116e-06
0.000577489
9.60282e-07
0.000580502
8.80478e-07
0.000583481
7.90393e-07
0.000586413
6.89159e-07
0.000589282
5.76938e-07
0.000592068
4.54733e-07
0.000594747
3.24564e-07
0.000597294
1.89866e-07
0.000599682
5.65607e-08
0.000601888
-6.43167e-08
0.000603888
-1.57278e-07
0.000605657
-2.0627e-07
0.00060717
-2.2415e-07
0.000608424
-2.02638e-07
0.000609486
-1.52592e-07
0.000610293
-9.20859e-08
0.000610833
-2.53939e-08
0.00061113
3.04478e-08
0.000611202
2.66591e-08
0.000611006
-2.979e-08
0.000610889
-1.07037e-07
0.000610705
-2.10364e-07
0.000610356
-3.22053e-07
0.000609802
-4.23969e-07
0.000609046
-5.10712e-07
0.000608105
-5.85467e-07
0.000606992
-6.52865e-07
0.000605716
-7.16138e-07
0.000604288
-7.771e-07
0.000602715
-8.36724e-07
0.000601005
-8.95619e-07
0.000599165
-9.54339e-07
0.000597202
-1.01343e-06
0.000595121
-1.07327e-06
0.000592924
-1.13397e-06
0.000590612
-1.19557e-06
0.000588186
-1.25815e-06
0.000585648
-1.32174e-06
0.000582997
-1.38618e-06
0.000580232
-1.4512e-06
0.000577351
-1.51637e-06
0.000574354
-1.58131e-06
0.00057124
-1.64555e-06
0.000568009
-1.70841e-06
0.000564662
-1.76966e-06
0.000561199
-1.82856e-06
0.000557623
-1.88425e-06
0.000553935
-1.93676e-06
0.00055014
-1.98553e-06
0.000546243
-2.02889e-06
0.000542246
-2.06571e-06
0.000538159
-2.09626e-06
0.000533992
-2.12097e-06
0.000529757
-2.13937e-06
0.000525461
-2.15064e-06
0.000521112
-2.15421e-06
0.000516719
-2.14971e-06
0.000512294
-2.13685e-06
0.000507848
-2.11538e-06
0.000503397
-2.08507e-06
0.000498956
-2.04582e-06
0.000494539
-1.99764e-06
0.000490165
-1.9407e-06
0.000485851
-1.8751e-06
0.000481611
-1.80069e-06
0.000477463
-1.71727e-06
0.000473424
-1.62477e-06
0.000469514
-1.47691e-06
0.000465614
-1.36709e-06
0.000461796
-1.29492e-06
0.000457677
-1.98766e-06
0.000452793
-2.43992e-06
0.000446602
-7.55268e-06
0.000437441
-1.083e-05
0.000426396
-2.89094e-05
0.000410707
-4.68521e-05
0.000399759
-0.000108326
0.000398943
-0.000240418
0.000462488
-7.16118e-05
0.000114549
1.18978e-05
0.000201062
-5.90102e-06
0.000253384
-3.15512e-06
0.00024043
-1.49749e-05
0.000202194
-2.03357e-06
0.000184574
-1.27477e-06
6.71847e-05
-9.37132e-07
5.56121e-05
4.492e-05
2.43045e-06
4.25081e-05
3.79774e-06
5.42666e-05
6.51412e-05
5.86694e-06
-2.75536e-06
6.47746e-05
3.14898e-06
-1.35635e-06
5.28895e-05
4.11696e-05
1.0822e-06
4.01088e-05
7.93503e-07
5.32032e-05
6.43925e-05
1.20559e-06
-7.88399e-07
6.47585e-05
4.54067e-07
-9.66812e-07
5.34079e-05
3.91644e-05
4.40105e-07
3.87489e-05
1.19654e-06
5.26803e-05
6.46248e-05
1.36435e-06
-1.0681e-06
6.43915e-05
1.3349e-06
-6.49358e-07
5.22892e-05
3.81229e-05
5.47252e-07
3.75972e-05
9.86802e-07
5.18755e-05
6.41253e-05
1.28432e-06
-9.26405e-07
6.38385e-05
1.24123e-06
-9.09885e-07
5.1882e-05
3.67063e-05
5.4346e-07
3.61797e-05
9.28662e-07
5.1517e-05
6.35694e-05
1.22237e-06
-9.403e-07
6.28739e-05
1.6565e-06
-5.61337e-07
5.11551e-05
3.5633e-05
5.69306e-07
3.50758e-05
9.38359e-07
5.07998e-05
6.304e-05
7.8885e-07
-9.36858e-07
6.2342e-05
1.64684e-06
-5.66928e-07
5.044e-05
3.45181e-05
5.44683e-07
3.39793e-05
9.17475e-07
5.00733e-05
6.24811e-05
7.8536e-07
-9.02209e-07
6.17447e-05
1.63998e-06
-5.14085e-07
4.96866e-05
3.34673e-05
4.80962e-07
3.2984e-05
8.81106e-07
4.92829e-05
6.18238e-05
7.97403e-07
-8.79936e-07
6.10318e-05
1.66065e-06
-4.61526e-07
4.88552e-05
3.25152e-05
4.5329e-07
3.20492e-05
8.83684e-07
4.84093e-05
6.10469e-05
8.49967e-07
-9.11127e-07
6.02056e-05
1.72581e-06
-4.61657e-07
4.79374e-05
3.15691e-05
4.79198e-07
3.10653e-05
9.4157e-07
4.74452e-05
6.01652e-05
9.46632e-07
-9.90518e-07
5.92852e-05
1.82586e-06
-5.07935e-07
4.69248e-05
3.05264e-05
5.37852e-07
2.9951e-05
1.03228e-06
4.63845e-05
5.91989e-05
1.06419e-06
-1.08115e-06
5.82916e-05
1.9244e-06
-5.70214e-07
4.58196e-05
2.93367e-05
5.93621e-07
2.86924e-05
1.10844e-06
4.52426e-05
5.81716e-05
1.15457e-06
-1.12968e-06
5.72508e-05
1.96697e-06
-6.09776e-07
4.46525e-05
2.80253e-05
6.07335e-07
2.73543e-05
1.11721e-06
4.40646e-05
5.71099e-05
1.16517e-06
-1.09385e-06
5.61881e-05
1.91361e-06
-5.92503e-07
4.34776e-05
2.66917e-05
5.58516e-07
2.60568e-05
1.03814e-06
4.29046e-05
5.60355e-05
1.07973e-06
-9.77531e-07
5.51187e-05
1.774e-06
-5.17358e-07
4.23434e-05
2.54566e-05
4.62907e-07
2.49045e-05
8.96204e-07
4.18014e-05
5.49535e-05
9.32064e-07
-8.22929e-07
5.40331e-05
1.60446e-06
-4.07376e-07
4.12692e-05
2.44014e-05
3.50329e-07
2.39484e-05
7.47455e-07
4.07469e-05
5.38387e-05
7.92906e-07
-6.96017e-07
5.28964e-05
1.47866e-06
-3.07337e-07
4.02241e-05
2.35309e-05
2.72607e-07
2.31413e-05
6.53573e-07
3.97006e-05
5.26556e-05
7.24711e-07
-6.28958e-07
5.16813e-05
1.42645e-06
-2.49125e-07
3.91723e-05
2.27702e-05
2.30376e-07
2.24145e-05
6.08598e-07
3.86416e-05
5.13912e-05
7.17294e-07
-5.98425e-07
5.03845e-05
1.42012e-06
-2.1746e-07
3.81052e-05
2.20692e-05
2.07658e-07
2.17266e-05
5.9061e-07
3.75582e-05
5.00362e-05
7.43923e-07
-5.93346e-07
4.89752e-05
1.44404e-06
-2.04393e-07
3.69926e-05
2.13771e-05
2.03471e-07
2.10235e-05
6.00355e-07
3.6413e-05
4.85513e-05
8.06492e-07
-6.17488e-07
4.74294e-05
1.50347e-06
-2.09117e-07
3.58061e-05
2.06509e-05
2.24208e-07
2.02525e-05
6.47133e-07
3.51717e-05
4.6917e-05
9.08472e-07
-6.92289e-07
4.57373e-05
1.60733e-06
-2.49048e-07
3.45055e-05
1.98197e-05
2.79478e-07
1.93431e-05
7.48999e-07
3.37969e-05
4.51377e-05
1.06478e-06
-8.07483e-07
4.38909e-05
1.75423e-06
-3.10606e-07
3.30475e-05
1.88243e-05
3.42351e-07
1.82655e-05
8.68664e-07
3.22584e-05
4.32033e-05
1.24332e-06
-9.23609e-07
4.18994e-05
1.90177e-06
-3.71441e-07
3.14323e-05
1.76684e-05
3.99309e-07
1.70309e-05
9.77862e-07
3.0565e-05
4.11246e-05
1.40954e-06
-1.02997e-06
3.97614e-05
2.03669e-06
-4.27025e-07
2.96618e-05
1.63562e-05
4.54823e-07
1.56463e-05
1.0842e-06
2.87232e-05
3.89027e-05
1.57583e-06
-1.13602e-06
3.74935e-05
2.17313e-06
-4.82754e-07
2.77567e-05
1.49052e-05
5.0984e-07
1.4133e-05
1.18939e-06
2.6759e-05
3.6562e-05
1.7427e-06
-1.23653e-06
3.51134e-05
2.30142e-06
-5.35174e-07
2.57347e-05
1.33316e-05
5.59664e-07
1.25027e-05
1.28634e-06
2.46815e-05
3.41127e-05
1.89934e-06
-1.33091e-06
3.26381e-05
2.42009e-06
-5.83269e-07
2.36092e-05
1.16516e-05
6.10046e-07
1.07804e-05
1.38564e-06
2.25168e-05
3.15886e-05
2.05885e-06
-1.43907e-06
3.01077e-05
2.55514e-06
-6.39697e-07
2.14104e-05
9.88772e-06
6.71626e-07
8.97304e-06
1.50242e-06
2.02846e-05
2.90199e-05
2.23962e-06
-1.55249e-06
2.75435e-05
2.69828e-06
-6.98131e-07
1.91521e-05
8.04568e-06
7.27662e-07
7.10852e-06
1.6128e-06
1.80126e-05
2.64394e-05
2.41468e-06
-1.66568e-06
2.50001e-05
2.83787e-06
-7.57513e-07
1.68798e-05
6.16588e-06
7.91513e-07
5.2142e-06
1.7323e-06
1.57445e-05
2.39066e-05
2.59462e-06
-1.78509e-06
2.25148e-05
2.98171e-06
-8.21314e-07
1.46166e-05
4.25764e-06
8.54529e-07
3.29462e-06
1.85031e-06
1.34892e-05
2.14392e-05
2.76928e-06
-1.89833e-06
2.01039e-05
3.11463e-06
-8.82325e-07
1.23732e-05
2.32986e-06
9.10215e-07
1.35758e-06
1.95263e-06
1.12556e-05
1.90481e-05
2.91909e-06
-1.98021e-06
1.77549e-05
3.20365e-06
-9.28922e-07
1.01456e-05
3.80135e-07
9.37968e-07
-5.98619e-07
2.00412e-06
9.03021e-06
1.66959e-05
3.00468e-06
-1.99668e-06
1.54199e-05
3.21556e-06
-9.33415e-07
7.91881e-06
-1.57202e-06
9.26323e-07
-2.54341e-06
1.99624e-06
6.79467e-06
1.43314e-05
3.02046e-06
-1.97059e-06
1.30508e-05
3.17613e-06
-9.07948e-07
5.66866e-06
-3.50404e-06
8.90322e-07
-4.45198e-06
1.96501e-06
4.52465e-06
1.19192e-05
3.0144e-06
-1.92585e-06
1.06307e-05
3.13257e-06
-8.49163e-07
3.37917e-06
-5.35827e-06
8.18667e-07
-6.226e-06
1.91383e-06
2.22493e-06
9.45884e-06
3.01557e-06
-1.84246e-06
8.18446e-06
3.07306e-06
-7.51041e-07
1.09673e-06
-7.00767e-06
7.22296e-07
-7.73096e-06
1.80915e-06
9.35526e-09
7.00883e-06
2.9837e-06
-1.72482e-06
5.82099e-06
2.96795e-06
-6.51545e-07
-1.01829e-06
-8.34552e-06
6.51644e-07
-8.90386e-06
1.6914e-06
-1.94575e-06
4.73335e-06
2.91002e-06
-1.57961e-06
3.72313e-06
2.8101e-06
-5.84549e-07
-2.75711e-06
-9.33838e-06
6.21122e-07
-9.75283e-06
1.60727e-06
-3.49199e-06
2.79718e-06
2.83061e-06
-1.48462e-06
1.96671e-06
2.67877e-06
-5.53828e-07
-4.11576e-06
-1.00539e-05
6.35749e-07
-1.04006e-05
1.60952e-06
-4.73734e-06
1.18447e-06
2.81154e-06
-1.43957e-06
4.5705e-07
2.62271e-06
-5.38708e-07
-5.25325e-06
-1.06224e-05
6.67849e-07
-1.09687e-05
1.66806e-06
-5.86215e-06
-2.75804e-07
2.86555e-06
-1.42413e-06
-9.74842e-07
2.5756e-06
-5.31954e-07
-6.37425e-06
-1.11886e-05
6.95249e-07
-1.15759e-05
1.73097e-06
-7.03483e-06
-1.75913e-06
2.96171e-06
-1.44746e-06
-2.45021e-06
2.58604e-06
-5.37106e-07
-7.56862e-06
-1.18035e-05
7.28404e-07
-1.22231e-05
1.82559e-06
-8.28971e-06
-3.30222e-06
3.12503e-06
-1.46646e-06
-3.99792e-06
2.61266e-06
-5.30963e-07
-8.84655e-06
-1.24429e-05
7.47827e-07
-1.28739e-05
1.91889e-06
-9.63224e-06
-4.9174e-06
3.29613e-06
-1.4838e-06
-5.60759e-06
2.64223e-06
-4.99766e-07
-1.02222e-05
-1.30493e-05
7.28263e-07
-1.34457e-05
2.006e-06
-1.10961e-05
-6.58715e-06
3.46597e-06
-1.48026e-06
-7.26502e-06
2.65047e-06
-4.29498e-07
-1.17334e-05
-1.35351e-05
6.65925e-07
-1.38498e-05
2.01196e-06
-1.26525e-05
-8.30773e-06
3.56289e-06
-1.3151e-06
-8.96367e-06
2.50197e-06
-3.32579e-07
-1.31876e-05
-1.38136e-05
5.80955e-07
-1.40109e-05
1.77579e-06
-1.39169e-05
-1.00146e-05
3.37971e-06
-1.00311e-06
-1.05541e-05
2.11777e-06
-2.51864e-07
-1.41845e-05
-1.38643e-05
5.07899e-07
-1.39567e-05
1.46566e-06
-1.46377e-05
-1.14477e-05
2.95886e-06
-7.24983e-07
-1.16976e-05
1.60252e-06
-1.8872e-07
-1.46457e-05
-1.37101e-05
4.5558e-07
-1.3713e-05
1.25274e-06
-1.48935e-05
-1.23145e-05
2.52213e-06
-5.48411e-07
-1.22562e-05
1.17202e-06
-1.37974e-07
-1.47303e-05
-1.33783e-05
4.25147e-07
-1.33108e-05
1.15298e-06
-1.48601e-05
-1.26499e-05
2.25725e-06
-4.55586e-07
-1.23887e-05
9.35997e-07
-1.02387e-07
-1.45892e-05
-1.28989e-05
4.10235e-07
-1.2779e-05
1.11793e-06
-1.46534e-05
-1.26634e-05
2.15727e-06
-3.96381e-07
-1.22934e-05
8.12452e-07
-7.55864e-08
-1.43129e-05
-1.23097e-05
3.88167e-07
-1.21344e-05
1.07224e-06
-1.43132e-05
-1.24877e-05
2.07884e-06
-3.67278e-07
-1.2031e-05
7.618e-07
-6.38058e-08
-1.39002e-05
-1.16079e-05
3.57125e-07
-1.13455e-05
1.00285e-06
-1.37941e-05
-1.21061e-05
1.97125e-06
-3.4082e-07
-1.15491e-05
7.2231e-07
-5.51747e-08
-1.32899e-05
-1.07498e-05
3.18471e-07
-1.03885e-05
9.09945e-07
-1.30565e-05
-1.1483e-05
1.82353e-06
-3.11868e-07
-1.08387e-05
6.76865e-07
-4.95701e-08
-1.24691e-05
-9.7378e-06
2.70001e-07
-9.2994e-06
7.84368e-07
-1.21237e-05
-1.06494e-05
1.61651e-06
-2.73597e-07
-9.96827e-06
6.0948e-07
-4.43131e-08
-1.14976e-05
-8.63894e-06
2.12498e-07
-8.1633e-06
6.27579e-07
-1.10774e-05
-9.69933e-06
1.35148e-06
-2.36784e-07
-9.03469e-06
5.34547e-07
-4.45304e-08
-1.04602e-05
-7.54099e-06
1.4489e-07
-7.03884e-06
4.35017e-07
-9.96497e-06
-8.69747e-06
1.03115e-06
-1.66349e-07
-8.04179e-06
4.2176e-07
-3.31294e-08
-9.33128e-06
-6.43998e-06
7.11542e-08
-5.88615e-06
2.23466e-07
-8.72516e-06
-7.58948e-06
6.72256e-07
-1.42121e-07
-6.90436e-06
3.55697e-07
-3.59492e-08
-8.075e-06
-5.29896e-06
1.60524e-08
-4.68778e-06
6.21272e-08
-7.35965e-06
-6.27359e-06
3.36359e-07
-7.03229e-08
-5.50985e-06
2.32236e-07
-2.47727e-08
-6.62561e-06
-4.07005e-06
-3.37201e-08
-3.37312e-06
-9.08042e-08
-5.76388e-06
-4.7007e-06
5.53106e-08
5.34534e-09
-3.81743e-06
1.09759e-07
-9.56874e-10
-4.91649e-06
-2.68103e-06
-6.82648e-08
-1.88704e-06
-2.03853e-07
-3.90027e-06
-2.82246e-06
-1.53079e-07
1.18115e-07
-1.77991e-06
-6.68525e-08
4.51538e-08
-2.90631e-06
-1.083e-06
-1.07e-07
-1.89963e-07
-3.09404e-07
-1.74981e-06
-6.04543e-07
-3.50867e-07
2.24604e-07
5.47585e-07
-2.30281e-07
7.0963e-08
-6.30265e-07
6.77048e-07
-1.59041e-07
1.62348e-06
-4.06109e-07
5.72644e-07
1.81535e-06
-5.3777e-07
2.55503e-07
2.93765e-06
-2.72221e-07
6.23893e-08
1.69616e-06
2.45234e-06
-2.06255e-07
3.39778e-06
-5.24363e-07
2.91152e-06
4.25033e-06
-7.70602e-07
2.54311e-07
5.30535e-06
-2.77082e-07
6.41437e-08
3.97035e-06
4.17757e-06
-2.40326e-07
5.11678e-06
-6.22637e-07
5.2008e-06
6.66036e-06
-9.7006e-07
2.7635e-07
7.6685e-06
-3.12299e-07
7.17264e-08
6.22371e-06
5.86274e-06
-2.74404e-07
6.78953e-06
-7.16487e-07
7.45761e-06
9.05324e-06
-1.16025e-06
3.26892e-07
1.00304e-05
-3.91676e-07
9.09195e-08
8.46177e-06
7.51345e-06
-3.10923e-07
8.43521e-06
-8.10943e-07
9.70306e-06
1.14508e-05
-1.35077e-06
3.91622e-07
1.23987e-05
-4.94612e-07
1.15792e-07
1.06904e-05
9.13736e-06
-3.50688e-07
1.00401e-05
-9.09202e-07
1.19188e-05
1.38312e-05
-1.54587e-06
4.71195e-07
1.47254e-05
-6.21515e-07
1.47925e-07
1.28682e-05
1.07039e-05
-3.93283e-07
1.15688e-05
-1.01246e-06
1.40596e-05
1.61407e-05
-1.74794e-06
5.5904e-07
1.69631e-05
-7.62935e-07
1.84334e-07
1.49547e-05
1.21819e-05
-4.34597e-07
1.30116e-05
-1.1129e-06
1.61123e-05
1.83642e-05
-1.94424e-06
6.5262e-07
1.91485e-05
-9.13877e-07
2.23845e-07
1.69811e-05
1.3598e-05
-4.77442e-07
1.4411e-05
-1.21543e-06
1.81262e-05
2.05604e-05
-2.14353e-06
7.60094e-07
2.1347e-05
-1.08727e-06
2.69984e-07
1.9003e-05
1.49997e-05
-5.22637e-07
1.58179e-05
-1.32166e-06
2.01608e-05
2.28e-05
-2.34736e-06
8.70866e-07
2.35966e-05
-1.26457e-06
3.18239e-07
2.10528e-05
1.64161e-05
-5.64151e-07
1.72335e-05
-1.41809e-06
2.2214e-05
2.50801e-05
-2.53605e-06
9.89517e-07
2.58734e-05
-1.4522e-06
3.70943e-07
2.31099e-05
1.78329e-05
-6.06688e-07
1.86368e-05
-1.51454e-06
2.42569e-05
2.73657e-05
-2.72265e-06
1.11038e-06
2.81288e-05
-1.64084e-06
4.25229e-07
2.51376e-05
1.92233e-05
-6.49618e-07
1.99986e-05
-1.6106e-06
2.62507e-05
2.96035e-05
-2.90434e-06
1.22844e-06
3.0316e-05
-1.82268e-06
4.78185e-07
2.71004e-05
2.05589e-05
-6.84523e-07
2.12906e-05
-1.68873e-06
2.81615e-05
3.17498e-05
-3.05449e-06
1.32194e-06
3.2403e-05
-1.96474e-06
5.1981e-07
2.89733e-05
2.18189e-05
-7.07435e-07
2.24907e-05
-1.73968e-06
2.99618e-05
3.37697e-05
-3.15862e-06
1.39625e-06
3.43333e-05
-2.07001e-06
5.53875e-07
3.07115e-05
2.29685e-05
-7.22033e-07
2.35694e-05
-1.76641e-06
3.16081e-05
3.56098e-05
-3.21857e-06
1.45869e-06
3.60655e-05
-2.15201e-06
5.85993e-07
3.22811e-05
2.39912e-05
-7.45669e-07
2.45313e-05
-1.80298e-06
3.3088e-05
3.72481e-05
-3.28342e-06
1.54413e-06
3.7615e-05
-2.2589e-06
6.34311e-07
3.37048e-05
2.49243e-05
-7.92267e-07
2.54434e-05
-1.87543e-06
3.44551e-05
3.8731e-05
-3.38705e-06
1.69592e-06
3.90658e-05
-2.45969e-06
7.18293e-07
3.5072e-05
2.58648e-05
-8.70821e-07
2.64109e-05
-2.00878e-06
3.58148e-05
4.01722e-05
-3.58443e-06
1.89867e-06
4.05156e-05
-2.74907e-06
8.25097e-07
3.64619e-05
2.6885e-05
-9.36541e-07
2.74411e-05
-2.12866e-06
3.7191e-05
4.16171e-05
-3.77941e-06
2.03009e-06
4.19742e-05
-2.96541e-06
8.86854e-07
3.78463e-05
2.79253e-05
-8.86631e-07
2.83856e-05
-2.02896e-06
3.84706e-05
4.29843e-05
-3.65354e-06
1.87165e-06
4.32648e-05
-2.78914e-06
7.96393e-07
3.90093e-05
2.87396e-05
-6.03142e-07
2.88847e-05
-1.44085e-06
3.92904e-05
4.39151e-05
-2.75308e-06
1.32072e-06
4.387e-05
-1.96106e-06
5.37249e-07
3.94985e-05
2.8948e-05
-1.85982e-07
2.86371e-05
-4.62778e-07
3.91712e-05
4.37987e-05
-1.11067e-06
6.7143e-07
4.31929e-05
-8.11491e-07
2.89632e-07
3.89275e-05
2.84118e-05
7.90293e-08
2.77958e-05
2.74242e-07
3.80787e-05
4.23984e-05
2.89845e-07
1.52023e-07
4.11907e-05
2.44143e-07
1.30225e-07
3.74178e-05
2.73636e-05
2.16287e-07
2.65703e-05
7.50442e-07
3.61812e-05
3.98008e-05
1.30283e-06
-7.055e-08
3.82223e-05
7.80662e-07
1.06502e-07
3.52752e-05
2.60767e-05
2.39676e-07
2.52059e-05
9.66e-07
3.37814e-05
3.64001e-05
1.87565e-06
6.59879e-09
3.46312e-05
8.15437e-07
2.0476e-07
3.27908e-05
2.47569e-05
1.44988e-07
2.39347e-05
8.56644e-07
3.1256e-05
3.26237e-05
1.88559e-06
3.53053e-07
3.08907e-05
3.75126e-07
3.81573e-07
3.03824e-05
2.36201e-05
-2.10397e-08
2.29226e-05
4.55763e-07
2.90325e-05
2.89177e-05
1.39199e-06
7.78616e-07
2.72847e-05
-2.09345e-07
5.40136e-07
2.83745e-05
2.27237e-05
-1.90262e-07
2.21635e-05
-6.60267e-09
2.72812e-05
2.54058e-05
7.87437e-07
1.06954e-06
2.38425e-05
-6.07556e-07
6.43292e-07
2.67805e-05
2.2043e-05
-1.6217e-07
2.1434e-05
-7.73054e-09
2.56916e-05
2.18335e-05
8.85845e-07
5.09928e-07
1.9799e-05
4.00649e-07
4.00772e-07
2.48542e-05
2.10551e-05
8.82287e-08
2.01819e-05
6.78873e-07
2.33109e-05
1.71858e-05
2.16068e-06
-6.20512e-07
1.42407e-05
2.42312e-06
-6.93179e-09
2.17356e-05
1.93829e-05
3.81106e-07
1.82027e-05
1.65757e-06
1.94897e-05
1.06819e-05
4.06333e-06
-1.78096e-06
6.71429e-06
4.59185e-06
-3.37133e-07
1.70738e-05
1.70643e-05
6.7943e-07
1.55914e-05
2.76626e-06
1.40239e-05
2.19219e-06
6.1422e-06
-3.03289e-06
-2.5177e-06
6.6187e-06
-7.14695e-07
1.07622e-05
1.41008e-05
1.14106e-06
1.22006e-05
4.07296e-06
6.90652e-06
-7.39146e-06
7.84552e-06
-4.35234e-06
-1.21125e-05
7.99376e-06
-1.16796e-06
2.8157e-06
1.02877e-05
1.46531e-06
8.09101e-06
4.82237e-06
-1.43048e-06
-1.71227e-05
8.77445e-06
-4.74387e-06
-2.17173e-05
8.29714e-06
-1.58233e-06
-5.46911e-06
5.78631e-06
1.8498e-06
3.23128e-06
4.983e-06
-9.45836e-06
-2.66425e-05
8.89177e-06
-5.01191e-06
-3.09068e-05
8.30205e-06
-2.01435e-06
-1.32743e-05
5.43488e-07
2.16629e-06
-2.26832e-06
5.14403e-06
-1.70367e-05
-3.55295e-05
8.83235e-06
-4.89013e-06
-3.94084e-05
7.86877e-06
-2.05934e-06
-2.06251e-05
-4.95187e-06
1.98678e-06
-7.52919e-06
4.74619e-06
-2.41016e-05
-4.37566e-05
8.24062e-06
-4.39778e-06
-4.72123e-05
7.03154e-06
-1.85947e-06
-2.73314e-05
-9.95853e-06
1.77298e-06
-1.22881e-05
4.21317e-06
-3.04455e-05
-5.12442e-05
7.4479e-06
-3.85701e-06
-5.42798e-05
6.13763e-06
-1.61294e-06
-3.33254e-05
-1.4425e-05
1.51528e-06
-1.6449e-05
3.67477e-06
-3.61032e-05
-5.80186e-05
6.67504e-06
-3.31652e-06
-6.06889e-05
5.26448e-06
-1.34641e-06
-3.86819e-05
-1.82968e-05
1.26828e-06
-2.00435e-05
3.1533e-06
-4.11475e-05
-6.41276e-05
5.90187e-06
-2.84811e-06
-6.6442e-05
4.48476e-06
-1.1315e-06
-4.34351e-05
-2.16454e-05
1.07101e-06
-2.3194e-05
2.70231e-06
-4.56456e-05
-6.96314e-05
5.20432e-06
-2.45663e-06
-7.16306e-05
3.79443e-06
-9.68945e-07
-4.76902e-05
-2.46211e-05
9.37044e-07
-2.59964e-05
2.36727e-06
-4.965e-05
-7.45582e-05
4.66889e-06
-2.176e-06
-7.6246e-05
3.28007e-06
-8.62231e-07
-5.14539e-05
-2.72613e-05
8.30615e-07
-2.85031e-05
2.09839e-06
-5.32203e-05
-7.8979e-05
4.23884e-06
-1.8953e-06
-8.04118e-05
2.78767e-06
-7.43328e-07
-5.4826e-05
-2.96196e-05
7.05641e-07
-3.06772e-05
1.81631e-06
-5.63643e-05
-8.29061e-05
3.80279e-06
-1.59699e-06
-8.40729e-05
2.28183e-06
-6.05546e-07
-5.77613e-05
-3.16167e-05
5.7236e-07
-3.25065e-05
1.52061e-06
-5.90951e-05
-8.63537e-05
3.34377e-06
-1.31232e-06
-8.72742e-05
1.79989e-06
-4.81568e-07
-6.02903e-05
-3.32878e-05
4.48921e-07
-3.40213e-05
1.23662e-06
-6.14239e-05
-8.93458e-05
2.89765e-06
-1.02611e-06
-9.00332e-05
1.32443e-06
-3.53546e-07
-6.24242e-05
-3.46444e-05
3.16152e-07
-3.52147e-05
9.45736e-07
-6.33631e-05
-9.19154e-05
2.46079e-06
-7.3952e-07
-9.23816e-05
8.6065e-07
-2.25709e-07
-6.41678e-05
-3.56795e-05
2.02154e-07
-3.61061e-05
6.73031e-07
-6.49119e-05
-9.40759e-05
2.04311e-06
-4.89064e-07
-9.43298e-05
4.39034e-07
-1.24978e-07
-6.55323e-05
-3.64416e-05
1.06789e-07
-3.67458e-05
4.40683e-07
-6.61063e-05
-9.58423e-05
1.66856e-06
-2.7748e-07
-9.58932e-05
6.30046e-08
-3.6395e-08
-6.65714e-05
-3.69667e-05
3.0204e-08
-3.71684e-05
2.49578e-07
-6.69986e-05
-9.72225e-05
1.33255e-06
-1.23442e-07
-9.70489e-05
-2.77151e-07
2.39075e-08
-6.73375e-05
-3.73025e-05
-2.38379e-08
-3.74234e-05
1.19661e-07
-6.76567e-05
-9.81831e-05
1.04534e-06
-1.57251e-08
-9.78182e-05
-5.39157e-07
7.12384e-08
-6.79038e-05
-3.74838e-05
-6.02567e-08
-3.75422e-05
4.34225e-08
-6.81523e-05
-9.87923e-05
8.45205e-07
3.48584e-08
-9.82713e-05
-7.09068e-07
9.76018e-08
-6.83447e-05
-3.75508e-05
-8.67971e-08
-3.75582e-05
1.05538e-08
-6.8557e-05
-9.91203e-05
7.2333e-07
7.05863e-07
-9.91306e-05
-8.14664e-07
1.43113e-07
-6.80937e-05
-3.74965e-05
-6.89185e-08
-3.74974e-05
5.75599e-07
-6.88237e-05
-9.86272e-05
-2.93197e-08
6.88941e-07
-9.93759e-05
-2.50017e-08
1.0316e-07
-6.83087e-05
-3.74521e-05
6.19247e-08
-3.75613e-05
7.12791e-08
-6.83755e-05
-9.95039e-05
1.30111e-07
3.7092e-07
-9.86951e-05
-1.231e-06
-2.22373e-07
-6.78241e-05
-3.7818e-05
4.49925e-07
-3.82926e-05
1.07394e-06
-6.84785e-05
-9.87466e-05
1.08907e-06
-2.07183e-06
-0.000100284
3.58815e-06
-8.18282e-07
-6.975e-05
-3.91249e-05
1.61282e-06
-4.07457e-05
3.71487e-06
-7.18621e-05
-0.000104144
7.56311e-06
-2.36188e-06
3.98812e-06
-1.02162e-06
2.33583e-05
0.000341014
1.96521e-06
0.000382554
1.13881e-05
0.000486997
-1.05605e-05
0.000508954
-7.14854e-08
0.000533326
-5.3578e-06
0.000556435
6.19276e-07
0.000556297
1.97409e-07
0.00056797
1.83713e-06
0.000568745
1.76659e-06
0.000588909
2.27426e-06
0.000592631
2.39472e-06
0.000620114
2.7885e-06
0.000625254
2.99851e-06
0.000658069
3.39208e-06
0.000664509
3.56641e-06
0.000701543
3.95665e-06
0.000709187
4.09394e-06
0.000750321
4.47429e-06
0.000759121
4.57219e-06
0.000804517
4.93651e-06
0.000814435
4.98986e-06
0.000864572
5.32985e-06
0.000875589
5.33807e-06
0.00093057
5.64473e-06
0.000942531
5.60816e-06
0.00100261
5.87048e-06
0.00101522
5.80188e-06
0.00107972
6.01161e-06
0.00109231
5.91644e-06
0.00116274
6.05594e-06
0.00117424
5.70223e-06
0.00124842
4.29623e-06
0.00125408
3.22886e-07
0.001463
-8.55696e-06
0.00152109
-2.30748e-05
0.00168575
-5.83667e-05
0.00165071
-0.000115148
0.00162604
-0.000268495
0.00161172
-0.000574234
0.00162246
-0.000276479
0.00101877
-0.00012589
0.00102475
-7.27312e-05
0.00101132
-3.19353e-05
0.000971154
-1.4313e-05
0.000930796
1.18172e-06
0.000912297
4.38183e-06
0.000902707
1.75534e-05
0.000907057
1.01341e-05
0.000905538
3.15993e-05
0.000918297
-9.65855e-06
0.000886157
7.78778e-06
0.000839392
-2.81214e-05
0.000577295
-2.9576e-06
0.000476738
-1.32643e-06
0.000153016
-2.08796e-07
0.000105437
4.63126e-05
9.63075e-07
4.53488e-05
3.60871e-06
0.00010279
0.00014945
7.17406e-06
5.69919e-07
0.000149318
-4.39263e-07
5.5939e-07
0.0001028
4.59072e-05
-2.01321e-06
4.79185e-05
-3.71099e-06
0.000104495
0.000152015
-6.41058e-06
3.73305e-06
0.000154494
-6.2165e-06
2.10019e-06
0.000106125
5.00162e-05
-1.72122e-06
5.17339e-05
-2.91462e-06
0.000107315
0.00015601
-4.4353e-06
2.28117e-06
0.00015704
-3.31741e-06
1.49074e-06
0.0001081
5.32205e-05
-1.27489e-06
5.44909e-05
-1.8484e-06
0.000108668
0.000157978
-2.79327e-06
1.93773e-06
0.000158475
-2.44347e-06
1.19684e-06
0.000109403
5.56826e-05
-1.12261e-06
5.67994e-05
-1.6834e-06
0.000109957
0.000159166
-2.38326e-06
1.64443e-06
0.00015983
-2.31906e-06
1.0704e-06
0.000110524
5.78634e-05
-1.03419e-06
5.88906e-05
-1.62762e-06
0.000111109
0.0001605
-2.30779e-06
1.61265e-06
0.000161157
-2.28105e-06
1.01302e-06
0.000111701
5.98964e-05
-9.93963e-07
6.08828e-05
-1.60025e-06
0.000112298
0.000161805
-2.25962e-06
1.61228e-06
0.00016246
-2.27984e-06
9.81819e-07
0.00011292
6.18569e-05
-9.73175e-07
6.28221e-05
-1.62396e-06
0.000113561
0.000163098
-2.27534e-06
1.64397e-06
0.000163759
-2.31955e-06
9.71117e-07
0.000114223
6.3785e-05
-9.73275e-07
6.47497e-05
-1.66834e-06
0.000114908
0.00016441
-2.33371e-06
1.70722e-06
0.000165084
-2.39596e-06
9.82419e-07
0.000115622
6.57233e-05
-9.93781e-07
6.67082e-05
-1.72699e-06
0.000116345
0.000165765
-2.4227e-06
1.78022e-06
0.000166465
-2.49601e-06
1.00846e-06
0.000117105
6.77076e-05
-1.01885e-06
6.87175e-05
-1.80031e-06
0.000117876
0.000167177
-2.52762e-06
1.84936e-06
0.000167916
-2.60513e-06
1.02345e-06
0.000118691
6.9732e-05
-1.02396e-06
7.07469e-05
-1.86554e-06
0.000119521
0.000168679
-2.64445e-06
1.91879e-06
0.000169483
-2.73999e-06
1.02563e-06
0.000120403
7.17633e-05
-1.03166e-06
7.27856e-05
-1.94391e-06
0.000121303
0.000170322
-2.79931e-06
2.00959e-06
0.000171212
-2.91581e-06
1.04261e-06
0.000122258
7.38191e-05
-1.06218e-06
7.48721e-05
-2.05767e-06
0.000123242
0.000172144
-3.0058e-06
2.10899e-06
0.000173122
-3.10336e-06
1.07931e-06
0.00012426
7.59426e-05
-1.09981e-06
7.70336e-05
-2.19044e-06
0.00012534
0.000174164
-3.24872e-06
2.25833e-06
0.000175266
-3.37605e-06
1.12232e-06
0.000126465
7.81472e-05
-1.14518e-06
7.92836e-05
-2.32429e-06
0.000127633
0.000176433
-3.50799e-06
2.43473e-06
0.00017769
-3.7077e-06
1.17257e-06
0.000128884
8.04472e-05
-1.21122e-06
8.16495e-05
-2.5133e-06
0.000130175
0.000179021
-3.85919e-06
2.64056e-06
0.000180467
-4.10225e-06
1.25283e-06
0.000131551
8.28938e-05
-1.30926e-06
8.41949e-05
-2.76993e-06
0.000133001
0.000181979
-4.29644e-06
2.91828e-06
0.000183639
-4.59248e-06
1.36637e-06
0.000134543
8.55536e-05
-1.43806e-06
8.69842e-05
-3.08006e-06
0.000136175
0.000185377
-4.83255e-06
3.26563e-06
0.000187276
-5.17762e-06
1.50982e-06
0.000137922
8.8487e-05
-1.6025e-06
9.00826e-05
-3.47085e-06
0.000139781
0.00018932
-5.52788e-06
3.71231e-06
0.000191536
-5.94151e-06
1.6987e-06
0.000141787
9.17748e-05
-1.82921e-06
9.35978e-05
-3.99094e-06
0.000143941
0.000193942
-6.40788e-06
4.3291e-06
0.000196576
-6.97475e-06
1.97134e-06
0.000146291
9.55636e-05
-2.17181e-06
9.77303e-05
-4.72819e-06
0.000148841
0.00019947
-7.6321e-06
5.01035e-06
0.000202929
-8.47826e-06
2.39668e-06
0.000151448
0.000100123
-2.75059e-06
0.00010287
-5.96705e-06
0.00015466
0.000206242
-9.28803e-06
6.5597e-06
0.00020999
-1.03151e-05
3.12281e-06
0.000158093
0.00010599
-3.26137e-06
0.00010925
-6.76046e-06
0.000161589
0.000214082
-1.08586e-05
7.04948e-06
0.000218185
-1.1156e-05
3.16548e-06
0.000165472
0.000112415
-2.83476e-06
0.000115251
-7.05502e-06
0.000169692
0.000223005
-1.18781e-05
6.96041e-06
0.000228244
-1.22009e-05
3.01444e-06
0.00017364
0.000118267
-2.90128e-06
0.000121171
-7.52878e-06
0.000178269
0.000234334
-1.36192e-05
8.08293e-06
0.000240941
-1.469e-05
3.02185e-06
0.000183332
0.000124196
-3.91352e-06
0.000128113
-1.02855e-05
0.000189706
0.000248986
-1.83315e-05
1.4548e-05
0.000260229
-2.57934e-05
5.96284e-06
0.000198292
0.000134078
-1.10114e-05
0.000145091
-2.14406e-05
0.000208723
0.000271037
-3.22504e-05
-0.000183022
0.000130883
0.000323176
-7.42908e-05
9.99928e-05
7.08011e-05
-2.51672e-05
9.59676e-05
-5.98279e-05
0.000134653
0.00017334
-0.000102287
3.61457e-05
0.000200998
-6.38091e-05
1.46619e-05
0.000156135
0.000110628
-7.59891e-06
0.000118223
-1.99144e-05
0.000168446
0.000216573
-3.54957e-05
1.55916e-05
0.000227474
-2.65026e-05
6.46744e-06
0.000177563
0.000124687
-5.8707e-06
0.000130552
-1.50541e-05
0.000186739
0.000238801
-2.63933e-05
1.66512e-05
0.000250664
-2.85263e-05
6.85858e-06
0.000196523
0.000137404
-7.63487e-06
0.000145032
-1.87628e-05
0.000207642
0.000264931
-3.30449e-05
2.41817e-05
0.000282514
-4.17811e-05
1.02747e-05
0.000221537
0.0001553
-1.31414e-05
0.000168432
-2.69514e-05
0.000235335
0.000297528
-4.19845e-05
-0.000204187
0.000147436
0.000354268
-8.41511e-05
0.000115291
8.4274e-05
-3.1178e-05
0.000115445
-7.2358e-05
0.000156464
0.00019565
-0.000120581
4.96741e-05
0.000231859
-8.59002e-05
2.05179e-05
0.000185607
0.000135952
-1.39807e-05
0.000149916
-3.28905e-05
0.000204496
0.00025657
-5.76278e-05
3.10923e-05
0.000279071
-5.36232e-05
1.30287e-05
0.000222538
0.000162927
-1.47671e-05
0.000177676
-3.58581e-05
0.000243604
0.000303143
-5.99623e-05
3.04098e-05
0.00032086
-4.81717e-05
1.54964e-05
0.000258489
0.000193152
9.49738e-05
9.81627e-05
0.000223131
0.000130314
0.000162361
0.000381608
8.39189e-05
0.00021962
-0.000141197
3.77188e-05
0.000176497
0.000135866
-3.29603e-05
0.000168804
-7.68744e-05
0.000220383
0.000272038
-0.00012933
5.322e-05
0.000303508
-8.47446e-05
2.45709e-05
0.000248992
0.000193346
9.47828e-05
9.85391e-05
0.000215042
0.000128703
0.000158324
0.00036019
9.33036e-05
0.000220422
-0.000155429
4.14661e-05
0.000180517
0.000139982
-3.72317e-05
0.00017718
-8.34897e-05
0.000226725
0.000274258
-0.0001374
-0.000210506
0.000141198
0.00034351
-9.09387e-05
0.000107109
8.62001e-05
-2.97443e-05
0.000115896
-6.87399e-05
0.000146046
0.000180337
-0.000107954
-0.000196262
5.49676e-05
0.000321509
-8.9985e-05
3.968e-05
2.5836e-05
5.72323e-05
-3.14771e-05
0.000116797
-1.99795e-05
-1.21135e-05
0.000183766
-1.43157e-05
-4.35279e-05
4.56416e-05
2.04466e-06
-3.6404e-05
-2.94785e-05
6.51916e-06
-3.60816e-05
1.66172e-05
-4.66144e-05
-5.47527e-05
2.76821e-05
2.87301e-05
-3.99393e-05
-4.3684e-05
1.40808e-05
-3.20677e-05
-2.20763e-05
-7.90375e-06
-1.42195e-05
-1.8514e-05
-2.15111e-05
-2.71985e-05
-3.13149e-05
-3.29208e-05
-5.12421e-05
5.68941e-05
-1.3299e-05
-4.11935e-05
-2.75695e-05
-5.86735e-06
-2.17638e-05
-1.37239e-05
-3.3419e-05
-4.27636e-05
-2.2313e-05
1.68267e-05
-3.01188e-05
-2.95235e-05
6.34856e-06
-2.29878e-05
-1.54571e-05
1.56763e-05
-3.11808e-05
3.834e-05
-4.57065e-05
-5.75652e-05
6.57222e-05
1.42383e-05
-4.82169e-05
-2.36889e-05
6.08639e-06
-3.76301e-05
-2.51515e-05
-7.39609e-06
-1.77942e-05
-1.91544e-05
-2.59152e-05
-3.38493e-05
-3.35705e-05
-4.33541e-05
-6.48366e-05
7.42826e-05
-1.77203e-05
-5.15992e-05
-3.55575e-05
-6.92121e-06
-2.86886e-05
-1.64034e-05
-4.21866e-05
-5.34213e-05
-2.7912e-05
2.1419e-05
-3.74954e-05
-3.73889e-05
8.31291e-06
-2.912e-05
-2.04107e-05
2.00141e-05
-4.04638e-05
4.79353e-05
-5.70863e-05
-7.11863e-05
8.15735e-05
1.90429e-05
-5.87716e-05
-3.15417e-05
8.31049e-06
-4.6417e-05
-3.22005e-05
-9.40781e-06
-2.28241e-05
-2.35095e-05
-3.23507e-05