/*--------------------------------*- C++ -*----------------------------------*\
| =========                 |                                                 |
| \\      /  F ield         | OpenFOAM: The Open Source CFD Toolbox           |
|  \\    /   O peration     | Version:  v2006                                 |
|   \\  /    A nd           | Website:  www.openfoam.com                      |
|    \\/     M anipulation  |                                                 |
\*---------------------------------------------------------------------------*/
FoamFile
{
    version     2.0;
    format      ascii;
    class       volVectorField;
    location    "0.003";
    object      U;
}
// * * * * * * * * * * * * * * * * * * * * * * * * * * * * * * * * * * * * * //

dimensions      [0 1 -1 0 0 0 0];


internalField   nonuniform List<vector> 
31566
(
(30.6853 0.0401138 -3.18353e-19)
(30.6722 0.0148948 0)
(30.6377 0.00285571 0)
(30.6389 0.0114966 -9.5047e-19)
(30.6681 0.0216895 1.64716e-18)
(30.7334 0.0308799 -2.90546e-19)
(30.8296 0.0428213 0)
(30.9392 0.0537357 1.42166e-19)
(31.0623 0.064484 1.48017e-19)
(31.1917 0.0721944 -2.94247e-19)
(31.3288 0.0784054 -4.69091e-21)
(31.47 0.0821233 0)
(31.6154 0.0845747 0)
(31.7648 0.0861326 0)
(31.919 0.0875584 0)
(32.0783 0.0889741 -3.69979e-23)
(32.2432 0.0901919 0)
(32.413 0.0907299 0)
(32.5866 0.0902113 0)
(32.7624 0.0886122 0)
(32.9393 0.0860721 0)
(33.1165 0.0826628 0)
(33.2931 0.0784732 0)
(33.4685 0.0735964 0)
(33.642 0.0680469 0)
(33.8127 0.0617859 0)
(33.9798 0.0547275 0)
(34.1421 0.0468416 0)
(34.2981 0.0381648 0)
(34.4465 0.0288017 0)
(34.5857 0.0189398 0)
(34.7145 0.00890056 0)
(34.8313 -0.000702954 0)
(34.9349 -0.00876721 0)
(35.0249 -0.0140018 0)
(35.1013 -0.0165949 0)
(35.1644 -0.0164848 0)
(35.2131 -0.0133465 0)
(35.2467 -0.0091413 0)
(35.266 -0.0045166 0)
(35.2691 0.000762726 0)
(35.2538 0.00376201 0)
(35.2404 0.000138198 0)
(35.2269 -0.00449411 0)
(35.2057 -0.0114539 0)
(35.1741 -0.0197681 0)
(35.131 -0.0277785 0)
(35.0768 -0.0346882 0)
(35.0122 -0.0405627 0)
(34.9381 -0.0457462 0)
(34.8549 -0.0505322 0)
(34.7633 -0.0550971 0)
(34.6637 -0.0595354 0)
(34.5565 -0.0639003 0)
(34.4422 -0.0682323 0)
(34.321 -0.0725726 0)
(34.1931 -0.0769559 0)
(34.0584 -0.0814015 0)
(33.9172 -0.0859119 0)
(33.7693 -0.0904932 7.40481e-23)
(33.6149 -0.0951461 0)
(33.4538 -0.0998716 0)
(33.286 -0.10465 0)
(33.1115 -0.109455 0)
(32.9301 -0.114256 0)
(32.742 -0.119022 0)
(32.547 -0.12371 0)
(32.3454 -0.128288 0)
(32.1372 -0.132718 0)
(31.9226 -0.136942 0)
(31.7017 -0.140932 0)
(31.475 -0.144666 0)
(31.2426 -0.148061 0)
(31.0049 -0.151013 0)
(30.7628 -0.153494 0)
(30.5169 -0.155531 0)
(30.2675 -0.157113 0)
(30.015 -0.158202 0)
(29.7602 -0.158741 0)
(29.5035 -0.158695 0)
(29.2458 -0.158047 0)
(28.9878 -0.156772 0)
(28.7305 -0.154853 7.45516e-23)
(28.4747 -0.152281 0)
(28.2215 -0.149049 0)
(27.9717 -0.145167 0)
(27.7263 -0.140644 0)
(27.4863 -0.135478 0)
(27.2527 -0.129657 0)
(27.0265 -0.123173 -7.45428e-23)
(26.8091 -0.116014 -1.491e-22)
(26.6017 -0.108203 -5.96599e-22)
(26.4059 -0.0997283 -1.19485e-21)
(26.2234 -0.0908577 0)
(26.0558 -0.081225 0)
(25.9049 -0.0720357 0)
(25.7711 -0.0619373 0)
(25.654 -0.0534959 -8.48648e-20)
(25.5508 -0.0425095 0)
(25.467 -0.038466 0)
(25.4049 -0.0675564 0)
(25.2864 -0.0368628 0)
(25.2862 -0.0123346 0)
(25.2549 -0.0161875 0)
(25.1993 -0.0107181 -3.08387e-19)
(25.1291 -0.0212037 3.74576e-19)
(25.0379 -0.0405031 0)
(24.9052 -0.0546802 2.63846e-19)
(24.7677 -0.0685175 -3.19294e-19)
(24.206 -0.0819536 0)
(23.8101 -0.11099 0)
(24.8058 -0.117803 0)
(24.9797 -0.102579 -2.52522e-18)
(25.0341 -0.139813 4.83745e-19)
(24.8 -0.145535 -1.48048e-19)
(23.3171 -0.133691 9.05092e-20)
(22.7407 -0.131833 -3.87429e-19)
(24.7668 -0.145198 1.299e-19)
(25.0735 -0.153759 -4.34102e-19)
(25.0874 -0.158181 4.2104e-19)
(24.7025 -0.135819 3.18836e-20)
(22.1896 -0.1127 3.12798e-19)
(21.702 -0.0754595 -1.80046e-20)
(24.6026 -0.122192 -3.00023e-20)
(25.065 -0.152811 -2.51026e-20)
(25.0035 -0.144178 2.51059e-20)
(24.4464 -0.105736 0)
(21.3274 -0.0521994 1.81132e-20)
(21.0354 -0.0377251 0)
(24.2691 -0.0948593 -1.87198e-21)
(24.9146 -0.136274 0)
(24.8155 -0.12959 0)
(24.0782 -0.0896524 1.87265e-21)
(20.7576 -0.0401151 0)
(20.4717 -0.0414847 -1.13296e-21)
(23.9159 -0.0905202 1.86501e-21)
(24.7194 -0.129129 -1.56353e-21)
(24.626 -0.129487 1.57107e-21)
(23.7589 -0.0921248 -1.8682e-21)
(20.1795 -0.043617 5.67956e-22)
(19.878 -0.0440066 3.58991e-25)
(23.6052 -0.0939719 -4.66774e-22)
(24.5359 -0.12877 0)
(24.4438 -0.128606 2.01048e-19)
(23.4509 -0.0925666 4.67068e-22)
(19.5705 -0.0435026 5.67608e-22)
(19.2677 -0.0407986 0)
(23.2946 -0.0909873 0)
(24.3476 -0.127159 0)
(24.2418 -0.12673 -2.01012e-19)
(23.1298 -0.0867356 0)
(18.9779 -0.0372697 0)
(18.7066 -0.0332992 0)
(22.9569 -0.0841271 0)
(24.1244 -0.126049 0)
(23.9936 -0.127422 -2.00981e-19)
(22.7719 -0.0813521 0)
(18.4467 -0.0311687 0)
(18.1929 -0.0297073 0)
(22.5786 -0.0817166 0)
(23.8514 -0.129493 0)
(23.697 -0.133714 0)
(22.3728 -0.0826676 0)
(17.9345 -0.0304458 0)
(17.6656 -0.0314745 0)
(22.1575 -0.0865047 0)
(23.5334 -0.138539 -2.00935e-19)
(23.3595 -0.144821 0)
(21.9286 -0.0903535 0)
(17.3782 -0.0341851 0)
(17.0703 -0.0364088 0)
(21.6894 -0.0958465 0)
(23.1782 -0.150609 0)
(22.989 -0.15643 0)
(21.4375 -0.100182 0)
(16.7387 -0.0394838 0)
(16.3873 -0.0412507 0)
(21.1776 -0.104428 0)
(22.7945 -0.159963 -2.00895e-19)
(22.5951 -0.162011 0)
(20.9095 -0.106195 0)
(16.0183 -0.0429409 0)
(15.6421 -0.0425868 0)
(20.64 -0.106173 0)
(22.3927 -0.160311 0)
(22.1878 -0.156605 0)
(20.3687 -0.10322 0)
(15.2644 -0.0415235 0)
(14.8993 -0.0384442 0)
(20.1027 -0.0983132 0)
(21.9824 -0.14942 -2.00886e-19)
(21.775 -0.141068 0)
(19.8397 -0.0911191 0)
(14.549 -0.0350255 0)
(14.2246 -0.0302991 0)
(19.5872 -0.0829645 0)
(21.5679 -0.131188 0)
(21.3567 -0.121715 0)
(19.338 -0.073838 0)
(13.9251 -0.0254863 0)
(13.658 -0.0204565 0)
(19.0965 -0.0657004 0)
(21.1422 -0.113277 -2.0091e-19)
(20.9197 -0.107091 0)
(18.8532 -0.0585757 0)
(13.4125 -0.0168482 0)
(13.1869 -0.0138488 0)
(18.612 -0.0535775 0)
(20.6904 -0.103035 2.00934e-19)
(20.4516 -0.100486 0)
(18.3663 -0.049556 0)
(12.9719 -0.0120255 0)
(12.7682 -0.0104672 0)
(18.1213 -0.0468256 0)
(20.2055 -0.0991403 0)
(19.9522 -0.0984694 0)
(17.8736 -0.0447026 0)
(12.571 -0.00959696 0)
(12.379 -0.0087395 0)
(17.624 -0.0432078 0)
(19.6899 -0.0986552 0)
(19.4121 -0.0996734 0)
(17.364 -0.0426312 0)
(12.1828 -0.00859666 0)
(11.9841 -0.00838132 0)
(17.0958 -0.0426272 0)
(19.1197 -0.101816 0)
(18.8117 -0.104547 -2.01021e-19)
(16.8157 -0.0439378 0)
(11.7762 -0.00874055 0)
(11.5605 -0.00967327 0)
(16.526 -0.0465644 0)
(18.4897 -0.109109 0)
(18.153 -0.115032 0)
(16.219 -0.0511244 0)
(11.322 -0.0114065 0)
(11.0658 -0.0134804 0)
(15.8982 -0.0561957 0)
(17.803 -0.123053 0)
(17.4357 -0.131034 0)
(15.5536 -0.0621457 0)
(10.7799 -0.0155222 0)
(10.4755 -0.0176864 0)
(15.1939 -0.0673451 0)
(17.0546 -0.139776 0)
(16.6584 -0.147453 0)
(14.8123 -0.0730937 0)
(10.1442 -0.0195377 0)
(9.79484 -0.0215179 0)
(14.4161 -0.0774324 0)
(16.2486 -0.155246 0)
(15.8235 -0.162675 -2.01168e-19)
(13.9982 -0.0831374 0)
(9.41987 -0.0231117 0)
(9.02791 -0.024916 0)
(13.5674 -0.0873631 0)
(15.3855 -0.170496 0)
(14.9349 -0.177967 0)
(13.1184 -0.093547 0)
(8.61411 -0.0262763 0)
(8.18513 -0.0280696 0)
(12.6587 -0.0974262 0)
(14.4735 -0.18552 0)
(14.0007 -0.192342 0)
(12.1825 -0.103309 0)
(7.73664 -0.0293488 0)
(7.27445 -0.0312147 0)
(11.6966 -0.106404 0)
(13.5182 -0.19941 0)
(13.0276 -0.205819 0)
(11.1972 -0.112137 0)
(6.79692 -0.0323262 0)
(6.31063 -0.0345395 0)
(10.6923 -0.115362 0)
(12.5318 -0.213569 0)
(12.0317 -0.221142 -2.01481e-19)
(10.1775 -0.122217 0)
(5.81094 -0.036029 0)
(5.29897 -0.0387805 0)
(9.65579 -0.12609 0)
(11.5268 -0.230103 0)
(11.02 -0.237269 0)
(9.12648 -0.132763 0)
(4.77541 -0.039722 0)
(4.25151 -0.0424633 0)
(8.59786 -0.1361 0)
(10.5144 -0.245869 0)
(10.0138 -0.253247 0)
(8.06757 -0.143311 0)
(3.71979 -0.0436406 0)
(3.18941 -0.0469243 0)
(7.54161 -0.147228 0)
(9.51907 -0.262719 0)
(9.03087 -0.270007 0)
(7.01422 -0.154605 0)
(2.64986 -0.0478581 0)
(2.11469 -0.0513215 0)
(6.49267 -0.158282 0)
(8.5501 -0.279353 0)
(8.07741 -0.285775 0)
(5.9706 -0.165376 0)
(1.57002 -0.0519509 0)
(1.03188 -0.0553606 0)
(5.45538 -0.167991 0)
(7.61264 -0.293628 0)
(7.15275 -0.296972 0)
(4.93719 -0.173481 0)
(0.481376 -0.0551328 0)
(-0.0611445 -0.0573994 0)
(4.42514 -0.173051 0)
(6.6965 -0.300895 0)
(6.23964 -0.299459 0)
(3.90769 -0.175016 0)
(-0.616962 -0.0551635 0)
(-1.15759 -0.0562464 0)
(3.39488 -0.171859 0)
(5.78192 -0.300335 0)
(5.31822 -0.29652 0)
(2.87215 -0.171937 0)
(-1.70663 -0.0526491 0)
(-2.23775 -0.0523036 0)
(2.35334 -0.167745 0)
(4.85272 -0.29733 0)
(4.37916 -0.292972 0)
(1.82113 -0.165538 0)
(-2.76462 -0.0458909 0)
(-3.25916 -0.0440475 0)
(1.29463 -0.159893 0)
(3.90463 -0.294282 0)
(3.42635 -0.286998 0)
(0.763643 -0.153371 0)
(-3.72711 -0.0355649 0)
(-4.14828 -0.0347045 0)
(0.250978 -0.146572 0)
(2.95263 -0.285877 0)
(2.49172 -0.275397 0)
(-0.240104 -0.138134 0)
(-4.52579 -0.0273997 0)
(-4.85211 -0.0300994 0)
(-0.691879 -0.134309 0)
(2.04911 -0.271647 0)
(1.64266 -0.25718 0)
(-1.0917 -0.124149 0)
(-5.131 -0.0245322 0)
(-5.37107 -0.0284771 0)
(-1.45327 -0.128772 0)
(1.25941 -0.256918 0)
(0.926416 -0.243768 0)
(-1.76091 -0.116296 0)
(-5.57284 -0.0240353 0)
(-5.75957 -0.0289548 0)
(-2.05902 -0.132358 0)
(0.59955 -0.25073 0)
(0.327828 -0.238647 0)
(-2.30957 -0.112054 0)
(-5.91997 -0.0238889 0)
(-6.08732 -0.0293586 0)
(-2.58722 -0.140492 0)
(0.0225713 -0.254625 0)
(-0.231586 -0.23757 0)
(-2.8282 -0.110303 0)
(-6.24533 -0.0238986 0)
(-6.42544 -0.0294446 0)
(-3.12266 -0.14753 0)
(-0.545587 -0.26315 0)
(-0.804284 -0.242273 0)
(-3.37745 -0.111769 0)
(-6.59592 -0.0236948 0)
(-6.78869 -0.0296839 0)
(-3.69589 -0.155802 0)
(-1.13785 -0.27776 0)
(-1.40564 -0.247423 0)
(-3.9678 -0.11196 0)
(-6.96523 -0.0221158 0)
(-7.16061 -0.0279518 0)
(-4.30903 -0.162731 0)
(-1.76101 -0.293451 0)
(-2.03478 -0.253099 0)
(-4.60058 -0.111151 0)
(-7.32776 -0.0159059 0)
(-7.50146 -0.020566 0)
(-4.97311 -0.166426 0)
(-2.40808 -0.310661 0)
(-2.68762 -0.258198 0)
(-5.29959 -0.105836 0)
(-7.63441 -0.00541943 0)
(-7.7583 -0.0147899 0)
(-5.69775 -0.157358 0)
(-3.07159 -0.320816 0)
(-3.36426 -0.245285 0)
(-6.02582 -0.0808698 0)
(-7.83697 -0.00467788 0)
(-7.88551 -0.0194458 0)
(-6.34474 -0.129269 0)
(-3.74677 -0.293884 0)
(-4.02296 -0.202079 0)
(-6.56232 -0.0502447 0)
(-7.89788 -0.0111586 0)
(-7.88612 -0.0192965 0)
(-6.74621 -0.110329 0)
(-4.35348 -0.23693 0)
(-4.53727 -0.14741 0)
(-6.83596 -0.0357847 0)
(-7.83925 -0.00955117 0)
(-7.77568 -0.0111257 0)
(-6.91012 -0.107224 0)
(-4.75141 -0.185024 0)
(-4.81746 -0.111585 0)
(-6.91474 -0.0273773 0)
(-7.67892 -0.00585526 0)
(-7.56889 -0.00621174 0)
(-6.91927 -0.105803 0)
(-4.92147 -0.160368 0)
(-4.90856 -0.100298 0)
(-6.87638 -0.0170488 0)
(-7.43239 -0.00678621 0)
(-7.28304 -0.00524435 0)
(-6.83709 -0.10336 0)
(-4.94621 -0.153971 0)
(-4.89559 -0.0959938 0)
(-6.7674 -0.00808493 0)
(-7.11755 -0.00847792 0)
(-6.93646 -0.00403972 0)
(-6.69535 -0.099088 0)
(-4.89148 -0.147546 0)
(-4.81713 -0.0925954 0)
(-6.59893 -0.00461475 0)
(-6.74201 -0.00888604 0)
(-6.51382 -0.00204554 0)
(-6.4774 -0.0933181 0)
(-4.76125 -0.137242 0)
(-4.65496 -0.0860406 0)
(-6.34177 -0.00428675 0)
(-6.2805 -0.00738469 0)
(-5.99843 0.000114698 0)
(-6.16219 -0.0856502 0)
(-4.54038 -0.123387 0)
(-4.39799 -0.0765798 0)
(-5.98167 -0.0058388 0)
(-5.72465 -0.00495558 0)
(-5.40395 0.00221348 0)
(-5.7546 -0.0752532 0)
(-4.2357 -0.104703 0)
(-4.06782 -0.0637949 0)
(-5.54015 -0.00810334 0)
(-5.10625 -0.00199752 0)
(-4.77362 0.00429856 0)
(-5.28773 -0.0623585 0)
(-3.87971 -0.0813627 0)
(-3.70226 -0.0501324 0)
(-5.05515 -0.011388 0)
(-4.47338 0.000659436 0)
(-4.14516 0.00587679 0)
(-4.78815 -0.0461157 0)
(-3.50085 -0.0529875 0)
(-3.31232 -0.0316347 0)
(-4.53206 -0.0110598 0)
(-3.8425 0.00263199 0)
(-3.51249 0.00832363 0)
(-4.24285 -0.0290204 0)
(-3.09575 -0.0209462 0)
(-2.87117 -0.0202245 0)
(-3.94955 -0.0146322 0)
(-3.18993 0.00466156 0)
(-2.83406 0.0123564 0)
(-3.61218 -0.0192916 0)
(-2.59696 0.00764487 0)
(-2.32773 -0.00463035 0)
(-3.27957 -0.012026 0)
(-2.49087 0.00485489 0)
(-2.10866 0.013187 0)
(-2.89552 -0.00759088 0)
(-2.00457 0.0335714 0)
(-1.69761 0.00936777 0)
(-2.51465 -0.00651164 0)
(-1.73296 0.0050942 0)
(-1.27826 0.0115015 0)
(-2.04712 0.004324 0)
(-1.28556 0.0469948 0)
(-0.939925 0.0293108 0)
(-1.6173 0.00147198 0)
(-0.872724 0.00809879 0)
(-0.33604 0.00658662 0)
(-1.06921 0.0207084 0)
(-0.443642 0.0531417 0)
(-0.042583 0.0508616 0)
(-0.588411 0.00783131 0)
(0.113171 0.00768645 0)
(0.673405 0.00565754 0)
(0.00986596 0.035947 0)
(0.488566 0.0587361 0)
(0.906712 0.0602188 0)
(0.507616 0.00565365 0)
(1.13639 0.00825536 0)
(1.68248 0.00371198 0)
(1.10488 0.0505053 0)
(1.44554 0.0713462 0)
(1.85072 0.0651909 0)
(1.58431 0.00129884 0)
(2.13288 0.0120861 0)
(2.65468 0.00335494 0)
(2.16895 0.0600422 0)
(2.38321 0.0843133 0)
(2.79488 0.0734017 0)
(2.65159 -0.000791537 0)
(3.10403 0.0153732 0)
(3.59756 0.00484488 0)
(3.21201 0.0672499 0)
(3.30803 0.0990245 0)
(3.73912 0.0858468 0)
(3.71125 -0.00019278 0)
(4.05279 0.0188555 0)
(4.52392 0.0075146 0)
(4.24785 0.073646 0)
(4.23193 0.114844 0)
(4.68416 0.0995383 0)
(4.76321 0.00240294 0)
(4.98295 0.0219256 0)
(5.43257 0.0110996 0)
(5.2763 0.0797121 0)
(5.15453 0.132103 0)
(5.61514 0.114111 0)
(5.79307 0.00737355 0)
(5.8832 0.0246029 0)
(6.30445 0.014912 0)
(6.2774 0.0861685 0)
(6.05626 0.150362 0)
(6.51129 0.129173 0)
(6.78011 0.0136683 0)
(6.73398 0.0271163 0)
(7.12914 0.0193093 0)
(7.2395 0.0915553 0)
(6.92634 0.16918 0)
(7.37666 0.144611 0)
(7.72928 0.0209157 0)
(7.54003 0.0294605 0)
(7.92345 0.0241167 0)
(8.17811 0.096799 0)
(7.78081 0.188789 0)
(8.23721 0.162185 0)
(8.66634 0.0294208 0)
(8.32808 0.0321436 0)
(8.71483 0.0294286 0)
(9.11948 0.101944 0)
(8.64577 0.209575 0)
(9.11534 0.180311 0)
(9.61412 0.0381544 0)
(9.12225 0.0351001 0)
(9.51272 0.034775 0)
(10.0717 0.106003 0)
(9.5292 0.229351 0)
(10.0044 0.199683 0)
(10.5658 0.0474677 0)
(9.91741 0.0385003 0)
(10.3063 0.040121 0)
(11.0224 0.1103 0)
(10.4186 0.248966 0)
(10.8895 0.219408 0)
(11.5076 0.0569817 0)
(10.7015 0.0421858 0)
(11.0803 0.0452789 0)
(11.9543 0.114937 0)
(11.2942 0.268169 0)
(11.7512 0.238549 0)
(12.4226 0.066425 0)
(11.4585 0.0456172 0)
(11.8206 0.0493348 0)
(12.8533 0.118799 0)
(12.1398 0.283833 0)
(12.5771 0.254077 0)
(13.2995 0.0738207 0)
(12.1769 0.0483059 0)
(12.5137 0.052378 0)
(13.7061 0.120828 0)
(12.9412 0.294951 0)
(13.3454 0.266028 0)
(14.1176 0.0800077 0)
(12.8366 0.0503707 0)
(13.1407 0.0544513 0)
(14.4913 0.121847 0)
(13.6768 0.301134 0)
(14.0401 0.275014 0)
(14.8608 0.0861573 0)
(13.4261 0.0520273 0)
(13.6972 0.0567835 0)
(15.1972 0.124914 0)
(14.3329 0.307407 0)
(14.6588 0.286356 0)
(15.5301 0.0952368 0)
(13.956 0.054682 0)
(14.2122 0.0606879 0)
(15.8409 0.131838 0)
(14.9215 0.318913 0)
(15.2249 0.307037 0)
(16.1579 0.110834 0)
(14.4722 0.0595388 0)
(14.7445 0.0660784 0)
(16.4688 0.14464 0)
(15.4814 0.340654 0)
(15.7825 0.336087 0)
(16.7898 0.130518 0)
(15.0287 0.0658978 0)
(15.3201 0.0702206 0)
(17.1077 0.155661 0)
(16.0439 0.361807 0)
(16.3436 0.356703 0)
(17.4289 0.142189 0)
(15.6156 0.0692633 0)
(15.8848 0.0670934 0)
(17.7302 0.146197 0)
(16.5973 0.348967 0)
(16.8599 0.336113 0)
(18.0049 0.126054 0)
(16.127 0.0634762 0)
(16.2757 0.049039 0)
(18.212 0.0972724 0)
(17.0481 0.252272 0)
(17.1745 0.254014 0)
(18.3277 0.0764735 0)
(16.3446 0.0495728 0)
(16.2693 0.0223143 0)
(18.3095 0.0228393 0)
(17.1655 0.0849948 0)
(17.0291 0.155234 0)
(18.1719 0.0204129 0)
(16.1215 0.0422323 0)
(15.8738 0.0149776 0)
(17.9168 -0.0367951 0)
(16.7635 -0.0312975 0)
(16.3585 0.070018 0)
(17.5638 -0.0222907 0)
(15.5799 0.0438365 0)
(15.2242 0.0160809 0)
(17.1174 -0.075523 0)
(15.8608 -0.106755 0)
(15.2611 0.0289007 0)
(16.6174 -0.0362518 0)
(14.8627 0.0501105 0)
(14.4688 0.0210605 0)
(16.0567 -0.0889154 0)
(14.6158 -0.144444 0)
(13.8794 0.035852 0)
(15.4695 -0.0279167 0)
(14.0972 0.0626896 0)
(13.7341 0.0320903 0)
(14.8885 -0.0779322 0)
(13.1756 -0.124702 0)
(12.3947 0.0988204 0)
(14.3059 -0.00111123 0)
(13.4127 0.0776626 0)
(13.131 0.0538333 0)
(13.8131 -0.060736 0)
(11.721 -0.0377855 0)
(10.9591 0.198105 0)
(13.3147 0.010592 0)
(12.8748 0.100668 0)
(12.6716 0.0829066 0)
(12.9541 -0.0556469 0)
(10.3407 0.0688791 0)
(9.59755 0.279296 0)
(12.5461 0.00807601 0)
(12.4804 0.123614 0)
(12.306 0.0916091 0)
(12.2495 -0.073877 0)
(9.00901 0.0911143 0)
(8.13103 0.187655 0)
(11.7682 -0.038071 0)
(12.0179 0.110809 0)
(11.684 0.0690898 0)
(11.2648 -0.108899 0)
(7.33045 -0.0331944 0)
(6.14947 -0.0446276 0)
(10.5121 -0.0863194 0)
(11.2015 0.0690087 0)
(10.6473 0.0359406 0)
(9.65568 -0.146049 0)
(4.97988 -0.236511 0)
(3.4008 -0.289356 0)
(8.53696 -0.130326 0)
(9.98271 0.0326506 0)
(9.25624 0.0155209 0)
(7.3063 -0.199026 0)
(1.84685 -0.463346 0)
(-0.111514 -0.526459 0)
(5.78981 -0.211332 0)
(8.41096 0.0180247 0)
(7.46642 0.00408755 0)
(4.18281 -0.307274 0)
(-1.88862 -0.660139 0)
(-3.83429 -0.70603 0)
(2.28602 -0.325891 0)
(6.36515 0.0124763 0)
(5.22806 -0.00932715 0)
(0.325414 -0.377852 0)
(-5.70796 -0.763379 0)
(-7.62282 -0.750239 0)
(-1.6407 -0.375159 0)
(3.93981 -0.035742 0)
(2.57495 -0.0637204 0)
(-3.47442 -0.409999 0)
(-9.48596 -0.774665 0)
(-11.3033 -0.768224 0)
(-5.31437 -0.422533 0)
(1.10152 -0.0869849 0)
(-0.485862 -0.104625 0)
(-7.06749 -0.441625 0)
(-13.0323 -0.777275 0)
(-14.7092 -0.74017 2.01508e-19)
(-8.79413 -0.416952 0)
(-2.07231 -0.101683 0)
(-3.54032 -0.0960897 0)
(-10.4443 -0.405946 0)
(-16.3264 -0.717542 0)
(-17.8663 -0.66584 0)
(-12.0134 -0.376402 0)
(-4.97392 -0.0921534 0)
(-6.31799 -0.0870937 0)
(-13.4925 -0.36069 0)
(-19.3368 -0.637154 0)
(-20.7354 -0.586986 0)
(-14.8958 -0.327976 0)
(-7.58984 -0.0788831 0)
(-8.76717 -0.0726767 0)
(-16.216 -0.311061 0)
(-22.0668 -0.559289 2.01215e-19)
(-23.3338 -0.508703 0)
(-17.4725 -0.278468 0)
(-9.86568 -0.0625915 0)
(-10.882 -0.0576816 0)
(-18.6498 -0.2645 0)
(-24.5353 -0.483048 2.01128e-19)
(-25.6729 -0.439679 0)
(-19.7651 -0.237558 0)
(-11.8333 -0.0497385 0)
(-12.7252 -0.0466308 0)
(-20.8161 -0.225834 0)
(-26.7565 -0.415811 2.01054e-19)
(-27.7833 -0.380526 0)
(-21.8156 -0.204843 0)
(-13.5709 -0.041307 0)
(-14.3639 -0.0404972 0)
(-22.7481 -0.197975 0)
(-28.7502 -0.364886 2.00991e-19)
(-29.6609 -0.337274 0)
(-23.6302 -0.182169 0)
(-15.1131 -0.0366738 0)
(-15.8225 -0.0357461 0)
(-24.4589 -0.175748 0)
(-30.5244 -0.323441 2.00942e-19)
(-31.3409 -0.294394 0)
(-25.2448 -0.158716 0)
(-16.4895 -0.0304062 0)
(-17.1052 -0.0283697 0)
(-25.9754 -0.151642 0)
(-32.1085 -0.280365 2.00906e-19)
(-32.8276 -0.248977 0)
(-26.6604 -0.133121 0)
(-17.6689 -0.0217973 0)
(-18.184 -0.0204763 0)
(-27.2935 -0.126187 0)
(-33.4989 -0.235064 2.00887e-19)
(-34.1234 -0.205729 0)
(-27.8804 -0.108965 0)
(-18.6545 -0.01479 0)
(-19.0799 -0.0128647 0)
(-28.4175 -0.102879 0)
(-34.7025 -0.190337 0)
(-35.2383 -0.159802 0)
(-28.91 -0.0862603 0)
(-19.4606 -0.00584334 0)
(-19.7927 -0.00335418 0)
(-29.3547 -0.0795657 0)
(-35.7327 -0.144157 0)
(-36.1861 -0.114283 0)
(-29.7542 -0.0632924 0)
(-20.079 0.00288552 0)
(-20.3233 0.00331914 0)
(-30.1053 -0.0576383 0)
(-36.5977 -0.10093 0)
(-36.97 -0.0743821 0)
(-30.413 -0.0431458 0)
(-20.532 0.00811175 0)
(-20.7049 0.0087932 0)
(-30.679 -0.0393 0)
(-37.3021 -0.0636126 0)
(-37.597 -0.0394999 0)
(-30.9098 -0.0270367 0)
(-20.8439 0.0140726 0)
(-20.9525 0.014818 0)
(-31.1041 -0.0262872 0)
(-37.8515 -0.0309436 0)
(-38.0706 -0.00958447 0)
(-31.2685 -0.0184309 0)
(-21.0392 0.0198788 0)
(-21.0981 0.0212686 0)
(-31.408 -0.0202232 0)
(-38.2271 -0.00488378 0)
(-38.3803 0.0119409 0)
(-31.5251 -0.0132642 0)
(-21.1426 0.025395 0)
(-21.1618 0.0265833 0)
(-31.6248 -0.0177437 0)
(-38.4575 0.011141 0)
(-38.5552 0.0225982 0)
(-31.7128 -0.0113287 0)
(-21.1731 0.0293038 0)
(-21.163 0.0304802 0)
(-31.7864 -0.0158452 0)
(-38.5686 0.0166954 0)
(-38.6209 0.0279741 0)
(-31.8608 -0.00368182 0)
(-21.1454 0.0341422 -3.64294e-20)
(-21.1075 0.0239875 -2.40513e-23)
(-31.8765 -0.00931789 0)
(-38.5935 0.0133223 0)
(-38.6555 0.00399045 5.0945e-20)
(-31.9474 0.00994306 -6.09394e-20)
(-21.084 0.0153752 3.69355e-20)
(-21.0676 -0.00804385 0)
(-31.9206 -0.00602612 6.14037e-20)
(-38.6645 -0.0122931 -5.11597e-20)
(-38.6713 -0.0291996 5.39263e-19)
(-31.9355 -0.0233494 -1.31492e-19)
(-21.1635 -0.0369978 0)
(-21.3627 -0.0728562 0)
(-31.9179 -0.0504955 1.34909e-19)
(-38.5689 -0.0550562 -1.1322e-19)
(-38.6374 -0.0306776 1.26985e-19)
(-31.9879 -0.023361 -7.685e-19)
(-21.6489 -0.0926483 -3.76319e-19)
(-21.9372 -0.0824295 2.80001e-19)
(-32.1212 0.00179658 -1.25223e-18)
(-38.7641 0.00285406 5.33021e-19)
(-38.9446 0.0194026 -5.69309e-19)
(-32.3026 0.0290068 1.01874e-18)
(-22.1512 -0.0664171 -3.048e-19)
(-47.0264 0.0867957 0)
(-49.24 0.221324 2.13191e-19)
(-56.5117 0.382141 -9.49366e-19)
(-58.7971 0.131088 -8.10709e-19)
(-59.7186 0.166644 0)
(-63.2894 -0.0906914 -2.0233e-19)
(-63.3093 -0.0612713 4.3534e-23)
(-65.2633 -0.218818 -2.55751e-20)
(-65.5503 -0.22243 2.56071e-20)
(-68.0499 -0.354414 0)
(-68.5332 -0.356486 6.42987e-21)
(-71.7071 -0.48035 -6.43224e-21)
(-72.3326 -0.481716 0)
(-76.1054 -0.603702 0)
(-76.871 -0.600076 0)
(-81.1274 -0.72094 0)
(-82.0359 -0.710309 0)
(-86.7625 -0.831 0)
(-87.8078 -0.811626 -2.05807e-19)
(-93.0238 -0.931604 0)
(-94.2011 -0.902734 0)
(-99.9619 -1.02072 0)
(-101.268 -0.981218 0)
(-107.587 -1.09537 0)
(-109.004 -1.04663 0)
(-115.911 -1.15209 0)
(-117.403 -1.09931 0)
(-124.822 -1.18584 0)
(-126.309 -1.14564 0)
(-134.444 -1.19125 0)
(-135.828 -1.19059 2.05868e-19)
(-144.496 -1.15797 -2.09249e-19)
(-145.524 -1.24429 2.90689e-20)
(-170.355 -1.16312 2.85774e-19)
(-179.091 -1.14546 -1.05281e-19)
(-201.016 -1.77725 -2.13274e-19)
(-202.037 -1.72961 4.40458e-19)
(-202.938 -1.86419 -5.61186e-20)
(-202.995 -1.88195 0)
(-202.974 -1.91042 8.4954e-18)
(-202.944 -1.87861 -1.82828e-17)
(-202.995 -1.87014 4.85243e-18)
(-203.082 -1.89593 0)
(-203.186 -1.91321 0)
(-203.356 -1.91817 -1.73966e-19)
(-203.539 -1.93509 0)
(-204.32 -1.93362 2.26882e-20)
(-204.991 -1.95644 -2.25187e-20)
(-205.449 -1.9324 0)
(-205.384 -2.05341 1.76862e-19)
(-203.333 -1.89088 -3.73865e-19)
(-193.709 -2.12934 3.64999e-19)
(-147.003 -1.45214 -1.66382e-18)
(-129.754 -0.962859 1.03074e-18)
(-113.019 -0.126208 -5.60728e-19)
(-93.3291 -0.430709 0)
(-48.9872 0.133329 1.003e-19)
(-49.0789 0.128565 -4.51933e-19)
(-93.0578 -0.439605 -9.03407e-19)
(-112.779 -0.226873 -6.13226e-23)
(-112.949 -0.366818 0)
(-93.1465 -0.445507 0)
(-49.4915 -0.0172388 0)
(-51.0625 -0.164264 0)
(-93.7781 -0.517062 -2.54277e-19)
(-113.733 -0.489082 0)
(-114.591 -0.536942 0)
(-94.5032 -0.514913 2.4579e-19)
(-52.8024 -0.210666 0)
(-54.4803 -0.211835 0)
(-95.2049 -0.472512 2.29631e-19)
(-115.365 -0.544489 2.73952e-25)
(-116.082 -0.52912 0)
(-95.871 -0.423096 -2.8438e-20)
(-56.0769 -0.214333 1.03704e-19)
(-57.5491 -0.217831 -6.83441e-23)
(-96.4666 -0.379561 0)
(-116.748 -0.514786 0)
(-117.36 -0.496306 0)
(-97.0682 -0.351422 0)
(-58.9253 -0.211209 -6.82281e-20)
(-60.203 -0.196029 0)
(-97.6351 -0.328657 0)
(-117.96 -0.483081 0)
(-118.549 -0.476506 0)
(-98.2111 -0.314855 0)
(-61.4142 -0.186753 0)
(-62.5802 -0.178242 0)
(-98.8019 -0.309859 1.11678e-19)
(-119.139 -0.469523 0)
(-119.725 -0.464959 0)
(-99.4047 -0.310415 -1.17558e-22)
(-63.7211 -0.170058 0)
(-64.8432 -0.16499 0)
(-100.018 -0.307665 -1.12133e-19)
(-120.305 -0.463237 0)
(-120.886 -0.468542 0)
(-100.648 -0.303352 0)
(-65.9515 -0.163421 0)
(-67.0495 -0.162371 0)
(-101.295 -0.301667 0)
(-121.464 -0.474462 0)
(-122.052 -0.482146 0)
(-101.964 -0.302417 0)
(-68.1434 -0.162324 0)
(-69.2398 -0.163087 0)
(-102.654 -0.304649 0)
(-122.645 -0.490833 0)
(-123.253 -0.497521 0)
(-103.368 -0.313793 0)
(-70.3453 -0.162798 0)
(-71.4649 -0.162431 0)
(-104.102 -0.32199 0)
(-123.867 -0.50609 0)
(-124.5 -0.516587 0)
(-104.863 -0.330688 0)
(-72.6021 -0.162768 0)
(-73.7591 -0.16232 0)
(-105.645 -0.337668 0)
(-125.142 -0.526836 0)
(-125.808 -0.537496 0)
(-106.458 -0.344301 0)
(-74.9268 -0.160448 0)
(-76.0996 -0.156844 0)
(-107.298 -0.350035 0)
(-126.491 -0.548387 0)
(-127.21 -0.561473 0)
(-108.177 -0.35725 0)
(-77.2777 -0.153099 0)
(-78.4641 -0.150038 0)
(-109.089 -0.36467 0)
(-127.957 -0.576319 0)
(-128.748 -0.594408 0)
(-110.044 -0.373669 0)
(-79.6654 -0.148448 0)
(-80.8893 -0.145806 0)
(-111.037 -0.387321 1.10858e-19)
(-129.576 -0.612787 0)
(-130.443 -0.6334 0)
(-112.07 -0.395812 -1.11149e-19)
(-82.1416 -0.146365 0)
(-83.4205 -0.147227 0)
(-113.154 -0.406501 1.10465e-19)
(-131.363 -0.656535 0)
(-132.333 -0.681082 0)
(-114.288 -0.422993 -1.1076e-19)
(-84.7315 -0.14513 0)
(-86.0739 -0.146031 0)
(-115.477 -0.434012 0)
(-133.359 -0.709027 0)
(-134.46 -0.741409 0)
(-116.735 -0.448669 0)
(-87.4532 -0.14812 0)
(-88.878 -0.151814 0)
(-118.055 -0.464768 0)
(-135.626 -0.776673 0)
(-136.878 -0.823919 0)
(-119.451 -0.477198 0)
(-90.3584 -0.160431 0)
(-91.9054 -0.171115 0)
(-120.929 -0.494182 0)
(-138.21 -0.873138 0)
(-139.647 -0.927906 0)
(-122.497 -0.514818 0)
(-93.5295 -0.182033 0)
(-95.2405 -0.194006 0)
(-124.167 -0.53946 0)
(-141.18 -0.986393 0)
(-142.836 -1.04615 0)
(-125.95 -0.570324 0)
(-97.0486 -0.205559 0)
(-98.9678 -0.218532 0)
(-127.861 -0.606561 0)
(-144.625 -1.11611 0)
(-146.561 -1.19883 0)
(-129.915 -0.647697 0)
(-101.014 -0.232147 0)
(-103.214 -0.250164 0)
(-132.137 -0.697592 0)
(-148.668 -1.29527 0)
(-150.972 -1.40959 0)
(-134.551 -0.756334 0)
(-105.594 -0.270953 0)
(-108.204 -0.300135 0)
(-137.198 -0.830229 0)
(-153.507 -1.547 0)
(-156.318 -1.72111 0)
(-140.099 -0.921924 0)
(-111.091 -0.33522 0)
(-114.356 -0.382211 0)
(-143.39 -1.06918 0)
(-159.452 -1.9505 0)
(-163.006 -2.29425 9.00971e-20)
(-147.165 -1.27861 0)
(-118.211 -0.489673 0)
(-122.547 -0.857567 -5.27622e-19)
(-151.343 -1.88568 5.43262e-19)
(-166.922 -2.96812 0)
(-170.995 -4.04316 -4.48482e-22)
(-155.716 -2.94284 -9.7922e-19)
(-127.035 -1.55999 -6.57942e-20)
(-130.961 -2.86377 -2.04207e-18)
(-159.812 -4.69911 3.46744e-18)
(-174.936 -5.59303 -1.5235e-18)
(-178.429 -7.24374 -2.78614e-18)
(-163.316 -6.43526 1.63042e-18)
(-134.086 -4.16057 0)
(-136.443 -5.63428 4.21246e-18)
(-166.313 -8.28266 -3.34172e-18)
(-181.536 -8.99067 0)
(-184.251 -10.618 0)
(-168.824 -9.83197 0)
(-138.102 -6.8817 0)
(-139.748 -7.92758 -3.66192e-18)
(-171.286 -11.1055 3.40834e-18)
(-186.942 -12.1437 2.79738e-18)
(-189.89 -13.7177 2.68619e-18)
(-173.957 -12.3869 -3.35663e-18)
(-141.853 -9.01095 5.23516e-19)
(-146.776 -11.7302 -8.84402e-18)
(-179.243 -15.3775 5.92815e-18)
(-195.14 -16.6983 0)
(-186.438 -16.9559 3.12498e-17)
(-172.009 -15.2737 0)
(-147.414 -12.3577 6.92512e-19)
(-152.679 -13.237 -8.91534e-19)
(-178.602 -16.2301 1.5783e-18)
(-191.57 -18.3514 -1.43287e-18)
(-194.523 -19.1745 4.80218e-19)
(-182 -17.139 0)
(-154.831 -13.959 0)
(-156.563 -14.7848 -3.21593e-19)
(-184.84 -18.3914 -1.31132e-19)
(-197.126 -19.9742 -6.42479e-19)
(-200.924 -21.5117 6.86857e-18)
(-188.89 -20.4095 -7.93435e-18)
(-159.96 -16.1264 1.02533e-17)
(-163.558 -17.7586 -9.36594e-18)
(-193.315 -22.7297 -7.60142e-18)
(-205.273 -23.7611 6.15608e-18)
(-209.071 -25.7151 7.55951e-21)
(-197.086 -24.4726 7.40326e-18)
(-166.474 -19.0954 -2.12812e-19)
(-169.581 -20.4968 2.72385e-19)
(-200.803 -26.1868 -7.50591e-18)
(-212.749 -27.7525 -7.26479e-19)
(-216.604 -30.2659 -4.70875e-18)
(-204.679 -28.4826 -6.29544e-18)
(-173.178 -22.4876 8.46413e-18)
(-179.122 -26.5491 -1.56019e-17)
(-211.143 -32.8777 -1.34902e-20)
(-222.775 -34.686 8.85731e-18)
(-216.559 -35.1677 2.37973e-20)
(-204.674 -33.07 3.63462e-17)
(-180.292 -28.0604 0)
(-186.378 -29.8614 -1.46563e-17)
(-211.099 -35.2302 1.09326e-17)
(-221.177 -37.8984 0)
(-225.4 -39.9535 -7.42094e-18)
(-216.057 -37.4988 9.69357e-18)
(-190.83 -31.659 3.52715e-19)
(-196.074 -34.3793 0)
(-221.725 -40.9372 0)
(-230.589 -42.5583 0)
(-236.427 -46.5955 -5.31323e-18)
(-228.018 -45.0709 1.49915e-17)
(-201.919 -37.4996 -2.69762e-20)
(-207.757 -41.0916 1.12057e-18)
(-233.927 -49.4603 -1.561e-17)
(-241.995 -51.3315 -6.94958e-19)
(-250.237 -59.031 0)
(-242.763 -57.644 1.51703e-18)
(-216.196 -48.6708 -1.70092e-17)
(-219.071 -52.362 -4.47728e-17)
(-238.937 -59.826 1.80054e-17)
(-247.609 -61.5218 3.01118e-17)
(-252.599 -68.177 0)
(-245.947 -65.9148 0)
(-226.388 -57.9383 2.92956e-17)
(-233.533 -63.9605 -2.23957e-17)
(-252.409 -73.0464 1.74169e-17)
(-257.752 -75.1046 6.88088e-18)
(-265.113 -86.2024 1.26445e-17)
(-261.893 -85.4164 -9.01962e-20)
(-243.768 -75.2093 -1.86022e-17)
(-247.269 -83.5226 2.37073e-17)
(-259.215 -93.1827 -1.94671e-17)
(-264.216 -93.2615 2.92245e-17)
(-267.093 -107.385 8.10082e-18)
(-263.761 -109.04 1.2331e-17)
(-252.733 -98.2261 -2.8225e-17)
(-256.704 -116.561 -4.39012e-17)
(-263.753 -128.766 -4.36369e-18)
(-264.76 -124.905 4.68017e-17)
(-250.976 -137.836 0)
(-248.444 -142.724 4.48675e-17)
(-247.94 -130.89 -4.99637e-17)
(-211.748 -159.837 -6.06496e-17)
(-213.27 -167.581 4.46059e-17)
(-232.344 -144.216 -4.90686e-18)
(-150.729 -149.251 4.29246e-18)
(-129.531 -163.898 3.9686e-17)
(-142.401 -149.798 0)
(-28.659 43.5437 4.32451e-20)
(-28.7042 8.90776 -4.00328e-18)
(-51.7479 -15.9274 -1.43455e-18)
(-23.4913 50.0825 -2.16766e-18)
(-25.448 52.8784 0)
(-25.1099 57.5083 3.09285e-17)
(-24.6395 24.588 -4.46567e-17)
(-24.6158 30.1405 3.2444e-17)
(-24.2477 29.5298 -5.05072e-17)
(-33.3387 26.0479 5.56775e-17)
(-32.7975 27.1117 -6.58347e-17)
(-29.5418 24.3702 8.99264e-17)
(-27.7889 19.3302 0)
(-34.573 23.9244 1.92323e-18)
(-36.7219 24.0446 -1.71214e-18)
(-38.1617 23.1521 4.18197e-18)
(-35.8982 22.3188 2.44261e-17)
(-29.3272 17.9392 -6.25033e-17)
(-31.5141 18.0528 0)
(-40.1774 22.4245 1.17816e-18)
(-42.4857 22.4264 -3.51615e-18)
(-44.0054 22.327 0)
(-41.0754 21.6789 2.99716e-17)
(-32.0383 17.268 -3.63034e-17)
(-34.4668 17.9823 1.90694e-21)
(-42.0929 21.895 3.22918e-17)
(-44.8885 22.8941 -4.3822e-17)
(-49.0701 22.8187 2.83607e-17)
(-46.4094 22.7287 -4.63978e-18)
(-36.8724 18.7164 0)
(-37.6443 18.6099 -1.10049e-18)
(-47.0864 22.6919 1.93847e-18)
(-50.1193 23.3848 -8.59126e-18)
(-50.8443 24.1948 -4.28475e-17)
(-47.9554 23.1423 -1.57386e-18)
(-40.0146 19.4764 -2.87975e-17)
(-42.3231 20.4353 -7.55761e-19)
(-52.0218 24.2285 0)
(-54.7136 24.3663 -2.5932e-17)