/*--------------------------------*- C++ -*----------------------------------*\
| =========                 |                                                 |
| \\      /  F ield         | OpenFOAM: The Open Source CFD Toolbox           |
|  \\    /   O peration     | Version:  v2006                                 |
|   \\  /    A nd           | Website:  www.openfoam.com                      |
|    \\/     M anipulation  |                                                 |
\*---------------------------------------------------------------------------*/
FoamFile
{
    version     2.0;
    format      ascii;
    class       volScalarField;
    location    "0.034";
    object      k;
}
// * * * * * * * * * * * * * * * * * * * * * * * * * * * * * * * * * * * * * //

dimensions      [0 2 -2 0 0 0 0];


internalField   nonuniform List<scalar> 
31566
(
228.398
228.398
228.401
228.401
228.401
228.401
228.402
228.402
228.403
228.403
228.405
228.406
228.407
228.409
228.412
228.416
228.418
228.409
228.362
228.228
227.988
227.656
227.258
226.821
226.363
225.899
225.433
224.968
224.5
224.03
223.554
223.071
222.58
222.081
221.573
221.057
220.534
220.004
219.466
218.923
218.374
217.82
217.26
216.696
216.128
215.556
214.981
214.402
213.821
213.238
212.653
212.066
211.479
210.891
210.304
209.717
209.13
208.546
207.963
207.382
206.804
206.229
205.657
205.09
204.527
203.969
203.416
202.869
202.327
201.792
201.263
200.741
200.227
199.721
199.224
198.736
198.257
197.789
197.33
196.88
196.436
195.996
195.554
195.107
194.651
194.189
193.734
193.317
192.983
192.777
192.714
192.757
192.84
192.92
192.985
193.077
193.142
193.216
193.286
193.33
193.321
193.25
193.104
192.745
192.125
191.305
190.231
188.192
184.977
168.524
150.534
176.009
185.767
180.477
163.627
135.783
124.293
153.276
174.677
167.956
142.406
114.452
107.294
135.073
162.198
155.677
126.875
100.953
96.427
121.81
151.049
145.449
115.448
92.0806
88.8158
111.72
141.878
136.95
107.361
85.6883
83.4293
105.001
134.292
130.168
101.744
81.1202
79.4813
100.163
128.161
124.624
97.5966
77.7
76.4514
96.4804
123.083
119.996
94.3925
75.0286
74.0297
93.5349
118.766
116.052
91.8073
72.8574
72.0254
91.0892
115.002
112.608
89.6241
71.0285
70.3142
89.0031
111.69
109.541
87.7245
69.4441
68.8155
87.1737
108.727
106.774
86.0326
68.0396
67.4753
85.5348
106.041
104.248
84.4993
66.7717
66.2575
84.0429
103.582
101.919
83.0907
65.6112
65.1379
82.6685
101.309
99.7594
81.7846
64.5378
64.0958
81.3906
99.1969
97.7428
80.5633
63.5335
63.1182
80.1929
97.2206
95.8497
79.4138
62.5878
62.1952
79.064
95.363
94.0664
78.3273
61.6924
61.3192
77.9958
93.6115
92.382
77.2967
60.8405
60.4842
76.9816
91.9556
90.7867
76.3162
60.0266
59.6851
76.0159
90.3861
89.2731
75.3811
59.2463
58.9179
75.0943
88.896
87.8344
74.4873
58.496
58.1793
74.2128
87.479
86.4647
73.6313
57.7724
57.4661
73.3682
86.1297
85.1603
72.8102
57.0729
56.7759
72.5578
84.8445
83.9178
72.0221
56.3951
56.1067
71.7796
83.6198
82.7327
71.2648
55.7373
55.4567
71.0316
82.4508
81.5995
70.5357
55.0977
54.8242
70.3109
81.3323
80.5139
69.8322
54.4746
54.2075
69.6149
80.2603
79.4729
69.1518
53.8664
53.6051
68.9413
79.2317
78.4728
68.4923
53.2716
53.0155
68.2879
78.2429
77.51
67.8517
52.6889
52.4374
67.6527
77.2907
76.5825
67.228
52.1168
51.8693
67.0341
76.373
75.688
66.6198
51.5541
51.3103
66.4304
75.4875
74.8241
66.0258
50.9998
50.7591
65.8405
74.6317
73.9875
65.4445
50.4529
50.215
65.2628
73.8026
73.1768
64.8744
49.9124
49.6768
64.6958
72.9986
72.3891
64.3139
49.3774
49.1437
64.138
72.217
71.6231
63.7618
48.8468
48.6146
63.5881
71.4567
70.8774
63.2171
48.3197
48.0887
63.0453
70.7159
70.1494
62.6785
47.7954
47.5651
62.5083
69.9922
69.4373
62.1449
47.2729
47.0431
61.9757
69.2839
68.7397
61.615
46.7515
46.5218
61.4466
68.5897
68.0552
61.0878
46.2304
46.0004
60.9198
67.9082
67.3827
60.5624
45.7086
45.4781
60.3946
67.2384
66.7211
60.0382
45.1856
44.9541
59.8703
66.5792
66.0694
59.5144
44.6606
44.428
59.3463
65.9296
65.4265
58.9903
44.1331
43.899
58.8218
65.2886
64.7922
58.4655
43.6023
43.3665
58.2964
64.656
64.1654
57.9396
43.0679
42.8302
57.7697
64.0305
63.5446
57.4115
42.5292
42.2893
57.2409
63.4109
62.9299
56.8816
41.9858
41.7436
56.7101
62.7971
62.32
56.3493
41.4372
41.1924
56.1767
62.1877
61.7137
55.8137
40.8829
40.6354
55.6396
61.5815
61.1099
55.2738
40.3224
40.0719
55.0979
60.9775
60.5076
54.7286
39.755
39.5012
54.5506
60.3749
59.9063
54.1772
39.1801
38.9229
53.997
59.773
59.3052
53.6192
38.5972
38.3362
53.4365
59.1711
58.7038
53.054
38.0058
37.7408
52.8686
58.5687
58.1014
52.4811
37.4053
37.1363
52.2929
57.9653
57.4975
51.9
36.7955
36.5221
51.7089
57.3601
56.8915
51.3103
36.1758
35.8979
51.1161
56.7527
56.2828
50.7114
35.546
35.2633
50.5139
56.1425
55.6714
50.103
34.9054
34.6178
49.902
55.5295
55.0569
49.4849
34.2539
33.9612
49.2804
54.9134
54.439
48.8568
33.5912
33.2934
48.6488
54.2935
53.8166
48.2184
32.9171
32.6142
48.0065
53.6689
53.1891
47.5689
32.2316
31.9235
47.353
53.0389
52.5556
46.9079
31.5344
31.2211
46.6877
52.4028
51.9156
46.2347
30.8254
30.5068
46.0101
51.76
51.2684
45.5488
30.1045
29.7807
45.3196
51.1097
50.6136
44.8498
29.3716
29.0426
44.616
50.4516
49.9501
44.1373
28.6269
28.2927
43.8986
49.7845
49.2769
43.4107
27.8703
27.5311
43.1669
49.1077
48.5944
42.6695
27.1021
26.7578
42.4209
48.4217
47.9027
41.9142
26.3224
25.9735
41.6608
47.7266
47.2018
41.1453
25.5321
25.1789
40.8872
47.0223
46.4916
40.363
24.732
24.3751
40.1004
46.3084
45.7717
39.5677
23.9231
23.563
39.3007
45.5849
45.0421
38.7597
23.1066
22.7439
38.4883
44.8515
44.3019
37.9391
22.2839
21.919
37.6635
44.1073
43.5512
37.1062
21.4562
21.0896
36.8265
43.3528
42.7903
36.2615
20.6251
20.2569
35.978
42.5884
42.0201
35.4062
19.7928
19.4218
35.119
41.8148
41.2407
34.539
18.9619
18.6414
34.2529
41.0324
40.4543
33.6795
18.2812
18.0057
33.4014
40.2445
39.6659
32.8431
17.6662
17.3977
32.5724
39.4562
38.8797
32.0278
17.0611
16.7919
31.7637
38.6712
38.0993
31.2314
16.4552
16.185
30.9734
37.8927
37.3263
30.4523
15.8486
15.5785
30.2001
37.1223
36.5622
29.6897
15.244
14.9758
29.4432
36.3613
35.8091
28.9434
14.6449
14.3804
28.7025
35.6121
35.0688
28.2132
14.0548
13.7957
27.9782
34.876
34.3421
27.4998
13.4775
13.2259
27.2711
34.1541
33.6305
26.8043
12.9169
12.6747
26.5823
33.4475
32.9347
26.1278
12.3769
12.146
25.9127
32.7569
32.2551
25.4709
11.8611
11.6432
25.2632
32.0826
31.5919
24.8346
11.3728
11.1691
24.6344
31.4249
30.9455
24.2194
10.9146
10.7264
24.027
30.7838
30.3162
23.6262
10.4889
10.3171
23.4416
30.1597
29.7027
23.0545
10.0969
9.94176
22.8777
29.5511
29.1041
22.5042
9.73929
9.60077
22.3352
28.9587
28.5215
21.976
9.41591
9.29347
21.8138
28.3817
27.9545
21.4677
9.12552
9.0185
21.3129
27.8195
27.403
20.9803
8.86679
8.77431
20.8326
27.2721
26.8656
20.5131
8.63784
8.55869
20.3721
26.7385
26.3413
20.0645
8.43607
8.36871
19.9298
26.2182
25.8311
19.6342
8.25868
8.20168
19.5056
25.7121
25.3355
19.2221
8.10302
8.05499
19.0993
25.2194
24.8551
18.8274
7.96644
7.92602
18.7107
24.7412
24.3872
18.4506
7.84665
7.81173
18.3386
24.2761
23.9302
18.087
7.74031
7.70949
17.9814
23.8237
23.488
17.7412
7.64517
7.61761
17.6409
23.3846
23.0569
17.4101
7.55887
7.53342
17.3132
22.9558
22.6355
17.0894
7.47826
7.45367
16.9946
22.5364
22.2228
16.7759
7.40008
7.37507
16.682
22.1255
21.814
16.4586
7.31883
7.29608
16.3874
21.7299
21.3992
16.1182
7.23402
7.2075
16.0605
21.3046
21.0006
15.819
7.14774
7.10774
15.7217
20.8998
20.6105
15.4938
7.0559
6.97596
15.3101
20.4005
20.2794
15.1978
6.91967
6.98367
15.3721
20.393
20.5171
15.4736
7.04645
28.6929
35.3982
41.7675
48.553
55.2811
63.3493
70.127
76.8572
82.9783
89.0091
94.705
100.3
105.667
110.925
116.008
120.98
125.807
130.522
135.109
139.581
143.932
148.161
152.266
156.239
160.079
163.77
167.312
170.68
173.87
176.85
179.606
182.113
184.328
186.217
187.708
188.758
189.289
189.256
188.652
187.352
185.46
183.122
180.228
176.819
172.856
168.266
162.877
156.453
148.75
139.311
127.963
113.992
97.0515
76.0788
51.6694
36.7957
20.8677
20.7348
36.6875
51.5612
51.321
36.3179
20.5831
20.6942
36.8791
52.0516
52.9457
37.6124
20.8568
20.9495
38.0211
53.54
54.2218
38.4014
21.04
21.1239
38.6806
54.7303
55.3381
38.975
21.2226
21.3381
39.3216
55.9295
56.5371
39.6222
21.4425
21.5678
39.9782
57.1816
57.8341
40.332
21.692
21.8246
40.7106
58.5142
59.2117
41.0848
21.9562
22.1001
41.4971
59.9348
60.6849
41.9037
22.2433
22.3969
42.347
61.4522
62.2551
42.787
22.5501
22.7175
43.2675
63.0777
63.9268
43.7387
22.877
23.0564
44.2563
64.8087
65.7132
44.765
23.2258
23.4162
45.3207
66.656
67.6228
45.8704
23.5963
23.798
46.4666
68.6314
69.6678
47.0604
23.9896
24.2032
47.6982
70.7384
71.859
48.3566
24.4144
24.6288
49.0261
73.0068
74.2085
49.7377
24.8604
25.0932
50.4698
75.4441
76.7277
51.2262
25.3306
25.5837
52.0109
78.0636
79.4492
52.8279
25.8382
26.1066
53.6774
80.8833
82.3938
54.5491
26.3831
26.6747
55.4689
83.9474
85.5893
56.4055
26.975
27.2964
57.3931
87.3133
89.1029
58.4071
27.6348
28.0068
59.4918
91.0146
93.0429
60.6326
28.4133
28.8779
61.8723
95.2223
97.5785
63.2349
29.4212
30.0667
64.7158
100.098
102.894
66.4851
30.8626
31.6433
68.3979
105.851
108.916
70.3904
32.4241
33.0024
72.5621
112.133
115.398
74.3828
33.4482
33.9015
76.4139
118.78
122.428
78.362
34.408
35.4198
80.6641
126.461
131.709
84.5713
37.5266
41.5701
92.3415
138.251
139.375
103.597
47.8917
26.1621
47.8442
87.6304
131.287
82.9105
33.2667
33.8298
83.3323
134.518
147.326
95.376
37.079
37.9997
98.261
152.936
162.612
105.912
40.5578
42.5408
112.045
171.621
182.939
120.332
45.9275
51.6765
133.68
197.638
200.739
150.059
60.4189
28.9483
74.9005
139.439
201.234
135.525
45.4958
48.7735
142.931
214.659
237.739
164.242
57.158
62.7894
179.699
258.723
285.294
201.08
72.0072
80.8946
222.655
293.09
241.065
150.327
38.7573
71.8711
221.531
310.186
361.093
265.643
92.5307
79.6683
262.805
366.39
379.853
281.348
89.6647
159.683
378.489
471.145
435.025
305.914
109.109
267.274
529.276
613.799
654.922
559.227
289.931
293.662
550.777
646.383
634.648
516.745
295.493
336.369
565.845
655.421
569.246
438.139
285.515
186.687
217.096
342.846
407.737
307.507
181.017
149.963
256.067
362.521
199.79
123.077
94.5413
112.651
210.365
286.67
257.932
178.907
95.5462
68.2123
91.0032
139.747
223.667
164.531
88.5813
76.5825
141.783
202.835
111.806
74.9818
57.9841
76.0304
134.376
182.704
166.457
115.828
67.026
53.8462
64.0812
92.5836
153.24
111.996
67.3117
60.2459
97.2419
139.745
77.5057
56.0157
50.3671
61.1718
94.8975
129.539
118.515
82.5629
55.4889
48.3384
50.1693
66.1556
110.959
81.4481
56.7832
52.0472
71.1531
101.568
57.3585
45.4467
47.2518
53.3542
70.5513
96.6687
88.2252
61.8073
49.4274
46.4331
41.0249
50.345
84.9581
61.6348
50.9908
47.3785
54.2048
77.0195
44.7913
37.2487
46.6855
49.3167
54.3298
70.6922
49.0674
42.5152
46.5198
49.4455
57.0083
76.8412
67.9412
50.4727
47.0556
45.9703
37.216
41.9534
66.8859
49.303
47.3445
46.4148
45.3536
59.9415
38.4033
35.5358
46.5191
46.76
44.8813
59.6499
53.7476
41.3935
46.2878
47.3231
33.2795
35.7138
50.8857
41.0414
46.586
48.2369
34.0818
36.9401
56.0857
41.7682
45.8364
45.7233
38.5545
49.0122
34.3699
32.575
48.1663
45.2672
37.6011
45.9318
34.3353
32.7086
48.9497
45.2103
38.7244
50.7438
44.7177
35.9356
45.6638
49.3863
31.9766
32.4266
43.923
35.6853
44.6424
46.5046
33.526
39.7249
30.5007
30.7513
51.4923
45.3631
32.2009
37.4316
30.3295
30.4266
51.3261
45.9768
32.126
38.3162
30.2028
30.697
50.3735
44.4563
33.4678
42.3533
37.2829
32.0333
46.572
52.7555
30.5175
29.4619
35.3424
31.2765
46.9652
52.0207
30.5167
29.2595
38.1261
31.4497
45.0822
48.1233
31.2819
34.5904
28.3337
30.9338
55.8542
48.8242
29.5865
32.1341
28.2251
32.1264
54.8672
47.1483
29.6793
33.3007
28.4795
30.8746
53.3851
46.3467
30.1366
35.2946
31.6918
29.3566
50.2362
57.8313
33.8121
28.0809
31.5305
28.7885
49.283
58.0515
31.8475
27.7356
31.8473
27.6652
49.284
56.3212
31.5145
28.0222
32.8521
29.1921
47.8815
52.0469
28.5386
29.7097
27.5833
34.987
60.8883
51.7446
27.099
29.9081
27.1854
33.3344
62.2153
51.7926
26.3772
30.1434
27.1772
32.2757
59.5169
49.759
28.4751
30.6801
28.0717
28.105
54.7058
65.3071
36.8474
27.4132
27.5213
25.6227
54.7039
65.0713
35.9677
26.917
28.1259
26.5818
53.9307
63.6991
35.2069
27.1072
29.4981
26.6654
53.2704
62.8464
33.2804
27.355
30.3451
28.7393
52.4003
58.153
28.7332
27.6327
28.2315
39.9814
69.9042
57.6331
26.8833
27.6227
27.2251
37.4176
71.0716
57.7404
24.8065
27.2766
26.9703
36.5137
68.6816
56.4257
25.3076
27.2836
27.1894
36.5503
67.6065
56.1557
26.4329
28.4919
27.3717
34.9724
66.2816
54.8468
28.7927
29.7131
27.3295
29.5198
61.3064
74.4455
43.0116
29.0778
27.1703
27.6534
61.1763
75.8649
40.8411
27.9953
27.3219
25.9707
61.6904
74.0261
38.9464
27.7985
27.5783
26.1065
60.4868
72.7781
39.0521
28.0712
28.1235
27.1562
59.9837
71.1615
38.549
28.2903
29.7333
29.8407
59.0511
66.2935
30.6457
27.6203
30.1535
47.2165
81.1907
66.368
28.862
27.9914
29.4385
43.7647
82.9386
66.7601
27.0536
28.2997
29.2822
41.7568
80.601
65.4725
27.2164
28.283
29.3608
42.0402
78.9875
64.4277
28.1586
28.511
29.3171
42.2941
77.0169
63.1442
30.7751
30.1923
28.216
32.1635
71.2719
87.9767
50.5401
31.5594
28.8043
30.1258
71.7384
89.4446
47.3406
30.9524
28.8455
28.5228
71.9209
87.3713
45.2768
30.6132
28.8914
28.7129
70.4916
85.5818
45.4779
30.7145
29.2643
29.4994
69.5206
83.4839
46.0348
30.645
31.1686
32.249
68.0743
76.9555
33.9556
29.2778
33.452
55.1569
95.578
77.997
32.1556
30.197
32.8172
50.5039
97.6906
78.2203
30.0754
30.0621
32.497
49.0533
94.9344
76.0209
30.2516
30.1268
32.6095
49.3863
92.6412
75.3212
31.393
30.5876
32.278
49.1309
90.7333
73.7015
33.8099
32.507
30.5891
35.7343
83.5645
103.671
60.7469
35.7505
31.8638
34.3685
83.717
105.767
54.4586
34.9842
31.7789
32.108
84.8152
103.165
52.4202
34.6073
31.8709
32.1445
82.9654
100.118
52.8272
34.7581
32.3301
33.3082
80.8903
97.3557
52.8301
34.405
34.1432
35.7225
78.2983
89.4291
38.4378
32.429
38.2749
65.4357
111.674
90.2385
36.8722
34.0986
37.7251
59.389
113.129
89.9453
35.1483
34.1089
37.3597
57.1815
109.167
87.2858
34.997
34.2296
36.7689
56.9401
105.198
84.8017
38.0208
35.9399
34.1699
40.7839
97.3614
121.862
70.4343
40.7585
36.172
39.061
97.3622
121.285
63.2183
40.201
36.0922
36.9327
96.2314
116.481
60.6369
39.738
36.1229
37.1491
93.6282
113.466
61.0447
39.0935
37.7694
40.1521
90.4604
103.9
43.3729
36.071
43.3675
75.2745
129.251
103.774
42.0688
38.3576
42.7938
67.5079
129.328
100.961
39.2291
38.383
41.7985
65.4792
122.856
97.6227
42.5545
39.8418
38.0679
45.9548
112.425
140.113
81.0236
46.5052
40.6373
44.3723
111.23
137.189
71.9763
45.7092
40.695
41.7064
107.572
131.324
69.8115
44.5067
41.8898
45.0095
104.083
120.327
48.9289
40.1528
49.4556
86.2132
149.375
119.843
47.35
42.8737
48.4133
76.2264
147.163
115.389
44.2517
42.9504
46.911
73.7304
141.037
111.914
47.5501
44.1245
42.3268
51.3427
129.423
159.186
91.7246
52.7008
45.5445
50.8032
126.376
155.39
80.374
50.1995
46.8329
50.4543
121.424
139.732
53.4138
44.473
56.4765
99.2375
173.188
135.412
53.7697
47.5913
53.3877
86.2556
166.782
129.819
52.7417
48.6692
46.6589
57.0396
149.63
182.615
104.847
59.4427
49.5084
55.8275
140.667
176.613
92.8414
56.7295
50.8083
55.5019
136.58
157.695
60.0288
48.8161
62.5635
109.644
192.324
148.209
58.9842
51.83
59.1735
96.4696
185.063
142.994
58.0007
52.8624
50.6032
62.108
165.905
205.278
115.018
64.0648
54.0613
63.228
157.711
180.888
65.1049
52.0651
67.2514
123.271
224.158
172.248
65.5209
55.1312
53.1762
67.8752
197.835
244.519
132.791
70.6038
56.4182
69.0574
184.813
208.844
68.3714
54.5309
74.3307
141.741
260.872
196.389
72.0195
58.115
56.3444
73.356
225.416
277.756
148.092
76.8825
59.7076
73.4894
204.469
233.056
75.5884
57.6085
80.5483
157.059
291.968
216.948
77.457
61.4798
59.3583
76.9799
245.582
304.838
159.614
81.6528
62.9134
78.5525
224.106
256.455
88.622
60.198
58.8478
88.4439
290.455
357.257
184.265
89.3185
64.7893
83.5146
254.729
293.133
83.6295
61.5861
58.3696
86.1336
320.649
370.734
113.314
58.7924
55.8999
102.105
399.228
449.44
143.245
62.4954
58.2599
119.687
461.738
505.601
262.257
114.105
67.6144
99.7387
326.291
347.441
101.785
65.0425
63.1116
109.341
365.54
364.578
115.246
61.5138
59.9057
118.472
358.039
344.249
121.904
58.425
57.4598
124.636
325.391
304.961
127.994
56.7182
56.5672
131.108
284.3
264.28
134.558
56.7537
57.2636
138.537
245.51
228.215
142.359
58.1725
59.5881
146.9
212.625
198.593
150.504
61.2406
63.307
154.243
186.131
174.96
156.656
65.8982
69.1251
158.806
165.051
156.136
159.988
72.5899
76.2399
161.466
148.222
141.106
162.502
79.7877
83.5405
163.768
134.807
129.141
164.679
87.1557
90.8903
165.845
124.147
119.66
166.602
94.5669
98.3003
167.605
115.713
112.188
168.303
101.923
105.501
169.135
109.085
106.337
169.778
108.884
112.169
170.495
103.923
101.811
171.042
115.323
118.36
171.5
99.9416
98.3295
172
121.24
124.005
172.29
96.9099
95.6803
172.543
126.627
129.108
172.707
94.6034
93.6832
172.789
131.407
133.616
172.758
92.8648
92.1751
172.643
135.623
137.52
172.417
91.5456
91.0266
172.185
139.252
140.839
171.754
90.5411
90.1335
171.365
142.291
143.598
170.779
89.7514
89.4181
170.266
144.736
145.803
169.559
89.1173
88.8116
168.844
146.675
147.478
168.135
88.5706
88.2844
167.238
148.127
148.693
166.484
88.0699
87.7997
165.459
149.134
149.469
164.662
87.5849
87.3408
163.627
149.712
149.858
162.729
87.1116
86.8898
161.729
149.937
149.923
160.713
86.6442
86.4299
159.761
149.869
149.736
158.719
86.1809
85.9685
157.79
149.6
149.348
156.738
85.7232
85.5214
155.825
149.116
148.808
154.771
85.2806
85.0841
153.901
148.486
148.144
152.877
84.8576
84.6523
151.978
147.768
147.376
151.065
84.4401
84.2459
150.145
146.988
146.556
149.241
84.0249
83.8515
148.425
146.152
145.689
147.532
83.6386
83.4788
146.791
145.289
144.825
145.921
83.2782
83.1335
145.248
144.41
143.962
144.429
82.9528
82.8149
143.747
143.555
143.108
143.003
82.6473
82.5294
142.385
142.715
142.28
141.661
82.376
82.2733
141.121
141.902
141.468
140.438
82.1471
82.0489
139.882
141.07
140.602
139.262
81.9429
81.8569
138.729
140.175
139.724
138.126
81.7659
81.685
137.624
139.266
138.846
137.057
81.6147
81.5247
136.514
138.398
137.983
136.059
81.4723
81.3886
135.468
137.57
137.162
135.051
81.3304
81.2691
134.531
136.776
136.393
134.095
81.2032
81.1633
133.675
136.015
135.687
133.218
81.099
81.0702
132.857
135.32
135.042
132.398
81.0141
80.9874
132.084
134.688
134.436
131.691
80.9511
80.9267
131.366
134.133
133.886
131.036
80.9036
80.8921
130.739
133.621
133.399
130.438
80.8783
80.878
130.182
133.177
132.953
129.941
80.8818
80.8866
129.659
132.801
132.608
129.444
80.8993
80.9129
129.217
132.458
132.307
129.044
80.9428
80.9639
128.83
132.169
132.053
128.705
81.0066
81.0446
128.515
131.939
131.86
128.391
81.0902
81.144
128.25
131.771
131.693
128.148
81.1975
81.2683
128.067
131.646
131.596
127.934
81.3309
81.4048
127.879
131.576
131.546
127.797
81.4825
81.5651
127.767
131.534
131.538
127.731
81.6594
81.7488
127.679
131.551
131.567
127.68
81.8506
81.9547
127.663
131.6
131.636
127.667
82.0629
82.1787
127.681
131.687
131.73
127.7
82.2955
82.4215
127.744
131.808
131.858
127.773
82.5482
82.6835
127.835
131.942
132.014
127.878
82.8188
82.9621
127.954
132.093
132.196
128.014
83.1054
83.2571
128.101
132.266
132.379
128.173
83.4071
83.5666
128.272
132.462
132.574
128.355
83.7223
83.8899
128.461
132.67
132.777
128.551
84.0492
84.2243
128.672
132.883
132.998
128.761
84.3875
84.5684
128.911
133.099
133.223
129.002
84.7404
84.9215
129.143
133.327
133.449
129.237
85.1016
85.2786
129.369
133.558
133.671
129.51
85.4683
85.6469
129.609
133.791
133.901
129.767
85.8367
86.023
129.867
134.017
134.131
129.998
86.2076
86.3985
130.139
134.249
134.353
130.269
86.5857
86.7795
130.412
134.473
134.572
130.542
86.968
87.1641
130.684
134.686
134.79
130.813
87.3521
87.5506
130.959
134.904
135.014
131.087
87.737
87.9388
131.238
135.113
135.216
131.357
88.1228
88.3273
131.516
135.319
135.423
131.623
88.5084
88.7144
131.807
135.516
135.622
131.91
88.8974
89.1016
132.075
135.716
135.813
132.178
89.2831
89.486
132.349
135.909
135.994
132.44
89.6675
89.8652
132.597
136.098
136.18
132.701
90.0457
90.2434
132.88
136.253
136.355
132.98
90.4269
90.619
133.13
136.422
136.512
133.256
90.8029
90.994
133.389
136.583
136.675
133.508
91.1734
91.3647
133.65
136.732
136.836
133.75
91.5404
91.7287
133.906
136.882
136.978
134.004
91.906
92.0882
134.158
137.023
137.113
134.254
92.2697
92.4411
134.383
137.158
137.234
134.533
92.6272
92.796
134.614
137.288
137.365
134.755
92.9757
93.1429
134.852
137.405
137.474
134.995
93.3216
93.487
135.089
137.51
137.573
135.228
93.6641
93.8267
135.318
137.605
137.66
135.451
94.0023
94.1609
135.535
137.689
137.719
135.683
94.3354
94.4937
135.75
137.757
137.784
135.859
94.6601
94.8139
135.937
137.806
137.825
136.075
94.9769
95.1337
136.133
137.839
137.863
136.224
95.2845
95.44
136.311
137.862
137.865
136.385
95.5862
95.7376
136.479
137.868
137.864
136.54
95.8796
96.0275
136.647
137.849
137.846
136.69
96.1691
96.3056
136.756
137.835
137.816
136.819
96.4436
96.5756
136.876
137.794
137.777
136.945
96.7084
96.8366
136.992
137.746
137.719
137.067
96.9649
97.0916
137.114
137.684
137.658
137.154
97.2129
97.3337
137.206
137.619
137.576
137.241
97.4516
97.5657
137.284
137.543
137.474
137.323
97.6805
97.7887
137.343
137.446
137.386
137.371
97.8969
97.9995
137.392
137.327
137.28
137.434
98.1027
98.2033
137.447
137.203
137.142
137.472
98.3007
98.3971
137.488
137.077
137.013
137.508
98.4878
98.5832
137.538
136.926
136.872
137.531
98.6687
98.757
137.553
136.783
136.724
137.542
98.8392
98.9193
137.545
136.636
136.57
137.554
98.9969
99.0743
137.555
136.487
136.406
137.561
99.1467
99.2221
137.576
136.33
136.244
137.558
99.2919
99.3595
137.557
136.178
136.088
137.558
99.4262
99.491
137.571
136.011
135.923
137.563
99.5575
99.6156
137.545
135.854
135.765
137.557
99.6779
99.7348
137.536
135.691
135.609
137.534
99.7914
99.8462
137.53
135.53
135.449
137.528
99.9006
99.9527
137.523
135.371
135.3
137.52
100.005
100.055
137.514
135.213
135.146
137.512
100.104
100.152
137.505
135.056
134.994
137.502
100.2
100.245
137.494
134.9
134.845
137.491
100.29
100.335
137.483
134.746
134.691
137.48
100.377
100.42
137.468
134.594
134.546
137.468
100.458
100.503
137.475
134.451
134.395
137.454
100.539
100.581
137.462
134.31
134.251
137.44
100.616
100.655
137.45
134.172
134.106
137.429
100.69
100.725
137.424
134.038
133.972
137.421
100.758
100.793
137.429
133.894
133.82
137.422
100.828
100.86
137.417
133.765
133.689
137.404
100.894
100.921
137.384
133.635
133.57
137.397
100.954
100.982
137.375
133.498
133.454
137.376
101.011
101.039
137.372
133.371
133.319
137.37
101.068
101.094
137.365
133.254
133.181
137.375
101.125
101.15
137.357
133.131
133.065
137.347
101.178
101.2
137.348
133.017
132.937
137.356
101.23
101.252
137.336
132.899
132.82
137.345
101.28
101.301
137.325
132.783
132.704
137.335
101.326
101.348
137.332
132.664
132.59
137.319
101.374
101.392
137.3
132.554
132.488
137.312
101.416
101.434
137.292
132.438
132.387
137.29
101.456
101.473
137.289
132.336
132.262
137.297
101.498
101.514
137.277
132.228
132.154
137.286
101.537
101.553
137.266
132.122
132.053
137.277
101.574
101.59
137.273
132.018
131.951
137.26
101.612
101.624
137.242
131.92
131.85
137.252
101.645
101.657
137.234
131.82
131.751
137.243
101.677
101.689
137.225
131.721
131.654
137.234
101.709
101.72
137.215
131.625
131.558
137.224
101.739
101.75
137.205
131.53
131.464
137.215
101.767
101.779
137.194
131.436
131.37
137.205
101.794
101.807
137.184
131.346
131.291
137.182
101.819
101.832
137.178
131.256
131.199
137.175
101.845
101.857
137.169
131.163
131.111
137.166
101.87
101.881
137.159
131.071
131.025
137.156
101.894
101.903
137.148
130.984
130.93
137.157
101.917
101.927
137.135
130.9
130.849
137.128
101.937
101.946
137.126
130.823
130.764
137.118
101.956
101.966
137.116
130.74
130.688
137.108
101.975
101.985
137.118
130.647
130.604
137.107
101.996
102.003
137.085
130.572
130.527
137.096
102.012
102.022
137.087
130.49
130.447
137.064
102.028
102.035
137.063
130.423
130.37
137.057
102.042
102.05
137.054
130.338
130.303
137.047
102.056
102.066
137.056
130.247
130.227
137.032
102.071
102.078
137.03
130.186
130.149
137.022
102.084
102.091
137.018
130.112
130.068
137.009
102.096
102.102
137.006
130.047
129.995
136.997
102.108
102.114
136.994
129.973
129.932
136.985
102.118
102.126
136.993
129.889
129.859
136.968
102.131
102.134
136.966
129.836
129.784
136.956
102.14
102.143
136.952
129.761
129.714
136.958
102.15
102.153
136.935
129.693
129.648
136.942
102.159
102.161
136.919
129.627
129.579
136.928
102.166
102.171
136.923
129.557
129.513
136.909
102.176
102.177
136.885
129.494
129.451
136.893
102.181
102.183
136.873
129.431
129.387
136.881
102.187
102.189
136.86
129.367
129.323
136.868
102.193
102.195
136.846
129.303
129.258
136.854
102.199
102.2
136.831
129.237
129.205
136.842
102.203
102.208
136.83
129.164
129.147
136.808
102.209
102.212
136.815
129.103
129.086
136.794
102.213
102.216
136.801
129.043
129.027
136.78
102.216
102.219
136.788
128.984
128.968
136.766
102.22
102.223
136.774
128.925
128.909
136.75
102.223
102.225
136.761
128.87
128.849
136.756
102.228
102.229
136.744
128.814
128.795
136.739
102.23
102.231
136.724
128.756
128.74
136.701
102.23
102.23
136.709
128.699
128.683
136.689
102.23
102.23
136.696
128.643
128.628
136.676
102.229
102.229
136.683
128.588
128.574
136.661
102.227
102.227
136.669
128.534
128.52
136.646
102.225
102.225
136.655
128.484
128.462
136.63
102.223
102.222
136.627
128.443
128.403
136.618
102.22
102.219
136.617
128.391
128.375
136.615
102.22
102.223
136.607
128.344
128.324
136.608
102.235
102.247
136.574
128.283
128.293
136.574
102.272
102.248
136.326
128.256
128.323
136.241
102.227
102.047
135.463
128.282
127.992
134.706
101.832
102.041
134.555
128.091
127.978
134.513
101.985
134.029
130.909
132.695
136.008
139.852
143.965
147.979
151.957
155.808
159.594
163.336
167.111
171.006
175.121
179.728
185.149
190.456
197.151
202.999
208.852
213.628
217.434
220.267
222.213
223.377
223.935
224.047
223.855
223.47
222.974
222.424
221.859
221.304
220.774
220.277
219.819
219.398
219.016
218.67
218.357
218.075
217.822
217.594
217.389
217.204
217.039
216.89
216.757
216.638
216.531
216.435
216.35
216.274
216.207
216.148
216.096
216.051
216.012
215.979
215.953
215.933
215.919
215.911
215.908
215.905
215.902
215.898
215.893
215.886
215.878
215.87
215.86
215.849
215.838
215.825
215.812
215.798
215.783
215.767
215.751
215.734
215.716
215.698
215.679
215.659
215.639
215.619
215.598
215.577
215.555
215.534
215.512
215.49
215.467
215.445
215.422
215.399
215.375
215.351
215.326
215.3
215.27
215.23
215.175
215.107
215.027
214.939
214.844
214.747
214.649
214.551
214.459
214.374
214.299
214.237
214.187
214.151
214.131
214.125
214.132
214.152
214.184
214.226
214.277
214.336
214.401
214.47
214.542
214.615
214.69
214.765
214.839
214.913
214.986
215.059
215.131
215.202
215.274
215.346
215.418
215.491
215.564
215.639
215.715
215.793
215.872
215.953
216.036
216.121
216.208
216.298
216.39
216.485
216.582
216.682
216.785
216.891
216.999
217.111
217.225
217.342
217.461
217.584
217.708
217.836
217.966
218.098
218.232
218.368
218.506
218.645
218.787
218.929
219.073
219.217
219.362
219.508
219.654
219.801
219.947
220.094
220.24
220.385
220.53
220.675
220.818
220.96
221.101
221.241
221.379
221.516
221.651
221.785
221.917
222.047
222.175
222.301
222.425
222.548
222.668
222.786
222.902
223.016
223.128
223.238
223.346
223.451
223.555
223.656
223.756
223.853
223.949
224.042
224.134
224.223
224.311
224.396
224.48
224.563
224.643
224.722
224.799
224.874
224.948
225.02
225.091
225.16
225.228
225.294
225.359
225.423
225.486
225.547
225.607
225.666
225.724
225.781
225.837
225.892
225.946
225.999
226.052
226.103
226.154
226.204
226.254
226.303
226.351
226.399
226.446
226.493
226.539
226.585
226.631
226.676
226.721
226.765
226.81
226.854
226.898
226.941
226.985
227.028
227.071
227.114
227.157
227.2
227.243
227.286
227.329
227.371
227.414
227.456
227.499
227.541
227.584
227.626
227.668
227.71
227.752
227.794
227.835
227.877
227.917
227.957
227.996
228.034
228.07
228.105
228.137
228.168
228.196
228.222
228.245
228.267
228.286
228.304
228.318
228.331
228.343
228.355
228.37
228.387
228.387
228.388
228.389
228.39
228.392
228.394
228.396
228.398
228.4
228.402
228.403
228.404
228.401
228.386
228.346
228.264
228.116
227.891
227.589
227.221
226.808
226.37
225.919
225.462
225.001
224.537
224.067
223.591
223.107
222.616
222.115
221.607
221.09
220.565
220.033
219.495
218.95
218.399
217.843
217.282
216.717
216.147
215.573
214.997
214.417
213.834
213.25
212.664
212.076
211.488
210.899
210.311
209.723
209.136
208.55
207.966
207.384
206.806
206.23
205.658
205.089
204.526
203.967
203.413
202.865
202.322
201.786
201.257
200.735
200.22
199.714
199.216
198.728
198.249
197.78
197.321
196.87
196.427
195.987
195.549
195.109
194.667
194.23
193.813
193.447
193.168
193.001
192.933
192.926
192.942
192.966
193
193.047
193.082
193.109
193.12
193.095
192.969
192.521
190.825
188.576
182.592
179.61
177.181
174.012
171.82
168.57
166.62
163.466
161.758
158.721
157.239
154.331
153.042
150.279
149.137
146.525
145.485
143.032
142.077
139.77
138.886
136.707
135.886
133.817
133.054
131.09
130.375
128.5
127.829
126.034
125.404
123.686
123.093
121.446
120.886
119.304
118.776
117.259
116.759
115.301
114.83
113.426
112.983
111.636
111.219
109.924
109.531
108.284
107.909
106.707
106.351
105.189
104.853
103.73
103.409
102.324
102.018
100.966
100.677
99.6581
99.3831
98.3952
98.1328
97.1744
96.9216
95.9889
95.7484
94.8416
94.6094
93.7255
93.5042
92.6426
92.4302
91.5906
91.3841
90.5634
90.3636
89.5604
89.3671
88.5807
88.3935
87.6231
87.4415
86.686
86.5096
85.7681
85.5964
84.8681
84.7006
83.9839
83.8223
83.1185
82.9591
82.2659
82.1093
81.4248
81.2726
80.5985
80.4471
79.781
79.6312
78.972
78.8236
78.171
78.0239
77.3775
77.2316
76.5908
76.4457
75.8101
75.6656
75.0347
74.8906
74.2638
74.12
73.4968
73.3529
72.7328
72.5887
71.9706
71.8276
71.2126
71.0695
70.4569
70.313
69.7018
69.5566
68.9461
68.7995
68.189
68.0406
67.4298
67.2795
66.6678
66.5154
65.9024
65.7477
65.1337
64.9748
64.3577
64.1956
63.5745
63.411
62.7877
62.6215
61.9957
61.8266
61.1974
61.025
60.3919
60.2159
59.5786
59.3988
58.7576
58.5724
57.9246
57.7364
57.0837
56.8919
56.2346
56.0388
55.3765
55.1767