/*--------------------------------*- C++ -*----------------------------------*\
| =========                 |                                                 |
| \\      /  F ield         | OpenFOAM: The Open Source CFD Toolbox           |
|  \\    /   O peration     | Version:  v2006                                 |
|   \\  /    A nd           | Website:  www.openfoam.com                      |
|    \\/     M anipulation  |                                                 |
\*---------------------------------------------------------------------------*/
FoamFile
{
    version     2.0;
    format      ascii;
    class       volScalarField;
    location    "0.034";
    object      nut;
}
// * * * * * * * * * * * * * * * * * * * * * * * * * * * * * * * * * * * * * //

dimensions      [0 2 -1 0 0 0 0];


internalField   nonuniform List<scalar> 
31566
(
9.11899
8.84958
37.8211
40.2125
39.6506
46.9228
53.3562
74.2561
104.101
167.856
266.936
349.573
320.389
303.528
391.459
276.553
65.7342
12.2711
3.53959
1.5853
0.971118
0.71703
0.589837
0.518807
0.475744
0.44701
0.425651
0.408158
0.392834
0.378932
0.366176
0.354494
0.343871
0.33428
0.325667
0.31795
0.311033
0.304815
0.299203
0.294113
0.289478
0.28524
0.281357
0.277796
0.274529
0.271538
0.268805
0.266317
0.264065
0.26204
0.260234
0.258643
0.257261
0.256086
0.255115
0.254346
0.253781
0.253421
0.253253
0.253282
0.253522
0.253964
0.254617
0.255493
0.256596
0.257932
0.259512
0.261351
0.263468
0.265888
0.268648
0.271794
0.275386
0.279493
0.284186
0.289527
0.29554
0.302183
0.309313
0.316664
0.323886
0.330668
0.336931
0.343281
0.351744
0.366899
0.398151
0.465004
0.613546
0.979324
2.06568
6.277
28.8194
182.561
1177.14
483.597
99.8862
26.389
8.85497
3.54675
1.28334
0.582982
0.374709
0.199538
0.12739
0.0874204
0.0488251
0.0128054
0.00235074
7.67958e-05
6.7219e-05
0.00107515
0.00490503
0.00312703
0.000804169
6.05164e-05
5.51015e-05
0.00070227
0.00251609
0.00214395
0.000626978
5.15798e-05
4.86381e-05
0.000599269
0.00193213
0.00174432
0.000554354
4.64168e-05
4.45692e-05
0.000532969
0.00164425
0.00152576
0.000496409
4.26771e-05
4.12229e-05
0.000483108
0.00146826
0.00138554
0.000467536
4.00042e-05
3.91575e-05
0.000460449
0.00135402
0.00129579
0.00044831
3.82692e-05
3.76761e-05
0.000443419
0.00127463
0.001229
0.000433454
3.70029e-05
3.6568e-05
0.00042991
0.00121387
0.0011758
0.000421463
3.60405e-05
3.57045e-05
0.000418625
0.00116421
0.00113132
0.000411378
3.52783e-05
3.50071e-05
0.000408853
0.00112176
0.00109297
0.000402536
3.46509e-05
3.44244e-05
0.000400228
0.00108487
0.00105917
0.000394628
3.41179e-05
3.39231e-05
0.000392475
0.00105218
0.00102894
0.000387426
3.36527e-05
3.34811e-05
0.000385409
0.00102282
0.00100157
0.0003808
3.32379e-05
3.30837e-05
0.000378903
0.000996161
0.000976571
0.000374657
3.28612e-05
3.27209e-05
0.000372887
0.00097176
0.000953573
0.000368924
3.25163e-05
3.23869e-05
0.000367258
0.00094926
0.00093227
0.00036354
3.21957e-05
3.2075e-05
0.00036197
0.000928388
0.000912456
0.00035847
3.18952e-05
3.17819e-05
0.000356994
0.000908949
0.000893958
0.000353686
3.16118e-05
3.15049e-05
0.000352295
0.000890783
0.000876635
0.000349158
3.13433e-05
3.12418e-05
0.000347846
0.000873755
0.000860363
0.000344863
3.10878e-05
3.0991e-05
0.000343623
0.000857746
0.000845045
0.000340782
3.08437e-05
3.07511e-05
0.000339609
0.000842665
0.000830591
0.000336897
3.06097e-05
3.05209e-05
0.000335787
0.000828427
0.000816926
0.000333193
3.0385e-05
3.02996e-05
0.00033214
0.000814962
0.000803999
0.000329656
3.01686e-05
3.00862e-05
0.000328659
0.000802222
0.000791761
0.000326279
2.99597e-05
2.98801e-05
0.000325335
0.000790157
0.000780137
0.000323053
2.97578e-05
2.96808e-05
0.000322159
0.000778703
0.00076909
0.000319967
2.95624e-05
2.94878e-05
0.000319119
0.00076781
0.000758568
0.000317008
2.93728e-05
2.93004e-05
0.000316202
0.000757429
0.000748537
0.000314165
2.91886e-05
2.91181e-05
0.000313399
0.000747523
0.000738949
0.00031143
2.90091e-05
2.89405e-05
0.0003107
0.000738049
0.000729765
0.000308792
2.88341e-05
2.87671e-05
0.000308096
0.000728971
0.000720962
0.000306243
2.86629e-05
2.85974e-05
0.000305578
0.000720265
0.000712514
0.000303777
2.84953e-05
2.8431e-05
0.000303142
0.000711906
0.000704398
0.000301389
2.83307e-05
2.82676e-05
0.000300782
0.00070387
0.000696581
0.000299071
2.81689e-05
2.81069e-05
0.000298489
0.000696127
0.000689047
0.000296817
2.80096e-05
2.79484e-05
0.000296259
0.000688658
0.000681764
0.000294621
2.78523e-05
2.7792e-05
0.000294084
0.000681436
0.000674721
0.000292476
2.76969e-05
2.76372e-05
0.000291958
0.000674446
0.0006679
0.000290377
2.75429e-05
2.74837e-05
0.000289879
0.000667672
0.000661277
0.000288321
2.73901e-05
2.73313e-05
0.000287839
0.000661091
0.000654833
0.000286301
2.72381e-05
2.71797e-05
0.000285835
0.000654683
0.000648554
0.000284313
2.70867e-05
2.70285e-05
0.00028386
0.000648435
0.000642426
0.00028235
2.69356e-05
2.68775e-05
0.00028191
0.000642335
0.000636437
0.000280411
2.67846e-05
2.67264e-05
0.000279982
0.000636372
0.000630578
0.000278491
2.66332e-05
2.6575e-05
0.000278072
0.000630535
0.000624839
0.000276588
2.64814e-05
2.64229e-05
0.00027618
0.000624815
0.000619208
0.000274698
2.63288e-05
2.62701e-05
0.000274299
0.000619202
0.000613684
0.000272821
2.61753e-05
2.61161e-05
0.00027243
0.000613704
0.000608261
0.000270954
2.60206e-05
2.5961e-05
0.000270572
0.000608296
0.000602916
0.000269093
2.58645e-05
2.58044e-05
0.00026872
0.000602986
0.000597668
0.000267239
2.57069e-05
2.56462e-05
0.000266873
0.000597765
0.000592499
0.000265389
2.55475e-05
2.54861e-05
0.000265031
0.000592616
0.000587393
0.000263541
2.53862e-05
2.53241e-05
0.000263188
0.000587525
0.000582337
0.000261688
2.52228e-05
2.51599e-05
0.000261339
0.000582482
0.000577324
0.000259827
2.50569e-05
2.4993e-05
0.000259482
0.00057748
0.000572346
0.000257955
2.48882e-05
2.48233e-05
0.000257613
0.000572512
0.000567399
0.00025607
2.47166e-05
2.46505e-05
0.00025573
0.000567574
0.000562478
0.000254169
2.45416e-05
2.44743e-05
0.000253831
0.000562661
0.000557577
0.00025225
2.43631e-05
2.42945e-05
0.000251915
0.000557767
0.000552691
0.000250312
2.41809e-05
2.41108e-05
0.000249977
0.000552887
0.000547816
0.000248351
2.39946e-05
2.3923e-05
0.000248018
0.000548016
0.000542945
0.000246366
2.38041e-05
2.37309e-05
0.000246031
0.000543148
0.000538076
0.000244357
2.3609e-05
2.3534e-05
0.000244017
0.000538284
0.000533211
0.000242322
2.34092e-05
2.33323e-05
0.000241976
0.000533422
0.000528344
0.000240259
2.32043e-05
2.31255e-05
0.000239907
0.000528557
0.000523468
0.000238167
2.29941e-05
2.29133e-05
0.000237808
0.000523682
0.000518576
0.000236044
2.27784e-05
2.26954e-05
0.000235677
0.00051879
0.000513663
0.000233885
2.25569e-05
2.24717e-05
0.000233509
0.000513876
0.000508724
0.000231688
2.23292e-05
2.22417e-05
0.000231303
0.000508935
0.000503753
0.000229451
2.20951e-05
2.20052e-05
0.000229056
0.000503962
0.000498748
0.000227172
2.18543e-05
2.17618e-05
0.000226766
0.000498954
0.000493699
0.000224847
2.16063e-05
2.15113e-05
0.00022443
0.000493901
0.000488599
0.000222473
2.1351e-05
2.12532e-05
0.000222044
0.000488798
0.000483451
0.000220049
2.10879e-05
2.09872e-05
0.000219608
0.000483651
0.000478261
0.000217574
2.08167e-05
2.07131e-05
0.000217123
0.000478464
0.000473031
0.000215053
2.05372e-05
2.04306e-05
0.000214593
0.000473241
0.000467762
0.000212485
2.02493e-05
2.01396e-05
0.000212017
0.00046798
0.000462454
0.000209873
1.99528e-05
1.98401e-05
0.000209396
0.000462685
0.000457112
0.000207216
1.96476e-05
1.9532e-05
0.000206732
0.000457356
0.000451727
0.000204513
1.93338e-05
1.92152e-05
0.000204022
0.00045198
0.000446305
0.000201766
1.90113e-05
1.88895e-05
0.000201266
0.000446562
0.000440851
0.000198971
1.86803e-05
1.85547e-05
0.000198467
0.000441124
0.000435377
0.000196134
1.83414e-05
1.82103e-05
0.00019562
0.000435666
0.000429865
0.000193223
1.79962e-05
1.79123e-05
0.00019267
0.000430133
0.000424246
0.000190172
1.77932e-05
1.77555e-05
0.000189541
0.000424413
0.000418454
0.000187018
1.76583e-05
1.76306e-05
0.000186354
0.000418509
0.000412512
0.00018384
1.75372e-05
1.75111e-05
0.000183173
0.000412486
0.000406498
0.000180693
1.74171e-05
1.73907e-05
0.000180043
0.000406431
0.000400483
0.000177607
1.72952e-05
1.72681e-05
0.000176993
0.000400424
0.000394543
0.000174611
1.7171e-05
1.71434e-05
0.000174044
0.000394534
0.000388757
0.000171726
1.70446e-05
1.70168e-05
0.000171211
0.000388836
0.000383188
0.000168963
1.69165e-05
1.68886e-05
0.000168513
0.000383394
0.000377896
0.000166343
1.67868e-05
1.67592e-05
0.000165966
0.000378271
0.000372946
0.000163882
1.66563e-05
1.66293e-05
0.000163585
0.00037352
0.000368381
0.000161592
1.65256e-05
1.64996e-05
0.00016138
0.00036918
0.000364237
0.000159482
1.63954e-05
1.63706e-05
0.000159356
0.000365281
0.00036054
0.000157554
1.62664e-05
1.62429e-05
0.000157517
0.000361846
0.00035731
0.00015581
1.61389e-05
1.6117e-05
0.000155859
0.000358888
0.000354558
0.000154248
1.60134e-05
1.59931e-05
0.000154377
0.000356408
0.000352266
0.000152851
1.58901e-05
1.58713e-05
0.000153056
0.000354381
0.000350401
0.000151598
1.57687e-05
1.57511e-05
0.000151869
0.000352797
0.000348884
0.000150474
1.56492e-05
1.56323e-05
0.000150792
0.000351571
0.000347785
0.000149448
1.55305e-05
1.55137e-05
0.0001498
0.000350657
0.000346985
0.000148498
1.54122e-05
1.53954e-05
0.000148873
0.000350004
0.000346412
0.000147598
1.52941e-05
1.52768e-05
0.000147979
0.000349531
0.000345986
0.000146712
1.51756e-05
1.51571e-05
0.000147082
0.000349159
0.000345647
0.000145819
1.50561e-05
1.50362e-05
0.000146164
0.000348826
0.000345338
0.000144901
1.49358e-05
1.49144e-05
0.00014521
0.000348447
0.000345046
0.000143945
1.48148e-05
1.47919e-05
0.00014421
0.000347998
0.000344583
0.000142938
1.46943e-05
1.46686e-05
0.000143148
0.000347412
0.000343936
0.000141838
1.45738e-05
1.4545e-05
0.000142008
0.000346693
0.000343158
0.000140683
1.44537e-05
1.44228e-05
0.000140802
0.000345762
0.000342132
0.000139454
1.43348e-05
1.43022e-05
0.000139508
0.000344538
0.000340799
0.000138122
1.42164e-05
1.41823e-05
0.000138101
0.000342975
0.000339123
0.000136669
1.40977e-05
1.40627e-05
0.000136555
0.000341032
0.000337001
0.000135008
1.39742e-05
1.39444e-05
0.000135119
0.000339036
0.000333339
0.000132669
1.38376e-05
1.3815e-05
0.000132947
0.000335343
0.000330291
0.000130915
1.37445e-05
1.36869e-05
0.000130307
0.000331025
0.000325669
0.000128159
1.36881e-05
1.35165e-05
0.000126519
0.000323381
0.000324006
0.000126487
1.35931e-05
1.3805e-05
0.000132157
0.000336204
0.000349154
0.000136101
1.92944e-05
0.000954001
0.00179705
0.00279889
0.00400385
0.00507395
0.0066107
0.00802252
0.00959082
0.011103
0.0127293
0.0143417
0.0160407
0.0177391
0.0195003
0.0212621
0.0230648
0.0248608
0.0266742
0.0284652
0.0302445
0.0319761
0.033659
0.0352578
0.0367616
0.0381343
0.0393566
0.0403929
0.0412149
0.0417932
0.0420943
0.0420878
0.0417496
0.0410576
0.0399989
0.0385805
0.0368109
0.0347532
0.0324331
0.0299818
0.0274122
0.0249362
0.0225845
0.0203359
0.0182039
0.0161846
0.0142568
0.0123832
0.010541
0.0087356
0.00695455
0.00526883
0.00367619
0.00226445
0.00108643
0.000321291
0.00010316
1.53186e-05
1.1566e-05
0.000101564
0.00031228
0.000299571
9.67335e-05
1.14981e-05
1.15051e-05
9.86449e-05
0.000306332
0.000318066
0.000103146
1.17893e-05
1.18469e-05
0.000105494
0.000322657
0.000328242
0.000107077
1.19482e-05
1.19855e-05
0.000108143
0.0003311
0.000334195
0.0001089
1.20207e-05
1.21005e-05
0.000110017
0.000337726
0.000340736
0.000110844
1.21541e-05
1.22187e-05
0.000111893
0.000344335
0.000347753
0.000112892
1.22807e-05
1.23467e-05
0.000113981
0.00035145
0.000355165
0.000115091
1.24128e-05
1.24846e-05
0.000116265
0.000359001
0.000363042
0.000117437
1.25557e-05
1.26322e-05
0.000118706
0.000367043
0.000371316
0.000119962
1.27091e-05
1.27919e-05
0.000121308
0.000375616
0.000380062
0.000122667
1.28727e-05
1.29623e-05
0.000124093
0.000384629
0.000389313
0.000125548
1.30488e-05
1.31448e-05
0.000127065
0.000394134
0.000399073
0.000128617
1.32378e-05
1.33407e-05
0.000130227
0.000404161
0.000409379
0.000131882
1.34408e-05
1.35518e-05
0.00013358
0.000414635
0.000420256
0.000135373
1.36621e-05
1.37765e-05
0.000137195
0.000425813
0.000431622
0.000139032
1.38992e-05
1.40233e-05
0.000140976
0.000437571
0.000443619
0.000143002
1.41522e-05
1.42881e-05
0.00014495
0.00044981
0.000456208
0.000147074
1.4427e-05
1.45731e-05
0.000149184
0.000462626
0.000469357
0.000151334
1.4724e-05
1.48827e-05
0.00015357
0.000476055
0.000483008
0.000155772
1.50458e-05
1.52189e-05
0.000158041
0.000490159
0.000497225
0.000160278
1.53991e-05
1.5594e-05
0.000162583
0.000504659
0.000512342
0.000164886
1.58027e-05
1.6036e-05
0.000167273
0.000520585
0.000529801
0.00016982
1.63002e-05
1.65977e-05
0.000172575
0.000539602
0.000553034
0.00017652
1.69541e-05
1.7194e-05
0.000181371
0.000567836
0.000583549
0.000187028
1.75919e-05
1.78931e-05
0.000194447
0.000600926
0.00061757
0.00019993
1.84211e-05
1.90431e-05
0.000206781
0.000633516
0.00064835
0.0002118
1.9872e-05
2.10341e-05
0.00021592
0.000657339
0.000670723
0.000222523
2.32162e-05
2.75006e-05
0.000239609
0.000688774
0.000650507
0.000263674
2.3241e-05
8.6036e-06
4.89492e-05
0.00020244
0.000542673
0.000168001
1.49238e-05
1.74788e-05
0.00016492
0.000548941
0.000655351
0.000208058
2.04529e-05
2.21724e-05
0.000222392
0.00069026
0.000752005
0.00024683
2.4879e-05
2.73395e-05
0.000268668
0.000807013
0.000864746
0.00029095
3.11378e-05
3.68197e-05
0.000324462
0.00093525
0.000893919
0.000350271
2.88346e-05
9.56239e-06
8.19858e-05
0.000321043
0.000772953
0.000252225
2.01502e-05
2.54985e-05
0.000286537
0.000861154
0.00103526
0.000359011
3.23144e-05
3.83168e-05
0.000410705
0.00117797
0.00132049
0.000460906
4.63491e-05
3.61976e-05
0.000464543
0.00125581
0.000645493
0.000202927
1.31731e-05
3.20518e-05
0.000394469
0.0011306
0.00147909
0.000533727
4.75374e-05
3.2097e-05
0.000426539
0.00122111
0.00103713
0.000359229
2.49365e-05
5.67539e-05
0.000616368
0.00165019
0.000962034
0.000352614
3.70194e-05
6.02212e-05
0.000677476
0.000978877
0.000970907
0.000628461
5.7071e-05
3.75075e-05
0.000482968
0.00109063
0.00123331
0.000502196
4.00861e-05
6.89182e-05
0.00080277
0.00184037
0.00115705
0.000417777
6.49322e-05
3.12288e-05
9.74728e-05
0.000288958
0.000593776
0.00027373
3.64303e-05
3.94302e-05
0.000227062
0.000531746
0.000184937
6.55753e-05
1.96066e-05
2.6126e-05
0.000228
0.000449795
0.000418924
0.00019316
2.8498e-05
1.58876e-05
5.71533e-05
0.000154562
0.00040479
0.00021041
2.2166e-05
2.42423e-05
0.00017638
0.000377924
0.000137965
5.01863e-05
1.41583e-05
2.00252e-05
0.000189723
0.000369784
0.000344621
0.000157656
2.21694e-05
1.34732e-05
4.62401e-05
0.000124913
0.000338798
0.000172003
1.81425e-05
2.02464e-05
0.000143308
0.000314192
0.000110271
4.19231e-05
1.28383e-05
1.6778e-05
0.000154799
0.000305181
0.000283115
0.000127832
1.88835e-05
1.22499e-05
3.83533e-05
9.76187e-05
0.000274148
0.000138471
1.56126e-05
1.77991e-05
0.000114764
0.000253627
8.68104e-05
3.51322e-05
1.19671e-05
1.45516e-05
0.000122397
0.0002473
0.000227199
0.000101667
1.66311e-05
1.15573e-05
3.15278e-05
7.68828e-05
0.000220975
0.000108337
1.36683e-05
1.55279e-05
8.85963e-05
0.000200172
6.51025e-05
2.65825e-05
1.094e-05
1.20674e-05
0.000111809
0.000171915
8.28175e-05
3.89815e-05
1.29608e-05
1.45793e-05
0.000109435
0.000222472
0.000193009
8.83896e-05
1.64048e-05
1.15818e-05
3.14593e-05
6.94406e-05
0.00018937
9.50775e-05
1.29334e-05
1.52641e-05
7.99505e-05
0.000168624
6.13459e-05
2.80233e-05
1.10689e-05
1.20232e-05
8.2893e-05
0.000165657
0.000148071
7.02044e-05
1.44716e-05
1.04965e-05
2.34728e-05
5.22959e-05
0.000124339
8.40642e-05
1.07152e-05
1.23554e-05
3.10738e-05
6.18287e-05
0.000163862
8.4007e-05
1.2531e-05
1.46786e-05
6.65819e-05
0.000138596
5.17324e-05
2.3805e-05
1.06117e-05
1.03029e-05
7.73329e-05
0.000114767
5.84675e-05
3.02321e-05
1.23852e-05
1.22346e-05
7.80903e-05
0.000149475
0.000127981
6.46659e-05
1.43302e-05
1.08428e-05
2.50382e-05
5.12231e-05
0.000120019
6.53731e-05
1.06272e-05
1.33628e-05
5.47114e-05
0.000106582
4.27861e-05
2.06637e-05
1.02413e-05
9.29943e-06
6.48433e-05
8.50646e-05
4.65383e-05
2.58699e-05
1.1469e-05
1.04134e-05
6.90741e-05
9.66682e-05
5.20461e-05
2.9458e-05
1.23392e-05
1.135e-05
6.4164e-05
0.000122782
0.000103193
5.33468e-05
1.35598e-05
1.04228e-05
2.20606e-05
4.28656e-05
8.45988e-05
6.19366e-05
9.66996e-06
1.17925e-05
2.82239e-05
4.80717e-05
0.000106969
5.97703e-05
1.08375e-05
1.32194e-05
5.19022e-05
9.29672e-05
3.97844e-05
2.11446e-05
1.02898e-05
9.34053e-06
5.86877e-05
7.2817e-05
4.34428e-05
2.78583e-05
1.13988e-05
9.87638e-06
6.13449e-05
8.35819e-05
4.75422e-05
2.82423e-05
1.18852e-05
1.07333e-05
5.4523e-05
9.85799e-05
8.35115e-05
4.60316e-05
1.3282e-05
1.02876e-05
2.31814e-05
3.83611e-05
6.85265e-05
5.51955e-05
9.04627e-06
1.1351e-05
2.66874e-05
4.09883e-05
7.52998e-05
5.69364e-05
9.76746e-06
1.19078e-05
2.91127e-05
4.53424e-05
8.88747e-05
5.18557e-05
1.06798e-05
1.3158e-05
4.39934e-05
7.63741e-05
3.69073e-05
2.35095e-05
1.02357e-05
8.90827e-06
5.07886e-05
6.18627e-05
3.85762e-05
2.74581e-05
1.14273e-05
9.68705e-06
5.21963e-05
6.88397e-05
4.23496e-05
2.87539e-05
1.18793e-05
1.04359e-05
4.87017e-05
7.93633e-05
6.89313e-05
4.15033e-05
1.29452e-05
1.01861e-05
2.3541e-05
3.49293e-05
5.5362e-05
4.59088e-05
8.83885e-06
1.12448e-05
2.81108e-05
3.64041e-05
6.19234e-05
4.73972e-05
9.43599e-06
1.15751e-05
2.87043e-05
3.92267e-05
6.78275e-05
4.86909e-05
9.56625e-06
1.18002e-05
2.87031e-05
4.19009e-05
7.65155e-05
4.7596e-05
1.03396e-05
1.29893e-05
4.09877e-05
6.55114e-05
3.45751e-05
2.46347e-05
1.02825e-05
8.67763e-06
4.50546e-05
5.24958e-05
3.54426e-05
2.84793e-05
1.14877e-05
9.43499e-06
4.36959e-05
5.69615e-05
3.75862e-05
2.86979e-05
1.15727e-05
9.32655e-06
4.33583e-05
5.94421e-05
3.92207e-05
2.98058e-05
1.16036e-05
9.64485e-06
4.68071e-05
6.37495e-05
4.13184e-05
3.04737e-05
1.18292e-05
1.02734e-05
4.69039e-05
7.26954e-05
6.2861e-05
4.10755e-05
1.28502e-05
1.01855e-05
2.67502e-05
3.48939e-05
5.2118e-05
4.4718e-05
8.72663e-06
1.1555e-05
2.96071e-05
3.58646e-05
5.58486e-05
4.31469e-05
9.43623e-06
1.1693e-05
3.02189e-05
3.78145e-05
5.816e-05
4.35268e-05
9.46021e-06
1.17466e-05
3.16077e-05
3.95164e-05
6.091e-05
4.6592e-05
9.73707e-06
1.19373e-05
3.28263e-05
4.14841e-05
7.02635e-05
4.661e-05
1.02839e-05
1.29152e-05
4.14902e-05
6.11607e-05
3.52508e-05
2.83935e-05
1.04213e-05
8.80428e-06
4.46576e-05
5.09855e-05
3.61445e-05
3.13006e-05
1.17319e-05
9.48688e-06
4.34095e-05
5.51884e-05
3.81821e-05
3.13702e-05
1.18253e-05
9.55339e-06
4.34115e-05
5.68486e-05
3.9555e-05
3.24869e-05
1.18397e-05
9.66531e-06
4.58439e-05
5.87315e-05
4.07669e-05
3.42551e-05
1.19669e-05
1.01453e-05
4.5706e-05
6.75945e-05
5.92337e-05
4.12774e-05
1.28759e-05
1.04673e-05
2.98186e-05
3.51893e-05
5.07994e-05
4.49453e-05
8.97989e-06
1.17925e-05
3.22489e-05
3.66942e-05
5.40672e-05
4.34652e-05
9.53807e-06
1.19569e-05
3.26514e-05
3.84815e-05
5.55671e-05
4.3519e-05
9.60135e-06
1.19465e-05
3.37013e-05
3.97098e-05
5.75336e-05
4.5313e-05
9.73534e-06
1.20981e-05
3.57828e-05
4.08374e-05
6.65821e-05
4.56719e-05
1.02078e-05
1.29886e-05
4.18045e-05
5.87146e-05
3.55049e-05
3.0996e-05
1.05609e-05
8.96338e-06
4.53037e-05
5.07237e-05
3.72237e-05
3.33421e-05
1.19101e-05
9.70891e-06
4.34653e-05
5.37571e-05
3.89758e-05
3.40237e-05
1.21409e-05
9.69114e-06
4.39386e-05
5.52658e-05
4.00083e-05
3.49926e-05
1.20292e-05
9.71541e-06
4.55653e-05
5.716e-05
4.11852e-05
3.71546e-05
1.22674e-05
1.05027e-05
4.6231e-05
6.62503e-05
5.85843e-05
4.26801e-05
1.3332e-05
1.08042e-05
3.28094e-05
3.657e-05
5.11365e-05
4.65728e-05
8.9199e-06
1.20692e-05
3.49678e-05
3.8127e-05
5.43562e-05
4.42687e-05
9.82673e-06
1.23075e-05
3.54325e-05
3.99566e-05
5.6091e-05
4.50753e-05
9.9822e-06
1.22913e-05
3.6865e-05
4.13508e-05
5.82651e-05
4.72686e-05
9.84676e-06
1.23927e-05
3.91595e-05
4.25669e-05
6.70537e-05
4.76799e-05
1.05501e-05
1.34722e-05
4.44286e-05
5.98596e-05
3.81603e-05
3.49722e-05
1.0933e-05
9.23131e-06
4.86214e-05
5.32845e-05
4.00083e-05
3.69539e-05
1.21916e-05
9.84121e-06
4.68743e-05
5.67173e-05
4.21946e-05
3.79031e-05
1.24298e-05
9.98152e-06
4.77748e-05
5.90975e-05
4.3301e-05
4.01339e-05
1.2534e-05
1.05766e-05
4.82027e-05
6.78098e-05
6.06609e-05
4.51151e-05
1.36245e-05
1.1193e-05
3.63459e-05
3.91219e-05
5.41145e-05
4.97373e-05
9.43585e-06
1.24594e-05
3.88251e-05
4.11978e-05
5.79472e-05
4.8353e-05
1.01054e-05
1.25656e-05
3.96884e-05
4.3504e-05
6.03528e-05
4.92868e-05
1.0097e-05
1.27538e-05
4.18035e-05
4.46831e-05
6.89014e-05
4.9557e-05
1.08627e-05
1.40747e-05
4.68248e-05
6.20759e-05
4.08559e-05
3.84904e-05
1.13887e-05
9.59062e-06
5.16283e-05
5.62849e-05
4.3188e-05
4.10104e-05
1.26269e-05
1.01164e-05
5.14821e-05
6.06691e-05
4.52324e-05
4.2897e-05
1.29402e-05
1.09317e-05
5.00489e-05
6.95728e-05
6.28981e-05
4.75315e-05
1.43089e-05
1.1612e-05
3.93818e-05
4.16582e-05
5.73724e-05
5.25208e-05
9.73908e-06
1.28219e-05
4.23346e-05
4.43565e-05
6.21249e-05
5.23492e-05
1.03204e-05
1.32167e-05
4.45272e-05
4.67274e-05
7.10354e-05
5.14562e-05
1.11182e-05
1.46361e-05
4.9138e-05
6.45176e-05
4.35969e-05
4.15819e-05
1.19425e-05
1.01474e-05
5.4325e-05
5.94385e-05
4.62645e-05
4.42721e-05
1.31351e-05
1.06182e-05
5.42517e-05
6.44746e-05
4.87726e-05
4.66898e-05
1.35602e-05
1.15348e-05
5.38936e-05
7.41042e-05
6.75345e-05
5.1746e-05
1.52618e-05
1.23841e-05
4.44738e-05
4.61747e-05
6.31368e-05
5.71885e-05
1.04871e-05
1.38874e-05
4.75268e-05
4.84314e-05
7.49264e-05
5.6579e-05
1.17438e-05
1.54078e-05
5.4183e-05
6.83603e-05
4.76309e-05
4.55325e-05
1.2636e-05
1.06509e-05
5.79423e-05
6.39805e-05
4.97295e-05
4.89633e-05
1.43413e-05
1.22001e-05
5.73719e-05
7.56044e-05
6.95143e-05
5.52851e-05
1.61461e-05
1.28235e-05
4.69109e-05
4.88738e-05
6.50697e-05
6.03416e-05
1.04336e-05
1.44426e-05
5.07917e-05
5.10091e-05
7.6981e-05
5.78153e-05
1.23065e-05
1.65693e-05
5.62093e-05
7.10702e-05
5.05459e-05
4.92498e-05
1.32949e-05
1.09701e-05
6.17987e-05
6.71745e-05
5.33443e-05
5.39255e-05
1.47332e-05
1.2431e-05
6.06887e-05
8.05506e-05
7.4722e-05
5.93072e-05
1.7061e-05
1.45204e-05
5.40938e-05
5.37243e-05
7.7038e-05
6.42105e-05
1.25748e-05
1.73051e-05
6.24906e-05
7.29948e-05
5.42952e-05
5.49898e-05
1.4705e-05
1.28637e-05
6.37012e-05
7.64886e-05
7.29594e-05
6.21216e-05
1.80502e-05
1.56534e-05
5.61961e-05
5.47588e-05
7.62699e-05
6.40343e-05
1.34186e-05
1.81744e-05
6.19669e-05
7.30841e-05
5.49005e-05
5.64302e-05
1.57729e-05
1.35914e-05
6.41067e-05
7.57582e-05
7.27601e-05
6.22889e-05
1.9216e-05
1.6708e-05
5.89877e-05
5.60323e-05
7.72237e-05
6.56012e-05
1.37738e-05
1.90147e-05
6.42013e-05
7.41565e-05
5.75932e-05
6.10616e-05
1.7028e-05
1.47696e-05
6.76371e-05
7.90538e-05
7.62155e-05
6.60188e-05
2.04499e-05
1.78778e-05
6.48832e-05
6.00903e-05
8.37573e-05
7.13915e-05
1.54892e-05
2.33175e-05
7.64768e-05
8.00515e-05
7.54756e-05
7.257e-05
2.14805e-05
1.96073e-05
6.87446e-05
6.3282e-05
8.64165e-05
7.35746e-05
1.72419e-05
2.69919e-05
7.5505e-05
8.56394e-05
8.23405e-05
7.55313e-05
2.65507e-05
2.84013e-05
7.98937e-05
7.73997e-05
7.666e-05
7.59057e-05
2.86991e-05
3.04719e-05
7.88114e-05
7.37696e-05
7.27676e-05
7.24975e-05
2.88026e-05
2.6578e-05
7.28613e-05
6.62779e-05
8.28761e-05
7.42361e-05
2.31814e-05
3.69039e-05
7.66431e-05
8.15125e-05
8.0354e-05
8.21236e-05
4.00191e-05
4.16931e-05
8.68478e-05
8.02314e-05
8.05778e-05
9.05655e-05
4.31425e-05
4.33051e-05
9.47117e-05
8.10383e-05
8.20907e-05
9.87837e-05
4.24659e-05
4.14635e-05
0.000102884
8.32243e-05
8.5075e-05
0.000107151
3.9988e-05
3.84627e-05
0.000111356
8.71916e-05
8.9539e-05
0.00011582
3.68782e-05
3.53232e-05
0.000120191
9.23664e-05
9.57266e-05
0.000123703
3.38575e-05
3.24956e-05
0.000125363
9.93587e-05
0.000103443
0.000127065
3.12487e-05
3.01091e-05
0.000128382
0.000108314
0.000114075
0.000129363
2.90744e-05
2.81298e-05
0.000130198
0.000120227
0.000126564
0.00013112
2.72753e-05
2.65011e-05
0.000132276
0.000132776
0.000139198
0.000133507
2.58087e-05
2.518e-05
0.000134808
0.000145488
0.000151912
0.000136361
2.46266e-05
2.41318e-05
0.000138029
0.000158284
0.000164749
0.000139689
2.36963e-05
2.33158e-05
0.000141622
0.000170345
0.000175485
0.000143504
2.29844e-05
2.26982e-05
0.00014554
0.000180711
0.000185639
0.000147625
2.24534e-05
2.22535e-05
0.000149984
0.000190583
0.000195603
0.000152096
2.20795e-05
2.19415e-05
0.00015438
0.000200524
0.00020535
0.000156867
2.18324e-05
2.17447e-05
0.000159093
0.000210136
0.000215058
0.000161508
2.16775e-05
2.16303e-05
0.00016376
0.000219565
0.000224108
0.000166294
2.1598e-05
2.1578e-05
0.000168389
0.000228643
0.000232838
0.000170838
2.1567e-05
2.15664e-05
0.000172893
0.000237175
0.000241209
0.000175191
2.15701e-05
2.15799e-05
0.000177193
0.000245183
0.000249181
0.000179177
2.15893e-05
2.16015e-05
0.00018105
0.000252777
0.000256352
0.000183036
2.16191e-05
2.16241e-05
0.000184542
0.000259884
0.000263139
0.00018635
2.16428e-05
2.1644e-05
0.000187778
0.000266304
0.000269396
0.000189318
2.16576e-05
2.16545e-05
0.000190591
0.000272231
0.000275173
0.00019173
2.16567e-05
2.16526e-05
0.000192966
0.00027778
0.000280419
0.000193838
2.16435e-05
2.16374e-05
0.000194963
0.000282818
0.000285138
0.000195643
2.16187e-05
2.16057e-05
0.000196442
0.000287575
0.000289696
0.000197041
2.15813e-05
2.1563e-05
0.000197677
0.00029185
0.000293966
0.000198163
2.15338e-05
2.15128e-05
0.000198651
0.000295905
0.000297953
0.000198987
2.14796e-05
2.14538e-05
0.000199299
0.000299843
0.000301658
0.000199705
2.14219e-05
2.13888e-05
0.000199746
0.000303668
0.000305295
0.000200049
2.13553e-05
2.13245e-05
0.000200276
0.000307171
0.000308924
0.000200204
2.1283e-05
2.12528e-05
0.000200392
0.000310862
0.000312486
0.000200337
2.12111e-05
2.11812e-05
0.000200439
0.000314261
0.000316076
0.000200388
2.11395e-05
2.11094e-05
0.000200373
0.000317835
0.000319463
0.000200485
2.10719e-05
2.1041e-05
0.0002004
0.000321332
0.000323058
0.000200304
2.10023e-05
2.09749e-05
0.00020035
0.000324898
0.000326636
0.000200207
2.09375e-05
2.09106e-05
0.000200183
0.000328369
0.000329368
0.000200286
2.088e-05
2.08527e-05
0.000200165
0.000330369
0.000331251
0.000200123
2.08237e-05
2.0799e-05
0.000200084
0.000332143
0.000332964
0.000200014
2.07725e-05
2.0747e-05
0.000199871
0.00033376
0.000334552
0.000199998
2.07268e-05
2.06973e-05
0.000199637
0.000335283
0.000336047
0.000199742
2.06797e-05
2.06539e-05
0.000199613
0.00033675
0.000337477
0.000199344
2.06312e-05
2.06111e-05
0.000199385
0.000338173
0.000338873
0.000199031
2.05858e-05
2.05695e-05
0.000199047
0.000339551
0.000340265
0.000198855
2.05457e-05
2.05306e-05
0.00019879
0.000340925
0.000341661
0.000198672
2.05091e-05
2.0492e-05
0.000198386
0.000342298
0.000343046
0.00019845
2.04757e-05
2.04595e-05
0.000198211
0.000343699
0.000344426
0.000198131
2.0444e-05
2.04312e-05
0.000198023
0.000345112
0.000345833
0.000197909
2.04174e-05
2.04058e-05
0.000197728
0.000346553
0.000347245
0.000197804
2.03966e-05
2.03874e-05
0.000197799
0.000348028
0.000348737
0.000197637
2.03781e-05
2.03695e-05
0.000197565
0.0003495
0.000350251
0.00019757
2.03647e-05
2.03574e-05
0.000197493
0.000350998
0.000351787
0.000197415
2.03541e-05
2.03521e-05
0.000197612
0.000352546
0.000353354
0.000197494
2.0349e-05
2.03486e-05
0.000197534
0.000354132
0.000354935
0.000197425
2.03468e-05
2.03507e-05
0.000197622
0.000355753
0.000356562
0.000197727
2.03522e-05
2.03545e-05
0.000197663
0.000357398
0.000358215
0.000197741
2.03584e-05
2.03621e-05
0.000197692
0.000359071
0.000359922
0.000197909
2.03701e-05
2.03767e-05
0.000198098
0.000360753
0.000361632
0.000197962
2.03833e-05
2.03936e-05
0.000198319
0.00036247
0.000363357
0.000198307
2.0402e-05
2.04128e-05
0.000198433
0.000364206
0.000365095
0.00019856
2.04234e-05
2.0436e-05
0.000198699
0.00036596
0.000366847
0.000198872
2.04484e-05
2.04626e-05
0.000199007
0.000367705
0.000368608
0.000199191
2.04765e-05
2.0492e-05
0.000199337
0.000369442
0.00037038
0.000199536
2.05073e-05
2.05243e-05
0.000199697
0.00037118
0.000372111
0.000199902
2.05406e-05
2.05589e-05
0.000200072
0.000372932
0.000373826
0.000200287
2.05761e-05
2.05958e-05
0.000200479
0.000374674
0.000375524
0.000200661
2.06133e-05
2.06344e-05
0.000200887
0.000376382
0.000377221
0.00020106
2.06524e-05
2.06736e-05
0.000201186
0.000378072
0.000378895
0.000201633
2.0695e-05
2.07149e-05
0.0002016
0.000379733
0.000380548
0.000202046
2.07378e-05
2.07564e-05
0.000201991
0.000381357
0.000382172
0.000202364
2.07804e-05
2.08017e-05
0.000202673
0.000382952
0.00038376
0.000202648
2.08229e-05
2.08465e-05
0.000203091
0.000384527
0.000385307
0.000203155
2.0867e-05
2.08898e-05
0.000203375
0.000386081
0.000386819
0.000203575
2.09115e-05
2.09347e-05
0.000203792
0.000387583
0.000388295
0.000203989
2.09566e-05
2.09802e-05
0.0002042
0.000389032
0.000389741
0.000204387
2.10017e-05
2.10257e-05
0.000204595
0.000390463
0.000391168
0.000204774
2.10467e-05
2.10714e-05
0.000204992
0.000391845
0.000392518
0.000205152
2.10917e-05
2.11169e-05
0.000205374
0.000393193
0.000393847
0.000205509
2.11365e-05
2.11611e-05
0.000205617
0.000394508
0.000395135
0.000206035
2.11828e-05
2.12061e-05
0.000205964
0.000395779
0.00039638
0.000206377
2.12274e-05
2.12504e-05
0.000206309
0.000397005
0.000397585
0.000206697
2.12718e-05
2.12944e-05
0.000206731
0.000398186
0.00039875
0.000206884
2.13139e-05
2.13366e-05
0.000206941
0.000399317
0.000399878
0.000207339
2.13585e-05
2.13791e-05
0.000207223
0.00040041
0.000400946
0.000207505
2.14003e-05
2.14225e-05
0.000207651
0.000401466
0.00040199
0.000207775
2.14419e-05
2.14642e-05
0.000207931
0.00040248
0.000402991
0.000208168
2.14838e-05
2.15038e-05
0.000208048
0.000403472
0.000403948
0.000208426
2.15247e-05
2.15434e-05
0.000208296
0.000404413
0.00040486
0.000208668
2.15654e-05
2.15818e-05
0.000208492
0.000405318
0.000405717
0.000208795
2.16042e-05
2.16227e-05
0.000208995
0.000406197
0.000406544
0.000208965
2.16421e-05
2.16596e-05
0.000209076
0.00040703
0.000407335
0.000209176
2.16797e-05
2.16969e-05
0.000209281
0.000407807
0.000408083
0.000209373
2.17168e-05
2.17335e-05
0.000209473
0.00040854
0.000408822
0.000209557
2.17533e-05
2.17693e-05
0.000209648
0.000409169
0.000409476
0.000209623
2.17882e-05
2.18061e-05
0.000209953
0.000409796
0.000410066
0.00020989
2.18235e-05
2.18389e-05
0.000209931
0.000410364
0.000410614
0.000209911
2.18557e-05
2.18739e-05
0.000210229
0.000410888