/*--------------------------------*- C++ -*----------------------------------*\
| =========                 |                                                 |
| \\      /  F ield         | OpenFOAM: The Open Source CFD Toolbox           |
|  \\    /   O peration     | Version:  v2006                                 |
|   \\  /    A nd           | Website:  www.openfoam.com                      |
|    \\/     M anipulation  |                                                 |
\*---------------------------------------------------------------------------*/
FoamFile
{
    version     2.0;
    format      ascii;
    class       volScalarField;
    location    "0.034";
    object      omega;
}
// * * * * * * * * * * * * * * * * * * * * * * * * * * * * * * * * * * * * * //

dimensions      [0 0 -1 0 0 0 0];


internalField   nonuniform List<scalar> 
24416
(
0.0137251
0.0137252
0.0137213
0.0137213
0.0137213
0.0137213
0.0137214
0.0137214
0.0137215
0.0137215
0.0137216
0.0137217
0.0137218
0.0137219
0.013722
0.0137221
0.0137223
0.0137223
0.0137226
0.0137229
0.0137227
0.0137207
0.0137159
0.0137085
0.0136989
0.0136877
0.0136754
0.0136625
0.0136493
0.0136358
0.0136221
0.0136082
0.013594
0.0135796
0.0135649
0.0135499
0.0135346
0.0135191
0.0135034
0.0134874
0.0134714
0.0134552
0.0134389
0.0134227
0.0134065
0.0133905
0.0133748
0.0133595
0.0133449
0.0133312
0.0133189
0.0133083
0.0133003
0.0132958
0.0132959
0.0133025
0.0133179
0.0133451
0.0133887
0.0134546
0.0135508
0.0136885
0.0138828
0.0141543
0.0145309
0.0150506
0.0157651
0.016744
0.0180816
0.0199047
0.0223831
0.0257434
0.0302862
0.0364065
0.0446188
0.055584
0.0701384
0.0893222
0.114406
0.146913
0.188655
0.241774
0.308809
0.392432
0.493199
0.596321
0.595218
0.661797
0.762912
0.798597
0.71317
0.530931
0.334789
0.195427
0.0456905
0.0844732
0.551997
1.69959
4.24187
10.0964
24.7509
35.3097
30.3469
79.4052
213.815
532.837
1746.64
14649.4
78425.7
1.10214e+06
1.07471e+06
163167
37748.3
57525.5
202808
1.04713e+06
1.01509e+06
217549
69195.4
78081.7
226395
975331
945130
224665
83671
88952.6
228126
914394
896772
227807
91560.8
95013.7
231812
883556
874719
230505
96310.7
98516.9
228890
861323
851545
227307
98854.4
100126
226224
841420
834165
225166
100220
101075
224445
826202
820573
223710
101071
101729
223258
814110
809541
222732
101690
102256
222471
804145
800293
222097
102195
102704
221955
795652
792309
221689
102629
103097
221606
788217
785248
221425
103011
103446
221374
781566
778878
221246
103351
103758
221214
775511
773041
221122
103655
104038
221095
769923
767632
221018
103927
104288
221001
764717
762565
220935
104171
104515
220927
759814
757775
220866
104391
104715
220857
755164
753224
220794
104586
104894
220784
750732
748877
220719
104758
105051
220707
746490
744707
220638
104911
105189
220623
742413
740694
220550
105044
105310
220532
738482
736821
220454
105162
105416
220433
734681
733071
220349
105264
105508
220325
730998
729432
220236
105352
105587
220209
727419
725894
220113
105429
105655
220082
723935
722447
219979
105493
105715
219945
720537
719083
219836
105549
105765
219798
717219
715795
219681
105594
105805
219640
713972
712575
219516
105631
105837
219471
710788
709416
219339
105659
105861
219290
707662
706311
219151
105680
105879
219098
704585
703253
218951
105695
105890
218893
701552
700236
218739
105703
105894
218677
698557
697255
218514
105704
105892
218447
695595
694304
218276
105699
105884
218205
692660
691379
218025
105688
105869
217949
689747
688474
217760
105671
105848
217679
686853
685585
217481
105648
105822
217396
683971
682706
217189
105619
105790
217098
681097
679833
216882
105585
105752
216786
678226
676962
216560
105545
105709
216459
675354
674087
216223
105500
105661
216117
672476
671205
215871
105449
105607
215759
669588
668310
215503
105393
105547
215385
666684
665397
215119
105332
105482
214995
663761
662464
214718
105265
105412
214589
660815
659505
214301
105193
105336
214165
657841
656517
213866
105115
105254
213723
654836
653497
213412
105029
105166
213263
651797
650441
212939
104938
105072
212784
648720
647345
212448
104839
104970
212286
645601
644207
211938
104732
104861
211768
642437
641022
211407
104618
104744
211230
639226
637788
210857
104497
104620
210672
635963
634500
210285
104368
104490
210092
632643
631153
209691
104233
104352
209490
629262
627744
209074
104090
104206
208864
625815
624267
208432
103940
104053
208214
622300
620720
207766
103781
103892
207538
618711
617097
207073
103614
103722
206836
615044
613395
206354
103439
103544
206106
611297
609611
205607
103254
103357
205349
607465
605739
204832
103061
103160
204563
603544
601776
204029
102859
102954
203744
599529
597719
203196
102647
102739
202894
595419
593564
202331
102424
102512
202011
591208
589308
201432
102191
102275
201094
586895
584949
200498
101946
102026
200142
582476
580481
199528
101689
101765
199152
577948
575903
198520
101420
101492
198123
573307
571211
197473
101138
101204
197054
568549
566402
196384
100841
100903
195943
563674
561474
195253
100530
100586
194790
558677
556423
194078
100203
100254
193591
553555
551246
192858
99860.1
99904.8
192346
548308
545944
191590
99499.4
99537.8
191052
542934
540517
190271
99119.8
99151.5
189706
537437
534968
188900
98720.1
98744.6
188307
531819
529299
187475
98298.6
98315.2
186852
526084
523515
185992
97853.7
97862.2
185341
520235
517620
184452
97384
97383.7
183770
514279
511619
182853
96892.4
96879.6
182140
508222
505518
181193
96371.5
96346.5
180451
502071
499323
179477
95822.3
95788.3
178717
495834
493393
177761
95255.7
95223.8
177097
490641
488527
176236
94704.3
94680
175647
485909
483827
174840
94180.3
94162.5
174289
481202
479090
173503
93678.9
93663.4
172960
476433
474285
172176
93188.9
93171.2
171626
471598
469422
170824
92696.6
92672.2
170255
466714
464523
169423
92189.2
92153.8
168824
461806
459613
167955
91655.2
91604.4
167319
456901
454720
166405
91082.4
91011.9
165725
452028
449876
164758
90459
90364.8
164030
447221
445115
163006
89773
89651.5
162227
442514
440470
161143
89014.8
88863.1
160311
437941
435977
159166
88177.1
87993.2
158284
433538
431669
157080
87254.4
87037
156149
429335
427577
154890
86243.7
85992.3
153915
425363
423728
152609
85144.6
84859.8
151599
421644
420141
150248
83958.6
83644.4
149219
418197
416832
147837
82691.9
82369.6
146802
415032
413805
145404
81363.7
81020.1
144367
412149
411059
142971
79985.5
79625.4
141948
409545
408587
140565
78570.6
78200.4
139569
407210
406377
138216
77137.1
76762.9
137261
405128
404407
135949
75704
75330.1
135043
403276
402657
133787
74288.5
73921.1
132937
401635
401105
131747
72907.4
72545.2
130958
400179
399726
129841
71572.6
71228.3
129120
398888
398499
128080
70294.9
69972.1
127429
397734
397387
126470
69083.2
68785.8
125893
396688
396371
125013
67943.2
67674.3
124512
395724
395428
123711
66878.6
66641.3
123284
394819
394534
122565
65900
65695.4
122209
393947
393661
121573
65014.3
64841.7
121288
393051
392785
120626
64174.3
64257.5
120795
392333
391814
120072
63553.3
63592.6
120081
390952
390729
119889
63130.9
63267.6
120077
388976
389822
120342
63066.6
62575.3
119326
384391
375237
115540
60672.2
58810.1
112880
360668
30407.8
19992.1
15142.9
12288.9
11050.5
9713.57
8858.27
8115.86
7566.57
7076.3
6680.78
6323.77
6022.68
5749.44
5513.09
5298.18
5109.78
4938.89
4788.68
4653.76
4536.39
4433.38
4346.63
4274.38
4218.46
4178.27
4155.69
4151.45
4167.42
4205.67
4269.73
4363.1
4490.91
4659.86
4877.35
5156.08
5507.97
5958.07
6525.42
7263.18
8198.02
9447.01
11052.6
13336
15554.1
20168.5
26114.3
36760.1
61425
132947
292717
1.12054e+06
1.23908e+06
328794
148943
161136
361787
1.38555e+06
1.53517e+06
399844
178520
187386
420701
1.61831e+06
1.66812e+06
427490
189192
196632
439531
1.68884e+06
1.70309e+06
436912
194177
197239
443186
1.70067e+06
1.70578e+06
435899
194435
198051
445150
1.7083e+06
1.71079e+06
436937
195536
197988
443396
1.70742e+06
1.71009e+06
434403
195277
198719
443523
1.71276e+06
1.71569e+06
435428
196199
198548
441918
1.71246e+06
1.71353e+06
432893
195916
199364
442071
1.72027e+06
1.72161e+06
433907
196888
199256
440447
1.71846e+06
1.71985e+06
431437
196686
200168
440679
1.72664e+06
1.72834e+06
432566
197759
200172
439184
1.72526e+06
1.72697e+06
430244
197683
201221
439582
1.73378e+06
1.73587e+06
431577
198912
201401
438310
1.73284e+06
1.73493e+06
429498
199027
202664
438975
1.74175e+06
1.74429e+06
431136
200483
203078
438030
1.74133e+06
1.74388e+06
429400
200816
204623
439071
1.75073e+06
1.75385e+06
431451
202558
205345
438568
1.75099e+06
1.75411e+06
430184
203187
207301
440176
1.76102e+06
1.76489e+06
432913
205371
208577
440538
1.76221e+06
1.76816e+06
432727
206608
211333
443679
1.77134e+06
1.77881e+06
437467
209652
213278
446374
1.77707e+06
1.7863e+06
438979
211293
214926
450254
1.79291e+06
1.81184e+06
441089
211845
214388
446336
1.8087e+06
1.80921e+06
431934
209712
213064
437371
1.77735e+06
1.74432e+06
424637
210641
213614
428231
1.69196e+06
1.63526e+06
423947
214778
221436
431167
1.56045e+06
1.44351e+06
432619
224507
233266
420623
2.14835e+06
3.28193e+06
1.05138e+06
452589
258379
511669
2.3733e+06
2.04587e+06
537401
266172
245134
505907
1.92263e+06
1.89761e+06
474618
238401
168643
472149
1.0761e+06
781517
237458
125141
116406
233440
669413
627486
187537
98153.8
101008
188524
634376
611096
203545
116088
101564
184854
585033
531954
166180
92094.6
83855.5
150339
497389
456093
133750
71621.3
58412.4
116779
430757
399430
93716.7
48576.5
43538.6
77782.8
381593
332857
59314.3
34392.5
28139.9
47325.7
298435
263687
40099
26436.5
24789.4
34421.8
240329
204821
30082.8
21188.3
18859.3
25672.9
183750
161998
23156.9
17547.7
15681
21516.5
149937
146845
23114.5
16397.5
16921.9
23049.1
155042
172080
42888.3
17933.6
51946.9
122439
198635
246723
201420
144912
165127
236296
281753
344902
290964
204298
285618
347791
405249
488846
406275
292654
318364
451473
557279
681705
551316
414183
399752
577622
758090
854848
608123
411056
504167
699661
981294
1.0662e+06
691418
455812
467783
685140
1.19495e+06
1.9464e+06
1.1485e+06
644967
557243
942514
2.83004e+06
2.14876e+06
931389
577256
841854
1.53847e+06
3.24902e+06
2.43975e+06
744711
559600
539673
755319
1.91417e+06
3.14122e+06
1.33948e+06
744565
486379
658177
2.34042e+06
1.83224e+06
671296
470631
685689
1.32597e+06
3.0487e+06
2.27189e+06
605127
436127
427775
632923
1.7992e+06
3.09119e+06
1.28314e+06
663284
410652
584722
2.33293e+06
1.87603e+06
615186
404690
683494
1.39058e+06
3.36874e+06
2.68816e+06
481650
416960
583014
1.09142e+06
2.37113e+06
1.83444e+06
507190
352047
355097
550442
1.52558e+06
2.7176e+06
1.16181e+06
590349
352696
506271
2.05608e+06
1.66076e+06
558460
353802
604367
1.20167e+06
2.89903e+06
2.17158e+06
517193
354275
356325
566936
1.78875e+06
3.24158e+06
1.36396e+06
656117
395140
454312
2.64846e+06
2.41528e+06
1.08373e+06
580076
338237
511948
1.92634e+06
1.65551e+06
572918
347768
653873
1.33864e+06
3.10279e+06
2.56928e+06
452967
396248
576864
1.05814e+06
2.32336e+06
1.81389e+06
501614
334743
342076
551186
1.55765e+06
2.79238e+06
1.24693e+06
615217
358116
528171
2.18617e+06
1.85395e+06
598375
364687
704710
1.49782e+06
3.42693e+06
2.86001e+06
490826
431484
650917
1.18647e+06
2.74524e+06
2.37781e+06
470166
385902
576918
1.05103e+06
2.24484e+06
1.84622e+06
522996
341744
355820
595302
1.64753e+06
3.08276e+06
1.36858e+06
682575
410352
502076
2.58491e+06
2.42394e+06
1.11007e+06
610270
355082
537509
1.98906e+06
1.76322e+06
610610
368985
721340
1.4718e+06
3.35026e+06
2.79201e+06
519063
433920
658597
1.21735e+06
2.66893e+06
2.37402e+06
505777
398006
601167
1.10849e+06
2.28992e+06
1.8856e+06
551135
357046
375122
635225
1.68309e+06
3.18952e+06
1.50233e+06
731873
450472
535817
2.7592e+06
2.67699e+06
1.20218e+06
677081
409358
505130
2.37719e+06
2.31944e+06
1.11007e+06
617952
369634
574693
1.93811e+06
1.77436e+06
662322
390822
769355
1.53896e+06
3.42603e+06
2.90634e+06
538904
476467
715956
1.29658e+06
2.82152e+06
2.48746e+06
560599
434039
655362
1.20055e+06
2.40726e+06
1.99266e+06
603771
391530
411363
688931
1.81143e+06
3.49878e+06
1.59568e+06
802645
493326
566310
2.96941e+06
2.88651e+06
1.34494e+06
745282
455859
585625
2.55621e+06
2.55261e+06
1.25298e+06
692149
435755
562524
2.35122e+06
2.34493e+06
1.17397e+06
655261
397293
611035
1.96374e+06
1.81028e+06
722411
424891
831389
1.65073e+06
3.53867e+06
3.04047e+06
603848
523993
777988
1.33785e+06
2.98323e+06
2.67804e+06
588254
481335
732039
1.2999e+06
2.74609e+06
2.56543e+06
601310
468455
712579
1.2776e+06
2.61907e+06
2.38168e+06
587602
457773
681340
1.19661e+06
2.38068e+06
1.98908e+06
636461
417309
441204
728694
1.82537e+06
3.49887e+06
1.65802e+06
853047
533781
622946
3.05356e+06
2.97405e+06
1.37589e+06
791203
494636
621124
2.6328e+06
2.68103e+06
1.31701e+06
744174
479525
615723
2.50224e+06
2.56838e+06
1.27172e+06
720339
467082
598343
2.3371e+06
2.37043e+06
1.21256e+06
697035
431466
655397
2.01832e+06
1.87192e+06
762654
460931
881026
1.68499e+06
3.57112e+06
3.05457e+06
651166
561775
827016
1.41519e+06
3.04481e+06
2.77612e+06
639242
522576
790509
1.39089e+06
2.86858e+06
2.6306e+06
662554
513764
764792
1.3387e+06
2.67413e+06
2.42777e+06
640477
500165
739199
1.2713e+06
2.46785e+06
2.08601e+06
691104
459169
485697
791372
1.92724e+06
3.63444e+06
1.75265e+06
919181
581168
680454
3.16102e+06
3.14348e+06
1.46748e+06
856190
542429
673201
2.81531e+06
2.87896e+06
1.40997e+06
811482
528605
673959
2.63441e+06
2.71644e+06
1.36025e+06
788511
515162
656272
2.46268e+06
2.50945e+06
1.29325e+06
760912
476104
713952
2.13295e+06
2.00048e+06
833200
508405
961006
1.83763e+06
3.80723e+06
3.26038e+06
722758
606236
902707
1.5703e+06
3.2801e+06
2.90084e+06
727757
574972
853212
1.49115e+06
2.94264e+06
2.72712e+06
714248
562132
835199
1.45305e+06
2.84298e+06
2.57193e+06
707687
550523
806461
1.37015e+06
2.59502e+06
2.21125e+06
757657
504174
533240
857774
2.05163e+06
3.83417e+06
1.87613e+06
999065
638691
740205
3.32246e+06
3.32479e+06
1.60709e+06
938962
596178
743667
2.95918e+06
3.0309e+06
1.53013e+06
889092
580752
738749
2.72541e+06
2.80856e+06
1.46077e+06
859931
564930
715151
2.57137e+06
2.60725e+06
1.38184e+06
821820
516312
771707
2.20423e+06
2.07547e+06
890506
550715
1.02604e+06
1.90736e+06
3.90348e+06
3.37953e+06
775398
657095
961289
1.63643e+06
3.43713e+06
2.97336e+06
754044
617230
909135
1.55115e+06
3.04e+06
2.75354e+06
759747
598330
872270
1.45885e+06
2.76271e+06
2.33782e+06
814368
546618
578094
917722
2.18897e+06
3.96839e+06
1.963e+06
1.05936e+06
673060
806605
3.42472e+06
3.43986e+06
1.65177e+06
979881
628393
770223
2.95017e+06
3.02707e+06
1.54374e+06
920936
605264
762500
2.73872e+06
2.77687e+06
1.47327e+06
880533
551933
822936
2.29275e+06
2.16121e+06
944362
586610
1.08302e+06
1.99238e+06
3.99576e+06
3.40573e+06
827647
691867
1.00145e+06
1.682e+06
3.43211e+06
2.98541e+06
788484
643761
940979
1.56671e+06
3.00655e+06
2.44024e+06
869755
586824
615978
980983
2.27578e+06
4.17478e+06
2.0887e+06
1.13532e+06
719662
856572
3.55112e+06
3.56201e+06
1.73539e+06
1.0431e+06
664631
811927
3.04138e+06
3.04088e+06
1.58655e+06
964643
600447
888536
2.51501e+06
2.37027e+06
1.01077e+06
634179
1.16599e+06
2.14509e+06
4.31487e+06
3.60924e+06
886809
739732
1.07211e+06
1.78227e+06
3.61957e+06
3.11596e+06
842706
685095
995881
1.63643e+06
3.15071e+06
2.55441e+06
914532
617442
646823
1.02091e+06
2.36141e+06
4.19569e+06
2.13306e+06
1.16933e+06
740597
915936
3.50575e+06
3.4344e+06
1.73384e+06
1.06122e+06
645036
927541
2.72853e+06
2.5464e+06
1.02622e+06
669231
1.23448e+06
2.29738e+06
4.58269e+06
3.72151e+06
961007
771173
1.11661e+06
1.82708e+06
3.61452e+06
2.80211e+06
954041
668274
692539
1.05737e+06
2.58159e+06
4.57839e+06
2.26054e+06
1.24444e+06
780266
939156
3.75721e+06
3.68604e+06
1.85757e+06
1.13695e+06
678813
992624
2.86972e+06
2.65112e+06
1.09776e+06
703104
1.27253e+06
2.32779e+06
4.64725e+06
3.7201e+06
984451
793524
1.13945e+06
1.8263e+06
3.6506e+06
2.81555e+06
980565
673739
692142
1.05909e+06
2.54107e+06
4.17991e+06
2.15359e+06
1.20042e+06
710828
1.00472e+06
3.16502e+06
2.8206e+06
1.06177e+06
721443
1.26441e+06
2.30636e+06
4.65888e+06
3.39785e+06
1.05333e+06
732804
738348
1.11619e+06
2.96711e+06
4.81057e+06
2.3807e+06
1.30561e+06
752906
1.0906e+06
3.51719e+06
3.11203e+06
1.12142e+06
758707
1.3761e+06
2.53759e+06
5.0939e+06
3.65627e+06
1.13266e+06
778428
782385
1.19041e+06
3.18396e+06
5.09347e+06
2.51499e+06
1.38301e+06
784545
1.1284e+06
3.68263e+06
3.24389e+06
1.19503e+06
788050
1.41497e+06
2.58766e+06
5.14034e+06
3.60586e+06
1.15816e+06
784705
782700
1.17733e+06
3.15357e+06
4.98271e+06
2.47481e+06
1.36509e+06
759240
1.11151e+06
3.40472e+06
2.82098e+06
1.17928e+06
765805
796160
1.25368e+06
3.74872e+06
5.74072e+06
2.82006e+06
1.46541e+06
783389
1.19125e+06
3.73719e+06
3.03122e+06
1.21043e+06
778879
770789
1.2801e+06
3.5867e+06
4.1703e+06
1.58333e+06
823076
774648
1.46197e+06
4.57629e+06
4.99306e+06
1.85947e+06
848258
785417
1.6537e+06
5.51494e+06
7.16027e+06
3.67402e+06
1.72494e+06
820508
1.36037e+06
4.02193e+06
3.02939e+06
1.35689e+06
805451
794989
1.36846e+06
3.14279e+06
3.15637e+06
1.36402e+06
774589
752920
1.3546e+06
3.12508e+06
3.07359e+06
1.33368e+06
731418
712294
1.317e+06
3.00376e+06
2.91489e+06
1.29585e+06
694903
680174
1.28043e+06
2.82874e+06
2.74254e+06
1.26716e+06
668081
658108
1.25577e+06
2.65813e+06
2.57773e+06
1.24623e+06
650376
644576
1.23788e+06
2.50221e+06
2.43226e+06
1.23036e+06
640172
637278
1.22331e+06
2.36769e+06
2.30847e+06
1.21618e+06
634954
633678
1.20899e+06
2.25411e+06
2.20435e+06
1.20105e+06
632211
631374
1.19275e+06
2.159e+06
2.1178e+06
1.1838e+06
630419
629835
1.17438e+06
2.08051e+06
2.04685e+06
1.16422e+06
628898
628304
1.15366e+06
2.0166e+06
1.98947e+06
1.14228e+06
627125
626330
1.13069e+06
1.96524e+06
1.94367e+06
1.11826e+06
624772
623491
1.10575e+06
1.92456e+06
1.90767e+06
1.0926e+06
621584
619912
1.07952e+06
1.89279e+06
1.87975e+06
1.06576e+06
617523
615352
1.05216e+06
1.86832e+06
1.85834e+06
1.03813e+06
612588
610010
1.02442e+06
1.84962e+06
1.84208e+06
1.01028e+06
606771
603711
996577
1.83545e+06
1.82973e+06
982669
600102
596683
969355
1.82469e+06
1.82033e+06
955825
592692
588919
942972
1.81643e+06
1.81302e+06
930075
584686
580690
917965
1.80989e+06
1.80714e+06
905763
576237
572058
894388
1.80454e+06
1.8022e+06
883031
567514
563260
872559
1.79992e+06
1.79784e+06
862026
558649
554355
852376
1.79576e+06
1.79382e+06
842734
549777
545518
833988
1.79182e+06
1.78996e+06
825165
540985
536783
817186
1.78801e+06
1.78618e+06
809207
532357
528260
802002
1.7842e+06
1.78247e+06
794783
523932
519951
788201
1.78048e+06
1.77883e+06
781716
515751
511912
775783
1.7769e+06
1.77531e+06
769899
507834
504133
764527
1.77345e+06
1.77193e+06
759178
500183
496625
754316
1.77012e+06
1.76869e+06
749436
492800
489373
745013
1.76695e+06
1.76564e+06
740553
485680
482394
736542
1.76397e+06
1.76278e+06
732451
478829
475662
728780
1.76124e+06
1.76019e+06
725012
472231
469194
721664
1.75876e+06
1.75785e+06
718163
465892
462962
715061
1.75658e+06
1.75584e+06
711796
459785
456979
708956
1.75471e+06
1.75413e+06
705909
453915
451214
703239
1.75319e+06
1.75272e+06
700410
448290
445717
697984
1.75195e+06
1.75159e+06
695353
442928
440460
693106
1.75103e+06
1.75078e+06
690729
437817
435479
688712
1.75041e+06
1.75025e+06
686532
432980
430762
684684
1.75003e+06
1.74995e+06
682674
428408
426327
681003
1.7498e+06
1.74984e+06
679151
424104
422129
677587
1.74977e+06
1.74992e+06
675892
420047
418194
674474
1.7499e+06
1.75015e+06
672917
416236
414485
671602
1.75019e+06
1.75055e+06
670168
412645
411004
668982
1.75065e+06
1.75109e+06
667669
409275
407723
666572
1.75125e+06
1.7518e+06
665364
406099
404646
664385
1.75202e+06
1.75263e+06
663281
403118
401745
662381
1.75295e+06
1.75365e+06
661367
400309
399023
660574
1.75405e+06
1.7548e+06
659652
397672
396455
658924
1.75529e+06
1.75611e+06
658078
395182
394044
657448
1.75669e+06
1.75755e+06
656679
392844
391767
656104
1.75822e+06
1.75914e+06
655399
390633
389625
654909
1.75987e+06
1.76083e+06
654271
388554
387598
653827
1.76162e+06
1.76263e+06
653240
386584
385694
652870
1.76347e+06
1.76452e+06
652345
384731
383871
652002
1.7654e+06
1.7665e+06
651530
382971
382163
651247
1.7674e+06
1.76852e+06
650827
381304
380519
650570
1.76946e+06
1.77061e+06
650197
379713
378969
649988
1.77156e+06
1.77272e+06
649659
378202
377491
649476
1.77369e+06
1.77487e+06
649183
376760
376088
649044
1.77584e+06
1.77702e+06
648790
375390
374750
648671
1.77801e+06
1.7792e+06
648451
374081
373486
648365
1.78019e+06
1.78137e+06
648186
372842
372260
648115
1.78236e+06
1.78354e+06
647969
371658
371114
647923
1.78452e+06
1.7857e+06
647817
370536
369999
647782
1.78668e+06
1.78784e+06
647706
369462
368953
647693
1.78881e+06
1.78995e+06
647651
368441
367953
647649
1.79091e+06
1.79205e+06
647638
367462
367004
647659
1.79299e+06
1.7941e+06
647665
366533
366099
647700
1.79504e+06
1.79613e+06
647722
365641
365247
647790
1.79704e+06
1.79812e+06
647823
364800
364410
647906
1.79901e+06
1.80006e+06
647953
363992
363639
648068
1.80094e+06
1.80197e+06
648124
363231
362880
648250
1.80283e+06
1.80383e+06
648319
362500
362180
648472
1.80467e+06
1.80565e+06
648550
361818
361505
648713
1.80647e+06
1.80743e+06
648801
361152
360870
648988
1.80822e+06
1.80916e+06
649082
360520
360274
649280
1.80993e+06
1.81085e+06
649382
359906
359681
649598
1.8116e+06
1.81248e+06
649710
359374
359118
649936
1.81322e+06
1.81408e+06
650056
358840
358603
650300
1.81479e+06
1.81563e+06
650425
358336
358113
650675
1.81632e+06
1.81714e+06
650806
357853
357658
651070
1.81781e+06
1.8186e+06
651209
357406
357201
651472
1.81926e+06
1.82003e+06
651618
356978
356788
651895
1.82067e+06
1.82142e+06
652047
356577
356396
652327
1.82204e+06
1.82276e+06
652479
356194
356028
652776
1.82336e+06
1.82406e+06
652929
355838
355679
653273
1.82465e+06
1.82533e+06
653306
355504
355345
653804
1.82591e+06
1.82657e+06
653913
355174
355053
654234
1.82712e+06
1.82776e+06
654275
354877
354793
654607
1.82828e+06
1.8289e+06
654791
354604
354507
655108
1.82941e+06
1.83002e+06
655286
354334
354266
655607
1.83051e+06
1.8311e+06
655787
354092
354015
656103
1.83158e+06
1.83216e+06
656281
353856
353813
656601
1.83263e+06
1.83319e+06
656785
353649
353587
657101
1.83364e+06
1.83419e+06
657282
353443
353424
657603
1.83462e+06
1.83515e+06
657791
353269
353219
658105
1.83558e+06
1.83609e+06
658291
353097
353089
658610
1.83651e+06
1.83701e+06
658802
352943
352904
659113
1.83741e+06
1.83789e+06
659303
352805
352801
659618
1.83828e+06
1.83875e+06
659814
352670
352640
660120
1.83913e+06
1.83958e+06
660314
352559
352558
660624
1.83995e+06
1.84039e+06
660823
352447
352422
661124
1.84075e+06
1.84118e+06
661321
352355
352347
661624
1.84152e+06
1.84194e+06
661824
352280
352269
662123
1.84228e+06
1.84269e+06
662318
352183
352189
662613
1.84301e+06
1.84341e+06
662815
352114
352098
663102
1.84372e+06
1.8441e+06
663301
352057
352052
663586
1.84441e+06
1.84478e+06
663788
352014
352005
664068
1.84508e+06
1.84544e+06
664264
351949
351942
664538
1.84573e+06
1.84608e+06
664739
351929
351903
665008
1.84636e+06
1.8467e+06
665202
351888
351871
665469
1.84697e+06
1.8473e+06
665661
351852
351853
665928
1.84756e+06
1.84788e+06
666112
351813
351826
666375
1.84813e+06
1.84843e+06
666563
351801
351797
666819
1.84868e+06
1.84897e+06
667002
351788
351800
667257
1.84921e+06
1.84949e+06
667441
351784
351781
667688
1.84972e+06
1.84999e+06
667869
351784
351782
668114
1.85022e+06
1.85048e+06
668295
351789
351789
668537
1.85069e+06
1.85095e+06
668709
351785
351814
668952
1.85115e+06
1.8514e+06
669124
351796
351819
669359
1.8516e+06
1.85183e+06
669531
351828
351832
669760
1.85203e+06
1.85225e+06
669933
351849
351854
670159
1.85244e+06
1.85266e+06
670324
351871
351879
670549
1.85284e+06
1.85305e+06
670712
351893
351921
670938
1.85322e+06
1.85343e+06
671091
351907
351949
671312
1.85359e+06
1.85379e+06
671470
351961
351989
671689
1.85394e+06
1.85414e+06
671836
351978
352024
672051
1.85429e+06
1.85448e+06
672202
352029
352057
672413
1.85462e+06
1.8548e+06
672557
352068
352116
672766
1.85494e+06
1.85511e+06
672911
352121
352152
673115
1.85524e+06
1.85541e+06
673253
352164
352217
673457
1.85554e+06
1.8557e+06
673595
352222
352256
673792
1.85582e+06
1.85598e+06
673924
352269
352326
674122
1.85609e+06
1.85624e+06
674254
352332
352370
674445
1.85635e+06
1.8565e+06
674571
352383
352444
674764
1.8566e+06
1.85674e+06
674890
352451
352491
675076
1.85685e+06
1.85698e+06
675196
352506
352570
675384
1.85707e+06
1.85721e+06
675504
352578
352621
675684
1.8573e+06
1.85742e+06
675800
352636
352704
675981
1.85751e+06
1.85763e+06
676097
352712
352757
676271
1.85772e+06
1.85783e+06
676383
352773
352843
676556
1.85791e+06
1.85803e+06
676672
352862
352885
676836
1.8581e+06
1.85821e+06
676948
352934
352966
677112
1.85828e+06
1.85839e+06
677221
353002
353054
677388
1.85846e+06
1.85856e+06
677486
353063
353146
677655
1.85862e+06
1.85872e+06
677752
353136
353219
677916
1.85879e+06
1.85888e+06
678011
353213
353293
678169
1.85894e+06
1.85903e+06
678271
353314
353367
678424
1.85909e+06
1.85918e+06
678517
353363
353447
678665
1.85924e+06
1.85932e+06
678769
353469
353496
678906
1.85938e+06
1.85946e+06
679009
353555
353581
679144
1.85951e+06
1.85959e+06
679248
353640
353665
679380
1.85964e+06
1.85972e+06
679479
353721
353747
679611
1.85977e+06
1.85984e+06
679709
353805
353830
679837
1.85989e+06
1.85996e+06
679931
353886
353912
680059
1.86e+06
1.86007e+06
680153
353970
353995
680276
1.86011e+06
1.86018e+06
680366
354051
354077
680489
1.86022e+06
1.86029e+06
680580
354135
354161
680699
1.86032e+06
1.86039e+06
680786
354217
354244
680904
1.86042e+06
1.86048e+06
680991
354299
354331
681107
1.86052e+06
1.86058e+06
681188
354380
354408
681302
1.86061e+06
1.86067e+06
681385
354465
354497
681497
1.8607e+06
1.86076e+06
681574
354546
354574
681685
1.86078e+06
1.86084e+06
681764
354633
354658
681872
1.86087e+06
1.86092e+06
681946
354714
354740
682054
1.86095e+06
1.861e+06
682127
354796
354821
682233
1.86103e+06
1.86108e+06
682301
354876
354902
682408
1.86111e+06
1.86116e+06
682475
354958
354983
682580
1.86118e+06
1.86123e+06
682641
355033
355067
682749
1.86125e+06
1.86131e+06
682807
355106
355157
682914
1.86133e+06
1.86138e+06
682968
355172
355252
683078
1.8614e+06
1.86145e+06
683129
355260
355313
683233
1.86147e+06
1.86152e+06
683284
355328
355407
683390
1.86153e+06
1.86159e+06
683439
355414
355467
683539
1.8616e+06
1.86166e+06
683588
355481
355558
683690
1.86167e+06
1.86172e+06
683737
355565
355616
683832
1.86174e+06
1.86179e+06
683879
355630
355705
683977
1.86181e+06
1.86186e+06
684022
355723
355746
684113
1.86188e+06
1.86193e+06
684158
355793
355822
684250
1.86195e+06
1.862e+06
684294
355858
355901
684383
1.86203e+06
1.86208e+06
684425
355915
355983
684514
1.86211e+06
1.86216e+06
684556
356006
356025
684653
1.8622e+06
1.86225e+06
684603
356100
356031
684885
1.8623e+06
1.86236e+06
684783
356143
356170
684873
1.86239e+06
1.86246e+06
684911
356158
356227
684996
1.8625e+06
1.86257e+06
685035
356231
356273
685116
1.86261e+06
1.86269e+06
685154
356283
356346
685239
1.86273e+06
1.86281e+06
685277
356350
356391
685358
1.86286e+06
1.86295e+06
685398
356400
356464
685485
1.863e+06
1.86308e+06
685525
356467
356512
685609
1.86313e+06
1.86322e+06
685651
356519
356588
685742
1.86327e+06
1.86335e+06
685785
356600
356628
685875
1.8634e+06
1.86348e+06
685920
356670
356693
686015
1.86352e+06
1.86359e+06
686062
356742
356765
686156
1.86364e+06
1.8637e+06
686201
356813
356836
686292
1.86375e+06
1.8638e+06
686339
356892
356881
686417
1.86387e+06
1.86392e+06
686455
356971
356950
686521
1.86405e+06
1.86566e+06
686522
356989
356918
685923
1.8627e+06
1.86819e+06
688053
357485
357659
688679
1.8656e+06
1.87039e+06
689386
358413
351985
679567
1.8322e+06
1.78022e+06
657795
339113
323135
630754
1.71924e+06
151684
75710.2
45954.4
34267.8
28229.4
20157.1
17228.2
16375.6
13711.3
11370.5
9805.45
8487.59
7339.17
6344.4
5473.56
4721.05
4068.57
3506.43
3022.7
2607.74
2252.67
1949.61
1691.48
1471.97
1285.42
1126.9
992.088
877.284
779.331
695.561
623.734
561.972
508.713
462.65
422.698
387.95
357.651
331.168
307.972
287.62
269.737
254.009
240.171
227.998
217.299
207.91
199.694
192.52
186.296
180.908
176.34
172.502
169.466
167.156
165.587
164.643
164.208
163.847
163.137
162.074
160.676
159.029
157.183
155.218
153.157
151.031
148.849
146.621
144.352
142.048
139.712
137.349
134.962
132.551
130.117
127.661
125.183
122.684
120.162
117.619
115.05
112.456
109.837
107.189
104.512
101.801
99.0561
96.2727
93.4476
90.5745
87.6483
84.6619
81.607
78.283
74.1347
68.7061
62.1531
54.9251
47.5245
40.3566
33.692
27.6801
22.3865
17.8228
13.966
10.768
8.16626
6.08887
4.46196
3.21273
2.27342
1.58333
1.08804
0.741955
0.506736
0.351611
0.252376
0.190757
0.153578
0.131607
0.118734
0.111119
0.106441
0.103379
0.101209
0.0995436
0.0981809
0.0970121
0.0959754
0.0950329
0.0941593
0.0933366
0.0925511
0.0917922
0.0910514
0.0903222
0.0895984
0.0888757
0.0881502
0.0874184
0.0866777
0.0859255
0.08516
0.0843792
0.0835819
0.0827667
0.0819328
0.0810793
0.0802061
0.0793125
0.0783983
0.0774638
0.076509
0.0755346
0.0745408
0.0735286
0.072499
0.0714528
0.0703913
0.0693157
0.0682273
0.0671274
0.066018
0.0649006
0.0637766
0.062648
0.0615162
0.0603835
0.059251
0.0581203
0.0569935
0.0558723
0.0547579
0.0536522
0.0525564
0.0514716
0.0503994
0.0493409
0.0482972
0.047269
0.0462574
0.0452635
0.0442876
0.0433306
0.0423928
0.0414749
0.0405771
0.0396994
0.0388424
0.0380063
0.037191
0.0363965
0.0356229
0.03487
0.0341376
0.0334256
0.0327339
0.0320622
0.0314102
0.0307776
0.030164
0.0295691
0.0289926
0.028434
0.0278931
0.0273693
0.0268623
0.0263717
0.0258971
0.025438
0.0249941
0.0245649
0.02415
0.0237491
0.0233616
0.0229873
0.0226257
0.0222764
0.0219391
0.0216135
0.021299
0.0209954
0.0207024
0.0204195
0.0201465
0.019883
0.0196288
0.0193835
0.0191468
0.0189184
0.0186981
0.0184856
0.0182806
0.0180829
0.0178922
0.0177083
0.017531
0.01736
0.0171952
0.0170362
0.016883
0.0167354
0.0165931
0.0164559
0.0163238
0.0161965
0.0160738
0.0159558
0.015842
0.0157326
0.0156272
0.0155258
0.0154282
0.0153344
0.0152441
0.0151574
0.015074
0.014994
0.014917
0.0148432
0.0147724
0.0147044
0.0146393
0.0145769
0.0145172
0.0144601
0.0144055
0.0143533
0.0143036
0.0142562
0.0142111
0.0141682
0.0141276
0.0140891