/*--------------------------------*- C++ -*----------------------------------*\
| =========                 |                                                 |
| \\      /  F ield         | OpenFOAM: The Open Source CFD Toolbox           |
|  \\    /   O peration     | Version:  v2006                                 |
|   \\  /    A nd           | Website:  www.openfoam.com                      |
|    \\/     M anipulation  |                                                 |
\*---------------------------------------------------------------------------*/
FoamFile
{
    version     2.0;
    format      ascii;
    class       volScalarField;
    location    "0.008";
    object      alphat;
}
// * * * * * * * * * * * * * * * * * * * * * * * * * * * * * * * * * * * * * //

dimensions      [1 -1 -1 0 0 0 0];


internalField   nonuniform List<scalar> 
10108
(
34.5171
522.56
1544.34
123.352
11.5828
2.67485
1.08583
0.618138
0.432246
0.342017
0.289941
0.254338
0.227018
0.204918
0.186747
0.17167
0.158969
0.148064
0.138525
0.130035
0.122401
0.115497
0.109288
0.103799
0.0988726
0.0943557
0.0902136
0.0863948
0.0828826
0.0796652
0.0767228
0.0740371
0.0715948
0.0693814
0.0673867
0.0656026
0.0640223
0.0626401
0.0614516
0.0604538
0.0596457
0.0590281
0.0586045
0.0583808
0.0583654
0.0585703
0.0590111
0.0597084
0.0606891
0.061989
0.0636548
0.0657488
0.0683565
0.0715987
0.0756146
0.0805831
0.0866809
0.0940849
0.103329
0.117221
0.144446
0.207645
0.320105
0.531646
0.614304
0.695571
0.529816
0.265147
0.101955
0.0196053
0.00354423
0.000120894
0.000103379
0.00172534
0.00774036
0.00486053
0.00124132
9.16423e-05
8.14008e-05
0.00106121
0.00384187
0.00321775
0.000948272
7.57297e-05
6.99209e-05
0.000844174
0.00280788
0.00249158
0.000784622
6.6144e-05
6.30518e-05
0.000731419
0.00230363
0.00212123
0.000693391
6.05593e-05
5.89451e-05
0.000674611
0.00202744
0.00190426
0.000648433
5.7389e-05
5.64233e-05
0.000640107
0.00186091
0.00177701
0.00062283
5.53105e-05
5.4623e-05
0.000619003
0.00175451
0.00169717
0.00060572
5.36744e-05
5.30231e-05
0.000602668
0.00168128
0.00163087
0.000588191
5.20183e-05
5.12799e-05
0.000583311
0.00160983
0.0015534
0.000564875
5.02292e-05
4.94893e-05
0.000558606
0.00152973
0.00147305
0.000539855
4.85323e-05
4.79006e-05
0.000533329
0.00144773
0.00139297
0.000516721
4.7114e-05
4.66274e-05
0.000511444
0.00136993
0.0013206
0.000498065
4.60022e-05
4.56294e-05
0.00049447
0.00130463
0.00126415
0.000483889
4.51146e-05
4.48145e-05
0.000481347
0.00125376
0.00121999
0.000472709
4.43638e-05
4.41096e-05
0.000470677
0.00121268
0.00118406
0.000463136
4.36901e-05
4.34624e-05
0.000461445
0.00117866
0.00115412
0.000454587
4.30369e-05
4.2803e-05
0.000453003
0.00114954
0.00112685
0.000446024
4.23281e-05
4.20579e-05
0.000444238
0.00112186
0.00109871
0.000436261
4.14967e-05
4.11643e-05
0.00043396
0.00109231
0.00106686
0.0004244
4.05034e-05
4.01087e-05
0.000421462
0.00105851
0.00102983
0.000410355
3.9362e-05
3.89167e-05
0.000406937
0.00101952
0.000987536
0.000394519
3.81053e-05
3.76258e-05
0.000390644
0.000975687
0.000941313
0.000377361
3.67807e-05
3.62802e-05
0.000373184
0.000928799
0.00089394
0.000359703
3.54298e-05
3.48721e-05
0.000355251
0.000881507
0.000847531
0.000341741
3.40348e-05
3.33184e-05
0.000336451
0.000834359
0.000799474
0.000322176
3.23063e-05
3.18828e-05
0.000313432
0.000782676
0.000741599
0.000296731
3.1364e-05
3.09787e-05
0.00028398
0.000715731
0.000669422
0.000265293
3.0467e-05
2.98282e-05
0.000246966
0.000631698
0.000581893
0.000227074
2.92516e-05
2.80605e-05
0.000199858
0.000528498
0.000470429
0.000177406
2.69661e-05
2.33009e-05
0.00013611
0.000405683
0.000294
6.68142e-05
7.27629e-06
7.7883e-06
3.9888e-05
0.000193231
0.000131322
5.56763e-05
1.28122e-05
1.93488e-05
0.000128146
0.0001437
0.000271659
0.000186124
2.3934e-05
2.60827e-05
0.000240816
0.000371689
0.000439802
0.000270706
2.64802e-05
2.40747e-05
0.000285702
0.000523793
0.00054874
0.000235022
1.79008e-05
1.53244e-05
0.000198232
0.0005732
0.000517863
0.000162877
1.44029e-05
1.56883e-05
0.000167364
0.000529904
0.000542169
0.0001683
1.74867e-05
2.04127e-05
0.000211878
0.000636693
0.000674862
0.000225713
2.18765e-05
2.36387e-05
0.000270675
0.000766652
0.000799325
0.00028364
2.39886e-05
2.47299e-05
0.00031066
0.000866034
0.000892017
0.000320357
2.42191e-05
2.46117e-05
0.000341264
0.000936642
0.000996227
0.000366504
2.50069e-05
2.55414e-05
0.000393394
0.0010612
0.00112149
0.000414653
2.57266e-05
2.90142e-05
0.000437657
0.00118723
0.00122632
0.000446875
3.21334e-05
3.63978e-05
0.000467499
0.00129629
0.00132894
0.000472758
3.95522e-05
4.31683e-05
0.000483893
0.0013753
0.00135346
0.000473386
4.33902e-05
3.99214e-05
0.000464781
0.0013305
0.00129224
0.00045129
3.73586e-05
3.50112e-05
0.000433923
0.00125218
0.00122016
0.000421254
3.37821e-05
3.23764e-05
0.00039408
0.0011484
0.00106636
0.000364577
3.15738e-05
3.13001e-05
0.000284291
0.00088205
0.00077877
0.000245785
3.08746e-05
2.96101e-05
0.000165882
0.000558533
0.000487748
0.000141455
2.80227e-05
2.56139e-05
9.85147e-05
0.000333344
0.000313826
9.17249e-05
2.27472e-05
1.94368e-05
7.36297e-05
0.000257569
0.000283504
9.29862e-05
1.93826e-05
1.88282e-05
0.00014079
0.000375798
0.000607918
0.000349989
2.51411e-05
3.95768e-05
0.000466389
0.000576923
0.000518109
0.000419242
4.47246e-05
4.77925e-05
0.000323063
0.000447283
0.000311141
0.000232753
5.28608e-05
4.07461e-05
0.000121901
0.000189949
0.000192792
7.85583e-05
3.04824e-05
2.0915e-05
9.05591e-05
0.000213432
0.000237366
0.000141777
2.12986e-05
2.87547e-05
0.000175251
0.000251699
0.000254771
0.000186883
2.8374e-05
2.78744e-05
0.00019274
0.000258136
0.00025242
0.0001948
2.73547e-05
2.68128e-05
0.00019462
0.000242646
0.000229537
0.000192398
2.63168e-05
2.5846e-05
0.000189588
0.000216455
0.000202652
0.000185295
2.52856e-05
2.47069e-05
0.000179426
0.000188941
0.000173361
0.000172486
2.41741e-05
2.34608e-05
0.000162319
0.000161525
0.000148344
0.000153462
2.27559e-05
2.2067e-05
0.000145251
0.000141329
0.000128149
0.00013853
2.16084e-05
2.1009e-05
0.000126793
0.000121848
0.000109883
0.000115231
2.03733e-05
1.95238e-05
0.000106246
0.000104437
9.31097e-05
0.000100655
1.89665e-05
1.83135e-05
9.15869e-05
8.61054e-05
7.44752e-05
7.56506e-05
1.74941e-05
1.64925e-05
6.16866e-05
6.92878e-05
6.09609e-05
5.45687e-05
1.58529e-05
1.53102e-05
4.99352e-05
5.58909e-05
4.5271e-05
4.0125e-05
1.43685e-05
1.30399e-05
2.74225e-05
4.10147e-05
3.41648e-05
2.11934e-05
1.10753e-05
2.09432e-05
1.60239e-05
3.14883e-05
9.38486e-05
0.000246786
0.000272505
0.000648125
0.000623128
0.000775036
0.000865348
0.000843015
0.000697436
0.000656024
0.000395825
0.000405659
0.00010437
8.4389e-05
0.000239084
0.000550186
0.0008648
0.000864738
0.000864769
0.000864605
0.000864822
0.000865236
5.99306e-05
2.45444e-05
3.52524e-05
5.7731e-06
3.28952e-06
3.42356e-06
1.61578e-05
2.38203e-05
2.60301e-05
9.00205e-06
5.87738e-06
1.16741e-05
1.24719e-05
2.66534e-05
2.73126e-05
1.29053e-05
1.66913e-05
1.99495e-05
2.33813e-05
2.64002e-05
2.62298e-05
2.26518e-05
2.26426e-05
2.47187e-05
3.2928e-05
2.63452e-05
2.60965e-05
3.24503e-05
2.59927e-05
2.69512e-05
4.23286e-05
2.71506e-05
2.63369e-05
4.19244e-05
2.70621e-05
2.73345e-05
5.03214e-05
2.89686e-05
2.82507e-05
5.02985e-05
2.71392e-05
2.69959e-05
5.83962e-05
3.13277e-05
3.06607e-05
5.87888e-05
2.65418e-05
2.62624e-05
6.68629e-05
3.47091e-05
3.4106e-05
6.76452e-05
2.57732e-05
2.55182e-05
7.57624e-05
3.8944e-05
3.84233e-05
7.68687e-05
2.50989e-05
2.49106e-05
8.48937e-05
4.39308e-05
4.35102e-05
8.62216e-05
2.46161e-05
2.45271e-05
9.38189e-05
5.00368e-05
4.97388e-05
9.52335e-05
2.43189e-05
2.43101e-05
0.000102098
5.71803e-05
5.69655e-05
0.000103504
2.42713e-05
2.43718e-05
0.000109764
6.48875e-05
6.47354e-05
0.000111124
2.43859e-05
2.45105e-05
0.000116746
7.28244e-05
7.27196e-05
0.000118004
2.45335e-05
2.46541e-05
0.000122877
8.07228e-05
8.06776e-05
0.000124079
2.46822e-05
2.47904e-05
0.000128336
8.82462e-05
8.83111e-05
0.000129516
2.48238e-05
2.49201e-05
0.000133079
9.54309e-05
9.56029e-05
0.000134205
2.49527e-05
2.50373e-05
0.000137128
0.000102253
0.000102516
0.00013797
2.50743e-05
2.51591e-05
0.000140674
0.000108665
0.000108967
0.000141195
2.52055e-05
2.52903e-05
0.000143611
0.000114518
0.000114952
0.000143886
2.53529e-05
2.54456e-05
0.000146021
0.000119781
0.000120268
0.000146084
2.55324e-05
2.56329e-05
0.000147966
0.00012404
0.000124585
0.000147796
2.57392e-05
2.58821e-05
0.000149571
0.000127188
0.000126614
0.000149889
2.59451e-05
2.62369e-05
0.000152208
0.000129451
0.000127524
0.000152467
2.64995e-05
2.71006e-05
0.000153933
0.000129828
0.000127815
0.000152653
2.76916e-05
2.87681e-05
0.000153702
0.000128197
0.000126436
0.000152281
2.95291e-05
3.03731e-05
0.00015493
0.000126576
0.000123802
0.000154469
3.13416e-05
3.23247e-05
0.000155729
0.00012409
0.000120782
0.000155546
3.32099e-05
3.42081e-05
0.000158298
0.000119221
0.000117713
0.000160476
3.55045e-05
3.68074e-05
0.000161915
0.000112299
0.00011283
0.000167091
3.94521e-05
3.90407e-05
0.00010527
5.92213e-05
0.000114836
0.000122577
3.32315e-05
2.37948e-05
0.000120446
0.000121676
0.000116456
0.000115652
2.98196e-05
3.27422e-05
0.000110397
0.000112044
0.0001077
0.000106816
3.63477e-05
3.83591e-05
0.00010158
0.000106085
0.00010077
0.000100271
4.19688e-05
4.01804e-05
3.29654e-05
0.000123719
0.000105622
0.0001085
3.50114e-05
2.52357e-05
0.000101401
0.000104097
0.000104296
9.54296e-05
3.05219e-05
3.55963e-05
9.29056e-05
0.000101353
0.000112864
2.99381e-05
3.39298e-05
3.11645e-05
0.00010585
0.000104188
0.000103658
9.8736e-05
2.33827e-05
2.941e-05
9.59925e-05
0.000101665
8.87573e-05
2.08484e-05
2.79214e-05
2.8953e-05
0.000117678
0.000112624
6.36959e-05
6.21724e-05
1.83273e-05
2.41972e-05
0.0001347
6.32364e-05
0.000124882
9.95622e-05
3.13287e-05
5.33597e-05
7.46542e-05
9.81817e-05
3.8569e-05
2.06931e-05
8.14404e-06
5.91959e-06
4.98228e-06
1.38681e-05
2.03011e-05
1.46732e-05
1.21972e-05
1.10333e-05
1.91469e-05
2.53249e-05
2.03313e-05
1.41475e-05
8.58677e-06
1.28537e-05
1.50563e-05
1.94903e-05
2.78655e-05
2.33325e-05
1.38102e-05
1.10726e-05
1.80728e-05
2.62207e-05
2.37078e-05
1.90831e-05
1.46304e-05
1.55553e-05
2.71861e-05
3.37899e-05
3.17493e-05
2.23785e-05
1.26666e-05
1.5965e-05
2.32526e-05
2.80089e-05
3.95845e-05
3.10421e-05
1.68826e-05
1.3673e-05
2.6471e-05
3.66122e-05
3.28257e-05
2.70624e-05
1.70382e-05
1.78676e-05
3.5592e-05
4.55966e-05
4.19251e-05
3.04113e-05
1.45192e-05
1.79867e-05
3.08956e-05
3.67627e-05
5.11892e-05
3.96238e-05
1.89965e-05
1.53467e-05
3.43157e-05
4.66642e-05
4.13871e-05
3.44346e-05
1.8728e-05
1.98543e-05
4.38604e-05
5.70041e-05
5.15232e-05
3.79475e-05
1.60328e-05
1.94748e-05
3.79792e-05
4.4637e-05
6.19302e-05
4.72547e-05
2.06681e-05
1.65904e-05
4.129e-05
5.57833e-05
4.86097e-05
4.09442e-05
1.99921e-05
2.1254e-05
5.05595e-05
6.71395e-05
5.97275e-05
4.40846e-05
1.70454e-05
2.04977e-05
4.34216e-05
5.09888e-05
7.08364e-05
5.23053e-05
2.18063e-05
1.73598e-05
4.60315e-05
6.23732e-05
5.3436e-05
4.447e-05
2.06982e-05
2.17529e-05
5.24296e-05
7.56242e-05
6.43769e-05
4.5427e-05
1.70507e-05
1.89514e-05
4.40387e-05
5.26981e-05
7.67351e-05
7.85145e-05
1.71199e-05
2.28322e-05
5.56294e-05
6.8397e-05
9.1936e-05
6.52158e-05
2.29794e-05
1.81279e-05
5.50339e-05
7.5138e-05
6.53605e-05
5.22368e-05
2.16798e-05
2.2855e-05
6.27769e-05
9.32494e-05
7.58186e-05
5.28175e-05
1.7682e-05
1.94793e-05
5.04093e-05
6.33272e-05
9.38861e-05
9.07748e-05
1.76495e-05
2.32338e-05
6.23845e-05
8.11756e-05
0.000114204
7.55985e-05
2.32535e-05
1.81251e-05
5.98101e-05
8.86001e-05
7.17285e-05
5.61792e-05
2.0074e-05
1.80161e-05
9.57574e-05
0.00010628
8.9289e-05
6.57678e-05
2.31998e-05
2.33294e-05
8.18269e-05
0.000128491
9.28134e-05
6.19953e-05
1.81531e-05
2.00469e-05
5.83291e-05
7.793e-05
0.000117838
0.000105682
1.78731e-05
2.31695e-05
6.86654e-05
9.31189e-05
0.000137698
8.65679e-05
2.34444e-05
1.81281e-05
6.45336e-05
9.94391e-05
7.80597e-05
5.93233e-05
1.98861e-05
1.76448e-05
0.000108249
0.000119701
9.72304e-05
6.89499e-05
2.29938e-05
2.32184e-05
8.86713e-05
0.000146649
9.94894e-05
6.36959e-05
1.79779e-05
1.98035e-05
5.84928e-05
8.02994e-05
0.00012576
0.000111231
1.75003e-05
2.28321e-05
6.84423e-05
9.70444e-05
0.000152088
8.88287e-05
2.30753e-05
1.78591e-05
6.22888e-05
0.000102531
7.71901e-05
5.68053e-05
1.9693e-05
1.6564e-05
0.000106227
0.000123183
9.265e-05
6.43083e-05
2.02793e-05
1.79936e-05
0.000122701
0.000146902
0.000106116
7.16715e-05
2.3182e-05
2.31387e-05
9.63274e-05
0.000176059
0.000107675
6.23635e-05
1.75731e-05
1.95249e-05
5.58479e-05
8.00563e-05
0.00013288
0.000112661
1.65372e-05
2.02948e-05
6.4421e-05
9.73541e-05
0.000162703
0.00012901
1.80138e-05
2.27483e-05
7.12354e-05
0.000111524
0.000196279
0.000104983
2.28376e-05
1.74088e-05
6.20198e-05
0.0001151
8.27531e-05
5.40783e-05
1.96192e-05
1.68139e-05
0.000115563
0.000147305
9.78244e-05
6.18558e-05
2.02951e-05
1.73119e-05
0.000133018
0.000175111
0.000108989
6.63961e-05
2.04323e-05
1.80939e-05
0.000147633
0.000195384
0.000122977
7.0289e-05
2.24759e-05
2.28164e-05
0.000117484
0.000235025
0.000125519
6.01259e-05
1.72071e-05
1.95618e-05
5.26083e-05
8.718e-05
0.000165769
0.000130176
1.69911e-05
2.03001e-05
5.97955e-05
0.000105003
0.000204571
0.000150628
1.78486e-05
2.07402e-05
6.5784e-05
0.000122281
0.00024092
0.000178462
1.89998e-05
2.27555e-05
7.35776e-05
0.000144467
0.000315363
0.000150838
2.35994e-05
1.72444e-05
6.47523e-05
0.000155169
0.000101381
5.24121e-05
1.96962e-05
1.82848e-05
0.00015722
0.000220255
0.000125004
6.02307e-05
2.12266e-05
1.97679e-05
0.000174352
0.000280369
0.000142874
6.69777e-05
2.18945e-05
2.07236e-05
0.000203996
0.000332877
0.000168118
7.49361e-05
2.22373e-05
2.1676e-05
0.000264908
0.000409825
0.000207846
8.57042e-05
2.3127e-05
2.54836e-05
0.000246768
0.000530434
0.000219171
7.50749e-05
1.6859e-05
1.894e-05
4.91713e-05
0.000119928
0.000331303
0.000193406
1.85703e-05
1.93623e-05
5.49353e-05
0.000136673
0.000357846
0.000195912
1.88603e-05
1.88826e-05
5.4048e-05
0.000137814
0.000356827
0.000196454
1.85277e-05
1.8149e-05
5.23488e-05
0.000131084
0.000338278
0.000205492
1.83535e-05
1.86985e-05
5.40839e-05
0.000136727
0.000355999
0.000177023
2.15047e-05
1.41163e-05
5.08e-05
0.000147113
9.56434e-05
3.68663e-05
1.70724e-05
2.01192e-05
0.000160117
0.000268773
0.000149591
5.5466e-05
2.07047e-05
2.69118e-05
0.000240362
0.000437065
0.000237942
8.13753e-05
2.51128e-05
3.5668e-05
0.000371691
0.000697226
0.000373207
0.000124703
3.17033e-05
4.62754e-05
0.000549131
0.00107665
0.000608757
0.00019424
3.91961e-05
5.81309e-05
0.000741569
0.00152114
0.000870328
0.000298154
1.8046e-05
1.20403e-05
0.000163873
0.000606564
0.000960958
0.000373561
2.33859e-05
1.30092e-05
0.000282167
0.000860006
0.000896732
0.000322854
1.6576e-05
2.25534e-05
0.000380833
0.00100595
0.000622967
0.000205992
1.08291e-05
3.06427e-05
0.000484417
0.00120722
0.000494825
0.000153709
1.69879e-05
3.26715e-05
0.000417064
0.000982854
0.000865316
0.000320245
3.11587e-05
1.10653e-05
6.43178e-05
0.000277522
0.000761912
0.000376477
2.46363e-05
1.96246e-05
8.70148e-05
0.000301811
0.0007096
0.00039515
2.95623e-05
2.35876e-05
9.33535e-05
0.000292124
0.000630712
0.000365631
2.76613e-05
2.39098e-05
9.22075e-05
0.000258795
0.000557813
0.000331933
2.61621e-05
2.44516e-05
9.2366e-05
0.000237418
0.000551794
0.000257464
2.61161e-05
2.72877e-05
0.000184143
0.000453033
0.000130461
4.91681e-05
1.85551e-05
1.89267e-05
0.000220077
0.00030371
0.000139533
6.60873e-05
2.1057e-05
1.99866e-05
0.000199932
0.000312714
0.000143598
6.86233e-05
2.18484e-05
1.98217e-05
0.000189524
0.000300763
0.000143668
7.07577e-05
2.19122e-05
1.99348e-05
0.000186748
0.000295873
0.00014818
7.50267e-05
2.2519e-05
2.10106e-05
0.000160192
0.000317877
0.000259553
0.000130946
2.45792e-05
1.86561e-05
5.40049e-05
0.000103476
0.000189549
0.000145182
1.65443e-05
2.05951e-05
6.80617e-05
0.000108923
0.000200014
0.000145069
1.76236e-05
2.11914e-05
7.17873e-05
0.000114226
0.000207305
0.000143831
1.80716e-05
2.1468e-05
7.3474e-05
0.000118115
0.000223936
0.000128299
1.88812e-05
2.32878e-05
0.000108398
0.000186586
9.17928e-05
6.04049e-05
1.85466e-05
1.57016e-05
0.000117614
0.000139094
9.17195e-05
7.08517e-05
2.04586e-05
1.68546e-05
0.000112808
0.000144016
9.47312e-05
7.31773e-05
2.08274e-05
1.7009e-05
0.000112189
0.000148774
9.78277e-05
7.60334e-05
2.11647e-05
1.82358e-05
0.000111249
0.000172119
0.000150487
9.99281e-05
2.30854e-05
1.88304e-05
6.99254e-05
8.48433e-05
0.000126625
0.000108303
1.58126e-05
2.08407e-05
7.72043e-05
8.91547e-05
0.000135183
0.000107731
1.69397e-05
2.17335e-05
8.23626e-05
9.40213e-05
0.000154427
0.000104897
1.83868e-05
2.37731e-05
9.66488e-05
0.00013753
8.3969e-05
7.48642e-05
1.92412e-05
1.59603e-05
0.000106198
0.000120446
8.94202e-05
8.13631e-05
2.15996e-05
1.75379e-05
0.000104453
0.000129618
9.49308e-05
8.72909e-05
2.29151e-05
1.92673e-05
0.000104117
0.000146746
0.000133868
9.87947e-05
2.54413e-05
2.08211e-05
8.34154e-05
8.9399e-05
0.000120047
0.000108194
1.69132e-05
2.34521e-05
9.09464e-05
9.43327e-05
0.000136196
0.000102042
1.98631e-05
2.67552e-05
9.87972e-05
0.000126724
9.04577e-05
8.70589e-05
2.21933e-05
1.80749e-05
0.0001066
0.00011521
9.55352e-05
9.4886e-05
2.47042e-05
2.04927e-05
0.000101512
0.000129588
0.000121983
9.97527e-05
2.80531e-05
2.38189e-05
9.30825e-05
9.35817e-05
0.000113584
0.000107629
1.93766e-05
2.66161e-05
0.000100994
9.89464e-05
0.000126384
0.000103869
2.18022e-05
2.90894e-05
0.000102111
0.000119992
9.69323e-05
9.77594e-05
2.47537e-05
2.03406e-05
0.000108426
0.000112702
0.000102317
0.000106883
2.83354e-05
2.3432e-05
0.000106075
0.000124781
0.000119465
0.000106827
3.17556e-05
2.63389e-05
0.00010707
0.000103298
0.000115755
0.000114944
2.10307e-05
2.98927e-05
0.000115683
0.00010839
0.000129092
0.000111895
2.50801e-05
3.41721e-05
0.00011414
0.00012466
0.000112197
0.000120064
2.92633e-05
2.41958e-05
0.000121142
0.000127638
0.000124221
0.000120667
3.35883e-05
3.04572e-05
0.000124326
0.000115821
0.000129028
0.000123685
2.61224e-05
3.67856e-05
0.00012244
0.00012647
0.000119303
0.000127287
3.20225e-05
2.63464e-05
0.000124087
0.000129452
0.000126785
0.000124024
3.70429e-05
3.34507e-05
0.000133105
0.000122731
0.000131593
0.000128227
2.8446e-05
3.94349e-05
0.000125477
0.000129581
0.000125189
0.000135245
3.43296e-05
2.87854e-05
0.000129804
0.000132209
0.00013023
0.00013004
4.15315e-05
3.70738e-05
0.000147541
0.00013201
0.000136845
0.000134988
3.0221e-05
4.31946e-05
0.000149968
0.000137014
0.000133723
0.00014799
4.20405e-05
3.92908e-05
0.000155182
0.000140671
0.00014176
0.000142113
3.32724e-05
4.77751e-05
0.00014094
0.000140075
0.00013961
0.000163595
5.0527e-05
4.55095e-05
0.000151149
0.000137163
0.000145088
0.00015777
4.33983e-05
3.78994e-05
0.000145316
0.000144698
0.000143724
0.000142547
5.70279e-05
5.7943e-05
0.000163866
0.000142381
0.000140537
0.000156822
6.22911e-05
6.70854e-05
0.000167025
0.000143122
0.000142063
0.000162026
7.42933e-05
8.03395e-05
0.000172425
0.000146012
0.000147905
0.000175829
8.46577e-05
8.50652e-05
0.000188763
0.000152508
0.000153937
0.000195272
8.24969e-05
7.96427e-05
0.000206539
0.00015955
0.00016196
0.000217522
7.63168e-05
7.3204e-05
0.000229538
0.000170011
0.000173412
0.000240422
6.99629e-05
6.71959e-05
0.000252892
0.000184388
0.000188428
0.000252328
6.45719e-05
6.23821e-05
0.000261124
0.000201918
0.000207199
0.000264309
6.03735e-05
5.86636e-05
0.000269377
0.000225798
0.000232744
0.000273032
5.7103e-05
5.57705e-05
0.000277148
0.000255125
0.000262898
0.000280731
5.45633e-05
5.35365e-05
0.000285522
0.000285995
0.00029498
0.000289747
5.26338e-05
5.18594e-05
0.000294856
0.000318657
0.000327305
0.000299627
5.12251e-05
5.06434e-05
0.000305221
0.000352088
0.000353484
0.000310445
5.02558e-05
4.97956e-05
0.000316273
0.000377475
0.000378491
0.0003221
4.96611e-05
4.92725e-05
0.000328229
0.000402
0.000403295
0.000334378
4.93612e-05
4.90611e-05
0.000340365
0.000425986
0.000426923
0.000346414
4.9246e-05
4.90482e-05
0.000352162
0.000448468
0.000449074
0.000357856
4.92647e-05
4.9174e-05
0.000363329
0.000469384
0.000469501
0.000368626
4.93874e-05
4.93452e-05
0.000373876
0.000488561
0.00048823
0.000378552
4.95454e-05
4.95355e-05
0.000383366
0.000505739
0.000505136
0.000387473
4.97214e-05
4.97191e-05
0.000391957
0.000521354
0.000520478
0.000395412
4.98856e-05
4.98922e-05
0.000399418
0.00053555
0.000534442
0.000402353
5.00426e-05
5.00374e-05
0.000405912
0.000548439
0.000547086
0.000408276
5.01705e-05
5.01603e-05
0.000411311
0.000560245
0.000558626
0.000413194
5.02832e-05
5.02596e-05
0.000415908
0.000570984
0.000569187
0.000417313
5.0371e-05
5.0343e-05
0.000419623
0.000580858
0.000578925
0.000420629
5.04463e-05
5.04052e-05
0.000422711
0.000589955
0.00058782
0.000423358
5.04985e-05
5.04551e-05
0.000425033
0.00059892
0.000596293
0.000425535
5.05011e-05
5.05305e-05
0.000427004
0.000606946
0.000604356
0.000427149
5.05715e-05
5.05175e-05
0.000428667
0.00061487
0.00061214
0.00042863
5.06003e-05
5.05439e-05
0.00043
0.000622227
0.000619189
0.000429731
5.06224e-05
5.05646e-05
0.000430942
0.000629273
0.000625799
0.000430589
5.06425e-05
5.05843e-05
0.000431714
0.00063579
0.000631807
0.000431157
5.06588e-05
5.06e-05
0.000432126
0.000641679
0.000637509
0.000431535
5.06723e-05
5.06133e-05
0.000432454
0.000647271
0.000642771
0.000431689
5.06827e-05
5.06247e-05
0.000432469
0.000652513
0.000647845
0.000431709
5.06915e-05
5.06338e-05
0.000432477
0.000657502
0.000652565
0.000431571
5.06982e-05
5.06423e-05
0.000432219
0.00066217
0.000657115
0.000431346
5.07047e-05
5.065e-05
0.000432026
0.000666621
0.000661334
0.000431028
5.07108e-05
5.06584e-05
0.000431597
0.000670754
0.000665397
0.00043066
5.07172e-05
5.06663e-05
0.000431285
0.000674724
0.000669171
0.000430233
5.07237e-05
5.06754e-05
0.000430755
0.000678394
0.000672815
0.000429777
5.07312e-05
5.06846e-05
0.000430372
0.000681949
0.000676208
0.000429288
5.07394e-05
5.06956e-05
0.000429795
0.000685234
0.000679439
0.000428795
5.07491e-05
5.07072e-05
0.000429389
0.000688525
0.000682582
0.000428296
5.07598e-05
5.0721e-05
0.000428811
0.000690678
0.000685439
0.000427808
5.07724e-05
5.07359e-05
0.000428417
0.000691863
0.000688068
0.000427318
5.07861e-05
5.07527e-05
0.000427838
0.000692954
0.000690424
0.000426822
5.0801e-05
5.07697e-05
0.000427429
0.000693834
0.000692639
0.000426314
5.08162e-05
5.07879e-05
0.000426838
0.000694693
0.000694662
0.000425832
5.08323e-05
5.08054e-05
0.000426425
0.00069542
0.000696589
0.000425327
5.08475e-05
5.08232e-05
0.000425842
0.000696091
0.000698369
0.000424865
5.08631e-05
5.08398e-05
0.000425443
0.000696732
0.000700081
0.000424379
5.0877e-05
5.08562e-05
0.000424886
0.000697284
0.000701671
0.000423944
5.08913e-05
5.08713e-05
0.000424515
0.000697817
0.000702453
0.000423492
5.09038e-05
5.08859e-05
0.000423994
0.000698218
0.000703109
0.000423091
5.09164e-05
5.08988e-05
0.000423647
0.000698579
0.000703258
0.000422659
5.09265e-05
5.09105e-05
0.000423147
0.000698829
0.000703783
0.000422275
5.0936e-05
5.092e-05
0.000422816
0.000699075
0.000703832
0.000421859
5.09424e-05
5.09279e-05
0.000422339
0.000699236
0.000704276
0.000421494
5.09486e-05
5.09319e-05
0.000422026
0.00069942
0.000704268
0.000421099
5.09506e-05
5.09344e-05
0.000421576
0.000699536
0.000704656
0.000420757
5.09521e-05
5.09336e-05
0.000421286
0.000699677
0.000704589
0.000420386
5.09492e-05
5.09311e-05
0.00042086
0.000699753
0.000704921
0.000420068
5.0946e-05
5.09263e-05
0.000420594
0.000699865
0.000704839
0.000419721
5.09395e-05
5.09202e-05
0.000420195
0.000699937
0.000705169
0.000419431
5.09334e-05
5.09131e-05
0.000419961
0.000700047
0.000705078
0.000419114
5.0925e-05
5.09054e-05
0.000419592
0.000700112
0.000705396
0.000418856
5.09175e-05
5.08974e-05
0.00041939
0.000700209
0.00070529
0.00041857
5.09087e-05
5.08894e-05
0.000419054
0.000700268
0.00070561
0.000418344
5.09011e-05
5.08815e-05
0.000418886
0.000700376
0.000705518
0.000418093
5.08925e-05
5.08735e-05
0.000418581
0.000700459
0.000705865
0.000417898
5.0885e-05
5.08658e-05
0.000418441
0.000700595
0.000705791
0.00041767
5.08765e-05
5.08577e-05
0.00041816
0.000700683
0.000706128
0.000417495
5.08687e-05
5.08493e-05
0.000418041
0.000700799
0.000706028
0.000417288
5.08596e-05
5.08406e-05
0.000417779
0.000700876
0.000706369
0.000417131
5.08512e-05
5.08313e-05
0.000417676
0.000701011
0.000706292
0.000416935
5.08411e-05
5.08216e-05
0.000417423
0.000701099
0.00070662
0.000416785
5.08315e-05
5.0811e-05
0.000417325
0.000701193
0.000706478
0.000416594
5.08201e-05
5.08001e-05
0.00041708
0.000701217
0.000706756
0.000416451
5.08094e-05
5.07886e-05
0.000416993
0.000701292
0.000706624
0.000416272
5.07971e-05
5.0777e-05
0.000416757
0.000701348
0.000706932
0.000416136
5.07855e-05
5.07651e-05
0.000416672
0.00070143
0.000706771
0.000415956
5.07729e-05
5.07534e-05
0.000416435
0.000701429
0.000707012
0.00041582
5.07615e-05
5.07419e-05
0.000416356
0.000701458
0.000706826
0.000415645
5.07494e-05
5.07305e-05
0.00041612
0.00070147
0.000707096
0.000415509
5.07388e-05
5.07203e-05
0.000416038
0.000701516
0.000706891
0.000415328
5.07283e-05
5.07105e-05
0.000415795
0.000701471
0.000707076
0.000415188
5.07193e-05
5.07022e-05
0.000415713
0.000701437
0.000706817
0.000415009
5.07112e-05
5.06955e-05
0.000415474
0.000701383
0.000707034
0.000414872
5.07054e-05
5.06901e-05
0.000415395
0.0007014
0.00070682
0.000414693
5.07001e-05
5.0686e-05
0.000415149
0.000701362
0.00070701
0.000414545
5.06969e-05
5.06832e-05
0.000415054
0.000701313
0.000706702
0.000414347
5.06941e-05
5.06814e-05
0.000414789
0.000701175
0.000706802
0.00041418
5.06926e-05
5.06795e-05
0.000414679
0.00070106
0.00070645
0.000413966
5.06903e-05
5.06781e-05
0.000414395
0.000700897
0.000706523
0.000413781
5.06892e-05
5.06755e-05
0.00041425
0.000700678
0.00070617
0.000413559
5.06852e-05
5.06707e-05
0.000414051
0.00070059
0.000705838
0.000413692
5.07159e-05
5.07299e-05
0.000414054
0.000700383
0.000705858
0.000413288
5.07446e-05
5.07501e-05
0.000413878
0.000700119
0.00070609
0.000413596
5.08535e-05
5.09407e-05
0.000414494
0.000700708
0.000708874
0.000414768
5.1185e-05
5.11641e-05
0.000416423
0.000703566
0.000713666
0.000417286
5.17249e-05
5.18324e-05
0.000418436
0.000708088
0.000730723
0.000424575
5.36651e-05
5.58919e-05
0.000436452
0.000764875
0.000791853
0.000457279
5.86753e-05
0.00105193
0.00102921
0.00111706
0.00117227
0.00101063
0.00212714
0.00290571
0.00341398
0.00362328
0.0101772
0.0142702
0.0189803
0.0244044
0.0306161
0.0380565
0.0472547
0.0591351
0.0746004
0.0944998
0.119391
0.149529
0.184827
0.224902
0.268947
0.315999
0.364041
0.411298
0.453898
0.489615
0.515895
0.532419
0.540362
0.544108
0.548747
0.554015
0.559703
0.565815
0.572255
0.578989
0.586068
0.593533
0.601457
0.609903
0.618937
0.628602
0.638968
0.650149
0.662196
0.675207
0.689319
0.704678
0.72145
0.739867
0.760329
0.783387
0.80984
0.80301
0.602284
0.491522
0.426607
0.375187
0.329651
0.289677
0.255131
0.225351
0.199556
0.177172
0.157715
0.140788
0.126019
0.113117
0.101829
0.0919231
0.083258
0.0756595
0.0689927
0.0631598
0.0580448
0.0535731
0.0496752
0.0462769
0.0433335
0.0407883
0.0385987
0.0367258
0.0351323
0.0337887
0.0326661
0.0317427
0.0309951
0.0304075
0.0299595
0.0296372
0.0294239
0.0293086
0.0292763
0.0293183
0.029439
0.0296385
0.0299093
0.0302437
0.0306377
0.0310932
0.031603
0.0321643
0.0327758
0.0334343
0.0341386
0.0348843
0.0356699
0.0364905
0.0373502
0.0382411
0.0391737
0.0401415
0.041139
0.0421523
0.043166
0.044164
0.0451343
0.0460789
0.0469981
0.047905
0.0487959
0.0496392
0.0504723
0.0513431
0.052277
0.0532725
0.0543315
0.0554688
0.0567083
0.0580743
0.0595878
0.0612641
0.0631112
0.0651302
0.067315
0.0696505
0.0721112
0.0746648
0.0772809
0.0799369
0.0826168
0.0853186
0.0880729
0.0909478
0.0940496
0.097536
0.101632
0.106774
0.113235
0.121161
0.131039
0.143265
0.158089
0.175597
0.195654
0.217899
0.241863
0.267517
0.296267
0.330417
0.373395
0.42869
0.495204
0.629129
1.18727
5.17312
3.57463
2.1977
1.2945
0.778177
0.530676
0.417246
0.362755
0.330776
0.305254
0.280911
0.257536
0.236162
0.217312
0.20086
0.186419
0.173636
0.1623
0.152312
0.143566
0.135819
0.12869
0.122094
0.116084
0.110586
0.105562
0.100974
0.0967779
0.0929362
0.0894186
0.086195
0.0832527
0.080581
0.0781689
0.0760084
0.0740921
0.0724133
0.0709665
0.0697478
0.0687567
0.0679945
0.0674656
0.0671769
0.0671397
0.0673698
0.0678886
0.0687238
0.0699124
0.0715031
0.0735582
0.0761582
0.0794036
0.0834052
0.0882253
0.0937358
0.0996971
0.106648
0.11909
0.149511
0.228811
0.407583
0.280909
0.0844624
0.0385072
0.0131804
0.0110074
0.00994877
0.00875789
0.00819216
0.00745531
0.00712033
0.00663338
0.00643409
0.00611079
0.00599147
0.00574787
0.00564691
0.00542428
0.00531876
0.00510201
0.00498828
0.00476951
0.00466316
0.00445895
0.00437214
0.00419574
0.00412969
0.00398034
0.00392835
0.00380034
0.00375805
0.0036489
0.00361353
0.00351727
0.0034854
0.00339542
0.00336375
0.003274
0.00323952
0.00314412
0.00310412
0.00299845
0.00295234
0.00283695
0.00278693
0.00266762
0.00261731
0.00250097
0.00245124
0.00233718
0.00228355
0.0021622
0.00209484
0.00195544
0.0018662
0.00170892
0.00159298
0.00140993
0.00124314
0.00103044
0.000842646
0.000648132
0.000503689
0.000460643
0.000482545
0.000571623
0.000709257
0.000814043
0.000888153
0.000842354
0.000948791
0.00107154
0.00128357
0.00146487
0.00159241
0.00166345
0.00173606
0.00179788
0.0018601
0.00197292
0.00203077
0.00212044
0.00213995
0.00223823
0.00240472
0.00272404
0.00308888
0.00309911
0.00308623
0.00303081
0.00299667
0.00295004
0.00283338
0.00271379
0.00239289
0.00216843
0.00168781
0.0014918
0.000901803
0.000665556
0.000440558
0.000365835
0.000728643
0.000826788
0.000648762
0.000513789
0.000408043
0.000324751
0.000295961
0.000286533
0.000273018
0.000246499
0.000226842
0.000211312
0.000194477
0.000184115
0.000172036
0.000164423
0.000158646
0.000150006
0.000147532
0.000140831
0.000139493
0.000134455
0.000133706
0.000128613
0.000127465
0.000122558
0.000121895
0.000116922
0.000114285
0.000110507
0.000108401
0.000105503
0.000101994
9.95442e-05
9.71627e-05
9.42778e-05
0.000248279
0.000278241
0.000285621
0.000251863
0.000251499
0.000287133
0.000304659
0.000248752
0.000225451
0.000290228
0.000664542
0.000626101
0.000640672
0.000642549
0.00062221
0.000633802
0.000554527
0.000641304
0.000694151
0.000759487
0.000865777
0.000866819
0.000783451
0.000721934