/*--------------------------------*- C++ -*----------------------------------*\
| =========                 |                                                 |
| \\      /  F ield         | OpenFOAM: The Open Source CFD Toolbox           |
|  \\    /   O peration     | Version:  v2006                                 |
|   \\  /    A nd           | Website:  www.openfoam.com                      |
|    \\/     M anipulation  |                                                 |
\*---------------------------------------------------------------------------*/
FoamFile
{
    version     2.0;
    format      ascii;
    class       volScalarField;
    location    "0.008";
    object      Co;
}
// * * * * * * * * * * * * * * * * * * * * * * * * * * * * * * * * * * * * * //

dimensions      [0 0 0 0 0 0 0];


internalField   nonuniform List<scalar> 
10108
(
0.00701805
0.00671975
0.00728705
0.00753321
0.00762624
0.00744313
0.00744775
0.00736854
0.00728652
0.00725098
0.00718955
0.00716267
0.00713431
0.0071114
0.00708503
0.00705685
0.00702623
0.00699361
0.00695905
0.00692256
0.00688406
0.00684353
0.00680122
0.00675707
0.00671125
0.00666381
0.00661481
0.00656431
0.00651239
0.00645911
0.00640459
0.00634892
0.00629221
0.00623459
0.00617621
0.00611719
0.0060577
0.0059979
0.00593795
0.00587803
0.00581832
0.00575899
0.00570021
0.00564217
0.00558503
0.00552898
0.00547417
0.00542077
0.00536892
0.00531878
0.00527048
0.00522403
0.00517855
0.00513677
0.00509873
0.00506636
0.00504171
0.00504855
0.00508042
0.00521871
0.00548449
0.00614153
0.00764013
0.0110372
0.0166278
0.0130285
0.0112174
0.0111142
0.0108671
0.0104241
0.010332
0.00996173
0.00895996
0.00972002
0.0101765
0.009447
0.00950126
0.00908799
0.00751535
0.00806726
0.00821312
0.00822513
0.00826613
0.00778061
0.00707575
0.0077516
0.00793448
0.00807744
0.00794311
0.00725402
0.00706492
0.00782461
0.00800122
0.00808257
0.00789143
0.00709925
0.00701791
0.00785772
0.00806359
0.00807464
0.00786325
0.00697688
0.00690268
0.00778722
0.00802332
0.00802024
0.00777677
0.00683632
0.00676799
0.00769781
0.00796102
0.007952
0.0076824
0.00670149
0.00663552
0.00760243
0.00788969
0.00787784
0.0075854
0.00656967
0.00650286
0.00750393
0.00781322
0.00779783
0.00748392
0.00643527
0.00636644
0.00739965
0.00772997
0.00771015
0.00737568
0.00629721
0.00622734
0.00728816
0.00763854
0.0076141
0.00726013
0.00615776
0.00608798
0.00716963
0.00753878
0.00750978
0.00713781
0.00601862
0.00594886
0.00704457
0.00743081
0.00739714
0.00700892
0.00587907
0.00580827
0.00691267
0.00731433
0.00727567
0.00687266
0.00573681
0.00566372
0.00677281
0.00718862
0.00714449
0.00672778
0.00558941
0.0055129
0.00662383
0.00705287
0.00700309
0.00657336
0.00543478
0.00535399
0.00646509
0.00690684
0.00685121
0.00640861
0.00527077
0.00518415
0.00629525
0.00674993
0.00668771
0.00623181
0.00509453
0.00500106
0.00611264
0.00658098
0.00651144
0.00604139
0.00490423
0.0048033
0.00591565
0.00639867
0.00632101
0.00583572
0.00469892
0.00459052
0.00570288
0.00620153
0.0061154
0.00561393
0.00447873
0.00436277
0.00547365
0.00598881
0.00589346
0.00537494
0.00424312
0.00411881
0.00522659
0.00575921
0.00565428
0.00511745
0.0039902
0.00385597
0.00496044
0.0055123
0.00539763
0.00483981
0.0037161
0.00356875
0.00467286
0.00524788
0.0051235
0.00453946
0.00341316
0.00324564
0.00436054
0.00496575
0.00482928
0.00420881
0.00306502
0.00286882
0.00401041
0.00465977
0.0045075
0.00383311
0.00265638
0.00242329
0.00360814
0.00432366
0.004153
0.00339599
0.00216677
0.00187778
0.00313439
0.00395473
0.00376188
0.0028604
0.0015457
0.00116553
0.00261289
0.00361663
0.00341166
0.00227796
0.000711951
0.000562219
0.00153293
0.00292014
0.00226981
0.000807581
0.000750143
0.00091516
0.000668523
0.00147705
0.00070574
0.00084873
0.00105309
0.00109492
0.000860683
0.000346385
0.000349671
0.000859992
0.00110029
0.00107622
0.000924507
0.000475918
0.000464185
0.000844545
0.000972547
0.000903933
0.000819762
0.000518423
0.000672317
0.000837703
0.000874246
0.000903068
0.000876132
0.000714702
0.000878879
0.00100018
0.000988398
0.00102001
0.000981225
0.000825107
0.000882894
0.00102784
0.00107003
0.00107369
0.00102484
0.000897106
0.000862197
0.000983763
0.00103929
0.00100205
0.000985922
0.000911429
0.000820002
0.000881934
0.000896304
0.000778611
0.00077187
0.000731453
0.000629103
0.000643405
0.000631722
0.000450126
0.000482217
0.000570906
0.000723372
0.000486022
0.000268698
0.000328635
0.000720595
0.00102021
0.00131452
0.00101446
0.000618149
0.000919254
0.00133153
0.00162608
0.00188883
0.0016109
0.00120924
0.00149562
0.00190086
0.00215615
0.00234658
0.00212498
0.00175112
0.00198281
0.00234869
0.00253818
0.00271978
0.00255123
0.00220232
0.00238442
0.00271965
0.00285056
0.00297828
0.00286498
0.00254664
0.00259958
0.00286018
0.00289866
0.00281919
0.00282337
0.00259948
0.00259117
0.00296528
0.00304915
0.00290152
0.00282932
0.00241774
0.0022513
0.00282799
0.00303309
0.00257731
0.0024534
0.00192128
0.00170751
0.00236874
0.00259824
0.00200119
0.00192182
0.0013925
0.00130247
0.00187258
0.00203201
0.00180439
0.00192742
0.00143752
0.0018241
0.00217434
0.00174471
0.0019135
0.00251093
0.00232321
0.00251365
0.00235716
0.00152105
0.00147703
0.00226265
0.0025149
0.00244264
0.0023276
0.00159561
0.00165323
0.00199069
0.00212264
0.00173629
0.00143622
0.00247297
0.00345196
0.00137056
0.00136407
0.000925348
0.00222517
0.00418529
0.00461207
0.00287619
0.000832585
0.00121634
0.00315218
0.00480224
0.00505518
0.00348392
0.00160433
0.00192378
0.00380401
0.00530695
0.00550584
0.00403407
0.00218021
0.00239003
0.00426153
0.00569443
0.00583541
0.00441047
0.00255405
0.00268595
0.00457571
0.00598814
0.00608593
0.00466957
0.00278453
0.00286065
0.00478966
0.00620488
0.00627394
0.00484208
0.0029099
0.00294433
0.00493073
0.00636187
0.00641182
0.00495716
0.00296136
0.00297257
0.00502529
0.0064811
0.00650975
0.00503243
0.00297221
0.00297172
0.00508746
0.00656882
0.00659294
0.00510697
0.00296035
0.00293339
0.00512325
0.00661361
0.00661905
0.00512711
0.00288381
0.00284348
0.00510587
0.00659706
0.00651429
0.00501006
0.00271295
0.00270361
0.00503946
0.00654141
0.00637767
0.00481502
0.00250348
0.00276076
0.00518858
0.00665594
0.00645855
0.00488997
0.002534
0.00302567
0.00565094
0.00718434
0.00765113
0.00570659
0.00293376
0.00324212
0.00614393
0.00800954
0.00981475
0.0102316
0.0107952
0.0111251
0.0111382
0.0113836
0.0114523
0.0116485
0.0117585
0.0120807
0.0121972
0.0127965
0.0128963
0.01553
0.0164015
0.0170194
0.0175968
0.0184712
0.0205003
0.0253698
0.0370205
0.0550752
0.0428472
0.0383371
0.042864
0.0463336
0.0361357
0.0472498
0.0891268
0.124299
0.0827755
0.0649429
0.0408382
0.0309726
0.0414014
0.0445417
0.0387554
0.0380373
0.0298189
0.0271878
0.0354789
0.036405
0.0355963
0.0345758
0.0265233
0.0259723
0.0349815
0.0365436
0.0351557
0.0337938
0.0252191
0.0251553
0.0342056
0.036183
0.0349719
0.0331028
0.0242877
0.0241976
0.0338002
0.0361539
0.0349371
0.0325458
0.0234977
0.0234934
0.0330852
0.0358276
0.034819
0.03208
0.0228646
0.0228694
0.0325334
0.0356035
0.0346713
0.0316548
0.0223998
0.0224041
0.0320039
0.0353575
0.0345051
0.031251
0.0220565
0.0220606
0.0315029
0.0350855
0.0343066
0.0308639
0.0218138
0.0218178
0.0310458
0.0348066
0.0340957
0.0305078
0.0216492
0.0216532
0.0306308
0.0344772
0.0338962
0.0301761
0.0215379
0.0215421
0.0302654
0.0342219
0.0336323
0.0298873
0.0214692
0.0214736
0.0299395
0.0338889
0.0334347
0.0296348
0.0214372
0.0214418
0.0296635
0.0336401
0.0331898
0.0294291
0.0214371
0.021442
0.0294295
0.0333324
0.0330308
0.0292653
0.0214674
0.0214728
0.0292446
0.0331207
0.0328455
0.0291547
0.0215295
0.0215354
0.0291049
0.032901
0.0327373
0.0290976
0.0216269
0.0216335
0.02902
0.0327258
0.0327
0.0291115
0.021769
0.0217764
0.0289904
0.0325928
0.0327493
0.029212
0.0219733
0.0219817
0.0290355
0.0325255
0.0329329
0.0294377
0.0222677
0.0222774
0.029166
0.0325218
0.0333316
0.0298651
0.0227168
0.0227282
0.0294151
0.0325924
0.03405
0.030748
0.0235489
0.0237054
0.0302554
0.0332061
0.0349923
0.0315375
0.0244981
0.0245208
0.031044
0.0339142
0.0357251
0.0321952
0.0250658
0.0251107
0.0319064
0.0347858
0.0363207
0.0326607
0.0253382
0.0257753
0.0327996
0.0357701
0.0373281
0.0336179
0.0260646
0.0263202
0.0337279
0.0369419
0.0391948
0.0354351
0.0273494
0.027771
0.0354217
0.0388941
0.0413931
0.0378279
0.0296117
0.0301886
0.0384676
0.0419604
0.0437077
0.0407767
0.0323655
0.0333627
0.0389552
0.0388622
0.108921
0.0784275
0.0466011
0.0417229
0.0629021
0.0835282
0.0543658
0.0488702
0.0391846
0.0385378
0.0462342
0.0495892
0.0496495
0.0470434
0.0397064
0.0399733
0.0475547
0.0502318
0.051327
0.0494573
0.0422649
0.042587
0.0462016
0.0444305
0.129777
0.09679
0.0608824
0.0559726
0.0793597
0.10243
0.069578
0.064302
0.0536787
0.0554485
0.0627022
0.0647666
0.0595022
0.0614515
0.0575455
0.0801953
0.121368
0.158387
0.138905
0.109799
0.0791451
0.0808227
0.0951495
0.101856
0.0842258
0.0869465
0.0825208
0.1083
0.145927
0.172067
0.154192
0.138898
0.111619
0.110745
0.125739
0.126037
0.136858
0.118652
0.0766802
0.0429348
0.0705911
0.0919213
0.0322157
0.0217803
0.022007
0.0237462
0.0338376
0.0367835
0.0191945
0.0165186
0.0124341
0.0106668
0.0136195
0.0138767
0.0217363
0.0168174
0.0104938
0.0113997
0.0196038
0.0262911
0.011994
0.0117837
0.00918397
0.0107228
0.017544
0.0234395
0.0306363
0.0228387
0.0133499
0.0108288
0.0135026
0.0137855
0.0265589
0.0200256
0.0126805
0.0154283
0.0256739
0.0342501
0.0154994
0.0151987
0.012493
0.0145946
0.0224603
0.0295085
0.0371676
0.0281477
0.0173137
0.014074
0.0168948
0.0172573
0.0320944
0.0246076
0.0163006
0.019166
0.0306729
0.0404429
0.0186948
0.0183691
0.0155117
0.0180294
0.0268452
0.0348456
0.0435153
0.0330017
0.0209483
0.017031
0.0200582
0.0204401
0.0375476
0.028969
0.0196368
0.0227805
0.0356304
0.0466097
0.021895
0.0215712
0.0185316
0.0214212
0.0313381
0.0405255
0.0497383
0.0383016
0.0246393
0.0201612
0.0233658
0.0237309
0.0435702
0.0337533
0.0231863
0.0265147
0.0408654
0.0530021
0.0253941
0.0250872
0.0217986
0.0252407
0.0365892
0.0471641
0.0569184
0.0440352
0.0288309
0.0237557
0.0273229
0.0277305
0.0522764
0.040234
0.027637
0.0307992
0.04614
0.059471
0.0432904
0.0368754
0.0279548
0.0313117
0.0453355
0.0560363
0.0315005
0.0308824
0.026996
0.0306897
0.0435642
0.0556893
0.0643841
0.0502851
0.0337105
0.0280001
0.0317678
0.032304
0.0601994
0.0466571
0.0325953
0.035531
0.052249
0.0670295
0.0494701
0.0422608
0.0323501
0.0360304
0.0511256
0.0623938
0.0357458
0.0351174
0.0309932
0.0353805
0.050241
0.0644234
0.0696875
0.0544001
0.0373989
0.0346325
0.0453649
0.0535508
0.0655348
0.0537084
0.0383023
0.0331194
0.0374925
0.0382538
0.0678598
0.0530409
0.0374509
0.039561
0.0572861
0.0728074
0.0558598
0.0474876
0.0365069
0.040323
0.0562501
0.068328
0.0401353
0.0391674
0.0344813
0.0394715
0.0557898
0.0710717
0.0750386
0.0595063
0.0412497
0.0383041
0.0500652
0.0588987
0.0695239
0.057485
0.0411674
0.0356237
0.0405031
0.0414543
0.0727548
0.0569442
0.0401713
0.0418399
0.0603353
0.0761223
0.0595067
0.0506078
0.0387877
0.0415546
0.0576392
0.0700334
0.0417
0.0407352
0.0358264
0.0404333
0.0573994
0.0735536
0.0754404
0.0596135
0.0417456
0.0393825
0.0522763
0.0622261
0.0684798
0.0565097
0.0411335
0.0388539
0.0508349
0.0596774
0.0672184
0.0556984
0.0405673
0.0357045
0.041148
0.0426044
0.0731453
0.0571517
0.0402598
0.0409353
0.058394
0.0733791
0.0611569
0.0514179
0.0386317
0.0396369
0.0543206
0.0655821
0.0579189
0.0491987
0.037519
0.0393805
0.0538898
0.0645907
0.0407981
0.0395757
0.0345241
0.0386575
0.0548689
0.0700908
0.0697206
0.0552989
0.0388842
0.0368202
0.0491264
0.0585095
0.0615664
0.0512333
0.0377365
0.0361189
0.0481836
0.0573185
0.0596606
0.0496682
0.0367861
0.0350214
0.0461955
0.0545397
0.0581209
0.0488926
0.0361218
0.0313969
0.0363992
0.0376853
0.0635075
0.0497469
0.0349343
0.0346463
0.0489986
0.0615009
0.0525782
0.0441401
0.0328994
0.0331365
0.045191
0.0541192
0.0506547
0.0425482
0.0317743
0.031867
0.0430186
0.0515722
0.0472725
0.0400561
0.0303277
0.031158
0.0421657
0.0501274
0.0326757
0.0315155
0.0271615
0.03017
0.042987
0.0545794
0.0519344
0.0416903
0.0294145
0.0278708
0.0375528
0.0447753
0.0446859
0.0376224
0.0277742
0.0268255
0.0359921
0.042758
0.0421389
0.0356933
0.0267207
0.0256523
0.0343398
0.0407753
0.0400192
0.0339299
0.0255492
0.0241846
0.0319511
0.0375338
0.0380636
0.0323296
0.0241995
0.0211453
0.0247884
0.0258149
0.041717
0.0329701
0.0229862
0.0215984
0.0304766
0.0377693
0.0336336
0.0281476
0.0205761
0.0194113
0.0261861
0.0310127
0.0307333
0.0257417
0.0188224
0.0176463
0.0234751
0.0275215
0.027829
0.0232856
0.0169843
0.0159339
0.0211684
0.0246988
0.0239744
0.0203187
0.0150421
0.0143551
0.0191944
0.0222439
0.0152249
0.0148242
0.0125486
0.0134759
0.019331
0.023895
0.0224976
0.0185785
0.0130421
0.0124945
0.0166016
0.0192689
0.0200153
0.017278
0.0129585
0.0125781
0.0162894
0.0186204
0.0189807
0.0167884
0.0130456
0.0125321
0.0161637
0.0185135
0.0166088
0.0150584
0.0121558
0.0115684
0.0148604
0.0169039
0.0120188
0.0114457
0.00977948
0.00860841
0.00985172
0.0101322
0.0122621
0.0107329
0.00798741
0.00460974
0.00488492
0.00463201
0.00686445
0.00594705
0.0044096
0.00185417
0.00186464
0.00227386
0.00321898
0.00251778
0.00151136
0.00194417
0.00436124
0.00659337
0.00360358
0.00277712
0.00186731
0.00499426
0.00873257
0.0120208
0.00841782
0.00672491
0.0047008
0.00732353
0.0119033
0.0158388
0.00859961
0.00792762
0.00637404
0.00784174
0.0121721
0.0171308
0.0254062
0.0186579
0.0112591
0.0107282
0.0151503
0.0187765
0.0275723
0.0214459
0.0140103
0.0134969
0.0188678
0.023195
0.0312506
0.0246664
0.0166175
0.0159464
0.022164
0.0272129
0.0350317
0.0278652
0.0190894
0.0180435
0.0245406
0.0296659
0.0395934
0.0315415
0.021643
0.018969
0.0225796
0.0239866
0.0425613
0.0321253
0.0219035
0.0246004
0.0372939
0.0487721
0.0391681
0.0322337
0.0233815
0.026423
0.0383571
0.0477226
0.0425052
0.0351501
0.0256169
0.0289032
0.0411196
0.0504122
0.0456013
0.037684
0.0276721
0.0313408
0.0443683
0.0549331
0.047156
0.0393736
0.0294368
0.033802
0.0478927
0.0590956
0.036175
0.034377
0.0294268
0.0340553
0.0489026
0.0638651
0.0701939
0.0543783
0.0369207
0.0351642
0.0476009
0.0574416
0.0675021
0.0548023
0.0387309
0.0372381
0.0502332
0.0603693
0.0704744
0.057141
0.0408265
0.0389287
0.0517585
0.0617599
0.07455
0.060876
0.0435201
0.0380433
0.0440699
0.0460912
0.0810119
0.0624036
0.0438002
0.0468776
0.0684767
0.0876498
0.0714347
0.0596163
0.0445397
0.0482671
0.0673051
0.0825149
0.0735821
0.0615719
0.046156
0.0505177
0.0698517
0.0853623
0.0739589
0.0623416
0.0474498
0.0529431
0.0735806
0.0899973
0.0553685
0.053186
0.0463845
0.0532416
0.075135
0.0969393
0.104313
0.0819782
0.0566283
0.0529681
0.0704189
0.0841916
0.0985302
0.0806089
0.057891
0.0542851
0.0709793
0.0838311
0.101866
0.0837418
0.0604426
0.0528705
0.0605572
0.0630496
0.110145
0.0852683
0.0605912
0.0639307
0.0919317
0.117446
0.0950048
0.0795838
0.0602513
0.0650648
0.0900112
0.110405
0.0937535
0.0798332
0.0614734
0.0674448
0.0936318
0.113585
0.0691684
0.0668029
0.0587917
0.0674429
0.0943354
0.121572
0.130826
0.102462
0.071509
0.0664792
0.0862534
0.101786
0.123953
0.101247
0.0725129
0.0629907
0.070946
0.072906
0.129526
0.100274
0.0713753
0.0768373
0.111151
0.141451
0.108646
0.0925097
0.0715125
0.078813
0.109857
0.134534
0.0778075
0.0759431
0.0677088
0.0767017
0.107728
0.139123
0.152054
0.118846
0.0822704
0.0762462
0.0989729
0.116685
0.14412
0.117414
0.0841358
0.0731323
0.0815516
0.0833049
0.150016
0.11689
0.0834506
0.0884753
0.128363
0.164555
0.122719
0.104782
0.0813462
0.0897875
0.125623
0.154564
0.0885298
0.0865472
0.0773584
0.0889156
0.123987
0.159452
0.175515
0.137128
0.0950791
0.0870844
0.11181
0.130937
0.164287
0.134137
0.0959699
0.0813406
0.0902707
0.0919378
0.159159
0.125301
0.0917924
0.102413
0.147735
0.187898
0.0935947
0.0929652
0.0850967
0.0946113
0.129787
0.165122
0.195716
0.152265
0.104292
0.0854294
0.0933406
0.0938601
0.171047
0.13412
0.0979142
0.110385
0.160475
0.205533
0.0988334
0.0986572
0.0907154
0.101254
0.138843
0.176487
0.214063
0.16654
0.11337
0.0929348
0.100285
0.100146
0.184721
0.146005
0.107547
0.118744
0.173576
0.224108
0.103151
0.102439
0.09457
0.106776
0.143955
0.181827
0.233262
0.182652
0.124985
0.094963
0.0949973
0.0893071
0.124371
0.115773
0.0999841
0.106599
0.144742
0.186271
0.246207
0.189839
0.128258
0.096143
0.0943439
0.0873843
0.109302
0.106038
0.0966023
0.101265
0.115388
0.124902
0.192114
0.152626
0.11219
0.124544
0.188635
0.249867
0.0854791
0.0897506
0.0898431
0.0911271
0.0989219
0.100508
0.0944901
0.0911929
0.0829006
0.0802538
0.0903522
0.0931879
0.0843879
0.0815938
0.0716072
0.0664958
0.0781888
0.0814831
0.0764934
0.0730281
0.0609002
0.0571688
0.0708083
0.0755892
0.0714891
0.0669949
0.0536173
0.051116
0.0655211
0.0710258
0.0675021
0.0624229
0.0484568
0.0467045
0.061469
0.0675678
0.064559
0.0588088
0.0446074
0.0433852
0.0583112
0.0649662
0.0622119
0.0559547
0.0416603
0.0407166
0.0555816
0.0626833
0.0600864
0.0534255
0.0392482
0.0385197
0.0532368
0.0606515
0.0581705
0.0512538
0.0372608
0.0367132
0.0511463
0.0587548
0.0564046
0.0493308
0.0356365
0.0352415
0.0493847
0.0570762
0.0548267
0.0477117
0.0343151
0.0340477
0.0478236
0.0555161
0.0533727
0.046279
0.0332499
0.0330895
0.0465211
0.0541438
0.0520835
0.0450818
0.0323968
0.0323244
0.0453478
0.0528638
0.0508854
0.0440261
0.0317629
0.0317398
0.0443647
0.0517407
0.0499242
0.043243
0.0313322
0.0313116
0.0434847
0.0506986
0.0492012
0.0426218
0.0310242
0.0310057
0.0427758
0.0498092
0.0485243
0.042044
0.0308071
0.0307903
0.0421405
0.0490073
0.0479765
0.0416009
0.0306615
0.0306463
0.0416454
0.0483411
0.0474651
0.0411852
0.0305684
0.0305545
0.0412027
0.047752
0.047068
0.040883
0.0305133
0.0305002
0.0408689
0.0472694
0.0466956
0.0405948
0.0304891
0.0304768
0.0405684
0.0468457
0.0464215
0.0404038
0.0304858
0.0304739
0.0403562
0.0465072
0.0461575
0.0402135
0.0305011
0.0304899
0.0401622
0.0462114
0.045979
0.0401075
0.0305279
0.0305172
0.0400418
0.0459859
0.0457993
0.0399925
0.0305672
0.030557
0.0399266
0.0457912
0.0456964
0.0399496
0.0306124
0.0306025
0.0398733
0.045648
0.0455792
0.0398902
0.0306672
0.0306578
0.0398577
0.0456184
0.0455528
0.0399342
0.0307544
0.0306839
0.0397327
0.0453733
0.0454632
0.0398769
0.0307894
0.0307807
0.0397998
0.0453759
0.0454498
0.0399174
0.030857
0.0308484
0.0398304
0.0453361
0.0454096
0.0399261
0.0309302
0.030922
0.0398448
0.0452993
0.0454196
0.0399868
0.0310034
0.0309953
0.0398998
0.0452932
0.0454028
0.0400131
0.0310795
0.0310718
0.0399305
0.0452791
0.0454299
0.0400873
0.0311552
0.0311477
0.0400013
0.0452958
0.0454282
0.0401244
0.0312319
0.0312246
0.0400429
0.0452981
0.0454667
0.0402066
0.0313072
0.0313001
0.0401229
0.0453296
0.045475
0.0402499
0.0313824
0.0313755
0.0401707
0.0453429
0.0455215
0.0403359
0.0314554
0.0314485
0.0402558
0.0453855
0.0455365
0.0403815
0.0315272
0.0315205
0.040306
0.0454068
0.0455874
0.0404685
0.0315965
0.0315899
0.0403922
0.0454549
0.0456048
0.0405137
0.0316642
0.0316576
0.0404422
0.045479
0.0456565
0.0405992
0.0317288
0.0317222
0.0405272
0.045529
0.045674
0.040642
0.0317913
0.0317848
0.0405747
0.0455537
0.0457248
0.0407243
0.0318505
0.0318439
0.0406566
0.0456034
0.0457405
0.0407631
0.0319074
0.0319007
0.0407
0.0456268
0.0457885
0.0408402
0.0319607
0.0319538
0.0407767
0.0456746
0.0458004
0.0408727
0.0320112
0.0320041
0.040814
0.0456948
0.045845
0.0409431
0.0320576
0.0320503
0.0408842
0.0457393
0.0458539
0.0409686
0.0321008
0.0320933
0.0409147
0.0457569
0.0458953
0.0410324
0.0321399
0.0321321
0.0409781
0.045798
0.0459002
0.0410512
0.0321758
0.0321679
0.041002
0.0458119
0.0459377
0.0411085
0.0322078
0.0321996
0.0410586
0.0458483
0.0459382
0.0411209
0.032237
0.0322287
0.0410762
0.0458581
0.0459714
0.0411719
0.0322624
0.0322539
0.0411262
0.0458899
0.0459671
0.0411778
0.0322854
0.0322769
0.0411375
0.0458957
0.0459959
0.0412223
0.0323047
0.0322961
0.0411809
0.0459229
0.0459871
0.0412216
0.032322
0.0323135
0.0411859
0.0459244
0.0460117
0.0412603
0.0323359
0.0323274
0.0412234
0.0459472
0.0459985
0.0412539
0.0323481
0.0323398
0.0412232
0.0459452
0.0460214
0.0412886
0.0323577
0.0323497
0.0412556
0.0459641
0.0460054
0.0412783
0.0323666
0.032359
0.041252
0.0459598
0.0460267
0.0413101
0.0323735
0.0323661
0.0412809
0.0459763
0.0460094
0.0412974
0.0323802
0.0323733
0.0412746
0.0459701
0.0460291
0.0413267
0.0323851
0.0323786
0.0413012
0.0459851
0.0460112
0.0413124
0.0323903
0.0323842
0.0412927
0.0459775
0.0460294
0.0413397
0.0323939
0.032388
0.0413174
0.045991
0.0460109
0.0413239
0.0323978
0.0323923
0.0413068
0.0459819
0.0460277
0.0413494
0.0324001
0.0323948
0.0413296
0.045994
0.0460082
0.041332
0.0324029
0.0323979
0.0413172
0.0459834
0.0460238
0.0413559
0.0324041
0.0323992
0.0413383
0.0459943
0.0460032
0.041337
0.0324058
0.0324012
0.0413243
0.0459823
0.0460175
0.0413593
0.032406
0.0324016
0.041344
0.0459921
0.0459957
0.0413389
0.0324067
0.0324027
0.0413285
0.0459789
0.046009
0.0413599
0.032406
0.0324022
0.0413469
0.0459877
0.0459864
0.0413384
0.032406
0.0324026
0.0413302
0.0459735
0.045999
0.0413585
0.0324048
0.0324017
0.0413477
0.0459816
0.0459762
0.0413364
0.0324045
0.0324018
0.0413303
0.045967
0.0459885
0.041356
0.0324032
0.0324008
0.0413473
0.0459748
0.0459659
0.0413338
0.0324031
0.0324012
0.0413297
0.04596
0.0459785
0.0413535
0.0324021
0.0324006
0.0413468
0.0459678
0.0459566
0.0413319
0.0324027
0.0324016
0.0413293
0.0459531
0.0459699
0.0413521
0.0324025
0.0324017
0.0413468
0.0459616
0.0459489
0.0413311
0.0324038
0.0324034
0.0413295
0.0459471
0.0459631
0.041352
0.0324046
0.0324044
0.0413476
0.0459561
0.0459431
0.0413319
0.0324068
0.0324069
0.0413309
0.0459419
0.0459583
0.0413538
0.0324086
0.0324087
0.0413497
0.0459516
0.0459394
0.0413346
0.0324117
0.032412
0.0413334
0.0459377
0.0459555
0.0413574
0.0324144
0.0324146
0.041353
0.0459481
0.0459374
0.041339
0.0324182
0.0324184
0.0413372
0.0459346
0.045954
0.0413622
0.0324212
0.0324213
0.0413573
0.0459456
0.0459359
0.0413438
0.0324248
0.0324248
0.0413417
0.0459325
0.0459517
0.0413663
0.0324271
0.0324269
0.0413617
0.0459438
0.0459316
0.0413459
0.0324289
0.0324286
0.041345
0.0459301
0.0459444
0.0413656
0.0324283
0.0324278
0.0413627
0.0459397
0.0459202
0.0413411
0.0324263
0.0324256
0.041343
0.0459239
0.0459275
0.0413552
0.0324203
0.0324193
0.0413562
0.0459285
0.0459126
0.0413458
0.032412
0.0324107
0.0413308
0.0458922
0.0458785
0.0413249
0.0324232
0.0324046
0.041301
0.045866
0.045907
0.0413048
0.0323808
0.0322972
0.0411939
0.045739
0.0458343
0.0412798
0.0323229
0.0320609
0.0408478
0.0453906
0.0460726
0.0415466
0.0325744
0.0321297
0.041
0.0455482
0.0484695
0.04407
0.0348339
0.0346211
0.0445976
0.0502137
0.0609773
0.0541629
0.0417597
0.0426383
0.0575392
0.0679744
0.0704358
0.0615634
0.047184
0.0787654
0.0868858
0.096137
0.119155
0.0750333
0.0600257
0.0537295
0.0642359
0.0450903
0.0310226
0.0251094
0.0223675
0.0213011
0.0207185
0.0205823
0.0205143
0.0205717
0.0206222
0.0206488
0.0206676
0.0206783
0.0206895
0.0206957
0.0206886
0.0208163
0.0208747
0.0210687
0.021281
0.0212598
0.0217787
0.0215181
0.0208121
0.0191863
0.0190116
0.0167085
0.0172442
0.0162715
0.0168976
0.0167907
0.0171183
0.0171574
0.0172602
0.0172739
0.0173005
0.0173054
0.0173098
0.0173225
0.0173347
0.0173332
0.0173478
0.0173435
0.0173557
0.0173499
0.01736
0.0173508
0.0173533
0.0173502
0.0173454
0.017338
0.017328
0.0173159
0.0173018
0.0172852
0.0172661
0.0172484
0.0172146
0.0171948
0.017154
0.0171266
0.0170778
0.0170417
0.0169836
0.0169332
0.0168773
0.0168031
0.0167394
0.0166567
0.0165674
0.0164835
0.0163761
0.0162736
0.0161638
0.0160349
0.0159148
0.0157721
0.0156386
0.0154837
0.0153386
0.0151734
0.0150189
0.0148459
0.0146808
0.0145097
0.0143366
0.0141623
0.0139871
0.0138116
0.0136361
0.013461
0.0132866
0.0131132
0.0129408
0.012773
0.0125971
0.012435
0.0122622
0.012103
0.0119334
0.011777
0.0116104
0.0114566
0.0112955
0.0111358
0.0109857
0.0108261
0.0106787
0.0105223
0.0103779
0.0102248
0.0100831
0.00993281
0.00979127
0.00964859
0.00950734
0.0093676
0.00922961
0.00909283
0.0089579
0.00882533
0.00869463
0.00856617
0.00844014
0.00831669
0.00819602
0.00807828
0.00796365
0.00785224
0.00774417
0.00763951
0.00753827
0.00744046
0.00734605
0.00725509
0.007167
0.00708209
0.00700059
0.00692189
0.00684617
0.00677349
0.00670387
0.00663743
0.00657435
0.00651479
0.00645892
0.00640687
0.00635874
0.00631453
0.00627411
0.00623696
0.00619929
0.00616632
0.00610589
0.00606981
0.00593143
0.00595751
0.00572234
0.00605193
0.00585525
0.00666003
0.00638577
0.00633322
0.00633471
0.00633796
0.00632276
0.00628876
0.00625121
0.0062181
0.00619246
0.00617183
0.00615269
0.00613336
0.00611311
0.00609074
0.00606635
0.00604023
0.00601228
0.00598254
0.00595101
0.00591765
0.00588266
0.00584606
0.00580793
0.00576834
0.00572728
0.00568479
0.00564095
0.0055957
0.00554923
0.00550178
0.00545331
0.0054039
0.00535369
0.00530278
0.0052513
0.0051994
0.00514722
0.0050949
0.00504259
0.00499046
0.00493876
0.00488754
0.00483683
0.0047869
0.00473788
0.00468993
0.00464327
0.00459779
0.00455372
0.00451229
0.00447233
0.00443513
0.00440391
0.0043794
0.00437049
0.00438504
0.00442879
0.0044997
0.00455051
0.00445302
0.00438668
0.00926397
0.00797746
0.00793418
0.00804961
0.00804044
0.00812153
0.00809882
0.00812803
0.0080856
0.00810009
0.00804794
0.00805529
0.00799843
0.00800156
0.00794111
0.00793999
0.00787581
0.00787021
0.00780218
0.007792
0.00772006
0.00770508
0.00762897
0.00760879
0.00752815
0.00750238
0.00741686
0.0073851
0.00729449
0.0072566
0.00716098
0.00711683
0.00701584
0.00696499
0.00685849
0.00680049
0.00668822
0.00662261
0.00650419
0.00643073
0.00630567
0.00622356
0.00609124
0.00599992
0.00586003
0.00575924
0.00561165
0.00550113
0.00534558
0.00522457
0.00505997
0.00492716
0.00475249
0.0046072
0.00442367
0.0042708
0.00410543
0.00395912
0.00371315
0.00343309
0.00303926
0.00259309
0.00206206
0.00155771
0.0011014
0.00072601
0.000392446
0.000283524
0.000277532
0.000457391
0.000468781
0.000544443
0.000557068
0.000537278
0.000560424
0.000474633
0.000384356
0.000352803
0.000488171
0.000732669
0.00100057
0.00126796
0.00155586
0.00179503
0.00203864
0.00221151
0.0023891
0.00254852
0.00267166
0.00279721
0.00274552
0.00269387
0.00282753
0.00264664
0.00270137
0.00229012
0.00229308
0.00178127
0.00171009
0.00112515
0.000834542
0.00115036
0.00202679
0.00295816
0.00393895
0.00471499
0.00537372
0.00581982
0.00621372
0.00647339
0.00669989
0.0068948
0.00710348
0.00725276
0.00740913
0.00751101
0.00763953
0.00770172
0.0077993
0.00783831
0.00790587
0.00792976
0.00798164
0.00798379
0.00803962
0.0080232
0.00805517
0.00802114
0.00801111
0.00790394
0.00788241
0.00771646
0.00783053
0.00778124
0.0083778
0.0091542
0.00957724
0.0102179
0.00943874
0.00867781
0.00823291
0.008847
0.0102956
0.0083517
0.00812368
0.0101066
0.00440689
0.010419
0.0100731
0.0104816
0.0106505
0.0103593
0.0105721
0.011013
0.0106944
0.0109891
0.0110559
0.0107924
0.0110843
0.00439118
0.00463417
0.00477643
0.0105856
0.0084198
0.00846215
0.0106501
0.010799
0.00858669
0.00858536
0.0107972
0.00486368
0.00488527
0.0108753
0.00866018
0.00859365
0.0107788
0.0108846
0.00867829
0.00856353
0.0106962
0.00488297
0.00487275
0.0108959
0.00868064
0.00850813
0.0105743
0.0108877
0.00866641
0.0084099
0.0104043
0.00485183
0.00482954
0.0108735
0.00863112
0.00826666
0.010181
0.0108509
0.00856712
0.00819532
0.0100011
0.00479908
0.00476379
0.0108114
0.00846961
0.00809105
0.00975659
0.0107596
0.00834485
0.00796096
0.00944982
0.0047269
0.00469018
0.0107118
0.00818746
0.00780695
0.00908599
0.010634
0.00797923
0.0075217
0.00863719
0.00464738
0.00457877
0.010382
0.00754473
0.0069019
0.00801788
0.0097607
0.00664823
0.00573895
0.00703654
0.00444068
0.00420798
0.00865356
0.00523869
0.00420149
0.00564788
0.00723857
0.00369643
0.00257162
0.00456494
0.00395418
0.0035712
0.00552521
0.00190532
0.000996456
0.00315807
0.00349015
0.00168848
0.00181208
0.00145702
0.00302362
0.00228981
0.0017058
0.00250739
0.00238755
0.00138734
0.00160398
0.00260713
0.00239461
0.00190027
0.00139986
0.000718186
0.00199876
0.00249606
0.00261298
0.00217256
0.00261247
0.00261409
0.00252018
0.00219883
0.000682789
0.000878887
0.00277819
0.00251079
0.00233442
0.00206102
0.0027934
0.00232363
0.00206997
0.00199941
0.00111256
0.00107478
0.0025184
0.00195621
0.00165262
0.00176515
0.00206451
0.00146185
0.00117761
0.00142943
0.000946512
0.000822848
0.00161665
0.000980673
0.000759696
0.00112339
0.00130675
0.000599255
0.000440631
0.000946091
0.000762758
0.000973994
0.00119351
0.000349895
0.000187136
0.00116104
0.0011809
0.000181132
0.000402466
0.00171779
0.00123945
0.00150451
0.00149281
0.000535336
0.000916666
0.00240839
0.00196602
0.00109747
0.00154371
0.00316168
0.0017589
0.00199195
0.00256585
0.00177992
0.00228646
0.00392923
0.00321453
0.00256841
0.00311344
0.00466009
0.00219757
0.00237032
0.00382839
0.00337593
0.00387931
0.00528647
0.00432493
0.00403249
0.00442633
0.00572721
0.00250808
0.00261997
0.00470733
0.00444747
0.00475411
0.00601136
0.00504428
0.00469018
0.00497088
0.00622965
0.00272485
0.00283652
0.00538802
0.00490269
0.00521419
0.00646686
0.00573387
0.00514339
0.00547043
0.00672413
0.00295416
0.00307294
0.00606519
0.005388
0.00572386
0.00698691
0.00637773
0.00562622
0.00596751
0.00724467
0.0031889
0.00330014
0.00667099
0.00585343
0.00619855
0.00749164
0.00694497
0.00606807
0.00641605
0.00772552
0.00340554
0.00350456
0.00720004
0.00626945
0.00661938
0.00794527
0.00743702
0.00645717
0.00680849
0.00815057
0.00359714
0.00368361
0.00765722
0.0066316
0.00698408
0.00834184
0.00786186
0.00679404
0.00714777
0.00851934
0.00376414
0.00383891
0.00807544
0.00696886
0.00729864
0.00868385
0.00827365
0.00713064
0.00743726
0.00883445
0.00390805
0.00397146
0.00845579
0.00727936
0.00756459
0.00897265
0.00862343
0.00741604
0.00768099
0.00909908
0.00402945
0.0040821
0.00877764
0.00754111
0.00778646
0.00921309
0.00891727
0.00765432
0.00788138
0.0093152
0.0041293
0.00417131
0.00904262
0.00775606
0.00796653
0.00940636
0.00915423
0.00784697
0.00804262
0.00948714
0.00420833
0.00424056
0.00925274
0.00792782
0.00811021
0.00955806
0.00933962
0.00799949
0.00816929
0.0096192
0.00426811
0.00429082
0.00941634
0.00806258
0.00821991
0.00967026
0.00948331
0.00811737
0.00826186
0.00971097
0.00430829
0.00431603
0.00954045
0.00816378
0.00829894
0.009743
0.00957983
0.00819804
0.00831388
0.00975364
0.00431316
0.00430305
0.00958545