/*--------------------------------*- C++ -*----------------------------------*\
| =========                 |                                                 |
| \\      /  F ield         | OpenFOAM: The Open Source CFD Toolbox           |
|  \\    /   O peration     | Version:  v2006                                 |
|   \\  /    A nd           | Website:  www.openfoam.com                      |
|    \\/     M anipulation  |                                                 |
\*---------------------------------------------------------------------------*/
FoamFile
{
    version     2.0;
    format      ascii;
    class       volScalarField;
    location    "0.008";
    object      nut;
}
// * * * * * * * * * * * * * * * * * * * * * * * * * * * * * * * * * * * * * //

dimensions      [0 2 -1 0 0 0 0];


internalField   nonuniform List<scalar> 
10108
(
20.0512
303.564
897.132
71.6567
6.72841
1.55376
0.630705
0.359028
0.251045
0.198631
0.168377
0.147692
0.131819
0.118977
0.108417
0.0996554
0.0922731
0.0859348
0.0803894
0.0754544
0.0710161
0.0670025
0.0633921
0.0602006
0.0573354
0.0547085
0.0522995
0.0500784
0.0480355
0.046164
0.0444522
0.0428896
0.0414684
0.0401802
0.039019
0.0379801
0.0370594
0.0362538
0.0355605
0.0349779
0.0345052
0.034143
0.0338932
0.0337591
0.0337457
0.0338597
0.0341103
0.0345091
0.0350718
0.035819
0.0367776
0.0379837
0.0394863
0.0413555
0.0436714
0.0465374
0.0500553
0.0543274
0.0596616
0.06768
0.0833953
0.119879
0.184801
0.306909
0.354605
0.401517
0.305836
0.153055
0.0588507
0.0113158
0.00204556
6.97767e-05
5.96805e-05
0.000995953
0.0044681
0.00280624
0.00071669
5.29159e-05
4.70124e-05
0.000612825
0.00221854
0.00185849
0.000547711
4.3746e-05
4.0398e-05
0.000487675
0.00162205
0.00143957
0.00045335
3.82225e-05
3.64415e-05
0.000422678
0.00133118
0.00122596
0.000400762
3.50063e-05
3.40779e-05
0.000389963
0.00117192
0.00110085
0.00037488
3.31826e-05
3.26284e-05
0.000370114
0.00107593
0.00102755
0.00036017
3.19889e-05
3.15952e-05
0.000358001
0.00101466
0.000981617
0.000350361
3.10503e-05
3.0677e-05
0.000348638
0.000972537
0.000943483
0.0003403
3.00989e-05
2.96745e-05
0.000337512
0.000931407
0.000898849
0.000326876
2.90689e-05
2.86429e-05
0.000323276
0.000885225
0.000852493
0.000312447
2.8091e-05
2.7727e-05
0.000308691
0.000837901
0.000806253
0.000299095
2.7273e-05
2.69925e-05
0.000296055
0.000792961
0.000764436
0.000288321
2.66314e-05
2.64162e-05
0.000286249
0.000755218
0.000731805
0.000280129
2.61186e-05
2.59451e-05
0.000278662
0.000725801
0.000706258
0.000273663
2.56843e-05
2.55371e-05
0.000272487
0.000702028
0.00068546
0.000268121
2.52942e-05
2.51623e-05
0.000267141
0.000682333
0.000668119
0.000263169
2.49158e-05
2.47803e-05
0.00026225
0.000665465
0.000652325
0.000258208
2.45051e-05
2.43482e-05
0.000257169
0.000649426
0.00063601
0.000252546
2.40226e-05
2.38293e-05
0.000251206
0.000632286
0.000617534
0.000245663
2.34457e-05
2.3216e-05
0.000243952
0.000612678
0.000596046
0.00023751
2.27825e-05
2.25234e-05
0.000235519
0.000590052
0.000571505
0.000228318
2.20525e-05
2.17736e-05
0.00022606
0.000564612
0.000544683
0.000218359
2.12831e-05
2.09921e-05
0.000215927
0.000537404
0.000517196
0.000208112
2.04986e-05
2.01744e-05
0.00020552
0.000509964
0.000490269
0.000197688
1.96883e-05
1.92721e-05
0.000194611
0.000482609
0.000462391
0.000186338
1.86848e-05
1.8438e-05
0.000181263
0.000452635
0.000428839
0.000171588
1.81361e-05
1.79113e-05
0.000164198
0.000413841
0.000387026
0.000153377
1.76135e-05
1.72421e-05
0.000142764
0.000365177
0.000336349
0.00013125
1.69068e-05
1.62163e-05
0.000115505
0.000305449
0.00027186
0.000102519
1.55823e-05
1.34604e-05
7.86364e-05
0.000234406
0.000169874
3.8619e-05
4.21342e-06
4.52196e-06
2.31033e-05
0.000111698
7.60187e-05
3.23098e-05
7.43956e-06
1.12354e-05
7.43857e-05
8.33312e-05
0.00015757
0.000108021
1.38979e-05
1.51461e-05
0.000139749
0.000215542
0.000255056
0.000157106
1.53785e-05
1.39825e-05
0.000165833
0.000303818
0.000318432
0.000136446
1.03972e-05
8.89955e-06
0.000115087
0.00033268
0.000300574
9.4549e-05
8.36241e-06
9.10552e-06
9.71159e-05
0.000307454
0.00031451
9.76413e-05
1.01474e-05
1.18411e-05
0.000122878
0.000369205
0.000391272
0.000130882
1.26885e-05
1.37064e-05
0.000156905
0.00044435
0.000463219
0.000164399
1.39077e-05
1.43337e-05
0.000180011
0.000501745
0.000516715
0.000185604
1.40359e-05
1.42599e-05
0.000197673
0.00054245
0.000576851
0.000212255
1.44866e-05
1.47942e-05
0.000227792
0.000614368
0.00064919
0.000240074
1.49001e-05
1.68021e-05
0.000253363
0.000687166
0.000709745
0.000258683
1.86075e-05
2.10758e-05
0.00027061
0.000750213
0.000769118
0.000273657
2.29026e-05
2.49972e-05
0.000280113
0.000795983
0.000783422
0.000274055
2.51276e-05
2.31212e-05
0.000269106
0.000770237
0.000748205
0.000261331
2.16397e-05
2.02834e-05
0.000251323
0.000725165
0.000706743
0.000244025
1.95743e-05
1.8764e-05
0.00022834
0.000665355
0.000617919
0.000211277
1.83015e-05
1.81475e-05
0.000164796
0.000511267
0.000451409
0.000142479
1.79014e-05
1.71736e-05
9.61919e-05
0.000323858
0.000282796
8.20238e-05
1.62529e-05
1.4864e-05
5.71538e-05
0.000193362
0.000182043
5.32161e-05
1.32018e-05
1.129e-05
4.27446e-05
0.000149487
0.000164591
5.39923e-05
1.1262e-05
1.09441e-05
8.18008e-05
0.000218337
0.000353276
0.000203404
1.46156e-05
2.30193e-05
0.000271201
0.000335421
0.000301295
0.000243857
2.60206e-05
2.78124e-05
0.000187969
0.000260179
0.000181019
0.000135449
3.07625e-05
2.3717e-05
7.09455e-05
0.000110371
0.000111794
4.56706e-05
1.77437e-05
1.21593e-05
5.25182e-05
0.000123683
0.00013754
8.21448e-05
1.2343e-05
1.66613e-05
0.000101553
0.000145872
0.000147668
0.000108307
1.64424e-05
1.61544e-05
0.000111712
0.000149634
0.000146331
0.000112915
1.58543e-05
1.55411e-05
0.000112817
0.000140673
0.000133077
0.000111533
1.5254e-05
1.49813e-05
0.000109905
0.000125493
0.000117489
0.000107416
1.46564e-05
1.43205e-05
0.00010401
0.000109535
0.000100498
9.99822e-05
1.40111e-05
1.35967e-05
9.40813e-05
9.3628e-05
8.59794e-05
8.89402e-05
1.31871e-05
1.27865e-05
8.41719e-05
8.19037e-05
7.42565e-05
8.02677e-05
1.25192e-05
1.21703e-05
7.34564e-05
7.05948e-05
6.3653e-05
6.67486e-05
1.18004e-05
1.13066e-05
6.15344e-05
6.04882e-05
5.39188e-05
5.8287e-05
1.09822e-05
1.06024e-05
5.30264e-05
4.98537e-05
4.31125e-05
4.37924e-05
1.01264e-05
9.54498e-06
3.57024e-05
4.0102e-05
3.52762e-05
3.15768e-05
9.17317e-06
8.85744e-06
2.889e-05
3.2336e-05
2.61865e-05
2.32096e-05
8.31105e-06
7.54115e-06
1.58589e-05
2.37196e-05
1.97547e-05
1.22544e-05
6.40388e-06
1.21075e-05
9.26363e-06
1.82039e-05
5.42545e-05
0.00014267
0.000157537
0.000374687
0.000360232
0.000448056
0.000500262
0.000487356
0.000403191
0.000379255
0.000228828
0.000234517
6.03365e-05
4.87863e-05
0.000138214
0.000318068
0.000499942
0.00049991
0.000499924
0.000499822
0.00049993
0.000500166
3.46441e-05
1.41898e-05
2.03734e-05
3.33956e-06
1.90127e-06
1.97828e-06
9.34923e-06
1.37785e-05
1.50498e-05
5.20336e-06
3.39398e-06
6.74421e-06
7.21015e-06
1.54117e-05
1.57977e-05
7.46414e-06
9.65068e-06
1.15384e-05
1.35268e-05
1.5273e-05
1.5177e-05
1.31079e-05
1.31005e-05
1.43052e-05
1.90582e-05
1.5246e-05
1.51048e-05
1.87866e-05
1.50475e-05
1.56063e-05
2.45112e-05
1.57176e-05
1.52494e-05
2.42832e-05
1.5675e-05
1.58365e-05
2.9153e-05
1.67761e-05
1.63634e-05
2.91467e-05
1.57275e-05
1.56476e-05
3.38461e-05
1.81489e-05
1.77657e-05
3.40815e-05
1.53879e-05
1.52288e-05
3.877e-05
2.01152e-05
1.97695e-05
3.92328e-05
1.49482e-05
1.48028e-05
4.39488e-05
2.25782e-05
2.22807e-05
4.46005e-05
1.45624e-05
1.44556e-05
4.92657e-05
2.54796e-05
2.52408e-05
5.00474e-05
1.42873e-05
1.4238e-05
5.44669e-05
2.90334e-05
2.8866e-05
5.53e-05
1.41197e-05
1.4117e-05
5.92964e-05
3.31925e-05
3.30745e-05
6.01259e-05
1.40971e-05
1.41579e-05
6.37732e-05
3.76831e-05
3.76023e-05
6.45774e-05
1.41688e-05
1.42438e-05
6.78563e-05
4.23114e-05
4.22593e-05
6.86022e-05
1.42599e-05
1.43327e-05
7.14481e-05
4.69218e-05
4.69052e-05
7.21629e-05
1.43519e-05
1.44177e-05
7.4652e-05
5.13185e-05
5.13672e-05
7.53562e-05
1.44401e-05
1.44991e-05
7.74439e-05
5.55225e-05
5.56342e-05
7.81171e-05
1.45213e-05
1.45738e-05
7.9835e-05
5.95197e-05
5.96857e-05
8.03451e-05
1.45988e-05
1.46517e-05
8.19379e-05
6.32834e-05
6.34731e-05
8.22626e-05
1.46824e-05
1.47358e-05
8.36906e-05
6.6726e-05
6.69955e-05
8.3875e-05
1.47765e-05
1.4835e-05
8.51429e-05
6.98314e-05
7.01352e-05
8.5208e-05
1.48905e-05
1.49543e-05
8.63333e-05
7.23612e-05
7.27e-05
8.62676e-05
1.50225e-05
1.51121e-05
8.73377e-05
7.42543e-05
7.39453e-05
8.7567e-05
1.51572e-05
1.53396e-05
8.89748e-05
7.56528e-05
7.45661e-05
8.91946e-05
1.55038e-05
1.58686e-05
9.01129e-05
7.59713e-05
7.4828e-05
8.94185e-05
1.62247e-05
1.68633e-05
9.00761e-05
7.50872e-05
7.40755e-05
8.9272e-05
1.73167e-05
1.78201e-05
9.08671e-05
7.419e-05
7.25842e-05
9.06347e-05
1.83964e-05
1.89829e-05
9.14086e-05
7.27851e-05
7.0862e-05
9.13389e-05
1.95099e-05
2.01082e-05
9.30009e-05
6.99788e-05
6.91199e-05
9.43259e-05
2.08802e-05
2.16599e-05
9.52297e-05
6.5969e-05
6.63083e-05
9.82945e-05
2.32231e-05
2.29909e-05
6.19665e-05
3.47939e-05
6.76764e-05
7.23007e-05
1.9603e-05
1.40246e-05
7.0995e-05
7.16666e-05
6.85864e-05
6.81817e-05
1.7584e-05
1.93363e-05
6.51588e-05
6.60506e-05
6.35576e-05
6.31151e-05
2.1497e-05
2.27179e-05
6.00944e-05
6.26716e-05
5.95973e-05
5.93789e-05
2.48848e-05
2.38597e-05
1.9542e-05
7.32359e-05
6.27706e-05
6.45685e-05
2.08552e-05
1.50341e-05
6.03753e-05
6.19117e-05
6.20868e-05
5.68819e-05
1.82214e-05
2.13091e-05
5.55136e-05
6.04868e-05
6.75165e-05
1.79287e-05
2.03886e-05
1.88349e-05
6.38215e-05
6.27289e-05
6.27137e-05
5.98196e-05
1.41977e-05
1.79171e-05
5.83257e-05
6.16748e-05
5.43212e-05
1.27659e-05
1.71679e-05
1.80654e-05
7.28245e-05
6.93116e-05
3.99246e-05
3.91402e-05
1.15604e-05
1.57452e-05
8.58181e-05
3.99276e-05
7.98411e-05
6.4202e-05
2.08356e-05
3.42791e-05
4.77705e-05
6.24529e-05
2.42519e-05
1.29723e-05
5.09442e-06
3.71641e-06
3.12637e-06
8.70386e-06
1.27145e-05
9.19437e-06
7.64332e-06
6.91476e-06
1.2e-05
1.58722e-05
1.2741e-05
8.86585e-06
5.38104e-06
8.057e-06
9.43746e-06
1.22156e-05
1.74659e-05
1.4625e-05
8.65639e-06
6.94112e-06
1.13292e-05
1.64366e-05
1.48648e-05
1.19661e-05
9.17436e-06
9.75379e-06
1.7046e-05
2.11859e-05
1.99085e-05
1.40329e-05
7.94325e-06
1.00141e-05
1.45846e-05
1.75666e-05
2.48252e-05
1.94688e-05
1.05892e-05
8.5765e-06
1.66031e-05
2.29632e-05
2.05924e-05
1.69781e-05
1.06899e-05
1.12094e-05
2.23264e-05
2.86009e-05
2.63003e-05
1.90781e-05
9.10902e-06
1.12875e-05
1.93869e-05
2.30667e-05
3.21154e-05
2.48604e-05
1.19202e-05
9.63042e-06
2.1532e-05
2.92794e-05
2.59734e-05
2.1612e-05
1.1755e-05
1.24608e-05
2.75234e-05
3.57701e-05
3.23349e-05
2.38159e-05
1.00633e-05
1.22267e-05
2.38422e-05
2.80192e-05
3.88715e-05
2.96611e-05
1.29753e-05
1.04161e-05
2.59204e-05
3.50176e-05
3.05207e-05
2.57102e-05
1.2555e-05
1.33472e-05
3.17439e-05
4.21523e-05
3.75033e-05
2.76821e-05
1.07048e-05
1.28764e-05
2.72737e-05
3.20234e-05
4.44861e-05
3.28489e-05
1.3698e-05
1.09063e-05
2.89146e-05
3.91777e-05
3.35711e-05
2.79413e-05
1.30069e-05
1.36685e-05
3.29362e-05
4.75073e-05
4.04487e-05
2.85435e-05
1.07156e-05
1.1913e-05
2.76784e-05
3.31177e-05
4.82201e-05
4.93375e-05
1.07603e-05
1.43552e-05
3.4971e-05
4.29919e-05
5.77902e-05
4.09934e-05
1.44498e-05
1.13981e-05
3.45959e-05
4.72327e-05
4.10945e-05
3.2846e-05
1.36337e-05
1.43755e-05
3.94709e-05
5.86289e-05
4.76751e-05
3.32127e-05
1.11211e-05
1.22529e-05
3.17032e-05
3.98241e-05
5.90377e-05
5.70777e-05
1.11004e-05
1.46197e-05
3.92458e-05
5.10605e-05
7.18343e-05
4.75483e-05
1.46311e-05
1.1403e-05
3.76189e-05
5.5727e-05
4.51192e-05
3.53396e-05
1.26294e-05
1.13366e-05
6.0233e-05
6.6852e-05
5.61701e-05
4.13777e-05
1.45998e-05
1.46792e-05
5.14674e-05
8.08213e-05
5.83766e-05
3.89918e-05
1.14196e-05
1.2614e-05
3.66944e-05
4.90217e-05
7.41187e-05
6.64694e-05
1.12456e-05
1.4577e-05
4.3191e-05
5.85684e-05
8.65911e-05
5.44317e-05
1.47466e-05
1.14005e-05
4.05757e-05
6.25252e-05
4.9085e-05
3.73065e-05
1.25092e-05
1.1096e-05
6.80468e-05
7.52523e-05
6.11139e-05
4.33419e-05
1.44571e-05
1.45929e-05
5.57102e-05
9.21484e-05
6.25041e-05
4.00162e-05
1.12974e-05
1.24454e-05
3.67499e-05
5.04458e-05
7.89821e-05
6.98508e-05
1.09939e-05
1.43407e-05
4.29787e-05
6.09347e-05
9.54606e-05
5.57479e-05
1.44866e-05
1.12093e-05
3.90856e-05
6.43396e-05
4.84314e-05
3.56439e-05
1.23598e-05
1.03917e-05
6.6622e-05
7.72641e-05
5.80903e-05
4.03217e-05
1.27175e-05
1.12779e-05
7.68895e-05
9.20724e-05
6.64818e-05
4.49033e-05
1.45266e-05
1.4495e-05
6.03222e-05
0.000110265
6.74087e-05
3.90413e-05
1.10044e-05
1.22223e-05
3.49522e-05
5.01002e-05
8.31177e-05
7.0461e-05
1.03451e-05
1.26908e-05
4.02779e-05
6.08684e-05
0.000101686
8.06151e-05
1.12589e-05
1.42151e-05
4.45042e-05
6.96713e-05
0.000122563
6.55475e-05
1.42635e-05
1.08675e-05
3.87075e-05
7.18374e-05
5.16227e-05
3.37349e-05
1.22414e-05
1.04836e-05
7.20424e-05
9.18493e-05
6.09694e-05
3.85514e-05
1.26506e-05
1.07845e-05
8.28546e-05
0.000109093
6.78547e-05
4.13358e-05
1.27219e-05
1.12593e-05
9.18589e-05
0.000121593
7.64747e-05
4.37077e-05
1.39784e-05
1.41808e-05
7.30084e-05
0.000146086
7.79691e-05
3.73452e-05
1.06896e-05
1.21478e-05
3.26643e-05
5.4129e-05
0.000102874
8.0773e-05
1.05439e-05
1.25915e-05
3.70851e-05
6.51247e-05
0.000126822
9.33629e-05
1.10634e-05
1.28486e-05
4.07516e-05
7.57561e-05
0.000149204
0.000110501
1.17644e-05
1.40829e-05
4.5531e-05
8.94061e-05
0.000195103
9.32955e-05
1.4597e-05
1.066e-05
4.00242e-05
9.59272e-05
6.26404e-05
3.2383e-05
1.21704e-05
1.12907e-05
9.70802e-05
0.000136033
7.71544e-05
3.7173e-05
1.3101e-05
1.21943e-05
0.000107559
0.000172994
8.80933e-05
4.12932e-05
1.34984e-05
1.27701e-05
0.000125719
0.000205192
0.000103551
4.61498e-05
1.36942e-05
1.33427e-05
0.000163089
0.000252365
0.000127882
5.27244e-05
1.42272e-05
1.56697e-05
0.000151753
0.000326287
0.00013471
4.61347e-05
1.03601e-05
1.16346e-05
3.02046e-05
7.36711e-05
0.000203445
0.000118743
1.14007e-05
1.18816e-05
3.37098e-05
8.38715e-05
0.000219537
0.000120172
1.15683e-05
1.15766e-05
3.3136e-05
8.4497e-05
0.000218729
0.000120407
1.13552e-05
1.11189e-05
3.20712e-05
8.03107e-05
0.000207212
0.000125863
1.12413e-05
1.14495e-05
3.31154e-05
8.37165e-05
0.000217945
0.000108373
1.31656e-05
8.64035e-06
3.10934e-05
9.00482e-05
5.85355e-05
2.25626e-05
1.04489e-05
1.23117e-05
9.79803e-05
0.000164477
9.15326e-05
3.39368e-05
1.26682e-05
1.64641e-05
0.000147054
0.000267418
0.000145543
4.97702e-05
1.53589e-05
2.18102e-05
0.000227308
0.000426441
0.000228152
7.62221e-05
1.93761e-05
2.82726e-05
0.000335576
0.000658081
0.000371825
0.00011862
2.3933e-05
3.54832e-05
0.000452782
0.000928997
0.000531154
0.00018192
1.10085e-05
7.34243e-06
9.99493e-05
0.000370024
0.000586195
0.000227827
1.4259e-05
7.92737e-06
0.000171987
0.000524311
0.000546769
0.000196805
1.01018e-05
1.37374e-05
0.000232015
0.00061298
0.000379655
0.000125507
6.59681e-06
1.86573e-05
0.000295013
0.000735347
0.000301409
9.36124e-05
1.03446e-05
1.98902e-05
0.000253954
0.000598573
0.000526941
0.000194984
1.89677e-05
6.73719e-06
3.91608e-05
0.000168985
0.000463814
0.000229142
1.49923e-05
1.19471e-05
5.29744e-05
0.000183754
0.000431997
0.000240524
1.7991e-05
1.43604e-05
5.6837e-05
0.000177866
0.000384016
0.000222582
1.6836e-05
1.45586e-05
5.6149e-05
0.000157598
0.000339671
0.000202096
1.59265e-05
1.48917e-05
5.62576e-05
0.000144605
0.000336034
0.000156773
1.59006e-05
1.66205e-05
0.000112168
0.000275978
7.94937e-05
2.99608e-05
1.13068e-05
1.15296e-05
0.000134069
0.000185033
8.50363e-05
4.02801e-05
1.28346e-05
1.21812e-05
0.000121848
0.000190597
8.75537e-05
4.18445e-05
1.33229e-05
1.2086e-05
0.000115553
0.000183393
8.76376e-05
4.31692e-05
1.33692e-05
1.21609e-05
0.000113912
0.000180491
9.04349e-05
4.57948e-05
1.37455e-05
1.28221e-05
9.77565e-05
0.000193998
0.000158485
7.99575e-05
1.50091e-05
1.14e-05
3.30004e-05
6.32181e-05
0.000115802
8.86909e-05
1.01083e-05
1.25921e-05
4.16096e-05
6.65802e-05
0.0001223
8.87027e-05
1.07788e-05
1.29716e-05
4.39354e-05
6.98876e-05
0.000126836
8.79943e-05
1.10585e-05
1.31471e-05
4.49905e-05
7.23119e-05
0.000137111
7.85517e-05
1.15619e-05
1.42721e-05
6.64207e-05
0.000114322
5.62862e-05
3.70503e-05
1.13762e-05
9.63149e-06
7.21226e-05
8.52974e-05
5.62897e-05
4.34949e-05
1.25623e-05
1.03494e-05
6.9242e-05
8.83984e-05
5.81877e-05
4.4967e-05
1.28005e-05
1.04526e-05
6.89179e-05
9.1395e-05
6.01473e-05
4.67611e-05
1.30195e-05
1.12174e-05
6.84131e-05
0.000105848
9.26289e-05
6.15155e-05
1.42155e-05
1.16122e-05
4.31142e-05
5.22854e-05
7.80433e-05
6.67532e-05
9.7508e-06
1.28634e-05
4.76397e-05
5.49947e-05
8.34043e-05
6.64659e-05
1.04563e-05
1.34308e-05
5.08841e-05
5.80606e-05
9.53912e-05
6.47964e-05
1.13621e-05
1.47096e-05
5.97769e-05
8.50485e-05
5.20015e-05
4.6382e-05
1.19227e-05
9.89594e-06
6.57985e-05
7.4614e-05
5.54527e-05
5.04881e-05
1.34101e-05
1.0883e-05
6.47745e-05
8.0383e-05
5.89338e-05
5.42088e-05
1.42366e-05
1.19738e-05
6.46659e-05
9.11418e-05
8.3251e-05
6.14535e-05
1.58351e-05
1.29805e-05
5.19897e-05
5.56902e-05
7.48229e-05
6.74535e-05
1.05543e-05
1.46566e-05
5.67975e-05
5.88701e-05
8.49962e-05
6.36912e-05
1.24067e-05
1.67296e-05
6.17297e-05
7.91575e-05
5.66173e-05
5.45259e-05
1.39047e-05
1.13246e-05
6.67383e-05
7.21259e-05
5.99008e-05
5.95285e-05
1.55085e-05
1.28883e-05
6.37626e-05
8.13656e-05
7.6681e-05
6.27573e-05
1.76719e-05
1.50268e-05
5.86871e-05
5.89528e-05
7.15165e-05
6.77708e-05
1.22137e-05
1.68019e-05
6.37127e-05
6.2382e-05
7.97874e-05
6.55754e-05
1.37773e-05
1.84314e-05
6.4625e-05
7.58849e-05
6.15371e-05
6.21395e-05
1.57526e-05
1.29262e-05
6.8822e-05
7.15157e-05
6.50036e-05
6.79538e-05
1.80285e-05
1.4918e-05
6.74532e-05
7.93342e-05
7.60729e-05
6.80735e-05
2.0263e-05
1.68686e-05
6.85114e-05
6.60358e-05
7.41079e-05
7.36511e-05
1.35001e-05
1.92335e-05
7.43205e-05
6.95414e-05
8.28123e-05
7.18072e-05
1.61179e-05
2.19905e-05
7.33503e-05
8.00406e-05
7.22968e-05
7.74377e-05
1.88876e-05
1.56334e-05
7.81959e-05
8.23737e-05
8.04147e-05
7.82343e-05
2.18378e-05
1.98719e-05
8.09561e-05
7.52877e-05
8.38298e-05
8.03942e-05
1.70065e-05
2.39846e-05
7.96989e-05
8.2218e-05
7.79109e-05
8.32125e-05
2.09542e-05
1.73009e-05
8.13353e-05
8.47919e-05
8.33317e-05
8.16898e-05
2.44955e-05
2.21648e-05
8.79957e-05
8.09921e-05
8.6807e-05
8.46384e-05
1.8809e-05
2.61342e-05
8.29386e-05
8.55384e-05
8.31975e-05
9.00636e-05
2.29039e-05
1.93388e-05
8.683e-05
8.82393e-05
8.71065e-05
8.71498e-05
2.79291e-05
2.49789e-05
9.92164e-05
8.86052e-05
9.20568e-05
9.08561e-05
2.03693e-05
2.94934e-05
0.000101676
9.26008e-05
9.08635e-05
0.000100807
2.8789e-05
2.69361e-05
0.000106065
9.59337e-05
9.68833e-05
9.7212e-05
2.28108e-05
3.32253e-05
9.70946e-05
9.61828e-05
9.62972e-05
0.000113166
3.51761e-05
3.16472e-05
0.000104714
9.48853e-05
0.000101237
0.000110648
3.06866e-05
2.66684e-05
0.000101652
0.000100919
0.000100182
9.97396e-05
4.01983e-05
4.11799e-05
0.000115146
9.95441e-05
9.84431e-05
0.000110259
4.42482e-05
4.77839e-05
0.00011756
0.000100296
9.94688e-05
0.000113907
5.28399e-05
5.65611e-05
0.000120258
0.000101478
0.000101683
0.000121321
5.89066e-05
5.87348e-05
0.000129363
0.00010409
0.000104633
0.000133356
5.67418e-05
5.4572e-05
0.000140624
0.000108099
0.000109434
0.000147753
5.21458e-05
4.98671e-05
0.000155543
0.000114605
0.000116681
0.000162647
4.75546e-05
4.55701e-05
0.00017078
0.000123872
0.000126421
0.000170184
4.37121e-05
4.21518e-05
0.000175856
0.00013531
0.000138707
0.000177805
4.07307e-05
3.95158e-05
0.000180985
0.000151015
0.000155532
0.000183256
3.8412e-05
3.74666e-05
0.000185817
0.000170356
0.000175426
0.000188047
3.66121e-05
3.58836e-05
0.000191079
0.000190717
0.000196591
0.000193743
3.52416e-05
3.46903e-05
0.000196999
0.000212254
0.000217891
0.00020003
3.42342e-05
3.38178e-05
0.000203621
0.000234279
0.000235078
0.000206955
3.35308e-05
3.31999e-05
0.000210708
0.000250927
0.000251462
0.000214446
3.30849e-05
3.28052e-05
0.000218405
0.000266983
0.000267697
0.00022236
3.28416e-05
3.26235e-05
0.000226227
0.000282663
0.000283129
0.000230112
3.27258e-05
3.2578e-05
0.000233822
0.000297323
0.000297571
0.000237475
3.27032e-05
3.26282e-05
0.000241002
0.000310924
0.000310849
0.000244392
3.27526e-05
3.27113e-05
0.000247773
0.000323361
0.000322998
0.000250755
3.28284e-05
3.28099e-05
0.000253848
0.000334474
0.000333932
0.000256452
3.29182e-05
3.29055e-05
0.000259331
0.000344549
0.000343836
0.000261509
3.30023e-05
3.29961e-05
0.000264073
0.000353692
0.000352828
0.000265908
3.30829e-05
3.30695e-05
0.000268178
0.000361971
0.000360957
0.000269644
3.31461e-05
3.31299e-05
0.00027157
0.000369547
0.000368358
0.000272719
3.32001e-05
3.31756e-05
0.000274437
0.000376425
0.000375125
0.000275278
3.32392e-05
3.32122e-05
0.000276731
0.000382745
0.000381353
0.000277313
3.32708e-05
3.32355e-05
0.000278617
0.000388553
0.00038704
0.00027897
3.32884e-05
3.3252e-05
0.00028001
0.000394285
0.000392449
0.000280269
3.3274e-05
3.32858e-05
0.000281174
0.000399398
0.0003976
0.000281206
3.33053e-05
3.32626e-05
0.000282147
0.000404458
0.000402573
0.000282062
3.33101e-05
3.32659e-05
0.000282908
0.00040915
0.000407071
0.000282676
3.3311e-05
3.32665e-05
0.000283421
0.000413645
0.000411285
0.000283136
3.33116e-05
3.32669e-05
0.000283826
0.000417801
0.000415111
0.000283412
3.33102e-05
3.32656e-05
0.000284003
0.000421548
0.000418741
0.000283569
3.33077e-05
3.32632e-05
0.000284129
0.000425107
0.000422087
0.000283585
3.33037e-05
3.32603e-05
0.000284056
0.00042844
0.000425314
0.000283518
3.32994e-05
3.32563e-05
0.000283982
0.000431612
0.000428312
0.000283352
3.32942e-05
3.32527e-05
0.000283739
0.000434575
0.000431201
0.000283132
3.32895e-05
3.32489e-05
0.000283542
0.000437401
0.000433877
0.000282855
3.32849e-05
3.32461e-05
0.000283194
0.000440019
0.000436452
0.000282548
3.32809e-05
3.32433e-05
0.000282926
0.000442534
0.000438841
0.000282206
3.32774e-05
3.32417e-05
0.000282517
0.000444853
0.000441145
0.000281847
3.32748e-05
3.32404e-05
0.000282207
0.0004471
0.000443287
0.00028147
3.3273e-05
3.32406e-05
0.000281772
0.000449169
0.000445322
0.00028109
3.32723e-05
3.32413e-05
0.00028145
0.000451244
0.000447302
0.000280708
3.32725e-05
3.32437e-05
0.000281018
0.000452573
0.000449093
0.000280334
3.3274e-05
3.32468e-05
0.000280706
0.000453269
0.000450735
0.00027996
3.32764e-05
3.32513e-05
0.000280274
0.000453901
0.000452196
0.000279582
3.32796e-05
3.32559e-05
0.000279953
0.000454397
0.000453565
0.000279196
3.3283e-05
3.32613e-05
0.000279513
0.000454875
0.000454805
0.000278827
3.32869e-05
3.32662e-05
0.000279189
0.000455269
0.000455983
0.000278443
3.32902e-05
3.32714e-05
0.000278754
0.000455622
0.000457062
0.000278086
3.32938e-05
3.32756e-05
0.000278438
0.000455956
0.000458095
0.000277714
3.32963e-05
3.32797e-05
0.00027802
0.00045623
0.000459048
0.000277375
3.32989e-05
3.32828e-05
0.000277722
0.00045649
0.00045947
0.000277025
3.33004e-05
3.32857e-05
0.000277327
0.000456664
0.000459811
0.000276707
3.33019e-05
3.32874e-05
0.000277045
0.000456811
0.000459819
0.00027637
3.33018e-05
3.32885e-05
0.000276663
0.000456885
0.000460073
0.000276064
3.33013e-05
3.3288e-05
0.000276392
0.000456957
0.000460015
0.000275739
3.32989e-05
3.32867e-05
0.000276027
0.000456974
0.000460218
0.000275446
3.32964e-05
3.32828e-05
0.000275769
0.000457008
0.000460126
0.000275137
3.32915e-05
3.32782e-05
0.000275425
0.000456999
0.000460296
0.000274862
3.32862e-05
3.32715e-05
0.000275185
0.000457008
0.000460171
0.000274572
3.32783e-05
3.3264e-05
0.000274859
0.000456978
0.000460309
0.000274316
3.32704e-05
3.32551e-05
0.000274638
0.000456973
0.000460178
0.000274043
3.32606e-05
3.32457e-05
0.000274332
0.000456946
0.00046032
0.00027381
3.32511e-05
3.32356e-05
0.000274135
0.000456944
0.000460188
0.00027356
3.32404e-05
3.32254e-05
0.000273852
0.000456916
0.000460326
0.000273349
3.32303e-05
3.32151e-05
0.000273678
0.00045691
0.000460187
0.000273122
3.32196e-05
3.3205e-05
0.000273419
0.000456881
0.00046033
0.000272934
3.32098e-05
3.3195e-05
0.000273269
0.000456886
0.000460203
0.000272732
3.31994e-05
3.31851e-05
0.000273032
0.000456875
0.000460367
0.000272566
3.31898e-05
3.31754e-05
0.000272903
0.000456901
0.000460255
0.000272381
3.31798e-05
3.31657e-05
0.000272683
0.000456897
0.000460415
0.00027223
3.31703e-05
3.31558e-05
0.00027257
0.000456913
0.00046029
0.000272061
3.31601e-05
3.31461e-05
0.000272365
0.000456906
0.000460457
0.000271925
3.31505e-05
3.31359e-05
0.000272264
0.000456938
0.000460351
0.000271765
3.314e-05
3.31258e-05
0.000272068
0.000456943
0.000460513
0.000271636
3.313e-05
3.31152e-05
0.000271975
0.000456954
0.000460372
0.000271483
3.3119e-05
3.31047e-05
0.000271787
0.000456922
0.000460507
0.000271363
3.31087e-05
3.30938e-05
0.000271703
0.000456926
0.000460377
0.00027122
3.30975e-05
3.30832e-05
0.000271524
0.00045692
0.000460537
0.000271107
3.3087e-05
3.30725e-05
0.000271445
0.000456934
0.000460393
0.000270967
3.3076e-05
3.30622e-05
0.000271269
0.000456896
0.000460514
0.000270857
3.30658e-05
3.30521e-05
0.000271195
0.00045688
0.000460357
0.000270722
3.30555e-05
3.30422e-05
0.000271022
0.000456853
0.000460501
0.000270614
3.30461e-05
3.3033e-05
0.000270949
0.000456851
0.000460335
0.000270477
3.30368e-05
3.30244e-05
0.000270772
0.00045679
0.000460424
0.000270367
3.30286e-05
3.30166e-05
0.000270699
0.000456737
0.000460224
0.000270231
3.30211e-05
3.30099e-05
0.000270525
0.00045667
0.000460334
0.000270123
3.30149e-05
3.3004e-05
0.000270454
0.00045665
0.000460162
0.000269987
3.3009e-05
3.29989e-05
0.000270274
0.000456592
0.000460253
0.000269871
3.30044e-05
3.29945e-05
0.000270192
0.000456528
0.000460017
0.000269721
3.3e-05
3.29907e-05
0.000269999
0.000456403
0.000460047
0.000269591
3.29963e-05
3.29867e-05
0.000269905
0.000456292
0.00045978
0.000269429
3.2992e-05
3.29829e-05
0.000269697
0.000456147
0.000459787
0.000269284
3.29883e-05
3.2978e-05
0.000269577
0.000455963
0.000459514
0.000269114
3.29824e-05
3.29715e-05
0.000269421
0.000455863
0.00045925
0.000269172
3.29987e-05
3.30062e-05
0.000269393
0.000455676
0.000459207
0.000268877
3.30133e-05
3.30151e-05
0.000269243
0.000455447
0.000459288
0.000269037
3.30787e-05
3.31332e-05
0.000269599
0.000455755
0.000461004
0.000269746
3.3288e-05
3.3272e-05
0.0002708
0.000457522
0.000464019
0.000271328
3.36331e-05
3.36991e-05
0.000272043
0.000460327
0.000474818
0.000275937
3.48792e-05
3.63035e-05
0.000283475
0.000496687
0.000514154
0.000296953
3.81025e-05
0.000683052
0.00066676
0.000723053
0.00075874
0.000652033
0.00136967
0.00187023
0.0021971
0.00232518
0.00651628
0.00912434
0.0121233
0.0155743
0.0195244
0.0242547
0.0301028
0.0376568
0.0474915
0.0601469
0.0759781
0.0951471
0.117599
0.143091
0.17111
0.201041
0.231601
0.261659
0.288753
0.311468
0.32818
0.338691
0.343741
0.346138
0.349148
0.352579
0.356286
0.360273
0.364479
0.368877
0.373498
0.378366
0.383528
0.38902
0.394883
0.401144
0.407847
0.415063
0.422824
0.431193
0.440242
0.450058
0.460763
0.472513
0.485542
0.500198
0.517002
0.512553
0.384365
0.313619
0.272138
0.239273
0.21017
0.184621
0.162541
0.143507
0.127019
0.112712
0.100275
0.0894557
0.0800161
0.0717697
0.0645555
0.0582253
0.052688
0.0478324
0.0435722
0.0398444
0.0365751
0.0337162
0.0312231
0.0290483
0.0271629
0.0255308
0.0241244
0.0229188
0.0218902
0.0210196
0.0202886
0.019683
0.0191881
0.0187935
0.0184865
0.0182579
0.0180974
0.017998
0.0179501
0.0179484
0.0179952
0.0180907
0.0182298
0.0184079
0.0186222
0.0188739
0.0191583
0.0194738
0.0198192
0.0201927
0.0205933
0.0210182
0.0214667
0.0219355
0.0224272
0.0229368
0.0234706
0.0240246
0.0245954
0.0251745
0.0257528
0.0263207
0.0268712
0.0274056
0.0279244
0.0284353
0.0289363
0.0294086
0.0298746
0.0303627
0.0308878
0.0314491
0.0320477
0.0326921
0.0333965
0.0341749
0.0350397
0.0359998
0.0370596
0.0382198
0.0394767
0.0408213
0.0422386
0.0437097
0.045217
0.0467474
0.0482915
0.0498483
0.0514359
0.053094
0.0548847
0.0568999
0.0592704
0.0622507
0.0659983
0.0705979
0.0763323
0.0834313
0.0920382
0.102203
0.113846
0.126757
0.140662
0.155545
0.172222
0.192036
0.216979
0.249082
0.287708
0.365496
0.689714
3.00505
2.07641
1.27651
0.75184
0.451939
0.308188
0.242307
0.210656
0.192077
0.177248
0.163104
0.149521
0.137101
0.126147
0.116586
0.108194
0.100765
0.094176
0.0883706
0.0832865
0.0787837
0.0746401
0.0708059
0.0673126
0.0641168
0.0611963
0.0585296
0.0560899
0.0538563
0.051811
0.0499366
0.0482255
0.0466716
0.0452684
0.0440113
0.042896
0.0419185
0.0410756
0.040365
0.0397863
0.0393404
0.0390296
0.038858
0.0388319
0.0389606
0.0392563
0.0397351
0.0404182
0.0413339
0.0425179
0.0440169
0.0458888
0.0481977
0.0509795
0.05416
0.057601
0.0616139
0.0687985
0.0863693
0.132175
0.235439
0.162268
0.0487934
0.022245
0.00761398
0.00635969
0.00574893
0.00506148
0.00473516
0.0043098
0.00411665
0.00383557
0.00372076
0.0035342
0.00346557
0.00332502
0.00326695
0.00313844
0.00307766
0.00295247
0.00288686
0.00276043
0.00269902
0.00258094
0.00253078
0.00242874
0.00239055
0.00230413
0.00227404
0.00219994
0.00217546
0.00211226
0.00209177
0.00203602
0.00201754
0.00196541
0.00194703
0.00189502
0.00187499
0.00181969
0.00179645
0.0017352
0.00170842
0.00164153
0.00161248
0.00154333
0.00151411
0.00144669
0.0014178
0.00135172
0.00132059
0.0012503
0.00121124
0.00113053
0.00107884
0.000987815
0.000920703
0.000814828
0.00071836
0.00059541
0.000486907
0.000374573
0.000291219
0.000266496
0.000279271
0.000330934
0.000410737
0.000471801
0.000515098
0.000488741
0.000550387
0.000621515
0.000744222
0.000849176
0.000922796
0.000963802
0.00100559
0.00104122
0.00107702
0.00114212
0.00117539
0.00122712
0.00123826
0.00129505
0.00139135
0.00157616
0.00178741
0.00179357
0.00178643
0.00175466
0.00173532
0.00170865
0.0016416
0.00157255
0.00138705
0.00125687
0.000978669
0.000864869
0.000523098
0.00038605
0.000255694
0.000212439
0.000423318
0.000480177
0.000376812
0.000298345
0.00023688
0.000188402
0.000171598
0.000166087
0.000158241
0.000142872
0.000131488
0.000122492
0.00011274
0.000106738
9.97381e-05
9.5325e-05
9.19745e-05
8.69629e-05
8.55248e-05
8.16347e-05
8.08525e-05
7.79244e-05
7.74814e-05
7.45208e-05
7.38452e-05
7.09919e-05
7.05966e-05
6.77055e-05
6.61675e-05
6.39691e-05
6.27389e-05
6.10507e-05
5.90086e-05
5.75794e-05
5.61904e-05
5.45124e-05
0.000143558
0.000160882
0.000165176
0.000145655
0.000145477
0.000166091
0.000176261
0.000143912
0.000130457
0.000167945
0.000384499
0.000362143
0.000370513
0.000371525