/*--------------------------------*- C++ -*----------------------------------*\
| =========                 |                                                 |
| \\      /  F ield         | OpenFOAM: The Open Source CFD Toolbox           |
|  \\    /   O peration     | Version:  v2006                                 |
|   \\  /    A nd           | Website:  www.openfoam.com                      |
|    \\/     M anipulation  |                                                 |
\*---------------------------------------------------------------------------*/
FoamFile
{
    version     2.0;
    format      ascii;
    class       volScalarField;
    location    "0.008";
    object      omega;
}
// * * * * * * * * * * * * * * * * * * * * * * * * * * * * * * * * * * * * * //

dimensions      [0 0 -1 0 0 0 0];


internalField   nonuniform List<scalar> 
10108
(
0.0456565
0.025517
0.0124076
0.0155107
0.0458188
0.220714
0.701857
1.6121
2.85582
4.2601
5.39476
6.17994
6.69327
7.01313
7.19238
7.26145
7.23734
7.12973
6.94418
6.68372
6.35049
5.94736
5.47756
4.94318
4.34198
3.65905
3.08645
2.26509
1.44859
0.907303
0.64444
0.482408
0.35815
0.27522
0.216978
0.172578
0.138946
0.111571
0.0912272
0.0744827
0.0639445
0.0573898
0.0534249
0.0516682
0.0519052
0.0538853
0.05721
0.0614516
0.0662596
0.0713611
0.0764991
0.0813725
0.0855827
0.0884978
0.0893546
0.0874614
0.0848157
0.095166
0.176877
0.540157
1.78924
5.18435
11.9783
14.7368
10.8168
18.7045
41.5443
106.955
429.679
3708.06
20102.4
266896
256335
38239.5
9071.68
13697
48140.1
247265
238882
51217.4
16348.1
18310.6
52319.1
228787
222854
54073.5
19812.3
21059.5
54006.5
216998
213228
54780.1
21844.5
22697.7
54688.3
209471
206520
54527.9
23128.2
23844.5
54602.3
203512
201456
54492.2
24037
24581.7
54550.3
199175
197531
54390.8
24652.5
24961.8
54419
195501
193911
54186.3
24936.3
25082.5
54171.7
191784
190046
53873.8
25011.2
25090.3
53837.9
187827
186064
53520.5
24967.8
25020.7
53502.6
183964
182349
53253.3
24921.8
25031.8
53272.2
180492
179083
53103.8
24997.7
25193.5
53149.7
177456
176201
53026.8
25171.1
25391.5
53084
174720
173548
52980.3
25378.5
25618.7
53045.7
172135
170995
52952
25612.1
25861
53019.5
169591
168448
52922.5
25856.3
26099.9
52978.8
166992
165791
52866.3
26091.4
26313.2
52908.3
164211
162893
52764
26294.9
26481.7
52789.3
161128
159655
52605.8
26451
26601.1
52610.6
157686
156057
52386.7
26560.1
26683.5
52361.3
153908
152143
52090.6
26637.5
26754.4
52044.1
149850
147975
51747.5
26713.2
26849.5
51694.3
145580
143606
51397.2
26822.5
26998.5
51353.6
141139
139009
51081.5
26992.4
27210.6
51065.2
136473
134040
50848.5
27237.2
27502.4
50849.4
131183
128932
50811
27576.9
27927.1
50993.7
126442
123965
51116.7
28093
28620.8
51561.8
121178
118067
51921
29012.1
29884.2
52675.4
114766
110618
53595.6
30845.9
32511.2
54893.5
106133
99974.2
57670.3
34880.8
39909
59977.3
89771.2
90498.7
62047.9
42416.4
44983.9
54423.2
93603.1
97770.6
45341.9
44373.4
40094.1
39229.9
100786
102233
34504.9
34099.1
28789
31471.1
102519
100916
28672.4
24231.2
19904.5
25294.1
96873.8
95204.4
24180.7
17377
16027.8
24673
94579.2
95335
24925.5
15429.2
15280.6
26125.4
96447.6
98283.1
25225.8
14587.9
14325.9
25399.6
99216.3
100332
24234.8
13614.8
13374.7
24151.3
100542
100994
23794.3
12940.6
12716.2
23669.4
100632
100854
23647.3
12560
12284.7
23529.9
101093
101428
23406.2
12065.5
11869.4
23262.4
101539
103749
23649.1
11939.6
12007.2
24021.7
105890
108876
24489.7
12113.2
12284.4
25054.1
111132
113763
25466.6
12349
12509.9
25944.6
115458
116790
26186.9
12592.6
12656.4
26386.4
118021
118717
26503.7
12700.8
12810.1
26717.9
119876
119991
27185.9
13091.5
13562.5
27986.6
119786
118578
31456.8
14930.3
15775.7
32994.8
116690
112895
37876.7
18287.8
18657.1
37447.4
109073
104739
38777.4
19766.2
18939
35435.4
100987
98483.1
33092.2
17527.4
17388.8
26291
98234.1
99987.5
24071.6
20703.5
33435.7
28841.1
107535
122718
38816.1
44720.2
55352.7
46133.5
127280
126137
54842.9
63902
71186
61438.7
121878
112843
70914.9
73732.8
70934.6
81872.9
105563
98904.1
84980.1
66934.1
62654.6
79630.9
98633.4
106242
79038.2
59929.3
57645.9
78896.2
110700
114023
79162
56166.4
54727.9
79464.2
116496
118298
80045.1
53784.6
52783.2
80602.6
119615
120528
81479.2
52210.8
51449
82254.1
121007
121190
83353.5
51068.1
50305
84233.7
121201
120783
85429.3
49964.6
49180.4
86280
120222
119556
87348.7
48896.5
47905
87968
119110
118353
88634.8
47244.7
45807.9
88865.3
117596
116305
89580.1
44982.8
43088
89880
115582
114428
90061.2
41197.5
37604.6
89018.7
113373
111033
87448.6
34531.1
30026.7
84880.6
109552
106088
80198.3
25119
18729.1
71287.2
103764
100041
56201.2
13425.6
7463.46
33299
95823.8
89074.8
5926.59
2721.57
2244.58
2036.89
2026.77
2000.84
2001.3
1999.64
1998.67
1999.46
2000.14
2000.75
2004.47
2007.31
2085.86
2104.77
2023.28
2001.04
1998.73
1998.6
1997.48
1996.73
1998.44
1999.05
2053.75
2776.96
5624.89
59167.9
233338
449999
256062
105090
88274.6
217691
902728
754791
221032
84106.8
76982.2
220073
732209
763913
269764
81766.7
79452.9
276599
798990
827830
325614
90922.8
90087.4
328766
847177
861509
363032
101999
100642
360421
869945
868921
381937
116273
115260
377874
864516
859438
392421
128687
127310
387379
853334
847875
399316
139847
138153
393844
841310
836437
403967
149837
147802
398044
830994
827132
406755
158505
156146
400069
823301
820670
407511
165840
163143
399789
817991
816408
405929
171670
168664
397341
815633
815264
402534
176149
172822
393062
815195
815248
397626
179204
175638
387385
815467
815622
391709
181219
177333
381062
816069
816282
385195
182262
178023
374362
816974
817228
378413
182446
177824
367505
818107
818456
371511
181746
176868
360682
819609
820170
364713
180391
175323
354005
821687
822545
358052
178505
173116
347485
824601
825901
351563
176115
170427
341059
828715
830672
345041
173237
167073
334340
834557
837893
337849
169355
162707
325399
843230
850135
324482
163155
157204
317839
858119
867554
318550
157841
152716
312698
868226
854421
310784
152576
147261
306136
846065
832095
302134
146672
139935
295514
812503
799864
294138
139581
130379
281432
781292
764318
278308
129177
121355
266528
743692
712153
251462
113694
108127
245128
678643
605503
136918
70014.2
210537
435697
842706
1.20224e+06
343381
168493
146020
293154
926361
818331
267359
132246
118114
252814
765670
721448
237687
107738
97501.5
225798
684004
610904
119283
68249.5
209385
446442
871120
1.25012e+06
357651
169119
144411
293211
951563
849467
266555
130747
98730.7
126741
718093
1.01903e+06
506082
245570
196256
390179
1.38995e+06
976439
303485
157346
123649
124290
715521
974728
483515
256804
178747
266018
1.04828e+06
1.15957e+06
491452
199156
705155
1.12708e+06
1.71133e+06
1.20859e+06
1.11054e+06
925723
260203
159900
551955
536837
83299.7
63952.9
95521
168380
489341
399740
74186.8
70512.8
97891.4
186968
756848
567421
242017
123908
79670.3
95314.6
440362
774728
208304
107007
133716
255990
575228
447371
102791
83608.3
111145
213394
778990
576018
260852
138646
86870.2
108335
445195
771461
215397
115359
143227
266201
580711
452634
111862
90653.9
119872
220203
777406
582993
271982
148377
94399.6
116159
453264
773210
224527
124142
153173
277709
591366
461576
121216
98632.7
129369
231373
782674
600357
285421
159572
103311
126933
471202
799746
238982
135174
166825
295308
615582
486166
133196
108720
142214
249315
826417
639459
307882
176165
115709
142590
506945
861374
263298
152157
190151
333800
680528
545045
160256
123649
166452
300497
962078
805902
398208
214959
133269
136049
694581
590557
290119
172838
119858
148572
493915
867006
269458
160199
198499
345769
698039
564853
170576
130463
175329
311720
985362
831794
413264
225497
140657
146814
718914
618062
308423
183419
125138
161336
519354
916317
298034
169761
218682
394994
796516
704102
153265
139459
185658
309636
622234
525645
164046
126974
173636
304232
930681
810403
405264
224905
142075
150597
714439
625825
312474
187424
126828
165091
524545
925751
306311
175054
230071
412300
824055
723916
149319
144373
189921
317526
643460
543112
167878
128338
178492
314538
964525
852365
423877
235226
146214
150714
749110
662719
325937
193133
128845
171310
557470
995246
325077
181622
243497
445141
892352
797527
163361
149637
209366
369157
752766
679816
142517
135180
183628
310095
624487
540287
167470
121897
177726
318592
992111
892889
440304
238792
145819
155937
797223
753362
362128
203568
131056
140494
684091
625052
306238
180344
118093
159312
539036
987341
311416
171799
234586
433692
893664
805093
156363
141676
204635
372417
768180
710601
141114
128088
185325
328287
694785
646464
126865
119095
166536
289132
598655
520131
147391
107097
159759
295659
967690
881871
416750
220872
132163
141221
800045
758310
355647
190548
116150
129873
703183
674835
311410
170487
106677
114691
631168
573107
267525
151006
94533.4
128266
499016
926630
269478
141872
198557
388243
840292
767549
130195
113581
171298
333467
720800
687150
128178
100148
157528
306200
669055
644355
117362
91513.8
142848
277384
620936
589742
95602.4
83263.2
121969
232102
524489
466427
97785.2
71409.6
112282
227115
869736
781433
338321
160446
85915.9
108068
725840
675002
282896
137746
76858.2
101940
649202
614577
257882
124449
71032.5
92510.2
595565
559908
229919
113016
66891.7
77746.7
531292
458023
192813
101711
64393.2
81542.3
404459
784049
189051
102188
144738
298154
709029
680251
115106
87474.8
136835
268724
631042
634259
117244
82865.5
131562
259006
606697
624001
113410
77084.1
122339
240772
574455
602903
107023
69591.5
103695
206974
502096
494056
96471
60277.2
82531.9
155497
828876
707470
192197
94860
75288.9
143535
717048
614471
138125
72518
73085.9
137313
605821
605968
124885
65027.5
81518.3
145112
550823
595023
102735
53393.1
89183.3
171477
515995
490877
99015.8
56995.9
61264.1
109824
418592
785701
261694
117937
69390.3
105951
762738
692799
269811
124349
72461.2
102617
686687
639984
261977
124900
74091.4
102731
644034
615867
261461
127218
76648.1
103651
611075
581072
258825
128158
72702.4
122184
531993
474928
147486
79900.1
176769
388313
890246
806144
116326
108218
173008
323359
772118
717488
127337
100889
167335
320035
714348
686545
130658
100791
165849
314930
686784
644512
131323
100751
162341
303197
632173
554785
152712
93319.1
101112
177966
505797
930318
432569
212223
131284
149247
823802
813387
357248
202861
123863
148888
730671
735975
345929
195177
119238
151793
678327
682514
336844
189324
110585
177788
593650
552374
207209
120226
246886
485822
1.02048e+06
882713
176984
155025
237273
406440
880724
773461
178345
145061
224380
387777
786560
704001
180097
138868
212839
365306
708151
597338
196547
125654
134733
223129
562824
1.02204e+06
503111
266053
164206
199708
868946
871299
420951
249987
152775
193404
751333
760696
390887
232428
138121
212340
634616
605572
245006
148513
289578
539293
1.10144e+06
931798
219529
179773
272561
459551
943378
799954
215741
168360
254648
426071
814568
665272
231573
152516
161929
263071
631210
1.12696e+06
563434
307401
190780
238761
942492
946656
478084
287241
169000
253329
753677
709667
286121
177829
338161
625060
1.24306e+06
1.01118e+06
261931
208159
310691
510951
1.02429e+06
807192
271480
181730
190092
303553
756506
1.30887e+06
664655
360525
221750
282429
1.05912e+06
1.07099e+06
544339
332068
194636
289887
851330
810634
319561
203240
389768
717877
1.40943e+06
1.12102e+06
305724
237423
353847
577614
1.12917e+06
868667
301572
204982
213974
335355
821040
1.41382e+06
705790
394191
242895
306531
1.13002e+06
1.14527e+06
591074
362018
209320
313890
876624
822660
346165
217675
395551
709797
1.34898e+06
1.0083e+06
327665
228362
232842
353524
922944
1.48137e+06
767505
423641
240635
350514
1.08523e+06
987182
375575
244328
443326
803508
1.57834e+06
1.15194e+06
363932
250765
254294
393529
1.04727e+06
1.65204e+06
846801
466822
260990
385293
1.19184e+06
1.07782e+06
399201
263016
481015
875789
1.70929e+06
1.21011e+06
394631
266115
268496
415398
1.07711e+06
1.65669e+06
851937
475738
260815
374672
1.1467e+06
976429
410249
263013
276337
462336
1.25615e+06
1.88086e+06
942478
504196
266676
404093
1.24591e+06
1.02967e+06
402958
257651
288586
514246
1.25606e+06
1.57467e+06
482673
287170
581029
1.16237e+06
2.26943e+06
1.42445e+06
473001
292683
282088
457192
1.18785e+06
1.36768e+06
557356
302948
296231
548173
1.51729e+06
1.61392e+06
634618
313052
308161
637967
1.66533e+06
1.65084e+06
673316
316081
313319
672773
1.62203e+06
1.57723e+06
677937
319894
316328
660061
1.52359e+06
1.47037e+06
657421
320054
314422
631402
1.41712e+06
1.36757e+06
631737
316866
310825
613706
1.3207e+06
1.27915e+06
615734
313799
309451
603362
1.24127e+06
1.2077e+06
606221
312818
309180
596193
1.17762e+06
1.15056e+06
599023
313142
309971
589743
1.12654e+06
1.10481e+06
592197
313617
309979
582350
1.08569e+06
1.06832e+06
584300
313281
309399
573975
1.05338e+06
1.03961e+06
575285
312368
308415
563731
1.02821e+06
1.01727e+06
564547
311441
307760
552478
1.00899e+06
1.00006e+06
552929
310568
306849
540138
994788
987316
540279
309588
306037
527346
984764
978697
527295
308423
304684
514129
977651
973018
514003
306821
302904
501373
972809
969476
501420
304774
300644
489233
969718
967200
489422
302376
298208
478226
967733
965756
478707
299733
295435
468130
966475
964862
468803
296864
292595
459256
965715
964360
460249
293874
289546
451275
965289
964074
452436
290778
286536
444383
965075
963949
445840
287666
283411
438223
965005
963952
439808
284532
280371
432956
965069
964071
434798
281433
277270
428220
965217
964248
430144
278353
274316
424189
965432
964514
426451
275381
271306
420517
966063
964419
422715
272390
268495
417432
966037
965186
419828
269538
265647
414535
966488
965663
416938
266732
262968
412057
966982
966196
414633
264030
260295
409696
967543
966778
412274
261408
257781
407616
968127
967393
410413
258879
255271
405667
968747
968032
408480
256434
252928
403978
969378
968687
407001
254081
250599
402388
970023
969349
405404
251824
248448
401011
970673
970020
404215
249664
246314
399692
971328
970691
402875
247606
244361
398561
971984
971364
401918
245644
242424
397459
972636
972029
400783
243784
240663
396526
973284
972692
400012
242013
238915
395601
973922
973341
399047
240341
237337
394833
974553
973984
398433
238751
235768
394060
975168
974608
397612
237256
234357
393432
975773
975222
397132
235831
232952
392788
976357
975813
396437
234498
231699
392284
976923
976384
396076
233230
230446
391752
977455
976918
395485
232047
229340
391350
977956
977420
395219
230922
228200
390906
978417
977880
394710
229868
227249
390587
978841
978302
394524
228884
226200
390218
979222
978680
394083
227942
225369
389966
979564
979020
393961
227077
224438
389660
979863
979314
393578
226249
223717
389468
980124
979572
393514
225491
222886
389218
980342
979784
393181
224761
222263
389077
980519
979957
393161
224097
221524
388868
980654
980085
392864
223455
220987
388761
980746
980173
392876
222874
220325
388578
980807
980219
392598
222304
219859
388491
980835
980237
392628
221790
219262
388325
980832
980222
392363
221283
218855
388251
980801
980184
392404
220825
218312
388096
980747
980122
392148
220369
217956
388029
980674
980046
392193
219960
217460
387879
980588
979953
391940
219549
217147
387815
980488
979853
391986
219180
216690
387665
980381
979743
391734
218807
216414
387601
980266
979630
391777
218471
215990
387449
980148
979509
391524
218130
215743
387386
980023
979387
391566
217822
215345
387231
979897
979258
391310
217504
215123
387166
979764
979127
391350
217220
214750
387009
979628
978986
391092
216927
214551
386942
979486
978847
391129
216664
214195
386783
979343
978699
390868
216387
214014
386712
979194
978553
390901
216141
213676
386550
979045
978400
390636
215881
213512
386476
978893
978255
390666
215652
213191
386309
978746
978105
390397
215408
213039
386230
978597
977966
390419
215188
212726
386056
978458
977826
390143
214951
212583
385972
978320
977700
390160
214740
212281
385792
978194
977577
389879
214514
212146
385702
978074
977466
389889
214308
211847
385516
977968
977365
389602
214084
211715
385421
977872
977277
389607
213881
211417
385231
977789
977201
389318
213659
211290
385136
977720
977143
389326
213461
210999
384950
977665
977092
389044
213245
210876
384864
977617
977050
389061
213052
210591
384690
977574
977007
388796
212846
210483
384624
977527
976958
388838
212671
210219
384477
977466
976887
388600
212487
210134
384438
977382
976791
388670
212339
209900
384319
977263
976643
388533
212207
209814
384282
977094
976434
388436
212001
209709
384011
976372
975109
388200
211871
209503
384068
975485
974092
388137
211764
209201
383547
972792
969518
387188
211243
207984
381425
966339
962788
384602
209889
206030
378228
956083
948855
380268
207668
199143
368022
920895
878278
351026
187103
174457
331161
840121
82720.6
41243.8
26781.3
25147.3
16665.8
12204.7
10229.5
9939.44
8287.05
6723.77
5741.44
5002.14
4326.16
3722.92
3171.01
2669.17
2213.42
1812.4
1472.27
1194.47
973.726
801.293
667.621
564.441
484.6
423.527
376.859
342.839
318.727
303.054
293.963
289.788
288.094
286.086
283.836
281.414
278.794
276.023
273.12
270.074
266.88
263.518
259.979
256.252
252.332
248.212
243.888
239.359
234.618
229.66
224.482
219.064
213.379
207.381
201.002
194.134
186.515
177.6
169.385
163.36
159.132
156.23
154.49
153.686
153.419
153.461
154.234
155.538
157.001
158.493
159.917
161.158
162.103
162.644
162.838
162.875
162.687
161.849
160.199
157.931
155.171
151.736
147.488
142.592
137.174
131.139
124.525
117.541
110.238
102.628
94.9026
87.1684
79.454
71.8996
64.5984
57.5825
50.9467
44.7347
38.9683
33.6935
28.9142
24.6401
20.8697
17.5853
14.7714
12.4019
10.4507
8.88823
7.68247
6.80134
6.27541
6.04119
5.92873
5.87158
5.83811
5.82065
5.81448
5.81455
5.83085
5.87712
5.95889
6.07557
6.22319
6.40123
6.61124
6.85311
7.12522
7.42243
7.73287
7.9401
7.99856
8.00137
7.95082
7.80742
7.55406
7.18915
6.72487
6.1858
5.6056
5.02225
4.47287
3.9884
3.58746
3.3229
3.22293
3.20001
3.2141
3.29568
3.43864
3.55028
3.57781
3.55537
3.43536
3.19789
2.85844
2.45398
2.02923
1.62428
1.26777
0.976438
0.7597
0.646646
0.61415
0.63091
0.698862
0.791807
0.877364
0.591756
0.0514453
0.20065
0.575388
1.17647
1.9023
2.73613
3.91848
5.45169
6.64464
7.49179
8.08221
8.50459
8.81484
9.04202
9.20101
9.30107
9.34875
9.34942
9.30554
9.21841
9.08745
8.91277
8.69459
8.43374
8.13265
7.80183
7.44869
7.07029
6.66876
6.23563
5.78422
5.29206
4.79127
4.2684
3.78922
3.32129
2.94724
2.60164
2.36022
2.20012
2.1032
2.06835
2.09701
2.18356
2.31192
2.46212
2.61603
2.75857
2.8761
2.9537
2.9775
2.92773
2.78575
2.54698
2.29108
2.38342
4.11965
11.3776
32.0222
71.7156
128.514
248.377
805.127
1729.61
4829.67
5588.05
6031.5
6683.13
7041.16
7611.3
7908.26
8388.77
8601.69
8951.57
9064.71
9291.53
9343.45
9489.62
9516.73
9634.29
9671.45
9820.72
9881.12
10071.6
10146.6
10360.2
10443.3
10670.8
10759.2
10995.6
11084.8
11318.8
11400.6
11615.9
11683.7
11869.1
11921.6
12077.5
12119.8
12259.2
12301.4
12446.4
12500.6
12673.7
12747.9
12960.4
13054.4
13300.7
13409.2
13676.9
13797.6
14084.9
14238.1
14601
14861.1
15454.4
15985.9
17129.9
18341.3
20968
23379.2
26338
29440.7
31722.1
31374.8
29887.1
26626.8
22712.9
18597.6
15497.1
13380.2
12095.2
11041.3
10382.4
9868.38
9380.8
9076.54
8565.06
8251.8
7801.19
7439.57
7179.99
7036.52
6961.64
6953.14
6961.58
6965.24
6966.88
6953.06
6963.16
7015.88
7085.74
7270
7427.65
7978.05
8385.71
9586.89
10257.3
11461.1
13308.9
16675.7
23341.8
38306.2
48448
54190
57213.4
58652.7
56553
50453.3
44843.4
41203.4
36624.9
33597.5
30447.2
28334.6
25980.1
24369.5
22476.6
21177.2
19558.6
18444.1
16976.2
16094
14779.1
14079.8
12770
12151.3
10858
10243.1
8960.11
8339.33
7187.31
6645.04
5502.47
4930.46
3822.56
3488.45
2654.46
2085.02
2053.53
2115.28
2187.69
2218.58
2135.13
2232.19
2384.55
2443.42
2201.88
2023.28
2011.93
2004.62
2004.13
2003.17
2005.33
2007.1
2001.44
1998.59
1998.49
1997.1
1993.98
1992.43
1996.24
1996.83
2041.9
2283.99
2612.78
2655.23
2244.98
2331.9
2836.77
2867.47
2282.51
2056.33
2069.45
2376.31
3082.9
3113.61
2317.4
2423.17
3374.34
3413.46
2353.88
2082.98
2100.58
2478.46
3745.44
3801.84
2397.63
2552.37
4230.72
4326.16
2456.29
2124.98
2159.37
2661.39
4910.1
5079.74
2544.51
2838.31
5908.48
6191.26
2698.69
2211.54
2296.99
3157.53
7378.04
7859.09
2988.22
3748.87
9619.08
10436.6
3546.2
2445.31
2713.1
4873.9
13120
14503.3
4637.92
6975.34
18584.4
20735.6
6703.1
3209.65
4126.79
10490.6
25722
29035
10152.6
15607
34470.2
38587.9
15186.6
5755.45
8500.21
22318.1
42855.2
42492.4
22257.3
30066.5
40268
37181.5
31808
13127.8
19889.5
31055
31298
27847
30696.6
27420.9
16140.9
13535.3
25810.2
23634.7
22220.2
18169.7
10330.3
8628.44
15192.1
12238
7767.17
6948.33
10864.5
19679.1
16244.5
9845.51
6700.16
6114.96
6765.34
6647.35
5976.08
5724.34
5652.63
9147.46
6651.06
5649.51
5680.26
5614.55
5381.92
5398.71
5621.25
5561.76
5256.81
5674.29
5193.82
5204.08
5538.42
5551.06
5196.41
5182.28
5621.26
5913.86
5473.17
5108.88
5800.39
5872.09
6261.5
6870.26
6595.04
7360.44
7549.91
8199.76
8256.79
7284.53
8691.48
9239.44
9059.5
9725.86
10171
11229.9
10778.1
11546.4
12010.5
9789.54
10234.3
13062.8
13027.4
14115.3
14048.4
14549
15760.8
17261
15489
10162.1
9119.42
14909.8
19127.7
20662.9
14967.9
12981.2
21011
20958.1
13308.8
7824.14
6666.79
11038.3
18950.8
17954.6
11302.8
9272.16
15899.1
14635.8
9456.72
5709.3
5031.67
7887.12
12706.2
11964
8079.13
6981.02
10649.9
10262.2
7203.25
4613.64
4330.32
6446.41
9557.19
9409.72
6700.95
6115.09
8980.38
8943.92
6386.39
4108.33
3911.32
5875.25
8615.97
8616.69
6142.25
5653.12
8311.62
8316.01
5904.17
3716.83
3516.95
5415.99
8015.38
8020.56
5659.88
5179.27
7729.67
7740.14
5422.13
3315.76
3123.37
4961.27
7471.99
7491.99
5205.96
4772.13
7252.63
7282.29
5017.28
2951.32
2793.91
4606.34
7064.25
7098.74
4847.5
4447.49
6885.27
6917.89
4680.84
2644.34
2497.11
4280.76
6693.07
6719.25
4502.55
4096.13
6473.78
6491.07
4304.28
2346.71
2190.32
3891.91
6224.78
6234.1
4086.27
3674.35
5954.81
5959.37
3855.49
2030.03
1872
3451.58
5678.89
5683.02
3625.07
3238.16
5411.54
5418.12
3405.14
1721.35
1581.28
3040.72
5162.29
5173.38
3201.71
2861.64
4938.05
4955.7
3017.33
1452.49
1333.71
2700.97
4744.09
4768.73
2851.13
2552.54
4571.25
4596.09
2692.95
1221.88
1110.78
2399
4385.25
4397.9
2520.42
2215.81
4140.71
4124.22
2307.59
991.257
856.379
1985.9
3796.04
3735.39
2042.76
1716.62
3355.47
3258.21
1737.27
709.734
556.554
1427.03
2853.96
2721.87
1405.49
1126.81
2320.68
2128.04
1047.95
400.957
205.707
284.018
362.532
439.029
512.757
582.879
649.419
715.498
785.725
863.757
951.187
1047.54
1150.78
1257.1
1363.17
1468.21
1574.35
1685.41
1805.82
1939.29
2084.87
2237.52
2390.68
2540.18
2687.05
2844.88
3047.74
3334.57
3728.79
4240.82
4855.57
5593.64
6347.21
6932.34
6958.32
6774.81
6282.69
5525.25
5485.92
6257.72
8862.41
13183.9
15662.3
17475.2
18250
17791.4
11391.6
7814.51
4940.31
3648.25
2978.74
2635.4
2437.72
2303.25
2211.91
2140.85
2094.8
2059.55
2035.46
2017.85
2009.09
2002.02
1998.53
1997.21
1998.6
1999.29
1994.85
1996.75
1997.2
2000.88
2001.13
2003.97
2000.4
2004.97
2001.76
2022.99
2031.91
2059.59
2040.42
2060.15
2976.88
2726.02
1925.29
2040.67
2017.01
2439.36
2616.84
3157.86
3372.75
2755.34
2540.84
2047.31
2100.36
1961.4
2852.17
3043.3
3225.22
3159.58
2070.46
2089.96
1997.95
2000.44
2006.36
2127.81
2102.56
3521.83
3364.23
3398.43
3574.5
3756.52
3707.15
3831.3
2146.57
2015.76
2035.31
2178.19
2206.7
2059.96
2100.79
2250.66
4144.94
4054.71
3976.18
4134.56
3939.05
2197.09
2114.58
2075.18
2037.03
2018.99
2007.89
2003.46
2016.07
2006.58
2005.2
1993.24
1990.74
1983.39
1983.45
1990.17
1992.8
1993.49
1993.81
1992.3
2001.78
2013.43
2280.63
2158.71
2224.35
2060.25
2072.01
2020.52
2419.28
1954.12
2306.41
2308.99
51642.6
48888.7
3630.22
1508.45
40306.1
42152
5511.88
2802.69
3199.89
7590.27
3935.89
39769.6
41983.9
39226.1
5787.27
9384.35
3681.36
4083.44
4551.59
4900.07
2192.92
2347.35
2026.92
2044.2
2068.09
2098.43
2586.61
2352.07
2505.66
2292.83
2423.41
2239.57
5682
5363.47
14082
10707.2
13258.2
9808.36
12204.4
8693.12
10910.9
7409.18
38511.3
41204.3
40946.4
38767.9
42001.9
39603.3
42526.8
39849
42782.3
40380.6
11513.5
14759.1
12028.9
41227.2
43776.8
44495.9
15294.1
6152.14
6435.13
15721.3
12585.1
41883.1
45323.9
42619.3
12887.6
16096.3
6909.84
7158.29
7630.81
7837.72
2413.84
2666.19
2141.28
2194.21
2280.82
2451.92
4345.28
4585.58
4831.6
4144.22
2294.9
2154.68
2231.76
2362.02
2436.99
2330.61
2455.95
2548.52
3876.67
4016.03
4112.84
5096.88
5361.18
5611.89
4507.28
3923.34
3344.59
2977.16
2642.11
2366.67
2267.63
2798.69
2533.39
2735.26
2474.76
8451.63
8299.22
17276.3
14037.4
17063.4
13869.2
16748.5
13512.6
16440.8
13301.2
43914.9
46432
47852.9
45159.4
49224.7
46574.7
50607.5
47781.1
51829.7
49034.1
14332.7
17554.6
14456
50020
52999.8
53914.5
17713.2
8893.53
8974.83
17954.7
14715
51003.3
54862.3
51690.9
14808.7
18052.7
9402.31
9358.27
2585.88
2846.83
2650.12
9546.87
9851.56
18068.5
15012.8
18207.4
15028
52172.8
55305.4
55683.9
52207
55084.7
51499.3
15082.5
17960.9
14874.8
49793.4
53945
52304.3
17620.6
10056.3
2941.03
2500.64
2678.97
2937.82
3288.49
3442.91
3153.56
3207.95
2950.34
3059.77
2781.38
9385.69
9708.21
8763.38
16248.1
14300.2
16816.7
14625.4
17428.6
14812.4
48529.7
50667.6
46927.3
48589
44172.2
45735.1
41025.4
13836.3
15332
8922.95
7784.78
7290.05
6130.36
3441.77
3808.02
3842.06
5411.19
5841.24
3591.67
2665.2
2616.08
2852.28
2866.18
3086.47
3252.12
4162.1
3465.65
3612.9
3480.06
3458.48
5794.48
5552.86
4853.88
4526.84
3922.34
4039.03
5694.43
8853.6
5269.31
7715.47
13991.9
16007.3
12567.3
7922.69
5478.74
4421.25
4641.18
5073.68
6138.15
9018.51
12228.2
14458.6
15490.4
14375.9
14175.2
13581.7
13557.9
9166.06
12061.4
12526.5
13433.2
13570.5
12296.2
13050.1
12554.7
10200.1
9440.28
7787.01
6192.3
5567.57
5733.48
5177.66
5547.65
5612.42
4920.73
4478.98
5014.05
6193.23
6736.59
4985.6
4202.92
4024.5
4996.16
7162.61
10597.8
12475.9
12540.6
10555.9
7298.7
5974.16
5522.36
5693.65
6750.62
7162.55
6748.65
5971.6
4839.16
6054.64
7404.88
7226.96
6059.94
4647.36
4421.52
3956.5
5321.98
5691.54
9544.4
9226.21
10841.5
10630.8
13234.7
12444.5
14731.3
13416.6
37326.1
42120.8
38216.9
32118.8
34010.9
21450
19804.8
16471.1
64547.2
78624.2
106620
53150.9
16067.2
13722.5
8362.76
8626.42
7602.74
11623.2
13286.4
38364.4
49023.8
40116.5
24831.7
10619.4
7763.87
5134.34
5441.33
7732.91
6883.1
9767.38
19590
79479
109845
65216
22858.4
17047.5
54314.7
36642.4
15715.5
7279.68
7575.64
11233.5
12240.4
24340.5
18496.9
15012.8
10469.9
10272.3
8049.84
8051.35
9763.67
10117.1
9668.14
11858.8
13404.9
23253.7
35029.8
57807.7
79589.5
129755
117555
72950
32418.9
17319.1
17118.6
13615.8
32933.9
71599.2
102146
259201
83138.8
259238
600424
443757
342904
112835
34671.4
169696
302051
235413
65348.3
42285.3
54000.8
78515.6
49042.8
64851.5
81643.4
49820
70108.1
84203.1
51908.9
72290.4
87670.6
53959.5
75912.1
91152.9
56024.6
78307.1
94774.3
57810.6
82409.6
98568.1
60017
85369.8
103169
62125.7
90092.1
108034
64858.1
93157.3
114834
67079.3
99630.7
123241
74243.6
112621
63643
92128.5
120309
69415.5
102789
128989
76559.8
116748
64134.1
94664
122932
72267.6
115980
62461.6
94880.7
124318
71860.9
113305
59888.1
89779.7
122373
68387
112200
58925.3
91353.1
124520
69512.5
112288
58631.7
88824.6
124735
69085.3
112867
61676.3
99022
52990.4
82260.4
120127
65894.2
107960
59679.6
95979.4
51354.3
77088.7
114238
62084
102060
56167.7
90275.3
51597
83069.5
45927.1
68470.7
104219
56595.8
92451.7
52142
81785.2
47931.5
73809.6
42168.2
58210.7
90882.8
50362.1
79767
46522.6
71731.6
43251.2
64811.2
40141.7
57631.9
36178.5
46306.1
68963.4
42345.8
60623.6
40357.3
54674.6
39428.1
51524
39612.9
50705
39118
46263.4
69551.6
47310.8
67614.7
46460.5
64252
45847.2
59559.7
47189.4
55933.5
45344.8
49818.7
54196
49215.2
48711.7
41679.5
43536
35479
40105.8
35256.4
42482.1
36137.7
38198.9
52974.4
37866.5
51097.1
36110.8
51605.1
35881.1
52876.1
36537.9
52783.3
37553
40696.4
67935.1
41939.9
67747.8
41746.1
70405
42069.4
70797.3
41958
67099.5
43252.5
47099.3
84430.7
48122.6
82079.6
46758.9
83258.6
47230.9
79855.1
50566
56278.3
102472
56800.7
100522
54331.7
99432.2
53187.9
90828.7
55119.1
61194.1
114367
61399.3
108771
57984.6
99378
60049.1
67909.4
127512
68331.2
121572
64057.8
110350
65268.8
72790.6
136759
72031.5
119936
73945.7
81296.7
149860
78934.3
130663
77547.6
84957.7
159085
82659.4
138636
84615.6
91861.5
170605
87929
146009
85185.9
92620.9
175248
88465.9
147633
88707.6
95084.3
162856
96066.2
99794
170859
103242
105228
178146
105078
108079
183712
109884
109773
187793
108347
110204
183622
94271.6
118590
121376
182368
102533
100595
132033
129559
193378
113105
113101
135362
133153
145185
141188
147284
143476
148594
144539
149090
144319
148102
142749
146223
140813
144215
139055
142729
137814
141806
137290
141700
137417
142173
138228
143475
139636
145385
141527
147584
143703
149904
145944
152251
148202
154411
150224
156316
152030
157882
153454
159079
154568
159980
155292
160558
155715
160678
155730
160507
155409
159946
154801
159156
153973
158138
152793
156915
151641
155542
150278
154115
148890
152541
147400
150993
145866
149354
144288
147758
142773
146119
141209
144552
139725
142958
138206
141447
136776
139916
135319
138475
133955
137018
132570
135654
131278
134262
129996
132989
128749
131683
127549
130496
126382
129276
125263
128173
124176
127036
123134
126013
122122
124957
121156
124012
120218
123034
119325
122164
118458
121275
117608
120466
116837
119642
116049
118898
115340
118139
114613
117457
113962
116742
113315
116124
112684
115480
112066
114907
111517
114312
110944
113786
110438
113235
109908
112752
109443
112227
108977
111792
108519
111324
108065
110916
107672
110464
107274
110097
106881
109695
106491
109350
106155
108970
105786
108648
105474
108279
105157
107992
104839
107665
104520
107389
104251
107062
103973
106814
103695
106511
103439
106283
103176
106007
102906
105780
102682
105497
102446
105290
102206
105039
101960
104836
101761
104593
101542
104376
101345
104188
101144
103977
100993
103824
100812
103651
100585
103468
100392
103108
99712.5
102324
98691
102538
94509.6
89572.4
43428.5
47639.5
26944.3
53032.9
48421.7
31161.5
52616.5
48146.3
32080
53314
48624.6
33001.7
53653.5
48909.6
34430.2
53622.7
48988.8
33707.7
53948.8
49207
34799.8
53910.4
49271.3
34054.8
54226.9
49464.3
34923.3
54223.4
49560.3