/*--------------------------------*- C++ -*----------------------------------*\
| =========                 |                                                 |
| \\      /  F ield         | OpenFOAM: The Open Source CFD Toolbox           |
|  \\    /   O peration     | Version:  v2006                                 |
|   \\  /    A nd           | Website:  www.openfoam.com                      |
|    \\/     M anipulation  |                                                 |
\*---------------------------------------------------------------------------*/
FoamFile
{
    version     2.0;
    format      ascii;
    class       volVectorField;
    location    "0.008";
    object      U;
}
// * * * * * * * * * * * * * * * * * * * * * * * * * * * * * * * * * * * * * //

dimensions      [0 1 -1 0 0 0 0];


internalField   nonuniform List<vector> 
10108
(
(53.0233 -4.6035e-05 -5.23631e-20)
(53.0233 -8.64392e-06 4.65254e-20)
(53.0233 8.64033e-06 4.86864e-22)
(53.0232 3.73106e-05 -2.13799e-20)
(53.0218 4.5157e-05 0)
(53.0081 -0.00164067 5.9396e-19)
(52.9595 -0.0101064 -8.04448e-19)
(52.8686 -0.0271582 0)
(52.7415 -0.0502748 -8.79663e-19)
(52.5946 -0.0732263 8.89272e-19)
(52.4355 -0.0940565 -1.42345e-20)
(52.2679 -0.111818 0)
(52.0901 -0.127674 -3.62301e-21)
(51.8997 -0.14209 -1.8195e-21)
(51.695 -0.155592 4.56522e-22)
(51.4756 -0.168359 0)
(51.2416 -0.18056 0)
(50.9932 -0.192312 0)
(50.7306 -0.203683 0)
(50.454 -0.214685 0)
(50.1633 -0.22546 0)
(49.8587 -0.236298 0)
(49.5402 -0.247061 0)
(49.2087 -0.257374 0)
(48.8654 -0.267121 0)
(48.5106 -0.276183 0)
(48.145 -0.284642 0)
(47.7689 -0.292644 0)
(47.3827 -0.300112 0)
(46.9872 -0.30698 0)
(46.5831 -0.313216 0)
(46.1712 -0.318758 0)
(45.7524 -0.323537 0)
(45.3277 -0.327509 0)
(44.898 -0.330629 0)
(44.4645 -0.332846 0)
(44.0283 -0.33412 0)
(43.5907 -0.334418 0)
(43.1529 -0.333714 0)
(42.7162 -0.331986 0)
(42.2818 -0.329226 0)
(41.8511 -0.325428 0)
(41.4253 -0.320595 0)
(41.0058 -0.314735 0)
(40.5938 -0.307864 0)
(40.1905 -0.300005 0)
(39.7972 -0.29119 0)
(39.4149 -0.281455 0)
(39.0447 -0.270842 0)
(38.6877 -0.259392 0)
(38.3448 -0.247153 0)
(38.017 -0.234163 0)
(37.7051 -0.220409 0)
(37.4099 -0.206025 0)
(37.1325 -0.190903 7.4867e-21)
(36.8736 -0.175204 3.00706e-20)
(36.6339 -0.158638 3.02706e-19)
(36.4132 -0.141569 -1.23482e-19)
(36.21 -0.122168 0)
(36.0244 -0.101441 -5.30141e-19)
(35.8657 -0.0777791 0)
(35.7541 -0.0576263 2.30334e-18)
(35.7009 -0.043376 8.72312e-18)
(35.688 -0.0255016 8.65e-18)
(35.6894 -0.00980124 -1.46666e-17)
(35.6894 -0.00932767 2.77328e-18)
(35.6824 -0.00823631 0)
(35.651 -0.0100341 0)
(35.5768 -0.0230097 5.54588e-19)
(35.425 -0.0436586 -1.57745e-18)
(35.2377 -0.0652121 0)
(34.5243 -0.100345 0)
(34.0846 -0.0760951 0)
(35.2646 -0.0888516 0)
(35.4858 -0.07855 -1.53506e-18)
(35.5488 -0.102975 4.44213e-18)
(35.2683 -0.114737 0)
(33.6565 -0.0838887 0)
(33.2104 -0.077499 0)
(35.223 -0.116556 8.19089e-19)
(35.5735 -0.114726 8.54561e-20)
(35.56 -0.12232 -1.02519e-18)
(35.1328 -0.113137 -4.21339e-19)
(32.7929 -0.06793 -5.13725e-19)
(32.3668 -0.0575886 4.73567e-19)
(35.0048 -0.108739 1.2397e-20)
(35.5178 -0.124607 6.60852e-19)
(35.4534 -0.128413 -3.38283e-19)
(34.8643 -0.106583 -1.2818e-20)
(31.9709 -0.0527223 0)
(31.5845 -0.0497134 3.80621e-21)
(34.7008 -0.103061 0)
(35.3723 -0.129731 3.38368e-19)
(35.2771 -0.131346 0)
(34.5364 -0.100538 5.14559e-20)
(31.2164 -0.0478446 -3.89123e-21)
(30.8701 -0.0452833 0)
(34.3618 -0.0975535 -5.15211e-20)
(35.1691 -0.132814 0)
(35.0476 -0.132833 0)
(34.1772 -0.0944938 0)
(30.5382 -0.0424388 0)
(30.2238 -0.0399443 0)
(33.9864 -0.0912821 6.48258e-21)
(34.9195 -0.133292 0)
(34.7763 -0.132782 3.4534e-19)
(33.7894 -0.0891258 -4.2163e-19)
(29.9181 -0.0376236 0)
(29.6247 -0.0360487 0)
(33.5876 -0.087193 0)
(34.6292 -0.133723 0)
(34.4681 -0.134106 0)
(33.3803 -0.0865758 0)
(29.3332 -0.0349394 0)
(29.0466 -0.0345836 0)
(33.1678 -0.0863876 0)
(34.3051 -0.13645 0)
(34.1286 -0.138074 0)
(32.9496 -0.0872281 0)
(28.754 -0.0345933 0)
(28.4614 -0.0349009 0)
(32.7252 -0.0879905 0)
(33.951 -0.141409 0)
(33.7594 -0.143326 0)
(32.4945 -0.0890358 0)
(28.1595 -0.0351286 0)
(27.8586 -0.0350838 0)
(32.2572 -0.0895431 0)
(33.5665 -0.1466 0)
(33.3584 -0.148032 0)
(32.013 -0.0899861 0)
(27.5508 -0.034852 0)
(27.2467 -0.0341924 0)
(31.7619 -0.0899379 0)
(33.1489 -0.15098 0)
(32.9225 -0.152123 0)
(31.5031 -0.0899627 0)
(26.9388 -0.0336018 0)
(26.6356 -0.0327386 0)
(31.2373 -0.0898763 0)
(32.6946 -0.1553 0)
(32.4481 -0.156838 0)
(30.9628 -0.0901464 0)
(26.3289 -0.0323168 0)
(26.0248 -0.0317062 0)
(30.6807 -0.0906309 0)
(32.1996 -0.160856 0)
(31.9311 -0.16325 0)
(30.3887 -0.0915948 0)
(25.7151 -0.0317273 0)
(25.4048 -0.0314761 0)
(30.0881 -0.0928701 0)
(31.6604 -0.168341 0)
(31.3683 -0.171707 0)
(29.7763 -0.0945897 0)
(25.0866 -0.0319402 0)
(24.7647 -0.032017 0)
(29.4546 -0.0966138 0)
(31.0734 -0.177846 0)
(30.7561 -0.182106 0)
(29.1205 -0.0990339 0)
(24.4328 -0.0328763 0)
(24.0947 -0.0332537 0)
(28.7754 -0.101785 0)
(30.4358 -0.189215 0)
(30.0932 -0.194366 0)
(28.4178 -0.104919 0)
(23.7451 -0.0345041 0)
(23.387 -0.0352283 0)
(28.0483 -0.108416 0)
(29.7476 -0.202322 0)
(29.3775 -0.208603 0)
(27.6639 -0.112363 0)
(23.0133 -0.0368806 0)
(22.6277 -0.0379843 0)
(27.2651 -0.116732 0)
(29.003 -0.217707 0)
(28.6035 -0.224743 0)
(26.8507 -0.121218 0)
(22.2242 -0.039923 0)
(21.8079 -0.0411698 0)
(26.421 -0.126108 0)
(28.1992 -0.234773 0)
(27.7686 -0.242311 0)
(25.9744 -0.130868 0)
(21.3717 -0.0432175 0)
(20.9225 -0.0444112 0)
(25.5107 -0.136074 0)
(27.3319 -0.25319 0)
(26.8671 -0.261128 0)
(25.029 -0.140909 0)
(20.4526 -0.0464327 0)
(19.9708 -0.0474936 0)
(24.5295 -0.146284 0)
(26.3955 -0.272758 0)
(25.8942 -0.281509 0)
(24.0107 -0.151375 0)
(19.4677 -0.0495956 0)
(18.9525 -0.0506821 0)
(23.4726 -0.157211 0)
(25.3844 -0.294234 0)
(24.8421 -0.304098 0)
(22.9128 -0.162873 0)
(18.4139 -0.0530308 0)
(17.8611 -0.0543881 0)
(22.3311 -0.16968 0)
(24.2894 -0.318504 0)
(23.7012 -0.330638 0)
(21.7247 -0.176747 0)
(17.2814 -0.05733 0)
(16.6822 -0.0594421 0)
(21.0925 -0.185581 0)
(23.1002 -0.348257 0)
(22.459 -0.364586 0)
(20.4296 -0.19531 0)
(16.0478 -0.0634946 0)
(15.3859 -0.0670173 0)
(19.7344 -0.207748 0)
(21.8009 -0.38771 0)
(21.0971 -0.411388 0)
(19.0001 -0.222519 0)
(14.6754 -0.0742654 0)
(13.9123 -0.081 0)
(18.2233 -0.24075 0)
(20.371 -0.443214 0)
(19.5887 -0.476221 0)
(17.3931 -0.260805 0)
(13.0815 -0.0900561 0)
(12.1861 -0.0975454 0)
(16.5033 -0.284488 0)
(18.7713 -0.518925 0)
(17.8768 -0.566779 0)
(15.5373 -0.312296 0)
(11.2075 -0.108618 0)
(10.1348 -0.11883 0)
(14.4802 -0.347058 0)
(16.9238 -0.630282 0)
(15.856 -0.708591 0)
(13.3047 -0.391758 0)
(8.94554 -0.135488 0)
(7.59848 -0.155323 0)
(11.9745 -0.453729 0)
(14.6867 -0.817485 0)
(13.3282 -0.962575 0)
(10.4245 -0.528724 0)
(5.99884 -0.173338 0)
(4.34096 -0.294958 0)
(8.62622 -0.741183 0)
(11.8064 -1.24249 0)
(10.0878 -1.46486 0)
(6.30829 -0.92995 0)
(1.13614 -0.389633 0)
(-2.03435 -0.0764328 0)
(4.04632 -0.799432 0)
(8.33713 -1.41724 0)
(5.92016 -1.32897 0)
(0.786368 -0.478477 0)
(-2.93591 0.0913044 0)
(-3.70622 -0.0761514 0)
(-1.85269 -0.223571 0)
(3.22498 -1.02397 0)
(0.75735 -0.570021 0)
(-2.93164 -0.145582 0)
(-4.4245 -0.0814708 0)
(-4.82516 0.0322556 0)
(-3.56956 -0.109667 0)
(-0.749863 -0.125099 0)
(-1.49322 0.161777 0)
(-3.78146 -0.069884 0)
(-4.87606 0.0998994 0)
(-4.48235 0.109263 0)
(-3.47857 0.0690156 0)
(-1.5456 0.286154 0)
(-1.96852 0.144182 0)
(-3.43273 0.0424555 0)
(-4.11059 0.076869 0)
(-3.75033 0.0592591 0)
(-3.25964 0.0427252 0)
(-2.05639 0.109863 0)
(-2.52143 -0.112852 0)
(-3.48314 -0.054372 0)
(-3.7586 -0.000885919 0)
(-3.87611 -0.00818546 0)
(-3.64696 -0.0392659 0)
(-2.78183 -0.0760591 0)
(-3.19682 -0.207298 0)
(-3.97315 -0.110608 0)
(-4.18137 -0.0380668 0)
(-4.44714 -0.015282 0)
(-4.18447 -0.034503 0)
(-3.43338 -0.053716 0)
(-3.61677 -0.0982101 0)
(-4.3422 -0.0566171 0)
(-4.64636 -0.0254332 0)
(-4.698 0.0158576 0)
(-4.31617 0.0558513 0)
(-3.5955 0.129763 0)
(-3.37972 0.13518 0)
(-4.08078 0.0626803 0)
(-4.50769 0.0148824 0)
(-4.22434 0.047341 0)
(-3.73306 0.1585 0)
(-3.03069 0.310612 0)
(-2.45774 0.341848 0)
(-3.13879 0.177868 0)
(-3.67724 0.050799 0)
(-3.12839 0.0656064 0)
(-2.52745 0.21777 0)
(-1.84473 0.41561 0)
(-1.09172 0.505423 0)
(-1.74944 0.267972 0)
(-2.40267 0.0808811 0)
(-1.52502 0.102694 0)
(-0.81704 0.325561 0)
(-0.184307 0.602664 0)
(0.826183 0.690459 0)
(0.273858 0.382835 0)
(-0.445947 0.127305 0)
(0.823576 0.134716 0)
(1.48431 0.408863 0)
(1.96621 0.741887 0)
(3.17381 0.768424 0)
(2.74103 0.41795 0)
(2.06718 0.133777 0)
(3.38181 0.139432 0)
(4.07074 0.433568 0)
(4.4571 0.796188 0)
(5.72804 0.770026 0)
(5.38674 0.417311 0)
(4.68199 0.133785 0)
(5.96156 0.133583 0)
(6.67531 0.409644 0)
(6.95504 0.75318 0)
(8.0911 0.673582 0)
(7.8761 0.365322 0)
(7.15585 0.119743 0)
(8.22342 0.107921 0)
(8.95338 0.331897 0)
(9.09604 0.613114 0)
(10.0503 0.578919 0)
(9.96391 0.313547 0)
(9.22076 0.102644 0)
(10.1022 0.0824149 0)
(10.8669 0.2631 0)
(10.8861 0.488855 0)
(11.6741 0.438635 0)
(11.6991 0.23554 0)
(10.9026 0.0722158 0)
(11.3949 0.01259 0)
(12.2664 0.0919828 0)
(12.2049 0.155688 0)
(12.4685 0.00314076 0)
(12.5324 0.0131675 0)
(11.5556 -0.0234565 0)
(11.0967 -0.10011 0)
(12.1965 -0.217215 0)
(12.1447 -0.42115 0)
(11.6444 -0.35748 0)
(11.6614 -0.211045 0)
(10.4048 -0.096201 0)
(9.18422 -0.171882 0)
(10.6214 -0.440957 0)
(10.6957 -0.787765 0)
(9.80126 -0.413167 0)
(9.67158 -0.293224 0)
(8.01136 -0.108037 0)
(6.75536 -0.162154 0)
(8.62022 -0.416555 0)
(8.88888 -0.758384 0)
(8.18403 -0.209859 0)
(7.9062 -0.0621369 0)
(5.77255 -0.0885899 0)
(5.44031 -0.0737386 0)
(7.68145 -0.0736221 0)
(7.94031 -0.396795 0)
(7.11059 0.313111 -8.7638e-20)
(7.31998 0.25055 0)
(5.47999 0.140028 0)
(7.02507 0.289548 0)
(7.91109 0.376195 0)
(6.77773 0.578551 8.75957e-20)
(5.60956 1.04202 -8.76053e-20)
(8.51183 0.492977 0)
(9.1782 0.369333 0)
(10.9372 0.286473 0)
(9.68253 -0.00923473 0)
(6.14078 0.669204 8.75901e-20)
(5.46021 0.0133573 -8.7687e-20)
(9.6851 -0.348868 0)
(11.2256 0.158695 0)
(10.3117 -0.0516322 0)
(8.51854 -0.554686 0)
(3.78041 -0.873615 8.76334e-20)
(0.178387 -1.48265 0)
(6.28688 -0.500504 0)
(8.54663 -0.185424 0)
(6.8356 -0.0841975 0)
(3.73285 -0.64618 0)
(-4.59389 -2.04443 0)
(-8.70248 -2.09209 0)
(-1.60231 -0.963584 0)
(5.1104 0.0595134 0)
(2.93343 -0.336927 0)
(-5.19456 -1.20463 0)
(-11.6738 -2.01372 0)
(-14.2672 -1.79158 -8.72126e-20)
(-8.40019 -1.06869 0)
(-2.004 -0.483487 0)
(-4.40677 -0.236264 0)
(-10.9632 -0.709946 0)
(-16.6042 -1.3543 8.71201e-20)
(-18.6203 -1.08898 -8.71768e-20)
(-13.0649 -0.560415 0)
(-6.29327 -0.178355 0)
(-7.82667 -0.147715 0)
(-14.7981 -0.460519 0)
(-20.2918 -0.900343 8.70758e-20)
(-21.7452 -0.745982 0)
(-16.2386 -0.373666 0)
(-9.07991 -0.116141 0)
(-10.1019 -0.0956154 0)
(-17.4388 -0.305234 0)
(-22.9515 -0.61792 0)
(-24.0059 -0.511782 0)
(-18.4328 -0.24348 0)
(-10.9187 -0.0718283 0)
(-11.5588 -0.0571133 0)
(-19.2496 -0.196865 0)
(-24.8702 -0.425703 0)
(-25.6468 -0.349472 0)
(-19.9319 -0.152487 0)
(-12.0568 -0.0393458 0)
(-12.4369 -0.0291227 0)
(-20.4973 -0.119233 0)
(-26.2863 -0.28627 0)
(-26.8698 -0.228619 0)
(-20.967 -0.0848241 0)
(-12.7107 -0.0136323 0)
(-12.8891 -0.00677633 0)
(-21.3502 -0.0626159 0)
(-27.3381 -0.182517 0)
(-27.7699 -0.141831 0)
(-21.6633 -0.0391792 0)
(-12.9982 0.00253716 0)
(-13.0563 0.00301309 0)
(-21.91 -0.0270529 0)
(-28.0996 -0.111451 0)
(-28.4125 -0.0829425 0)
(-22.1063 -0.00937134 0)
(-13.0785 0.0103456 0)
(-13.0547 0.0132774 -6.30387e-20)
(-22.2606 -9.10608e-05 0)
(-28.6432 -0.0605278 0)
(-28.8722 -0.0379278 0)
(-22.39 0.0174215 0)
(-12.9892 0.0233411 6.29686e-20)
(-12.8612 0.0254655 -6.29254e-20)
(-22.4824 0.0237046 -4.17448e-19)
(-29.0351 -0.0233129 3.47532e-19)
(-29.1928 -0.00731009 -8.65117e-20)
(-22.5712 0.0373885 1.03814e-19)
(-12.7214 0.0319115 1.24918e-19)
(-12.5339 0.0353122 -6.24281e-20)
(-22.6017 0.0405912 -1.03492e-19)
(-29.3169 0.00346881 8.61145e-20)
(-29.4355 0.0137379 -6.77997e-19)
(-22.68 0.0466341 4.02932e-19)
(-12.3302 0.0453596 4.83843e-19)
(-12.0912 0.0327135 -9.83107e-19)
(-22.7239 0.0343006 2.0339e-19)
(-29.5354 0.0154583 -1.68669e-19)
(-29.6183 0.0124016 -4.84934e-19)
(-22.7949 0.015507 -1.92315e-19)
(-12.0077 0.0131107 0)
(-12.0336 -0.00189027 -2.47793e-19)
(-22.8525 0.012417 -8.11236e-19)
(-29.7252 0.00163774 3.96227e-18)
(-29.84 0.00225093 -6.3906e-19)
(-22.9549 0.0188608 -7.6222e-19)
(-12.0399 -0.0040629 -2.26736e-19)
(-12.0529 -0.0262024 -5.36774e-19)
(-22.974 0.0194104 0)
(-29.8919 0.00204849 1.40942e-18)
(-29.9545 -0.00430499 -5.62904e-18)
(-23.0295 0.0198831 0)
(-12.1723 -0.0407042 1.00182e-18)
(-12.2912 -0.0351926 0)
(-23.1798 0.0323604 9.18774e-19)
(-30.1229 -0.0209627 -8.60439e-19)
(-35.9006 0.0501452 1.12228e-18)
(-37.1496 0.0349226 -6.91452e-20)
(-39.8371 0.0730679 0)
(-40.8633 0.00910522 0)
(-41.4736 0.00804141 0)
(-42.6061 -0.0349051 9.36928e-19)
(-42.8763 -0.0507144 -9.8967e-19)
(-43.7983 -0.0619116 1.17649e-19)
(-44.1573 -0.0811565 -5.89436e-20)
(-45.3352 -0.0805771 0)
(-45.7942 -0.0957962 0)
(-48.0386 -0.089433 0)
(-48.4436 -0.0950293 0)
(-58.2862 -0.0937623 0)
(-61.0919 -0.0791154 9.79847e-19)
(-62.6757 -0.140205 -2.98872e-18)
(-62.9455 -0.132326 2.08841e-18)
(-63.0352 -0.135461 0)
(-63.0695 -0.15674 -1.12796e-18)
(-63.1256 -0.194426 -3.5253e-17)
(-63.205 -0.209711 8.25096e-17)
(-63.3833 -0.0474276 0)
(-63.4205 0.0305015 0)
(-72.3954 0.835445 1.32731e-17)
(-81.7979 0.0885202 0)
(-81.7281 -0.36261 0)
(-56.7565 -1.09869 8.99789e-18)
(-56.3174 -1.149 -1.14446e-17)
(-75.3498 -1.06771 -7.52477e-17)
(-78.8602 -0.807471 -2.37813e-20)
(-77.3758 -0.0578878 3.15642e-17)
(-75.3812 -0.150531 2.94022e-17)
(-58.9951 -0.329355 0)
(-59.472 0.0197311 -5.5506e-18)
(-75.5967 0.282162 1.61456e-17)
(-77.1209 0.361885 -7.68283e-18)
(-77.1003 0.400036 -3.42332e-18)
(-75.7161 0.3149 -3.19714e-18)
(-59.1095 0.112711 0)
(-58.1694 0.108149 0)
(-75.1015 0.211544 -1.96645e-18)
(-77.0962 0.256083 0)
(-77.0946 0.328669 0)
(-74.8309 0.239564 9.99701e-19)
(-57.1125 0.124812 1.52115e-19)
(-56.1079 0.11329 -2.81212e-23)
(-74.0842 0.18918 0)
(-76.9711 0.25612 -3.30392e-18)
(-76.9554 0.339965 8.32711e-19)
(-73.7706 0.230626 -1.01173e-18)
(-55.1153 0.116659 -2.98687e-23)
(-54.1917 0.0968576 -2.58487e-18)
(-72.967 0.177072 -1.7761e-23)
(-76.8358 0.25453 -1.66589e-18)
(-76.8078 0.330352 1.68712e-18)
(-72.6184 0.220724 -1.00616e-18)
(-53.2668 0.0985783 -1.07414e-18)
(-52.4313 0.0821871 -2.77721e-23)
(-71.9279 0.178869 0)
(-76.5857 0.249582 -1.6834e-18)
(-76.5036 0.315437 1.67815e-18)
(-71.5511 0.212017 0)
(-51.6233 0.0731825 -2.68771e-23)
(-50.9011 0.0541056 -1.53583e-19)
(-70.8392 0.164724 0)
(-76.2691 0.228355 -1.67662e-18)
(-76.1563 0.281882 1.67825e-18)
(-70.4677 0.191179 0)
(-50.2412 0.0453733 0)
(-49.6494 0.0264413 0)
(-69.7776 0.142656 0)
(-75.8912 0.19457 -1.67689e-18)
(-75.753 0.251369 1.6784e-18)
(-69.4131 0.169672 0)
(-49.1676 0.0227608 0)
(-48.6861 0.00636248 0)
(-68.7475 0.121144 0)
(-75.4527 0.167763 -1.6772e-18)
(-75.2875 0.220631 1.67859e-18)
(-68.3996 0.143487 0)
(-48.3628 0.00459337 0)
(-47.985 -0.0083674 0)
(-67.7751 0.096988 0)
(-74.9662 0.140645 -1.67757e-18)
(-74.7818 0.199266 1.67884e-18)
(-67.455 0.120942 0)
(-47.7938 -0.00670021 0)
(-47.4911 -0.0162643 0)
(-66.8659 0.0773112 0)
(-74.434 0.123378 -1.67796e-18)
(-74.2312 0.175946 1.67911e-18)
(-66.5794 0.0973807 0)
(-47.4003 -0.0138832 0)
(-47.1617 -0.0196382 0)
(-66.0394 0.0581836 0)
(-73.8746 0.104545 0)
(-73.6656 0.161302 0)
(-65.7948 0.0807073 0)
(-47.1386 -0.0151773 0)
(-46.9367 -0.0192686 0)
(-65.2951 0.0440245 0)
(-73.2976 0.093398 -1.67876e-18)
(-73.0849 0.142032 1.67971e-18)
(-65.0932 0.0619569 0)
(-46.9664 -0.0162962 0)
(-46.8066 -0.0192445 0)
(-64.6458 0.0285214 0)
(-72.7237 0.0763498 0)
(-72.5201 0.12704 0)
(-64.4918 0.048327 0)
(-46.883 -0.015804 0)
(-46.751 -0.0178854 0)
(-64.0886 0.0171292 0)
(-72.1652 0.0640917 -1.67952e-18)
(-71.9762 0.10696 -1.68023e-18)
(-63.9813 0.032956 0)
(-46.8654 -0.0160641 0)
(-46.7667 -0.01754 0)
(-63.6312 0.00487252 0)
(-71.6453 0.0461036 1.67819e-18)
(-71.4839 0.0887159 -1.68208e-18)
(-63.5745 0.0214021 0)
(-46.9192 -0.0159197 0)
(-46.8466 -0.0170297 0)
(-63.2725 -0.00507386 0)
(-71.1792 0.0302276 -1.68011e-18)
(-71.0538 0.0649399 1.68049e-18)
(-63.268 0.00719558 0)
(-47.0367 -0.01707 0)
(-46.9998 -0.0177542 0)
(-63.0257 -0.0173723 0)
(-70.7936 0.00763432 -1.68029e-18)
(-70.7189 0.0408634 1.68047e-18)
(-63.0817 -0.00546775 0)
(-47.2328 -0.0181917 0)
(-47.2312 -0.0189812 0)
(-62.8992 -0.0291291 0)
(-70.508 -0.0161542 -1.68035e-18)
(-70.4962 0.00725188 1.68029e-18)
(-63.0238 -0.0224641 0)
(-47.5172 -0.0215232 0)
(-47.5683 -0.0227149 0)
(-62.9213 -0.0463447 0)
(-70.3585 -0.0518372 -1.6803e-18)
(-70.4326 -0.0330468 1.67992e-18)
(-63.1349 -0.0424156 0)
(-47.9313 -0.0263783 0)
(-48.0485 -0.0281917 0)
(-63.1282 -0.0676466 0)
(-70.3849 -0.096247 -1.68009e-18)
(-70.5725 -0.0934603 1.67926e-18)
(-63.4589 -0.0730821 0)
(-48.5217 -0.0355098 0)
(-48.7486 -0.0394202 0)
(-63.598 -0.104626 0)
(-70.6642 -0.171192 -1.67974e-18)
(-71.0267 -0.189483 1.67812e-18)
(-64.1145 -0.122878 0)
(-49.4134 -0.0518965 0)
(-49.8315 -0.0610656 0)
(-64.4949 -0.175221 0)
(-71.34 -0.305409 -1.67912e-18)
(-71.9827 -0.401027 -1.68354e-18)
(-65.3726 -0.251505 0)
(-50.9567 -0.102628 0)
(-51.8551 -0.272782 2.45038e-18)
(-66.1407 -0.531024 -2.02863e-18)
(-72.6298 -0.739922 0)
(-73.5128 -1.23257 0)
(-67.1746 -1.04505 -4.05979e-18)
(-53.0806 -0.636448 9.8111e-18)
(-53.7015 -1.15369 0)
(-67.8531 -1.73056 0)
(-74.1143 -1.92676 0)
(-74.731 -2.7145 1.03814e-21)
(-68.5345 -2.59185 7.98617e-18)
(-54.3367 -1.80527 -1.94844e-17)
(-54.5662 -2.28206 0)
(-68.8634 -3.20466 0)
(-75.0537 -3.4021 0)
(-75.5301 -4.03803 -1.29702e-17)
(-69.3896 -3.82114 1.55957e-17)
(-54.8522 -2.74574 0)
(-55.3495 -3.21752 0)
(-69.805 -4.39906 0)
(-75.9233 -4.67996 1.28006e-17)
(-76.4711 -5.33067 0)
(-70.411 -5.02371 0)
(-55.8281 -3.69212 3.64403e-17)
(-56.1926 -4.11527 3.62625e-17)
(-70.925 -5.59256 -3.01048e-17)
(-76.927 -5.96776 3.8655e-19)
(-77.5858 -6.58593 -3.70885e-17)
(-71.7275 -6.17474 3.00731e-17)
(-56.9919 -4.58499 5.58559e-19)
(-57.6852 -4.99457 3.46767e-17)
(-72.464 -6.71995 -2.92136e-17)
(-78.2418 -7.22173 0)
(-79.0252 -7.9418 -2.51662e-17)
(-73.4269 -7.43006 2.96639e-17)
(-58.9075 -5.59366 -1.09912e-18)
(-59.9267 -6.14992 -3.28907e-17)
(-74.3903 -8.13462 -8.75968e-19)
(-79.7859 -8.70209 2.43921e-17)
(-80.6298 -9.46003 2.70588e-17)
(-75.521 -8.81925 2.35155e-17)
(-61.3178 -6.74862 -2.91014e-17)
(-64.213 -8.04678 1.88798e-17)
(-77.9876 -10.0086 -4.29224e-17)
(-82.4145 -10.6721 1.28989e-17)
(-79.7236 -10.9471 1.22178e-16)
(-75.0406 -10.1608 2.22621e-18)
(-64.6102 -8.50327 1.03912e-17)
(-67.0743 -8.96994 0)
(-77.1716 -10.6344 -5.99437e-18)
(-80.6383 -11.42 0)
(-81.9642 -11.9133 2.8632e-17)
(-79.0335 -11.2127 -3.15649e-17)
(-68.9561 -9.38665 4.31077e-17)
(-70.9685 -10.1257 -3.81818e-17)
(-81.018 -12.2592 3.00728e-17)
(-83.6382 -12.8382 -2.57104e-17)
(-85.2626 -14.012 3.72867e-19)
(-82.8395 -13.5045 9.20734e-19)
(-72.608 -11.0352 -1.13124e-18)
(-74.2473 -11.9953 6.61733e-17)
(-84.6059 -14.7425 -8.59207e-19)
(-86.8282 -15.2947 -1.95611e-17)
(-88.4493 -16.7966 1.81418e-17)
(-86.4168 -16.1288 -1.94357e-17)
(-75.9818 -13.1471 2.03405e-18)
(-79.0227 -15.2453 -7.34865e-18)
(-89.4214 -18.2438 -5.59543e-18)
(-91.0838 -19.1198 8.40811e-18)
(-90.5508 -19.5875 -1.48484e-17)
(-87.8118 -18.7985 0)
(-79.9804 -16.3586 9.27003e-17)
(-83.1914 -17.9155 1.08521e-16)
(-90.4897 -20.5217 1.49778e-18)
(-92.1829 -21.5271 1.35275e-18)
(-94.5346 -23.6824 0)
(-93.4738 -22.8106 -1.10199e-18)
(-86.3622 -19.6343 8.70082e-17)
(-89.8234 -21.9275 0)
(-96.7143 -25.6869 0)
(-97.3407 -26.7018 0)
(-101.167 -31.9746 4.77359e-17)
(-101.405 -30.7079 -3.90398e-17)
(-94.6884 -26.4057 6.06752e-17)
(-96.9468 -29.198 1.17635e-17)
(-101.967 -32.8399 -1.96438e-17)
(-103.334 -33.4931 -1.65385e-17)
(-105.846 -39.4041 -5.58721e-17)
(-106.131 -38.5733 5.11603e-17)
(-102.448 -34.4136 -1.83598e-18)
(-108.424 -40.587 1.39685e-18)
(-110.358 -45.6914 0)
(-108.73 -46.1909 5.45353e-17)
(-110.515 -56.7654 7.76824e-17)
(-114.545 -56.7311 1.305e-17)
(-115.383 -50.9883 -7.12615e-17)
(-117.237 -60.6031 1.80043e-16)
(-114.323 -66.5781 -1.60364e-16)
(-112.75 -64.7698 7.12806e-18)
(-107.083 -80.7631 5.65997e-17)
(-110.145 -85.5511 -1.59567e-16)
(-118.321 -82.2644 1.0003e-16)
(-103.772 -101.026 -1.91076e-16)
(-88.4073 -105.679 0)
(-89.5739 -98.1053 -1.00187e-16)
(-49.6101 -101.69 0)
(-33.8135 -105.877 4.7363e-17)
(-49.8459 -97.751 -6.45999e-17)
(-18.9424 16.4484 0)
(-11.0813 -21.9702 9.68281e-17)
(-20.0502 -46.8857 -1.58887e-16)
(-21.1282 18.6016 1.06202e-16)
(-25.0079 32.0282 -1.24219e-16)
(-24.4397 35.6479 1.97161e-16)
(-15.8127 15.9823 0)
(-13.5289 18.2211 -2.15968e-17)
(-9.86072 18.5979 0)
(-14.2939 12.3493 0)
(-13.4377 12.8407 0)
(-13.0484 10.0064 -1.01141e-16)
(-12.04 8.06255 1.73829e-16)
(-13.9248 9.66909 -1.29647e-16)
(-13.5121 9.50333 0)
(-14.9793 8.57309 -9.95841e-17)
(-14.2292 8.48816 2.22685e-16)
(-11.1432 6.66603 -1.23654e-16)
(-11.4352 6.4228 1.02446e-17)
(-14.4822 8.19667 0)
(-15.4742 8.4926 0)
(-17.3263 8.18505 -3.06046e-18)
(-16.4052 8.29235 0)
(-12.5127 6.58946 -1.02004e-16)
(-12.8557 6.47964 -1.2547e-16)
(-16.8488 8.22008 -6.22527e-17)
(-18.0357 8.39639 4.93949e-17)
(-18.5119 8.94749 -9.17498e-17)
(-17.3885 8.61526 2.8203e-17)
(-14.1046 7.0493 3.30423e-18)
(-15.2537 7.42012 0)
(-19.2656 8.98197 -2.01119e-17)
(-20.209 8.92678 1.19743e-17)
(-20.6875 9.27932 2.41937e-17)
(-19.569 9.09188 6.74694e-18)
(-15.6328 7.48608 1.18605e-16)
(-16.7216 7.96372 1.06222e-16)
(-19.978 9.41344 8.80551e-17)
(-21.0742 9.75593 -1.32243e-16)
(-22.5025 9.83941 -1.16903e-17)
(-21.6421 9.88676 0)
(-17.7245 8.40477 0)
(-18.0635 8.50631 1.19746e-16)
(-21.8721 10.0263 -5.27063e-17)
(-22.894 10.2184 -6.49066e-17)
(-23.2294 10.742 -1.52107e-16)
(-22.1745 10.4175 0)
(-18.9777 9.01921 0)
(-19.9419 9.43919 0)
(-23.7507 10.8679 0)
(-24.528 10.8395 -9.25313e-17)
(-24.8433 11.2109 0)
(-23.8952 11.011 0)
(-20.1706 9.53382 -1.1853e-16)
(-21.0085 10.0986 -2.00385e-16)
(-24.1588 11.4565 3.3998e-16)
(-25.1736 11.7607 8.11039e-21)
(-26.4526 11.876 0)
(-25.7311 11.9348 -1.18392e-16)
(-21.9695 10.5444 1.62813e-16)
(-22.2594 10.7354 0)
(-25.925 12.1816 -6.38188e-18)
(-26.8313 12.3496 0)
(-27.1659 12.9209 1.44335e-16)
(-26.1829 12.604 -1.67572e-16)
(-23.047 11.2674 2.97913e-16)
(-23.9169 11.7227 -1.59616e-16)
(-27.655 13.1072 1.21739e-16)
(-28.3399 13.0686 -5.67698e-18)
(-28.6659 13.6135 1.1366e-17)
(-27.7981 13.461 -1.01805e-16)
(-24.165 11.9974 2.28138e-16)
(-24.9901 12.5526 2.83935e-16)
(-28.0887 13.8932 -1.46449e-16)
(-29.0234 14.1955 0)
(-30.1891 14.3619 0)
(-29.561 14.4523 -1.51425e-17)
(-25.8778 13.0661 1.00873e-17)
(-26.1981 13.3804 1.12344e-16)
(-29.7796 14.8475 0)
(-30.5912 14.9705 0)
(-30.962 15.5875 0)
(-30.062 15.2735 -1.46962e-16)
(-26.9828 13.9172 2.86819e-16)
(-27.8452 14.4753 1.2676e-17)
(-31.4803 15.8827 -1.52535e-17)
(-32.0609 15.7863 9.1009e-17)
(-32.429 16.3834 0)
(-31.6863 16.2557 6.4354e-18)
(-28.1394 14.7746 -7.71494e-22)
(-28.8582 15.3452 -1.02955e-16)
(-31.9394 16.6997 1.58886e-17)
(-32.7897 17.0068 -1.44249e-16)
(-33.846 17.213 0)
(-33.3227 17.32 -1.54655e-17)
(-29.6902 15.9237 0)
(-30.0346 16.3794 0)
(-33.5477 17.8802 9.83163e-17)
(-34.2662 17.9604 -1.39634e-16)
(-34.6628 18.6073 0)
(-33.8599 18.3004 5.46475e-18)
(-30.8695 16.9454 0)
(-31.6715 17.4862 0)
(-35.1704 18.8757 0)
(-35.6324 18.8033 0)
(-35.9493 19.5481 -6.20279e-18)
(-35.2846 19.4586 0)
(-31.9106 17.938 -1.27337e-16)
(-32.8016 18.5176 -3.42183e-16)
(-35.5187 19.8539 2.05719e-16)
(-36.2789 20.1384 -7.79822e-17)
(-37.1483 20.3075 -8.89485e-18)
(-36.7302 20.3491 -1.07549e-17)
(-33.7922 19.0835 0)
(-34.0412 19.6916 0)
(-36.7547 21.0017 -1.90262e-17)
(-37.4234 21.209 1.33346e-16)
(-38.3344 21.4444 5.52746e-18)
(-38.0184 21.6786 1.33562e-16)
(-34.9413 20.3447 -8.46138e-17)
(-35.1323 20.5675 1.10648e-17)
(-38.254 22.0418 -6.40442e-18)
(-38.7469 22.1415 -5.12294e-17)
(-38.9863 22.7403 6.85676e-17)
(-38.3006 22.4068 -1.61523e-17)
(-35.4375 20.9865 8.64041e-17)
(-36.2092 21.7473 1.06924e-17)
(-39.3867 23.216 1.59475e-17)
(-39.7244 23.0584 0)
(-40.0392 23.6604 4.93675e-17)
(-39.5964 23.5984 -1.03803e-16)
(-36.6119 22.1125 2.53675e-16)
(-37.1553 22.5628 3.41843e-16)
(-39.6625 23.8627 -1.98724e-16)
(-40.272 24.1373 0)
(-40.8111 24.3361 0)
(-40.5708 24.3628 -5.36977e-18)
(-37.9503 23.1338 -9.75596e-17)
(-38.2038 23.8891 -5.78969e-18)
(-40.5268 25.1503 4.76159e-18)
(-41.0173 25.2651 0)
(-41.7267 25.385 0)
(-41.6924 25.6414 0)
(-39.0978 24.3998 0)
(-39.0938 24.5165 -9.99664e-22)
(-41.8069 25.9074 -2.0348e-16)
(-42.0623 25.9413 8.72794e-17)
(-42.2752 26.5549 -7.4393e-17)
(-41.7054 26.2416 5.79249e-18)
(-39.2 24.8933 0)
(-39.9639 25.706 1.97054e-16)
(-42.445 26.9948 -1.04735e-17)
(-42.677 26.8939 8.68282e-18)
(-42.9211 27.6166 -7.75956e-18)
(-42.5169 27.4814 0)
(-40.3544 26.245 5.74019e-18)
(-40.9815 26.5984 -1.59635e-16)
(-43.395 27.8377 0)
(-43.3239 27.6814 -8.81272e-17)
(-43.43 28.1474 1.44847e-16)
(-43.2476 28.0181 6.03578e-21)
(-40.6918 26.6066 1.20099e-16)
(-40.7377 27.1503 -2.19559e-16)
(-43.0293 28.4987 -1.16139e-17)
(-43.5351 28.7511 -4.9475e-18)
(-43.9016 28.9667 0)
(-43.8197 29.0703 1.04579e-17)
(-41.5607 27.8183 0)
(-41.7204 28.1452 1.14666e-17)
(-43.7879 29.3472 1.4995e-16)
(-44.1113 29.4781 -1.2321e-16)
(-44.2543 29.5118 9.3703e-17)
(-44.4494 29.6487 -3.69813e-18)
(-42.1458 28.4185 -1.67655e-16)
(-41.732 28.4539 -2.40261e-16)
(-44.1673 29.896 1.10581e-16)
(-44.2891 30.0086 -9.7974e-17)
(-44.4154 30.6148 1.48744e-17)
(-43.9367 30.3652 -1.8684e-16)
(-41.7611 28.9615 2.21279e-16)
(-42.4991 29.4218 0)
(-44.6727 30.7293 -5.32136e-18)
(-44.6583 30.7224 -1.75515e-17)
(-44.7006 31.0177 0)
(-44.3703 30.7956 2.397e-17)
(-42.272 29.4928 1.97808e-16)
(-42.5088 29.6793 -1.01244e-17)
(-44.7971 31.0509 -1.51135e-17)
(-44.5706 31.0487 0)
(-44.3639 31.3138 -4.72188e-17)
(-44.2706 31.1463 -1.06976e-16)
(-41.875 29.5738 1.23044e-16)
(-41.8358 29.8969 -2.11934e-16)
(-43.946 31.347 2.98949e-16)
(-44.3697 31.62 -1.42328e-16)
(-44.3878 31.6903 1.25451e-16)
(-44.4956 31.6469 -9.73284e-17)
(-42.4286 30.2875 -1.31346e-17)
(-42.1049 30.2868 2.01859e-16)
(-44.0885 31.6288 -1.93605e-17)
(-44.3597 31.8349 -1.59335e-17)
(-44.0911 31.8028 -7.38083e-17)
(-44.4362 31.7972 1.53089e-17)
(-42.3029 30.4032 1.59638e-16)
(-41.5386 30.1906 -1.33307e-16)
(-43.7933 31.7823 -3.7075e-21)
(-43.7848 31.9297 -1.08528e-16)
(-43.7835 32.1387 0)
(-43.428 31.8921 -1.95428e-16)
(-41.4223 30.432 1.45406e-17)
(-41.9745 30.8156 -6.86926e-18)
(-43.8573 32.1369 5.64754e-18)
(-43.6386 32.1583 0)
(-43.6431 32.1769 -1.42563e-16)
(-43.3882 31.9727 1.45321e-16)
(-41.5644 30.6948 -1.96131e-17)
(-41.7428 30.8037 -8.04561e-17)
(-43.5086 32.0275 1.01811e-16)
(-43.161 32.0895 0)
(-43.0957 32.2353 1.38983e-16)
(-42.8681 32.0037 1.69376e-16)
(-40.9591 30.6165 -1.89824e-16)
(-41.0768 30.8655 -4.16511e-22)
(-42.9613 32.323 -1.89725e-17)
(-42.5617 32.2742 7.32298e-17)
(-42.3363 32.2313 -8.53214e-17)
(-42.4676 32.1279 1.17077e-16)
(-40.4767 30.5217 0)
(-40.1581 30.3653 -2.20453e-16)
(-42.031 31.8004 1.99316e-16)
(-42.3087 32.0648 -2.11634e-17)
(-41.7657 31.9555 -1.23425e-16)
(-42.1286 31.814 9.20569e-17)
(-40.3704 30.5041 -6.94499e-18)
(-39.5281 30.1693 -6.62611e-18)
(-41.3283 31.4863 1.29123e-20)
(-41.5622 31.7522 1.3518e-16)
(-40.8094 31.7388 -7.66964e-17)
(-41.1874 31.6663 8.29293e-17)
(-39.593 30.3817 -2.01403e-16)
(-39.0408 30.1784 1.99044e-22)
(-40.6021 31.5416 1.53755e-16)
(-40.718 31.6806 1.33777e-16)
(-40.0434 31.5242 0)
(-40.6728 31.5793 0)
(-39.1604 30.1832 0)
(-38.2946 29.5372 0)
(-40.0378 31.0873 -1.04571e-16)
(-39.7332 31.1782 9.8875e-17)
(-39.6365 30.8558 -2.15806e-17)
(-39.4293 30.6317 8.15579e-17)
(-37.6737 29.2411 2.53668e-16)
(-37.7329 29.3602 -3.53975e-16)
(-39.278 30.6277 1.0434e-16)
(-38.8038 30.745 1.93143e-17)
(-38.6488 30.6186 0)
(-38.5086 30.469 0)
(-36.9939 29.1992 0)
(-37.1453 29.2521 0)
(-38.4295 30.3889 0)
(-37.8584 30.4188 8.91212e-18)
(-37.8589 30.1885 -1.68622e-16)
(-37.7724 30.0325 1.70972e-16)
(-36.3417 28.8007 -1.94219e-16)
(-36.2688 28.6971 -6.16746e-18)
(-37.4903 29.8526 7.6094e-17)
(-36.8694 29.9395 -1.17894e-16)
(-36.7455 29.5214 1.26312e-16)
(-36.7236 29.3541 -1.49648e-16)
(-35.2838 28.0531 -1.76953e-17)
(-34.9965 27.8235 1.03e-17)
(-36.3491 29.1932 -3.85384e-18)
(-35.5606 29.2467 0)
(-35.0555 28.8084 0)
(-35.3897 28.691 1.40786e-17)
(-33.7632 27.0694 0)
(-33.2113 26.6995 2.42045e-16)
(-34.7846 28.1457 -2.22676e-16)
(-34.9494 28.3614 2.18045e-17)
(-34.0477 28.1319 -8.81916e-17)
(-34.6141 27.9892 1.77862e-17)
(-33.2755 26.7091 2.26616e-16)
(-32.3958 26.108 2.24969e-16)
(-33.8026 27.3516 5.69956e-18)
(-33.8918 27.5401 -1.60194e-16)
(-32.7472 27.2428 0)
(-33.4044 27.1075 -1.0934e-17)
(-32.2652 25.986 -2.06008e-16)
(-31.2182 25.3448 -6.52736e-18)
(-32.5435 26.5319 1.72632e-16)
(-32.5856 26.7146 -1.60969e-16)
(-31.3618 26.4734 1.69426e-17)
(-32.0202 26.3907 0)
(-31.0088 25.2743 0)
(-30.1629 24.6342 0)
(-31.2941 25.8701 0)
(-31.2471 25.9693 1.5849e-17)
(-30.0111 25.6196 -1.72682e-17)
(-30.8959 25.617 1.23589e-16)
(-29.9409 24.3635 -3.3088e-16)
(-28.7823 23.4465 2.64159e-16)
(-30.0291 24.8901 1.12694e-16)
(-29.5331 24.9681 -9.37912e-17)
(-29.4084 24.3163 -8.17992e-17)
(-29.3483 24.1355 -8.91947e-17)
(-28.0083 22.8696 -3.78098e-18)
(-27.8177 22.762 7.17421e-18)
(-28.8659 23.8565 -1.77339e-17)
(-28.1706 24.0121 -7.85877e-17)
(-27.965 23.3902 5.68116e-17)
(-27.9744 23.2681 5.7465e-18)
(-26.825 22.1853 -2.28489e-16)
(-26.6775 22.0791 6.69523e-18)
(-27.4467 23.0051 2.65373e-16)
(-26.6763 23.058 -5.48497e-17)
(-26.6736 22.4395 1.46673e-16)
(-26.7758 22.4061 -1.76968e-16)
(-25.8324 21.4383 -6.688e-18)
(-25.5936 21.2025 2.05587e-16)
(-26.178 22.0086 -5.30677e-18)
(-25.317 22.0112 -8.8535e-18)
(-25.373 21.4804 2.64524e-17)
(-25.5144 21.4642 5.32254e-18)
(-24.6608 20.5268 0)
(-24.3195 20.2281 1.89942e-16)
(-24.8086 21.0365 -1.51303e-16)
(-23.9185 21.0173 -7.5317e-17)
(-23.9091 20.4798 -2.36094e-17)
(-24.1008 20.4535 -1.82087e-16)
(-23.3252 19.4156 3.82623e-16)
(-22.8895 18.9974 -1.59855e-16)
(-23.3725 20.0101 2.53814e-16)
(-22.3345 20.0078 -7.46498e-17)