/*--------------------------------*- C++ -*----------------------------------*\
| =========                 |                                                 |
| \\      /  F ield         | OpenFOAM: The Open Source CFD Toolbox           |
|  \\    /   O peration     | Version:  v2006                                 |
|   \\  /    A nd           | Website:  www.openfoam.com                      |
|    \\/     M anipulation  |                                                 |
\*---------------------------------------------------------------------------*/
FoamFile
{
    version     2.0;
    format      ascii;
    class       volVectorField;
    location    "0.008";
    object      U;
}
// * * * * * * * * * * * * * * * * * * * * * * * * * * * * * * * * * * * * * //

dimensions      [0 1 -1 0 0 0 0];


internalField   nonuniform List<vector> 
32857
(
(30.8629 -0.0124669 0)
(30.8605 -0.00403598 0)
(30.8621 -0.00106043 0)
(30.8645 -0.00344053 0)
(30.8664 -0.00770406 5.91627e-20)
(30.8575 -0.0156672 -3.04864e-19)
(30.8239 -0.027663 2.58351e-19)
(30.7624 -0.0429851 1.24833e-19)
(30.6759 -0.0609675 -1.28479e-19)
(30.5717 -0.0782001 0)
(30.4524 -0.0944617 -6.51381e-20)
(30.3211 -0.10865 6.13544e-20)
(30.1783 -0.121365 -5.13888e-22)
(30.0241 -0.132845 2.57464e-22)
(29.858 -0.143606 -6.44771e-23)
(29.6792 -0.153915 0)
(29.4874 -0.163982 0)
(29.2825 -0.17391 0)
(29.0644 -0.183777 0)
(28.8333 -0.193643 0)
(28.5891 -0.203549 0)
(28.3317 -0.213519 0)
(28.0612 -0.223565 0)
(27.7775 -0.233686 0)
(27.4807 -0.243879 0)
(27.1707 -0.254137 0)
(26.8475 -0.264452 0)
(26.5112 -0.274814 0)
(26.1618 -0.285216 0)
(25.7993 -0.29565 0)
(25.4238 -0.306107 0)
(25.0353 -0.316578 0)
(24.6339 -0.327056 0)
(24.2198 -0.337531 0)
(23.7929 -0.347997 0)
(23.3534 -0.358443 0)
(22.9014 -0.368862 -1.30494e-22)
(22.437 -0.379247 0)
(21.9604 -0.389588 0)
(21.4717 -0.399878 0)
(20.9711 -0.410114 0)
(20.4587 -0.420288 0)
(19.9347 -0.430395 0)
(19.3993 -0.440432 0)
(18.8526 -0.450394 0)
(18.2949 -0.460284 0)
(17.7264 -0.470098 0)
(17.1473 -0.479837 0)
(16.5578 -0.4895 0)
(15.9582 -0.499084 0)
(15.3487 -0.508593 0)
(14.7296 -0.518034 0)
(14.1012 -0.527425 0)
(13.4637 -0.536776 0)
(12.8175 -0.5461 0)
(12.1629 -0.555416 0)
(11.5002 -0.56476 0)
(10.8298 -0.5742 0)
(10.1519 -0.583847 0)
(9.46692 -0.593872 0)
(8.77519 -0.604505 0)
(8.07707 -0.615995 0)
(7.37298 -0.628567 0)
(6.66338 -0.642388 0)
(5.9487 -0.65757 1.31195e-22)
(5.2294 -0.674184 0)
(4.50579 -0.692318 0)
(3.77797 -0.712117 0)
(3.04612 -0.733805 0)
(2.31043 -0.757705 0)
(1.57072 -0.784125 0)
(0.826803 -0.812781 0)
(0.0908715 -0.843206 0)
(-0.649652 -0.85393 0)
(-1.40703 -0.865733 0)
(-2.16294 -0.882186 0)
(-2.91438 -0.892755 0)
(-3.66531 -0.90644 0)
(-4.41243 -0.929961 0)
(-5.15112 -0.962628 0)
(-5.87891 -1.00351 1.31135e-22)
(-6.59424 -1.05102 -1.31122e-22)
(-7.29638 -1.10365 0)
(-7.98495 -1.16025 0)
(-8.65952 -1.21995 0)
(-9.31979 -1.28242 0)
(-9.96547 -1.34726 0)
(-10.596 -1.41425 0)
(-11.2111 -1.4829 6.55073e-23)
(-11.8103 -1.55261 0)
(-12.3937 -1.62257 0)
(-12.9612 -1.69188 0)
(-13.5128 -1.75951 0)
(-14.0485 -1.82426 0)
(-14.5686 -1.88485 0)
(-15.0734 -1.94006 0)
(-15.5631 -1.98876 0)
(-16.038 -2.03001 0)
(-16.4984 -2.06306 0)
(-16.9445 -2.08737 0)
(-17.3764 -2.10264 0)
(-17.7944 -2.10876 0)
(-18.1987 -2.1058 0)
(-18.5892 -2.09398 0)
(-18.9662 -2.07361 6.5314e-23)
(-19.3295 -2.0451 0)
(-19.6793 -2.00888 0)
(-20.0155 -1.96539 0)
(-20.3381 -1.91504 0)
(-20.6472 -1.85825 0)
(-20.9426 -1.7954 0)
(-21.2245 -1.72688 0)
(-21.4926 -1.65305 0)
(-21.7468 -1.57431 0)
(-21.9871 -1.49112 0)
(-22.2132 -1.40399 -1.30274e-22)
(-22.4251 -1.31361 -2.60482e-22)
(-22.6222 -1.22106 0)
(-22.8022 -1.12822 0)
(-22.9597 -1.03805 0)
(-23.0871 -0.953726 0)
(-23.1785 -0.880401 0)
(-23.2371 -0.81864 0)
(-23.2628 -0.755637 -2.97574e-19)
(-23.2605 -0.689733 5.2331e-18)
(-23.2487 -0.616069 -4.65643e-18)
(-23.2325 -0.525152 2.07396e-17)
(-23.1562 -0.481335 -4.79256e-17)
(-23.1913 -0.430299 -3.59567e-19)
(-23.2092 -0.339394 0)
(-23.2439 -0.291148 2.50321e-18)
(-23.3163 -0.208325 0)
(-23.4188 -0.137638 7.83755e-19)
(-23.4459 -0.075043 -2.18349e-18)
(-22.6096 -0.036415 -3.24404e-19)
(-16.4885 -0.0114214 0)
(-16.5519 0.0335533 -2.89003e-18)
(-22.6821 -0.0317234 5.17572e-18)
(-23.5639 -0.0703795 -1.04186e-18)
(-23.6546 -0.0383876 1.01233e-18)
(-22.6848 -0.00439441 0)
(-16.2555 0.0336816 0)
(-16.1984 0.00708389 -3.23483e-19)
(-22.7403 -0.0148991 -3.8721e-23)
(-23.7649 -0.0360767 -4.54044e-19)
(-23.8742 -0.0527821 5.56261e-19)
(-22.8281 -0.0277697 -5.39976e-19)
(-16.2881 -0.00346343 9.48955e-19)
(-16.3309 -0.00718431 3.82618e-20)
(-22.903 -0.0229298 -6.35163e-20)
(-23.9812 -0.0500625 -1.59165e-19)
(-24.0965 -0.0546699 -3.7393e-19)
(-23.0116 -0.0268502 1.28795e-19)
(-16.4321 -0.00825457 0)
(-16.5255 -0.00744579 0)
(-23.1244 -0.025545 -6.35989e-20)
(-24.2199 -0.0550442 1.66348e-21)
(-24.3487 -0.0573887 -1.66218e-21)
(-23.2413 -0.0265268 0)
(-16.6142 -0.00628266 0)
(-16.702 -0.00502647 0)
(-23.3635 -0.026977 5.14046e-19)
(-24.4763 -0.0575175 -4.22401e-19)
(-24.6225 -0.060411 4.24657e-19)
(-23.4912 -0.0269132 -5.15873e-19)
(-16.7898 -0.00549548 0)
(-16.8753 -0.0046925 0)
(-23.6212 -0.0269991 -5.13836e-19)
(-24.762 -0.0603577 -3.68627e-25)
(-24.92 -0.0636334 4.28118e-19)
(-23.7561 -0.0277757 0)
(-16.964 -0.00525533 0)
(-17.0509 -0.00452068 0)
(-23.8946 -0.0279518 0)
(-25.0712 -0.0637123 0)
(-25.2418 -0.0672186 0)
(-24.0376 -0.0289259 0)
(-17.1419 -0.00516393 0)
(-17.2316 -0.00451444 0)
(-24.1845 -0.0291439 0)
(-25.4047 -0.0671848 -4.2811e-19)
(-25.5879 -0.0710349 4.28154e-19)
(-24.3356 -0.0303342 0)
(-17.3259 -0.00522675 0)
(-17.4193 -0.0046866 0)
(-24.4912 -0.030477 0)
(-25.7625 -0.0708826 0)
(-25.9584 -0.0751157 8.56344e-19)
(-24.6509 -0.031837 -5.15027e-19)
(-17.5179 -0.00542831 0)
(-17.6156 -0.00486861 0)
(-24.816 -0.0319612 -5.15004e-19)
(-26.1452 -0.07494 -5.05032e-25)
(-26.3544 -0.0795316 8.56372e-19)
(-24.9854 -0.033418 -5.15051e-19)
(-17.7186 -0.00558314 0)
(-17.8208 -0.00493168 0)
(-25.1609 -0.0335843 0)
(-26.5543 -0.0794427 0)
(-26.7781 -0.0844763 0)
(-25.3416 -0.0351069 0)
(-17.928 -0.00559756 0)
(-18.0344 -0.00481209 0)
(-25.5293 -0.0352774 0)
(-26.9924 -0.0844774 0)
(-27.2325 -0.0899738 0)
(-25.7233 -0.0368407 0)
(-18.1451 -0.00538705 0)
(-18.2551 -0.00447847 0)
(-25.9248 -0.0369469 0)
(-27.4632 -0.0900378 0)
(-27.722 -0.0958993 0)
(-26.1338 -0.0384391 0)
(-18.3683 -0.00493094 0)
(-18.4807 -0.00392865 0)
(-26.3504 -0.0383671 0)
(-27.9715 -0.0958323 0)
(-28.2513 -0.101782 0)
(-26.5749 -0.039653 0)
(-18.5949 -0.00432307 0)
(-18.7085 -0.00336142 0)
(-26.806 -0.0393382 0)
(-28.5219 -0.101273 0)
(-28.8248 -0.107044 0)
(-27.0443 -0.0403923 0)
(-18.8228 -0.00382065 0)
(-18.9366 -0.00300104 0)
(-27.2874 -0.0398529 0)
(-29.1176 -0.10582 0)
(-29.4444 -0.111244 0)
(-27.5364 -0.0407453 0)
(-19.0507 -0.00359181 0)
(-19.1649 -0.0030708 0)
(-27.7881 -0.0401015 0)
(-29.7594 -0.109183 0)
(-30.1102 -0.114376 0)
(-28.0436 -0.0410323 0)
(-19.2801 -0.00389751 0)
(-19.3966 -0.00370371 0)
(-28.3005 -0.0404526 0)
(-30.4472 -0.111656 0)
(-30.8229 -0.117005 0)
(-28.5602 -0.0416277 0)
(-19.5152 -0.00460807 0)
(-19.6359 -0.00459449 0)
(-28.8212 -0.0412002 0)
(-31.1831 -0.113812 0)
(-31.5867 -0.119513 0)
(-29.0852 -0.0427501 0)
(-19.7594 -0.0052932 0)
(-19.8853 -0.00531467 0)
(-29.3511 -0.0424771 0)
(-31.9733 -0.115585 0)
(-32.4084 -0.121039 0)
(-29.62 -0.0443009 0)
(-20.0137 -0.00552647 0)
(-20.144 -0.00549904 0)
(-29.8892 -0.0439034 0)
(-32.8227 -0.115135 0)
(-33.2881 -0.118805 0)
(-30.1585 -0.045649 0)
(-20.2751 -0.0049813 0)
(-20.4059 -0.00483959 0)
(-30.4222 -0.0449055 0)
(-33.7233 -0.109178 0)
(-34.2061 -0.109803 0)
(-30.6808 -0.0466339 0)
(-20.5348 -0.00317245 0)
(-20.6609 -0.00292104 0)
(-30.9263 -0.0456753 0)
(-34.6415 -0.0957631 0)
(-35.1163 -0.0941379 0)
(-31.1615 -0.0479813 0)
(-20.7824 0.000326912 0)
(-20.9001 0.000169862 0)
(-31.3785 -0.0470785 0)
(-35.5214 -0.0771934 0)
(-35.9572 -0.0758165 0)
(-31.5851 -0.0499917 0)
(-21.0127 0.00457712 0)
(-21.1235 0.00287693 0)
(-31.7735 -0.0496535 0)
(-36.3062 -0.0601668 0)
(-36.6855 -0.0630614 0)
(-31.9593 -0.0525573 0)
(-21.2323 0.00709787 0)
(-21.3448 0.00395298 0)
(-32.1295 -0.0533129 0)
(-36.9747 -0.0530071 0)
(-37.2986 -0.0608863 0)
(-32.3084 -0.0559624 0)
(-21.4595 0.00728634 0)
(-21.5861 0.00235533 0)
(-32.4797 -0.0583967 0)
(-37.5342 -0.0587255 0)
(-37.8152 -0.0716395 0)
(-32.6699 -0.0615407 0)
(-21.7236 0.00407978 0)
(-21.8751 -0.000944751 0)
(-32.8561 -0.0624464 0)
(-38.0008 -0.0673705 0)
(-38.2319 -0.0745509 0)
(-33.0498 -0.0625174 0)
(-22.0319 0.000134244 0)
(-22.1956 -0.0055843 0)
(-33.2263 -0.0597415 0)
(-38.3634 -0.0661792 0)
(-38.5429 -0.0675603 0)
(-33.3947 -0.054595 0)
(-22.3562 -0.0050584 0)
(-22.5127 -0.00910087 0)
(-33.5345 -0.0510173 0)
(-38.6303 -0.0587378 0)
(-38.7692 -0.059456 0)
(-33.6755 -0.044163 0)
(-22.6573 -0.00718206 0)
(-22.7907 -0.00983214 0)
(-33.7864 -0.0408924 0)
(-38.828 -0.0525348 0)
(-38.9409 -0.0543644 0)
(-33.9096 -0.0339068 0)
(-22.9098 -0.00737816 0)
(-23.0192 -0.00982835 0)
(-34.0005 -0.0324366 0)
(-38.9808 -0.0491734 0)
(-39.0751 -0.0516931 0)
(-34.112 -0.0264842 0)
(-23.1184 -0.00738652 0)
(-23.2121 -0.0101141 0)
(-34.1882 -0.0269098 0)
(-39.0964 -0.0479032 0)
(-39.1691 -0.049521 0)
(-34.2908 -0.020921 0)
(-23.2996 -0.00782381 0)
(-23.3845 -0.0107776 0)
(-34.3534 -0.0230261 0)
(-39.1643 -0.0458846 0)
(-39.2044 -0.0452243 0)
(-34.4445 -0.0166673 0)
(-23.4655 -0.00858783 0)
(-23.5446 -0.0114016 0)
(-34.4882 -0.0195253 0)
(-39.1561 -0.0397085 0)
(-39.1407 -0.034957 0)
(-34.5587 -0.012869 0)
(-23.6194 -0.00889574 0)
(-23.6895 -0.0111326 0)
(-34.5715 -0.0151005 0)
(-39.0241 -0.0261269 0)
(-38.9268 -0.0141424 0)
(-34.6062 -0.0071644 0)
(-23.7498 -0.007737 0)
(-23.7977 -0.00937934 0)
(-34.5652 -0.00650975 0)
(-38.7167 0.000738118 0)
(-38.5115 0.0215288 0)
(-34.5366 0.00371425 0)
(-23.8272 -0.00544905 0)
(-23.8365 -0.00827144 0)
(-34.4049 0.00763295 0)
(-38.1891 0.0436445 0)
(-37.8563 0.0729779 0)
(-34.2722 0.0201217 0)
(-23.8235 -0.00439561 0)
(-23.7815 -0.00720818 0)
(-34.0109 0.0272534 0)
(-37.4144 0.0997381 0)
(-36.9441 0.131838 0)
(-33.7498 0.0416025 0)
(-23.7139 -0.00284597 0)
(-23.6034 -0.00354406 0)
(-33.3519 0.0501206 0)
(-36.3844 0.157562 0)
(-35.7936 0.189789 0)
(-32.9621 0.0658624 0)
(-23.4614 0.00130825 0)
(-23.2703 0.00209746 0)
(-32.442 0.0746702 0)
(-35.1333 0.212051 0)
(-34.4504 0.242641 0)
(-31.9344 0.0910065 0)
(-23.0449 0.00695963 0)
(-22.7688 0.00869005 0)
(-31.3127 0.0986621 0)
(-33.714 0.259417 0)
(-32.9664 0.2864 0)
(-30.7107 0.114607 0)
(-22.4598 0.0135139 0)
(-22.1026 0.0156226 0)
(-30.0128 0.120035 0)
(-32.181 0.296388 0)
(-31.3976 0.317983 0)
(-29.3446 0.134354 0)
(-21.7183 0.0202738 0)
(-21.292 0.0223066 0)
(-28.6012 0.136531 0)
(-30.592 0.320017 0)
(-29.8037 0.33489 0)
(-27.8999 0.148194 0)
(-20.8482 0.0267914 0)
(-20.3705 0.028618 0)
(-27.145 0.146761 0)
(-29.0083 0.329125 0)
(-28.2443 0.337646 0)
(-26.4447 0.155551 0)
(-19.8854 0.0331414 0)
(-19.3722 0.0348049 0)
(-25.7102 0.151189 0)
(-27.485 0.325826 0)
(-26.7681 0.329237 0)
(-25.0399 0.157429 0)
(-18.8608 0.0389025 0)
(-18.3261 0.0387597 0)
(-24.3495 0.150137 0)
(-26.0651 0.31226 0)
(-25.4121 0.309864 0)
(-23.7258 0.152915 0)
(-17.816 0.0404345 0)
(-17.2966 0.0385613 0)
(-23.0925 0.142206 0)
(-24.7806 0.287473 0)
(-24.2087 0.27961 0)
(-22.534 0.141792 0)
(-16.8164 0.0389433 0)
(-16.338 0.0360574 0)
(-21.9759 0.128321 0)
(-23.6648 0.252793 0)
(-23.189 0.241052 0)
(-21.5004 0.125603 0)
(-15.9087 0.0356414 0)
(-15.4891 0.0321721 0)
(-21.0318 0.110348 0)
(-22.7446 0.211516 0)
(-22.3739 0.197499 0)
(-20.6507 0.106208 0)
(-15.1245 0.0312975 0)
(-14.7736 0.0276611 0)
(-20.2791 0.0902851 0)
(-22.0354 0.167315 0)
(-21.7732 0.152436 0)
(-19.997 0.0854628 0)
(-14.4796 0.0265499 0)
(-14.2001 0.0230511 0)
(-19.7227 0.0699788 0)
(-21.5401 0.123825 0)
(-21.3805 0.110524 0)
(-19.5352 0.0654084 0)
(-13.9763 0.0219737 0)
(-13.7639 0.019065 0)
(-19.3487 0.0513309 0)
(-21.2412 0.0869223 0)
(-21.1654 0.0777596 0)
(-19.2403 0.0479541 0)
(-13.6013 0.0185964 0)
(-13.4429 0.016766 0)
(-19.1202 0.0349912 0)
(-21.095 0.0627091 0)
(-21.0728 0.0594208 0)
(-19.0658 0.0348159 0)
(-13.3245 0.0174748 0)
(-13.2034 0.017011 0)
(-18.9863 0.0216992 0)
(-21.0384 0.0524336 0)
(-21.0349 0.0576857 0)
(-18.957 0.026629 0)
(-13.1121 0.0182697 0)
(-13.0063 0.0186905 0)
(-18.8822 0.0169249 0)
(-20.9964 0.0592033 0)
(-20.9724 0.073663 0)
(-18.8364 0.0268529 0)
(-12.9159 0.0200715 0)
(-12.7992 0.0208708 0)
(-18.7217 0.0214823 0)
(-20.8898 0.0832371 0)
(-20.8089 0.1042 0)
(-18.6238 0.0352322 0)
(-12.6841 0.0222393 0)
(-12.534 0.0224694 0)
(-18.4406 0.0321895 0)
(-20.6571 0.117981 0)
(-20.5059 0.142409 0)
(-18.2698 0.0483057 0)
(-12.3814 0.0237016 0)
(-12.19 0.0218169 0)
(-18.0019 0.045725 0)
(-20.2745 0.156008 0)
(-20.0428 0.182428 0)
(-17.7436 0.0649996 0)
(-12.0036 0.0210902 0)
(-11.7791 0.0158095 0)
(-17.3723 0.0622237 0)
(-19.7143 0.193888 0)
(-19.3842 0.224702 0)
(-17.0104 0.0861969 0)
(-11.5712 0.0160407 0)
(-11.2981 0.011281 0)
(-16.522 0.0858869 0)
(-18.9388 0.239725 0)
(-18.4864 0.277649 0)
(-16.0353 0.115545 0)
(-11.0323 0.0161701 0)
(-10.6352 0.0183738 0)
(-15.3985 0.128471 0)
(-17.8992 0.309359 0)
(-17.3107 0.368195 0)
(-14.7646 0.171914 0)
(-10.2231 0.0321365 0)
(-9.62081 0.0403334 0)
(-13.9483 0.195857 0)
(-16.5539 0.417442 0)
(-15.7497 0.507283 0)
(-13.0778 0.26048 0)
(-8.92924 0.066127 0)
(-7.97059 0.0741458 0)
(-11.9695 0.286866 0)
(-14.7267 0.563149 0)
(-13.6812 0.664665 0)
(-10.8206 0.360084 0)
(-6.92688 0.106478 0)
(-5.60299 0.106963 0)
(-9.43067 0.365311 0)
(-12.4087 0.684639 0)
(-11.2223 0.749701 0)
(-8.10132 0.415064 0)
(-4.29001 0.133843 0)
(-2.80953 0.118564 0)
(-6.62615 0.368019 0)
(-9.87068 0.680897 0)
(-8.80696 0.670699 0)
(-5.40764 0.367528 0)
(-1.53778 0.124382 0)
(-0.309289 0.0982571 0)
(-4.21164 0.249311 0)
(-7.69195 0.487851 0)
(-7.15911 0.37081 0)
(-3.57237 0.161311 0)
(0.428893 0.0712983 0)
(0.887869 0.058982 0)
(-3.11316 -0.0613234 0)
(-6.70662 0.094793 0)
(-7.11453 -0.0232979 0)
(-3.43272 -0.11202 0)
(0.604218 0.0262229 0)
(0.355682 -0.0139328 0)
(-3.80977 -0.183896 0)
(-7.63147 -0.224394 0)
(-8.5906 -0.247862 0)
(-4.65386 -0.184209 0)
(-0.395073 -0.0238057 0)
(-0.808091 -0.0263106 0)
(-5.36284 -0.220575 0)
(-9.55805 -0.350786 0)
(-10.856 -0.337647 0)
(-6.40257 -0.198005 0)
(-1.62115 -0.0197225 0)
(-2.0929 -0.0272468 0)
(-7.34641 -0.235213 0)
(-12.1861 -0.436542 0)
(-13.7952 -0.407592 0)
(-8.53776 -0.199318 0)
(-2.89272 -0.0177601 0)
(-3.40318 -0.0368508 0)
(-9.61487 -0.239752 0)
(-15.3765 -0.484197 0)
(-17.0999 -0.405631 0)
(-10.8632 -0.201337 0)
(-4.23002 -0.0232427 0)
(-4.76824 -0.0374841 0)
(-11.8644 -0.22739 0)
(-18.6636 -0.41556 0)
(-20.3743 -0.315788 0)
(-12.9276 -0.171092 0)
(-5.46364 -5.68644e-05 0)
(-5.83678 -0.016517 0)
(-13.8432 -0.220648 0)
(-22.0561 -0.398675 0)
(-24.0891 -0.428624 0)
(-15.0598 -0.211534 0)
(-6.49297 0.00465939 0)
(-7.08186 -0.0403989 0)
(-16.4065 -0.309961 0)
(-26.2915 -0.644905 0)
(-29.0365 -0.790573 0)
(-18.2697 -0.342122 0)
(-8.10689 -0.032706 0)
(-9.24823 -0.0792578 0)
(-20.5028 -0.486983 0)
(-32.0711 -1.06802 0)
(-35.6267 -1.24224 0)
(-23.3295 -0.578006 0)
(-10.8695 -0.0892178 0)
(-12.9621 -0.189316 0)
(-26.5184 -0.773502 0)
(-39.2036 -1.50472 0)
(-43.0136 -1.62371 0)
(-30.1018 -0.868697 0)
(-15.74 -0.246413 0)
(-19.0574 -0.337517 0)
(-33.7845 -0.977035 0)
(-46.6275 -1.74393 0)
(-50.3971 -1.67907 0)
(-37.54 -0.921833 0)
(-22.6224 -0.316009 0)
(-25.8979 -0.299592 0)
(-41.1577 -0.891888 0)
(-53.9912 -1.64253 0)
(-57.7259 -1.53368 0)
(-44.6959 -0.805741 0)
(-28.9367 -0.243237 0)
(-31.7294 -0.253915 0)
(-48.0686 -0.81101 0)
(-61.233 -1.52211 0)
(-64.8724 -1.44756 0)
(-51.4118 -0.750882 0)
(-34.4769 -0.216247 0)
(-37.0949 -0.236324 0)
(-54.6531 -0.772605 0)
(-68.2968 -1.45644 0)
(-71.8732 -1.40025 0)
(-57.894 -0.723647 0)
(-39.7172 -0.203459 0)
(-42.252 -0.227596 0)
(-61.0575 -0.751643 0)
(-75.2358 -1.41505 0)
(-78.7639 -1.36878 0)
(-64.2307 -0.70839 0)
(-44.8046 -0.19682 0)
(-47.2942 -0.222395 0)
(-67.3406 -0.738547 0)
(-82.0725 -1.38338 0)
(-85.5561 -1.34627 0)
(-70.4658 -0.700907 0)
(-49.8109 -0.19371 0)
(-52.2844 -0.220021 0)
(-73.5434 -0.732649 0)
(-88.8186 -1.36104 0)
(-92.2672 -1.33076 0)
(-76.6413 -0.698794 0)
(-54.7903 -0.192397 0)
(-57.2643 -0.218786 0)
(-79.7024 -0.731004 0)
(-95.492 -1.34443 0)
(-98.9146 -1.31933 0)
(-82.7866 -0.699601 0)
(-59.7708 -0.191454 0)
(-62.2477 -0.216763 0)
(-85.8404 -0.730158 0)
(-102.109 -1.32906 0)
(-105.51 -1.30869 0)
(-88.9177 -0.700863 0)
(-64.7539 -0.189575 0)
(-67.2314 -0.21371 0)
(-91.971 -0.729694 0)
(-108.683 -1.3149 0)
(-112.07 -1.29744 0)
(-95.0466 -0.701484 0)
(-69.7332 -0.18642 0)
(-72.2044 -0.209465 0)
(-98.1005 -0.728207 0)
(-115.229 -1.29978 0)
(-118.606 -1.28449 0)
(-101.172 -0.700951 0)
(-74.6941 -0.182349 0)
(-77.1526 -0.204795 0)
(-104.223 -0.725417 0)
(-121.748 -1.28297 0)
(-125.114 -1.27264 0)
(-107.289 -0.700057 0)
(-79.6289 -0.178769 0)
(-82.0814 -0.201263 0)
(-110.339 -0.72297 0)
(-128.241 -1.26935 0)
(-131.601 -1.26483 0)
(-113.405 -0.699803 0)
(-84.553 -0.176261 0)
(-86.9991 -0.197541 0)
(-116.455 -0.71957 0)
(-134.714 -1.25708 0)
(-138.063 -1.25261 0)
(-119.514 -0.695582 0)
(-89.4553 -0.172377 0)
(-91.8869 -0.193704 0)
(-122.557 -0.714403 0)
(-141.16 -1.2438 0)
(-144.499 -1.2419 0)
(-125.606 -0.691168 0)
(-94.3273 -0.169147 0)
(-96.7455 -0.190534 0)
(-128.639 -0.709037 0)
(-147.578 -1.23184 0)
(-150.904 -1.23188 0)
(-131.676 -0.686289 0)
(-99.1706 -0.166582 0)
(-101.576 -0.187931 0)
(-134.697 -0.702954 0)
(-153.962 -1.22007 0)
(-157.269 -1.22157 0)
(-137.716 -0.680514 0)
(-103.985 -0.164557 0)
(-106.377 -0.185787 0)
(-140.719 -0.695972 0)
(-160.299 -1.20774 0)
(-163.579 -1.21025 0)
(-143.714 -0.673698 0)
(-108.769 -0.16298 0)
(-111.143 -0.183913 0)
(-146.69 -0.687821 0)
(-166.571 -1.19401 0)
(-169.813 -1.19682 0)
(-149.653 -0.665457 0)
(-113.513 -0.161545 0)
(-115.865 -0.182109 0)
(-152.592 -0.678058 0)
(-172.756 -1.17797 0)
(-175.95 -1.18137 0)
(-155.515 -0.655567 0)
(-118.208 -0.16032 0)
(-120.531 -0.180438 0)
(-158.405 -0.66634 0)
(-178.833 -1.15991 0)
(-181.966 -1.16333 0)
(-161.276 -0.643515 0)
(-122.838 -0.158985 0)
(-125.121 -0.178513 0)
(-164.104 -0.652138 0)
(-184.775 -1.13857 0)
(-187.834 -1.1414 0)
(-166.909 -0.628579 0)
(-127.382 -0.157502 0)
(-129.615 -0.176818 0)
(-169.66 -0.635762 0)
(-190.558 -1.11511 0)
(-193.531 -1.11897 8.2798e-19)
(-172.384 -0.612319 -4.99785e-19)
(-131.82 -0.156508 0)
(-134.002 -0.176201 0)
(-175.054 -0.619738 0)
(-196.166 -1.09412 0)
(-199.054 -1.10183 0)
(-177.696 -0.597956 0)
(-136.156 -0.15759 0)
(-138.295 -0.178331 0)
(-180.287 -0.607082 0)
(-201.602 -1.08116 0)
(-204.419 -1.09387 0)
(-182.859 -0.587282 0)
(-140.418 -0.161391 0)
(-142.533 -0.181947 0)
(-185.385 -0.596045 0)
(-206.894 -1.07399 0)
(-209.636 -1.08179 0)
(-187.882 -0.572717 0)
(-144.623 -0.16392 0)
(-146.673 -0.179865 0)
(-190.307 -0.571881 0)
(-212.011 -1.0461 0)
(-214.615 -1.03323 0)
(-192.653 -0.536493 0)
(-148.638 -0.156902 0)
(-150.498 -0.166362 0)
(-194.872 -0.521885 0)
(-216.801 -0.974735 0)
(-219.189 -0.949393 0)
(-196.974 -0.479437 0)
(-152.229 -0.140922 0)
(-153.858 -0.151327 0)
(-198.948 -0.466893 0)
(-221.157 -0.89313 0)
(-223.365 -0.875604 0)
(-200.837 -0.43083 0)
(-155.385 -0.129894 0)
(-156.814 -0.129886 0)
(-202.609 -0.407824 0)
(-225.156 -0.826254 0)
(-227.183 -0.806355 0)
(-204.278 -0.382754 0)
(-158.124 -0.117562 0)
(-159.316 -0.117294 0)
(-205.836 -0.370568 0)
(-228.789 -0.790489 0)
(-230.689 -0.792636 0)
(-207.344 -0.36056 0)
(-160.442 -0.113725 0)
(-161.565 -0.119024 0)
(-208.847 -0.360514 0)
(-232.249 -0.789614 0)
(-234.133 -0.798938 0)
(-210.335 -0.343066 0)
(-162.651 -0.106709 0)
(-163.731 -0.11933 0)
(-211.807 -0.346632 0)
(-235.665 -0.783753 0)
(-237.512 -0.792729 0)
(-213.256 -0.320016 0)
(-164.746 -0.100863 0)
(-165.712 -0.11159 0)
(-214.648 -0.320666 0)
(-238.962 -0.767704 0)
(-240.731 -0.777168 0)
(-216.014 -0.293476 0)
(-166.608 -0.0934726 0)
(-167.452 -0.102449 0)
(-217.323 -0.29228 0)
(-242.093 -0.747505 0)
(-243.78 -0.759014 0)
(-218.608 -0.265713 0)
(-168.226 -0.0853156 0)
(-168.952 -0.0930458 0)
(-219.844 -0.265961 0)
(-245.055 -0.729902 0)
(-246.664 -0.741 0)
(-221.061 -0.239133 0)
(-169.618 -0.0763657 0)
(-170.242 -0.0818763 0)
(-222.242 -0.246974 0)
(-247.861 -0.718097 0)
(-249.405 -0.73265 0)
(-223.411 -0.223974 0)
(-170.818 -0.0660827 0)
(-171.358 -0.0716016 0)
(-224.544 -0.231568 0)
(-250.538 -0.708507 0)
(-252.018 -0.726199 0)
(-225.679 -0.211966 0)
(-171.855 -0.0569377 0)
(-172.327 -0.0622453 0)
(-226.773 -0.219921 0)
(-253.084 -0.701303 0)
(-254.496 -0.723001 0)
(-227.886 -0.204336 0)
(-172.763 -0.0485069 0)
(-173.186 -0.0539295 0)
(-228.96 -0.215434 0)
(-255.495 -0.699227 0)
(-256.839 -0.72489 0)
(-230.066 -0.203786 0)
(-173.587 -0.0408882 0)
(-173.984 -0.0465301 0)
(-231.141 -0.219372 0)
(-257.769 -0.702259 0)
(-259.042 -0.730657 0)
(-232.256 -0.211166 0)
(-174.373 -0.0341616 0)
(-174.768 -0.0406146 0)
(-233.349 -0.232225 0)
(-259.897 -0.709412 0)
(-261.094 -0.741303 0)
(-234.486 -0.22797 0)
(-175.174 -0.0295269 0)
(-175.598 -0.0370975 0)
(-235.615 -0.254986 0)
(-261.868 -0.721341 0)
(-262.982 -0.756016 0)
(-236.785 -0.254144 0)
(-176.052 -0.0275113 0)
(-176.54 -0.0355514 0)
(-237.963 -0.287062 0)
(-263.669 -0.737437 0)
(-264.695 -0.774673 0)
(-239.176 -0.289611 0)
(-177.073 -0.027579 0)
(-177.669 -0.0356517 0)
(-240.411 -0.333821 0)
(-265.291 -0.761632 0)
(-266.228 -0.805742 0)
(-241.673 -0.345417 0)
(-178.318 -0.0312289 0)
(-179.064 -0.043447 0)
(-242.953 -0.388369 0)
(-266.743 -0.791929 0)
(-267.586 -0.842414 0)
(-244.267 -0.407796 0)
(-179.868 -0.0433774 0)
(-180.811 -0.0596178 0)
(-245.586 -0.450044 0)
(-268.02 -0.829914 0)
(-268.769 -0.884121 0)
(-246.947 -0.47587 0)
(-181.811 -0.0636795 0)
(-182.981 -0.0850317 0)
(-248.309 -0.516698 0)
(-269.129 -0.872147 0)
(-269.783 -0.93058 0)
(-249.711 -0.548399 0)
(-184.225 -0.0940506 0)
(-185.654 -0.119214 0)
(-251.111 -0.587421 0)
(-270.072 -0.920029 0)
(-270.629 -0.981046 0)
(-252.547 -0.62305 0)
(-187.172 -0.133614 0)
(-188.887 -0.161774 0)
(-253.979 -0.659574 0)
(-270.852 -0.971732 0)
(-271.313 -1.03445 0)
(-255.441 -0.698697 0)
(-190.705 -0.182411 0)
(-192.724 -0.213172 0)
(-256.897 -0.730924 0)
(-271.472 -1.02578 0)
(-271.835 -1.08855 0)
(-258.373 -0.771913 0)
(-194.856 -0.240018 0)
(-197.188 -0.273357 0)
(-259.838 -0.7987 0)
(-271.931 -1.07888 0)
(-272.194 -1.13884 0)
(-261.312 -0.840559 0)
(-199.642 -0.307319 0)
(-202.297 -0.344041 0)
(-262.77 -0.862214 0)
(-272.229 -1.12609 0)
(-272.39 -1.18091 0)
(-264.224 -0.904621 0)
(-205.079 -0.386265 0)
(-208.064 -0.428363 0)
(-265.645 -0.92324 0)
(-272.364 -1.16472 0)
(-272.416 -1.21183 0)
(-267.027 -0.963303 0)
(-211.191 -0.474685 0)
(-214.497 -0.513933 0)
(-268.359 -0.975031 0)
(-272.324 -1.18424 0)
(-272.271 -1.21409 0)
(-269.633 -1.01089 0)
(-217.918 -0.555865 0)
(-221.468 -0.581275 0)
(-270.835 -1.01369 0)
(-272.121 -1.16545 0)
(-271.973 -1.16881 0)
(-271.955 -1.04354 0)
(-225.076 -0.605089 0)
(-228.735 -0.599942 0)
(-272.983 -1.03404 0)
(-271.782 -1.09021 -1.01444e-19)
(-271.561 -1.0589 1.01386e-19)
(-273.908 -1.05234 0)
(-232.345 -0.582952 0)
(-235.875 -0.525595 0)
(-274.721 -1.02727 0)
(-271.352 -0.949677 0)
(-271.085 -0.888985 0)
(-275.411 -1.02369 0)
(-239.209 -0.455504 0)
(-242.299 -0.350546 0)
(-275.969 -0.974034 0)
(-270.868 -0.752682 0)
(-270.564 -0.658242 0)
(-276.398 -0.945856 0)
(-245.066 -0.246204 7.34761e-20)
(-247.463 -0.102118 -7.27908e-20)
(-276.736 -0.884778 0)
(-270.361 -0.471063 0)
(-270.151 -0.342291 0)
(-277.076 -0.849794 0)
(-249.602 0.0286394 -1.48768e-19)
(-251.585 0.136839 4.37349e-19)
(-277.521 -0.919566 -4.82695e-19)
(-270.108 -0.399334 8.04161e-19)
(-270.081 -0.825241 1.69161e-18)
(-278.149 -1.24755 -1.03878e-18)
(-252.98 0.1771 3.18058e-19)
(-253.611 0.850652 5.39845e-18)
(-278.253 -0.81469 -6.71693e-18)
(-270.413 -0.98608 0)
(-272.841 -0.720901 1.51122e-18)
(-279.813 0.161607 8.45898e-18)
(-252.046 1.94561 -7.73583e-18)
(-246.084 3.37126 0)
(-283.599 0.884176 0)
(-278.99 -0.932772 -9.97213e-19)
(-276.031 -3.13104 0)
(-297.792 -1.12573 -2.23338e-19)
(-246.855 3.15817 3.02407e-19)
(-241.924 -0.568427 -8.80754e-19)
(-220.309 -0.527371 9.94051e-19)
(-219.106 -0.124503 0)
(-219.514 -0.282003 -4.78088e-19)
(-219.641 -0.300307 0)
(-220.284 -0.428549 -8.34811e-19)
(-220.556 -0.446397 1.00936e-18)
(-221.926 -0.519258 6.07218e-20)
(-223.383 -0.588465 -1.21967e-19)
(-224.38 -0.596663 0)
(-225.783 -0.706249 0)
(-226.963 -0.681298 0)
(-228.756 -0.806442 0)
(-229.992 -0.780722 0)
(-231.803 -0.90823 0)
(-233.06 -0.888404 0)
(-234.853 -1.01653 0)
(-236.141 -1.00482 0)
(-237.912 -1.13353 0)
(-239.235 -1.1314 0)
(-240.979 -1.26077 0)
(-242.306 -1.26844 0)
(-244.007 -1.39962 0)
(-245.343 -1.41822 0)
(-246.971 -1.55126 0)
(-248.275 -1.58164 0)
(-249.794 -1.71716 0)
(-251.012 -1.75968 0)
(-252.356 -1.89823 0)
(-253.445 -1.95499 0)
(-254.525 -2.09511 0)
(-255.313 -2.16893 0)
(-256.01 -2.30475 1.23027e-19)
(-256.319 -2.41149 0)
(-256.399 -2.52561 0)
(-256.532 -2.64248 0)
(-237.403 -2.67589 1.27179e-19)
(-208.432 -2.31836 0)
(-195.748 -1.93039 0)
(-195.932 -2.01661 -4.70372e-18)
(-196.828 -2.50755 5.23357e-18)
(-197.865 -2.7954 -1.34563e-17)
(-198.703 -2.82052 4.20686e-17)
(-199.303 -2.23875 0)
(-199.481 -0.736304 0)
(-259.093 2.86996 -8.50863e-18)
(-316.896 2.07767 -9.02289e-21)
(-331.083 -2.03158 3.46768e-18)
(-209.753 -6.51505 -4.67918e-18)
(-208.396 -6.61577 5.13397e-18)
(-302.406 -4.62931 -3.59488e-17)
(-309.94 -1.86495 3.09305e-17)
(-301.492 -0.71809 1.32796e-18)
(-300.715 -1.94688 6.08303e-18)
(-227.267 -3.41075 -9.02002e-18)
(-232.614 -1.27426 1.30359e-18)
(-299.921 0.354972 0)
(-298.677 0.617752 -7.08342e-18)
(-297.643 1.51508 0)
(-299.845 1.67445 0)
(-231.63 -0.0501503 6.18549e-19)
(-229.551 0.0455227 -2.84959e-19)
(-298.945 1.37657 -4.64117e-19)
(-297.861 1.18225 -3.81281e-19)
(-297.865 0.999547 1.17111e-18)
(-297.722 1.16617 -3.56627e-19)
(-226.485 0.0876722 -2.87562e-19)
(-223.057 0.138138 0)
(-295.13 0.982506 -4.87326e-23)
(-297.739 0.817494 0)
(-297.718 1.0738 0)
(-293.666 1.09075 -1.19312e-19)
(-219.468 0.26192 0)
(-215.934 0.296902 1.17774e-18)
(-290.813 0.987612 -8.38438e-19)
(-297.48 0.976408 -1.58435e-18)
(-297.586 1.10215 0)
(-289.123 1.06184 -1.21023e-19)
(-212.334 0.365107 0)
(-208.922 0.351252 0)
(-287.362 0.954408 0)
(-297.41 0.980845 0)
(-297.345 1.39804 0)
(-286.518 1.15373 0)
(-206.561 0.328372 0)
(-203.704 0.211529 0)
(-283.462 0.881578 0)
(-297.066 1.05333 0)
(-297.07 1.09748 0)
(-281.586 0.91316 0)
(-200.631 0.225284 0)
(-197.852 0.163598 0)
(-279.68 0.781802 0)
(-296.53 0.908592 0)
(-296.225 1.32601 0)
(-278.524 1.00098 0)
(-196.616 0.136104 0)
(-194.434 0.0418731 1.20103e-18)
(-275.337 0.741699 1.45659e-22)
(-295.529 0.96826 -7.91385e-19)
(-295.249 0.980374 8.08155e-19)
(-273.477 0.753631 -9.81061e-19)
(-192.066 0.0612802 0)
(-189.996 -0.000396256 0)
(-271.582 0.600409 0)
(-294.3 0.771631 0)
(-293.642 1.08804 0)
(-270.273 0.737742 0)
(-189.851 -0.0124304 0)
(-188.362 -0.054552 1.20746e-18)
(-267.181 0.562282 9.75866e-23)
(-292.596 0.821158 -7.94092e-19)
(-292.083 0.84281 8.10824e-19)
(-265.61 0.57081 -9.86447e-19)
(-186.799 -0.0268132 0)
(-185.501 -0.0890723 0)
(-263.947 0.406166 0)
(-290.9 0.628352 0)
(-290.025 0.974779 0)
(-262.747 0.553305 0)
(-186.277 -0.084573 0)
(-185.366 -0.0996843 1.21079e-18)
(-259.908 0.386633 9.41614e-23)
(-288.716 0.701596 -7.97706e-19)
(-287.923 0.754856 8.14542e-19)
(-258.581 0.412633 -9.90456e-19)
(-184.293 -0.0539478 0)
(-183.409 -0.10205 0)
(-257.063 0.267292 0)
(-286.444 0.564173 0)
(-285.299 0.892233 0)
(-255.972 0.402498 0)
(-184.546 -0.0899022 0)
(-183.905 -0.0847639 1.21276e-18)
(-253.366 0.273629 7.41746e-23)
(-283.721 0.654157 -8.02175e-19)
(-282.685 0.714049 8.19159e-19)
(-252.266 0.306075 -9.93623e-19)
(-183.106 -0.0364414 0)
(-182.432 -0.0770867 0)
(-250.911 0.178229 0)
(-280.993 0.534957 0)
(-279.68 0.855788 0)
(-249.975 0.315858 0)
(-183.645 -0.0618978 0)
(-183.116 -0.0526197 1.21436e-18)
(-247.612 0.203004 6.63028e-23)
(-277.932 0.627338 -8.07068e-19)
(-276.728 0.695153 8.24114e-19)
(-246.681 0.244813 -9.96304e-19)
(-182.417 -0.00553002 0)
(-181.791 -0.0411006 0)
(-245.457 0.136697 0)
(-274.911 0.527894 0)
(-273.525 0.833556 0)
(-244.646 0.27444 0)
(-182.916 -0.0267422 0)
(-182.398 -0.0200339 1.21615e-18)
(-242.49 0.170649 6.08496e-23)
(-271.714 0.608771 -8.11863e-19)
(-270.439 0.681642 8.28803e-19)
(-241.672 0.220861 -9.98906e-19)
(-181.706 0.0231492 0)
(-181.063 -0.00798546 0)
(-240.546 0.128968 0)
(-268.596 0.523031 0)
(-267.247 0.815639 0)
(-239.84 0.267 0)
(-182.016 0.00560403 0)
(-181.474 0.00506856 1.21836e-18)
(-237.853 0.162955 6.03157e-23)
(-265.47 0.586727 -8.16069e-19)
(-264.209 0.669493 8.32794e-19)
(-237.108 0.220399 -1.00156e-18)
(-180.742 0.0456255 0)
(-180.039 0.0186481 0)
(-236.051 0.14068 0)
(-262.42 0.518246 0)
(-261.178 0.794618 0)
(-235.427 0.272745 0)
(-180.804 0.029297 0)
(-180.215 0.0250044 1.22103e-18)
(-233.576 0.169332 5.80855e-23)
(-259.505 0.564783 -8.19541e-19)
(-258.33 0.656789 8.36008e-19)
(-232.893 0.230522 -1.00428e-18)
(-179.425 0.0629229 0)
(-178.661 0.0377531 0)
(-231.9 0.157499 0)
(-256.653 0.507545 0)
(-255.568 0.766344 0)
(-231.345 0.280281 0)
(-179.263 0.0460394 0)
(-178.614 0.04163 1.22404e-18)
(-229.595 0.186111 5.15467e-23)
(-254.019 0.553186 -8.22219e-19)
(-252.954 0.627993 8.38454e-19)
(-228.964 0.238117 -1.00692e-18)
(-177.767 0.0738828 0)
(-176.964 0.0486908 0)
(-228.045 0.167333 0)
(-251.428 0.477847 0)
(-250.534 0.730172 0)
(-227.571 0.286956 0)
(-177.464 0.0561548 0)
(-176.777 0.0527326 1.22716e-18)
(-225.916 0.201034 4.5382e-23)
(-249.123 0.530504 -8.24073e-19)
(-248.19 0.588273 8.40106e-19)
(-225.348 0.24063 -1.00927e-18)
(-175.896 0.0785234 0)
(-175.054 0.0582336 0)
(-224.483 0.182991 0)
(-246.797 0.459495 0)
(-246.081 0.673745 0)
(-224.081 0.279637 0)
(-175.484 0.0576007 0)
(-174.793 0.0569129 1.23015e-18)
(-222.533 0.205177 3.78578e-23)
(-244.824 0.493285 -8.25355e-19)
(-244.045 0.540245 8.41141e-19)
(-222.062 0.235445 -1.01121e-18)
(-173.927 0.0779777 0)
(-173.088 0.0624162 0)
(-221.273 0.190726 0)