/*--------------------------------*- C++ -*----------------------------------*\
| =========                 |                                                 |
| \\      /  F ield         | OpenFOAM: The Open Source CFD Toolbox           |
|  \\    /   O peration     | Version:  v2006                                 |
|   \\  /    A nd           | Website:  www.openfoam.com                      |
|    \\/     M anipulation  |                                                 |
\*---------------------------------------------------------------------------*/
FoamFile
{
    version     2.0;
    format      ascii;
    class       volScalarField;
    location    "0.044";
    object      Ma;
}
// * * * * * * * * * * * * * * * * * * * * * * * * * * * * * * * * * * * * * //

dimensions      [0 0 0 0 0 0 0];


internalField   nonuniform List<scalar> 
24416
(
0.238412
0.238412
0.238412
0.238412
0.238413
0.238413
0.238413
0.238414
0.238415
0.238415
0.238416
0.238417
0.238418
0.238419
0.238419
0.238409
0.238364
0.23826
0.2381
0.237901
0.237678
0.237445
0.237208
0.236971
0.236736
0.236501
0.236265
0.236027
0.235785
0.235538
0.235286
0.235029
0.234768
0.234501
0.23423
0.233955
0.233676
0.233393
0.233107
0.232817
0.232523
0.232227
0.231927
0.231625
0.23132
0.231013
0.230704
0.230393
0.230079
0.229765
0.229449
0.229132
0.228814
0.228496
0.228177
0.227858
0.227539
0.227221
0.226903
0.226586
0.22627
0.225955
0.225642
0.225331
0.225022
0.224715
0.224411
0.224109
0.22381
0.223514
0.223222
0.222933
0.222648
0.222367
0.22209
0.221819
0.221552
0.221292
0.221036
0.220785
0.220537
0.22029
0.22004
0.219786
0.219525
0.219258
0.218993
0.218749
0.218554
0.218437
0.218408
0.218443
0.218504
0.218569
0.218635
0.218699
0.218762
0.21882
0.218869
0.218901
0.218905
0.218838
0.218724
0.218519
0.218148
0.217668
0.217048
0.216088
0.215007
0.210859
0.208127
0.214968
0.216296
0.216388
0.214652
0.205147
0.202205
0.214194
0.216441
0.216417
0.213655
0.199515
0.197062
0.213085
0.216313
0.216145
0.212403
0.194862
0.19288
0.211732
0.215947
0.215711
0.210994
0.190986
0.189241
0.210394
0.215468
0.215205
0.20979
0.187654
0.186219
0.209197
0.214938
0.214649
0.208601
0.184879
0.18365
0.208018
0.214354
0.214042
0.207437
0.182487
0.181412
0.206871
0.213727
0.213399
0.206308
0.180382
0.179424
0.20576
0.213072
0.212735
0.205214
0.178499
0.177631
0.204684
0.212401
0.212058
0.204155
0.176788
0.175991
0.203641
0.21172
0.211374
0.203128
0.175213
0.174475
0.20263
0.211035
0.210687
0.202132
0.173751
0.17306
0.201648
0.210348
0.210001
0.201164
0.172382
0.171732
0.200694
0.209664
0.209319
0.200225
0.171093
0.170478
0.199768
0.208985
0.208636
0.199305
0.169866
0.169276
0.198856
0.208301
0.207953
0.198403
0.168692
0.168127
0.197963
0.20762
0.207272
0.197518
0.167565
0.167022
0.197086
0.20694
0.206593
0.196649
0.16648
0.165955
0.196224
0.206262
0.205914
0.195793
0.165431
0.164921
0.195373
0.205584
0.205236
0.194948
0.164412
0.163917
0.194533
0.204905
0.204557
0.194113
0.163421
0.162938
0.193702
0.204227
0.203878
0.193286
0.162453
0.161981
0.192879
0.203547
0.203197
0.192465
0.161507
0.161044
0.192061
0.202865
0.202513
0.19165
0.160578
0.160124
0.191248
0.20218
0.201826
0.190838
0.159666
0.159219
0.190438
0.201492
0.201136
0.19003
0.158768
0.158327
0.189631
0.2008
0.200442
0.189224
0.157883
0.157448
0.188825
0.200103
0.199742
0.188418
0.157009
0.156578
0.18802
0.199401
0.199037
0.187613
0.156144
0.155718
0.187215
0.198693
0.198326
0.186807
0.155288
0.154864
0.186408
0.197978
0.197608
0.185999
0.154437
0.154017
0.185598
0.197257
0.196882
0.185188
0.153593
0.153174
0.184786
0.196527
0.196148
0.184374
0.152751
0.152335
0.183969
0.195789
0.195406
0.183554
0.151913
0.151497
0.183147
0.195041
0.194654
0.18273
0.151076
0.15066
0.182319
0.194284
0.193891
0.181899
0.15024
0.149824
0.181484
0.193516
0.193118
0.18106
0.149403
0.148986
0.180642
0.192736
0.192332
0.180213
0.148563
0.148145
0.17979
0.191944
0.191534
0.179357
0.14772
0.1473
0.178929
0.191139
0.190722
0.178491
0.146873
0.14645
0.178057
0.19032
0.189896
0.177613
0.146021
0.145595
0.177174
0.189485
0.189054
0.176723
0.145162
0.144732
0.176277
0.188635
0.188195
0.17582
0.144295
0.143861
0.175366
0.187767
0.187319
0.174902
0.143419
0.142979
0.17444
0.186881
0.186424
0.173968
0.142532
0.142087
0.173498
0.185977
0.185511
0.173017
0.141634
0.141183
0.172538
0.185052
0.184576
0.172048
0.140724
0.140266
0.17156
0.184106
0.18362
0.171061
0.139799
0.139334
0.170563
0.183138
0.182642
0.170053
0.13886
0.138387
0.169544
0.182147
0.18164
0.169024
0.137905
0.137424
0.168504
0.181132
0.180613
0.167973
0.136933
0.136443
0.167442
0.180093
0.179561
0.166899
0.135943
0.135443
0.166355
0.179028
0.178483
0.1658
0.134933
0.134423
0.165243
0.177936
0.177376
0.164675
0.133903
0.133382
0.164105
0.176814
0.176239
0.163522
0.132851
0.132319
0.162938
0.175662
0.175071
0.162341
0.131776
0.131232
0.161742
0.174478
0.173871
0.16113
0.130676
0.13012
0.160515
0.173261
0.172637
0.159887
0.129551
0.128981
0.159256
0.17201
0.171368
0.158611
0.128399
0.127815
0.157963
0.170722
0.170063
0.157301
0.127219
0.126621
0.156636
0.169398
0.168719
0.155956
0.126009
0.125396
0.155272
0.168035
0.167336
0.154572
0.124768
0.124139
0.153869
0.166631
0.165912
0.15315
0.123495
0.122849
0.152427
0.165186
0.164445
0.151688
0.122188
0.121524
0.150943
0.163697
0.162934
0.150183
0.120846
0.120164
0.149418
0.162164
0.161378
0.148635
0.119468
0.118768
0.147848
0.160584
0.159775
0.147043
0.118052
0.117333
0.146233
0.158957
0.158123
0.145405
0.116598
0.11586
0.144571
0.15728
0.156421
0.143719
0.115104
0.114346
0.142861
0.155552
0.154667
0.141984
0.11357
0.112791
0.141101
0.153772
0.152861
0.140199
0.111994
0.111193
0.139291
0.151939
0.151001
0.138363
0.110375
0.109552
0.137429
0.150051
0.149085
0.136474
0.108712
0.107867
0.135513
0.148107
0.147112
0.134531
0.107003
0.106136
0.133543
0.146105
0.145081
0.132534
0.105249
0.104358
0.131517
0.144045
0.142992
0.130481
0.103449
0.102535
0.129437
0.141927
0.140845
0.128373
0.101602
0.100667
0.127301
0.139751
0.13864
0.12621
0.099711
0.0987528
0.125111
0.137516
0.136376
0.123992
0.0977752
0.0967955
0.122867
0.135224
0.134055
0.121721
0.095796
0.0947952
0.12057
0.132874
0.131677
0.119398
0.0937748
0.0927537
0.118221
0.130469
0.129245
0.117024
0.0917129
0.0906726
0.115822
0.128009
0.126759
0.114601
0.0896124
0.0885538
0.113375
0.125497
0.124221
0.11213
0.0874744
0.0863984
0.110881
0.122934
0.121634
0.109611
0.0852833
0.0841598
0.108339
0.120326
0.119005
0.107045
0.0830024
0.0818403
0.105748
0.117676
0.116336
0.10443
0.080648
0.0794551
0.103111
0.114988
0.11363
0.101773
0.0782365
0.0770214
0.100436
0.112265
0.110892
0.0990811
0.0757843
0.0745554
0.0977304
0.109516
0.108132
0.0963652
0.0733086
0.0720745
0.0950072
0.106748
0.105359
0.0936376
0.0708266
0.069596
0.0922791
0.103972
0.102584
0.0909122
0.0683555
0.0671374
0.0895608
0.101202
0.0998205
0.0882049
0.065914
0.064718
0.0868693
0.0984502
0.0970841
0.0855331
0.0635211
0.0623568
0.0842223
0.0957334
0.0943902
0.0829148
0.0611959
0.0600728
0.0816379
0.0930673
0.0917552
0.0803684
0.0589574
0.0578845
0.0791346
0.0904684
0.0891959
0.0779121
0.0568233
0.0558093
0.0767305
0.0879536
0.0867288
0.0755637
0.0548105
0.0538629
0.0744427
0.0855392
0.0843704
0.0733402
0.052934
0.0520598
0.0722877
0.0832413
0.0821342
0.0712553
0.0512056
0.0504094
0.0702776
0.0810722
0.0800346
0.0693226
0.0496353
0.0489198
0.0684241
0.0790449
0.0780816
0.0675499
0.048227
0.0475934
0.0667334
0.0771685
0.0762827
0.0659428
0.0469825
0.0464302
0.0652105
0.0754489
0.074642
0.0645036
0.0458996
0.0454262
0.0638551
0.0738886
0.073161
0.0632308
0.0449727
0.0445741
0.0626637
0.0724871
0.071837
0.0621185
0.0441922
0.0438622
0.0616289
0.0712405
0.0706658
0.0611589
0.0435464
0.0432787
0.0607419
0.0701434
0.06964
0.0603417
0.043022
0.0428095
0.0599913
0.0691872
0.0687503
0.0596545
0.0426046
0.0424396
0.0593641
0.0683602
0.0679838
0.0590836
0.0422791
0.0421542
0.0588455
0.0676509
0.0673278
0.0586136
0.0420299
0.0419362
0.0584195
0.067045
0.066767
0.0582273
0.0418387
0.0417683
0.0580703
0.0665322
0.0662903
0.0579105
0.0416907
0.0416357
0.057782
0.0660932
0.0658785
0.0576455
0.04157
0.0415221
0.0575356
0.065708
0.0655121
0.0574128
0.0414592
0.0414088
0.0573108
0.0653565
0.0651702
0.0571905
0.0413367
0.0412805
0.0570897
0.065019
0.0648019
0.0569413
0.0411845
0.0411004
0.0568378
0.0646431
0.0644182
0.0566668
0.0409756
0.0408444
0.0564909
0.0642312
0.0639632
0.0562683
0.0406669
0.0404134
0.056017
0.0637143
0.0636476
0.0559004
0.0402202
0.0404104
0.0560162
0.0638485
0.0638494
0.0560215
0.0405639
0.0724584
0.0785653
0.0829775
0.0856565
0.0872058
0.0903127
0.0920096
0.0940452
0.0953701
0.0968178
0.0978632
0.0989756
0.0998323
0.10073
0.101453
0.102205
0.102832
0.103483
0.104044
0.104626
0.105139
0.105675
0.106158
0.106665
0.107128
0.10762
0.108075
0.108561
0.109015
0.109504
0.109963
0.110463
0.110934
0.111453
0.111942
0.112488
0.112999
0.113576
0.114107
0.11471
0.115241
0.11584
0.11632
0.116824
0.117096
0.117192
0.117145
0.116708
0.115209
0.110622
0.103364
0.0812392
0.0786284
0.101899
0.109621
0.108705
0.100536
0.0760465
0.0736709
0.0993013
0.107862
0.10717
0.0983494
0.071874
0.071125
0.0978803
0.106829
0.106396
0.0973908
0.070397
0.070415
0.0972912
0.106266
0.105994
0.0970433
0.0702685
0.0704536
0.0970701
0.10594
0.105695
0.0968532
0.0703314
0.0706088
0.0969341
0.105672
0.105478
0.0967917
0.0706311
0.0709117
0.0969026
0.105469
0.105262
0.0967493
0.0708707
0.0711919
0.0968634
0.105261
0.105095
0.0967507
0.0712676
0.0715777
0.0968744
0.105091
0.104891
0.0967374
0.0715756
0.0719173
0.0968545
0.104888
0.104722
0.0967479
0.0720176
0.0723401
0.096865
0.104706
0.104501
0.0967279
0.0723566
0.0727066
0.0968345
0.104481
0.104304
0.0967222
0.0728173
0.0731427
0.0968213
0.104266
0.104046
0.0966753
0.0731672
0.0735188
0.096763
0.104003
0.103808
0.0966388
0.0736328
0.0739562
0.0967129
0.10374
0.1035
0.0965536
0.0739847
0.0743364
0.0966188
0.103428
0.103212
0.0964816
0.0744535
0.0747759
0.0965302
0.103112
0.102851
0.09636
0.0748131
0.0751706
0.0964075
0.102751
0.10252
0.0962654
0.0753019
0.0756341
0.0962983
0.10239
0.102119
0.0961325
0.0757009
0.0760881
0.0961829
0.102003
0.101772
0.0960636
0.0762766
0.0766672
0.0961175
0.101634
0.101383
0.0960049
0.076849
0.0773737
0.0961252
0.101287
0.10111
0.0961159
0.0778003
0.0785027
0.0963386
0.101052
0.100987
0.0965355
0.0793159
0.0805151
0.0969841
0.101079
0.100938
0.097143
0.0814205
0.0819893
0.0969784
0.100489
0.0996259
0.0962671
0.0819212
0.0817291
0.0953798
0.0985703
0.0972312
0.0941296
0.0811273
0.0807443
0.0928943
0.0958144
0.0943007
0.0916203
0.0805176
0.0802727
0.0903197
0.0927249
0.0906017
0.0885182
0.0796629
0.0691962
0.0842254
0.0882256
0.0877848
0.0849829
0.0732455
0.0731833
0.0836583
0.0859396
0.0839402
0.0821724
0.0739483
0.0745552
0.0807901
0.0820085
0.0794203
0.0789096
0.0761721
0.0739548
0.076083
0.0762287
0.0720435
0.0720053
0.0702328
0.06676
0.0676209
0.0672321
0.0622445
0.0627621
0.0628454
0.0576694
0.0579361
0.0585288
0.0541762
0.0524863
0.0517795
0.0447375
0.0462075
0.0489659
0.043633
0.0397925
0.0369859
0.0292808
0.0342368
0.0396636
0.0394783
0.0329217
0.0253027
0.0300538
0.0391053
0.0448454
0.0516768
0.0479778
0.0411055
0.0573339
0.0605559
0.0621612
0.0793262
0.0776524
0.0765622
0.0964227
0.0941574
0.0937067
0.105745
0.108184
0.11557
0.135434
0.124404
0.120833
0.135826
0.139472
0.154284
0.171344
0.150719
0.14674
0.160463
0.163952
0.189411
0.20722
0.17694
0.173706
0.185884
0.18985
0.226146
0.246726
0.210803
0.20253
0.225936
0.234392
0.264518
0.276885
0.252315
0.244549
0.260294
0.266057
0.28509
0.28703
0.271367
0.270954
0.273758
0.270675
0.282817
0.273051
0.266951
0.27657
0.274176
0.258951
0.258389
0.240171
0.246672
0.264766
0.261553
0.235369
0.219456
0.200183
0.222549
0.249549
0.234535
0.208389
0.182806
0.167085
0.196592
0.231028
0.215122
0.185112
0.15717
0.146154
0.162226
0.194943
0.189068
0.152111
0.131298
0.120998
0.143228
0.177346
0.157297
0.129295
0.105986
0.114768
0.147148
0.16679
0.159438
0.140628
0.110189
0.0988581
0.128686
0.146713
0.161083
0.144417
0.113117
0.10987
0.139792
0.156048
0.145133
0.128544
0.100321
0.114094
0.143534
0.158172
0.154071
0.139387
0.111667
0.102418
0.129821
0.144461
0.156483
0.143333
0.115785
0.114153
0.140326
0.153776
0.144989
0.131694
0.105477
0.118482
0.144255
0.156347
0.149779
0.137331
0.112467
0.124917
0.149279
0.160229
0.157902
0.146301
0.123073
0.116036
0.138897
0.150742
0.161064
0.150855
0.127941
0.126089
0.148229
0.159347
0.153048
0.141807
0.118997
0.130699
0.153321
0.162499
0.161475
0.151292
0.129633
0.122045
0.144631
0.155114
0.163783
0.154673
0.132663
0.128629
0.149917
0.159697
0.167805
0.159522
0.138211
0.136512
0.157088
0.16645
0.160904
0.151321
0.130087
0.140184
0.160967
0.168909
0.164959
0.155986
0.135614
0.144404
0.16444
0.172122
0.171423
0.162983
0.143164
0.138322
0.157595
0.166718
0.174549
0.166688
0.147179
0.144967
0.165066
0.173677
0.168829
0.15913
0.138824
0.147956
0.169552
0.176243
0.1732
0.16515
0.143711
0.152203
0.17347
0.180213
0.176722
0.168683
0.147775
0.157066
0.176596
0.183136
0.182926
0.175187
0.156669
0.150836
0.170429
0.178474
0.185264
0.178326
0.158109
0.154112
0.173958
0.18226
0.1891
0.182644
0.16363
0.163234
0.181564
0.189203
0.184892
0.17683
0.157124
0.16445
0.184639
0.191436
0.188364
0.179987
0.16047
0.169562
0.188967
0.195126
0.192746
0.185378
0.166539
0.174841
0.193083
0.199331
0.198803
0.191542
0.173229
0.168027
0.185944
0.194662
0.201006
0.195117
0.175781
0.172411
0.191924
0.198978
0.206011
0.20014
0.180919
0.177494
0.196344
0.203488
0.209166
0.203283
0.184403
0.18346
0.201729
0.209124
0.205511
0.19787
0.178126
0.186689
0.206147
0.212095
0.209579
0.201902
0.183141
0.190709
0.209717
0.215612
0.213044
0.20568
0.186926
0.194941
0.213132
0.218906
0.219351
0.212267
0.194657
0.189195
0.208383
0.215826
0.222239
0.216144
0.197161
0.193457
0.211786
0.219603
0.225564
0.219958
0.200517
0.197303
0.215972
0.22329
0.229296
0.224006
0.20541
0.20284
0.220746
0.227453
0.232965
0.227619
0.210062
0.208754
0.225772
0.232767
0.229293
0.221438
0.20293
0.209963
0.230002
0.234736
0.233036
0.226619
0.206092
0.214033
0.234046
0.239213
0.237073
0.23027
0.210615
0.218196
0.237641
0.242734
0.240322
0.233514
0.214424
0.221466
0.240446
0.245652
0.244007
0.237329
0.218945
0.227127
0.244578
0.249553
0.250121
0.243691
0.22638
0.221358
0.239865
0.246995
0.252733
0.247563
0.228036
0.224496
0.24325
0.25043
0.256402
0.250763
0.23206
0.229375
0.247401
0.254529
0.260495
0.255293
0.236829
0.23363
0.251676
0.258423
0.263574
0.25854
0.240255
0.237636
0.255316
0.26185
0.267081
0.262268
0.245271
0.244388
0.261104
0.267524
0.26461
0.257345
0.239366
0.245867
0.26541
0.269745
0.26806
0.26178
0.241744
0.24949
0.268996
0.273822
0.271867
0.265404
0.246213
0.253306
0.272312
0.277101
0.275056
0.268543
0.24984
0.256613
0.275398
0.280175
0.278742
0.272309
0.254123
0.262375
0.279464
0.284061
0.284965
0.278851
0.26165
0.257137
0.274515
0.281766
0.287247
0.281332
0.263443
0.259495
0.278268
0.285425
0.291444
0.286669
0.266977
0.26388
0.282934
0.289849
0.295219
0.290515
0.271184
0.268489
0.287005
0.293552
0.298696
0.294073
0.275258
0.272908
0.291152
0.297417
0.30281
0.298397
0.28133
0.280404
0.297576
0.303617
0.300584
0.293326
0.275465
0.281773
0.300546
0.306059
0.304208
0.296916
0.278483
0.285934
0.305249
0.310062
0.308409
0.301382
0.28274
0.290058
0.309257
0.313816
0.31238
0.305846
0.287589
0.294564
0.313219
0.31777
0.316224
0.309736
0.291578
0.299121
0.316701
0.321265
0.322314
0.315864
0.298385
0.293617
0.312551
0.319768
0.326045
0.320875
0.301939
0.298061
0.31735
0.324244
0.330151
0.325244
0.305823
0.302374
0.32159
0.328294
0.333691
0.328827
0.309516
0.306457
0.325225
0.331997
0.337772
0.333256
0.31495
0.312655
0.330462
0.336733
0.342029
0.337651
0.32065
0.320512
0.337259
0.343416
0.340562
0.333514
0.315215
0.320669
0.340816
0.345537
0.344128
0.337565
0.317111
0.325785
0.345707
0.35046
0.349226
0.342559
0.322827
0.332381
0.35086
0.355317
0.35453
0.348456
0.330177
0.338232
0.355914
0.360025
0.361503
0.355533
0.337525
0.332187
0.351228
0.358609
0.363903
0.358908
0.338675
0.335176
0.355719
0.362496
0.369163
0.36433
0.344381
0.342644
0.361944
0.368638
0.375386
0.371361
0.3527
0.350177
0.368506
0.374459
0.379155
0.37461
0.356885
0.355366
0.37376
0.380127
0.377819
0.369886
0.351437
0.359587
0.379554
0.384041
0.38373
0.376821
0.357358
0.367932
0.387181
0.390829
0.390699
0.384885
0.366508
0.373661
0.39201
0.395992
0.397212
0.39066
0.372116
0.366948
0.3871
0.394578
0.401177
0.396041
0.375325
0.37253
0.393567
0.400512
0.408319
0.404076
0.384681
0.383311
0.402451
0.408467
0.414441
0.410543
0.392066
0.390547
0.409755
0.415905
0.412869
0.405037
0.384762
0.392156
0.413421
0.418562
0.4179
0.410483
0.389537
0.40202
0.422255
0.426023
0.427495
0.421667
0.402321
0.412351
0.430669
0.434226
0.435581
0.429443
0.409854
0.40457
0.424849
0.432834
0.439181
0.433982
0.413016
0.410204
0.431568
0.4389
0.447102
0.443016
0.423841
0.427188
0.446764
0.452626
0.450924
0.443557
0.423716
0.429774
0.451381
0.456605
0.454895
0.447288
0.424911
0.436419
0.457284
0.46203
0.466312
0.458961
0.437306
0.436569
0.458326
0.466509
0.476121
0.472122
0.451028
0.447213
0.468975
0.475434
0.481471
0.476606
0.455238
0.452862
0.475858
0.483407
0.482202
0.472997
0.450325
0.465264
0.487286
0.491545
0.495116
0.488776
0.467557
0.482136
0.501889
0.504894
0.507189
0.50092
0.478827
0.473008
0.496254
0.50498
0.512565
0.507158
0.485397
0.486952
0.511216
0.518493
0.52099
0.512746
0.489926
0.505893
0.527873
0.531842
0.534183
0.526682
0.501348
0.495274
0.521568
0.531681
0.540253
0.53528
0.510437
0.516894
0.541329
0.548803
0.550006
0.542168
0.517183
0.530664
0.555675
0.560426
0.563747
0.555343
0.527596
0.523615
0.553071
0.563391
0.576317
0.57246
0.552055
0.55953
0.581685
0.586907
0.586412
0.578156
0.553095
0.563591
0.588768
0.5942
0.600322
0.592373
0.565322
0.570943
0.597197
0.604748
0.620048
0.617719
0.593131
0.586974
0.617722
0.624156
0.629744
0.620699
0.588204
0.589694
0.621916
0.631497
0.644902
0.641308
0.611752
0.607273
0.642936
0.649058
0.657027
0.64965
0.611689
0.609281
0.653209
0.663434
0.667915
0.657167
0.603394
0.594539
0.654282
0.668285
0.664619
0.648379
0.582039
0.556551
0.62214
0.644662
0.642835
0.624673
0.56604
0.524538
0.591132
0.612356
0.586498
0.560725
0.486254
0.452579
0.534063
0.563539
0.545437
0.512948
0.426048
0.40381
0.495307
0.530642
0.517839
0.479695
0.384403
0.366597
0.465209
0.506049
0.495024
0.451612
0.350429
0.335584
0.43877
0.484615
0.474787
0.426711
0.32205
0.309716
0.415338
0.465443
0.456538
0.404627
0.298419
0.288067
0.394534
0.448037
0.439912
0.38504
0.278577
0.269872
0.376107
0.432133
0.424696
0.367727
0.261881
0.254559
0.359871
0.417566
0.410746
0.352518
0.24786
0.241728
0.345623
0.404208
0.397937
0.33916
0.236125
0.231008
0.333098
0.391922
0.386149
0.327416
0.226345
0.222098
0.322084
0.38061
0.375307
0.317091
0.218243
0.214753
0.312396
0.370213
0.365336
0.307985
0.211599
0.208749
0.303832
0.36066
0.356189
0.299928
0.206183
0.203878
0.296252
0.351893
0.347781
0.292795
0.201814
0.199967
0.289538
0.343837
0.340071
0.286477
0.198322
0.196861
0.283593
0.336458
0.333013
0.280881
0.195566
0.194417
0.278325
0.329718
0.326584
0.275922
0.193402
0.19251
0.273658
0.323587
0.32074
0.271528
0.191725
0.191034
0.269523
0.318026
0.315456
0.26764
0.190428
0.1899
0.265867
0.313007
0.310691
0.264204
0.189438
0.189033
0.26264
0.30849
0.306413
0.261173
0.188678
0.18837
0.259796
0.304441
0.302583
0.258506
0.188101
0.187865
0.257297
0.300821
0.299164
0.256164
0.187658
0.187478
0.255105
0.297595
0.296121
0.254114
0.187321
0.187183
0.25319
0.294726
0.293418
0.252327
0.187062
0.186963
0.25152
0.292182
0.291024
0.250772
0.186875
0.186812
0.250075
0.289932
0.288908
0.249429
0.186754
0.186718
0.24883
0.287945
0.287045
0.24828
0.186688
0.186677
0.247772
0.286197
0.285404
0.247306
0.186667
0.186676
0.246878
0.284658
0.283966
0.246492
0.18669
0.186721
0.24614
0.283314
0.282706
0.245822
0.186751
0.1868
0.245534
0.282136
0.281609
0.245281
0.186854
0.186925
0.245058
0.281114
0.280654
0.244862
0.186996
0.187083
0.244697
0.280218
0.279822
0.244559
0.187177
0.18729
0.24445
0.279449
0.279107
0.24436
0.187402
0.187533
0.244293
0.278786
0.278497
0.244245
0.187666
0.187816
0.244223
0.278241
0.277996
0.244212
0.187961
0.188125
0.244221
0.277798
0.277614
0.244243
0.188291
0.188474
0.244285
0.277463
0.277318
0.24433
0.188652
0.188844
0.244393
0.277205
0.277102
0.244463
0.189037
0.189242
0.244552
0.277027
0.276952
0.244643
0.189442
0.189653
0.244747
0.276909
0.276871
0.244861
0.189864
0.190086
0.24499
0.276859
0.276845
0.24512
0.190302
0.190526
0.245262
0.276857
0.276874
0.245412
0.190751
0.190986
0.245575
0.276914
0.276953
0.245738
0.191215
0.191451
0.245913
0.277014
0.27708
0.246095
0.191689
0.191936
0.246288
0.277167
0.277252
0.246482
0.192177
0.192426
0.246686
0.277356
0.277465
0.246897
0.192676
0.192934
0.247117
0.277593
0.277717
0.247338
0.193189
0.193449
0.247567
0.277859
0.278005
0.247802
0.193712
0.193981
0.248046
0.278167
0.278325
0.24829
0.194247
0.194518
0.24854
0.278499
0.278675
0.248795
0.194791
0.19507
0.249058
0.278866
0.279052
0.24932
0.195345
0.195624
0.249588
0.279251
0.279452
0.249859
0.195905
0.196191
0.250137
0.279666
0.279872
0.250415
0.196474
0.19676
0.250695
0.280096
0.280317
0.250979
0.197047
0.197338
0.25127
0.28055
0.280776
0.25156
0.197626
0.197917
0.25185
0.281017
0.281255
0.252144
0.198207
0.1985
0.252442
0.281501
0.281744
0.252739
0.198789
0.199081
0.253038
0.281995
0.282246
0.253339
0.199372
0.199665
0.253643
0.282504
0.282757
0.253944
0.199953
0.200244
0.254247
0.283018
0.283277
0.254552
0.200533
0.200823
0.254858
0.283544
0.283803
0.255164
0.201109
0.201396
0.255467
0.284073
0.284338
0.255773
0.201681
0.201967
0.25608
0.28461
0.284874
0.256385
0.202248
0.20253
0.256688
0.285148
0.285418
0.256993
0.202809
0.203089
0.257298
0.285692
0.285962
0.257601
0.203364
0.203639
0.257903
0.286235
0.286507
0.258206
0.203911
0.204184
0.258508
0.286782
0.287052
0.258807
0.204451
0.204718
0.259105
0.287325
0.287596
0.259403
0.204982
0.205245
0.2597
0.287871
0.288137
0.259995
0.205503
0.205761
0.260285
0.288411
0.28868
0.260577
0.206015
0.206269
0.260869
0.288952
0.289216
0.261158
0.206518
0.206766
0.261442
0.289487
0.289753
0.261727
0.20701
0.207254
0.262011
0.290021
0.290281
0.262293
0.207492
0.207729
0.262571
0.290545
0.290807
0.262848
0.207964
0.208197
0.263124
0.29107
0.291328
0.263396
0.208425
0.208652
0.263667
0.291587
0.291844
0.263936
0.208876
0.209099
0.264203
0.292104
0.292354
0.264468
0.209316
0.209532
0.264729
0.292609
0.292859
0.264989
0.209745
0.209957
0.265248
0.293109
0.293355
0.265504
0.210163
0.210368
0.265756
0.293601
0.293845
0.266007
0.210571
0.210772
0.266257
0.294088
0.294325
0.266504
0.210968
0.211163
0.266746
0.294567
0.294804
0.266988
0.211356
0.211547
0.267229
0.29504
0.295273
0.267466
0.211733
0.211918
0.2677
0.295504
0.295734
0.267933
0.2121
0.212281
0.268164
0.295963
0.296188
0.268391
0.212458
0.212633
0.268616
0.296411
0.296633
0.268839
0.212805
0.212976
0.269061
0.296854
0.29707
0.269279
0.213143
0.213307
0.269493
0.297285
0.297499
0.269706
0.21347
0.213631
0.269917
0.297713
0.29792
0.270126
0.213788
0.213944
0.270331
0.29813
0.298336
0.270535
0.214097
0.214249
0.270738
0.298541
0.298741
0.270939
0.214398
0.214546
0.271135
0.298944
0.299142
0.271331
0.214691
0.214835
0.271525
0.29934
0.299533
0.271718
0.214976
0.215117
0.271905
0.299728
0.299918
0.272092
0.215254
0.21539
0.272278
0.300108
0.300294
0.272462
0.215523
0.215656
0.272641
0.300481
0.300665
0.272819
0.215785
0.215914
0.272997
0.300847
0.301025
0.273173
0.21604
0.216165
0.273344
0.301205
0.301381
0.273514
0.216287
0.216408
0.273683
0.301556
0.301727
0.273851
0.216527
0.216645
0.274014
0.3019
0.302068
0.274176
0.21676
0.216875
0.274338
0.302236
0.3024
0.274498
0.216987
0.217098
0.274653
0.302565
0.302727
0.274808
0.217207
0.217315
0.274962
0.302887
0.303044
0.275115
0.217421
0.217526
0.275264
0.303201
0.303356
0.275411
0.217629
0.217732
0.275556
0.303511
0.303661
0.275702
0.217833
0.217932
0.275843
0.303812
0.30396
0.275983
0.218029
0.218126
0.276123
0.304106
0.304249
0.276262
0.21822
0.218314
0.276396
0.304391
0.304532
0.276529
0.218406
0.218497
0.27666
0.304673
0.304809
0.276792
0.218586
0.218675
0.27692
0.304945
0.305079
0.277046
0.218761
0.218847
0.277171
0.305212
0.305343
0.277295
0.218932
0.219015
0.277417
0.305472
0.3056
0.277537
0.219096
0.219177
0.277654
0.305728
0.305851
0.277774
0.219256
0.219335
0.277887
0.305976
0.306097
0.278002
0.219411
0.219487
0.278115
0.306217
0.306335
0.278228
0.219561
0.219635
0.278335
0.306453
0.306569
0.278443
0.219707
0.219778
0.27855
0.306683
0.306796
0.278656
0.219848
0.219916
0.278759
0.306907
0.307017
0.278861
0.219984
0.220051
0.278962
0.307125
0.307232
0.279063
0.220116
0.220181
0.279159
0.307339
0.307441
0.279257
0.220243
0.220307
0.279352
0.307545
0.307648
0.279446
0.220368
0.220429
0.279539
0.307747
0.307847
0.27963
0.220488
0.220547
0.27972
0.307944
0.308042
0.279809
0.220605
0.220661
0.279896
0.308136
0.30823
0.279982
0.220716
0.220772
0.280066
0.308325
0.308415
0.280152
0.220825
0.220878
0.280234
0.308504
0.308593
0.280315
0.22093
0.220982
0.280394
0.308683
0.308769
0.280475
0.221032
0.221082
0.280551
0.308855
0.308939
0.280628
0.22113
0.221178
0.280704
0.309022
0.309103
0.28078
0.221225
0.221271
0.280852
0.309185
0.309264
0.280924
0.221316
0.221361
0.280995
0.309343
0.30942
0.281067
0.221405
0.221448
0.281134
0.309497
0.309573
0.281203
0.22149
0.221532
0.28127
0.309647
0.30972
0.281338
0.221573
0.221613
0.281401
0.309793
0.309865
0.281465
0.221653
0.221692
0.281529
0.309935
0.310004
0.281593
0.22173
0.221768
0.281652
0.310074
0.310142
0.281713
0.221805
0.221841
0.281773
0.310209
0.310274
0.281833
0.221877
0.221912
0.281889
0.31034
0.310404
0.281946
0.221946
0.221981
0.282002
0.310467
0.310529
0.282059
0.222014
0.222047
0.282112
0.310592
0.310653
0.282166
0.222079
0.222111
0.282219
0.310713
0.310772
0.282273
0.222142
0.222173
0.282323
0.310831
0.310889
0.282373
0.222203
0.222233
0.282424
0.310946
0.311003
0.282474
0.222262
0.222291
0.282522
0.311058
0.311113
0.28257
0.222319
0.222347
0.282617
0.311167
0.31122
0.282666
0.222374
0.222401
0.28271
0.311274
0.311325
0.282756
0.222427
0.222454
0.282799
0.311377
0.311427
0.282845
0.222479
0.222504
0.282888
0.311477
0.311527
0.28293
0.222529
0.222554
0.282971
0.311577
0.311624
0.283015
0.222578
0.222602
0.283054
0.311673
0.31172
0.283094
0.222625
0.222648
0.283135
0.311766
0.311812
0.283174
0.222671
0.222693
0.283213
0.311857
0.311902
0.283251
0.222715
0.222737
0.28329
0.311946
0.31199
0.283327
0.222758
0.222779
0.283364
0.312033
0.312076
0.2834
0.222799
0.22282
0.283436
0.312118
0.312159
0.283471
0.22284
0.22286
0.283506
0.3122
0.31224
0.28354
0.222879
0.222898
0.283574
0.31228
0.31232
0.283607
0.222917
0.222936
0.28364
0.312358
0.312397
0.283672
0.222954
0.222972
0.283704
0.312435
0.312472
0.283736
0.222989
0.223007
0.283767
0.312509
0.312545
0.283797
0.223024
0.223041
0.283828
0.312581
0.312618
0.283857
0.223057
0.223074
0.283887
0.312652
0.312687
0.283916
0.22309
0.223106
0.283945
0.312721
0.312756
0.283973
0.223122
0.223137
0.284001
0.312789
0.312822
0.284028
0.223152
0.223168
0.284056
0.312855
0.312888
0.284083
0.223183
0.223198
0.284109
0.312919
0.312951
0.284136
0.223212
0.223227
0.284162
0.312983
0.313014
0.284188
0.223242
0.223256
0.284213
0.313044
0.313075
0.284239
0.22327
0.223284
0.284264
0.313105
0.313135
0.284289
0.223298
0.223311
0.284313
0.313164
0.313194
0.284337
0.223325
0.223339
0.284361
0.313223
0.313251
0.284387
0.223352
0.223366
0.284408
0.31328
0.313309
0.284432
0.223379
0.223392
0.284455
0.313336
0.313363
0.28448
0.223405
0.223418
0.2845
0.313392
0.313419
0.284523
0.223431
0.223444
0.284546
0.313446
0.313472
0.28457
0.223456
0.223469
0.28459
0.3135
0.313527
0.284612
0.223482
0.223495
0.284635
0.313554
0.313579
0.284659
0.223508
0.223521
0.284679
0.313607
0.313634
0.284701
0.223534
0.223548
0.284723
0.31366
0.313687
0.284745
0.223561
0.223574
0.284768
0.313712
0.313739
0.28479
0.223588
0.223603
0.284813
0.313766
0.313792
0.284837
0.223617
0.223632
0.28486
0.313819
0.313847
0.284883
0.223647
0.223663
0.284906
0.313875
0.313905
0.284931
0.22368
0.223695
0.284954
0.31393
0.31396
0.284979
0.223712
0.223731
0.285004
0.31399
0.314019
0.285031
0.223748
0.223766
0.285056
0.314049
0.314079
0.285082
0.223784
0.223804
0.28511
0.31411
0.31414
0.285139
0.223823
0.223843
0.285165
0.314172
0.314203
0.285192
0.223862
0.223882
0.285221
0.314235
0.314265
0.28525
0.223901
0.223922
0.285276
0.314297
0.314329
0.285304
0.223941
0.223961
0.285333
0.314361
0.31439
0.285361
0.223979
0.223998
0.285387
0.314422
0.314452
0.285412
0.224015
0.224032
0.285439
0.314481
0.314509
0.285463
0.224047
0.224063
0.285488
0.314537
0.314565
0.285511
0.224077
0.224094
0.285537
0.314594
0.314622
0.285561
0.224109
0.224127
0.285586
0.314652
0.314682
0.285612
0.224144
0.224167
0.285643
0.314715
0.314751
0.285674
0.224193
0.224241
0.285718
0.314795
0.314823
0.285764
0.224302
0.224382
0.28579
0.314873
0.314892
0.285763
0.22437
0.224548
0.285959
0.315269
0.316736
0.286798
0.225444
0.227443
0.288749
0.319357
0.321636
0.290942
0.229664
0.354506
0.376259
0.38815
0.393805
0.399923
0.405209
0.408925
0.411992
0.418148
0.421966
0.427299
0.431819
0.435438
0.43849
0.441018
0.44313
0.444893
0.446368
0.447608
0.448654
0.449542
0.450298
0.450944
0.451499
0.451978
0.452392
0.452752
0.453066
0.453341
0.453583
0.453797
0.453986
0.454154
0.454304
0.454438
0.454558
0.454667
0.454764
0.454852
0.454932
0.455004
0.455069
0.455127
0.45518
0.455228
0.455271
0.45531
0.455344
0.455375
0.455401
0.455425
0.455444
0.455461
0.455473
0.455482
0.455485
0.455488
0.455503
0.455507
0.455511
0.455517
0.455522
0.455528
0.455534
0.455541
0.455547
0.455553
0.455559
0.455565
0.455571
0.455575
0.45558
0.455583
0.455585
0.455586
0.455585
0.455582
0.455577
0.45557
0.45556
0.455547
0.455531
0.455512
0.455489
0.455463
0.455433
0.4554
0.455364
0.455325
0.455284
0.455242
0.4552
0.45516
0.455123
0.455086
0.455038
0.454974
0.454895
0.454802
0.454697
0.454583
0.454459
0.454326
0.454185
0.454034
0.453874
0.453705
0.453526
0.453337
0.453139