/*--------------------------------*- C++ -*----------------------------------*\
| =========                 |                                                 |
| \\      /  F ield         | OpenFOAM: The Open Source CFD Toolbox           |
|  \\    /   O peration     | Version:  v2006                                 |
|   \\  /    A nd           | Website:  www.openfoam.com                      |
|    \\/     M anipulation  |                                                 |
\*---------------------------------------------------------------------------*/
FoamFile
{
    version     2.0;
    format      ascii;
    class       volVectorField;
    location    "0.044";
    object      U;
}
// * * * * * * * * * * * * * * * * * * * * * * * * * * * * * * * * * * * * * //

dimensions      [0 1 -1 0 0 0 0];


internalField   nonuniform List<vector> 
31566
(
(82.5288 -5.51182e-05 -6.78791e-22)
(82.5288 -1.80334e-05 0)
(82.5288 -5.80941e-06 0)
(82.5288 -1.7828e-05 -7.56542e-22)
(82.5289 -3.08732e-05 1.2801e-21)
(82.529 -4.38581e-05 -2.41647e-22)
(82.5291 -5.94183e-05 0)
(82.5293 -7.4393e-05 1.33437e-22)
(82.5295 -9.07935e-05 1.22919e-22)
(82.5297 -0.000102768 -1.44741e-22)
(82.53 -0.000108806 -1.06976e-24)
(82.5303 -0.000109888 0)
(82.5306 -0.000103473 0)
(82.5307 -9.05766e-05 0)
(82.5297 -0.0001313 0)
(82.5218 -0.000828123 -1.7614e-23)
(82.4969 -0.00352158 0)
(82.4513 -0.00828103 0)
(82.3893 -0.0138985 0)
(82.3166 -0.019476 0)
(82.2382 -0.0245205 0)
(82.1576 -0.0288329 0)
(82.0767 -0.0324375 0)
(81.9963 -0.035462 0)
(81.9162 -0.0380491 0)
(81.836 -0.0403183 0)
(81.7552 -0.042356 0)
(81.6732 -0.0442181 0)
(81.5898 -0.045937 0)
(81.5047 -0.0475299 0)
(81.4179 -0.0490063 0)
(81.3293 -0.0503723 0)
(81.239 -0.0516341 0)
(81.1471 -0.0527982 0)
(81.0537 -0.0538728 0)
(80.9589 -0.0548666 0)
(80.8627 -0.0557881 0)
(80.7651 -0.0566451 0)
(80.6663 -0.0574442 0)
(80.5663 -0.0581905 0)
(80.4652 -0.0588882 0)
(80.3629 -0.0595398 0)
(80.2596 -0.0601471 0)
(80.1554 -0.0607111 0)
(80.0502 -0.0612322 0)
(79.9443 -0.0617102 0)
(79.8375 -0.0621449 0)
(79.73 -0.0625356 0)
(79.622 -0.0628816 0)
(79.5134 -0.0631821 0)
(79.4043 -0.0634364 0)
(79.2949 -0.0636437 0)
(79.1851 -0.0638034 0)
(79.0752 -0.0639153 0)
(78.9651 -0.0639781 0)
(78.8549 -0.0639903 0)
(78.7448 -0.0639516 0)
(78.6348 -0.0638603 0)
(78.525 -0.0637166 0)
(78.4155 -0.063532 1.57194e-22)
(78.3064 -0.0633027 0)
(78.1977 -0.0630177 0)
(78.0895 -0.0626807 0)
(77.982 -0.0622927 0)
(77.8751 -0.061854 0)
(77.7691 -0.0613649 0)
(77.6638 -0.0608252 0)
(77.5595 -0.0602336 0)
(77.4562 -0.0595879 0)
(77.354 -0.0588849 0)
(77.2528 -0.0581205 0)
(77.1529 -0.0572897 0)
(77.0543 -0.0563871 0)
(76.9572 -0.0554082 0)
(76.8616 -0.0543504 0)
(76.7676 -0.0532145 0)
(76.6755 -0.0520055 0)
(76.5853 -0.050733 0)
(76.4968 -0.0494076 0)
(76.41 -0.0480366 0)
(76.3244 -0.0466075 0)
(76.2391 -0.0450708 0)
(76.1532 -0.0433278 1.47384e-22)
(76.0656 -0.0412038 0)
(75.9756 -0.0384311 0)
(75.8835 -0.0346696 0)
(75.7918 -0.0296919 0)
(75.7068 -0.0236975 0)
(75.6379 -0.01749 0)
(75.5956 -0.0123938 -9.19812e-23)
(75.5839 -0.00965435 -1.02754e-22)
(75.595 -0.00895849 -1.26519e-22)
(75.6157 -0.00893297 -4.10616e-23)
(75.6383 -0.00896431 0)
(75.661 -0.00897064 0)
(75.6834 -0.0089582 0)
(75.7051 -0.00892886 0)
(75.7251 -0.00901045 -7.06297e-21)
(75.7422 -0.00923905 0)
(75.7535 -0.0102245 0)
(75.7551 -0.0122614 0)
(75.7321 -0.0113796 0)
(75.6933 -0.00802849 0)
(75.6235 -0.0219559 0)
(75.4965 -0.0422514 -5.26235e-19)
(75.332 -0.069419 7.09632e-19)
(75.1192 -0.107679 0)
(74.7899 -0.143801 5.88545e-19)
(74.4185 -0.162424 -7.68789e-19)
(72.9949 -0.224049 0)
(72.0521 -0.19736 0)
(74.4045 -0.25406 0)
(74.8597 -0.235427 -6.05305e-18)
(74.8913 -0.273546 1.19645e-18)
(74.2963 -0.291572 -3.75293e-19)
(71.0257 -0.192251 2.33836e-19)
(70.0119 -0.174812 -1.00627e-18)
(74.1392 -0.283522 3.31833e-19)
(74.91 -0.278162 -1.09027e-18)
(74.9023 -0.262132 1.0642e-18)
(73.9542 -0.255778 8.17446e-20)
(69.0838 -0.151632 8.12764e-19)
(68.2373 -0.129818 -4.6933e-20)
(73.759 -0.233741 -7.71094e-20)
(74.8669 -0.247787 -6.37669e-20)
(74.8099 -0.229945 6.39324e-20)
(73.5245 -0.209232 0)
(67.4771 -0.112235 4.72109e-20)
(66.7923 -0.100024 0)
(73.2938 -0.190569 -4.82765e-21)
(74.742 -0.215701 0)
(74.6611 -0.199166 0)
(73.0394 -0.171909 4.83266e-21)
(66.1369 -0.0904443 0)
(65.5333 -0.0841669 -2.96074e-21)
(72.8324 -0.162068 4.82029e-21)
(74.5778 -0.188724 -4.00636e-21)
(74.4871 -0.180843 4.02913e-21)
(72.6241 -0.151986 -4.82956e-21)
(64.9842 -0.0770489 1.48311e-21)
(64.4874 -0.0697388 7.58802e-26)
(72.4193 -0.140447 -1.20798e-21)
(74.3952 -0.172417 0)
(74.2961 -0.165387 5.16741e-19)
(72.2138 -0.131966 1.20885e-21)
(64.0232 -0.0640769 1.48424e-21)
(63.5973 -0.0586411 0)
(72.0123 -0.12296 0)
(74.1942 -0.158467 0)
(74.0867 -0.15291 -5.17389e-19)
(71.8115 -0.116724 0)
(63.194 -0.0546098 0)
(62.8212 -0.0504651 0)
(71.6157 -0.109522 0)
(73.978 -0.147167 0)
(73.865 -0.142718 -5.17901e-19)
(71.4209 -0.10492 0)
(62.4643 -0.0475725 0)
(62.1318 -0.0442721 0)
(71.2314 -0.0989311 0)
(73.7521 -0.137922 0)
(73.6358 -0.134219 0)
(71.0427 -0.0955666 0)
(61.811 -0.0422029 0)
(61.5098 -0.0395847 0)
(70.8591 -0.0907022 0)
(73.5204 -0.129868 -5.18532e-19)
(73.4018 -0.126937 0)
(70.676 -0.0881164 0)
(61.2172 -0.0380101 0)
(60.9407 -0.0358696 0)
(70.4982 -0.0840486 0)
(73.2852 -0.123136 0)
(73.1652 -0.120768 0)
(70.3205 -0.0820524 0)
(60.6709 -0.0346683 0)
(60.4146 -0.0328653 0)
(70.148 -0.0785247 0)
(73.0483 -0.117372 -5.19212e-19)
(72.9278 -0.115486 0)
(69.9754 -0.0770179 0)
(60.1634 -0.031959 0)
(59.9237 -0.0304189 0)
(69.8079 -0.0739209 0)
(72.8109 -0.112468 0)
(72.6906 -0.110644 0)
(69.6402 -0.0726087 0)
(59.6881 -0.0296687 0)
(59.4627 -0.0284536 0)
(69.4776 -0.0701653 0)
(72.5743 -0.108291 -5.19772e-19)
(72.4549 -0.106372 0)
(69.3151 -0.0686864 0)
(59.2411 -0.0276407 0)
(59.0276 -0.0267617 0)
(69.1567 -0.0668358 0)
(72.3395 -0.104518 0)
(72.2184 -0.103386 0)
(68.996 -0.0660845 0)
(58.8149 -0.0262844 0)
(58.6104 -0.0252441 0)
(68.8404 -0.06393 0)
(72.1026 -0.101491 -5.20253e-19)
(71.9821 -0.100835 0)
(68.6834 -0.0636603 0)
(58.4075 -0.0250345 0)
(58.2116 -0.0240121 0)
(68.5309 -0.0614369 0)
(71.8668 -0.098632 5.20472e-19)
(71.7465 -0.0982511 0)
(68.3769 -0.0613826 0)
(58.0167 -0.0238999 0)
(57.8281 -0.0229449 0)
(68.2271 -0.0592932 0)
(71.6316 -0.0961829 0)
(71.5112 -0.0960722 0)
(68.0756 -0.0594431 0)
(57.6401 -0.0229281 0)
(57.4579 -0.0220193 0)
(67.9282 -0.0574322 0)
(71.3967 -0.0940642 0)
(71.2763 -0.0941892 0)
(67.7788 -0.0577586 0)
(57.2759 -0.0220843 0)
(57.0991 -0.0212081 0)
(67.6334 -0.0558005 0)
(71.1619 -0.092215 0)
(71.0414 -0.0925515 -5.21126e-19)
(67.4859 -0.0562816 0)
(56.9224 -0.0213433 0)
(56.7505 -0.0204917 0)
(67.3423 -0.0543612 0)
(70.9271 -0.0905959 0)
(70.8064 -0.0910846 0)
(67.1964 -0.0549611 0)
(56.5784 -0.0206813 0)
(56.4108 -0.0198614 0)
(67.0542 -0.0531036 0)
(70.692 -0.0892203 0)
(70.571 -0.0898703 0)
(66.9096 -0.0538283 0)
(56.2427 -0.0201076 0)
(56.0788 -0.0193042 0)
(66.7687 -0.0520003 0)
(70.4565 -0.0880423 0)
(70.335 -0.0888563 0)
(66.6251 -0.0528433 0)
(55.9142 -0.0196015 0)
(55.7536 -0.0188116 0)
(66.4851 -0.0510373 0)
(70.2201 -0.0870402 0)
(70.0981 -0.0879836 -5.21788e-19)
(66.3423 -0.051973 0)
(55.5921 -0.019149 0)
(55.4342 -0.018374 0)
(66.2031 -0.0501953 0)
(69.9828 -0.0862001 0)
(69.8601 -0.0872569 0)
(66.0609 -0.0512147 0)
(55.2755 -0.0187478 0)
(55.1201 -0.0179781 0)
(65.9222 -0.049447 0)
(69.7442 -0.0854843 0)
(69.6208 -0.0866268 0)
(65.7806 -0.0505312 0)
(54.9638 -0.01838 0)
(54.8107 -0.0176206 0)
(65.6422 -0.0487857 0)
(69.5043 -0.0849022 0)
(69.38 -0.0861536 0)
(65.5008 -0.0499515 0)
(54.6565 -0.0180572 0)
(54.5053 -0.0173005 0)
(65.3627 -0.0482109 0)
(69.2627 -0.084444 0)
(69.1374 -0.0858298 -5.22371e-19)
(65.2214 -0.0494665 0)
(54.3529 -0.0177729 0)
(54.2034 -0.0170189 0)
(65.0832 -0.0477267 0)
(69.0191 -0.0841085 0)
(68.8928 -0.085571 0)
(64.9419 -0.0490363 0)
(54.0526 -0.0175132 0)
(53.9046 -0.0167725 0)
(64.8036 -0.0473264 0)
(68.7735 -0.0839063 0)
(68.646 -0.0854604 0)
(64.6621 -0.0487076 0)
(53.7551 -0.0172968 0)
(53.6082 -0.0165554 0)
(64.5234 -0.046996 0)
(68.5255 -0.0838026 0)
(68.3968 -0.0854807 0)
(64.3815 -0.0484582 0)
(53.4597 -0.017111 0)
(53.3138 -0.0163723 0)
(64.2423 -0.0467485 0)
(68.2749 -0.0838157 0)
(68.1448 -0.0855927 0)
(64.0998 -0.0482735 0)
(53.1661 -0.0169521 0)
(53.0208 -0.0162233 0)
(63.96 -0.0465837 0)
(68.0216 -0.0839572 0)
(67.89 -0.0858186 0)
(63.8167 -0.0481677 0)
(52.8738 -0.0168269 0)
(52.7289 -0.0160988 0)
(63.6761 -0.0464764 0)
(67.7651 -0.0841839 0)
(67.632 -0.0860963 0)
(63.5319 -0.048099 0)
(52.5823 -0.0167175 0)
(52.4377 -0.0159961 0)
(63.3904 -0.0464238 0)
(67.5055 -0.0845114 0)
(67.3705 -0.0865412 0)
(63.2452 -0.0481265 0)
(52.2912 -0.0166465 0)
(52.1467 -0.0159194 0)
(63.1025 -0.0464342 0)
(67.2422 -0.0849247 0)
(67.1055 -0.0870205 0)
(62.9562 -0.048177 0)
(52.0002 -0.0165838 0)
(51.8557 -0.0158721 0)
(62.8123 -0.0465209 0)
(66.9752 -0.0854798 0)
(66.8365 -0.0876957 0)
(62.6646 -0.0483464 0)
(51.7089 -0.016569 0)
(51.5639 -0.0158515 0)
(62.5191 -0.0466749 0)
(66.704 -0.0861265 0)
(66.5632 -0.0884351 0)
(62.3699 -0.0485523 0)
(51.4167 -0.0165661 0)
(51.2712 -0.0158578 0)
(62.2228 -0.0469 0)
(66.4284 -0.0868964 0)
(66.2854 -0.0892597 0)
(62.0719 -0.048817 0)
(51.1233 -0.0165874 0)
(50.9771 -0.015886 0)
(61.923 -0.0471825 0)
(66.1481 -0.0877713 0)
(66.0027 -0.0902168 0)
(61.7702 -0.0491574 0)
(50.8284 -0.0166373 0)
(50.6811 -0.0159355 0)
(61.6193 -0.0475226 0)
(65.8628 -0.0887408 0)
(65.7149 -0.0912827 0)
(61.4645 -0.0495563 0)
(50.5314 -0.0167076 0)
(50.383 -0.0160132 0)
(61.3114 -0.047938 0)
(65.5721 -0.0898379 0)
(65.4216 -0.0924766 0)
(61.1543 -0.0500316 0)
(50.232 -0.0168066 0)
(50.0822 -0.0161185 0)
(60.9989 -0.0484282 0)
(65.2757 -0.0910584 0)
(65.1224 -0.0937895 0)
(60.8394 -0.0505777 0)
(49.9297 -0.0169311 0)
(49.7784 -0.0162491 0)
(60.6814 -0.0489891 0)
(64.9733 -0.0923973 0)
(64.8169 -0.0952199 0)
(60.5192 -0.0511925 0)
(49.6241 -0.01708 0)
(49.471 -0.0164039 0)
(60.3584 -0.049618 0)
(64.6644 -0.0938511 0)
(64.505 -0.0967607 0)
(60.1934 -0.0518712 0)
(49.3148 -0.017251 0)
(49.1596 -0.0165806 0)
(60.0297 -0.0503096 0)
(64.3488 -0.0954106 0)
(64.1861 -0.0984018 0)
(59.8616 -0.0526081 0)
(49.0014 -0.0174414 0)
(48.8441 -0.0167815 0)
(59.6948 -0.0510727 0)
(64.0262 -0.0970918 0)
(63.86 -0.100214 0)
(59.5235 -0.0534403 0)
(48.6835 -0.0176649 0)
(48.5237 -0.0170075 0)
(59.3532 -0.0519079 0)
(63.696 -0.0988908 0)
(63.5262 -0.102062 0)
(59.1786 -0.0542926 0)
(48.3606 -0.017893 0)
(48.1982 -0.0172547 0)
(59.0048 -0.0528014 0)
(63.3581 -0.100778 0)
(63.1845 -0.104005 0)
(58.8266 -0.055211 0)
(48.0325 -0.018143 0)
(47.8673 -0.0175265 0)
(58.6491 -0.0537679 0)
(63.0119 -0.102733 0)
(62.8344 -0.106131 0)
(58.4671 -0.0562484 0)
(47.6986 -0.0184335 0)
(47.5305 -0.0178103 0)
(58.2856 -0.0547891 0)
(62.6575 -0.104904 0)
(62.4757 -0.108343 0)
(58.0996 -0.0573068 0)
(47.3587 -0.0187352 0)
(47.1874 -0.0181252 0)
(57.9141 -0.0558736 0)
(62.2944 -0.107208 0)
(62.108 -0.110696 0)
(57.7238 -0.0584395 0)
(47.0122 -0.0190674 0)
(46.8375 -0.0184589 0)
(57.534 -0.0570153 0)
(61.9219 -0.109625 0)
(61.7307 -0.113212 0)
(57.3393 -0.0596456 0)
(46.6589 -0.0194225 0)
(46.4806 -0.0188219 0)
(57.1449 -0.0582412 0)
(61.5397 -0.112202 0)
(61.3433 -0.115868 0)
(56.9456 -0.0609259 0)
(46.2982 -0.0198016 0)
(46.1161 -0.019209 0)
(56.7463 -0.0595429 0)
(61.147 -0.11492 0)
(60.9453 -0.118667 0)
(56.542 -0.0622831 0)
(45.9297 -0.0202048 0)
(45.7435 -0.0196207 0)
(56.3377 -0.0609224 0)
(60.7435 -0.11778 0)
(60.5363 -0.121608 0)
(56.1282 -0.0637165 0)
(45.5529 -0.0206319 0)
(45.3624 -0.0200569 0)
(55.9186 -0.0623784 0)
(60.3287 -0.120783 0)
(60.1157 -0.12469 0)
(55.7036 -0.0652259 0)
(45.1674 -0.021083 0)
(44.9724 -0.0205176 0)
(55.4884 -0.0639114 0)
(59.9022 -0.123928 0)
(59.6831 -0.127917 0)
(55.2678 -0.0668127 0)
(44.7728 -0.0215585 0)
(44.5731 -0.0210036 0)
(55.0468 -0.0655234 0)
(59.4634 -0.12722 0)
(59.238 -0.131293 0)
(54.8203 -0.0684794 0)
(44.3685 -0.0220593 0)
(44.1638 -0.0215154 0)
(54.5932 -0.0672168 0)
(59.0118 -0.130666 0)
(58.7799 -0.134824 0)
(54.3605 -0.0702281 0)
(43.9541 -0.0225858 0)
(43.7442 -0.0220536 0)
(54.1271 -0.0689938 0)
(58.547 -0.134269 0)
(58.3082 -0.138514 0)
(53.8879 -0.0720619 0)
(43.5291 -0.0231389 0)
(43.3138 -0.0226204 0)
(53.6479 -0.070862 0)
(58.0683 -0.138044 0)
(57.8223 -0.142423 0)
(53.4019 -0.0740101 0)
(43.093 -0.0237296 0)
(42.8719 -0.0232147 0)
(53.155 -0.0728223 0)
(57.5751 -0.141988 0)
(57.3218 -0.146467 0)
(52.9019 -0.0760252 0)
(42.6452 -0.0243376 0)
(42.4181 -0.0238361 0)
(52.6478 -0.0748685 0)
(57.067 -0.1461 0)
(56.806 -0.150638 0)
(52.3874 -0.0781118 0)
(42.1853 -0.0249675 0)
(41.952 -0.024475 0)
(52.126 -0.0769785 0)
(56.5435 -0.15034 0)
(56.2746 -0.154956 0)
(51.858 -0.0802717 0)
(41.7128 -0.0256185 0)
(41.4731 -0.0251356 0)
(51.5889 -0.079162 0)
(56.0039 -0.154727 0)
(55.7269 -0.159417 0)
(51.3132 -0.0825033 0)
(41.2274 -0.0262901 0)
(40.9811 -0.0258172 0)
(51.0361 -0.0814179 0)
(55.4478 -0.159256 0)
(55.1623 -0.164023 0)
(50.7523 -0.084809 0)
(40.7287 -0.0269828 0)
(40.4756 -0.026521 0)
(50.4671 -0.0837502 0)
(54.8747 -0.163933 0)
(54.5804 -0.168779 0)
(50.1751 -0.0871922 0)
(40.2162 -0.0276977 0)
(39.9561 -0.0272479 0)
(49.8814 -0.0861616 0)
(54.2839 -0.168763 0)
(53.9807 -0.173689 0)
(49.5808 -0.0896556 0)
(39.6895 -0.0284361 0)
(39.4221 -0.0279981 0)
(49.2785 -0.0886531 0)
(53.6749 -0.173746 0)
(53.3625 -0.178749 0)
(48.969 -0.0921978 0)
(39.1481 -0.0291973 0)
(38.8733 -0.0287685 0)
(48.6578 -0.091215 0)
(53.0473 -0.178865 0)
(52.7253 -0.18389 0)
(48.3392 -0.0947821 0)
(38.5917 -0.0299673 0)
(38.3092 -0.0295592 0)
(48.0189 -0.0938448 0)
(52.4005 -0.184122 0)
(52.0688 -0.189192 0)
(47.691 -0.097457 0)
(38.0199 -0.0307667 0)
(37.7296 -0.0303663 0)
(47.3613 -0.0965406 0)
(51.734 -0.189494 0)
(51.3923 -0.194693 0)
(47.0239 -0.100232 0)
(37.4322 -0.0315946 0)
(37.1339 -0.0311918 0)
(46.6845 -0.0993095 0)
(51.0473 -0.194994 0)
(50.6954 -0.200259 0)
(46.3374 -0.103035 0)
(36.8283 -0.0324227 0)
(36.5219 -0.0320273 0)
(45.9883 -0.102123 0)
(50.3401 -0.200592 0)
(49.9779 -0.205856 0)
(45.6313 -0.105858 0)
(36.2081 -0.033253 0)
(35.8935 -0.0328543 0)
(45.2724 -0.104933 0)
(49.6123 -0.206194 0)
(49.2397 -0.21146 0)
(44.9056 -0.108679 0)
(35.5715 -0.0340759 0)
(35.2488 -0.0336725 0)
(44.5369 -0.107735 0)
(48.8637 -0.211788 0)
(48.4808 -0.21704 0)
(44.1603 -0.111482 0)
(34.9186 -0.0348866 0)
(34.5879 -0.0344754 0)
(43.7819 -0.110511 0)
(48.0944 -0.21734 0)
(47.7012 -0.222562 0)
(43.3955 -0.114251 0)
(34.2498 -0.035679 0)
(33.9112 -0.0352543 0)
(43.0074 -0.113235 0)
(47.3044 -0.222803 0)
(46.901 -0.227926 0)
(42.6115 -0.116933 0)
(33.5653 -0.0364334 0)
(33.2192 -0.0360113 0)
(42.214 -0.115906 0)
(46.4941 -0.228175 0)
(46.0805 -0.233244 0)
(41.8087 -0.1196 0)
(32.8656 -0.0371826 0)
(32.512 -0.0367214 0)
(41.4019 -0.118478 0)
(45.6635 -0.233342 0)
(45.24 -0.238399 0)
(40.9874 -0.122162 0)
(32.1511 -0.0378819 0)
(31.7905 -0.0374079 0)
(40.5717 -0.120988 0)
(44.8133 -0.238408 0)
(44.3802 -0.243342 0)
(40.1483 -0.124616 0)
(31.4226 -0.0385457 0)
(31.0551 -0.0380446 0)
(39.724 -0.123372 0)
(43.9441 -0.243237 0)
(43.5018 -0.24812 0)
(39.2921 -0.126987 0)
(30.6806 -0.0391816 0)
(30.3065 -0.0386917 0)
(38.8595 -0.125777 0)
(43.0565 -0.248054 0)
(42.6052 -0.253358 0)
(38.4192 -0.129909 0)
(29.9255 -0.0402068 0)
(29.5403 -0.04078 0)
(37.9781 -0.129569 0)
(42.1515 -0.254049 0)
(41.6926 -0.259776 0)
(37.5292 -0.134104 0)
(29.1423 -0.0429373 0)
(28.7423 -0.0433031 0)
(37.0797 -0.133578 0)
(41.2316 -0.260376 0)
(40.7655 -0.265658 0)
(36.6223 -0.137804 0)
(28.3306 -0.0450636 0)
(27.9183 -0.0450565 0)
(36.1646 -0.136942 0)
(40.2975 -0.265775 0)
(39.8246 -0.270655 0)
(35.6994 -0.140908 0)
(27.4958 -0.0465146 0)
(27.0742 -0.0461863 0)
(35.2346 -0.139609 0)
(39.3504 -0.270103 0)
(38.872 -0.274435 0)
(34.763 -0.143201 0)
(26.644 -0.0473867 0)
(26.2163 -0.0468448 0)
(34.2926 -0.14153 0)
(38.3927 -0.273316 0)
(37.9099 -0.276853 0)
(33.8163 -0.144661 0)
(25.7812 -0.0478053 0)
(25.3503 -0.0470173 0)
(33.3426 -0.142481 0)
(37.4272 -0.274946 0)
(36.9417 -0.277851 0)
(32.8638 -0.145219 0)
(24.9135 -0.0477929 0)
(24.4826 -0.0467561 0)
(32.3889 -0.14247 0)
(36.4574 -0.275033 0)
(35.9714 -0.277274 0)
(31.9101 -0.144776 0)
(24.0474 -0.0473562 0)
(23.6196 -0.0461156 0)
(31.4367 -0.141501 0)
(35.4878 -0.273567 0)
(35.0034 -0.2749 0)
(30.9606 -0.143284 0)
(23.189 -0.0465191 0)
(22.7677 -0.0450474 0)
(30.4915 -0.139409 0)
(34.5229 -0.270163 0)
(34.043 -0.270581 0)
(30.0214 -0.140677 0)
(22.3452 -0.0452662 0)
(21.9339 -0.0435701 0)
(29.5599 -0.1362 0)
(33.5684 -0.264789 0)
(33.0956 -0.264276 0)
(29.0987 -0.136945 0)
(21.523 -0.0436083 0)
(21.1251 -0.0416931 0)
(28.6482 -0.131866 0)
(32.6298 -0.257411 0)
(32.167 -0.255982 0)
(28.1994 -0.132101 0)
(20.7292 -0.0415635 0)
(20.3481 -0.0394409 0)
(27.763 -0.126435 0)
(31.7131 -0.248055 0)
(31.2634 -0.245745 0)
(27.3299 -0.126187 0)
(19.9705 -0.0391619 0)
(19.6092 -0.0368497 0)
(26.9109 -0.119967 0)
(30.8243 -0.236792 0)
(30.3906 -0.23366 0)
(26.4966 -0.119273 0)
(19.2529 -0.0364431 0)
(18.9144 -0.0339662 0)
(26.0983 -0.112548 0)
(29.9693 -0.223743 0)
(29.5545 -0.219874 0)
(25.7058 -0.11146 0)
(18.5821 -0.0334576 0)
(18.2689 -0.0308412 0)
(25.3308 -0.104289 0)
(29.1537 -0.209076 0)
(28.7606 -0.204522 0)
(24.9629 -0.102844 0)
(17.9628 -0.0302465 0)
(17.677 -0.0275636 0)
(24.614 -0.0954043 0)
(28.383 -0.193111 0)
(28.0134 -0.188027 5.35679e-19)
(24.2725 -0.0937172 0)
(17.3986 -0.0269251 0)
(17.1413 -0.0241943 0)
(23.9513 -0.0860655 0)
(27.6609 -0.1761 0)
(27.3172 -0.170933 0)
(23.6383 -0.0843444 0)
(16.8919 -0.0235948 0)
(16.6636 -0.0208418 0)
(23.346 -0.0765715 0)
(26.9915 -0.158717 0)
(26.675 -0.153179 0)
(23.0624 -0.0750202 0)
(16.4433 -0.0202186 0)
(16.244 -0.017434 0)
(22.7997 -0.0673002 0)
(26.3772 -0.140703 5.36179e-19)
(26.0888 -0.135522 0)
(22.5459 -0.0656638 0)
(16.0525 -0.0169397 0)
(15.8814 -0.0142964 0)
(22.3131 -0.05803 0)
(25.8194 -0.12323 5.36342e-19)
(25.5592 -0.118286 0)
(22.0889 -0.0565064 0)
(15.7177 -0.0139227 0)
(15.5737 -0.0113891 0)
(21.8853 -0.0490771 0)
(25.3183 -0.106239 5.3649e-19)
(25.086 -0.101784 0)
(21.6898 -0.0478309 0)
(15.4363 -0.0111617 0)
(15.3176 -0.00876314 0)
(21.5144 -0.0407324 0)
(24.8729 -0.0901518 5.36623e-19)
(24.6676 -0.0863681 0)
(21.3461 -0.0398592 0)
(15.2043 -0.00870629 0)
(15.1085 -0.00643456 0)
(21.197 -0.0330998 0)
(24.4812 -0.0752017 5.36742e-19)
(24.3018 -0.0721448 0)
(21.0542 -0.0326085 0)
(15.017 -0.00654709 0)
(14.9417 -0.00443515 0)
(20.9295 -0.0262999 0)
(24.1407 -0.0616152 5.36848e-19)
(23.9855 -0.0592532 0)
(20.8101 -0.0261629 0)
(14.8695 -0.00469134 0)
(14.812 -0.00272901 0)
(20.7075 -0.0203263 0)
(23.8479 -0.0493605 5.36942e-19)
(23.7151 -0.0479932 0)
(20.6091 -0.0203998 0)
(14.7567 -0.0031745 0)
(14.7144 -0.00137038 0)
(20.5263 -0.0150938 0)
(23.5984 -0.0389794 0)
(23.4858 -0.0381047 0)
(20.4464 -0.015602 0)
(14.6731 -0.0019323 0)
(14.6434 -0.000348183 0)
(20.3804 -0.0111691 0)
(23.3879 -0.0298017 0)
(23.2925 -0.0297423 0)
(20.3158 -0.0120551 0)
(14.6129 -0.00103542 0)
(14.5929 0.000397181 0)
(20.2648 -0.00762617 0)
(23.214 -0.0225273 0)
(23.1325 -0.0232691 0)
(20.2133 -0.00908383 0)
(14.5711 -0.000494752 0)
(14.5582 0.000745357 0)
(20.1741 -0.00500806 0)
(23.0692 -0.0169634 0)
(22.9987 -0.0185371 0)
(20.1327 -0.00694424 0)
(14.5425 -0.000242673 0)
(14.5342 0.000800082 0)
(20.1021 -0.00333489 0)
(22.9468 -0.0131865 0)
(22.8849 -0.0156181 0)
(20.0678 -0.00573068 0)
(14.5218 -0.000290309 0)
(14.5151 0.000565943 0)
(20.0427 -0.00264979 0)
(22.841 -0.0112478 0)
(22.7849 -0.0146162 0)
(20.0122 -0.00552796 0)
(14.5029 -0.000667159 0)
(14.4947 -8.00646e-06 0)
(19.9891 -0.00304366 0)
(22.7455 -0.0113331 0)
(22.6923 -0.0157067 0)
(19.9589 -0.00634012 0)
(14.479 -0.00134199 0)
(14.4684 -0.000525974 0)
(19.9357 -0.00381018 0)
(22.6539 -0.0136175 0)
(22.5899 -0.0176386 0)
(19.8957 -0.00830373 0)
(14.4445 -0.00353957 -9.76465e-20)
(14.4246 -0.000406077 -4.73533e-24)
(19.8725 -0.00806334 0)
(22.5456 -0.0201551 0)
(22.4803 -0.0258446 1.35993e-19)
(19.8241 -0.0131002 -1.62867e-19)
(14.3909 -0.0037435 9.90276e-20)
(14.3552 -0.00347767 0)
(19.7746 -0.013961 1.64185e-19)
(22.4282 -0.0286845 -1.36634e-19)
(22.3482 -0.0390142 1.4392e-18)
(19.7093 -0.0216805 -3.5134e-19)
(14.3036 -0.00957844 0)
(14.227 -0.00972518 0)
(19.6367 -0.0216031 3.60322e-19)
(22.2747 -0.0380926 -3.02036e-19)
(22.2641 -0.0297715 3.38339e-19)
(19.6075 -0.0136776 -2.05184e-18)
(14.1745 -0.00305518 -1.00729e-18)
(14.254 -0.00315786 7.49814e-19)
(19.6584 -0.00207596 -3.34193e-18)
(22.3437 -0.036202 1.41998e-18)
(22.3595 -0.0456669 -1.50529e-18)
(19.6774 -0.0147321 2.70045e-18)
(14.3299 0.0138043 -8.11897e-19)
(25.2851 -0.0963925 0)
(27.3518 -0.213413 5.61044e-19)
(28.8427 -0.375482 -2.48863e-18)
(29.7477 -0.512289 -2.11383e-18)
(30.2803 -0.532711 0)
(31.3459 -0.638721 -5.21877e-19)
(31.9246 -0.742789 1.75617e-23)
(32.6237 -0.844026 -6.52328e-20)
(33.0777 -0.937077 6.49561e-20)
(33.575 -1.02453 0)
(33.9335 -1.1028 1.6124e-20)
(34.3161 -1.1756 -1.60365e-20)
(34.6104 -1.24062 0)
(34.9199 -1.29955 0)
(35.1693 -1.35166 0)
(35.4294 -1.39697 0)
(35.6468 -1.43597 0)
(35.8731 -1.46791 0)
(36.0681 -1.49382 -4.92496e-19)
(36.2716 -1.51305 0)
(36.4511 -1.52647 0)
(36.6392 -1.53356 0)
(36.8084 -1.53503 0)
(36.987 -1.53065 0)
(37.15 -1.52095 0)
(37.3232 -1.50604 0)
(37.4831 -1.48612 0)
(37.6541 -1.46161 0)
(37.8134 -1.43224 0)
(37.985 -1.39896 0)
(38.1453 -1.36094 4.71924e-19)
(38.3198 -1.3195 -4.80137e-19)
(38.4828 -1.27368 6.67861e-20)
(38.6616 -1.22486 6.5869e-19)
(38.8273 -1.1724 -2.43156e-19)
(39.0092 -1.11754 -4.95026e-19)
(39.174 -1.061 1.02574e-18)
(39.3511 -1.00399 -1.31471e-19)
(39.4981 -0.947378 0)
(39.6557 -0.87885 1.98838e-17)
(39.7918 -0.828971 -3.9693e-17)
(39.9144 -0.78072 1.0161e-17)
(40.0362 -0.729588 0)
(40.1527 -0.679202 0)
(40.2593 -0.629766 -3.79003e-19)
(40.355 -0.580119 0)
(40.4389 -0.529262 5.09496e-20)
(40.5089 -0.476374 -5.15857e-20)
(40.5575 -0.421095 0)
(40.5748 -0.362031 4.21248e-19)
(40.5361 -0.300832 -9.05938e-19)
(40.4054 -0.235299 8.98523e-19)
(40.0805 -0.170857 -4.16378e-18)
(39.3799 -0.113511 2.61259e-18)
(37.4085 -0.0630448 -1.42469e-18)
(34.6337 -0.0403542 0)
(26.2877 -0.0381749 2.61132e-19)
(26.0596 -0.00478741 -1.20029e-18)
(34.4644 -0.0387492 -2.39942e-18)
(37.2528 -0.0535709 5.8988e-24)
(37.1121 -0.0467863 0)
(34.308 -0.0194531 0)
(25.8583 -0.00589372 0)
(25.8949 0.00587637 0)
(34.267 -0.00644414 -6.76656e-19)
(37.0551 -0.0313933 0)
(37.0348 -0.0185322 0)
(34.2737 -0.00195152 6.53783e-19)
(25.963 0.00541388 0)
(25.9991 0.00579434 0)
(34.2794 0.00126626 6.11193e-19)
(37.0081 -0.0109557 -8.6393e-25)
(36.9707 -0.00715343 0)
(34.2648 0.00324887 -7.57118e-20)
(26.0231 0.00679498 2.76873e-19)
(26.0488 0.0072921 8.80745e-24)
(34.249 0.0055161 0)
(36.9314 -0.00346447 0)
(36.8908 -0.00178552 0)
(34.2307 0.00750536 0)
(26.0773 0.00787269 -1.8222e-19)
(26.1124 0.00774893 0)
(34.2159 0.00876136 0)
(36.8541 0.000249608 0)
(36.8173 0.00170236 0)
(34.2026 0.0100599 0)
(26.1497 0.00811104 0)
(26.1912 0.00841672 0)
(34.1905 0.011167 2.97931e-19)
(36.7818 0.00281003 0)
(36.7472 0.00384198 0)
(34.1799 0.0118913 1.37785e-23)
(26.2355 0.00875702 0)
(26.2818 0.00925199 0)
(34.1704 0.0121655 -2.99026e-19)
(36.7132 0.00469471 0)
(36.6797 0.00543759 0)
(34.1615 0.0123972 0)
(26.3289 0.00967145 0)
(26.3783 0.00993408 0)
(34.1533 0.0127764 0)
(36.6459 0.00584578 0)
(36.6121 0.00602543 0)
(34.1446 0.0131069 0)
(26.4287 0.0100961 0)
(26.4804 0.0101819 0)
(34.1361 0.0134437 0)
(36.5773 0.00597666 0)
(36.5421 0.0057052 0)
(34.1267 0.0138078 0)
(26.5325 0.0102159 0)
(26.5863 0.0103243 0)
(34.1168 0.0138988 0)
(36.5056 0.00539469 0)
(36.4681 0.00498759 0)
(34.1061 0.013918 0)
(26.6388 0.0104341 0)
(26.6932 0.0105376 0)
(34.0943 0.0138551 0)
(36.4292 0.00443501 0)
(36.3888 0.00378277 0)
(34.0813 0.0137492 0)
(26.7459 0.01061 0)
(26.8002 0.0106636 0)
(34.0668 0.0135676 0)
(36.3465 0.00300413 0)
(36.3025 0.00214858 0)
(34.0507 0.0133572 0)
(26.8525 0.0106867 0)
(26.9061 0.0106798 0)
(34.0329 0.0130894 0)
(36.2563 0.00117611 0)
(36.208 0.000188153 0)
(34.0132 0.0128976 0)
(26.9574 0.0106551 0)
(27.0098 0.0105897 0)
(33.9915 0.0126284 2.97903e-19)
(36.157 -0.000930275 0)
(36.104 -0.00215448 0)
(33.9679 0.0120283 -2.98425e-19)
(27.0608 0.0106556 0)
(27.1099 0.010626 0)
(33.9419 0.0117372 2.97226e-19)
(36.0484 -0.00329839 0)
(35.9899 -0.0044845 0)
(33.9138 0.0114504 -2.97744e-19)
(27.1597 0.0106054 0)
(27.2084 0.0107769 0)
(33.8835 0.0108394 0)
(35.9289 -0.00564399 0)
(35.8654 -0.00668745 0)
(33.8509 0.0104796 0)
(27.2554 0.0108668 0)
(27.3032 0.0110592 0)
(33.8164 0.0101166 0)
(35.7989 -0.00758359 0)
(35.7301 -0.00815487 0)
(33.78 0.00972647 0)
(27.3497 0.0113424 0)
(27.397 0.0115445 0)
(33.7423 0.0097753 0)
(35.6586 -0.00873005 0)
(35.585 -0.00900097 0)
(33.7028 0.0101152 0)
(27.4451 0.0118426 0)
(27.495 0.0122749 0)
(33.6631 0.0108213 0)
(35.5091 -0.00885506 0)
(35.4318 -0.00823499 0)
(33.6228 0.0120362 0)
(27.5476 0.0129277 0)
(27.6051 0.0139147 0)
(33.5837 0.0138543 0)
(35.3537 -0.00644012 0)
(35.275 -0.00340065 0)
(33.5467 0.0164826 0)
(27.6695 0.0153514 0)
(27.7443 0.0174306 0)
(33.5138 0.0201357 0)
(35.1973 0.00127559 0)
(35.1218 0.00844732 0)
(33.4867 0.025303 0)
(27.8329 0.020595 0)
(27.94 0.0256662 0)
(33.468 0.032674 0)
(35.0503 0.0191351 0)
(34.9878 0.0344619 0)
(33.4641 0.0417054 0)
(28.0755 0.0335491 0)
(28.2643 0.0464114 0)
(33.4927 0.0514383 0)
(34.9451 0.0576178 0)
(34.9343 0.108214 2.46366e-19)
(33.5718 0.0788123 0)
(28.5441 0.0818983 0)
(28.8731 0.204883 -1.4605e-18)
(33.6698 0.194395 1.49665e-18)
(34.9305 0.231643 0)
(34.8797 0.435911 -5.16985e-23)
(33.7163 0.400237 -2.70298e-18)
(29.1594 0.414937 -1.83216e-19)
(29.2884 0.732635 -5.67929e-18)
(33.6338 0.725734 9.59934e-18)
(34.7243 0.72137 -4.2009e-18)
(34.4513 1.00785 -7.70501e-18)
(33.4049 1.03433 4.52667e-18)
(29.2443 1.02715 0)
(29.0789 1.33402 1.1763e-17)
(33.0627 1.35509 -9.30915e-18)
(34.0774 1.29243 0)
(33.6306 1.51989 0)
(32.6373 1.59734 0)
(28.8176 1.56127 0)
(28.5955 1.73498 -1.02675e-17)
(32.2091 1.77096 9.54814e-18)
(33.1668 1.69437 7.79961e-18)
(32.6784 1.86571 7.53812e-18)
(31.7834 1.93821 -9.44857e-18)
(28.4251 1.90949 1.48331e-18)
(28.1857 2.10013 -2.49342e-17)
(31.3105 2.15871 1.66539e-17)
(32.1298 2.07702 0)
(31.384 2.14352 9.11205e-17)
(30.6679 2.25184 0)
(27.8488 2.14438 1.97024e-18)
(24.2443 1.67742 -2.55856e-18)
(29.1178 2.18595 4.57287e-18)
(30.5187 2.3869 -4.1738e-18)
(30.4396 2.42953 1.35623e-18)
(29.2866 2.60732 0)
(25.4339 2.42255 0)
(25.1986 2.43853 -9.21177e-19)
(28.9088 2.71272 -3.73168e-19)
(29.8897 2.63561 -1.81388e-18)
(29.2686 2.7269 1.9397e-17)
(28.3823 2.83989 -2.25257e-17)
(25.1176 2.6226 2.93185e-17)
(24.7855 2.78288 -2.68422e-17)
(27.7743 2.97117 -2.1643e-17)
(28.5806 2.82707 1.74516e-17)
(27.8319 2.85672 -8.70317e-22)
(27.0924 3.01469 2.11902e-17)
(24.3902 2.8768 -6.16173e-19)
(23.9968 2.97377 7.82294e-19)
(26.4035 3.04448 -2.15539e-17)
(27.0544 2.87095 -2.06191e-18)
(26.1597 2.8969 -1.35398e-17)
(25.599 3.11165 -1.82421e-17)
(23.4772 3.12348 2.45339e-17)
(22.7974 3.2867 -4.53166e-17)
(24.6526 3.20819 3.47009e-22)
(25.108 2.9343 2.53597e-17)
(23.794 2.80679 1.39535e-21)
(23.4574 3.13674 1.08447e-16)
(21.9665 3.27355 0)
(19.154 2.68407 -4.36728e-17)
(22.0369 3.13365 3.29966e-17)
(22.7964 3.18654 0)
(21.9355 2.97648 -2.16465e-17)
(21.2925 3.31894 2.839e-17)
(19.3744 3.23125 1.04271e-18)
(18.2975 3.1777 0)
(20.029 3.19513 0)
(20.5932 2.81615 0)
(19.0593 2.50117 -1.55226e-17)
(18.554 2.97985 4.442e-17)
(17.1484 3.11643 1.93158e-21)
(15.6795 3.00253 3.33376e-18)
(16.826 2.67538 -4.68246e-17)
(17.2736 2.06107 -2.03896e-18)
(15.1395 1.55741 0)
(14.8245 2.42155 4.49065e-18)
(13.9769 3.00135 -5.15145e-17)
(11.8401 2.59408 -1.39924e-16)
(12.1043 1.82034 5.70489e-17)
(12.2659 0.920428 9.73118e-17)
(10.5194 1.19257 0)
(10.0043 1.79322 0)
(8.81465 2.05681 9.21797e-17)
(6.39223 1.37865 -7.08477e-17)
(7.17496 0.818344 5.44149e-17)
(7.83004 -0.113868 2.11828e-17)
(5.04165 -2.27123 3.83143e-17)
(4.59606 -0.683754 1.71971e-20)
(4.07874 0.589652 -5.89152e-17)
(-1.57746 -1.25289 7.82465e-17)
(-1.50139 -2.73796 -6.58564e-17)
(-0.855404 -4.41665 1.00235e-16)
(-3.88251 -5.41013 2.65203e-17)
(-5.00439 -4.16826 4.04263e-17)
(-5.76047 -3.30658 -9.1591e-17)
(-12.1426 -7.47153 -1.40878e-16)
(-10.6936 -9.47036 -1.1877e-17)
(-8.99977 -11.67 1.41463e-16)
(-17.2538 -19.7555 0)
(-18.9149 -17.1368 1.52355e-16)
(-20.0963 -13.8384 -1.62604e-16)
(-29.9176 -31.2258 -1.74416e-16)
(-25.0955 -33.1737 1.25954e-16)
(-20.0206 -35.5274 -1.31144e-17)
(-19.1301 -64.6686 9.69829e-18)
(-24.1876 -64.5169 1.04572e-16)
(-31.7961 -64.6508 0)
(-1.45368 -96.7978 6.61716e-20)
(8.58928 -91.3669 -1.00464e-17)
(5.03784 -89.2481 -3.56261e-18)
(38.5405 -91.039 -5.06695e-18)
(47.7614 -87.8644 0)
(37.5712 -91.7346 7.78036e-17)
(55.498 -70.6057 -1.12496e-16)
(64.7969 -72.6349 7.67061e-17)
(59.9418 -77.8177 -1.19639e-16)
(65.1561 -60.1143 1.32334e-16)
(65.8652 -55.0716 -1.59439e-16)
(55.1959 -54.0841 2.29127e-16)
(48.3462 -40.3549 0)
(60.8817 -42.0833 4.76354e-18)
(63.1939 -47.2543 -4.02401e-18)
(63.1309 -46.1222 9.93937e-18)
(59.8525 -39.9531 5.98859e-17)
(48.4567 -32.5285 -1.62207e-16)
(45.4443 -27.7342 0)
(56.6141 -33.8485 3.00768e-18)
(61.059 -38.6004 -8.81282e-18)
(57.3588 -31.7414 0)
(51.4189 -28.6446 7.62961e-17)
(40.4236 -24.1752 -9.63015e-17)
(44.0373 -23.3957 4.31001e-20)
(54.0709 -30.3593 8.12952e-17)
(58.9904 -34.8935 -1.0714e-16)
(56.8419 -30.5674 7.29468e-17)
(51.3861 -27.0684 -1.20481e-17)
(41.693 -21.5705 0)
(37.8975 -18.1087 -2.95669e-18)
(47.3336 -23.7059 5.08387e-18)
(52.8055 -26.9582 -2.17788e-17)
(55.7311 -29.3359 -1.06611e-16)
(51.0395 -26.2286 -4.01099e-18)
(41.5065 -20.625 -7.67384e-17)
(40.179 -19.3576 -2.03182e-18)
(49.1476 -24.2058 0)
(53.9216 -27.1233 -6.75898e-17)
(50.8644 -23.4829 -4.34466e-18)
(45.2851 -21.9214 8.44152e-17)
(36.3056 -18.3867 -9.32983e-17)
(40.9018 -19.2841 2.42191e-18)
(49.1103 -24.1775 -3.97459e-18)
(53.3597 -26.9248 1.06544e-16)
(52.1066 -25.3545 0)
(47.5504 -23.05 2.92534e-18)