/*--------------------------------*- C++ -*----------------------------------*\
| =========                 |                                                 |
| \\      /  F ield         | OpenFOAM: The Open Source CFD Toolbox           |
|  \\    /   O peration     | Version:  v2006                                 |
|   \\  /    A nd           | Website:  www.openfoam.com                      |
|    \\/     M anipulation  |                                                 |
\*---------------------------------------------------------------------------*/
FoamFile
{
    version     2.0;
    format      ascii;
    class       volScalarField;
    location    "0.006";
    object      isentropic(p);
}
// * * * * * * * * * * * * * * * * * * * * * * * * * * * * * * * * * * * * * //

dimensions      [1 -1 -2 0 0 0 0];


internalField   nonuniform List<scalar> 
11076
(
150004
150004
150030
150029
150023
150019
150017
150015
150014
150013
150012
150012
150011
150010
150010
150009
150009
150009
150009
150008
150008
150008
150008
150008
150009
150009
150009
150009
150009
150009
150009
150009
150009
150009
150009
150009
150009
150009
150009
150009
150009
150009
150009
150009
150009
150009
150009
150008
150008
150008
150008
150008
150007
150007
150007
150006
150005
150004
150003
150002
150002
150004
150007
150010
150008
150009
150010
150011
150017
150026
150024
149970
149914
150018
150033
150032
150007
149863
149813
149994
150027
150020
149979
149768
149726
149963
150012
150003
149947
149689
149656
149933
149996
149988
149919
149626
149600
149906
149981
149974
149893
149577
149556
149882
149968
149962
149872
149537
149520
149863
149957
149953
149854
149504
149491
149847
149949
149945
149839
149477
149466
149833
149943
149940
149827
149456
149447
149822
149938
149936
149818
149439
149433
149814
149935
149934
149811
149428
149425
149808
149934
149934
149806
149423
149423
149805
149935
149935
149804
149423
149424
149804
149937
149938
149804
149426
149430
149805
149940
149942
149807
149433
149438
149809
149945
149947
149811
149443
149448
149813
149950
149953
149816
149454
149461
149820
149957
149961
149823
149468
149475
149827
149966
149969
149831
149483
149491
149836
149975
149979
149841
149500
149509
149846
149985
149989
149851
149518
149528
149857
149995
150000
149862
149538
149549
149868
150007
150012
149874
149560
149571
149881
150018
150023
149887
149582
149595
149894
150030
150035
149900
149607
149619
149906
150041
150046
149913
149631
149644
149919
150052
150056
149925
149657
149670
149931
150061
150065
149936
149682
149695
149942
150070
150073
149947
149708
149721
149952
150077
150079
149956
149734
149747
149961
150082
150084
149965
149760
149774
149968
150086
150086
149971
149787
149801
149974
150086
150085
149976
149814
149828
149977
150083
150080
149977
149842
149856
149976
150075
150067
149973
149869
149884
149969
150056
150041
149962
149904
149916
149940
150011
149972
149924
149934
149946
149934
149935
149909
149935
149949
149966
149950
149912
149931
149973
149988
150009
149998
149961
149990
150018
150020
150024
150032
150012
150024
150037
150021
150024
150042
150033
150037
150045
150027
150035
150054
150047
150049
150056
150040
150051
150066
150059
150064
150071
150059
150074
150083
150076
150082
150089
150083
150094
150098
150092
150099
150104
150102
150109
150109
150106
150110
150111
150111
150110
150109
150109
150107
150108
150108
150106
150106
150104
150099
150102
150101
150094
150097
150093
150087
150092
150088
150079
150085
150079
150073
150079
150072
150063
150071
150065
150056
150064
150057
150051
150055
150046
150035
150048
150046
150038
150040
150021
150009
150030
150026
150007
150014
149993
149978
149997
149990
149975
149979
149962
149948
149960
149962
149948
149941
149938
149927
149921
149928
149907
149905
149916
149904
149889
149885
149864
149873
149890
149876
149857
149843
149823
149839
149860
149843
149822
149802
149781
149803
149826
149807
149784
149760
149738
149764
149788
149768
149743
149716
149693
149722
149747
149726
149700
149670
149646
149678
149704
149681
149654
149622
149598
149631
149657
149633
149606
149573
149547
149581
149608
149583
149556
149521
149495
149530
149558
149531
149503
149468
149440
149476
149505
149478
149449
149413
149385
149421
149450
149423
149393
149357
149328
149365
149395
149366
149336
149299
149270
149307
149338
149309
149278
149240
149210
149248
149280
149250
149219
149181
149151
149189
149221
149193
149160
149122
149093
149132
149165
149140
149107
149067
149045
149085
149118
149098
149065
149024
149144
149156
149172
149181
149187
149194
149197
149203
149207
149215
149221
149232
149240
149250
149254
149238
149212
149166
149147
149136
149127
149118
149103
149086
149048
149032
149014
149022
149039
149055
149064
149048
149031
149041
149057
149074
149086
149069
149053
149066
149081
149098
149114
149095
149080
149094
149108
149127
149144
149124
149110
149124
149138
149158
149175
149154
149139
149153
149168
149189
149206
149184
149169
149183
149198
149220
149236
149214
149198
149212
149228
149250
149267
149244
149227
149241
149258
149281
149297
149274
149255
149269
149287
149310
149326
149303
149284
149297
149316
149340
149355
149331
149311
149324
149345
149368
149384
149360
149339
149351
149373
149397
149412
149388
149366
149378
149400
149425
149440
149415
149392
149404
149427
149453
149467
149442
149418
149430
149454
149480
149494
149468
149443
149455
149480
149506
149521
149494
149468
149479
149505
149532
149547
149519
149492
149503
149530
149558
149572
149544
149515
149526
149555
149583
149597
149568
149538
149548
149578
149607
149621
149591
149560
149570
149601
149631
149644
149614
149581
149591
149624
149654
149667
149636
149601
149610
149646
149677
149690
149657
149621
149629
149667
149699
149712
149678
149639
149647
149687
149721
149733
149698
149656
149663
149707
149742
149754
149718
149672
149679
149726
149762
149774
149737
149687
149693
149745
149783
149795
149756
149701
149705
149763
149803
149814
149773
149712
149715
149779
149821
149832
149788
149720
149723
149794
149839
149849
149803
149729
149731
149809
149856
149866
149818
149738
149740
149824
149873
149883
149833
149745
149748
149839
149890
149900
149849
149753
149757
149855
149907
149916
149864
149760
149764
149870
149922
149945
149882
149769
149779
149916
149952
149963
149935
149860
149870
149950
149979
149971
149944
149866
149871
149950
149977
149986
149963
149887
149897
149972
149993
149998
149979
149908
149915
149985
150003
150008
149989
149924
149930
149994
150012
150026
150003
149937
149933
149986
150015
150012
149982
149935
149938
149986
150023
150033
149990
149943
149941
150002
150070
150034
149971
149937
149930
149953
150054
150059
149930
149924
149927
149927
150038
150055
149934
149938
149958
149941
150060
150066
149955
149973
150005
149904
150060
149938
149819
149996
150046
149794
149935
149824
149733
149989
150006
149700
149861
149682
149585
149806
149761
149500
149549
149679
149575
149462
149323
149544
149503
149515
149537
149006
148926
149560
149459
149335
149495
148610
148458
149351
149153
149321
149850
147894
147104
150496
150158
150460
150072
145842
144843
148990
149808
148835
147499
143866
143218
146142
147314
146023
144796
142637
142245
143755
144578
143669
143048
141975
141839
142489
143033
142405
142107
141757
141728
141906
142090
141894
141766
141709
141696
141696
141751
141716
141705
141688
141677
141704
141711
141708
141689
141661
141653
141689
141726
141740
141696
141639
141628
141738
141774
141784
141815
141711
141733
141808
141753
141738
141794
141740
141747
141774
141710
141654
141740
141750
141760
141747
141662
141663
141747
141768
141775
141733
141620
141655
141758
141796
141820
141798
141690
141726
141826
141837
141851
141829
141705
141790
141903
141886
141904
141943
141851
141859
141980
141944
141979
142038
141979
142028
142068
142003
142053
142102
142079
142052
142117
142085
142110
142155
142102
142173
142206
142165
142192
142217
142139
142193
142257
142216
142246
142292
142241
142308
142341
142306
142342
142352
142281
142343
142401
142377
142440
142459
142421
142401
142473
142478
142501
142508
142449
142512
142549
142540
142565
142547
142475
142542
142605
142608
142655
142658
142615
142585
142657
142672
142704
142707
142647
142697
142738
142725
142758
142769
142742
142716
142767
142777
142811
142812
142769
142827
142858
142856
142885
142866
142815
142880
142918
142920
142948
142949
142926
142923
142960
142975
142981
142981
142955
142979
142993
142990
142991
142982
142957
142981
143001
143001
143010
143012
142998
142979
143000
143009
143023
143020
143001
143019
143032
143034
143038
143023
143004
143037
143055
143065
143063
143042
143021
143056
143075
143089
143106
143096
143082
143080
143095
143110
143129
143120
143109
143128
143137
143143
143139
143133
143129
143141
143145
143149
143169
143168
143166
143168
143167
143163
143154
143158
143163
143199
143197
143188
143152
143165
143176
143217
143206
143188
143177
143196
143212
143185
143163
143141
143184
143212
143228
143226
143202
143174
143130
143162
143190
143243
143225
143189
143143
143181
143210
143264
143238
143192
143178
143223
143257
143211
143172
143124
143185
143246
143278
143268
143228
143170
143111
143172
143216
143283
143251
143183
143125
143193
143237
143312
143271
143191
143170
143246
143296
143232
143179
143102
143188
143275
143315
143264
143211
143125
143201
143301
143351
143332
143274
143179
143104
143199
143262
143355
143304
143192
143165
143275
143339
143263
143195
143084
143184
143312
143366
143305
143236
143111
143203
143342
143401
143379
143306
143172
143081
143213
143291
143405
143343
143189
143115
143263
143341
143445
143381
143221
143188
143342
143422
143325
143239
143089
143213
143388
143460
143385
143296
143127
143243
143428
143502
143475
143386
143209
143101
143276
143371
143501
143430
143232
143137
143332
143425
143538
143466
143267
143227
143420
143512
143399
143299
143108
143251
143472
143553
143473
143371
143157
143298
143521
143602
143570
143468
143250
143127
143342
143451
143599
143517
143274
143167
143407
143515
143641
143560
143315
143270
143508
143612
143489
143374
143143
143298
143561
143650
143560
143444
143186
143346
143610
143697
143664
143551
143292
143153
143407
143532
143687
143597
143313
143202
143478
143599
143730
143644
143366
143314
143586
143701
143563
143434
143165
143334
143641
143738
143642
143513
143214
143393
143696
143791
143755
143629
143329
143173
143469
143610
143783
143686
143357
143227
143551
143686
143828
143734
143411
143349
143670
143796
143643
143498
143182
143379
143728
143831
143726
143582
143237
143439
143781
143881
143847
143711
143370
143183
143525
143682
143866
143762
143393
143246
143612
143761
143914
143816
143459
143381
143743
143881
143713
143552
143198
143412
143800
143914
143805
143645
143265
143473
143856
143968
143928
143776
143389
143192
143578
143752
143949
143833
143412
143259
143674
143839
144004
143898
143495
143410
143820
143971
143783
143604
143204
143436
143873
143992
143869
143694
143257
143492
143927
144044
144008
143844
143402
143186
143619
143813
144023
143901
143441
143263
143725
143905
144076
143966
143520
143436
143888
144050
143823
143621
143169
143433
143918
144053
143926
143735
143249
143515
143996
144121
144082
143901
143406
143167
143655
143868
144095
143964
143455
143260
143776
143974
144148
144031
143548
143407
143917
144100
143880
143658
143143
143465
143989
144129
144112
143912
143361
143066
143621
143863
144109
143964
143389
143166
143751
143973
144173
144045
143490
143345
143927
144130
143855
143600
143018
143345
143948
144104
143959
143730
143120
143453
144048
144194
144154
143937
143321
143028
143642
143904
144158
144009
143399
143276
143932
144155
143824
143533
142868
143213
143911
144092
143917
143652
142942
143320
144000
144162
144138
143893
143187
142839
143550
143847
144131
143959
143259
143130
143879
144133
143784
143463
142713
143069
143859
144056
143844
143543
142744
143178
143949
144138
144113
143840
143051
142663
143455
143792
144098
143905
143125
142987
143816
144100
143748
143408
142589
142860
143768
144003
143762
143427
142525
143002
143866
144075
144055
143748
142858
142457
143345
143716
144053
143844
142984
142810
143738
144050
143698
143326
142412
142705
143681
143943
143880
143519
142489
142066
143101
143525
143935
143689
142687
142510
143576
143940
143518
143068
142002
142676
143662
143897
143907
143543
142450
141701
142843
143341
143771
143479
142368
142153
143339
143751
143329
142837
141644
142359
143493
143765
143805
143386
142143
141639
142856
143340
143629
143270
141956
141664
143042
143524
143080
142525
141163
141970
143273
143596
143632
143157
141758
141192
142576
143144
143568
143329
142184
141514
142919
143413
142836
142247
140829
141720
143049
143381
143433
142953
141510
140942
142400
142983
143426
143192
142019
141491
142950
143388
143012
142415
140804
140184
141847
142517
143123
142763
141233
141028
142786
143296
143224
142659
140849
139287
141295
142180
142800
142272
140414
140124
142177
142828
142734
141968
139836
139264
141360
142206
142587
141943
139778
139227
141661
142466
142299
141403
138856
138274
140784
141776
142459
141999
140051
138882
141501
142303
142068
141213
138417
138245
141200
142060
141949
140892
137708
135855
139182
140604
141669
140876
138180
137968
140900
141795
141432
140205
136670
136335
140125
141272
140967
139577
135290
134445
139151
140614
140292
138638
133654
133191
138405
140206
140198
138247
132959
132711
138099
140198
140095
137841
132450
132224
137645
140026
139881
137384
132024
131872
137205
139800
139640
136962
131734
131632
136806
139555
139384
136586
131533
131470
136454
139296
139125
136259
131404
131372
136152
139041
138870
135982
131330
131321
135898
138789
138625
135751
131298
131306
135690
138553
138394
135564
131297
131318
135520
138328
138179
135412
131321
131352
135385
138125
137984
135295
131364
131407
135277
137937
137809
135200
131425
131479
135197
137775
137655
135131
131501
131562
135136
137633
137526
135080
131586
131651
135096
137517
137418
135049
131677
131743
135069
137419
137330
135029
131769
131837
135059
137345
137264
135025
131863
131929
135057
137283
137210
135028
131954
132020
135067
137240
137172
135043
132044
132108
135082
137207
137147
135062
132131
132194
135107
137189
137133
135090
132216
132276
135135
137179
137128
135120
132296
132355
135169
137180
137132
135157
132374
132431
135205
137186
137142
135195
132448
132504
135246
137200
137159
135238
132520
132573
135288
137217
137179
135280
132588
132640
135333
137240
137203
135327
132654
132704
135378
137265
137230
135372
132717
132766
135426
137294
137261
135421
132778
132825
135472
137324
137292
135467
132835
132882
135521
137356
137325
135517
132892
132937
135568
137389
137359
135563
132946
132989
135616
137423
137394
135612
132998
133040
135662
137457
137428
135658
133048
133089
135709
137492
137464
135706
133096
133136
135754
137526
137498
135750
133142
133182
135800
137561
137533
135796
133188
133226
135843
137595
137568
135838
133230
133268
135887
137629
137602
135882
133272
133308
135928
137662
137635
135923
133312
133347
135970
137695
137669
135964
133350
133385
136009
137727
137701
136002
133387
133421
136048
137759
137733
136042
133422
133455
136085
137790
137764
136078
133456
133488
136122
137821
137794
136115
133489
133520
136157
137850
137823
136148
133520
133551
136191
137879
137852
136182
133550
133580
136223
137906
137879
136213
133578
133608
136255
137934
137906
136245
133606
133635
136285
137959
137932
136274
133632
133661
136315
137985
137957
136304
133658
133686
136342
138009
137982
136330
133682
133709
136370
138033
138005
136358
133706
133732
136396
138055
138028
136383
133728
133754
136422
138078
138050
136409
133750
133776
136445
138099
138071
136432
133771
133796
136469
138120
138092
136456
133791
133816
136491
138140
138112
136477
133811
133835
136514
138160
138131
136499
133830
133854
136534
138178
138150
136519
133848
133871
136555
138197
138168
136540
133865
133889
136574
138214
138185
136558
133882
133905
136593
138231
138202
136578
133899
133921
136611
138247
138219
136595
133914
133937
136629
138264
138234
136613
133930
133952
136646
138279
138250
136629
133945
133967
136663
138294
138265
136647
133959
133981
136679
138308
138279
136661
133973
133995
136695
138323
138293
136678
133987
134009
136710
138336
138307
136692
134001
134022
136725
138350
138320
136708
134014
134035
136739
138363
138333
136721
134027
134048
136754
138376
138346
136736
134040
134061
136767
138387
138358
136749
134053
134074
136781
138400
138370
136763
134065
134086
136793
138411
138382
136775
134077
134098
136807
138423
138393
136789
134090
134110
136819
138434
138404
136800
134101
134122
136832
138445
138415
136814
134113
134133
136843
138456
138426
136825
134125
134145
136856
138467
138437
136838
134137
134157
136867
138477
138448
136849
134148
134168
136880
138488
138458
136861
134160
134179
136890
138498
138468
136872
134171
134191
136903
138508
138478
136884
134182
134202
136913
138518
138488
136894
134193
134212
136925
138528
138498
136906
134204
134223
136935
138537
138508
136916
134214
134233
136946
138547
138517
136927
134224
134243
136956
138556
138526
136936
134234
134253
136966
138565
138535
136947
134244
134263
136975
138574
138544
136956
134253
134272
136985
138583
138552
136966
134262
134281
136994
138590
138560
136974
134271
134289
137003
138599
138568
136983
134279
134297
137012
138606
138576
136992
134287
134308
137020
138615
138585
137001
134298
134316
137029
138623
138594
137009
134304
134329
137044
138642
138619
137031
134316
134361
137090
138711
138769
137130
134386
134506
137290
139016
139364
137558
134713
134966
137873
139725
139989
138135
135185
141873
143070
143649
144544
145291
145436
145638
146439
146907
147320
147615
147837
148019
148163
148274
148355
148408
148441
148460
148469
148474
148477
148478
148479
148480
148481
148482
148484
148484
148485
148485
148469
148460
148453
148444
148436
148428
148421
148413
148405
148397
148389
148381
148372
148362
148352
148342
148332
148321
148310
148300
148289
148278
148263
148245
148222
148199
148174
148151
148126
148100
148073
148046
148018
147991
147964
147937
147911
147886
147862
147840
147819
147800
147783
147768
147756
147746
147740
147736
147734
147736
147741
147748
147757
147768
147781
147796
147811
147827
147844
147861
147878
147895
147911
147927
147941
147955
147968
147979
147990
147998
148006
148011
148016
148018
148020
148020
148019
148016
148012
148007
148002
147995
147988
147980
147972
147964
147955
147946
147938
147930
147922
147916
147910
147905
147902
147900
147899
147901
147904
147910
147917
147928
147940
147956
147973
147994
148017
148042
148069
148099
148131
148164
148199
148236
148274
148313
148354
148395
148437
148480
148524
148569
148615
148661
148708
148756
148804
148853
148902
148951
149001
149052
149103
149154
149206
149259
149313
149367
149422
149479
149537
149598
149661
149729
149796
149862
149938
149938
149936
149936
149935
149935
149935
149935
149935
149935
149936
149937
149939
149941
149943
149945
149948
149950
149953
149956
149959
149962
149964
149967
149970
149973
149976
149979
149981
149984
149986
149988
149990
149992
149994
149996
149997
149999
150000
150001
150002
150002
150003
150003
150004
150004
150004
150004
150003
150003
150002
150002
150001
149999
149998
149995
149993
149993
149997
150001
150006
150016
150027
150031
150030
150027
150024
150021
150018
150015
150013
150012
150010
150010
150009
150009
150009
150010
150011
150012
150014
150016
150019
150022
150025
150028
150031
150035
150039
150043
150048
150052
150057
150062
150067
150073
150078
150084
150090
150096
150103
150109
150116
150122
150129
150136
150142
150149
150156
150162
150169
150175
150181
150187
150192
150197
150201
150206
150210
150213
150216
150218
150220
150222
150222
150222
150221
150218
150215
150209
150201
150189
150167
150133
150087
150029
149980
149958
149961
149970
149984
149989
150004
150009
150026
150028
150044
150045
150062
150067
150080
150090
150099
150107
150108
150105
150101
150094
150087
150080
150070
150062
150051
150042
150028
150017
150001
149988
149974
149971
149970
149971
149968
149961
149952
149942
149929
149915
149900
149883
149866
149848
149829
149809
149788
149767
149745
149722
149699
149675
149650
149625
149600
149574
149547
149520
149493
149465
149437
149409
149381
149352
149323
149294
149265
149237
149210
149185
149163
149175
149198
149212
149191
149199
149219
149260
149234
149223
149251
149267
149293
149281
149311
149327
149318
149376
149354
149341
149371
149387
149412
149400
149429
149444
149432
149488
149469
149457
149486
149500
149525
149513
149541
149555
149543
149596
149579
149568
149594
149608
149631
149621
149646
149659
149648
149697
149682
149671
149696
149709
149730
149720
149744
149756
149745
149791
149777
149766
149788
149802
149821
149810
149831
149844
149834
149874
149862
149851
149870
149884
149901
149889
149906
149921
149912
149947
149936
149923
149939
149955
149968
149953
149967
149985
149979
150008
149995
149978
149989
150010
150017
149997
150002
150027
150033
150053
150029
150004
150006
150035
150033
150005
150009
150041
150066
150075
150038
150012
150018
150047
150041
150022
150030
150050
150080
150084
150045
150038
150049
150056
150055
150057
150068
150072
150089
150097
150077
150078
150087
150089
150101
150098
150105
150109
150114
150105
150111
150108
150104
150102
150087
150091
150076
150062
150089
150078
150053
150061
150044
150015
150036
150032
150009
149981
150087
150129
150020
150006
149991
149985
150035
149993
149981
150022
150184
150248
150078
149997
150002
150083
150137
150026
150042
150153
150305
150350
150199
150069
150098
150220
150264
150140
150183
150289
150386
150408
150325
150226
150255
150338
150361
150279
150290
150358
150414
150410
150372
150298
150301
150363
150372
150304
150304
150361
150403
150394
150368
150305
150303
150356
150361
150302
150299
150349
150385
150375
150353
150297
150293
150341
150343
150290
150285
150331
150364
150351
150332
150281
150276
150319
150319
150271
150264
150306
150337
150322
150305
150258
150252
150291
150290
150245
150238
150275
150306
150289
150273
150231
150224
150259
150256
150216
150208
150242
150271
150253
150239
150201
150193
150224
150221
150185
150177
150207
150235
150216
150203
150170
150161
150189
150186
150154
150146
150173
150198
150180
150169
150140
150132
150156
150152
150125
150118
150141
150163
150147
150137
150112
150105
150126
150122
150099
150092
150112
150132
150117
150108
150087
150081
150098
150095
150076
150070
150086
150103
150090
150082
150065
150059
150074
150071
150055
150050
150063
150078
150068
150061
150047
150042
150054
150051
150039
150036
150046
150058
150049
150044
150033
150030
150039
150037
150028
150026
150033
150042
150036
150032
150025
150024
150029
150029
150024
150023
150027
150031
150027
150027
150024
150024
150026
150026
150025
150026
150026
150025
150021
150027
150028
150029
150027
150013
150021
150027
150033
150039
150047
150056
150065
150075
150086
150099
150112
150126
150141
150157
150174
150192
150211
150230
150249
150269
150288
150306
150324
150341
150357
150371
150385
150396
150407
150416
150424
150431
150436
150435
150427
150411
150386
150349
150300
150248
150196
150155
150126
150129
150128
150116
150109
150104
150097
150087
150074
150057
150036
150011
149983
149952
149919
149882
149842
149800
149755
149708
149659
149608
149555
149501
149445
149388
149331
149273
149232
149226
149205
149212
149215
149236
149241
149221
149225
149245
149282
149294
149253
149233
149239
149259
149269
149249
149257
149278
149311
149327
149287
149267
149271
149291
149277
149255
149228
149247
149299
149232
149204
149182
149164
149183
149175
149152
149133
149146
149157
149133
149125
149110
149119
149100
149092
149110
149127
149149
149123
149135
149159
149184
149197
149233
149212
149191
149180
149152
149165
149183
149211
149222
149240
149258
149292
149357
149384
149369
149352
149340
149397
149409
149426
149441
149497
149482
149466
149454
149510
149521
149575
149564
149616
149627
149642
149590
149537
149551
149604
149656
149705
149691
149677
149667
149716
149725
149771
149762
149807
149815
149827
149785
149739
149753
149798
149840
149880
149868
149856
149848
149887
149894
149929
149923
149957
149961
149970
149939
149905
149916
149950
149980
149981
149948
149913
149874
149832
149787
149740
149690
149639
149585
149530
149474
149416
149351
149321
149295
149271
149300
149330
149357
149382
149410
149468
149525
149581
149556
149532
149499
149475
149442
149417
149388
149358
149342
149331
149312
149301
149283
149272
149252
149242
149214
149196
149227
149245
149259
149276
149289
149306
149319
149336
149360
149371
149389
149365
149349
149378
149400
149416
149445
149428
149418
149394
149406
149423
149446
149457
149472
149501
149527
149555
149587
149610
149634
149686
149736
149784
149761
149741
149713
149692
149662
149640
149608
149581
149566
149556
149539
149529
149512
149502
149484
149474
149451
149435
149463
149478
149490
149506
149517
149533
149544
149559
149582
149592
149608
149585
149570
149596
149618
149633
149659
149643
149634
149610
149621
149635
149659
149667
149682
149708
149730
149754
149788
149807
149829
149872
149912
149949
149926
149911
149890
149873
149850
149832
149798
149775
149760
149753
149738
149730
149715
149707
149691
149683
149660
149646
149670
149684
149694
149707
149716
149730
149739
149752
149775
149782
149797
149773
149761
149782
149803
149818
149840
149824
149817
149794
149802
149815
149838
149844
149859
149880
149897
149917
149945
149958
149982
150008
150006
149997
149990
149986
150013
150016
150038
150037
150057
150056
150057
150041
150021
150028
150046
150060
150071
150071
150072
150074
150088
150086
150099
150100
150110
150111
150110
150095
150083
150081
150091
150107
150122
150122
150121
150116
150131
150140
150160
150140
150157
150180
150195
150176
150146
150150
150186
150203
150243
150231
150208
150175
150214
150253
150296
150259
150307
150335
150345
150312
150275
150283
150315
150342
150329
150307
150281
150247
150205
150195
150157
150124
150101
150081
150075
150072
150063
150050
150032
150011
150037
150060
150030
150018
150011
149999
149987
149974
149950
149932
149916
149911
149899
149894
149882
149876
149863
149857
149834
149823
149842
149854
149861
149871
149878
149889
149895
149905
149927
149932
149943
149921
149911
149926
149948
149964
149980
149962
149957
149936
149942
149950
149971
149974
149992
150005
150018
150028
150028
150043
150075
150086
150101
150099
150099
149966
150025
150004
150042
150025
150041
150039
150012
150009
150005
150002
149996
149994
149985
149982
149962
149955
149967
149978
149989
149996
149999
150006
150001
149994
149989
150005
150009
150013
150012
150016
150009
150015
150015
150012
150010
150015
150023
150020
150019
150049
150035
150018
150002
150011
150013
149997
149969
150060
150022
150001
150077
149977
149936
150022
150010
150010
150011
150019
150016
150018
150032
150034
150048
149976
149843
149892
150085
149960
149744
149789
149814
149942
149874
149813
149969
149932
150004
149954
150085
149990
149995
149969
149973
149843
149921
149878
149862
149736
149704
149699
149586
149609
149702
149707
149771
149618
149640
149731
149621
149602
149589
149588
149793
149731
149687
150016
149954
150219
150121
150171
150208
150204
150198
150236
150239
150288
149952
149940
149906
149753
149731
149833
149576
149563
149601
149591
149472
149475
149544
149784
149451
149417
149488
149618
149555
149348
149342
149298
149293
149220
149253
149198
149184
149756
149379
149501
149877
150421
150046
148399
148209
146074
144516
144685
143228
142438
142661
142015
141753
141839
142423
142296
142997
144091
144055
143523
145007
146535
146224
148239
149757
149850
149779
149854
149536
149509
149298
149232
149402
149633
149779
148426
148573
149107
149473
146788
145395
147120
147523
147077
143856
142982
141941
141724
141706
141742
141785
141794
141762
141709
141682
141605
141572
141585
141492
141530
141567
141610
141514
141604
141704
141616
141785
141889
141984
141888
141962
142039
141910
142020
142108
142183
142062
142184
142285
142162
142315
142394
142281
142388
142480
142353
142485
142568
142660
142579
142653
142729
142644
142754
142849
142790
142887
142934
142896
142932
142961
142925
142956
142983
142953
142994
142969
143013
143045
143017
143075
143105
143128
143150
143157
143185
143198
143193
143226
143221
143261
143256
143236
143299
143283
143254
143305
143283
143364
143338
143300
143361
143343
143304
143378
143342
143415
143388
143340
143428
143388
143466
143439
143387
143488
143458
143401
143488
143442
143547
143510
143444
143533
143487
143620
143580
143505
143603
143549
143656
143619
143544
143635
143584
143730
143688
143603
143712
143656
143772
143732
143648
143747
143691
143834
143793
143705
143812
143752
143867
143829
143740
143840
143783
143937
143895
143798
143915
143852
143975
143936
143839
143948
143887
144037
143995
143892
144011
143944
144068
144030
143924
144038
143974
144136
144094
143982
144110
144040
144171
144128
144015
144138
144070
144230
144188
144067
144197
144118
144253
144214
144092
144219
144149
144320
144278
144135
144282
144200
144343
144303
144171
144308
144235
144402
144348
144210
144366
144337
144190
144357
144271
144400
144351
144187
144387
144292
144437
144399
144253
144432
144397
144202
144381
144260
144445
144410
144238
144424
144393
144187
144412
144255
144443
144402
144215
144437
144407
144184
144391
144202
144434
144392
144188
144413
144377
144159
144419
144312
144077
144358
144327
144076
144362
144293
143966
144281
144207
143940
144283
144264
143964
144272
144090
143789
144165
144147
143846
144198
143989
143606
144050
144020
143725
144134
143992
143725
143373
143841
143892
143787
143210
143811
143690
143581
143236
143718
143448
143284
142960
143665
143393
143188
143098
142954
142225
143034
142854
142620
142476
142251
142041
141803
141797
141827
141908
141896
141940
141897
141939
141884
141928
141864
141908
141837
141885
141809
141859
141777
141830
141744
141797
141707
141762
141668
141724
141626
141683
141583
141638
141535