/*--------------------------------*- C++ -*----------------------------------*\
| =========                 |                                                 |
| \\      /  F ield         | OpenFOAM: The Open Source CFD Toolbox           |
|  \\    /   O peration     | Version:  v2006                                 |
|   \\  /    A nd           | Website:  www.openfoam.com                      |
|    \\/     M anipulation  |                                                 |
\*---------------------------------------------------------------------------*/
FoamFile
{
    version     2.0;
    format      ascii;
    class       volScalarField;
    location    "0.006";
    object      nut;
}
// * * * * * * * * * * * * * * * * * * * * * * * * * * * * * * * * * * * * * //

dimensions      [0 2 -1 0 0 0 0];


internalField   nonuniform List<scalar> 
11076
(
1.80844
1.97379
7.31995
5.94604
3.17306
1.63661
0.909204
0.610477
0.456996
0.367884
0.308889
0.266612
0.234736
0.209774
0.189646
0.173052
0.159183
0.147475
0.137509
0.128955
0.121546
0.115074
0.10938
0.10434
0.0998607
0.0958664
0.0922957
0.0890998
0.0862378
0.0836771
0.0813905
0.0793562
0.0775564
0.0759769
0.0746063
0.0734357
0.0724589
0.0716724
0.0710756
0.0706698
0.0704581
0.0704458
0.0706417
0.0710571
0.0717072
0.072611
0.073796
0.0752978
0.0771599
0.0794422
0.0822213
0.0855869
0.0896374
0.0945011
0.100305
0.107281
0.115921
0.12803
0.148981
0.194085
0.299886
0.537056
0.901562
2.06955
0.975492
0.594321
0.329554
0.167337
0.0692006
0.0154244
0.00276404
8.96299e-05
7.82008e-05
0.00130104
0.0059356
0.00374525
0.000949194
7.01268e-05
6.35838e-05
0.000833318
0.00299449
0.00253117
0.000742926
5.94545e-05
5.58986e-05
0.000703551
0.00227084
0.00204009
0.000644324
5.30559e-05
5.06789e-05
0.000614619
0.00190395
0.00176832
0.000584574
4.86702e-05
4.72161e-05
0.000568331
0.0016932
0.00159678
0.000543443
4.5708e-05
4.46288e-05
0.000533239
0.00155187
0.00147852
0.000512013
4.3408e-05
4.25154e-05
0.000503156
0.00143945
0.00137405
0.000483012
4.1465e-05
4.06985e-05
0.000474448
0.00133886
0.00127837
0.000455516
3.98034e-05
3.91668e-05
0.000447612
0.00124671
0.00119155
0.000430785
3.84354e-05
3.79351e-05
0.000424013
0.00116364
0.00111493
0.000410145
3.73655e-05
3.69963e-05
0.000405152
0.00109235
0.00105118
0.00039456
3.65706e-05
3.63086e-05
0.000391467
0.00103614
0.00100319
0.000383661
3.59901e-05
3.58005e-05
0.00038194
0.000993853
0.000967623
0.000376068
3.5553e-05
3.54114e-05
0.000375066
0.000962346
0.000941527
0.000370625
3.52075e-05
3.50946e-05
0.000370073
0.000938639
0.000922075
0.000366517
3.49066e-05
3.48024e-05
0.000366172
0.000920465
0.000906364
0.000362833
3.46055e-05
3.44939e-05
0.000362393
0.000904904
0.00089127
0.000358735
3.42734e-05
3.41473e-05
0.000358145
0.000889387
0.000875323
0.000354009
3.3898e-05
3.37529e-05
0.000353247
0.000872789
0.000857843
0.000348463
3.34711e-05
3.33049e-05
0.000347447
0.000854543
0.000838488
0.000341999
3.29912e-05
3.28049e-05
0.00034076
0.000834382
0.000817021
0.000334694
3.24633e-05
3.22605e-05
0.000333263
0.000812198
0.000793719
0.000326697
3.1897e-05
3.1682e-05
0.000325115
0.000788434
0.000769225
0.000318199
3.13013e-05
3.10769e-05
0.000316469
0.000763443
0.000743621
0.000309307
3.06805e-05
3.04472e-05
0.000307425
0.000737347
0.000717219
0.000300106
3.00329e-05
2.9788e-05
0.000298085
0.000710822
0.000690677
0.000290603
2.93489e-05
2.90868e-05
0.000288386
0.000684019
0.000663571
0.000280631
2.86133e-05
2.83275e-05
0.000278193
0.000656529
0.000635512
0.000270037
2.78111e-05
2.74973e-05
0.000267279
0.000627877
0.00060584
0.000258553
2.69303e-05
2.65828e-05
0.00025536
0.000597382
0.00057395
0.000245875
2.59562e-05
2.55681e-05
0.000242083
0.000564314
0.000539072
0.000231682
2.4875e-05
2.44317e-05
0.000226931
0.000527829
0.000500279
0.000215553
2.36751e-05
2.31311e-05
0.000209154
0.00048687
0.000456531
0.000196325
2.23191e-05
2.16264e-05
0.000188146
0.000439154
0.000405466
0.000172284
2.06353e-05
2.03903e-05
0.000160627
0.000380638
0.000341331
0.000139301
1.97441e-05
1.94905e-05
0.000121907
0.000301916
0.000245569
8.7999e-05
1.60722e-05
5.96096e-06
3.36832e-05
0.000163166
7.65775e-05
2.24527e-05
9.15943e-06
1.40404e-05
3.78544e-05
5.16516e-05
0.000103693
7.62048e-05
1.93517e-05
1.86941e-05
0.000125999
0.000194152
0.000230273
0.000170915
1.77717e-05
1.53382e-05
0.000184601
0.000260514
0.000239045
0.000109766
1.00555e-05
8.77303e-06
4.80353e-05
0.000140725
7.63122e-05
2.59432e-05
8.64278e-06
8.64965e-06
2.11647e-05
7.03357e-05
8.23324e-05
1.87448e-05
8.55536e-06
8.39366e-06
1.77695e-05
9.26314e-05
9.03584e-05
1.71938e-05
8.21987e-06
7.9008e-06
2.00382e-05
0.000101605
0.000106062
2.21977e-05
7.53943e-06
6.74647e-06
2.94415e-05
0.000108604
0.000104355
3.2373e-05
6.31678e-06
5.74499e-06
4.08724e-05
0.000110637
0.00010639
4.84624e-05
5.27331e-06
4.35666e-06
5.71443e-05
9.98356e-05
8.51214e-05
5.64577e-05
2.88412e-06
1.63785e-06
5.03481e-05
7.79375e-05
7.00821e-05
4.69457e-05
1.80829e-06
2.71038e-06
3.64543e-05
7.57428e-05
8.32142e-05
3.0128e-05
3.85448e-06
4.95182e-06
2.6589e-05
8.51173e-05
8.59675e-05
2.49309e-05
5.99025e-06
7.03503e-06
2.14119e-05
8.14801e-05
8.16371e-05
2.07234e-05
7.73514e-06
8.15176e-06
2.19557e-05
9.01402e-05
0.000117407
2.85546e-05
8.48919e-06
9.36864e-06
4.57231e-05
0.000146792
0.00014844
6.49477e-05
1.06245e-05
1.1233e-05
6.62815e-05
0.000124205
9.90708e-05
5.76638e-05
1.10897e-05
1.11083e-05
4.03438e-05
8.06123e-05
5.13704e-05
2.63368e-05
1.07724e-05
9.18837e-06
2.02473e-05
3.83089e-05
3.91463e-05
1.91187e-05
7.65141e-06
6.18109e-06
1.7833e-05
4.68318e-05
5.85509e-05
1.74652e-05
4.17456e-06
2.44623e-06
2.23644e-05
6.92319e-05
7.77316e-05
2.73571e-05
1.42369e-06
1.95364e-06
3.33414e-05
8.48587e-05
9.10577e-05
3.92885e-05
2.97285e-06
3.94696e-06
4.315e-05
9.51995e-05
9.98124e-05
4.72779e-05
4.9142e-06
5.75149e-06
4.99284e-05
0.000102612
0.000106307
5.32062e-05
6.55093e-06
7.17661e-06
5.49795e-05
0.000108174
0.000111252
5.76664e-05
7.77974e-06
8.23566e-06
5.89327e-05
0.000112369
0.000114806
6.10836e-05
8.68048e-06
9.00432e-06
6.20082e-05
0.00011551
0.000117327
6.3655e-05
9.32065e-06
9.53529e-06
6.42818e-05
0.000117682
0.000119005
6.47683e-05
9.7289e-06
9.79592e-06
6.48262e-05
0.000118808
0.000119738
6.46117e-05
9.79321e-06
9.77646e-06
6.44094e-05
0.0001193
0.000120145
6.40072e-05
9.74788e-06
9.72151e-06
6.3612e-05
0.000119241
0.000118497
6.31628e-05
9.69708e-06
9.64403e-06
6.25068e-05
0.000117106
0.00011568
6.18708e-05
9.6099e-06
9.50594e-06
6.07808e-05
0.000113482
0.000111657
5.98552e-05
9.42793e-06
9.28115e-06
5.85278e-05
0.000108909
0.000106519
5.74441e-05
9.16404e-06
8.99351e-06
5.60022e-05
0.000103014
9.90425e-05
5.46274e-05
8.84181e-06
8.62075e-06
5.28178e-05
9.26327e-05
8.33128e-05
4.98526e-05
8.33864e-06
7.71139e-06
4.46615e-05
7.27183e-05
6.46638e-05
3.85552e-05
7.63303e-06
8.45214e-06
3.37723e-05
6.00039e-05
5.62175e-05
2.96562e-05
1.01302e-05
0.00013061
0.000436625
0.000500684
0.000499998
0.000499863
0.000499891
0.000499891
0.00049999
0.000500032
0.000500131
0.00050017
0.000500253
0.000500147
0.000500148
0.0005001
0.000394667
0.000209607
0.000211113
0.000435019
0.000500198
0.000500376
0.000297094
0.000174086
5.95365e-05
3.51384e-05
2.35313e-05
2.60607e-06
1.70862e-06
1.56182e-05
3.60818e-05
3.23954e-05
7.80404e-06
1.023e-06
5.41966e-07
3.96843e-06
2.63073e-05
2.21356e-05
3.02951e-06
3.41544e-07
2.58986e-07
2.55918e-06
1.94199e-05
1.9484e-05
3.03357e-06
2.34975e-07
2.1559e-07
3.01729e-06
1.96073e-05
2.20234e-05
3.88289e-06
2.28968e-07
2.23065e-07
3.75222e-06
2.25321e-05
2.46311e-05
4.44406e-06
2.42427e-07
2.35946e-07
4.2448e-06
2.4639e-05
2.61063e-05
4.94529e-06
2.61808e-07
2.57649e-07
4.74727e-06
2.61117e-05
2.74282e-05
5.40947e-06
2.86992e-07
2.80948e-07
5.14242e-06
2.74113e-05
2.8463e-05
5.73251e-06
3.10005e-07
3.04263e-07
5.43317e-06
2.83761e-05
2.92073e-05
5.97152e-06
3.32957e-07
3.25376e-07
5.63864e-06
2.90905e-05
2.97873e-05
6.16949e-06
3.53937e-07
3.47111e-07
5.83154e-06
2.96333e-05
3.02594e-05
6.3359e-06
3.75716e-07
3.67118e-07
5.9671e-06
3.00882e-05
3.06113e-05
6.46866e-06
3.9555e-07
3.87824e-07
6.09812e-06
3.03978e-05
3.08659e-05
6.57774e-06
4.16495e-07
4.07103e-07
6.18024e-06
3.05962e-05
3.10407e-05
6.66925e-06
4.36318e-07
4.28116e-07
6.27482e-06
3.06401e-05
3.11132e-05
6.74957e-06
4.58133e-07
4.48581e-07
6.33805e-06
3.05851e-05
3.11247e-05
6.82908e-06
4.79941e-07
4.71994e-07
6.43366e-06
3.05696e-05
3.11391e-05
6.91796e-06
5.04929e-07
4.95853e-07
6.51252e-06
3.0544e-05
3.11599e-05
7.01949e-06
5.30881e-07
5.23804e-07
6.63844e-06
3.05655e-05
3.12324e-05
7.14187e-06
5.61558e-07
5.53634e-07
6.7565e-06
3.06203e-05
3.13687e-05
7.28451e-06
5.94641e-07
5.8914e-07
6.92472e-06
3.07503e-05
3.15345e-05
7.45305e-06
6.34438e-07
6.285e-07
7.08971e-06
3.09012e-05
3.17291e-05
7.64653e-06
6.79007e-07
6.76238e-07
7.30801e-06
3.10964e-05
3.19757e-05
7.87799e-06
7.33796e-07
7.31489e-07
7.53864e-06
3.13291e-05
3.22468e-05
8.14911e-06
7.97019e-07
8.01335e-07
7.82145e-06
3.16075e-05
3.26001e-05
8.47279e-06
8.77734e-07
8.86353e-07
8.13432e-06
3.19313e-05
3.30157e-05
8.84228e-06
9.75329e-07
9.95941e-07
8.50691e-06
3.23375e-05
3.3531e-05
9.26029e-06
1.10267e-06
1.13482e-06
8.93068e-06
3.28106e-05
3.42114e-05
9.73712e-06
1.26683e-06
1.32913e-06
9.5489e-06
3.35161e-05
3.51142e-05
1.02983e-05
1.49478e-06
1.57579e-06
1.01725e-05
3.44173e-05
3.58112e-05
1.09506e-05
1.75849e-06
1.8326e-06
1.07432e-05
3.4877e-05
3.61318e-05
1.13048e-05
2.02638e-06
2.14452e-06
1.13601e-05
3.51376e-05
3.70907e-05
1.23482e-05
2.38521e-06
2.53353e-06
1.22809e-05
3.61111e-05
3.84244e-05
1.32244e-05
2.85184e-06
3.08965e-06
1.35684e-05
3.81641e-05
4.10361e-05
1.45086e-05
3.53929e-06
3.95934e-06
1.51439e-05
4.08436e-05
4.44354e-05
1.6104e-05
4.48637e-06
5.14929e-06
1.72823e-05
4.4887e-05
4.91641e-05
1.81694e-05
5.83031e-06
6.48835e-06
1.97979e-05
4.44703e-05
6.45375e-05
1.98127e-05
6.70345e-06
7.49164e-06
2.63967e-05
8.75924e-05
9.57518e-05
4.34039e-05
7.97069e-06
1.06738e-05
5.38006e-05
0.000138549
9.8696e-05
4.82538e-05
1.07587e-05
1.05988e-05
4.98678e-05
0.000104334
0.000117426
5.83419e-05
1.12791e-05
1.21973e-05
6.73524e-05
0.000111978
0.000100086
7.54822e-05
1.26238e-05
1.31307e-05
8.47876e-05
8.8068e-05
7.72486e-05
8.69728e-05
1.33151e-05
1.37082e-05
8.25534e-05
6.57257e-05
6.34693e-05
7.36518e-05
1.35202e-05
1.30526e-05
8.33525e-05
4.6475e-05
3.95404e-05
6.9181e-05
1.18295e-05
1.18091e-05
6.3098e-05
3.89566e-05
3.5297e-05
5.5706e-05
1.16983e-05
1.16521e-05
4.35941e-05
3.48927e-05
2.36507e-05
4.70491e-05
1.0548e-05
9.17691e-06
3.4675e-05
2.11143e-05
1.43093e-05
3.50075e-05
8.22978e-06
7.7011e-06
3.00865e-05
1.33974e-05
1.42033e-05
2.79415e-05
7.54129e-06
7.60186e-06
2.37346e-05
1.39436e-05
1.40541e-05
2.05692e-05
7.64777e-06
7.09589e-06
1.82492e-05
1.10267e-05
1.03699e-05
1.42684e-05
6.82609e-06
6.90699e-06
1.2055e-05
1.08199e-05
1.14517e-05
1.04753e-05
7.89117e-06
7.79552e-06
9.67239e-06
9.91969e-06
8.91553e-06
8.34367e-06
8.5467e-06
9.9348e-06
8.16791e-06
1.00464e-05
1.02883e-05
9.78014e-06
1.14398e-05
1.36055e-05
1.01643e-05
9.63105e-06
1.19402e-05
1.20794e-05
1.68963e-05
2.50009e-05
1.58178e-05
1.46109e-05
1.86179e-05
2.01879e-05
1.85552e-05
2.61607e-05
2.88143e-05
1.96329e-05
3.22278e-05
2.4563e-05
2.84781e-05
4.64342e-05
1.72343e-05
3.61779e-05
3.52336e-05
1.82565e-05
2.0035e-05
1.55593e-05
2.1399e-05
9.73404e-05
6.23216e-05
3.2307e-05
1.36577e-05
1.35575e-05
2.86596e-05
2.76606e-05
3.2704e-05
3.091e-05
1.3791e-05
1.38448e-05
3.09111e-05
2.70943e-05
2.01601e-05
3.03263e-05
1.60341e-05
1.90546e-05
3.08054e-05
3.01535e-05
2.68838e-05
3.33064e-05
2.27166e-05
3.00699e-05
3.86027e-05
2.70701e-05
4.37543e-05
4.08084e-05
3.71804e-05
3.57859e-05
5.57378e-05
3.33479e-05
5.30958e-05
0.000100631
4.30808e-05
4.16571e-05
0.000102521
0.000119293
0.00010273
7.15001e-05
3.67428e-05
3.30068e-05
6.04851e-05
0.000105438
0.000125087
6.32723e-05
3.14077e-05
2.92035e-06
9.04137e-05
0.000158207
0.000219863
0.000118985
2.84759e-05
5.1447e-05
0.000150281
0.000330502
0.000414435
0.000179002
5.33217e-05
6.05311e-05
0.000219529
0.000530334
0.000818275
0.000318233
6.29677e-05
5.92001e-05
0.000344686
0.000824502
0.000884139
0.00038225
6.02792e-05
6.21703e-05
0.000489968
0.0012013
0.00101233
0.000410082
5.11336e-05
4.17796e-05
0.000320327
0.00088881
0.000829909
0.00027702
4.04959e-05
4.07809e-05
0.00031664
0.00112247
0.000748912
0.00016198
2.19649e-05
1.65399e-05
8.58276e-05
0.000606811
0.000713661
0.000188856
2.21505e-05
1.77487e-05
0.000114063
0.000277053
0.000233334
9.23662e-05
1.35863e-05
1.63388e-05
6.91142e-05
0.000174788
0.000501338
0.000294595
2.22023e-05
1.50307e-05
0.000106691
0.000305206
0.000228932
8.29485e-05
1.79041e-05
2.55867e-05
0.000364978
0.000669065
0.000389803
0.000133931
1.88236e-05
1.43343e-05
0.00010588
0.000277718
0.000209599
7.62272e-05
1.71986e-05
2.43517e-05
0.000349027
0.000614226
0.00035076
0.000118935
1.55352e-05
1.83237e-05
8.43166e-05
0.000239222
0.00067727
0.000387394
2.65612e-05
1.65371e-05
0.000127084
0.000364804
0.0002695
9.25585e-05
1.99405e-05
2.95185e-05
0.000450133
0.00077304
0.000450116
0.000150156
1.75751e-05
2.09168e-05
0.000107101
0.000342137
0.000980114
0.00053571
3.18023e-05
2.03696e-05
0.00017762
0.000546549
0.000349116
0.000120877
1.48475e-05
1.82722e-05
7.87135e-05
0.000250321
0.000763054
0.000403911
2.92659e-05
1.65834e-05
0.000137151
0.000431823
0.000311305
8.9516e-05
1.98176e-05
3.19767e-05
0.000494651
0.000928948
0.000476328
0.000140928
1.57707e-05
1.83003e-05
8.00744e-05
0.000295381
0.00084721
0.000421068
2.97863e-05
1.17722e-05
0.000114732
0.000385474
0.000230443
6.13568e-05
1.4449e-05
2.37899e-05
0.000312751
0.000663698
0.000323156
9.754e-05
9.48832e-06
1.26082e-05
5.55932e-05
0.000213993
0.000627033
0.000289067
2.26707e-05
8.80787e-06
0.000102251
0.000320778
0.000203506
5.5547e-05
1.12132e-05
2.18262e-05
0.000280937
0.000659482
0.00039649
0.000117967
2.11411e-05
3.82627e-05
0.000450324
0.00102954
0.000625302
0.000216316
1.56749e-05
1.74379e-05
0.000149802
0.000518537
0.00105196
0.000427433
3.54593e-05
1.33386e-05
0.000227457
0.000673489
0.00069573
0.000219939
1.2895e-05
2.41815e-05
0.000322928
0.000862103
0.000561942
0.000180196
8.61068e-06
1.44111e-05
0.000261726
0.00074292
0.0007597
0.000269205
1.7397e-05
4.85216e-06
0.000134976
0.000447962
0.000669934
0.000240523
1.35763e-05
7.1858e-06
0.000120466
0.000430225
0.000803557
0.000317662
2.2592e-05
2.05548e-05
0.000248921
0.000716724
0.000317454
7.63893e-05
5.14297e-06
1.93296e-05
0.000273157
0.000694104
0.00064035
0.00022601
1.93959e-05
5.47886e-06
5.67328e-05
0.000238369
0.000618563
0.000251063
1.69007e-05
1.07653e-05
8.18705e-05
0.000265473
0.000651727
0.000279348
2.40133e-05
2.41527e-05
0.000218245
0.000593778
0.000206162
5.13883e-05
9.28361e-06
1.99793e-05
0.000224964
0.000534773
0.000494791
0.000177482
2.08235e-05
8.31808e-06
3.75322e-05
0.000152182
0.000422907
0.000213295
1.69047e-05
1.37652e-05
5.73324e-05
0.000184004
0.00048671
0.000218233
2.01306e-05
1.97584e-05
0.000165238
0.000436841
0.00012924
3.51375e-05
1.10498e-05
1.57364e-05
0.000199621
0.000350201
0.000155592
5.31535e-05
1.37434e-05
1.78977e-05
0.000190718
0.000408803
0.000366135
0.000145207
1.84758e-05
1.14386e-05
3.69809e-05
0.000112833
0.000326547
0.000148225
1.46054e-05
1.60341e-05
0.000116589
0.000301351
8.82049e-05
3.0069e-05
1.0422e-05
1.25105e-05
0.000156237
0.000243625
0.000108795
4.44864e-05
1.27616e-05
1.4658e-05
0.000135363
0.000289743
0.000255691
0.000103924
1.56878e-05
1.07866e-05
2.86934e-05
7.59027e-05
0.000202533
0.000127656
1.18412e-05
1.28515e-05
4.17953e-05
9.40812e-05
0.000246144
0.000118374
1.3899e-05
1.55656e-05
9.52393e-05
0.000212913
6.98032e-05
2.98735e-05
1.10276e-05
1.14553e-05
0.000114884
0.000171631
8.36131e-05
4.06125e-05
1.2927e-05
1.32004e-05
0.000102929
0.00021085
0.000177337
8.39287e-05
1.51834e-05
1.11918e-05
2.94168e-05
6.36949e-05
0.000142442
9.85784e-05
1.07582e-05
1.27555e-05
3.86694e-05
7.41009e-05
0.000173658
9.17096e-05
1.24384e-05
1.47893e-05
7.59125e-05
0.00014723
5.93065e-05
2.91502e-05
1.11737e-05
1.03936e-05
8.75796e-05
0.000123147
6.74916e-05
3.75952e-05
1.25598e-05
1.17436e-05
8.17956e-05
0.000150397
0.000129561
7.06223e-05
1.42686e-05
1.10284e-05
2.90164e-05
5.45892e-05
0.000104176
7.93179e-05
1.00569e-05
1.25199e-05
3.68108e-05
6.07681e-05
0.00012576
7.4006e-05
1.15556e-05
1.4176e-05
6.36286e-05
0.000109256
5.14368e-05
3.12955e-05
1.1015e-05
9.72577e-06
7.02409e-05
9.1629e-05
5.56614e-05
3.73581e-05
1.23686e-05
1.11101e-05
6.80036e-05
0.000109445
9.63623e-05
5.89713e-05
1.38101e-05
1.09455e-05
3.1615e-05
4.79807e-05
8.09603e-05
6.36379e-05
9.50963e-06
1.23326e-05
3.74858e-05
5.13022e-05
9.26176e-05
6.23933e-05
1.08674e-05
1.37848e-05
5.53419e-05
8.23173e-05
4.52107e-05
3.35944e-05
1.0993e-05
9.44547e-06
5.82026e-05
7.057e-05
4.70122e-05
3.74731e-05
1.2287e-05
1.05927e-05
5.68177e-05
8.35584e-05
7.43855e-05
5.13133e-05
1.36009e-05
1.10528e-05
3.41551e-05
4.24972e-05
6.49578e-05
5.42822e-05
9.40182e-06
1.2348e-05
3.76147e-05
4.44345e-05
7.65509e-05
5.36752e-05
1.05979e-05
1.3727e-05
4.95411e-05
6.87306e-05
4.13895e-05
3.5967e-05
1.11685e-05
9.41007e-06
5.31585e-05
6.17553e-05
4.33696e-05
3.86111e-05
1.23763e-05
1.04935e-05
5.13951e-05
7.27583e-05
6.55911e-05
4.7967e-05
1.3689e-05
1.1229e-05
3.66745e-05
4.07564e-05
5.97253e-05
5.16784e-05
9.47454e-06
1.25023e-05
3.94518e-05
4.29992e-05
7.0228e-05
5.08231e-05
1.05755e-05
1.38646e-05
4.79881e-05
6.37144e-05
4.15176e-05
3.82497e-05
1.13832e-05
9.44673e-06
5.19858e-05
5.89276e-05
4.34579e-05
4.11478e-05
1.25232e-05
1.04568e-05
5.02737e-05
6.92927e-05
6.3147e-05
4.7787e-05
1.38733e-05
1.14383e-05
3.90042e-05
4.20912e-05
5.77132e-05
5.11278e-05
9.59281e-06
1.28573e-05
4.21867e-05
4.40951e-05
6.74614e-05
5.04415e-05
1.08034e-05
1.43252e-05
4.85297e-05
6.19517e-05
4.3282e-05
4.12509e-05
1.17157e-05
9.69682e-06
5.24681e-05
5.7409e-05
4.559e-05
4.46855e-05
1.30317e-05
1.09634e-05
5.00575e-05
6.60679e-05
6.12198e-05
4.85011e-05
1.45986e-05
1.19525e-05
4.23203e-05
4.37827e-05
5.65515e-05
5.21824e-05
9.85458e-06
1.3376e-05
4.5978e-05
4.6315e-05
6.46166e-05
5.0571e-05
1.12215e-05
1.49414e-05
4.95199e-05
6.05188e-05
4.50488e-05
4.44558e-05
1.21781e-05
1.00223e-05
5.33134e-05
5.65033e-05
4.75897e-05
4.82613e-05
1.36428e-05
1.14502e-05
5.10537e-05
6.42134e-05
6.04075e-05
5.03899e-05
1.53554e-05
1.26582e-05
4.64058e-05
4.68192e-05
5.67039e-05
5.40959e-05
1.03932e-05
1.40947e-05
5.04189e-05
4.90362e-05
6.43986e-05
5.24307e-05
1.1736e-05
1.58974e-05
5.24096e-05
6.11204e-05
4.93559e-05
5.09739e-05
1.35517e-05
1.16028e-05
5.52162e-05
6.13047e-05
5.86618e-05
5.4228e-05
1.60754e-05
1.34575e-05
4.91047e-05
4.89778e-05
5.67698e-05
5.54192e-05
1.09849e-05
1.50131e-05
5.2738e-05
5.11722e-05
6.23036e-05
5.26843e-05
1.24352e-05
1.67689e-05
5.28459e-05
5.95384e-05
5.05817e-05
5.17769e-05
1.39954e-05
1.13553e-05
5.66417e-05
5.70816e-05
5.29533e-05
5.59255e-05
1.56656e-05
1.30475e-05
5.46619e-05
6.33195e-05
6.07714e-05
5.57852e-05
1.7668e-05
1.49399e-05
5.69182e-05
5.37751e-05
6.20264e-05
5.85799e-05
1.26756e-05
1.74862e-05
5.7961e-05
6.01215e-05
5.40578e-05
5.51071e-05
1.4916e-05
1.20969e-05
5.91317e-05
5.87487e-05
5.57501e-05
5.89321e-05
1.67084e-05
1.39047e-05
5.61984e-05
6.35419e-05
6.16069e-05
5.77789e-05
1.89175e-05
1.59618e-05
6.04703e-05
5.68511e-05
6.26306e-05
6.04726e-05
1.35618e-05
1.87809e-05
6.02208e-05
6.11056e-05
5.71697e-05
5.90049e-05
1.59511e-05
1.28882e-05
6.15816e-05
6.04525e-05
5.90418e-05
6.31856e-05
1.78703e-05
1.48306e-05
5.90246e-05
6.48811e-05
6.31035e-05
6.10552e-05
2.01536e-05
1.70031e-05
6.52236e-05
6.03238e-05
6.50863e-05
6.42949e-05
1.44176e-05
2.00347e-05
6.45962e-05
6.38003e-05
6.15454e-05
6.36743e-05
1.6786e-05
1.36457e-05
6.55681e-05
6.36327e-05
6.32008e-05
6.8072e-05
1.89804e-05
1.57965e-05
6.29037e-05
6.77011e-05
6.62719e-05
6.51221e-05
2.15192e-05
1.82928e-05
7.07821e-05
6.51553e-05
6.83648e-05
6.88119e-05
1.54825e-05
2.15651e-05
6.92961e-05
6.7256e-05
6.66973e-05
7.11447e-05
1.85327e-05
1.57311e-05
6.92275e-05
6.95305e-05
6.85791e-05
6.99629e-05
2.23979e-05
1.95757e-05
7.44913e-05
6.90114e-05
7.08069e-05
7.10335e-05
1.66158e-05
2.31781e-05
7.11422e-05
6.98926e-05
7.01428e-05
7.50855e-05
1.97965e-05
1.65531e-05
7.13734e-05
7.17705e-05
7.08662e-05
7.08068e-05
2.30094e-05
2.02678e-05
7.61759e-05
7.09934e-05
7.21214e-05
7.22948e-05
1.71721e-05
2.42239e-05
7.25679e-05
7.13142e-05
7.25194e-05
7.82045e-05
2.08424e-05
1.74896e-05
7.37276e-05
7.32681e-05
7.24273e-05
7.36589e-05
2.45148e-05
2.0974e-05
7.83566e-05
7.31634e-05
7.38492e-05
7.42886e-05
1.77185e-05
2.52616e-05
7.51716e-05
7.31317e-05
7.57323e-05
8.27618e-05
2.19692e-05
1.85098e-05
7.73945e-05
7.58553e-05
7.51365e-05
7.72255e-05
2.6014e-05
2.23998e-05
8.50085e-05
7.7782e-05
7.77115e-05
7.80902e-05
1.83443e-05
2.57772e-05
7.91941e-05
7.70097e-05
8.02029e-05
8.82409e-05
2.29913e-05
1.95952e-05
8.2337e-05
8.00684e-05
7.93506e-05
8.23308e-05
2.76346e-05
2.42785e-05
9.32791e-05
8.35592e-05
8.26951e-05
8.46837e-05
2.04838e-05
2.89478e-05
9.38798e-05
8.33962e-05
8.2764e-05
9.39112e-05
2.7465e-05
2.49218e-05
9.58839e-05
8.93009e-05
8.56013e-05
8.78654e-05
2.15184e-05
3.17098e-05
9.73052e-05
8.68257e-05
8.55985e-05
9.22185e-05
2.83559e-05
2.61253e-05
9.55085e-05
8.97873e-05
8.65117e-05
8.78594e-05
2.27731e-05
3.34712e-05
9.72685e-05
8.73059e-05
8.64855e-05
9.56149e-05
3.11961e-05
2.70178e-05
9.94098e-05
9.25898e-05
8.82181e-05
9.0284e-05
2.2923e-05
3.4769e-05
9.9755e-05
8.88594e-05
8.79078e-05
9.65932e-05
3.30831e-05
2.99261e-05
0.000105377
9.48866e-05
9.15264e-05
9.43183e-05
2.44821e-05
3.7552e-05
0.000100573
9.09517e-05
9.04107e-05
0.000102784
3.81558e-05
3.88016e-05
0.000111729
9.30467e-05
9.18158e-05
0.000105239
3.61937e-05
3.35329e-05
0.000112419
0.000101987
9.61254e-05
0.000100449
2.84103e-05
4.21223e-05
9.87394e-05
9.53265e-05
9.56076e-05
0.000113392
4.26384e-05
4.49322e-05
0.000109151
9.47564e-05
9.62302e-05
0.000114162
4.72932e-05
5.06812e-05
0.000110208
9.5358e-05
9.70094e-05
0.000115737
5.28675e-05
5.48313e-05
0.000115902
9.7045e-05
9.89801e-05
0.000123082
5.57011e-05
5.44757e-05
0.000125728
9.92981e-05
0.000102354
0.000133375
5.2836e-05
5.08559e-05
0.000140076
0.000103177
0.000107999
0.000148686
4.89841e-05
4.70309e-05
0.000155482
0.00010946
0.000116241
0.000163501
4.53524e-05
4.37206e-05
0.000162439
0.000118095
0.000126366
0.000169347
4.23525e-05
4.10604e-05
0.000170437
0.00012875
0.00013873
0.000175427
3.99731e-05
3.8981e-05
0.000178094
0.000141853
0.000154468
0.000181246
3.81309e-05
3.73635e-05
0.000184105
0.000158361
0.000172435
0.00018719
3.6712e-05
3.61326e-05
0.000190021
0.00017673
0.000191174
0.00019344
3.56367e-05
3.5219e-05
0.000196475
0.00019633
0.000211272
0.00020001
3.48424e-05
3.45731e-05
0.000203213
0.000217072
0.000232431
0.000206927
3.4265e-05
3.41449e-05
0.000210313
0.000233818
0.000249627
0.000213985
3.38911e-05
3.38873e-05
0.000217415
0.000250168
0.000265604
0.000221181
3.36839e-05
3.37456e-05
0.000224461
0.000266054
0.000280817
0.000228098
3.36019e-05
3.36867e-05
0.000231325
0.000280989
0.000295147
0.000234703
3.35974e-05
3.36935e-05
0.000237709
0.000295052
0.000308374
0.00024089
3.36216e-05
3.37381e-05
0.000243594
0.000307805
0.000320212
0.000246627
3.37411e-05
3.38021e-05
0.00024911
0.000319614
0.000331051
0.000251915
3.37938e-05
3.38747e-05
0.000254102
0.000330264
0.000341008
0.000256743
3.3871e-05
3.39443e-05
0.000258569
0.000340009
0.00034989
0.000260953
3.39462e-05
3.40126e-05
0.000262504
0.000348719
0.000358056
0.000264739
3.40118e-05
3.40703e-05
0.000265929
0.000356693
0.000365339
0.000267958
3.40683e-05
3.41217e-05
0.000268881
0.000363838
0.000372079
0.000270749
3.41132e-05
3.41614e-05
0.00027142
0.000370425
0.000378134
0.000273047
3.41519e-05
3.41955e-05
0.000273535
0.000376382
0.000383812
0.000275034
3.41799e-05
3.42184e-05
0.000275312
0.000381937
0.000388986
0.000276621
3.42022e-05
3.42367e-05
0.000276761
0.000387043
0.000393895
0.000277986
3.42153e-05
3.42457e-05
0.000277963
0.000391853
0.000398538
0.000279047
3.42251e-05
3.42529e-05
0.000278933
0.000396383
0.000402998
0.000279976
3.42285e-05
3.42546e-05
0.00027974
0.000400691
0.000407177
0.000280676
3.42312e-05
3.42564e-05
0.000280391
0.00040476
0.000411185
0.000281298
3.42301e-05
3.42539e-05
0.000280921
0.000408635
0.000414937
0.000281748
3.42287e-05
3.42525e-05
0.000281354
0.000412318
0.000418606
0.000282166
3.42255e-05
3.42485e-05
0.000281692
0.000415877
0.000422034
0.00028243
3.42232e-05
3.42458e-05
0.000281955
0.000419234
0.000425407
0.000282697
3.4219e-05
3.4241e-05
0.000282147
0.00042246
0.000428465
0.000282809
3.42158e-05
3.42372e-05
0.000282274
0.000425421
0.000431443
0.000282952
3.42108e-05
3.42318e-05
0.000282344
0.000428241
0.000434118
0.000282941
3.42071e-05
3.42275e-05
0.000282361
0.000430879
0.000436712
0.000282982
3.42019e-05
3.42218e-05
0.000282331
0.000433363
0.000439151
0.000282878
3.41981e-05
3.42176e-05
0.000282277
0.000435724
0.000441558
0.000282845
3.41931e-05
3.42118e-05
0.00028218
0.000438036
0.000443736
0.00028268
3.41893e-05
3.42076e-05
0.000282074
0.00044025
0.000445905
0.000282603
3.41844e-05
3.42022e-05
0.000281938
0.000442345
0.000447577
0.00028241
3.41811e-05
3.41987e-05
0.00028181
0.000444367
0.000448637
0.000282318
3.41774e-05
3.41946e-05
0.000281657
0.000446197
0.000449644
0.000282109
3.41754e-05
3.41921e-05
0.000281509
0.000447949
0.000450537
0.000281997
3.41727e-05
3.41886e-05
0.000281337
0.00044955
0.000451375
0.000281769
3.41711e-05
3.41864e-05
0.000281172
0.000451067
0.000452166
0.000281643
3.41687e-05
3.41832e-05
0.000280987
0.000452534
0.000452883
0.000281405
3.41673e-05
3.41812e-05
0.000280813
0.000453877
0.000453561
0.000281272
3.41651e-05
3.41782e-05
0.000280623
0.000455202
0.000454183
0.00028103
3.41638e-05
3.41765e-05
0.000280447
0.00045642
0.00045478
0.000280896
3.41619e-05
3.41738e-05
0.000280257
0.00045763
0.000455332
0.000280657
3.41609e-05
3.41724e-05
0.000280087
0.000458538
0.000455857
0.00028053
3.41593e-05
3.41704e-05
0.000279907
0.000458929
0.000456306
0.000280299
3.41587e-05
3.41694e-05
0.000279744
0.000459527
0.000456726
0.000280173
3.41575e-05
3.41676e-05
0.000279561
0.000459817
0.000457085
0.000279939
3.41571e-05
3.41665e-05
0.000279393
0.000460331
0.000457429
0.000279809
3.41557e-05
3.41642e-05
0.000279206
0.000460545
0.000457722
0.000279571
3.41547e-05
3.41626e-05
0.000279034
0.000460995
0.000458009
0.000279438
3.41526e-05
3.41597e-05
0.000278843
0.000461152
0.000458248
0.000279197
3.4151e-05
3.41575e-05
0.000278667
0.000461549
0.000458484
0.000279063
3.41483e-05
3.4154e-05
0.000278476
0.000461654
0.000458679
0.000278822
3.41461e-05
3.41511e-05
0.000278302
0.00046201
0.000458878
0.00027869
3.41428e-05
3.41471e-05
0.000278113
0.000462074
0.000459036
0.000278453
3.41399e-05
3.4144e-05
0.000277942
0.000462394
0.000459201
0.000278325
3.41362e-05
3.41397e-05
0.000277759
0.000462423
0.000459328
0.000278095
3.41328e-05
3.41363e-05
0.000277595
0.000462713
0.000459466
0.000277975
3.41286e-05
3.41315e-05
0.000277419
0.000462713
0.000459566
0.000277751
3.41247e-05
3.41277e-05
0.000277261
0.000462972
0.000459672
0.000277636
3.412e-05
3.41224e-05
0.000277089
0.000462934
0.000459733
0.000277417
3.41157e-05
3.41181e-05
0.000276935
0.000463152
0.000459798
0.000277306
3.41104e-05
3.41122e-05
0.000276766
0.000463071
0.00045982
0.000277089
3.41054e-05
3.41072e-05
0.000276614
0.000463248
0.00045985
0.000276979
3.40995e-05
3.41007e-05
0.000276445
0.000463133
0.000459842
0.000276763
3.40938e-05
3.4095e-05
0.000276294
0.000463283
0.000459846
0.000276654
3.40871e-05
3.40877e-05
0.000276125
0.000463139
0.000459807
0.000276438
3.40808e-05
3.40814e-05
0.000275973
0.000463253
0.000459772
0.000276329
3.40735e-05
3.40736e-05
0.000275804
0.000463065
0.000459693
0.000276115
3.40666e-05
3.40668e-05
0.000275654
0.000463144
0.000459633
0.000276007
3.40586e-05
3.40584e-05
0.000275489
0.000462938
0.000459547
0.000275797
3.40511e-05
3.40512e-05
0.000275343
0.000463013
0.000459484
0.000275693
3.40426e-05
3.40423e-05
0.00027518
0.0004628
0.000459383
0.000275485
3.40349e-05
3.40347e-05
0.000275037
0.000462853
0.000459296
0.000275385
3.40261e-05
3.40256e-05
0.000274878
0.000462616
0.000459179
0.000275183
3.40181e-05
3.40177e-05
0.000274741
0.00046266
0.000459092
0.000275089
3.40092e-05
3.40084e-05
0.000274587
0.000462428
0.00045898
0.000274891
3.40011e-05
3.40005e-05
0.000274454
0.000462471
0.000458884
0.000274801
3.39923e-05
3.39913e-05
0.000274304
0.000462221
0.000458749
0.000274608
3.39845e-05
3.39838e-05
0.000274176
0.00046224
0.000458632
0.000274524
3.39761e-05
3.3975e-05
0.000274033
0.000461973
0.000458494
0.000274338
3.39688e-05
3.39679e-05
0.000273911
0.000461999
0.000458391
0.000274259
3.39607e-05
3.39595e-05
0.000273771
0.00046175
0.000458267
0.000274076
3.39536e-05
3.39525e-05
0.000273652
0.00046178
0.000458118
0.00027399
3.39457e-05
3.39432e-05
0.000273524
0.000461559
0.00045808
0.000273882
3.39372e-05
3.39563e-05
0.000273655
0.000461423
0.000457973
0.000273939
3.39675e-05
3.39658e-05
0.000273514
0.000461368
0.000457782
0.000273859
3.39617e-05
3.39703e-05
0.000273607
0.000461604
0.000457534
0.000274565
3.41051e-05
3.42427e-05
0.000274484
0.00046386
0.000469617
0.000277991
3.49518e-05
3.58413e-05
0.000281203
0.000475586
0.0005105
0.000293511
3.8414e-05
4.06517e-05
0.000308915
0.000530758
0.000561187
0.000328873
4.32607e-05
0.000655857
0.000544883
0.000521624
0.000576562
0.00077223
0.000979019
0.00115981
0.00131583
0.00410969
0.00657097
0.00942001
0.0125294
0.0158171
0.0193629
0.02339
0.0285034
0.0355218
0.0453455
0.0587225
0.0761666
0.0979469
0.124108
0.154337
0.188099
0.223913
0.260307
0.294032
0.322819
0.344374
0.357958
0.364584
0.372283
0.382424
0.393691
0.405347
0.417048
0.42863
0.439955
0.451139
0.462274
0.473509
0.48498
0.496828
0.509193
0.522219
0.536054
0.550856
0.56681
0.584108
0.602983
0.623736
0.646795
0.672818
0.658729
0.513521
0.427032
0.37752
0.336348
0.295368
0.259386
0.230137
0.204149
0.180198
0.159002
0.140299
0.123773
0.109276
0.0966415
0.0856553
0.0760934
0.0677731
0.0605358
0.0542282
0.0487342
0.0439391
0.039763
0.0361265
0.0329626
0.030216
0.027835
0.0257769
0.0240004
0.0224719
0.0211568
0.0200303
0.0190675
0.01825