/*--------------------------------*- C++ -*----------------------------------*\
| =========                 |                                                 |
| \\      /  F ield         | OpenFOAM: The Open Source CFD Toolbox           |
|  \\    /   O peration     | Version:  v2006                                 |
|   \\  /    A nd           | Website:  www.openfoam.com                      |
|    \\/     M anipulation  |                                                 |
\*---------------------------------------------------------------------------*/
FoamFile
{
    version     2.0;
    format      ascii;
    class       volScalarField;
    location    "0.006";
    object      omega;
}
// * * * * * * * * * * * * * * * * * * * * * * * * * * * * * * * * * * * * * //

dimensions      [0 0 -1 0 0 0 0];


internalField   nonuniform List<scalar> 
11076
(
0.0134438
0.0133287
0.0103824
0.0104032
0.0105013
0.0107163
0.010977
0.0111753
0.0113853
0.01159
0.0118075
0.011995
0.0121354
0.0122006
0.0121976
0.0121317
0.0119941
0.0118018
0.0115779
0.0113334
0.0110827
0.0108366
0.0106017
0.0103823
0.0101804
0.00999622
0.00982887
0.0096772
0.00954005
0.00941637
0.00930523
0.00920586
0.00911757
0.00903965
0.00897131
0.00891166
0.00885979
0.00881498
0.00877671
0.00874475
0.00871919
0.00870042
0.00868915
0.0086864
0.00869362
0.00871276
0.00874669
0.00880036
0.00888459
0.00902904
0.00932318
0.0100415
0.0120075
0.0176068
0.0335044
0.0779992
0.201196
0.531867
1.37853
3.26949
6.25794
9.48209
12.0673
12.6018
9.235
22.367
55.1287
133.699
499.718
4391.21
24082.2
336712
327701
48743.5
11261.1
17327.7
62036
318762
309184
66146.7
20946.7
23784.4
68899.8
296819
287905
68750
25532
27204.2
70300.9
279730
274409
70194
28129.7
29022.3
69924
268492
264044
69348.9
29353.6
29857
69113.7
259445
255944
68388.3
29822.4
30025.4
68111.4
252070
249046
67422.4
29921.6
30018.1
67207.2
245601
242898
66594.9
29856.4
29918.6
66464.4
239846
237477
65962.5
29747.6
29826.9
65921.3
234850
232845
65569.1
29706.7
29845.2
65591.1
230652
229004
65362.6
29790.9
30008.2
65422.6
227204
225852
65271.8
29968.3
30226.6
65355.3
224345
223190
65240.1
30202
30489.3
65350.8
221873
220839
65262.2
30471.5
30764.2
65388.8
219628
218655
65304.5
30745.2
31024.2
65422.7
217466
216489
65326.7
30998.7
31252.5
65428.9
215246
214214
65318.1
31217.6
31439.8
65399.5
212872
211761
65260.4
31393.7
31582.5
65318.2
210301
209094
65145.7
31526
31685.9
65192.7
207504
206194
64994.9
31621.1
31758.3
65028.9
204473
203060
64802.3
31687.4
31810.7
64823.4
201218
199710
64569.2
31733.6
31846.9
64578.7
197761
196167
64302.6
31763.8
31874.6
64304.1
194120
192442
64018.1
31798.2
31924.4
64016.4
190296
188528
63730.1
31864.4
32011.9
63725.8
186269
184393
63439.7
31958.1
32120
63432.2
181992
179982
63147.4
32075.2
32254.8
63134.1
177404
175231
62842.6
32218.4
32415.9
62823.3
172445
170082
62527.5
32390.3
32612.8
62503.8
167053
164465
62208.3
32603
32859.6
62185.9
161151
158292
61906.2
32881.7
33195.6
61894.5
154647
151439
61673.7
33279.6
33702.6
61687.9
147415
143686
61599.6
33896.5
34504.4
61720.6
139205
134736
61794.5
34950.9
35875.9
62202.1
129385
124910
62865.1
36901.3
38604.7
64214.1
119047
112858
65970.2
41112
44741.5
68842.7
102675
87565.5
72083.9
52094.2
54507.9
67588.3
89839.5
95442.8
53143.1
55669.5
52029
46659.2
102419
106603
42387.8
46879.6
40150.2
35058.9
107380
103451
29866.6
32852.9
24452.4
21345.5
95019.3
92306.3
17908.3
17198
12071
17158.4
91718.1
91808
17740.8
9965.57
8873.59
18820.9
92076.6
92160.7
18168.4
7831.37
7192.5
18627.5
92159.9
91918.4
15928.4
6548.45
6279.45
15072.4
91489.5
90153.8
12394
6137.38
6043.67
11970.1
88993
87560.6
11760.5
6037.98
6022.97
11641.7
86021.1
84535.6
11511.4
6117.9
6272.36
11263.5
83011.3
81741.9
11256.7
6356.6
6065.52
11209.5
81916.3
82838.6
11167.6
5811.77
5740.55
11320.9
84023.2
85174.6
11684.3
5849.26
6328.79
12274
86279.8
87406
13913.9
7075.94
7757.79
14686.4
88168.5
88832
15230.9
8415.34
9955.6
15666
89433.2
90760.7
16917.1
12467.5
16075.8
19705.1
92815.3
94402.5
21297.4
19613.8
23659.2
23127
94719
94198.2
27508.8
26760.6
28304.8
29440.5
92303.8
89836.2
30074.7
29542.2
31978.5
32891.5
88246
87811.4
39466.9
32031.4
29393.6
43260
88077.8
87358.7
43325
27417.1
25727
41582.3
86543
87101.5
39740.9
24250.2
23035.1
38498.5
88144.9
89154.3
37751.2
22187.1
21397.7
37041.1
90168
91054.8
36584
20890.4
20322.4
36062.7
91909.7
92585.2
35768.2
20017.9
19584
35363
93241.1
93741
35190.7
19417.6
19092.9
34883.8
94231.6
94591.9
34792.7
18994.7
18746
34566.3
94945.5
95188.2
34517.2
18690.8
18492.6
34371
95408.8
95544
34371.2
18468.3
18305.4
34308.7
95645.6
95707.9
34353.7
18299.5
18140
34323
95743.7
95761.9
34429
18134.8
17944.3
34424.2
95772
95731.6
34622.7
17921.1
17652.6
34651.5
95705.4
95580.9
34897.6
17584.2
17180.2
34940.5
95484.9
95289.8
35167.8
16996.5
16364.9
35173.3
95163.5
94893.8
35262.7
15854.2
14672.2
35020
94616.5
94403.7
34624.6
13347
10946.3
33102.2
93700.8
93472.7
30268
8473.87
5839.84
24511.2
91519.9
88826.9
16246
4183.69
2505.46
6112.03
86312.8
2048.75
2000.67
1996.91
1995.61
1994.37
1995.04
1993.81
1994.38
1994.27
1994.69
1994.77
1995.38
1994.96
1995.06
1995.07
1999.76
2022.23
2025.26
1999.98
1996.41
1996.83
2003.41
2019.01
2177.42
3044.33
20333.1
299382
346355
65533.3
10782
22603
97214.4
406149
470170
115764
39829.1
44224.8
113978
502154
515532
114881
49400.3
48583.5
109008
521409
528103
110485
50903.6
50050.5
107376
528521
528105
110270
51741.7
50953.9
108035
528200
528134
110748
52455
51521.1
108680
528269
528216
111087
52782.4
51657
109224
528372
528308
111885
52780.7
51540.6
109826
528463
528400
112496
52618.7
51386.6
110405
528552
528481
113289
52493.4
51256.9
110970
528626
528565
113818
52375.8
51129.3
111483
528719
528642
114542
52260
50998.2
111998
528785
528721
115009
52136.8
50865.7
112485
528880
528797
115649
52035.8
50746
112975
528954
528882
116103
51914.9
50630.6
113450
529048
528968
116714
51829.3
50525.8
113943
529142
529072
117158
51725.7
50434.8
114434
529258
529183
117800
51651.2
50349.2
114958
529371
529316
118233
51578
50263.6
115495
529537
529468
118895
51522.5
50182.7
116066
529704
529652
119350
51433.4
50093.9
116652
529917
529865
120036
51349.9
49984.1
117274
530155
530127
120505
51240.8
49850.1
117907
530472
530444
121231
51103.5
49669.9
118523
530828
530843
121896
50912.1
49426.3
119164
531309
531350
122760
50661.8
49101.6
119770
531890
532005
123465
50290.4
48662.7
120392
532658
532848
124181
49799.8
47954.9
120962
533661
534042
123832
48964.5
46943.3
121590
535068
535583
124324
47803.4
46147.4
122072
536761
537312
125725
46948.6
45415.5
124050
531554
519726
125401
46326.4
44004.1
121520
508803
498436
123929
44981.7
42404.7
118294
487967
478952
118445
42527.1
39658.6
112963
464775
446594
112462
39726.6
36543.8
105877
434742
419188
103227
36102.5
32823
98234.9
404550
391488
93490.4
35961.1
23464.7
96740.2
373935
357509
62933.1
16225.3
14119.6
36842.6
170826
105343
27837.5
9029.91
13383.5
32699.2
109829
112066
31167.1
12449.2
10582.7
25300.4
94953.9
79260
21218.6
8988.99
7924.37
18506.3
70563.3
63647.1
16308.1
7133.89
6478.38
14653
58956.2
54812.2
13007.2
6103.49
5088.75
11269.3
53818.8
56235.6
12768.8
6836.88
6927.39
12959.2
61088.2
58992.2
11805.9
6729.44
7133.71
11700.5
57626.6
58744.8
10717.7
6812.06
9396.52
14144.2
66924.5
78483.3
15893.1
9926.66
12979.5
17129.4
89120.4
94759.6
18324.8
15701.2
16189.4
18531.4
90705.7
83395.8
19137.8
18708.8
18675.1
20888
76892.6
76461.6
21598.3
22914.2
26481.6
24676.6
71772.4
64744.8
28910.3
29004.9
28152.4
32774.3
53904.3
49287.2
36746.4
33449
33308.5
43659.2
41729.1
36090.4
44335.5
32054.5
34822.5
48277.2
29585.8
26120.8
48169.1
34232.8
34039.8
47088.7
20961.6
18352
47896.1
34023.7
38148.6
50592.7
16893.1
16296.7
55328.8
37971
48889.9
52939.3
16809.9
17453.8
42248.5
49172.1
41457.5
28633.8
20080.3
22209.1
25580
28051.4
26489.8
25933.4
25778.7
28506.8
27490.5
27699.6
30666.9
32266.9
33358.1
38582.1
37819.7
35075.2
46983.3
43191
44103.8
49025.4
49227.2
49370
55585.6
58475.1
56758.3
60183.4
61760.3
69760.8
66266.4
63380.4
63280.2
60052.3
62404.8
69611.5
85838.6
62396.5
71628.6
72657.4
55843
59361.2
59481.6
67704.2
74573.5
67098.6
70601.9
62485.1
62803.3
70423.6
61020.1
44164.1
74326.1
69787
70912.6
87176.5
89325.7
116697
94473.4
69813.4
68166.7
97079.7
135857
144258
93772.2
64236
54966.4
81508.5
151897
162324
81778.3
57809.7
57592.2
79872.7
165322
167927
73994.4
54457.4
59654.5
81982.4
188809
215697
93776.4
64119
66588.1
104734
222745
236756
102094
60489.8
71196.7
148304
390650
565986
237643
74501.2
74915.5
130416
441792
580796
177336
109946
130854
230539
917211
665313
307750
164106
94431.5
108493
539302
804765
225037
122378
144803
274504
590400
466425
96955.4
83727
107834
192122
596250
933859
231764
132036
163085
314043
678607
559710
109540
91613.3
123652
230720
838568
637255
294440
150941
85990.6
104302
538930
799035
222737
119659
144052
283632
608272
520942
97856.1
81136.2
109726
205300
752534
559980
255858
127119
70710.5
85406.6
455951
573147
167750
92132.7
117353
216105
916008
671342
300578
146761
79468.6
105974
565405
855088
216797
111717
133973
287758
641590
548488
91352.1
70336.8
98366.1
189879
819284
607314
259551
118539
65171.9
87769
511286
770824
171963
92514.7
112928
238842
569045
482863
93345.9
66991.2
94574.1
173217
775857
581790
244458
117366
70482
102600
501533
826870
180338
101403
136171
265408
665238
650412
128181
74288.9
104807
202096
485862
463825
106701
63210.9
85913.8
155829
688097
514300
179771
94558.6
66271.5
118112
485681
717875
157598
81890.3
74820.6
137764
514606
446411
118566
66841.4
84245.3
162252
703510
552566
129115
68716.1
66260.3
118552
447755
762141
176489
90430.1
70393.5
138715
674386
545930
165474
86874.4
60705.2
111084
498365
396869
115539
63117.1
96706.4
195309
655711
580328
120013
64656.3
66902.5
125620
454777
758179
242318
115718
66014.9
121817
695674
566646
209742
106801
63122.9
108546
504567
408586
118870
65116.7
115956
245725
669187
564539
117625
68181.1
69712.7
128624
450761
784058
290514
133080
76202.1
113302
701399
592564
249371
119809
67747.7
112358
515318
427229
126777
70358.6
139062
301873
743223
664404
106815
80874.7
125236
254542
576642
494777
113718
70588.9
72759.2
128393
412816
704554
294111
138649
78137.4
125198
574217
467891
139294
79294.1
158715
343179
818040
711643
109655
91317.7
142348
279387
638897
543322
129255
79649.4
82664.9
146388
461463
827873
361088
168912
97429.4
118808
714604
643489
285458
149493
83996.1
131189
534902
457549
148436
86964.1
173985
367164
815368
705776
121952
103324
157504
290710
645827
542421
138398
88609.3
92278.1
156989
471336
838376
382452
184056
109195
129980
714308
662257
299365
164894
93005.7
141802
537604
469854
160331
96706.3
190562
388369
836305
712083
137418
113774
171835
305762
667811
549217
148244
97708.3
102006
168150
483861
863109
403075
200256
119902
144763
731137
684647
316309
179088
102159
153402
547240
484330
173024
106476
205606
407819
860463
730059
150209
124367
186293
323037
691638
561527
160780
106947
111761
181532
501976
898054
428542
217279
130351
159809
748266
708215
336985
194562
112018
166389
561755
502375
187639
116705
222819
430543
900508
751228
166343
134991
202370
346951
722284
581052
175375
117127
122338
197490
522360
929554
451154
233867
141587
176656
774398
743962
360484
210857
122225
180583
584987
527838
202036
127401
240425
455960
937966
782936
181708
146788
218709
370758
758650
601945
189613
127406
133023
213081
547636
973753
477136
251567
153422
191966
800306
773546
382793
227021
132472
194789
608218
552972
217133
138047
257666
484401
977746
808809
197448
158480
234612
392920
786542
628684
204217
137820
143913
229103
575281
1.02133e+06
504713
269420
165266
207939
831190
804695
402044
242677
142534
207176
627400
574362
230554
148414
272758
502338
1.00712e+06
833856
209712
168970
248761
409886
819143
648749
216483
147121
153476
241308
597735
1.04351e+06
526772
283853
175485
220887
851689
831684
420221
256406
151597
219546
646719
598612
243306
157675
288638
528519
1.04674e+06
855179
225539
179727
262611
427033
841460
664962
227130
156007
162777
253211
617669
1.0656e+06
539163
295670
184089
231973
862524
852921
435025
267268
158026
228756
656181
603912
251640
163537
290821
523583
1.01233e+06
770769
244250
172845
177761
267945
698260
1.18908e+06
593439
323233
198102
250802
943290
930324
474174
289454
171295
248902
721461
671448
274474
177833
325422
592282
1.15329e+06
926185
257340
201953
293267
473644
914934
704544
250255
173451
180531
277150
654320
1.08909e+06
568563
319018
189029
267940
832229
756918
288112
193289
350976
644294
1.27282e+06
1.01004e+06
275242
216562
317050
514735
1.00147e+06
767891
272143
187066
193428
299556
713265
1.1784e+06
611171
341983
202679
287744
884865
803445
308398
206391
371134
674512
1.33651e+06
1.04742e+06
289797
228239
332644
540807
1.04127e+06
792848
283704
195485
203076
312712
737456
1.20969e+06
634601
357153
210800
297686
903918
827718
323063
215290
384534
690106
1.38204e+06
1.07926e+06
300709
237591
346351
558688
1.07687e+06
822312
297243
203715
210417
324426
764002
1.23451e+06
649119
367490
217177
306007
915343
833109
329605
221264
384899
688049
1.34291e+06
982340
321515
225263
227648
342728
877676
1.38273e+06
710519
397099
230835
329197
1.00378e+06
908167
354968
234800
413560
746053
1.44766e+06
1.06133e+06
346684
239531
241138
361386
950714
1.49824e+06
775694
429753
246528
354612
1.08124e+06
972971
379837
250121
440416
786649
1.53134e+06
1.11058e+06
363707
253159
255041
386085
1.00115e+06
1.58294e+06
803350
448527
256093
368132
1.1361e+06
1.01601e+06
392518
258891
456780
814536
1.58511e+06
1.1412e+06
375849
260746
262795
396431
1.0227e+06
1.58818e+06
813930
458159
260657
372712
1.13762e+06
1.02358e+06
397306
263019
462256
822274
1.57823e+06
1.12103e+06
378942
261577
262705
395554
998794
1.5099e+06
777016
443796
249618
360662
1.04931e+06
895426
374520
249954
267234
439254
1.1798e+06
1.77902e+06
911584
487720
269995
403958
1.21336e+06
1.02982e+06
434730
275761
281678
448392
1.33241e+06
1.9639e+06
999572
520249
279276
425832
1.28092e+06
1.0637e+06
439382
280357
294375
499402
1.38056e+06
2.05523e+06
1.03182e+06
544912
292097
444898
1.36844e+06
1.13355e+06
466370
295937
298306
498875
1.4093e+06
1.99251e+06
993284
528671
274153
416604
1.25895e+06
1.03784e+06
431323
270847
270261
444750
1.17585e+06
1.39965e+06
547206
294860
289675
545750
1.667e+06
2.26903e+06
1.15688e+06
576908
288665
465227
1.40237e+06
1.1576e+06
450776
279808
293882
535350
1.31259e+06
1.4369e+06
522062
286640
296226
594243
1.52253e+06
1.57802e+06
592267
289089
297868
634517
1.58478e+06
1.56494e+06
639197
294910
301417
646911
1.53426e+06
1.49076e+06
637262
298183
302549
636181
1.44702e+06
1.40218e+06
612839
298123
301495
614105
1.36e+06
1.31923e+06
598706
297149
300643
601740
1.28277e+06
1.24881e+06
591189
296891
301207
594949
1.21876e+06
1.19132e+06
587112
298469
303317
590862
1.1668e+06
1.14498e+06
583221
300771
305693
586518
1.12519e+06
1.10783e+06
578565
303081
307169
581346
1.09201e+06
1.07834e+06
572352
303907
307378
574650
1.06573e+06
1.05526e+06
565098
303606
306383
566915
1.04517e+06
1.03747e+06
556366
302076
304733
557671
1.02913e+06
1.02418e+06
546533
300642
303154
547497
1.01721e+06
1.01446e+06
535634
299086
301624
536369
1.0087e+06
1.00735e+06
524595
297786
300119
525276
1.00278e+06
1.00221e+06
513411
296213
298472
514095
998730
998691
502854
294610
296698
503691
996420
996247
492785
292657
294655
493734
993794
994612
483664
290749
292559
484844
992899
993470
475161
288556
290300
476475
992032
992702
467630
286340
287947
469196
991459
992186
460716
283947
285521
462406
991073
991840
454699
281598
283071
456629
990799
991600
449199
279137
280605
451223
990608
991444
444461
276765
278159
446702
990495
991343
440109
274322
275734
442412
990423
991282
436385
271998
273358
438878
990391
991246
432921
269628
271023
435446
990378
991240
429974
267394
268752
432667
990400
991263
427187
265130
266534
429888
990449
991336
424830
263014
264390
427687
990544
991440
422556
260876
262305
425402
990668
991583
420557
258883
260288
423606
990835
991764
418664
256873
258336
421712
991034
991976
417021
255010
256450
420263
991266
992211
415453
253132
254634
418674
991517
992468
414093
251401
252879
417485
991790
992738
412764
249652
251193
416118
992074
993029
411612
248046
249563
415125
992380
993329
410467
246417
247999
413933
992693
993643
409486
244939
246496
413106
993018
993957
408501
243438
245059
412068
993342
994276
407669
242079
243677
411383
993671
994592
406819
240695
242360
410474
993997
994915
406113
239459
241097
409912
994329
995237
405380
238192
239897
409119
994659
995561
404788
237071
238750
408666
994990
995876
404159
235902
237658
407971
995310
996185
403660
234914
236631
407606
995625
996481
403112
233819
235635
406984
995924
996770
402683
232935
234711
406684
996218
997045
402198
231940
233815
406123
996496
997313
401830
231153
232984
405880
996768
997567
401399
230247
232173
405371
997024
997814
401083
229542
231421
405177
997274
998047
400700
228711
230683
404713
997509
998274
400432
228078
229999
404564
997739
998486
400092
227312
229326
404139
997952
998687
399861
226745
228706
404025
998155
998869
399554
226042
228094
403631
998335
999036
399354
225532
227529
403544
998503
999183
399073
224880
226967
403175
998649
999316
398899
224421
226451
403114
998782
999427
398644
223820
225938
402769
998892
999525
398494
223407
225467
402730
998990
999602
398259
222849
224995
402404
999064
999665
398128
222477
224562
402382
999128
999713
397909
221956
224127
402069
999171
999748
397791
221619
223728
402058
999204
999767
397583
221131
223325
401755
999216
999772
397474
220825
222955
401751
999218
999761
397271
220365
222578
401453
999201
999737
397168
220086
222235
401455
999173
999697
396970
219652
221884
401160
999126
999642
396871
219399
221565
401165
999068
999571
396677
218987
221236
400873
998989
999486
396581
218759
220940
400881
998901
999385
396388
218369
220633
400591
998792
999270
396295
218161
220356
400599
998674
999140
396104
217792
220069
400310
998538
999000
396011
217602
219810
400319
998396
998848
395820
217250
219539
400030
998237
998688
395729
217078
219297
400039
998076
998521
395539
216741
219041
399750
997902
998347
395447
216584
218813
399760
997731
998171
395257
216261
218570
399471
997550
997992
395166
216117
218355
399481
997376
997813
394978
215806
218125
399193
997195
997635
394888
215675
217921
399205
997024
997460
394701
215375
217700
398918
996849
997289
394613
215252
217506
398932
996687
997124
394430
214964
217297
398652
996523
996964
394350
214853
217114
398675
996372
996809
394175
214576
216916
398404
996216
996657
394105
214478
216748
398436
996071
996508
393938
214214
216584
398245
995923
996363
393844
214091
216329
398073
995777
995732
393409
213903
216139
397721
994601
995085
393375
213691
215966
397793
994543
994439
392830
213171
215553
396134
990226
985155
389235
210892
207527
385096
967142
938686
377250
202812
183121
349867
879972
821480
329129
171087
154148
301492
774401
71809.9
37385.3
26065.5
17609.5
10656
9063
8636.17
6389.26
4785.4
3906.49
3291.73
2796.6
2396.34
2055.73
1752.48
1467.7
1201.4
964.457
767.06
610.672
490.184
398.317
328.601
275.535
235.63
205.608
184.029
168.944
159.213
153.632
151.063
148.987
146.594
144.242
142.094
140.153
138.43
136.892
135.492
134.18
132.909
131.637
130.326
128.946
127.465
125.856
124.098
122.168
120.049
117.72
115.158
112.33
109.181
105.532
100.988
96.3787
92.6475
89.8931
87.9892
86.9949
86.6274
86.6042
87.1904
88.403
90.05
92.0983
94.5214
97.2642
100.274
103.504
106.925
110.46
114.026
117.516
120.813
123.781
126.305
128.311
129.826
130.931
131.524
131.744
131.768
131.289
129.746
127.354
124.572
121.444
117.757
113.461
108.689
103.552
98.0884
92.3459
86.4011
80.341
74.2428
68.1726
62.2041
56.395
50.8048
45.4815
40.4641
35.7829
31.4565
27.4983
23.9122
20.6937
17.8336
15.3171
13.1244
11.2338
9.62156
8.26233
7.13053
6.20005
5.44591
4.8424
4.36662
3.99527
3.70836
3.48616
3.31245
3.17207
3.05297
2.94483
2.8399
2.73231
2.61823
2.4954
2.36317
2.22213
2.07402
1.9215
1.76797
1.61732
1.47375
1.34149
1.22465
1.12787
1.07616
1.05998
1.05877
1.0743
1.11697
1.18639
1.27777
1.38426
1.49751
1.608
1.70561
1.76241
1.77923
1.7778
1.75007
1.69095
1.60582
1.50212
1.38709
1.26684
1.14592
1.02733
0.912857
0.803521
0.699985
0.602759
0.512326
0.429097
0.353449
0.285737
0.226231
0.175163
0.13244
0.098119
0.0714502
0.0517742
0.0360034
0.0225044
0.0223778
0.0227111
0.0235591
0.0247736
0.02631
0.0283287
0.0308863
0.0338973
0.0371601
0.0404039
0.0433248
0.0456292
0.0470817
0.0475667
0.0470488
0.045619
0.0435344
0.0411137
0.0384492
0.0356929
0.0329826
0.0303869
0.027949
0.0256993
0.0236591
0.0218401
0.0202502
0.0188962
0.0177852
0.0169214
0.0163039
0.0159254
0.0157698
0.0158167
0.0160486
0.0164486
0.0170053
0.0177123
0.0185695
0.0195816
0.0207585
0.0221158
0.0236765
0.0254785
0.0275987
0.0302355
0.0339705
0.0405684
0.0552666
0.0929765
0.194208
0.462831
1.14701
2.84039
6.90033
15.8473
32.2473
54.9772
80.4442
116.932
246.674
940.535
2112.56
6104.16
7031.75
7621.09
8363.56
8725.97
9256.97
9461.54
9834.8
9944.51
10209.5
10275
10470.1
10519.6
10695.5
10750.7
10944.2
11014.8
11238
11322.5
11570.6
11663.7
11924.5
12018.1
12275.5
12362.4
12604
12679.9
12898
12960.4
13151.7
13200.7
13365.9
13402.9
13545.4
13572.8
13697.5
13718.3
13831.2
13849
13957.4
13976.8
14090.5
14116.5
14244.6
14279.9
14425.4
14469.7
14631.8
14684.8
14862
14922.7
15114.2
15184.3
15394.4
15479
15719.1
15828.8
16120.7
16273.4
16653.8
16880.7
17394.8
17801.9
18515.4
19337.7
20411.6
22175.3
24204.7
28233.6
32546
37831.6
42374.1
43124
41760.6
38936.4
34350
28452.4
21534
15943.1
12211.5
10597.2
8029.29
7052.3
6392.83
6216.89
5686.32
5540.73
5273.62
5192.8
5210.81
5208.81
5060.51
5042.36
5068.7
5319.39
6121.81
7087.43
8430.77
9902.47
12483
15511.5
18636.7
21463.1
23679.8
24697
24630.6
23178.9
20794.7
18484.9
16388.1
14643.5
13259
12173.6
11191.2
10576.4
9890.96
9530.55
9022.59
8794.1
8412.32
8250.05
7947.29
7822.24
7559.5
7452.04
7206.22
7106.36
6871.64
6776.67
6539.07
6437.45
6170.49
6046.51
5737.96
5584.62
5250.76
5044.02
4662.08
4384.92
3914.67
3496.57
2953.76
2734.89
2446.75
2283.47
2007.03
2012
1983.86
1993.67
1982.93
1974.44
1953.09
1984.47
2036.25
2043.11
1964.12
1967.07
2088.86
2102.18
1940.12
1915.73
1880.11
1947.15
2172.68
2179.14
1917.53
1928.62
2249.32
2248.75
1897.13
1847.95
1820.47
1911.96
2320.83
2317.06
1879.46
1899.5
2398.64
2392.52
1864.99
1797.4
1775.31
1891.93
2483.56
2476.67
1855.06
1889.37
2578.55
2573
1850.01
1758.22
1741.66
1892.94
2692.43
2691
1849.58
1904.2
2833.94
2840.71
1856.37
1727.49
1717.96
1929.93
3013.31
3031.88
1874.51
1971.08
3241.08
3274.13
1908.38
1713.01
1719.26
2037.99
3532.96
3591.41
1967.33
2147.74
3928.6
4034.27
2068.72
1738.91
1775.11
2333.61
4502.46
4691.5
2244.96
2655.15
5381.15
5714.18
2563.19
1844.27
1975.65
3233
6776.32
7366.3
3147.59
4253.51
8964.56
9984.36
4175.4
2221.93
2661.15
5840.55
11929.7
13051
5698.55
7753.35
14744.3
15673.1
7496.69
3357.55
4406.3
9652.62
16642
16249.7
9308.73
11083.1
15367.1
14040.2
10682.7
5506.82
6293.03
10970.4
12597.9
11082.6
9987.01
9340.86
9298.9
7696.13
8153.49
6265.68
5726.58
6730.84
6364.99
5335.45
5669.83
4926.93
4875.71
4710.47
4740.28
5381.82
6387.08
4966.65
4775.77
4894.77
5281.18
5969.36
5033.4
5593.96
6983.2
8024.23
10506.1
8952.71
6798.32
7869.11
9965.91
12730.3
10092.9
10947.9
13934.6
12654
13721.7
16059.9
13367.2
15556.3
16863.2
18534.8
19081.7
20323.9
19810.3
14013.7
13300.2
20361.7
22889
24812.5
21209.2
19968.8
27614.4
29249.3
19819
11372.5
9449.41
16896.6
29185.5
28377.5
17253.3
13872.4
25299.2
23502.1
14168.2
7896.81
6788.33
11250.2
19926.5
17976
11439.9
9415.2
15311.8
14280.1
9631.39
6000.71
5431.74
8269.76
12791.3
12292.2
8527.81
7543.82
11389.8
11160.4
7830.48
5016.21
4705.23
7056.76
10550.4
10459.5
7361.26
6707.81
10004.3
9983.11
7023.95
4458.22
4250.69
6440.6
9613.18
9626
6762.34
6221.17
9311.07
9340.41
6544.86
4065.67
3892.43
6034.68
9061.29
9099.22
6352.69
5859.9
8839.59
8881.97
6173.08
3726.57
3567.3
5692.01
8633.8
8678.99
6001.51
5531.63
8439.87
8487.5
5838.33
3416.17
3275.19
5381.3
8259
8310.78
5684.9
5241.83
8094.05
8150.11
5541.92
3145.5
3026.23
5112.54
7945.48
8005.7
5412.76
4992.11
7810.06
7872.68
5290.51
2913.3
2802.01
4873.71
7679.27
7741.37
5164.34
4747.56
7542.38
7601.18
5025.05
2689.05
2572.56
4606.48
7391.43
7445.7
4875.21
4452.85
7221.82
7270.13
4712.4
2449.88
2320.83
4284.06
7029.16
7070.34
4533.79
4100.75
6810.66
6843.77
4338.59
2187.36
2048.27
3902.71
6565.59
6590.52
4126.85
3692.2
6297.67
6315.89
3902.8
1904.03
1759.11
3476.86
6015.71
6029.76
3674.6
3265.76
5732.43
5746
3451.25
1617.95
1483.7
3066.27
5461.53
5477.79
3240.28
2882.88
5212.71
5233.18
3045.42
1358.12
1240.54
2714.49
4986.98
5010.11
2863.65
2552.92
4772.89
4793.2
2684.54
1127.6
1013.35
2384.18
4546.3
4554.93
2491.6
2190.59
4272.74
4254.56
2265.12
889.402
749.958
1954.96
3913.5
3850.54
1986.11
1669.55
3447.39
3302.15
1641.33
591.484
417.505
1328.87
2848.38
2594.21
1224.07
192.416
275.1
355.068
429.096
498.143
564.547
634.015
707.742
786.058
868.818
955.338
1044.46
1134.64
1224.43
1313.27
1401.06
1487.72
1573.54
1657.94
1742.27
1828.5
1919.24
2016.37
2120.48
2231.08
2347.29
2469.32
2598.71
2740.06
2899.51
3086.13
3303.86
3575.23
3902.82
4317.06
4813.46
5511.52
6409.37
7712.25
8889.97
9615.73
9648.18
9384.02
8539.48
7800.21
6342.22
4910.76
4314.46
3567.07
2888.76
2311.1
2005.62
1822
1733.67
1687.73
1664.99
1654.66
1651.55
1656.01
1662.79
1679.45
1692.45
1713.35
1731.96
1751.63
1776.74
1801.78
1831.83
1866.55
1905.64
1948.12
1970.18
1972.87
1985.11
1981.63
1983.21
1968.95
1968.61
1981.95
1983.5
1970.77
1947.84
1951.81
1970.1
1983.02
1984.9
1973.52
1973.01
1984.4
1986.06
1974.92
1955.81
1954.95
1972.48
1984.65
1984.77
1973.46
1986.55
2000.5
2039.9
2099.67
2053.11
2049.51
2111.29
2047.93
1997.33
1983.07
1986.32
1989.47
2000.01
1995.45
2120.67
2081.31
2020.87
2166.53
2265.21
4355.05
3240.34
8976.11
3145.33
2844.69
9910.41
14697.9
4012.67
2287.67
2007.98
2013.04
2491.79
5008.06
3443.05
14772.6
18515.6
18136.4
4259.88
6110.05
2782.14
2058.72
2069.47
2054.13
1917.31
1918.53
1911.11
1904.34
1864.78
1873.14
1881.86
1876.72
1843.43
1850.19
1839.26
1829.19
1798.02
1809.31
1782.83
1771.04
1746.62
1759.49
1775.26
1796.29
1821.8
1812.49
1785.87
1762.19
1737.86
1752.75
1736.29
1723.89
1706.15
1719.14
1697.99
1684.36
1668.16
1680.54
1703.63
1719.44
1737.38
1720.38
1700.39
1684.59
1670.6
1691.35
1665.46
1652.71
1640.45
1651.43
1643.84
1633.14
1630.5
1639.33
1674.47
1673.43
1679.93
1658.37
1656.72
1661.07
1660.21
1681.24
1712.73
1754.69
1799.39
1841.79
1882.94
1918.19
1956.05
1985.05
2014.55
2039.63
2050.56
2075.33
2132.43
2056.79
3024.09
3289.28
3439.86
2114.19
2200.23
2073.27
2063.16
2052.48
2041.74
2356.92
2244.03
2309.2
2205.2
2257.57
2163.65
3735.97
3642.02
8716.33
7025.45
8383.74
6666.26
7924.52
6044.98
7179.43
5211.37
20155.9
20885.9
22252.9
21294.4
22878.7
21867.6
23171.9
22040.1
23214.2
22088.8
7349.65
8951.71
7528.6
21995.4
23207.8
23055.6
9139.94
3907.07
3976.9
9320.51
7747.44
21930
23007.8
21839
7870.07
9438.89
4135.88
4180.03
4322.4
4340.75
2279.3
2396.39
2023.88
2008.07
1985.12
1961.42
2458.83
2338.37
2447.39
2326.85
2425.4
2306.92
4460.63
4470.41
9691.34
8231.33
9700.19
8216.15
9629.68
8109.11
9575.42
8034.77
21786.4
22881.2
22827.2
21661.7
22648.8
21532.2
22525.1
21359.4
22306.9
21198.8
8283.85
9703.43
8248.13
21006
22162.8
21921.3
9638.62
4593.67
4538.49
9621.58
8259.61
20829
21758.9
20612.2
8202.57
9544.87
4674.78
4579.24
4721.61
4580.49
2340.74
2459.32
1931.81
1898.37
1856.43
1820.69
2357.81
2268.92
2412.73
2309.38
2445.67
2331.79
4532.02
4728.27
9265.55
8032.42
9389.03
8117.46
9422.28
8130.43
9521.85
8201.65
20415.4
21502.3
21316.1
20172.9
21029.8
19944.3
20805.6
19660
20468.2
19372.6
7995.14
9205.05
7873.98
19004
20160.7
19737.7
9036.08
4677.88
4410.59
8936.01
7804.33
18610.9
19324.7
18076.4
7636.89
8696.77
4541.52
4210.89
4325.4
3929.71
2214.43
2283.79
1780.16
1662.63
1674.13
1679.72
1641.87
1633.66
1643.17
1650.56
1670.55
1664.01
1700.03
1704.99
1750.67
1717.14
1691.82
1700.37
1749.63
1827.45
1959.65
1820.4
1775.91
1775.07
1908.65
1889.91
2106.3
2192.2
2671.05
2533.85
2602.09
2160.37
1940.75
2096.63
2317.86
2786.25
3645.69
3426.33
3343.53
3519.5
4946.57
5085.27
7112
6844.86
7757.68
7578.54
7424.22
7285.06
5319.62
5697.55
7392.66
7300.69
6706.02
7132.44
7583.6
8057.49
8107.25
7151.65
6500.98
7827.02
7225.02
5702.17
4689.94
5540.22
6360.95
5722.44
4828.61
3996.4
3491.6
4300.84
5206.23
6350.07
7217.94
7619.86
6026.52
4051.45
3296.3
2740.28
2325.39
1998.47
1822.49
1726.19
1679.98
1767.1
1793.93
1863.09
2086.65
2041.81
2113.27
2066.77
2189.05
2136.98
3574.16
4008.45
7588.46
6827.19
7978.53
7070.81
8205.61
7264.03
8513.12
7497.77
17470.5
18754.2
18070.4
16797.5
17288.6
16082.9
16630.4
15344.2
15757.9
14509.7
6565.08
7276.47
6235.33
13576.5
14877.9
13842.5
6822.38
3595.49
3217.38
6444.75
5933.15
12555
12744.8
11464
5578.32
6021.97
3125.01
2840.42
2647.89
2453.65
2070.97
2209.9
2037.06
2370.39
3005.82
3852.02
5029.96
3235.64
3301.87
2747.85
2578.19
2272.42
2572.11
2478.59
3266.03
3180.92
3669.38
3610.06
4529.17
4793.1
5557.98
5248.93
9204.63
12726.1
8799.31
7661.15
6555.86
4735.67
4497.13
3879.4
5391.85
6367.98
7423.14
4974.02
3815.41
3560.76
3039.94
3129.03
3042.44
3529.01
3514.08
4337.07
4575
4168.61
4224.24
3620.03
3173.78
2773.86
3129.78
3423.27
3152.06
3666.72
3714.88
4053.93
3381.51
4467.43
3692.33
4536.94
5840.57
7192.55
5891.58
5606.34
4394.46
4291.15
4090.39
5024.53
4994.49
4979.9
5668.73
7534.75
8907.99
10679.1
8368.63
8971.51
6634.15
6820.35
8600.15
8830.07
11423.4
11756.5
15617.9
14561.5
13395
11386.5
11032.3
9161.7
9540.72
10713.5
11405.8
12607.6
14830.4
15800.4
19613.6
21525.5
19362.7
19301.3
15066.6
14954.7
14398.7
18403.3
19127.2
22114.9
23065.1
21521.9
27751.7
27718.7
24492.4
21192.2
16896
13634.6
10844.2
11477.5
8657.27
8968.46
7113.67
6050.7
4850.1
6698.97
7912.85
7229.65
7283.3
8589.88
7712.22
9140.26
6927.94
8151.89
10720.7
11240.1
11798
13859.8
12452.8
14598
19143.3
23959.3
20827.5
17256.1
16417.4
15535.5
18430
21741.2
25096.7
28902.7
29733
28960.5
24423.5