/*--------------------------------*- C++ -*----------------------------------*\
| =========                 |                                                 |
| \\      /  F ield         | OpenFOAM: The Open Source CFD Toolbox           |
|  \\    /   O peration     | Version:  v2006                                 |
|   \\  /    A nd           | Website:  www.openfoam.com                      |
|    \\/     M anipulation  |                                                 |
\*---------------------------------------------------------------------------*/
FoamFile
{
    version     2.0;
    format      ascii;
    class       volScalarField;
    location    "0.006";
    object      T;
}
// * * * * * * * * * * * * * * * * * * * * * * * * * * * * * * * * * * * * * //

dimensions      [0 0 0 1 0 0 0];


internalField   nonuniform List<scalar> 
11076
(
298.296
298.296
298.302
298.302
298.303
298.305
298.307
298.311
298.317
298.323
298.331
298.339
298.348
298.357
298.367
298.378
298.39
298.402
298.415
298.428
298.442
298.456
298.471
298.486
298.501
298.517
298.533
298.549
298.566
298.582
298.599
298.616
298.632
298.649
298.666
298.683
298.7
298.716
298.732
298.748
298.764
298.78
298.795
298.81
298.824
298.838
298.851
298.865
298.877
298.889
298.901
298.912
298.922
298.932
298.941
298.95
298.958
298.966
298.973
298.979
298.983
298.984
298.984
298.984
298.983
298.984
298.984
298.986
298.99
298.997
299.006
299.04
299.047
299.005
298.993
298.993
299.006
299.059
299.071
299.01
298.994
298.996
299.015
299.079
299.086
299.021
299
299.004
299.027
299.092
299.098
299.033
299.01
299.016
299.041
299.104
299.11
299.049
299.023
299.032
299.057
299.117
299.124
299.067
299.041
299.051
299.077
299.132
299.14
299.087
299.061
299.071
299.097
299.147
299.153
299.106
299.081
299.089
299.114
299.159
299.163
299.121
299.097
299.104
299.126
299.167
299.17
299.132
299.11
299.115
299.136
299.173
299.176
299.141
299.12
299.125
299.144
299.178
299.18
299.148
299.129
299.133
299.152
299.183
299.186
299.157
299.138
299.142
299.16
299.19
299.195
299.167
299.148
299.154
299.172
299.2
299.208
299.18
299.162
299.169
299.188
299.216
299.226
299.198
299.179
299.189
299.208
299.236
299.248
299.22
299.202
299.214
299.232
299.26
299.273
299.247
299.228
299.242
299.26
299.287
299.301
299.276
299.258
299.273
299.291
299.314
299.329
299.307
299.29
299.306
299.322
299.342
299.356
299.339
299.323
299.339
299.354
299.369
299.384
299.371
299.357
299.373
299.386
299.398
299.414
299.403
299.392
299.408
299.419
299.428
299.445
299.437
299.427
299.444
299.453
299.46
299.478
299.472
299.464
299.481
299.489
299.494
299.513
299.509
299.502
299.52
299.526
299.53
299.549
299.547
299.541
299.56
299.565
299.566
299.586
299.586
299.582
299.601
299.605
299.604
299.624
299.626
299.624
299.643
299.645
299.641
299.661
299.667
299.666
299.686
299.686
299.679
299.7
299.708
299.709
299.73
299.727
299.718
299.74
299.75
299.753
299.774
299.77
299.759
299.781
299.794
299.798
299.82
299.813
299.8
299.824
299.837
299.843
299.867
299.858
299.841
299.864
299.878
299.885
299.914
299.9
299.872
299.882
299.894
299.915
300
300.074
300.017
293.142
298.015
299.666
297.574
292.312
290.719
290.888
290.944
292.531
291.692
291.349
291.047
291.069
291.55
292.255
292.423
291.572
290.966
290.729
291.28
292.221
291.421
290.78
290.587
290.565
290.609
290.846
290.644
290.574
290.565
290.564
290.569
290.615
290.605
290.566
290.562
290.561
290.564
290.602
290.593
290.562
290.561
290.564
290.567
290.601
290.602
290.568
290.566
290.571
290.575
290.612
290.606
290.58
290.578
290.587
290.597
290.63
290.643
290.609
290.596
290.612
290.642
290.699
290.77
290.677
290.626
290.631
290.696
290.837
290.877
290.696
290.628
290.624
290.695
290.918
290.936
290.697
290.621
290.617
290.692
290.926
291.003
290.706
290.618
290.619
290.715
291.035
291.086
290.729
290.619
290.618
290.737
291.092
291.226
290.787
290.627
290.691
290.993
291.623
292.434
291.522
290.929
291.059
291.748
292.81
292.805
291.724
291.061
290.993
291.49
292.302
291.584
291.02
290.806
290.68
290.891
292.173
296.56
291.761
290.856
293.188
296.368
299.705
300.466
299.884
297.986
300.094
300.492
300.539
300.532
300.534
300.511
300.527
300.521
300.516
300.503
300.505
300.51
300.495
300.491
300.489
300.474
300.477
300.48
300.464
300.462
300.46
300.446
300.447
300.449
300.434
300.432
300.431
300.417
300.418
300.419
300.403
300.403
300.402
300.388
300.388
300.388
300.373
300.373
300.373
300.359
300.358
300.358
300.342
300.343
300.343
300.328
300.328
300.327
300.311
300.312
300.313
300.297
300.297
300.296
300.279
300.281
300.281
300.265
300.265
300.264
300.247
300.248
300.249
300.233
300.232
300.231
300.214
300.215
300.216
300.2
300.199
300.198
300.18
300.181
300.182
300.166
300.165
300.164
300.146
300.147
300.148
300.132
300.13
300.129
300.111
300.112
300.113
300.097
300.096
300.094
300.076
300.078
300.079
300.063
300.062
300.06
300.044
300.045
300.046
300.031
300.031
300.031
300.017
300.018
300.018
300.006
300.006
300.006
300.006
300.006
300.006
300.005
300.005
300.005
300.005
300.005
300.005
300.005
300.005
300.005
300.005
300.005
300.005
300.005
300.004
300.005
300.004
300.004
300.002
300.002
300.002
300.003
300.002
300.002
300.003
300.01
300.009
300.007
300.014
300.016
300.017
300.023
300.021
300.019
300.027
300.03
300.032
300.039
300.036
300.033
300.043
300.045
300.049
300.057
300.053
300.05
300.06
300.063
300.067
300.075
300.071
300.067
300.078
300.081
300.085
300.093
300.088
300.085
300.096
300.098
300.102
300.109
300.105
300.102
300.113
300.114
300.119
300.126
300.121
300.119
300.129
300.131
300.135
300.142
300.138
300.135
300.146
300.147
300.15
300.158
300.154
300.152
300.162
300.162
300.164
300.173
300.17
300.168
300.179
300.18
300.182
300.189
300.187
300.185
300.194
300.193
300.195
300.204
300.201
300.199
300.21
300.211
300.214
300.221
300.218
300.216
300.226
300.226
300.229
300.236
300.232
300.23
300.24
300.241
300.245
300.251
300.247
300.245
300.255
300.256
300.26
300.267
300.262
300.26
300.27
300.271
300.276
300.283
300.278
300.275
300.284
300.284
300.288
300.297
300.291
300.288
300.298
300.301
300.306
300.312
300.307
300.303
300.312
300.315
300.32
300.325
300.32
300.316
300.325
300.328
300.333
300.34
300.334
300.329
300.337
300.34
300.345
300.352
300.346
300.342
300.35
300.354
300.36
300.366
300.36
300.354
300.362
300.366
300.37
300.376
300.37
300.366
300.373
300.377
300.384
300.388
300.381
300.376
300.383
300.388
300.394
300.398
300.391
300.386
300.392
300.397
300.404
300.407
300.4
300.394
300.4
300.406
300.413
300.416
300.408
300.402
300.406
300.412
300.42
300.425
300.415
300.408
300.411
300.418
300.427
300.43
300.42
300.412
300.416
300.424
300.432
300.436
300.425
300.417
300.42
300.428
300.438
300.44
300.43
300.421
300.422
300.431
300.441
300.445
300.432
300.422
300.422
300.433
300.445
300.445
300.433
300.421
300.42
300.431
300.444
300.442
300.429
300.417
300.414
300.427
300.441
300.437
300.423
300.408
300.398
300.414
300.434
300.416
300.4
300.394
300.387
300.397
300.402
300.397
300.384
300.376
300.365
300.377
300.389
300.379
300.366
300.359
300.347
300.356
300.365
300.35
300.336
300.333
300.317
300.323
300.331
300.313
300.294
300.293
300.275
300.277
300.287
300.265
300.238
300.238
300.211
300.21
300.231
300.212
300.169
300.165
300.142
300.143
300.164
300.137
300.087
300.088
300.045
300.045
300.068
300.054
299.96
299.936
299.898
299.904
300.001
299.962
299.814
299.814
299.705
299.757
299.862
299.756
299.632
299.614
299.508
299.542
299.585
299.448
299.342
299.364
299.232
299.191
299.195
298.988
298.964
299.002
298.86
298.8
298.654
298.338
298.523
298.627
298.557
298.308
297.879
297.477
298.117
298.191
298.065
297.783
297.054
296.654
297.741
298.061
297.747
297.457
296.335
296.087
297.379
297.82
297.855
297.396
295.968
295.858
297.426
297.867
297.793
297.351
295.779
295.657
297.5
297.919
297.978
297.187
295.705
295.979
296.317
297.52
296.041
295.274
296.686
297.683
295.638
295.815
295.98
296.802
298.873
299.959
298.563
296.989
298.438
300.108
300.874
301.617
301.085
300.074
300.982
301.78
302.177
302.491
302.289
301.675
302.217
302.526
302.628
302.652
302.57
302.43
302.381
302.252
302.343
297.064
297.076
299.531
294.138
294.111
293.811
293.606
294.173
294.599
294.654
294.099
293.451
293.3
294.332
295.034
295.347
294.759
293.076
292.417
295.238
295.747
295.99
295.892
295.439
295.949
295.995
296.059
296.089
296.04
295.99
296.004
296.063
296.104
296.109
296.079
296.005
295.993
296.074
296.109
296.11
296.067
295.983
295.975
296.07
296.107
296.109
296.057
295.947
295.941
296.035
296.105
296.106
296.028
295.95
295.954
296.042
296.119
296.098
296.001
295.95
295.942
295.972
296.087
296.096
296.016
295.978
295.98
296.006
296.063
296.073
296.029
296.01
296.012
296.03
296.071
296.151
296.096
296.039
296.027
296.06
296.123
296.106
296.049
296.03
296.057
296.125
296.187
296.158
296.093
296.048
296.07
296.1
296.154
296.142
296.096
296.07
296.104
296.18
296.233
296.212
296.15
296.089
296.134
296.157
296.203
296.308
296.253
296.171
296.155
296.226
296.297
296.288
296.226
296.194
296.219
296.321
296.384
296.351
296.278
296.194
296.235
296.272
296.337
296.444
296.374
296.267
296.246
296.339
296.418
296.408
296.348
296.299
296.313
296.346
296.401
296.506
296.44
296.345
296.318
296.396
296.465
296.443
296.387
296.36
296.392
296.483
296.544
296.508
296.447
296.369
296.435
296.452
296.496
296.585
296.541
296.469
296.455
296.519
296.565
296.558
296.518
296.497
296.524
296.588
296.625
296.604
296.561
296.505
296.521
296.551
296.596
296.659
296.619
296.546
296.52
296.584
296.637
296.622
296.568
296.528
296.557
296.637
296.683
296.652
296.58
296.502
296.547
296.66
296.724
296.672
296.592
296.463
296.434
296.546
296.647
296.702
296.622
296.497
296.361
296.524
296.615
296.585
296.467
296.293
296.359
296.506
296.603
296.514
296.412
296.244
296.223
296.41
296.515
296.5
296.387
296.217
296.123
296.297
296.408
296.426
296.345
296.184
295.987
296.182
296.322
296.385
296.291
296.132
296.061
296.224
296.343
296.182
296.033
295.857
296.034
296.18
296.275
296.266
296.159
296.026
295.93
296.037
296.149
296.243
296.167
296.036
295.97
296.061
296.141
296.233
296.154
296.028
296.001
296.117
296.212
296.077
295.985
295.915
295.966
296.09
296.169
296.145
296.053
295.939
295.855
295.915
296
296.081
296.017
295.907
295.84
295.907
295.97
296.051
295.984
295.866
295.839
295.942
296.025
295.881
295.806
295.76
295.801
295.903
295.966
295.849
295.795
295.735
295.757
295.878
295.943
295.909
295.834
295.731
295.658
295.7
295.76
295.84
295.779
295.671
295.647
295.739
295.81
295.662
295.605
295.57
295.599
295.687
295.738
295.625
295.586
295.536
295.543
295.644
295.693
295.658
295.603
295.519
295.446
295.474
295.514
295.589
295.546
295.47
295.406
295.449
295.48
295.543
295.5
295.41
295.385
295.46
295.506
295.364
295.333
295.309
295.326
295.394
295.43
295.322
295.3
295.265
295.263
295.349
295.389
295.351
295.312
295.241
295.165
295.185
295.212
295.275
295.241
295.178
295.121
295.152
295.17
295.221
295.188
295.112
295.092
295.153
295.18
295.052
295.036
295.023
295.029
295.075
295.098
294.99
294.989
294.97
294.955
295.013
295.039
295.001
294.981
294.935
294.86
294.867
294.879
294.923
294.902
294.863
294.815
294.827
294.824
294.863
294.843
294.797
294.78
294.816
294.826
294.707
294.706
294.705
294.702
294.728
294.74
294.642
294.657
294.659
294.627
294.665
294.681
294.644
294.639
294.613
294.542
294.535
294.533
294.561
294.552
294.539
294.492
294.486
294.467
294.492
294.486
294.474
294.458
294.461
294.451
294.341
294.371
294.386
294.369
294.362
294.357
294.264
294.308
294.327
294.289
294.293
294.295
294.255
294.271
294.279
294.214
294.19
294.155
294.166
294.172
294.19
294.145
294.123
294.078
294.094
294.098
294.117
294.105
294.078
294.05
293.952
294.015
294.041
293.998
293.97
293.953
293.867
293.929
293.97
293.913
293.895
293.891
293.848
293.874
293.906
293.851
293.816
293.755
293.753
293.77
293.803
293.779
293.736
293.672
293.677
293.684
293.714
293.71
293.664
293.631
293.534
293.609
293.643
293.602
293.545
293.521
293.433
293.507
293.558
293.516
293.459
293.444
293.396
293.439
293.508
293.443
293.396
293.31
293.293
293.318
293.391
293.367
293.302
293.221
293.2
293.219
293.287
293.28
293.195
293.151
293.056
293.157
293.208
293.138
293.056
293.036
292.962
293.05
293.115
293.042
292.965
292.948
292.9
292.955
293.042
292.978
292.92
292.82
292.792
292.819
292.909
292.879
292.8
292.714
292.689
292.718
292.8
292.788
292.662
292.602
292.557
292.67
292.726
292.63
292.526
292.486
292.438
292.536
292.619
292.521
292.408
292.383
292.334
292.398
292.524
292.456
292.378
292.259
292.212
292.242
292.367
292.318
292.22
292.135
292.087
292.123
292.23
292.227
292.071
291.979
291.984
292.111
292.194
292.068
291.948
291.91
291.814
291.954
292.08
292.021
291.937
291.822
291.7
291.743
291.898
291.869
291.745
291.641
291.567
291.614
291.748
291.742
291.553
291.442
291.481
291.583
291.693
291.559
291.39
291.325
291.306
291.415
291.556
291.424
291.243
291.207
291.125
291.233
291.428
291.365
291.222
291.102
290.974
291.033
291.18
291.183
290.969
290.847
290.862
290.997
291.117
290.986
290.785
290.711
290.704
290.835
291.002
290.858
290.645
290.613
290.532
290.661
290.87
290.811
290.643
290.513
290.362
290.423
290.608
290.611
290.379
290.256
290.223
290.332
290.481
290.398
290.135
290.058
290.048
290.21
290.409
290.24
289.976
289.922
289.834
290
290.25
290.185
289.994
289.815
289.691
289.758
289.981
289.975
289.714
289.599
289.527
289.635
289.81
289.709
289.411
289.311
289.331
289.499
289.741
289.568
289.26
289.2
289.085
289.296
289.587
289.516
289.296
289.11
288.91
289.001
289.276
289.268
288.939
288.832
288.697
288.855
289.086
288.92
288.629
288.538
288.447
288.655
289.033
289.003
288.752
288.554
288.311
288.417
288.746
288.762
288.428
288.169
288.194
288.376
288.633
288.349
288.062
287.919
287.698
287.9
288.319
288.293
288.045
287.765
287.576
287.699
288.066
288.141
287.753
287.457
287.542
287.772
288.062
287.77
287.41
287.269
287.054
287.329
287.759
287.493
287.215
287.027
286.653
286.816
287.239
287.425
286.858
286.572
286.746
287.035
287.391
287.066
286.593
286.425
286.212
286.568
287.073
286.894
286.546
286.258
285.851
285.998
286.339
286.373
285.823
285.6
285.763
286.073
286.412
286.166
285.675
285.504
285.269
285.62
286.175
286.011
285.663
285.385
284.864
285.01
285.434
285.27
284.744
284.602
284.446
284.757
285.389
285.41
284.991
284.653
284.279
284.5
285.059
285.066
284.348
283.93
283.651
283.954
284.602
284.581
284.093
283.693
283.357
283.616
284.322
284.42
283.589
283.274
283.035
283.539
284.393
283.986
283.496
283.049
282.384
282.602
283.382
283.672
282.682
282.294
282.204
282.681
283.687
283.444
282.781
282.279
281.617
281.825
282.542
282.592
281.585
281.32
281.233
281.684
282.823
282.539
281.515
281.097
280.783
281.404
282.628
282.702
281.909
281.249
280.743
281.136
282.18
282.066
280.988
280.563
280.657
281.28
282.604
282.665
281.276
280.72
280.97
281.771
283.343
283.941
282.208
281.46
281.972
282.894
284.715
285.829
283.88
282.765
283.374
284.552
286.436
287.087
285.24
283.929
284.312
285.637
287.345
287.765
286.15
284.728
285.031
286.436
287.914
288.199
286.852
285.388
285.641
287.061
288.294
288.487
287.394
285.953
286.168
287.546
288.549
288.684
287.81
286.448
286.629
287.925
288.724
288.818
288.128
286.877
287.031
288.214
288.843
288.909
288.367
287.249
287.376
288.429
288.922
288.968
288.544
287.561
287.667
288.586
288.973
289.003
288.672
287.82
287.907
288.699
288.998
289.017
288.762
288.028
288.098
288.777
289.005
289.016
288.825
288.19
288.244
288.829
288.997
289.002
288.862
288.312
288.351
288.855
288.979
288.979
288.879
288.397
288.421
288.864
288.954
288.951
288.88
288.455
288.456
288.857
288.922
288.918
288.866
288.479
288.467
288.837
288.885
288.879
288.839
288.483
288.462
288.806
288.844
288.835
288.802
288.472
288.444
288.766
288.799
288.788
288.759
288.451
288.416
288.717
288.748
288.737
288.708
288.418
288.38
288.662
288.695
288.682
288.651
288.379
288.341
288.603
288.638
288.625
288.59
288.334
288.296
288.54
288.58
288.566
288.527
288.285
288.248
288.476
288.52
288.505
288.461
288.235
288.199
288.411
288.458
288.443
288.396
288.184
288.148
288.344
288.395
288.379
288.329
288.132
288.097
288.279
288.332
288.316
288.264
288.08
288.046
288.214
288.269
288.252
288.199
288.029
287.993
288.151
288.206
288.189
288.136
287.977
287.942
288.087
288.143
288.126
288.073
287.927
287.892
288.026
288.081
288.064
288.012
287.878
287.843
287.966
288.019
288.002
287.953
287.83
287.795
287.908
287.959
287.942
287.895
287.783
287.749
287.851
287.899
287.883
287.838
287.736
287.702
287.795
287.841
287.824
287.783
287.69
287.657
287.741
287.783
287.767
287.73
287.645
287.611
287.689
287.727
287.711
287.677
287.6
287.567
287.637
287.671
287.656
287.626
287.555
287.521
287.586
287.617
287.602
287.575
287.51
287.477
287.536
287.564
287.548
287.525
287.466
287.432
287.487
287.511
287.496
287.476
287.422
287.389
287.438
287.459
287.444
287.427
287.377
287.344
287.39
287.408
287.393
287.379
287.334
287.301
287.342
287.357
287.343
287.332
287.289
287.257
287.295
287.308
287.293
287.285
287.246
287.214
287.248
287.258
287.244
287.238
287.202
287.17
287.202
287.209
287.195
287.192
287.16
287.128
287.156
287.16
287.146
287.146
287.116
287.084
287.11
287.112
287.099
287.1
287.074
287.042
287.065
287.064
287.051
287.055
287.031
286.999
287.02
287.017
287.004
287.01
286.99
286.958
286.975
286.97
286.957
286.966
286.948
286.916
286.931
286.924
286.911
286.922
286.906
286.875
286.887
286.878
286.865
286.878
286.865
286.833
286.844
286.832
286.82
286.835
286.825
286.794
286.801
286.787
286.775
286.792
286.784
286.753
286.759
286.743
286.731
286.751
286.745
286.714
286.717
286.699
286.687
286.709
286.706
286.675
286.676
286.656
286.644
286.668
286.668
286.637
286.636
286.613
286.601
286.628
286.63
286.599
286.596
286.571
286.559
286.588
286.593
286.563
286.556
286.529
286.518
286.549
286.556
286.525
286.517
286.488
286.477
286.51
286.52
286.49
286.479
286.446
286.436
286.472
286.484
286.454
286.441
286.406
286.395
286.434
286.448
286.419
286.403
286.365
286.355
286.397
286.413
286.384
286.366
286.325
286.315
286.359
286.379
286.35
286.328
286.285
286.275
286.322
286.344
286.315
286.291
286.246
286.235
286.286
286.311
286.282
286.255
286.206
286.195
286.249
286.277
286.247
286.218
286.166
286.156
286.212
286.243
286.214
286.181
286.126
286.116
286.176
286.21
286.18
286.145
286.086
286.076
286.139
286.177
286.148
286.108
286.046
286.035
286.102
286.144
286.114
286.071
286.006
285.995
286.066
286.111
286.082
286.034
285.965
285.954
286.029
286.078
286.048
285.998
285.924
285.914
285.992
286.046
286.015
285.961
285.883
285.873
285.955
286.012
285.981
285.923
285.843
285.832
285.918
285.979
285.948
285.886
285.802
285.791
285.881
285.945
285.913
285.848
285.761
285.75
285.843
285.911
285.879
285.81
285.719
285.709
285.805
285.876
285.843
285.772
285.678
285.667
285.767
285.841
285.808
285.733
285.636
285.626
285.728
285.805
285.772
285.695
285.595
285.584
285.689
285.769
285.736
285.656
285.552
285.542
285.65
285.733
285.699
285.616
285.51
285.5
285.611
285.696
285.662
285.576
285.468
285.457
285.571
285.659
285.624
285.536
285.425
285.414
285.53
285.622
285.587
285.496
285.382
285.371
285.49
285.583
285.547
285.455
285.339
285.328
285.449
285.545
285.509
285.413
285.295
285.284
285.407
285.505
285.469
285.371
285.251
285.24
285.365
285.466
285.429
285.329
285.206
285.195
285.323
285.425
285.388
285.286
285.162
285.15
285.28
285.385
285.347
285.243
285.116
285.104
285.236
285.343
285.306
285.199
285.07
285.057
285.192
285.3
285.261
285.154
285.022
285.01
285.146
285.255
285.217
285.108
284.977
284.956
285.096
285.207
285.166
285.058
284.929
284.896
285.038
285.148
285.11
285.01
284.874
284.816
284.956
285.043
285.045
284.938
284.786
284.712
284.904
285.055
285.086
284.923
284.678
285.21
284.756
284.391
283.846
283.355
283.295
283.161
283.245
283.486
284.393
285.228
285.972
286.585
287.069
287.424
287.673
287.837
287.939
288.001
288.036
288.056
288.067
288.073
288.076
288.077
288.078
288.078
288.078
288.078
288.078
288.078
288.076
288.074
288.072
288.07
288.069
288.067
288.065
288.062
288.06
288.057
288.054
288.05
288.046
288.041
288.035
288.029
288.022
288.014
288.006
287.998
287.989
287.98
287.97
287.959
287.947
287.935
287.924
287.915
287.908
287.903
287.901
287.901
287.903
287.91
287.92
287.936
287.956
287.983
288.016
288.056
288.103
288.159
288.224
288.299
288.383
288.478
288.585
288.703
288.832
288.973
289.125
289.288
289.46
289.642
289.832
290.03
290.233
290.441
290.653
290.867
291.082
291.298
291.512
291.725
291.935
292.141
292.343
292.541
292.733
292.92
293.101
293.276
293.445
293.607
293.763
293.912
294.055
294.192
294.322
294.447
294.565
294.678
294.786
294.888
294.985
295.078
295.167
295.252
295.333
295.41
295.485
295.557
295.626
295.693
295.758
295.822
295.883
295.943
296.002
296.059
296.115
296.17
296.224
296.277
296.329
296.381
296.432
296.483
296.534
296.585
296.637
296.688
296.74
296.792
296.844
296.897
296.95
297.003
297.056
297.109
297.161
297.213
297.265
297.316
297.366
297.417
297.467
297.517
297.568
297.618
297.669
297.719
297.769
297.819
297.867
297.914
297.96
298.004
298.046
298.086
298.123
298.158
298.188
298.215
298.238
298.259
298.28
298.28
298.279
298.277
298.276
298.276
298.279
298.282
298.288
298.294
298.302
298.311
298.321
298.332
298.344
298.357
298.371
298.386
298.401
298.417
298.434
298.451
298.468
298.486
298.504
298.522
298.541
298.559
298.578
298.596
298.615
298.633
298.652
298.67
298.688
298.706
298.723
298.741
298.757
298.774
298.79
298.806
298.821
298.836
298.85
298.864
298.877
298.89
298.902
298.914
298.925
298.935
298.945
298.954
298.963
298.972
298.979
298.984
298.987
298.988
298.987
298.987
298.988
298.988
298.989
298.992
298.996
299
299.006
299.013
299.021
299.03
299.039
299.049
299.058
299.067
299.075
299.082
299.089
299.095
299.101
299.105
299.11
299.115
299.119
299.124
299.13
299.136
299.143
299.151
299.16
299.17
299.181
299.193
299.207
299.221
299.236
299.251
299.268
299.285
299.302
299.319
299.337
299.355
299.374
299.392
299.411
299.429
299.449
299.468
299.488
299.508
299.529
299.549
299.571
299.592
299.614
299.636
299.659
299.68
299.704
299.726
299.75
299.773
299.796
299.82
299.843
299.868
299.888
299.916
299.926
299.958
299.943
299.727
298.886
297.144
295.921
294.925
294.488
293.534
292.072
291.113
290.887
290.8
290.805
290.74
290.775
290.769
290.821
290.751
290.764
290.762
290.852
290.998
291.224
291.555
291.853
291.839
291.826
292.147
292.194
292.332
292.229
292.544
293.149
294.459
295.359
296.401
297.035
298.106
299.334
300.219
300.505
300.545
300.538
300.524
300.511
300.497
300.484
300.47
300.456
300.442
300.428
300.414
300.399
300.385
300.37
300.355
300.34
300.325
300.31
300.294
300.278
300.263
300.246
300.23
300.214
300.198
300.18
300.164
300.147
300.13
300.113
300.096
300.078
300.062
300.045
300.031
300.017
300.017
300.03
300.031
300.016
300.016
300.028
300.053
300.043
300.043
300.061
300.061
300.075
300.076
300.094
300.095
300.087
300.121
300.109
300.109
300.128
300.13
300.144
300.144
300.162
300.164
300.154
300.188
300.178
300.177
300.195
300.197
300.21
300.209
300.227
300.229
300.22
300.252
300.242
300.242
300.259
300.261
300.274
300.274
300.29
300.292
300.283
300.313
300.305
300.305
300.321
300.322
300.334
300.335
300.351
300.351
300.343
300.371
300.363
300.365
300.38
300.379
300.391
300.393
300.408
300.407
300.398
300.424
300.419
300.422
300.436
300.434
300.445
300.449
300.463
300.459
300.45
300.474
300.471
300.476
300.49
300.484
300.496
300.503
300.516
300.508
300.495
300.516
300.519
300.527
300.541
300.53
300.54
300.548
300.537
300.553
300.534
300.553
300.546
300.452
300.281
300.549
300.454
299.86
299.628
300.462
300.56
300.537
300.185
298.907
298.543
300.182
299.661
297.565
297.143
299.683
300.461
300.295
298.916
296.132
296.254
299.007
298.44
295.733
295.668
298.674
300.077
300.15
298.419
294.828
294.561
298.013
297.03
294.611
293.507
296.073
298.075
292.758
292.59
291.955
291.362
291.743
291.826
291.188
291.166
292.035
294.207
296.834
292.861
291.346
291.475
293.29
293.975
291.825
291.584
293.565
297.498
297.99
294.539
291.717
291.515
294.216
295.803
292.119
292.201
295.775
298.846
299.444
297.499
293.661
294.498
297.626
298.796
296.266
296.975
298.852
299.748
299.88
299.463
297.904
298.281
299.497
299.824
299.103
299.454
299.855
299.923
299.922
299.94
299.844
299.933
299.941
299.939
299.952
299.937
299.919
299.887
299.859
299.905
299.92
299.902
299.882
299.865
299.879
299.856
299.839
299.821
299.78
299.82
299.833
299.809
299.794
299.773
299.786
299.761
299.747
299.737
299.692
299.726
299.739
299.714
299.701
299.68
299.692
299.668
299.656
299.648
299.604
299.635
299.647
299.623
299.611
299.591
299.602
299.579
299.568
299.561
299.519
299.547
299.558
299.537
299.525
299.505
299.516
299.495
299.484
299.478
299.438
299.464
299.475
299.455
299.444
299.425
299.435
299.416
299.405
299.399
299.362
299.386
299.397
299.378
299.367
299.349
299.359
299.341
299.331
299.326
299.292
299.313
299.323
299.305
299.296
299.279
299.288
299.271
299.262
299.26
299.23
299.247
299.255
299.239
299.231
299.218
299.224
299.21
299.203
299.204
299.18
299.191
299.196
299.184
299.179
299.169
299.172
299.162
299.158
299.159
299.142
299.149
299.153
299.144
299.141
299.134
299.136
299.129
299.126
299.126
299.113
299.12
299.123
299.117
299.114
299.109
299.112
299.107
299.103
299.101
299.088
299.097
299.102
299.097
299.092
299.085
299.091
299.085
299.079
299.075
299.061
299.072
299.078
299.072
299.065
299.057
299.064
299.056
299.05
299.046
299.032
299.041
299.047
299.039
299.034
299.026
299.03
299.022
299.018
299.018
299.006
299.012
299.014
299.008
299.005
299
299.002
298.997
298.996
298.998
298.991
298.993
298.993
298.99
298.99
298.991
298.997
299.005
299.015
299.027
299.04
299.054
299.068
299.082
299.095
299.109
299.123
299.138
299.156
299.176
299.198
299.224
299.251
299.282
299.314
299.348
299.384
299.421
299.459
299.499
299.539
299.58
299.622
299.664
299.705
299.746
299.784
299.819
299.85
299.879
299.906
299.916
299.902
299.85
299.72
299.416
299.127
298.778
297.6
294.109
296.991
300.442
300.494
300.559
300.574
300.572
300.56
300.544
300.524
300.508
300.488
300.468
300.442
300.42
300.394
300.368
300.339
300.311
300.281
300.25
300.218
300.186
300.153
300.119
300.085
300.052
300.028
300.029
300.015
300.016
300.015
300.028
300.027
300.015
300.015
300.028
300.051
300.051
300.027
300.015
300.015
300.028
300.027
300.015
300.015
300.028
300.051
300.051
300.027
300.015
300.015
300.028
300.03
300.014
300.017
300.025
300.051
300.051
300.029
300.014
300.015
300.025
300.029
300.013
300.008
300.017
300.028
300.014
300.009
300.007
300.016
300.015
300.008
300.019
300.019
300.029
300.029
300.034
300.032
300.042
300.039
300.06
300.06
300.049
300.045
300.045
300.05
300.062
300.063
300.068
300.074
300.072
300.084
300.085
300.086
300.085
300.085
300.085
300.118
300.118
300.118
300.119
300.152
300.151
300.152
300.152
300.185
300.185
300.216
300.217
300.248
300.247
300.246
300.216
300.185
300.186
300.218
300.247
300.276
300.276
300.277
300.279
300.308
300.306
300.333
300.336
300.363
300.359
300.356
300.331
300.305
300.305
300.332
300.356
300.379
300.38
300.384
300.389
300.414
300.408
300.428
300.435
300.457
300.447
300.438
300.422
300.402
300.4
300.419
300.434
300.426
300.412
300.395
300.376
300.355
300.331
300.305
300.276
300.248
300.218
300.186
300.152
300.119
300.117
300.105
300.093
300.093
300.108
300.127
300.126
300.139
300.15
300.182
300.212
300.242
300.231
300.22
300.201
300.19
300.17
300.159
300.159
300.141
300.138
300.133
300.121
300.116
300.104
300.098
300.085
300.081
300.08
300.067
300.085
300.098
300.103
300.115
300.12
300.132
300.136
300.148
300.149
300.153
300.164
300.164
300.153
300.169
300.169
300.172
300.19
300.185
300.18
300.18
300.185
300.196
300.196
300.201
300.203
300.22
300.233
300.25
300.249
300.26
300.271
300.298
300.323
300.347
300.335
300.328
300.312
300.303
300.287
300.277
300.277
300.261
300.26
300.256
300.246
300.241
300.231
300.227
300.216
300.211
300.212
300.201
300.217
300.228
300.232
300.242
300.247
300.257
300.261
300.271
300.269
300.274
300.283
300.285
300.275
300.289
300.287
300.288
300.304
300.3
300.296
300.298
300.302
300.311
300.308
300.312
300.313
300.328
300.336
300.35
300.35
300.357
300.367
300.386
300.401
300.41
300.402
300.4
300.39
300.386
300.375
300.369
300.37
300.357
300.357
300.354
300.347
300.343
300.336
300.332
300.325
300.32
300.324
300.315
300.327
300.336
300.339
300.347
300.351
300.358
300.362
300.369
300.363
300.367
300.373
300.378
300.372
300.381
300.376
300.375
300.386
300.384
300.381
300.387
300.389
300.394
300.387
300.39
300.39
300.397
300.399
300.404
300.409
300.409
300.418
300.437
300.445
300.453
300.467
300.479
300.498
300.486
300.5
300.513
300.529
300.513
300.491
300.483
300.47
300.456
300.468
300.469
300.471
300.504
300.532
300.549
300.566
300.548
300.569
300.583
300.593
300.585
300.56
300.541
300.52
300.477
300.485
300.499
300.529
300.57
300.587
300.581
300.416
300.337
295.92
296.233
295.395
296.316
297.001
295.915
300.183
299.988
295.964
297.481
299.594
299.521
299.292
298.759
299.454
299.719
299.822
299.662
299.799
299.869
299.86
299.84
299.792
299.785
299.818
299.826
299.759
299.762
299.746
299.607
297.824
295.983
299.889
300.45
300.427
300.428
300.431
300.444
300.447
300.45
300.442
300.416
300.412
300.405
300.386
300.401
300.401
300.41
300.409
300.412
300.404
300.404
300.405
300.404
300.402
300.401
300.399
300.398
300.395
300.393
300.4
300.396
300.401
300.404
300.405
300.408
300.409
300.411
300.412
300.412
300.405
300.405
300.405
300.412
300.412
300.411
300.404
300.403
300.4
300.4
300.403
300.41
300.407
300.404
300.398
300.394
300.391
300.383
300.364
300.352
300.386
300.357
300.385
300.352
300.277
300.275
300.054
300.25
300.232
300.307
300.307
300.354
300.3
300.321
300.328
300.344
300.35
300.364
300.371
300.379
300.384
300.391
300.397
300.399
300.39
300.385
300.369
300.363
300.349
300.34
300.337
300.347
300.36
300.316
300.321
300.31
300.315
300.292
300.281
300.266
300.282
300.274
300.304
300.256
300.206
300.228
300.248
300.243
300.215
300.169
300.231
300.21