/*--------------------------------*- C++ -*----------------------------------*\
| =========                 |                                                 |
| \\      /  F ield         | OpenFOAM: The Open Source CFD Toolbox           |
|  \\    /   O peration     | Version:  v2006                                 |
|   \\  /    A nd           | Website:  www.openfoam.com                      |
|    \\/     M anipulation  |                                                 |
\*---------------------------------------------------------------------------*/
FoamFile
{
    version     2.0;
    format      ascii;
    class       volScalarField;
    location    "0.014";
    object      isentropic(p);
}
// * * * * * * * * * * * * * * * * * * * * * * * * * * * * * * * * * * * * * //

dimensions      [1 -1 -2 0 0 0 0];


internalField   nonuniform List<scalar> 
9148
(
150032
150025
150025
150027
150030
150033
150033
150032
150031
150030
150029
150028
150028
150027
150027
150026
150026
150025
150025
150024
150024
150023
150023
150022
150021
150021
150020
150019
150019
150018
150018
150017
150016
150016
150015
150015
150014
150013
150013
150012
150012
150011
150011
150010
150010
150009
150009
150008
150008
150007
150007
150007
150006
150006
150005
150005
150004
150003
150001
150000
150000
150003
150007
150010
150010
150010
150012
150013
150021
150031
150027
149959
149888
150013
150033
150025
149995
149825
149761
149973
150013
149999
149950
149705
149652
149926
149984
149969
149903
149606
149564
149879
149954
149940
149858
149525
149490
149838
149926
149912
149818
149458
149429
149799
149899
149885
149780
149402
149377
149762
149872
149859
149745
149353
149332
149729
149847
149834
149713
149311
149292
149697
149823
149811
149682
149274
149258
149668
149800
149789
149654
149242
149227
149641
149779
149768
149628
149213
149200
149616
149759
149749
149604
149188
149177
149593
149740
149730
149582
149166
149156
149572
149722
149713
149562
149147
149139
149553
149706
149698
149544
149131
149124
149535
149691
149683
149527
149118
149113
149520
149677
149670
149512
149107
149103
149505
149664
149658
149499
149099
149096
149493
149652
149646
149487
149093
149092
149481
149642
149636
149476
149090
149089
149471
149632
149627
149467
149088
149089
149463
149623
149619
149459
149089
149090
149456
149616
149612
149452
149092
149094
149450
149609
149605
149447
149097
149100
149445
149603
149600
149443
149104
149108
149442
149598
149595
149440
149113
149119
149439
149594
149591
149439
149125
149131
149438
149590
149588
149438
149138
149146
149438
149587
149586
149439
149154
149163
149440
149585
149584
149441
149172
149183
149442
149583
149582
149443
149193
149204
149445
149582
149581
149447
149215
149228
149449
149581
149579
149451
149240
149254
149453
149579
149577
149454
149268
149282
149456
149575
149572
149458
149298
149314
149459
149570
149564
149459
149331
149348
149458
149558
149548
149455
149366
149396
149456
149537
149503
149427
149407
149427
149409
149463
149425
149424
149445
149461
149441
149417
149435
149467
149484
149509
149497
149466
149507
149527
149530
149537
149545
149543
149544
149536
149524
149533
149546
149558
149553
149541
149526
149537
149554
149566
149566
149555
149535
149545
149568
149579
149582
149572
149548
149559
149583
149593
149598
149589
149565
149572
149594
149603
149606
149596
149575
149579
149599
149610
149613
149601
149581
149583
149604
149617
149622
149608
149586
149590
149612
149626
149631
149617
149594
149598
149622
149637
149643
149628
149603
149607
149635
149648
149655
149641
149612
149618
149648
149661
149667
149655
149624
149630
149661
149672
149678
149668
149637
149644
149675
149684
149690
149682
149651
149658
149688
149695
149700
149695
149666
149674
149701
149705
149710
149706
149682
149690
149712
149715
149719
149717
149698
149705
149721
149724
149728
149726
149712
149719
149729
149731
149734
149733
149724
149729
149736
149737
149739
149739
149734
149737
149740
149740
149742
149742
149740
149741
149742
149742
149742
149742
149742
149742
149742
149742
149741
149741
149741
149742
149742
149744
149746
149748
149750
149753
149755
149758
149760
149763
149765
149766
149766
149766
149764
149760
149755
149755
149753
149750
149751
149751
149751
149750
149750
149750
149749
149749
149749
149747
149748
149748
149747
149747
149745
149745
149747
149747
149744
149744
149742
149743
149745
149744
149740
149741
149739
149737
149739
149737
149729
149733
149731
149727
149729
149725
149720
149723
149722
149719
149719
149720
149721
149713
149714
149709
149710
149725
149727
149707
149701
149695
149707
149732
149735
149708
149688
149682
149710
149740
149743
149712
149677
149673
149715
149747
149750
149718
149670
149668
149722
149754
149757
149725
149666
149666
149729
149760
149763
149733
149666
149668
149738
149766
149769
149742
149670
149674
149747
149773
149776
149752
149678
149684
149758
149779
149782
149763
149691
149702
149772
149787
149794
149781
149715
149730
149791
149800
149805
149798
149744
149759
149805
149810
149815
149812
149773
149787
149818
149819
149823
149823
149798
149809
149828
149826
149829
149833
149818
149826
149833
149828
149840
149840
149823
149842
149846
149842
149844
149851
149850
149856
149853
149844
149842
149852
149857
149856
149849
149838
149852
149861
149865
149869
149861
149845
149863
149883
149907
149868
149865
149862
149895
149926
149935
150029
149960
149867
149985
149978
150015
149875
149847
149895
149385
149522
149928
149288
149607
149528
148418
148814
147381
145499
147108
147565
147407
146972
145616
146101
147233
147688
147407
146927
146007
145845
146581
146993
147475
147109
146381
146310
146868
147210
147655
147332
146736
146642
147116
147415
147810
147526
146998
146993
147435
147708
147516
147269
146895
147216
147637
147855
147696
147486
147133
147408
147794
147984
147914
147723
147387
147300
147593
147774
148030
147871
147528
147448
147742
147904
148131
147985
147659
147583
147861
148011
148224
148088
147784
147755
148025
148169
148054
147910
147666
147833
148129
148254
148153
148020
147763
147921
148209
148323
148216
148089
147835
148004
148276
148379
148275
148155
147912
148071
148337
148439
148348
148233
148000
148138
148399
148502
148463
148349
148114
148016
148239
148358
148523
148424
148151
148064
148314
148431
148578
148487
148216
148117
148364
148479
148621
148527
148253
148176
148419
148531
148663
148575
148306
148201
148449
148562
148704
148621
148355
148267
148508
148615
148735
148648
148375
148284
148531
148641
148777
148698
148432
148338
148580
148687
148804
148720
148446
148349
148601
148711
148841
148763
148491
148394
148644
148751
148865
148783
148501
148400
148660
148770
148899
148823
148542
148441
148700
148809
148919
148838
148547
148435
148707
148819
148948
148871
148576
148468
148742
148853
148965
148885
148572
148439
148733
148854
148952
148851
148514
148642
148978
149056
148940
148825
148537
148651
148963
149052
148950
148831
148547
148689
148997
149079
148986
148869
148588
148705
149018
149101
148996
148876
148580
148695
149027
149114
149018
148897
148595
148725
149061
149142
149034
148906
148590
148695
149056
149144
149020
148885
148543
148636
149021
149128
149236
149157
148764
148632
148975
149104
149225
149134
148772
148649
148980
149114
149247
149156
148797
148676
149007
149139
149261
149175
148816
148664
149004
149141
149260
149169
148786
148638
148997
149137
149234
149124
148710
148836
149260
149338
149197
149060
148688
148824
149218
149309
149193
149053
148688
148830
149226
149316
149206
149066
148696
148821
149232
149323
149195
149048
148659
148798
149233
149321
149182
149027
148608
148683
149160
149281
149398
149317
148831
148653
149089
149241
149374
149279
148829
148658
149083
149243
149377
149278
148821
148646
149077
149239
149374
149276
148809
148598
149049
149218
149323
149197
148693
148834
149357
149443
149277
149116
148654
148815
149302
149396
149254
149086
148622
148805
149293
149388
149243
149070
148597
148778
149281
149378
149232
149056
148568
148755
149277
149372
149192
149005
148487
148589
149166
149302
149444
149353
148756
148550
149080
149261
149392
149290
148738
148524
149049
149238
149371
149267
148707
148453
149000
149197
149351
149241
148659
148429
148993
149192
149340
149229
148615
148341
148935
149147
149262
149110
148446
148615
149311
149405
149180
148970
148340
148560
149211
149330
149163
148946
148328
148556
149210
149325
149156
148935
148306
148456
149146
149270
149049
148808
148129
148404
149125
149253
149056
148808
148101
148223
149005
149183
149375
149287
148516
148137
148858
149106
149247
149117
148372
148081
148793
149041
149235
149104
148356
148088
148803
149053
149215
149106
148381
148010
148735
148995
149130
148986
148188
147841
148625
148897
149115
148980
148156
147831
148646
148921
149112
148999
148180
147777
148602
148887
149000
148847
147941
147518
148423
148729
148978
148830
147885
147520
148459
148770
148973
148864
147930
147419
148375
148701
148814
148631
147553
147068
148123
148485
148703
148460
147323
147757
148897
148999
148716
148391
147350
147631
148645
148763
148421
148055
146981
147483
148499
148659
148691
148365
147302
146694
147768
148199
148495
148416
147447
146363
147574
148029
148290
148086
146847
146341
147605
148024
148344
148217
146978
146536
147783
148180
148085
147844
146412
145677
147121
147612
147968
147773
146385
145982
147386
147833
147952
147977
146906
145357
146832
147383
147483
147298
145938
145734
147206
147665
147186
146679
145233
145216
146820
147016
146432
145777
143908
144996
146621
146783
146909
146429
144745
144695
146390
146532
146452
145828
143775
143047
145037
145723
145632
145734
144459
142552
144911
145599
144715
143969
141609
143150
144560
144477
144565
143834
140896
141345
143987
144390
141883
140497
136529
139469
141585
142042
141466
140295
136200
133892
139080
140336
138799
137273
130619
127896
135175
136757
136921
135349
128093
128501
135656
137666
137926
135572
128461
128236
135146
137800
137676
134798
128050
127917
134406
137466
137342
134139
127862
127815
133806
137099
136942
133580
127817
127813
133291
136677
136523
133119
127853
127883
132888
136262
136121
132770
127953
128009
132591
135882
135767
132520
128102
128175
132386
135550
135457
132352
128283
128370
132255
135270
135203
132250
128489
128585
132180
135038
134991
132197
128711
128812
132150
134853
134830
132186
128943
129047
132158
134713
134707
132203
129187
129290
132192
134614
134626
132253
129435
129535
132254
134551
134589
132326
129678
129774
132338
134533
134598
132424
129915
130007
132446
134555
134637
132539
130143
130229
132568
134607
134706
132670
130361
130443
132706
134685
134793
132811
130570
130647
132850
134780
134899
132962
130770
130844
133006
134893
135016
133118
130962
131031
133163
135013
135142
133279
131146
131213
133327
135144
135272
133441
131323
131386
133488
135276
135407
133604
131494
131555
133653
135413
135541
133765
131658
131715
133812
135548
135677
133925
131816
131871
133972
135684
135808
134080
131967
132018
134125
135816
135939
134233
132112
132161
134278
135948
136066
134380
132250
132295
134421
136073
136190
134524
132382
132425
134564
136198
136309
134661
132507
132546
134698
136316
136426
134794
132626
132664
134830
136433
136537
134921
132739
132773
134954
136543
136645
135043
132846
132878
135075
136650
136748
135159
132947
132976
135188
136752
136848
135271
133043
133070
135298
136850
136942
135376
133133
133157
135399
136943
137034
135476
133217
133240
135498
137034
137120
135570
133296
133317
135589
137119
137202
135660
133371
133389
135677
137200
137279
135743
133440
133457
135758
137277
137354
135823
133505
133520
135836
137350
137425
135898
133566
133578
135908
137420
137493
135969
133622
133633
135978
137486
137557
136035
133675
133684
136042
137550
137618
136099
133724
133732
136105
137610
137677
136158
133769
133776
136162
137668
137733
136215
133812
133817
136219
137723
137786
136268
133852
133856
136270
137775
137837
136320
133889
133892
136321
137825
137885
136367
133924
133925
136367
137873
137932
136414
133956
133957
136412
137919
137976
136457
133987
133987
136454
137962
138019
136498
134016
134015
136495
138004
138059
136537
134043
134041
136532
138044
138098
136575
134068
134067
136569
138082
138135
136610
134093
134090
136603
138118
138170
136644
134115
134112
136637
138153
138204
136676
134137
134133
136667
138186
138237
136707
134157
134153
136698
138218
138267
136735
134177
134172
136726
138249
138298
136764
134195
134190
136754
138278
138326
136790
134212
134206
136779
138306
138354
136816
134229
134223
136805
138333
138380
136840
134244
134238
136828
138359
138405
136864
134259
134252
136851
138384
138429
136885
134273
134266
136872
138408
138453
136907
134287
134279
136894
138431
138475
136927
134300
134292
136913
138453
138497
136947
134312
134304
136933
138474
138518
136965
134324
134315
136951
138495
138538
136984
134335
134326
136970
138514
138557
137001
134346
134337
136986
138534
138576
137019
134356
134347
137003
138552
138594
137034
134366
134357
137018
138570
138612
137050
134376
134366
137034
138587
138629
137065
134385
134375
137048
138604
138646
137080
134394
134384
137064
138620
138661
137093
134402
134392
137077
138636
138677
137108
134410
134400
137091
138651
138692
137120
134418
134408
137103
138667
138707
137134
134426
134416
137117
138681
138721
137146
134434
134423
137128
138695
138735
137158
134441
134430
137141
138708
138748
137169
134448
134437
137151
138722
138761
137181
134454
134444
137163
138735
138774
137192
134461
134450
137173
138747
138786
137203
134467
134456
137184
138759
138798
137212
134473
134462
137194
138771
138810
137223
134479
134467
137204
138783
138821
137232
134484
134473
137213
138794
138832
137242
134490
134478
137223
138805
138843
137251
134495
134483
137231
138816
138854
137261
134500
134488
137241
138826
138864
137270
134505
134493
137250
138836
138875
137278
134512
134500
137258
138849
138888
137287
134516
134503
137268
138861
138908
137301
134524
134511
137286
138884
138946
137330
134541
134530
137325
138933
139012
137379
134571
134580
137397
139037
139239
137528
134685
134872
137761
139534
139715
137939
135022
141759
143169
143631
143825
144778
145417
145714
145964
146856
147451
148065
148549
148921
149210
149419
149564
149664
149733
149781
149815
149839
149857
149870
149880
149887
149891
149894
149897
149896
149898
149894
149895
149921
149927
149928
149930
149933
149939
149946
149956
149968
149982
149998
150013
150026
150033
150033
150029
150022
150016
150011
150006
150002
149997
149993
149989
149984
149980
149976
149972
149968
149965
149961
149959
149957
149955
149954
149953
149953
149954
149956
149958
149961
149965
149969
149974
149979
149984
149990
149996
150001
150006
150011
150015
150018
150020
150021
150022
150021
150020
150018
150016
150013
150009
150005
150001
149997
149993
149988
149984
149980
149977
149973
149970
149967
149965
149963
149961
149960
149959
149958
149958
149958
149959
149960
149961
149962
149964
149966
149969
149972
149974
149977
149980
149984
149987
149990
149993
149996
149999
150002
150005
150008
150011
150014
150016
150019
150021
150024
150026
150027
150029
150030
150030
150031
150031
150032
150032
150033
150035
150036
150038
150042
150044
150043
150033
150027
150042
150060
150070
150071
150070
150066
150062
150058
150055
150052
150049
150046
150044
150042
150040
150037
150035
150033
150031
150029
150028
150026
150024
150022
150021
150019
150017
150016
150014
150012
150011
150009
150007
150006
150004
150003
150001
150000
149999
149997
149996
149994
149993
149992
149990
149989
149988
149986
149985
149983
149982
149980
149978
149976
149973
149970
149971
149975
149980
149986
149997
150005
150008
150007
149998
149989
149980
149971
149962
149953
149945
149936
149928
149920
149912
149904
149896
149888
149881
149874
149867
149860
149854
149847
149841
149835
149829
149824
149818
149813
149808
149803
149799
149794
149790
149786
149782
149778
149775
149772
149768
149765
149763
149760
149757
149755
149753
149751
149749
149747
149746
149744
149743
149741
149740
149739
149738
149737
149736
149735
149735
149734
149733
149732
149731
149729
149728
149726
149723
149720
149716
149710
149702
149692
149668
149632
149585
149536
149502
149498
149514
149535
149536
149561
149558
149575
149569
149583
149582
149594
149598
149607
149610
149615
149619
149624
149628
149633
149638
149643
149648
149654
149659
149664
149669
149675
149680
149685
149690
149695
149701
149706
149710
149715
149720
149724
149728
149731
149735
149737
149740
149740
149742
149742
149742
149743
149743
149744
149743
149743
149743
149741
149741
149741
149740
149738
149743
149744
149744
149745
149745
149742
149741
149745
149746
149747
149745
149740
149731
149716
149728
149736
149738
149736
149732
149727
149731
149727
149722
149716
149703
149717
149723
149718
149710
149706
149713
149707
149699
149691
149680
149695
149702
149697
149688
149684
149692
149686
149677
149670
149660
149674
149681
149676
149667
149664
149671
149665
149657
149651
149642
149654
149660
149655
149648
149645
149650
149645
149639
149634
149627
149636
149640
149635
149630
149627
149630
149625
149622
149620
149601
149620
149621
149615
149610
149612
149612
149605
149590
149594
149585
149595
149603
149590
149547
149558
149586
149570
149507
149580
149636
149554
149572
149553
149509
149577
149556
149545
149542
149729
149813
149623
149554
149533
149618
149691
149571
149586
149698
149875
149916
149751
149620
149651
149769
149813
149695
149730
149833
149942
149953
149865
149766
149787
149871
149891
149804
149808
149882
149950
149942
149895
149814
149815
149883
149894
149818
149817
149882
149934
149927
149891
149819
149818
149879
149887
149819
149819
149877
149921
149916
149884
149819
149818
149874
149881
149819
149818
149871
149912
149908
149878
149818
149818
149869
149876
149818
149818
149867
149905
149902
149874
149818
149818
149865
149872
149818
149818
149864
149899
149897
149870
149819
149819
149863
149869
149820
149821
149862
149895
149894
149868
149822
149822
149862
149868
149824
149825
149863
149893
149893
149868
149827
149828
149864
149870
149830
149831
149866
149893
149894
149871
149834
149835
149868
149874
149838
149840
149871
149896
149898
149877
149843
149845
149874
149880
149849
149851
149878
149900
149904
149884
149855
149858
149883
149889
149862
149865
149888
149907
149911
149894
149869
149873
149894
149900
149878
149881
149901
149916
149922
149907
149886
149891
149908
149914
149896
149900
149916
149928
149934
149922
149906
149911
149924
149930
149917
149922
149933
149941
149949
149939
149928
149934
149943
149949
149941
149947
149954
149958
149966
149959
149953
149960
149964
149970
149966
149973
149976
149975
149983
149982
149980
149987
149988
149993
149994
150001
149999
149992
149984
149980
149975
149968
149962
149955
149949
149944
149939
149934
149930
149927
149924
149921
149919
149917
149916
149916
149915
149916
149917
149919
149921
149924
149927
149931
149935
149939
149944
149950
149955
149962
149970
149978
149988
149996
149999
149995
149981
149950
149899
149828
149748
149671
149616
149607
149601
149608
149616
149621
149627
149635
149645
149655
149668
149683
149699
149680
149703
149724
149738
149745
149749
149750
149746
149737
149736
149746
149752
149754
149748
149737
149721
149694
149692
149721
149737
149750
149756
149758
149752
149741
149742
149755
149761
149763
149758
149747
149726
149698
149669
149662
149668
149644
149661
149643
149629
149608
149624
149615
149637
149643
149621
149603
149597
149586
149597
149618
149610
149590
149586
149604
149601
149589
149598
149583
149580
149590
149592
149626
149634
149648
149667
149689
149714
149737
149751
149761
149764
149765
149764
149756
149763
149767
149764
149760
149764
149762
149752
149739
149760
149764
149765
149764
149762
149757
149750
149753
149750
149748
149749
149748
149746
149744
149746
149746
149746
149753
149759
149746
149742
149742
149743
149738
149744
149749
149764
149768
149769
149770
149757
149749
149723
149710
149699
149689
149725
149733
149731
149739
149739
149747
149767
149767
149770
149768
149768
149764
149763
149757
149756
149749
149735
149738
149737
149739
149745
149750
149755
149757
149761
149763
149770
149771
149771
149768
149766
149769
149770
149765
149765
149771
149772
149771
149772
149774
149772
149771
149763
149764
149762
149764
149730
149723
149681
149677
149626
149641
149601
149632
149689
149636
149602
149598
149603
149633
149691
149620
149666
149761
149851
149772
149696
149765
149849
149925
149985
149916
149830
149743
149678
149722
149687
149737
149736
149726
149731
149768
149765
149775
149777
149773
149775
149772
149774
149772
149773
149777
149775
149778
149779
149780
149782
149783
149785
149787
149793
149782
149781
149787
149801
149796
149804
149786
149770
149774
149792
149793
149808
149811
149814
149797
149797
149777
149778
149745
149761
149760
149784
149782
149802
149797
149802
149801
149820
149817
149818
149815
149830
149831
149829
149816
149814
149799
149808
149801
149816
149817
149827
149828
149818
149836
149827
149832
149839
149843
149836
149812
149811
149887
149973
150033
150079
150060
149958
149727
149870
149906
149801
149853
149856
149849
149867
149911
149870
149865
150006
150021
150026
149939
150031
149890
149965
150025
149927
149877
149913
150062
150093
150034
149959
149879
150147
149945
150012
150142
150104
150026
149868
150115
149936
150202
150068
150110
150047
149987
150023
150063
150158
150191
150159
150069
150157
149925
149873
149645
149359
148369
148422
149288
149426
148789
148111
147673
148152
147818
148184
147937
148230
148089
147938
148172
148055
148276
148197
148090
148280
148187
148357
148276
148429
148380
148298
148434
148367
148481
148414
148542
148476
148592
148541
148662
148630
148561
148669
148615
148717
148657
148752
148699
148791
148734
148821
148774
148858
148806
148886
148840
148920
148870
148946
148902
148977
148928
149001
148957
149029
148977
149050
149001
149069
149000
149082
149149
149227
149143
149220
149119
149193
149101
149180
149070
149147
149050
149132
149018
149099
148996
149083
148961
149045
148937
149028
148901
148990
148875
148971
148835
148927
148805
148896
148748
148814
148991
149144
149101
149219
149018
149073
149170
149268
149126
149217
149322
149133
149178
149263
149356
149223
149298
149400
149226
149267
149336
149425
149303
149363
149459
149300
149330
149244
149151
149092
149159
149111
149185
149141
149203
149151
149228
149179
149242
149186
149256
149178
149261
149332
149397
149334
149409
149312
149375
149303
149381
149272
149340
149260
149344
149239
149321
149468
149401
149495
149426
149509
149443
149534
149425
149335
149270
149339
149287
149349
149303
149356
149300
149359
149290
149362
149411
149350
149404
149354
149419
149369
149423
149362
149427
149346
149422
149489
149542
149504
149571
149488
149540
149490
149564
149474
149531
149491
149420
149485
149425
149489
149413
149473
149415
149481
149411
149468
149536
149609
149538
149639
149517
149552
149562
149639
149532
149555
149560
149665
149577
149656
149567
149690
149580
149492
149421
149480
149426
149481
149422
149470
149390
149467
149529
149576
149502
149440
149495
149436
149484
149424
149490
149425
149474
149379
149473
149506
149445
149490
149432
149476
149404
149467
149402
149451
149353
149439
149515
149560
149474
149386
149457
149391
149438
149367
149437
149319
149400
149299
149409
149419
149332
149388
149308
149366
149310
149356
149259
149313
149198
149290
149218
149266
149162
149233
149079
149185
149101
149173
149025
149100
148873
149041
149191
149233
149085
148989
149055
148826
148978
148970
148700
148845
148533
148740
148548
148714
148572
148632
148198
148503
148348
148441
147952
148275
148213
147772
148086
147358
147836
147531
147911
147347
146620
147339
146659
145808
146931
145950
145243
143684
145013
143265
142131
141118
139545
139430
140066
140441
140463
140501
140437
140489
140401
140430
140309
140338
140202
140238
140093
140137
139986
140040
139884
139949
139792
139867
139710
139797
139641
139735
139581
139684
139532
139635
139486
139593
139448
139554
139414
139524
139391
139497
139369
139480
139359
139467
139349
139462
139352
139460
139353
139466
139365
139473
139375
139488
139396
139504
139413
139526
139441
139547
139463
139575
139496
139601
139523
139632
139558
139663
139590
139697
139627
139729
139661
139765
139700
139800
139736
139838
139776
139873
139812
139911
139853
139948
139889
139986
139929
140022
139965
140059
140004
140094
140039
140130
140077
140164
140111
140199
140147
140232
140180
140265
140214
140296
140245
140328
140278
140357
140307
140387
140338
140415
140365
140444
140395
140470
140421
140497
140448
140522
140473
140548
140499
140571
140522
140595
140547
140618
140569
140640
140592
140661
140613
140683
140635
140703
140654
140723
140675
140742
140694
140761
140714
140779
140731
140797
140750
140814
140766
140832
140784
140848
140800
140865
140817
140880
140832
140896
140849
140911
140863
140926
140879
140940
140892
140954
140907
140968
140920
140982
140935
140995
140947
141008
140961
141021
140973
141034
140986
141046
140998
141058
141011
141069
141021
141081
141034
141092
141044
141104
141057
141115
141068
141129
141082
141143
141095
141164
141122
141205
141169
141270
141231
141421
141614
143120
143028
143597
142738
142799
143276
142573
142657
142995
142501
142589
142917
142446
142539
142797
142437
142531
142822
142414
142508
142761
142410
142505
142786
142393
142488
142741
142390
142486
142766
142375
142470
142725
142372
142468
142749
142357
142453
142709
142355
142451
142734
142339
142435
142693
142336
142433
142718
142321
142418
142677
142318
142415
142702
142302
142400
142661
142299
142398
142687
142283
142382
142645
142281
142380
142671
142265
142364
142629
142262
142362
142656
142245
142346
142613
142243
142343
142640
142226
142327
142598
142224
142325
142625
142207
142309
142582
142204
142307
142610
142188
142291
142567
142185
142289
142596
142168
142272
142552
142165
142271
142581
142148
142254
142536
142146
142253
142567
142129
142236
142522
142127
142235
142553
142110
142219
142508
142107
142218
142540
142090
142201
142495
142089
142201
142528
142072
142185
142482
142070
142185
142517
142054
142169
142471
142053
142169
142506
142036
142154
142460
142036
142155
142497
142020
142140
142452
142020
142142
142490
142005
142128
142444
142006
142131
142485
141991
142117
142439
141993
142122
142481
141979
142109
142436
141983
142115
142480
141970
142103
142435
141975
142111
142481
141963
142100
142436
141969
142110
142485
141959
142100
142441
141967
142112
142492
141958
142104
142448
141968
142118
142502
141961
142112
142458
141974
142128
142514
141969
142124
142472
141984
142142
142529
141981
142140
142489
141999
142161
142547
141997
142161
142508
142018
142184
142568
142017
142186
142531
142042
142212
142592
142044
142217
142558
142071
142245
142619
142075
142252
142588
142104
142283
142650
142111
142293
142622
142142
142326
142684
142153
142340
142660
142186
142374
142721
142200
142391
142701
142234
142427
142763
142252
142448
142748
142285
142483
142809
142308
142507
142801
142339
142540
142860
142366
142566
142859
142394
142596
142916
142419
142618
142923
142437
142636
142976
142449
142643
142990
142441
142630
143035
142420
142603
143034
142361
142540
143083
142269
142441
143146
142120
142281
143179
141891
142013
142991
141611
141565
142509
141087
141004
143322
141209
142706
144919
143768
144778
145713
145882
146580
145903
146321
146763
146909
147652
147172
146810
146938
147536
147691
148633
147465
147892
147718
148034
148123
148097
148201
148286
148509
148461
148522
149317
148648
148583
148803
148659
148844
148773
148934
148810
148962
148914
149070
148934
149058
149057
149114
149220
149120
149163
149208
149328
149499
149254
149314
149225
149314
149286
149385
149293
149365
149340
149425
149352
149423
149394
149474
149401
149464
149440
149519
149451
149520
149476
149546
149483
149497
149576
149497
149545
149532
149615
149513
149557
149551
149627
149694
149596
149590
149518
149576
149538
149600
149538
149593
149556
149611
149567
149552
149612
149545
149583
149566
149626
149550
149588
149571
149631
149671
149586
149680
149583
149668
149575
149652
149750
149614
149707
149618
149653
149580
149740
149599
149656
149593
149774
149811
149693
149626
149782
149700
149705
149730
149776
149699
149680
149612
149604
149547
149594
149647
149683
149607
149661
149721
149770
149666
149652
149713
149767
149659
149654
149691
149761
149645
149600
149670
149575
149632
149570
149651
149551
149617
149539
149626
149511
149588
149492
149589
149453
149544
149424
149528
149372
149474
149326
149445
149265
149075
148817
148656
148778
148577
148680
148535
148620
148798
148982
148938
149181
148932
148757
148558
148700
148498
148639
148418
148537
148708
148447
148634
148345
148513
148995
148905
149054
148787
149008
149115
148847
148899
149070
149280
149611
149268
149572
149418
149034
148823
148558
148937
148622
149133
149539
149809
149671
149681
149676
149758
149789
150007
149724
149920
149956
149937
149894
149984
149880
149845
149579
149106
149344
149275
149589
149723
149730
149873
149830
149954
149787
149610
149326
149495
149381
149215
149396
149643
149535
149575
149682
149619
149714
149646
149733
149658
149747
149662
149756
149660
149788
149836
149785
149837
149781
149842
149777
149852
149769
149862
149757
149884
150000
150035
149953
149996
149927
149960
149901
149937
149889
149924
149882
149916
149878
149834
149789
149833
149789
149831
149790
149828
149813
149745
149713
149698
149800
149657
149647
149813
149814
149861
149826
149864
149896
149923
149895
149856
149816
149855
149812
149810
149761
149721
149542
149546
149661
149485
149619
149771
149585
149590
149570
149417
149591
149481
149533
149383
149556
149489
149316
149561
149377
149454
149283
149512
149392
149193
149336
149550
149524
149628
149684
149580
149557
149612
149648
149517
149795
149638
149548
149874
149474
149817
149404
149819
149631
149582
149436
149824
149299
149529
149487
149430
149011
149424
149045
149150
148926
149351
149012
148771
149265
148829
148886
148637
148983
148723
149923
149202
149155