/*--------------------------------*- C++ -*----------------------------------*\
| =========                 |                                                 |
| \\      /  F ield         | OpenFOAM: The Open Source CFD Toolbox           |
|  \\    /   O peration     | Version:  v2006                                 |
|   \\  /    A nd           | Website:  www.openfoam.com                      |
|    \\/     M anipulation  |                                                 |
\*---------------------------------------------------------------------------*/
FoamFile
{
    version     2.0;
    format      ascii;
    class       volScalarField;
    location    "0.014";
    object      k;
}
// * * * * * * * * * * * * * * * * * * * * * * * * * * * * * * * * * * * * * //

dimensions      [0 2 -2 0 0 0 0];


internalField   nonuniform List<scalar> 
9148
(
128.948
128.954
128.959
128.956
128.911
128.751
128.417
127.936
127.353
126.726
126.07
125.394
124.694
123.963
123.197
122.392
121.546
120.661
119.739
118.78
117.786
116.759
115.701
114.614
113.5
112.362
111.202
110.02
108.822
107.61
106.387
105.156
103.919
102.679
101.439
100.202
98.9708
97.7477
96.5359
95.338
94.1568
92.9949
91.8548
90.7392
89.6503
88.5906
87.5622
86.5674
85.6081
84.6863
83.8041
82.9631
82.165
81.4103
80.6978
80.0244
79.3865
78.7901
78.2618
77.8575
77.6215
77.5325
77.5227
77.5403
77.5679
77.54
77.462
77.2948
76.9863
76.2111
74.7602
67.319
59.2159
70.5026
74.8767
72.3076
65.1846
53.1376
48.2998
60.361
69.5452
66.5066
56.1109
44.5913
41.7195
52.6484
63.9352
61.0744
49.4376
39.32
37.5554
47.2115
59.1193
56.8047
44.8698
35.8959
34.7494
43.5894
55.3573
53.4161
41.7995
33.5461
32.7357
41.0134
52.3634
50.7392
39.6275
31.8111
31.1926
39.0961
49.929
48.5417
37.9881
30.4486
29.9443
37.5816
47.892
46.6707
36.6695
29.3168
28.8847
36.3323
46.1282
45.0219
35.5449
28.3305
27.9424
35.2489
44.5487
43.529
34.5406
27.438
27.0801
34.2699
43.0943
42.1474
33.6162
26.6112
26.2747
33.3652
41.7435
40.857
32.7555
25.8331
25.513
32.5207
40.4797
39.6495
31.9492
25.0937
24.7872
31.7297
39.2989
38.5245
31.1941
24.3863
24.0908
30.9885
38.1999
37.4792
30.4852
23.7045
23.4173
30.2914
37.1788
36.5077
29.8155
23.0414
22.7594
29.631
36.2286
35.6003
29.1761
22.3895
22.1095
28.9975
35.338
34.7432
28.5565
21.7411
21.4596
28.3803
34.4927
33.9209
27.9455
21.0887
20.8029
27.7682
33.6769
33.1177
27.3326
20.426
20.1337
27.1513
32.8758
32.3209
26.7093
19.7486
19.4482
26.5221
32.0779
31.5219
26.0701
19.0535
18.7441
25.8762
31.2767
30.7181
25.4132
18.339
18.0199
25.2123
30.4707
29.9096
24.7377
17.6035
17.2737
24.5293
29.66
29.0965
24.0423
16.8447
16.5031
23.8257
28.8447
28.2784
23.325
16.0601
15.7054
23.0998
28.0242
27.4546
22.5843
15.2467
14.8774
22.3492
27.1975
26.6225
21.8161
14.4008
14.015
21.5698
26.3611
25.7776
21.0157
13.518
13.113
20.7545
25.5091
24.9108
20.1723
12.5919
12.1635
19.8918
24.6319
24.0113
19.273
11.6142
11.1562
18.9674
23.7177
23.0668
18.3016
10.5747
10.076
17.961
22.7534
22.0644
17.2473
9.46163
8.90166
16.8182
21.7207
20.9897
16.0703
8.2473
7.6038
15.4992
20.5647
19.8148
14.6979
6.89006
6.12865
13.8905
19.2246
18.4769
12.9975
5.31014
4.39886
11.6952
17.5538
16.7404
10.5878
3.53377
2.1953
7.78314
15.1159
11.6795
3.77136
0.835752
1.4882
3.14985
7.31994
8.39863
6.48881
2.31354
2.65877
7.3678
13.9408
15.7565
7.76985
2.73983
2.15298
6.75717
14.257
9.66154
2.86549
0.826496
0.283918
0.417472
1.26131
0.415323
0.256889
0.154975
0.117596
0.250309
0.392993
0.405076
0.251863
0.112366
0.263344
0.363722
0.512866
0.560606
0.452873
0.427158
0.587021
0.521342
0.612179
0.623332
0.536269
0.655401
0.67537
0.53755
0.626224
0.570717
0.484911
0.601091
0.512988
0.463824
0.54423
0.478772
0.429962
0.409527
0.339168
0.416713
0.455107
0.425886
0.395456
0.276036
0.245232
0.386679
0.41511
0.407988
0.373968
0.233626
0.252376
0.368801
0.406214
0.408183
0.372305
0.288262
0.33712
0.382264
0.412021
0.414599
0.39403
0.396446
0.462453
0.401739
0.415095
0.415038
0.405874
0.532104
0.601449
0.406423
0.407277
0.402001
0.399606
0.667369
0.727352
0.384148
0.389811
0.384279
0.368184
0.779633
0.821797
0.343586
0.373304
0.368875
0.325704
0.852521
0.866955
0.297266
0.356799
0.351383
0.278626
0.87075
0.855582
0.247615
0.331684
0.321893
0.23139
0.820691
0.768131
0.197595
0.291489
0.276988
0.181282
0.7017
0.622769
0.146568
0.238138
0.220358
0.130518
0.535937
0.442554
0.0988017
0.179189
0.16115
0.0846766
0.35006
0.25939
0.0607365
0.125045
0.111093
0.050251
0.180298
0.11359
0.0352083
0.0852318
0.0771639
0.0298359
0.0664547
0.0229603
0.0169761
0.0463085
0.0351009
0.0128168
0.00587392
0.00108392
0.0100519
0.0222191
0.0538371
0.124356
0.247036
0.453409
0.726785
1.00121
1.2276
1.4238
1.58493
1.71715
1.82589
1.91865
1.98164
2.00815
2.00912
1.9475
1.82279
1.65103
1.51786
1.46593
0.453606
0.22486
0.26753
0.162602
0.0965723
0.0548376
0.0158517
0.0141281
0.010567
0.0288951
0.0305603
0.00741388
0.0166671
0.0211843
0.00533092
0.0225286
0.0313381
0.00560402
0.0166855
0.0244954
0.00928997
0.0588408
0.0837633
0.012117
0.0203783
0.0302194
0.0320227
0.23022
0.649663
0.106649
0.056764
0.097701
0.290697
1.24686
1.42299
0.31715
0.121405
0.112357
0.278545
1.38451
0.806439
0.162264
0.0875241
0.0568956
0.100341
0.674093
0.877471
0.124442
0.0423901
0.0368602
0.24637
1.34902
1.55246
0.31592
0.0286567
0.0182723
0.496547
2.07839
2.27552
0.659112
0.0488334
0.120549
1.01467
2.81192
2.96708
1.18352
0.207108
0.342557
1.59756
3.52538
3.67236
1.73307
0.469916
0.64476
2.13988
4.25297
4.39808
2.24235
0.799035
1.00951
2.65552
5.03993
5.20162
2.74267
1.18933
1.43259
3.17107
5.93664
6.12666
3.24612
1.64501
1.94431
3.75873
7.01842
7.27146
3.86343
2.21376
2.61269
4.55345
8.37817
8.70905
4.74441
2.98601
3.46188
5.7584
10.1159
10.431
5.92972
3.72686
4.08573
7.17805
12.1443
12.4552
7.28408
4.20754
4.57514
8.80243
14.4618
14.9693
9.11215
4.66769
5.0604
10.9546
17.2247
18.0848
11.4835
5.16202
5.75131
13.7305
20.7372
22.5773
14.9999
6.17892
7.52335
18.6889
25.0054
17.4069
9.62193
3.65403
5.87358
18.4995
26.6968
29.3141
20.1031
6.4518
8.18864
24.3591
33.7668
38.2109
28.0547
9.18987
8.61505
29.3992
39.6084
38.2597
26.64
5.61764
12.1739
36.6481
47.7147
57.5707
48.6961
21.4661
14.203
32.2061
49.5665
58.819
45.3267
20.8291
37.6848
66.7701
71.2039
79.4469
68.9026
37.1828
37.2402
51.1947
69.2649
87.5588
83.6711
62.6051
70.8878
92.3356
89.524
101.285
102.387
76.3798
76.8201
79.0951
89.8588
85.0418
69.6932
70.4484
69.5204
75.6631
87.8485
76.4723
66.1387
65.2288
54.5739
48.3862
52.5556
58.6481
53.1789
50.2295
40.5083
40.4429
44.4565
48.6579
44.502
39.9897
34.2065
34.255
37.4744
41.2904
36.4946
32.8842
31.1502
32.2556
36.6186
25.4549
23.5172
27.8983
26.4648
25.8442
29.0298
22.7699
21.2707
24.6133
23.1888
22.4337
25.9312
23.0127
20.4614
21.845
22.3579
16.5428
17.0387
19.1749
17.199
20.4091
20.8802
15.4387
15.6466
17.7505
15.8638
18.9784
19.6453
14.393
14.6073
16.2726
14.4592
17.4972
17.7014
13.514
14.6564
11.8167
12.6167
19.412
17.2504
12.2644
12.9033
11.1434
12.266
18.8993
16.6161
11.2146
12.0792
10.5836
11.8255
18.3256
16.0593
10.5205
11.6226
10.2149
11.3203
17.8417
15.6474
10.17
11.3156
9.92213
10.8302
17.3563
15.0974
9.96269
11.0471
10.0081
9.71077
16.2358
18.6871
11.4036
9.18711
9.30173
8.87091
16.081
18.9567
11.0744
8.76455
9.0408
8.43344
15.9855
18.6988
10.9298
8.62687
8.87643
8.29972
15.903
18.5921
10.804
8.54239
8.85495
8.15807
15.8336
18.7834
10.7825
8.54107
8.78442
8.09708
15.9909
18.9966
10.8304
8.53778
8.74518
8.08339
16.1323
19.248
10.9608
8.56694
8.71267
8.07828
16.3185
19.551
11.0725
8.59899
8.64766
8.12317
16.6512
20.0486
11.277
8.63135
8.65178
8.1428
16.9634
20.4468
11.4364
8.68927
8.66023
8.22035
17.3567
21.0319
11.7435
8.77595
8.68625
8.29282
17.7403
21.5762
11.9532
8.85032
8.70539
8.35713
18.1938
22.2739
12.2803
8.96387
8.70768
8.43957
18.7383
23.0304
12.4564
9.05349
8.61376
8.39246
19.5813
24.7313
13.3766
9.18056
8.98898
10.2845
23.8989
20.0914
7.6076
9.79865
9.643
11.7201
22.9142
19.2779
8.95865
9.74579
9.92293
12.9883
22.7691
19.5532
9.6071
9.83245
10.163
13.6838
23.7039
20.3421
9.7847
9.86824
10.2863
14.1425
24.9709
21.2122
9.88452
9.9182
10.4211
14.4858
25.8608
21.9735
9.88375
9.90905
10.5491
14.9238
27.3377
23.2096
9.89352
9.88147
10.7773
15.9767
29.4782
28.6786
12.2046
10.2476
10.8961
8.61818
24.1915
28.1031
14.0603
11.059
10.9656
10.2738
23.386
27.6124
15.5671
11.4633
11.0546
11.0949
23.4291
28.4137
16.3425
11.7198
11.1573
11.2854
24.1053
29.862
16.8367
11.9423
11.1535
11.3125
25.4374
32.1469
17.8939
12.2027
11.622
13.9202
31.7037
27.0247
9.77296
12.1228
12.492
16.0632
31.8221
26.6403
11.6563
12.1623
12.9372
17.9721
32.0296
27.152
12.5953
12.293
13.2366
18.8166
33.1537
28.0588
12.7396
12.3836
13.451
19.2767
34.6791
29.6033
12.6831
12.3864
13.7538
20.4586
37.3104
36.5222
15.7419
12.8024
13.1146
10.7042
31.1128
37.0707
18.2783
13.7598
13.189
12.7555
30.8031
37.5202
20.52
14.2944
13.5019
13.9307
31.4247
38.82
21.6585
14.8549
13.7465
14.3131
32.6513
40.9326
22.9345
15.335
14.4445
17.8582
39.8666
34.1403
12.2726
14.7118
15.5404
20.6263
41.0199
34.5152
14.531
14.8395
16.2457
23.4048
42.4327
35.5564
15.8045
15.1814
16.7822
24.8077
44.2094
36.9637
16.2962
15.5126
17.2611
25.4559
46.1949
38.5043
16.315
15.6625
17.7387
26.8449
48.6829
47.2125
20.5909
16.2936
16.305
13.6786
40.0256
48.228
23.9693
17.5502
16.4171
16.3763
40.1673
49.6812
27.1337
18.2675
16.9994
17.9202
41.5202
52.0204
28.8798
19.0803
17.5554
18.6299
43.3717
54.4624
29.7703
19.8044
17.9035
18.8694
45.3676
57.5656
31.6567
20.5003
18.9554
24.4385
56.31
47.8817
15.8146
18.4799
20.2723
28.5022
57.9165
48.0335
19.0166
18.7324
21.2115
32.2757
59.4347
49.5393
20.8676
19.4417
22.0918
33.9546
62.1486
51.525
21.4827
20.0665
22.99
35.2302
65.2319
54.1683
21.9198
20.6361
24.0242
37.4157
68.7547
66.9818
28.7792
22.1291
21.0267
18.2134
56.1412
67.8143
33.5177
23.336
21.5693
22.1822
56.3349
69.8052
37.9811
24.6062
22.6861
24.4759
57.9488
72.3257
40.2165
25.9596
23.7335
25.5424
59.6623
75.2685
41.543
27.1019
24.592
26.3791
62.356
78.7594
43.0697
28.1073
25.4061
27.0711
65.0529
81.8946
44.3913
29.1337
26.0915
27.6833
67.0372
85.064
45.682
30.1031
26.7124
28.4513
69.8977
89.0858
47.547
31.129
27.4261
29.2307
73.0802
92.6485
48.9632
32.1788
28.1147
29.7493
75.5448
96.9704
50.4107
33.3939
28.679
30.5576
79.7515
103.239
54.9957
35.1724
30.6502
42.1066
100.934
83.9254
25.2729
27.8941
32.1257
48.7201
101.004
82.2862
30.6803
29.3225
34.235
55.4906
102.891
84.2553
36.3522
31.4505
31.2496
41.1283
98.9289
124.691
73.3852
42.7104
34.7254
39.736
97.6386
127.807
67.7103
42.89
35.0487
38.4646
101.631
129.584
66.735
42.7646
35.5839
38.5533
103.8
132.441
67.1535
43.2458
36.2426
39.2884
105.752
136.658
70.9813
44.6039
37.4919
41.4037
109.342
139.278
72.3421
45.9025
38.7218
41.7125
109.253
142.166
75.6732
47.1129
40.0606
47.5154
115.05
136.273
52.9465
39.6736
56.0247
98.1637
175.616
136.156
50.714
43.7004
55.9613
92.057
180.691
139.805
49.5987
44.189
54.1645
88.2302
177.713
139.484
53.469
44.6892
44.0877
59.2279
164.693
214.384
118.91
63.0652
48.6487
61.1431
164.078
191.994
64.6581
47.5042
69.7523
135.258
254.271
181.558
62.7787
51.4573
51.6787
80.9541
220.657
247.691
72.2311
50.7346
85.589
180.542
337.774
239.132
75.7865
58.0502
55.5484
85.0432
272.271
323.977
108.142
59.2071
59.0002
111.753
368.315
409.37
123.276
61.5921
61.5101
126.337
405.113
390.059
138.888
63.374
62.8163
139.188
355.912
319.828
144.27
63.7249
63.1849
144.065
285.664
255.126
146.96
64.5773
64.3438
148.63
228.155
205.174
151.572
66.8717
67.4307
155.092
185.759
169.407
156.654
72.3787
73.9045
157.923
155.524
143.628
158.183
80.7342
82.4981
158.997
133.486
124.707
159.012
89.5326
91.3947
159.95
117.314
110.877
159.913
98.627
100.609
160.983
105.592
100.939
160.957
107.838
109.57
162.18
97.2882
93.9802
162.108
116.255
117.836
163.327
91.6083
89.242
163.13
123.956
125.305
164.286
87.9136
86.0616
163.933
130.851
132.033
164.709
85.796
84.4562
164.136
136.986
137.907
164.484
84.5868
83.7555
163.695
142.222
142.854
163.846
84.0508
83.4663
162.828
146.409
146.753
162.9
83.8668
83.427
161.707
149.538
149.694
161.749
83.8933
83.5041
160.441
151.847
151.836
160.475
84.0691
83.6978
159.16
153.407
153.324
159.199
84.3116
83.959
157.873
154.452
154.41
157.94
84.6178
84.2875
156.692
155.025
155.036
156.78
84.9904
84.6833
155.568
155.294
155.197
155.675
85.4285
85.1448
154.545
155.284
154.974
154.649
85.9223
85.6592
153.523
154.951
154.461
153.631
86.4584
86.2142
152.542
154.293
153.752
152.636
87.0267
86.7976
151.523
153.433
152.842
151.611
87.6137
87.3981
150.518
152.386
151.769
150.584
88.2098
88.0043
149.459
151.217
150.572
149.517
88.8021
88.606
148.415
149.932
149.277
148.452
89.3873
89.1984
147.327
148.582
147.912
147.357
89.9559
89.7739
146.263
147.165
146.497
146.276
90.5095
90.3334
145.175
145.73
145.045
145.185
91.0416
90.8714
144.123
144.269
143.577
144.126
91.555
91.3913
143.074
142.815
142.121
143.076
92.0466
91.8883
142.064
141.349
140.697
142.064
92.5187
92.365
141.06
139.86
139.22
141.055
92.9658
92.8158
140.082
138.355
137.742
140.069
93.3884
93.2404
139.096
136.879
136.276
139.085
93.7812
93.6349
138.163
135.429
134.846
138.147
94.1475
94.0034
137.235
134.015
133.422
137.214
94.4883
94.345
136.336
132.599
132.018
136.313
94.8024
94.6603
135.45
131.233
130.652
135.426
95.0902
94.9484
134.606
129.895
129.334
134.588
95.3531
95.2126
133.793
128.622
128.066
133.777
95.5939
95.4544
133.03
127.387
126.855
133.024
95.8159
95.6784
132.308
126.226
125.701
132.306
96.0219
95.8862
131.642
125.11
124.609
131.649
96.2152
96.0821
131.017
124.076
123.565
131.027
96.3973
96.2662
130.446
123.089
122.577
130.463
96.5705
96.4419
129.912
122.173
121.645
129.931
96.7351
96.6086
129.428
121.305
120.775
129.455
96.8939
96.7698
128.978
120.497
119.952
129.006
97.0465
96.9243
128.572
119.731
119.185
128.608
97.1946
97.0745
128.196
119.019
118.46
128.231
97.3374
97.219
127.858
118.343
117.786
127.901
97.4774
97.3609
127.544
117.712
117.15
127.585
97.6134
97.4985
127.262
117.111
116.563
127.311
97.7478
97.6345
127.001
116.548
116.01
127.049
97.8776
97.7655
126.768
116.013
115.503
126.828
98.0063
97.8955
126.552
115.514
115.022
126.618
98.1315
98.0217
126.359
115.041
114.576
126.435
98.2556
98.1469
126.181
114.601
114.151
126.262
98.3764
98.2685
126.022
114.185
113.758
126.113
98.4962
98.3893
125.876
113.798
113.383
125.97
98.613
98.5066
125.747
113.431
113.037
125.85
98.7287
98.6232
125.628
113.089
112.706
125.733
98.8414
98.7363
125.524
112.766
112.401
125.638
98.9531
98.8487
125.429
112.465
112.109
125.544
99.0618
98.9577
125.347
112.181
111.841
125.469
99.1696
99.0661
125.272
111.916
111.584
125.395
99.2746
99.1713
125.209
111.666
111.349
125.338
99.3789
99.2763
125.152
111.437
111.117
125.281
99.4806
99.3781
125.105
111.219
110.91
125.24
99.5817
99.4797
125.063
111.02
110.703
125.197
99.6803
99.5784
125.03
110.828
110.522
125.169
99.7785
99.677
125.001
110.654
110.339
125.138
99.8743
99.773
124.979
110.485
110.181
125.122
99.97
99.8691
124.961
110.331
110.019
125.102
100.063
99.9627
124.949
110.182
109.88
125.095
100.157
100.057
124.94
110.046
109.736
125.084
100.249
100.148
124.936
109.913
109.614
125.086
100.34
100.24
124.935
109.791
109.485
125.081
100.43
100.33
124.939
109.674
109.379
125.09
100.52
100.421
124.944
109.568
109.265
125.092
100.609
100.509
124.954
109.465
109.172
125.107
100.698
100.599
124.966
109.371
109.071
125.115
100.786
100.687
124.981
109.28
108.991
125.136
100.875
100.776
124.998
109.198
108.9
125.149
100.962
100.864
125.018
109.118
108.83
125.175
101.05
100.952
125.04
109.046
108.749
125.192
101.137
101.039
125.064
108.975
108.689
125.222
101.225
101.127
125.09
108.912
108.616
125.243
101.311
101.213
125.118
108.85
108.565
125.277
101.397
101.3
125.147
108.795
108.501
125.301
101.481
101.383
125.175
108.744
108.452
125.328
101.562
101.46
125.204
108.683
108.399
125.36
101.668
101.568
125.233
108.642
108.365
125.388
101.727
101.621
125.285
108.604
108.3
125.438
101.813
101.699
125.374
108.435
108.09
125.52
101.947
101.83
125.567
108.13
107.671
125.683
102.169
102.224
125.85
107.681
106.806
125.55
103.122
104.342
125.234
105.277
103.96
125.36
105.752
78.3506
60.1724
59.0671
61.5377
71.0375
81.2777
89.6217
94.5574
109.806
117.32
119.087
118.975
116.512
113.761
111.716
110.71
110.468
110.641
110.983
111.365
111.728
112.052
112.332
112.569
112.769
112.933
113.068
113.171
113.248
113.299
113.33
113.343
113.358
113.39
113.439
113.5
113.57
113.648
113.73
113.819
113.912
114.012
114.121
114.238
114.367
114.509
114.698
115.008
115.474
116.027
116.578
117.079
117.518
117.897
118.225
118.505
118.745
118.948
119.119
119.262
119.381
119.48
119.564
119.635
119.697
119.752
119.803
119.851
119.899
119.948
119.999
120.054
120.114
120.179
120.252
120.332
120.421
120.519
120.625
120.741
120.865
120.998
121.139
121.287
121.442
121.602
121.768
121.937
122.11
122.286
122.463
122.641
122.821
123
123.18
123.36
123.539
123.719
123.898
124.077
124.257
124.437
124.618
124.8
124.983
125.168
125.354
125.54
125.728
125.916
126.103
126.289
126.473
126.653
126.829
127
127.165
127.324
127.475
127.618
127.754
127.882
128.002
128.114
128.217
128.313
128.399
128.475
128.542
128.598
128.642
128.675
128.695
128.703
128.705
128.701
128.692
128.68
128.667
128.658
128.655
128.656
128.665
128.681
128.704
128.733
128.763
128.793
128.819
128.84
128.856
128.871
128.886
128.902
128.918
128.933
128.945
128.936
128.9
128.789
128.541
128.138
127.621
127.032
126.396
125.724
125.018
124.275
123.494
122.671
121.807
120.903
119.96
118.98
117.965
116.916
115.836
114.726
113.589
112.427
111.243
110.04
108.823
107.593
106.352
105.102
103.846
102.588
101.331
100.077
98.8293
97.5911
96.3651
95.154
93.9606
92.7876
91.6374
90.5128
89.416
88.3494
87.3152
86.3155
85.3524
84.4278
83.5438
82.702
81.9041
81.1506
80.4405
79.7724
79.1474
78.577
78.091
77.7259
77.493
77.3664
77.2688
77.062
76.2333
75.2418
72.6229
71.1691
70.0523
68.6313
67.6426
66.3004
65.4455
64.18
63.4423
62.2449
61.599
60.4554
59.8727
58.77
58.2332
57.1574
56.6534
55.6007
55.1236
54.0988
53.6431
52.6567
52.2257
51.2833
50.879
49.9852
49.6086
48.7645
48.4138
47.616
47.2873
46.5277
46.2153
45.4829
45.1806
44.4639
44.166
43.4555
43.1582
42.4476
42.1491
41.4361
41.1364
40.4216
40.1212
39.4063
39.1059
38.3923
38.0921
37.3801
37.0791
36.3657
36.0629
35.3465
35.0396
34.3152
34.0009
33.2624
32.9377
32.1787
31.8406
31.0557
30.7012
29.8861
29.5113
28.6608
28.2583
27.3914
26.8675
25.9905
25.0867
23.0334
20.932
17.4967
17.5136
18.2551
20.425
21.4494
5.85741
1.70775
0.963785
0.769109
0.845238
0.876321
0.99073
1.02857
1.05229
0.96946
0.93004
0.825806
0.780878
0.730941
0.708469
0.691407
0.682123
0.682386
0.681592
0.689526
0.690301
0.699472
0.700202
0.709241
0.709566
0.717244
0.716897
0.721138
0.713247
0.713046
0.687489
0.678398
0.628113
0.607521
0.530954
0.499481
0.413364
0.379263
0.292103
0.262464
0.19142
0.177196
0.101075
0.075736
0.161885
0.322538
0.497891
0.233759
0.453105
0.989121
0.922698
0.467253
0.718232
1.54753
2.80266
1.70231
0.991709
0.604311
0.998746
1.69144
2.66541
3.21501
2.43079
1.43952
1.87847
2.90845
3.85273
4.40346
5.50975
3.47275
1.44291
0.752763
1.00078
2.01176
1.87058
1.02888
1.23879
2.33988
3.94561
4.19682
2.15989
1.24364
1.39653
2.54231
2.32027
1.38229
1.47282
2.6162
4.18996
4.08452
2.35872
1.44368
1.4865
2.58712
2.3024
1.44617
1.46987
2.4799
3.91647
3.68349
2.19631
1.40758
1.42463
2.34566
2.08565
1.36302
1.37787
2.21275
3.44125
3.23581
1.98829
1.32406
1.3399
2.10711
1.911
1.29706
1.31468
2.02205
3.05548
2.88387
1.84787
1.28104
1.30151
1.95551
1.7935
1.2827
1.32051
1.93397
2.88269
3.02794
1.78514
1.31421
1.38243
2.00564
1.87513
1.40178
1.55345
2.43437
3.95944
11.5086
2.18444
1.60814
1.8985
4.31317
4.52848
2.11717
2.08752
4.64646
16.1288
18.1535
4.521
2.05177
1.8749
5.03765
9.74167
2.1102
2.35511
13.6273
26.1781
31.7698
22.1144
7.89627
16.2455
22.2179
26.4384
20.5749
21.9022
25.6787
37.066
41.3379
30.1821
21.477
21.3555
29.7605
34.9802
24.6932
26.1904
34.4163
44.9428
48.3056
38.8686
29.9622
31.221
38.2639
41.6571
33.4915
34.0384
40.827
50.7334
52.5789
43.5113
35.4529
35.6603
42.5229
44.9165
36.9237
37.0376
43.9308
54.0547
55.3766
46.1784
38.252
38.3454
45.2352
47.3918
39.5214
39.6026
46.4858
56.5679
57.7031
48.5703
40.7457
40.8156
47.6916
49.7113
41.9296
41.99
48.858
58.7802
59.8135
50.8193
43.0785
43.1309
49.9893
51.8961
44.1986
44.245
51.0895
60.8052
61.7601
52.9453
45.2963
45.3393
52.1629
53.971
46.379
46.4218
53.2154
62.6809
63.5694
54.9796
47.4523
47.4952
54.2499
55.969
48.5169
48.5611
55.2664
64.4258
65.2458
56.9396
49.5739
49.6195
56.2646
57.8888
50.6216
50.6686
57.243
66.0233
66.7578
58.8156
51.6578
51.7061
58.2012
59.7213
52.6813
52.7311
59.1393
67.4633
68.1388
60.6064
53.6933
53.7466
60.06
61.4775
54.7011
54.7619
60.9712
68.7907
69.4267
62.3449
55.7166
55.7905
61.8843
63.2206
56.7545
56.8475
62.8111
70.0554
70.6822
64.1155
57.8289
57.9465
63.7621
65.0369
58.9501
59.0961
64.7443
71.3073
71.9223
65.9897
60.1206
60.2946
65.7534
66.9631
61.3318
61.5291
66.7702
72.5175
73.0857
67.9306
62.5689
62.7859
67.7784
68.8757
63.8161
64.0481
68.7615
73.6119
74.0873
69.7839
65.0577
65.3022
69.7064
70.6466
66.2846
66.5421
70.6073
74.512
74.8912
71.4643
67.498
67.7742
71.4692
72.2468
68.7159
69.0252
72.317
75.2399
75.5776
73.0139
69.9367
70.3139
73.1617
73.7899
71.1965
71.6527
74.0219
75.9243
76.2945
74.5895
72.5068
73.0461
74.901
75.4148
73.8703
74.475
75.7848
76.6857
77.097
76.9286
76.7909
76.684
76.595
76.5061
76.3997
76.2622
76.087
75.8632
75.5982
75.3035
74.9886
74.662
74.3291
73.9912
73.6451
73.285
72.9045
72.4979
72.0642
71.6033
71.116
70.6048
70.0715
69.5162
68.936
68.3251
67.6738
66.972
66.1991
65.3349
64.3188
63.084
61.4951
59.4021
56.7804
53.3641
49.6913
44.2362
38.3911
30.2827
22.7171
19.7788
15.9709
8.07343
5.39161
5.19585
5.13218
5.32806
5.61382
5.91171
6.29015
6.5494
6.65832
6.64473
6.24768
8.34843
7.44824
5.8773
4.44914
3.49455
2.31926
2.71406
3.90999
4.94801
5.61491
4.43005
3.10951
3.46907
4.80596
5.96399
7.41479
9.28245
10.794
8.77251
6.72398
5.31472
3.82473
4.09157
5.58408
6.8283
7.5726
5.97736
4.37254
4.4997
6.07698
7.46041
9.65488
12.0006
12.8254
11.637
10.1881
10.5253
8.76487
8.73858
8.56772
10.1569
10.4494
11.7061
11.8897
12.9829
12.5983
11.8662
11.2253
10.7071
9.66633
8.19705
7.73373
9.22953
9.03087
7.43651
7.15801
9.04926
11.7045
10.6764
10.3975
11.0608
11.2645
12.2176
12.6666
13.5101
14.0482
13.7616
12.5661
10.0414
7.82379
6.19489
4.55695
4.41655
5.8999
7.3546
7.44825
5.64775
4.04881
3.12097
4.15094
5.83089
9.83166
12.4003
9.72653
8.14253
6.54044
4.86569
3.48364
2.64052
1.4432
0.945893
0.879902
0.40009
0.115736
0.113874
0.376806
0.754665
0.20512
0.361792
1.35277
2.1708
3.00987
2.50076
1.81181
0.539651
1.25656
2.27361
2.6392
3.11004
3.99367
5.38462
6.98639
8.38489
10.974
12.3929
14.1775
15.1628
15.7261
15.7853
18.1768
17.3365
16.2711
15.3797
14.4918
13.373
11.1837
9.97239
7.41996
6.00751
6.16046
4.80105
4.92795
3.72286
3.78543
3.04093
2.53625
2.54242
2.55334
2.48324
2.8818
3.0707
3.78895
3.90197
4.72251
4.83334
7.19599
8.6263
8.42292
5.82495
5.70729
6.75393
9.90488
12.6624
13.8488
11.1661
9.65868
6.8636
7.862
8.00078
10.9884
12.5806
15.3325
16.6585
18.2045
19.8512
19.5687
20.1705
15.8249
16.1914
12.1547
13.5953
11.8629
14.1152
17.9292
14.1129
9.98705
7.12831
7.74401
13.4065
18.0996
12.1306
17.0053
24.0821
33.2485
25.1548
18.4881
24.6138
33.2174
42.7575
51.9339
41.6307
31.8594
23.1835
17.0393
22.4496
18.1037
24.9537
24.3158
22.4499
21.9207
23.7052
21.5874
19.8387
17.8846
17.7431
15.8329
15.8647
14.0707
14.0893
12.4275
9.26376
9.10323
10.4989
10.721
12.1054
12.3695
13.9489
14.2927
16.0557
16.3996
19.9738
22.055
22.3552
18.8334
18.4023
21.0876
24.4635
25.8659
28.4001
27.295
25.1692
21.7765
24.2124
25.4278
28.4945
30.652
30.8176
32.874
26.864
27.594
30.3704
34.4876
33.3358
38.556
37.525
35.1234
32.7197
30.4787
28.1959
34.0083
37.8406
34.6982
30.0014
37.972
40.3098
42.8402
40.1089
40.3496
40.7596
45.7439
44.8042
45.7439
41.676
50.1993
48.4142
54.3272
51.8225
44.1768
39.8413
36.147
32.7636
30.3089
38.7399
49.9414
62.0363
71.3883
61.2109
47.0737
34.1833
39.0832
45.4066
40.0404
43.9192
51.0482
60.9398
60.9121
51.6449
52.9808
59.0212
59.8914
56.0907
53.3857
57.6806
64.9915
56.4148
59.9099
66.3766
68.2213
71.6116
64.94
77.9866
72.3615
73.6598
68.808
67.8149
75.4738
72.9578
77.0257
79.6276
82.3819
86.8642
89.2483
86.9839
82.6888
84.4061
87.1682
78.9158
74.4396
66.4
64.8307
70.7932
82.1202
93.2252
103.372
93.9757
90.8022
87.621
89.5436
99.468
99.0956
93.2354
92.2974
98.8796
99.5363
95.7443
88.1788
65.6368
80.757
54.6501
74.7847
50.5261
64.1918
54.7539
32.936
51.3555
32.0662
48.2337
38.8223
21.5853
38.8566
20.438
38.1489
19.9539
37.314
27.1387
15.1089
26.7285
14.3221
27.046
13.842
26.4537
13.4176
27.0456
13.5326
28.8994
17.4522
10.6743
19.8683
10.9761
20.3436
10.845
20.6466
10.88
20.0914
10.7162
20.0821
10.736
19.763
10.6658
19.6179
10.6653
19.3995
10.6247
19.2525
10.6441
18.9552
10.6325
18.7997
10.665
18.3767
10.6418
17.8931
10.5165
16.6059
11.3909
13.5994
30.0908
52.3282
33.8743
52.374
36.6533
54.2696
37.2371
53.5587
38.6091
54.9313
38.6932
54.1069
39.7469
55.2414
39.7453
54.3895
40.5526
55.2755
40.3836
54.3273
41.093
54.9709
40.7685
53.8119
41.1013
53.9498
39.788
51.9259
38.8752
49.5563
62.0662
82.0943
72.3017
81.8204
64.0948
63.8356
72.745
81.5949
64.2605
72.8458
81.1278
65.0915
64.3791
72.7054
81.1296
64.2711
72.6744
80.6464
64.9343
63.8332
72.2313
80.564
62.9577
71.7766
79.2319
63.2581
61.3729
47.4202
23.0377
12.0074
21.3693
12.0805
20.4566
12.0455
20.3196
12.1173
19.4881
11.9984
19.3943
11.9968
17.4756
12.4407
14.7989
30.986
51.7068
32.6532
51.5908
37.6885
55.0571
37.4317
54.3628
40.8963
57.4304
40.3698
57.3949
44.9168
60.8977
78.7557
68
77.4435
65.9419
76.4291
63.9572
73.2307
45.9747
23.2041
13.0681
22.1092
13.3883
21.3719
13.4013
20.509
13.2745
18.9217
14.0028
15.8746
24.436
14.4631
22.5386
14.5711
21.2709
14.497
20.6369
14.4405
18.9404
14.9394
16.353
30.8634
55.2514
32.7489
55.8038
38.2208
59.6102
38.9328
59.8461
44.9854
64.693
48.3269
31.6877
55.7015
35.7182
56.972
39.7906
60.1985
41.528
60.2449
45.1146
60.4779
70.239
89.3537
79.9836
86.4388
71.0989
68.8139
77.7926
85.6152
68.8415
65.722
75.5164
82.7483
71.3013
81.5587
68.65
77.4081
48.5822
24.3344
15.3324
23.5731
15.8086
22.571
15.9036
21.2347
16.8894
18.2034
31.9022
52.5298
26.9031
17.3209
24.227
17.4014
23.5189
17.641
22.4123
17.6514
21.6715
18.4723
19.1938
27.3199
18.8935
25.8755
19.2662
25.1219
19.7048
24.1281
19.9086
23.3115
20.733
21.3043
31.9069
51.5783
27.8654
21.1015
26.1117
21.4913
25.9336
22.0979
25.488
22.5568
25.4179
23.0531
23.4575
30.6635
24.0019
29.9565
24.898
29.8388
25.865
29.8743
26.671
30.0577
27.4292
30.3497
27.913
30.6088
28.2239
30.731
28.4166
30.8395
28.5963
30.7638
28.8218
30.5658
29.5793
29.7011
37.9244
57.8345
34.9998
31.5692
35.5975
33.255
38.7633
32.859
33.0456
34.3567
33.8829
35.5507
34.7389
36.6304
35.6559
37.7712
36.7225
39.05
37.9953
40.6492
39.4101
43.1263
39.8053
40.4438
41.4811
41.5398
43.8834
43.2225
48.7773
44.7224
45.2672
48.4067
46.1244
46.7618
51.5264
49.3494
48.5197
49.6952
52.1974
51.8669
51.5872
51.8427
50.8683
50.7418
49.7031
49.102
47.4553
46.6437
45.0365
44.4765
43.3037
42.968
42.3647
42.3914
42.3215
42.9235
43.3563
44.1384
45.4101
46.2949
48.4481
49.2978
51.9912
52.7791
56.0072
56.6885
60.4294
60.9309
65.1156
65.4146
69.9822
70.0599
74.885
74.7532
79.7444
79.3955
84.4735
83.8852
88.9509
88.1328
93.1342
92.0708
96.9388
95.6766
100.397
98.9051
103.426
101.796
106.16
104.345
108.494
106.57
110.54
108.461
112.21
110.054
113.623
111.341
114.697
112.37
115.555
113.134
116.122
113.683
116.51
114.007
116.72
114.188
116.8
114.189
116.685
114.057
116.451
113.769
116.055
113.381
115.579
112.852
114.961
112.286
114.306
111.624
113.564
110.913
112.793
110.124
111.956
109.351
111.132
108.526
110.266
107.732
109.427
106.902
108.561
106.113
107.733
105.299
106.888
104.531
106.087
103.749
105.279
103.019
104.52
102.281
103.759
101.595
103.048
100.903
102.337
100.264
101.677
99.6208
101.017
99.0291
100.406
98.4335
99.7965
97.8882
99.2352
97.3392
98.674
96.8384
98.1595
96.3334
97.6441
95.8631
97.1682
95.4001
96.6965
94.9672
96.2612
94.5429
95.8299
94.1473
95.4333
93.7593
95.0392
93.3981
94.678
93.0431
94.3177
92.7129
93.9884
92.3876
93.6585
92.0853
93.3578
91.7866
93.055
91.5092
92.7797
91.2342
92.5011
90.979
92.2484
90.725
91.9914
90.4896
91.7588
90.2544
91.5208
90.0365
91.3062
89.818
91.0852
89.6158
90.8863
89.412
90.6804
89.2236
90.4957
89.0331
90.3033
88.8574
90.1315
88.6791
89.9517
88.5151
89.7918
88.348
89.6234
88.1946
89.4741
88.0376
89.3159
87.8941
89.1788
87.7425
89.0233
87.6134
88.9053
87.4527
88.7399
87.3168
88.5977
87.1073
88.3288
86.5534
87.7083
85.7368
87.0021
84.1488
80.9641
60.2752
60.3789
60.0345
60.2587
59.8297
58.9836
60.6125
59.3934
57.7961
60.8868
59.4484
57.7762
60.9432
59.4918
57.4217
61.1233
59.6189
57.958
61.1153
59.6781
57.6118
61.3169
59.8159
58.1198
61.3414
59.898
57.8307
61.5428
60.0432
58.3365
61.5705
60.1276
58.0596
61.7774
60.2754
58.5714
61.8053
60.3598
58.2909
62.0128
60.5082
58.8097
62.0402
60.5919
58.5215
62.2499
60.7406
59.0458
62.2759
60.8233
58.7497
62.4873
60.9718
59.2793
62.5113
61.0528
58.9738
62.724
61.2004
59.5081
62.7455
61.2789
59.1922
62.959
61.4251
59.7303
62.9775
61.5008
59.4034
63.1915
61.6449
59.9445
63.2067
61.7171
59.6055
63.4206
61.8586
60.1484
63.4321
61.9267
59.7968
63.6454
62.0648
60.3406
63.6527
62.128
59.975
63.8649
62.2621
60.5182
63.8676
62.3197
60.1384
64.0779
62.4488
60.6799
64.0752
62.4997
60.2841
64.2827
62.6226
60.8222
64.274
62.666
60.4085
64.4783
62.782
60.9414
64.4631
62.8169
60.5106
64.6624
62.9241
61.0357
64.6395
62.9488
60.5861
64.8322
63.0456
61.1018
64.8
63.0583
60.6314
64.9846
63.1434
61.1349
64.9423
63.1428
60.6429
65.1171
63.2139
61.1321
65.0627
63.198
60.6164
65.2257
63.2529
61.0884
65.1577
63.2193
60.5479
65.3061
63.2553
61
65.2215
63.2011
60.4323
65.3521
63.2149
60.8613
65.248
63.1369
60.2648
65.357
63.125
60.6684
65.2296
63.0195
60.041
65.3125
62.9776
60.4175
65.1567
62.8401
59.7576
65.2079
62.7639
60.1065
65.0179
62.5898
59.4122
65.0317
62.4747
59.7346
64.8012
62.2595
59.0052
64.7714
62.101
59.3057
64.4928
61.8406
58.5401
64.4154
61.6349
58.827
64.08
61.3327
58.0228
63.9663