/*--------------------------------*- C++ -*----------------------------------*\
| =========                 |                                                 |
| \\      /  F ield         | OpenFOAM: The Open Source CFD Toolbox           |
|  \\    /   O peration     | Version:  v2006                                 |
|   \\  /    A nd           | Website:  www.openfoam.com                      |
|    \\/     M anipulation  |                                                 |
\*---------------------------------------------------------------------------*/
FoamFile
{
    version     2.0;
    format      ascii;
    class       volScalarField;
    location    "0.074";
    object      nut;
}
// * * * * * * * * * * * * * * * * * * * * * * * * * * * * * * * * * * * * * //

dimensions      [0 2 -1 0 0 0 0];


internalField   nonuniform List<scalar> 
16277
(
21.9703
14.9597
52.8762
10.7793
15.8764
8.93832
3.68032
1.51437
0.818879
0.553122
0.434958
0.374995
0.339163
0.313167
0.291282
0.271581
0.25365
0.237521
0.223214
0.21063
0.199577
0.189822
0.181145
0.173356
0.166307
0.159883
0.153996
0.14858
0.143581
0.138955
0.134665
0.13068
0.126974
0.123522
0.120306
0.117307
0.114511
0.111904
0.109476
0.107214
0.105111
0.103158
0.101348
0.0996739
0.0981312
0.0967149
0.0954206
0.0942451
0.0931859
0.0922408
0.0914086
0.0906883
0.09008
0.089584
0.0892003
0.0889321
0.0887819
0.0887544
0.0888534
0.089081
0.0894449
0.0899527
0.0906133
0.0914376
0.0924381
0.0936297
0.09503
0.0966606
0.0985487
0.10073
0.10325
0.10617
0.10957
0.113541
0.118175
0.123533
0.12962
0.136389
0.143902
0.152817
0.165442
0.188323
0.238281
0.35913
0.668855
1.40626
2.48322
2.65572
1.57375
1.03973
0.511879
0.233382
0.126894
0.0598648
0.0141836
0.00255184
8.45543e-05
7.33875e-05
0.00119942
0.00552393
0.00304385
0.000777232
6.4281e-05
5.75594e-05
0.000708652
0.00255971
0.0020425
0.000609132
5.31904e-05
4.9764e-05
0.000590343
0.00193701
0.00167605
0.000531764
4.68455e-05
4.48783e-05
0.00052263
0.00163262
0.00148599
0.000487042
4.29387e-05
4.18902e-05
0.000489986
0.00147089
0.00137593
0.000463933
4.06089e-05
3.99202e-05
0.000468104
0.00136751
0.00129543
0.000447125
3.89748e-05
3.84986e-05
0.000451262
0.00129167
0.00123209
0.000433466
3.77598e-05
3.74144e-05
0.000437484
0.00123092
0.0011793
0.000421822
3.68143e-05
3.65546e-05
0.000425824
0.0011798
0.00113386
0.000411599
3.60471e-05
3.58422e-05
0.000415616
0.00113545
0.00109377
0.000402368
3.53964e-05
3.52294e-05
0.000406337
0.00109609
0.00105777
0.000393855
3.48286e-05
3.46882e-05
0.000397774
0.00106061
0.00102507
0.000385931
3.43203e-05
3.41985e-05
0.000389809
0.0010283
0.000995101
0.000378524
3.38555e-05
3.37475e-05
0.000382366
0.000998659
0.000967435
0.000371569
3.34239e-05
3.33264e-05
0.000375374
0.000971294
0.000941808
0.000365009
3.30184e-05
3.2929e-05
0.000368775
0.000945925
0.000917991
0.000358797
3.26338e-05
3.25508e-05
0.000362526
0.000922334
0.000895812
0.000352902
3.22662e-05
3.21883e-05
0.000356601
0.000900355
0.00087512
0.00034731
3.19127e-05
3.18392e-05
0.000350981
0.000879826
0.000855752
0.000341997
3.15714e-05
3.15017e-05
0.000345638
0.000860581
0.000837545
0.000336933
3.12405e-05
3.11741e-05
0.000340541
0.000842463
0.000820359
0.000332089
3.09185e-05
3.08549e-05
0.000335662
0.000825336
0.000804069
0.000327439
3.06038e-05
3.05425e-05
0.000330973
0.000809083
0.00078857
0.000322955
3.02948e-05
3.02354e-05
0.000326448
0.000793598
0.000773764
0.000318612
2.99903e-05
2.99323e-05
0.00032206
0.000778787
0.000759571
0.000314386
2.96889e-05
2.96318e-05
0.000317786
0.000764575
0.000745919
0.000310258
2.93893e-05
2.93328e-05
0.000313608
0.000750889
0.000732745
0.000306211
2.90904e-05
2.9034e-05
0.000309509
0.000737671
0.000719994
0.000302229
2.87909e-05
2.87345e-05
0.000305474
0.000724869
0.00070762
0.000298299
2.849e-05
2.84331e-05
0.000301492
0.000712441
0.000695594
0.000294414
2.81865e-05
2.8129e-05
0.000297554
0.000700357
0.000683887
0.000290566
2.78797e-05
2.78213e-05
0.000293656
0.000688594
0.000672481
0.000286751
2.75688e-05
2.75094e-05
0.000289802
0.000677137
0.000661364
0.000282972
2.7253e-05
2.71927e-05
0.000286017
0.000665977
0.000650537
0.000279243
2.69322e-05
2.6871e-05
0.000282271
0.000655115
0.000639996
0.000275548
2.6606e-05
2.65439e-05
0.000278573
0.000644548
0.000629744
0.000271902
2.6274e-05
2.62111e-05
0.000274936
0.000634285
0.000619801
0.00026832
2.59363e-05
2.5873e-05
0.000271379
0.000624353
0.000610198
0.000264824
2.55933e-05
2.55298e-05
0.000267926
0.00061479
0.000600984
0.00026144
2.52455e-05
2.51825e-05
0.000264612
0.000605737
0.000592257
0.000258211
2.48942e-05
2.48325e-05
0.000261483
0.000597274
0.000584094
0.000255185
2.45412e-05
2.4482e-05
0.000258588
0.00058941
0.000576567
0.000252416
2.4189e-05
2.41336e-05
0.000255989
0.000582281
0.000569823
0.00024997
2.38406e-05
2.3791e-05
0.000253761
0.000576049
0.000564036
0.000247929
2.35e-05
2.3459e-05
0.000251988
0.000570896
0.000559398
0.000246396
2.3172e-05
2.31442e-05
0.000250711
0.00056702
0.000556136
0.000245443
2.28667e-05
2.28482e-05
0.000249832
0.000564564
0.000554316
0.000244845
2.25962e-05
2.25805e-05
0.000249371
0.000563811
0.000554214
0.000244737
2.23597e-05
2.23464e-05
0.000249399
0.000564774
0.000555809
0.000245156
2.21769e-05
2.21543e-05
0.000249899
0.000567345
0.000559036
0.000246088
2.20458e-05
2.20164e-05
0.000250804
0.000571305
0.000563587
0.000247298
2.19201e-05
2.19333e-05
0.000251938
0.000576544
0.000569398
0.00024858
2.18386e-05
2.18882e-05
0.000253059
0.000582866
0.00057619
0.000249886
2.18044e-05
2.18981e-05
0.000254003
0.000589533
0.00058311
0.000251019
2.18288e-05
2.1953e-05
0.000254782
0.000595927
0.000589631
0.000251841
2.18981e-05
2.2046e-05
0.000255527
0.000601757
0.000595581
0.000252498
2.20059e-05
2.21749e-05
0.000256122
0.000606892
0.000600859
0.000253103
2.2149e-05
2.23348e-05
0.000256662
0.000611283
0.000605362
0.000253438
2.23207e-05
2.25165e-05
0.000257064
0.000615001
0.000608955
0.000253657
2.25134e-05
2.27141e-05
0.000257336
0.000617896
0.000611475
0.000253772
2.27203e-05
2.29205e-05
0.000257477
0.000620337
0.000613226
0.000253815
2.29344e-05
2.31293e-05
0.000257535
0.000621822
0.000614015
0.000253662
2.31493e-05
2.33348e-05
0.000257513
0.000622299
0.000613348
0.000253243
2.33591e-05
2.35314e-05
0.000257112
0.00062152
0.00061191
0.000252692
2.3557e-05
2.37123e-05
0.000256569
0.000619917
0.000609863
0.000252076
2.37373e-05
2.38737e-05
0.000255944
0.00061761
0.000607229
0.000251439
2.38966e-05
2.4013e-05
0.00025526
0.000614642
0.000604078
0.000250804
2.40331e-05
2.41297e-05
0.000254554
0.000611116
0.000600508
0.000250189
2.41461e-05
2.42242e-05
0.000253847
0.000607158
0.000596598
0.000249596
2.42367e-05
2.42981e-05
0.000253139
0.000602834
0.000592418
0.000249013
2.43065e-05
2.43499e-05
0.000252424
0.000598262
0.000587976
0.000248422
2.43564e-05
2.43853e-05
0.000251691
0.00059356
0.000583422
0.000247811
2.43901e-05
2.44072e-05
0.000250939
0.000588783
0.000578812
0.000247169
2.44099e-05
2.44197e-05
0.000250164
0.000584022
0.000574155
0.000246468
2.44161e-05
2.44222e-05
0.000249363
0.000579254
0.000569443
0.00024568
2.44077e-05
2.44124e-05
0.000248543
0.000574451
0.000564741
0.000244881
2.43917e-05
2.43954e-05
0.00024771
0.000569671
0.000560086
0.000244068
2.43706e-05
2.43735e-05
0.000246865
0.000564944
0.000555463
0.000243233
2.43444e-05
2.43467e-05
0.00024599
0.000560241
0.000550807
0.000242357
2.43133e-05
2.43141e-05
0.000245072
0.000555525
0.000546119
0.000241454
2.42789e-05
2.42785e-05
0.000244115
0.000550805
0.000541441
0.000240494
2.42398e-05
2.42385e-05
0.000243125
0.000546095
0.000536793
0.000239503
2.4199e-05
2.41971e-05
0.000242111
0.000541412
0.000532168
0.00023848
2.41423e-05
2.41622e-05
0.000241106
0.000536812
0.000527228
0.000237433
2.40864e-05
2.41131e-05
0.000239845
0.000532471
0.000523131
0.000235746
2.39992e-05
2.41446e-05
0.000239992
0.000531061
0.000524596
0.000239673
2.40835e-05
2.4478e-05
0.000240106
0.000530508
0.000555723
0.000252539
2.46628e-05
2.6277e-05
0.000236819
0.000540311
0.000825034
0.000344199
2.96389e-05
3.19873e-05
0.000178487
0.000409768
0.00101079
0.00231602
0.00432919
0.00617198
0.00743297
0.00977006
0.0112622
0.0126012
0.013355
0.0137156
0.0136144
0.0130088
0.0121465
0.0107635
0.00940751
0.00735166
0.00642355
0.00467417
0.00349716
0.00237537
0.00135024
0.000619872
0.000225962
9.40024e-05
1.8139e-05
1.18209e-05
8.70639e-05
0.00020479
0.000193258
8.27806e-05
1.13869e-05
1.09171e-05
7.98156e-05
0.000183599
0.000184011
7.85326e-05
1.08049e-05
1.07406e-05
7.81402e-05
0.000181212
0.00018122
7.738e-05
1.06297e-05
1.06217e-05
7.73243e-05
0.000181019
0.000181525
7.73746e-05
1.06378e-05
1.06383e-05
7.74841e-05
0.000181946
0.00018219
7.76155e-05
1.06562e-05
1.06639e-05
7.77274e-05
0.00018274
0.000182994
7.7853e-05
1.06734e-05
1.06908e-05
7.79975e-05
0.00018358
0.000183895
7.81304e-05
1.06851e-05
1.07032e-05
7.83013e-05
0.000184489
0.00018481
7.84158e-05
1.07119e-05
1.0732e-05
7.85911e-05
0.000185423
0.000185719
7.86756e-05
1.07324e-05
1.07369e-05
7.89254e-05
0.000186387
0.000186697
7.89825e-05
1.07604e-05
1.07657e-05
7.92275e-05
0.000187377
0.000187695
7.9321e-05
1.07755e-05
1.078e-05
7.9559e-05
0.000188386
0.000188706
7.96339e-05
1.08044e-05
1.0809e-05
7.98723e-05
0.000189414
0.00018975
7.99882e-05
1.08198e-05
1.08248e-05
8.02405e-05
0.000190479
0.000190814
8.03202e-05
1.08502e-05
1.0855e-05
8.05716e-05
0.000191556
0.000191904
8.06938e-05
1.08662e-05
1.08708e-05
8.09463e-05
0.000192666
0.000193016
8.10466e-05
1.08971e-05
1.09023e-05
8.13018e-05
0.000193778
0.000194136
8.14267e-05
1.09138e-05
1.09185e-05
8.16896e-05
0.000194925
0.000195288
8.18392e-05
1.09382e-05
1.09587e-05
8.20482e-05
0.000196089
0.000196465
8.21948e-05
1.09627e-05
1.09693e-05
8.24982e-05
0.000197286
0.000197666
8.26475e-05
1.0989e-05
1.1011e-05
8.28789e-05
0.000198493
0.000198881
8.30227e-05
1.10146e-05
1.10213e-05
8.33362e-05
0.000199721
0.000200108
8.34793e-05
1.10405e-05
1.10628e-05
8.37284e-05
0.000200942
0.000201329
8.38709e-05
1.10662e-05
1.10734e-05
8.41898e-05
0.000202172
0.000202563
8.43469e-05
1.10931e-05
1.11157e-05
8.45922e-05
0.000203401
0.000203795
8.47394e-05
1.11192e-05
1.11277e-05
8.50878e-05
0.000204642
0.000205022
8.52124e-05
1.11464e-05
1.1168e-05
8.54552e-05
0.000205848
0.000206215
8.55845e-05
1.11705e-05
1.1178e-05
8.59216e-05
0.000207031
0.000207377
8.60345e-05
1.11961e-05
1.12174e-05
8.62565e-05
0.000208149
0.000208491
8.63749e-05
1.1219e-05
1.12244e-05
8.66655e-05
0.000209267
0.00020959
8.67672e-05
1.12414e-05
1.12627e-05
8.69709e-05
0.000210302
0.000210559
8.70011e-05
1.12608e-05
1.12631e-05
8.72388e-05
0.00021121
0.000211427
8.72125e-05
1.12839e-05
1.12843e-05
8.7379e-05
0.000211969
0.000212118
8.73218e-05
1.12877e-05
1.12828e-05
8.73906e-05
0.000212535
0.000212664
8.7301e-05
1.13012e-05
1.12943e-05
8.72829e-05
0.000212973
0.000213035
8.71354e-05
1.12941e-05
1.12849e-05
8.70495e-05
0.000213165
0.000213103
8.67761e-05
1.12886e-05
1.12902e-05
8.64967e-05
0.000213106
0.000212831
8.61101e-05
1.12726e-05
1.12535e-05
8.576e-05
0.000212745
0.000212285
8.52744e-05
1.12498e-05
1.12469e-05
8.47922e-05
0.000212161
0.000211546
8.41681e-05
1.12271e-05
1.12076e-05
8.36256e-05
0.0002113
0.000210468
8.28454e-05
1.12099e-05
1.11909e-05
8.21471e-05
0.000210181
0.000209153
8.12715e-05
1.11801e-05
1.11685e-05
8.05718e-05
0.000208996
0.000207868
7.96273e-05
1.11732e-05
1.11879e-05
7.88647e-05
0.000207776
0.000206767
7.79198e-05
1.11922e-05
1.12131e-05
7.71192e-05
0.000206563
0.000205981
7.63117e-05
1.12491e-05
1.12961e-05
7.55482e-05
0.000206138
0.000205872
7.48784e-05
1.13599e-05
1.14617e-05
7.45559e-05
0.000207319
0.000207878
7.36144e-05
1.15621e-05
1.16677e-05
7.3068e-05
0.000210323
0.000213479
7.39717e-05
1.17888e-05
1.19115e-05
7.43797e-05
0.000216352
0.00021805
7.39706e-05
1.19448e-05
1.20297e-05
7.26182e-05
0.000221294
0.000224983
7.65375e-05
1.22009e-05
1.23178e-05
7.42599e-05
0.000227997
0.000230905
7.61128e-05
1.25194e-05
1.26659e-05
7.70938e-05
0.000236481
0.000238049
7.87368e-05
1.28761e-05
1.31734e-05
8.2799e-05
0.000245406
0.000246591
8.49018e-05
1.34638e-05
1.37144e-05
8.83784e-05
0.000252899
0.000255385
9.16197e-05
1.42232e-05
1.53005e-05
0.000106965
0.000267053
0.00026601
0.00011357
1.15392e-05
8.78556e-06
2.7751e-05
7.52745e-05
0.000207908
6.41701e-05
1.03641e-05
1.09134e-05
5.77213e-05
0.000190938
0.000200483
5.97933e-05
1.11599e-05
1.13531e-05
5.65857e-05
0.000191762
0.000206215
6.0927e-05
1.16903e-05
1.20014e-05
5.99213e-05
0.000203242
0.000223415
6.83556e-05
1.24021e-05
1.28572e-05
6.79129e-05
0.000219124
0.000240617
7.90965e-05
1.33618e-05
1.4076e-05
8.14297e-05
0.000242507
0.000269446
9.91673e-05
1.55833e-05
1.19767e-05
0.00011043
0.000276427
7.51469e-05
2.60201e-05
9.39872e-06
1.12883e-05
6.98404e-05
0.000232564
0.000227546
6.54155e-05
1.2362e-05
1.31126e-05
8.51609e-05
0.00028177
0.000287126
8.57606e-05
1.36071e-05
1.43886e-05
0.000100195
0.000318617
0.000328311
0.000107204
1.5417e-05
1.71752e-05
0.000126958
0.000358123
0.000347755
0.000137114
1.33577e-05
1.01668e-05
3.1136e-05
9.148e-05
0.00028408
8.35914e-05
1.20632e-05
1.30413e-05
7.78192e-05
0.000278509
0.000318783
9.62033e-05
1.39204e-05
1.49238e-05
9.62918e-05
0.000314707
0.00035732
0.000123553
1.72218e-05
1.38399e-05
0.000144531
0.00035961
9.84118e-05
3.13217e-05
1.00399e-05
1.25939e-05
8.84185e-05
0.000321206
0.000330828
9.36064e-05
1.43993e-05
1.6627e-05
0.000132338
0.000427459
0.000447437
0.000154542
1.93498e-05
1.60342e-05
0.000181666
0.000452787
0.000127168
3.70669e-05
1.0612e-05
1.37342e-05
0.000118445
0.000400351
0.000397282
0.000114877
1.62437e-05
2.03512e-05
0.000172579
0.000504816
0.000514759
0.000202839
1.70096e-05
1.10937e-05
4.21298e-05
0.00015888
0.000518416
0.000153233
1.60376e-05
2.03867e-05
0.000161328
0.00055748
0.00077444
0.000272183
2.77423e-05
2.31671e-05
0.000290546
0.000744354
0.000262735
6.90657e-05
1.51278e-05
2.67909e-05
0.000279159
0.000805078
0.000802008
0.000298126
2.49293e-05
1.71421e-05
7.65254e-05
0.000312682
0.00111813
0.000371426
3.73299e-05
3.68008e-05
0.000429245
0.00121619
0.000553407
0.000152857
2.33843e-05
3.72121e-05
0.000497388
0.00144976
0.00095767
0.000317515
2.47801e-05
4.59968e-05
0.000559823
0.00112922
0.000968641
0.000468341
3.78194e-05
3.83141e-05
0.000446471
0.00106252
0.00136322
0.000492834
4.39655e-05
6.0772e-05
0.000920453
0.00227244
0.000506503
0.0001575
3.45601e-05
3.53798e-05
0.000441703
0.00101217
0.000313055
0.000111895
2.46862e-05
2.69673e-05
0.000272708
0.00065615
0.000561302
0.000200974
2.66824e-05
1.41174e-05
5.12068e-05
0.000162113
0.000381531
0.000210269
1.81171e-05
1.6942e-05
6.83307e-05
0.000174943
0.00042103
0.000185807
1.92274e-05
2.04739e-05
0.000149678
0.00037956
0.000122517
4.59919e-05
1.35101e-05
1.6092e-05
0.000145007
0.00032671
0.000300126
0.000121662
1.80702e-05
1.25739e-05
3.95555e-05
0.000100247
0.000277698
0.00012378
1.46075e-05
1.68718e-05
0.00010784
0.000255342
8.83573e-05
3.70126e-05
1.22018e-05
1.37528e-05
0.000109879
0.000244952
0.00022168
9.69012e-05
1.61515e-05
1.19648e-05
3.41226e-05
7.87579e-05
0.000215679
9.85688e-05
1.29963e-05
1.55795e-05
8.70295e-05
0.000196354
7.12249e-05
3.21603e-05
1.18045e-05
1.26499e-05
9.18937e-05
0.000194665
0.00017575
8.07616e-05
1.51284e-05
1.16074e-05
3.03171e-05
6.59869e-05
0.000178068
8.50537e-05
1.2128e-05
1.48268e-05
7.55344e-05
0.000162588
6.38578e-05
3.01102e-05
1.16318e-05
1.21664e-05
8.64046e-05
0.000173399
0.000147316
6.97542e-05
1.53847e-05
1.27654e-05
5.54705e-05
0.000120448
4.8647e-05
2.201e-05
1.00292e-05
1.04177e-05
5.9832e-05
0.000119864
0.000112373
5.57434e-05
1.33363e-05
1.06367e-05
2.15213e-05
4.44077e-05
0.00010853
5.42931e-05
9.8132e-06
1.2601e-05
4.99412e-05
0.00010066
4.32395e-05
2.15564e-05
1.01041e-05
9.94416e-06
5.3025e-05
9.76773e-05
9.32457e-05
5.05886e-05
1.28727e-05
1.04816e-05
2.02485e-05
3.95787e-05
9.16554e-05
4.90458e-05
9.5375e-06
1.23123e-05
4.60004e-05
8.53894e-05
3.79062e-05
1.96726e-05
1.01869e-05
9.25094e-06
4.51898e-05
8.34783e-05
8.04881e-05
4.38886e-05
1.19754e-05
9.94672e-06
1.96484e-05
3.72936e-05
8.04225e-05
4.54166e-05
9.50461e-06
1.2518e-05
4.44743e-05
7.69336e-05
3.57869e-05
1.92393e-05
9.89004e-06
9.06747e-06
4.12818e-05
7.32698e-05
7.09168e-05
4.14968e-05
1.21026e-05
9.55694e-06
1.7314e-05
3.19419e-05
6.23983e-05
4.60891e-05
8.68799e-06
1.12262e-05
2.24078e-05
3.62586e-05
8.27327e-05
4.7228e-05
1.00143e-05
1.25459e-05
4.29599e-05
7.62889e-05
3.69284e-05
2.12201e-05
1.0227e-05
9.37971e-06
4.57155e-05
7.63956e-05
7.24063e-05
4.24989e-05
1.24023e-05
1.03383e-05
2.12766e-05
3.59651e-05
7.52362e-05
4.53221e-05
9.4e-06
1.22656e-05
4.21652e-05
7.11863e-05
3.51232e-05
2.12562e-05
1.02186e-05
9.2849e-06
4.27818e-05
6.83761e-05
6.48206e-05
3.86451e-05
1.2297e-05
1.02728e-05
2.10126e-05
3.307e-05
6.28214e-05
3.95106e-05
9.14605e-06
1.21129e-05
3.80089e-05
6.05067e-05
2.96147e-05
1.89774e-05
9.53939e-06
8.47709e-06
3.91723e-05
5.27614e-05
3.21058e-05
2.23462e-05
1.11054e-05
9.79961e-06
3.92351e-05
6.31416e-05
5.76303e-05
3.50855e-05
1.23964e-05
1.00704e-05
2.10059e-05
3.06714e-05
5.7164e-05
3.73098e-05
9.00626e-06
1.19943e-05
3.47412e-05
5.21536e-05
2.82429e-05
2.01342e-05
9.72261e-06
8.49423e-06
3.73667e-05
4.80475e-05
3.02927e-05
2.19701e-05
1.1197e-05
9.71758e-06
3.77144e-05
5.7946e-05
5.23045e-05
3.37688e-05
1.22729e-05
1.00491e-05
2.12959e-05
2.92002e-05
5.41122e-05
3.60528e-05
8.97955e-06
1.19714e-05
3.29801e-05
4.92978e-05
2.71189e-05
2.02094e-05
9.67643e-06
8.50226e-06
3.49752e-05
4.40546e-05
2.84961e-05
2.16897e-05
1.12189e-05
9.6017e-06
3.52434e-05
5.35894e-05
4.80982e-05
3.18596e-05
1.21997e-05
1.00146e-05
2.12484e-05
2.72131e-05
4.83991e-05
3.31009e-05
8.99522e-06
1.20032e-05
3.03868e-05
4.42099e-05
2.46807e-05
1.95396e-05
1.01255e-05
8.26523e-06
3.18667e-05
3.9063e-05
2.57325e-05
2.0634e-05
1.08623e-05
9.25366e-06
3.12483e-05
4.74869e-05
4.24911e-05
2.90706e-05
1.19688e-05
9.64321e-06
2.04319e-05
2.48131e-05
3.82939e-05
3.20706e-05
8.29553e-06
1.10041e-05
2.1573e-05
2.58996e-05
4.70322e-05
3.13291e-05
9.27971e-06
1.21247e-05
2.86787e-05
4.21159e-05
2.44777e-05
2.05448e-05
1.00294e-05
8.34661e-06
3.08932e-05
3.76807e-05
2.58597e-05
2.1767e-05
1.09919e-05
9.18435e-06
3.12588e-05
4.62712e-05
4.15062e-05
2.88668e-05
1.20104e-05
9.96313e-06
2.07003e-05
2.43677e-05
3.73779e-05
3.16817e-05
8.14107e-06
1.10107e-05
2.18158e-05
2.5577e-05
4.55555e-05
3.03016e-05
9.32064e-06
1.21781e-05
2.84361e-05
4.09718e-05
2.46063e-05
2.14577e-05
9.87176e-06
8.44046e-06
3.15795e-05
3.68504e-05
2.56722e-05
2.25612e-05
1.11451e-05
9.3343e-06
3.05573e-05
4.48416e-05
3.99885e-05
2.79749e-05
1.2065e-05
1.02043e-05
2.08264e-05
2.36457e-05
3.54638e-05
3.10925e-05
8.13684e-06
1.08062e-05
2.27177e-05
2.53941e-05
3.86996e-05
2.91922e-05
8.72495e-06
1.13498e-05
2.27981e-05
2.67919e-05
4.56983e-05
3.05855e-05
9.51481e-06
1.21213e-05
2.85713e-05
4.07683e-05
2.4725e-05
2.1897e-05
9.84619e-06
8.25848e-06
3.12861e-05
3.64995e-05
2.57877e-05
2.32957e-05
1.11713e-05
9.36103e-06
3.02919e-05
4.4143e-05
3.95308e-05
2.81871e-05
1.215e-05
1.02841e-05
2.15339e-05
2.38818e-05
3.50109e-05
3.09367e-05
8.26147e-06
1.10158e-05
2.32038e-05
2.55006e-05
3.80407e-05
2.89964e-05
8.95306e-06
1.13378e-05
2.337e-05
2.67603e-05
4.48273e-05
3.02698e-05
9.38722e-06
1.21775e-05
2.85274e-05
4.01023e-05
2.48787e-05
2.27165e-05
9.85094e-06
8.38214e-06
3.12245e-05
3.56418e-05
2.6429e-05
2.45895e-05
1.12188e-05
8.97535e-06
3.06383e-05
3.90227e-05
2.77096e-05
2.51749e-05
1.14601e-05
9.56748e-06
3.06455e-05
4.58916e-05
4.08918e-05
2.8881e-05
1.23732e-05
1.02105e-05
2.30898e-05
2.52952e-05
3.62855e-05
3.26109e-05
8.28964e-06
1.10868e-05
2.47538e-05
2.69012e-05
3.92219e-05
3.07414e-05
8.95694e-06
1.1493e-05
2.51949e-05
2.79647e-05
4.58498e-05
3.10308e-05
9.57181e-06
1.2338e-05
2.9356e-05
4.10602e-05
2.58968e-05
2.40297e-05
1.0036e-05
8.54408e-06
3.25279e-05
3.68379e-05
2.76141e-05
2.57837e-05
1.13888e-05
9.1936e-06
3.17437e-05
3.99174e-05
2.87104e-05
2.62782e-05
1.1519e-05
9.53771e-06
3.13277e-05
4.64799e-05
4.14122e-05
2.94945e-05
1.22684e-05
9.82876e-06
2.38482e-05
2.59368e-05
3.59767e-05
3.21523e-05
8.6317e-06
1.1377e-05
2.55403e-05
2.70442e-05
3.87097e-05
3.10786e-05
9.15056e-06
1.16012e-05
2.61223e-05
2.80812e-05
4.49885e-05
3.07054e-05
9.6222e-06
1.24387e-05
2.91786e-05
4.01884e-05
2.57636e-05
2.42101e-05
9.94863e-06
8.6629e-06
3.21022e-05
3.58298e-05
2.71464e-05
2.57368e-05
1.13233e-05
8.94038e-06
3.0623e-05
3.83691e-05
2.86216e-05
2.61824e-05
1.13901e-05
9.08288e-06
3.12974e-05
4.01049e-05
2.95361e-05
2.78778e-05
1.15867e-05
9.65335e-06
3.20734e-05
4.60899e-05
4.11392e-05
3.03546e-05
1.23498e-05
1.03925e-05
2.48837e-05
2.63883e-05
3.68577e-05
3.39408e-05
8.40124e-06
1.12951e-05
2.61945e-05
2.79879e-05
3.893e-05
3.07762e-05
9.16478e-06
1.15719e-05
2.66359e-05
2.92536e-05
4.02667e-05
3.17651e-05
9.15866e-06
1.15974e-05
2.81715e-05
2.98365e-05
4.60492e-05
3.21591e-05
9.62717e-06
1.23985e-05
3.06132e-05
4.13677e-05
2.71374e-05
2.58037e-05
1.00154e-05
8.65119e-06
3.3824e-05
3.71534e-05
2.85453e-05
2.72613e-05
1.15242e-05
9.21167e-06
3.17546e-05
3.96153e-05
2.99521e-05
2.7684e-05
1.16343e-05
9.29765e-06
3.25815e-05
4.11563e-05
3.08187e-05
2.9379e-05
1.178e-05
9.81432e-06
3.33029e-05
4.70496e-05
4.22002e-05
3.16041e-05
1.25481e-05
9.97981e-06
2.6406e-05
2.79411e-05
3.78229e-05
3.44674e-05
8.74057e-06
1.1553e-05
2.77437e-05
2.92967e-05
3.97932e-05
3.22067e-05
9.16589e-06
1.16303e-05
2.77968e-05
3.01814e-05
4.08723e-05
3.23874e-05
9.25231e-06
1.1841e-05
2.94754e-05
3.08948e-05
4.62042e-05
3.29431e-05
9.79448e-06
1.25805e-05
3.15666e-05
4.17944e-05
2.80095e-05
2.66952e-05
1.07552e-05
8.65544e-06
3.47443e-05
3.73745e-05
2.93001e-05
2.80388e-05
1.15006e-05
9.20309e-06
3.21084e-05
3.98821e-05
3.07095e-05
2.83833e-05
1.16755e-05
9.19125e-06
3.276e-05
4.10904e-05
3.1514e-05
2.92459e-05
1.16491e-05
9.32916e-06
3.39646e-05
4.20807e-05
3.19471e-05
3.08035e-05
1.17784e-05
9.79359e-06
3.42607e-05
4.74842e-05
4.30591e-05
3.27713e-05
1.25768e-05
9.91546e-06
2.73571e-05
2.9147e-05
3.82767e-05
3.50902e-05
8.8792e-06
1.17114e-05
2.87927e-05
3.03534e-05
4.00047e-05
3.28068e-05
9.35119e-06
1.17968e-05
2.89301e-05
3.1067e-05
4.09671e-05
3.2595e-05
9.27374e-06
1.17514e-05
3.0009e-05
3.18798e-05
4.24437e-05
3.46866e-05
9.41407e-06
1.18911e-05
3.16891e-05
3.25654e-05
4.82085e-05
3.49478e-05
9.86757e-06
1.27324e-05
3.35965e-05
4.3753e-05
3.01829e-05
2.89269e-05
1.03005e-05
8.79422e-06
3.68891e-05
3.94143e-05
3.13789e-05
3.02575e-05
1.17303e-05
9.24179e-06
3.43658e-05
4.18364e-05
3.25236e-05
3.02719e-05
1.17926e-05
9.37992e-06
3.4386e-05
4.28847e-05
3.33719e-05
3.13094e-05
1.18102e-05
9.41635e-06
3.62436e-05
4.41743e-05
3.40139e-05
3.29693e-05
1.19472e-05
1.00002e-05
3.62334e-05
4.95385e-05
4.50943e-05
3.47304e-05
1.27696e-05
1.01356e-05
2.95727e-05
3.12393e-05
4.01843e-05
3.70928e-05
9.05815e-06
1.18974e-05
3.08816e-05
3.24781e-05
4.2031e-05
3.48968e-05
9.4712e-06
1.19853e-05
3.07495e-05
3.32514e-05
4.2635e-05
3.41108e-05
9.4793e-06
1.19911e-05
3.17892e-05
3.37827e-05
4.40509e-05
3.6254e-05
9.62467e-06
1.20966e-05
3.37952e-05
3.43842e-05
4.95142e-05
3.68655e-05
1.00193e-05
1.29426e-05
3.55443e-05
4.54252e-05
3.19834e-05
3.07097e-05
1.03922e-05
8.98339e-06
3.85366e-05
4.11068e-05
3.33079e-05
3.19588e-05
1.19651e-05
9.48664e-06
3.58178e-05
4.31536e-05
3.44096e-05
3.19751e-05
1.20345e-05
9.5364e-06
3.55964e-05
4.42103e-05
3.51896e-05
3.28903e-05
1.19861e-05
9.61411e-06
3.75541e-05
4.53772e-05
3.56053e-05
3.46648e-05
1.20925e-05
1.00443e-05
3.76278e-05
5.04889e-05
4.62933e-05
3.6284e-05
1.30113e-05
1.01881e-05
3.10953e-05
3.27504e-05
4.11798e-05
3.8536e-05
9.18872e-06
1.2063e-05
3.2411e-05
3.38902e-05
4.24697e-05
3.57141e-05
9.53938e-06
1.21097e-05
3.23057e-05
3.45101e-05
4.33062e-05
3.52218e-05
9.58843e-06
1.20606e-05
3.31731e-05
3.51705e-05
4.45552e-05
3.70647e-05
9.61682e-06
1.20351e-05
3.44923e-05
3.61382e-05
4.62115e-05
3.88183e-05
9.61259e-06
1.21532e-05
3.60695e-05
3.66804e-05
5.19665e-05
3.90409e-05
1.01192e-05
1.31313e-05
3.78823e-05
4.78445e-05
3.43656e-05
3.32697e-05
1.09602e-05
9.02899e-06
4.12457e-05
4.31793e-05
3.58085e-05
3.45775e-05
1.20332e-05
9.62077e-06
3.82507e-05
4.54644e-05
3.69665e-05
3.47454e-05
1.22063e-05
9.67165e-06
3.8688e-05
4.68361e-05
3.79159e-05
3.57715e-05
1.21116e-05
9.68176e-06
4.04638e-05
4.85063e-05
3.86935e-05
3.75497e-05
1.22516e-05
1.02458e-05
4.0621e-05
5.37628e-05
4.93347e-05
3.92818e-05
1.33015e-05
1.07632e-05
3.43874e-05
3.5664e-05
4.44534e-05
4.23821e-05
9.19769e-06
1.22735e-05
3.57031e-05
3.72615e-05
4.58832e-05
3.92848e-05
9.78313e-06
1.22988e-05
3.53918e-05
3.77926e-05
4.64568e-05
3.86677e-05
9.8111e-06
1.22336e-05
3.62011e-05
3.83137e-05
4.76877e-05
4.01978e-05
9.779e-06
1.24072e-05
3.81671e-05
3.87812e-05
5.30592e-05
4.07156e-05
1.03297e-05
1.35217e-05
3.97399e-05
4.90262e-05
3.63226e-05
3.549e-05
1.12884e-05
9.1975e-06
4.31202e-05
4.45052e-05
3.77488e-05
3.67779e-05
1.22485e-05
9.81347e-06
4.01893e-05
4.66398e-05
3.88892e-05
3.68685e-05
1.24012e-05
9.81334e-06
4.02876e-05
4.78194e-05
3.96442e-05
3.78694e-05
1.2336e-05
9.90589e-06
4.1752e-05
4.94776e-05
4.04823e-05
3.98701e-05
1.25966e-05
1.04755e-05
4.2335e-05
5.48467e-05
5.05195e-05
4.13e-05
1.36501e-05
1.11031e-05
3.68946e-05
3.77289e-05
4.61301e-05
4.48562e-05
9.34e-06
1.24198e-05
3.79332e-05
3.93227e-05
4.7563e-05
4.12306e-05
9.90897e-06
1.25507e-05
3.78729e-05
3.99974e-05
4.8231e-05
4.10181e-05
9.92911e-06
1.25785e-05
3.89036e-05
4.06158e-05
4.95478e-05
4.23293e-05
1.00168e-05
1.28738e-05
4.11351e-05
4.11933e-05
5.50322e-05
4.31592e-05
1.07802e-05
1.40811e-05
4.24189e-05
5.10882e-05
3.91336e-05
3.88546e-05
1.14776e-05
9.63898e-06
4.61784e-05
4.7413e-05
4.08088e-05
4.00944e-05
1.26577e-05
1.0078e-05
4.3868e-05
4.96748e-05
4.19435e-05
4.0257e-05
1.27949e-05
1.00548e-05
4.37392e-05
5.1085e-05
4.24646e-05
4.18175e-05
1.29944e-05
1.09123e-05
4.37021e-05
5.59652e-05
5.17573e-05
4.2992e-05
1.43912e-05
1.13352e-05
3.91427e-05
3.97182e-05
4.71827e-05
4.62531e-05
9.76018e-06
1.30182e-05
4.05625e-05
4.13614e-05
4.88812e-05
4.37026e-05
1.03399e-05
1.3081e-05
4.05883e-05
4.20278e-05
4.99971e-05
4.3115e-05
1.03024e-05
1.33189e-05
4.24823e-05
4.24127e-05
5.49441e-05
4.3733e-05
1.10305e-05
1.45246e-05
4.34471e-05
5.11589e-05
4.03392e-05
4.04968e-05
1.21628e-05
9.8092e-06
4.72958e-05
4.74908e-05
4.1732e-05
4.15301e-05
1.28794e-05
1.01991e-05
4.39294e-05
4.9723e-05
4.3033e-05
4.19886e-05
1.32499e-05
1.05198e-05
4.44838e-05
5.12965e-05
4.38635e-05
4.39404e-05
1.35355e-05
1.12034e-05
4.50631e-05
5.59422e-05
5.22178e-05
4.46833e-05
1.4939e-05
1.15412e-05
4.1166e-05
4.16196e-05
4.79322e-05
4.79384e-05
9.90802e-06
1.34895e-05
4.29308e-05
4.32692e-05
4.99936e-05
4.52751e-05
1.06428e-05
1.35389e-05
4.31205e-05
4.38975e-05
5.1374e-05
4.48776e-05
1.06669e-05
1.38554e-05
4.52227e-05
4.44295e-05
5.65446e-05
4.58171e-05
1.15322e-05
1.52536e-05
4.56891e-05
5.29328e-05
4.28375e-05
4.34294e-05
1.20939e-05
1.01299e-05
4.98783e-05
4.96783e-05
4.47443e-05
4.51519e-05
1.37493e-05
1.08897e-05
4.74434e-05
5.24577e-05
4.61222e-05
4.56052e-05
1.40251e-05
1.11477e-05
4.73169e-05
5.42796e-05
4.70972e-05
4.79309e-05
1.44253e-05
1.19704e-05
4.84501e-05
5.93511e-05
5.56404e-05
4.84315e-05
1.5852e-05
1.26809e-05
4.57006e-05
4.55179e-05
5.19151e-05
5.23214e-05
1.05339e-05
1.4085e-05
4.72656e-05
4.69946e-05
5.44416e-05
4.9245e-05
1.12147e-05
1.47376e-05
4.8857e-05
4.79918e-05
5.93286e-05
4.88714e-05
1.22506e-05
1.61929e-05
4.84807e-05
5.58911e-05
4.59578e-05
4.6727e-05
1.28359e-05
1.06795e-05
5.28329e-05
5.2227e-05
4.81645e-05
4.88119e-05
1.46091e-05
1.15834e-05
5.05351e-05
5.54517e-05
4.95395e-05
4.96453e-05
1.49802e-05
1.19092e-05
5.074e-05
5.77716e-05
5.09331e-05
5.24997e-05
1.54776e-05
1.28602e-05
5.26265e-05
6.34504e-05
5.9537e-05
5.27714e-05
1.70008e-05
1.39195e-05
5.09181e-05
4.98773e-05
5.63601e-05
5.73153e-05
1.12168e-05
1.50457e-05
5.23269e-05
5.15729e-05
5.94468e-05
5.38796e-05
1.20444e-05
1.5842e-05
5.42264e-05
5.28257e-05
6.50582e-05
5.39617e-05
1.29511e-05
1.73389e-05
5.42047e-05
6.15345e-05
5.20337e-05
5.34222e-05
1.46178e-05
1.20011e-05
5.88027e-05
5.84485e-05
5.37668e-05
5.52878e-05
1.59559e-05
1.27841e-05
5.63848e-05
6.2045e-05
5.55103e-05
5.75369e-05
1.67957e-05
1.40038e-05
5.68244e-05
6.79749e-05
6.42362e-05
5.71711e-05
1.85231e-05
1.5144e-05
5.60376e-05
5.46695e-05
6.1396e-05
6.17742e-05
1.22724e-05
1.67194e-05
5.88589e-05
5.63454e-05
6.77712e-05
5.77221e-05
1.39417e-05
1.86299e-05
5.77347e-05
6.45393e-05
5.49687e-05
5.57676e-05
1.51689e-05
1.21131e-05
6.24385e-05
6.12262e-05
5.66167e-05
5.76462e-05
1.65189e-05
1.32358e-05
5.82336e-05
6.39689e-05
5.78801e-05
5.99502e-05
1.75809e-05
1.46387e-05
5.85843e-05
6.94225e-05
6.61e-05
5.94253e-05
1.94919e-05
1.58611e-05
5.88825e-05
5.7394e-05
6.32737e-05
6.36925e-05
1.3086e-05
1.78007e-05
6.22966e-05
5.90142e-05
6.95095e-05
6.03292e-05
1.49178e-05
1.99145e-05
6.05721e-05
6.64976e-05
5.83931e-05
6.0175e-05
1.63813e-05
1.32735e-05
6.48871e-05
6.40511e-05
5.95443e-05
6.30027e-05
1.78968e-05
1.46135e-05
6.05727e-05
6.99963e-05
6.70834e-05
6.11725e-05
1.99577e-05
1.67372e-05
6.06198e-05
5.89515e-05
6.4443e-05
6.47648e-05
1.36773e-05
1.86038e-05
6.4276e-05
6.05597e-05
7.01648e-05
6.15248e-05
1.54332e-05
2.08477e-05
6.20786e-05
6.73832e-05
6.01564e-05
6.23619e-05
1.69526e-05
1.38601e-05
6.62687e-05
6.51036e-05
6.18041e-05
6.57725e-05
1.88599e-05
1.55858e-05
6.27964e-05
7.14677e-05
6.86689e-05
6.32595e-05
2.09713e-05
1.72071e-05
6.33399e-05
6.12752e-05
6.65108e-05
6.83616e-05
1.35657e-05
1.87707e-05
6.66708e-05
6.27637e-05
7.22406e-05
6.32326e-05
1.58411e-05
2.17065e-05
6.39978e-05
6.95012e-05
6.29064e-05
6.6342e-05
1.83363e-05
1.48175e-05
6.86931e-05
6.80107e-05
6.48003e-05
7.03243e-05
2.00723e-05
1.67127e-05
6.65189e-05
7.49265e-05
7.21687e-05
6.73055e-05
2.24344e-05
1.84069e-05
6.89138e-05
6.56803e-05
7.08193e-05
7.18707e-05
1.49874e-05
2.04854e-05
7.34137e-05
6.77893e-05
7.85882e-05
7.00616e-05
1.69016e-05
2.25006e-05
6.99718e-05
7.57872e-05
6.88867e-05
7.48522e-05
1.96399e-05
1.69447e-05
7.44214e-05
7.77792e-05
7.53055e-05
7.42339e-05
2.35245e-05
2.01934e-05
7.41649e-05
7.01269e-05
7.59098e-05
7.62575e-05
1.642e-05
2.21589e-05
7.82073e-05