/*--------------------------------*- C++ -*----------------------------------*\
| =========                 |                                                 |
| \\      /  F ield         | OpenFOAM: The Open Source CFD Toolbox           |
|  \\    /   O peration     | Version:  v2006                                 |
|   \\  /    A nd           | Website:  www.openfoam.com                      |
|    \\/     M anipulation  |                                                 |
\*---------------------------------------------------------------------------*/
FoamFile
{
    version     2.0;
    format      ascii;
    class       volScalarField;
    location    "0.08";
    object      Co;
}
// * * * * * * * * * * * * * * * * * * * * * * * * * * * * * * * * * * * * * //

dimensions      [0 0 0 0 0 0 0];


internalField   nonuniform List<scalar> 
24416
(
0.0189348
0.0181225
0.0196109
0.0203651
0.0206993
0.0202326
0.0203441
0.0201843
0.0200115
0.0199729
0.0198452
0.0198454
0.0198184
0.0198012
0.0197872
0.0197727
0.0197558
0.0197382
0.0197206
0.0197031
0.0196856
0.0196682
0.0196505
0.0196326
0.0196143
0.0195956
0.0195765
0.0195569
0.0195369
0.0195164
0.0194956
0.0194744
0.0194528
0.0194309
0.0194086
0.019386
0.0193631
0.0193398
0.0193163
0.0192925
0.0192684
0.0192441
0.0192195
0.0191947
0.0191696
0.0191444
0.019119
0.0190934
0.0190677
0.0190419
0.0190159
0.0189899
0.0189638
0.0189376
0.0189113
0.0188851
0.0188589
0.0188327
0.0188065
0.0187805
0.0187545
0.0187285
0.0187028
0.0186771
0.0186516
0.0186263
0.0186012
0.0185763
0.0185516
0.0185272
0.0185031
0.0184792
0.0184556
0.0184323
0.0184094
0.0183869
0.0183648
0.0183431
0.0183219
0.018301
0.0182804
0.0182598
0.018239
0.0182177
0.0181956
0.0181729
0.0181501
0.0181289
0.0181118
0.0181014
0.0180978
0.0181
0.0181066
0.0181318
0.0181725
0.0183163
0.0185429
0.0191258
0.0201294
0.0225012
0.0278408
0.0396867
0.0609347
0.0491059
0.0433125
0.0431753
0.0420077
0.0402036
0.0396113
0.0381439
0.0345617
0.0373637
0.0389861
0.035419
0.0354307
0.0337005
0.0281782
0.0300443
0.0305676
0.0294454
0.0296375
0.0280161
0.0254872
0.0277802
0.0283906
0.0283235
0.0279164
0.0255701
0.0249547
0.0275314
0.0281231
0.0281408
0.0276313
0.0249584
0.0246147
0.0274526
0.0281247
0.0282052
0.0273959
0.0244364
0.0242432
0.0273095
0.0279769
0.0281248
0.0272264
0.0240676
0.0239005
0.02714
0.0278888
0.0280314
0.0270577
0.0237458
0.0235998
0.0269748
0.0277943
0.0279356
0.0268967
0.0234637
0.0233341
0.0268176
0.0276984
0.0278392
0.0267434
0.0232124
0.0230953
0.0266678
0.0276097
0.0277426
0.0265967
0.0229847
0.0228777
0.0265242
0.0275213
0.0276465
0.0264559
0.0227759
0.0226769
0.0263861
0.0274324
0.0275511
0.0263203
0.0225825
0.0224901
0.0262529
0.0273434
0.0274563
0.0261891
0.0224016
0.0223149
0.0261243
0.0272547
0.0273624
0.0260619
0.0222313
0.0221497
0.0259996
0.0271663
0.0272704
0.0259394
0.0220703
0.0219921
0.0258779
0.0270779
0.0271789
0.0258195
0.0219164
0.0218412
0.0257589
0.0269896
0.0270875
0.0257019
0.0217687
0.0216964
0.0256425
0.0269014
0.0269968
0.0255867
0.0216266
0.0215567
0.0255283
0.0268134
0.0269065
0.0254736
0.0214893
0.0214215
0.0254159
0.0267255
0.0268165
0.0253622
0.0213561
0.0212903
0.0253052
0.0266375
0.0267268
0.0252523
0.0212267
0.0211625
0.025196
0.0265494
0.0266372
0.0251437
0.0211005
0.0210377
0.0250879
0.0264611
0.0265476
0.0250362
0.0209771
0.0209155
0.0249807
0.0263726
0.0264579
0.0249295
0.0208561
0.0207957
0.0248744
0.0262836
0.026368
0.0248235
0.0207374
0.0206779
0.0247686
0.0261943
0.0262778
0.024718
0.0206205
0.020562
0.0246633
0.0261044
0.0261872
0.0246129
0.0205054
0.0204476
0.0245583
0.0260139
0.0260961
0.0245081
0.0203918
0.0203346
0.0244535
0.0259227
0.0260044
0.0244034
0.0202794
0.0202229
0.0243488
0.0258307
0.0259121
0.0242987
0.0201682
0.0201121
0.0242441
0.0257379
0.0258191
0.0241939
0.0200579
0.0200022
0.0241391
0.0256441
0.0257252
0.0240889
0.0199483
0.0198929
0.0240338
0.0255493
0.0256303
0.0239834
0.0198393
0.0197841
0.0239281
0.0254533
0.0255344
0.0238775
0.0197307
0.0196756
0.0238218
0.0253562
0.0254375
0.0237709
0.0196223
0.0195672
0.0237149
0.0252577
0.0253393
0.0236636
0.019514
0.0194589
0.0236072
0.0251579
0.0252399
0.0235555
0.0194057
0.0193505
0.0234986
0.0250565
0.025139
0.0234464
0.0192971
0.0192418
0.0233889
0.0249535
0.0250366
0.0233362
0.0191882
0.0191326
0.0232781
0.0248488
0.0249326
0.0232248
0.0190787
0.0190228
0.023166
0.0247422
0.0248268
0.023112
0.0189686
0.0189123
0.0230524
0.0246336
0.0247191
0.0229978
0.0188577
0.0188009
0.0229373
0.0245229
0.0246095
0.0228818
0.0187458
0.0186885
0.0228205
0.02441
0.0244977
0.0227642
0.0186328
0.0185749
0.0227019
0.0242947
0.0243837
0.0226445
0.0185185
0.0184598
0.0225812
0.024177
0.0242674
0.0225228
0.0184027
0.0183433
0.0224585
0.0240566
0.0241485
0.022399
0.0182854
0.0182251
0.0223334
0.0239335
0.0240269
0.0222727
0.0181663
0.0181051
0.0222059
0.0238075
0.0239026
0.0221439
0.0180454
0.0179832
0.0220758
0.0236785
0.0237754
0.0220126
0.0179224
0.0178592
0.0219431
0.0235472
0.0236451
0.0218784
0.0177973
0.0177329
0.0218075
0.0234163
0.0235118
0.0217413
0.0176699
0.0176043
0.0216689
0.0232823
0.0233752
0.0216012
0.01754
0.0174731
0.0215271
0.0231448
0.0232351
0.0214578
0.0174075
0.0173393
0.0213821
0.0230039
0.0230913
0.021311
0.0172723
0.0172025
0.0212335
0.0228592
0.0229437
0.0211606
0.017134
0.0170628
0.0210812
0.0227105
0.022792
0.0210065
0.0169927
0.0169199
0.0209251
0.0225578
0.0226361
0.0208483
0.0168481
0.0167736
0.0207649
0.0224009
0.0224759
0.0206861
0.0167001
0.0166238
0.0206005
0.0222395
0.0223111
0.0205195
0.0165485
0.0164703
0.0204317
0.0220735
0.0221416
0.0203484
0.0163931
0.016313
0.0202583
0.0219027
0.0219672
0.0201726
0.0162338
0.0161515
0.02008
0.0217269
0.0217876
0.0199919
0.0160702
0.0159859
0.0198968
0.0215459
0.0216027
0.0198061
0.0159024
0.0158158
0.0197083
0.0213595
0.0214122
0.0196149
0.01573
0.0156411
0.0195145
0.0211675
0.021216
0.0194183
0.015553
0.0154618
0.019315
0.0209698
0.0210139
0.019216
0.0153713
0.0152775
0.0191098
0.020766
0.0208056
0.0190078
0.0151845
0.0150883
0.0188986
0.020556
0.020591
0.0187936
0.0149927
0.0148938
0.0186814
0.0203397
0.0203699
0.0185732
0.0147956
0.0146941
0.0184578
0.0201168
0.0201421
0.0183464
0.0145931
0.0144889
0.0182277
0.0198872
0.0199074
0.018113
0.0143852
0.0142781
0.017991
0.0196506
0.0196657
0.017873
0.0141715
0.0140615
0.0177474
0.0194069
0.0194167
0.0176259
0.013952
0.013839
0.0174969
0.019156
0.0191602
0.0173718
0.0137266
0.0136106
0.0172392
0.0188975
0.0188963
0.0171106
0.0134952
0.0133762
0.0169744
0.0186316
0.0186247
0.0168422
0.0132578
0.0131359
0.0167024
0.0183581
0.0183454
0.0165666
0.0130146
0.0128897
0.0164232
0.0180769
0.0180585
0.0162838
0.0127655
0.0126378
0.0161369
0.0177882
0.017764
0.0159941
0.0125108
0.0123803
0.0158436
0.0174919
0.0174619
0.0156974
0.0122505
0.0121173
0.0155435
0.0171882
0.0171524
0.0153939
0.0119849
0.0118492
0.0152368
0.0168772
0.0168357
0.0150839
0.0117143
0.011576
0.0149236
0.0165592
0.0165123
0.0147677
0.0114387
0.011298
0.0146051
0.0162352
0.0161841
0.0144475
0.0111573
0.0110114
0.0142824
0.015907
0.0158505
0.0141213
0.0108648
0.0107135
0.0139525
0.0155725
0.0155107
0.0137879
0.0105621
0.0104065
0.0136156
0.0152318
0.0151647
0.0134478
0.0102515
0.0100927
0.0132726
0.0148854
0.0148132
0.013102
0.00993499
0.00977413
0.0129243
0.0145337
0.014457
0.0127518
0.00961489
0.00945298
0.0125724
0.0141779
0.0140973
0.0123987
0.00929337
0.00913156
0.0122184
0.0138193
0.0137353
0.0120444
0.00897264
0.00881208
0.0118642
0.013459
0.0133727
0.011691
0.00865511
0.00849703
0.0115119
0.013099
0.0130111
0.0113404
0.00834322
0.00818887
0.0111636
0.012741
0.0126527
0.0109952
0.00803947
0.00789009
0.0108219
0.0123872
0.0122995
0.0106577
0.00774632
0.00760308
0.0104891
0.0120397
0.0119538
0.0103304
0.00746611
0.00733016
0.0101676
0.0117007
0.0116179
0.0100155
0.00720107
0.00707343
0.00985987
0.0113726
0.0112941
0.00971553
0.0069532
0.00683483
0.00956816
0.0110577
0.0109737
0.00942324
0.00671752
0.00661569
0.00929426
0.0107578
0.0106913
0.0091685
0.00651537
0.00641725
0.0090402
0.0104753
0.0104268
0.00892476
0.00632745
0.00623988
0.00880692
0.0102018
0.0101711
0.00870231
0.00616073
0.00608374
0.00859542
0.00995836
0.00993612
0.00850179
0.00601505
0.00594838
0.00840592
0.00973571
0.00972243
0.00832334
0.00588984
0.00583301
0.00823836
0.00953436
0.00953022
0.00816655
0.00578397
0.00573621
0.00809196
0.00935405
0.00935902
0.00803043
0.00569595
0.00565651
0.00796581
0.00919449
0.00920823
0.00791386
0.00562411
0.00559211
0.0078585
0.00905472
0.00906777
0.00781537
0.00556664
0.00554111
0.00776849
0.00894237
0.00895433
0.00773315
0.00552155
0.00550157
0.00769391
0.00883826
0.00885739
0.00766546
0.00548691
0.00547138
0.00763286
0.00874977
0.00877509
0.00761018
0.00546043
0.00544812
0.00758288
0.00868314
0.00870601
0.00756526
0.00544004
0.00542999
0.00754224
0.00862784
0.00864763
0.00752846
0.0054237
0.00541487
0.00750866
0.00857897
0.00859761
0.00749746
0.00540924
0.00540043
0.00747969
0.00853391
0.00855347
0.00746962
0.00539408
0.00538401
0.00745167
0.00848854
0.00855224
0.00748845
0.00538201
0.00536201
0.0074275
0.00846068
0.008559
0.00754051
0.00543275
0.00541931
0.00751571
0.00857637
0.00907544
0.00802805
0.00583359
0.00584744
0.0081475
0.00931582
0.0107313
0.00948298
0.00685554
0.00703543
0.010051
0.0118815
0.0126009
0.0109234
0.00778203
0.0147348
0.0163081
0.0173163
0.0188553
0.0195907
0.020388
0.0208715
0.0213139
0.021636
0.0219719
0.0222402
0.0225103
0.0227306
0.0229466
0.0231308
0.0233085
0.0234672
0.023617
0.0237563
0.0238858
0.0240102
0.0241248
0.0242379
0.0243418
0.0244465
0.0245429
0.0246418
0.0247334
0.0248282
0.0249172
0.0250095
0.0250981
0.0251893
0.0252793
0.0253709
0.0254643
0.0255596
0.0256787
0.0258098
0.0260646
0.0263709
0.0268132
0.0275105
0.029504
0.0380454
0.0548475
0.0584312
0.0545504
0.049743
0.0471127
0.0423104
0.0316216
0.0283543
0.0394069
0.0452263
0.0411528
0.0370155
0.0269722
0.0220774
0.0310616
0.0350046
0.0312336
0.0287748
0.0210257
0.019088
0.0266919
0.0296315
0.0280474
0.0257365
0.0186619
0.0184323
0.0256681
0.0282084
0.0279401
0.0254878
0.0183866
0.0184048
0.0255088
0.0280014
0.0277948
0.0254161
0.0184148
0.0184138
0.0253615
0.0277866
0.0278679
0.0254744
0.018514
0.018513
0.0254148
0.0278248
0.0277057
0.0254067
0.018561
0.01856
0.0253281
0.02764
0.0277799
0.0254745
0.0186839
0.0186454
0.0252972
0.027605
0.0277263
0.0255122
0.018785
0.0187463
0.0253204
0.0275372
0.0276844
0.0254777
0.0188813
0.0188424
0.0252929
0.0275042
0.0276228
0.0255115
0.01899
0.0189508
0.0253146
0.0274325
0.0275714
0.0254711
0.0190906
0.0190512
0.0252834
0.0273945
0.0274981
0.0254967
0.019202
0.0191623
0.025298
0.0273129
0.0274345
0.0254475
0.0193035
0.0192636
0.0252592
0.0272653
0.0273475
0.0254629
0.0194157
0.0193755
0.0252632
0.0271694
0.0272714
0.0254049
0.0195182
0.0194777
0.0252153
0.0271093
0.0271719
0.0254121
0.0196331
0.0195924
0.0252084
0.0269962
0.0270876
0.0253509
0.0197417
0.0197006
0.025154
0.0269229
0.0269838
0.0253601
0.0198693
0.0198279
0.02514
0.0267909
0.0269076
0.0253158
0.0200051
0.0200034
0.025188
0.0268111
0.0267237
0.025264
0.020148
0.0201464
0.0250725
0.026543
0.0268068
0.0254145
0.0204487
0.0205293
0.0252164
0.0265564
0.0268757
0.0256074
0.020892
0.0211071
0.0254312
0.0264798
0.0271256
0.0260236
0.0215997
0.0216259
0.0256639
0.0266555
0.0270689
0.0261514
0.0221502
0.0221482
0.0257549
0.0265262
0.0274934
0.0266573
0.0229067
0.0227035
0.0261102
0.0267998
0.0271899
0.0269301
0.0237744
0.0230635
0.0245334
0.0233087
0.0719857
0.0532311
0.0325569
0.0246769
0.0362344
0.0477952
0.0302959
0.028182
0.02269
0.0213224
0.0250042
0.0259962
0.0318595
0.024406
0.0217002
0.0212001
0.0307063
0.032244
0.0283485
0.0312796
0.0295426
0.022837
0.0248404
0.0251428
0.0211551
0.0219253
0.02147
0.0196042
0.0178814
0.0149217
0.033984
0.0240677
0.0201076
0.0191512
0.0214609
0.0275539
0.0185282
0.0171837
0.016589
0.014561
0.0159561
0.0176491
0.0176443
0.0157444
0.0119121
0.00890226
0.0164464
0.0195813
0.0170821
0.016864
0.00554328
0.00849774
0.0212192
0.0232909
0.0326797
0.0262838
0.0170795
0.0263953
0.0307143
0.0337339
0.0401453
0.0400635
0.0352825
0.047464
0.0548068
0.0530763
0.0665347
0.0656346
0.0588404
0.0670471
0.0751439
0.0668321
0.0830575
0.0942902
0.0748719
0.0835847
0.111647
0.0955683
0.0922044
0.115565
0.0828688
0.0936541
0.105357
0.0965852
0.0829982
0.080408
0.105468
0.115491
0.0699599
0.0501582
0.0917897
0.11094
0.139692
0.159169
0.145871
0.162433
0.117802
0.140144
0.159626
0.154502
0.14035
0.125905
0.184444
0.156388
0.156487
0.139309
0.13529
0.126624
0.123539
0.128326
0.128182
0.116487
0.13508
0.173524
0.121175
0.106445
0.0993001
0.0858419
0.097754
0.100949
0.146432
0.104945
0.0795618
0.0665673
0.0782875
0.106211
0.0922407
0.0814032
0.0633133
0.0815522
0.101451
0.134608
0.102334
0.0739221
0.0590718
0.0470513
0.0597115
0.0821801
0.112523
0.0773306
0.0495917
0.0522305
0.090407
0.130728
0.0659591
0.057262
0.0424858
0.0448219
0.0749921
0.105356
0.127051
0.089741
0.0510133
0.0416194
0.0558459
0.0628124
0.102949
0.0742793
0.0463658
0.0525662
0.0904822
0.126237
0.0632935
0.0566393
0.0430219
0.0462529
0.0757237
0.104442
0.126754
0.0905519
0.0528598
0.0443829
0.0572454
0.0629179
0.108388
0.0788378
0.0483929
0.0534494
0.0900102
0.125191
0.0901492
0.0723846
0.0498715
0.0565805
0.0895848
0.116453
0.066187
0.0604057
0.04769
0.0514974
0.0800227
0.107814
0.12868
0.0959721
0.0591105
0.0488438
0.0607839
0.0659964
0.109821
0.081656
0.0524432
0.0604871
0.0979642
0.131246
0.067116
0.062443
0.0506555
0.0548659
0.0862514
0.116601
0.130364
0.0964367
0.0598098
0.0567045
0.0800398
0.0980145
0.12174
0.0949898
0.0620676
0.0536261
0.0660551
0.0710043
0.121097
0.0906308
0.0586586
0.0633316
0.100891
0.134639
0.100671
0.0828589
0.0593636
0.0650524
0.0987627
0.125423
0.0734232
0.0685916
0.0559692
0.0629026
0.0928703
0.122042
0.139854
0.105695
0.0673763
0.0567938
0.069647
0.0742026
0.128943
0.0963995
0.064445
0.0689349
0.106903
0.139932
0.11246
0.0910951
0.063169
0.0690245
0.102428
0.130295
0.109622
0.0899426
0.0637145
0.0710345
0.104968
0.13122
0.0809212
0.0756485
0.0623613
0.0678896
0.10326
0.13679
0.146199
0.111385
0.0714493
0.0678327
0.093856
0.114037
0.136981
0.10965
0.0746276
0.065188
0.0781426
0.0830469
0.143074
0.108364
0.0714437
0.0747853
0.115509
0.152045
0.122917
0.100696
0.0726741
0.0769788
0.112346
0.1413
0.120733
0.100087
0.0729788
0.0795554
0.11537
0.143466
0.0890244
0.0836302
0.0689373
0.0787901
0.114339
0.150268
0.158751
0.122785
0.0823556
0.07597
0.107251
0.131591
0.148288
0.118156
0.0815855
0.0772463
0.106716
0.12897
0.149094
0.12021
0.0831695
0.0738003
0.088202
0.0939353
0.160297
0.122078
0.0813552
0.085328
0.12969
0.166034
0.137667
0.113807
0.0829578
0.0861528
0.124497
0.154831
0.133928
0.111687
0.0821245
0.0890347
0.127966
0.157
0.098812
0.0932277
0.0786975
0.0863831
0.128624
0.169484
0.175644
0.135587
0.090516
0.0878462
0.120156
0.145698
0.162524
0.131117
0.0914794
0.0883083
0.121511
0.147842
0.162631
0.131654
0.0935942
0.088547
0.120407
0.145376
0.166141
0.13592
0.0960379
0.0844727
0.100468
0.106645
0.180841
0.137541
0.0935366
0.0985697
0.144787
0.185495
0.156402
0.12822
0.0910881
0.0964987
0.137954
0.171618
0.158777
0.130654
0.0938918
0.0987878
0.138142
0.171576
0.159473
0.130982
0.0945986
0.101302
0.142228
0.173633
0.155811
0.129343
0.0954427
0.104162
0.146978
0.178806
0.113878
0.10748
0.0911468
0.102271
0.149102
0.194667
0.199126
0.156475
0.106749
0.0985542
0.137419
0.167791
0.181628
0.149091
0.105584
0.101616
0.140498
0.170048
0.18214
0.14932
0.106841
0.102462
0.141304
0.171996
0.186328
0.152021
0.109416
0.104041
0.14003
0.167965
0.189696
0.156488
0.112593
0.0984062
0.116242
0.12327
0.208434
0.159674
0.109777
0.114533
0.167293
0.211363
0.180084
0.148182
0.107015
0.11265
0.157386
0.194958
0.181566
0.150373
0.109359
0.114826
0.159528
0.193168
0.18252
0.150633
0.10975
0.116425
0.162268
0.197305
0.178673
0.149363
0.111218
0.120018
0.167502
0.203036
0.129823
0.123064
0.104835
0.117503
0.170754
0.220648
0.229157
0.175041
0.119618
0.11691
0.157039
0.190459
0.207135
0.168266
0.119672
0.117372
0.159282
0.193241
0.207002
0.170244
0.122134
0.118383
0.161286
0.195583
0.212101
0.173386
0.124543
0.11916
0.159775
0.191136
0.214188
0.178437
0.12835
0.11267
0.132482
0.13936
0.236286
0.181621
0.126937
0.128341
0.187579
0.240115
0.2034
0.168847
0.125519
0.129638
0.18103
0.220767
0.20554
0.17025
0.125752
0.131088
0.180559
0.220263
0.207586
0.172181
0.127232
0.134039
0.185151
0.22416
0.201543
0.168768
0.126723
0.13646
0.188524
0.228425
0.146421
0.138864
0.119094
0.135232
0.194189
0.251568
0.254253
0.20164
0.139834
0.13261
0.179614
0.215842
0.234547
0.192225
0.138895
0.133872
0.181407
0.217974
0.234346
0.194699
0.140677
0.135525
0.183434
0.220498
0.239539
0.198197
0.143775
0.135529
0.179737
0.214623
0.242329
0.200682
0.146604
0.129179
0.149924
0.157298
0.266393
0.20493
0.142875
0.147677
0.211667
0.268755
0.228716
0.189486
0.14036
0.147627
0.204566
0.250852
0.230085
0.191959
0.142794
0.150923
0.206323
0.251803
0.224421
0.189012
0.142344
0.152998
0.211038
0.257757
0.162931
0.155399
0.13404
0.150435
0.214923
0.279334
0.286631
0.223225
0.155757
0.147119
0.19825
0.239589
0.264722
0.215438
0.155573
0.150359
0.20241
0.241972
0.263994
0.218219
0.15863
0.150243
0.198414
0.236237
0.269871
0.223046
0.162177
0.141691
0.164468
0.171863
0.293518
0.22682
0.160359
0.164588
0.238641
0.299119
0.251179
0.209005
0.156843
0.165625
0.229177
0.281332
0.245324
0.208259
0.158844
0.168284
0.234407
0.282889
0.175821
0.169252
0.147958
0.165727
0.236123
0.304812
0.317689
0.247783
0.171894
0.163001
0.217801
0.261747
0.295005
0.239914
0.173677
0.165184
0.216985
0.255678
0.296443
0.243148
0.175729
0.154604
0.177597
0.184985
0.317426
0.244951
0.172311
0.180395
0.259919
0.329333
0.271358
0.226644
0.170684
0.18128
0.249384
0.306089
0.264615
0.224933
0.172646
0.18489
0.255545
0.310598
0.189665
0.182744
0.159746
0.180443
0.254216
0.327801
0.345634
0.271606
0.188171
0.174831
0.22881
0.27169
0.323526
0.265184
0.189971
0.16674
0.188102
0.193379
0.341181
0.265044
0.188173
0.196381
0.282997
0.366906
0.277602
0.235527
0.18061
0.196946
0.277098
0.337914
0.198662
0.192893
0.170344
0.193326
0.272709
0.352048
0.378035
0.295287
0.204308
0.18952
0.246897
0.290428
0.351473
0.285591
0.203622
0.175859
0.198453
0.203284
0.359134
0.278491
0.199336
0.212421
0.30786
0.38966
0.29603
0.252444
0.195783
0.214325
0.299259
0.369225
0.206898
0.201731
0.179861
0.201982
0.277987
0.353321
0.408769
0.31752
0.218187
0.181624
0.202619
0.206245
0.364436
0.285232
0.207253
0.225445
0.329135
0.42385
0.205778
0.202577
0.183725
0.207625
0.287058
0.367014
0.433802
0.339711
0.229556
0.191092
0.208904
0.211823
0.383697
0.303044
0.218498
0.236125
0.348718
0.450159
0.213455
0.210539
0.191443
0.21805
0.301727
0.38506
0.465612
0.36485
0.248867
0.206142
0.224003
0.22304
0.394585
0.311196
0.226363
0.25186
0.372724
0.476339
0.22151
0.221132
0.204513
0.231995
0.314733
0.396161
0.493904
0.381329
0.257818
0.193213
0.199612
0.193322
0.262171
0.242397
0.20962
0.225571
0.308823
0.393366
0.501183
0.381492
0.253221
0.180096
0.183437
0.177153
0.211663
0.209729
0.194017
0.181881
0.204042
0.209974
0.197919
0.194161
0.179496
0.177904
0.200593
0.203338
0.232603
0.215083
0.179839
0.192059
0.277058
0.359273
0.489326
0.358883
0.221493
0.149624
0.160142
0.155824
0.167954
0.163754
0.14265
0.127509
0.151729
0.159529
0.153289
0.144662
0.119275
0.109489
0.135614
0.145573
0.141051
0.130674
0.103315
0.0968511
0.124271
0.136073
0.132575
0.12068
0.0924328
0.0878048
0.116265
0.128907
0.126184
0.112983
0.0842339
0.0809723
0.109895
0.123606
0.121147
0.106979
0.077985
0.0752458
0.104231
0.118798
0.116552
0.101639
0.0727315
0.0704237
0.0991985
0.114399
0.112556
0.096898
0.0683014
0.0663536
0.0947353
0.110141
0.108449
0.0927091
0.0645693
0.0629347
0.0908054
0.106627
0.104884
0.0890198
0.0614387
0.0600712
0.0873417
0.103205
0.101603
0.0857704
0.0588239
0.0576864
0.0842925
0.100055
0.0987777
0.0829086
0.0566524
0.055714
0.0816061
0.0969752
0.0958086
0.0803878
0.0548661
0.0540978
0.0792364
0.0945034
0.0934502
0.0781577
0.0534059
0.0527828
0.0771388
0.0918885
0.0909293
0.0761873
0.0522257
0.0517247
0.0752855
0.0898282
0.0889658
0.0744435
0.0512794
0.0508817
0.0736462
0.0876111
0.0868338
0.0729047
0.0505313
0.0502179
0.0721994
0.0859142
0.0852233
0.0715437
0.0499433
0.0496991
0.0709197
0.0840528
0.0834388
0.0703431
0.0494876
0.0492981
0.0697917
0.0826807
0.0821431
0.0692828
0.049135
0.0489893
0.0687954
0.0811348
0.0806655
0.0683495
0.048866
0.0487539
0.0679198
0.0800489
0.0796454
0.0675278
0.0486598
0.0485737
0.0671485
0.0787766
0.0784316
0.0668065
0.0485034
0.048437
0.0664733
0.0779353
0.0776455
0.066174
0.0483833
0.0483318
0.0658803
0.0768935
0.0766526
0.0656208
0.0482921
0.0482521
0.0653639
0.076256
0.07606
0.0651377
0.0482216
0.0481951
0.0649151
0.075403
0.0752468
0.064718
0.0481717
0.0481588
0.0645286
0.0749305
0.0746623
0.0643583
0.0481427
0.0481371
0.0641945
0.0743791
0.074145
0.0640495
0.0481279
0.048128
0.0639098
0.0738948
0.0736909
0.0637874
0.0481238
0.0481301
0.0636685
0.0734662
0.0732893
0.0635671
0.0481322
0.0481434
0.0634686
0.0730926
0.0729409
0.0633856
0.048149
0.0481657
0.0633032
0.0727627
0.0726311
0.0632374
0.0481778
0.0481993
0.0631784
0.0724819
0.072365
0.0631223
0.0482151
0.0482416
0.0630945
0.0722428
0.0721429
0.0630555
0.0482646
0.0482965
0.0630395
0.0720379
0.0720961
0.0630103
0.0483233
0.0483606
0.063007
0.0717164
0.0717879
0.0629895
0.0483929
0.0484345
0.0629955
0.071731
0.0717998
0.0629839
0.0484689
0.0485149
0.0630007
0.0714895
0.0715753
0.0630003
0.0485558
0.0486052
0.0630208
0.0715563
0.0715064
0.0630242
0.0486479
0.0487003
0.0630517
0.0714992
0.0714625
0.0630636
0.0487475
0.0488022
0.0630949
0.0714602
0.0715717
0.0631101
0.0488505
0.0489078
0.0631476
0.071295
0.0714178
0.0631704
0.0489597
0.0490186
0.0632112
0.0714299
0.0714137
0.0632362
0.0490707
0.0491313
0.0632826
0.071435
0.0714295
0.0633148
0.0491868
0.0492489
0.0633639
0.0714541
0.0714511
0.0633975
0.0493043
0.0493679
0.0634519
0.0714842
0.0714913
0.0634924
0.0494266
0.0494918
0.0635489
0.071527
0.0715357
0.0635905
0.0495505
0.0496171
0.0636518
0.0715792
0.0715974
0.0636999
0.049679
0.0497472
0.063763
0.0716426
0.0716616
0.0638115
0.0498091
0.0498787
0.0638789
0.0717139
0.0717416
0.0639335
0.0499438
0.0500147
0.0640019
0.0717946
0.0718221
0.0640562
0.0500794
0.0501515
0.0641283
0.0718813
0.0719167
0.0641881
0.0502191
0.0502923
0.0642608
0.0719759
0.0720105
0.0643197
0.0503592
0.0504332
0.0643956
0.0720751
0.0721167
0.0644592
0.0505026
0.0505774
0.0645355
0.0721809
0.0723656
0.0645984
0.0506463
0.0507216
0.0646768
0.0721464
0.0723373
0.0647434
0.0507924
0.0508683
0.0648226
0.0724061
0.0725964
0.0648887
0.0509386
0.0510147
0.064969
0.0723794
0.0725743
0.0650377
0.051086
0.0511623
0.0651185
0.0726465
0.0726962
0.0651867
0.051233
0.0513093
0.0652688
0.072771
0.0728243
0.0653392
0.0513809
0.051457
0.0654209
0.0728986
0.0729512
0.0654905
0.0515276
0.0516034
0.0655732
0.0730278
0.0730836
0.0656446
0.0516745
0.0517499
0.0657269
0.0731592
0.0733597
0.065797
0.0518198
0.0518946
0.0658797
0.0731454
0.0733492
0.0659514
0.0519647
0.0520388
0.0660334
0.0734257
0.073628
0.0661037
0.0521075
0.0521808
0.0661859
0.0734133
0.0736187
0.0662575
0.0522495
0.052322
0.0663387
0.0736956
0.0737525
0.0664087
0.052389
0.0524605
0.0664902
0.0738308
0.0738898
0.0665612
0.0525275
0.0525979
0.0666414
0.0739665
0.0740238
0.0667105
0.052663
0.0527323
0.0667906
0.0741015
0.0741606
0.0668604
0.0527971
0.0528651
0.0669392
0.0742364
0.0744415
0.067007
0.0529279
0.0529948
0.0670854
0.0742221
0.0744294
0.0671538
0.0530572
0.0531227
0.0672309
0.0745041
0.0747093
0.0672972
0.053183
0.0532472
0.0673736
0.0744875
0.0746946
0.0674403
0.053307
0.0533698
0.0675153
0.0747681
0.0749728
0.06758
0.0534275
0.0534889
0.0676544
0.074897
0.0749541
0.0677191
0.0535461
0.0536062
0.0677919
0.0750265
0.0750813
0.0678545
0.0536613
0.05372
0.0679266
0.0751539
0.0752099
0.0679894
0.0537745
0.0538318
0.0680599
0.0751312
0.0754852
0.0681206
0.0538843
0.0539401
0.0681903
0.0752552
0.0754601
0.068251
0.0539919
0.0540463
0.0683191
0.0755289
0.075581
0.0683777
0.0540961
0.0541492
0.0684451
0.0756497
0.0757026
0.0685035
0.0541983
0.05425
0.0685694
0.0757694
0.0759713
0.0686257
0.0542973
0.0543478
0.0686906
0.0757356
0.0759384
0.0687468
0.0543944
0.0544436
0.0688101
0.0760034
0.0760524
0.0688643
0.0544884
0.0545362
0.0689268
0.0761172
0.0761667
0.0689808
0.0545802
0.0546269
0.0690416
0.0762297
0.076277
0.0690935
0.0546691
0.0547144
0.0691535
0.0763397
0.0763873
0.0692051
0.0547559
0.0548
0.0692636
0.0764482
0.0768001
0.0694516
0.0548398
0.0548825
0.0693701
0.0765536
0.0765995
0.0694192
0.0549216
0.0549632
0.0693368
0.0763533
0.0768552
0.0695227
0.0550006
0.0550411
0.0695777
0.0766074
0.0768049
0.0696249
0.0550779
0.0551173
0.0696788
0.0768617
0.0770575
0.0697242
0.0551529
0.0551912
0.0697768
0.0768066
0.0770028
0.0698219
0.0552261
0.0552634
0.0698736
0.0770576
0.0772525
0.0699172
0.0552971
0.0553333
0.0699673
0.0769983
0.0771933
0.0700104
0.0553662
0.0554015
0.0700598
0.077246
0.0774397
0.0701015
0.0554333
0.0554675
0.0701493
0.0771826
0.0773764
0.0701905
0.0554986
0.0555319
0.0702377
0.077427
0.0776195
0.0702774
0.0555619
0.0555942
0.0703231
0.0773595
0.0775522
0.0703624
0.0556235
0.0556549
0.0704074
0.0776006
0.077792
0.0704453
0.0556832
0.0557137
0.0704888
0.0775292
0.0777208
0.0705263
0.0557413
0.0557709
0.0705692
0.0777671
0.0779574
0.0706053
0.0557976
0.0558263
0.0706467
0.0776918
0.0778822
0.0706825
0.0558523
0.0558804
0.0707235
0.0779267
0.0781158
0.0707582
0.0559056
0.0559328
0.0707977
0.0780027
0.0780363
0.0708316
0.0559575
0.0559841
0.0708705
0.0779236
0.0782675
0.0709033
0.0560079
0.0560335
0.0709408
0.0779965
0.0781844
0.0709732
0.0560566
0.0560816
0.0710103
0.0782249
0.0784115
0.0710416
0.056104
0.0561281
0.0710773
0.0782937
0.0783242
0.0711078
0.05615
0.0561737
0.0711429
0.0782069
0.0785489
0.0711726
0.0561947
0.0562174
0.0712064
0.0784289
0.0784577
0.0712355
0.056238
0.0562603
0.0712688
0.0784946
0.0785221
0.0712968
0.0562801
0.0563015
0.0713288
0.0785575
0.078585
0.0713562
0.0563208
0.0563417
0.0713879
0.0784636
0.0788039
0.0714143
0.0563603
0.0563804
0.0714447
0.0785233
0.0787065
0.0714708
0.0563984
0.056418
0.0715009
0.0787397
0.0789219
0.071526
0.0564355
0.0564543
0.0715546
0.0786393
0.0788213
0.0715793
0.0564712
0.0564897
0.0716077
0.0788531
0.0788765
0.0716313
0.056506
0.0565236
0.0716586
0.0789069
0.0789304
0.0716819
0.0565394
0.0565567
0.0717089
0.0789605
0.0791407
0.0717312
0.0565719
0.0565885
0.0717569
0.0788539
0.079192
0.071779
0.0566032
0.0566196
0.0718045
0.0790624
0.0790834
0.0718255
0.0566339
0.0566494
0.0718497
0.0791108
0.079132
0.0718704
0.0566632
0.0566786
0.0718946
0.0791594
0.0791793
0.0719143
0.0566919
0.0567064
0.0719372
0.0792052
0.0792252
0.0719567
0.0567194
0.0567337
0.0719795
0.0790934
0.0794288
0.0719983
0.056746
0.0567596
0.0720199
0.0792944
0.0793134
0.0720382
0.0567717
0.0567851
0.0720598
0.0791801
0.079515
0.0720774
0.0567968
0.0568095
0.0720977
0.079221
0.0793973
0.072115
0.0568206
0.0568331
0.0721356
0.0794207
0.0795963
0.0721521
0.056844
0.0568559
0.0721712
0.0793008
0.0794762
0.0721874
0.0568662
0.0568779
0.0722068
0.0794984
0.0796731
0.0722222
0.056888
0.0568991
0.0722404
0.0793765
0.0795511
0.0722556
0.0569089
0.0569197
0.0722738
0.0795719
0.0797459
0.0722883
0.056929
0.0569395
0.0723055
0.079448
0.0796218
0.0723198
0.0569485
0.0569587
0.0723369
0.0796416
0.0798148
0.0723504
0.0569673
0.0569771
0.0723667
0.0795157
0.0796887
0.0723801
0.0569854
0.0569949
0.0723964
0.0797077
0.0798801
0.072409
0.0570029
0.0570121
0.0724244
0.0795799
0.0797522
0.0724369
0.0570198
0.0570287
0.0724523
0.0797702
0.0799419
0.0724642
0.0570362
0.0570447
0.0724787
0.0796406
0.0798122
0.0724904
0.0570519
0.0570602
0.0725051
0.0798295
0.0800005
0.0725162
0.0570672
0.0570752
0.0725299
0.0796981
0.0798691
0.0725409
0.0570819
0.0570897
0.0725546
0.0798857
0.0798961
0.0725651
0.0570961
0.0571035
0.0725781
0.0799122
0.079923
0.0725886
0.0571098
0.0571171
0.0726016
0.0799388
0.0801086
0.0726115
0.0571232
0.0571301
0.0726238
0.0798043
0.0801342
0.0726336
0.057136
0.0571428
0.0726457
0.0798296
0.0801584
0.0726551
0.0571484
0.0571548
0.0726666
0.0800128
0.0800225
0.0726758
0.0571604
0.0571669
0.0726873
0.0798775
0.0802061
0.0726961
0.0571722
0.0571782
0.0727068
0.0799001
0.0800691
0.0727157
0.0571833
0.0571893
0.0727266
0.0800829
0.0800909
0.0727348
0.0571943
0.0571999
0.0727452
0.0801044
0.0801129
0.0727537
0.0572048
0.0572104
0.0727638
0.0801261
0.0801337
0.0727715
0.057215
0.0572203
0.0727815
0.0801467
0.0801545
0.0727894
0.0572249
0.0572302
0.0727991
0.0801673
0.0801742
0.0728062
0.0572344
0.0572394
0.0728157
0.0801867
0.0801941
0.072823
0.0572437
0.0572487
0.0728323
0.0802064
0.0802127
0.072839
0.0572526
0.0572574
0.0728479
0.0802246
0.0802314
0.0728547
0.0572612
0.0572659
0.0728635
0.0802432
0.0802491
0.0728697
0.0572695
0.057274
0.0728782
0.0802605
0.0802669
0.0728846
0.0572776
0.0572821
0.072893
0.0802783
0.0802838
0.0728987
0.0572854
0.0572896
0.0729068
0.0802948
0.0803006
0.0729128
0.057293
0.0572973
0.0729208
0.0803116
0.0803167
0.0729262
0.0573003
0.0573044
0.072934
0.0803274
0.0803329
0.0729396
0.0573075
0.0573117
0.0729473
0.0803434
0.0803481
0.0729524
0.0573146
0.0573185
0.0729599
0.0803584
0.0803635
0.0729651
0.0573214
0.0573254
0.0729726
0.0803737
0.0803781
0.0729773
0.0573281
0.057332
0.0729846
0.0803881
0.0803929
0.0729895
0.0573347
0.0573386
0.0729968
0.0804029
0.0804069
0.0730012
0.0573412
0.0573449
0.0730083
0.0804166
0.0804211
0.0730129
0.0573475
0.0573513
0.0730201
0.0804308
0.0805956
0.0730243
0.0573538
0.0573575
0.073031
0.0802834
0.0804482
0.0730353
0.0573599
0.0573636
0.0730424
0.0804578
0.0806225
0.0730464
0.057366
0.0573697
0.0730531
0.08031
0.0804747
0.0730571
0.0573721
0.0573757
0.0730641
0.0804841
0.0806486
0.0730679
0.057378
0.0573817
0.0730745
0.0803359
0.0805004
0.0730784
0.0573841
0.0573877
0.0730854
0.0805098
0.0806743
0.0730892
0.0573902
0.0573939
0.0730958
0.0803615
0.0805261
0.0730997
0.0573964
0.0574002
0.0731067
0.0805355
0.0805388
0.0731103
0.0574027
0.0574065
0.0731173
0.0805481
0.080552