/*--------------------------------*- C++ -*----------------------------------*\
| =========                 |                                                 |
| \\      /  F ield         | OpenFOAM: The Open Source CFD Toolbox           |
|  \\    /   O peration     | Version:  v2006                                 |
|   \\  /    A nd           | Website:  www.openfoam.com                      |
|    \\/     M anipulation  |                                                 |
\*---------------------------------------------------------------------------*/
FoamFile
{
    version     2.0;
    format      ascii;
    class       volScalarField;
    location    "0.044";
    object      omega;
}
// * * * * * * * * * * * * * * * * * * * * * * * * * * * * * * * * * * * * * //

dimensions      [0 0 -1 0 0 0 0];


internalField   nonuniform List<scalar> 
41981
(
0.0093988
0.00939888
0.00939842
0.00939818
0.00939816
0.00939828
0.00939845
0.00939844
0.00939861
0.00939864
0.00939855
0.00939793
0.00939626
0.00939322
0.00938875
0.00938308
0.00937657
0.00936959
0.00936242
0.00935519
0.00934795
0.00934067
0.00933331
0.00932582
0.00931816
0.0093103
0.00930221
0.00929389
0.00928534
0.00927657
0.00926757
0.00925836
0.00924894
0.00923931
0.00922947
0.00921944
0.0092092
0.00919876
0.00918812
0.00917728
0.00916624
0.00915499
0.00914356
0.00913192
0.00912009
0.00910807
0.00909586
0.00908345
0.00907086
0.00905809
0.00904514
0.009032
0.0090187
0.00900521
0.00899156
0.00897775
0.00896377
0.00894963
0.00893534
0.0089209
0.00890631
0.00889159
0.00887672
0.00886172
0.00884659
0.00883134
0.00881597
0.00880049
0.0087849
0.00876921
0.00875341
0.00873753
0.00872156
0.00870551
0.00868938
0.00867318
0.00865692
0.0086406
0.00862423
0.00860781
0.00859135
0.00857486
0.00855834
0.0085418
0.00852524
0.00850868
0.00849211
0.00847554
0.00845899
0.00844245
0.00842594
0.00840946
0.00839301
0.00837662
0.00836027
0.008344
0.00832779
0.00831167
0.00829565
0.00827975
0.008264
0.00824844
0.0082331
0.00821807
0.00820345
0.00818939
0.00817612
0.00816397
0.00815343
0.00814521
0.00814039
0.0081405
0.00814783
0.00816567
0.00819884
0.0082543
0.00834207
0.00847652
0.00867815
0.00897611
0.00941152
0.0100422
0.0109488
0.0122431
0.0140792
0.0166667
0.020288
0.0253171
0.0322395
0.0416703
0.0543678
0.0712429
0.0933747
0.12204
0.158756
0.205317
0.263248
0.329506
0.371287
0.371678
0.4235
0.431451
0.355597
0.228509
0.122782
0.0567979
0.0661882
0.352743
1.10579
3.09764
7.7125
17.3985
38.6676
51.8627
44.0568
110.591
314.261
1127.85
10095
55676.6
730413
740941
115092
26211.8
48644.9
169228
751283
754920
175636
55583.5
66817.6
183608
732730
720437
179942
67075.9
73220.3
183882
703877
691497
177465
72477
74933.2
180221
677670
674216
176292
74049.6
76051.7
176601
664254
658509
173431
74599
76444.6
174171
651335
647291
171994
74963.1
76753.9
173063
643061
640969
171561
75309.6
77122.9
172904
637998
636547
171696
75731.8
77583
173285
634101
632921
172260
76233.2
78117.2
174051
630743
629704
173030
76786.5
78680.1
174845
627699
626756
173820
77345.6
79234.6
175648
624890
624017
174612
77885.7
79764.7
176439
622270
621450
175389
78398
80265.6
177199
619806
619031
176134
78880.6
80737.1
177923
617474
616739
176839
79334.1
81179.8
178601
615259
614558
177507
79760
81596.6
179251
613147
612477
178144
80162.1
81991.5
179866
611127
610485
178746
80544.2
82367.6
180448
609191
608574
179313
80908.4
82726.3
180993
607330
606737
179845
81256
83068.7
181504
605538
604966
180344
81587.9
83396
181983
603808
603253
180810
81905.7
83709.7
182436
602131
601593
181247
82210.4
84010.3
182861
600502
599979
181653
82502.1
84297.5
183253
598916
598405
182028
82780.8
84571.6
183616
597367
596868
182374
83046.7
84832.8
183950
595853
595363
182693
83300
85081.3
184258
594368
593887
182985
83541
85317.5
184539
592911
592438
183253
83770
85541.7
184795
591478
591013
183496
83987.6
85754.7
185028
590067
589609
183716
84194.5
85957.1
185238
588676
588223
183914
84391.3
86149.5
185426
587301
586853
184091
84578.7
86332.8
185593
585941
585497
184247
84757.3
86507.1
185739
584593
584152
184383
84927.4
86673
185865
583254
582816
184500
85089.5
86830.9
185973
581923
581486
184599
85243.8
86981.1
186063
580597
580161
184680
85390.8
87123.9
186135
579275
578839
184745
85530.8
87259.6
186190
577954
577517
184792
85664
87388.5
186229
576632
576195
184824
85790.7
87510.8
186252
575308
574870
184840
85911
87626.8
186260
573981
573540
184842
86025.4
87736.6
186252
572649
572205
184828
86133.7
87840.4
186230
571310
570864
184801
86236.4
87938.4
186194
569963
569513
184759
86333.6
88030.9
186143
568607
568153
184704
86425.5
88118.1
186079
567241
566781
184635
86512
88199.8
186003
565861
565387
184553
86592.5
88275.3
185914
564464
563972
184459
86667
88344.8
185813
563049
562540
184354
86736.1
88409
185700
561617
561090
184236
86800.2
88468.3
185575
560167
559625
184107
86859.8
88523
185437
558701
558143
183964
86915.1
88573.2
185286
557217
556644
183807
86965.9
88618.7
185120
555715
555127
183637
87012.3
88659.5
184939
554194
553592
183451
87054
88695.4
184744
552654
552038
183250
87091.1
88726.2
184532
551094
550464
183033
87123.2
88751.6
184303
549513
548869
182800
87150.1
88771.6
184058
547910
547252
182550
87171.8
88786.1
183796
546284
545613
182283
87188.1
88794.7
183516
544634
543951
181998
87198.7
88797.2
183218
542960
542266
181696
87203.3
88793.5
182902
541262
540556
181374
87201.7
88783
182566
539539
538822
181034
87193.4
88765.4
182211
537790
537063
180673
87178.1
88740.2
181834
536017
535280
180292
87155.1
88706.9
181437
534218
533473
179889
87124
88664.8
181017
532395
531643
179463
87084.1
88613.4
180575
530548
529789
179015
87034.9
88552.1
180108
528678
527914
178538
86975.4
88479.7
179616
526786
526018
178034
86904.7
88395.4
179099
524874
524104
177506
86822
88298.5
178558
522944
522173
176952
86726.5
88188
177989
520997
520227
176369
86617
88062.6
177392
519036
518270
175757
86492.3
87921
176765
517065
516305
175115
86350.8
87761.6
176108
515088
514335
174441
86190.9
87582.8
175418
513108
512366
173735
86011
87382.9
174695
511132
510403
172995
85809.2
87159.9
173939
509164
508453
172220
85583.6
86911.9
173147
507212
506520
171410
85332
86636.8
172320
505282
504615
170564
85052.5
86332.6
171457
503382
502743
169682
84742.9
85997.1
170559
501522
500913
168764
84400.9
85628.2
169624
499712
499131
167810
84024.5
85224.1
168655
497965
497412
166822
83612.2
84783.6
167653
496287
495764
165803
83162.5
84305.3
166621
494685
494194
164755
82674.2
83788.2
165562
493168
492712
163682
82146.7
83232.3
164480
491746
491331
162589
81580.5
82638.7
163378
490431
490058
161480
80977.1
82009.3
162264
489230
488903
160362
80338.7
81346.8
161144
488150
487870
159244
79668.5
80655.1
160026
487196
486965
158133
78970.7
79938.4
158919
486372
486190
157038
78248.4
79199.6
157821
485678
485569
156005
77505.2
78450.6
156778
485137
485083
155014
76760.9
77701.8
155780
484718
484717
154073
76018.3
76956.9
154838
484424
484478
153194
75283.2
76222.5
153961
484231
484344
152387
74563.9
75506.1
153158
484145
484316
151657
73860.3
74813.1
152441
484170
484393
151011
73183.6
74155.1
151830
484307
484563
150472
72546.3
73541.3
151323
484524
484809
150015
71952
72972.4
150910
484810
485120
149637
71403
72450.5
150584
485152
485498
149355
70903.1
71980
150355
485557
485930
149164
70453.2
71560.5
150212
486016
486416
149056
70055.1
71193.6
150153
486522
486935
149036
69710.4
70883.2
150186
487054
487470
149107
69422.7
70631.4
150308
487598
488013
149259
69192.3
70435.4
150505
488150
488565
149480
69015.3
70291.6
150765
488709
489122
149760
68889.4
70197.9
151080
489268
489675
150094
68812.2
70149.5
151444
489811
490200
150473
68778
70142.6
151861
490328
490702
150895
68783.6
70173.6
152309
490821
491180
151346
68825.5
70239
152783
491291
491635
151823
68900.2
70335.3
153276
491736
492065
152317
69004.2
70458.7
153781
492158
492471
152819
69133.7
70605.2
154288
492554
492853
153324
69284.5
70770.8
154794
492929
493213
153823
69452.7
70952
155295
493284
493555
154315
69635.2
71145.2
155781
493621
493877
154790
69828.3
71346.6
156246
493938
494180
155245
70028
71552.4
156688
494234
494463
155677
70230.9
71759.6
157106
494513
494729
156084
70434.3
71965.7
157499
494775
494979
156466
70635.9
72168.9
157871
495021
495215
156821
70833.9
72367.1
158214
495253
495439
157148
71026.5
72558.8
158530
495474
495651
157449
71212.2
72742.7
158818
495683
495855
157723
71389.9
72918
159082
495884
496049
157974
71559.1
73084.6
159322
496076
496236
158202
71719.7
73242.1
159541
496260
496414
158409
71871.4
73390.6
159740
496435
496584
158598
72014.3
73530.1
159920
496603
496748
158768
72148.4
73660.8
160083
496764
496904
158923
72274
73783
160231
496918
497054
159064
72391.5
73897.2
160366
497065
497196
159192
72501.2
74003.9
160489
497204
497330
159310
72603.8
74103.5
160602
497336
497457
159418
72699.5
74196.5
160707
497460
497576
159519
72789
74283.4
160804
497576
497688
159612
72872.6
74364.5
160895
497685
497793
159699
72950.6
74440.1
160979
497788
497892
159781
73023.2
74510.4
161059
497884
497986
159858
73090.6
74575.3
161133
497976
498076
159929
73152.3
74634.3
161201
498065
498165
159994
73207.6
74685.9
161260
498153
498258
160047
73253.6
74723.7
161294
498250
498384
160051
73271.5
74848.3
161561
498640
494144
158572
73240.4
74650
162651
494946
494276
157840
72148
73485.4
158693
487117
463683
149337
68265.1
64112.8
142140
440306
419741
138644
63492.7
60876.1
133081
410617
399893
131652
59889.2
24302.6
13171.5
9012.68
7336
5715.61
4812.28
4172.6
3740.02
3409.6
3161.89
2963.88
2808.68
2683.04
2583.73
2504.58
2443.91
2398.68
2367.97
2350.39
2345.54
2353.2
2373.31
2406.39
2452.78
2514.06
2590.96
2686.44
2801.7
2942.01
3109.17
3312.62
3555.32
3854.66
4213.1
4666.7
5211.98
5937.01
6669.03
7769.21
9722.68
12172.1
13626.4
19602.8
31377
63611.4
162507
366775
1.27073e+06
1.30034e+06
367964
162388
172553
383501
1.33065e+06
1.36698e+06
386196
172214
173746
389490
1.3585e+06
1.36529e+06
390527
174706
176844
392591
1.38972e+06
1.4167e+06
397850
177396
176993
397118
1.41497e+06
1.41656e+06
401952
178741
178240
400765
1.41316e+06
1.41499e+06
400993
178309
178304
401037
1.41511e+06
1.41519e+06
401139
178319
178300
401147
1.4153e+06
1.41539e+06
401253
178310
178291
401268
1.41551e+06
1.4156e+06
401361
178298
178275
401366
1.41572e+06
1.41581e+06
401463
178280
178258
401474
1.41594e+06
1.41604e+06
401562
178262
178237
401565
1.41616e+06
1.41626e+06
401659
178241
178218
401670
1.41639e+06
1.4165e+06
401757
178221
178195
401759
1.41663e+06
1.41673e+06
401852
178198
178175
401863
1.41687e+06
1.41698e+06
401948
178178
178152
401951
1.41712e+06
1.41722e+06
402043
178154
178131
402054
1.41737e+06
1.41748e+06
402139
178133
178108
402141
1.41762e+06
1.41773e+06
402233
178110
178087
402245
1.41788e+06
1.41799e+06
402329
178090
178065
402332
1.41814e+06
1.41826e+06
402424
178069
178046
402436
1.41841e+06
1.41853e+06
402521
178050
178026
402525
1.41868e+06
1.4188e+06
402618
178030
178009
402632
1.41896e+06
1.41908e+06
402717
178014
177991
402723
1.41924e+06
1.41936e+06
402817
177997
177977
402833
1.41953e+06
1.41965e+06
402919
177984
177963
402927
1.41982e+06
1.41995e+06
403023
177970
177952
403041
1.42012e+06
1.42025e+06
403129
177961
177941
403139
1.42042e+06
1.42055e+06
403235
177951
177935
403255
1.42073e+06
1.42086e+06
403345
177945
177928
403358
1.42104e+06
1.42118e+06
403456
177940
177927
403477
1.42136e+06
1.42151e+06
403571
177940
177926
403586
1.42169e+06
1.42183e+06
403688
177942
177932
403712
1.42202e+06
1.42217e+06
403810
177949
177939
403828
1.42236e+06
1.42251e+06
403935
177958
177952
403963
1.42271e+06
1.42286e+06
404065
177973
177968
404087
1.42306e+06
1.42322e+06
404200
177991
177990
404232
1.42342e+06
1.42359e+06
404342
178017
178016
404369
1.42379e+06
1.42396e+06
404491
178048
178052
404528
1.42417e+06
1.42434e+06
404648
178087
178091
404680
1.42456e+06
1.42473e+06
404813
178133
178142
404856
1.42495e+06
1.42513e+06
404989
178187
178197
405028
1.42536e+06
1.42553e+06
405173
178251
178266
405224
1.42577e+06
1.42595e+06
405372
178324
178341
405421
1.42619e+06
1.42638e+06
405584
178408
178431
405645
1.42663e+06
1.42682e+06
405812
178505
178530
405873
1.42707e+06
1.42727e+06
406058
178615
178646
406132
1.42753e+06
1.42773e+06
406324
178739
178775
406399
1.428e+06
1.4282e+06
406613
178880
178923
406703
1.42848e+06
1.42869e+06
406928
179040
179088
407022
1.42897e+06
1.42919e+06
407272
179220
179278
407384
1.42948e+06
1.4297e+06
407652
179424
179489
407771
1.43e+06
1.43023e+06
408070
179654
179730
408211
1.43054e+06
1.43077e+06
408535
179913
179999
408687
1.43109e+06
1.43133e+06
409052
180206
180305
409234
1.43166e+06
1.43191e+06
409637
180535
180647
409845
1.43224e+06
1.43249e+06
410295
180907
181036
410563
1.43283e+06
1.43308e+06
411067
181326
181471
411390
1.43342e+06
1.43366e+06
411969
181791
181963
412392
1.43398e+06
1.43419e+06
413069
182313
182510
413604
1.43447e+06
1.43464e+06
414420
182893
183117
415125
1.43485e+06
1.43495e+06
416128
183533
183776
417047
1.43503e+06
1.43505e+06
418334
184222
184474
419593
1.43503e+06
1.43489e+06
421168
184919
185167
422720
1.43468e+06
1.43432e+06
424566
185617
185905
426427
1.43401e+06
1.43363e+06
428564
186372
186660
430824
1.43346e+06
1.43338e+06
433236
187047
187234
435524
1.43343e+06
1.43365e+06
438019
187384
187411
440302
1.43423e+06
1.43505e+06
442668
187291
186766
444641
1.43644e+06
1.43837e+06
445903
185996
184601
446340
1.44119e+06
1.4445e+06
446218
182873
179702
438340
1.42036e+06
1.39478e+06
429114
176794
174940
428310
1.40106e+06
1.42728e+06
426572
174693
170785
428858
1.43491e+06
1.41168e+06
409154
167469
165750
412195
1.3905e+06
1.371e+06
394874
162162
159126
391123
1.3492e+06
1.30864e+06
373695
155661
153412
366211
1.26996e+06
1.25199e+06
351951
153029
152044
348464
1.25462e+06
1.2132e+06
348409
152755
151692
315506
1.14253e+06
1.07031e+06
313600
153793
157657
300315
1.6768e+06
2.97717e+06
908941
373226
198482
510014
2.18578e+06
2.03621e+06
557939
221433
220304
562188
1.98304e+06
1.89601e+06
533949
207640
209536
527671
1.82054e+06
1.79017e+06
494462
197501
197951
500831
1.71981e+06
1.66056e+06
443207
182609
187025
457663
1.59946e+06
1.51517e+06
413389
177601
179239
411924
1.45939e+06
1.3636e+06
381796
174221
175053
360875
1.20617e+06
1.82084e+06
316545
172097
389201
970690
2.99922e+06
2.10098e+06
473628
191804
202754
515159
1.78911e+06
1.61553e+06
432136
175130
176370
423021
1.52528e+06
1.4459e+06
399578
164584
163725
377803
1.34474e+06
1.27947e+06
347880
158534
158479
345325
1.19177e+06
1.09212e+06
310026
156814
163560
309169
1.69217e+06
2.84211e+06
924016
366671
186501
447866
2.02188e+06
1.84496e+06
493078
201739
194914
491823
1.72487e+06
1.58739e+06
417931
183818
185451
420129
1.49569e+06
1.36324e+06
381965
178771
178661
352998
1.20706e+06
1.82348e+06
319822
177946
389569
960441
3.01699e+06
2.04202e+06
472375
190072
195452
473130
1.68986e+06
1.49437e+06
399731
170365
168703
367338
1.33198e+06
1.19926e+06
341780
162547
163667
314720
1.08396e+06
1.66067e+06
312022
170712
367846
905612
2.78233e+06
1.93095e+06
429834
189211
194710
448653
1.62338e+06
1.45837e+06
391087
183038
186409
380634
1.27292e+06
1.89572e+06
340601
186513
401641
1.00457e+06
3.11069e+06
2.08295e+06
476445
197372
200159
466705
1.67415e+06
1.44383e+06
379161
173811
174156
367584
1.26409e+06
1.11718e+06
320989
168151
179410
322211
1.67882e+06
2.77054e+06
905453
376778
195562
434664
1.9175e+06
1.53918e+06
450545
202291
187013
361078
1.2866e+06
1.89394e+06
360051
193577
402503
987349
2.99753e+06
1.90987e+06
448802
197698
192927
407674
1.46132e+06
1.22008e+06
342878
174148
186142
343046
1.79755e+06
2.7391e+06
916262
381763
197574
405623
1.76085e+06
1.36774e+06
405099
199648
200595
379270
2.06181e+06
3.03656e+06
980008
411828
203942
441479
1.80592e+06
1.36584e+06
398850
193566
189539
361718
1.96565e+06
2.69533e+06
898803
381403
194205
405674
1.68012e+06
2.25725e+06
407108
201513
396278
943072
2.92093e+06
1.77364e+06
417804
189520
190303
413423
2.29906e+06
2.80751e+06
824933
349614
175149
390283
1.67953e+06
2.03735e+06
385611
169743
249233
557795
2.25366e+06
2.44363e+06
468876
201371
192409
435360
2.1008e+06
1.92251e+06
401563
174516
208378
497752
2.56744e+06
3.12787e+06
598230
251137
248450
604727
3.26669e+06
2.79612e+06
544282
219074
133248
295459
2.30503e+06
2.47799e+06
1.07959e+06
498147
259089
478441
2.92084e+06
2.80818e+06
1.21787e+06
611842
326872
514064
2.85915e+06
2.73754e+06
1.23582e+06
618333
346116
531663
2.61523e+06
2.48009e+06
1.06991e+06
568277
335068
478605
2.36125e+06
2.17223e+06
1.01276e+06
525340
300506
472394
1.85606e+06
1.57029e+06
540151
311485
579683
1.18562e+06
2.73823e+06
2.21204e+06
515025
326900
325116
534630
1.79847e+06
3.22765e+06
1.34141e+06
619175
356858
434710
2.6231e+06
2.32916e+06
1.02786e+06
523249
293537
458603
1.87246e+06
1.51819e+06
490847
296126
522962
1.06859e+06
2.54817e+06
1.91918e+06
451561
296323
294836
472419
1.55804e+06
2.73701e+06
1.12866e+06
526805
295116
464564
2.00589e+06
1.54524e+06
477585
291438
513980
1.0743e+06
2.60619e+06
1.94098e+06
440539
286785
284422
465084
1.54518e+06
2.63207e+06
1.06274e+06
508215
282308
438167
1.89987e+06
1.50649e+06
461332
279012
495917
1.03765e+06
2.59506e+06
1.85079e+06
423550
273139
271075
447346
1.46621e+06
2.50009e+06
1.0086e+06
480364
264567
402393
1.71879e+06
1.26484e+06
442165
260170
275214
522732
1.80606e+06
3.19764e+06
1.22395e+06
549652
287890
475534
2.23762e+06
1.67237e+06
479078
280351
515073
1.10629e+06
2.86108e+06
2.10462e+06
444510
275388
271822
466838
1.63842e+06
2.81113e+06
1.08951e+06
501847
270533
429454
2.02409e+06
1.5895e+06
460647
269824
501149
1.10237e+06
2.84275e+06
2.02996e+06
437705
268491
264394
451018
1.562e+06
2.71355e+06
1.06885e+06
491806
265155
427266
1.95293e+06
1.52373e+06
449511
263216
492485
1.05722e+06
2.6881e+06
1.95141e+06
424730
262498
260477
442497
1.52518e+06
2.68039e+06
1.05714e+06
490111
261483
423379
1.90911e+06
1.48992e+06
450763
260475
479001
1.02854e+06
2.59459e+06
1.85947e+06
411673
256929
254318
444723
1.48266e+06
2.61114e+06
1.00557e+06
478655
256602
410912
1.86126e+06
1.4893e+06
446415
257233
480892
1.02378e+06
2.59897e+06
1.87333e+06
414666
256382
254908
438051
1.48693e+06
2.57871e+06
1.00958e+06
476694
254795
410087
1.8378e+06
1.45184e+06
441997
255051
477485
1.01425e+06
2.52274e+06
1.84162e+06
410072
255335
256399
442810
1.45198e+06
2.52806e+06
1.00418e+06
476391
254435
410473
1.8335e+06
1.47285e+06
444000
255921
487021
1.04719e+06
2.63702e+06
1.90113e+06
424550
257552
257129
444030
1.47556e+06
2.58224e+06
1.03482e+06
489940
260349
424258
1.89945e+06
1.50719e+06
465806
262525
496195
1.04368e+06
2.68655e+06
1.93554e+06
426800
262252
262041
454539
1.52214e+06
2.65061e+06
1.05074e+06
495275
264247
431289
1.95551e+06
1.57243e+06
472476
264645
516235
1.08737e+06
2.81232e+06
1.98233e+06
442003
272428
274725
495629
1.58048e+06
2.96397e+06
1.2046e+06
544883
307474
370678
2.43854e+06
2.2068e+06
947008
472170
251389
405695
1.66247e+06
1.39762e+06
457420
256599
482151
1.00985e+06
2.5478e+06
1.84941e+06
417798
261739
264148
465753
1.51555e+06
2.74439e+06
1.07679e+06
504049
269161
446301
1.95568e+06
1.5489e+06
482992
269265
517277
1.08733e+06
2.79682e+06
2.0416e+06
452076
274730
275575
489699
1.63434e+06
3.06538e+06
1.22242e+06
561017
308442
388586
2.44342e+06
2.13828e+06
933048
471628
252432
407803
1.63876e+06
1.36586e+06
453360
258536
485744
1.01404e+06
2.44278e+06
1.86346e+06
426710
263871
265007
464605
1.52871e+06
2.77263e+06
1.0888e+06
516512
277029
445413
2.02225e+06
1.65085e+06
502862
281696
566873
1.22312e+06
3.10949e+06
2.46773e+06
385568
318601
491972
975713
2.24006e+06
1.70755e+06
421939
264656
271883
482202
1.44289e+06
2.73166e+06
1.10704e+06
523143
285108
457476
1.99547e+06
1.62472e+06
511599
288527
579221
1.23273e+06
3.11613e+06
2.50689e+06
392862
327533
497637
975873
2.25155e+06
1.72412e+06
429077
267070
272975
479264
1.45092e+06
2.6974e+06
1.09228e+06
523205
285077
459534
2.02674e+06
1.6385e+06
509228
289473
587415
1.25182e+06
3.07597e+06
2.47782e+06
413721
325929
499802
981755
2.23407e+06
1.79242e+06
429841
273114
280696
489105
1.52754e+06
2.95788e+06
1.23202e+06
564109
326668
386856
2.38789e+06
2.14923e+06
961145
495798
270206
434034
1.72616e+06
1.47051e+06
491325
280554
557032
1.17237e+06
2.82099e+06
2.33358e+06
394265
319234
482298
936641
2.11953e+06
1.61065e+06
421516
266871
275838
482783
1.37123e+06
2.62736e+06
1.08512e+06
523502
290157
462923
2.02909e+06
1.66706e+06
519964
293995
596655
1.27629e+06
3.13381e+06
2.54618e+06
416323
336692
511982
1.01453e+06
2.31257e+06
1.80907e+06
451805
281207
289134
508891
1.54566e+06
2.96098e+06
1.24773e+06
577517
337679
402098
2.45922e+06
2.23144e+06
989773
512410
283576
451177
1.76506e+06
1.52965e+06
517773
294334
578745
1.27544e+06
3.01308e+06
2.54944e+06
412840
335341
513040
1.00123e+06
2.31399e+06
1.82185e+06
455492
284908
293676
512294
1.56004e+06
2.99009e+06
1.25681e+06
588593
347789
406032
2.46573e+06
2.27382e+06
994159
525521
291353
464019
1.82618e+06
1.58552e+06
535404
302211
602442
1.25766e+06
3.0777e+06
2.52464e+06
431211
347345
527181
1.02262e+06
2.31911e+06
1.82115e+06
458003
293679
304035
520647
1.55395e+06
3.01294e+06
1.2738e+06
606934
366077
406712
2.55907e+06
2.42523e+06
1.04892e+06
558200
322481
415335
2.09874e+06
2.0026e+06
942842
493954
283351
449139
1.63341e+06
1.44753e+06
527112
297299
586706
1.23659e+06
2.86921e+06
2.37208e+06
411594
350091
526990
990938
2.20222e+06
1.76032e+06
461221
295013
307735
531656
1.51687e+06
2.92221e+06
1.26328e+06
596770
364062
413496
2.52691e+06
2.39667e+06
1.02914e+06
550129
323830
423820
2.08275e+06
1.98079e+06
923823
492445
285624
454785
1.68463e+06
1.50675e+06
526119
298991
588762
1.23743e+06
2.87068e+06
2.44619e+06
424534
348870
523574
999623
2.28836e+06
1.80171e+06
462050
297102
307411
537236
1.58633e+06
3.09197e+06
1.28748e+06
610265
367180
426778
2.5494e+06
2.44642e+06
1.07139e+06
561758
330281
419655
2.15478e+06
2.05349e+06
947697
503475
293062
461865
1.67391e+06
1.49271e+06
540591
308350
605721
1.25584e+06
2.93619e+06
2.44103e+06
431610
357225
541583
1.03837e+06
2.29747e+06
1.84991e+06
482940
309304
320931
564544
1.61873e+06
3.12052e+06
1.34006e+06
631745
384331
437277
2.61623e+06
2.55154e+06
1.11033e+06
585354
346537
452576
2.19656e+06
2.09686e+06
1.00179e+06
526098
306381
494371
1.78992e+06
1.58981e+06
570727
322812
649590
1.34981e+06
3.14906e+06
2.71483e+06
457411
386811
578000
1.09348e+06
2.53431e+06
2.2364e+06
442966
347003
525996
997222
2.17748e+06
1.79338e+06
491057
309448
322987
560813
1.58864e+06
3.07941e+06
1.34597e+06
641923
395690
445215
2.68608e+06
2.57293e+06
1.09451e+06
590528
352215
453146
2.25353e+06
2.23285e+06
1.0219e+06
540685
332831
433596
2.03105e+06
1.99435e+06
944019
504461
300508
472507
1.65638e+06
1.48965e+06
553458
318971
623426
1.29774e+06
2.95052e+06
2.55739e+06
436142
388884
581018
1.08537e+06
2.4893e+06
2.19806e+06
452025
348398
526276
982275
2.09089e+06
1.73156e+06
486265
310494
327206
565383
1.55273e+06
3.12685e+06
1.35823e+06
650335
392283
461924
2.63919e+06
2.47384e+06
1.09233e+06
590157
354714
454288
2.21119e+06
2.13213e+06
989675
536225
319190
494127
1.73775e+06
1.55823e+06
578642
336879
669402
1.3825e+06
3.13576e+06
2.74748e+06
468835
410161
618015
1.15866e+06
2.63812e+06
2.34606e+06
472599
373899
569521
1.06635e+06
2.32861e+06
2.10747e+06
460095
353649
528941
982435
2.04817e+06
1.69089e+06
494295
318213
333917
576377
1.53275e+06
3.00472e+06
1.33896e+06
652012
405141
461492
2.58317e+06
2.53036e+06
1.10538e+06
606599
367545
469148
2.2493e+06
2.22967e+06
1.03578e+06
559807
348999
453836
2.06495e+06
2.02968e+06
974577
522803
313810
489982
1.68013e+06
1.54255e+06
583111
335287
665984
1.36157e+06
3.14236e+06
2.62685e+06
478757
404705
605300
1.10635e+06
2.49939e+06
2.19643e+06
459830
369887
557644
1.0361e+06
2.1794e+06
1.82453e+06
521557
331569
349721
605966
1.62313e+06
3.24675e+06
1.41942e+06
689696
421913
485206
2.75133e+06
2.64719e+06
1.16657e+06
634776
385466
498444
2.38727e+06
2.36817e+06
1.09699e+06
587414
369715
479246
2.17844e+06
2.20276e+06
1.0374e+06
561334
355861
461620
2.01141e+06
1.99109e+06
971003
530089
322676
499529
1.69105e+06
1.56028e+06
588952
344269
682021
1.41403e+06
3.14032e+06
2.70101e+06
482222
423577
628989
1.14028e+06
2.58043e+06
2.29236e+06
489589
386152
580835
1.07901e+06
2.2985e+06
2.09376e+06
476344
367754
548931
1.00861e+06
2.06102e+06
1.7597e+06
517727
332410
351291
595910
1.58714e+06
3.06912e+06
1.40762e+06
683982
428984
484311
2.67979e+06
2.62727e+06
1.166e+06
641418
390630
503207
2.33709e+06
2.29306e+06
1.07329e+06
588485
370282
473335
2.10903e+06
2.10877e+06
1.0169e+06
555365
337727
523113
1.75977e+06
1.60927e+06
614820
359858
708952
1.43114e+06
3.20723e+06
2.75402e+06
506151
438820
652141
1.19096e+06
2.67918e+06
2.41967e+06
508219
402746
612542
1.13833e+06
2.44969e+06
2.26665e+06
503099
389838
589200
1.09211e+06
2.29414e+06
2.12934e+06
487902
377039
562026
1.02432e+06
2.10703e+06
1.75352e+06
529368
342606
361537
613156
1.58925e+06
3.11829e+06
1.4226e+06
699193
430972
509466
2.72012e+06
2.64397e+06
1.16853e+06
643025
397666
501469
2.34965e+06
2.36198e+06
1.10781e+06
602811
383104
493728
2.18635e+06
2.19247e+06
1.0616e+06
579096
350780
553042
1.87932e+06
1.69385e+06
643983
374266
737764
1.53625e+06
3.3349e+06
2.91855e+06
526294
460741
685358
1.26547e+06
2.83061e+06
2.50898e+06
544139
423013
636346
1.17139e+06
2.49172e+06
2.29505e+06
518572
405850
610148
1.12212e+06
2.3522e+06
2.18572e+06
505364
391602
582765
1.06359e+06
2.16911e+06
1.82781e+06
551566
357173
377653
638648
1.67002e+06
3.29382e+06
1.51369e+06
734410
454097
532338
2.82271e+06
2.71857e+06
1.23079e+06
676741
418036
530657
2.44798e+06
2.46967e+06
1.15435e+06
630696
402619
518164
2.28296e+06
2.34268e+06
1.11836e+06
610113
392417
508373
2.15021e+06
2.14243e+06
1.05617e+06
586887
360720
560308
1.86309e+06
1.72137e+06
658539
383502
757219
1.52008e+06
3.45195e+06
2.94567e+06
538621
469886
698191
1.27323e+06
2.85834e+06
2.52787e+06
548555
433328
656137
1.20378e+06
2.54658e+06
2.35059e+06
537935
419230
629344
1.15095e+06
2.38612e+06
2.21092e+06
520616
404577
598995
1.07901e+06
2.19963e+06
1.85539e+06
567246
368026
388342
654977
1.69788e+06
3.31018e+06
1.49008e+06
749441
468412
532059
2.83606e+06
2.80005e+06
1.25237e+06
696722
431758
550785
2.51581e+06
2.51764e+06
1.19696e+06
650996
416555
537612
2.31727e+06
2.37891e+06
1.13907e+06
628440
407423
524318
2.21591e+06
2.2598e+06
1.09502e+06
608248
395571
506226
2.06784e+06
2.07964e+06
1.04173e+06
586597
362752
558138
1.79318e+06
1.64456e+06
651452
387531
747596
1.5e+06
3.22195e+06
2.81584e+06
541676
472549
697448
1.23137e+06
2.76119e+06
2.48979e+06
545110
436539
656591
1.20479e+06
2.54305e+06
2.3101e+06
546954
424077
634990
1.15338e+06
2.34544e+06
2.17243e+06
530890
412157
609445
1.0892e+06
2.16334e+06
1.82923e+06
577093
376246
396754
662354
1.66827e+06
3.24067e+06
1.49797e+06
755493
477878
547713
2.8208e+06
2.79446e+06
1.27326e+06
709818
441619
556155
2.51689e+06
2.54568e+06
1.20997e+06
664917
427560
552810
2.31064e+06
2.34619e+06
1.15762e+06
639260
414464
535663
2.1429e+06
2.1345e+06
1.0872e+06
611317
378607
580381
1.84056e+06
1.68993e+06
675669
404280
774065
1.53598e+06
3.30279e+06
2.88839e+06
558996
488323
724608
1.30136e+06
2.86854e+06
2.54021e+06
578369
455539
683241
1.24314e+06
2.56231e+06
2.40348e+06
571312
442720
660101
1.19155e+06
2.44735e+06
2.26175e+06
550954
430104
633684
1.12668e+06
2.25886e+06
1.87776e+06
598597
393491
414302
687454
1.71233e+06
3.3225e+06
1.53847e+06
786529
496025
565952
2.89175e+06
2.8722e+06
1.30819e+06
735941
459221
578159
2.5786e+06
2.61057e+06
1.25322e+06
692166
446134
577415
2.39911e+06
2.42843e+06
1.18175e+06
664372
434274
551776
2.24829e+06
2.32889e+06
1.14283e+06
643748
423359
543415
2.16432e+06
2.17837e+06
1.09066e+06
623148
390132
593687
1.85852e+06
1.7369e+06
695447
414369
790561
1.5803e+06
3.3934e+06
2.9037e+06
581961
500369
734640
1.30469e+06
2.85343e+06
2.55594e+06
585810
465068
688988
1.24137e+06
2.59251e+06
2.34115e+06
573880
449705
670129
1.19222e+06
2.40883e+06
2.22624e+06
562479
437907
642001
1.12998e+06
2.22466e+06
1.87537e+06
607543
399930
422105
695715
1.71555e+06
3.3103e+06
1.56665e+06
797737
503182
584294
2.8809e+06
2.8687e+06
1.3233e+06
744753
467639
592046
2.53263e+06
2.54115e+06
1.24183e+06
695910
452060
574313
2.36559e+06
2.44825e+06
1.20152e+06
674884
441650
567759
2.2362e+06
2.24847e+06
1.14548e+06
652481
406318
619896
1.92153e+06
1.7637e+06
717005
431787
817826
1.61357e+06
3.38087e+06
2.99418e+06
608817
513875
755736
1.34293e+06
2.95567e+06
2.56649e+06
598178
481677
716969
1.28397e+06
2.62356e+06
2.43611e+06
598345
467987
695095
1.23329e+06
2.4916e+06
2.2594e+06
580805
454155
661455
1.15869e+06
2.26017e+06
1.89774e+06
625906
413736
437405
722933
1.75622e+06
3.45169e+06
1.62926e+06
829168
519881
611426
2.94307e+06
2.87262e+06
1.33162e+06
758886
480045
603278
2.53243e+06
2.57323e+06
1.25962e+06
711098
464052
595552
2.36349e+06
2.42293e+06
1.20707e+06
685775
451398
579291
2.24035e+06
2.25645e+06
1.13994e+06
659238
414143
628333
1.92364e+06
1.78795e+06
725003
440039
842662
1.66336e+06
3.45581e+06
2.99854e+06
632853
528600
775784
1.36101e+06
2.9235e+06
2.57519e+06
616074
494062
729905
1.28471e+06
2.61114e+06
2.37555e+06
601759
475055
695071
1.22042e+06
2.39663e+06
2.01285e+06
658664
432317
455864
749868
1.8401e+06
3.5415e+06
1.67394e+06
860426
541958
633703
3.07459e+06
3.00742e+06
1.38397e+06
792881
501222
620021
2.6361e+06
2.71007e+06
1.32207e+06
746368
485890
619456
2.47279e+06
2.53423e+06
1.26662e+06
720482
472444
604901
2.29152e+06
2.30131e+06
1.19511e+06
688551
431289
650737
1.94883e+06
1.79799e+06
748703
458557
865585
1.68181e+06
3.49015e+06
3.03631e+06
634902
547790
806380
1.40309e+06
3.01048e+06
2.64914e+06
646783
512881
755575
1.33183e+06
2.6616e+06
2.41901e+06
632061
492939
714569
1.23808e+06
2.41971e+06
2.02527e+06
673537
449146
472920
768725
1.87019e+06
3.57791e+06
1.71638e+06
883904
555839
653602
3.04723e+06
3.01408e+06
1.42946e+06
815695
517121
651946
2.69163e+06
2.71746e+06
1.33304e+06
761100
497975
634143
2.47822e+06
2.5681e+06
1.28307e+06
733829
484562
623852
2.32972e+06
2.33068e+06