/*--------------------------------*- C++ -*----------------------------------*\
| =========                 |                                                 |
| \\      /  F ield         | OpenFOAM: The Open Source CFD Toolbox           |
|  \\    /   O peration     | Version:  v2006                                 |
|   \\  /    A nd           | Website:  www.openfoam.com                      |
|    \\/     M anipulation  |                                                 |
\*---------------------------------------------------------------------------*/
FoamFile
{
    version     2.0;
    format      ascii;
    class       volVectorField;
    location    "0.044";
    object      U;
}
// * * * * * * * * * * * * * * * * * * * * * * * * * * * * * * * * * * * * * //

dimensions      [0 1 -1 0 0 0 0];


internalField   nonuniform List<vector> 
41981
(
(56.0366 -0.0085001 4.92265e-19)
(56.0361 0.0108037 3.73182e-19)
(56.0358 -0.00939427 8.79359e-20)
(56.0364 0.00367282 -5.04219e-19)
(56.0366 -0.00137592 2.44151e-19)
(56.0379 -0.000204389 0)
(56.039 -0.000831844 4.05213e-21)
(56.0403 -0.000391558 -2.53283e-21)
(56.0414 -0.000763394 7.31377e-21)
(56.042 -0.00044815 -1.54161e-20)
(56.0411 -0.000880731 -3.13637e-21)
(56.0356 -0.00141465 6.99657e-21)
(56.0216 -0.00295563 -8.98822e-23)
(55.997 -0.00521305 0)
(55.9622 -0.00797582 0)
(55.9198 -0.0108605 0)
(55.873 -0.0135848 0)
(55.8245 -0.0159812 0)
(55.776 -0.0180171 0)
(55.7281 -0.019755 0)
(55.6808 -0.0212729 0)
(55.6339 -0.0226396 0)
(55.5868 -0.0239059 0)
(55.5392 -0.0251043 0)
(55.4906 -0.0262525 0)
(55.441 -0.0273579 0)
(55.3901 -0.0284223 0)
(55.3379 -0.0294449 0)
(55.2844 -0.0304255 0)
(55.2297 -0.0313649 0)
(55.1737 -0.0322659 0)
(55.1166 -0.0331326 0)
(55.0582 -0.0339697 0)
(54.9987 -0.0347823 0)
(54.938 -0.035575 0)
(54.8762 -0.0363518 0)
(54.8131 -0.0371161 0)
(54.7489 -0.0378706 0)
(54.6835 -0.0386173 0)
(54.6169 -0.0393582 -9.60649e-23)
(54.5491 -0.0400938 0)
(54.4802 -0.0408227 0)
(54.4101 -0.0415452 0)
(54.3389 -0.0422619 0)
(54.2665 -0.0429731 0)
(54.193 -0.0436785 0)
(54.1183 -0.0443779 0)
(54.0426 -0.0450707 9.88685e-23)
(53.9658 -0.0457564 0)
(53.8878 -0.0464343 0)
(53.8089 -0.0471037 0)
(53.7289 -0.0477639 0)
(53.6479 -0.0484142 0)
(53.5658 -0.0490536 0)
(53.4828 -0.0496815 0)
(53.3989 -0.0502971 0)
(53.314 -0.0508995 0)
(53.2282 -0.0514882 0)
(53.1416 -0.0520622 0)
(53.054 -0.052621 0)
(52.9657 -0.0531638 0)
(52.8765 -0.0536901 0)
(52.7866 -0.0541991 0)
(52.6959 -0.0546904 0)
(52.6045 -0.0551633 0)
(52.5125 -0.0556172 0)
(52.4197 -0.0560517 0)
(52.3264 -0.0564663 0)
(52.2324 -0.0568606 0)
(52.1379 -0.057234 0)
(52.0429 -0.057586 0)
(51.9474 -0.0579163 0)
(51.8514 -0.0582247 0)
(51.7549 -0.0585107 0)
(51.6581 -0.0587737 0)
(51.561 -0.0590135 0)
(51.4635 -0.05923 0)
(51.3657 -0.0594227 0)
(51.2677 -0.0595913 0)
(51.1694 -0.0597356 0)
(51.071 -0.0598553 0)
(50.9724 -0.0599501 0)
(50.8738 -0.0600198 0)
(50.775 -0.0600643 0)
(50.6763 -0.0600833 0)
(50.5775 -0.0600767 0)
(50.4788 -0.0600443 0)
(50.3802 -0.0599861 0)
(50.2817 -0.059902 0)
(50.1834 -0.0597922 0)
(50.0853 -0.0596553 0)
(49.9874 -0.0594897 0)
(49.8898 -0.0592967 0)
(49.7926 -0.0590801 0)
(49.6956 -0.0588388 0)
(49.5991 -0.0585703 0)
(49.5031 -0.058275 0)
(49.4075 -0.0579533 0)
(49.3124 -0.0576055 -2.1039e-22)
(49.2179 -0.0572316 0)
(49.124 -0.0568317 0)
(49.0308 -0.0564062 0)
(48.9382 -0.0559553 0)
(48.8463 -0.0554792 0)
(48.7551 -0.0549784 0)
(48.6648 -0.0544531 0)
(48.5753 -0.0539036 0)
(48.4866 -0.0533303 0)
(48.3989 -0.0527339 0)
(48.3121 -0.0521146 0)
(48.2262 -0.0514728 0)
(48.1414 -0.0508091 0)
(48.0576 -0.0501237 0)
(47.9749 -0.0494173 0)
(47.8932 -0.0486902 0)
(47.8128 -0.0479425 0)
(47.7334 -0.0471746 0)
(47.6553 -0.0463865 0)
(47.5784 -0.045578 0)
(47.5028 -0.0447484 0)
(47.4284 -0.0438967 0)
(47.3553 -0.0430208 0)
(47.2834 -0.0421179 0)
(47.213 -0.0411841 0)
(47.1438 -0.0402146 0)
(47.0761 -0.0392045 0)
(47.0098 -0.0381493 0)
(46.945 -0.0370463 0)
(46.8818 -0.035896 0)
(46.8202 -0.0347021 0)
(46.7603 -0.0334703 0)
(46.7019 -0.0322047 0)
(46.6449 -0.0309042 -1.95891e-22)
(46.5886 -0.0295494 0)
(46.5324 -0.0280758 0)
(46.4755 -0.0263801 0)
(46.4171 -0.024318 0)
(46.3572 -0.02171 0)
(46.2974 -0.0184328 0)
(46.2416 -0.0146076 0)
(46.1966 -0.0107987 0)
(46.1693 -0.00782689 0)
(46.1618 -0.00616237 0)
(46.1689 -0.00566403 0)
(46.1821 -0.00564085 -6.34132e-23)
(46.1965 -0.00565654 -2.75527e-23)
(46.2108 -0.005651 0)
(46.2249 -0.00564103 -5.73307e-22)
(46.2381 -0.00565653 0)
(46.2491 -0.00588321 6.07914e-19)
(46.2549 -0.00658295 1.52478e-18)
(46.2519 -0.00848967 -4.56747e-18)
(46.2358 -0.0123121 0)
(46.2011 -0.0148864 0)
(46.1557 -0.011171 3.30476e-19)
(46.0882 -0.0260046 0)
(45.9755 -0.0473843 3.75471e-18)
(45.8264 -0.0748122 0)
(45.6109 -0.0977137 0)
(45.3641 -0.106224 -1.96639e-18)
(44.4121 -0.138623 2.46909e-18)
(43.7356 -0.129165 -4.67055e-18)
(45.3424 -0.166078 3.8789e-18)
(45.6561 -0.155162 0)
(45.6577 -0.184219 5.69468e-18)
(45.2148 -0.194284 -5.02541e-19)
(42.938 -0.12892 0)
(42.1296 -0.119021 0)
(45.089 -0.194707 1.34802e-18)
(45.6655 -0.187576 7.44945e-19)
(45.6416 -0.176267 0)
(44.9238 -0.176761 -9.05568e-19)
(41.386 -0.102353 0)
(40.7176 -0.0866269 1.29764e-19)
(44.7651 -0.155384 2.13898e-19)
(45.621 -0.16319 1.77527e-19)
(45.5569 -0.148264 -1.6084e-18)
(44.5645 -0.138538 1.51423e-18)
(40.0939 -0.0742224 -9.89071e-20)
(39.5714 -0.0635288 1.00891e-18)
(44.4184 -0.126404 -1.73071e-18)
(45.5152 -0.141859 -7.11605e-19)
(45.4419 -0.13012 -1.12068e-20)
(44.2141 -0.112402 8.69348e-19)
(39.0862 -0.0557448 -1.04707e-18)
(38.6565 -0.0494186 0)
(44.054 -0.100095 0)
(45.3823 -0.120144 -1.43116e-18)
(45.291 -0.11444 -1.43977e-18)
(43.8856 -0.0952798 1.74721e-18)
(38.2588 -0.0461862 0)
(37.9176 -0.0391745 0)
(43.737 -0.0850538 -6.07568e-26)
(45.2307 -0.108199 1.4068e-21)
(45.1316 -0.103477 -2.18765e-26)
(43.5717 -0.0819289 -3.4091e-21)
(37.5904 -0.0378885 0)
(37.3007 -0.0332061 0)
(43.4305 -0.0746292 0)
(45.0682 -0.099544 -1.40835e-21)
(44.964 -0.0967796 0)
(43.2689 -0.0741169 0)
(37.0071 -0.0345214 0)
(36.7435 -0.0304313 0)
(43.1347 -0.0681026 0)
(44.9004 -0.0940618 0)
(44.7932 -0.0914593 2.88802e-18)
(42.9766 -0.0680699 -1.74705e-18)
(36.4751 -0.0319905 0)
(36.2336 -0.0278907 0)
(42.8482 -0.0627424 0)
(44.7301 -0.0892307 0)
(44.6205 -0.0868846 2.88969e-18)
(42.6932 -0.0631473 -1.7477e-18)
(35.9857 -0.0295589 0)
(35.7625 -0.0256935 0)
(42.5702 -0.058432 0)
(44.5584 -0.0850386 0)
(44.4472 -0.0829673 0)
(42.4184 -0.0591924 0)
(35.531 -0.0274498 0)
(35.3228 -0.0236219 0)
(42.3003 -0.0547859 -1.74848e-18)
(44.3865 -0.0813682 -2.14033e-24)
(44.2742 -0.0795823 0)
(42.1513 -0.0559168 0)
(35.1055 -0.0256106 0)
(34.9106 -0.0217885 0)
(42.0383 -0.0516159 0)
(44.2154 -0.0781064 0)
(44.1022 -0.0769144 0)
(41.8918 -0.053399 0)
(34.7055 -0.0241262 0)
(34.522 -0.0201701 0)
(41.7834 -0.0489466 -1.74955e-18)
(44.0452 -0.0753152 -2.11204e-24)
(43.931 -0.0744789 0)
(41.6389 -0.0512287 0)
(34.3274 -0.022904 0)
(34.1535 -0.0188164 0)
(41.5345 -0.0466134 0)
(43.8755 -0.0727697 0)
(43.7605 -0.072194 2.89605e-18)
(41.392 -0.0491768 -1.75032e-18)
(33.9679 -0.0217444 0)
(33.8024 -0.0175811 0)
(41.2912 -0.044485 0)
(43.7064 -0.0704381 0)
(43.5905 -0.0701133 0)
(41.1504 -0.0473214 0)
(33.6249 -0.020695 0)
(33.4668 -0.0163399 0)
(41.053 -0.0424177 0)
(43.5378 -0.0682125 0)
(43.421 -0.0681358 2.89802e-18)
(40.9137 -0.0455133 -1.75118e-18)
(33.2964 -0.0196126 0)
(33.145 -0.0155003 0)
(40.8192 -0.0407721 0)
(43.3695 -0.0662265 0)
(43.2521 -0.0663225 0)
(40.6813 -0.043947 0)
(32.981 -0.0188162 0)
(32.8357 -0.0146612 0)
(40.5896 -0.0393052 0)
(43.2018 -0.0645141 0)
(43.0836 -0.0647444 0)
(40.4529 -0.0426141 0)
(32.6775 -0.0180853 0)
(32.5375 -0.0138632 0)
(40.3638 -0.0379685 0)
(43.0344 -0.0630885 0)
(42.9154 -0.0634434 -2.90055e-18)
(40.2281 -0.0414579 1.75232e-18)
(32.3845 -0.0174324 0)
(32.2494 -0.0131132 0)
(40.1414 -0.0366832 0)
(42.8672 -0.0617026 0)
(42.7474 -0.0622348 0)
(40.0067 -0.0403866 0)
(32.1012 -0.0168394 0)
(31.9707 -0.0124328 0)
(39.9221 -0.0355062 0)
(42.7001 -0.060428 0)
(42.5795 -0.0611461 0)
(39.7884 -0.0394209 0)
(31.8269 -0.0163115 0)
(31.7004 -0.0118131 0)
(39.7058 -0.0344332 0)
(42.5331 -0.0592794 0)
(42.4117 -0.060179 0)
(39.5727 -0.038554 0)
(31.5606 -0.0158406 0)
(31.4378 -0.0112533 0)
(39.4919 -0.0334602 0)
(42.366 -0.0582514 0)
(42.2438 -0.0593267 -2.90339e-18)
(39.3595 -0.0377817 1.75364e-18)
(31.3016 -0.0154263 0)
(31.1821 -0.0107484 0)
(39.2803 -0.0325839 0)
(42.1987 -0.0573379 0)
(42.0757 -0.0585957 0)
(39.1484 -0.0371303 0)
(31.049 -0.0150932 0)
(30.9326 -0.0102569 0)
(39.0707 -0.0317538 0)
(42.0312 -0.0565057 0)
(41.9073 -0.0579614 0)
(38.9391 -0.0365546 0)
(30.8024 -0.014799 0)
(30.6886 -0.00979663 0)
(38.8628 -0.0309926 0)
(41.8633 -0.0557651 0)
(41.7385 -0.0574317 0)
(38.7314 -0.0360546 0)
(30.5609 -0.0145415 0)
(30.4495 -0.00937487 0)
(38.6563 -0.0303035 0)
(41.6948 -0.0551126 0)
(41.5692 -0.0569596 -2.90584e-18)
(38.5251 -0.0356093 1.75481e-18)
(30.3242 -0.0143161 0)
(30.2149 -0.00898229 0)
(38.451 -0.0296673 0)
(41.5258 -0.0545222 0)
(41.3992 -0.0565491 0)
(38.3199 -0.0352141 0)
(30.0917 -0.0141173 0)
(29.9844 -0.00862109 0)
(38.2467 -0.0290876 0)
(41.3561 -0.0539994 0)
(41.2286 -0.0562033 0)
(38.1157 -0.0348692 0)
(29.863 -0.0139457 0)
(29.7575 -0.00828663 0)
(38.0434 -0.0285585 0)
(41.1857 -0.0535423 0)
(41.0573 -0.0559215 0)
(37.9123 -0.0345715 0)
(29.6378 -0.0137984 0)
(29.5339 -0.00797735 0)
(37.8408 -0.0280783 0)
(41.0145 -0.0531511 0)
(40.885 -0.0557042 -2.90803e-18)
(37.7095 -0.0343199 1.75589e-18)
(29.4156 -0.0136741 0)
(29.3131 -0.00769145 0)
(37.6386 -0.0276458 0)
(40.8423 -0.0528263 0)
(40.7118 -0.0555526 0)
(37.5072 -0.0341136 0)
(29.1962 -0.0135714 0)
(29.0949 -0.007428 0)
(37.4367 -0.027261 0)
(40.6689 -0.0525705 0)
(40.5374 -0.055475 0)
(37.305 -0.0339551 0)
(28.9791 -0.0134859 0)
(28.8789 -0.00719015 0)
(37.2349 -0.026924 0)
(40.4944 -0.0523802 0)
(40.3617 -0.0554845 0)
(37.1029 -0.0338457 0)
(28.7641 -0.0134014 0)
(28.6648 -0.00698907 0)
(37.033 -0.0266243 0)
(40.3184 -0.0522212 0)
(40.1846 -0.0555366 0)
(36.9006 -0.0337683 0)
(28.5508 -0.0133394 0)
(28.4522 -0.00680927 0)
(36.8308 -0.0263646 0)
(40.141 -0.0521263 0)
(40.0059 -0.0556559 0)
(36.6979 -0.0337326 0)
(28.3389 -0.013297 0)
(28.2409 -0.00664939 0)
(36.6281 -0.026146 0)
(39.962 -0.0520939 0)
(39.8256 -0.0558364 0)
(36.4946 -0.0337365 0)
(28.1281 -0.0132722 0)
(28.0305 -0.00650786 0)
(36.4246 -0.0259669 0)
(39.7811 -0.0521216 0)
(39.6435 -0.0560764 0)
(36.2905 -0.0337788 0)
(27.9181 -0.0132639 0)
(27.8208 -0.00638378 0)
(36.2203 -0.0258261 0)
(39.5984 -0.0522077 0)
(39.4594 -0.0563745 0)
(36.0854 -0.0338585 0)
(27.7086 -0.0132715 0)
(27.6115 -0.00627601 0)
(36.0149 -0.0257219 0)
(39.4137 -0.0523505 0)
(39.2732 -0.0567294 0)
(35.8791 -0.0339743 0)
(27.4993 -0.0132941 0)
(27.4023 -0.0061837 0)
(35.8081 -0.025653 0)
(39.2267 -0.0525487 0)
(39.0848 -0.0571398 0)
(35.6714 -0.0341251 0)
(27.2901 -0.013331 0)
(27.1929 -0.00610599 0)
(35.5999 -0.0256178 0)
(39.0375 -0.0528009 0)
(38.894 -0.057605 0)
(35.4622 -0.0343098 0)
(27.0805 -0.0133816 0)
(26.9831 -0.00604221 0)
(35.39 -0.0256155 0)
(38.8458 -0.0531067 0)
(38.7007 -0.0581257 0)
(35.2513 -0.0345281 0)
(26.8704 -0.0134453 0)
(26.7727 -0.00599262 0)
(35.1783 -0.0256459 0)
(38.6515 -0.0534674 0)
(38.5048 -0.058701 0)
(35.0385 -0.0347491 0)
(26.6596 -0.013508 0)
(26.5615 -0.00596969 0)
(34.9645 -0.0257341 0)
(38.4545 -0.0538693 0)
(38.3061 -0.0593175 0)
(34.8235 -0.0350054 0)
(26.4479 -0.0135819 0)
(26.3491 -0.00595561 0)
(34.7486 -0.0258525 0)
(38.2546 -0.0543165 0)
(38.1045 -0.0599847 0)
(34.6063 -0.0352924 0)
(26.2349 -0.0136653 0)
(26.1355 -0.00595218 0)
(34.5302 -0.0260011 0)
(38.0517 -0.0548133 0)
(37.8997 -0.0607042 0)
(34.3866 -0.0356093 0)
(26.0205 -0.0137589 0)
(25.9204 -0.00596114 0)
(34.3093 -0.0261819 0)
(37.8456 -0.0553642 0)
(37.6918 -0.0614911 0)
(34.1642 -0.0359648 0)
(25.8046 -0.013889 0)
(25.7033 -0.0060102 0)
(34.0856 -0.0264119 0)
(37.6363 -0.0559812 0)
(37.4805 -0.0623464 0)
(33.9391 -0.0363708 0)
(25.5865 -0.0140639 0)
(25.4836 -0.00609947 0)
(33.8592 -0.0266911 0)
(37.4236 -0.056657 0)
(37.2658 -0.0632425 0)
(33.711 -0.0368141 0)
(25.3659 -0.0142374 0)
(25.2613 -0.00617753 0)
(33.6298 -0.0269887 0)
(37.2074 -0.0573672 0)
(37.0475 -0.064175 0)
(33.4799 -0.0372729 0)
(25.1427 -0.0144013 0)
(25.0364 -0.00624613 0)
(33.3972 -0.0272978 0)
(36.9876 -0.0581105 0)
(36.8256 -0.0651421 0)
(33.2455 -0.037743 0)
(24.9168 -0.014557 0)
(24.8089 -0.00630798 0)
(33.1612 -0.0276162 0)
(36.7639 -0.0588855 0)
(36.5997 -0.0661431 0)
(33.0077 -0.0382237 0)
(24.6884 -0.0147079 0)
(24.5787 -0.0063662 0)
(32.9217 -0.0279443 0)
(36.5363 -0.0596919 0)
(36.3697 -0.0671783 0)
(32.7662 -0.0387158 0)
(24.4572 -0.0148569 0)
(24.3459 -0.00642361 0)
(32.6785 -0.0282832 0)
(36.3045 -0.0605301 0)
(36.1356 -0.0682484 0)
(32.521 -0.0392207 0)
(24.2233 -0.0150066 0)
(24.1104 -0.00648249 0)
(32.4314 -0.0286344 0)
(36.0684 -0.0614009 0)
(35.8971 -0.0693543 0)
(32.272 -0.0397399 0)
(23.9867 -0.015159 0)
(23.8721 -0.00654409 0)
(32.1804 -0.0289991 0)
(35.8278 -0.0623051 0)
(35.6541 -0.0704969 0)
(32.0189 -0.0402744 0)
(23.7472 -0.015315 0)
(23.6309 -0.00660896 0)
(31.9253 -0.0293779 0)
(35.5827 -0.0632435 0)
(35.4065 -0.0716771 0)
(31.7616 -0.0408249 0)
(23.5047 -0.0154755 0)
(23.3867 -0.0066799 0)
(31.6659 -0.0297706 0)
(35.3329 -0.0642133 0)
(35.1542 -0.0728674 0)
(31.5001 -0.0413774 0)
(23.2591 -0.0156376 0)
(23.1394 -0.00676121 0)
(31.4021 -0.0301882 0)
(35.0783 -0.0652371 0)
(34.897 -0.074059 0)
(31.2342 -0.0419256 0)
(23.0104 -0.0157988 0)
(22.8889 -0.00685474 0)
(31.1339 -0.0306376 0)
(34.8187 -0.0663366 0)
(34.6348 -0.0753018 0)
(30.9639 -0.0424953 0)
(22.7585 -0.0159688 0)
(22.6352 -0.00695331 0)
(30.8611 -0.0310968 0)
(34.5541 -0.0674664 0)
(34.3676 -0.076572 0)
(30.6889 -0.0430753 0)
(22.5031 -0.0161436 0)
(22.378 -0.00705699 0)
(30.5836 -0.031566 0)
(34.2843 -0.0686245 0)
(34.0951 -0.0778711 0)
(30.4091 -0.0436671 0)
(22.2443 -0.0163233 0)
(22.1173 -0.00716701 0)
(30.3014 -0.0320491 0)
(34.0093 -0.0698163 0)
(33.8174 -0.0791994 0)
(30.1246 -0.0442719 0)
(21.9819 -0.0165091 0)
(21.8531 -0.00728032 0)
(30.0142 -0.0325375 0)
(33.7288 -0.0710257 0)
(33.5342 -0.0805423 0)
(29.8351 -0.0448815 0)
(21.7159 -0.0166974 0)
(21.5852 -0.00739574 0)
(29.7221 -0.0330279 0)
(33.4429 -0.0722483 0)
(33.2456 -0.0818969 0)
(29.5407 -0.0454941 0)
(21.4462 -0.0168877 0)
(21.3138 -0.00751208 0)
(29.425 -0.0335164 0)
(33.1516 -0.0734777 0)
(32.9515 -0.0832557 0)
(29.2414 -0.046105 0)
(21.1728 -0.0170785 0)
(21.0386 -0.00762801 0)
(29.1229 -0.0339983 0)
(32.8547 -0.0747064 0)
(32.6519 -0.0846115 0)
(28.937 -0.0467102 0)
(20.8959 -0.0172686 0)
(20.76 -0.00774223 0)
(28.8159 -0.0344694 0)
(32.5523 -0.0759268 0)
(32.3469 -0.0859562 0)
(28.6278 -0.0473051 0)
(20.6154 -0.0174564 0)
(20.4778 -0.00785334 0)
(28.504 -0.0349247 0)
(32.2445 -0.0771304 0)
(32.0364 -0.0872811 0)
(28.3138 -0.0478849 0)
(20.3314 -0.0176404 0)
(20.1922 -0.00795976 0)
(28.1873 -0.0353589 0)
(31.9312 -0.0783077 0)
(31.7206 -0.0885758 0)
(27.995 -0.048444 0)
(20.044 -0.0178188 0)
(19.9033 -0.00805978 0)
(27.8659 -0.0357662 0)
(31.6126 -0.0794475 0)
(31.3995 -0.0898284 0)
(27.6716 -0.0489758 0)
(19.7534 -0.0179894 0)
(19.6114 -0.00815064 0)
(27.5401 -0.0361391 0)
(31.2889 -0.0805364 0)
(31.0734 -0.091024 0)
(27.3439 -0.049472 0)
(19.4599 -0.0181492 0)
(19.3167 -0.00823011 0)
(27.21 -0.0364696 0)
(30.9602 -0.0815592 0)
(30.7425 -0.0921468 0)
(27.0121 -0.0499244 0)
(19.1637 -0.0182959 0)
(19.0195 -0.00829689 0)
(26.8759 -0.0367502 0)
(30.6268 -0.0824995 0)
(30.4069 -0.0931798 0)
(26.6764 -0.0503247 0)
(18.865 -0.0184276 0)
(18.72 -0.00834731 0)
(26.5383 -0.0369721 0)
(30.2889 -0.0833382 0)
(30.0672 -0.0941017 0)
(26.3374 -0.0506621 0)
(18.5644 -0.0185396 0)
(18.4188 -0.00837718 0)
(26.1974 -0.0371241 0)
(29.9471 -0.0840525 0)
(29.7237 -0.0948884 0)
(25.9955 -0.050924 0)
(18.2622 -0.0186271 0)
(18.1164 -0.00838205 0)
(25.854 -0.0371945 0)
(29.6016 -0.0846172 0)
(29.3768 -0.0955132 0)
(25.6512 -0.0510967 0)
(17.959 -0.0186848 0)
(17.8133 -0.00835701 0)
(25.5086 -0.0371706 0)
(29.2532 -0.085004 0)
(29.0273 -0.0959467 0)
(25.3052 -0.0511657 0)
(17.6555 -0.018707 0)
(17.5102 -0.00829685 0)
(25.1619 -0.0370398 0)
(28.9023 -0.0851824 0)
(28.6758 -0.096157 0)
(24.9584 -0.0511157 0)
(17.3525 -0.0186876 0)
(17.208 -0.00819604 0)
(24.8148 -0.0367888 0)
(28.5499 -0.0851194 0)
(28.3231 -0.0961096 0)
(24.6115 -0.0509305 0)
(17.0506 -0.0186203 0)
(16.9076 -0.00804874 0)
(24.4683 -0.0364039 0)
(28.1968 -0.0847791 0)
(27.9701 -0.0957674 0)
(24.2658 -0.0505929 0)
(16.7511 -0.018498 0)
(16.61 -0.00784873 0)
(24.1234 -0.035871 0)
(27.844 -0.0841236 0)
(27.6181 -0.0950916 0)
(23.9222 -0.0500852 0)
(16.4549 -0.0183137 0)
(16.3163 -0.0075902 0)
(23.7815 -0.0351763 0)
(27.4927 -0.0831165 0)
(27.2681 -0.0940467 0)
(23.5822 -0.0493922 0)
(16.1632 -0.0180619 0)
(16.0278 -0.00726815 0)
(23.4439 -0.034307 0)
(27.1441 -0.0817209 0)
(26.9215 -0.0925925 0)
(23.2471 -0.0484969 0)
(15.8774 -0.0177367 0)
(15.7459 -0.00687679 0)
(23.1121 -0.0332469 0)
(26.7998 -0.0798948 0)
(26.5799 -0.0906845 0)
(22.9186 -0.0473784 0)
(15.5989 -0.0173311 0)
(15.4721 -0.00640889 0)
(22.7879 -0.0319759 0)
(26.4612 -0.0775982 0)
(26.2449 -0.0882858 0)
(22.5985 -0.0460182 0)
(15.3293 -0.0168372 0)
(15.2079 -0.00585973 0)
(22.4731 -0.0304783 0)
(26.1302 -0.0748032 0)
(25.9182 -0.085379 0)
(22.2885 -0.0444052 0)
(15.0703 -0.0162552 0)
(14.9552 -0.00523827 0)
(22.1696 -0.0287659 0)
(25.8084 -0.0715246 0)
(25.6017 -0.0819776 0)
(21.9906 -0.0425571 0)
(14.8236 -0.0156135 0)
(14.7154 -0.00455947 0)
(21.8791 -0.0268336 0)
(25.4978 -0.0677366 0)
(25.2972 -0.0780463 0)
(21.7067 -0.0404631 0)
(14.5905 -0.0149015 0)
(14.4899 -0.00381542 0)
(21.6039 -0.0246682 0)
(25.2003 -0.0634293 0)
(25.0068 -0.0735802 0)
(21.4389 -0.0381142 0)
(14.3728 -0.0141011 0)
(14.2807 -0.00298955 0)
(21.3459 -0.0222546 0)
(24.918 -0.0586049 0)
(24.7324 -0.0685952 0)
(21.189 -0.0355082 0)
(14.1722 -0.0132186 0)
(14.0894 -0.00209326 0)
(21.1069 -0.0196017 0)
(24.6527 -0.0532917 0)
(24.476 -0.063127 0)
(20.9591 -0.032664 0)
(13.9904 -0.0122682 0)
(13.9177 -0.0011412 0)
(20.8888 -0.0167313 0)
(24.4064 -0.0475356 0)
(24.2394 -0.057228 0)
(20.7508 -0.0296122 0)
(13.8288 -0.0112669 0)
(13.7668 -0.00014884 0)
(20.6932 -0.0136746 0)
(24.1807 -0.0413983 0)
(24.0242 -0.0509665 0)
(20.5656 -0.0263919 0)
(13.6888 -0.0102324 0)
(13.6379 0.000868965 0)
(20.5215 -0.0104711 0)
(23.9774 -0.0349584 0)
(23.832 -0.0444198 0)
(20.4049 -0.0230476 0)
(13.571 -0.00918373 0)
(13.5317 0.00191341 0)
(20.3748 -0.00713734 0)
(23.7977 -0.0282646 0)
(23.6641 -0.0376255 0)
(20.2696 -0.0195889 0)
(13.4762 -0.00811706 0)
(13.4488 0.00306634 0)
(20.254 -0.00362085 0)
(23.6428 -0.0212992 0)
(23.5219 -0.0303484 0)
(20.1613 -0.015676 0)
(13.4052 -0.00673303 0)
(13.3935 0.00396802 0)
(20.1584 -0.000195574 0)
(23.5139 -0.0145256 0)
(23.4056 -0.0232761 0)
(20.0785 -0.0120171 0)
(13.3599 -0.0056919 0)
(13.3622 0.0047448 0)
(20.0888 0.00307549 0)
(23.411 -0.0078997 0)
(23.3157 -0.0163251 0)
(20.0218 -0.00854362 0)
(13.3378 -0.00478998 0)
(13.3529 0.00541782 0)
(20.0452 0.00616712 0)
(23.3346 -0.00147176 0)
(23.2523 -0.00957031 0)
(19.9911 -0.00524472 0)
(13.3373 -0.00398417 0)
(13.3644 0.00602177 0)
(20.0272 0.00907464 0)
(23.2845 0.00469619 0)
(23.215 -0.00311797 0)
(19.9855 -0.00216793 0)
(13.357 -0.00326423 0)
(13.3949 0.0065255 0)
(20.0336 0.0117125 0)
(23.2598 0.0104106 0)
(23.2028 0.00289632 0)
(20.0039 0.000790395 0)
(13.3953 -0.00261062 0)
(13.4431 0.00696356 0)
(20.0632 0.0141206 0)
(23.2598 0.0158689 0)
(23.2145 0.00855458 0)
(20.0442 0.00359567 0)
(13.4515 -0.0018836 0)
(13.508 0.00744339 0)
(20.1139 0.0163965 0)
(23.2829 0.0208576 0)
(23.2486 0.013378 0)
(20.104 0.00617287 0)
(13.5254 -0.000850809 0)
(13.5877 0.00757312 0)
(20.1835 0.0180553 0)
(23.3274 0.0250793 0)
(23.3028 0.0174066 0)
(20.1817 0.00802949 0)
(13.6116 -0.000331164 0)
(13.6786 0.00766998 0)
(20.2699 0.0196514 0)
(23.3912 0.0293376 0)
(23.375 0.0211115 0)
(20.2748 0.00952499 0)
(13.7071 -2.20146e-06 0)
(13.7785 0.00812012 0)
(20.3705 0.0213948 0)
(23.4714 0.0329794 0)
(23.4627 0.024254 0)
(20.3809 0.0108859 0)
(13.8105 0.000329027 0)
(13.8851 0.0082314 0)
(20.4828 0.0224615 0)
(23.5661 0.0357298 0)
(23.5646 0.0269409 0)
(20.4989 0.0119137 0)
(13.9209 0.000456439 0)
(13.9982 0.00824905 0)
(20.6067 0.0233552 0)
(23.6749 0.0382058 0)
(23.6804 0.0289922 0)
(20.6281 0.0127228 0)
(14.0379 0.000701694 0)
(14.1174 0.00819938 0)
(20.7415 0.0236981 0)
(23.7971 0.0396573 0)
(23.8081 0.0305602 0)
(20.7668 0.0132705 0)
(14.1593 0.000666375 0)
(14.2379 0.00797669 0)
(20.883 0.0237411 0)
(23.9288 0.0403884 0)
(23.9434 0.031387 0)
(20.9103 0.0132393 0)
(14.2799 0.000437406 0)
(14.3565 0.00774335 0)
(21.0277 0.0235248 0)
(24.0666 0.0407082 0)
(24.0835 0.0315364 0)
(21.0558 0.012917 0)
(14.3981 0.00021048 0)
(14.4723 0.00764052 0)
(21.1734 0.0232652 0)
(24.2081 0.0406995 0)
(24.2265 0.0314715 0)
(21.2016 0.0125269 0)
(14.5133 -1.80113e-05 0)
(14.5856 0.00755417 0)
(21.319 0.0229444 0)
(24.3521 0.0404659 0)
(24.3713 0.0310129 0)
(21.3469 0.0119716 0)
(14.6258 -0.00028893 0)
(14.6954 0.00739761 0)
(21.4632 0.0223997 0)
(24.4969 0.0397648 0)
(24.516 0.0301748 0)
(21.4898 0.011239 0)
(14.7341 -0.000615136 0)
(14.8004 0.00702992 0)
(21.6043 0.0216251 0)
(24.6407 0.0386563 0)
(24.6592 0.028976 0)
(21.6295 0.01032 0)
(14.8358 -0.001079 0)
(14.8986 0.00666007 0)
(21.7414 0.020715 0)
(24.7825 0.0372934 0)
(24.7997 0.0275551 0)
(21.7646 0.00934915 0)
(14.9306 -0.00146201 0)
(14.99 0.00633769 0)
(21.8734 0.0197284 0)
(24.9208 0.0357068 0)
(24.9361 0.0259786 0)
(21.894 0.00835245 0)
(15.0186 -0.00180192 0)
(15.0745 0.00605025 0)
(21.9992 0.0187035 0)
(25.0546 0.033963 0)
(25.0675 0.0242946 0)
(22.0169 0.00735411 0)
(15.0999 -0.00210806 0)
(15.1523 0.00579026 0)
(22.1183 0.0176631 0)
(25.183 0.0321102 0)
(25.1932 0.0225449 0)
(22.1328 0.00636922 0)
(15.1745 -0.00238806 0)
(15.2236 0.00555159 0)
(22.2302 0.0166259 0)
(25.3052 0.030194 0)
(25.3124 0.0207706 0)
(22.2414 0.00541061 0)
(15.2428 -0.00264845 0)
(15.2886 0.00533538 0)
(22.3346 0.0156125 0)
(25.4209 0.0282607 0)
(25.4248 0.0190146 0)
(22.3424 0.00449478 0)
(15.3049 -0.00289233 0)
(15.3479 0.00516046 0)
(22.4315 0.0146574 0)
(25.5297 0.0263593 0)
(25.5303 0.0173171 0)
(22.4358 0.00365782 0)
(15.3616 -0.00308706 0)
(15.4018 0.00504315 0)
(22.5209 0.0138022 0)
(25.6315 0.0245412 0)
(25.6285 0.0156601 2.94195e-18)
(22.5215 0.00298486 -1.77431e-18)
(15.4138 -0.00305446 0)
(15.4512 0.00494229 0)
(22.6028 0.0129706 0)
(25.7261 0.0227838 0)
(25.7197 0.0140833 0)
(22.5999 0.00232393 0)
(15.4616 -0.00304876 0)
(15.4964 0.00483503 0)
(22.6778 0.0121761 1.7741e-18)
(25.8138 0.0211114 6.16243e-25)
(25.8041 0.012596 0)
(22.6716 0.00170269 0)
(15.5051 -0.0030535 0)
(15.5374 0.0047284 0)
(22.7462 0.0114378 0)
(25.8948 0.0195505 0)
(25.8819 0.0112127 0)
(22.737 0.00113654 0)
(15.5447 -0.00305689 0)
(15.5747 0.00463187 0)
(22.8086 0.0107715 0)
(25.9694 0.0181262 0)
(25.9535 0.00992584 0)
(22.7965 0.000622832 0)
(15.5807 -0.00305673 0)
(15.6087 0.00454234 0)
(22.8653 0.0101645 0)
(26.0381 0.0168119 0)
(26.0193 0.0087605 0)
(22.8506 0.000172274 0)
(15.6136 -0.00304896 0)
(15.6398 0.00446492 0)
(22.9169 0.0096288 0)
(26.1012 0.0156304 0)
(26.0797 0.00772259 0)
(22.8999 -0.000210113 0)
(15.6437 -0.00302911 0)
(15.6684 0.00442493 0)
(22.9639 0.00918589 0)
(26.1591 0.0145882 0)
(26.1351 0.00679139 0)
(22.9448 -0.000552064 0)
(15.6714 -0.00301865 0)
(15.6949 0.0044106 0)
(23.0068 0.0088192 0)
(26.2122 0.0136693 0)
(26.186 0.00598448 0)
(22.9858 -0.000846582 0)
(15.6972 -0.00301637 0)
(15.7197 0.00439463 0)
(23.046 0.0084942 0)
(26.261 0.0128448 0)
(26.2327 0.00530856 0)
(23.0233 -0.00107869 0)
(15.7215 -0.00300581 0)
(15.7432 0.00439476 0)
(23.0821 0.00825105 0)
(26.3059 0.0121794 0)
(26.2758 0.00465297 0)
(23.0579 -0.00130843 0)
(15.7445 -0.00300592 0)
(15.7654 0.00439178 0)
(23.1153 0.00803644 0)
(26.3474 0.0115818 0)
(26.3156 0.00405418 0)
(23.0898 -0.00151274 0)
(15.7663 -0.00300755 0)
(15.7866 0.00438843 0)
(23.146 0.00785006 0)
(26.3856 0.0110485 0)
(26.3523 0.00352372 0)
(23.1193 -0.0016886 0)
(15.7871 -0.00300926 0)
(15.8068 0.0043854 0)
(23.1745 0.00769017 0)
(26.421 0.0105787 0)
(26.3862 0.00305367 0)
(23.1468 -0.0018417 0)
(15.807 -0.00301205 0)
(15.8263 0.00438032 0)
(23.201 0.00754986 0)
(26.4538 0.0101609 0)
(26.4178 0.00263196 0)
(23.1724 -0.00196523 0)
(15.8261 -0.00301271 0)
(15.8451 0.00437586 0)
(23.2259 0.00743695 0)
(26.4843 0.00978514 0)
(26.4472 0.00225676 0)
(23.1964 -0.00208512 0)
(15.8446 -0.00302304 0)
(15.8632 0.00437175 0)
(23.2492 0.00734176 0)
(26.5128 0.00945296 0)
(26.4747 0.00191974 0)
(23.2191 -0.00220781 0)
(15.8625 -0.00304085 0)
(15.8807 0.00436416 0)
(23.2712 0.00724911 0)
(26.5394 0.00915443 0)
(26.5005 0.00161323 0)
(23.2404 -0.00232475 0)
(15.8797 -0.00306037 0)
(15.8975 0.00435266 0)
(23.2919 0.00715891 0)
(26.5644 0.00888065 0)
(26.5246 0.0013328 0)
(23.2605 -0.00243621 0)
(15.8963 -0.00308277 0)
(15.9137 0.00433703 0)
(23.3116 0.00707111 0)
(26.588 0.00862848 0)
(26.5474 0.00107535 0)
(23.2796 -0.00254273 0)
(15.9123 -0.00310797 0)
(15.9293 0.00431776 0)
(23.3302 0.00698553 0)
(26.6102 0.00839571 0)
(26.569 0.000838235 0)
(23.2978 -0.00264459 0)
(15.9276 -0.00313399 0)
(15.9443 0.00429467 0)
(23.348 0.00690227 0)
(26.6312 0.00818261 0)
(26.5895 0.000617853 0)
(23.3152 -0.0027404 0)
(15.9423 -0.00315385 0)
(15.9586 0.00427661 0)
(23.365 0.00682329 0)
(26.6513 0.00798729 0)
(26.609 0.000439346 0)
(23.3318 -0.00282348 0)
(15.9564 -0.00318312 0)
(15.9724 0.00426115 0)
(23.3814 0.00675953 0)
(26.6704 0.00782596 0)
(26.6278 0.000302464 0)
(23.3479 -0.00289001 0)
(15.97 -0.00321441 0)
(15.9858 0.00424561 0)
(23.3972 0.00671462 0)
(26.689 0.0077096 0)
(26.646 0.000218306 0)
(23.3635 -0.00293037 0)
(15.9832 -0.00323915 0)
(15.9988 0.00423499 0)
(23.4128 0.00669868 0)
(26.707 0.0076553 0)
(26.6639 0.000211494 0)
(23.379 -0.00293031 0)
(15.9962 -0.00325172 0)
(16.0119 0.0042356 0)
(23.4283 0.00673161 0)
(26.7249 0.00769852 0)
(26.6818 0.000333719 0)
(23.3946 -0.00286028 0)
(16.0094 -0.00324227 0)
(16.0254 0.00425901 0)
(23.4443 0.00685388 0)
(26.7431 0.00791129 0)
(26.7003 0.000712639 0)
(23.4112 -0.0026444 0)
(16.0233 -0.00318454 0)
(16.0405 0.00435188 0)
(23.4617 0.00722121 0)
(26.7623 0.00855954 0)
(26.7206 0.00190618 0)
(23.4301 -0.00183591 0)
(16.0396 -0.00284383 0)
(16.0627 0.00540086 0)
(23.4832 0.00913797 1.76964e-18)
(26.7841 0.01092 1.19354e-24)
(26.7414 0.00738274 1.27742e-18)
(23.4505 0.00479026 -1.75929e-18)
(16.0642 0.00342898 0)
(16.1896 0.0105493 0)
(23.5095 0.0103084 0)
(26.8243 0.0112858 1.81044e-19)
(26.7958 0.0150338 3.5524e-19)
(23.4542 0.00850283 0)
(16.1714 0.00446879 0)
(16.2745 0.0125652 0)
(23.5669 0.0232739 -1.81596e-18)
(26.9109 0.0329551 1.06005e-18)
(26.9265 0.0427641 1.35253e-18)
(23.6157 0.0298291 1.00078e-19)
(16.3567 0.0183541 9.62396e-19)
(16.7276 0.0335526 -1.27875e-18)
(23.8963 0.044926 0)
(27.1923 0.052566 1.05877e-17)
(27.3634 0.050041 6.3795e-19)
(24.1202 0.043377 0)
(17.0487 0.0335427 2.27608e-19)
(17.2823 0.0296311 0)
(24.2655 0.0359284 0)
(27.4461 0.04155 -3.12413e-18)
(27.5705 0.0281835 1.74731e-19)
(24.4404 0.0405949 -2.064e-19)
(17.5081 0.0120922 0)
(17.7273 0.0326221 -5.36981e-19)
(24.519 0.0196263 6.67086e-19)
(27.6174 0.0190916 1.29647e-18)
(30.2271 0.0206577 5.43158e-19)
(31.3072 0.00100864 0)
(31.7846 -0.00669752 0)
(32.1107 0.0407257 0)
(32.5997 0.0571957 0)
(32.8868 0.0607558 0)
(33.1684 0.0707167 1.07942e-19)
(33.3638 0.0723302 -1.08235e-19)
(33.5503 0.0775259 0)
(33.6911 0.0777403 0)
(33.8234 0.0808117 0)
(33.9308 0.0818312 0)
(34.0307 0.0834709 0)
(34.1144 0.0843694 0)
(34.1923 0.085445 0)
(34.2586 0.0860364 0)
(34.3202 0.0866615 0)
(34.373 0.0869207 0)
(34.4218 0.0871579 0)
(34.4634 0.0870873 0)
(34.5015 0.0869612 0)
(34.5334 0.0865568 0)
(34.5618 0.0860778 0)
(34.5846 0.0853259 0)
(34.6035 0.0844854 0)
(34.6169 0.083356 0)
(34.6256 0.0821242 0)
(34.6284 0.080552 0)
(34.6248 0.0788781 0)
(34.614 0.0767487 0)
(34.5937 0.0746399 0)
(34.564 0.0718722 1.08369e-19)
(34.5185 0.069328 -1.09612e-19)
(34.4599 0.0662451 -8.98558e-19)
(34.3757 0.0642379 9.19377e-19)
(34.2758 0.0606172 0)
(34.1347 0.0613932 -8.0541e-18)
(33.9953 0.0583838 8.65135e-18)
(33.8178 0.0258868 2.57621e-17)
(33.5983 0.00993201 -6.84393e-17)
(33.307 0.0115882 -1.96173e-17)
(33.1664 0.0284217 0)
(32.7413 0.0240936 6.87999e-18)
(31.7387 -0.0121973 -2.0127e-18)
(29.8076 -0.0288654 4.09432e-18)
(25.6382 -0.0198017 0)
(21.0431 -0.018222 -4.28484e-19)
(11.6176 -0.00885973 0)
(11.5256 -0.0197761 0)
(20.9799 -0.0273898 3.9802e-19)
(25.6173 -0.0245314 0)
(25.4015 -0.0286142 1.33182e-18)
(20.7273 -0.0202837 2.45799e-18)
(11.2793 -0.012484 -1.27553e-18)
(11.1051 -0.0125735 4.33318e-19)
(20.6824 -0.0207892 1.43466e-18)
(25.2893 -0.0238375 -1.20579e-18)
(25.3075 -0.0173608 -1.23528e-18)
(20.6173 -0.00988707 1.52767e-18)
(11.0823 -0.00122191 -2.34238e-19)
(11.0728 -0.00217004 -2.14713e-19)
(20.601 -0.000629985 -1.44777e-18)
(25.2594 -0.00486683 -1.81057e-24)
(25.2199 -0.00141594 0)
(20.5165 0.000721437 0)
(11.073 -0.00951338 5.26139e-25)
(10.87 -0.0144009 2.29844e-19)
(20.5225 -0.0113627 0)
(25.1861 -0.00642982 0)
(25.1974 -0.00497081 1.28874e-18)
(20.536 -0.0105304 -1.55518e-18)
(10.8578 -0.00504892 0)
(10.83 0.00394636 2.37077e-19)
(20.4659 -0.00235044 0)
(25.2013 -0.00199057 0)
(25.2143 0.00393559 0)
(20.4787 0.00187541 0)
(10.8499 0.00063077 -2.38948e-19)
(10.8552 0.000801771 0)
(20.4878 0.00348641 0)
(25.2238 0.00701273 0)
(25.2358 0.00585367 0)
(20.4999 0.00299257 0)
(10.8655 0.000617178 0)
(10.8755 0.00110742 0)
(20.5116 0.00410805 0)
(25.2463 0.00802699 0)
(25.2593 0.00639905 0)
(20.5251 0.003289 0)
(10.8867 0.000702011 0)
(10.8973 0.0011237 0)
(20.5374 0.00422909 0)
(25.2702 0.0082474 0)
(25.2835 0.00675732 0)
(20.5513 0.0034966 0)
(10.909 0.000767281 0)
(10.9204 0.00121715 0)
(20.5644 0.00449351 0)
(25.2951 0.00871491 0)
(25.309 0.00703079 0)
(20.579 0.0036427 0)
(10.9327 0.000809359 0)
(10.9442 0.00121323 0)
(20.5923 0.00453381 0)