/*--------------------------------*- C++ -*----------------------------------*\
| =========                 |                                                 |
| \\      /  F ield         | OpenFOAM: The Open Source CFD Toolbox           |
|  \\    /   O peration     | Version:  v2006                                 |
|   \\  /    A nd           | Website:  www.openfoam.com                      |
|    \\/     M anipulation  |                                                 |
\*---------------------------------------------------------------------------*/
FoamFile
{
    version     2.0;
    format      ascii;
    class       volScalarField;
    location    "0.034";
    object      nut;
}
// * * * * * * * * * * * * * * * * * * * * * * * * * * * * * * * * * * * * * //

dimensions      [0 2 -1 0 0 0 0];


internalField   nonuniform List<scalar> 
12716
(
502.117
526.771
2063.23
1759.91
1853.09
2721.77
13149.1
854.94
57.1986
7.16543
2.05538
1.01319
0.6804
0.538787
0.467115
0.424693
0.394832
0.370642
0.349498
0.330582
0.3137
0.298782
0.285703
0.274269
0.264255
0.255442
0.247642
0.240704
0.234513
0.228985
0.224056
0.219682
0.215828
0.21247
0.20959
0.207176
0.205222
0.203725
0.202692
0.202128
0.20205
0.202498
0.203507
0.205126
0.207431
0.210513
0.214469
0.21939
0.225321
0.232239
0.240062
0.248792
0.258967
0.272725
0.296135
0.344667
0.458237
0.753963
1.63301
4.33679
9.21076
8.77147
4.78067
1.89497
0.801957
0.373689
0.194203
0.089765
0.0223464
0.0039068
0.000125976
0.000107097
0.00172253
0.00798493
0.00485645
0.00122457
9.39799e-05
8.28972e-05
0.00102787
0.00369059
0.0031778
0.000940179
7.66953e-05
7.0945e-05
0.000869392
0.00281813
0.00261472
0.000831323
6.73623e-05
6.41888e-05
0.000794108
0.00242605
0.00233155
0.000776785
6.2153e-05
6.00895e-05
0.000745557
0.00219608
0.00214518
0.000736661
5.88003e-05
5.73341e-05
0.000711927
0.00204665
0.00201104
0.000706715
5.64622e-05
5.53592e-05
0.000686005
0.00193296
0.00190618
0.000682511
5.47285e-05
5.38625e-05
0.000664955
0.00184065
0.00181973
0.000661868
5.33764e-05
5.26699e-05
0.000646794
0.00176281
0.00174606
0.000643964
5.22792e-05
5.16793e-05
0.000630699
0.00169552
0.00168179
0.000628119
5.13525e-05
5.08295e-05
0.000616222
0.00163635
0.00162464
0.000613849
5.05482e-05
5.00818e-05
0.000603011
0.00158354
0.00157334
0.000600829
4.98337e-05
4.94104e-05
0.000590848
0.00153587
0.00152684
0.000588849
4.91874e-05
4.87978e-05
0.000579572
0.00149237
0.00148434
0.000577742
4.85943e-05
4.82318e-05
0.000569055
0.00145241
0.0014452
0.000567378
4.80438e-05
4.7703e-05
0.000559189
0.00141544
0.00140893
0.000557651
4.75275e-05
4.72047e-05
0.000549883
0.00138101
0.0013751
0.000548469
4.70393e-05
4.67311e-05
0.000541059
0.00134875
0.0013434
0.000539756
4.6574e-05
4.62778e-05
0.000532653
0.00131844
0.00131359
0.000531453
4.61273e-05
4.58409e-05
0.000524618
0.00128987
0.00128546
0.000523511
4.56959e-05
4.54176e-05
0.000516908
0.00126284
0.0012588
0.000515883
4.52769e-05
4.50052e-05
0.000509479
0.00123717
0.00123343
0.000508524
4.48684e-05
4.46019e-05
0.000502289
0.00121267
0.00120919
0.000501393
4.44682e-05
4.42058e-05
0.000495296
0.0011892
0.00118593
0.00049445
4.40745e-05
4.38149e-05
0.000488467
0.00116662
0.00116352
0.000487664
4.36853e-05
4.3427e-05
0.000481769
0.00114481
0.00114185
0.000481004
4.32982e-05
4.30398e-05
0.000475174
0.00112367
0.00112082
0.00047444
4.2911e-05
4.26512e-05
0.000468652
0.00110311
0.00110034
0.000467941
4.25219e-05
4.22597e-05
0.00046217
0.00108303
0.0010803
0.000461473
4.21296e-05
4.1864e-05
0.000455696
0.00106331
0.0010606
0.000455001
4.17328e-05
4.14627e-05
0.000449193
0.00104388
0.00104113
0.000448492
4.13297e-05
4.10535e-05
0.00044263
0.00102462
0.00102183
0.000441922
4.09176e-05
4.06334e-05
0.000435985
0.00100547
0.00100261
0.000435272
4.04936e-05
4.01997e-05
0.000429242
0.000986364
0.000983421
0.000428525
4.00553e-05
3.97505e-05
0.000422384
0.000967253
0.000964213
0.000421639
3.9601e-05
3.92843e-05
0.000415379
0.000948083
0.00094493
0.000414609
3.91299e-05
3.88004e-05
0.00040822
0.000928801
0.000925521
0.000407423
3.86408e-05
3.82966e-05
0.000400892
0.000909364
0.000905951
0.000400071
3.81305e-05
3.7769e-05
0.000393388
0.000889746
0.000886211
0.00039256
3.7595e-05
3.72144e-05
0.000385724
0.00086996
0.000866338
0.000384912
3.70327e-05
3.66329e-05
0.000377933
0.00085007
0.000846405
0.000377165
3.64449e-05
3.60261e-05
0.000370061
0.000830167
0.000826683
0.000369366
3.58319e-05
3.53933e-05
0.000362198
0.000810436
0.000807304
0.000361628
3.51914e-05
3.47339e-05
0.000354537
0.000791122
0.000788477
0.000354089
3.4527e-05
3.40539e-05
0.000347144
0.000772477
0.000770572
0.000346918
3.38458e-05
3.3362e-05
0.000340255
0.000754948
0.000753835
0.000340357
3.31564e-05
3.26654e-05
0.000334105
0.000738965
0.000739118
0.000334673
3.24641e-05
3.1971e-05
0.000328983
0.000725273
0.000727072
0.000330148
3.17787e-05
3.1294e-05
0.00032517
0.000714456
0.000718152
0.000327028
3.11199e-05
3.06581e-05
0.000322877
0.000706996
0.00071281
0.000325489
3.05118e-05
3.00855e-05
0.000322223
0.000703285
0.000711336
0.000325623
2.99715e-05
2.95883e-05
0.000323266
0.000703727
0.000713816
0.000327344
2.95066e-05
2.91699e-05
0.000325754
0.00070823
0.000720015
0.000330333
2.9116e-05
2.88297e-05
0.00032925
0.000716227
0.000729146
0.000334078
2.87873e-05
2.85761e-05
0.000332842
0.000726888
0.000739706
0.000336919
2.85226e-05
2.83601e-05
0.000334503
0.000737701
0.000750333
0.000338131
2.82688e-05
2.811e-05
0.000335239
0.000748195
0.000760376
0.000338535
2.8e-05
2.78372e-05
0.000335435
0.000757611
0.000769005
0.000338364
2.77206e-05
2.75655e-05
0.000335141
0.000765459
0.000775841
0.000337588
2.74632e-05
2.73088e-05
0.000334292
0.000771466
0.000780852
0.000336272
2.72151e-05
2.70681e-05
0.000332955
0.000775718
0.0007841
0.000334529
2.69889e-05
2.68553e-05
0.000331292
0.000778468
0.000785961
0.000332562
2.67887e-05
2.66727e-05
0.000329478
0.000780122
0.000786743
0.000330474
2.6632e-05
2.65402e-05
0.000327628
0.000780957
0.000786659
0.00032839
2.65202e-05
2.64492e-05
0.000325762
0.00078094
0.00078592
0.000326373
2.64433e-05
2.63865e-05
0.000323962
0.000780323
0.000784626
0.000324463
2.63812e-05
2.63245e-05
0.000322238
0.000779216
0.000783069
0.000322674
2.6311e-05
2.6253e-05
0.000320556
0.000777728
0.000781158
0.000320936
2.62386e-05
2.6181e-05
0.000318881
0.000775799
0.000778843
0.000319253
2.61619e-05
2.61139e-05
0.000317269
0.000773609
0.000776176
0.000317623
2.61042e-05
2.60659e-05
0.000315677
0.000771057
0.000773112
0.000316022
2.60644e-05
2.60348e-05
0.0003141
0.000768064
0.000769831
0.000314461
2.60358e-05
2.60086e-05
0.000312603
0.000764747
0.00076644
0.000312974
2.60072e-05
2.59779e-05
0.000311152
0.000761215
0.00076285
0.000311521
2.59739e-05
2.59483e-05
0.000309738
0.000757543
0.000759096
0.000310078
2.59424e-05
2.59171e-05
0.000308239
0.000753521
0.000754844
0.000308496
2.59023e-05
2.58675e-05
0.000306555
0.000748864
0.000750039
0.000306759
2.58382e-05
2.57935e-05
0.000304748
0.000743778
0.000744846
0.000304937
2.57558e-05
2.57066e-05
0.000302926
0.000738465
0.000739792
0.000303249
2.56809e-05
2.56466e-05
0.00030135
0.000733528
0.000734361
0.000301398
2.56733e-05
2.56053e-05
0.000299809
0.000727918
0.000730729
0.000300803
2.57666e-05
2.57499e-05
0.000299875
0.000730424
0.000741575
0.000305362
2.63474e-05
2.62978e-05
0.000308345
0.00074945
0.000742548
0.000305888
2.67546e-05
2.67782e-05
0.000317279
0.000771584
0.000778327
0.000321021
2.73694e-05
0.00224226
0.00439013
0.0068108
0.00935822
0.011568
0.0138995
0.0158532
0.017506
0.0187309
0.0195593
0.0199508
0.0198974
0.0194097
0.0184732
0.0171783
0.0154849
0.0135862
0.0114047
0.00955661
0.00744245
0.00502413
0.00323915
0.00236436
0.00106214
0.000306963
0.000142885
1.80711e-05
1.304e-05
0.000133792
0.000264878
8.91291e-05
3.8779e-05
9.35662e-06
1.0431e-05
8.50897e-05
0.000208207
0.000190382
7.89089e-05
1.13199e-05
1.1388e-05
8.53114e-05
0.000207602
0.000193462
8.01607e-05
1.12971e-05
1.12634e-05
8.31356e-05
0.000199529
0.000190307
7.8901e-05
1.12407e-05
1.12249e-05
8.20747e-05
0.000196662
0.000190491
7.83243e-05
1.1029e-05
1.1102e-05
8.17942e-05
0.000198825
0.000192855
7.86227e-05
1.10869e-05
1.11608e-05
8.27464e-05
0.000201404
0.00019579
7.98704e-05
1.11571e-05
1.1225e-05
8.35796e-05
0.000203813
0.000198027
8.06632e-05
1.12177e-05
1.13076e-05
8.45191e-05
0.000206251
0.000200457
8.15804e-05
1.13322e-05
1.14142e-05
8.51429e-05
0.000208765
0.000202755
8.23839e-05
1.13702e-05
1.14612e-05
8.58655e-05
0.000211024
0.00020495
8.3079e-05
1.14138e-05
1.15049e-05
8.65665e-05
0.000213466
0.000207338
8.38993e-05
1.14634e-05
1.1571e-05
8.74796e-05
0.00021626
0.000210194
8.46765e-05
1.15234e-05
1.16047e-05
8.82866e-05
0.000219093
0.000212795
8.5409e-05
1.15718e-05
1.16522e-05
8.90219e-05
0.000221664
0.000215289
8.59989e-05
1.16197e-05
1.16873e-05
8.95325e-05
0.000224452
0.0002181
8.63276e-05
1.16489e-05
1.16822e-05
8.99299e-05
0.000227693
0.000221276
8.67521e-05
1.16208e-05
1.16768e-05
9.07748e-05
0.000231176
0.000224411
8.77231e-05
1.16726e-05
1.17598e-05
9.19013e-05
0.000234196
0.000227091
8.88368e-05
1.1744e-05
1.18362e-05
9.30581e-05
0.000237181
0.00023057
8.941e-05
1.18361e-05
1.18525e-05
9.33771e-05
0.000240919
0.00023389
9.02216e-05
1.18236e-05
1.19088e-05
9.45734e-05
0.00024456
0.000237244
9.13832e-05
1.18893e-05
1.19799e-05
9.59318e-05
0.000248099
0.000240987
9.26509e-05
1.19818e-05
1.20838e-05
9.74602e-05
0.000252227
0.000245111
9.39955e-05
1.2119e-05
1.21981e-05
9.8418e-05
0.00025644
0.000249022
9.51056e-05
1.21614e-05
1.22618e-05
9.968e-05
0.000260685
0.0002532
9.6305e-05
1.22406e-05
1.23371e-05
0.00010092
0.000265193
0.000257631
9.74535e-05
1.23093e-05
1.24057e-05
0.000102177
0.000269979
0.00026214
9.87375e-05
1.23768e-05
1.24835e-05
0.000103625
0.00027467
0.000266702
0.000100128
1.2468e-05
1.25816e-05
0.000105059
0.000279507
0.000271477
0.000101364
1.25519e-05
1.26502e-05
0.00010634
0.000284726
0.000276647
0.000102717
1.26191e-05
1.27365e-05
0.000107998
0.000290579
0.000282301
0.000104319
1.27109e-05
1.28277e-05
0.000109669
0.00029634
0.000287648
0.000105825
1.27993e-05
1.29083e-05
0.000111109
0.00030167
0.00029266
0.00010715
1.28747e-05
1.29714e-05
0.000112442
0.000306878
0.000297823
0.000108326
1.29436e-05
1.30173e-05
0.000113718
0.000312892
0.000304144
0.000109086
1.30369e-05
1.30988e-05
0.000114503
0.000319461
0.00030986
0.000110469
1.30452e-05
1.32172e-05
0.000116331
0.000325827
0.000316088
0.000112144
1.32077e-05
1.33732e-05
0.000117857
0.000332451
0.000322776
0.000113339
1.33408e-05
1.34925e-05
0.000118927
0.000340052
0.000330722
0.00011399
1.34869e-05
1.36026e-05
0.000119869
0.000349757
0.000340695
0.000115546
1.36037e-05
1.37848e-05
0.000123804
0.000365637
0.000354702
0.000117877
1.37848e-05
1.40059e-05
0.000129933
0.000380151
0.000368971
0.000122712
1.39054e-05
1.41193e-05
0.000134773
0.000398868
0.000385991
0.000127801
1.41097e-05
1.44084e-05
0.000140248
0.000414432
0.000404484
0.000135499
1.44374e-05
1.465e-05
0.000144358
0.000434766
0.000424697
0.00013938
1.46644e-05
1.48657e-05
0.000148684
0.000455694
0.000448591
0.000148026
1.5057e-05
1.52818e-05
0.000160372
0.000482651
0.00047409
0.00015481
1.53755e-05
1.55901e-05
0.000165675
0.000505551
0.000498841
0.000161372
1.5683e-05
1.59442e-05
0.000172363
0.000531415
0.000525536
0.000169409
1.61605e-05
1.65764e-05
0.000179612
0.000550592
0.000537564
0.00017712
1.68809e-05
1.73804e-05
0.000179496
0.000554708
0.000535925
0.000178128
1.8143e-05
1.94714e-05
0.000186499
0.000555317
0.000540627
0.000186997
2.15573e-05
2.46569e-05
0.000219562
0.000569619
0.00054415
0.000242926
1.84105e-05
1.14043e-05
4.9161e-05
0.000154848
0.000465111
0.000149842
1.57857e-05
1.77669e-05
0.000145814
0.000454019
0.000520297
0.000173369
2.04552e-05
2.43431e-05
0.000175256
0.000546624
0.000747542
0.000209972
3.07592e-05
5.06161e-05
0.000286988
0.00133429
0.00196754
0.000779631
8.70984e-05
0.000101858
0.000780162
0.00215665
0.00268626
0.00112921
0.000121934
0.000134179
0.00124343
0.00291171
0.00283066
0.0011996
0.000128596
0.00011654
0.000928781
0.00213091
0.00271596
0.00106976
0.0001407
0.000162215
0.00121088
0.00288497
0.00313138
0.0013148
0.000188423
0.000205441
0.00139121
0.00332576
0.00335225
0.00143802
0.000234005
0.000265593
0.00173448
0.00406969
0.00427509
0.0018823
0.000301035
0.000296341
0.00197697
0.00448448
0.00357663
0.00165042
0.000270519
0.00027002
0.00169689
0.00371617
0.00352663
0.00164267
0.000269801
0.000262028
0.00171348
0.00365898
0.00290171
0.00145386
0.000244107
0.000248838
0.00153005
0.00316121
0.00358604
0.00171757
0.000270786
0.000289543
0.00187627
0.00396383
0.00398781
0.00195742
0.000293912
0.000302166
0.00191876
0.00371084
0.00320798
0.00213067
0.000327859
0.000373755
0.00238345
0.00263629
0.00215925
0.00205267
0.000387144
0.000430417
0.00181546
0.00204814
0.00177861
0.00146746
0.000478852
0.000547718
0.0013202
0.00144501
0.00119324
0.00104939
0.000574367
0.000526496
0.000900322
0.00115986
0.00109485
0.000771186
0.000603443
0.000373789
0.000683865
0.00112395
0.00121081
0.000675972
0.000462806
0.000243779
0.000716118
0.00140134
0.00154314
0.000782583
0.000249561
0.000206036
0.000633753
0.00197498
0.00105799
0.000488728
0.000199223
0.000188852
0.000479697
0.00119432
0.00116534
0.000461137
0.0001855
0.000166318
0.000400481
0.000782713
0.000985933
0.000432678
0.00016099
0.000150781
0.000431733
0.000912587
0.000839905
0.00040494
0.00013485
0.000119447
0.000362005
0.00063818
0.000834749
0.000407141
0.000113364
0.000105989
0.000426497
0.000807455
0.000777837
0.000409216
9.61622e-05
8.50211e-05
0.000384489
0.000625717
0.000839131
0.000444875
8.28733e-05
8.93011e-05
0.000457268
0.000776032
0.00125895
0.000599218
0.000104744
0.000120439
0.000672292
0.00141393
0.00146517
0.00071507
0.000115735
0.000109219
0.000685349
0.00120709
0.00165917
0.000820015
0.000118268
0.000126598
0.000887243
0.00165256
0.00158652
0.000844407
0.000113551
0.000104518
0.000763281
0.0012706
0.00161351
0.00088136
0.000111504
0.000121476
0.000949673
0.00168456
0.00160459
0.000909315
0.000111763
9.84737e-05
0.000810281
0.00153083
0.00119498
0.000673342
8.51804e-05
8.96497e-05
0.000806565
0.00155618
0.00146245
0.000734867
8.79681e-05
7.0865e-05
0.000632151
0.00122207
0.000686349
0.000199031
3.85021e-05
3.08255e-05
0.000250181
0.000934908
0.000785352
0.000226668
3.70203e-05
2.88667e-05
0.000185226
0.000560139
0.000535778
0.000178705
2.31679e-05
1.60652e-05
7.54028e-05
0.000211391
0.000563421
0.000298208
2.39854e-05
3.14895e-05
0.000288172
0.000568806
0.000467469
0.000196647
2.66214e-05
2.10883e-05
0.000169658
0.000430742
0.000158557
6.05977e-05
1.38715e-05
2.00702e-05
0.000241215
0.000473507
0.00044683
0.000204521
2.6563e-05
2.17895e-05
0.000173587
0.000404378
0.000154564
6.29349e-05
1.49315e-05
2.02801e-05
0.000232961
0.000456933
0.000417897
0.00019207
2.64506e-05
2.15232e-05
0.000160164
0.000361394
0.000138492
6.55813e-05
1.64523e-05
1.97335e-05
0.000213559
0.000416941
0.000397243
0.000193038
2.58046e-05
2.22934e-05
0.000135288
0.000314486
0.000294735
0.000126344
1.86874e-05
1.43628e-05
5.26041e-05
0.000114356
0.000351998
0.000175987
1.76873e-05
2.36187e-05
0.000154041
0.000319341
0.000275197
0.000127754
1.93615e-05
1.43554e-05
5.17636e-05
0.000107564
0.000315437
0.000159901
1.65782e-05
2.21708e-05
0.000135883
0.000278354
0.000250148
0.000117804
1.84045e-05
1.3764e-05
4.83002e-05
0.000100984
0.000299627
0.000152254
1.60548e-05
2.17755e-05
0.000133605
0.000270222
0.000235857
0.000111866
1.82119e-05
1.35097e-05
4.62972e-05
9.63498e-05
0.000267472
0.000139291
1.53091e-05
2.07711e-05
0.000121256
0.00024009
0.00021844
0.000105585
1.76794e-05
1.33797e-05
4.49262e-05
9.26116e-05
0.000258638
0.000135574
1.492e-05
2.04663e-05
0.00012087
0.000235213
0.000205896
0.000100193
1.75024e-05
1.41234e-05
4.42139e-05
8.72966e-05
0.000232195
0.000124515
1.41354e-05
1.84365e-05
0.000115697
0.000224107
9.5716e-05
5.15523e-05
1.46882e-05
1.56779e-05
0.00014108
0.000263553
0.00023596
0.000124141
2.10838e-05
1.80981e-05
0.000105078
0.000202677
8.98328e-05
4.69251e-05
1.44933e-05
1.50417e-05
0.000128285
0.000232893
0.000213077
0.000115192
2.04647e-05
1.76721e-05
9.97814e-05
0.000189412
8.42813e-05
4.36307e-05
1.38992e-05
1.37772e-05
0.000111003
0.000194783
0.00018681
0.000104116
1.79918e-05
1.43106e-05
4.85996e-05
8.62603e-05
0.000207851
0.000119104
1.44417e-05
1.94907e-05
0.000105545
0.000184336
0.00016589
9.12265e-05
1.68698e-05
1.3532e-05
4.25168e-05
7.83874e-05
0.00016985
0.000101183
1.31058e-05
1.73143e-05
9.55468e-05
0.000166745
8.1733e-05
4.73467e-05
1.37553e-05
1.3939e-05
0.000111613
0.000186655
0.000174672
0.000102424
1.93694e-05
1.73175e-05
9.2289e-05
0.000157623
7.74166e-05
4.43617e-05
1.50829e-05
1.40968e-05
0.000103508
0.00017378
0.000166044
0.000101232
1.83149e-05
1.46971e-05
4.71741e-05
7.98982e-05
0.000179888
0.000107077
1.40366e-05
1.89266e-05
9.64919e-05
0.000160938
0.000145868
8.52973e-05
1.65718e-05
1.40109e-05
4.32327e-05
7.26626e-05
0.000146857
9.31227e-05
1.31883e-05
1.76191e-05
8.81646e-05
0.000140607
7.44398e-05
4.75201e-05
1.4383e-05
1.36193e-05
9.81168e-05
0.000151876
0.000142943
8.98643e-05
1.8721e-05
1.66289e-05
8.44249e-05
0.000130589
6.86757e-05
4.23187e-05
1.46047e-05
1.33097e-05
8.84476e-05
0.000136358
0.000127629
8.39316e-05
1.76616e-05
1.42802e-05
4.57258e-05
6.86039e-05
0.0001384
9.21287e-05
1.303e-05
1.71508e-05
8.51832e-05
0.000129561
7.11311e-05
4.79489e-05
1.39452e-05
1.30925e-05
9.37163e-05
0.000136411
0.000129103
8.57167e-05
1.7643e-05
1.45161e-05
5.0141e-05
7.27635e-05
0.000140951
9.52698e-05
1.36952e-05
1.8833e-05
8.8799e-05
0.000135647
0.00011953
7.78754e-05
1.67427e-05
1.40199e-05
4.57354e-05
6.52996e-05
0.000122656
8.38092e-05
1.29792e-05
1.75377e-05
7.90251e-05
0.00011434
6.53247e-05
4.85881e-05
1.43638e-05
1.31141e-05
8.44806e-05
0.00011982
0.000112257
7.92058e-05
1.75049e-05
1.4284e-05
4.94524e-05
6.54558e-05
0.000121961
8.63807e-05
1.31797e-05
1.7712e-05
8.08897e-05
0.000113905
6.76019e-05
5.16993e-05
1.46517e-05
1.37324e-05
8.74312e-05
0.000124054
0.000121613
8.53846e-05
1.93056e-05
1.73296e-05
7.49516e-05
0.000108
6.08261e-05
4.78141e-05
1.4177e-05
1.2828e-05
7.91761e-05
0.00011246
0.000105793
7.52229e-05
1.74308e-05
1.42239e-05
4.94156e-05
6.16126e-05
0.000114023
8.17164e-05
1.29791e-05
1.77606e-05
7.72966e-05
0.000106146
6.32166e-05
5.15575e-05
1.46605e-05
1.34124e-05
8.28987e-05
0.00011351
0.000105675
7.79063e-05
1.81559e-05
1.48585e-05
5.25454e-05
6.36305e-05
0.000115442
8.42363e-05
1.34924e-05
1.82716e-05
7.96228e-05
0.000107278
6.50049e-05
5.41183e-05
1.51362e-05
1.3745e-05
8.50653e-05
0.000115032
0.000106818
8.00938e-05
1.86265e-05
1.54849e-05
5.56224e-05
6.56392e-05
0.000115761
8.47088e-05
1.41906e-05
1.98944e-05
8.30181e-05
0.00011
9.9641e-05
7.45213e-05
1.78924e-05
1.49315e-05
5.06537e-05
5.91991e-05
0.000101895
7.52128e-05
1.33239e-05
1.83886e-05
7.21503e-05
9.57929e-05
5.90316e-05
5.21347e-05
1.51403e-05
1.34007e-05
7.57453e-05
0.000100331
9.41011e-05
7.23818e-05
1.83817e-05
1.51393e-05
5.29114e-05
5.8962e-05
0.000100648
7.64156e-05
1.34873e-05
1.84698e-05
7.28058e-05
9.40905e-05
5.94297e-05
5.38865e-05
1.52208e-05
1.35021e-05
7.66029e-05
0.00010013
9.41374e-05
7.33261e-05
1.85353e-05
1.54384e-05
5.48231e-05
6.00073e-05
0.000101416
7.77083e-05
1.37286e-05
1.8806e-05
7.42412e-05
9.5091e-05
6.0874e-05
5.60929e-05
1.5613e-05
1.39728e-05
7.83947e-05
0.000101842
9.59227e-05
7.51528e-05
1.91496e-05
1.59438e-05
5.73181e-05
6.18477e-05
0.000103679
8.00129e-05
1.41625e-05
1.93128e-05
7.65508e-05
9.73399e-05
6.29454e-05
5.85083e-05
1.61314e-05
1.43231e-05
8.05402e-05
0.000104094
9.81715e-05
7.74068e-05
1.96062e-05
1.64636e-05
5.985e-05
6.38666e-05
0.000106417
8.24511e-05
1.46801e-05
2.00379e-05
7.91749e-05
0.000100232
6.59893e-05
6.2083e-05
1.69406e-05
1.53502e-05
8.44637e-05
0.000109658
0.000106464
8.53176e-05
2.15155e-05
1.95362e-05
7.76063e-05
9.57301e-05
6.18774e-05
5.77258e-05
1.63996e-05
1.4528e-05
7.75809e-05
0.000101178
9.61524e-05
7.48022e-05
2.01402e-05
1.6742e-05
5.88619e-05
6.20832e-05
0.000102377
7.93271e-05
1.47107e-05
2.01697e-05
7.63656e-05
9.64823e-05
6.32841e-05
6.01102e-05
1.67397e-05
1.47304e-05
8.02199e-05
0.000102556
9.64405e-05
7.71974e-05
2.01976e-05
1.68648e-05
6.1079e-05
6.3789e-05
0.000103891
8.13627e-05
1.49462e-05
2.04588e-05
7.8414e-05
9.79266e-05
6.51295e-05
6.21078e-05
1.70426e-05
1.49924e-05
8.2296e-05
0.000104565
9.84579e-05
7.92282e-05
2.06041e-05
1.71752e-05
6.30142e-05
6.56514e-05
0.000105949
8.33044e-05
1.51417e-05
2.08288e-05
8.0311e-05
0.000100051
6.71188e-05
6.43626e-05
1.74915e-05
1.54581e-05
8.4623e-05
0.000106884
0.000100761
8.15285e-05
2.11482e-05
1.77048e-05
6.55587e-05
6.78419e-05
0.000108575
8.60802e-05
1.56779e-05
2.15162e-05
8.30159e-05
0.000102693
6.97083e-05
6.70258e-05
1.80196e-05
1.58378e-05
8.72662e-05
0.000109626
0.000103475
8.41673e-05
2.16804e-05
1.82204e-05
6.81883e-05
7.05334e-05
0.000111461
8.86294e-05
1.61123e-05
2.21795e-05
8.56814e-05
0.000105692
7.2949e-05
7.05598e-05
1.88554e-05
1.68395e-05
9.06569e-05
0.000114707
0.00011041
9.24859e-05
2.367e-05
2.13581e-05
8.48631e-05
9.92447e-05
6.93209e-05
6.53323e-05
1.8003e-05
1.58644e-05
8.19034e-05
0.000102392
9.77203e-05
7.9454e-05
2.20839e-05
1.85447e-05
6.6165e-05
6.8371e-05
0.000101074
8.18785e-05
1.61007e-05
2.22075e-05
7.94242e-05
9.57173e-05
6.80207e-05
6.71842e-05
1.84994e-05
1.61107e-05
8.2206e-05
0.000100056
9.53575e-05
7.98123e-05
2.22976e-05
1.86405e-05
6.80451e-05
6.82337e-05
0.000101224
8.31922e-05
1.62399e-05
2.23659e-05
8.07575e-05
9.61573e-05
6.91357e-05
6.93001e-05
1.87703e-05
1.64059e-05
8.42839e-05
0.000102471
9.77364e-05
8.19789e-05
2.25414e-05
1.90675e-05
7.06337e-05
7.02401e-05
0.000105049
8.63209e-05
1.67358e-05
2.30911e-05
8.39152e-05
0.000100172
7.21798e-05
7.27421e-05
1.94241e-05
1.70924e-05
8.8434e-05
0.000107388
0.000102635
8.61691e-05
2.35209e-05
2.01147e-05
7.5472e-05
7.43214e-05
0.000113147
9.18928e-05
1.79337e-05
2.52162e-05
9.50146e-05
0.00010914
9.94541e-05
8.85742e-05
2.29161e-05
1.94739e-05
7.18138e-05
7.3527e-05
0.000104999
8.63329e-05
1.7088e-05
2.40803e-05
8.41934e-05
0.000100978
7.31501e-05
7.40502e-05
2.03546e-05
1.75699e-05
8.84192e-05
0.000106376
0.000101508
8.60368e-05
2.42566e-05
2.03981e-05
7.58009e-05
7.42097e-05
0.000108712
9.06185e-05
1.77115e-05
2.43597e-05
8.81349e-05
0.000104123
7.64501e-05
7.76467e-05
2.05971e-05
1.7959e-05
9.26621e-05
0.000111086
0.000105988
9.03541e-05
2.45545e-05
2.09495e-05
8.00664e-05
7.83948e-05
0.000114252
9.46288e-05
1.86843e-05
2.63117e-05
9.80212e-05
0.000108778
0.000100872
9.19695e-05
2.40818e-05
2.07109e-05
7.59438e-05
7.73236e-05
0.00010683
8.94485e-05
1.81282e-05
2.53402e-05
8.72365e-05
0.000102579
7.63661e-05
7.82568e-05
2.13081e-05
1.84584e-05
9.1062e-05
0.000108149
0.00010382
8.90322e-05
2.54966e-05
2.17586e-05
8.12019e-05
7.79943e-05
0.000113369
9.46034e-05
1.91687e-05
2.72567e-05
9.88456e-05
0.000108579
0.000100066
9.32639e-05
2.49599e-05
2.14324e-05
7.88571e-05
7.84154e-05
0.000107575
9.08587e-05
1.87256e-05
2.61969e-05
8.89521e-05
0.000103614
7.83857e-05
8.13721e-05
2.21176e-05
1.90788e-05
9.37599e-05
0.000110136
0.000105151
9.16472e-05
2.62961e-05
2.21013e-05
8.38095e-05
8.02683e-05
0.000113699
9.58522e-05
1.93319e-05
2.77082e-05
0.000100263
0.000107923
0.000100838
9.4683e-05
2.54921e-05
2.20801e-05
8.05729e-05
8.02262e-05
0.00010826
9.21763e-05
1.92173e-05
2.69477e-05
9.01867e-05
0.000104106
8.00789e-05
8.35582e-05
2.27349e-05
1.95951e-05
9.47613e-05
0.000110608
0.000106266
9.28753e-05
2.71649e-05
2.33086e-05
8.74871e-05
8.2205e-05
0.000117267
9.93975e-05
2.03489e-05
2.8866e-05
0.000104229
0.000112559
0.00010427
9.94702e-05
2.67914e-05
2.32076e-05
8.70989e-05
8.44606e-05
0.000113948
9.77102e-05
2.03628e-05
2.84472e-05
9.62141e-05
0.000110066
8.6352e-05
9.13935e-05
2.4384e-05
2.13496e-05
0.000102588
0.000119795
0.000115297
0.000108219
3.0123e-05
2.7192e-05
0.00010277
0.000106421
8.65592e-05
8.88234e-05
2.33774e-05
2.04921e-05
9.88834e-05
0.000115594
0.000112149
9.71964e-05
2.90597e-05
2.52479e-05
9.32701e-05
8.8846e-05
0.000120431
0.000103962
2.20374e-05
3.12285e-05
0.000109661
0.000115857
0.0001078
0.000105322
2.87467e-05
2.4793e-05
9.39156e-05
9.0171e-05
0.000117976
0.000102646
2.1676e-05
3.10691e-05
0.00010839
0.000112867
0.000107052
0.000102522
2.834e-05
2.50317e-05
9.10738e-05
8.92083e-05
0.000115085
9.95231e-05
2.19195e-05
3.0813e-05
9.8455e-05
0.00011137
9.03646e-05
9.74674e-05
2.63832e-05
2.30344e-05
0.000106263
0.000121724
0.000117209
0.000112142
3.26278e-05
3.02897e-05
0.000108333
0.000109887
9.30575e-05
9.97169e-05
2.63219e-05
2.27814e-05
0.000108474
0.000124878
0.000120685
0.000114577
3.28152e-05
3.07864e-05
0.000110379
0.000113203
9.59851e-05
0.00010131
2.70814e-05
2.39794e-05
0.00010969
0.000125692
0.000121563
0.000115794
3.43699e-05
3.20223e-05
0.000111301
0.000115156
9.86459e-05
0.000103375
2.7859e-05
2.39691e-05
0.000110834
0.000126028
0.000122313
0.000117254
3.41494e-05
3.18861e-05
0.000112867
0.000115265
9.92658e-05
0.000105055
2.83218e-05
2.50411e-05
0.00011215
0.000127322
0.000122056
0.000112638
3.61251e-05
3.48589e-05
0.00012139
0.000116099
0.00011314
0.000114838
3.28659e-05
2.89916e-05
0.000103167
0.000100687
0.000122641
0.000108488
2.47035e-05
3.62236e-05
0.000115392
0.000118847
0.000113105
0.00011128
3.41646e-05
3.00649e-05
0.000107273
9.96219e-05
0.000126438
0.000112583
2.61761e-05
3.78314e-05
0.000112191
0.000121536
0.000116027
0.000119953
3.72266e-05
3.40311e-05
0.000114384
0.000112665
0.000100603
0.000108744
3.08638e-05
2.72741e-05
0.000114021
0.000129181
0.000125367
0.000113068
4.02792e-05
3.87828e-05
0.000125716
0.000119457
0.000115429
0.000120002
3.63028e-05
3.16469e-05
0.000112325
0.000104793
0.000130795
0.000116146
2.64276e-05
3.9408e-05
0.000118537
0.000125908
0.000122159
0.000122975
3.95057e-05
4.00483e-05
0.000122125
0.000118243
0.0001166
0.000116361
3.8992e-05
3.45204e-05
0.000113842
0.000105689
0.000131564
0.000116516
2.84442e-05
4.27454e-05
0.000119997
0.000129066
0.000124756
0.000120857
4.37891e-05
4.473e-05
0.000125461
0.00012098
0.000119594
0.000121843
4.47331e-05
4.39111e-05
0.000124299
0.00011643
0.000114141
0.00011813
4.2251e-05
3.79732e-05
0.000117988
0.000106773
0.00013066
0.000118443
3.10247e-05
4.35228e-05
0.000117107
0.000127337
0.000122145
0.00012598
4.38504e-05
4.61692e-05
0.000124268
0.000120773
0.000119457
0.000123887
4.78239e-05
4.91285e-05
0.000120909
0.000119079
0.000117345
0.000122513
5.11635e-05
5.17935e-05
0.000119247
0.000117154
0.000116385
0.000125708
5.25173e-05
5.31845e-05
0.000127515
0.000116601
0.000117599
0.000135164
5.26015e-05
5.13271e-05
0.00014014
0.000118321
0.000121587
0.000150296
4.99292e-05
4.83609e-05
0.000154608
0.000122786
0.000128029
0.000163066
4.69911e-05
4.55913e-05
0.000161984
0.000129717
0.000136502
0.000170379
4.44304e-05
4.32707e-05
0.000170123
0.00013884
0.000146955
0.000177462
4.2322e-05
4.14202e-05
0.000179631
0.000149803
0.000159969
0.000184763
4.06613e-05
3.99738e-05
0.000188321
0.000163651
0.000176147
0.00019199
3.93811e-05
3.8864e-05
0.000195745
0.000180232
0.000194205
0.000199456
3.84108e-05
3.80412e-05
0.000203061
0.000198984
0.000213619
0.000206878
3.76817e-05
3.74544e-05
0.000210601
0.000219243
0.00023467
0.000214613
3.71633e-05
3.707e-05
0.000218409
0.000240007
0.000257036
0.000222393
3.68405e-05
3.6849e-05
0.000226213
0.000258148
0.000275273
0.000230294
3.66839e-05
3.67418e-05
0.000234032
0.000276399
0.000293095
0.000237982
3.66463e-05
3.67244e-05
0.000241627
0.000294117
0.000310444
0.00024557
3.66812e-05
3.67654e-05
0.000248944
0.000311252
0.000326882
0.000252674
3.67592e-05
3.6841e-05
0.000255802
0.000327499
0.00034251
0.000259481
3.68565e-05
3.69364e-05
0.000262296
0.000342793
0.000357001
0.000265752
3.69725e-05
3.70499e-05
0.000268365
0.000357071
0.00037048
0.000271718
3.70872e-05
3.71782e-05
0.000274088
0.000370262
0.000382823
0.00027708
3.72155e-05
3.73128e-05
0.00027925
0.000382529
0.000394445
0.000282048
3.73408e-05
3.74353e-05
0.000283886
0.000393841
0.000405009
0.000286437
3.74581e-05
3.75482e-05
0.000288057
0.000404353
0.000414976
0.000290469
3.75629e-05
3.7648e-05
0.000291784
0.000414031
0.000424066
0.000293966
3.76591e-05
3.77393e-05
0.000295105
0.000423118
0.000432716
0.000297164
3.77441e-05
3.78193e-05
0.000298036
0.000431502
0.000440636
0.000299889
3.78219e-05
3.78927e-05
0.000300634
0.000439458
0.00044826
0.00030239
3.78905e-05
3.79568e-05
0.000302908
0.00044682
0.000455229
0.000304484
3.79528e-05
3.80148e-05
0.000304922
0.000453852
0.000462053
0.000306434
3.80073e-05
3.80651e-05
0.000306672
0.000460427
0.000468284
0.000308021
3.80563e-05
3.81098e-05
0.000308148
0.000466597
0.000474437
0.000309477
3.80976e-05
3.81484e-05
0.000309531
0.000472638
0.000480123
0.00031072
3.81359e-05
3.81846e-05
0.000310782
0.000478496
0.000485878
0.000311948
3.817e-05
3.82172e-05
0.000311874
0.000484006
0.000491148
0.000312913
3.8203e-05
3.82482e-05
0.000312852
0.000489393
0.000496496
0.000313888
3.82324e-05
3.82758e-05
0.000313714
0.000494495
0.000501472
0.000314643
3.82604e-05
3.8302e-05
0.000314506
0.000499547
0.000505482
0.000315451
3.82857e-05
3.83262e-05
0.000315211
0.0005042
0.000508763
0.00031606
3.83113e-05
3.83504e-05
0.000315858
0.000508702
0.000511729
0.000316723
3.83351e-05
3.83729e-05
0.000316417
0.000512755
0.000514476
0.000317187
3.83589e-05
3.83949e-05
0.00031692
0.000516655
0.000516892
0.000317702
3.83806e-05
3.84148e-05
0.000317328
0.000520099
0.000519109
0.000318012
3.84017e-05
3.84336e-05
0.000317675
0.000523431
0.000521059
0.000318376
3.84201e-05
3.84495e-05
0.000317935
0.000525474
0.000522802
0.000318538
3.8437e-05
3.84639e-05
0.000318143
0.000527293
0.000524319
0.000318762
3.8451e-05
3.84756e-05
0.000318265
0.000528597
0.000525614
0.000318789
3.84636e-05
3.84857e-05
0.000318341
0.000530025
0.000526761
0.000318887
3.84734e-05
3.84931e-05
0.000318343
0.000530974
0.000527738
0.000318803
3.84817e-05
3.8499e-05
0.000318316
0.000532107
0.00052862
0.000318808
3.84873e-05
3.85026e-05
0.000318232
0.000532806
0.000529373
0.000318646
3.84919e-05
3.85053e-05
0.000318134
0.000533727
0.000530056
0.000318586
3.84945e-05
3.85064e-05
0.000317992
0.000534227
0.000530624
0.000318373
3.84966e-05
3.8507e-05